FOO
141312
    1MOL0     O    1  10.097  10.347  10.034 -0.0105 -0.4039 -0.5793
    1MOL0     C    2  10.101  10.432  10.127  0.2118  0.5096 -0.0133
    1MOL0     O    3   9.998  10.490  10.184  0.0159 -0.1828 -0.6609
    1MOL0     C    4   9.865  10.462  10.145  0.6181  0.2128 -0.2850
    1MOL0     C    5   9.771  10.387  10.215 -0.4122  0.3182 -0.1328
    1MOL0     C    6   9.645  10.360  10.173  0.2130 -0.1559  0.7472
    1MOL0     C    7   9.606  10.397  10.048 -0.5060  0.3242  0.7354
    1MOL0     O    8   9.489  10.347  10.001  1.0387  0.1091  0.7247
    1MOL0     C    9   9.444  10.340   9.862 -0.2457  0.3579 -0.2965
    1MOL0     C   10   9.526  10.236   9.771  0.7850 -0.5697 -0.6564
    1MOL0     C   11   9.499  10.084   9.801  0.1421 -0.0193  0.6743
    1MOL0     C   12   9.642  10.015   9.798 -0.3822 -0.2358 -0.1831
    1MOL0     C   13   9.612   9.865   9.810  0.0195  0.6317 -0.0143
    1MOL0     C   14   9.631   9.790   9.939 -0.2142 -0.9644  1.0072
    1MOL0     C   15   9.595   9.636   9.924 -0.8256 -1.0122 -0.1243
    1MOL0     C   16   9.571   9.584  10.064  0.0563  0.2110  0.1538
    1MOL0     N   17   9.573   9.436  10.055 -0.8958  0.2464 -0.2938
    1MOL0     C   18   9.657   9.361  10.132  0.0330 -0.1498 -0.1109
    1MOL0     C   19   9.594   9.236  10.132  0.0420  0.7709 -0.8307
    1MOL0     C   20   9.660   9.105  10.180 -0.6092  0.0216  0.5244
    1MOL0     C   21   9.686   9.010  10.053  1.2501  0.2655  0.5499
    1MOL0     C   22   9.773   8.884  10.092  0.0329  0.3028 -0.1448
    1MOL0     C   23   9.807   8.785   9.978  0.5376  0.2951 -0.1733
    1MOL0     O   24   9.684   8.717   9.944  0.0904  0.1150  0.3484
    1MOL0     C   25   9.690   8.604   9.867  0.0569 -0.1547  0.9093
    1MOL0     C   26   9.568   8.543   9.843 -0.1177  0.1152  0.4448
    1MOL0     C   27   9.565   8.410   9.781 -1.1609 -1.0004 -0.1847
    1MOL0     C   28   9.442   8.335   9.803 -1.0519  0.1476  0.1238
    1MOL0     C   29   9.683   8.347   9.732  0.5925  0.4262 -0.3671
    1MOL0     C   30   9.698   8.202   9.687 -0.1353 -0.9586  0.1124
    1MOL0     O   31   9.817   8.166   9.622 -0.2096  0.6690  0.5423
    1MOL0     C   32   9.842   8.033   9.576  0.3440  0.5168  0.9452
    1MOL0     C   33   9.981   8.005   9.546  0.0336 -0.7294  0.6300
    1MOL0     C   34  10.024   7.872   9.508  0.3852 -0.5485  0.4614
    1MOL0     C   35   9.930   7.773   9.494 -0.3963 -0.4813 -0.6988
    1MOL0     O   36   9.961   7.640   9.462 -0.3113 -0.2862 -0.4335
    1MOL0     C   37  10.081   7.580   9.500  0.6710  0.1912 -1.4092
    1MOL0     C   38  10.122   7.481   9.399  0.2068  0.1291 -0.2748
    1MOL0     C   39  10.253   7.414   9.443 -0.5841  0.3299  0.1151
    1MOL0     C   40  10.375   7.494   9.402  0.0726  0.1326  0.2584
    1MOL0     C   41  10.516   7.441   9.435  0.4858 -0.0527 -0.7491
    1MOL0     C   42  10.540   7.321   9.353  0.1411  0.2828 -0.1407
    1MOL0     C   43  10.685   7.274   9.359 -0.5382  0.3014  0.1127
    1MOL0     C   44  10.740   7.274   9.503  0.2017 -1.2847  0.0917
    1MOL0    Cl   45  10.900   7.173   9.488  0.0451 -0.0034  0.2144
    1MOL0     C   46   9.795   7.804   9.516 -1.0411 -0.6054  0.2053
    1MOL0     C   47   9.744   7.925   9.560 -0.3946 -0.6709 -0.5156
    1MOL0     O   48   9.613   8.123   9.722 -0.2588 -0.5871 -0.2228
    1MOL0     C   49   9.801   8.423   9.744 -0.3971 -0.2136 -0.5405
    1MOL0     C   50   9.808   8.545   9.813 -0.3534 -0.4711 -0.6684
    1MOL0     N   51   9.479   9.243  10.054  0.0397  0.3049  0.9516
    1MOL0     N   52   9.468   9.367  10.012 -0.2452  0.9053  0.3161
    1MOL0     C   53   9.689  10.486   9.985 -1.2408 -0.6468 -0.1425
    1MOL0     C   54   9.817  10.524  10.034  0.9888  0.4089 -0.5089
    1MOL0     C   55  10.227  10.442  10.202  0.2460  0.4112  0.0950
    1MOL0     C   56  10.222  10.459  10.344 -1.2111 -0.8423  0.0997
    1MOL0     C   57  10.338  10.471  10.417 -0.4634 -0.0157 -0.7028
    1MOL0     C   58  10.465  10.466  10.363  0.3242  0.5419 -0.8198
    1MOL0     O   59  10.581  10.469  10.435  0.1439  0.7080 -0.2104
    1MOL0     C   60  10.590  10.565  10.541  0.1795 -0.3677  0.0833
    1MOL0     C   61  10.721  10.531  10.616 -0.4766  0.1368 -0.0753
    1MOL0     C   62  10.706  10.409  10.711 -0.4487  0.1064  0.4572
    1MOL0     C   63  10.802  10.395  10.820 -0.3528 -0.0255 -1.4641
    1MOL0     C   64  10.932  10.359  10.770  0.7024 -0.3175  0.0302
    1MOL0     C   65  11.038  10.333  10.722  0.0783  0.3318  0.2968
    1MOL0     C   66  10.477  10.447  10.223 -0.2455 -0.1677  0.8284
    1MOL0     C   67  10.364  10.429  10.146 -0.0437 -0.9488  0.4171
    1MOL0     C   68  10.401  10.396  10.005  0.0207 -0.2252  0.7236
    1MOL0     H   69   9.803  10.324  10.297  3.3496 -1.6808 -2.8644
    1MOL0     H   70   9.582  10.292  10.229 -0.7697  0.3302  0.2690
    1MOL0     H   71   9.468  10.443   9.832 -1.1882  1.2137  1.6894
    1MOL0     H   72   9.338  10.315   9.858 -1.0008  3.3869 -1.9483
    1MOL0     H   73   9.503  10.265   9.668 -1.0173  0.6338  0.0526
    1MOL0     H   74   9.631  10.263   9.784  0.0219  2.7130 -0.4454
    1MOL0     H   75   9.470  10.060   9.904  2.8390  2.9931  2.3582
    1MOL0     H   76   9.423  10.053   9.729 -3.0489  0.9624  3.3674
    1MOL0     H   77   9.674  10.037   9.696 -1.0623 -1.0142 -0.5748
    1MOL0     H   78   9.701  10.054   9.881  0.6321 -1.2103 -0.4221
    1MOL0     H   79   9.689   9.811   9.755  0.7354 -0.9283  2.3880
    1MOL0     H   80   9.511   9.844   9.774 -2.9765  2.8676  5.7659
    1MOL0     H   81   9.729   9.803   9.986  0.2356 -1.8867  0.3482
    1MOL0     H   82   9.557   9.841  10.001 -3.0942  1.4074 -3.8804
    1MOL0     H   83   9.688   9.588   9.890  0.2077  0.3254  0.7041
    1MOL0     H   84   9.517   9.623   9.849  0.1084  2.3739 -1.9122
    1MOL0     H   85   9.654   9.621  10.125  0.0788 -0.5715  0.6009
    1MOL0     H   86   9.474   9.611  10.107 -0.4168  0.0299 -0.7857
    1MOL0     H   87   9.748   9.387  10.184  1.1570  0.5156 -2.3061
    1MOL0     H   88   9.587   9.063  10.250 -1.3800  1.4793  0.6401
    1MOL0     H   89   9.751   9.122  10.238 -0.1806 -4.1566  1.3893
    1MOL0     H   90   9.592   8.965  10.021  1.2884  0.5960 -0.0395
    1MOL0     H   91   9.732   9.067   9.971  0.4815 -0.9009 -0.7325
    1MOL0     H   92   9.867   8.928  10.126 -0.9589  1.6776  0.9817
    1MOL0     H   93   9.719   8.839  10.176  0.2321  1.0405  0.3994
    1MOL0     H   94   9.858   8.838   9.897  0.2686  0.6295 -0.1274
    1MOL0     H   95   9.886   8.713  10.002  1.3702  0.8363 -1.2130
    1MOL0     H   96   9.484   8.600   9.883 -1.2077  1.2782 -3.1412
    1MOL0     H   97   9.352   8.392   9.825 -1.7051 -1.0389  0.5828
    1MOL0     H   98   9.458   8.262   9.882 -0.2464 -0.8753 -0.9473
    1MOL0     H   99   9.410   8.270   9.721 -2.3555  2.3187 -1.1675
    1MOL0     H  100  10.050   8.086   9.566 -1.7923  0.8895  0.6071
    1MOL0     H  101  10.130   7.853   9.515  0.0976 -2.1250  0.8526
    1MOL0     H  102  10.166   7.647   9.515  1.8349 -1.9815  4.9411
    1MOL0     H  103  10.066   7.528   9.595  3.0027 -0.1793 -1.2081
    1MOL0     H  104  10.037   7.413   9.396  1.0058 -1.1359  2.4571
    1MOL0     H  105  10.142   7.513   9.296  0.4740 -2.6057 -1.1696
    1MOL0     H  106  10.263   7.312   9.403  0.4487 -0.8434  3.0996
    1MOL0     H  107  10.250   7.387   9.549 -4.5682  3.9337  1.1835
    1MOL0     H  108  10.361   7.592   9.449  0.4464 -1.2657  3.5776
    1MOL0     H  109  10.362   7.505   9.294 -3.6749  3.4401  0.7776
    1MOL0     H  110  10.592   7.511   9.399 -0.5909  2.6998  1.9064
    1MOL0     H  111  10.535   7.413   9.539 -1.3114 -4.2162 -1.3675
    1MOL0     H  112  10.530   7.342   9.246  3.4364 -1.8884 -1.0513
    1MOL0     H  113  10.475   7.238   9.382  2.7222 -1.0866  2.2509
    1MOL0     H  114  10.757   7.331   9.300  2.8299 -1.3393  2.3463
    1MOL0     H  115  10.694   7.176   9.312  1.4266 -0.3769  1.7439
    1MOL0     H  116  10.675   7.221   9.573  0.3586  1.3923  2.3827
    1MOL0     H  117  10.760   7.376   9.535  1.9764 -1.3342 -0.7069
    1MOL0     H  118   9.729   7.720   9.500 -1.9685 -0.4031  2.5946
    1MOL0     H  119   9.640   7.948   9.578  0.0573 -0.2748  1.9264
    1MOL0     H  120   9.890   8.373   9.707  1.8734  0.6251  3.2611
    1MOL0     H  121   9.908   8.587   9.817 -0.4276 -0.1458  4.6127
    1MOL0     H  122   9.645  10.532   9.897  1.2722  1.5743 -0.3670
    1MOL0     H  123   9.874  10.594   9.974 -2.2089  1.5316 -2.5321
    1MOL0     H  124  10.128  10.456  10.398  0.4901  0.8443  3.4834
    1MOL0     H  125  10.324  10.490  10.523  0.7262 -1.1795 -0.3085
    1MOL0     H  126  10.584  10.665  10.498 -1.3403 -0.1255  0.8013
    1MOL0     H  127  10.510  10.541  10.612  1.1018  0.1282  1.3164
    1MOL0     H  128  10.738  10.612  10.687  0.1741 -1.1018  1.2278
    1MOL0     H  129  10.803  10.523  10.545 -0.5700  2.4663 -0.4987
    1MOL0     H  130  10.609  10.413  10.761 -0.2471  1.1765  0.8016
    1MOL0     H  131  10.695  10.321  10.648 -1.5593 -0.5782  1.5820
    1MOL0     H  132  10.776  10.308  10.881  1.2906  1.2642  1.2649
    1MOL0     H  133  10.800  10.483  10.885  2.0072 -0.4296 -0.7442
    1MOL0     H  134  11.132  10.312  10.675 -1.5437  1.3402 -3.9198
    1MOL0     H  135  10.577  10.457  10.184 -0.2673 -1.6319  0.3628
    1MOL0     H  136  10.366  10.474   9.937  0.7460 -0.3769  0.1544
    1MOL0     H  137  10.511  10.397  10.001  0.1145  3.4097  1.0926
    1MOL0     H  138  10.353  10.300   9.982  0.0832 -0.1386  0.2232
    2MOL0     O  139   7.237   6.442   2.539  0.3728 -0.2120  0.3521
    2MOL0     C  140   7.133   6.413   2.478 -0.5043 -0.9170 -0.2533
    2MOL0     O  141   7.110   6.427   2.342  0.3295 -0.4809  0.3709
    2MOL0     C  142   7.198   6.494   2.264 -0.2852 -0.0401 -0.4014
    2MOL0     C  143   7.251   6.423   2.154  0.1072 -0.1520  0.0578
    2MOL0     C  144   7.327   6.497   2.063  0.6138  1.2884  0.2511
    2MOL0     C  145   7.354   6.632   2.082 -0.0575  1.6848 -0.3208
    2MOL0     O  146   7.424   6.714   1.993  0.0242  0.7050 -0.1378
    2MOL0     C  147   7.554   6.654   1.953  0.8542 -0.8178 -0.7005
    2MOL0     C  148   7.632   6.787   1.932 -0.2537 -0.4311  1.0395
    2MOL0     C  149   7.658   6.856   2.075  0.8288 -0.0739  0.8791
    2MOL0     C  150   7.737   6.990   2.058 -0.0246 -0.2861  0.5488
    2MOL0     C  151   7.753   7.053   2.200 -0.0212  0.1579 -0.2495
    2MOL0     C  152   7.857   6.998   2.302 -0.5542 -0.7706 -0.2594
    2MOL0     C  153   7.862   7.078   2.427  0.3231 -0.1263 -0.3046
    2MOL0     C  154   7.746   7.054   2.513 -0.2918  0.7822 -0.0826
    2MOL0     N  155   7.727   7.146   2.629  1.1372  0.1522 -0.1075
    2MOL0     C  156   7.767   7.272   2.632  0.4322  0.2750 -0.3632
    2MOL0     C  157   7.745   7.326   2.755  0.0402 -0.5729  0.6085
    2MOL0     C  158   7.790   7.454   2.816 -0.2421 -0.2259  0.8556
    2MOL0     C  159   7.941   7.465   2.837 -0.1932  0.3567  0.1073
    2MOL0     C  160   7.988   7.548   2.954  0.3312 -0.2107 -0.5031
    2MOL0     C  161   7.959   7.695   2.915  0.0128 -0.4290 -0.4023
    2MOL0     O  162   7.996   7.783   3.026  0.2038  0.2743 -0.0835
    2MOL0     C  163   7.946   7.908   3.045  0.3572 -0.4534 -0.3413
    2MOL0     C  164   7.941   7.952   3.180 -0.3420 -0.0093  0.4447
    2MOL0     C  165   7.884   8.084   3.205  0.3407 -0.3940 -0.4863
    2MOL0     C  166   7.860   8.113   3.357 -0.3840 -0.0433  0.2937
    2MOL0     C  167   7.851   8.177   3.095 -0.0565 -0.4126 -0.2981
    2MOL0     C  168   7.792   8.323   3.107  0.5244  0.1836 -0.6775
    2MOL0     O  169   7.785   8.386   2.990  0.5296 -0.8767 -0.7714
    2MOL0     C  170   7.727   8.510   2.986  0.1977 -0.1786 -0.5368
    2MOL0     C  171   7.610   8.553   3.054  0.6161 -0.2786 -0.9970
    2MOL0     C  172   7.561   8.680   3.035 -0.1953  0.2427  0.4436
    2MOL0     C  173   7.635   8.767   2.958  0.0211 -0.6307  0.6872
    2MOL0     O  174   7.605   8.904   2.944 -0.5147  0.5154 -0.2499
    2MOL0     C  175   7.535   8.959   3.061 -0.4488 -0.2098  0.0336
    2MOL0     C  176   7.577   9.107   3.077 -0.2426 -0.6628 -0.5869
    2MOL0     C  177   7.499   9.164   3.193 -0.5663  0.0238 -0.6413
    2MOL0     C  178   7.527   9.319   3.204 -0.3420 -0.1539  0.9228
    2MOL0     C  179   7.470   9.393   3.329  0.4967 -0.3572 -0.7339
    2MOL0     C  180   7.506   9.538   3.353 -0.5615 -0.8402 -0.7110
    2MOL0     C  181   7.651   9.586   3.319  0.7592  0.4781 -0.0479
    2MOL0     C  182   7.681   9.740   3.342 -0.2154  0.0442 -0.1027
    2MOL0    Cl  183   7.853   9.774   3.326  0.4222 -0.0572 -0.2541
    2MOL0     C  184   7.750   8.730   2.889 -0.3586  0.6242  0.5466
    2MOL0     C  185   7.787   8.597   2.893  0.1550 -0.3565  0.9736
    2MOL0     O  186   7.784   8.373   3.221 -0.4818 -0.5641  1.2573
    2MOL0     C  187   7.881   8.133   2.973  0.9607  0.2019  0.5730
    2MOL0     C  188   7.908   7.993   2.943 -0.6040 -0.9168 -0.1608
    2MOL0     N  189   7.690   7.229   2.829 -1.0494 -0.0453 -0.2110
    2MOL0     N  190   7.682   7.123   2.763  0.1235  0.6207  0.3316
    2MOL0     C  191   7.317   6.690   2.202 -0.3407  0.3799  0.2421
    2MOL0     C  192   7.236   6.621   2.285 -1.0476  0.0570 -0.7419
    2MOL0     C  193   7.006   6.378   2.563 -0.0123 -1.1932  0.8813
    2MOL0     C  194   6.896   6.345   2.489 -0.1922 -0.1907 -1.1517
    2MOL0     C  195   6.783   6.303   2.550  0.8073 -0.1804  0.2932
    2MOL0     C  196   6.763   6.299   2.684 -0.4417  0.2591  1.2415
    2MOL0     O  197   6.638   6.265   2.722  0.6398  0.6725 -0.6624
    2MOL0     C  198   6.633   6.205   2.855 -0.3985  0.9386  0.5923
    2MOL0     C  199   6.588   6.310   2.951 -0.0184 -0.5990  0.9421
    2MOL0     C  200   6.600   6.271   3.099  1.0585 -0.3190  0.6926
    2MOL0     C  201   6.549   6.124   3.133  0.3664  0.1122  0.1496
    2MOL0     C  202   6.413   6.112   3.099 -0.1924 -1.2555 -0.1466
    2MOL0     C  203   6.300   6.116   3.055  1.5939 -0.2815 -0.5731
    2MOL0     C  204   6.875   6.335   2.763  0.2155 -0.0872 -0.1295
    2MOL0     C  205   6.998   6.376   2.703 -0.1682  1.0313 -0.0914
    2MOL0     C  206   7.102   6.427   2.801  0.2423  0.2186 -0.7117
    2MOL0     H  207   7.214   6.321   2.142 -2.6922  0.3555  2.8368
    2MOL0     H  208   7.344   6.456   1.964 -1.2879 -1.1423  0.8222
    2MOL0     H  209   7.556   6.593   1.862  2.2845 -0.0730 -1.1928
    2MOL0     H  210   7.600   6.596   2.033 -0.8813 -0.7549  0.3891
    2MOL0     H  211   7.723   6.746   1.888 -0.1149 -1.7831  2.5108
    2MOL0     H  212   7.582   6.856   1.864  1.2934 -0.0766  0.2314
    2MOL0     H  213   7.563   6.885   2.120  1.0292  2.1218  0.0379
    2MOL0     H  214   7.698   6.780   2.143  1.2988  0.3783  1.1187
    2MOL0     H  215   7.833   6.959   2.016 -1.0105 -2.6347 -0.0923
    2MOL0     H  216   7.678   7.057   1.995  0.8192 -2.3103 -2.6071
    2MOL0     H  217   7.655   7.051   2.250  0.6263  1.6064  1.1684
    2MOL0     H  218   7.793   7.152   2.179  0.2244 -0.2745 -1.9376
    2MOL0     H  219   7.846   6.892   2.325 -2.1240 -0.4138  0.8206
    2MOL0     H  220   7.951   7.010   2.248 -0.5785 -4.0775 -1.2451
    2MOL0     H  221   7.873   7.182   2.395 -1.6282  0.1392 -0.2226
    2MOL0     H  222   7.955   7.068   2.483  0.6860  1.2865 -0.6133
    2MOL0     H  223   7.652   7.068   2.458 -0.6575  1.4687  0.7023
    2MOL0     H  224   7.756   6.955   2.559 -1.1972  1.6558  2.1424
    2MOL0     H  225   7.814   7.321   2.547  1.1300  1.1455  0.4975
    2MOL0     H  226   7.734   7.468   2.909  0.1294  1.9723  0.8003
    2MOL0     H  227   7.766   7.544   2.759  3.6900  2.3570  2.8289
    2MOL0     H  228   7.980   7.363   2.841  0.7136  0.5827 -1.8099
    2MOL0     H  229   7.981   7.513   2.747 -1.1045  1.0332  0.0527
    2MOL0     H  230   7.937   7.521   3.047  3.3101  3.1489  2.4354
    2MOL0     H  231   8.097   7.547   2.963  0.5791  0.9197 -2.8133
    2MOL0     H  232   8.020   7.726   2.829  2.8179  0.7413  1.8529
    2MOL0     H  233   7.852   7.699   2.896 -0.0511 -0.8766 -0.1517
    2MOL0     H  234   7.990   7.887   3.251  0.3845 -2.5195 -2.1502
    2MOL0     H  235   7.773   8.060   3.397 -0.5661  0.1653  0.1789
    2MOL0     H  236   7.863   8.221   3.373  1.2499  0.4534 -2.5937
    2MOL0     H  237   7.950   8.085   3.412  1.1774  2.1722 -0.9711
    2MOL0     H  238   7.563   8.490   3.130  0.9324  0.7264  0.0623
    2MOL0     H  239   7.475   8.712   3.094 -0.9455  2.5064 -1.6671
    2MOL0     H  240   7.426   8.956   3.060 -0.4644  0.1699 -1.2303
    2MOL0     H  241   7.574   8.903   3.146  1.1369 -0.1897 -0.6387
    2MOL0     H  242   7.684   9.116   3.099 -0.0628 -0.2341 -1.5902
    2MOL0     H  243   7.548   9.157   2.984  1.8454 -1.6300 -1.8337
    2MOL0     H  244   7.525   9.115   3.288 -1.0736  2.7237  0.9960
    2MOL0     H  245   7.393   9.137   3.185 -0.6556 -1.2683  3.0854
    2MOL0     H  246   7.498   9.369   3.111 -1.5482 -1.6736  0.4398
    2MOL0     H  247   7.636   9.332   3.208 -0.1446 -1.2249 -0.2976
    2MOL0     H  248   7.362   9.382   3.335  0.5655 -0.1196  2.6765
    2MOL0     H  249   7.517   9.343   3.414 -1.3774 -0.6886  0.1364
    2MOL0     H  250   7.489   9.580   3.453  0.7919  0.5074 -1.0043
    2MOL0     H  251   7.432   9.596   3.297  1.4748  0.7768 -1.8852
    2MOL0     H  252   7.677   9.556   3.217  3.4079 -0.5300  0.8494
    2MOL0     H  253   7.722   9.536   3.385 -0.5149 -1.4612 -0.0551
    2MOL0     H  254   7.651   9.768   3.444 -0.8755 -0.6680 -0.0864
    2MOL0     H  255   7.628   9.817   3.285 -0.7275 -0.4022 -0.2475
    2MOL0     H  256   7.808   8.804   2.834  1.9654 -1.1560  0.4572
    2MOL0     H  257   7.885   8.562   2.864  0.3025 -0.2586  1.3473
    2MOL0     H  258   7.871   8.200   2.889 -2.1154  0.1713  0.7979
    2MOL0     H  259   7.913   7.956   2.841 -2.0184 -0.7015 -0.3254
    2MOL0     H  260   7.339   6.795   2.220 -0.1164  0.3622  0.0783
    2MOL0     H  261   7.193   6.675   2.368 -0.0640  2.4265 -1.6513
    2MOL0     H  262   6.889   6.344   2.381 -1.6466  0.9217 -1.1076
    2MOL0     H  263   6.696   6.287   2.487  2.0079 -0.4367 -1.3783
    2MOL0     H  264   6.552   6.132   2.856 -2.2583  2.5553 -4.0003
    2MOL0     H  265   6.730   6.163   2.885  0.3761  1.0022 -1.6412
    2MOL0     H  266   6.487   6.339   2.922  0.9751 -0.4528 -2.8203
    2MOL0     H  267   6.657   6.393   2.935 -0.6771  0.3021  2.5473
    2MOL0     H  268   6.702   6.293   3.132  1.3135  1.5395 -1.0742
    2MOL0     H  269   6.537   6.349   3.142  1.1059  0.4001 -0.4950
    2MOL0     H  270   6.558   6.117   3.242 -2.4524  1.8571  0.6138
    2MOL0     H  271   6.604   6.050   3.076 -2.3693  0.0985 -2.7782
    2MOL0     H  272   6.201   6.128   3.015  0.5152 -2.2209  1.2547
    2MOL0     H  273   6.877   6.324   2.871  5.9105 -1.9398 -0.1386
    2MOL0     H  274   7.101   6.536   2.798 -3.3756  0.3192 -0.5248
    2MOL0     H  275   7.065   6.393   2.899  0.8989  1.4477 -0.0270
    2MOL0     H  276   7.201   6.383   2.785  0.1503  0.2508 -1.3948
    3MOL0     O  277   7.516   3.671   2.499  0.5534  0.1431 -0.1012
    3MOL0     C  278   7.436   3.655   2.408 -0.0062  0.9749  0.9700
    3MOL0     O  279   7.303   3.624   2.431 -0.2756  0.4729  0.6724
    3MOL0     C  280   7.266   3.585   2.559 -0.4931  0.3125  0.2914
    3MOL0     C  281   7.189   3.672   2.638  0.0025 -0.4035  0.7007
    3MOL0     C  282   7.180   3.650   2.776 -0.3132 -0.1662  0.3781
    3MOL0     C  283   7.239   3.537   2.841  0.2804  0.6937  1.0315
    3MOL0     O  284   7.216   3.500   2.974  0.2042  0.3204 -0.3599
    3MOL0     C  285   7.185   3.603   3.063 -0.1061 -0.1283 -0.2286
    3MOL0     C  286   7.149   3.557   3.207  0.4683 -0.1257  0.2585
    3MOL0     C  287   7.050   3.650   3.271 -0.4393 -0.2881  0.0112
    3MOL0     C  288   7.101   3.797   3.284  0.4367 -0.1094 -0.4641
    3MOL0     C  289   7.240   3.816   3.356 -0.4680 -0.0846  0.3009
    3MOL0     C  290   7.266   3.968   3.388  0.4241  0.8816  0.7769
    3MOL0     C  291   7.228   4.076   3.270 -0.0060 -0.0814  0.3641
    3MOL0     C  292   7.244   4.223   3.319 -0.2754 -0.5282  1.0619
    3MOL0     N  293   7.153   4.303   3.235 -0.7609 -0.3653 -0.3138
    3MOL0     C  294   7.157   4.298   3.091 -0.6360 -0.0259 -0.1456
    3MOL0     C  295   7.042   4.357   3.060  0.9022 -0.3706  1.0986
    3MOL0     C  296   6.961   4.365   2.924  0.5098 -0.1794  0.0206
    3MOL0     C  297   7.007   4.243   2.838  0.4531  0.5906  0.5594
    3MOL0     C  298   6.916   4.240   2.712 -0.2975  0.5675  0.5088
    3MOL0     C  299   6.944   4.119   2.615  0.2032 -0.2163 -1.0093
    3MOL0     O  300   6.852   4.116   2.513  0.4494  0.0814  0.0582
    3MOL0     C  301   6.896   4.059   2.388  0.4628  0.4676 -1.0781
    3MOL0     C  302   7.016   3.978   2.360 -0.9694 -0.6165  0.4861
    3MOL0     C  303   7.044   3.927   2.231  0.7167  0.7453 -0.2236
    3MOL0     C  304   7.161   3.838   2.215 -0.4294  1.2226 -0.7125
    3MOL0     C  305   6.957   3.949   2.125  0.7821 -0.1670 -0.4812
    3MOL0     C  306   6.971   3.908   1.983 -0.3537  0.1605 -0.5321
    3MOL0     O  307   6.901   3.978   1.896 -0.0104 -0.0291 -0.1756
    3MOL0     C  308   6.943   3.996   1.770  0.0733  0.6281 -0.2221
    3MOL0     C  309   7.076   4.020   1.735 -0.6031  0.0152  0.1381
    3MOL0     C  310   7.112   4.031   1.596 -0.4628  0.4189  0.3485
    3MOL0     C  311   7.006   4.054   1.495  0.6889 -0.8169  0.3369
    3MOL0     O  312   7.032   4.056   1.353  0.8242 -0.0438  0.0282
    3MOL0     C  313   7.152   4.013   1.292 -1.2121  0.2378  0.1592
    3MOL0     C  314   7.128   3.935   1.164  1.2762  0.1243  0.2707
    3MOL0     C  315   7.083   4.030   1.046  0.2458  0.5131 -0.7328
    3MOL0     C  316   7.024   3.941   0.932 -0.0266  0.3877 -0.0573
    3MOL0     C  317   6.998   4.028   0.807 -0.3817 -0.0833 -0.3121
    3MOL0     C  318   6.929   3.958   0.689  1.3957  0.2411 -0.3686
    3MOL0     C  319   6.933   4.028   0.546  0.4562  0.3153 -1.0576
    3MOL0     C  320   6.897   3.923   0.439  0.1493 -0.3504 -0.4880
    3MOL0    Cl  321   7.043   3.821   0.403 -0.3289  0.4656 -0.1191
    3MOL0     C  322   6.879   4.080   1.545 -0.1986  0.0785  0.1918
    3MOL0     C  323   6.844   4.041   1.675 -0.6440 -0.2589 -0.1880
    3MOL0     O  324   7.047   3.819   1.954 -0.2928  0.4276 -1.1477
    3MOL0     C  325   6.839   4.028   2.156  0.1118 -0.6845  0.2832
    3MOL0     C  326   6.808   4.073   2.282 -0.6935  0.5056 -0.1628
    3MOL0     N  327   6.986   4.419   3.168  0.4695 -0.4549  1.0003
    3MOL0     N  328   7.055   4.392   3.266  0.0356  0.3667 -0.0710
    3MOL0     C  329   7.325   3.447   2.759  0.3814 -0.7185  0.1436
    3MOL0     C  330   7.332   3.470   2.620  0.3143  0.2803  0.7672
    3MOL0     C  331   7.484   3.662   2.271  0.0584 -0.1550  0.8888
    3MOL0     C  332   7.394   3.605   2.175 -0.1784 -0.8327  0.4805
    3MOL0     C  333   7.422   3.608   2.034  0.0603  0.6769 -0.7618
    3MOL0     C  334   7.534   3.675   1.992 -0.3168 -0.3627 -0.8092
    3MOL0     O  335   7.547   3.668   1.860  0.1306  0.5145 -0.1895
    3MOL0     C  336   7.662   3.732   1.804  0.4442  0.8209 -0.5448
    3MOL0     C  337   7.649   3.886   1.809  0.4056  0.9749 -0.2086
    3MOL0     C  338   7.515   3.933   1.735  0.2737 -0.7174  0.0776
    3MOL0     C  339   7.525   3.898   1.579  0.5120  0.4590 -0.6409
    3MOL0     C  340   7.648   3.937   1.514 -0.6773  0.2165  0.5093
    3MOL0     C  341   7.759   3.951   1.462  0.5616  0.2812  0.9713
    3MOL0     C  342   7.620   3.737   2.083 -0.0641  0.1127  0.1656
    3MOL0     C  343   7.601   3.726   2.217 -0.5352  0.6164 -1.1077
    3MOL0     C  344   7.692   3.796   2.311  0.4164  0.1017 -0.1343
    3MOL0     H  345   7.147   3.764   2.597  1.3191  0.7472  1.8372
    3MOL0     H  346   7.135   3.728   2.837 -2.0862 -1.5407  0.9381
    3MOL0     H  347   7.086   3.638   3.033 -1.7468 -0.2725  4.2376
    3MOL0     H  348   7.266   3.677   3.053  0.0762 -0.4258 -1.0516
    3MOL0     H  349   7.121   3.452   3.212  0.1731 -0.0937 -0.6805
    3MOL0     H  350   7.234   3.554   3.276  0.7096 -1.7597 -0.0714
    3MOL0     H  351   6.956   3.664   3.215  0.2880 -0.4787 -1.2999
    3MOL0     H  352   7.018   3.615   3.369 -0.8577  3.6497  1.4536
    3MOL0     H  353   7.099   3.837   3.182  2.1402 -3.3332 -1.9073
    3MOL0     H  354   7.031   3.842   3.356 -0.2545 -1.8234 -0.0033
    3MOL0     H  355   7.319   3.794   3.283 -1.4343 -0.1319 -0.7587
    3MOL0     H  356   7.241   3.748   3.443  0.4980 -1.7060 -0.9049
    3MOL0     H  357   7.206   3.997   3.475 -0.0784  1.0905  0.3691
    3MOL0     H  358   7.374   3.980   3.400  0.7918  0.0579 -1.2325
    3MOL0     H  359   7.122   4.066   3.247 -0.3340 -3.0091  2.5922
    3MOL0     H  360   7.298   4.073   3.186 -0.7659  1.7584 -0.3781
    3MOL0     H  361   7.209   4.242   3.421  0.2447  5.8069  0.4242
    3MOL0     H  362   7.349   4.255   3.322 -0.8845  1.5056  2.1185
    3MOL0     H  363   7.212   4.233   3.025 -2.9753 -1.0895 -1.1698
    3MOL0     H  364   6.986   4.463   2.881 -1.2437  1.3019  2.1290
    3MOL0     H  365   6.854   4.373   2.945  0.1535  0.2868 -1.7677
    3MOL0     H  366   7.114   4.247   2.816  0.2756  1.8253 -0.2063
    3MOL0     H  367   6.986   4.152   2.895  1.5132  1.3587  2.2510
    3MOL0     H  368   6.809   4.244   2.733 -1.5876 -0.1105 -4.5587
    3MOL0     H  369   6.923   4.328   2.647  1.3706 -0.9861 -1.5599
    3MOL0     H  370   7.046   4.127   2.578  0.8341  1.6475  0.8859
    3MOL0     H  371   6.950   4.026   2.672  3.0868  1.9419  2.6801
    3MOL0     H  372   7.096   3.962   2.432 -1.0639 -1.7256  0.3566
    3MOL0     H  373   7.234   3.860   2.293  0.1969  0.1091 -0.9580
    3MOL0     H  374   7.219   3.856   2.124 -1.1349  0.0048 -1.4410
    3MOL0     H  375   7.126   3.734   2.215  2.6265  0.0402 -3.4780
    3MOL0     H  376   7.164   4.007   1.797 -1.2226 -0.2028  0.9762
    3MOL0     H  377   7.213   4.031   1.556 -1.3924  0.8438 -2.1437
    3MOL0     H  378   7.229   4.088   1.272 -0.9322 -0.7986 -3.3611
    3MOL0     H  379   7.195   3.937   1.358 -1.1333 -2.2531 -2.5822
    3MOL0     H  380   7.223   3.895   1.128  1.5823  0.2979  0.8756
    3MOL0     H  381   7.057   3.854   1.185  4.2496 -2.9132 -0.4587
    3MOL0     H  382   7.174   4.072   1.002  1.1394 -0.2740  0.2929
    3MOL0     H  383   7.006   4.099   1.082  0.5669  0.7206 -0.4373
    3MOL0     H  384   6.929   3.891   0.954 -0.7260  2.4297  1.9170
    3MOL0     H  385   7.103   3.867   0.912  0.7669  1.3200 -0.4225
    3MOL0     H  386   6.944   4.119   0.836 -0.4805 -0.1039 -0.4318
    3MOL0     H  387   7.088   4.073   0.764 -0.2269 -2.2231 -2.4763
    3MOL0     H  388   6.827   3.949   0.728  2.4815 -2.2011  2.2731
    3MOL0     H  389   6.968   3.856   0.677 -0.2200 -0.8691  2.6475
    3MOL0     H  390   7.035   4.067   0.543  0.7029  0.2248  2.2276
    3MOL0     H  391   6.861   4.109   0.561  3.2860  2.6334  1.5159
    3MOL0     H  392   6.859   3.983   0.356 -1.2702 -0.4900  0.0234
    3MOL0     H  393   6.825   3.845   0.468  1.3441 -2.0806 -1.9431
    3MOL0     H  394   6.802   4.096   1.470 -1.4525 -3.4452  0.5273
    3MOL0     H  395   6.740   4.028   1.704 -0.6557 -0.8678 -0.4846
    3MOL0     H  396   6.765   4.052   2.080 -0.7752  2.3556  1.9496
    3MOL0     H  397   6.721   4.137   2.294 -0.9589 -0.0732  1.2050
    3MOL0     H  398   7.367   3.356   2.800 -1.5033 -1.2426  0.9851
    3MOL0     H  399   7.406   3.411   2.568 -0.6398 -0.8196  0.6308
    3MOL0     H  400   7.302   3.560   2.210 -0.4794  0.2920  1.1814
    3MOL0     H  401   7.351   3.563   1.965 -1.2992  0.6656  0.5839
    3MOL0     H  402   7.751   3.704   1.862 -0.5984 -1.0999  0.2134
    3MOL0     H  403   7.663   3.684   1.706  3.5406 -0.9071  0.2025
    3MOL0     H  404   7.735   3.942   1.772  1.5496  1.2445  2.6052
    3MOL0     H  405   7.640   3.918   1.913 -2.0583  1.6077 -0.5487
    3MOL0     H  406   7.415   3.910   1.775 -0.5375  0.2493 -1.3175
    3MOL0     H  407   7.525   4.042   1.734  2.0934 -0.8591 -0.3784
    3MOL0     H  408   7.452   3.958   1.524  1.6154  3.3101  0.7682
    3MOL0     H  409   7.500   3.794   1.558  0.6632  0.5974 -1.5918
    3MOL0     H  410   7.865   3.960   1.448  0.3236 -0.0486 -1.4154
    3MOL0     H  411   7.710   3.786   2.048  1.8613 -1.9305  1.8928
    3MOL0     H  412   7.782   3.830   2.258 -1.5545  3.3472 -1.7493
    3MOL0     H  413   7.650   3.878   2.370  3.6321 -1.1266  4.3989
    3MOL0     H  414   7.722   3.728   2.391 -1.8491 -1.7097 -0.7314
    4MOL0     O  415   9.112   5.330   6.401 -0.4820 -0.4498  0.0608
    4MOL0     C  416   9.059   5.444   6.407  0.6175 -0.4220  0.2451
    4MOL0     O  417   9.122   5.564   6.442  0.5488  0.0328  0.5731
    4MOL0     C  418   9.256   5.556   6.463  0.4548 -0.4104 -0.0295
    4MOL0     C  419   9.297   5.644   6.562 -0.0319 -0.0859  0.2422
    4MOL0     C  420   9.435   5.655   6.597 -0.0811 -0.0923 -0.1065
    4MOL0     C  421   9.536   5.586   6.526 -0.2028 -1.4105  0.4899
    4MOL0     O  422   9.658   5.542   6.579  0.1760 -0.3306  0.5488
    4MOL0     C  423   9.705   5.612   6.698  0.0505  0.5970 -0.8279
    4MOL0     C  424   9.832   5.542   6.732 -0.1230  0.0264 -0.5216
    4MOL0     C  425   9.872   5.571   6.877 -1.1195 -0.1327 -0.3680
    4MOL0     C  426  10.022   5.595   6.880  0.1889 -0.8669  0.1783
    4MOL0     C  427  10.064   5.618   7.027 -0.8534 -0.2300 -0.2073
    4MOL0     C  428  10.170   5.719   7.055 -0.5438  0.7832 -0.2935
    4MOL0     C  429  10.307   5.671   7.023  0.2382 -1.1257 -0.5490
    4MOL0     C  430  10.404   5.786   7.001 -0.5067 -0.3015  0.3488
    4MOL0     N  431  10.539   5.729   6.983  0.3646 -0.4923  0.2835
    4MOL0     C  432  10.609   5.688   6.870  0.5175 -0.5648  1.0018
    4MOL0     C  433  10.738   5.673   6.912  0.2275 -0.3310 -0.5301
    4MOL0     C  434  10.865   5.652   6.834  0.6313 -0.3252  0.7954
    4MOL0     C  435  10.911   5.781   6.767  0.0256 -0.7317 -0.5256
    4MOL0     C  436  10.995   5.878   6.864 -0.7288  1.1562  0.6224
    4MOL0     C  437  11.140   5.824   6.884  0.2729  0.7343  0.4089
    4MOL0     O  438  11.226   5.929   6.924 -0.2852  0.8055  0.5032
    4MOL0     C  439  11.363   5.894   6.953 -0.7318 -0.4573  0.0875
    4MOL0     C  440  11.451   5.997   6.980 -0.1437 -0.4264  0.0044
    4MOL0     C  441  11.584   5.974   7.014 -0.0531 -1.1925 -0.1394
    4MOL0     C  442  11.678   6.095   7.020 -0.1374  0.2386 -0.2487
    4MOL0     C  443  11.634   5.836   7.027  0.0273 -0.9757 -0.4215
    4MOL0     C  444  11.779   5.809   7.060 -0.6233 -0.8847  0.5650
    4MOL0     O  445  11.845   5.900   7.132 -0.3316  0.5660  0.2332
    4MOL0     C  446  11.982   5.923   7.125  0.9519  0.1211  0.9474
    4MOL0     C  447  12.074   5.858   7.035 -0.1753 -0.7029  0.2497
    4MOL0     C  448  12.205   5.898   7.023  0.3232 -0.4178 -0.2842
    4MOL0     C  449  12.248   6.002   7.106 -0.3429 -0.5227 -0.4791
    4MOL0     O  450  12.374   6.064   7.105 -0.4497  0.0522 -0.3526
    4MOL0     C  451  12.483   5.998   7.049 -0.2171 -0.3362  0.7837
    4MOL0     C  452  12.614   6.065   7.095 -0.1716  0.4758 -0.4644
    4MOL0     C  453  12.661   6.037   7.246  0.5859  0.2947 -0.0212
    4MOL0     C  454  12.701   5.885   7.283  1.1353 -0.1202 -0.7490
    4MOL0     C  455  12.797   5.815   7.188  0.1304 -0.2004 -0.3335
    4MOL0     C  456  12.856   5.682   7.260 -0.0056  0.4475  0.3874
    4MOL0     C  457  12.981   5.643   7.172  0.7719 -0.0127  0.0833
    4MOL0     C  458  13.034   5.507   7.213  0.1205  0.3018 -0.5376
    4MOL0    Cl  459  13.092   5.506   7.386  0.5939  0.4258  0.0525
    4MOL0     C  460  12.152   6.073   7.179 -0.2813  0.8803 -0.0104
    4MOL0     C  461  12.027   6.026   7.195 -0.0912 -0.4693 -0.2834
    4MOL0     O  462  11.823   5.711   7.003 -0.6130 -0.0845 -0.3313
    4MOL0     C  463  11.544   5.732   7.000  0.4433 -0.6218 -1.3866
    4MOL0     C  464  11.409   5.763   6.953 -0.4607 -0.4424 -1.0817
    4MOL0     N  465  10.740   5.699   7.048  0.5096 -0.1489  0.5752
    4MOL0     N  466  10.621   5.733   7.092  0.1602  0.0712 -0.1755
    4MOL0     C  467   9.493   5.512   6.421 -0.0963  0.1400 -0.0384
    4MOL0     C  468   9.354   5.499   6.392  0.0771  0.3538 -0.5750
    4MOL0     C  469   8.924   5.450   6.352  1.0635  0.5996  0.1632
    4MOL0     C  470   8.842   5.332   6.338 -0.1800 -0.4608  0.0788
    4MOL0     C  471   8.716   5.330   6.277 -0.0757  0.6414 -0.2641
    4MOL0     C  472   8.649   5.437   6.226 -0.0471  0.1645 -0.6509
    4MOL0     O  473   8.523   5.436   6.179 -0.1541  0.1854  0.7172
    4MOL0     C  474   8.453   5.561   6.183  0.7814  0.4681  1.4001
    4MOL0     C  475   8.296   5.532   6.165 -0.2741 -1.4528  1.1418
    4MOL0     C  476   8.227   5.504   6.298  0.3139  0.7532 -0.7182
    4MOL0     C  477   8.245   5.362   6.352 -0.5853  0.1077 -0.5805
    4MOL0     C  478   8.169   5.270   6.267 -0.6259  1.4145 -0.0856
    4MOL0     C  479   8.134   5.189   6.190  1.0826 -0.2867  1.0351
    4MOL0     C  480   8.726   5.560   6.236  0.2452  0.2150  0.1185
    4MOL0     C  481   8.861   5.568   6.288  0.2046  0.3532  0.7840
    4MOL0     C  482   8.926   5.703   6.277  1.2385  0.7631  0.2718
    4MOL0     H  483   9.221   5.707   6.607 -0.8892 -0.5147 -0.5738
    4MOL0     H  484   9.462   5.712   6.686 -2.5770 -3.9454  3.4733
    4MOL0     H  485   9.640   5.582   6.780 -2.6608  3.7641 -1.6467
    4MOL0     H  486   9.731   5.717   6.683  2.1364  0.2524  0.0381
    4MOL0     H  487   9.831   5.436   6.706 -1.6902  0.8073 -4.4089
    4MOL0     H  488   9.911   5.594   6.676  0.0702 -0.1794 -0.4394
    4MOL0     H  489   9.827   5.654   6.933  3.5816  1.5041  1.4546
    4MOL0     H  490   9.855   5.481   6.936  2.4668 -1.3068 -0.8701
    4MOL0     H  491  10.091   5.513   6.858 -0.1104 -1.1284  0.2082
    4MOL0     H  492  10.044   5.683   6.818 -4.0073  1.4940  1.6345
    4MOL0     H  493  10.097   5.521   7.066  0.0229  1.1302  2.6874
    4MOL0     H  494   9.971   5.651   7.073 -1.2487  0.2188 -1.3037
    4MOL0     H  495  10.146   5.812   7.003  3.0108  2.3581  0.6135
    4MOL0     H  496  10.159   5.740   7.162 -1.8753 -0.1184 -0.2193
    4MOL0     H  497  10.311   5.618   6.928  1.3188 -2.8849  0.4286
    4MOL0     H  498  10.335   5.596   7.097 -3.4877 -1.5519  0.6578
    4MOL0     H  499  10.377   5.839   6.909  1.8431 -1.6436 -1.2263
    4MOL0     H  500  10.406   5.848   7.091  0.8987 -0.7429  0.6485
    4MOL0     H  501  10.579   5.688   6.766  1.8511 -2.7412  0.5355
    4MOL0     H  502  10.837   5.593   6.747  2.4508  2.9710 -2.3324
    4MOL0     H  503  10.941   5.595   6.889  1.5456 -0.5369 -0.6284
    4MOL0     H  504  10.966   5.759   6.675  2.1603  3.6420 -0.5140
    4MOL0     H  505  10.824   5.841   6.741  2.3553  2.1535 -2.2914
    4MOL0     H  506  11.013   5.969   6.806 -2.9118 -0.1381 -2.3300
    4MOL0     H  507  10.945   5.907   6.956  2.6106  3.5097  1.8925
    4MOL0     H  508  11.145   5.738   6.952 -0.7585  1.1378  1.0297
    4MOL0     H  509  11.170   5.789   6.785  2.8973 -0.7142  1.6081
    4MOL0     H  510  11.414   6.099   6.973  0.3654 -0.2009  0.5151
    4MOL0     H  511  11.643   6.193   6.987  0.4242  0.3072 -0.6540
    4MOL0     H  512  11.755   6.069   6.948 -1.4303 -1.8080 -0.9689
    4MOL0     H  513  11.717   6.108   7.121 -0.7467  2.5663 -0.2521
    4MOL0     H  514  12.041   5.769   6.983  1.5341 -1.9191  1.1607
    4MOL0     H  515  12.278   5.839   6.968  1.9241 -0.7571  2.0563
    4MOL0     H  516  12.469   5.890   7.060  0.4979 -0.4602  0.5110
    4MOL0     H  517  12.465   6.014   6.943 -0.1555  1.7936  1.0608
    4MOL0     H  518  12.693   6.026   7.031 -1.3716 -3.4466  0.1960
    4MOL0     H  519  12.602   6.174   7.084 -0.8299  0.6888  1.9066
    4MOL0     H  520  12.578   6.067   7.310  1.0189 -2.5453  2.0394
    4MOL0     H  521  12.750   6.094   7.275  0.3430  0.0421  1.2701
    4MOL0     H  522  12.606   5.832   7.269 -1.1012  2.6294  2.3605
    4MOL0     H  523  12.736   5.894   7.387  3.6580  0.1187 -1.5445
    4MOL0     H  524  12.741   5.798   7.095  0.2289 -0.1037 -0.4109
    4MOL0     H  525  12.881   5.882   7.171  1.0064 -0.5867  2.0657
    4MOL0     H  526  12.776   5.608   7.276 -2.3272  2.0719 -2.5586
    4MOL0     H  527  12.886   5.708   7.362 -0.0578  0.6027  0.3633
    4MOL0     H  528  13.060   5.718   7.176 -2.2737  3.6946 -2.0044
    4MOL0     H  529  12.961   5.640   7.064  2.2457  2.1518 -0.3136
    4MOL0     H  530  13.122   5.480   7.154  1.0345 -0.5149  1.1359
    4MOL0     H  531  12.957   5.431   7.197  1.0111 -0.4617 -1.3288
    4MOL0     H  532  12.188   6.166   7.222 -3.0423  1.3085  1.6326
    4MOL0     H  533  11.960   6.082   7.260  1.7636  1.7017 -0.1357
    4MOL0     H  534  11.589   5.634   7.008 -0.0803 -0.8768 -1.5665
    4MOL0     H  535  11.356   5.671   6.932  1.8140 -1.6043 -2.0948
    4MOL0     H  536   9.568   5.454   6.370  2.1681  0.6217  2.4653
    4MOL0     H  537   9.342   5.444   6.300  1.1039  0.4740 -0.7953
    4MOL0     H  538   8.877   5.239   6.380 -0.5568 -1.5056 -1.7779
    4MOL0     H  539   8.658   5.238   6.271  0.2278  0.4520 -0.3381
    4MOL0     H  540   8.471   5.619   6.274 -1.1578  3.9346 -0.1895
    4MOL0     H  541   8.481   5.630   6.103 -1.4077  0.4511  0.5506
    4MOL0     H  542   8.275   5.455   6.090 -0.0373 -1.6569  1.2830
    4MOL0     H  543   8.241   5.619   6.129  2.0552 -0.0466  0.7529
    4MOL0     H  544   8.255   5.579   6.373  0.5314 -0.5813  0.5709
    4MOL0     H  545   8.120   5.517   6.277 -1.2090 -4.6078  1.8952
    4MOL0     H  546   8.218   5.368   6.458  0.6849  4.1826 -0.3233
    4MOL0     H  547   8.350   5.331   6.352 -1.1365 -2.0072  1.0489
    4MOL0     H  548   8.100   5.113   6.121  0.4979  0.6275  0.2900
    4MOL0     H  549   8.689   5.651   6.188  3.9063  2.2314  0.7163
    4MOL0     H  550   8.877   5.768   6.204  0.8681  1.1666  0.8677
    4MOL0     H  551   8.912   5.748   6.375  0.8979  1.2150  0.0159
    4MOL0     H  552   9.032   5.692   6.251  1.4599 -2.1867  1.9908
    5MOL0     O  553   9.132  11.372   2.153  0.2266 -0.8997  0.0571
    5MOL0     C  554   9.253  11.355   2.182  0.6485  0.2189  0.5947
    5MOL0     O  555   9.357  11.369   2.096 -0.3266  0.0644 -0.0838
    5MOL0     C  556   9.344  11.403   1.961  0.6414  0.9399  0.1894
    5MOL0     C  557   9.366  11.534   1.920  0.0359 -0.4877 -0.0910
    5MOL0     C  558   9.324  11.570   1.791 -0.0135 -0.2618  1.3248
    5MOL0     C  559   9.269  11.482   1.698  0.3013  0.5056 -0.4314
    5MOL0     O  560   9.210  11.524   1.586 -0.1669 -0.5527  0.1334
    5MOL0     C  561   9.188  11.665   1.556  0.3959 -1.0692  0.2313
    5MOL0     C  562   9.320  11.721   1.492 -0.6775  0.0598  0.7864
    5MOL0     C  563   9.349  11.654   1.357 -0.9298  0.3142  0.4908
    5MOL0     C  564   9.246  11.685   1.249 -0.7170 -0.4567  0.0090
    5MOL0     C  565   9.311  11.642   1.117  0.5022 -0.4571 -0.4289
    5MOL0     C  566   9.216  11.662   0.994 -0.0066  0.3939 -0.1866
    5MOL0     C  567   9.282  11.626   0.860  0.1117 -0.0070  0.1972
    5MOL0     C  568   9.275  11.474   0.841 -0.7213 -0.0359 -0.3496
    5MOL0     N  569   9.293  11.445   0.697 -0.3571 -0.0414 -0.9845
    5MOL0     C  570   9.191  11.457   0.607  0.2429  0.0699  0.6135
    5MOL0     C  571   9.239  11.459   0.480 -0.3620  0.6092 -0.0543
    5MOL0     C  572   9.175  11.481   0.351  0.2156  0.0060  0.0480
    5MOL0     C  573   9.196  11.367   0.251  0.0765 -0.7769 -0.4846
    5MOL0     C  574   9.166  11.400   0.104  0.3768  0.1576 -0.4332
    5MOL0     C  575   9.029  11.462   0.070  0.1948 -0.4102  0.3957
    5MOL0     O  576   9.019  11.473  -0.081  0.2585  0.2739 -0.4461
    5MOL0     C  577   8.894  11.506  -0.141 -0.7377  0.2192 -0.7638
    5MOL0     C  578   8.902  11.555  -0.264 -0.0321  0.5380  0.5747
    5MOL0     C  579   8.789  11.594  -0.334  0.8094  1.3990  0.2520
    5MOL0     C  580   8.818  11.666  -0.465  0.0395  0.0547 -1.0125
    5MOL0     C  581   8.660  11.569  -0.276 -0.1274 -0.8840 -0.6277
    5MOL0     C  582   8.532  11.624  -0.339  0.4315  0.7936  0.3531
    5MOL0     O  583   8.541  11.686  -0.461 -0.0217 -0.2235  0.0766
    5MOL0     C  584   8.434  11.763  -0.515  0.4060  0.5819 -0.6248
    5MOL0     C  585   8.459  11.895  -0.566 -0.5433  0.5631 -0.0969
    5MOL0     C  586   8.362  11.976  -0.612  0.6544  0.2577  0.2171
    5MOL0     C  587   8.233  11.931  -0.621  0.7011  0.4787 -0.6558
    5MOL0     O  588   8.134  12.005  -0.687 -0.0999 -0.1982  0.0408
    5MOL0     C  589   8.054  11.929  -0.781 -0.1549 -0.6489 -0.3992
    5MOL0     C  590   7.986  12.019  -0.875  0.3924  0.1431 -0.2813
    5MOL0     C  591   7.897  11.949  -0.969  0.3250  0.0400  0.2246
    5MOL0     C  592   7.808  12.040  -1.064  0.2037  0.2141 -0.5323
    5MOL0     C  593   7.760  11.966  -1.187  0.2972 -0.1370 -0.0477
    5MOL0     C  594   7.692  12.056  -1.297 -0.5437  0.3223 -0.3384
    5MOL0     C  595   7.611  11.984  -1.417 -0.2962 -0.4495 -0.1071
    5MOL0     C  596   7.466  11.915  -1.391  0.7574 -0.1096 -0.5780
    5MOL0    Cl  597   7.335  12.018  -1.342  0.2801 -0.4401 -0.0513
    5MOL0     C  598   8.190  11.809  -0.555  0.4546 -0.8822  0.1533
    5MOL0     C  599   8.293  11.726  -0.507 -1.0308  0.1244  0.3447
    5MOL0     O  600   8.433  11.629  -0.265  0.3428 -0.2081  0.2670
    5MOL0     C  601   8.651  11.518  -0.148 -0.1046 -0.6821  0.5720
    5MOL0     C  602   8.768  11.498  -0.075 -1.2804 -0.3553 -0.4048
    5MOL0     N  603   9.375  11.448   0.499  0.4201  1.1117  0.6649
    5MOL0     N  604   9.403  11.430   0.627 -0.6907 -0.0249  0.6713
    5MOL0     C  605   9.254  11.350   1.732 -0.2481  0.0835 -0.1712
    5MOL0     C  606   9.293  11.313   1.868  0.3830 -0.5235  0.0642
    5MOL0     C  607   9.289  11.356   2.322  0.6131  0.4930  0.0913
    5MOL0     C  608   9.413  11.397   2.369 -0.0468  0.2977  0.7539
    5MOL0     C  609   9.441  11.398   2.506 -1.2520  0.3035  1.0284
    5MOL0     C  610   9.347  11.376   2.610  1.0068 -0.0518  0.7310
    5MOL0     O  611   9.363  11.375   2.741  0.3378  0.0767 -0.4807
    5MOL0     C  612   9.473  11.450   2.794 -0.4104  0.0305 -0.0130
    5MOL0     C  613   9.456  11.605   2.766 -0.3654 -0.0443 -0.2213
    5MOL0     C  614   9.340  11.677   2.838 -0.1134 -0.3326 -0.2713
    5MOL0     C  615   9.378  11.826   2.873  0.2773 -1.9426  1.1547
    5MOL0     C  616   9.344  11.928   2.764 -0.5931 -0.4970 -0.0413
    5MOL0     C  617   9.324  12.002   2.671 -0.6313  0.4743 -0.0976
    5MOL0     C  618   9.221  11.347   2.562 -0.4935  0.1738  0.6974
    5MOL0     C  619   9.182  11.335   2.425 -0.1121  0.1251  0.7520
    5MOL0     C  620   9.040  11.289   2.403  0.8574 -0.2088 -0.3051
    5MOL0     H  621   9.417  11.601   1.990 -1.6441 -1.2643  1.9808
    5MOL0     H  622   9.323  11.677   1.770  1.5524  0.0323  2.5742
    5MOL0     H  623   9.151  11.719   1.644  1.9974 -0.1329  0.3707
    5MOL0     H  624   9.108  11.674   1.483  3.4445  0.7549 -3.1673
    5MOL0     H  625   9.314  11.829   1.475 -0.2853  0.0303  0.4566
    5MOL0     H  626   9.400  11.708   1.566 -0.8278  4.0364  1.8772
    5MOL0     H  627   9.445  11.698   1.328 -0.5454  0.9452  2.5475
    5MOL0     H  628   9.369  11.548   1.370  2.0220  0.9639  2.3105
    5MOL0     H  629   9.158  11.623   1.269  0.9067 -2.1117  2.6404
    5MOL0     H  630   9.212  11.789   1.241  1.8199  0.3006 -5.3527
    5MOL0     H  631   9.352  11.541   1.123 -2.2462 -1.6421  0.1843
    5MOL0     H  632   9.394  11.711   1.100  0.8310 -0.0442  2.3758
    5MOL0     H  633   9.115  11.623   1.007 -0.6520  1.0456 -2.6522
    5MOL0     H  634   9.190  11.768   0.993 -3.3729 -0.3066  0.7927
    5MOL0     H  635   9.385  11.664   0.859  0.2163 -0.2003  1.4836
    5MOL0     H  636   9.229  11.677   0.780  1.4298 -1.0203 -1.3825
    5MOL0     H  637   9.356  11.425   0.895  2.0346  1.7215 -2.5564
    5MOL0     H  638   9.179  11.442   0.880 -0.3208  0.8712  1.4871
    5MOL0     H  639   9.090  11.467   0.644  0.3904 -1.6041  1.5625
    5MOL0     H  640   9.225  11.573   0.322  2.4009 -1.5011 -1.2399
    5MOL0     H  641   9.069  11.509   0.360  0.5552  0.7157  2.8774
    5MOL0     H  642   9.297  11.326   0.260 -0.6744 -2.4865  0.7059
    5MOL0     H  643   9.130  11.286   0.284  2.6282 -2.1412  1.6650
    5MOL0     H  644   9.250  11.460   0.070  0.1158 -0.0013 -1.3870
    5MOL0     H  645   9.174  11.304   0.051 -1.6354 -1.0796  1.2848
    5MOL0     H  646   8.948  11.398   0.104  1.6935 -3.4450 -1.3359
    5MOL0     H  647   9.007  11.557   0.120 -3.4233 -0.4554 -0.8415
    5MOL0     H  648   8.994  11.572  -0.320  0.0561 -2.8945 -0.5806
    5MOL0     H  649   8.914  11.631  -0.503 -0.5849 -1.2305 -1.4836
    5MOL0     H  650   8.822  11.774  -0.449 -1.3193 -0.0178 -0.0213
    5MOL0     H  651   8.751  11.640  -0.548  0.7278 -0.2769 -1.4779
    5MOL0     H  652   8.565  11.917  -0.567 -0.3809 -0.1603  0.6810
    5MOL0     H  653   8.398  12.060  -0.670  0.6034 -0.3183 -0.6766
    5MOL0     H  654   8.124  11.871  -0.842  0.7146 -2.3653  2.0557
    5MOL0     H  655   7.985  11.862  -0.730  2.8048 -1.5095  2.9352
    5MOL0     H  656   7.928  12.097  -0.825 -1.5939  0.1145 -2.4217
    5MOL0     H  657   8.065  12.065  -0.935  1.8540 -1.0847  0.6134
    5MOL0     H  658   7.815  11.896  -0.920  0.3924  0.0236  0.3195
    5MOL0     H  659   7.966  11.885  -1.026  0.6388  0.3429  0.2632
    5MOL0     H  660   7.874  12.123  -1.092  0.6141  0.3901  0.8810
    5MOL0     H  661   7.721  12.071  -1.006  1.1257 -2.8533  2.8514
    5MOL0     H  662   7.843  11.912  -1.233  0.4677  0.2672 -0.2175
    5MOL0     H  663   7.686  11.894  -1.150  1.2143 -0.9955  0.1841
    5MOL0     H  664   7.769  12.125  -1.332  0.4580  0.2960  1.6698
    5MOL0     H  665   7.614  12.122  -1.259  0.8166  0.8267  1.6916
    5MOL0     H  666   7.670  11.903  -1.462  0.2776  0.6509 -1.3881
    5MOL0     H  667   7.590  12.070  -1.480  2.0238  0.8429  0.7600
    5MOL0     H  668   7.477  11.852  -1.303 -1.7772  1.8710  1.3441
    5MOL0     H  669   7.431  11.863  -1.480 -0.0919 -0.4849 -0.0357
    5MOL0     H  670   8.085  11.781  -0.565  0.1880  0.1585 -0.0987
    5MOL0     H  671   8.276  11.625  -0.470  1.1542  0.4962  2.6077
    5MOL0     H  672   8.561  11.495  -0.091 -0.7329 -1.2881 -0.6290
    5MOL0     H  673   8.757  11.464   0.028 -0.1399 -2.3063 -0.8707
    5MOL0     H  674   9.205  11.277   1.668  2.6785 -0.2777 -2.2171
    5MOL0     H  675   9.263  11.214   1.902  0.6444 -0.3245  0.8901
    5MOL0     H  676   9.488  11.440   2.302  0.7038 -0.0916  1.3309
    5MOL0     H  677   9.542  11.419   2.539  1.2593 -5.1292 -1.8927
    5MOL0     H  678   9.471  11.442   2.903 -1.6132  1.6871  0.1387
    5MOL0     H  679   9.571  11.408   2.770  0.1392 -0.0160  2.1553
    5MOL0     H  680   9.456  11.626   2.658 -0.3046 -1.1310 -0.4459
    5MOL0     H  681   9.551  11.649   2.796  1.3799 -2.4313 -1.8416
    5MOL0     H  682   9.255  11.683   2.769 -0.5685 -0.2227  0.2920
    5MOL0     H  683   9.316  11.627   2.932  2.1742 -0.5758  0.2376
    5MOL0     H  684   9.483  11.844   2.893  1.1776 -2.0201 -2.7098
    5MOL0     H  685   9.313  11.850   2.958 -1.0411 -0.6524 -0.1563
    5MOL0     H  686   9.289  12.065   2.592  0.3489  0.1394 -0.8164
    5MOL0     H  687   9.154  11.320   2.643  0.0870 -0.8414  0.8673
    5MOL0     H  688   9.027  11.198   2.343  0.7587  0.7154 -1.7267
    5MOL0     H  689   8.985  11.273   2.496  0.4478 -1.4868 -0.7447
    5MOL0     H  690   8.989  11.366   2.345  0.6692 -1.5050 -1.9277
    6MOL0     O  691   7.113   0.509   1.305 -0.3177 -0.3286 -0.0211
    6MOL0     C  692   7.137   0.558   1.200 -0.0386  0.2952 -0.0938
    6MOL0     O  693   7.224   0.498   1.111 -0.0971  0.3425 -0.4669
    6MOL0     C  694   7.305   0.401   1.173  0.5179 -0.0391 -0.5079
    6MOL0     C  695   7.443   0.433   1.200  0.2754  0.4121 -0.5471
    6MOL0     C  696   7.524   0.326   1.247  0.2288  0.4322  0.5531
    6MOL0     C  697   7.481   0.195   1.263  0.3754 -0.9600  0.0000
    6MOL0     O  698   7.582   0.106   1.285  0.1537  0.0198 -0.6437
    6MOL0     C  699   7.564  -0.029   1.239  0.3845 -0.9391  1.1369
    6MOL0     C  700   7.670  -0.110   1.306 -0.3710  0.5167  0.9028
    6MOL0     C  701   7.670  -0.099   1.456 -0.7754  0.3531 -0.2693
    6MOL0     C  702   7.570  -0.199   1.528  0.4706 -0.4802  0.3912
    6MOL0     C  703   7.573  -0.218   1.680  0.1762 -0.4320 -0.1504
    6MOL0     C  704   7.469  -0.333   1.722 -0.9637 -0.5919  0.1835
    6MOL0     C  705   7.440  -0.355   1.868 -0.3093  0.2077  0.6700
    6MOL0     C  706   7.353  -0.476   1.889  0.5830 -1.0647 -0.5491
    6MOL0     N  707   7.273  -0.454   2.008  0.0684  0.0706 -0.1059
    6MOL0     C  708   7.318  -0.465   2.137  0.2809 -0.7060  0.4468
    6MOL0     C  709   7.214  -0.420   2.214 -0.1832  0.1693  0.0310
    6MOL0     C  710   7.211  -0.431   2.362 -0.1631  0.6582  0.0195
    6MOL0     C  711   7.163  -0.570   2.394  0.6424 -0.2096  0.0967
    6MOL0     C  712   7.183  -0.595   2.541  0.8401 -0.0449  0.7038
    6MOL0     C  713   7.137  -0.732   2.594  0.5359 -0.0590  0.4842
    6MOL0     O  714   7.128  -0.735   2.737 -0.7139  0.1130 -0.1995
    6MOL0     C  715   7.138  -0.865   2.797  0.1452 -0.2177 -0.4751
    6MOL0     C  716   7.139  -0.868   2.939  0.8165 -0.2946  0.0835
    6MOL0     C  717   7.128  -0.987   3.016  0.0765 -1.1060 -0.1254
    6MOL0     C  718   7.121  -0.968   3.164 -0.3925  0.1193  0.2949
    6MOL0     C  719   7.136  -1.115   2.945 -0.5124 -0.5380 -0.1942
    6MOL0     C  720   7.144  -1.251   3.009  0.2995  0.0389  0.2648
    6MOL0     O  721   7.157  -1.364   2.918 -0.2517 -0.3265  0.4052
    6MOL0     C  722   7.188  -1.488   2.972 -0.3127 -0.8290 -0.8808
    6MOL0     C  723   7.127  -1.596   2.906  0.7151  0.5180  0.2567
    6MOL0     C  724   7.172  -1.725   2.929  0.2252  0.7362  0.6931
    6MOL0     C  725   7.266  -1.755   3.023 -0.2165 -0.6702 -0.9558
    6MOL0     O  726   7.329  -1.869   3.042  0.1412 -0.3529  0.1696
    6MOL0     C  727   7.269  -1.996   3.015  0.3628 -0.8803  1.1852
    6MOL0     C  728   7.184  -2.038   3.136  0.2058  0.3529 -0.4001
    6MOL0     C  729   7.066  -2.117   3.091  0.5469 -0.5085 -0.1417
    6MOL0     C  730   7.082  -2.254   3.046 -0.0728 -0.8053  0.5416
    6MOL0     C  731   6.948  -2.325   3.004 -0.3483  0.1536 -0.1088
    6MOL0     C  732   6.976  -2.477   2.956 -0.1777 -0.1210 -0.6786
    6MOL0     C  733   7.067  -2.558   3.049  0.1193  0.8244  0.9939
    6MOL0     C  734   7.001  -2.588   3.189 -0.6748  1.0422 -1.1426
    6MOL0    Cl  735   7.099  -2.693   3.290  0.0240 -0.1680 -0.2081
    6MOL0     C  736   7.325  -1.651   3.099 -0.0542  0.6735  0.5617
    6MOL0     C  737   7.289  -1.513   3.069 -0.0052  0.2196  0.4040
    6MOL0     O  738   7.146  -1.264   3.128 -0.2966  0.0404 -0.2957
    6MOL0     C  739   7.132  -1.114   2.808  0.1955  0.5911  0.5071
    6MOL0     C  740   7.124  -0.994   2.735 -1.0228  0.0560  0.4274
    6MOL0     N  741   7.107  -0.388   2.138  0.7845 -0.1240 -0.9765
    6MOL0     N  742   7.138  -0.410   2.014 -0.6454 -0.6978 -0.6046
    6MOL0     C  743   7.347   0.161   1.234 -0.2492  0.6772  0.0546
    6MOL0     C  744   7.259   0.271   1.204  0.3278  0.7452 -0.3836
    6MOL0     C  745   7.068   0.684   1.154 -0.6203 -0.1142 -0.2352
    6MOL0     C  746   7.130   0.754   1.044  0.4752 -0.1902 -0.0807
    6MOL0     C  747   7.063   0.868   0.984 -0.0025 -0.2402  0.0859
    6MOL0     C  748   6.946   0.920   1.044 -0.3069  0.3800  0.9446
    6MOL0     O  749   6.881   1.029   1.010  0.0359 -0.4191  0.4496
    6MOL0     C  750   6.787   0.983   0.914  0.4359  0.3825 -0.1319
    6MOL0     C  751   6.702   1.099   0.855 -0.6001  0.2492 -0.2529
    6MOL0     C  752   6.778   1.236   0.835 -0.1938 -0.4096 -0.6937
    6MOL0     C  753   6.718   1.341   0.740  0.1202 -0.2747  0.0128
    6MOL0     C  754   6.584   1.382   0.786 -0.3396 -0.0461 -0.5445
    6MOL0     C  755   6.468   1.413   0.811 -0.0327  0.0247 -0.3091
    6MOL0     C  756   6.902   0.851   1.151  0.5290  0.4286 -0.2937
    6MOL0     C  757   6.948   0.732   1.209 -0.1607  0.1203  0.6758
    6MOL0     C  758   6.877   0.680   1.327  0.4031  0.8467  0.5485
    6MOL0     H  759   7.494   0.527   1.182 -0.2119  0.6851 -0.5104
    6MOL0     H  760   7.630   0.349   1.249 -0.0979  2.4551 -1.4951
    6MOL0     H  761   7.581  -0.026   1.130  1.4387 -1.6671  1.2668
    6MOL0     H  762   7.467  -0.071   1.263 -0.7228 -1.0540 -2.8061
    6MOL0     H  763   7.649  -0.214   1.279  0.0301  1.2609 -2.7871
    6MOL0     H  764   7.765  -0.082   1.261 -2.3196  2.1915 -2.5641
    6MOL0     H  765   7.768  -0.128   1.496 -1.3830  0.0896  1.0725
    6MOL0     H  766   7.658   0.007   1.478 -1.3969 -0.1629  2.1350
    6MOL0     H  767   7.471  -0.165   1.496  0.6857  0.2368  0.4802
    6MOL0     H  768   7.601  -0.292   1.478 -1.2380 -0.4439 -0.8365
    6MOL0     H  769   7.557  -0.117   1.720  2.8742  0.1895 -0.4241
    6MOL0     H  770   7.676  -0.251   1.698  0.0616 -1.0065 -0.5101
    6MOL0     H  771   7.376  -0.305   1.672  0.5827  0.9183 -2.0178
    6MOL0     H  772   7.492  -0.423   1.664  1.5153 -0.4538  0.8137
    6MOL0     H  773   7.397  -0.264   1.909  1.2344  0.1957  2.4451
    6MOL0     H  774   7.533  -0.374   1.923  0.8048 -1.2891 -1.5635
    6MOL0     H  775   7.290  -0.492   1.801  0.8362 -0.9348 -0.7556
    6MOL0     H  776   7.407  -0.571   1.902  0.2330 -1.0371  1.3608
    6MOL0     H  777   7.409  -0.507   2.179  0.1301 -2.0481 -0.4835
    6MOL0     H  778   7.163  -0.349   2.416  2.6571  2.0624  0.5736
    6MOL0     H  779   7.316  -0.442   2.390 -0.5973 -0.0457  1.4997
    6MOL0     H  780   7.058  -0.571   2.364  1.2739  3.2887 -2.9774
    6MOL0     H  781   7.220  -0.641   2.333  1.6369  4.9251 -5.9357
    6MOL0     H  782   7.291  -0.602   2.557  0.9161 -1.6316 -0.3072
    6MOL0     H  783   7.139  -0.522   2.610  1.0912 -1.7463  2.7749
    6MOL0     H  784   7.039  -0.762   2.557  0.3767  0.5358  0.4055
    6MOL0     H  785   7.206  -0.806   2.555  0.1859 -2.2592  3.7000
    6MOL0     H  786   7.135  -0.774   2.993 -0.6485 -0.3623  0.1486
    6MOL0     H  787   7.103  -0.861   3.178 -0.6449  0.3571 -1.5597
    6MOL0     H  788   7.217  -0.992   3.211 -0.6445  1.7160  1.7236
    6MOL0     H  789   7.047  -1.032   3.211 -0.4754  0.4311  0.5884
    6MOL0     H  790   7.043  -1.585   2.838 -0.1675 -2.3415  0.7414
    6MOL0     H  791   7.138  -1.800   2.859 -0.3173  1.6879 -0.0957
    6MOL0     H  792   7.216  -2.008   2.919  1.9982 -0.2155  0.1546
    6MOL0     H  793   7.353  -2.064   3.000  1.7208  1.3399 -2.6090
    6MOL0     H  794   7.252  -2.094   3.202 -0.5852  1.0980  1.1145
    6MOL0     H  795   7.145  -1.955   3.196 -1.0495 -1.0643  0.8320
    6MOL0     H  796   7.020  -2.061   3.009  2.2867 -2.6974 -2.7448
    6MOL0     H  797   7.006  -2.119   3.183  3.0884 -0.9253  1.6171
    6MOL0     H  798   7.134  -2.320   3.116 -2.3032 -1.6227  1.5412
    6MOL0     H  799   7.148  -2.252   2.959 -0.0939 -2.0602  0.4731
    6MOL0     H  800   6.879  -2.332   3.089 -2.5528 -3.1349 -1.9533
    6MOL0     H  801   6.898  -2.270   2.925 -1.5261 -0.8605 -0.0942
    6MOL0     H  802   7.015  -2.480   2.854  4.9928  0.4556  1.0061
    6MOL0     H  803   6.876  -2.519   2.941  1.2087 -3.1172 -2.4923
    6MOL0     H  804   7.168  -2.520   3.063  0.6561 -0.9097  2.1752
    6MOL0     H  805   7.083  -2.651   2.993 -3.4241  0.8854 -0.3982
    6MOL0     H  806   6.906  -2.638   3.171 -1.1505  1.0729  0.9755
    6MOL0     H  807   6.994  -2.494   3.244  0.5090  0.5962 -0.1503
    6MOL0     H  808   7.400  -1.678   3.172 -2.8591 -1.6446  2.8587
    6MOL0     H  809   7.342  -1.428   3.112  3.2473  1.1789 -4.6443
    6MOL0     H  810   7.122  -1.203   2.746  3.0445 -1.2550  2.4404
    6MOL0     H  811   7.109  -0.988   2.627 -1.1433  5.2812  0.4579
    6MOL0     H  812   7.320   0.056   1.246  0.2483  0.6989  1.5711
    6MOL0     H  813   7.153   0.257   1.184  0.6758 -1.9507 -0.6933
    6MOL0     H  814   7.228   0.731   1.002  1.6865  2.6996  0.8760
    6MOL0     H  815   7.108   0.917   0.898  0.1644 -1.0990 -0.3302
    6MOL0     H  816   6.838   0.936   0.829 -1.7066 -1.3073 -0.5495
    6MOL0     H  817   6.723   0.905   0.956  0.2504 -1.0180 -2.7907
    6MOL0     H  818   6.620   1.114   0.925 -0.9107 -0.0740 -0.5388
    6MOL0     H  819   6.664   1.068   0.757 -0.5386 -2.0304  0.3780
    6MOL0     H  820   6.785   1.280   0.935 -1.1728 -0.1506 -0.7284
    6MOL0     H  821   6.877   1.211   0.796  0.2271  1.8795 -1.1864
    6MOL0     H  822   6.695   1.318   0.636  4.6668 -1.3095 -0.9998
    6MOL0     H  823   6.783   1.429   0.746 -0.9793  0.5099  0.8655
    6MOL0     H  824   6.368   1.440   0.841  0.3670  1.1721  0.0010
    6MOL0     H  825   6.816   0.884   1.209  0.0316 -0.1431 -0.6842
    6MOL0     H  826   6.885   0.572   1.340  1.4261  0.6912 -1.0830
    6MOL0     H  827   6.918   0.723   1.419  1.7873 -2.1398  1.4313
    6MOL0     H  828   6.772   0.704   1.306  0.3439 -1.4283 -2.4058
    7MOL0     O  829   6.660   9.661  10.518 -0.8223 -0.1172  0.4628
    7MOL0     C  830   6.617   9.557  10.463  0.1406 -0.8320  0.5262
    7MOL0     O  831   6.484   9.529  10.454  0.1266  0.6246 -0.3546
    7MOL0     C  832   6.396   9.605  10.525  0.6644 -0.0937  0.0951
    7MOL0     C  833   6.285   9.627  10.445 -0.4644 -0.4953 -0.4718
    7MOL0     C  834   6.191   9.717  10.485  0.2559 -0.7883 -0.4994
    7MOL0     C  835   6.189   9.771  10.618  0.4880 -0.4497 -0.3931
    7MOL0     O  836   6.088   9.858  10.661 -0.9146 -0.4869  0.3235
    7MOL0     C  837   6.074   9.979  10.580 -0.0935  0.0140  0.3620
    7MOL0     C  838   5.946  10.059  10.630  0.5229  0.7202 -0.5376
    7MOL0     C  839   5.939  10.212  10.588  0.3754  0.4702 -1.0855
    7MOL0     C  840   5.840  10.238  10.481 -0.3586 -0.3832  0.2833
    7MOL0     C  841   5.869  10.365  10.411 -0.4158  0.3040 -0.1953
    7MOL0     C  842   5.764  10.403  10.309  0.8204  0.6507 -0.0861
    7MOL0     C  843   5.768  10.336  10.171 -0.3312  0.7607  0.6014
    7MOL0     C  844   5.668  10.392  10.069  0.8282 -0.5886  0.0821
    7MOL0     N  845   5.722  10.428   9.940 -1.1543 -0.9742 -0.4357
    7MOL0     C  846   5.781  10.549   9.915 -0.3738  0.1086 -1.2990
    7MOL0     C  847   5.886  10.535   9.825 -0.5460  0.6656  0.6537
    7MOL0     C  848   5.982  10.633   9.770 -0.0006  0.1869  0.1505
    7MOL0     C  849   5.912  10.739   9.684  0.3679 -0.1438  0.3089
    7MOL0     C  850   5.988  10.874   9.671 -0.2203  0.1144 -0.0012
    7MOL0     C  851   6.119  10.886   9.597 -0.6755  0.3477  0.0544
    7MOL0     O  852   6.153  11.021   9.573  0.0776 -0.3267 -0.1610
    7MOL0     C  853   6.269  11.080   9.630 -0.1495  0.9188  0.0932
    7MOL0     C  854   6.352  11.155   9.550 -0.2583  1.0493 -0.1139
    7MOL0     C  855   6.458  11.233   9.593 -0.2244 -0.0666 -0.3380
    7MOL0     C  856   6.540  11.303   9.485 -0.6636  0.4330  0.0959
    7MOL0     C  857   6.488  11.234   9.731  0.0953 -0.3516 -0.7931
    7MOL0     C  858   6.598  11.319   9.790  0.2144 -0.0924 -0.6755
    7MOL0     O  859   6.674  11.396   9.713 -0.6695  0.5423 -0.4707
    7MOL0     C  860   6.796  11.438   9.762  0.6587 -0.7029 -0.5785
    7MOL0     C  861   6.892  11.349   9.811  0.2677 -0.1496  0.3572
    7MOL0     C  862   7.010  11.387   9.872 -1.1890 -0.5204 -0.0190
    7MOL0     C  863   7.043  11.521   9.874 -0.3454 -0.5945 -0.1554
    7MOL0     O  864   7.166  11.558   9.926 -0.4336 -0.0643 -0.4047
    7MOL0     C  865   7.211  11.697   9.916 -0.0919  0.6031  0.1214
    7MOL0     C  866   7.256  11.739   9.779 -0.2679  0.3896  0.5988
    7MOL0     C  867   7.367  11.846   9.773  0.5456  0.7900 -0.0044
    7MOL0     C  868   7.426  11.849   9.641 -0.1666 -0.6523 -0.2234
    7MOL0     C  869   7.500  11.974   9.614  0.0415  0.8890 -0.5346
    7MOL0     C  870   7.637  11.949   9.538  0.0109  0.5548  0.1119
    7MOL0     C  871   7.680  12.075   9.465  0.2798 -0.6233 -0.1904
    7MOL0     C  872   7.792  12.054   9.377 -0.0600 -0.1801 -0.2029
    7MOL0    Cl  873   7.938  11.995   9.469  0.3296 -0.3160 -0.1819
    7MOL0     C  874   6.947  11.615   9.827 -0.1618 -0.1180  1.0505
    7MOL0     C  875   6.828  11.570   9.774  0.1666  0.3260  0.4137
    7MOL0     O  876   6.625  11.281   9.907 -0.3620 -0.6080  0.3913
    7MOL0     C  877   6.409  11.152   9.818  0.0433 -0.1099 -0.3885
    7MOL0     C  878   6.306  11.071   9.768  0.0919 -0.1200 -0.6487
    7MOL0     N  879   5.891  10.396   9.795  0.0333 -0.2171  0.4483
    7MOL0     N  880   5.787  10.338   9.858 -0.1582  0.1765  0.4187
    7MOL0     C  881   6.293   9.736  10.701 -0.0799  0.5324  0.1260
    7MOL0     C  882   6.400   9.656  10.652  0.1739 -0.2580 -1.1571
    7MOL0     C  883   6.711   9.460  10.398  0.0932 -0.4655  0.4192
    7MOL0     C  884   6.653   9.347  10.338  0.0026  0.2040 -0.4875
    7MOL0     C  885   6.719   9.243  10.287  0.1409 -0.4166  0.0116
    7MOL0     C  886   6.857   9.246  10.294  1.1740 -0.7405 -0.5483
    7MOL0     O  887   6.929   9.135  10.261 -0.1861 -0.7495 -0.1655
    7MOL0     C  888   6.923   9.084  10.132 -0.6240  0.8925  0.0122
    7MOL0     C  889   7.057   8.997  10.103 -0.8049  0.2838 -0.1287
    7MOL0     C  890   7.193   9.067  10.106 -0.6596  0.3624 -0.2870
    7MOL0     C  891   7.317   9.004  10.038  0.8822 -0.0695 -0.1084
    7MOL0     C  892   7.416   9.114  10.014  0.2925 -1.2056  0.6947
    7MOL0     C  893   7.494   9.201   9.977  0.5226  0.4565 -0.0184
    7MOL0     C  894   6.922   9.366  10.331  0.7426  0.2746  0.6645
    7MOL0     C  895   6.852   9.476  10.385  0.2048 -0.4992  0.5251
    7MOL0     C  896   6.949   9.598  10.421  0.0525 -0.4764  0.2140
    7MOL0     H  897   6.262   9.583  10.349  1.8314  1.5021 -2.0539
    7MOL0     H  898   6.110   9.738  10.415  0.5278 -3.6471 -1.8301
    7MOL0     H  899   6.074   9.955  10.474  0.2059 -0.0816  0.3834
    7MOL0     H  900   6.156  10.047  10.605 -0.2264 -0.9070  3.8760
    7MOL0     H  901   5.857  10.001  10.604 -0.8816  0.3862  3.9951
    7MOL0     H  902   5.943  10.077  10.738 -3.1381  1.4538 -0.6119
    7MOL0     H  903   5.907  10.273  10.673  0.5412 -0.6819 -0.1800
    7MOL0     H  904   6.040  10.246  10.564  0.1675  3.8148  1.7761
    7MOL0     H  905   5.843  10.160  10.404  0.2557  0.4895 -0.6101
    7MOL0     H  906   5.739  10.242  10.521 -1.6186  0.4374 -2.7327
    7MOL0     H  907   5.966  10.358  10.362 -0.2112  1.5869  0.0072
    7MOL0     H  908   5.861  10.448  10.482  1.4021 -0.3570  0.8551
    7MOL0     H  909   5.662  10.393  10.348  0.7390 -0.0548 -0.4752
    7MOL0     H  910   5.789  10.508  10.290 -0.1305  0.7023 -1.1638
    7MOL0     H  911   5.746  10.229  10.182  0.2293  0.7021  1.1989
    7MOL0     H  912   5.872  10.351  10.143 -0.2481  0.0569  0.5233
    7MOL0     H  913   5.582  10.327  10.054  0.6188 -0.3162  0.0992
    7MOL0     H  914   5.628  10.483  10.114  1.9889 -0.9343  1.9464
    7MOL0     H  915   5.743  10.641   9.957  1.9208 -0.4123  2.4067
    7MOL0     H  916   6.071  10.585   9.728 -1.1514 -2.1778  0.2563
    7MOL0     H  917   6.022  10.685   9.858  2.1652 -1.3103  0.1423
    7MOL0     H  918   5.864  10.700   9.593 -1.6134 -0.3381  1.3856
    7MOL0     H  919   5.832  10.778   9.747  0.6838  0.0042  0.6180
    7MOL0     H  920   5.921  10.929   9.604  0.2972 -0.5671 -1.1119
    7MOL0     H  921   6.001  10.932   9.763  0.6057  0.7038 -0.4738
    7MOL0     H  922   6.198  10.850   9.664 -1.0668  0.6667  0.7005
    7MOL0     H  923   6.118  10.835   9.501 -2.0746 -2.1639  1.2964
    7MOL0     H  924   6.334  11.160   9.443 -0.2221  2.0734 -0.0795
    7MOL0     H  925   6.520  11.410   9.495 -4.1556 -0.1684  0.9026
    7MOL0     H  926   6.518  11.260   9.388 -0.4233  0.7136 -0.0855
    7MOL0     H  927   6.648  11.291   9.498 -0.7945 -0.5900  0.2856
    7MOL0     H  928   6.865  11.244   9.812 -2.3164  0.3971 -1.4265
    7MOL0     H  929   7.073  11.318   9.925 -1.6265  0.7026  2.2040
    7MOL0     H  930   7.136  11.764   9.959 -0.2941 -1.1845  2.8054
    7MOL0     H  931   7.291  11.691   9.991 -0.3586 -1.6599  0.2747
    7MOL0     H  932   7.280  11.649   9.723 -2.3884  1.2353 -1.8315
    7MOL0     H  933   7.172  11.778   9.722  2.7801  4.0890 -1.8610
    7MOL0     H  934   7.444  11.839   9.850  0.8276  1.3014 -0.2358
    7MOL0     H  935   7.316  11.942   9.784  0.1087  0.5214  0.3238
    7MOL0     H  936   7.348  11.826   9.567 -0.5570  2.9826 -1.1166
    7MOL0     H  937   7.490  11.760   9.640 -0.5149 -0.9746  1.7922
    7MOL0     H  938   7.443  12.051   9.561 -1.7718  0.9541  1.3470
    7MOL0     H  939   7.533  12.025   9.705 -3.2514 -0.0870  1.3491
    7MOL0     H  940   7.622  11.866   9.469  0.3181 -0.1519  0.8785
    7MOL0     H  941   7.707  11.918   9.616 -1.7331  0.2298  1.6177
    7MOL0     H  942   7.727  12.148   9.532  1.3618  2.5404 -3.9943
    7MOL0     H  943   7.598  12.121   9.411  1.0147  1.2641  0.2112
    7MOL0     H  944   7.808  12.147   9.322 -0.6139 -0.6578 -1.2096
    7MOL0     H  945   7.750  11.977   9.311  2.5129  0.1717 -2.4392
    7MOL0     H  946   6.978  11.718   9.815  1.9501 -0.7447  0.7139
    7MOL0     H  947   6.761  11.651   9.747  0.7171  0.0893 -1.9322
    7MOL0     H  948   6.416  11.164   9.926  1.3976 -0.6058 -0.4078
    7MOL0     H  949   6.245  11.020   9.842  2.3149 -1.8280  0.1452
    7MOL0     H  950   6.283   9.770  10.803 -0.4493 -0.2328  0.3525
    7MOL0     H  951   6.472   9.635  10.730 -2.5569  2.6444  2.5318
    7MOL0     H  952   6.546   9.340  10.321 -0.3964  3.8997 -0.4047
    7MOL0     H  953   6.664   9.159  10.246 -0.6970  0.5536 -0.9395
    7MOL0     H  954   6.845   9.008  10.140  0.6069 -0.2909  1.7098
    7MOL0     H  955   6.912   9.150  10.046  4.9052 -0.7460 -2.4319
    7MOL0     H  956   7.041   8.955  10.003 -0.6464 -0.8969  0.3270
    7MOL0     H  957   7.050   8.908  10.166  1.9444 -0.6474 -1.0289
    7MOL0     H  958   7.179   9.163  10.054 -0.5342 -0.8707 -2.7386
    7MOL0     H  959   7.222   9.088  10.209  0.7610  1.5935 -0.8907
    7MOL0     H  960   7.284   8.967   9.941 -0.1120  0.5125 -0.0132
    7MOL0     H  961   7.347   8.916  10.095 -1.1097 -0.0921  1.0148
    7MOL0     H  962   7.546   9.292   9.954  0.0143  0.9300  0.6677
    7MOL0     H  963   7.030   9.371  10.322  0.8934 -0.2855  2.0113
    7MOL0     H  964   7.045   9.573  10.376 -0.8267 -3.0922 -0.3910
    7MOL0     H  965   6.901   9.691  10.387  1.0185  0.8924  2.3553
    7MOL0     H  966   6.968   9.584  10.527  1.5835 -3.2845 -0.3406
    8MOL0     O  967   9.440   4.699  10.671  0.4566  0.0071  0.0015
    8MOL0     C  968   9.375   4.688  10.781  0.8187 -0.8217  0.7493
    8MOL0     O  969   9.413   4.747  10.909  0.2046 -0.1956 -0.1166
    8MOL0     C  970   9.513   4.838  10.894 -0.6997  0.3944  0.0522
    8MOL0     C  971   9.476   4.973  10.886  0.3260 -0.3812 -0.4031
    8MOL0     C  972   9.575   5.064  10.855 -0.7270 -0.8050 -0.3080
    8MOL0     C  973   9.707   5.024  10.839 -0.8921 -0.5176  0.1953
    8MOL0     O  974   9.789   5.125  10.802  0.1665  0.4403 -0.2006
    8MOL0     C  975   9.924   5.085  10.793 -0.3783 -0.4342 -0.2898
    8MOL0     C  976  10.010   5.212  10.793  0.1193  0.9692 -0.5459
    8MOL0     C  977   9.992   5.306  10.677 -0.6723 -1.1112 -1.0576
    8MOL0     C  978  10.061   5.442  10.694  0.8631 -0.0994 -0.4858
    8MOL0     C  979  10.027   5.536  10.574  0.5973 -0.1608  1.4373
    8MOL0     C  980  10.066   5.491  10.433  0.4481 -0.2465 -0.0179
    8MOL0     C  981   9.971   5.578  10.341 -0.5505 -0.3694  0.4217
    8MOL0     C  982   9.975   5.733  10.363 -0.6329  0.0716  0.6170
    8MOL0     N  983  10.117   5.783  10.338  0.1963  0.6710 -0.3132
    8MOL0     C  984  10.211   5.802  10.433 -0.7661  0.7000  0.8120
    8MOL0     C  985  10.327   5.820  10.364  0.0339  0.8016 -0.2797
    8MOL0     C  986  10.460   5.852  10.431  1.3030 -0.0414  0.1284
    8MOL0     C  987  10.565   5.737  10.411 -0.8600  0.0267 -0.3132
    8MOL0     C  988  10.533   5.596  10.469  0.8056 -0.8381  0.3411
    8MOL0     C  989  10.533   5.595  10.617  0.2525  0.8487 -0.0924
    8MOL0     O  990  10.407   5.650  10.677  0.1094 -0.1027 -0.4688
    8MOL0     C  991  10.399   5.642  10.810 -0.0977  0.2040 -0.5998
    8MOL0     C  992  10.506   5.611  10.898  0.4782 -0.0111 -1.0156
    8MOL0     C  993  10.495   5.591  11.030 -0.1955 -0.3816 -0.3432
    8MOL0     C  994  10.630   5.578  11.101 -0.0546 -0.0052 -0.6288
    8MOL0     C  995  10.369   5.616  11.092 -0.8994  0.1612  0.1209
    8MOL0     C  996  10.352   5.603  11.238  1.0061 -0.2116  0.5022
    8MOL0     O  997  10.244   5.682  11.300 -0.7783  0.2178  0.5202
    8MOL0     C  998  10.253   5.709  11.430 -0.1043 -0.2946 -0.5788
    8MOL0     C  999  10.357   5.795  11.484  0.8346  0.0197 -0.0180
    8MOL0     C 1000  10.356   5.820  11.620 -0.1255  0.9039 -0.7576
    8MOL0     C 1001  10.259   5.761  11.701  0.9742  0.3963 -0.9504
    8MOL0     O 1002  10.258   5.801  11.835 -0.0592  0.2515 -0.4280
    8MOL0     C 1003  10.213   5.712  11.941  0.6595 -0.6684 -0.1508
    8MOL0     C 1004  10.184   5.778  12.080 -0.0859 -0.4253 -0.3318
    8MOL0     C 1005  10.155   5.671  12.182  0.1629  0.0775 -0.1714
    8MOL0     C 1006  10.107   5.736  12.311  0.1290  0.6022  0.1776
    8MOL0     C 1007  10.016   5.643  12.401 -0.4669  0.0636 -0.2078
    8MOL0     C 1008  10.065   5.497  12.408 -0.3971  0.2369 -1.6619
    8MOL0     C 1009  10.195   5.489  12.484  0.0183 -0.4425 -0.0364
    8MOL0     C 1010  10.207   5.360  12.555  0.3311  0.1145  0.1852
    8MOL0    Cl 1011  10.377   5.342  12.598  0.5317  0.1332 -0.4167
    8MOL0     C 1012  10.156   5.679  11.645 -0.4955 -1.0020  0.8682
    8MOL0     C 1013  10.156   5.649  11.511 -0.2263 -0.5086  0.4319
    8MOL0     O 1014  10.417   5.527  11.299 -0.7594  1.2971 -0.4285
    8MOL0     C 1015  10.264   5.643  11.013  0.1086  0.0482 -0.0241
    8MOL0     C 1016  10.272   5.658  10.876 -0.1623 -0.4137  0.3352
    8MOL0     N 1017  10.295   5.809  10.228 -0.2344  0.2058  0.8468
    8MOL0     N 1018  10.169   5.784  10.210  1.0295  0.5949  0.1206
    8MOL0     C 1019   9.745   4.891  10.861  0.5395 -0.4509  1.0375
    8MOL0     C 1020   9.648   4.800  10.880  0.8610  0.4208 -0.0935
    8MOL0     C 1021   9.248   4.597  10.775  0.3607 -0.4214 -0.2331
    8MOL0     C 1022   9.166   4.613  10.889  0.2840 -0.0161  0.1321
    8MOL0     C 1023   9.043   4.551  10.902  0.9078  0.3662  1.1111
    8MOL0     C 1024   8.993   4.473  10.795  0.0848 -0.2334 -0.6083
    8MOL0     O 1025   8.870   4.410  10.825  0.0607  0.9943 -0.5009
    8MOL0     C 1026   8.799   4.348  10.719 -0.2641  0.4139 -0.6706
    8MOL0     C 1027   8.661   4.303  10.788  0.1241 -0.1074  0.3150
    8MOL0     C 1028   8.575   4.423  10.830 -0.8683 -0.0202 -0.3375
    8MOL0     C 1029   8.549   4.509  10.706  0.1447 -0.2058 -0.2075
    8MOL0     C 1030   8.435   4.597  10.746  0.9077 -0.0114 -0.1692
    8MOL0     C 1031   8.350   4.689  10.757  0.6315  0.9111  0.4151
    8MOL0     C 1032   9.074   4.449  10.679  0.6686 -0.6421 -0.1375
    8MOL0     C 1033   9.203   4.512  10.666  0.2313 -0.7619 -0.5005
    8MOL0     C 1034   9.274   4.504  10.530 -0.3125  1.0846  0.2396
    8MOL0     H 1035   9.373   5.004  10.905  0.4727  0.0845 -0.3552
    8MOL0     H 1036   9.560   5.171  10.864  2.5807 -0.1079 -1.6669
    8MOL0     H 1037   9.948   5.040  10.697  2.9520  2.1916 -0.8809
    8MOL0     H 1038   9.968   5.023  10.872  3.4362  1.2744 -0.8308
    8MOL0     H 1039   9.966   5.274  10.872  0.1351  3.6919 -2.4977
    8MOL0     H 1040  10.110   5.177  10.822  0.3626  1.1054 -1.1953
    8MOL0     H 1041  10.044   5.258  10.593 -0.0099 -1.6497 -0.3608
    8MOL0     H 1042   9.886   5.333  10.668 -0.6395  1.2091  3.1407
    8MOL0     H 1043  10.029   5.485  10.790  2.3705 -1.0806  0.5052
    8MOL0     H 1044  10.170   5.432  10.702  0.8591 -0.6715 -1.0588
    8MOL0     H 1045  10.062   5.636  10.597 -1.3197  1.0048 -0.3697
    8MOL0     H 1046   9.919   5.549  10.561  0.9989  1.9520 -0.3681
    8MOL0     H 1047  10.171   5.523  10.424  0.0374  1.4483  0.7508
    8MOL0     H 1048  10.055   5.386  10.406 -0.0666  0.1296 -1.3658
    8MOL0     H 1049   9.869   5.536  10.343  0.0795 -2.6775 -3.7646
    8MOL0     H 1050   9.999   5.552  10.239  0.6382  0.0691  0.6228
    8MOL0     H 1051   9.922   5.776  10.278  2.1819 -1.9409 -2.4338
    8MOL0     H 1052   9.949   5.777  10.460 -0.1211  2.4873 -0.2781
    8MOL0     H 1053  10.193   5.808  10.540 -0.0901 -0.7381  1.0311
    8MOL0     H 1054  10.443   5.866  10.539  1.0093  0.3305  0.0361
    8MOL0     H 1055  10.489   5.947  10.385 -2.9734  0.6413 -1.6332
    8MOL0     H 1056  10.571   5.718  10.303 -1.3148  0.4750 -0.4185
    8MOL0     H 1057  10.661   5.773  10.450 -1.3255 -1.0920  2.0568
    8MOL0     H 1058  10.437   5.563  10.430  1.5736 -3.9025  0.7578
    8MOL0     H 1059  10.610   5.528  10.432  1.9874  1.4000 -1.5867
    8MOL0     H 1060  10.538   5.491  10.652  2.0554  0.8217 -0.3119
    8MOL0     H 1061  10.622   5.648  10.652  1.7426 -1.9195  0.6834
    8MOL0     H 1062  10.611   5.614  10.869  0.6428  0.4303 -0.3946
    8MOL0     H 1063  10.651   5.659  11.172  1.5532 -1.3976  0.5481
    8MOL0     H 1064  10.719   5.561  11.040  0.2256 -0.1399 -0.1869
    8MOL0     H 1065  10.631   5.499  11.177  2.2906  0.1601 -0.4157
    8MOL0     H 1066  10.432   5.838  11.418  0.9790  0.3179  0.3395
    8MOL0     H 1067  10.432   5.877  11.673 -1.4818 -0.1240  2.5435
    8MOL0     H 1068  10.134   5.642  11.914  3.3233 -3.3436 -1.5598
    8MOL0     H 1069  10.296   5.643  11.959  2.5089  1.7974  1.5575
    8MOL0     H 1070  10.273   5.836  12.103 -0.8974  1.5208 -1.7249
    8MOL0     H 1071  10.105   5.849  12.052 -1.3017 -2.8732 -3.8414
    8MOL0     H 1072  10.256   5.628  12.187  1.7412  2.9212 -3.2588
    8MOL0     H 1073  10.083   5.596  12.149  0.4991 -0.4306  0.2383
    8MOL0     H 1074  10.044   5.818  12.276 -1.2374 -0.6410 -0.3789
    8MOL0     H 1075  10.190   5.773  12.373 -0.0938  4.1632 -1.3818
    8MOL0     H 1076  10.020   5.686  12.501  1.2578 -0.6244  0.0539
    8MOL0     H 1077   9.916   5.646  12.357  0.0796 -0.6449 -1.5628
    8MOL0     H 1078  10.077   5.453  12.308  0.4805 -1.9458 -0.6383
    8MOL0     H 1079   9.993   5.442  12.469 -0.0670  0.3607 -1.1556
    8MOL0     H 1080  10.209   5.569  12.557 -0.3564  0.4367 -0.8956
    8MOL0     H 1081  10.275   5.491  12.409 -0.8754 -2.1178 -1.0855
    8MOL0     H 1082  10.178   5.278  12.489 -0.6138  0.1084  0.5758
    8MOL0     H 1083  10.153   5.373  12.650 -1.3562 -4.4090  0.0843
    8MOL0     H 1084  10.082   5.634  11.710 -0.9655 -1.3271  0.1201
    8MOL0     H 1085  10.071   5.592  11.477  1.3450 -3.0271  0.4957
    8MOL0     H 1086  10.172   5.640  11.071  1.5320 -1.8766  2.3346
    8MOL0     H 1087  10.194   5.693  10.810  1.2487  0.7526 -0.7788
    8MOL0     H 1088   9.845   4.859  10.834  0.3879  0.8765 -1.2664
    8MOL0     H 1089   9.668   4.693  10.881 -2.5255 -0.4091 -2.6661
    8MOL0     H 1090   9.192   4.674  10.974 -0.7484  1.4794 -0.5627
    8MOL0     H 1091   8.978   4.555  10.989 -1.1240 -4.6257  0.1267
    8MOL0     H 1092   8.790   4.412  10.631 -0.4316  0.4560 -0.6229
    8MOL0     H 1093   8.858   4.259  10.694 -2.2397 -0.4558 -2.6445
    8MOL0     H 1094   8.689   4.237  10.871  0.6195  0.5937  0.7108
    8MOL0     H 1095   8.609   4.245  10.710 -2.0152 -1.7959  2.7949
    8MOL0     H 1096   8.481   4.390  10.876 -0.5267  0.5506  0.7922
    8MOL0     H 1097   8.613   4.488  10.909  2.6713  2.9007 -4.0268
    8MOL0     H 1098   8.528   4.453  10.614 -0.6073 -0.8348  0.3343
    8MOL0     H 1099   8.632   4.570  10.670 -1.3386  0.8467 -2.0636
    8MOL0     H 1100   8.272   4.762  10.763  0.2707  0.8944 -2.4757
    8MOL0     H 1101   9.021   4.400  10.598 -1.5284 -0.3381  1.0133
    8MOL0     H 1102   9.372   4.461  10.550  0.6243  2.6137 -0.8101
    8MOL0     H 1103   9.221   4.431  10.468  1.7294  1.8692 -2.6466
    8MOL0     H 1104   9.292   4.595  10.472  1.1152  0.4707 -0.3234
    9MOL0     O 1105   1.869   3.045  10.205 -0.0119  0.6998  0.2478
    9MOL0     C 1106   1.927   3.111  10.289 -1.0199 -0.8957  0.0227
    9MOL0     O 1107   1.969   3.069  10.413 -0.3925 -0.1492 -0.0826
    9MOL0     C 1108   1.969   2.930  10.433  0.2209 -0.5138  1.5832
    9MOL0     C 1109   2.065   2.844  10.375 -0.1497  0.2937 -0.4769
    9MOL0     C 1110   2.062   2.709  10.426  0.2343  0.0921  0.2282
    9MOL0     C 1111   1.964   2.663  10.519  0.0089  0.4801 -0.2838
    9MOL0     O 1112   1.948   2.531  10.554  0.4369 -0.1807  0.4940
    9MOL0     C 1113   2.070   2.465  10.608  0.7179 -0.4501 -0.7306
    9MOL0     C 1114   2.098   2.514  10.750 -0.6395 -0.3247 -0.3956
    9MOL0     C 1115   2.198   2.424  10.812  0.2656  0.0461 -0.4126
    9MOL0     C 1116   2.232   2.459  10.950 -0.6009 -0.9154 -0.2306
    9MOL0     C 1117   2.136   2.422  11.064 -0.0080 -0.9819 -0.3727
    9MOL0     C 1118   2.080   2.276  11.073 -0.6844  1.0343 -0.0673
    9MOL0     C 1119   2.018   2.237  11.208  0.9719  0.0627 -0.2154
    9MOL0     C 1120   1.873   2.290  11.226 -0.2720  0.1995 -0.3308
    9MOL0     N 1121   1.797   2.231  11.333 -0.5206 -0.0355 -0.4742
    9MOL0     C 1122   1.838   2.217  11.465  0.0950  0.2499  0.1882
    9MOL0     C 1123   1.729   2.171  11.536 -0.9228 -0.3084  0.8104
    9MOL0     C 1124   1.706   2.152  11.682  0.4374  0.4582 -0.2475
    9MOL0     C 1125   1.690   2.276  11.764  0.4291 -0.1331  1.0208
    9MOL0     C 1126   1.815   2.362  11.781 -0.7338 -0.4577  0.3620
    9MOL0     C 1127   1.790   2.498  11.852 -0.5070 -0.1552 -0.4735
    9MOL0     O 1128   1.920   2.560  11.865 -0.6531 -0.2901  0.1503
    9MOL0     C 1129   1.929   2.644  11.970 -0.2252  0.4101 -0.2828
    9MOL0     C 1130   1.827   2.733  12.027 -0.3422 -0.1452  0.2532
    9MOL0     C 1131   1.850   2.802  12.147 -0.2777 -0.1673 -0.4244
    9MOL0     C 1132   1.745   2.901  12.185 -0.5069  0.1742 -0.0651
    9MOL0     C 1133   1.977   2.803  12.211  0.6730 -0.3171 -0.4044
    9MOL0     C 1134   2.007   2.868  12.341 -1.1991 -1.3291  0.3744
    9MOL0     O 1135   2.135   2.900  12.351 -0.6314 -0.4559 -0.0171
    9MOL0     C 1136   2.174   2.964  12.470 -0.0180 -0.8847 -0.2278
    9MOL0     C 1137   2.259   2.899  12.555  0.2559 -0.2031  0.7792
    9MOL0     C 1138   2.295   2.959  12.674 -0.5650 -1.6978 -0.0132
    9MOL0     C 1139   2.263   3.090  12.698  0.0805  1.7994 -0.0606
    9MOL0     O 1140   2.330   3.148  12.807 -0.7034  0.0418 -0.3434
    9MOL0     C 1141   2.364   3.287  12.782 -0.2369  0.6073  0.2707
    9MOL0     C 1142   2.491   3.329  12.861  0.1763  0.1015 -0.7428
    9MOL0     C 1143   2.475   3.268  13.006 -0.2788  0.1314 -0.3116
    9MOL0     C 1144   2.574   3.326  13.106 -0.0345 -0.8590 -0.0095
    9MOL0     C 1145   2.553   3.290  13.252 -0.0434  0.6333 -0.3182
    9MOL0     C 1146   2.679   3.330  13.337  0.5867 -0.5279 -0.0189
    9MOL0     C 1147   2.639   3.335  13.483  0.1745 -0.6579  0.2019
    9MOL0     C 1148   2.754   3.369  13.575 -0.3665 -0.0132  0.2590
    9MOL0    Cl 1149   2.793   3.542  13.559 -0.1723  0.1518 -0.2607
    9MOL0     C 1150   2.177   3.156  12.608 -0.1955  1.4348  0.5331
    9MOL0     C 1151   2.125   3.096  12.494  0.7390  0.9500  0.0979
    9MOL0     O 1152   1.922   2.890  12.420  0.7960  0.5543  0.0078
    9MOL0     C 1153   2.075   2.721  12.155 -0.1429 -0.9369  1.3624
    9MOL0     C 1154   2.050   2.651  12.040  0.1478  0.2802 -0.2679
    9MOL0     N 1155   1.625   2.159  11.436  0.1892 -0.1513 -0.7015
    9MOL0     N 1156   1.673   2.179  11.315 -0.4324 -0.5058 -0.0057
    9MOL0     C 1157   1.880   2.758  10.576 -0.0292  0.3286 -1.2355
    9MOL0     C 1158   1.880   2.892  10.537 -0.4787 -0.7794 -0.0436
    9MOL0     C 1159   1.929   3.259  10.262  0.6520 -0.7526  0.4432
    9MOL0     C 1160   1.954   3.347  10.370 -0.6117  0.2005 -0.9726
    9MOL0     C 1161   1.970   3.480  10.350  0.2642  1.1958  0.6610
    9MOL0     C 1162   1.987   3.530  10.215 -0.2906 -0.0698 -0.1845
    9MOL0     O 1163   2.004   3.661  10.186  0.4131  0.3211  0.3527
    9MOL0     C 1164   2.118   3.721  10.253  0.7872 -0.0173 -0.1537
    9MOL0     C 1165   2.085   3.865  10.283  0.0323 -0.2610  0.1545
    9MOL0     C 1166   2.062   3.949  10.152  0.7241 -0.0417  0.1456
    9MOL0     C 1167   2.078   4.105  10.186  0.1215  0.0442  0.0982
    9MOL0     C 1168   2.219   4.136  10.186 -0.8013  0.6976 -0.1845
    9MOL0     C 1169   2.334   4.171  10.203 -0.6115 -0.4910  0.3670
    9MOL0     C 1170   1.953   3.448  10.110 -0.2222 -0.4292 -0.9570
    9MOL0     C 1171   1.925   3.314  10.127  0.6996  0.1103 -0.6273
    9MOL0     C 1172   1.906   3.228  10.000 -0.8566  0.2937 -0.7722
    9MOL0     H 1173   2.117   2.881  10.287 -1.8434  1.0852 -1.1867
    9MOL0     H 1174   2.113   2.622  10.386 -1.9467 -1.8785  1.4901
    9MOL0     H 1175   2.158   2.485  10.545  1.5110 -2.0367 -0.1891
    9MOL0     H 1176   2.053   2.357  10.604  0.7277 -0.4662 -0.3227
    9MOL0     H 1177   2.144   2.613  10.756  2.8252 -1.7483 -1.0321
    9MOL0     H 1178   2.006   2.513  10.809  0.3790  2.6946  1.4903
    9MOL0     H 1179   2.152   2.325  10.809  1.7412 -0.6569 -2.1869
    9MOL0     H 1180   2.285   2.428  10.746 -1.5794  0.3297 -2.9547
    9MOL0     H 1181   2.327   2.408  10.972 -1.0497 -1.6563  0.0131
    9MOL0     H 1182   2.255   2.566  10.951  0.0796 -1.0519  0.6273
    9MOL0     H 1183   2.053   2.494  11.061  2.8432  2.6648  0.3863
    9MOL0     H 1184   2.193   2.447  11.154 -0.6339  2.2047 -0.7308
    9MOL0     H 1185   2.008   2.258  10.993 -2.7206 -0.1991  1.9462
    9MOL0     H 1186   2.167   2.220  11.037 -1.7877 -0.3213 -0.7080
    9MOL0     H 1187   2.074   2.254  11.300 -0.1137 -0.3690  0.5464
    9MOL0     H 1188   1.992   2.131  11.207 -2.0934  0.6796  1.2796
    9MOL0     H 1189   1.874   2.396  11.253  4.3301  0.1292  0.7175
    9MOL0     H 1190   1.806   2.275  11.141 -1.6718 -2.4128  1.1000
    9MOL0     H 1191   1.940   2.219  11.503  0.1788  0.7038 -0.0467
    9MOL0     H 1192   1.792   2.103  11.728  1.9705 -0.9189 -4.1306
    9MOL0     H 1193   1.615   2.093  11.700 -1.3642  2.9783 -0.6350
    9MOL0     H 1194   1.609   2.324  11.708  0.7861 -3.8238 -3.2103
    9MOL0     H 1195   1.647   2.239  11.857 -2.3580 -0.3664 -0.2792
    9MOL0     H 1196   1.888   2.311  11.844 -1.2380 -1.0209  0.4984
    9MOL0     H 1197   1.852   2.381  11.679 -2.6963 -1.7895 -0.6559
    9MOL0     H 1198   1.727   2.566  11.794  0.1897  1.7030  0.8483
    9MOL0     H 1199   1.751   2.479  11.952  1.3147 -1.3230  0.0545
    9MOL0     H 1200   1.729   2.732  11.981 -0.0983  1.8797 -0.3939
    9MOL0     H 1201   1.779   2.997  12.222  0.9525 -0.7361  1.0712
    9MOL0     H 1202   1.687   2.865  12.270 -0.8694 -2.3307 -1.2711
    9MOL0     H 1203   1.676   2.919  12.101  1.7545  2.8072 -1.4963
    9MOL0     H 1204   2.301   2.801  12.536  3.3663  0.8881  1.4590
    9MOL0     H 1205   2.369   2.915  12.740 -0.3600  0.8876  1.6143
    9MOL0     H 1206   2.380   3.303  12.675 -1.4518  1.9484  0.2659
    9MOL0     H 1207   2.280   3.351  12.811  0.7022  1.4442  1.2224
    9MOL0     H 1208   2.581   3.281  12.820  0.6597 -0.9845  1.4581
    9MOL0     H 1209   2.492   3.438  12.870  2.3790  0.1302 -0.7965
    9MOL0     H 1210   2.504   3.164  12.986 -0.4533  0.5357 -3.1369
    9MOL0     H 1211   2.376   3.293  13.045 -0.0687  0.6116 -0.0798
    9MOL0     H 1212   2.580   3.435  13.095 -1.3348 -0.7874 -0.1017
    9MOL0     H 1213   2.679   3.300  13.088  1.7502  4.1799  1.3038
    9MOL0     H 1214   2.471   3.348  13.294  0.5495  1.1789  0.0950
    9MOL0     H 1215   2.519   3.187  13.266  0.3410  0.3107 -1.6051
    9MOL0     H 1216   2.708   3.429  13.303  0.3932 -0.5612 -0.2764
    9MOL0     H 1217   2.764   3.262  13.328  0.8050 -0.9325  3.5994
    9MOL0     H 1218   2.597   3.236  13.504 -3.4804  1.2621  3.1985
    9MOL0     H 1219   2.544   3.388  13.500 -0.2314 -1.2463 -0.1726
    9MOL0     H 1220   2.841   3.310  13.546 -1.0669 -0.5752 -0.7692
    9MOL0     H 1221   2.721   3.347  13.677  0.7137 -1.5010  0.3179
    9MOL0     H 1222   2.142   3.256  12.632  0.9578  1.8869  0.4165
    9MOL0     H 1223   2.052   3.144  12.429  0.6542  1.5796  0.6477
    9MOL0     H 1224   2.173   2.721  12.201 -0.4190  1.3762  2.0852
    9MOL0     H 1225   2.124   2.577  12.012  0.9247 -0.3671  2.9896
    9MOL0     H 1226   1.812   2.725  10.654  1.1442  0.8250  0.0380
    9MOL0     H 1227   1.803   2.949  10.588 -1.2204 -1.2245 -0.6294
    9MOL0     H 1228   1.964   3.317  10.474 -1.6146  0.9079 -0.6519
    9MOL0     H 1229   1.984   3.548  10.433 -1.7621 -0.1776  2.2085
    9MOL0     H 1230   2.117   3.681  10.355 -0.7165  0.4641  0.0515
    9MOL0     H 1231   2.216   3.701  10.210  2.8896  3.3667  2.5144
    9MOL0     H 1232   2.168   3.900  10.346  1.4130 -1.9087 -0.6626
    9MOL0     H 1233   1.994   3.880  10.341 -0.6701  0.9225 -1.2042
    9MOL0     H 1234   2.131   3.924  10.071 -0.6173  4.1319 -2.6162
    9MOL0     H 1235   1.962   3.936  10.111 -0.4259  0.3372  2.6695
    9MOL0     H 1236   2.029   4.138  10.278 -3.6283  0.7973 -1.9353
    9MOL0     H 1237   2.036   4.162  10.103  1.8735  2.9563  1.0906
    9MOL0     H 1238   2.436   4.203  10.213  0.2253 -2.7881 -0.2239
    9MOL0     H 1239   1.939   3.485  10.009  1.6554 -1.1274 -1.5329
    9MOL0     H 1240   1.811   3.177  10.010 -0.1775 -0.8164  0.2090
    9MOL0     H 1241   1.900   3.299   9.916 -1.0847 -0.2028 -1.1792
    9MOL0     H 1242   1.992   3.161   9.988 -1.2385 -0.4849  0.7022
   10MOL0     O 1243   5.039   6.412   5.402 -0.7430 -0.9870 -1.0499
   10MOL0     C 1244   5.073   6.376   5.516 -0.1125  1.0182  0.5806
   10MOL0     O 1245   5.192   6.366   5.560  0.1061 -0.2867 -0.0292
   10MOL0     C 1246   5.305   6.409   5.487  0.8197 -1.1804 -0.3014
   10MOL0     C 1247   5.352   6.362   5.363  0.0648 -0.5770 -1.3955
   10MOL0     C 1248   5.460   6.426   5.309 -0.1027  0.3337 -0.8772
   10MOL0     C 1249   5.534   6.543   5.368  0.3828  0.8988  0.2487
   10MOL0     O 1250   5.656   6.573   5.312  0.2407 -0.5733 -0.5216
   10MOL0     C 1251   5.689   6.702   5.279  0.1701  0.3214  0.8387
   10MOL0     C 1252   5.767   6.764   5.394  0.3184 -0.1560 -0.3679
   10MOL0     C 1253   5.921   6.734   5.380  0.2605 -1.0868  0.5279
   10MOL0     C 1254   5.995   6.825   5.477  0.5716 -1.2748  0.3638
   10MOL0     C 1255   6.149   6.807   5.476  0.5023 -0.3067  0.4315
   10MOL0     C 1256   6.200   6.868   5.611 -0.6415  0.5037 -0.3349
   10MOL0     C 1257   6.176   7.019   5.635 -0.6399 -0.3883  0.0832
   10MOL0     C 1258   6.244   7.109   5.529 -0.8115 -0.7784  0.3664
   10MOL0     N 1259   6.225   7.251   5.560 -0.5860  0.3559  0.0005
   10MOL0     C 1260   6.266   7.353   5.476 -0.3606  1.7416 -0.2193
   10MOL0     C 1261   6.247   7.466   5.546 -1.4927 -0.5449 -0.3121
   10MOL0     C 1262   6.266   7.606   5.500 -0.8071 -0.1023  0.5047
   10MOL0     C 1263   6.376   7.620   5.386  0.1346  1.1494 -1.6138
   10MOL0     C 1264   6.384   7.752   5.318 -0.4591  0.4738 -0.1199
   10MOL0     C 1265   6.455   7.730   5.180 -0.2639  0.3622 -0.8093
   10MOL0     O 1266   6.570   7.643   5.184  0.3942 -0.2569 -0.3634
   10MOL0     C 1267   6.594   7.557   5.077  0.3153 -1.2489  0.3729
   10MOL0     C 1268   6.531   7.554   4.953  0.2863  0.9976 -0.3114
   10MOL0     C 1269   6.571   7.459   4.848  0.0332 -0.2562  0.4510
   10MOL0     C 1270   6.480   7.457   4.729 -0.6886 -0.3415 -0.3059
   10MOL0     C 1271   6.680   7.374   4.872  0.0572 -0.0894 -0.6012
   10MOL0     C 1272   6.723   7.269   4.777 -0.6694  1.0023 -0.9046
   10MOL0     O 1273   6.680   7.253   4.647 -0.3626  1.4886  1.2084
   10MOL0     C 1274   6.726   7.154   4.567  0.9014  1.1077  0.4586
   10MOL0     C 1275   6.679   7.018   4.563  0.1525 -0.1391  0.0260
   10MOL0     C 1276   6.746   6.925   4.478 -1.1901  0.3023  0.1912
   10MOL0     C 1277   6.847   6.973   4.384  0.7504  1.2234 -0.6059
   10MOL0     O 1278   6.895   6.894   4.281 -0.2565 -0.2621 -0.0358
   10MOL0     C 1279   6.946   6.767   4.322 -0.2239  0.3009  0.7299
   10MOL0     C 1280   7.075   6.740   4.253 -0.3173  0.9785  1.4324
   10MOL0     C 1281   7.066   6.626   4.154 -0.4643  0.5855 -0.3751
   10MOL0     C 1282   7.079   6.486   4.221  0.2792 -0.3093 -0.4090
   10MOL0     C 1283   7.096   6.373   4.122  0.1698 -0.2492 -0.1004
   10MOL0     C 1284   6.962   6.331   4.077 -0.0845 -0.3358  0.1818
   10MOL0     C 1285   6.970   6.211   3.974 -0.4642 -0.0726  0.2020
   10MOL0     C 1286   6.838   6.125   3.973 -0.3269 -0.7605  0.3915
   10MOL0    Cl 1287   6.819   6.058   4.146 -0.2002 -0.2601  0.5267
   10MOL0     C 1288   6.876   7.109   4.382 -0.9851 -0.8912 -0.4488
   10MOL0     C 1289   6.823   7.200   4.479 -0.3668  0.8586  0.8307
   10MOL0     O 1290   6.793   7.183   4.835  0.1455 -0.4672  0.2508
   10MOL0     C 1291   6.749   7.391   4.993  0.0640 -0.6688 -0.4719
   10MOL0     C 1292   6.713   7.491   5.086 -0.5772 -0.0619 -0.0693
   10MOL0     N 1293   6.197   7.435   5.670 -0.3617  0.4525  1.1898
   10MOL0     N 1294   6.168   7.301   5.672 -1.1911  0.3923 -0.5507
   10MOL0     C 1295   5.482   6.592   5.486  0.2130  0.2418  0.3835
   10MOL0     C 1296   5.366   6.527   5.543  0.9871  0.2327  0.3378
   10MOL0     C 1297   4.974   6.315   5.600 -0.4706  0.2714 -0.2970
   10MOL0     C 1298   5.008   6.320   5.739 -0.2716 -0.4295  0.1790
   10MOL0     C 1299   4.916   6.264   5.825 -0.0640 -0.4692  0.6397
   10MOL0     C 1300   4.789   6.226   5.777 -0.0459 -0.3764 -0.5067
   10MOL0     O 1301   4.691   6.186   5.865  0.5025 -0.3754 -0.0586
   10MOL0     C 1302   4.696   6.187   6.010  0.1103  0.0145 -0.3557
   10MOL0     C 1303   4.554   6.203   6.061  0.3995  0.2547  0.0260
   10MOL0     C 1304   4.552   6.162   6.219  0.3048 -0.4828  0.1198
   10MOL0     C 1305   4.430   6.208   6.292  0.6933  0.1901 -0.3499
   10MOL0     C 1306   4.384   6.118   6.402  0.5760  0.4380 -1.3145
   10MOL0     C 1307   4.366   6.052   6.500  0.8314  0.7742 -0.6475
   10MOL0     C 1308   4.760   6.217   5.646  0.7484  0.3079  0.9059
   10MOL0     C 1309   4.847   6.265   5.553 -0.4125  0.5073  0.1530
   10MOL0     C 1310   4.800   6.263   5.412  0.5472 -0.5813  0.1558
   10MOL0     H 1311   5.301   6.277   5.317 -2.2792 -0.8385  1.3582
   10MOL0     H 1312   5.500   6.385   5.217 -0.2404  1.4245 -1.4506
   10MOL0     H 1313   5.601   6.765   5.259  1.2196  1.5318 -0.1514
   10MOL0     H 1314   5.749   6.702   5.187 -0.5834  4.3757  0.1468
   10MOL0     H 1315   5.748   6.872   5.401  1.3023 -0.0376  0.7819
   10MOL0     H 1316   5.722   6.729   5.487 -1.2663  0.9646 -0.6692
   10MOL0     H 1317   5.942   6.626   5.383  0.1459 -1.1994 -1.5095
   10MOL0     H 1318   5.952   6.761   5.279  1.5936 -3.1150  0.3140
   10MOL0     H 1319   5.975   6.929   5.453  1.5116 -1.0820  0.3798
   10MOL0     H 1320   5.951   6.803   5.575 -1.2127 -0.2248 -0.1512
   10MOL0     H 1321   6.205   6.860   5.398  2.0917 -1.7544  0.5324
   10MOL0     H 1322   6.163   6.699   5.475 -4.1307 -1.1137  0.5016
   10MOL0     H 1323   6.151   6.811   5.691  0.6499  0.1300  0.2066
   10MOL0     H 1324   6.307   6.848   5.617 -1.0190 -2.3267 -1.2156
   10MOL0     H 1325   6.222   7.054   5.728 -2.0492  2.4331 -0.1761
   10MOL0     H 1326   6.072   7.040   5.661  1.0452  2.2825  6.4805
   10MOL0     H 1327   6.352   7.088   5.535 -1.0067 -2.1735 -0.5934
   10MOL0     H 1328   6.211   7.082   5.428  0.3619  0.3177 -0.3378
   10MOL0     H 1329   6.305   7.336   5.376 -1.0074 -3.3744  0.1008
   10MOL0     H 1330   6.278   7.671   5.588  0.1480 -0.4394  0.6353
   10MOL0     H 1331   6.170   7.641   5.460  0.1115  2.4444  0.2963
   10MOL0     H 1332   6.476   7.610   5.428  0.4946 -1.1770 -2.8199
   10MOL0     H 1333   6.363   7.547   5.305 -1.2695  0.6061 -0.9294
   10MOL0     H 1334   6.285   7.793   5.297 -0.4526  0.8096  0.4916
   10MOL0     H 1335   6.437   7.818   5.387  1.8117  1.4299 -2.5879
   10MOL0     H 1336   6.383   7.691   5.108 -0.5001  0.3157 -0.5441
   10MOL0     H 1337   6.480   7.828   5.137 -2.7727  1.1058 -0.7117
   10MOL0     H 1338   6.443   7.613   4.929  1.1466  1.4219 -2.6575
   10MOL0     H 1339   6.375   7.471   4.755 -1.4900 -1.2371 -2.8033
   10MOL0     H 1340   6.480   7.361   4.677  3.2936  0.1660 -1.5684
   10MOL0     H 1341   6.504   7.540   4.662 -1.6347  1.2589  1.2460
   10MOL0     H 1342   6.610   6.984   4.641 -2.8746  5.2143  0.1583
   10MOL0     H 1343   6.737   6.818   4.490  1.0984  0.2168  1.8108
   10MOL0     H 1344   6.976   6.773   4.427  1.0162 -0.1595  0.4211
   10MOL0     H 1345   6.876   6.686   4.300  0.0883  1.0708 -4.0683
   10MOL0     H 1346   7.116   6.818   4.188 -1.3834  0.3112 -0.1032
   10MOL0     H 1347   7.155   6.728   4.328  2.9552  1.1100 -1.7412
   10MOL0     H 1348   7.163   6.631   4.102  0.8905 -0.7074  1.8888
   10MOL0     H 1349   6.978   6.628   4.089 -1.7228 -1.8626  1.1327
   10MOL0     H 1350   6.989   6.462   4.279  0.2699  1.4112  0.3668
   10MOL0     H 1351   7.169   6.486   4.282  0.9473  1.4701 -1.3187
   10MOL0     H 1352   7.141   6.425   4.037 -3.4509  0.8042 -1.5692
   10MOL0     H 1353   7.168   6.296   4.151  0.3918 -0.0865 -0.2169
   10MOL0     H 1354   6.917   6.422   4.036  0.2112  0.6013  1.8352
   10MOL0     H 1355   6.900   6.307   4.164 -3.4902 -2.2859 -2.5189
   10MOL0     H 1356   7.059   6.157   4.007 -0.5351  1.5312  3.3640
   10MOL0     H 1357   6.991   6.253   3.875  0.5366 -1.3812 -0.1619
   10MOL0     H 1358   6.861   6.036   3.914 -0.1908  0.0437 -0.7975
   10MOL0     H 1359   6.752   6.183   3.937 -0.9024 -0.9159  1.4661
   10MOL0     H 1360   6.953   7.146   4.315 -2.5761  2.4605 -0.6259
   10MOL0     H 1361   6.864   7.300   4.475  0.0042  0.6804 -2.5334
   10MOL0     H 1362   6.832   7.332   5.031 -0.2972 -0.6421  0.3924
   10MOL0     H 1363   6.770   7.498   5.178 -1.8231 -4.5054  1.2670
   10MOL0     H 1364   5.513   6.685   5.533  0.2042 -0.8102  2.6120
   10MOL0     H 1365   5.334   6.570   5.637  1.5799  3.0264 -0.6371
   10MOL0     H 1366   5.093   6.369   5.783 -1.9516  2.2308  0.6744
   10MOL0     H 1367   4.943   6.274   5.929  2.5558  0.9932 -0.0859
   10MOL0     H 1368   4.748   6.095   6.035  1.4175  0.4302 -1.4385
   10MOL0     H 1369   4.753   6.275   6.040  3.3770 -1.1571 -2.6118
   10MOL0     H 1370   4.487   6.142   6.000 -0.4498  2.1011 -0.9830
   10MOL0     H 1371   4.505   6.301   6.062 -1.8969 -0.7458 -2.5168
   10MOL0     H 1372   4.553   6.054   6.239 -3.0725 -0.8771 -1.1790
   10MOL0     H 1373   4.641   6.218   6.247  0.3832  1.0845 -2.8521
   10MOL0     H 1374   4.339   6.220   6.232  1.5827 -1.2829 -2.0917
   10MOL0     H 1375   4.453   6.307   6.333 -3.1535  0.7774  0.7995
   10MOL0     H 1376   4.341   5.999   6.590  1.0248  0.7385 -0.6160
   10MOL0     H 1377   4.675   6.162   5.606  3.0176 -2.0821 -1.0362
   10MOL0     H 1378   4.887   6.234   5.353 -0.9964  0.7706 -3.0372
   10MOL0     H 1379   4.712   6.201   5.389 -1.1128  0.6107  2.7893
   10MOL0     H 1380   4.764   6.362   5.381  0.5807 -1.0344 -1.4265
   11MOL0     O 1381   9.345   0.580   0.649  0.0150 -0.0440 -0.3617
   11MOL0     C 1382   9.342   0.501   0.736  0.3811 -0.3262 -0.3846
   11MOL0     O 1383   9.300   0.366   0.720 -0.7600 -0.3590 -0.3204
   11MOL0     C 1384   9.271   0.335   0.598  0.4471 -0.3914  0.4758
   11MOL0     C 1385   9.365   0.283   0.516  0.4478 -0.0574  0.2644
   11MOL0     C 1386   9.351   0.250   0.379  0.8350 -0.0439  0.3028
   11MOL0     C 1387   9.224   0.288   0.319  0.2910  0.5895  0.3794
   11MOL0     O 1388   9.175   0.251   0.201 -0.2212  0.5932  0.2824
   11MOL0     C 1389   9.273   0.244   0.093 -0.0463 -0.8551 -0.4751
   11MOL0     C 1390   9.206   0.224  -0.051  0.1980 -0.2668 -0.0212
   11MOL0     C 1391   9.316   0.193  -0.155 -0.7916 -0.5405  0.5676
   11MOL0     C 1392   9.260   0.212  -0.293 -0.4645 -0.1927 -0.0435
   11MOL0     C 1393   9.367   0.198  -0.405 -0.3984  0.0392 -1.0060
   11MOL0     C 1394   9.415   0.059  -0.450 -0.1135  0.0258  0.0202
   11MOL0     C 1395   9.496  -0.021  -0.357  1.1842  0.4536  0.0792
   11MOL0     C 1396   9.611   0.048  -0.286 -0.2129 -0.4193 -0.1797
   11MOL0     N 1397   9.660  -0.048  -0.186 -0.4220 -0.0640 -0.0084
   11MOL0     C 1398   9.629  -0.039  -0.048  0.2027  0.8263  0.5230
   11MOL0     C 1399   9.702  -0.138   0.003 -0.8691  0.1221  0.1934
   11MOL0     C 1400   9.711  -0.170   0.156  0.7897 -0.5728  0.6471
   11MOL0     C 1401   9.823  -0.077   0.202 -0.5546 -0.7469 -0.2292
   11MOL0     C 1402   9.871  -0.114   0.337  0.0752 -0.6354  0.5636
   11MOL0     C 1403   9.766  -0.106   0.448  0.5374 -0.9765 -0.0550
   11MOL0     O 1404   9.820  -0.175   0.560  0.2566 -0.0839 -0.5992
   11MOL0     C 1405   9.867  -0.094   0.654 -0.0291 -0.3597 -0.6813
   11MOL0     C 1406   9.777  -0.042   0.743  0.4047  0.2835 -0.2956
   11MOL0     C 1407   9.815   0.043   0.851 -0.1572 -0.8413 -0.1180
   11MOL0     C 1408   9.705   0.079   0.946 -0.5313 -0.0248  0.1258
   11MOL0     C 1409   9.954   0.062   0.876  0.0842 -0.4717  0.1017
   11MOL0     C 1410  10.002   0.143   0.983 -0.2937 -0.2480 -0.4672
   11MOL0     O 1411  10.137   0.130   1.012 -0.1237  0.8299 -0.5439
   11MOL0     C 1412  10.201   0.182   1.120 -0.0384 -0.6821 -0.3355
   11MOL0     C 1413  10.139   0.200   1.249 -0.4331 -0.2691  0.4094
   11MOL0     C 1414  10.212   0.264   1.346  0.8474  0.7736 -0.6713
   11MOL0     C 1415  10.342   0.308   1.325 -0.6128 -0.0777 -0.4495
   11MOL0     O 1416  10.407   0.359   1.430 -0.4208 -0.1187  0.0788
   11MOL0     C 1417  10.538   0.421   1.410 -0.1763  0.5208  0.0436
   11MOL0     C 1418  10.549   0.534   1.516  0.6844  0.4998 -0.1661
   11MOL0     C 1419  10.419   0.589   1.577 -0.1491  0.3171 -0.0007
   11MOL0     C 1420  10.463   0.718   1.653 -0.1105  0.0745  0.8733
   11MOL0     C 1421  10.359   0.786   1.736 -0.1917  0.4740 -0.3902
   11MOL0     C 1422  10.250   0.869   1.662  0.1759  0.7173 -0.1414
   11MOL0     C 1423  10.121   0.899   1.738  1.0947  0.4151 -0.5479
   11MOL0     C 1424   9.996   0.923   1.654  0.2835  0.2493  0.7304
   11MOL0    Cl 1425   9.948   0.773   1.574  0.0047 -0.6655  0.4033
   11MOL0     C 1426  10.402   0.272   1.205 -0.3801 -0.0342 -0.3749
   11MOL0     C 1427  10.326   0.227   1.102 -0.1312  0.1861 -0.4024
   11MOL0     O 1428   9.936   0.240   1.023 -0.6755  0.3854  0.1559
   11MOL0     C 1429  10.045   0.005   0.782  0.3469 -0.3054 -0.0451
   11MOL0     C 1430  10.002  -0.072   0.673  0.1228  0.3165 -0.2033
   11MOL0     N 1431   9.776  -0.205  -0.097 -0.3608  0.0309 -1.0084
   11MOL0     N 1432   9.754  -0.149  -0.206  0.2081 -0.0708  0.4623
   11MOL0     C 1433   9.120   0.338   0.406 -0.0513 -1.4622 -0.1602
   11MOL0     C 1434   9.147   0.373   0.533 -0.6042  0.0356  0.4513
   11MOL0     C 1435   9.396   0.525   0.874 -0.6543  0.8556  0.2334
   11MOL0     C 1436   9.460   0.416   0.937  0.4896  0.4164 -0.3538
   11MOL0     C 1437   9.503   0.442   1.072 -0.3011 -0.1456 -0.3392
   11MOL0     C 1438   9.483   0.566   1.142  0.0576 -0.2038  0.5897
   11MOL0     O 1439   9.517   0.582   1.273  0.1074  0.0000  0.7630
   11MOL0     C 1440   9.649   0.530   1.312  0.0111 -0.1057  0.5016
   11MOL0     C 1441   9.621   0.421   1.405 -0.0536 -0.4631  0.0104
   11MOL0     C 1442   9.759   0.396   1.476 -0.2849  0.0748  0.4907
   11MOL0     C 1443   9.749   0.262   1.535 -0.0596  0.8233  0.0248
   11MOL0     C 1444   9.665   0.248   1.653 -0.4249  0.7102 -0.3730
   11MOL0     C 1445   9.605   0.260   1.759  0.0863 -1.1209 -0.4000
   11MOL0     C 1446   9.441   0.675   1.066  0.3980  1.1860 -1.0963
   11MOL0     C 1447   9.393   0.654   0.933 -0.5479 -0.1493 -0.6629
   11MOL0     C 1448   9.327   0.775   0.867  0.2060 -0.5069  0.9225
   11MOL0     H 1449   9.458   0.266   0.570  0.8608 -1.9976 -0.9452
   11MOL0     H 1450   9.435   0.212   0.323  0.7116 -0.3495  0.3182
   11MOL0     H 1451   9.350   0.166   0.099  0.7189 -0.0739  0.2295
   11MOL0     H 1452   9.328   0.338   0.091  2.4854 -2.2647 -1.8529
   11MOL0     H 1453   9.132   0.143  -0.051  0.0802 -0.1641 -0.8006
   11MOL0     H 1454   9.149   0.312  -0.081  1.2458  1.1327  1.8957
   11MOL0     H 1455   9.394   0.266  -0.131 -1.7173  0.3691  0.8711
   11MOL0     H 1456   9.339   0.089  -0.130  1.9846  0.1352  1.1921
   11MOL0     H 1457   9.206   0.116  -0.296  0.5620 -0.7907 -2.6198
   11MOL0     H 1458   9.207   0.306  -0.309  1.6112  0.7752 -1.7138
   11MOL0     H 1459   9.456   0.257  -0.379 -1.5082  0.7859  1.4083
   11MOL0     H 1460   9.329   0.230  -0.503 -4.5655 -3.1426 -0.7043
   11MOL0     H 1461   9.325   0.005  -0.483 -1.3728  1.1124  1.5403
   11MOL0     H 1462   9.478   0.066  -0.539  0.3566 -2.3421  0.0848
   11MOL0     H 1463   9.536  -0.104  -0.417  1.9717  1.1578 -0.3848
   11MOL0     H 1464   9.433  -0.073  -0.285 -0.4203  0.3969 -1.2965
   11MOL0     H 1465   9.686   0.071  -0.362 -1.9753 -2.4835 -2.7499
   11MOL0     H 1466   9.594   0.136  -0.223  0.6113 -2.2346  2.7129
   11MOL0     H 1467   9.573   0.030   0.014 -1.2762  0.4390 -0.3357
   11MOL0     H 1468   9.729  -0.273   0.187 -2.1170 -1.2080  0.4778
   11MOL0     H 1469   9.623  -0.141   0.214  0.4975  0.2495 -0.1771
   11MOL0     H 1470   9.902  -0.089   0.127  1.6176 -0.0917  1.8277
   11MOL0     H 1471   9.799   0.029   0.218  0.4964 -0.7920  2.1434
   11MOL0     H 1472   9.906  -0.217   0.322  0.8604 -0.5631  1.7819
   11MOL0     H 1473   9.962  -0.067   0.374 -1.9852  1.3954  3.4438
   11MOL0     H 1474   9.755  -0.001   0.478  0.2422 -0.1658 -2.7331
   11MOL0     H 1475   9.663  -0.142   0.442  0.6236 -1.0556 -1.3710
   11MOL0     H 1476   9.672  -0.068   0.737  0.1924  0.5574  1.5351
   11MOL0     H 1477   9.612   0.097   0.891 -1.5226 -0.3146  1.6279
   11MOL0     H 1478   9.718   0.180   0.986 -0.3485  1.1767 -2.7715
   11MOL0     H 1479   9.693   0.001   1.022  1.0392 -0.7643 -0.3527
   11MOL0     H 1480  10.035   0.178   1.270 -1.5286  3.8153  0.0900
   11MOL0     H 1481  10.157   0.289   1.436 -0.1727 -3.6282  0.1512
   11MOL0     H 1482  10.616   0.346   1.424  0.2523  0.9615  0.0522
   11MOL0     H 1483  10.546   0.454   1.307 -1.9792 -5.8387 -2.6286
   11MOL0     H 1484  10.592   0.487   1.605 -1.3183 -1.1323  0.0099
   11MOL0     H 1485  10.619   0.613   1.487 -0.6179  1.1351 -1.7231
   11MOL0     H 1486  10.377   0.526   1.657  4.1146 -0.5256  1.8469
   11MOL0     H 1487  10.343   0.609   1.500  0.1739 -3.2495 -1.4159
   11MOL0     H 1488  10.507   0.791   1.584  0.4238  0.2328  1.3756
   11MOL0     H 1489  10.548   0.692   1.716 -0.3827 -1.7918  0.5466
   11MOL0     H 1490  10.301   0.706   1.784  2.9780 -0.7423  1.7538
   11MOL0     H 1491  10.410   0.842   1.815 -1.0781  0.0699  0.4995
   11MOL0     H 1492  10.210   0.810   1.580  0.3142  1.2440 -0.5959
   11MOL0     H 1493  10.293   0.960   1.619  2.6149 -1.1546 -1.8865
   11MOL0     H 1494  10.133   0.986   1.804 -0.8900 -1.0079  1.9064
   11MOL0     H 1495  10.115   0.801   1.786 -0.4456  0.1867 -1.1380
   11MOL0     H 1496  10.016   1.006   1.586 -2.1866  1.1452  0.9723
   11MOL0     H 1497   9.909   0.958   1.710 -2.9741 -0.3242 -3.4754
   11MOL0     H 1498  10.510   0.263   1.202 -0.3695 -1.2190  1.4587
   11MOL0     H 1499  10.378   0.201   1.010 -2.2136 -1.3445 -1.2498
   11MOL0     H 1500  10.152   0.024   0.791  0.8679 -1.2892 -3.1274
   11MOL0     H 1501  10.080  -0.108   0.607 -1.2436 -0.7424 -1.3146
   11MOL0     H 1502   9.021   0.358   0.367  0.0162 -1.2876 -0.2469
   11MOL0     H 1503   9.065   0.403   0.598 -0.7421  1.4785 -0.3384
   11MOL0     H 1504   9.484   0.319   0.894  0.8444 -0.6547  2.0958
   11MOL0     H 1505   9.545   0.359   1.128 -4.1286  0.1122  3.3484
   11MOL0     H 1506   9.704   0.491   1.226  2.1972 -0.9312  2.1666
   11MOL0     H 1507   9.711   0.608   1.356 -0.4192  0.2063  0.5565
   11MOL0     H 1508   9.586   0.330   1.356 -2.9477  0.8433 -0.5747
   11MOL0     H 1509   9.537   0.432   1.474  1.1470 -0.4223  1.5294
   11MOL0     H 1510   9.841   0.404   1.404  2.3478  0.1084  3.3031
   11MOL0     H 1511   9.777   0.473   1.551  3.4319 -0.1992  0.0656
   11MOL0     H 1512   9.854   0.235   1.551 -0.3929  0.4864  1.8564
   11MOL0     H 1513   9.724   0.191   1.455  0.5792  2.0167 -1.2803
   11MOL0     H 1514   9.543   0.275   1.845  1.1734 -2.5832  0.6894
   11MOL0     H 1515   9.444   0.771   1.117 -1.0129  1.6836 -1.8935
   11MOL0     H 1516   9.391   0.802   0.782 -1.2417 -2.5581 -0.9266
   11MOL0     H 1517   9.227   0.757   0.828  0.8333 -1.0878 -0.4903
   11MOL0     H 1518   9.324   0.858   0.939  0.9316 -0.1264  0.5350
   12MOL0     O 1519   5.065   9.400   8.424  0.3315  0.3245 -0.3970
   12MOL0     C 1520   4.987   9.408   8.517  0.7108  0.0626 -1.5357
   12MOL0     O 1521   4.850   9.412   8.522  0.4005  0.5022  0.7329
   12MOL0     C 1522   4.776   9.397   8.407  0.3027  0.1823  0.6872
   12MOL0     C 1523   4.665   9.476   8.406  0.1481 -0.1401  0.3996
   12MOL0     C 1524   4.584   9.480   8.289 -0.2268  0.0498  0.2083
   12MOL0     C 1525   4.619   9.406   8.176  0.3230 -0.2729  0.9820
   12MOL0     O 1526   4.555   9.394   8.056  0.3896 -0.7236 -0.8436
   12MOL0     C 1527   4.425   9.460   8.043  0.3457 -1.0229  0.5618
   12MOL0     C 1528   4.348   9.397   7.927  0.1616 -0.2325  0.9397
   12MOL0     C 1529   4.309   9.259   7.970 -0.2467 -0.2690 -0.2274
   12MOL0     C 1530   4.219   9.183   7.869 -0.5270 -1.0044 -0.7729
   12MOL0     C 1531   4.300   9.109   7.762  0.2786  0.7850  0.0677
   12MOL0     C 1532   4.306   8.963   7.798  1.2014 -0.5688 -0.2406
   12MOL0     C 1533   4.340   8.873   7.680 -0.0766  1.1965  0.7143
   12MOL0     C 1534   4.362   8.726   7.725 -0.4152  0.2325 -0.0147
   12MOL0     N 1535   4.402   8.648   7.611 -0.0723 -0.0651 -0.5098
   12MOL0     C 1536   4.520   8.643   7.552  0.5326 -0.4687  0.0620
   12MOL0     C 1537   4.495   8.548   7.455  0.0490 -0.1238 -0.3419
   12MOL0     C 1538   4.598   8.491   7.357  0.0430  0.0338  0.9716
   12MOL0     C 1539   4.715   8.587   7.302 -0.1054  0.5143 -1.0854
   12MOL0     C 1540   4.675   8.667   7.170  0.1265  1.6822  0.4121
   12MOL0     C 1541   4.540   8.735   7.190  1.1740  0.3619 -0.6440
   12MOL0     O 1542   4.486   8.799   7.077 -0.9060 -0.4584  0.9881
   12MOL0     C 1543   4.538   8.924   7.028  0.4699  0.7628 -0.2591
   12MOL0     C 1544   4.603   9.019   7.112  0.5146  0.6431 -0.7650
   12MOL0     C 1545   4.651   9.141   7.070  0.0412  0.1499  0.7694
   12MOL0     C 1546   4.712   9.224   7.178 -0.0717 -1.0194 -0.1850
   12MOL0     C 1547   4.644   9.173   6.934 -0.1728  0.9393 -0.1454
   12MOL0     C 1548   4.715   9.297   6.868  0.3600  0.4689 -0.6099
   12MOL0     O 1549   4.712   9.311   6.724  0.4377  0.4022 -0.0955
   12MOL0     C 1550   4.779   9.407   6.644  0.7065  0.1721  0.2377
   12MOL0     C 1551   4.744   9.415   6.508  0.6000  0.1332 -0.4679
   12MOL0     C 1552   4.809   9.497   6.419  0.6056  0.2769 -0.0581
   12MOL0     C 1553   4.920   9.570   6.463  0.3905  0.1034 -0.5708
   12MOL0     O 1554   4.970   9.646   6.372  0.4898 -0.4896  1.1087
   12MOL0     C 1555   5.076   9.743   6.412  0.1865  0.8821  0.0040
   12MOL0     C 1556   5.137   9.800   6.284 -0.5639  0.4605  0.3647
   12MOL0     C 1557   5.053   9.923   6.252 -0.3450  0.0216 -0.0183
   12MOL0     C 1558   5.118   9.988   6.123  0.2607 -0.0386  1.2079
   12MOL0     C 1559   5.023   9.979   5.988 -0.0330 -0.0389 -0.3454
   12MOL0     C 1560   5.033   9.840   5.906  0.0770 -0.4471 -0.1597
   12MOL0     C 1561   5.163   9.820   5.825 -0.4002 -0.5448  0.4222
   12MOL0     C 1562   5.138   9.709   5.718  0.4539 -0.1310 -0.1230
   12MOL0    Cl 1563   5.129   9.566   5.816  0.0663 -0.3629 -0.3673
   12MOL0     C 1564   4.970   9.549   6.601  0.2519  0.2047  0.7941
   12MOL0     C 1565   4.892   9.470   6.682 -0.1209  0.0535  0.0432
   12MOL0     O 1566   4.764   9.382   6.946  1.1079 -0.1745 -0.1566
   12MOL0     C 1567   4.582   9.077   6.842 -0.6624  0.4737  1.1216
   12MOL0     C 1568   4.530   8.956   6.891 -0.0758 -0.4385 -1.2162
   12MOL0     N 1569   4.370   8.492   7.473 -0.3417  0.0330  0.1617
   12MOL0     N 1570   4.311   8.555   7.569  0.1433 -0.4201 -0.5078
   12MOL0     C 1571   4.729   9.331   8.183 -1.6933 -0.8462  0.1818
   12MOL0     C 1572   4.814   9.325   8.292  0.3150 -0.5046 -1.0584
   12MOL0     C 1573   5.039   9.400   8.652 -0.5359  0.2737 -0.3464
   12MOL0     C 1574   4.977   9.487   8.747 -0.1598 -0.0486 -0.1061
   12MOL0     C 1575   4.995   9.464   8.889  0.0250 -0.9719  0.1247
   12MOL0     C 1576   5.084   9.369   8.938  0.1307 -0.5848  0.6198
   12MOL0     O 1577   5.090   9.356   9.073 -0.0219  0.1859  0.9315
   12MOL0     C 1578   5.144   9.232   9.120 -0.1095 -0.6296 -0.6441
   12MOL0     C 1579   5.113   9.218   9.273 -0.2452 -0.1324  0.1238
   12MOL0     C 1580   5.049   9.086   9.304  0.6996  0.1180  0.3589
   12MOL0     C 1581   4.955   9.102   9.428 -0.5831  0.5598  0.4912
   12MOL0     C 1582   4.870   8.986   9.449 -0.0546  0.2294 -0.9640
   12MOL0     C 1583   4.807   8.892   9.498 -0.0799  0.4888  1.0934
   12MOL0     C 1584   5.159   9.294   8.844  1.1360 -0.2700  0.1976
   12MOL0     C 1585   5.132   9.307   8.707  1.4585  0.5636  0.4630
   12MOL0     C 1586   5.211   9.213   8.620 -0.3245 -0.4324  0.5626
   12MOL0     H 1587   4.634   9.528   8.496 -1.4359 -1.6896  0.8036
   12MOL0     H 1588   4.486   9.527   8.293  0.2328  1.1566 -1.0655
   12MOL0     H 1589   4.453   9.563   8.020  1.5141 -2.0143 -3.2344
   12MOL0     H 1590   4.356   9.456   8.128 -1.2962 -1.1161 -0.7444
   12MOL0     H 1591   4.258   9.456   7.912  1.0740  0.5427 -2.2546
   12MOL0     H 1592   4.406   9.405   7.835  0.7389  1.1821  1.3967
   12MOL0     H 1593   4.397   9.195   7.979  0.7207  1.0792  0.1279
   12MOL0     H 1594   4.257   9.265   8.066 -0.0844 -2.4710  0.0331
   12MOL0     H 1595   4.157   9.112   7.925  1.1364 -3.9857 -2.4805
   12MOL0     H 1596   4.155   9.259   7.823  2.4286  1.8827 -0.5397
   12MOL0     H 1597   4.400   9.154   7.760  0.7173 -0.1338  0.6365
   12MOL0     H 1598   4.255   9.121   7.663  1.9807  1.5700 -0.6541
   12MOL0     H 1599   4.376   8.945   7.880 -2.9119  1.9987  4.3849
   12MOL0     H 1600   4.207   8.930   7.831  1.4550 -1.0203  0.0663
   12MOL0     H 1601   4.429   8.908   7.628 -0.6638  1.0527 -0.4098
   12MOL0     H 1602   4.260   8.884   7.606  1.8266  0.1041 -1.6243
   12MOL0     H 1603   4.440   8.710   7.801  1.1872 -0.2018 -1.6738
   12MOL0     H 1604   4.271   8.689   7.772 -1.4199  3.0255  0.4070
   12MOL0     H 1605   4.620   8.676   7.579  0.2466 -0.6432  1.3922
   12MOL0     H 1606   4.542   8.449   7.274  3.4273  0.2977 -1.6628
   12MOL0     H 1607   4.643   8.404   7.405 -0.5600 -1.4100 -0.9880
   12MOL0     H 1608   4.735   8.669   7.372 -0.4706 -0.5523  0.3040
   12MOL0     H 1609   4.812   8.539   7.288 -1.0912 -1.7650 -0.4829
   12MOL0     H 1610   4.757   8.737   7.154  0.4658  1.3070  0.4802
   12MOL0     H 1611   4.674   8.609   7.077  0.1295  2.3440 -0.0051
   12MOL0     H 1612   4.463   8.660   7.210  1.5546 -0.5888 -2.5996
   12MOL0     H 1613   4.548   8.807   7.273 -0.3862  1.6591 -1.5517
   12MOL0     H 1614   4.608   8.987   7.215  1.6289 -1.6852 -1.4707
   12MOL0     H 1615   4.652   9.315   7.178 -0.3110 -1.1035 -2.4885
   12MOL0     H 1616   4.817   9.250   7.161 -0.5686  0.0046 -2.1139
   12MOL0     H 1617   4.693   9.182   7.277 -0.1738 -1.2908 -0.3192
   12MOL0     H 1618   4.664   9.353   6.471  1.5029 -2.3595  1.4678
   12MOL0     H 1619   4.761   9.501   6.322  0.1992  0.4008  0.1475
   12MOL0     H 1620   5.045   9.820   6.483  0.4892 -1.5860  3.0178
   12MOL0     H 1621   5.160   9.693   6.461  1.9504 -0.0152 -3.5344
   12MOL0     H 1622   5.240   9.831   6.301 -0.1249  0.5623 -2.0532
   12MOL0     H 1623   5.125   9.734   6.197  0.7011 -0.2001  0.6658
   12MOL0     H 1624   5.065   9.988   6.339 -1.1546 -1.6266  1.4024
   12MOL0     H 1625   4.947   9.905   6.233 -0.3153  1.9035 -2.4241
   12MOL0     H 1626   5.216   9.945   6.101  0.0249 -0.9003  1.8202
   12MOL0     H 1627   5.134  10.096   6.127 -0.7747  0.1203  1.2197
   12MOL0     H 1628   4.919   9.995   6.018  0.1605  0.9766 -0.1620
   12MOL0     H 1629   5.035  10.063   5.919  1.4176  0.0411 -0.0253
   12MOL0     H 1630   4.940   9.832   5.848 -1.1188 -1.1181  1.7304
   12MOL0     H 1631   5.016   9.761   5.980 -2.5260 -0.2355 -0.4133
   12MOL0     H 1632   5.251   9.789   5.882 -1.1206 -1.8537  0.8573
   12MOL0     H 1633   5.201   9.903   5.763 -0.2999  0.8649  2.2739
   12MOL0     H 1634   5.216   9.691   5.643 -0.2051 -1.4264 -0.5284
   12MOL0     H 1635   5.047   9.729   5.660 -0.0440  0.1436  0.7411
   12MOL0     H 1636   5.050   9.611   6.640 -0.1640  0.3140  1.4847
   12MOL0     H 1637   4.923   9.471   6.786  1.0798 -0.5152 -0.2869
   12MOL0     H 1638   4.579   9.105   6.737  0.3528  1.4205  1.3236
   12MOL0     H 1639   4.488   8.877   6.830 -1.6064  0.6872 -1.6709
   12MOL0     H 1640   4.743   9.276   8.090 -1.4203  1.0657 -0.9426
   12MOL0     H 1641   4.905   9.267   8.280 -0.0244 -1.3403  0.1819
   12MOL0     H 1642   4.901   9.560   8.724  0.4126  1.1392  1.6292
   12MOL0     H 1643   4.949   9.537   8.955  0.2843 -0.4739 -0.2361
   12MOL0     H 1644   5.089   9.155   9.065 -0.2007 -2.5102  1.8567
   12MOL0     H 1645   5.251   9.232   9.095  0.3247  0.4698  1.0707
   12MOL0     H 1646   5.055   9.300   9.316  0.9021  0.7944 -0.0346
   12MOL0     H 1647   5.214   9.213   9.316  1.0234 -0.0061 -2.6049
   12MOL0     H 1648   4.988   9.051   9.219  3.3148 -0.0951 -1.5501
   12MOL0     H 1649   5.123   9.008   9.323  1.9417  0.4296 -2.6278
   12MOL0     H 1650   4.887   9.180   9.392  2.3476  2.7128 -0.7236
   12MOL0     H 1651   5.002   9.125   9.524 -0.0310  0.0559  0.3424
   12MOL0     H 1652   4.773   8.802   9.545 -1.2990  0.8368  0.9260
   12MOL0     H 1653   5.246   9.235   8.872  1.6164 -0.2326 -1.1354
   12MOL0     H 1654   5.140   9.132   8.602 -0.6287  0.0571 -0.5975
   12MOL0     H 1655   5.244   9.262   8.527 -4.1744  1.9334  0.1722
   12MOL0     H 1656   5.294   9.172   8.677 -0.1524 -1.1824 -0.2021
   13MOL0     O 1657   0.048   2.444   6.063  0.0463  0.5791  0.6605
   13MOL0     C 1658   0.127   2.347   6.062  0.1560  0.6381 -0.6998
   13MOL0     O 1659   0.220   2.317   6.161 -0.1357 -0.3778 -0.0235
   13MOL0     C 1660   0.253   2.421   6.241  0.2684  1.0635 -0.5434
   13MOL0     C 1661   0.215   2.425   6.375  0.0343  0.1956  0.1490
   13MOL0     C 1662   0.271   2.514   6.469  0.1955  0.4247 -0.1964
   13MOL0     C 1663   0.369   2.601   6.424  0.6414 -0.6838  0.5180
   13MOL0     O 1664   0.426   2.691   6.502  0.1209  0.5611 -0.1273
   13MOL0     C 1665   0.506   2.622   6.602 -0.2632 -0.5060 -0.5942
   13MOL0     C 1666   0.549   2.734   6.702 -0.0363 -0.0671  0.2100
   13MOL0     C 1667   0.639   2.686   6.810 -0.0657 -0.0933  0.4517
   13MOL0     C 1668   0.610   2.549   6.862  0.1661 -0.2292  0.0581
   13MOL0     C 1669   0.696   2.517   6.992  0.3941  0.3743 -1.2586
   13MOL0     C 1670   0.828   2.455   6.942 -0.0629  1.0881  0.4373
   13MOL0     C 1671   0.936   2.429   7.051  0.5474 -1.2040  0.0252
   13MOL0     C 1672   0.882   2.348   7.171 -0.5144 -0.0868 -1.7755
   13MOL0     N 1673   0.848   2.214   7.127 -0.0543 -0.5684 -0.2082
   13MOL0     C 1674   0.944   2.137   7.064  0.0844 -0.3920 -0.3345
   13MOL0     C 1675   0.883   2.019   7.045 -0.1759 -0.6759 -0.0459
   13MOL0     C 1676   0.950   1.909   6.978  0.1481  0.0490 -0.0134
   13MOL0     C 1677   1.019   1.817   7.083  0.5592 -0.8487  0.1334
   13MOL0     C 1678   1.136   1.739   7.032 -1.3133  0.4693 -0.4827
   13MOL0     C 1679   1.199   1.642   7.129  0.1433 -0.0535 -0.2497
   13MOL0     O 1680   1.304   1.565   7.057 -0.2914 -0.1574  1.1048
   13MOL0     C 1681   1.341   1.437   7.094  0.5941 -0.0795 -0.0464
   13MOL0     C 1682   1.392   1.348   7.000 -0.4759  0.0693 -0.4347
   13MOL0     C 1683   1.417   1.216   7.037 -0.2269 -0.4565 -0.1905
   13MOL0     C 1684   1.474   1.122   6.934  0.1047  0.0030  0.4901
   13MOL0     C 1685   1.410   1.177   7.175 -0.1289  0.7230 -0.0034
   13MOL0     C 1686   1.450   1.051   7.232 -0.4729 -0.4021 -0.3090
   13MOL0     O 1687   1.388   0.940   7.192  0.8968  0.5745  0.6648
   13MOL0     C 1688   1.390   0.828   7.273  0.6119  0.8837  0.1867
   13MOL0     C 1689   1.442   0.714   7.223  0.5947 -0.9461  0.7174
   13MOL0     C 1690   1.432   0.593   7.295  0.8208  0.2285  0.3321
   13MOL0     C 1691   1.382   0.590   7.425  1.1719 -0.9052  0.3765
   13MOL0     O 1692   1.373   0.463   7.469 -0.7221  0.4484 -0.3011
   13MOL0     C 1693   1.258   0.432   7.550  0.3856  0.2093  0.1697
   13MOL0     C 1694   1.235   0.284   7.535 -0.8171 -0.3956  0.2459
   13MOL0     C 1695   1.149   0.227   7.648 -0.4918  0.4384  0.5170
   13MOL0     C 1696   1.219   0.245   7.788  0.4637 -0.3657 -0.1648
   13MOL0     C 1697   1.134   0.185   7.893 -0.4634  0.4659 -0.0377
   13MOL0     C 1698   1.155   0.035   7.924  0.9174 -0.5002 -0.7566
   13MOL0     C 1699   1.089  -0.003   8.055 -0.0236  0.2204  0.5562
   13MOL0     C 1700   1.140  -0.140   8.106  0.3501  0.3561 -0.5788
   13MOL0    Cl 1701   1.320  -0.151   8.130 -0.7013  0.1957 -0.1062
   13MOL0     C 1702   1.330   0.712   7.480 -0.1990 -0.1423 -0.8363
   13MOL0     C 1703   1.333   0.829   7.398 -0.0236 -1.1237 -0.4573
   13MOL0     O 1704   1.523   1.058   7.330 -0.7624 -0.0541  0.6976
   13MOL0     C 1705   1.353   1.267   7.270  1.6104 -0.4037 -0.5194
   13MOL0     C 1706   1.321   1.394   7.223  0.7163  0.0033  0.0386
   13MOL0     N 1707   0.748   2.029   7.086 -0.3748  0.0841  1.0698
   13MOL0     N 1708   0.735   2.148   7.130  0.4563 -0.1857  0.3547
   13MOL0     C 1709   0.414   2.589   6.289  0.0694 -0.7032 -0.1574
   13MOL0     C 1710   0.354   2.503   6.198  0.0225 -1.0012 -0.6462
   13MOL0     C 1711   0.109   2.235   5.956  0.3084 -0.1956  0.2643
   13MOL0     C 1712   0.194   2.120   5.956 -0.2743 -1.3366  0.0567
   13MOL0     C 1713   0.188   2.026   5.854 -0.5906  0.5372 -0.4220
   13MOL0     C 1714   0.101   2.049   5.752 -0.0703  1.0836  0.3924
   13MOL0     O 1715   0.115   1.964   5.640 -0.0189  0.0658  0.4554
   13MOL0     C 1716   0.013   1.863   5.629  0.4906  0.2255  0.3333
   13MOL0     C 1717  -0.084   1.911   5.524  0.7358  0.0167  0.8140
   13MOL0     C 1718  -0.174   1.792   5.468  0.3224  0.3720  0.6051
   13MOL0     C 1719  -0.246   1.827   5.342 -0.3337  0.1031  0.0275
   13MOL0     C 1720  -0.311   1.702   5.284  0.2769 -0.5290  0.1625
   13MOL0     C 1721  -0.383   1.608   5.253  0.7356  0.5092 -0.4653
   13MOL0     C 1722   0.008   2.153   5.747 -1.2558 -0.0203 -0.8647
   13MOL0     C 1723   0.016   2.256   5.849 -0.1739  0.9121 -0.5444
   13MOL0     C 1724  -0.087   2.372   5.821  0.6374 -0.1339 -0.3322
   13MOL0     H 1725   0.134   2.366   6.416 -1.0693  0.5046 -1.5003
   13MOL0     H 1726   0.223   2.530   6.566 -2.9172  2.1810 -1.8721
   13MOL0     H 1727   0.592   2.579   6.550 -0.4082 -1.0161 -0.4190
   13MOL0     H 1728   0.461   2.548   6.670  2.5350 -2.1100 -0.3519
   13MOL0     H 1729   0.595   2.815   6.644 -0.5789  1.2270  1.5229
   13MOL0     H 1730   0.460   2.784   6.739  1.1522  1.4312  1.1837
   13MOL0     H 1731   0.746   2.690   6.785  0.4572  2.0185  2.6721
   13MOL0     H 1732   0.625   2.762   6.887  0.7614 -0.6902  1.2068
   13MOL0     H 1733   0.509   2.549   6.903  1.1944  2.1553  3.0121
   13MOL0     H 1734   0.616   2.471   6.787 -1.2720 -0.1488 -0.1574
   13MOL0     H 1735   0.645   2.459   7.070  1.4912 -0.0426 -0.8350
   13MOL0     H 1736   0.717   2.616   7.032  1.7018 -0.4402  0.1445
   13MOL0     H 1737   0.807   2.357   6.898 -0.1781  1.5996 -0.6873
   13MOL0     H 1738   0.863   2.525   6.865 -0.3509  0.4400 -0.2960
   13MOL0     H 1739   0.963   2.526   7.093  1.0611 -1.9877  1.5822
   13MOL0     H 1740   1.027   2.383   7.011  0.3130 -1.6231 -0.0361
   13MOL0     H 1741   0.959   2.335   7.248 -4.0509  1.2331  2.3707
   13MOL0     H 1742   0.804   2.393   7.233  0.8151 -3.2152  2.7092
   13MOL0     H 1743   1.035   2.159   7.008 -0.9520 -0.6200 -2.2188
   13MOL0     H 1744   1.024   1.949   6.908 -1.0892  0.9905 -0.8177
   13MOL0     H 1745   0.880   1.851   6.918  0.0510  1.1754 -1.0352
   13MOL0     H 1746   1.055   1.873   7.170 -1.0592 -3.1821  2.4722
   13MOL0     H 1747   0.941   1.748   7.117 -0.4750 -1.1272 -2.5530
   13MOL0     H 1748   1.095   1.677   6.951 -0.4679  0.1423 -0.6741
   13MOL0     H 1749   1.213   1.808   6.996 -0.1993 -0.1392  0.6285
   13MOL0     H 1750   1.253   1.710   7.194  0.1450  1.0223 -1.3396
   13MOL0     H 1751   1.125   1.578   7.179  0.1477 -0.9007 -1.2803
   13MOL0     H 1752   1.401   1.377   6.896  0.6602  1.8190  0.1166
   13MOL0     H 1753   1.583   1.119   6.949 -0.0434  1.6942  2.3831
   13MOL0     H 1754   1.452   1.140   6.829 -1.8366 -3.6138  0.1353
   13MOL0     H 1755   1.420   1.028   6.952 -0.9596  1.0714  3.4488
   13MOL0     H 1756   1.486   0.719   7.124 -1.0283  1.3412  0.0324
   13MOL0     H 1757   1.466   0.501   7.249  3.4217  1.3314 -0.1292
   13MOL0     H 1758   1.265   0.470   7.652 -1.3192 -0.1089  0.4383
   13MOL0     H 1759   1.172   0.489   7.513  0.2847  0.2169  0.4191
   13MOL0     H 1760   1.193   0.279   7.434  2.1330 -1.1684 -1.0222
   13MOL0     H 1761   1.323   0.221   7.526 -0.9156 -0.5283  0.2113
   13MOL0     H 1762   1.145   0.119   7.627 -2.3916  0.6442 -0.4764
   13MOL0     H 1763   1.047   0.266   7.658  0.6672  3.4380  1.3809
   13MOL0     H 1764   1.227   0.351   7.813 -1.7022 -0.2242  0.0949
   13MOL0     H 1765   1.320   0.204   7.783  1.0098  1.1133 -2.8299
   13MOL0     H 1766   1.163   0.236   7.986  2.2352 -0.5491 -0.2503
   13MOL0     H 1767   1.029   0.206   7.868  0.2922  4.3423 -0.5912
   13MOL0     H 1768   1.264   0.024   7.937  0.6187 -2.4263  0.5586
   13MOL0     H 1769   1.127  -0.022   7.835  0.0811  1.1390 -1.5787
   13MOL0     H 1770   0.980   0.001   8.058  0.0260  1.9814  1.7987
   13MOL0     H 1771   1.112   0.075   8.128  0.2870  1.1975 -0.5474
   13MOL0     H 1772   1.107  -0.211   8.029  1.4982  0.5367 -1.2653
   13MOL0     H 1773   1.081  -0.162   8.195  0.2625  1.5145 -0.3326
   13MOL0     H 1774   1.291   0.714   7.582 -2.6916 -0.2435 -1.7038
   13MOL0     H 1775   1.308   0.928   7.434  0.0180 -1.0889 -0.5232
   13MOL0     H 1776   1.328   1.252   7.375 -2.1610 -1.3107 -1.4180
   13MOL0     H 1777   1.280   1.463   7.296 -1.0811 -2.3154  1.3414
   13MOL0     H 1778   0.499   2.641   6.245  0.6156  0.0392  1.6477
   13MOL0     H 1779   0.382   2.512   6.094  1.7848  2.4538 -0.0045
   13MOL0     H 1780   0.263   2.115   6.039 -1.5017 -1.4201  1.1112
   13MOL0     H 1781   0.242   1.932   5.863  0.7977  1.4531  1.4938
   13MOL0     H 1782   0.057   1.771   5.590  0.6050 -0.2881  1.6383
   13MOL0     H 1783  -0.036   1.835   5.722  0.4278  0.0304  0.2430
   13MOL0     H 1784  -0.035   1.962   5.441 -2.0993  0.1534 -0.9378
   13MOL0     H 1785  -0.164   1.974   5.565  1.0378  0.0589  1.3485
   13MOL0     H 1786  -0.098   1.721   5.435  2.6178  3.0460 -0.2928
   13MOL0     H 1787  -0.238   1.749   5.545 -0.0550 -1.6246 -0.7578
   13MOL0     H 1788  -0.175   1.862   5.267  0.1307 -0.4424  0.2081
   13MOL0     H 1789  -0.326   1.900   5.360 -0.3111  0.5317 -1.4521
   13MOL0     H 1790  -0.436   1.518   5.232  3.0832 -1.6659  2.2256
   13MOL0     H 1791  -0.047   2.167   5.655  1.4069  3.2682 -2.1787
   13MOL0     H 1792  -0.036   2.469   5.817  0.7094 -0.1912 -0.8248
   13MOL0     H 1793  -0.112   2.353   5.717  2.7559 -2.6069 -0.4833
   13MOL0     H 1794  -0.173   2.374   5.890  0.1929  0.0876 -0.8882
   14MOL0     O 1795   5.508   5.270   8.032 -0.2540 -0.2846  0.2929
   14MOL0     C 1796   5.620   5.256   8.069  0.6704 -0.0290 -0.9202
   14MOL0     O 1797   5.681   5.327   8.176  0.4611 -0.0717 -0.0909
   14MOL0     C 1798   5.618   5.407   8.259  0.5083 -0.5626  0.0385
   14MOL0     C 1799   5.692   5.520   8.309 -0.6502 -0.2678  0.7637
   14MOL0     C 1800   5.638   5.615   8.395 -0.4196  0.3450 -0.3149
   14MOL0     C 1801   5.503   5.598   8.433  0.8973  0.4242 -0.0226
   14MOL0     O 1802   5.451   5.701   8.510  0.5606  0.3034  0.5706
   14MOL0     C 1803   5.467   5.838   8.470 -1.2354  0.0167 -1.1695
   14MOL0     C 1804   5.413   5.872   8.333  0.4391 -0.0683  0.4709
   14MOL0     C 1805   5.264   5.893   8.332 -0.4247 -0.3069  0.6290
   14MOL0     C 1806   5.174   5.776   8.365 -0.7716 -0.6858  0.0469
   14MOL0     C 1807   5.181   5.661   8.267 -0.2625 -0.4063  0.1109
   14MOL0     C 1808   5.077   5.564   8.311  1.1134 -0.0578  0.2204
   14MOL0     C 1809   5.059   5.444   8.214 -0.4102 -0.1963 -0.1399
   14MOL0     C 1810   5.004   5.318   8.277 -0.1976  0.0246  0.4405
   14MOL0     N 1811   5.020   5.192   8.196 -0.1434  0.4478  0.2544
   14MOL0     C 1812   5.128   5.116   8.185 -0.6089  0.1614  0.0090
   14MOL0     C 1813   5.081   5.016   8.101 -0.8159 -0.9046  0.7497
   14MOL0     C 1814   5.185   4.922   8.040  0.5626  0.4970  0.0371
   14MOL0     C 1815   5.252   4.984   7.929 -0.0178  0.1259  0.2284
   14MOL0     C 1816   5.362   4.896   7.874 -0.0042 -0.3096 -0.0736
   14MOL0     C 1817   5.319   4.802   7.765  0.0692  1.1827 -0.4345
   14MOL0     O 1818   5.225   4.708   7.810  0.3217  0.3480 -0.1633
   14MOL0     C 1819   5.188   4.612   7.715 -0.6083 -0.3509  0.2327
   14MOL0     C 1820   5.135   4.496   7.763 -0.0929  0.3588 -0.3186
   14MOL0     C 1821   5.103   4.389   7.675  0.3066 -0.5753  0.2316
   14MOL0     C 1822   5.012   4.278   7.727 -0.2297 -0.1168  0.2260
   14MOL0     C 1823   5.147   4.388   7.540  0.6924 -0.2057  0.4098
   14MOL0     C 1824   5.133   4.263   7.449 -0.0212  0.3457  0.1581
   14MOL0     O 1825   5.216   4.267   7.343 -0.1497 -1.0581 -0.4232
   14MOL0     C 1826   5.205   4.178   7.240  0.0724 -0.3192 -0.5477
   14MOL0     C 1827   5.078   4.150   7.187 -0.0661  0.4013  0.1729
   14MOL0     C 1828   5.069   4.078   7.072  0.7368  0.6772 -0.2687
   14MOL0     C 1829   5.185   4.019   7.022 -0.3690  0.4777  0.2000
   14MOL0     O 1830   5.182   3.928   6.913  0.4057  0.6195  0.4681
   14MOL0     C 1831   5.147   3.976   6.785 -0.5946 -0.1730  0.3716
   14MOL0     C 1832   5.279   4.032   6.719  0.5970  0.6617 -0.5866
   14MOL0     C 1833   5.255   4.161   6.639  0.0218  0.3277  0.2235
   14MOL0     C 1834   5.177   4.135   6.506  0.0929  0.3790 -0.4921
   14MOL0     C 1835   5.124   4.261   6.439 -0.4375 -0.3134  0.2191
   14MOL0     C 1836   5.036   4.225   6.314  0.2010 -0.1578 -0.1787
   14MOL0     C 1837   4.971   4.344   6.244  0.6607 -0.0076 -0.2396
   14MOL0     C 1838   4.836   4.314   6.160 -0.7740 -0.1690 -0.3678
   14MOL0    Cl 1839   4.705   4.297   6.280  0.1111  0.1787  0.1271
   14MOL0     C 1840   5.313   4.042   7.081  0.4418 -0.1686  0.2766
   14MOL0     C 1841   5.319   4.129   7.181 -0.2643  0.4460  0.1817
   14MOL0     O 1842   5.070   4.165   7.488  0.5834 -0.4932 -0.0209
   14MOL0     C 1843   5.221   4.496   7.496  0.7363 -0.4835  0.7460
   14MOL0     C 1844   5.221   4.614   7.574  0.3947 -0.0716 -0.1187
   14MOL0     N 1845   4.947   5.019   8.077 -0.3157  0.0559  0.6258
   14MOL0     N 1846   4.913   5.135   8.130 -0.5808  0.1368  0.0316
   14MOL0     C 1847   5.424   5.479   8.399 -0.7268 -0.0024 -0.0252
   14MOL0     C 1848   5.485   5.390   8.311 -0.1468  0.3769 -0.0769
   14MOL0     C 1849   5.696   5.146   8.013  0.2326 -0.2922 -1.0323
   14MOL0     C 1850   5.794   5.171   7.925  0.4185  0.0549 -0.5290
   14MOL0     C 1851   5.858   5.068   7.860 -0.7073  0.8571  0.1465
   14MOL0     C 1852   5.838   4.935   7.880  0.6454 -0.9494  0.2625
   14MOL0     O 1853   5.895   4.819   7.833 -0.5976 -0.4510 -0.0917
   14MOL0     C 1854   5.968   4.831   7.710 -0.3728 -0.4525 -0.8739
   14MOL0     C 1855   6.020   4.695   7.655  0.0044  0.1537 -0.8764
   14MOL0     C 1856   6.161   4.665   7.724  0.8580  0.4464  0.2598
   14MOL0     C 1857   6.222   4.531   7.669  0.0019 -0.0861 -0.1866
   14MOL0     C 1858   6.345   4.480   7.738 -0.2960  0.6702  0.5030
   14MOL0     C 1859   6.504   4.398   7.817 -1.1081  0.3207 -0.1349
   14MOL0     C 1860   5.742   4.912   7.988  0.6226  0.1278 -0.5799
   14MOL0     C 1861   5.667   5.014   8.054  0.0738  0.6087 -0.0984
   14MOL0     C 1862   5.581   4.982   8.172 -0.8306  0.1552 -0.1961
   14MOL0     H 1863   5.798   5.520   8.284 -0.1762  3.2144  2.2789
   14MOL0     H 1864   5.698   5.703   8.415  1.4816 -0.4612 -2.1501
   14MOL0     H 1865   5.573   5.863   8.482 -1.2356 -0.6624  0.5125
   14MOL0     H 1866   5.423   5.900   8.549  3.1873  3.0201 -0.6404
   14MOL0     H 1867   5.466   5.963   8.304 -0.0688  1.0828  2.8571
   14MOL0     H 1868   5.442   5.795   8.262 -0.6053 -0.7621  0.7827
   14MOL0     H 1869   5.251   5.975   8.403 -1.2132  0.3853 -0.2687
   14MOL0     H 1870   5.225   5.936   8.238 -0.6121 -1.7815  0.0059
   14MOL0     H 1871   5.185   5.731   8.464 -0.4745  1.9957  1.3215
   14MOL0     H 1872   5.071   5.815   8.372 -0.1793  1.1227 -0.6879
   14MOL0     H 1873   5.271   5.600   8.262  0.6623  0.7261  1.9230
   14MOL0     H 1874   5.155   5.694   8.167 -4.0479 -1.3654  0.6201
   14MOL0     H 1875   5.094   5.527   8.413  2.7770 -2.3450 -0.7992
   14MOL0     H 1876   4.981   5.616   8.313  2.2336  2.1579  0.8259
   14MOL0     H 1877   5.156   5.422   8.168  0.4602 -0.1300  1.5901
   14MOL0     H 1878   4.986   5.475   8.138  0.0556 -0.1740 -0.5836
   14MOL0     H 1879   5.058   5.313   8.372  0.8966 -0.6380 -0.1908
   14MOL0     H 1880   4.900   5.349   8.290  0.0043  0.3210  1.4361
   14MOL0     H 1881   5.229   5.134   8.220 -0.6320 -0.0600  0.1945
   14MOL0     H 1882   5.126   4.838   8.003 -1.5566  2.7768 -2.1484
   14MOL0     H 1883   5.247   4.888   8.123  2.1314  0.0043 -1.2950
   14MOL0     H 1884   5.175   5.001   7.853 -0.0920 -1.0631  0.0271
   14MOL0     H 1885   5.309   5.073   7.958  1.3014 -0.6697  0.1656
   14MOL0     H 1886   5.454   4.945   7.840 -0.5401  1.1631  0.5104
   14MOL0     H 1887   5.398   4.831   7.954 -0.7842 -2.4028 -1.3336
   14MOL0     H 1888   5.269   4.856   7.684 -2.8263  0.5909  0.8419
   14MOL0     H 1889   5.410   4.746   7.744  0.6244  1.9334 -0.0653
   14MOL0     H 1890   5.123   4.508   7.871 -1.9985  0.4274 -0.4999
   14MOL0     H 1891   4.937   4.258   7.650 -1.6462 -0.4168  1.6312
   14MOL0     H 1892   4.960   4.313   7.817 -0.8549  1.2048 -0.6043
   14MOL0     H 1893   5.064   4.183   7.737 -0.4933 -0.9794 -4.4358
   14MOL0     H 1894   4.988   4.189   7.233 -1.5871 -0.1752 -2.1530
   14MOL0     H 1895   4.981   4.050   7.014  0.6265  0.9678 -0.2467
   14MOL0     H 1896   5.121   3.902   6.709 -2.4921  2.8672 -2.1486
   14MOL0     H 1897   5.061   4.043   6.793 -1.3266 -1.2929  3.0431
   14MOL0     H 1898   5.359   4.058   6.789 -0.2009 -0.4114  0.7787
   14MOL0     H 1899   5.326   3.955   6.657  3.7315  0.2739  1.9972
   14MOL0     H 1900   5.348   4.201   6.599  0.6987 -1.9356 -0.6504
   14MOL0     H 1901   5.194   4.233   6.694 -1.1652  1.1898 -2.0830
   14MOL0     H 1902   5.092   4.073   6.533 -0.3362  1.3457  0.4839
   14MOL0     H 1903   5.231   4.081   6.428  0.0138  2.7062 -2.2829
   14MOL0     H 1904   5.059   4.310   6.511  0.1539 -0.9341  1.2014
   14MOL0     H 1905   5.215   4.314   6.412 -0.2872 -0.3722  0.6100
   14MOL0     H 1906   4.955   4.156   6.339 -1.4077  0.8191 -2.3460
   14MOL0     H 1907   5.094   4.162   6.247  0.9080  2.0205 -1.7499
   14MOL0     H 1908   5.050   4.372   6.173  0.9651 -3.1401 -1.2939
   14MOL0     H 1909   4.951   4.428   6.312  0.1584 -0.7843  0.5833
   14MOL0     H 1910   4.838   4.224   6.099 -0.3349 -1.3344  1.3052
   14MOL0     H 1911   4.807   4.399   6.098  0.9111  1.2738  0.7128
   14MOL0     H 1912   5.395   3.992   7.030  0.8393  0.6599  0.0943
   14MOL0     H 1913   5.418   4.164   7.207  0.3636 -1.1992  0.0985
   14MOL0     H 1914   5.246   4.492   7.390 -2.6882  0.9199 -0.2316
   14MOL0     H 1915   5.273   4.702   7.539  0.0080  0.2756  0.1689
   14MOL0     H 1916   5.321   5.467   8.429 -0.4566  2.1172  2.0028
   14MOL0     H 1917   5.436   5.296   8.289 -3.0546  0.8732  3.2593
   14MOL0     H 1918   5.810   5.278   7.919  5.2280 -0.3237  1.3156
   14MOL0     H 1919   5.945   5.084   7.796  1.3651 -2.1880  1.9204
   14MOL0     H 1920   5.900   4.865   7.631 -1.8051 -0.3216  0.3654
   14MOL0     H 1921   6.052   4.900   7.721  0.9939 -1.8122 -2.4070
   14MOL0     H 1922   6.028   4.702   7.547  1.9938  1.3474 -0.7112
   14MOL0     H 1923   5.947   4.617   7.680  2.1223 -1.8298 -0.5501
   14MOL0     H 1924   6.230   4.744   7.693  1.0807  0.0746 -0.2159
   14MOL0     H 1925   6.145   4.674   7.832  1.2389  0.9818  0.2766
   14MOL0     H 1926   6.247   4.541   7.563  1.5668  1.9781  0.3109
   14MOL0     H 1927   6.151   4.448   7.671  0.5893 -0.6669 -1.9759
   14MOL0     H 1928   6.592   4.358   7.862 -0.4351 -1.8883 -3.0866
   14MOL0     H 1929   5.739   4.807   8.014 -2.1414  0.5861  1.4130
   14MOL0     H 1930   5.498   5.053   8.179  0.8584  2.1833  0.2891
   14MOL0     H 1931   5.540   4.881   8.175  0.8310 -0.5259  0.5970
   14MOL0     H 1932   5.642   4.989   8.263 -0.2349 -2.1893 -0.3557
   15MOL0     O 1933  10.836   5.694   0.949  0.5228  0.4908  0.4828
   15MOL0     C 1934  10.875   5.685   0.827  0.5535  0.5277  0.1583
   15MOL0     O 1935  11.004   5.705   0.789  0.8639  0.3310 -0.1700
   15MOL0     C 1936  11.087   5.763   0.874 -0.6509 -1.0466  0.2898
   15MOL0     C 1937  11.212   5.706   0.898 -0.2638  0.4945  0.3660
   15MOL0     C 1938  11.306   5.781   0.970  0.9250  1.0102  0.4732
   15MOL0     C 1939  11.280   5.910   1.018  0.0888  1.3961 -0.3511
   15MOL0     O 1940  11.373   5.991   1.066 -0.1001  0.4954 -0.5161
   15MOL0     C 1941  11.445   5.946   1.182  0.3046  0.7379 -0.0687
   15MOL0     C 1942  11.492   6.073   1.251  0.1729 -0.3125 -0.0557
   15MOL0     C 1943  11.364   6.140   1.313  0.0566  0.0838  0.1604
   15MOL0     C 1944  11.403   6.282   1.373  0.6453  0.4675  0.3643
   15MOL0     C 1945  11.282   6.364   1.424  0.0514 -1.1425 -0.3436
   15MOL0     C 1946  11.310   6.521   1.430 -0.5596  0.4395 -1.0010
   15MOL0     C 1947  11.417   6.551   1.534 -0.2237  0.2295 -0.3521
   15MOL0     C 1948  11.414   6.693   1.587  0.3618  0.8679  0.0851
   15MOL0     N 1949  11.418   6.794   1.478  0.2849  0.6132  0.4593
   15MOL0     C 1950  11.303   6.849   1.430  0.0843 -0.9245 -0.4167
   15MOL0     C 1951  11.354   6.940   1.346 -0.4049  0.4082 -0.1646
   15MOL0     C 1952  11.281   7.050   1.273 -0.2623  0.5693 -1.0893
   15MOL0     C 1953  11.268   7.171   1.361  0.1227 -0.1641  1.1555
   15MOL0     C 1954  11.229   7.301   1.288 -0.0444  0.2107 -0.6387
   15MOL0     C 1955  11.093   7.290   1.213 -0.5609 -0.7796  0.0756
   15MOL0     O 1956  10.994   7.252   1.307 -0.4357  0.0863 -0.1965
   15MOL0     C 1957  10.933   7.343   1.389  0.0657  0.1665 -0.1028
   15MOL0     C 1958  10.817   7.296   1.449  0.9271 -0.0390 -0.0186
   15MOL0     C 1959  10.718   7.388   1.498  0.8724  0.2312 -0.1425
   15MOL0     C 1960  10.595   7.325   1.553 -0.6547 -0.0518 -0.3664
   15MOL0     C 1961  10.741   7.521   1.507  0.4486 -0.5482  0.5648
   15MOL0     C 1962  10.642   7.629   1.551  0.6525 -0.0393 -0.7051
   15MOL0     O 1963  10.674   7.760   1.517 -0.4978 -1.1348 -0.0151
   15MOL0     C 1964  10.580   7.859   1.532  0.7689 -0.3992 -0.1469
   15MOL0     C 1965  10.431   7.859   1.528 -0.9008 -0.4189  0.3656
   15MOL0     C 1966  10.369   7.977   1.552 -0.0662 -0.6779 -0.3699
   15MOL0     C 1967  10.434   8.103   1.548 -0.4176  0.1929 -0.4611
   15MOL0     O 1968  10.359   8.210   1.573  0.3432 -0.8382 -0.3405
   15MOL0     C 1969  10.426   8.341   1.567 -0.0421  0.1424  0.3145
   15MOL0     C 1970  10.311   8.446   1.582 -0.1659 -0.4237  0.7103
   15MOL0     C 1971  10.254   8.476   1.719 -0.4030  0.1553  0.2625
   15MOL0     C 1972  10.298   8.605   1.776  0.0793  0.2904  0.5883
   15MOL0     C 1973  10.232   8.638   1.910  0.7074  0.3125  0.2926
   15MOL0     C 1974  10.266   8.775   1.962 -0.2357  0.0623 -0.5761
   15MOL0     C 1975  10.147   8.835   2.048  0.9917  0.2702 -0.6094
   15MOL0     C 1976  10.129   8.984   2.055  0.3303  0.6498  0.5544
   15MOL0    Cl 1977  10.124   9.063   1.900 -0.0377  0.1886 -0.6743
   15MOL0     C 1978  10.570   8.109   1.524  0.9475  0.7978 -0.4457
   15MOL0     C 1979  10.641   7.984   1.527  0.2568  0.3008 -0.5358
   15MOL0     O 1980  10.550   7.602   1.624  0.1705  0.6317 -0.0663
   15MOL0     C 1981  10.870   7.570   1.458  0.1812  0.9947 -0.0579
   15MOL0     C 1982  10.960   7.475   1.399 -0.1679 -0.7838  0.7553
   15MOL0     N 1983  11.493   6.932   1.339 -0.8727 -0.4170 -0.1371
   15MOL0     N 1984  11.528   6.842   1.427 -0.3060  0.7606  0.1729
   15MOL0     C 1985  11.150   5.953   0.999 -0.1316 -1.5007  0.1618
   15MOL0     C 1986  11.059   5.889   0.916  1.2455 -0.9036 -0.2771
   15MOL0     C 1987  10.777   5.631   0.725 -0.2268  0.3973  0.2548
   15MOL0     C 1988  10.662   5.562   0.777  0.2796 -0.9730 -0.4810
   15MOL0     C 1989  10.567   5.511   0.690 -0.1772 -0.8033  0.1681
   15MOL0     C 1990  10.570   5.537   0.552  0.2098  0.0838  0.3252
   15MOL0     O 1991  10.474   5.468   0.475  1.2456 -0.2561 -0.2967
   15MOL0     C 1992  10.476   5.481   0.323 -0.5317  0.4951 -0.0492
   15MOL0     C 1993  10.373   5.387   0.265  0.1445 -0.0649  0.1305
   15MOL0     C 1994  10.400   5.372   0.115  0.2507 -0.0845  0.4726
   15MOL0     C 1995  10.308   5.265   0.056 -0.2483 -0.4808 -0.5103
   15MOL0     C 1996  10.165   5.303   0.063 -0.5313 -0.0321  0.2831
   15MOL0     C 1997  10.050   5.334   0.062 -0.1572 -1.0382 -0.5976
   15MOL0     C 1998  10.676   5.613   0.499 -0.2596 -0.2737  1.0963
   15MOL0     C 1999  10.785   5.646   0.585 -0.3046 -0.2818  0.7284
   15MOL0     C 2000  10.908   5.692   0.516 -0.3137  0.5565  0.5060
   15MOL0     H 2001  11.234   5.605   0.865  3.3641  0.9575  0.9304
   15MOL0     H 2002  11.399   5.732   0.998 -1.7835 -2.7241  4.1684
   15MOL0     H 2003  11.533   5.885   1.161 -1.4802 -2.3121  0.6889
   15MOL0     H 2004  11.388   5.876   1.244  2.9294 -0.4414  1.1608
   15MOL0     H 2005  11.565   6.065   1.333  0.1720  0.6327  0.0530
   15MOL0     H 2006  11.547   6.138   1.182  0.0797 -0.2751 -0.0944
   15MOL0     H 2007  11.274   6.151   1.252 -1.5941 -1.4847  2.1671
   15MOL0     H 2008  11.319   6.078   1.391 -0.7027 -1.8332 -1.6904
   15MOL0     H 2009  11.481   6.267   1.448  1.9204  2.2477 -0.5495
   15MOL0     H 2010  11.444   6.334   1.287 -0.3210 -1.7993 -1.5964
   15MOL0     H 2011  11.244   6.321   1.517  0.3485  1.5710  1.1278
   15MOL0     H 2012  11.207   6.344   1.346  0.2849 -1.9403 -0.3761
   15MOL0     H 2013  11.347   6.565   1.337  0.1696  1.8308 -0.0963
   15MOL0     H 2014  11.217   6.573   1.459  0.1645  1.4891 -0.4756
   15MOL0     H 2015  11.507   6.520   1.480 -0.6548  1.1394 -1.6277
   15MOL0     H 2016  11.405   6.491   1.625  0.0662  1.9961  0.9097
   15MOL0     H 2017  11.329   6.712   1.653  0.2302 -1.8966  0.8422
   15MOL0     H 2018  11.501   6.690   1.655  1.2111 -0.8151 -1.0122
   15MOL0     H 2019  11.200   6.843   1.464 -0.1449  1.5642 -0.4441
   15MOL0     H 2020  11.177   7.021   1.254 -0.0485 -1.1414  0.1665
   15MOL0     H 2021  11.330   7.061   1.176 -1.3490  0.2288 -1.6998
   15MOL0     H 2022  11.204   7.148   1.447 -1.8950 -3.6219 -1.0423
   15MOL0     H 2023  11.366   7.184   1.407 -0.1072 -3.0810  2.7212
   15MOL0     H 2024  11.243   7.392   1.347  0.8455  1.3617 -2.5252
   15MOL0     H 2025  11.308   7.314   1.213 -0.5560 -0.3776 -1.3021
   15MOL0     H 2026  11.072   7.380   1.155  0.4325 -0.7316 -0.2291
   15MOL0     H 2027  11.104   7.215   1.134  0.0305 -1.4445  0.7738
   15MOL0     H 2028  10.786   7.194   1.430 -1.3601  0.3878  1.1028
   15MOL0     H 2029  10.608   7.341   1.660 -3.0094  0.6917 -0.1346
   15MOL0     H 2030  10.576   7.220   1.527 -0.0746 -0.2601  0.0207
   15MOL0     H 2031  10.510   7.385   1.519  2.8235  6.0433  0.1809
   15MOL0     H 2032  10.377   7.765   1.518  2.4239 -2.8371  2.9950
   15MOL0     H 2033  10.261   7.978   1.558 -0.0161 -1.9551  1.4077
   15MOL0     H 2034  10.500   8.354   1.647  0.1986  0.9276 -0.0220
   15MOL0     H 2035  10.480   8.358   1.474 -2.1586  3.0550 -0.5478
   15MOL0     H 2036  10.355   8.533   1.530  3.5177 -2.8988 -0.7734
   15MOL0     H 2037  10.226   8.420   1.519 -0.5567 -1.2014  1.5460
   15MOL0     H 2038  10.275   8.396   1.791  2.6207  0.4156 -0.2064
   15MOL0     H 2039  10.144   8.475   1.714 -0.3851 -0.5988 -0.1299
   15MOL0     H 2040  10.278   8.688   1.706  5.0677 -0.3343 -2.0087
   15MOL0     H 2041  10.407   8.601   1.781  0.2508  1.1297 -1.3752
   15MOL0     H 2042  10.124   8.634   1.895  0.3408  1.3433  2.3691
   15MOL0     H 2043  10.257   8.555   1.976 -2.0815  0.7262  2.0237
   15MOL0     H 2044  10.285   8.842   1.878  2.1671  2.3749  1.6335
   15MOL0     H 2045  10.352   8.772   2.030 -0.9186 -3.0364  0.2939
   15MOL0     H 2046  10.171   8.805   2.150 -2.7615 -1.1165 -0.0010
   15MOL0     H 2047  10.050   8.787   2.035  0.7858  0.9795 -1.8445
   15MOL0     H 2048  10.216   9.023   2.109 -1.3386  2.1804  2.3003
   15MOL0     H 2049  10.035   9.008   2.106 -1.1047 -0.5770 -1.3349
   15MOL0     H 2050  10.624   8.203   1.525  0.3654  1.2281 -3.1256
   15MOL0     H 2051  10.746   7.982   1.502  0.5634  0.6402  0.6666
   15MOL0     H 2052  10.910   7.670   1.471 -0.2819  1.2209 -0.3534
   15MOL0     H 2053  11.046   7.518   1.348 -0.9936  1.2237  0.9513
   15MOL0     H 2054  11.136   6.052   1.041 -0.2821 -1.8610  0.9875
   15MOL0     H 2055  10.971   5.946   0.891  0.5153 -1.8573  0.0812
   15MOL0     H 2056  10.639   5.548   0.882 -2.9702 -0.6842 -1.0485
   15MOL0     H 2057  10.480   5.464   0.736  0.1265 -1.0351  0.5185
   15MOL0     H 2058  10.460   5.587   0.303 -3.1197  0.8700  3.1008
   15MOL0     H 2059  10.577   5.455   0.288  0.7685 -0.6195  3.9560
   15MOL0     H 2060  10.280   5.443   0.278  2.3963  4.0626  0.0628
   15MOL0     H 2061  10.376   5.290   0.315 -2.6596 -0.5856 -0.5377
   15MOL0     H 2062  10.369   5.470   0.077  0.3682  0.2910  1.3132
   15MOL0     H 2063  10.503   5.345   0.094  0.1217  1.1300 -2.0686
   15MOL0     H 2064  10.315   5.169   0.108 -1.5804 -1.0375 -1.3132
   15MOL0     H 2065  10.347   5.248  -0.045  0.5578  2.3858 -0.7695
   15MOL0     H 2066   9.950   5.363   0.039 -0.2678 -0.7742  0.1857
   15MOL0     H 2067  10.709   5.626   0.397  0.9862 -0.6449  1.4225
   15MOL0     H 2068  10.890   5.691   0.408  0.7157  0.4833  0.3222
   15MOL0     H 2069  10.927   5.796   0.546  2.3995 -0.0782  1.2330
   15MOL0     H 2070  10.993   5.630   0.546  1.8529  2.0084 -2.1079
   16MOL0     O 2071   6.407   9.191   1.964  0.2898 -1.1258 -0.0478
   16MOL0     C 2072   6.480   9.281   1.910 -0.1536 -1.5718 -0.5087
   16MOL0     O 2073   6.573   9.359   1.972 -0.4503 -1.2496 -0.4370
   16MOL0     C 2074   6.572   9.382   2.103 -0.9019  0.9077  0.7755
   16MOL0     C 2075   6.692   9.433   2.155  1.1053  0.3056  0.6271
   16MOL0     C 2076   6.699   9.468   2.295  0.2845  0.1598 -0.6498
   16MOL0     C 2077   6.586   9.434   2.379 -0.4883 -0.1004 -1.0267
   16MOL0     O 2078   6.599   9.465   2.515 -0.5203 -0.5403 -0.7097
   16MOL0     C 2079   6.556   9.367   2.611 -0.3505  0.5167  0.6263
   16MOL0     C 2080   6.643   9.361   2.740 -0.3401 -0.5180 -0.0294
   16MOL0     C 2081   6.601   9.463   2.850  0.3476 -0.1922  0.0384
   16MOL0     C 2082   6.670   9.443   2.977 -0.4084 -0.5563 -0.8648
   16MOL0     C 2083   6.637   9.566   3.072  0.0266  0.7105 -1.0611
   16MOL0     C 2084   6.488   9.595   3.093 -0.1552 -0.5390  0.2001
   16MOL0     C 2085   6.484   9.732   3.172  1.1272 -0.4012 -0.1091
   16MOL0     C 2086   6.378   9.727   3.283  0.4438  0.5961  0.3584
   16MOL0     N 2087   6.367   9.859   3.349 -1.1945 -0.0480  0.0319
   16MOL0     C 2088   6.281   9.949   3.317 -0.5040  0.1588 -0.5665
   16MOL0     C 2089   6.270  10.031   3.424 -0.6813 -0.1441  0.5547
   16MOL0     C 2090   6.187  10.153   3.438 -0.3664 -0.0652 -0.3130
   16MOL0     C 2091   6.275  10.267   3.384  0.4995 -0.0239  0.0927
   16MOL0     C 2092   6.292  10.273   3.229  1.0251 -0.3206 -0.0597
   16MOL0     C 2093   6.269  10.421   3.176  0.2322 -0.2544 -0.0163
   16MOL0     O 2094   6.376  10.505   3.230 -0.0286 -0.2732  0.1526
   16MOL0     C 2095   6.358  10.642   3.239  0.6635 -0.7127  0.1494
   16MOL0     C 2096   6.439  10.720   3.327  0.1940  0.9195  0.1302
   16MOL0     C 2097   6.428  10.855   3.343 -0.3760  0.0507  0.4170
   16MOL0     C 2098   6.526  10.921   3.434 -0.3567 -0.8743 -1.0610
   16MOL0     C 2099   6.330  10.927   3.273 -0.8264  0.3796 -0.5136
   16MOL0     C 2100   6.301  11.067   3.273 -0.7304  0.7846  0.3385
   16MOL0     O 2101   6.185  11.109   3.204  0.0868  0.3946 -0.4551
   16MOL0     C 2102   6.157  11.238   3.180 -0.0909  0.5055 -0.2445
   16MOL0     C 2103   6.145  11.280   3.052 -0.3104 -0.6456  1.4185
   16MOL0     C 2104   6.109  11.419   3.028  0.9303  0.3767 -0.0267
   16MOL0     C 2105   6.087  11.510   3.135  0.6267  0.2351  0.2900
   16MOL0     O 2106   6.040  11.638   3.125  0.2591 -0.3638  0.3519
   16MOL0     C 2107   5.996  11.693   3.000 -0.3455  0.2335 -0.0896
   16MOL0     C 2108   6.032  11.842   2.992  0.1637 -0.0757  0.7366
   16MOL0     C 2109   6.069  11.873   2.849  0.2917 -0.6454  0.7473
   16MOL0     C 2110   6.116  12.019   2.812  0.1933 -0.2403  0.7768
   16MOL0     C 2111   6.233  12.055   2.905 -0.4271  0.1485 -0.6330
   16MOL0     C 2112   6.281  12.186   2.851  0.1255  0.4878 -0.4571
   16MOL0     C 2113   6.415  12.216   2.915  0.0408 -0.4857  0.6686
   16MOL0     C 2114   6.535  12.178   2.831 -0.5116 -0.7818  0.2531
   16MOL0    Cl 2115   6.687  12.205   2.912 -0.1744 -0.0348 -0.1700
   16MOL0     C 2116   6.093  11.450   3.270  0.1625 -0.1321  0.0965
   16MOL0     C 2117   6.127  11.319   3.289 -0.2204  0.5445 -0.0873
   16MOL0     O 2118   6.389  11.148   3.316  0.0340  0.0078  0.1755
   16MOL0     C 2119   6.243  10.850   3.203  0.3522 -0.1796  0.6073
   16MOL0     C 2120   6.252  10.714   3.185 -0.7937 -0.4922  0.1417
   16MOL0     N 2121   6.353   9.978   3.522  0.8090  0.7335 -0.1772
   16MOL0     N 2122   6.416   9.873   3.470 -0.1073 -0.0405 -0.7508
   16MOL0     C 2123   6.470   9.385   2.328  0.7612 -0.6931  0.5912
   16MOL0     C 2124   6.462   9.364   2.187 -0.4233  1.1610 -0.4635
   16MOL0     C 2125   6.446   9.305   1.767  0.8951 -0.5904 -0.1577
   16MOL0     C 2126   6.325   9.245   1.720  0.1055  0.3888 -0.7137
   16MOL0     C 2127   6.288   9.238   1.579 -0.5683  0.0894 -0.6276
   16MOL0     C 2128   6.369   9.289   1.485  0.3165 -0.3311 -0.1438
   16MOL0     O 2129   6.354   9.284   1.348 -0.5606 -0.9993  0.8871
   16MOL0     C 2130   6.239   9.235   1.285  0.5543  0.9606 -0.2458
   16MOL0     C 2131   6.139   9.351   1.275 -0.9793  0.8967  0.3259
   16MOL0     C 2132   6.023   9.325   1.170 -0.6250 -0.2666 -0.6006
   16MOL0     C 2133   5.890   9.290   1.236 -0.0768 -0.0707 -0.0759
   16MOL0     C 2134   5.883   9.143   1.261  0.7138 -0.0337  0.4073
   16MOL0     C 2135   5.865   9.023   1.292 -0.2863  0.1762  1.0172
   16MOL0     C 2136   6.481   9.357   1.526  0.3630  0.3803  0.6918
   16MOL0     C 2137   6.519   9.368   1.665 -0.3963  0.1427  1.2490
   16MOL0     C 2138   6.657   9.438   1.683 -0.3088  0.5176  0.1253
   16MOL0     H 2139   6.776   9.452   2.088 -0.5869  0.2641 -1.6123
   16MOL0     H 2140   6.790   9.519   2.325  0.0290 -0.1876  0.7618
   16MOL0     H 2141   6.551   9.267   2.568 -4.6731  0.5530  0.6679
   16MOL0     H 2142   6.454   9.390   2.643 -0.1587  2.3298  0.0701
   16MOL0     H 2143   6.633   9.259   2.778  2.6753 -0.4462  1.3181
   16MOL0     H 2144   6.750   9.348   2.718 -0.4475 -1.3227 -0.1055
   16MOL0     H 2145   6.587   9.567   2.819 -1.1780  0.2284  1.9789
   16MOL0     H 2146   6.500   9.430   2.874 -0.0024  2.4135  2.5768
   16MOL0     H 2147   6.647   9.347   3.024  2.5840 -1.0211 -0.1458
   16MOL0     H 2148   6.774   9.442   2.944 -0.0949 -1.5909  0.1189
   16MOL0     H 2149   6.695   9.655   3.045  0.9015 -0.2621 -2.5414
   16MOL0     H 2150   6.672   9.533   3.170 -0.6854 -0.6536 -1.2373
   16MOL0     H 2151   6.432   9.619   3.002 -1.3701  1.9110  1.5029
   16MOL0     H 2152   6.423   9.515   3.129 -0.0897 -0.7014 -0.0354
   16MOL0     H 2153   6.448   9.810   3.104 -5.1649 -1.2200  1.6913
   16MOL0     H 2154   6.584   9.749   3.213  1.7283  1.0116 -2.0021
   16MOL0     H 2155   6.281   9.690   3.248 -0.0014  0.4524  1.6782
   16MOL0     H 2156   6.406   9.651   3.357  3.6948  0.6021 -0.6914
   16MOL0     H 2157   6.223   9.947   3.226 -2.0368 -2.3144  0.3629
   16MOL0     H 2158   6.153  10.161   3.542 -0.2597 -0.8042 -0.2169
   16MOL0     H 2159   6.104  10.143   3.367  1.0776 -3.6633 -1.7802
   16MOL0     H 2160   6.241  10.360   3.430  0.1377 -1.7605  3.6226
   16MOL0     H 2161   6.374  10.257   3.430  0.6563 -1.8928 -0.5433
   16MOL0     H 2162   6.389  10.228   3.209  0.7009 -1.7737  1.3945
   16MOL0     H 2163   6.219  10.211   3.176 -0.0087  0.5886  0.2757
   16MOL0     H 2164   6.284  10.422   3.067 -0.4926 -0.1270 -0.1171
   16MOL0     H 2165   6.167  10.446   3.208 -0.5719 -2.1240 -1.0014
   16MOL0     H 2166   6.518  10.671   3.384 -1.0368  0.1635  1.2383
   16MOL0     H 2167   6.489  10.942   3.535  1.2348 -0.6113 -0.5142
   16MOL0     H 2168   6.595  10.996   3.396  1.9138 -2.3568 -0.0658
   16MOL0     H 2169   6.597  10.847   3.472  1.0726  0.9977  0.0678
   16MOL0     H 2170   6.161  11.219   2.964  0.7963  0.5090  0.7806
   16MOL0     H 2171   6.098  11.451   2.925 -0.9911  0.4349  0.1538
   16MOL0     H 2172   6.043  11.643   2.915  1.4264  2.6470 -0.6437
   16MOL0     H 2173   5.890  11.670   2.990 -0.2680  0.0004 -0.3649
   16MOL0     H 2174   5.944  11.896   3.027 -1.7777 -2.3874 -0.2425
   16MOL0     H 2175   6.114  11.873   3.056  0.2933  0.7197  0.1993
   16MOL0     H 2176   5.981  11.862   2.786  0.8361  2.6299 -0.7887
   16MOL0     H 2177   6.147  11.805   2.812  0.0492  0.4737 -2.0695
   16MOL0     H 2178   6.027  12.082   2.819 -0.7286 -1.4055 -0.2044
   16MOL0     H 2179   6.138  12.023   2.705 -2.8566 -1.2193  0.0113
   16MOL0     H 2180   6.195  12.072   3.006  0.6096  0.0088 -0.2050
   16MOL0     H 2181   6.309  11.976   2.909 -2.4031 -1.7946  1.9036
   16MOL0     H 2182   6.209  12.266   2.867  1.1190  1.3861 -0.4375
   16MOL0     H 2183   6.307  12.177   2.745  1.5010 -0.0502 -0.0910
   16MOL0     H 2184   6.426  12.178   3.017  2.1152 -1.0971  0.2658
   16MOL0     H 2185   6.423  12.324   2.931 -0.6652 -0.6306  2.1414
   16MOL0     H 2186   6.524  12.234   2.737  2.6107 -0.4228 -0.0041
   16MOL0     H 2187   6.537  12.076   2.791 -1.7088 -0.8413  0.3258
   16MOL0     H 2188   6.066  11.502   3.361 -0.7638 -1.4833  0.6299
   16MOL0     H 2189   6.122  11.266   3.384  1.9341  2.9574  1.4996
   16MOL0     H 2190   6.148  10.882   3.160  1.5683  1.3232 -1.1002
   16MOL0     H 2191   6.177  10.652   3.137  0.5689 -1.5471 -0.6897
   16MOL0     H 2192   6.381   9.358   2.385  1.1001  0.9819  2.0011
   16MOL0     H 2193   6.367   9.330   2.147 -1.0463 -1.0354  2.5461
   16MOL0     H 2194   6.257   9.190   1.784 -0.6409  2.2424  0.1513
   16MOL0     H 2195   6.203   9.178   1.547  1.8182 -5.0952  1.6767
   16MOL0     H 2196   6.258   9.208   1.181 -1.8943  0.2207 -0.5647
   16MOL0     H 2197   6.192   9.144   1.324  1.6124  0.2900 -0.5139
   16MOL0     H 2198   6.201   9.438   1.249  3.0004 -1.6357  0.4155
   16MOL0     H 2199   6.119   9.364   1.381  1.8621  0.8796  0.9612
   16MOL0     H 2200   6.020   9.415   1.109  2.2932 -1.2249 -2.3970
   16MOL0     H 2201   6.056   9.248   1.099 -1.1808 -0.9109 -0.1742
   16MOL0     H 2202   5.808   9.312   1.167  1.7264 -0.2519 -2.4006
   16MOL0     H 2203   5.886   9.352   1.326 -0.5475 -0.0253 -0.1276
   16MOL0     H 2204   5.863   8.921   1.322  0.3621  0.4732  2.1458
   16MOL0     H 2205   6.548   9.399   1.451 -1.2297 -0.3219 -1.1979
   16MOL0     H 2206   6.715   9.459   1.593  0.8734 -1.6388  0.3295
   16MOL0     H 2207   6.639   9.536   1.729 -0.1395 -0.2970  2.0423
   16MOL0     H 2208   6.713   9.380   1.757 -1.1424  1.7820  1.8215
   17MOL0     O 2209   5.739   1.503   0.351  0.2299 -0.0058 -0.2598
   17MOL0     C 2210   5.745   1.458   0.460 -0.0492 -0.1264 -0.7133
   17MOL0     O 2211   5.646   1.393   0.533  0.4026  0.0849 -0.3000
   17MOL0     C 2212   5.516   1.360   0.475 -0.7185 -0.3168 -0.0771
   17MOL0     C 2213   5.474   1.389   0.343  0.6221  0.3839  0.8651
   17MOL0     C 2214   5.370   1.328   0.277  0.2430 -0.1455 -0.0235
   17MOL0     C 2215   5.292   1.229   0.350 -0.8787 -0.6885  0.4688
   17MOL0     O 2216   5.184   1.173   0.290 -0.0245  0.0855  0.2217
   17MOL0     C 2217   5.092   1.098   0.370 -0.4801  0.3551 -1.2600
   17MOL0     C 2218   4.976   1.058   0.277  0.7907  0.5265 -0.6788
   17MOL0     C 2219   5.009   0.931   0.184 -0.6022 -0.4614  0.5581
   17MOL0     C 2220   4.903   0.889   0.087  0.5177  0.1991  0.3817
   17MOL0     C 2221   4.927   0.752   0.030 -0.0308 -0.7693 -0.1719
   17MOL0     C 2222   4.843   0.721  -0.096 -0.0298  0.0974 -1.0511
   17MOL0     C 2223   4.882   0.803  -0.217 -0.1182 -0.1714  0.4112
   17MOL0     C 2224   4.805   0.755  -0.342 -0.3349 -0.5021 -0.2491
   17MOL0     N 2225   4.804   0.870  -0.448 -0.6201  0.7773 -0.5058
   17MOL0     C 2226   4.914   0.924  -0.509  0.1279  1.4254 -0.0076
   17MOL0     C 2227   4.870   1.040  -0.558 -0.8754 -0.2159  0.5971
   17MOL0     C 2228   4.952   1.143  -0.642 -0.2184 -0.6615  0.7576
   17MOL0     C 2229   4.879   1.235  -0.745  0.3002 -0.5137 -0.2052
   17MOL0     C 2230   4.790   1.155  -0.839 -1.9841 -0.3929  0.0961
   17MOL0     C 2231   4.724   1.236  -0.948  0.4416 -0.3919 -0.0383
   17MOL0     O 2232   4.807   1.253  -1.064  0.8065 -0.1705  0.4504
   17MOL0     C 2233   4.828   1.375  -1.126 -0.1286 -0.8302 -0.2731
   17MOL0     C 2234   4.821   1.498  -1.054 -0.9293  0.9622  0.4483
   17MOL0     C 2235   4.821   1.620  -1.125 -0.1713  0.0153  0.4923
   17MOL0     C 2236   4.798   1.750  -1.049 -0.0698  0.2636  0.5721
   17MOL0     C 2237   4.837   1.617  -1.268 -0.1926  0.5093  0.2168
   17MOL0     C 2238   4.853   1.739  -1.351 -0.1846 -1.2574 -0.1599
   17MOL0     O 2239   4.757   1.764  -1.439 -0.2694 -0.2834  0.2355
   17MOL0     C 2240   4.718   1.895  -1.465  0.3997  0.2861  0.3496
   17MOL0     C 2241   4.687   1.993  -1.374 -0.6776  0.7257 -0.9293
   17MOL0     C 2242   4.656   2.119  -1.413  1.0508 -0.3569 -0.2429
   17MOL0     C 2243   4.634   2.157  -1.546  0.3280  1.1622 -0.2252
   17MOL0     O 2244   4.589   2.274  -1.593 -0.0509  0.1138  0.5147
   17MOL0     C 2245   4.645   2.386  -1.531  0.3217 -0.1992  0.6183
   17MOL0     C 2246   4.573   2.509  -1.588  0.2634  0.4129 -0.1120
   17MOL0     C 2247   4.643   2.587  -1.695 -0.4072  0.2733  0.2265
   17MOL0     C 2248   4.556   2.669  -1.789  0.2696  0.1157 -0.3936
   17MOL0     C 2249   4.630   2.728  -1.905 -0.6217 -0.1632 -0.2683
   17MOL0     C 2250   4.559   2.853  -1.966 -0.1623  1.0804 -0.9323
   17MOL0     C 2251   4.617   2.901  -2.095 -1.1986 -0.9911  0.9809
   17MOL0     C 2252   4.584   3.039  -2.122  0.1221 -0.9379 -0.3543
   17MOL0    Cl 2253   4.700   3.105  -2.234 -0.0752 -0.3331  0.1333
   17MOL0     C 2254   4.646   2.059  -1.639  0.0388  0.4461 -0.6313
   17MOL0     C 2255   4.687   1.922  -1.600  0.0878 -0.9520  0.6635
   17MOL0     O 2256   4.941   1.825  -1.324 -0.5092 -0.5465 -0.4900
   17MOL0     C 2257   4.842   1.493  -1.341 -0.3908 -0.0310  0.0104
   17MOL0     C 2258   4.832   1.372  -1.263 -0.8675 -0.3529 -0.4529
   17MOL0     N 2259   4.743   1.072  -0.519 -0.5253  0.1326  0.1272
   17MOL0     N 2260   4.707   0.960  -0.464  0.7657 -0.1011  0.0398
   17MOL0     C 2261   5.334   1.195   0.483 -0.2798  0.1219 -0.3559
   17MOL0     C 2262   5.445   1.261   0.543  0.0261 -0.6043  1.1981
   17MOL0     C 2263   5.869   1.495   0.538  0.2017  0.2901 -0.1835
   17MOL0     C 2264   5.993   1.514   0.469  1.0409 -0.2702  0.6870
   17MOL0     C 2265   6.101   1.563   0.538  0.1218  0.3435  0.7220
   17MOL0     C 2266   6.101   1.599   0.675  0.0145 -0.0031 -0.2409
   17MOL0     O 2267   6.199   1.654   0.760 -0.3532  0.1618 -0.0207
   17MOL0     C 2268   6.169   1.791   0.810  0.1626  0.7467  0.1431
   17MOL0     C 2269   6.288   1.849   0.877 -0.0033 -0.3270 -0.5807
   17MOL0     C 2270   6.322   1.777   1.020  0.3229  0.2716 -0.2577
   17MOL0     C 2271   6.378   1.886   1.115 -0.2362 -0.0692  0.1390
   17MOL0     C 2272   6.284   1.973   1.187  0.1310  0.0213  0.4980
   17MOL0     C 2273   6.211   2.051   1.249 -0.2095  0.7639 -0.0848
   17MOL0     C 2274   5.981   1.575   0.743 -0.2993 -0.5909 -0.0260
   17MOL0     C 2275   5.866   1.528   0.674 -0.1186 -0.2128 -0.7707
   17MOL0     C 2276   5.746   1.513   0.763  0.1216  0.0482  0.1470
   17MOL0     H 2277   5.524   1.463   0.282 -1.5756  1.0875 -0.1787
   17MOL0     H 2278   5.341   1.328   0.172 -2.5842 -4.9789  0.4687
   17MOL0     H 2279   5.059   1.165   0.450  0.4682 -0.5031 -0.1247
   17MOL0     H 2280   5.137   1.009   0.415  1.2188  0.9426 -1.7265
   17MOL0     H 2281   4.897   1.020   0.343  2.8705 -1.7017  0.6629
   17MOL0     H 2282   4.926   1.138   0.221 -1.4217  0.0734  0.5346
   17MOL0     H 2283   5.096   0.965   0.127 -1.9988 -0.6158 -1.7586
   17MOL0     H 2284   5.041   0.846   0.244  0.6724 -1.1924 -1.0842
   17MOL0     H 2285   4.801   0.904   0.124 -0.0376  1.6332 -1.5453
   17MOL0     H 2286   4.911   0.964   0.008 -1.8254 -0.5306 -0.6256
   17MOL0     H 2287   4.916   0.677   0.108 -0.5471 -0.1070  0.4125
   17MOL0     H 2288   5.028   0.746  -0.012 -0.8460  0.7878 -2.5885
   17MOL0     H 2289   4.848   0.613  -0.116  0.8431  0.0488 -0.6336
   17MOL0     H 2290   4.740   0.744  -0.069  0.0145 -1.1686  0.2939
   17MOL0     H 2291   4.991   0.793  -0.224 -0.1538 -1.1753  1.0505
   17MOL0     H 2292   4.857   0.905  -0.187  1.4922 -0.3892  2.7196
   17MOL0     H 2293   4.858   0.667  -0.381  0.2691 -0.7997  1.2001
   17MOL0     H 2294   4.704   0.728  -0.312  0.6864 -2.8320  1.4070
   17MOL0     H 2295   5.013   0.880  -0.515 -0.5612 -0.4548  1.5980
   17MOL0     H 2296   5.019   1.084  -0.705  1.4093 -0.5548  2.2888
   17MOL0     H 2297   5.004   1.214  -0.576  0.8563 -1.2946  0.6078
   17MOL0     H 2298   4.824   1.304  -0.679  1.1854 -2.0605  2.2586
   17MOL0     H 2299   4.952   1.297  -0.798 -1.3895  1.1584 -0.7144
   17MOL0     H 2300   4.855   1.079  -0.885  1.8218  0.9019  2.7883
   17MOL0     H 2301   4.719   1.112  -0.768 -1.9182  0.2634  0.5652
   17MOL0     H 2302   4.637   1.186  -0.992  1.4867 -0.0518 -2.6463
   17MOL0     H 2303   4.687   1.330  -0.906 -3.1551  0.4404 -4.3590
   17MOL0     H 2304   4.813   1.481  -0.947 -1.3298 -0.0369  0.2763
   17MOL0     H 2305   4.709   1.793  -1.094 -0.6272 -1.4243 -0.0242
   17MOL0     H 2306   4.887   1.813  -1.049  0.0786  0.0567 -0.3328
   17MOL0     H 2307   4.774   1.730  -0.944  0.5414 -1.2020  0.4650
   17MOL0     H 2308   4.682   1.960  -1.270  1.1751 -0.4248 -1.1629
   17MOL0     H 2309   4.651   2.183  -1.325  2.0746 -3.2046  2.0498
   17MOL0     H 2310   4.642   2.382  -1.422  3.3920 -1.5698  0.7373
   17MOL0     H 2311   4.750   2.398  -1.557 -0.0048 -0.1223 -0.7440
   17MOL0     H 2312   4.478   2.484  -1.636  0.6123  1.0219 -1.1600
   17MOL0     H 2313   4.540   2.578  -1.510 -1.0123  0.6358 -0.8146
   17MOL0     H 2314   4.698   2.512  -1.753  0.8392 -1.0906  2.9774
   17MOL0     H 2315   4.718   2.648  -1.645  2.0792 -3.1474  1.0378
   17MOL0     H 2316   4.514   2.748  -1.726 -2.3089 -0.9672 -0.6358
   17MOL0     H 2317   4.474   2.608  -1.828  0.4728  0.7413 -1.8385
   17MOL0     H 2318   4.730   2.758  -1.870 -2.1658  1.3127  3.3699
   17MOL0     H 2319   4.629   2.655  -1.986 -1.2292  0.3211 -0.7121
   17MOL0     H 2320   4.590   2.929  -1.893 -0.3591 -1.2409  1.7492
   17MOL0     H 2321   4.451   2.836  -1.970 -0.1408  0.7927 -0.4250
   17MOL0     H 2322   4.571   2.841  -2.174 -0.5189  0.8890 -0.9214
   17MOL0     H 2323   4.725   2.887  -2.106 -1.1796  0.2080 -0.5391
   17MOL0     H 2324   4.582   3.109  -2.038 -0.6837  1.9348 -2.5781
   17MOL0     H 2325   4.479   3.045  -2.151  0.4088  2.7505 -1.1612
   17MOL0     H 2326   4.632   2.097  -1.740  4.4046  2.1029 -0.8475
   17MOL0     H 2327   4.688   1.851  -1.682  1.6471  2.3472 -2.4451
   17MOL0     H 2328   4.859   1.493  -1.448  0.7176  0.1856  0.1796
   17MOL0     H 2329   4.840   1.276  -1.313 -2.3570 -1.2081  0.8606
   17MOL0     H 2330   5.282   1.125   0.548  0.4861  1.1671  1.4609
   17MOL0     H 2331   5.481   1.230   0.640  3.1376 -2.1466 -0.3048
   17MOL0     H 2332   6.006   1.516   0.361  3.0453  1.0801  0.9083
   17MOL0     H 2333   6.190   1.594   0.485 -1.5130  0.1708 -2.3777
   17MOL0     H 2334   6.139   1.847   0.721 -0.6120 -1.1219 -0.8272
   17MOL0     H 2335   6.090   1.804   0.884  0.6497  1.2210  0.5856
   17MOL0     H 2336   6.270   1.956   0.889  0.1796 -0.2185 -1.2173
   17MOL0     H 2337   6.378   1.859   0.816 -0.6625  2.0949 -1.2849
   17MOL0     H 2338   6.233   1.735   1.068 -0.9358  2.4119 -0.6006
   17MOL0     H 2339   6.396   1.699   1.000  1.5480  0.7211  2.1336
   17MOL0     H 2340   6.452   1.944   1.060  0.4174  1.8415  2.8079
   17MOL0     H 2341   6.429   1.828   1.193  0.1215  0.4335  0.2883
   17MOL0     H 2342   6.149   2.114   1.309 -0.0920  2.1470 -1.3700
   17MOL0     H 2343   5.975   1.606   0.847 -0.1408  0.8739 -0.4380
   17MOL0     H 2344   5.665   1.583   0.736  1.1271  0.5882 -1.6926
   17MOL0     H 2345   5.705   1.412   0.760 -1.7754  0.7705 -1.0728
   17MOL0     H 2346   5.770   1.528   0.868 -1.4043 -1.9699  0.8264
   18MOL0     O 2347   3.149  10.109   7.403  0.3769 -0.3094  0.0670
   18MOL0     C 2348   3.127   9.990   7.429  0.1619 -1.1276 -0.2717
   18MOL0     O 2349   3.176   9.888   7.356  0.3892  0.3356 -0.0818
   18MOL0     C 2350   3.269   9.924   7.263 -0.1901 -0.8719 -0.2511
   18MOL0     C 2351   3.400   9.942   7.309 -1.0592 -0.7607 -0.1231
   18MOL0     C 2352   3.496   9.980   7.215  1.0405  0.2864  0.2256
   18MOL0     C 2353   3.452  10.013   7.085  0.0705  0.2962  0.7540
   18MOL0     O 2354   3.549  10.072   7.005  0.5147  0.9825 -0.0035
   18MOL0     C 2355   3.513  10.142   6.887  0.1874 -0.2537  0.6124
   18MOL0     C 2356   3.533  10.051   6.764  1.2230  0.3860  0.3799
   18MOL0     C 2357   3.654   9.958   6.768  0.0678 -0.3661  0.4141
   18MOL0     C 2358   3.623   9.826   6.849 -0.9638  0.4119  0.8831
   18MOL0     C 2359   3.679   9.702   6.777  0.1513 -0.6430  0.2471
   18MOL0     C 2360   3.607   9.667   6.636 -0.6765  0.0808 -0.6858
   18MOL0     C 2361   3.456   9.637   6.641  0.3390  0.1053 -0.3513
   18MOL0     C 2362   3.419   9.518   6.734  0.3831 -0.5269  0.2849
   18MOL0     N 2363   3.281   9.531   6.773 -0.5874  0.1283 -0.4617
   18MOL0     C 2364   3.234   9.619   6.871 -0.2572 -0.3651  0.4122
   18MOL0     C 2365   3.107   9.580   6.899  0.2990 -0.2654 -0.5304
   18MOL0     C 2366   3.015   9.648   6.994  0.1545  0.0137  0.6760
   18MOL0     C 2367   3.042   9.605   7.142 -0.2629  0.0587  0.5345
   18MOL0     C 2368   3.050   9.446   7.150 -0.1738 -0.7783 -0.4018
   18MOL0     C 2369   3.054   9.417   7.302 -0.0955 -0.2738  0.6693
   18MOL0     O 2370   3.121   9.512   7.389  0.6065 -0.2333  0.1416
   18MOL0     C 2371   3.095   9.523   7.518  0.0943 -0.2264 -0.1861
   18MOL0     C 2372   3.166   9.619   7.592 -0.0520  0.3211  0.0639
   18MOL0     C 2373   3.147   9.639   7.732 -0.8822  0.9389  0.1260
   18MOL0     C 2374   3.235   9.737   7.807  0.2780  0.0600 -0.0098
   18MOL0     C 2375   3.057   9.558   7.796 -0.1673  0.2079 -0.3864
   18MOL0     C 2376   3.026   9.562   7.938  1.0200 -0.2847  0.6203
   18MOL0     O 2377   2.894   9.544   7.969 -0.6474  0.0016  0.0641
   18MOL0     C 2378   2.844   9.526   8.098  0.5495 -0.7643 -0.1790
   18MOL0     C 2379   2.715   9.575   8.103 -0.6171  0.9556 -0.9040
   18MOL0     C 2380   2.651   9.560   8.228  0.1267 -0.0442  1.2240
   18MOL0     C 2381   2.723   9.509   8.339  1.7054 -0.2036 -0.7564
   18MOL0     O 2382   2.657   9.502   8.457  0.8144  0.3386 -0.4098
   18MOL0     C 2383   2.731   9.565   8.563 -0.9828  0.7499 -0.8864
   18MOL0     C 2384   2.651   9.681   8.606 -0.6998 -0.2510 -0.0300
   18MOL0     C 2385   2.722   9.756   8.724  0.0884  1.1011 -0.2655
   18MOL0     C 2386   2.619   9.854   8.774  0.1598 -0.9168  0.5563
   18MOL0     C 2387   2.642   9.893   8.917 -1.4073 -0.1894 -0.3910
   18MOL0     C 2388   2.591   9.789   9.016  0.0847  0.3566  0.0495
   18MOL0     C 2389   2.651   9.810   9.162 -0.5238  0.6944  0.0525
   18MOL0     C 2390   2.606   9.694   9.251  0.3351  0.0944  0.2491
   18MOL0    Cl 2391   2.694   9.692   9.400 -0.1880 -0.1983 -0.2863
   18MOL0     C 2392   2.849   9.453   8.327 -1.1140 -0.3205 -0.2663
   18MOL0     C 2393   2.906   9.458   8.203  0.6820  0.3919  0.5090
   18MOL0     O 2394   3.123   9.566   8.010 -0.5955 -0.4465 -0.2111
   18MOL0     C 2395   2.982   9.460   7.725 -0.4573  0.9033  0.8043
   18MOL0     C 2396   3.001   9.442   7.586  0.7739 -0.3340 -0.3650
   18MOL0     N 2397   3.069   9.484   6.811  0.4244  0.7572  0.5585
   18MOL0     N 2398   3.175   9.452   6.745  0.3947  0.7370 -0.0776
   18MOL0     C 2399   3.311   9.997   7.042  0.4466  0.8820 -0.0045
   18MOL0     C 2400   3.220   9.948   7.133 -0.2947 -0.6300 -0.7600
   18MOL0     C 2401   3.012   9.964   7.523  0.1827  1.0495 -0.4296
   18MOL0     C 2402   2.931   9.857   7.491  0.9554  0.3977  0.4382
   18MOL0     C 2403   2.817   9.824   7.567  0.3109 -0.1800 -0.6659
   18MOL0     C 2404   2.782   9.910   7.672  0.4420  0.9937 -0.3033
   18MOL0     O 2405   2.668   9.875   7.735 -0.3627 -0.5631  0.5584
   18MOL0     C 2406   2.611   9.955   7.842 -0.1103  0.0941  0.6651
   18MOL0     C 2407   2.683   9.945   7.973  0.2571  0.1581  0.2621
   18MOL0     C 2408   2.588   9.939   8.091  0.6758  0.0750 -0.2081
   18MOL0     C 2409   2.661   9.933   8.228  0.8448 -0.5361  0.8819
   18MOL0     C 2410   2.577   9.987   8.335  0.6328 -0.0295  0.2607
   18MOL0     C 2411   2.503  10.015   8.430  0.5498  0.1506 -0.3710
   18MOL0     C 2412   2.858  10.018   7.696 -0.4465 -0.6099  0.0573
   18MOL0     C 2413   2.973  10.047   7.624 -0.6247 -0.5255 -0.8288
   18MOL0     C 2414   3.054  10.159   7.681 -0.2923 -0.4910  0.3361
   18MOL0     H 2415   3.424   9.942   7.414  3.9433  2.1099 -0.9540
   18MOL0     H 2416   3.602  10.000   7.225  1.2872  2.0522 -3.8241
   18MOL0     H 2417   3.584  10.225   6.876  0.6127 -0.6312  0.4459
   18MOL0     H 2418   3.410  10.178   6.884 -0.6646 -2.4607 -2.9194
   18MOL0     H 2419   3.445   9.985   6.762  1.0274  0.6572 -0.0528
   18MOL0     H 2420   3.534  10.123   6.682  0.8070  2.4995  2.1445
   18MOL0     H 2421   3.673   9.935   6.663  1.2185 -0.8006  0.7016
   18MOL0     H 2422   3.745  10.002   6.809 -0.0299 -1.4328  1.8617
   18MOL0     H 2423   3.674   9.838   6.945  0.3991  0.0363  0.2232
   18MOL0     H 2424   3.519   9.801   6.874 -0.8114  0.1645  1.2588
   18MOL0     H 2425   3.662   9.616   6.843  0.3220 -0.4999  0.4826
   18MOL0     H 2426   3.787   9.712   6.764 -0.0491  1.3754 -0.2013
   18MOL0     H 2427   3.606   9.754   6.570 -2.0438  2.2574  1.9793
   18MOL0     H 2428   3.657   9.584   6.586  3.3773  1.3242  0.9078
   18MOL0     H 2429   3.439   9.617   6.535 -1.7924  2.7706 -0.6006
   18MOL0     H 2430   3.404   9.731   6.661  0.2061 -0.1624  0.6285
   18MOL0     H 2431   3.429   9.424   6.679 -1.9064 -0.6489  0.0028
   18MOL0     H 2432   3.472   9.521   6.830 -0.1774  1.7081  0.5858
   18MOL0     H 2433   3.291   9.692   6.927  0.6419 -0.5783 -0.2025
   18MOL0     H 2434   2.911   9.632   6.963  0.4959  0.7694 -0.9420
   18MOL0     H 2435   3.021   9.755   6.969 -2.2497 -0.4856 -2.8025
   18MOL0     H 2436   3.140   9.639   7.176  0.0142  0.0857 -0.2800
   18MOL0     H 2437   2.956   9.633   7.203 -1.3271  2.3395 -1.8602
   18MOL0     H 2438   2.963   9.407   7.096  0.8790  0.1717 -2.9516
   18MOL0     H 2439   3.145   9.412   7.109  1.8648  2.8126  0.8973
   18MOL0     H 2440   2.945   9.409   7.313 -0.0876 -0.6744  0.4590
   18MOL0     H 2441   3.079   9.312   7.321  1.5327  0.1496  0.9962
   18MOL0     H 2442   3.242   9.673   7.535  1.4013 -0.0468  1.5582
   18MOL0     H 2443   3.319   9.687   7.856  0.0145  0.3804  0.7771
   18MOL0     H 2444   3.173   9.781   7.886  1.6152 -0.2053  1.2278
   18MOL0     H 2445   3.259   9.809   7.729 -0.5281 -2.6808 -3.0495
   18MOL0     H 2446   2.670   9.616   8.014 -3.5486 -1.8261 -0.8776
   18MOL0     H 2447   2.554   9.607   8.240 -0.8053 -1.3471 -0.7419
   18MOL0     H 2448   2.738   9.493   8.646  4.4546  3.0336  1.1030
   18MOL0     H 2449   2.837   9.581   8.543 -0.6546 -1.6622 -1.4452
   18MOL0     H 2450   2.635   9.754   8.527 -2.0050  2.2886  2.3886
   18MOL0     H 2451   2.556   9.641   8.644 -1.5074  2.7006  1.3481
   18MOL0     H 2452   2.810   9.808   8.683 -0.7597  1.7886 -1.2829
   18MOL0     H 2453   2.761   9.687   8.799  0.7558 -3.2398 -4.1656
   18MOL0     H 2454   2.516   9.819   8.765  0.7218 -3.2499  2.1739
   18MOL0     H 2455   2.623   9.946   8.716  0.8543 -0.4499  1.3157
   18MOL0     H 2456   2.742   9.926   8.948 -1.8634  0.6897  0.1719
   18MOL0     H 2457   2.582   9.983   8.931 -0.4929  0.2276  1.2205
   18MOL0     H 2458   2.629   9.691   8.986 -1.8465 -0.1830 -0.8392
   18MOL0     H 2459   2.482   9.777   9.017  0.0355  0.6866 -0.5499
   18MOL0     H 2460   2.612   9.905   9.202 -0.5685 -0.1147  2.0509
   18MOL0     H 2461   2.759   9.797   9.157 -0.5191  0.3604  0.8859
   18MOL0     H 2462   2.643   9.610   9.191  2.6788  0.5268  0.9807
   18MOL0     H 2463   2.499   9.701   9.274  0.4837  0.2426  0.9102
   18MOL0     H 2464   2.898   9.401   8.409 -1.7845 -2.9416 -1.4202
   18MOL0     H 2465   3.005   9.414   8.190  0.1626 -0.8957  0.8282
   18MOL0     H 2466   2.913   9.398   7.782 -1.4059  0.8822 -0.3145
   18MOL0     H 2467   2.951   9.361   7.533 -0.3206 -1.4628  2.2262
   18MOL0     H 2468   3.274  10.008   6.941  0.5566 -1.7192 -0.3968
   18MOL0     H 2469   3.115   9.941   7.109 -0.2742 -2.1500 -0.4933
   18MOL0     H 2470   2.962   9.791   7.410  2.0010  1.6364 -0.2134
   18MOL0     H 2471   2.762   9.732   7.556  1.1759 -0.7335 -0.4559
   18MOL0     H 2472   2.593  10.056   7.804 -1.0276  0.0913  1.0673
   18MOL0     H 2473   2.513   9.912   7.866 -0.5204  0.5520 -0.1507
   18MOL0     H 2474   2.751  10.031   7.976  0.6405  0.0011 -2.2655
   18MOL0     H 2475   2.744   9.855   7.974  1.5071  0.9722  0.5512
   18MOL0     H 2476   2.533  10.033   8.082  2.0636  0.9133 -0.3507
   18MOL0     H 2477   2.511   9.862   8.083  1.8940 -1.0020 -2.8067
   18MOL0     H 2478   2.743  10.005   8.239  0.5443  0.0947 -0.7494
   18MOL0     H 2479   2.705   9.834   8.240  1.2139 -0.6928 -1.3508
   18MOL0     H 2480   2.431  10.034   8.507  0.2158  2.1285 -1.0938
   18MOL0     H 2481   2.841  10.088   7.777  0.4807 -0.6713  0.3257
   18MOL0     H 2482   3.056  10.135   7.788  0.0194  0.2227  0.4996
   18MOL0     H 2483   3.160  10.165   7.653  1.2247 -1.5167  4.9041
   18MOL0     H 2484   2.996  10.247   7.652 -2.0332 -1.8682 -0.5509
   19MOL0     O 2485   3.044   2.249   5.208 -0.5922 -0.0518  0.4604
   19MOL0     C 2486   3.154   2.271   5.161 -0.5770  0.0787 -0.7134
   19MOL0     O 2487   3.266   2.305   5.232  0.5674  0.4227  0.7335
   19MOL0     C 2488   3.269   2.288   5.366 -0.4883 -0.4904 -0.1696
   19MOL0     C 2489   3.317   2.395   5.450 -0.3353 -0.3587  0.8379
   19MOL0     C 2490   3.325   2.393   5.587  1.2306  0.5501 -0.0818
   19MOL0     C 2491   3.276   2.284   5.657 -0.1841  0.3229  0.1226
   19MOL0     O 2492   3.292   2.286   5.793  0.1828  0.7450 -0.1233
   19MOL0     C 2493   3.363   2.167   5.838 -0.7632  0.5306  0.3372
   19MOL0     C 2494   3.338   2.141   5.990  0.1441 -0.9480 -0.0787
   19MOL0     C 2495   3.190   2.134   6.023  0.5835  0.1471 -0.8399
   19MOL0     C 2496   3.121   2.002   5.977 -0.0754  0.1102  1.1874
   19MOL0     C 2497   2.968   1.991   5.997  0.6134 -0.9546  0.0210
   19MOL0     C 2498   2.919   1.983   6.144 -0.2475  0.7338  0.2293
   19MOL0     C 2499   2.775   1.934   6.154 -0.3102  0.5562 -0.5215
   19MOL0     C 2500   2.754   1.902   6.305 -0.1756  0.2002 -0.0692
   19MOL0     N 2501   2.763   2.016   6.403 -0.3631 -0.2052  0.9495
   19MOL0     C 2502   2.712   2.137   6.383 -0.1213 -0.9373 -0.0237
   19MOL0     C 2503   2.723   2.193   6.505 -0.7689 -0.4144 -0.7030
   19MOL0     C 2504   2.665   2.325   6.541  0.0695 -0.3130  0.5868
   19MOL0     C 2505   2.767   2.435   6.557  0.2976  1.0022 -0.3193
   19MOL0     C 2506   2.705   2.570   6.586  0.8226 -0.0399  0.2706
   19MOL0     C 2507   2.643   2.639   6.464 -0.3467  0.2419  0.5417
   19MOL0     O 2508   2.586   2.764   6.511 -1.0027  0.1264 -0.1212
   19MOL0     C 2509   2.551   2.857   6.411  0.5757 -0.8506 -0.3547
   19MOL0     C 2510   2.524   2.998   6.446 -0.9904 -0.7287  0.9194
   19MOL0     C 2511   2.502   3.095   6.343 -0.5620  0.9526 -0.5575
   19MOL0     C 2512   2.520   3.244   6.366 -0.0781  0.1748 -0.2042
   19MOL0     C 2513   2.496   3.042   6.208 -0.1276 -0.9635  0.0074
   19MOL0     C 2514   2.496   3.128   6.080 -0.0731 -0.4874 -0.6596
   19MOL0     O 2515   2.520   3.067   5.966  0.3550 -0.0790 -0.3457
   19MOL0     C 2516   2.516   3.144   5.852  0.0447  0.1133  0.0833
   19MOL0     C 2517   2.631   3.144   5.770  0.1410  0.1523 -0.0063
   19MOL0     C 2518   2.642   3.235   5.667  0.1210  0.2710 -0.1313
   19MOL0     C 2519   2.528   3.302   5.620 -0.2481  0.5019 -0.0374
   19MOL0     O 2520   2.528   3.407   5.532 -0.1905 -0.5397  0.3166
   19MOL0     C 2521   2.617   3.392   5.409  0.2291 -0.2364  0.4032
   19MOL0     C 2522   2.535   3.370   5.277  0.6473  0.3404 -0.1411
   19MOL0     C 2523   2.451   3.498   5.253  0.4253  1.0216 -0.3970
   19MOL0     C 2524   2.378   3.493   5.118 -0.7861 -0.5424  0.0183
   19MOL0     C 2525   2.316   3.626   5.075 -0.0286 -0.8326 -0.2309
   19MOL0     C 2526   2.243   3.612   4.937 -0.6684 -0.0761  0.4016
   19MOL0     C 2527   2.211   3.746   4.892 -1.0514 -0.6357  0.5212
   19MOL0     C 2528   2.191   3.757   4.732  0.0895  0.5179 -0.6306
   19MOL0    Cl 2529   2.043   3.674   4.708 -0.8248 -0.2162  0.0626
   19MOL0     C 2530   2.411   3.283   5.678  0.1713  0.6402 -0.4560
   19MOL0     C 2531   2.396   3.202   5.793  0.2942 -0.2011  0.0646
   19MOL0     O 2532   2.484   3.248   6.086 -0.7944 -0.2546 -0.3025
   19MOL0     C 2533   2.495   2.904   6.183 -1.2108  0.4801  0.0819
   19MOL0     C 2534   2.521   2.811   6.281  1.0740 -0.1412 -0.1457
   19MOL0     N 2535   2.768   2.094   6.592 -1.0560  0.1350 -0.7008
   19MOL0     N 2536   2.794   1.994   6.533  0.0911  0.9209  0.4255
   19MOL0     C 2537   3.226   2.177   5.580 -0.0991 -0.2297  0.3531
   19MOL0     C 2538   3.232   2.177   5.438  0.0529  0.9453 -0.2667
   19MOL0     C 2539   3.165   2.284   5.013 -0.7280  0.5045 -1.1617
   19MOL0     C 2540   3.288   2.334   4.961 -0.0085  0.4628  1.0613
   19MOL0     C 2541   3.304   2.350   4.819 -1.2455  0.4334 -0.0565
   19MOL0     C 2542   3.201   2.316   4.733 -0.6634 -0.6526  0.0624
   19MOL0     O 2543   3.211   2.332   4.600  0.1411 -0.5400  0.5587
   19MOL0     C 2544   3.336   2.366   4.544  0.4349 -0.2529  0.2995
   19MOL0     C 2545   3.309   2.392   4.399 -0.6757  0.7912 -0.7763
   19MOL0     C 2546   3.446   2.409   4.334 -0.6061  0.2674  0.3813
   19MOL0     C 2547   3.441   2.395   4.185 -0.1045 -0.5064 -0.2837
   19MOL0     C 2548   3.579   2.394   4.138 -0.3686  0.4992  0.6870
   19MOL0     C 2549   3.689   2.387   4.083  0.1751 -0.2890  0.6781
   19MOL0     C 2550   3.083   2.265   4.784 -0.1116 -0.0624  0.7150
   19MOL0     C 2551   3.065   2.252   4.922  0.1596 -0.0960  1.0142
   19MOL0     C 2552   2.933   2.179   4.959 -0.3378 -0.1266 -0.7434
   19MOL0     H 2553   3.342   2.488   5.400 -1.9280 -0.9441 -1.1777
   19MOL0     H 2554   3.371   2.473   5.643  0.9201 -0.0290  1.0252
   19MOL0     H 2555   3.466   2.188   5.807 -0.7340  0.4325  0.3643
   19MOL0     H 2556   3.347   2.067   5.795 -1.9047 -0.2457  2.4129
   19MOL0     H 2557   3.397   2.056   6.027  1.5771  0.2849  0.5707
   19MOL0     H 2558   3.370   2.235   6.036  0.7644  0.1116 -2.5111
   19MOL0     H 2559   3.174   2.132   6.131  1.0437  0.6736 -0.7545
   19MOL0     H 2560   3.131   2.219   5.989 -1.2055 -0.0054  1.6622
   19MOL0     H 2561   3.150   1.985   5.873 -0.0175 -1.1128  1.3869
   19MOL0     H 2562   3.171   1.925   6.036  1.5086 -1.3566 -1.8392
   19MOL0     H 2563   2.917   1.909   5.946 -0.2512 -0.5416  0.1906
   19MOL0     H 2564   2.926   2.084   5.958  0.8955 -0.3809  1.0346
   19MOL0     H 2565   2.983   1.916   6.202  1.6871  2.3395  0.0609
   19MOL0     H 2566   2.927   2.080   6.194  4.3165 -0.2516  1.9142
   19MOL0     H 2567   2.758   1.843   6.096 -1.5134  0.9302 -0.7906
   19MOL0     H 2568   2.702   2.009   6.120 -0.5214  0.9130  0.6906
   19MOL0     H 2569   2.653   1.863   6.320  0.0502  0.3847  2.2537
   19MOL0     H 2570   2.827   1.822   6.318  0.8036  1.0041 -0.4911
   19MOL0     H 2571   2.671   2.182   6.293 -0.0507 -2.3827 -0.8151
   19MOL0     H 2572   2.612   2.293   6.631  0.9716 -0.0424  1.2253
   19MOL0     H 2573   2.595   2.360   6.464 -1.1791  2.0163  2.6333
   19MOL0     H 2574   2.819   2.408   6.650 -0.4609 -2.0642 -0.6713
   19MOL0     H 2575   2.844   2.436   6.479  0.6022  2.5578 -0.0269
   19MOL0     H 2576   2.629   2.560   6.664 -1.2246  1.2655 -1.4691
   19MOL0     H 2577   2.782   2.639   6.622  0.5532 -1.2338  3.4736
   19MOL0     H 2578   2.712   2.660   6.382 -1.4247  0.8087 -0.2545
   19MOL0     H 2579   2.556   2.592   6.416 -0.5314  2.5786 -1.6062
   19MOL0     H 2580   2.533   3.028   6.550  1.6964 -2.0670  1.1807
   19MOL0     H 2581   2.523   3.265   6.473 -5.1082  3.0387 -0.3112
   19MOL0     H 2582   2.434   3.296   6.323 -0.2687 -0.3966 -0.5351
   19MOL0     H 2583   2.616   3.284   6.333  0.5597 -0.7664  0.4624
   19MOL0     H 2584   2.713   3.084   5.806  0.7198  0.8304 -0.1789
   19MOL0     H 2585   2.745   3.244   5.633  0.1053 -0.9132 -0.5665
   19MOL0     H 2586   2.674   3.486   5.401  0.7872 -0.4349  1.7517
   19MOL0     H 2587   2.684   3.305   5.411 -0.6687 -1.0246 -1.5524
   19MOL0     H 2588   2.596   3.344   5.190  0.5276 -0.9097  0.1295
   19MOL0     H 2589   2.463   3.292   5.301 -2.4487  3.1527  0.4538
   19MOL0     H 2590   2.511   3.589   5.256 -0.0596  1.3421 -0.3915
   19MOL0     H 2591   2.378   3.501   5.335  2.8824 -2.0198  2.2290
   19MOL0     H 2592   2.298   3.423   5.142 -0.1525 -0.8819  1.1741
   19MOL0     H 2593   2.447   3.462   5.039  2.5521  1.0988  2.0879
   19MOL0     H 2594   2.250   3.668   5.151 -1.2694 -0.1192 -1.6503
   19MOL0     H 2595   2.401   3.695   5.072  0.3721 -1.3212 -0.3541
   19MOL0     H 2596   2.159   3.543   4.949 -2.3150  2.1179  2.3229
   19MOL0     H 2597   2.319   3.560   4.878 -1.6581 -0.5960 -0.4452
   19MOL0     H 2598   2.287   3.821   4.918  0.1108 -2.2708  2.1196
   19MOL0     H 2599   2.123   3.767   4.953 -1.2441 -4.3870  1.7783
   19MOL0     H 2600   2.276   3.708   4.685  2.2481  2.6151  0.8347
   19MOL0     H 2601   2.197   3.844   4.666 -3.4656  1.3607 -0.1005
   19MOL0     H 2602   2.321   3.327   5.637 -1.9883 -2.5097  0.4554
   19MOL0     H 2603   2.306   3.214   5.852 -0.7175 -2.3948 -0.9163
   19MOL0     H 2604   2.471   2.861   6.087  0.4070  1.2971 -0.7265
   19MOL0     H 2605   2.490   2.708   6.262 -0.9366  0.3131  0.3757
   19MOL0     H 2606   3.183   2.089   5.626  0.1802  0.2179  1.5177
   19MOL0     H 2607   3.186   2.095   5.383 -1.1042  1.6771 -0.4373
   19MOL0     H 2608   3.367   2.338   5.035 -0.7883  1.0114  1.8885
   19MOL0     H 2609   3.396   2.392   4.780 -1.7154 -1.3209 -3.3669
   19MOL0     H 2610   3.379   2.456   4.589 -0.0450 -0.1661  0.5980
   19MOL0     H 2611   3.409   2.286   4.555  2.6179  1.9034  3.0589
   19MOL0     H 2612   3.241   2.477   4.386 -2.4698 -0.6381 -1.2734
   19MOL0     H 2613   3.250   2.306   4.365  1.4029 -0.5877 -1.0713
   19MOL0     H 2614   3.501   2.497   4.369 -0.4980  0.3586 -0.0150
   19MOL0     H 2615   3.502   2.320   4.366 -2.0377 -1.3933 -1.4400
   19MOL0     H 2616   3.379   2.469   4.134  1.9349  0.0474 -2.1080
   19MOL0     H 2617   3.395   2.299   4.161 -0.2506 -0.3299 -0.7217
   19MOL0     H 2618   3.788   2.381   4.042 -0.8198  0.7071 -2.0866
   19MOL0     H 2619   2.996   2.238   4.725  0.4694 -0.3334 -0.0358
   19MOL0     H 2620   2.867   2.247   5.013  0.5632  0.0775  0.1249
   19MOL0     H 2621   2.889   2.156   4.862  0.2528 -1.6160 -0.6987
   19MOL0     H 2622   2.954   2.090   5.019  1.5127  0.2506 -0.7591
   20MOL0     O 2623   3.820   4.839   4.322  0.6952  1.7073  0.2039
   20MOL0     C 2624   3.909   4.880   4.246 -0.2919  0.5313 -0.5705
   20MOL0     O 2625   3.900   4.999   4.187 -0.3003  0.5061  0.5462
   20MOL0     C 2626   3.850   4.990   4.059  0.7521  0.6694 -0.2838
   20MOL0     C 2627   3.714   4.997   4.044 -0.1058 -0.7494  0.7114
   20MOL0     C 2628   3.658   4.997   3.915  0.1235 -0.7723  0.5839
   20MOL0     C 2629   3.739   4.985   3.794 -0.5926 -1.0042 -0.4065
   20MOL0     O 2630   3.692   4.979   3.667 -0.3599 -0.1074 -0.2514
   20MOL0     C 2631   3.553   4.958   3.644  0.0766 -0.0243 -0.0959
   20MOL0     C 2632   3.516   4.960   3.491 -0.5946 -0.4475 -1.4580
   20MOL0     C 2633   3.641   5.003   3.409  0.0966  0.4512  0.6681
   20MOL0     C 2634   3.598   4.996   3.259  0.4522 -1.2112 -0.1488
   20MOL0     C 2635   3.708   5.039   3.164 -0.4305 -0.0569 -0.3737
   20MOL0     C 2636   3.768   5.180   3.193 -0.6626 -0.7784 -0.2713
   20MOL0     C 2637   3.876   5.219   3.091  0.0171  0.5469 -0.6941
   20MOL0     C 2638   3.916   5.372   3.083 -0.4778  0.8207 -1.0188
   20MOL0     N 2639   4.053   5.395   3.053 -0.2968  0.1921  0.6417
   20MOL0     C 2640   4.160   5.364   3.138 -0.0221  0.0278 -0.6091
   20MOL0     C 2641   4.270   5.423   3.086 -0.6390 -0.1212  0.0311
   20MOL0     C 2642   4.409   5.396   3.136  0.1438 -0.3584 -0.8444
   20MOL0     C 2643   4.451   5.473   3.263  0.2159 -0.7906  0.4060
   20MOL0     C 2644   4.468   5.621   3.238 -0.8357  0.2103 -0.7935
   20MOL0     C 2645   4.549   5.700   3.358  0.2498  0.0639 -0.8298
   20MOL0     O 2646   4.469   5.691   3.487 -0.4377  1.0409  0.7439
   20MOL0     C 2647   4.533   5.702   3.606 -0.4704 -0.6004  0.3008
   20MOL0     C 2648   4.456   5.691   3.722  0.1728 -0.1312  0.7455
   20MOL0     C 2649   4.517   5.704   3.851  0.3574 -0.4547  0.3386
   20MOL0     C 2650   4.422   5.684   3.972 -0.2346  0.1855  0.5512
   20MOL0     C 2651   4.657   5.737   3.865  0.0552  0.4256  0.3432
   20MOL0     C 2652   4.726   5.765   3.995  0.6031  0.2841  0.6927
   20MOL0     O 2653   4.844   5.821   3.991  0.5249 -0.0739 -0.7391
   20MOL0     C 2654   4.927   5.846   4.093  0.7181  0.2349 -0.6528
   20MOL0     C 2655   5.026   5.936   4.068 -0.0732 -0.3451  0.1853
   20MOL0     C 2656   5.128   5.959   4.155 -0.4486 -0.6457  0.1747
   20MOL0     C 2657   5.132   5.899   4.283  0.0960  0.0636  1.7897
   20MOL0     O 2658   5.233   5.927   4.364  1.0377 -0.6054  1.0014
   20MOL0     C 2659   5.219   6.018   4.476 -0.2777  0.8191  1.1308
   20MOL0     C 2660   5.213   6.168   4.435  0.3807  0.3774 -0.0616
   20MOL0     C 2661   5.066   6.206   4.425  0.9942  0.0547 -0.2514
   20MOL0     C 2662   5.060   6.347   4.376  0.1256 -0.9165  0.3839
   20MOL0     C 2663   4.921   6.415   4.405 -0.5244  0.0945 -0.2946
   20MOL0     C 2664   4.930   6.572   4.362  0.7204  0.6618  0.1002
   20MOL0     C 2665   4.805   6.644   4.390 -0.7426  0.7368 -0.4261
   20MOL0     C 2666   4.829   6.794   4.386 -0.4626  0.5109 -0.3104
   20MOL0    Cl 2667   4.670   6.876   4.412 -0.3322 -0.4620 -0.2934
   20MOL0     C 2668   5.034   5.809   4.313  0.9130  0.3810 -0.2956
   20MOL0     C 2669   4.920   5.790   4.226  1.0000  1.3087 -0.2739
   20MOL0     O 2670   4.663   5.741   4.096 -0.0617 -0.0979  0.2325
   20MOL0     C 2671   4.730   5.751   3.745 -0.7766  0.0215  0.0415
   20MOL0     C 2672   4.674   5.727   3.616 -0.1009 -0.5258 -0.2993
   20MOL0     N 2673   4.227   5.484   2.964  0.2079  0.4682 -0.0439
   20MOL0     N 2674   4.097   5.469   2.944  0.1358  0.8692  0.4410
   20MOL0     C 2675   3.881   4.965   3.813  0.8555 -1.1879  0.2162
   20MOL0     C 2676   3.932   4.961   3.948  0.6023  0.2077 -1.0909
   20MOL0     C 2677   4.040   4.805   4.239 -1.1346 -0.4633  0.3336
   20MOL0     C 2678   4.155   4.875   4.189  0.5321  0.5959 -0.0857
   20MOL0     C 2679   4.285   4.818   4.192 -0.0326 -0.9789  0.5831
   20MOL0     C 2680   4.299   4.684   4.238  0.6365 -0.3356  0.6448
   20MOL0     O 2681   4.422   4.622   4.252  0.1489 -0.2449 -0.0280
   20MOL0     C 2682   4.548   4.699   4.273 -0.8548 -0.9916 -0.5502
   20MOL0     C 2683   4.565   4.763   4.414 -0.3512  0.7492  0.0337
   20MOL0     C 2684   4.627   4.655   4.509  0.5207  0.1922  0.6630
   20MOL0     C 2685   4.516   4.542   4.542 -0.7500 -0.9425 -0.6024
   20MOL0     C 2686   4.548   4.416   4.465 -0.5038  0.0364  0.1489
   20MOL0     C 2687   4.585   4.326   4.383  1.2038 -0.4943 -0.4789
   20MOL0     C 2688   4.183   4.620   4.268 -0.1491  0.2288 -0.4427
   20MOL0     C 2689   4.058   4.670   4.269  0.1398  0.5681  0.0066
   20MOL0     C 2690   3.950   4.587   4.313  0.2956  1.1457  0.4953
   20MOL0     H 2691   3.659   5.015   4.136  1.2992  2.0134  1.1224
   20MOL0     H 2692   3.552   5.016   3.921  0.1904  1.0688 -2.1720
   20MOL0     H 2693   3.493   5.030   3.700  1.0629  0.3782  0.4456
   20MOL0     H 2694   3.534   4.859   3.686 -1.8952 -0.5203 -1.9409
   20MOL0     H 2695   3.479   4.859   3.470  0.0660 -0.9537 -0.2858
   20MOL0     H 2696   3.430   5.025   3.472 -1.8407 -1.3677  0.6601
   20MOL0     H 2697   3.685   5.100   3.433 -2.6444  1.6814  1.0838
   20MOL0     H 2698   3.724   4.936   3.434 -0.3134 -1.2241 -2.0562
   20MOL0     H 2699   3.553   4.900   3.231 -1.0962 -0.7889  0.7991
   20MOL0     H 2700   3.513   5.063   3.245 -0.2078 -2.1382 -0.7309
   20MOL0     H 2701   3.681   5.016   3.061  0.0602 -5.7864  0.4402
   20MOL0     H 2702   3.779   4.957   3.180 -0.6122 -0.5053 -1.7632
   20MOL0     H 2703   3.685   5.251   3.184 -1.3249 -0.8458  3.4609
   20MOL0     H 2704   3.811   5.188   3.294  0.3990  1.2473 -0.8315
   20MOL0     H 2705   3.840   5.202   2.989  0.6599 -0.1257 -0.8207
   20MOL0     H 2706   3.966   5.159   3.106 -2.3117 -2.7747  1.5083
   20MOL0     H 2707   3.860   5.417   3.001 -1.7752 -0.7090 -1.0277
   20MOL0     H 2708   3.891   5.408   3.184  1.3271  0.3221 -0.3594
   20MOL0     H 2709   4.149   5.297   3.223 -1.2661 -1.0713 -1.5860
   20MOL0     H 2710   4.476   5.410   3.050  0.7495  1.1805 -0.1694
   20MOL0     H 2711   4.419   5.293   3.171  0.5399  0.2313  0.8687
   20MOL0     H 2712   4.372   5.454   3.335  2.2825 -4.1424  2.0373
   20MOL0     H 2713   4.540   5.424   3.305 -1.0395 -1.8188  1.9623
   20MOL0     H 2714   4.529   5.646   3.151  0.8227  2.3425  0.8699
   20MOL0     H 2715   4.370   5.666   3.219 -2.4357 -0.9166  3.5591
   20MOL0     H 2716   4.647   5.653   3.362  1.2337  2.0396 -0.4835
   20MOL0     H 2717   4.568   5.806   3.340 -1.3398  0.2779 -1.4395
   20MOL0     H 2718   4.351   5.666   3.721  0.3648 -0.9835  0.7305
   20MOL0     H 2719   4.317   5.665   3.946  0.5531 -1.5591 -1.6728
   20MOL0     H 2720   4.423   5.771   4.039 -0.6746  0.1102  0.6639
   20MOL0     H 2721   4.466   5.597   4.021  0.0264 -0.2993 -0.5372
   20MOL0     H 2722   5.027   5.992   3.975 -1.4513  1.3371  1.1289
   20MOL0     H 2723   5.212   6.023   4.128 -1.3046  1.5877  2.4136
   20MOL0     H 2724   5.129   5.993   4.534  0.4320  1.2951  2.4859
   20MOL0     H 2725   5.308   5.989   4.532 -1.3536  0.2361  2.6096
   20MOL0     H 2726   5.257   6.236   4.509 -2.0234 -0.8808  2.7352
   20MOL0     H 2727   5.256   6.179   4.336 -3.1786 -0.9792 -1.9321
   20MOL0     H 2728   5.025   6.197   4.526 -0.4594  0.7839 -0.7399
   20MOL0     H 2729   5.024   6.137   4.351  1.2547  1.7388 -2.0449
   20MOL0     H 2730   5.092   6.361   4.272 -2.0718  0.3366 -0.1850
   20MOL0     H 2731   5.142   6.403   4.422  1.1418 -2.1157  0.1039
   20MOL0     H 2732   4.840   6.356   4.360  0.9090 -2.2517 -0.0024
   20MOL0     H 2733   4.912   6.413   4.514  0.7924  0.0645 -0.1730
   20MOL0     H 2734   4.949   6.578   4.255  0.0319  1.8491  0.0261
   20MOL0     H 2735   5.017   6.628   4.400  1.0203  2.3455 -2.7235
   20MOL0     H 2736   4.757   6.613   4.484  0.4849  0.4273  0.1218
   20MOL0     H 2737   4.729   6.626   4.313  1.4030 -0.9740 -2.2781
   20MOL0     H 2738   4.867   6.822   4.287  0.9176  1.2684  0.4165
   20MOL0     H 2739   4.906   6.823   4.457  0.4783  3.4922 -2.3740
   20MOL0     H 2740   5.022   5.763   4.411 -0.1125 -0.5055 -0.8172
   20MOL0     H 2741   4.845   5.715   4.248  1.2297  1.4119  0.9334
   20MOL0     H 2742   4.834   5.779   3.754 -1.2574  1.3471  2.4000
   20MOL0     H 2743   4.744   5.740   3.534 -0.4414 -0.4453 -0.5816
   20MOL0     H 2744   3.951   4.966   3.730 -1.2011 -2.7610 -1.6425
   20MOL0     H 2745   4.036   4.932   3.957  1.5291  3.1447 -1.1782
   20MOL0     H 2746   4.150   4.979   4.159  0.7259  1.2021  1.8143
   20MOL0     H 2747   4.364   4.877   4.146 -1.3480  0.0926 -0.3885
   20MOL0     H 2748   4.632   4.637   4.241  1.3188  2.2902 -1.6952
   20MOL0     H 2749   4.549   4.780   4.200 -0.9885 -0.3202  0.1765
   20MOL0     H 2750   4.471   4.786   4.465  1.0200 -1.5482  4.0404
   20MOL0     H 2751   4.616   4.859   4.418 -0.9550  1.1344 -1.0539
   20MOL0     H 2752   4.724   4.619   4.472  2.0166  1.3876  3.1787
   20MOL0     H 2753   4.650   4.710   4.600 -0.1634  1.5750  0.0285
   20MOL0     H 2754   4.422   4.596   4.527  0.2908  2.0936  2.3228
   20MOL0     H 2755   4.528   4.530   4.651 -0.2038  1.7018 -0.3045
   20MOL0     H 2756   4.619   4.244   4.323  2.0665  0.6084 -1.5615
   20MOL0     H 2757   4.186   4.514   4.289  1.6268  0.5098  1.0542
   20MOL0     H 2758   3.898   4.627   4.401 -0.0937 -1.9034  1.7854
   20MOL0     H 2759   3.875   4.558   4.239  0.5960 -0.2413  0.7085
   20MOL0     H 2760   3.979   4.490   4.354  0.7944  1.3591  0.6515
   21MOL0     O 2761   4.667   1.351   3.502  1.1217 -0.1511 -0.0783
   21MOL0     C 2762   4.720   1.310   3.607  0.2775 -0.5354 -0.8881
   21MOL0     O 2763   4.784   1.392   3.696 -0.1609 -0.3417 -0.5102
   21MOL0     C 2764   4.763   1.520   3.676 -0.3272  0.1257  0.2047
   21MOL0     C 2765   4.824   1.595   3.580  0.6579  0.3908 -0.4043
   21MOL0     C 2766   4.797   1.731   3.566  0.4501  0.1588 -0.1381
   21MOL0     C 2767   4.698   1.785   3.647 -0.0669 -0.4934  0.8028
   21MOL0     O 2768   4.657   1.914   3.624 -0.5431  0.4387  0.1672
   21MOL0     C 2769   4.716   2.016   3.699  0.4858 -0.9281 -0.6922
   21MOL0     C 2770   4.655   2.150   3.648 -0.5113 -0.0086  0.4105
   21MOL0     C 2771   4.710   2.268   3.725  0.3499  0.1589 -0.2848
   21MOL0     C 2772   4.699   2.388   3.637 -1.3825  0.0432 -0.3384
   21MOL0     C 2773   4.765   2.509   3.694  0.0455  0.6600 -1.4279
   21MOL0     C 2774   4.725   2.638   3.622  0.0045 -0.0518  0.4126
   21MOL0     C 2775   4.847   2.723   3.591  0.6355 -0.8959 -0.7400
   21MOL0     C 2776   4.823   2.802   3.461  0.2200  0.2427 -0.6646
   21MOL0     N 2777   4.697   2.885   3.459  0.2672  0.5194  0.7617
   21MOL0     C 2778   4.669   2.978   3.555  0.2454  0.2679 -0.5233
   21MOL0     C 2779   4.563   3.040   3.509 -0.4444 -0.5946 -1.7455
   21MOL0     C 2780   4.500   3.151   3.580  0.1274 -0.2079 -0.0419
   21MOL0     C 2781   4.470   3.128   3.727 -0.6313 -0.5830 -1.0117
   21MOL0     C 2782   4.370   3.010   3.753  0.7876 -0.5719 -0.0717
   21MOL0     C 2783   4.356   2.985   3.909 -0.9562 -0.1967  1.1919
   21MOL0     O 2784   4.240   2.909   3.920  0.0148 -0.1536  0.9606
   21MOL0     C 2785   4.237   2.774   3.938  0.2522  0.3193  0.0360
   21MOL0     C 2786   4.343   2.682   3.931  0.3921  0.5285  1.0790
   21MOL0     C 2787   4.322   2.544   3.940 -0.6655 -0.3104 -0.0090
   21MOL0     C 2788   4.434   2.452   3.931  0.3835 -0.4720 -0.1301
   21MOL0     C 2789   4.187   2.497   3.962 -0.0835 -0.3436  0.4975
   21MOL0     C 2790   4.144   2.366   3.944 -0.0379 -0.2003 -0.4538
   21MOL0     O 2791   4.215   2.267   3.993 -1.2919 -0.5645  0.1225
   21MOL0     C 2792   4.181   2.130   3.997  0.6897 -0.2986  0.1651
   21MOL0     C 2793   4.280   2.046   4.041 -0.2688 -0.5221  1.0390
   21MOL0     C 2794   4.266   1.907   4.058  0.8221 -0.3683 -0.8310
   21MOL0     C 2795   4.149   1.848   4.034  0.1990 -0.0025 -0.0497
   21MOL0     O 2796   4.133   1.713   4.036  0.2746 -0.0647  0.2512
   21MOL0     C 2797   4.203   1.630   4.139  0.3172 -0.8729  0.2422
   21MOL0     C 2798   4.156   1.492   4.169  0.2613 -0.8643 -0.4099
   21MOL0     C 2799   4.223   1.393   4.078 -0.2692  0.3285 -0.4770
   21MOL0     C 2800   4.143   1.261   4.074 -0.1451  0.2766 -0.5531
   21MOL0     C 2801   4.231   1.131   4.082  0.9295  0.6037 -0.6960
   21MOL0     C 2802   4.145   1.020   4.039 -0.5377  0.1282 -0.3991
   21MOL0     C 2803   4.211   0.885   4.030 -0.2038 -0.3697  0.3058
   21MOL0     C 2804   4.143   0.768   4.103 -0.0631 -0.0954 -1.1722
   21MOL0    Cl 2805   4.246   0.627   4.067  0.1870  0.0381 -0.1957
   21MOL0     C 2806   4.042   1.930   3.982 -0.6359 -0.1849 -0.4199
   21MOL0     C 2807   4.055   2.070   3.958  0.4771  0.3193  0.1751
   21MOL0     O 2808   4.036   2.353   3.883  0.2618  0.2411  0.2526
   21MOL0     C 2809   4.089   2.597   3.979  0.2588  0.3466 -0.9215
   21MOL0     C 2810   4.111   2.731   3.973 -0.5747  0.5084 -0.1033
   21MOL0     N 2811   4.520   2.980   3.388  0.0071  0.2062  0.0713
   21MOL0     N 2812   4.600   2.883   3.366  0.4161 -0.6484 -0.7725
   21MOL0     C 2813   4.624   1.703   3.736  0.5054  0.3203  0.4553
   21MOL0     C 2814   4.655   1.571   3.749 -0.6029  0.4948 -0.3686
   21MOL0     C 2815   4.715   1.170   3.648 -0.0431 -0.4084 -0.0034
   21MOL0     C 2816   4.811   1.086   3.586 -0.2477 -0.7229 -0.2878
   21MOL0     C 2817   4.799   0.951   3.608  0.5791 -0.1475  0.1122
   21MOL0     C 2818   4.694   0.894   3.689  0.5644  0.7957  0.4012
   21MOL0     O 2819   4.701   0.755   3.701  0.5198  0.4996 -0.4217
   21MOL0     C 2820   4.589   0.688   3.770 -0.0765 -0.1532 -0.3069
   21MOL0     C 2821   4.596   0.529   3.773 -0.4965  0.1996  0.2971
   21MOL0     C 2822   4.594   0.466   3.634 -0.7853  0.1993 -0.7440
   21MOL0     C 2823   4.469   0.460   3.540  0.4878  0.6294 -0.9133
   21MOL0     C 2824   4.377   0.353   3.574 -0.0242 -1.0907 -0.1649
   21MOL0     C 2825   4.308   0.263   3.593 -0.2070  0.4803  0.6977
   21MOL0     C 2826   4.609   0.974   3.752 -0.0580 -0.2772 -0.3673
   21MOL0     C 2827   4.614   1.117   3.727  0.5045  1.0700  0.4968
   21MOL0     C 2828   4.528   1.201   3.808  0.5632  0.5573 -0.4613
   21MOL0     H 2829   4.899   1.551   3.516  1.4488  1.7026 -0.4221
   21MOL0     H 2830   4.854   1.776   3.486 -0.7396  0.5938 -0.7776
   21MOL0     H 2831   4.818   2.036   3.663  0.7134  2.4707  1.4104
   21MOL0     H 2832   4.706   2.006   3.807 -2.5457  1.4312 -0.6182
   21MOL0     H 2833   4.651   2.178   3.542 -2.3937  0.3472  0.5344
   21MOL0     H 2834   4.548   2.140   3.667 -0.5685 -1.1919 -0.4202
   21MOL0     H 2835   4.650   2.262   3.816  2.0138 -4.5127  0.7980
   21MOL0     H 2836   4.816   2.270   3.753  0.1135 -2.4252  1.1112
   21MOL0     H 2837   4.748   2.364   3.543 -1.0541  1.8284 -0.6568
   21MOL0     H 2838   4.592   2.403   3.618 -1.9183 -2.7776 -0.0425
   21MOL0     H 2839   4.874   2.500   3.695 -0.0496 -0.9704  0.5637
   21MOL0     H 2840   4.743   2.534   3.798  0.6919 -0.5680 -0.9678
   21MOL0     H 2841   4.672   2.625   3.527  4.3551 -4.4301 -1.9311
   21MOL0     H 2842   4.655   2.697   3.681  0.5839 -0.6764  1.7670
   21MOL0     H 2843   4.937   2.661   3.580  0.8946 -0.7212  0.2402
   21MOL0     H 2844   4.867   2.794   3.672 -2.2832 -0.0976 -0.6054
   21MOL0     H 2845   4.904   2.876   3.451 -1.7769  3.0222  1.8962
   21MOL0     H 2846   4.814   2.733   3.377 -1.3722  0.0896 -0.3890
   21MOL0     H 2847   4.723   3.001   3.646  0.8930  1.6725 -1.2348
   21MOL0     H 2848   4.406   3.187   3.536  0.7107  1.9567  0.3506
   21MOL0     H 2849   4.569   3.236   3.570  0.4476 -0.3581  0.8074
   21MOL0     H 2850   4.561   3.106   3.784 -0.6958  0.1117 -0.6313
   21MOL0     H 2851   4.432   3.225   3.759  3.5629  0.9870 -0.0453
   21MOL0     H 2852   4.268   3.030   3.721  0.4451  1.3547  1.9844
   21MOL0     H 2853   4.405   2.922   3.698  0.1390 -0.7503 -0.1990
   21MOL0     H 2854   4.448   2.930   3.931  0.8323  0.8701 -2.7572
   21MOL0     H 2855   4.353   3.065   3.983 -0.3399 -1.2103  2.3549
   21MOL0     H 2856   4.444   2.712   3.902  0.6689  0.5076  2.0076
   21MOL0     H 2857   4.441   2.386   4.019 -0.2689  0.7400  0.8607
   21MOL0     H 2858   4.528   2.504   3.913  0.3221  0.8582  2.8021
   21MOL0     H 2859   4.411   2.388   3.845  1.1351 -1.2854  0.2540
   21MOL0     H 2860   4.376   2.092   4.062 -1.1305  0.2600  3.6218
   21MOL0     H 2861   4.351   1.846   4.088  0.2351 -0.3278  1.0862
   21MOL0     H 2862   4.306   1.611   4.108  0.9851 -0.3991  2.0660
   21MOL0     H 2863   4.209   1.684   4.234  1.0831 -1.5060  0.5590
   21MOL0     H 2864   4.167   1.467   4.275  3.0311  1.1054 -0.1115
   21MOL0     H 2865   4.051   1.488   4.138  0.0249 -2.9677  0.4607
   21MOL0     H 2866   4.326   1.372   4.108 -0.1983 -2.2264 -2.1247
   21MOL0     H 2867   4.222   1.429   3.975  1.2742 -3.7304 -2.1538
   21MOL0     H 2868   4.085   1.253   3.981  2.3156 -1.8837 -2.0591
   21MOL0     H 2869   4.086   1.256   4.167  1.2649 -5.1956  0.4235
   21MOL0     H 2870   4.324   1.132   4.024  1.8435  0.0368  0.6997
   21MOL0     H 2871   4.248   1.113   4.188 -1.4060  1.0238 -0.1955
   21MOL0     H 2872   4.106   1.045   3.939 -2.6497  4.2022  1.2079
   21MOL0     H 2873   4.063   1.009   4.111  1.1817  1.2464  1.8266
   21MOL0     H 2874   4.306   0.892   4.083  0.8360 -4.8739 -0.5412
   21MOL0     H 2875   4.242   0.854   3.930 -0.1987  0.4307  0.0504
   21MOL0     H 2876   4.043   0.745   4.065  0.0436 -1.4461 -0.6815
   21MOL0     H 2877   4.151   0.777   4.211 -0.5448  1.0668 -1.2239
   21MOL0     H 2878   3.947   1.885   3.956 -0.0668  0.2495 -3.6823
   21MOL0     H 2879   3.974   2.122   3.909  1.4750  4.3784  2.4408
   21MOL0     H 2880   3.988   2.564   4.001  0.9169 -0.6054  0.8476
   21MOL0     H 2881   4.023   2.794   3.963  0.0376  1.8700  2.3096
   21MOL0     H 2882   4.534   1.743   3.782  0.5133  1.6201 -0.6002
   21MOL0     H 2883   4.601   1.504   3.816  1.6537  0.6238  1.7092
   21MOL0     H 2884   4.899   1.103   3.526 -1.9051 -0.5462 -2.7960
   21MOL0     H 2885   4.859   0.871   3.565  0.9510  1.9674 -3.7576
   21MOL0     H 2886   4.597   0.715   3.875  1.7312 -0.0519 -0.4506
   21MOL0     H 2887   4.496   0.726   3.726 -2.1970 -4.9615 -0.5790
   21MOL0     H 2888   4.506   0.501   3.829 -0.2861 -0.1452  0.4655
   21MOL0     H 2889   4.675   0.485   3.833 -0.1218  0.2257 -0.1695
   21MOL0     H 2890   4.681   0.502   3.579 -0.5921  0.0372 -0.5448
   21MOL0     H 2891   4.623   0.361   3.642  0.7319  0.6596  0.0554
   21MOL0     H 2892   4.506   0.441   3.439  2.8296  0.9738 -0.1675
   21MOL0     H 2893   4.409   0.551   3.548  2.8654  2.1674  0.5772
   21MOL0     H 2894   4.260   0.169   3.612 -0.7579  0.1636 -1.9071
   21MOL0     H 2895   4.534   0.934   3.819  0.7552 -1.0114  0.1279
   21MOL0     H 2896   4.522   1.306   3.776  0.6726  0.5531 -0.4955
   21MOL0     H 2897   4.423   1.169   3.801  0.2602  0.9719  1.4561
   21MOL0     H 2898   4.554   1.192   3.914 -0.4537  2.1248 -0.0352
   22MOL0     O 2899   5.402   5.166   1.253 -0.8210 -0.3594  0.1685
   22MOL0     C 2900   5.508   5.212   1.199  1.4576  0.8373 -0.4015
   22MOL0     O 2901   5.545   5.184   1.072 -0.0546  0.2700  0.1900
   22MOL0     C 2902   5.462   5.186   0.967  0.5854  1.0504  0.2481
   22MOL0     C 2903   5.530   5.191   0.842  1.2608 -0.1362  0.1965
   22MOL0     C 2904   5.460   5.180   0.719  0.0601  0.5355 -0.4216
   22MOL0     C 2905   5.322   5.195   0.717 -0.8373 -0.1608  0.6541
   22MOL0     O 2906   5.265   5.193   0.588  0.3016 -0.7561  0.2543
   22MOL0     C 2907   5.296   5.304   0.489  0.4223 -0.4892  0.3396
   22MOL0     C 2908   5.368   5.250   0.358  0.7762  0.0200 -0.3540
   22MOL0     C 2909   5.266   5.217   0.255  0.2947  0.1933  0.6473
   22MOL0     C 2910   5.163   5.115   0.276 -0.3602  0.0271 -0.4772
   22MOL0     C 2911   5.040   5.125   0.179  0.5779  0.0502  0.8889
   22MOL0     C 2912   5.068   5.088   0.025 -0.1175 -0.6170 -0.9501
   22MOL0     C 2913   4.943   5.118  -0.065  0.2642 -0.4272 -0.8555
   22MOL0     C 2914   4.948   5.022  -0.184  0.2230  0.1398 -0.4539
   22MOL0     N 2915   4.835   5.044  -0.274  0.0062  0.6130  0.3439
   22MOL0     C 2916   4.754   5.157  -0.294  0.8647  0.5254  0.3637
   22MOL0     C 2917   4.668   5.122  -0.392  0.9956  0.9202  0.8755
   22MOL0     C 2918   4.572   5.218  -0.458  0.5670 -0.9346  0.7734
   22MOL0     C 2919   4.431   5.233  -0.398  0.8615 -0.2991 -0.7727
   22MOL0     C 2920   4.429   5.330  -0.273  0.2251  0.7562 -0.0293
   22MOL0     C 2921   4.291   5.341  -0.218  0.1527 -0.1626 -0.0518
   22MOL0     O 2922   4.196   5.396  -0.318  0.2231  0.2476  0.4613
   22MOL0     C 2923   4.079   5.438  -0.273  0.4670  0.8019 -1.1025
   22MOL0     C 2924   4.007   5.392  -0.162 -0.5594 -0.5996  0.2329
   22MOL0     C 2925   3.883   5.444  -0.130  0.5176  0.5288  0.1191
   22MOL0     C 2926   3.804   5.369  -0.024 -0.0836 -0.5055  0.7499
   22MOL0     C 2927   3.835   5.556  -0.200  0.0747 -0.4627  0.2872
   22MOL0     C 2928   3.709   5.627  -0.162 -0.6273  1.0146 -0.1157
   22MOL0     O 2929   3.646   5.690  -0.260 -0.3551  0.3466  0.0261
   22MOL0     C 2930   3.538   5.774  -0.239  1.2697  0.0239  0.2459
   22MOL0     C 2931   3.517   5.860  -0.136  0.7149 -0.1697  0.4439
   22MOL0     C 2932   3.413   5.952  -0.136  0.2951 -0.1150 -0.1186
   22MOL0     C 2933   3.324   5.967  -0.241  0.9422 -0.5173 -0.7332
   22MOL0     O 2934   3.233   6.065  -0.236 -0.5953  0.0794  0.3684
   22MOL0     C 2935   3.102   6.028  -0.183 -0.6083  0.9002 -0.5851
   22MOL0     C 2936   2.993   6.137  -0.173  0.0616  0.8884 -0.4018
   22MOL0     C 2937   2.994   6.233  -0.290 -0.2437 -0.6897  0.1544
   22MOL0     C 2938   2.942   6.180  -0.416 -0.4608  0.4883  0.9831
   22MOL0     C 2939   2.903   6.292  -0.503  0.9022 -0.9228  0.5747
   22MOL0     C 2940   2.843   6.249  -0.643  0.1470  0.2843 -0.1838
   22MOL0     C 2941   2.776   6.374  -0.702 -0.6490  0.1139  0.1547
   22MOL0     C 2942   2.671   6.332  -0.806  0.5789  0.3600  0.6039
   22MOL0    Cl 2943   2.734   6.219  -0.937 -0.0534  0.4264  0.3703
   22MOL0     C 2944   3.340   5.873  -0.349 -0.0455 -0.9041  0.7312
   22MOL0     C 2945   3.451   5.786  -0.343  0.1613  0.0489 -0.0685
   22MOL0     O 2946   3.668   5.624  -0.044  0.1136  0.2929  0.4319
   22MOL0     C 2947   3.916   5.608  -0.305  0.3252  0.1446  0.3858
   22MOL0     C 2948   4.034   5.544  -0.351  0.7681 -1.0964 -0.9291
   22MOL0     N 2949   4.701   4.994  -0.435  0.4125  0.1373 -0.0965
   22MOL0     N 2950   4.793   4.955  -0.367 -0.3605 -0.4031 -0.3077
   22MOL0     C 2951   5.255   5.200   0.837 -0.6541  0.1221 -0.4145
   22MOL0     C 2952   5.320   5.194   0.964  0.4087 -0.2217  0.1978
   22MOL0     C 2953   5.610   5.292   1.266  0.2057 -0.9386  0.6271
   22MOL0     C 2954   5.685   5.224   1.360  0.7573 -0.5071  0.1611
   22MOL0     C 2955   5.784   5.288   1.435 -0.0718 -1.3328 -0.1726
   22MOL0     C 2956   5.806   5.424   1.417  0.2431 -0.1665  0.9337
   22MOL0     O 2957   5.894   5.494   1.494  0.3676 -0.7187 -0.7134
   22MOL0     C 2958   5.999   5.421   1.569  0.6443  0.3974 -0.8634
   22MOL0     C 2959   6.119   5.502   1.621  0.0505 -0.2832 -0.0224
   22MOL0     C 2960   6.202   5.419   1.724  0.2497 -0.4410 -0.0272
   22MOL0     C 2961   6.334   5.480   1.769 -0.3910 -0.0713  0.3393
   22MOL0     C 2962   6.309   5.604   1.841  0.3611 -0.0340 -0.0612
   22MOL0     C 2963   6.266   5.706   1.871  0.1702 -0.0551 -0.0512
   22MOL0     C 2964   5.733   5.495   1.317 -0.7954  0.8879  0.0117
   22MOL0     C 2965   5.636   5.430   1.239  0.1038 -0.3540 -0.2246
   22MOL0     C 2966   5.544   5.506   1.145  0.1024  0.5773 -0.6754
   22MOL0     H 2967   5.639   5.185   0.843  1.2529 -0.3331 -0.0979
   22MOL0     H 2968   5.501   5.176   0.619 -0.1583  3.2367 -0.7015
   22MOL0     H 2969   5.362   5.377   0.536 -1.4411  1.7685 -0.3434
   22MOL0     H 2970   5.194   5.339   0.468  0.0084  0.9386  3.9685
   22MOL0     H 2971   5.419   5.337   0.315 -1.7051  1.0556 -1.3556
   22MOL0     H 2972   5.444   5.173   0.373  0.9590  0.5387  1.6928
   22MOL0     H 2973   5.232   5.319   0.233 -0.2962 -0.3576 -1.2003
   22MOL0     H 2974   5.326   5.187   0.169 -2.8716 -0.7957 -1.4036
   22MOL0     H 2975   5.215   5.018   0.269  0.7148  0.6006 -0.6999
   22MOL0     H 2976   5.120   5.124   0.376 -1.5491  1.0166 -1.0502
   22MOL0     H 2977   4.987   5.220   0.187 -0.7325 -0.5673  0.0065
   22MOL0     H 2978   4.966   5.058   0.224  2.6685 -1.5759  2.1069
   22MOL0     H 2979   5.158   5.136  -0.015 -0.0236 -0.3309 -0.4075
   22MOL0     H 2980   5.083   4.980   0.020 -3.1813 -1.0993 -1.8610
   22MOL0     H 2981   4.940   5.224  -0.093  2.4582 -0.1880 -0.3956
   22MOL0     H 2982   4.848   5.111  -0.012  0.1283  1.5367 -0.7698
   22MOL0     H 2983   5.041   5.033  -0.240  0.5619  1.4136  0.3029
   22MOL0     H 2984   4.932   4.920  -0.148  1.6964 -0.1200 -0.4792
   22MOL0     H 2985   4.757   5.255  -0.247 -3.0616  1.6496 -1.2990
   22MOL0     H 2986   4.560   5.174  -0.557 -1.7549 -2.2541  1.5634
   22MOL0     H 2987   4.608   5.321  -0.464 -0.3268 -0.6907 -2.4531
   22MOL0     H 2988   4.365   5.266  -0.478  0.1846 -0.1726 -0.1744
   22MOL0     H 2989   4.393   5.138  -0.358 -1.4610  0.1245 -1.7872
   22MOL0     H 2990   4.487   5.294  -0.189  2.1261  0.0845 -1.5568
   22MOL0     H 2991   4.464   5.431  -0.297  0.5471  0.8529  0.8139
   22MOL0     H 2992   4.254   5.244  -0.182  1.7256  0.9493  5.5664
   22MOL0     H 2993   4.300   5.411  -0.134  0.5751 -0.4422  0.1390
   22MOL0     H 2994   4.052   5.313  -0.103 -1.0077  1.0234  2.9514
   22MOL0     H 2995   3.849   5.272  -0.003  1.7243 -0.6171 -2.9725
   22MOL0     H 2996   3.697   5.374  -0.044 -0.1375  0.3262  1.1886
   22MOL0     H 2997   3.817   5.433   0.064  1.6707  1.4398 -0.8034
   22MOL0     H 2998   3.584   5.859  -0.050 -0.9222 -2.7162  1.8028
   22MOL0     H 2999   3.392   6.014  -0.050 -0.8285 -1.0114  0.2743
   22MOL0     H 3000   3.062   5.943  -0.240 -0.6931  0.0420  0.6999
   22MOL0     H 3001   3.122   5.987  -0.084  1.3870 -0.1171 -1.3623
   22MOL0     H 3002   2.892   6.096  -0.170 -0.8509  2.7518 -2.4095
   22MOL0     H 3003   3.011   6.202  -0.087  0.7557  2.0723 -1.3894
   22MOL0     H 3004   3.099   6.258  -0.309 -0.9550  1.9518 -0.7400
   22MOL0     H 3005   2.942   6.325  -0.263  2.1489  1.1233 -0.9880
   22MOL0     H 3006   2.863   6.109  -0.390 -0.5668  0.0611 -0.3904
   22MOL0     H 3007   3.016   6.118  -0.468 -0.8313 -0.6260  1.7537
   22MOL0     H 3008   2.822   6.332  -0.442  0.8484 -3.6773  2.5295
   22MOL0     H 3009   2.979   6.368  -0.521 -0.6603  0.5514 -0.0178
   22MOL0     H 3010   2.771   6.171  -0.618 -0.6057  0.4567 -1.7169
   22MOL0     H 3011   2.914   6.198  -0.709 -2.3344 -3.2660 -0.3948
   22MOL0     H 3012   2.851   6.437  -0.752 -0.9452  0.0184 -0.4104
   22MOL0     H 3013   2.732   6.436  -0.623 -1.2221 -1.0209  0.7437
   22MOL0     H 3014   2.627   6.422  -0.849 -3.3522 -1.6236  0.0397
   22MOL0     H 3015   2.591   6.284  -0.749  0.8250  1.7613  2.1951
   22MOL0     H 3016   3.279   5.880  -0.438  2.0210 -1.5101 -0.8260
   22MOL0     H 3017   3.477   5.723  -0.428  2.4664  0.9889 -0.1240
   22MOL0     H 3018   3.887   5.700  -0.354 -1.4914 -1.5838 -2.0827
   22MOL0     H 3019   4.095   5.588  -0.430  2.9876 -1.9336  0.2266
   22MOL0     H 3020   5.148   5.218   0.844 -0.5268  0.4787  0.9790
   22MOL0     H 3021   5.262   5.187   1.055 -0.4275 -3.5694 -0.4539
   22MOL0     H 3022   5.660   5.121   1.381 -0.4654 -0.2250  0.1384
   22MOL0     H 3023   5.834   5.218   1.502 -1.1611 -3.4585 -1.4706
   22MOL0     H 3024   5.955   5.389   1.664  1.3461 -0.9250 -0.9662
   22MOL0     H 3025   6.027   5.330   1.517 -2.6603 -1.6120  0.5022
   22MOL0     H 3026   6.092   5.598   1.665  2.2587 -0.3476  1.6820
   22MOL0     H 3027   6.182   5.534   1.538  0.0230 -0.4435 -0.1061
   22MOL0     H 3028   6.144   5.415   1.817  0.1933 -0.4153 -0.0611
   22MOL0     H 3029   6.215   5.319   1.682 -2.4226 -0.4054 -1.1062
   22MOL0     H 3030   6.389   5.490   1.675 -0.1899 -1.7455  0.2525
   22MOL0     H 3031   6.385   5.419   1.844  1.5804  0.5801 -0.3944
   22MOL0     H 3032   6.219   5.795   1.908 -1.0345 -0.0683 -1.4607
   22MOL0     H 3033   5.745   5.602   1.308 -1.2030  1.2876  3.1245
   22MOL0     H 3034   5.438   5.481   1.151  0.1429 -0.2392 -2.7412
   22MOL0     H 3035   5.560   5.614   1.150  0.8051  0.4987 -1.1212
   22MOL0     H 3036   5.572   5.476   1.044 -0.2620 -3.3232  0.1949
   23MOL0     O 3037   2.876   9.745   1.858  0.2359 -0.1121 -0.0228
   23MOL0     C 3038   2.986   9.738   1.795 -0.1902  0.3456  0.6156
   23MOL0     O 3039   3.008   9.655   1.691  0.3345  0.0562  1.0905
   23MOL0     C 3040   2.911   9.567   1.647 -0.6493  0.7678 -0.4586
   23MOL0     C 3041   2.785   9.588   1.596 -0.1835  0.3216  0.4833
   23MOL0     C 3042   2.688   9.497   1.579 -0.3399  0.3085  0.3370
   23MOL0     C 3043   2.731   9.358   1.601  0.7657 -0.6132 -0.5277
   23MOL0     O 3044   2.642   9.250   1.605  1.0511  0.2122  0.8268
   23MOL0     C 3045   2.522   9.257   1.529  0.0389 -0.7179 -0.3323
   23MOL0     C 3046   2.500   9.128   1.457 -0.4109 -0.3587 -0.3327
   23MOL0     C 3047   2.552   9.111   1.316  1.0892 -0.2968 -0.0960
   23MOL0     C 3048   2.455   9.177   1.218 -0.5297  0.0086  0.5563
   23MOL0     C 3049   2.515   9.193   1.079 -0.2315  0.0287  0.3048
   23MOL0     C 3050   2.627   9.294   1.072 -0.2550 -0.1943 -0.8831
   23MOL0     C 3051   2.675   9.287   0.920 -0.9885  0.0473  0.4003
   23MOL0     C 3052   2.686   9.421   0.834 -0.0304  1.1530 -0.5608
   23MOL0     N 3053   2.567   9.499   0.847 -0.1886 -0.1132  0.3913
   23MOL0     C 3054   2.565   9.619   0.904  0.1218 -0.4165  1.3532
   23MOL0     C 3055   2.442   9.672   0.866 -0.3036  0.1615  0.1090
   23MOL0     C 3056   2.409   9.820   0.900 -0.7210  0.2200  0.7865
   23MOL0     C 3057   2.255   9.856   0.907 -0.6682  0.5609  0.8669
   23MOL0     C 3058   2.247   9.991   0.971 -0.0993 -0.1318  0.7091
   23MOL0     C 3059   2.092  10.022   0.979 -0.3776  0.0015  0.1022
   23MOL0     O 3060   2.021  10.038   0.854 -0.3201  0.1006  0.3971
   23MOL0     C 3061   1.890  10.096   0.859 -0.7607 -0.1364  1.1173
   23MOL0     C 3062   1.835  10.134   0.739 -0.5417  0.4616 -0.0499
   23MOL0     C 3063   1.708  10.191   0.728 -1.1064  0.5225 -0.1638
   23MOL0     C 3064   1.665  10.236   0.587 -0.8334 -0.8596  0.1342
   23MOL0     C 3065   1.635  10.207   0.847 -0.0681  0.7583  0.3876
   23MOL0     C 3066   1.499  10.275   0.847  0.7480  0.2689 -0.3820
   23MOL0     O 3067   1.425  10.287   0.736  0.3092  0.7341  0.5038
   23MOL0     C 3068   1.282  10.292   0.739 -1.1396 -0.0194 -0.5249
   23MOL0     C 3069   1.211  10.382   0.826 -0.1809 -0.9779 -0.1753
   23MOL0     C 3070   1.072  10.385   0.846  0.0784  0.2665  0.3792
   23MOL0     C 3071   1.004  10.295   0.760  0.9527  0.1447  0.4530
   23MOL0     O 3072   0.867  10.310   0.767  0.5061 -1.2802 -0.0335
   23MOL0     C 3073   0.781  10.201   0.726  0.5076  0.3817  1.0560
   23MOL0     C 3074   0.637  10.256   0.726 -0.5764 -0.4161 -0.2105
   23MOL0     C 3075   0.616  10.390   0.651  0.6772  0.9276  0.7785
   23MOL0     C 3076   0.485  10.436   0.636  0.7976 -0.1019 -1.0855
   23MOL0     C 3077   0.468  10.578   0.586 -0.3320 -0.4205 -0.7356
   23MOL0     C 3078   0.318  10.616   0.596  0.6578 -0.6329 -0.7171
   23MOL0     C 3079   0.224  10.541   0.517  0.8212  0.9236 -0.7769
   23MOL0     C 3080   0.079  10.587   0.538 -1.2263 -0.1631 -1.1708
   23MOL0    Cl 3081  -0.025  10.465   0.457 -0.0302  0.0188  0.0155
   23MOL0     C 3082   1.071  10.199   0.682 -0.7246  0.3487 -0.3809
   23MOL0     C 3083   1.213  10.196   0.672  1.1719 -0.0113 -0.5804
   23MOL0     O 3084   1.463  10.322   0.958 -0.5933 -0.3137 -0.4501
   23MOL0     C 3085   1.693  10.163   0.970  0.9855  0.5937 -0.0700
   23MOL0     C 3086   1.826  10.110   0.976  0.2718  0.7047  0.1236
   23MOL0     N 3087   2.370   9.568   0.804 -0.1958  0.2285 -0.1943
   23MOL0     N 3088   2.450   9.465   0.793  0.1367 -0.2531 -0.7617
   23MOL0     C 3089   2.858   9.333   1.632 -0.2341 -0.0464 -0.7617
   23MOL0     C 3090   2.952   9.434   1.661  0.3420  0.3853  0.2451
   23MOL0     C 3091   3.107   9.818   1.842  0.6435 -0.2325 -0.3980
   23MOL0     C 3092   3.210   9.822   1.754  0.3639  0.0073  0.1825
   23MOL0     C 3093   3.329   9.902   1.779  0.7705  0.0303 -0.2116
   23MOL0     C 3094   3.341   9.975   1.894  1.4653  0.1591 -0.7230
   23MOL0     O 3095   3.437  10.061   1.927  0.2360 -0.2167 -0.1462
   23MOL0     C 3096   3.541  10.094   1.834  0.1519  0.1785  0.4904
   23MOL0     C 3097   3.632  10.204   1.887  0.2671  0.5128 -0.4439
   23MOL0     C 3098   3.563  10.329   1.957 -0.1647 -0.5019  0.8073
   23MOL0     C 3099   3.589  10.468   1.868  0.0996  0.5981  0.1722
   23MOL0     C 3100   3.534  10.591   1.920 -1.3522  0.8181 -0.8195
   23MOL0     C 3101   3.488  10.695   1.961 -0.1830 -0.6097  0.2047
   23MOL0     C 3102   3.241   9.966   1.992 -0.3266  0.6774  0.6038
   23MOL0     C 3103   3.118   9.899   1.961  0.8492  0.4005 -0.9895
   23MOL0     C 3104   3.012   9.901   2.075 -1.1744  0.0969  0.4862
   23MOL0     H 3105   2.757   9.691   1.577 -0.2464  0.4561  1.2652
   23MOL0     H 3106   2.584   9.522   1.564  0.1903  1.4862 -1.6535
   23MOL0     H 3107   2.510   9.343   1.462 -1.8625  2.0712  3.2297
   23MOL0     H 3108   2.442   9.260   1.603 -0.3821  1.5599 -0.7853
   23MOL0     H 3109   2.532   9.045   1.520 -1.3724  0.2349  0.9980
   23MOL0     H 3110   2.391   9.115   1.454 -1.0177  3.2038  1.1165
   23MOL0     H 3111   2.651   9.156   1.319  1.9006 -1.8625 -1.7102
   23MOL0     H 3112   2.551   9.007   1.284 -1.2229 -0.7379  1.1305
   23MOL0     H 3113   2.372   9.106   1.222 -1.1588  0.7772  2.7745
   23MOL0     H 3114   2.423   9.278   1.246 -0.4023  0.5476 -1.1282
   23MOL0     H 3115   2.437   9.209   1.004  0.6011 -1.1419 -0.8500
   23MOL0     H 3116   2.559   9.096   1.056  0.1095  0.3547 -0.4368
   23MOL0     H 3117   2.604   9.400   1.080  1.0106  0.0924 -0.9543
   23MOL0     H 3118   2.706   9.269   1.143 -0.3854  4.2497  1.1373
   23MOL0     H 3119   2.597   9.237   0.861 -1.9717  1.1743  0.7085
   23MOL0     H 3120   2.771   9.237   0.908  0.4226  2.9835 -1.8444
   23MOL0     H 3121   2.769   9.472   0.883 -0.5934 -0.1587  1.9893
   23MOL0     H 3122   2.693   9.388   0.730 -1.2744  0.4535 -0.4560
   23MOL0     H 3123   2.642   9.674   0.958  0.0432 -0.5377  1.5940
   23MOL0     H 3124   2.457   9.882   0.824 -0.1636  1.5251  2.1678
   23MOL0     H 3125   2.465   9.841   0.991  0.5744  3.8818 -0.6958
   23MOL0     H 3126   2.198   9.843   0.815 -4.2466 -0.4914  3.0215
   23MOL0     H 3127   2.214   9.776   0.969  1.3943 -2.0415 -0.9263
   23MOL0     H 3128   2.288   9.999   1.072  0.5822  2.3522  0.3052
   23MOL0     H 3129   2.299  10.058   0.903 -0.6166 -0.2773  0.1668
   23MOL0     H 3130   2.042   9.943   1.035  3.0394 -0.5374  2.7051
   23MOL0     H 3131   2.084  10.110   1.043  3.2015  2.0531 -1.9521
   23MOL0     H 3132   1.875  10.089   0.649  0.9921  1.3965  0.1239
   23MOL0     H 3133   1.755  10.242   0.526  0.9306  1.5073  2.7439
   23MOL0     H 3134   1.620  10.334   0.602 -3.2193 -2.2866  4.0725
   23MOL0     H 3135   1.598  10.162   0.541 -1.4253  0.0740 -0.5455
   23MOL0     H 3136   1.265  10.450   0.891  1.4940 -1.7701 -0.6700
   23MOL0     H 3137   1.016  10.451   0.911  0.8669  3.6760 -2.1056
   23MOL0     H 3138   0.794  10.161   0.626 -1.5835  1.2895  0.3703
   23MOL0     H 3139   0.788  10.107   0.783 -3.9886 -0.2449  0.9741
   23MOL0     H 3140   0.564  10.180   0.697  0.5964 -2.1828  1.2401
   23MOL0     H 3141   0.605  10.280   0.828 -1.6334 -1.0166 -0.3857
   23MOL0     H 3142   0.665  10.379   0.554 -0.4830  1.6171  0.0860
   23MOL0     H 3143   0.680  10.469   0.693  1.3778  0.2933  0.9212
   23MOL0     H 3144   0.441  10.427   0.736  1.5724  0.1716 -0.7070
   23MOL0     H 3145   0.427  10.367   0.575  0.4314  1.6234 -2.7661
   23MOL0     H 3146   0.530  10.645   0.646  0.9797 -1.3861 -0.9643
   23MOL0     H 3147   0.505  10.589   0.483 -1.0587  0.5502 -0.9139
   23MOL0     H 3148   0.308  10.719   0.559 -0.0694  0.2036  1.5993
   23MOL0     H 3149   0.283  10.632   0.698 -1.7453 -2.5958 -1.1444
   23MOL0     H 3150   0.237  10.438   0.552  1.4828  1.6032  1.0668
   23MOL0     H 3151   0.244  10.545   0.409  0.3747 -1.4935 -0.9973
   23MOL0     H 3152   0.066  10.687   0.496 -2.2498  0.5713  0.7555
   23MOL0     H 3153   0.053  10.586   0.645 -0.2107  0.7160 -0.8972
   23MOL0     H 3154   1.017  10.127   0.620 -0.2822  0.3995 -0.8339
   23MOL0     H 3155   1.259  10.126   0.603 -1.1777 -1.1787 -1.0656
   23MOL0     H 3156   1.632  10.169   1.060 -1.0666  1.7888 -1.4352
   23MOL0     H 3157   1.856  10.083   1.076 -1.7545  1.2150  0.9094
   23MOL0     H 3158   2.888   9.231   1.650  2.8368  0.5020 -2.0321
   23MOL0     H 3159   3.052   9.416   1.700 -0.4755 -3.5425  0.9617
   23MOL0     H 3160   3.214   9.761   1.664  1.6796  0.6484 -0.2119
   23MOL0     H 3161   3.401   9.918   1.699  1.2464 -0.4571  0.1130
   23MOL0     H 3162   3.595  10.002   1.809  1.6319  0.9706  0.6749
   23MOL0     H 3163   3.496  10.124   1.738  2.3745 -1.9040 -1.3592
   23MOL0     H 3164   3.708  10.231   1.813  3.0255  1.1048  2.3532
   23MOL0     H 3165   3.697  10.159   1.963  0.3843  1.9236  0.3202
   23MOL0     H 3166   3.455  10.316   1.958  0.1077 -4.0639 -1.0080
   23MOL0     H 3167   3.598  10.355   2.058  1.4844 -0.7542  0.3254
   23MOL0     H 3168   3.549  10.456   1.767  1.2835  2.0358 -0.5059
   23MOL0     H 3169   3.698  10.481   1.868 -0.0292  1.8231  0.9799
   23MOL0     H 3170   3.446  10.780   2.010  0.0839 -0.1486 -0.3519
   23MOL0     H 3171   3.257  10.039   2.070  1.2944 -2.3458  3.3608
   23MOL0     H 3172   3.028   9.819   2.145 -1.0476  0.9515  1.4729
   23MOL0     H 3173   3.026  10.000   2.119 -1.2321  0.7549 -0.9268
   23MOL0     H 3174   2.908   9.902   2.041 -1.3057  0.0553  0.8859
   24MOL0     O 3175   4.324   3.618   2.497  0.4222 -0.5079  0.0310
   24MOL0     C 3176   4.421   3.689   2.542  0.4799  0.0522  0.3328
   24MOL0     O 3177   4.548   3.645   2.578 -0.0496  0.0474  0.6184
   24MOL0     C 3178   4.590   3.520   2.554 -0.6232 -0.6070 -0.3515
   24MOL0     C 3179   4.641   3.436   2.650  0.0618  0.2078  0.5172
   24MOL0     C 3180   4.685   3.315   2.613 -0.2740  0.0120  0.1640
   24MOL0     C 3181   4.680   3.263   2.480 -0.3442 -0.3264  0.4029
   24MOL0     O 3182   4.726   3.134   2.473 -0.2665  0.1053 -0.0558
   24MOL0     C 3183   4.730   3.053   2.351 -0.3742 -0.1281  0.1122
   24MOL0     C 3184   4.630   2.932   2.367  1.1645 -1.0690 -0.4459
   24MOL0     C 3185   4.635   2.853   2.236 -0.2114  0.2371  0.1469
   24MOL0     C 3186   4.583   2.929   2.111  0.5132 -0.3015 -0.4233
   24MOL0     C 3187   4.554   2.829   1.991 -0.9337  0.1601 -0.0221
   24MOL0     C 3188   4.681   2.767   1.929 -0.1839 -0.1156 -0.4668
   24MOL0     C 3189   4.644   2.715   1.788  0.0261  0.1098  0.1316
   24MOL0     C 3190   4.764   2.649   1.708 -0.1640 -0.3387  0.3421
   24MOL0     N 3191   4.714   2.569   1.595 -0.3708 -0.3835 -0.3282
   24MOL0     C 3192   4.750   2.438   1.584  0.2518  0.1597  0.1790
   24MOL0     C 3193   4.675   2.379   1.493  0.3593 -0.2392  0.3714
   24MOL0     C 3194   4.668   2.234   1.456 -0.3909  0.5307 -0.0269
   24MOL0     C 3195   4.523   2.169   1.478 -0.2234 -0.3351 -1.0954
   24MOL0     C 3196   4.517   2.022   1.428 -0.2707  0.1084  0.0252
   24MOL0     C 3197   4.378   1.970   1.466 -0.2086 -0.4404  0.4693
   24MOL0     O 3198   4.375   1.834   1.444 -0.0992 -0.2252  0.1706
   24MOL0     C 3199   4.252   1.784   1.403 -0.0354 -0.1866 -0.0452
   24MOL0     C 3200   4.134   1.857   1.404 -0.4865  0.0497 -0.0108
   24MOL0     C 3201   4.021   1.787   1.371  0.0109 -0.0185 -0.7642
   24MOL0     C 3202   3.889   1.863   1.391 -0.5870 -0.3028 -0.6636
   24MOL0     C 3203   4.024   1.642   1.344 -0.6472 -0.0779  0.8719
   24MOL0     C 3204   3.897   1.571   1.297 -0.6130  0.5409 -0.6393
   24MOL0     O 3205   3.854   1.593   1.163 -0.0249  0.1408 -0.0873
   24MOL0     C 3206   3.743   1.520   1.127 -0.0462 -0.6696  1.0743
   24MOL0     C 3207   3.627   1.593   1.101  0.5743  1.4225  0.7221
   24MOL0     C 3208   3.516   1.525   1.057 -0.2631  0.2763  0.4629
   24MOL0     C 3209   3.514   1.391   1.029  0.8592  0.9078 -0.1079
   24MOL0     O 3210   3.402   1.356   0.960 -0.0333  0.3090  0.3879
   24MOL0     C 3211   3.342   1.226   1.006  0.0940  0.2885  0.9505
   24MOL0     C 3212   3.226   1.198   0.910 -0.0386  0.0790 -0.5117
   24MOL0     C 3213   3.278   1.185   0.760 -0.4421 -0.5093 -0.5786
   24MOL0     C 3214   3.178   1.146   0.652  0.3257  0.0981 -0.6485
   24MOL0     C 3215   3.086   1.260   0.625 -0.2659  0.5329 -0.2998
   24MOL0     C 3216   2.972   1.215   0.542 -0.2410  0.0307  0.3559
   24MOL0     C 3217   2.865   1.328   0.531  0.9219 -0.7609 -0.0436
   24MOL0     C 3218   2.883   1.433   0.431 -0.3816 -0.3075 -0.1557
   24MOL0    Cl 3219   2.756   1.562   0.439  0.3261  0.0698  0.2794
   24MOL0     C 3220   3.628   1.322   1.059  0.4416 -0.6178  0.0241
   24MOL0     C 3221   3.745   1.385   1.103 -0.9339  0.6000 -0.1646
   24MOL0     O 3222   3.849   1.494   1.378 -0.1187  0.4850 -0.4523
   24MOL0     C 3223   4.152   1.580   1.327  0.4912 -0.1695  0.4390
   24MOL0     C 3224   4.260   1.653   1.369  1.1071 -0.9435  0.9726
   24MOL0     N 3225   4.578   2.478   1.457  0.2650  0.2190  0.3871
   24MOL0     N 3226   4.611   2.586   1.520  0.4889  0.2445 -0.5893
   24MOL0     C 3227   4.632   3.350   2.378  0.1282 -0.6542  0.2795
   24MOL0     C 3228   4.574   3.475   2.416 -0.6549  0.3905 -0.3716
   24MOL0     C 3229   4.377   3.824   2.572  0.2433  0.0004 -0.0712
   24MOL0     C 3230   4.454   3.895   2.673  1.3844  0.5518 -0.0852
   24MOL0     C 3231   4.448   4.028   2.694 -0.6913 -0.5965  0.3235
   24MOL0     C 3232   4.351   4.098   2.630  0.2756 -0.1672  0.2237
   24MOL0     O 3233   4.344   4.233   2.674 -0.2762 -0.6079  0.3128
   24MOL0     C 3234   4.291   4.333   2.590  0.3907  0.5617  0.1313
   24MOL0     C 3235   4.260   4.447   2.687 -0.0827 -0.3416 -0.1718
   24MOL0     C 3236   4.195   4.572   2.623  0.0301 -0.3866  0.0339
   24MOL0     C 3237   4.287   4.644   2.525 -0.5838  0.5607 -0.0334
   24MOL0     C 3238   4.426   4.670   2.565  0.7843 -0.3918 -1.5679
   24MOL0     C 3239   4.538   4.661   2.606  1.0124  0.2361 -0.9267
   24MOL0     C 3240   4.275   4.033   2.529 -0.3570  0.2165  0.8258
   24MOL0     C 3241   4.286   3.898   2.499  0.9156 -0.0152 -0.7122
   24MOL0     C 3242   4.213   3.838   2.375  0.6283  0.1432 -0.2655
   24MOL0     H 3243   4.666   3.480   2.746  7.5015  0.7436 -1.0139
   24MOL0     H 3244   4.727   3.246   2.686  1.8024  1.4252  0.4056
   24MOL0     H 3245   4.833   3.017   2.343  0.0905  1.4260 -1.5510
   24MOL0     H 3246   4.698   3.113   2.266 -0.8042 -0.8297 -0.2285
   24MOL0     H 3247   4.659   2.864   2.448 -2.2568 -0.6201  1.3266
   24MOL0     H 3248   4.536   2.982   2.392  4.3532  5.2433  1.1251
   24MOL0     H 3249   4.736   2.820   2.209 -0.1321 -1.5799  2.3358
   24MOL0     H 3250   4.573   2.763   2.243 -1.5489  0.8166 -2.8673
   24MOL0     H 3251   4.490   2.980   2.138  1.6115  2.2166 -1.0492
   24MOL0     H 3252   4.656   3.005   2.083 -0.3907  1.9235  2.6928
   24MOL0     H 3253   4.511   2.892   1.913  1.3431  0.3091 -1.2573
   24MOL0     H 3254   4.478   2.759   2.025 -0.5025  0.3618  1.4396
   24MOL0     H 3255   4.763   2.838   1.915 -0.5432 -0.1933 -3.6215
   24MOL0     H 3256   4.717   2.686   1.994 -2.3381 -0.0913  0.8588
   24MOL0     H 3257   4.605   2.804   1.738  0.3055 -1.1819 -2.5442
   24MOL0     H 3258   4.564   2.640   1.793 -0.0281 -0.0670 -2.3076
   24MOL0     H 3259   4.819   2.729   1.658  0.4279 -0.9993 -0.0838
   24MOL0     H 3260   4.822   2.580   1.771 -1.9994 -3.6132 -1.2941
   24MOL0     H 3261   4.835   2.387   1.629  0.0441 -1.6740 -1.4086
   24MOL0     H 3262   4.751   2.178   1.499 -0.3807 -0.6939 -1.5643
   24MOL0     H 3263   4.688   2.222   1.349 -0.2155  2.7684 -0.2956
   24MOL0     H 3264   4.510   2.170   1.587 -0.0201 -1.1396 -1.0565
   24MOL0     H 3265   4.445   2.226   1.427 -2.2602 -0.0523  2.0578
   24MOL0     H 3266   4.530   2.024   1.319  1.4565  1.8751  0.2002
   24MOL0     H 3267   4.599   1.961   1.466  0.4057  0.3024 -1.0758
   24MOL0     H 3268   4.366   1.977   1.575  0.6506 -1.8413  0.6810
   24MOL0     H 3269   4.305   2.028   1.409  0.0727 -3.1303 -2.9827
   24MOL0     H 3270   4.126   1.961   1.437 -1.1337 -0.2812  0.9246
   24MOL0     H 3271   3.816   1.835   1.315  0.1080  3.6856 -3.0893
   24MOL0     H 3272   3.906   1.965   1.355 -0.9265  1.0205  2.6165
   24MOL0     H 3273   3.853   1.873   1.494 -5.3708  2.7030 -2.3306
   24MOL0     H 3274   3.624   1.700   1.120 -0.4121  2.4115 -3.9021
   24MOL0     H 3275   3.426   1.582   1.035 -1.1727 -0.7220  1.4545
   24MOL0     H 3276   3.409   1.140   0.997 -0.6433 -0.0638 -2.2169
   24MOL0     H 3277   3.306   1.233   1.109  0.5277 -1.1804  1.2173
   24MOL0     H 3278   3.190   1.101   0.944  2.1950 -0.4068  0.6945
   24MOL0     H 3279   3.158   1.283   0.916  3.1816  3.0599 -2.4857
   24MOL0     H 3280   3.345   1.099   0.762 -3.1645 -2.9116 -2.9919
   24MOL0     H 3281   3.339   1.274   0.740  1.8847 -1.3507  2.1469
   24MOL0     H 3282   3.133   1.057   0.698  2.1465 -0.7910 -0.4953
   24MOL0     H 3283   3.236   1.120   0.563  0.1613  0.8992 -0.9867
   24MOL0     H 3284   3.051   1.297   0.722  1.5017 -2.7741  1.7881
   24MOL0     H 3285   3.144   1.341   0.579 -0.7455 -1.2090 -4.4311
   24MOL0     H 3286   2.937   1.124   0.591  1.2137 -0.4261  0.5998
   24MOL0     H 3287   3.005   1.174   0.446  1.0700 -2.3515  1.7389
   24MOL0     H 3288   2.857   1.387   0.622  1.7103 -0.3532 -0.2326
   24MOL0     H 3289   2.772   1.282   0.495 -0.0166  1.0762 -0.0946
   24MOL0     H 3290   2.907   1.411   0.326  3.1833  1.6570  0.0798
   24MOL0     H 3291   2.976   1.481   0.464  1.0527 -1.4296 -2.3216
   24MOL0     H 3292   3.633   1.214   1.058  1.3137 -0.6772 -3.6357
   24MOL0     H 3293   3.837   1.336   1.132  0.2124  1.7749 -1.6282
   24MOL0     H 3294   4.168   1.477   1.298  1.9265 -0.6390  2.6272
   24MOL0     H 3295   4.361   1.612   1.375  0.6040 -2.2472  0.8208
   24MOL0     H 3296   4.628   3.319   2.274  1.6717 -1.8977  0.5540
   24MOL0     H 3297   4.538   3.553   2.349 -0.7980  0.9188  0.3191
   24MOL0     H 3298   4.535   3.836   2.717  1.3959 -0.3482 -1.2831
   24MOL0     H 3299   4.515   4.065   2.771  2.7629 -1.8845 -1.8183
   24MOL0     H 3300   4.369   4.340   2.513  0.4192 -2.4860 -0.2224
   24MOL0     H 3301   4.196   4.309   2.541  1.4068 -2.3544 -0.6219
   24MOL0     H 3302   4.354   4.469   2.739  3.3747 -5.0775 -3.4991
   24MOL0     H 3303   4.189   4.410   2.761  1.0388  0.7938  1.5363
   24MOL0     H 3304   4.100   4.544   2.578 -0.6297  0.7023  0.6994
   24MOL0     H 3305   4.171   4.649   2.697  0.7173 -0.3715  0.2510
   24MOL0     H 3306   4.238   4.731   2.481  0.2129  0.0931 -1.9686
   24MOL0     H 3307   4.306   4.580   2.438  1.0769  3.3934 -1.9119
   24MOL0     H 3308   4.640   4.643   2.634  0.6716  1.2643  1.2441
   24MOL0     H 3309   4.203   4.093   2.474 -1.3631  0.5467  2.4241
   24MOL0     H 3310   4.122   3.790   2.413  2.5060 -2.4043  1.2738
   24MOL0     H 3311   4.180   3.918   2.308 -2.4287 -0.3970  0.4357
   24MOL0     H 3312   4.281   3.767   2.327  1.0383 -0.7710  1.6054
   25MOL0     O 3313   1.568   7.915   3.761  0.1245  1.0407 -0.4294
   25MOL0     C 3314   1.606   7.814   3.815  0.1375 -0.5064  0.3346
   25MOL0     O 3315   1.713   7.735   3.776  0.3435 -0.4611  0.0127
   25MOL0     C 3316   1.781   7.763   3.663  0.8931 -0.2920  0.2632
   25MOL0     C 3317   1.894   7.847   3.658  0.3957  0.7229 -0.2224
   25MOL0     C 3318   1.955   7.871   3.536 -0.1775  0.9335  0.3347
   25MOL0     C 3319   1.918   7.802   3.421  0.9623  0.5233 -0.8522
   25MOL0     O 3320   1.993   7.809   3.316 -0.9478  0.1163 -0.2901
   25MOL0     C 3321   1.989   7.697   3.212 -0.6988 -0.7316 -1.3461
   25MOL0     C 3322   2.103   7.727   3.106 -0.7346  0.2288 -0.4861
   25MOL0     C 3323   2.122   7.611   3.012  0.8654  1.4216  0.4215
   25MOL0     C 3324   2.251   7.624   2.924  0.3566  0.0853  0.2719
   25MOL0     C 3325   2.266   7.527   2.814 -0.2443  0.4286 -0.2925
   25MOL0     C 3326   2.169   7.570   2.704  0.2745  0.4081  0.4474
   25MOL0     C 3327   2.169   7.471   2.594  0.1718  0.0882  0.2885
   25MOL0     C 3328   2.270   7.507   2.488  0.6313  0.2658  0.6030
   25MOL0     N 3329   2.285   7.406   2.380  0.3330 -0.8636 -0.0289
   25MOL0     C 3330   2.179   7.330   2.330 -0.0154 -0.3831 -0.2987
   25MOL0     C 3331   2.241   7.231   2.262 -0.7680  0.9545  0.2478
   25MOL0     C 3332   2.174   7.102   2.219  0.8533 -0.9444 -0.5402
   25MOL0     C 3333   2.172   6.988   2.335  0.4980 -0.4954  0.8342
   25MOL0     C 3334   2.030   6.967   2.402  0.2569  0.9836 -0.1300
   25MOL0     C 3335   2.052   6.851   2.499 -0.4512 -0.0304  0.0616
   25MOL0     O 3336   2.131   6.874   2.616 -0.6022  0.4771 -0.2782
   25MOL0     C 3337   2.099   6.943   2.727  1.3656 -0.2710 -1.6151
   25MOL0     C 3338   2.193   6.930   2.831  0.1957  1.0956  0.0800
   25MOL0     C 3339   2.164   6.975   2.961 -0.1207 -0.0579  0.2274
   25MOL0     C 3340   2.269   6.949   3.063 -0.5781 -0.5557  0.7414
   25MOL0     C 3341   2.050   7.052   2.989 -0.1274  0.1406  0.1341
   25MOL0     C 3342   2.006   7.089   3.129  0.1536  0.5627  0.6930
   25MOL0     O 3343   1.909   7.188   3.140  0.6140 -1.5945 -0.6305
   25MOL0     C 3344   1.833   7.210   3.253  0.0467 -0.0641 -1.2385
   25MOL0     C 3345   1.732   7.311   3.250 -0.1685  0.1077  0.9070
   25MOL0     C 3346   1.659   7.351   3.359  0.2952 -0.2975 -0.0425
   25MOL0     C 3347   1.699   7.308   3.487  0.6705 -0.3840 -0.1359
   25MOL0     O 3348   1.626   7.361   3.581 -0.2993 -0.5944 -0.0757
   25MOL0     C 3349   1.661   7.339   3.719 -0.8046  0.4876 -0.5519
   25MOL0     C 3350   1.576   7.431   3.806  0.4652  0.4685  0.6852
   25MOL0     C 3351   1.423   7.410   3.832 -0.8980  0.8672  0.5983
   25MOL0     C 3352   1.401   7.296   3.925 -0.1828  0.7445  0.4594
   25MOL0     C 3353   1.250   7.270   3.934  0.0698  0.4876  0.9669
   25MOL0     C 3354   1.214   7.146   4.013  0.2383  0.3640 -0.1817
   25MOL0     C 3355   1.062   7.113   4.026  0.3292 -0.2258  0.2467
   25MOL0     C 3356   1.048   6.975   4.075 -0.4070 -0.6565 -0.4548
   25MOL0    Cl 3357   1.079   6.846   3.946  0.4572 -0.0109  0.6047
   25MOL0     C 3358   1.795   7.205   3.497  0.1626 -0.2104  0.0150
   25MOL0     C 3359   1.863   7.162   3.385  0.2977 -0.2798  1.2235
   25MOL0     O 3360   2.062   7.048   3.221  0.1615  0.6529 -0.8239
   25MOL0     C 3361   1.955   7.058   2.879  0.0878  0.6224 -0.1453
   25MOL0     C 3362   1.978   7.006   2.752 -0.2595 -0.3975 -0.5597
   25MOL0     N 3363   2.382   7.255   2.261 -0.0270  0.5258  0.2877
   25MOL0     N 3364   2.407   7.353   2.336  0.5519 -0.3999 -0.1418
   25MOL0     C 3365   1.804   7.727   3.435  0.6041  0.5909  0.0367
   25MOL0     C 3366   1.732   7.704   3.552  0.3949  0.1668  0.2354
   25MOL0     C 3367   1.526   7.768   3.931  0.0289  0.3108 -0.5952
   25MOL0     C 3368   1.393   7.804   3.942 -0.8074  0.1347  0.5317
   25MOL0     C 3369   1.307   7.751   4.040 -0.2663  0.2217  0.5977
   25MOL0     C 3370   1.361   7.662   4.131 -0.2654  0.3924  0.3599
   25MOL0     O 3371   1.278   7.594   4.221 -1.6568  0.1898 -0.8090
   25MOL0     C 3372   1.151   7.638   4.258 -0.1839  0.9986 -0.4300
   25MOL0     C 3373   1.047   7.576   4.168 -0.7370  0.4474  0.9109
   25MOL0     C 3374   0.900   7.621   4.200 -0.6540  0.1489  0.3787
   25MOL0     C 3375   0.822   7.548   4.310  0.3517 -0.7999  0.6825
   25MOL0     C 3376   0.688   7.616   4.325 -0.0904  0.9005  0.7618
   25MOL0     C 3377   0.581   7.659   4.364 -0.6630 -0.6430  0.1682
   25MOL0     C 3378   1.497   7.632   4.133  0.3444 -0.0757  0.9475
   25MOL0     C 3379   1.580   7.690   4.030 -0.3129 -0.6634 -0.3834
   25MOL0     C 3380   1.729   7.669   4.049  0.4212 -0.8491 -0.1648
   25MOL0     H 3381   1.919   7.888   3.756 -1.6568  1.1821  0.1439
   25MOL0     H 3382   2.046   7.930   3.536  0.5675 -0.1791  0.1468
   25MOL0     H 3383   1.891   7.690   3.164 -1.2288 -5.0221 -0.0673
   25MOL0     H 3384   2.021   7.608   3.267  0.7910 -0.4064 -1.6515
   25MOL0     H 3385   2.081   7.819   3.050  2.9637  2.5000  1.4119
   25MOL0     H 3386   2.201   7.745   3.150 -1.5400  0.0413  1.4451
   25MOL0     H 3387   2.126   7.510   3.055 -0.2816  0.5619 -1.3902
   25MOL0     H 3388   2.041   7.599   2.940  2.5883 -1.9354 -1.1907
   25MOL0     H 3389   2.250   7.726   2.883  2.8907  0.9902  2.1702
   25MOL0     H 3390   2.336   7.611   2.991  1.8395 -1.5226 -1.8236
   25MOL0     H 3391   2.249   7.424   2.847  2.3186  0.9599  3.1881
   25MOL0     H 3392   2.370   7.528   2.779 -0.8216 -3.8450 -2.9030
   25MOL0     H 3393   2.067   7.573   2.742  0.5362 -0.0601  1.1935
   25MOL0     H 3394   2.181   7.675   2.674 -0.9196  0.1863 -0.9437
   25MOL0     H 3395   2.074   7.467   2.541  1.3360 -0.7385 -1.8665
   25MOL0     H 3396   2.197   7.372   2.632 -0.3996 -0.3748 -0.4580
   25MOL0     H 3397   2.240   7.597   2.434 -1.0030  0.1846  1.3265
   25MOL0     H 3398   2.365   7.517   2.541  0.5694  1.7586  0.4647
   25MOL0     H 3399   2.073   7.341   2.350  0.0333  2.0432 -1.1245
   25MOL0     H 3400   2.204   7.071   2.118 -0.4555 -0.0278 -1.2495
   25MOL0     H 3401   2.071   7.138   2.205  0.9253 -0.0689  0.9889
   25MOL0     H 3402   2.198   6.895   2.284  0.9932  1.4745 -2.8636
   25MOL0     H 3403   2.244   7.020   2.411 -1.4810 -0.3644  2.7522
   25MOL0     H 3404   1.992   7.055   2.456 -1.6613 -1.8875  3.6474
   25MOL0     H 3405   1.964   6.929   2.323  0.5260 -0.0195  0.1151
   25MOL0     H 3406   1.954   6.811   2.529 -1.3955  0.1862 -2.5298
   25MOL0     H 3407   2.098   6.765   2.450 -1.4940 -1.7436  1.9445
   25MOL0     H 3408   2.289   6.885   2.807  0.1260  0.4438  0.9665
   25MOL0     H 3409   2.343   6.887   3.011 -1.9437 -1.4048 -0.2391
   25MOL0     H 3410   2.228   6.881   3.138  3.1615 -1.8879  1.8326
   25MOL0     H 3411   2.315   7.036   3.112 -0.7755 -0.4444  0.7298
   25MOL0     H 3412   1.698   7.350   3.155 -0.2984  0.1923  0.9881
   25MOL0     H 3413   1.584   7.429   3.351  2.3106  1.6801 -0.6583
   25MOL0     H 3414   1.650   7.232   3.740  2.5974 -0.0190 -0.7288
   25MOL0     H 3415   1.764   7.369   3.740 -1.1637  0.5384  1.2825
   25MOL0     H 3416   1.632   7.430   3.899  0.8301 -1.4511  0.4721
   25MOL0     H 3417   1.576   7.534   3.768 -1.6656  0.9372  1.8324
   25MOL0     H 3418   1.372   7.385   3.739 -1.5531 -1.3782  1.4895
   25MOL0     H 3419   1.368   7.497   3.868 -2.6068 -0.4264  1.2543
   25MOL0     H 3420   1.431   7.317   4.028 -0.5445 -2.7880  1.4398
   25MOL0     H 3421   1.460   7.209   3.895  0.6013  2.1776 -2.5331
   25MOL0     H 3422   1.197   7.353   3.982 -3.5821 -1.6187  0.9370
   25MOL0     H 3423   1.207   7.266   3.834  1.3698  1.0429  0.3588
   25MOL0     H 3424   1.266   7.153   4.109  3.8756 -1.5115 -1.7706
   25MOL0     H 3425   1.252   7.059   3.957  1.6012  2.3711 -2.5872
   25MOL0     H 3426   1.038   7.127   3.920 -0.6216 -0.7485  0.3828
   25MOL0     H 3427   1.011   7.186   4.090 -1.4707 -1.1801 -0.0360
   25MOL0     H 3428   0.953   6.961   4.127 -0.8218 -0.2198 -1.0869
   25MOL0     H 3429   1.111   6.947   4.160 -1.8572  0.8037  1.1915
   25MOL0     H 3430   1.829   7.174   3.595 -0.9645  1.4590  0.9906
   25MOL0     H 3431   1.929   7.078   3.407  4.0385  2.1235  0.1050
   25MOL0     H 3432   1.856   7.101   2.892  1.3974  4.7138 -1.9799
   25MOL0     H 3433   1.903   7.000   2.673 -2.9672 -3.3397  1.9404
   25MOL0     H 3434   1.780   7.668   3.347  1.2495  1.6291 -0.8546
   25MOL0     H 3435   1.648   7.635   3.553  0.6422 -0.2929 -2.7357
   25MOL0     H 3436   1.350   7.871   3.868  0.4423 -0.7694 -1.0840
   25MOL0     H 3437   1.202   7.778   4.032 -0.7845 -2.0716 -1.2011
   25MOL0     H 3438   1.139   7.608   4.363 -1.2362 -1.4646 -1.1871
   25MOL0     H 3439   1.125   7.743   4.273 -0.1145  0.8157  1.1495
   25MOL0     H 3440   1.058   7.467   4.174 -1.1962  0.4153  1.2493
   25MOL0     H 3441   1.065   7.600   4.063 -2.0294  0.1983  0.6168
   25MOL0     H 3442   0.892   7.728   4.221 -0.0845  1.0256 -3.2622
   25MOL0     H 3443   0.846   7.610   4.106  0.4691 -2.0908 -0.0767
   25MOL0     H 3444   0.875   7.566   4.404  0.8391  3.7232 -0.2377
   25MOL0     H 3445   0.810   7.443   4.282 -0.2740 -0.6980  0.5502
   25MOL0     H 3446   0.493   7.702   4.406  1.5578 -0.0644  4.8740
   25MOL0     H 3447   1.536   7.566   4.211 -0.6063  1.6311  2.9756
   25MOL0     H 3448   1.755   7.565   4.029 -4.2184 -1.7008 -3.5450
   25MOL0     H 3449   1.800   7.731   3.993 -2.2613  0.6290 -2.1887
   25MOL0     H 3450   1.750   7.681   4.155  2.0866  1.7308 -0.6852
   26MOL0     O 3451   7.972   7.271   2.031  0.7462 -0.0388  0.3320
   26MOL0     C 3452   8.062   7.188   2.033  0.4423  0.3547 -0.4147
   26MOL0     O 3453   8.166   7.185   2.125 -0.0158 -0.5860  0.2626
   26MOL0     C 3454   8.183   7.273   2.230 -0.7489 -0.2690 -0.0147
   26MOL0     C 3455   8.167   7.404   2.214 -0.3153 -0.3488 -0.5625
   26MOL0     C 3456   8.167   7.489   2.327 -0.1088  0.1184 -0.0533
   26MOL0     C 3457   8.199   7.434   2.461  0.4737 -0.7491  0.8304
   26MOL0     O 3458   8.194   7.523   2.556  0.6525 -0.0499 -0.7342
   26MOL0     C 3459   8.287   7.510   2.662  0.3229 -0.3494 -0.0986
   26MOL0     C 3460   8.355   7.642   2.684  1.0117 -0.0944  0.2758
   26MOL0     C 3461   8.264   7.762   2.735 -0.2461  0.5431  0.8287
   26MOL0     C 3462   8.348   7.888   2.730  0.1926  0.1670 -0.1798
   26MOL0     C 3463   8.468   7.897   2.831 -0.0353 -0.7012 -0.4597
   26MOL0     C 3464   8.433   7.901   2.982  0.2434  0.7916 -0.3138
   26MOL0     C 3465   8.360   8.034   3.023  0.3091 -0.0589  0.3351
   26MOL0     C 3466   8.461   8.146   3.046 -0.1230 -0.3150  0.2039
   26MOL0     N 3467   8.381   8.270   3.035  0.0644 -1.0262 -0.8987
   26MOL0     C 3468   8.278   8.311   3.121  0.2958 -0.2971 -0.3289
   26MOL0     C 3469   8.245   8.438   3.086  0.6946 -0.1063  0.1248
   26MOL0     C 3470   8.151   8.516   3.171 -0.2985 -0.2789 -0.1754
   26MOL0     C 3471   8.245   8.610   3.250  0.6979 -0.0165 -0.5103
   26MOL0     C 3472   8.166   8.713   3.327  0.1310  0.9048  0.5309
   26MOL0     C 3473   8.252   8.821   3.376 -0.5406 -0.1203  0.6930
   26MOL0     O 3474   8.338   8.787   3.489 -0.2704 -0.6825 -0.2237
   26MOL0     C 3475   8.335   8.882   3.591  1.3938  0.2418  0.4895
   26MOL0     C 3476   8.414   9.002   3.590  0.1907 -0.7593 -1.1103
   26MOL0     C 3477   8.412   9.092   3.700  1.0312 -0.0202 -0.2528
   26MOL0     C 3478   8.506   9.211   3.692  0.5742 -0.3604  1.4978
   26MOL0     C 3479   8.329   9.062   3.814  0.2243 -0.4088 -0.0216
   26MOL0     C 3480   8.352   9.125   3.942 -0.2711  0.8761 -0.7074
   26MOL0     O 3481   8.246   9.166   4.022  0.4431  0.2334 -0.2867
   26MOL0     C 3482   8.284   9.226   4.138 -0.0872  0.6311  0.4802
   26MOL0     C 3483   8.270   9.361   4.154  0.3267  0.5848  0.0115
   26MOL0     C 3484   8.307   9.432   4.268  0.7538 -0.5101  0.1867
   26MOL0     C 3485   8.342   9.358   4.383 -0.6503 -0.4108 -0.4917
   26MOL0     O 3486   8.375   9.408   4.510 -0.7677 -0.4961  0.3748
   26MOL0     C 3487   8.367   9.550   4.523 -0.4775 -0.9490 -0.5472
   26MOL0     C 3488   8.380   9.593   4.669 -0.8999  0.0297 -0.0969
   26MOL0     C 3489   8.299   9.509   4.765  0.3370 -0.0013  1.0083
   26MOL0     C 3490   8.273   9.580   4.901  0.4203 -0.3603 -0.4998
   26MOL0     C 3491   8.207   9.488   4.997  0.3123  0.3662 -0.1804
   26MOL0     C 3492   8.145   9.567   5.112 -0.3458 -0.6412  1.1416
   26MOL0     C 3493   8.119   9.483   5.238 -0.0043  0.2028  0.3461
   26MOL0     C 3494   8.046   9.571   5.340  0.0151 -0.2716 -0.2124
   26MOL0    Cl 3495   7.870   9.583   5.307 -0.4450 -0.2458 -0.6728
   26MOL0     C 3496   8.355   9.219   4.363  0.7434 -0.3228 -0.4957
   26MOL0     C 3497   8.328   9.149   4.241 -0.5531  0.4640  0.0033
   26MOL0     O 3498   8.468   9.141   3.977 -0.2918  0.1901  0.3116
   26MOL0     C 3499   8.259   8.941   3.818  0.0297  0.8601 -0.4751
   26MOL0     C 3500   8.255   8.842   3.708 -0.4721 -0.7251 -0.4709
   26MOL0     N 3501   8.323   8.472   2.981 -0.2392  0.1969 -0.2969
   26MOL0     N 3502   8.405   8.372   2.947  0.2035 -0.0651 -0.1445
   26MOL0     C 3503   8.222   7.297   2.479  0.8118 -0.3229  0.1985
   26MOL0     C 3504   8.197   7.220   2.363  0.8547 -0.4148 -0.4891
   26MOL0     C 3505   8.067   7.077   1.941 -0.1275 -0.0386  1.0888
   26MOL0     C 3506   7.996   7.102   1.820 -0.0608  1.0887 -0.3953
   26MOL0     C 3507   7.984   7.005   1.729  0.0004  0.3193  0.5173
   26MOL0     C 3508   8.051   6.890   1.733  0.7207  0.2288  0.0377
   26MOL0     O 3509   8.052   6.801   1.638 -0.3857 -0.1178  0.1498
   26MOL0     C 3510   7.970   6.809   1.521  0.7218  0.1374  0.1053
   26MOL0     C 3511   7.837   6.747   1.535 -0.3835 -0.1738  0.5147
   26MOL0     C 3512   7.789   6.689   1.407  0.7709 -0.3821 -0.0822
   26MOL0     C 3513   7.650   6.631   1.405 -0.5454 -0.6185 -0.0454
   26MOL0     C 3514   7.563   6.710   1.490  0.3053 -0.6081 -0.2568
   26MOL0     C 3515   7.478   6.778   1.550 -0.9557  0.3886  0.2105
   26MOL0     C 3516   8.104   6.852   1.861  0.2762 -0.0671  1.3570
   26MOL0     C 3517   8.127   6.946   1.963  1.2429 -0.8053 -0.0879
   26MOL0     C 3518   8.196   6.898   2.090 -0.8997  0.3236  0.4757
   26MOL0     H 3519   8.139   7.446   2.118 -0.4952  1.8383  0.3951
   26MOL0     H 3520   8.158   7.597   2.320 -2.4282  0.2410  2.7678
   26MOL0     H 3521   8.352   7.425   2.638 -3.8942 -2.8712 -4.3597
   26MOL0     H 3522   8.238   7.481   2.756  0.3418  1.3645  0.4861
   26MOL0     H 3523   8.438   7.624   2.753 -1.1632 -0.7105  2.8718
   26MOL0     H 3524   8.400   7.672   2.588 -0.1157  3.2487  0.6867
   26MOL0     H 3525   8.181   7.780   2.667  0.0432 -0.2939  0.2463
   26MOL0     H 3526   8.234   7.743   2.839  0.1441  0.6936  0.9721
   26MOL0     H 3527   8.401   7.893   2.635  1.8258 -3.4120  0.3876
   26MOL0     H 3528   8.290   7.980   2.742  1.1472  0.8518 -0.7052
   26MOL0     H 3529   8.519   7.992   2.812 -1.0373 -0.0255  0.0966
   26MOL0     H 3530   8.542   7.818   2.813  3.0402  1.5448  1.4088
   26MOL0     H 3531   8.379   7.813   3.018  0.4900  0.2352 -1.2791
   26MOL0     H 3532   8.528   7.897   3.036  0.0109  1.3655  0.1474
   26MOL0     H 3533   8.296   8.006   3.107  0.9547 -0.3777  0.7336
   26MOL0     H 3534   8.288   8.060   2.945 -0.3458 -3.8545 -0.5159
   26MOL0     H 3535   8.509   8.129   3.143  0.3667 -0.6588 -0.0973
   26MOL0     H 3536   8.536   8.150   2.966 -1.4803  2.0980 -1.0881
   26MOL0     H 3537   8.245   8.259   3.210  0.6621  1.0115  0.6021
   26MOL0     H 3538   8.096   8.442   3.230  0.4011 -0.8078 -0.1772
   26MOL0     H 3539   8.077   8.576   3.117 -0.2282 -1.2388 -1.3919
   26MOL0     H 3540   8.292   8.549   3.328 -1.1636  0.9068  1.4395
   26MOL0     H 3541   8.319   8.655   3.183  0.8621 -0.6464 -0.7580
   26MOL0     H 3542   8.077   8.743   3.271 -0.3878 -0.1945  0.7336
   26MOL0     H 3543   8.132   8.663   3.418  0.2655  1.1360  0.7078
   26MOL0     H 3544   8.305   8.858   3.288 -1.0060  0.0991  0.5000
   26MOL0     H 3545   8.193   8.901   3.422  2.4867  2.2248  0.7675
   26MOL0     H 3546   8.487   9.026   3.514  1.2597 -0.1425  0.0749
   26MOL0     H 3547   8.606   9.185   3.729  0.9624 -1.0442  0.0559
   26MOL0     H 3548   8.478   9.308   3.734  2.3848  1.7083 -1.6509
   26MOL0     H 3549   8.535   9.222   3.587 -1.1219 -0.9668  0.9394
   26MOL0     H 3550   8.240   9.419   4.067 -0.1222 -0.0777 -0.2845
   26MOL0     H 3551   8.294   9.540   4.266 -1.5865 -0.7353 -2.4775
   26MOL0     H 3552   8.446   9.606   4.474 -0.7403 -1.9681 -2.2205
   26MOL0     H 3553   8.279   9.600   4.482 -0.1100  0.6360  0.5088
   26MOL0     H 3554   8.484   9.597   4.704 -0.2137 -0.6790 -1.9422
   26MOL0     H 3555   8.339   9.694   4.675  0.0470  0.5765 -2.1912
   26MOL0     H 3556   8.344   9.409   4.764  0.0012 -0.1818 -1.1092
   26MOL0     H 3557   8.201   9.495   4.718  1.0748 -1.5976 -0.1767
   26MOL0     H 3558   8.208   9.666   4.880  1.0554  0.1931 -0.2304
   26MOL0     H 3559   8.368   9.616   4.943 -0.5815  0.5368  1.1292
   26MOL0     H 3560   8.136   9.428   4.939  1.2996  0.7571 -1.8401
   26MOL0     H 3561   8.285   9.425   5.040  1.1653  1.4852 -0.0546
   26MOL0     H 3562   8.054   9.616   5.076  1.2621  0.4987 -1.7217
   26MOL0     H 3563   8.220   9.642   5.138 -1.5243 -0.1941  3.5878
   26MOL0     H 3564   8.210   9.444   5.285 -0.0902  0.2182  0.5263
   26MOL0     H 3565   8.052   9.407   5.196 -0.2232  1.2775 -1.3455
   26MOL0     H 3566   8.103   9.664   5.345  3.8441 -2.5141  2.2853
   26MOL0     H 3567   8.048   9.529   5.441 -1.0817  0.4495  0.1320
   26MOL0     H 3568   8.393   9.153   4.441 -1.4441 -2.7610 -1.3562
   26MOL0     H 3569   8.335   9.042   4.223  0.3498  0.4609  0.3010
   26MOL0     H 3570   8.225   8.907   3.915  2.8467 -0.5404  0.1231
   26MOL0     H 3571   8.195   8.752   3.717 -0.7712 -0.4557  0.3902
   26MOL0     H 3572   8.245   7.259   2.578 -1.0913  1.6314  1.4874
   26MOL0     H 3573   8.209   7.113   2.379 -3.7868 -0.8998  1.1373
   26MOL0     H 3574   7.950   7.198   1.799 -1.4933 -0.3088 -4.7126
   26MOL0     H 3575   7.926   7.023   1.638 -0.0088 -1.0376  0.2217
   26MOL0     H 3576   7.954   6.910   1.483  0.5248  0.3638  0.7702
   26MOL0     H 3577   8.023   6.760   1.440  3.3661  5.5703 -1.9504
   26MOL0     H 3578   7.773   6.828   1.574  0.3733  0.3400  0.7131
   26MOL0     H 3579   7.833   6.666   1.608  0.1719 -0.6256  0.0462
   26MOL0     H 3580   7.773   6.767   1.333 -1.4504 -2.3606 -1.8378
   26MOL0     H 3581   7.857   6.610   1.373  1.9987  0.6584 -0.1230
   26MOL0     H 3582   7.662   6.536   1.460 -0.7998  0.7911  2.6055
   26MOL0     H 3583   7.595   6.621   1.311 -2.9352  0.6759  1.1382
   26MOL0     H 3584   7.394   6.811   1.606 -0.3147 -0.5648  1.7976
   26MOL0     H 3585   8.149   6.753   1.862 -1.0680 -1.0030 -3.6435
   26MOL0     H 3586   8.267   6.820   2.062  0.2357  1.3716  0.3660
   26MOL0     H 3587   8.264   6.963   2.145 -0.0306 -1.0128  1.0178
   26MOL0     H 3588   8.125   6.846   2.155  0.6082 -0.5502  1.4693
   27MOL0     O 3589   6.729   2.429  10.786 -0.1835  0.4324  0.3919
   27MOL0     C 3590   6.659   2.360  10.858 -0.8779 -0.2269  0.1695
   27MOL0     O 3591   6.583   2.263  10.808 -0.2243 -1.2208 -0.4046
   27MOL0     C 3592   6.572   2.239  10.675  0.2677 -0.8827 -0.3079
   27MOL0     C 3593   6.681   2.206  10.593  0.1927 -0.0274  0.7522
   27MOL0     C 3594   6.672   2.195  10.454  0.6543 -0.4678  0.1671
   27MOL0     C 3595   6.542   2.218  10.394 -0.0427 -0.0762  0.1656
   27MOL0     O 3596   6.509   2.212  10.254  0.6557  1.0564 -0.2440
   27MOL0     C 3597   6.624   2.202  10.163  0.0471  0.4665  0.1523
   27MOL0     C 3598   6.674   2.057  10.145 -0.3118 -0.3956  0.3215
   27MOL0     C 3599   6.633   1.998  10.010 -0.7088  0.7500  0.3686
   27MOL0     C 3600   6.738   1.896   9.977 -0.2013  0.9641 -0.2961
   27MOL0     C 3601   6.727   1.834   9.829  0.0969 -1.1545 -0.6475
   27MOL0     C 3602   6.825   1.723   9.828 -0.0879  0.9363 -0.2756
   27MOL0     C 3603   6.844   1.659   9.687 -0.3346  0.9338  0.0585
   27MOL0     C 3604   6.954   1.556   9.684  0.7228  1.1094 -0.5902
   27MOL0     N 3605   6.989   1.531   9.544 -0.0309 -0.0787 -0.1228
   27MOL0     C 3606   7.065   1.617   9.475 -0.1659 -0.6465  0.3930
   27MOL0     C 3607   7.100   1.552   9.358  0.3277  0.3585 -0.2666
   27MOL0     C 3608   7.189   1.606   9.242  0.0344 -0.3465 -0.1570
   27MOL0     C 3609   7.101   1.605   9.115  0.3376 -0.2999 -0.5363
   27MOL0     C 3610   7.138   1.500   9.016 -0.1141  0.5994  0.6166
   27MOL0     C 3611   7.042   1.499   8.889 -0.2445 -0.1967 -0.0406
   27MOL0     O 3612   7.056   1.625   8.819 -0.1195 -0.4476  0.8674
   27MOL0     C 3613   7.180   1.637   8.763 -0.0422 -0.4916 -0.4675
   27MOL0     C 3614   7.255   1.738   8.816 -0.7784 -0.0326  0.1724
   27MOL0     C 3615   7.388   1.758   8.768  0.0960  0.3913  0.0531
   27MOL0     C 3616   7.484   1.839   8.847  0.3238 -0.6521 -0.3301
   27MOL0     C 3617   7.439   1.675   8.658 -0.1526 -0.9726 -0.7902
   27MOL0     C 3618   7.574   1.698   8.586 -0.1911  0.7571 -0.8042
   27MOL0     O 3619   7.624   1.587   8.504  0.2590  0.0885 -0.3340
   27MOL0     C 3620   7.745   1.615   8.449 -0.0702 -0.5558 -0.4153
   27MOL0     C 3621   7.754   1.670   8.327  0.9474 -0.3420 -0.4417
   27MOL0     C 3622   7.877   1.700   8.261  1.0045  0.0465 -0.6159
   27MOL0     C 3623   7.994   1.662   8.324 -0.1663 -0.3810 -0.1754
   27MOL0     O 3624   8.107   1.664   8.248  1.6296 -1.2014  0.2244
   27MOL0     C 3625   8.222   1.614   8.308 -1.4084  0.8456  0.4706
   27MOL0     C 3626   8.338   1.673   8.223 -0.3216  0.1714 -0.0792
   27MOL0     C 3627   8.487   1.635   8.264 -0.7063 -0.6581 -0.1007
   27MOL0     C 3628   8.588   1.683   8.164  0.1578 -0.4012 -0.7385
   27MOL0     C 3629   8.743   1.690   8.181 -0.1250 -0.1990  0.8908
   27MOL0     C 3630   8.790   1.669   8.327 -0.5334  0.2839 -0.2340
   27MOL0     C 3631   8.944   1.665   8.322 -0.3034  0.4409 -0.4716
   27MOL0     C 3632   9.002   1.528   8.272  0.3178  0.6568 -1.2487
   27MOL0    Cl 3633   9.165   1.535   8.204  0.2074  0.1550 -0.0340
   27MOL0     C 3634   7.987   1.597   8.456 -0.1413 -0.2128 -0.4262
   27MOL0     C 3635   7.861   1.564   8.510 -0.4456  0.0204 -0.0050
   27MOL0     O 3636   7.616   1.814   8.570  0.7608  0.0122  0.3683
   27MOL0     C 3637   7.348   1.580   8.599 -0.6671  0.2963 -0.5764
   27MOL0     C 3638   7.225   1.558   8.658 -0.8263  0.9664  1.1365
   27MOL0     N 3639   7.051   1.427   9.370 -0.1238 -0.0340  0.5697
   27MOL0     N 3640   6.983   1.412   9.480 -0.0614 -0.9806  0.1713
   27MOL0     C 3641   6.433   2.253  10.478 -0.7735  0.0599 -0.0903
   27MOL0     C 3642   6.443   2.264  10.614  0.8444  0.0963 -0.6621
   27MOL0     C 3643   6.650   2.389  11.010  0.0718 -0.1857  0.7763
   27MOL0     C 3644   6.700   2.516  11.052 -0.3641  0.3873 -0.2064
   27MOL0     C 3645   6.673   2.570  11.181  0.4427  0.3791 -0.1174
   27MOL0     C 3646   6.618   2.485  11.274  0.2357 -0.0108  0.3107
   27MOL0     O 3647   6.603   2.541  11.396 -0.6767  0.4411  0.0432
   27MOL0     C 3648   6.483   2.606  11.430 -0.3959 -0.1411  0.3168
   27MOL0     C 3649   6.360   2.519  11.411  0.2617  0.3280  0.0625
   27MOL0     C 3650   6.227   2.598  11.430 -0.1652 -0.6683  0.6984
   27MOL0     C 3651   6.120   2.520  11.517  0.5932 -0.1975  0.1158
   27MOL0     C 3652   6.099   2.378  11.471  0.6763  0.7382 -0.3552
   27MOL0     C 3653   6.096   2.264  11.416  0.1818 -0.5182 -0.2940
   27MOL0     C 3654   6.571   2.354  11.242  0.5290 -0.2108 -0.4744
   27MOL0     C 3655   6.583   2.309  11.111  0.5270  0.5863 -0.5521
   27MOL0     C 3656   6.515   2.186  11.071  0.5928  1.5907  0.1908
   27MOL0     H 3657   6.772   2.186  10.649  0.0099  0.2904  1.1683
   27MOL0     H 3658   6.763   2.183  10.396  2.4255 -2.6575  3.1777
   27MOL0     H 3659   6.696   2.272  10.209 -2.3263  2.1065  1.6081
   27MOL0     H 3660   6.598   2.228  10.060 -0.4042 -0.5358  0.0041
   27MOL0     H 3661   6.783   2.067  10.146 -0.4669  2.8674 -1.5514
   27MOL0     H 3662   6.648   1.991  10.228  1.1182 -0.6724  0.5874
   27MOL0     H 3663   6.540   1.943  10.021  0.2979 -1.4068 -1.1894
   27MOL0     H 3664   6.637   2.066   9.924 -0.0549 -1.2517 -1.2565
   27MOL0     H 3665   6.837   1.938   9.998  0.1438  0.0504 -0.0305
   27MOL0     H 3666   6.724   1.808  10.040 -2.2460  1.7127  0.3693
   27MOL0     H 3667   6.755   1.911   9.756  0.9075  0.0823  0.9124
   27MOL0     H 3668   6.630   1.788   9.811  0.0822 -1.1112 -0.6804
   27MOL0     H 3669   6.924   1.763   9.852  0.7561 -1.3270  0.3321
   27MOL0     H 3670   6.797   1.639   9.893  3.1360 -0.8143 -0.9257
   27MOL0     H 3671   6.875   1.736   9.616  0.1203  2.0653  1.4631
   27MOL0     H 3672   6.745   1.618   9.663 -0.3516  1.5101 -0.9263
   27MOL0     H 3673   7.048   1.589   9.729  1.8055  0.7743 -2.5007
   27MOL0     H 3674   6.926   1.463   9.735  1.5492  2.5066  2.6739
   27MOL0     H 3675   7.094   1.714   9.514 -3.9936  0.1002  1.7917
   27MOL0     H 3676   7.287   1.557   9.239  0.2538 -0.3716  3.2740
   27MOL0     H 3677   7.194   1.714   9.261  1.3476 -0.2002 -1.1840
   27MOL0     H 3678   6.994   1.597   9.135  0.4698  0.0512  0.3724
   27MOL0     H 3679   7.114   1.700   9.061 -0.6503 -0.0830 -0.4208
   27MOL0     H 3680   7.239   1.525   8.984  0.3247  0.0195  1.5360
   27MOL0     H 3681   7.154   1.400   9.055 -0.8039  0.3718  0.3419
   27MOL0     H 3682   7.063   1.412   8.827 -2.7610 -0.1290 -1.1074
   27MOL0     H 3683   6.937   1.491   8.922 -0.3453 -0.3237 -0.3902
   27MOL0     H 3684   7.211   1.802   8.892 -5.7086  2.3040 -4.0363
   27MOL0     H 3685   7.448   1.848   8.950  0.2375  1.5913 -0.5182
   27MOL0     H 3686   7.491   1.939   8.804 -0.0633 -1.0381 -1.3322
   27MOL0     H 3687   7.585   1.797   8.846 -0.7758 -3.5766 -1.9430
   27MOL0     H 3688   7.665   1.700   8.272  0.7776  0.1806  0.1022
   27MOL0     H 3689   7.878   1.749   8.164 -1.7886  1.3611 -0.0747
   27MOL0     H 3690   8.241   1.648   8.410  0.0030  2.8192 -0.3817
   27MOL0     H 3691   8.239   1.506   8.303  2.3480  1.3234  0.1180
   27MOL0     H 3692   8.321   1.640   8.120  0.0253 -2.3931  0.6034
   27MOL0     H 3693   8.327   1.781   8.234  0.5404  0.0900  2.1134
   27MOL0     H 3694   8.503   1.527   8.266  3.3420 -0.2296 -0.7912
   27MOL0     H 3695   8.509   1.677   8.362 -0.8683 -1.3541  0.2430
   27MOL0     H 3696   8.559   1.787   8.147 -0.1141 -0.3349  0.0828
   27MOL0     H 3697   8.570   1.624   8.074  0.0041 -0.9175 -0.3683
   27MOL0     H 3698   8.788   1.621   8.109  4.2408  2.0909  1.0628
   27MOL0     H 3699   8.781   1.787   8.150 -0.0231 -0.1027  1.3033
   27MOL0     H 3700   8.753   1.576   8.371  0.3799 -0.3032 -0.6634
   27MOL0     H 3701   8.756   1.750   8.392 -1.1369  1.2223 -1.6510
   27MOL0     H 3702   8.981   1.685   8.423  3.0574 -3.1472 -0.7443
   27MOL0     H 3703   8.986   1.743   8.258 -2.4551 -0.4758 -3.1863
   27MOL0     H 3704   8.933   1.484   8.199  0.1069  0.3119 -0.8443
   27MOL0     H 3705   9.004   1.445   8.343  1.6639 -1.8478 -3.9680
   27MOL0     H 3706   8.067   1.545   8.508  0.7747 -2.7355 -3.9491
   27MOL0     H 3707   7.832   1.516   8.602  1.1168  0.1617  0.5886
   27MOL0     H 3708   7.370   1.514   8.516 -1.7120 -2.2073  1.0035
   27MOL0     H 3709   7.155   1.485   8.618 -0.1373  0.1515  1.3952
   27MOL0     H 3710   6.340   2.287  10.434  0.8747  3.3235 -1.3780
   27MOL0     H 3711   6.366   2.300  10.682 -0.4460 -0.6476 -1.6878
   27MOL0     H 3712   6.753   2.563  10.970  0.4207 -0.6178 -0.2989
   27MOL0     H 3713   6.695   2.672  11.210  0.4380  0.0716  1.0076
   27MOL0     H 3714   6.497   2.645  11.532  3.4143  2.4835 -0.9945
   27MOL0     H 3715   6.465   2.688  11.360 -0.7790 -1.5272 -1.2610
   27MOL0     H 3716   6.369   2.445  11.491 -1.3384  0.5403  0.4690
   27MOL0     H 3717   6.347   2.469  11.315 -1.3032 -3.2524  1.9396
   27MOL0     H 3718   6.234   2.695  11.479 -3.1120  1.0473 -1.8457
   27MOL0     H 3719   6.184   2.611  11.330 -2.6783  2.1961  1.9804
   27MOL0     H 3720   6.025   2.573  11.513 -0.5077 -1.8582  2.1711
   27MOL0     H 3721   6.149   2.518  11.623  0.1357 -0.8057  0.2349
   27MOL0     H 3722   6.082   2.175  11.358 -0.7944 -0.3083 -0.4056
   27MOL0     H 3723   6.513   2.301  11.317 -1.7055 -0.5866 -2.3418
   27MOL0     H 3724   6.582   2.118  11.016  0.2406  0.8873  0.6127
   27MOL0     H 3725   6.484   2.126  11.157  1.4054  0.5758 -0.1960
   27MOL0     H 3726   6.429   2.214  11.009  1.0896 -0.7015 -1.7072
   28MOL0     O 3727   9.514   8.873   4.010  0.0622  0.4617 -0.3287
   28MOL0     C 3728   9.520   8.847   4.128 -0.8578 -0.0309 -0.2308
   28MOL0     O 3729   9.432   8.764   4.192 -0.6644  0.2328 -0.3692
   28MOL0     C 3730   9.358   8.675   4.115 -1.0798 -0.3184 -0.6461
   28MOL0     C 3731   9.239   8.716   4.053  0.1732  0.7795 -0.1260
   28MOL0     C 3732   9.157   8.620   4.002 -0.8337  0.5073 -0.5755
   28MOL0     C 3733   9.200   8.484   3.988 -0.0128  1.0894  0.3281
   28MOL0     O 3734   9.117   8.397   3.918  0.2040  0.7019  0.4551
   28MOL0     C 3735   9.152   8.257   3.896 -0.3569  0.1013 -0.5480
   28MOL0     C 3736   9.063   8.193   3.783 -0.6747 -0.2955  0.0023
   28MOL0     C 3737   8.915   8.206   3.826  0.3831 -0.2944  1.2494
   28MOL0     C 3738   8.831   8.290   3.724  0.5274 -0.8828 -0.1529
   28MOL0     C 3739   8.675   8.263   3.758 -0.4035  0.2361 -0.8638
   28MOL0     C 3740   8.618   8.409   3.786  0.9123 -0.5353  1.0410
   28MOL0     C 3741   8.470   8.407   3.796 -0.4266 -0.1340  1.1727
   28MOL0     C 3742   8.401   8.546   3.817  0.7633  0.2749  0.0585
   28MOL0     N 3743   8.408   8.594   3.951 -0.2038  0.2983 -0.9256
   28MOL0     C 3744   8.390   8.524   4.070  0.0505 -0.4276 -0.2434
   28MOL0     C 3745   8.416   8.615   4.168  0.3770  0.5784 -0.4578
   28MOL0     C 3746   8.396   8.612   4.319 -0.6998 -0.7917 -0.1192
   28MOL0     C 3747   8.535   8.592   4.377 -0.2405 -0.7305 -0.2336
   28MOL0     C 3748   8.522   8.658   4.520 -0.0954 -0.0436 -0.3235
   28MOL0     C 3749   8.652   8.622   4.604 -0.0966 -0.3638 -0.0962
   28MOL0     O 3750   8.642   8.689   4.739 -0.7172 -0.3546  0.3684
   28MOL0     C 3751   8.758   8.682   4.809 -0.0956 -0.0480  0.6571
   28MOL0     C 3752   8.861   8.582   4.792  0.2405  0.1813  0.4553
   28MOL0     C 3753   8.970   8.577   4.885 -0.6238  0.1645  1.4538
   28MOL0     C 3754   9.069   8.468   4.859 -0.5013 -0.9752  0.6834
   28MOL0     C 3755   8.974   8.666   4.995 -0.4227  0.2986 -0.8453
   28MOL0     C 3756   9.084   8.673   5.106 -0.5635  0.4868  0.4078
   28MOL0     O 3757   9.108   8.794   5.158 -0.1881  0.5154  0.1165
   28MOL0     C 3758   9.212   8.833   5.238 -1.0849 -0.2150 -0.5225
   28MOL0     C 3759   9.343   8.787   5.246  0.8702 -0.0972 -0.2473
   28MOL0     C 3760   9.437   8.849   5.323 -0.4191 -0.4113 -0.3409
   28MOL0     C 3761   9.414   8.973   5.370  0.4300 -0.0136 -0.7528
   28MOL0     O 3762   9.510   9.048   5.440  0.1738  0.6009 -0.2832
   28MOL0     C 3763   9.584   8.985   5.546  0.1261 -0.0971 -0.1910
   28MOL0     C 3764   9.655   9.090   5.623 -0.6029 -0.4424  0.0052
   28MOL0     C 3765   9.561   9.163   5.715  0.1921 -0.5382 -0.9896
   28MOL0     C 3766   9.626   9.281   5.776  0.6744 -0.3720 -0.0493
   28MOL0     C 3767   9.742   9.251   5.879  0.3335  0.4029 -0.6789
   28MOL0     C 3768   9.705   9.149   5.990 -0.1627 -0.5845 -0.4548
   28MOL0     C 3769   9.829   9.136   6.093 -2.0552  0.7921 -0.6450
   28MOL0     C 3770   9.813   9.071   6.234 -0.3343 -0.0915  0.5814
   28MOL0    Cl 3771   9.960   9.042   6.337  0.1272 -0.3804  0.3876
   28MOL0     C 3772   9.287   9.025   5.367  0.2888  0.0815 -0.0213
   28MOL0     C 3773   9.194   8.955   5.299  0.8395  0.4052  0.8913
   28MOL0     O 3774   9.140   8.570   5.141 -1.3370 -0.0067  0.2062
   28MOL0     C 3775   8.862   8.747   5.016 -1.3286 -0.2562  0.9442
   28MOL0     C 3776   8.763   8.756   4.921 -0.2392 -1.6698 -0.4502
   28MOL0     N 3777   8.448   8.733   4.110 -0.1418  0.1959 -0.3008
   28MOL0     N 3778   8.440   8.726   3.981  0.6384  0.1283  0.9316
   28MOL0     C 3779   9.306   8.443   4.058 -0.3798  0.1455  0.0964
   28MOL0     C 3780   9.384   8.541   4.135  0.9229  0.0482  0.9733
   28MOL0     C 3781   9.615   8.936   4.202 -0.3474  1.1876 -1.1059
   28MOL0     C 3782   9.558   8.982   4.332  1.0068 -0.2284 -0.0720
   28MOL0     C 3783   9.643   9.053   4.409  0.3143 -0.0366 -0.4775
   28MOL0     C 3784   9.785   9.072   4.385  0.9176  0.3501 -0.0167
   28MOL0     O 3785   9.880   9.122   4.472 -0.0106 -0.3773 -0.1037
   28MOL0     C 3786   9.836   9.181   4.596 -0.6562 -0.1829 -0.8026
   28MOL0     C 3787   9.789   9.328   4.567  0.2818  0.8081  0.2752
   28MOL0     C 3788   9.721   9.415   4.681  0.3976 -0.1895  0.5371
   28MOL0     C 3789   9.597   9.352   4.744 -0.5911 -0.0818  0.2751
   28MOL0     C 3790   9.558   9.444   4.846  0.5936 -0.7044  0.1539
   28MOL0     C 3791   9.505   9.522   4.923 -0.5141 -0.0694 -0.1379
   28MOL0     C 3792   9.828   9.028   4.266 -0.0445 -0.9954  0.1745
   28MOL0     C 3793   9.748   8.964   4.176 -0.0758  0.7193 -0.4597
   28MOL0     C 3794   9.821   8.905   4.057  0.4772 -0.5300 -0.7039
   28MOL0     H 3795   9.209   8.820   4.045  0.9624  0.9055 -1.8825
   28MOL0     H 3796   9.064   8.651   3.955 -2.3405  4.4069  4.1648
   28MOL0     H 3797   9.145   8.192   3.984  0.8727  2.0008  1.0353
   28MOL0     H 3798   9.251   8.246   3.851  0.0743 -0.0123  0.3961
   28MOL0     H 3799   9.090   8.254   3.697  1.2906 -0.9108  0.1221
   28MOL0     H 3800   9.077   8.086   3.764 -2.6580 -0.5238 -0.3973
   28MOL0     H 3801   8.875   8.104   3.826  0.7593 -0.5002 -1.0608
   28MOL0     H 3802   8.905   8.252   3.924 -1.3262 -2.1131  2.0049
   28MOL0     H 3803   8.855   8.395   3.739 -1.0939 -0.5108 -0.0322
   28MOL0     H 3804   8.843   8.269   3.617 -3.2476  0.0061 -0.9074
   28MOL0     H 3805   8.666   8.197   3.846 -0.7259 -3.0315 -3.1622
   28MOL0     H 3806   8.625   8.212   3.675  1.8384  1.0097 -2.7982
   28MOL0     H 3807   8.656   8.444   3.882  2.3856  1.7738 -0.2979
   28MOL0     H 3808   8.645   8.469   3.699 -0.8243 -0.2655  0.6536
   28MOL0     H 3809   8.433   8.340   3.875 -2.7576 -0.6400 -0.2687
   28MOL0     H 3810   8.433   8.366   3.702  1.2007  0.6785  0.1416
   28MOL0     H 3811   8.436   8.620   3.745  1.6309 -0.0649  0.1146
   28MOL0     H 3812   8.295   8.525   3.801  0.9938 -1.0332  0.1541
   28MOL0     H 3813   8.354   8.427   4.100 -2.5268  0.6767  0.5291
   28MOL0     H 3814   8.341   8.517   4.322  0.7124 -1.6902 -1.4221
   28MOL0     H 3815   8.333   8.695   4.353  0.4945 -0.6719  1.9216
   28MOL0     H 3816   8.550   8.486   4.397 -1.2226 -0.4710  2.1371
   28MOL0     H 3817   8.617   8.645   4.327 -2.1510  1.2086 -1.5242
   28MOL0     H 3818   8.512   8.765   4.503 -0.8492 -0.5062 -3.4792
   28MOL0     H 3819   8.432   8.627   4.573  1.6459  2.8258  5.0134
   28MOL0     H 3820   8.646   8.515   4.628 -2.8370 -0.1682  0.4112
   28MOL0     H 3821   8.747   8.651   4.559  0.1047  5.0273  3.0196
   28MOL0     H 3822   8.863   8.520   4.703  0.4427  0.5362  0.2092
   28MOL0     H 3823   9.041   8.418   4.766 -1.5702  0.8857 -0.0506
   28MOL0     H 3824   9.038   8.392   4.932 -2.0178 -0.2147  0.8771
   28MOL0     H 3825   9.173   8.499   4.864 -0.8778  0.5588 -0.3874
   28MOL0     H 3826   9.376   8.691   5.210 -2.5346 -0.9008 -1.5939
   28MOL0     H 3827   9.536   8.806   5.342  0.1374  0.7656 -0.5176
   28MOL0     H 3828   9.514   8.931   5.610 -0.4062  1.8026  0.9019
   28MOL0     H 3829   9.664   8.923   5.505  0.5091  0.5273 -0.3912
   28MOL0     H 3830   9.725   9.030   5.682 -1.2130 -2.0117 -0.8013
   28MOL0     H 3831   9.712   9.150   5.552 -1.1373  0.0194 -0.0402
   28MOL0     H 3832   9.506   9.098   5.785 -2.2945  2.8240  0.4350
   28MOL0     H 3833   9.483   9.206   5.652  1.9262  2.8677 -0.9877
   28MOL0     H 3834   9.547   9.339   5.825 -1.0011 -1.5190 -1.3012
   28MOL0     H 3835   9.662   9.350   5.700  0.8332 -0.1723  0.2084
   28MOL0     H 3836   9.822   9.199   5.826  2.5326  1.5742  1.3410
   28MOL0     H 3837   9.783   9.340   5.928  3.3775 -0.6482 -1.1069
   28MOL0     H 3838   9.684   9.050   5.946 -0.8693 -0.2040 -1.0011
   28MOL0     H 3839   9.610   9.178   6.036  1.0654  1.9013  0.6881
   28MOL0     H 3840   9.861   9.240   6.104  0.2113  0.1903 -1.0157
   28MOL0     H 3841   9.909   9.080   6.045 -2.7926  0.1400 -1.1401
   28MOL0     H 3842   9.768   8.976   6.205  0.6035 -0.4446  0.2443
   28MOL0     H 3843   9.740   9.136   6.283 -0.8856  0.5266 -1.0094
   28MOL0     H 3844   9.264   9.127   5.392 -3.0319 -1.2513  3.1972
   28MOL0     H 3845   9.096   8.998   5.279  1.7431  2.0356 -0.2623
   28MOL0     H 3846   8.845   8.804   5.106 -0.2892  0.7553  0.5152
   28MOL0     H 3847   8.691   8.835   4.941 -0.1331 -2.2203  2.5382
   28MOL0     H 3848   9.345   8.342   4.051  3.8926  1.2615  2.9640
   28MOL0     H 3849   9.471   8.506   4.191  1.6875  2.4469  1.4017
   28MOL0     H 3850   9.456   8.968   4.368  0.2975  1.0346 -1.4710
   28MOL0     H 3851   9.594   9.107   4.489 -2.6168  0.7803 -2.6661
   28MOL0     H 3852   9.747   9.129   4.632  0.1868 -1.1702 -0.1083
   28MOL0     H 3853   9.915   9.177   4.671 -2.0656  2.0321  0.9285
   28MOL0     H 3854   9.723   9.319   4.481 -0.6943  0.6558  1.0178
   28MOL0     H 3855   9.881   9.374   4.530 -0.3621 -0.1761 -2.8077
   28MOL0     H 3856   9.794   9.433   4.761  0.3009 -0.2617  0.6406
   28MOL0     H 3857   9.693   9.502   4.620 -2.8836 -2.7748 -1.9973
   28MOL0     H 3858   9.625   9.258   4.791 -2.8047 -1.0122 -0.1459
   28MOL0     H 3859   9.512   9.353   4.674 -0.3949 -1.3970 -0.0165
   28MOL0     H 3860   9.459   9.597   4.984 -2.0404  2.4796 -4.0219
   28MOL0     H 3861   9.935   9.030   4.251  0.0876 -2.5945  0.7089
   28MOL0     H 3862   9.922   8.942   4.039  1.1725 -1.4224  1.1291
   28MOL0     H 3863   9.827   8.796   4.066  1.9846 -0.5649 -1.8116
   28MOL0     H 3864   9.765   8.915   3.963 -1.2658 -0.5424  0.2777
   29MOL0     O 3865   1.081   2.651  10.389 -0.5915 -0.7192  0.2953
   29MOL0     C 3866   1.186   2.609  10.445  0.2452  0.5610  0.0573
   29MOL0     O 3867   1.212   2.598  10.578  0.0452 -0.0119 -0.2698
   29MOL0     C 3868   1.126   2.643  10.679 -0.5335 -0.3913  0.2604
   29MOL0     C 3869   1.175   2.638  10.812  0.0918 -0.1291  0.0276
   29MOL0     C 3870   1.095   2.675  10.918  0.1294 -0.1924 -0.5983
   29MOL0     C 3871   0.974   2.740  10.900  0.4218  0.1880 -0.9591
   29MOL0     O 3872   0.902   2.789  11.004  0.1295 -0.4838 -0.2299
   29MOL0     C 3873   0.962   2.856  11.116 -0.4516  0.6621 -0.7208
   29MOL0     C 3874   0.962   2.755  11.234 -0.5515 -0.0151  0.1925
   29MOL0     C 3875   0.992   2.833  11.365 -0.1719  0.4662  0.4015
   29MOL0     C 3876   0.946   2.757  11.490 -0.1329 -0.0388  0.4360
   29MOL0     C 3877   0.973   2.835  11.613 -0.9042  0.2546  1.3237
   29MOL0     C 3878   0.883   2.961  11.626 -0.0970  0.2379  0.8388
   29MOL0     C 3879   0.861   2.999  11.767 -0.5433 -0.1513 -0.6260
   29MOL0     C 3880   0.761   3.124  11.773 -0.0842 -0.8167  0.1007
   29MOL0     N 3881   0.775   3.194  11.901 -0.1190  0.4640 -0.1639
   29MOL0     C 3882   0.872   3.285  11.931  0.4725 -0.1042 -0.2780
   29MOL0     C 3883   0.850   3.319  12.065 -0.8144  0.2668  0.4085
   29MOL0     C 3884   0.920   3.426  12.140 -0.0031  0.3607 -0.1666
   29MOL0     C 3885   0.821   3.550  12.164 -0.0660 -0.1514  1.1579
   29MOL0     C 3886   0.757   3.625  12.045  0.8736 -0.8398 -0.7198
   29MOL0     C 3887   0.701   3.762  12.104 -0.6132  0.6744 -1.2770
   29MOL0     O 3888   0.676   3.857  11.996  0.2050  0.3453 -0.9424
   29MOL0     C 3889   0.786   3.915  11.934  0.0054  1.1615  1.0623
   29MOL0     C 3890   0.763   3.946  11.801 -0.3715 -0.3264 -0.4710
   29MOL0     C 3891   0.864   3.980  11.717  0.4176 -0.3674  0.7791
   29MOL0     C 3892   0.822   3.995  11.573 -0.1234  0.6642  0.3790
   29MOL0     C 3893   1.008   3.986  11.762  0.2583  1.1107 -0.2385
   29MOL0     C 3894   1.127   4.013  11.678 -0.0657 -0.4954 -0.0507
   29MOL0     O 3895   1.234   4.060  11.753  0.1714 -0.6035  0.0768
   29MOL0     C 3896   1.350   4.103  11.691  0.2274  0.5008  0.1395
   29MOL0     C 3897   1.436   4.002  11.644 -0.5896  0.7774  0.4253
   29MOL0     C 3898   1.538   4.041  11.562 -0.6826  0.2402  0.9274
   29MOL0     C 3899   1.582   4.176  11.540 -0.5457  0.0084  1.9695
   29MOL0     O 3900   1.688   4.214  11.466 -0.0431 -0.4619  0.2677
   29MOL0     C 3901   1.813   4.158  11.510  0.5566  0.3617  0.5791
   29MOL0     C 3902   1.915   4.223  11.422 -0.1926 -0.0949  0.2874
   29MOL0     C 3903   2.042   4.123  11.407  0.3429  0.0016 -0.1196
   29MOL0     C 3904   2.120   4.091  11.544  0.1309 -0.6112  0.3161
   29MOL0     C 3905   2.234   3.993  11.536  0.1090 -0.2045  1.1704
   29MOL0     C 3906   2.345   4.032  11.445 -0.6858  1.0374  0.0499
   29MOL0     C 3907   2.429   3.911  11.403  0.5854 -0.9725  0.2410
   29MOL0     C 3908   2.536   3.967  11.300  0.4490  0.2944 -0.0390
   29MOL0    Cl 3909   2.622   4.094  11.385  0.0903 -0.0607 -0.2225
   29MOL0     C 3910   1.506   4.274  11.611  0.5036 -0.4716  1.0978
   29MOL0     C 3911   1.388   4.240  11.683 -0.0975  0.6638  0.3702
   29MOL0     O 3912   1.115   4.015  11.559 -0.8824 -0.1191 -0.1765
   29MOL0     C 3913   1.018   3.952  11.893  0.1327 -0.4745  0.6194
   29MOL0     C 3914   0.916   3.916  11.982 -0.0737  0.2210  0.7687
   29MOL0     N 3915   0.742   3.244  12.111  0.0106  0.5172 -0.5903
   29MOL0     N 3916   0.700   3.171  12.013  0.3181 -0.0597 -0.1055
   29MOL0     C 3917   0.926   2.755  10.767  0.9943  0.5723 -0.6872
   29MOL0     C 3918   0.998   2.702  10.658  0.7377  0.0045  0.5705
   29MOL0     C 3919   1.305   2.575  10.360  0.7923 -0.9674 -0.5730
   29MOL0     C 3920   1.424   2.648  10.380 -0.9394 -0.4380  0.6109
   29MOL0     C 3921   1.542   2.622  10.317 -0.1702  0.2358  0.0408
   29MOL0     C 3922   1.539   2.555  10.190 -0.3928  0.0772 -1.2896
   29MOL0     O 3923   1.651   2.546  10.105 -0.5445 -0.0741  0.1962
   29MOL0     C 3924   1.784   2.557  10.163  0.2373 -0.6534  0.5017
   29MOL0     C 3925   1.840   2.694  10.145  0.5607  1.3423 -0.0619
   29MOL0     C 3926   1.832   2.729   9.995 -0.6469 -0.1240  0.6539
   29MOL0     C 3927   1.933   2.831   9.952 -0.2540  0.3674 -0.1751
   29MOL0     C 3928   2.053   2.767   9.895 -1.1527 -0.2943  0.4905
   29MOL0     C 3929   2.159   2.743   9.837 -0.2191  0.8611 -0.4672
   29MOL0     C 3930   1.421   2.482  10.163  0.8486 -1.4282  0.3390
   29MOL0     C 3931   1.307   2.493  10.245  0.1728  0.4400  0.4000
   29MOL0     C 3932   1.188   2.417  10.203  0.1261 -0.3301 -0.0032
   29MOL0     H 3933   1.268   2.586  10.829 -1.5130 -2.7841  1.2511
   29MOL0     H 3934   1.126   2.655  11.020 -2.3974 -1.9729 -0.0671
   29MOL0     H 3935   0.895   2.937  11.146 -1.2763 -0.4694  0.6233
   29MOL0     H 3936   1.061   2.899  11.098  0.1467 -0.1177  0.5780
   29MOL0     H 3937   0.861   2.714  11.244  0.6722 -2.7245  3.2028
   29MOL0     H 3938   1.038   2.681  11.210 -0.5006 -0.0756  0.5344
   29MOL0     H 3939   1.100   2.848  11.379 -0.4618  1.1958  2.0304
   29MOL0     H 3940   0.948   2.933  11.357 -1.5720 -0.2293 -1.3113
   29MOL0     H 3941   0.838   2.741  11.476 -0.7594  0.9650  3.5072
   29MOL0     H 3942   1.003   2.663  11.483  1.6847  0.9887  0.8284
   29MOL0     H 3943   1.079   2.857  11.603 -1.2139  0.7234 -1.7681
   29MOL0     H 3944   0.954   2.771  11.700  0.6633 -2.5337 -0.2651
   29MOL0     H 3945   0.932   3.036  11.564  2.9936 -0.9345  1.7058
   29MOL0     H 3946   0.783   2.935  11.588 -1.7490  1.6212  3.8762
   29MOL0     H 3947   0.963   3.024  11.801 -1.5670  0.9830  1.8744
   29MOL0     H 3948   0.824   2.918  11.829  1.4820  0.0200  0.9195
   29MOL0     H 3949   0.782   3.205  11.703  1.5119  0.4931  1.9920
   29MOL0     H 3950   0.659   3.086  11.766 -0.0774 -0.5988 -2.1076
   29MOL0     H 3951   0.950   3.328  11.869  0.0413  1.6389  0.3198
   29MOL0     H 3952   1.008   3.465  12.088 -0.5018  3.2301  0.9288
   29MOL0     H 3953   0.961   3.380  12.230  0.4497 -1.6507 -1.3385
   29MOL0     H 3954   0.747   3.525  12.240  0.1405 -1.7467  0.8742
   29MOL0     H 3955   0.882   3.623  12.218 -1.2626  0.4104  1.7780
   29MOL0     H 3956   0.833   3.648  11.971 -0.6455  3.2688 -1.2733
   29MOL0     H 3957   0.671   3.574  11.999 -3.7663  1.6410  4.0338
   29MOL0     H 3958   0.606   3.741  12.153  0.8172 -1.4326  0.8246
   29MOL0     H 3959   0.769   3.806  12.177 -0.0779  1.2002 -2.0717
   29MOL0     H 3960   0.661   3.950  11.766 -0.1542 -2.4901 -1.4792
   29MOL0     H 3961   0.823   3.897  11.525 -1.5734  0.8710 -0.1109
   29MOL0     H 3962   0.894   4.060  11.521 -2.5556  1.7972 -1.8226
   29MOL0     H 3963   0.719   4.030  11.563 -0.1255  0.4522 -0.4387
   29MOL0     H 3964   1.419   3.900  11.675  0.1747  0.8165  0.9932
   29MOL0     H 3965   1.608   3.966  11.527  0.9097  1.7813  0.6394
   29MOL0     H 3966   1.818   4.165  11.619 -3.7811  2.8168  0.8739
   29MOL0     H 3967   1.825   4.052  11.487 -1.6730 -0.5361  3.0546
   29MOL0     H 3968   1.883   4.269  11.328 -1.2580  1.2909  1.2967
   29MOL0     H 3969   1.944   4.318  11.467  0.8325 -0.6416  0.8228
   29MOL0     H 3970   2.115   4.186  11.354 -0.0159  3.7060  3.3163
   29MOL0     H 3971   2.030   4.033  11.347 -0.1894  0.2015 -0.3208
   29MOL0     H 3972   2.050   4.053  11.619 -0.0773  1.7822  1.4191
   29MOL0     H 3973   2.157   4.185  11.586  0.1810 -0.1620 -0.7049
   29MOL0     H 3974   2.276   3.986  11.636 -1.6836  1.1932  2.0868
   29MOL0     H 3975   2.195   3.895  11.510 -0.1982  0.0353  0.6962
   29MOL0     H 3976   2.402   4.107  11.501 -1.1639  0.8612  0.7807
   29MOL0     H 3977   2.303   4.079  11.355 -1.2802 -0.0416 -0.2569
   29MOL0     H 3978   2.371   3.829  11.359  2.2590 -1.4829 -1.1325
   29MOL0     H 3979   2.479   3.879  11.494  0.8069 -1.6864 -0.1233
   29MOL0     H 3980   2.487   4.005  11.210  0.5830 -0.8678 -0.6230
   29MOL0     H 3981   2.604   3.884  11.282  0.3442 -0.3640  2.2080
   29MOL0     H 3982   1.524   4.381  11.600 -1.8355 -0.1320 -0.1258
   29MOL0     H 3983   1.322   4.320  11.716 -1.8702  1.4127 -4.2430
   29MOL0     H 3984   1.117   3.972  11.935 -0.6768  0.8781  2.0040
   29MOL0     H 3985   0.943   3.882  12.081  1.8916  0.6483  0.4280
   29MOL0     H 3986   0.830   2.802  10.750  0.4225 -0.5472 -0.6598
   29MOL0     H 3987   0.950   2.723  10.563  3.1692 -0.2325 -0.8145
   29MOL0     H 3988   1.420   2.718  10.463  0.4886 -0.8544  1.0563
   29MOL0     H 3989   1.633   2.676  10.339 -0.4808  0.2537  1.3616
   29MOL0     H 3990   1.784   2.529  10.269 -0.0569  1.9831  1.2736
   29MOL0     H 3991   1.852   2.492  10.109  1.6841  1.1089  0.1102
   29MOL0     H 3992   1.943   2.705  10.180 -0.3614  1.6254  2.8026
   29MOL0     H 3993   1.774   2.757  10.205 -1.7398  0.2833 -1.3625
   29MOL0     H 3994   1.861   2.639   9.940  1.9345 -1.3103  3.6157
   29MOL0     H 3995   1.731   2.766   9.975 -1.9640 -2.7240  1.8003
   29MOL0     H 3996   1.946   2.886  10.045 -2.7635 -2.0858  1.8056
   29MOL0     H 3997   1.896   2.898   9.873  1.2951  1.3006 -0.1457
   29MOL0     H 3998   2.255   2.714   9.799 -0.4375  0.5116 -0.7478
   29MOL0     H 3999   1.424   2.430  10.067  1.1367 -3.7434  1.5129
   29MOL0     H 4000   1.179   2.330  10.269  2.3547  0.8529  2.0378
   29MOL0     H 4001   1.094   2.474  10.211 -0.5942 -1.1068 -2.2476
   29MOL0     H 4002   1.200   2.378  10.102  1.1274 -2.4238  0.8617
   30MOL0     O 4003  10.474   2.406   7.873  0.9037  0.5115 -0.0630
   30MOL0     C 4004  10.412   2.495   7.928  0.3405 -0.3351  0.6465
   30MOL0     O 4005  10.272   2.491   7.960 -0.0934  0.5500  0.1928
   30MOL0     C 4006  10.180   2.411   7.896  0.2052  0.6133 -0.2946
   30MOL0     C 4007  10.053   2.396   7.962  0.3502 -0.4753 -0.1750
   30MOL0     C 4008   9.953   2.329   7.905 -0.0996  0.6869 -0.4835
   30MOL0     C 4009   9.961   2.280   7.777  0.2483 -0.3888  0.6798
   30MOL0     O 4010   9.851   2.227   7.716  0.8979 -0.1374  0.7843
   30MOL0     C 4011   9.767   2.128   7.778 -0.2230 -0.6337  0.3350
   30MOL0     C 4012   9.701   2.045   7.672 -0.4954 -0.0868  0.5201
   30MOL0     C 4013   9.591   1.956   7.733  0.2306 -0.6187 -0.2031
   30MOL0     C 4014   9.505   1.888   7.623 -0.2909 -0.1175  0.8346
   30MOL0     C 4015   9.400   1.793   7.672 -0.5768 -0.2162 -0.6232
   30MOL0     C 4016   9.305   1.745   7.563  0.3300 -0.1957 -0.5217
   30MOL0     C 4017   9.219   1.629   7.638  0.6128 -0.4411 -0.3839
   30MOL0     C 4018   9.078   1.685   7.665 -0.6967 -0.2255 -0.3038
   30MOL0     N 4019   9.014   1.585   7.738 -0.1009  0.4813 -0.8140
   30MOL0     C 4020   8.955   1.483   7.668 -0.4276 -0.0670 -0.4824
   30MOL0     C 4021   8.876   1.417   7.758 -0.4839 -0.1800  0.1397
   30MOL0     C 4022   8.780   1.301   7.717  0.4560  0.3488  0.4403
   30MOL0     C 4023   8.727   1.219   7.832 -0.1938  0.1207  0.0474
   30MOL0     C 4024   8.571   1.242   7.860 -0.0112 -0.4399  0.0471
   30MOL0     C 4025   8.562   1.385   7.925  0.1262 -0.0203 -0.4994
   30MOL0     O 4026   8.430   1.422   7.946  1.1124  0.4715 -0.4418
   30MOL0     C 4027   8.343   1.350   8.027 -0.5648 -0.5475  0.0333
   30MOL0     C 4028   8.210   1.384   8.027 -0.1224  0.0436  0.0741
   30MOL0     C 4029   8.118   1.321   8.120 -0.2200  0.2116 -0.5508
   30MOL0     C 4030   7.974   1.354   8.131 -0.0691 -1.2520  0.1384
   30MOL0     C 4031   8.179   1.224   8.208 -0.1838 -0.7598 -0.0550
   30MOL0     C 4032   8.099   1.130   8.288 -0.6321  0.1266  0.6849
   30MOL0     O 4033   8.112   1.154   8.420 -0.0880 -0.1143  0.3335
   30MOL0     C 4034   8.075   1.059   8.516  0.5558  0.3178  0.0217
   30MOL0     C 4035   7.970   1.081   8.608  0.6133 -0.2895  0.7318
   30MOL0     C 4036   7.943   0.980   8.703  1.0944  0.3982  0.5771
   30MOL0     C 4037   8.025   0.866   8.712 -2.1420 -0.2115 -0.8901
   30MOL0     O 4038   7.980   0.771   8.801  0.2271 -0.0858  0.3617
   30MOL0     C 4039   8.004   0.629   8.760  0.1013  0.2561 -0.2945
   30MOL0     C 4040   7.930   0.531   8.857  0.9443 -0.0079 -1.0702
   30MOL0     C 4041   7.973   0.543   9.004 -0.2759  0.6689  0.0527
   30MOL0     C 4042   8.112   0.486   9.022 -0.0030  0.3553 -0.4640
   30MOL0     C 4043   8.154   0.500   9.166 -0.1982 -0.2528 -0.8627
   30MOL0     C 4044   8.154   0.648   9.211  0.3857 -0.0435 -0.0393
   30MOL0     C 4045   8.241   0.678   9.330  0.0730  0.1064 -0.4658
   30MOL0     C 4046   8.210   0.815   9.396 -0.7683  0.0804  1.0555
   30MOL0    Cl 4047   8.043   0.814   9.459 -0.3868 -0.3468 -0.0385
   30MOL0     C 4048   8.133   0.846   8.629  0.1439 -0.3900 -0.6438
   30MOL0     C 4049   8.154   0.941   8.526 -0.5989 -0.1174  0.4774
   30MOL0     O 4050   8.062   1.018   8.243  0.5399  0.4835  0.1265
   30MOL0     C 4051   8.319   1.209   8.222 -0.3915  0.1881  0.4046
   30MOL0     C 4052   8.400   1.276   8.129  0.1876 -0.7968  0.9182
   30MOL0     N 4053   8.870   1.493   7.869  0.0334  1.0135  0.2440
   30MOL0     N 4054   8.950   1.593   7.861 -0.2947 -0.4320 -1.0467
   30MOL0     C 4055  10.077   2.305   7.703  0.4123 -0.2359 -1.1002
   30MOL0     C 4056  10.191   2.362   7.771 -0.8634 -0.0772  0.6729
   30MOL0     C 4057  10.480   2.609   7.988  0.5205 -0.9397  0.1269
   30MOL0     C 4058  10.400   2.717   8.033  0.6989  0.7772  0.0942
   30MOL0     C 4059  10.453   2.818   8.107  0.3792  0.7343 -0.5906
   30MOL0     C 4060  10.592   2.823   8.130  0.0339  0.1223 -0.5172
   30MOL0     O 4061  10.623   2.942   8.196 -0.6287  0.3273  0.2758
   30MOL0     C 4062  10.760   2.986   8.178 -0.0479  0.3072  0.8933
   30MOL0     C 4063  10.785   3.040   8.040 -0.6489  0.3483  0.2138
   30MOL0     C 4064  10.888   2.963   7.953 -0.1915 -0.4321 -0.3176
   30MOL0     C 4065  11.028   2.948   8.020 -0.2013 -0.5892 -0.4443
   30MOL0     C 4066  11.058   2.810   8.057  0.6118 -0.0476 -0.0710
   30MOL0     C 4067  11.097   2.705   8.093 -0.7476  0.0821  1.0180
   30MOL0     C 4068  10.677   2.718   8.091 -0.3371  0.1601  0.1881
   30MOL0     C 4069  10.617   2.614   8.018 -0.5423  0.0705 -0.8435
   30MOL0     C 4070  10.705   2.494   7.995 -0.8223 -0.1078 -0.2119
   30MOL0     H 4071  10.039   2.437   8.061  0.7875 -1.9854  0.5421
   30MOL0     H 4072   9.858   2.318   7.956  1.4053 -1.0280  2.1410
   30MOL0     H 4073   9.686   2.169   7.839  0.6169 -1.3593  2.0213
   30MOL0     H 4074   9.832   2.058   7.830  2.1238 -0.2847 -1.9247
   30MOL0     H 4075   9.668   2.121   7.600  2.0204 -0.1966 -0.8552
   30MOL0     H 4076   9.766   1.984   7.609 -0.8069  1.3045 -1.2227
   30MOL0     H 4077   9.642   1.878   7.790 -1.9286 -1.6301  0.4666
   30MOL0     H 4078   9.530   2.018   7.800 -0.6122 -0.6926 -0.8839
   30MOL0     H 4079   9.453   1.959   7.558 -0.9834  1.0709  2.6401
   30MOL0     H 4080   9.581   1.844   7.558 -2.0378  1.2727 -2.3891
   30MOL0     H 4081   9.345   1.855   7.744  1.4644  1.9888 -0.8626
   30MOL0     H 4082   9.447   1.715   7.732 -2.5589 -1.3789 -0.4701
   30MOL0     H 4083   9.243   1.830   7.534  1.9506  1.5296  0.8121
   30MOL0     H 4084   9.356   1.697   7.478  2.8105  2.4783 -0.6772
   30MOL0     H 4085   9.255   1.601   7.738  0.4564 -1.1732 -0.5304
   30MOL0     H 4086   9.223   1.541   7.574 -3.9972 -3.1275  2.4454
   30MOL0     H 4087   9.087   1.776   7.725 -0.3060  0.8175 -1.8520
   30MOL0     H 4088   9.027   1.715   7.572 -0.6987 -1.8841 -0.8690
   30MOL0     H 4089   8.966   1.460   7.563  2.8693  1.1836 -0.5052
   30MOL0     H 4090   8.838   1.230   7.657  1.6966 -1.5634  3.6613
   30MOL0     H 4091   8.696   1.334   7.655 -0.8311 -0.7637  1.5211
   30MOL0     H 4092   8.741   1.112   7.814 -0.0052 -0.2526  2.1803
   30MOL0     H 4093   8.795   1.239   7.915  3.5195  2.7756 -3.2806
   30MOL0     H 4094   8.519   1.232   7.764 -0.3695  0.9598  0.0681
   30MOL0     H 4095   8.542   1.163   7.930  1.0959 -0.8168  0.1001
   30MOL0     H 4096   8.613   1.404   8.019 -0.2895 -0.5809 -0.1523
   30MOL0     H 4097   8.604   1.464   7.862  0.2838  1.4559  1.3890
   30MOL0     H 4098   8.176   1.458   7.956  1.5205 -2.4420 -3.5923
   30MOL0     H 4099   7.912   1.304   8.056 -1.6624 -1.2697  1.4024
   30MOL0     H 4100   7.969   1.463   8.118  1.0536 -0.9563  1.8743
   30MOL0     H 4101   7.923   1.326   8.223 -0.8569 -2.1154 -0.5504
   30MOL0     H 4102   7.908   1.169   8.602 -3.2338 -2.7534  1.0979
   30MOL0     H 4103   7.859   0.984   8.772  1.5854 -0.4080  1.2447
   30MOL0     H 4104   7.957   0.614   8.662 -4.5163  2.3282  1.3027
   30MOL0     H 4105   8.110   0.607   8.754  0.1478  0.7807 -2.3210
   30MOL0     H 4106   7.827   0.570   8.859  1.5309  2.0559 -4.0706
   30MOL0     H 4107   7.940   0.428   8.822  1.8290 -0.1437 -0.4543
   30MOL0     H 4108   7.899   0.483   9.058  2.4174  0.6833  4.1559
   30MOL0     H 4109   7.964   0.647   9.037  0.0887  1.1599 -1.3078
   30MOL0     H 4110   8.178   0.552   8.965 -0.6069  2.2702  0.9575
   30MOL0     H 4111   8.114   0.385   8.981  2.9621 -0.2977  0.9548
   30MOL0     H 4112   8.085   0.450   9.234 -0.7459  1.9679  0.3089
   30MOL0     H 4113   8.256   0.460   9.171 -0.3445 -0.6883 -1.2891
   30MOL0     H 4114   8.053   0.679   9.239 -0.2343 -1.1090 -1.0086
   30MOL0     H 4115   8.193   0.707   9.128  3.0869 -0.0990  1.1078
   30MOL0     H 4116   8.348   0.674   9.306 -0.1051 -0.3679 -1.1967
   30MOL0     H 4117   8.235   0.597   9.404  2.5595 -0.9228 -1.2993
   30MOL0     H 4118   8.231   0.894   9.323 -3.0257 -0.4927 -0.2939
   30MOL0     H 4119   8.286   0.832   9.473  0.1745  1.7232 -0.1551
   30MOL0     H 4120   8.189   0.753   8.632  2.3421  0.8264  3.8644
   30MOL0     H 4121   8.237   0.932   8.456  2.7446  3.1411  3.5685
   30MOL0     H 4122   8.357   1.126   8.281  0.0102  0.2420  0.2237
   30MOL0     H 4123   8.508   1.263   8.134 -0.0275 -2.2830  3.0349
   30MOL0     H 4124  10.091   2.271   7.601  0.9806 -1.7024 -0.5634
   30MOL0     H 4125  10.282   2.389   7.718  0.4399 -1.4628  2.0928
   30MOL0     H 4126  10.294   2.724   8.013  0.7671 -2.1891 -1.8795
   30MOL0     H 4127  10.385   2.899   8.131 -4.5377 -2.3181 -2.6468
   30MOL0     H 4128  10.768   3.070   8.248 -1.0963  0.5116  0.7839
   30MOL0     H 4129  10.830   2.904   8.199 -1.8412 -1.6663 -0.3941
   30MOL0     H 4130  10.821   3.143   8.041 -0.9311  0.8059 -5.0576
   30MOL0     H 4131  10.698   3.026   7.975 -0.3222 -0.7315 -0.0121
   30MOL0     H 4132  10.859   2.864   7.917  2.3148 -1.9577  1.5748
   30MOL0     H 4133  10.893   3.027   7.864 -1.2030 -1.1498 -0.9221
   30MOL0     H 4134  11.030   3.020   8.102  0.2374  1.0496 -1.8241
   30MOL0     H 4135  11.105   2.990   7.955 -1.5563  1.3677 -0.8771
   30MOL0     H 4136  11.137   2.615   8.135  4.4848  1.7783  0.4296
   30MOL0     H 4137  10.781   2.729   8.120  0.0898 -0.1894 -1.1027
   30MOL0     H 4138  10.724   2.490   7.887 -2.4449  1.2078 -0.5895
   30MOL0     H 4139  10.802   2.513   8.042 -0.9324  4.8024 -1.3434
   30MOL0     H 4140  10.665   2.403   8.040  0.1877  0.8253  2.7810
   31MOL0     O 4141   3.418   9.744   1.451 -0.2504 -0.6527 -0.8628
   31MOL0     C 4142   3.529   9.757   1.491  0.1247 -0.5777 -0.0671
   31MOL0     O 4143   3.602   9.866   1.490  0.2233  0.1708  0.0951
   31MOL0     C 4144   3.557   9.998   1.474  0.8831  1.2552  0.0718
   31MOL0     C 4145   3.430  10.042   1.444  0.8390  0.0274 -0.4959
   31MOL0     C 4146   3.397  10.179   1.460 -1.3458 -0.3683 -0.2631
   31MOL0     C 4147   3.504  10.278   1.475 -0.7766 -0.6491  0.5630
   31MOL0     O 4148   3.472  10.419   1.476 -0.4236  0.4373  0.5407
   31MOL0     C 4149   3.337  10.462   1.434 -0.2409 -0.3589  0.6133
   31MOL0     C 4150   3.332  10.443   1.273  0.5975 -0.1136 -1.5336
   31MOL0     C 4151   3.185  10.442   1.208 -0.0749  1.5481  0.7172
   31MOL0     C 4152   3.178  10.356   1.085  0.2971  0.1487  0.2188
   31MOL0     C 4153   3.030  10.353   1.025  0.4836  0.1518  0.0438
   31MOL0     C 4154   3.046  10.264   0.894 -0.8034  0.9475 -0.2911
   31MOL0     C 4155   2.916  10.233   0.827 -0.1180 -0.2063 -0.5836
   31MOL0     C 4156   2.944  10.134   0.706  0.0362 -0.0785 -0.5978
   31MOL0     N 4157   2.827  10.052   0.685  0.0990  0.2453 -0.2638
   31MOL0     C 4158   2.729  10.091   0.595 -0.0284  0.5966 -0.0478
   31MOL0     C 4159   2.646   9.985   0.594  0.5850  0.7303  0.7227
   31MOL0     C 4160   2.519   9.953   0.510  0.1376  0.0621 -0.4506
   31MOL0     C 4161   2.549   9.918   0.370 -0.0579  1.2740  0.5701
   31MOL0     C 4162   2.560  10.035   0.271 -0.0802  0.2162  0.1671
   31MOL0     C 4163   2.414  10.072   0.216 -0.8068  0.2111 -0.2682
   31MOL0     O 4164   2.376  10.035   0.085  0.2572  0.6763  0.0286
   31MOL0     C 4165   2.306   9.917   0.056 -0.3782 -0.3731  0.4836
   31MOL0     C 4166   2.276   9.894  -0.078 -0.0764 -0.6211  0.3595
   31MOL0     C 4167   2.206   9.790  -0.131  0.3753 -0.3168  0.3241
   31MOL0     C 4168   2.175   9.816  -0.280 -0.7291  0.6222 -0.1356
   31MOL0     C 4169   2.159   9.692  -0.037  0.1881  0.4731 -0.2376
   31MOL0     C 4170   2.072   9.580  -0.083 -0.5196 -0.8849 -0.4571
   31MOL0     O 4171   2.009   9.606  -0.200  0.4890 -0.5640  0.6390
   31MOL0     C 4172   1.915   9.520  -0.249 -0.5718 -0.2761  0.2332
   31MOL0     C 4173   1.954   9.432  -0.344  0.6133  0.0148 -0.7937
   31MOL0     C 4174   1.867   9.324  -0.381 -0.2450 -0.0239 -0.6561
   31MOL0     C 4175   1.738   9.322  -0.326 -0.7088  0.1941 -0.6682
   31MOL0     O 4176   1.641   9.238  -0.356  0.3841 -0.7157  0.5454
   31MOL0     C 4177   1.669   9.106  -0.394  0.7995  0.0322  0.1058
   31MOL0     C 4178   1.540   9.026  -0.420  0.2832  0.7794  0.5032
   31MOL0     C 4179   1.591   8.884  -0.447  0.4569 -0.8880  0.6311
   31MOL0     C 4180   1.459   8.808  -0.493  0.5538 -0.3499 -0.2550
   31MOL0     C 4181   1.492   8.675  -0.552  0.7738 -0.2662 -0.3700
   31MOL0     C 4182   1.378   8.579  -0.549 -0.0667  0.3423  0.0502
   31MOL0     C 4183   1.412   8.441  -0.617 -0.3816 -0.0399 -0.5728
   31MOL0     C 4184   1.296   8.417  -0.707 -0.0636 -0.6334 -0.2290
   31MOL0    Cl 4185   1.319   8.271  -0.803  0.2410 -0.1119  0.1908
   31MOL0     C 4186   1.693   9.427  -0.241 -0.8098 -0.3416 -0.0610
   31MOL0     C 4187   1.788   9.521  -0.201 -1.2899  0.6106  0.2085
   31MOL0     O 4188   2.054   9.478  -0.020  0.7778  0.5988 -0.1865
   31MOL0     C 4189   2.180   9.713   0.104 -0.3253 -0.0241  0.8737
   31MOL0     C 4190   2.259   9.820   0.145  0.4278  0.6150 -0.5115
   31MOL0     N 4191   2.690   9.887   0.692  0.9474 -0.5857  0.4119
   31MOL0     N 4192   2.800   9.937   0.746  0.5601  0.2069 -0.3801
   31MOL0     C 4193   3.635  10.231   1.498  0.2732  0.0898 -0.0267
   31MOL0     C 4194   3.659  10.093   1.485 -0.1836 -0.3513 -1.8198
   31MOL0     C 4195   3.587   9.634   1.569  0.2697 -0.8909  0.5969
   31MOL0     C 4196   3.661   9.663   1.684  0.5877  0.1732  0.0780
   31MOL0     C 4197   3.686   9.565   1.779  0.3675 -0.8258  0.4929
   31MOL0     C 4198   3.639   9.432   1.753  0.7118 -0.7233  0.0312
   31MOL0     O 4199   3.646   9.338   1.852 -0.0878  0.3941  0.2212
   31MOL0     C 4200   3.544   9.329   1.946  0.5043  0.0666 -0.3782
   31MOL0     C 4201   3.609   9.323   2.086 -0.0974 -0.7543 -1.2964
   31MOL0     C 4202   3.509   9.336   2.200 -0.3583 -0.5256 -0.0095
   31MOL0     C 4203   3.580   9.340   2.339 -0.0974 -0.1540 -0.4687
   31MOL0     C 4204   3.649   9.211   2.360  0.1570  0.1545 -0.0487
   31MOL0     C 4205   3.701   9.110   2.392  0.2084 -0.3402 -0.2568
   31MOL0     C 4206   3.574   9.400   1.637 -0.8922 -0.2767  0.5432
   31MOL0     C 4207   3.539   9.499   1.549 -1.0147  0.0159 -0.1834
   31MOL0     C 4208   3.468   9.451   1.424 -0.7038 -0.0663  0.0187
   31MOL0     H 4209   3.346   9.975   1.425  1.0140 -0.2910 -0.1556
   31MOL0     H 4210   3.291  10.194   1.443 -1.5035 -2.7698 -1.9497
   31MOL0     H 4211   3.320  10.568   1.455  1.0510 -0.0912  0.3810
   31MOL0     H 4212   3.254  10.424   1.495 -1.5373  0.9084 -0.3263
   31MOL0     H 4213   3.385  10.522   1.220  0.2983  3.0786  2.4412
   31MOL0     H 4214   3.371  10.342   1.259 -0.3897 -0.6707 -0.4725
   31MOL0     H 4215   3.116  10.406   1.284  2.9798 -1.5840  2.2808
   31MOL0     H 4216   3.161  10.545   1.179  1.4005  0.9858 -3.1867
   31MOL0     H 4217   3.236  10.387   0.998 -0.6242 -1.4233 -1.0290
   31MOL0     H 4218   3.208  10.254   1.112  2.0299  0.2388 -1.2233
   31MOL0     H 4219   2.979  10.448   1.008 -1.2023 -0.8452 -0.6597
   31MOL0     H 4220   2.967  10.298   1.096  0.2752 -0.5294 -0.6543
   31MOL0     H 4221   3.117  10.311   0.825  0.3446 -0.8865 -0.4184
   31MOL0     H 4222   3.094  10.169   0.918 -0.2216  1.0253 -1.1380
   31MOL0     H 4223   2.874  10.323   0.782  1.1413  0.3270 -0.7561
   31MOL0     H 4224   2.852  10.178   0.896  1.4631  0.7949  1.8126
   31MOL0     H 4225   2.977  10.189   0.617 -0.0284 -0.2906 -0.7514
   31MOL0     H 4226   3.022  10.062   0.731 -0.4233 -0.4204 -0.1349
   31MOL0     H 4227   2.729  10.173   0.524  2.6729  0.0843 -0.7269
   31MOL0     H 4228   2.452  10.039   0.516 -1.3809 -0.6342 -4.3070
   31MOL0     H 4229   2.466   9.866   0.551  2.6429 -0.5036  1.8777
   31MOL0     H 4230   2.647   9.872   0.356 -1.2610 -0.4137 -3.6031
   31MOL0     H 4231   2.476   9.844   0.337  0.9712 -0.1410  1.3283
   31MOL0     H 4232   2.599  10.117   0.331  0.7447  0.4127 -0.6230
   31MOL0     H 4233   2.628  10.009   0.189  2.0512  0.4663  1.7908
   31MOL0     H 4234   2.338  10.045   0.290  0.3319 -1.7012  0.2674
   31MOL0     H 4235   2.404  10.181   0.218  0.8888  0.4008  1.0158
   31MOL0     H 4236   2.295   9.980  -0.142 -1.3659 -1.8737 -1.7977
   31MOL0     H 4237   2.092   9.886  -0.297  0.5862  1.9095 -1.6922
   31MOL0     H 4238   2.144   9.732  -0.343 -3.4050  0.9667  0.5793
   31MOL0     H 4239   2.265   9.862  -0.321 -0.7703  0.7636 -0.0708
   31MOL0     H 4240   2.051   9.440  -0.392 -0.0924  1.1390 -2.1174
   31MOL0     H 4241   1.905   9.247  -0.446 -1.4369  0.7218 -2.3213
   31MOL0     H 4242   1.724   9.106  -0.488  1.3287 -1.1738  0.3950
   31MOL0     H 4243   1.712   9.063  -0.303 -3.5030  0.7176  2.7368
   31MOL0     H 4244   1.476   9.022  -0.332  1.8754 -0.7383  1.6595
   31MOL0     H 4245   1.491   9.060  -0.512  0.5774 -3.3797 -1.4279
   31MOL0     H 4246   1.643   8.835  -0.364 -0.5782 -0.2843  1.6789
   31MOL0     H 4247   1.664   8.878  -0.528 -0.1629  0.9367 -0.1173
   31MOL0     H 4248   1.395   8.858  -0.566 -0.3553 -1.5970 -0.3563
   31MOL0     H 4249   1.405   8.794  -0.399 -1.2933  0.0858 -1.2084
   31MOL0     H 4250   1.535   8.675  -0.652 -0.3197 -2.2204 -0.9026
   31MOL0     H 4251   1.567   8.618  -0.496  0.2738 -1.4194 -0.8476
   31MOL0     H 4252   1.281   8.614  -0.585 -2.1366 -3.0002  1.8476
   31MOL0     H 4253   1.362   8.564  -0.442  0.0086  3.2053  0.5279
   31MOL0     H 4254   1.408   8.365  -0.539 -0.4989  0.7031  0.1645
   31MOL0     H 4255   1.514   8.444  -0.657  0.7306  1.5155  2.0508
   31MOL0     H 4256   1.276   8.494  -0.782 -1.6454 -1.2237 -0.4559
   31MOL0     H 4257   1.202   8.395  -0.655  0.2049  0.3424  0.7126
   31MOL0     H 4258   1.588   9.430  -0.213 -1.0251 -0.4671 -0.8227
   31MOL0     H 4259   1.764   9.585  -0.115  2.2491 -1.7464  3.2504
   31MOL0     H 4260   2.141   9.639   0.172 -0.4344  2.3135  3.5127
   31MOL0     H 4261   2.274   9.842   0.250  0.9662  1.0442 -0.6715
   31MOL0     H 4262   3.715  10.301   1.521 -1.8960  1.7450  3.1890
   31MOL0     H 4263   3.761  10.061   1.504 -0.7573 -1.6273 -0.7166
   31MOL0     H 4264   3.686   9.766   1.705 -1.8024  0.3623  2.4826
   31MOL0     H 4265   3.731   9.604   1.869 -1.4223  0.2765  0.9701
   31MOL0     H 4266   3.473   9.410   1.925  0.6787 -0.2591 -2.4636
   31MOL0     H 4267   3.485   9.237   1.947  0.5606  0.0136  1.2955
   31MOL0     H 4268   3.684   9.403   2.084  3.0804 -3.4692  0.2618
   31MOL0     H 4269   3.665   9.231   2.102 -1.9394 -1.4403  1.9495
   31MOL0     H 4270   3.457   9.430   2.182 -2.9743 -1.8382  0.2508
   31MOL0     H 4271   3.440   9.251   2.199 -0.0213 -0.8032 -0.4194
   31MOL0     H 4272   3.503   9.343   2.416 -1.2758  1.1568 -1.6340
   31MOL0     H 4273   3.663   9.412   2.348  1.2797 -1.5527 -1.4384
   31MOL0     H 4274   3.734   9.013   2.424  0.4556 -0.0520  0.3772
   31MOL0     H 4275   3.544   9.296   1.623 -3.3896  0.3894  0.3884
   31MOL0     H 4276   3.364   9.426   1.446 -0.7383 -2.0904 -2.0491
   31MOL0     H 4277   3.458   9.524   1.343  2.5979  3.3821  2.4059
   31MOL0     H 4278   3.526   9.370   1.378  0.7465 -0.9222  3.1009
   32MOL0     O 4279  11.044   9.574   1.599 -0.7161  0.0852 -0.0478
   32MOL0     C 4280  11.129   9.665   1.598  0.1200  0.3035 -0.8403
   32MOL0     O 4281  11.196   9.710   1.486  0.3626 -0.4636 -0.5709
   32MOL0     C 4282  11.185   9.652   1.366 -0.0577 -0.0690  0.7570
   32MOL0     C 4283  11.055   9.621   1.308  0.5800 -0.2359 -1.0011
   32MOL0     C 4284  11.047   9.571   1.185  0.1396  0.5353 -0.7044
   32MOL0     C 4285  11.163   9.542   1.111 -0.0469 -0.1142 -0.2691
   32MOL0     O 4286  11.150   9.505   0.983 -0.1909 -0.5587 -0.7347
   32MOL0     C 4287  11.271   9.500   0.902  0.2164  0.2005  0.0460
   32MOL0     C 4288  11.322   9.620   0.840  0.2551  0.3801 -0.1830
   32MOL0     C 4289  11.423   9.591   0.717 -0.1070  0.3762  0.0118
   32MOL0     C 4290  11.496   9.724   0.676  0.6829  0.1147 -0.1006
   32MOL0     C 4291  11.621   9.690   0.601  0.1093 -0.3714  0.2977
   32MOL0     C 4292  11.618   9.594   0.475 -0.0617  1.0859 -1.0342
   32MOL0     C 4293  11.756   9.583   0.426 -1.0198 -0.5021 -0.3750
   32MOL0     C 4294  11.771   9.507   0.291 -0.1975 -0.5449  0.1831
   32MOL0     N 4295  11.731   9.361   0.293  0.0500  0.3955  0.0726
   32MOL0     C 4296  11.665   9.300   0.189  0.6859  0.1300  0.6876
   32MOL0     C 4297  11.689   9.168   0.225  0.1087  0.2021  1.2455
   32MOL0     C 4298  11.638   9.040   0.153 -0.9403 -0.5260 -0.2335
   32MOL0     C 4299  11.508   9.051   0.070  0.4719  0.2199 -0.6602
   32MOL0     C 4300  11.382   9.101   0.146  0.3134  1.0331 -0.5420
   32MOL0     C 4301  11.245   9.062   0.094  0.3591 -0.0502  0.5594
   32MOL0     O 4302  11.254   8.927   0.048  0.1008 -0.0803  0.5178
   32MOL0     C 4303  11.144   8.858  -0.003  0.5721  0.5334  0.6466
   32MOL0     C 4304  11.153   8.722  -0.014  0.6046  0.8367  0.3900
   32MOL0     C 4305  11.043   8.647  -0.066  0.1355 -0.4424 -0.0697
   32MOL0     C 4306  11.068   8.499  -0.062 -0.6590  0.0416 -0.2938
   32MOL0     C 4307  10.934   8.717  -0.112  1.5502 -0.2246  0.1830
   32MOL0     C 4308  10.814   8.659  -0.155  0.0864  0.1657  0.6017
   32MOL0     O 4309  10.700   8.741  -0.138  0.9096  0.3525  0.3609
   32MOL0     C 4310  10.582   8.696  -0.202  0.7600 -0.3366 -0.4589
   32MOL0     C 4311  10.539   8.721  -0.331  0.5194  0.2633  0.7224
   32MOL0     C 4312  10.420   8.665  -0.374  0.6298 -0.2549  1.0427
   32MOL0     C 4313  10.322   8.615  -0.292 -0.7547 -0.4473  0.4228
   32MOL0     O 4314  10.207   8.570  -0.348  0.0952 -0.1475 -0.7218
   32MOL0     C 4315  10.141   8.459  -0.296  0.0588 -0.5392  0.2226
   32MOL0     C 4316  10.012   8.429  -0.375  0.8538 -0.0815  0.3651
   32MOL0     C 4317   9.915   8.548  -0.368 -1.0373 -0.6658 -0.2519
   32MOL0     C 4318   9.790   8.502  -0.441  0.1548  1.0027  0.7130
   32MOL0     C 4319   9.673   8.602  -0.424  0.3337 -0.3569  0.0179
   32MOL0     C 4320   9.684   8.720  -0.522 -0.0075 -0.4295  0.8255
   32MOL0     C 4321   9.541   8.778  -0.531 -0.3483 -0.1557 -0.7076
   32MOL0     C 4322   9.507   8.868  -0.414  0.5666  0.1910  0.6331
   32MOL0    Cl 4323   9.348   8.943  -0.443 -0.2824  0.1025  0.2036
   32MOL0     C 4324  10.354   8.607  -0.149 -0.9464  0.5585  0.4401
   32MOL0     C 4325  10.483   8.650  -0.108 -0.2245 -0.3958 -0.6100
   32MOL0     O 4326  10.814   8.549  -0.225 -0.3048 -0.3826  0.0860
   32MOL0     C 4327  10.933   8.859  -0.117 -0.0322 -0.7940 -0.2152
   32MOL0     C 4328  11.034   8.931  -0.060  0.1434 -0.5258  0.7151
   32MOL0     N 4329  11.746   9.154   0.352 -0.3708 -0.2331  0.0749
   32MOL0     N 4330  11.786   9.274   0.386 -0.6080 -1.1550  0.4611
   32MOL0     C 4331  11.294   9.559   1.175  0.0754  0.4725 -1.2394
   32MOL0     C 4332  11.298   9.628   1.296  0.3208  0.3422 -0.0655
   32MOL0     C 4333  11.164   9.722   1.734  0.4166  0.3593  0.1393
   32MOL0     C 4334  11.065   9.702   1.839 -1.5068  0.1873  0.4303
   32MOL0     C 4335  11.077   9.765   1.957  0.5237 -0.3439 -0.2102
   32MOL0     C 4336  11.190   9.847   1.992 -0.6103  0.6515  0.2964
   32MOL0     O 4337  11.200   9.941   2.092 -0.6063 -0.1367  0.3475
   32MOL0     C 4338  11.085  10.014   2.136 -0.6892 -0.5625  0.9109
   32MOL0     C 4339  11.012  10.090   2.018  0.3697  0.5833  0.3889
   32MOL0     C 4340  11.101  10.157   1.913  0.4346 -0.1370 -0.1415
   32MOL0     C 4341  11.065  10.304   1.864 -0.2249  0.4624  0.4898
   32MOL0     C 4342  11.050  10.398   1.978  0.6295  0.5412  0.2584
   32MOL0     C 4343  11.035  10.487   2.068  0.7736  0.2098  0.4631
   32MOL0     C 4344  11.283   9.860   1.885  0.3821 -0.1756  0.9832
   32MOL0     C 4345  11.284   9.788   1.760 -0.2963 -0.8236 -1.6634
   32MOL0     C 4346  11.403   9.820   1.668  0.5914  0.8704  0.8498
   32MOL0     H 4347  10.964   9.654   1.356 -0.3328  0.4878 -3.1300
   32MOL0     H 4348  10.950   9.560   1.137 -0.0093  1.2362 -0.5823
   32MOL0     H 4349  11.249   9.425   0.826 -2.6319  0.5053  0.4463
   32MOL0     H 4350  11.354   9.448   0.952 -1.2839 -1.1934  1.1983
   32MOL0     H 4351  11.230   9.672   0.813 -0.3867 -0.3817  0.4823
   32MOL0     H 4352  11.369   9.684   0.916 -0.0097  1.7008 -1.0955
   32MOL0     H 4353  11.497   9.521   0.755  0.5885  1.4100  0.6173
   32MOL0     H 4354  11.364   9.543   0.638  0.0306  1.0642 -0.5166
   32MOL0     H 4355  11.423   9.783   0.620 -1.9447 -1.8128  1.1133
   32MOL0     H 4356  11.528   9.782   0.762 -3.5736  1.3863  0.8592
   32MOL0     H 4357  11.697   9.641   0.662  0.9453 -0.2702 -0.6289
   32MOL0     H 4358  11.662   9.787   0.570  0.5027 -0.6075  0.0615
   32MOL0     H 4359  11.572   9.498   0.498  2.0124  0.3604  0.3970
   32MOL0     H 4360  11.561   9.638   0.392  0.3048 -0.6669 -2.2793
   32MOL0     H 4361  11.815   9.529   0.500  0.7093 -2.7422 -3.1965
   32MOL0     H 4362  11.797   9.685   0.428  0.3300 -0.9597  2.8773
   32MOL0     H 4363  11.714   9.570   0.223 -1.5858 -0.2931  1.5229
   32MOL0     H 4364  11.877   9.502   0.263  0.0703  0.1063  1.0462
   32MOL0     H 4365  11.618   9.351   0.106 -0.1515 -2.4265 -0.4910
   32MOL0     H 4366  11.617   8.970   0.234 -4.0416 -0.5199 -0.9047
   32MOL0     H 4367  11.720   9.004   0.090  1.0063 -0.1134  1.9409
   32MOL0     H 4368  11.529   9.111  -0.019 -1.1374 -0.5503 -1.6123
   32MOL0     H 4369  11.483   8.947   0.047 -2.4266  0.3669  1.2876
   32MOL0     H 4370  11.400   9.059   0.245 -1.0175 -0.9409 -1.0780
   32MOL0     H 4371  11.384   9.210   0.157  0.6508  1.1835 -1.9411
   32MOL0     H 4372  11.174   9.070   0.177 -2.6795 -3.0254 -1.5107
   32MOL0     H 4373  11.209   9.131   0.018 -2.0524  0.6571  2.2105
   32MOL0     H 4374  11.245   8.682   0.027 -1.2860  0.3440  4.6257
   32MOL0     H 4375  10.986   8.427  -0.074 -0.1222 -0.5022 -0.7499
   32MOL0     H 4376  11.102   8.482   0.040  0.9667 -2.2732 -1.1482
   32MOL0     H 4377  11.151   8.466  -0.125  1.9113  2.3228  1.6842
   32MOL0     H 4378  10.609   8.766  -0.401 -0.9408  1.1585 -0.2110
   32MOL0     H 4379  10.394   8.680  -0.478 -3.6914 -1.4240  1.7748
   32MOL0     H 4380  10.210   8.378  -0.322 -0.0111  0.0974 -2.2214
   32MOL0     H 4381  10.133   8.470  -0.188  0.6738 -0.9942  0.3170
   32MOL0     H 4382  10.018   8.397  -0.480  0.7561 -0.2936  0.4241
   32MOL0     H 4383   9.974   8.338  -0.327  2.6697 -2.2766 -2.0248
   32MOL0     H 4384   9.965   8.628  -0.423  1.0519 -1.2172  0.7408
   32MOL0     H 4385   9.917   8.587  -0.266 -0.4202 -2.2789  0.3911
   32MOL0     H 4386   9.765   8.401  -0.405  0.6739  1.8114  3.6401
   32MOL0     H 4387   9.816   8.487  -0.546  0.8645 -0.7327  1.0966
   32MOL0     H 4388   9.574   8.555  -0.428  0.3212 -0.2348 -2.4689
   32MOL0     H 4389   9.679   8.647  -0.324  4.0598  0.9445 -0.6331
   32MOL0     H 4390   9.711   8.680  -0.620  0.1004  2.3342 -0.3770
   32MOL0     H 4391   9.757   8.797  -0.496 -1.1228  1.1853 -0.5766
   32MOL0     H 4392   9.462   8.706  -0.553 -0.1136  0.2935 -3.3591
   32MOL0     H 4393   9.555   8.839  -0.621  0.1343  0.4433 -0.2321
   32MOL0     H 4394   9.581   8.948  -0.407  0.6343  0.5524 -2.8298
   32MOL0     H 4395   9.500   8.810  -0.321 -4.8077 -1.0413 -0.2032
   32MOL0     H 4396  10.282   8.576  -0.075 -1.0983  0.9018  0.4342
   32MOL0     H 4397  10.506   8.629  -0.004 -1.1407  0.3157 -0.2473
   32MOL0     H 4398  10.859   8.924  -0.163  1.2362 -0.1323 -1.3834
   32MOL0     H 4399  11.019   9.038  -0.050 -2.4621 -0.6642 -0.9121
   32MOL0     H 4400  11.390   9.533   1.132  1.8690  1.4093  1.8434
   32MOL0     H 4401  11.400   9.646   1.330  1.4791  0.6597 -3.2634
   32MOL0     H 4402  10.979   9.638   1.821 -1.9052  1.0010 -0.6496
   32MOL0     H 4403  11.004   9.761   2.037 -1.1895 -2.0723 -1.7744
   32MOL0     H 4404  11.012   9.948   2.184 -2.4869 -0.7898 -1.9097
   32MOL0     H 4405  11.121  10.093   2.203  0.0856 -0.3245  0.2287
   32MOL0     H 4406  10.951  10.162   2.072  0.4119  0.7730  0.1866
   32MOL0     H 4407  10.944  10.021   1.968  0.8072 -1.7301  2.7689
   32MOL0     H 4408  11.204  10.163   1.947  0.1186 -0.8217  0.9942
   32MOL0     H 4409  11.102  10.098   1.821 -1.5211 -2.7478  1.3608
   32MOL0     H 4410  10.974  10.327   1.807  0.9472  1.3319 -1.1204
   32MOL0     H 4411  11.152  10.336   1.806 -0.5562  0.8620  0.2084
   32MOL0     H 4412  11.025  10.576   2.126 -0.1935 -0.1557  0.8902
   32MOL0     H 4413  11.351   9.942   1.904 -0.5367  1.2090 -1.2366
   32MOL0     H 4414  11.488   9.858   1.724  1.3475 -2.0470  1.8658
   32MOL0     H 4415  11.434   9.728   1.617 -2.4869 -1.3455  2.6564
   32MOL0     H 4416  11.377   9.900   1.598 -4.0563  2.4239  3.8719
   33MOL0     O 4417   2.246   0.678   0.897  0.0445 -0.0796  0.6568
   33MOL0     C 4418   2.288   0.774   0.950  0.2183  0.1124 -0.2471
   33MOL0     O 4419   2.362   0.780   1.064  0.5053 -0.6348  0.1128
   33MOL0     C 4420   2.425   0.664   1.106 -0.4253 -0.1194  0.0310
   33MOL0     C 4421   2.512   0.590   1.022  0.4220  0.4224  0.1442
   33MOL0     C 4422   2.558   0.464   1.060 -0.3966  0.5795 -0.7230
   33MOL0     C 4423   2.521   0.406   1.185  0.1764  0.4474  1.0320
   33MOL0     O 4424   2.589   0.294   1.234  0.3728 -0.1725  0.3313
   33MOL0     C 4425   2.677   0.232   1.148 -1.1105  0.6293 -0.4952
   33MOL0     C 4426   2.751   0.122   1.231  0.2354 -0.0175 -0.3929
   33MOL0     C 4427   2.650   0.033   1.300 -0.6506  0.6927 -0.2901
   33MOL0     C 4428   2.728  -0.037   1.412 -0.7932  0.3690  0.7760
   33MOL0     C 4429   2.748   0.046   1.532 -0.5964  0.1897 -0.1745
   33MOL0     C 4430   2.850  -0.025   1.624 -0.4232 -0.3423 -0.1058
   33MOL0     C 4431   2.905   0.071   1.735  0.5361 -0.8672  0.4756
   33MOL0     C 4432   2.988   0.004   1.840 -0.2959 -0.4150 -0.5278
   33MOL0     N 4433   3.043   0.094   1.943 -0.3191 -0.5016  0.1535
   33MOL0     C 4434   3.019   0.095   2.075  0.7238  0.4872  0.8497
   33MOL0     C 4435   3.088   0.200   2.115 -0.0174 -0.5773  0.2353
   33MOL0     C 4436   3.106   0.240   2.257 -0.2321 -0.6490 -0.1056
   33MOL0     C 4437   3.201   0.152   2.337 -1.0401  1.0168  0.6445
   33MOL0     C 4438   3.241   0.219   2.468 -0.1993 -0.0313  0.0584
   33MOL0     C 4439   3.374   0.172   2.532  0.6952 -0.8046 -0.4174
   33MOL0     O 4440   3.488   0.189   2.452  0.0558 -0.4165 -0.3554
   33MOL0     C 4441   3.565   0.080   2.428  0.3865 -0.3616 -0.5799
   33MOL0     C 4442   3.689   0.107   2.362  0.1719 -1.0271  0.3534
   33MOL0     C 4443   3.772   0.010   2.303  0.0532  0.7786  0.5047
   33MOL0     C 4444   3.896   0.045   2.226  0.6501 -0.0220  0.1202
   33MOL0     C 4445   3.734  -0.122   2.315 -0.1335  0.5823  0.8166
   33MOL0     C 4446   3.812  -0.233   2.260 -0.6342  0.1857  0.3380
   33MOL0     O 4447   3.885  -0.219   2.141 -0.1026  1.2278 -0.0650
   33MOL0     C 4448   3.959  -0.317   2.078 -0.5116 -0.1425 -0.5627
   33MOL0     C 4449   3.963  -0.322   1.937 -1.2031 -0.0031 -0.3089
   33MOL0     C 4450   4.047  -0.399   1.868  0.7584 -0.6215  0.0916
   33MOL0     C 4451   4.116  -0.495   1.934 -0.4238 -0.5292  0.0243
   33MOL0     O 4452   4.179  -0.584   1.845 -0.3904  0.0738  0.1394
   33MOL0     C 4453   4.277  -0.676   1.893 -0.0636  0.8546 -0.3178
   33MOL0     C 4454   4.410  -0.653   1.811  0.4672  0.3113 -0.2216
   33MOL0     C 4455   4.396  -0.675   1.655 -0.4454  0.2234  0.1163
   33MOL0     C 4456   4.391  -0.834   1.630  0.6134 -0.0930  0.5971
   33MOL0     C 4457   4.502  -0.920   1.692  0.7410 -0.8403  0.3551
   33MOL0     C 4458   4.524  -1.048   1.605  0.4235 -0.5455 -0.0343
   33MOL0     C 4459   4.625  -1.152   1.682 -0.2290 -0.0287  0.0557
   33MOL0     C 4460   4.649  -1.275   1.602  0.4043  0.3740  0.2869
   33MOL0    Cl 4461   4.752  -1.265   1.457 -0.0569 -0.0404  0.3819
   33MOL0     C 4462   4.095  -0.504   2.076  0.3157  0.0830  0.4501
   33MOL0     C 4463   4.026  -0.409   2.146 -0.4746  1.0349 -0.2010
   33MOL0     O 4464   3.799  -0.340   2.327  0.2467 -0.2209  0.1999
   33MOL0     C 4465   3.605  -0.156   2.368 -0.0008 -0.7646 -1.2718
   33MOL0     C 4466   3.521  -0.050   2.418  0.9159 -0.4700  0.3088
   33MOL0     N 4467   3.159   0.261   2.018  0.1642  0.4519 -0.1633
   33MOL0     N 4468   3.130   0.198   1.909 -0.2089  0.2315 -0.0707
   33MOL0     C 4469   2.442   0.486   1.273 -0.0001  0.1350 -0.4686
   33MOL0     C 4470   2.394   0.611   1.233 -0.5492 -1.2962  0.2346
   33MOL0     C 4471   2.222   0.899   0.904 -0.1014 -0.5629  0.2038
   33MOL0     C 4472   2.116   0.899   0.815 -0.7688  0.2043  0.0637
   33MOL0     C 4473   2.062   1.012   0.764 -0.2346 -0.2986  0.0125
   33MOL0     C 4474   2.107   1.136   0.800  0.4160  0.2949  0.5649
   33MOL0     O 4475   2.024   1.243   0.764 -0.4757 -0.7047 -0.1225
   33MOL0     C 4476   2.049   1.383   0.766 -0.0008  0.3085  0.0265
   33MOL0     C 4477   1.927   1.469   0.739  0.7338 -0.3703  0.6809
   33MOL0     C 4478   1.811   1.437   0.832 -0.1113 -0.5915  0.1119
   33MOL0     C 4479   1.698   1.540   0.830  0.6840 -0.9573 -0.0853
   33MOL0     C 4480   1.753   1.670   0.886 -0.5768  0.4421 -0.0241
   33MOL0     C 4481   1.804   1.770   0.934 -1.2132 -0.0190  0.4681
   33MOL0     C 4482   2.210   1.147   0.892 -1.1369  0.9429  1.4966
   33MOL0     C 4483   2.273   1.027   0.935  0.2536  0.3718 -0.6169
   33MOL0     C 4484   2.405   1.052   1.012  0.3764  0.4232  0.0784
   33MOL0     H 4485   2.546   0.630   0.927  1.7549 -1.8884 -0.4336
   33MOL0     H 4486   2.627   0.407   0.998  1.9376  0.4510  1.8237
   33MOL0     H 4487   2.757   0.300   1.114 -0.5072  0.8099  1.2107
   33MOL0     H 4488   2.633   0.185   1.060 -1.7504  1.1049 -0.4433
   33MOL0     H 4489   2.801   0.053   1.162 -0.0014 -0.7505  0.1548
   33MOL0     H 4490   2.826   0.154   1.304  1.5798 -1.2868 -1.1585
   33MOL0     H 4491   2.566   0.087   1.345 -0.4452  1.3503 -0.6948
   33MOL0     H 4492   2.606  -0.036   1.227 -4.7116  2.1764  0.5250
   33MOL0     H 4493   2.678  -0.130   1.441 -0.4135 -0.0110  0.2194
   33MOL0     H 4494   2.826  -0.061   1.371 -1.4841  1.6094 -1.7806
   33MOL0     H 4495   2.654   0.087   1.570 -1.6273  1.0776 -3.4223
   33MOL0     H 4496   2.792   0.141   1.502  0.2334  0.3125  1.3283
   33MOL0     H 4497   2.790  -0.107   1.665  1.4874 -2.4845 -1.3755
   33MOL0     H 4498   2.934  -0.077   1.577 -0.9693 -0.0257 -1.4891
   33MOL0     H 4499   2.814   0.113   1.778 -0.2666  2.1096 -3.5806
   33MOL0     H 4500   2.956   0.153   1.684 -2.0289 -0.4937 -1.7085
   33MOL0     H 4501   2.932  -0.081   1.881 -2.0936  0.2631 -1.4891
   33MOL0     H 4502   3.076  -0.037   1.790  0.2929  3.4054 -3.0259
   33MOL0     H 4503   2.957   0.024   2.129  0.2322 -0.0950 -0.4369
   33MOL0     H 4504   3.013   0.264   2.310 -0.8535  0.2528 -1.5426
   33MOL0     H 4505   3.150   0.340   2.247 -2.4939  0.5080  0.6603
   33MOL0     H 4506   3.149   0.060   2.363 -1.7693  1.7004  1.6875
   33MOL0     H 4507   3.293   0.123   2.285 -0.0240 -0.8571  3.2701
   33MOL0     H 4508   3.241   0.327   2.449  2.4456  0.0656  0.2699
   33MOL0     H 4509   3.165   0.198   2.544  0.5568  0.1656  0.8751
   33MOL0     H 4510   3.384   0.249   2.609  2.8206  4.0894 -4.9810
   33MOL0     H 4511   3.359   0.070   2.568  0.5791  0.1744  2.5929
   33MOL0     H 4512   3.705   0.212   2.338 -2.6891 -1.2996 -3.7873
   33MOL0     H 4513   3.974  -0.023   2.262  1.8035  1.0587 -0.2641
   33MOL0     H 4514   3.933   0.148   2.221  0.6216  0.0011  0.3463
   33MOL0     H 4515   3.885   0.024   2.120  0.7794  2.6273 -0.4805
   33MOL0     H 4516   3.903  -0.248   1.885 -0.3579  1.4556  0.7092
   33MOL0     H 4517   4.048  -0.377   1.762  0.6427 -3.3022 -0.5286
   33MOL0     H 4518   4.310  -0.658   1.995  3.2890  0.9289 -1.2946
   33MOL0     H 4519   4.253  -0.783   1.892  0.7820  0.6397 -2.1170
   33MOL0     H 4520   4.448  -0.553   1.834  2.5064 -0.6613  0.9875
   33MOL0     H 4521   4.496  -0.712   1.844 -0.3410  0.2888  2.0231
   33MOL0     H 4522   4.482  -0.626   1.608 -0.3124  0.8946  1.0302
   33MOL0     H 4523   4.306  -0.627   1.617 -1.4734 -2.2303 -0.7243
   33MOL0     H 4524   4.370  -0.856   1.525 -1.0921 -3.2491  1.4547
   33MOL0     H 4525   4.293  -0.859   1.671 -0.3449  2.0893 -0.2121
   33MOL0     H 4526   4.595  -0.863   1.696 -0.2216  0.9751 -1.2873
   33MOL0     H 4527   4.472  -0.954   1.791 -1.5784  0.2405  0.0989
   33MOL0     H 4528   4.567  -1.023   1.507 -1.2336  1.3457 -0.3645
   33MOL0     H 4529   4.426  -1.092   1.583 -0.4150  0.2535  1.8358
   33MOL0     H 4530   4.588  -1.177   1.783 -0.5238 -0.4611 -0.1539
   33MOL0     H 4531   4.711  -1.086   1.692 -2.3738  2.7366  1.7341
   33MOL0     H 4532   4.552  -1.322   1.580  1.1571 -0.4015 -1.5662
   33MOL0     H 4533   4.702  -1.351   1.661 -0.3298 -1.8379 -1.7353
   33MOL0     H 4534   4.146  -0.564   2.150 -0.7845  1.0042  2.0156
   33MOL0     H 4535   4.017  -0.424   2.253 -0.3387 -3.0319 -0.5737
   33MOL0     H 4536   3.570  -0.259   2.373  2.1033 -1.6354 -3.1229
   33MOL0     H 4537   3.429  -0.084   2.463 -0.2008  2.4730  0.4403
   33MOL0     H 4538   2.416   0.447   1.371  0.8469 -0.6176 -0.5302
   33MOL0     H 4539   2.340   0.669   1.307 -1.3255 -1.3880 -0.2438
   33MOL0     H 4540   2.080   0.805   0.773 -0.2270 -0.4635  1.0532
   33MOL0     H 4541   1.972   1.006   0.705  1.4522 -0.7155 -2.7079
   33MOL0     H 4542   2.083   1.412   0.866  0.1374  0.6530 -0.1189
   33MOL0     H 4543   2.131   1.412   0.700  0.2761  0.7232  0.5462
   33MOL0     H 4544   1.874   1.456   0.644 -0.0187  2.8280  0.5553
   33MOL0     H 4545   1.944   1.577   0.733 -0.8560 -0.1550 -0.8692
   33MOL0     H 4546   1.776   1.335   0.811 -0.0530 -0.3288 -1.3465
   33MOL0     H 4547   1.838   1.456   0.937 -1.4353  0.7200  0.2389
   33MOL0     H 4548   1.615   1.507   0.892  1.9175 -4.8506 -0.2305
   33MOL0     H 4549   1.665   1.545   0.726  1.9060 -2.1846 -0.5656
   33MOL0     H 4550   1.856   1.853   0.978  1.9137 -1.1773 -0.7490
   33MOL0     H 4551   2.243   1.246   0.923  2.6070  0.3692 -0.1096
   33MOL0     H 4552   2.483   0.980   0.984 -0.1908  0.1774 -0.9234
   33MOL0     H 4553   2.442   1.155   1.006  0.6591  0.6312  3.5039
   33MOL0     H 4554   2.381   1.038   1.118 -2.2578 -0.7470 -0.6211
   34MOL0     O 4555   6.558   5.088   4.815  0.0413  0.3928  0.1950
   34MOL0     C 4556   6.658   5.038   4.859  1.2329  0.0338  0.0674
   34MOL0     O 4557   6.727   4.938   4.802  0.3373 -0.5991 -0.7047
   34MOL0     C 4558   6.700   4.919   4.670 -0.8702  0.2841  0.5334
   34MOL0     C 4559   6.672   4.789   4.638  0.1399 -0.2450  0.2799
   34MOL0     C 4560   6.642   4.755   4.502 -0.5503 -0.5470  0.0280
   34MOL0     C 4561   6.655   4.847   4.394  0.5022  1.2052 -0.0530
   34MOL0     O 4562   6.638   4.820   4.263 -0.0449  0.2567 -0.5256
   34MOL0     C 4563   6.582   4.692   4.221  0.6388 -0.0595  0.2269
   34MOL0     C 4564   6.480   4.739   4.125  0.0353  0.4387  0.0845
   34MOL0     C 4565   6.412   4.613   4.065 -0.5447 -0.4453  0.4844
   34MOL0     C 4566   6.309   4.647   3.963 -0.4738 -0.0362 -0.7608
   34MOL0     C 4567   6.251   4.527   3.891 -0.6193 -0.3901 -0.3872
   34MOL0     C 4568   6.355   4.461   3.794 -0.1886  0.3953  1.2478
   34MOL0     C 4569   6.276   4.374   3.681 -0.0679 -0.9495 -0.8974
   34MOL0     C 4570   6.174   4.279   3.747  0.8748  0.2579  0.7817
   34MOL0     N 4571   6.243   4.182   3.835  0.3164 -0.0440 -1.1239
   34MOL0     C 4572   6.274   4.185   3.974 -0.3834  0.0490  0.0846
   34MOL0     C 4573   6.328   4.065   4.005 -0.1784 -0.8390 -1.5459
   34MOL0     C 4574   6.363   4.018   4.147 -0.2964  0.4804  0.2223
   34MOL0     C 4575   6.510   3.959   4.157 -0.0046  0.2027  0.1210
   34MOL0     C 4576   6.543   3.880   4.290 -0.2632 -0.4938 -0.8585
   34MOL0     C 4577   6.700   3.881   4.312  0.5089 -0.3508  1.2742
   34MOL0     O 4578   6.777   3.823   4.209  0.1581 -0.4994 -0.1884
   34MOL0     C 4579   6.746   3.690   4.190  0.1615  0.0901  0.4471
   34MOL0     C 4580   6.807   3.592   4.277 -0.0777 -0.1551 -0.5554
   34MOL0     C 4581   6.788   3.454   4.259  0.7317  0.6443  0.5648
   34MOL0     C 4582   6.875   3.357   4.339 -0.7044 -0.6613 -0.0118
   34MOL0     C 4583   6.700   3.407   4.157 -0.2372 -0.2414  1.0067
   34MOL0     C 4584   6.656   3.266   4.130  0.2115 -0.1004 -0.0398
   34MOL0     O 4585   6.605   3.237   4.011 -0.0691  0.0150 -0.0786
   34MOL0     C 4586   6.565   3.108   3.979  1.0774 -0.3004 -0.5665
   34MOL0     C 4587   6.454   3.052   4.038 -0.0509 -0.7021  0.2236
   34MOL0     C 4588   6.403   2.930   3.982 -0.4096  0.3878 -0.6034
   34MOL0     C 4589   6.451   2.870   3.872 -0.5083 -0.0301 -0.5960
   34MOL0     O 4590   6.392   2.764   3.803 -1.0252  0.3608  0.7058
   34MOL0     C 4591   6.333   2.653   3.879  0.8541 -0.0120 -0.8888
   34MOL0     C 4592   6.423   2.583   3.981  0.1401  1.0400  0.2595
   34MOL0     C 4593   6.562   2.543   3.927 -0.3740  0.1976 -0.4436
   34MOL0     C 4594   6.675   2.558   4.025 -0.0226  0.2880  0.6415
   34MOL0     C 4595   6.749   2.696   4.016 -0.6725 -0.5041  0.3803
   34MOL0     C 4596   6.865   2.687   4.111  0.3913 -0.2819  0.4360
   34MOL0     C 4597   6.937   2.816   4.115 -0.0181  0.6115 -0.4958
   34MOL0     C 4598   6.879   2.939   4.198 -0.7371 -0.7909 -0.3903
   34MOL0    Cl 4599   6.804   2.869   4.336 -0.3784 -0.3660 -0.5197
   34MOL0     C 4600   6.562   2.932   3.815  0.2607  0.7494  0.3386
   34MOL0     C 4601   6.620   3.047   3.868  0.5856  0.5794 -0.5340
   34MOL0     O 4602   6.676   3.190   4.227 -0.2941  0.1119  0.1020
   34MOL0     C 4603   6.643   3.504   4.073 -0.2958 -0.4078 -0.0558
   34MOL0     C 4604   6.666   3.645   4.082  0.6074 -0.5191  0.2200
   34MOL0     N 4605   6.339   3.995   3.895 -0.1282  0.0893  0.3776
   34MOL0     N 4606   6.287   4.061   3.797 -0.1201  0.1743 -0.7924
   34MOL0     C 4607   6.673   4.977   4.427 -0.4304 -0.1796  0.8793
   34MOL0     C 4608   6.698   5.008   4.563  0.1133  0.0838  0.1419
   34MOL0     C 4609   6.712   5.072   4.992 -0.5046 -0.3867 -0.1363
   34MOL0     C 4610   6.653   5.178   5.071 -0.4121  0.3077 -1.1292
   34MOL0     C 4611   6.696   5.217   5.200 -0.8906 -0.1438 -0.1207
   34MOL0     C 4612   6.793   5.148   5.270 -0.9181 -0.3944  0.8207
   34MOL0     O 4613   6.815   5.199   5.398 -0.8848  0.1205  0.4482
   34MOL0     C 4614   6.930   5.148   5.464  1.3001  0.0962  0.1374
   34MOL0     C 4615   6.982   5.251   5.561  0.4551 -0.5985  1.1111
   34MOL0     C 4616   7.078   5.181   5.663  0.4440 -0.0902 -0.6644
   34MOL0     C 4617   7.011   5.114   5.791 -0.0129 -0.2675  1.1951
   34MOL0     C 4618   6.919   5.007   5.761  0.7877  0.0934 -0.4100
   34MOL0     C 4619   6.831   4.924   5.746 -0.3686 -1.1917  0.9759
   34MOL0     C 4620   6.842   5.031   5.208 -0.1337  0.3645  0.2372
   34MOL0     C 4621   6.810   4.994   5.071  0.1343 -0.1283 -0.5045
   34MOL0     C 4622   6.888   4.871   5.023  0.0571 -0.0094 -0.7120
   34MOL0     H 4623   6.669   4.711   4.713 -2.4559  0.7210  1.3318
   34MOL0     H 4624   6.619   4.649   4.491 -0.2048 -0.6507  0.2771
   34MOL0     H 4625   6.525   4.640   4.298 -1.9147  1.4691 -0.4672
   34MOL0     H 4626   6.653   4.620   4.179  0.0398 -1.3398  1.3318
   34MOL0     H 4627   6.411   4.813   4.168  0.7728  0.2081  1.7487
   34MOL0     H 4628   6.520   4.793   4.039 -0.4688 -2.1330 -1.9116
   34MOL0     H 4629   6.485   4.547   4.018 -1.5790 -0.9249 -0.4874
   34MOL0     H 4630   6.361   4.549   4.137  0.7743 -2.9896 -0.7127
   34MOL0     H 4631   6.226   4.702   4.009 -0.0253  0.7715 -0.8984
   34MOL0     H 4632   6.355   4.719   3.895 -1.2706  2.9823  1.6685
   34MOL0     H 4633   6.163   4.557   3.833 -0.9215 -0.0281  0.2426
   34MOL0     H 4634   6.212   4.454   3.963  3.7614 -2.4138  0.2658
   34MOL0     H 4635   6.401   4.530   3.724 -0.2314 -0.8336 -0.0308
   34MOL0     H 4636   6.435   4.406   3.844  1.2905  0.3336 -1.0337
   34MOL0     H 4637   6.345   4.303   3.635  0.9046  0.8740 -2.4133
   34MOL0     H 4638   6.228   4.436   3.604 -2.0953 -0.6393  0.5384
   34MOL0     H 4639   6.094   4.334   3.798 -0.4678  0.2436 -1.2319
   34MOL0     H 4640   6.131   4.217   3.669  1.4162  1.8392 -0.8420
   34MOL0     H 4641   6.266   4.271   4.040 -1.0209 -0.2799  0.4376
   34MOL0     H 4642   6.303   3.930   4.173  0.8220  0.1263  1.7401
   34MOL0     H 4643   6.344   4.104   4.211 -0.8160  0.3921  0.1891
   34MOL0     H 4644   6.519   3.892   4.071 -2.7307 -1.4311  0.9645
   34MOL0     H 4645   6.572   4.049   4.150 -0.8365  0.7640 -0.1489
   34MOL0     H 4646   6.497   3.930   4.375  1.3633 -0.9674  0.3558
   34MOL0     H 4647   6.502   3.779   4.302  0.3040 -0.3805  3.8966
   34MOL0     H 4648   6.734   3.985   4.325 -0.4752  0.4608 -1.7982
   34MOL0     H 4649   6.713   3.833   4.409  4.7318  2.4535  2.3662
   34MOL0     H 4650   6.873   3.624   4.357  0.6929 -1.5511 -0.6040
   34MOL0     H 4651   6.939   3.407   4.413 -0.8937 -1.7603  0.9302
   34MOL0     H 4652   6.936   3.305   4.264 -1.5269 -0.5264 -0.7819
   34MOL0     H 4653   6.829   3.274   4.394 -2.0276 -0.2547 -0.4620
   34MOL0     H 4654   6.423   3.102   4.128 -1.8769 -1.5969  0.1300
   34MOL0     H 4655   6.307   2.905   4.027 -0.3323 -0.8706 -1.0977
   34MOL0     H 4656   6.243   2.695   3.926  1.5464 -0.1627  0.6218
   34MOL0     H 4657   6.287   2.575   3.818  0.0019  1.1647 -1.7925
   34MOL0     H 4658   6.417   2.650   4.067 -1.9099 -0.1561  1.0976
   34MOL0     H 4659   6.361   2.494   3.995 -1.6678  2.1492 -0.3124
   34MOL0     H 4660   6.588   2.603   3.839 -0.6392 -0.8737 -1.2684
   34MOL0     H 4661   6.572   2.436   3.910  2.8292 -0.1395  2.3689
   34MOL0     H 4662   6.744   2.475   4.005  0.7446  0.4106  2.5828
   34MOL0     H 4663   6.645   2.532   4.127 -3.3437 -1.6723 -0.6597
   34MOL0     H 4664   6.779   2.724   3.915 -2.6754  5.6329  1.1193
   34MOL0     H 4665   6.681   2.770   4.058 -0.3747 -0.3404  0.5810
   34MOL0     H 4666   6.944   2.615   4.090  0.7243  0.3559 -0.5720
   34MOL0     H 4667   6.822   2.662   4.208  0.1618  0.2918  0.4889
   34MOL0     H 4668   6.957   2.843   4.011  2.9596 -0.1193 -0.1833
   34MOL0     H 4669   7.034   2.802   4.163 -0.4949 -0.8341  0.0945
   34MOL0     H 4670   6.801   2.985   4.136 -0.2521  0.6639  0.0319
   34MOL0     H 4671   6.955   3.015   4.218 -1.1805 -0.6072  0.6312
   34MOL0     H 4672   6.600   2.883   3.726  1.5265 -3.1929  2.7658
   34MOL0     H 4673   6.713   3.086   3.827  1.3740 -1.7821 -1.1522
   34MOL0     H 4674   6.589   3.457   3.991  1.4714 -2.8940  0.0790
   34MOL0     H 4675   6.616   3.715   4.016 -0.5984  0.5084  2.1348
   34MOL0     H 4676   6.682   5.057   4.355 -1.4851 -0.7107  0.1345
   34MOL0     H 4677   6.706   5.115   4.578 -2.2276  0.9370 -3.3884
   34MOL0     H 4678   6.563   5.230   5.037 -0.5452 -0.0250 -1.2891
   34MOL0     H 4679   6.652   5.311   5.233 -3.2437 -0.7290 -1.3042
   34MOL0     H 4680   6.909   5.052   5.512 -1.6034  0.5127 -0.1477
   34MOL0     H 4681   7.013   5.103   5.408  2.6040 -2.4426  3.7359
   34MOL0     H 4682   6.895   5.301   5.605  0.4038  0.3410  0.0024
   34MOL0     H 4683   7.032   5.330   5.504 -3.5651  0.2947 -1.5493
   34MOL0     H 4684   7.145   5.112   5.612  1.1695  0.5908 -0.6503
   34MOL0     H 4685   7.134   5.265   5.706 -0.7007  1.4607 -2.0892
   34MOL0     H 4686   6.958   5.188   5.852 -0.3230  0.3965  0.1469
   34MOL0     H 4687   7.079   5.082   5.870  2.9670 -0.3788 -1.2145
   34MOL0     H 4688   6.747   4.858   5.736 -1.8198  0.9520 -2.9145
   34MOL0     H 4689   6.907   4.964   5.265 -0.6980 -0.3823  0.0154
   34MOL0     H 4690   6.956   4.817   5.089  0.8103 -2.0078 -2.9376
   34MOL0     H 4691   6.813   4.797   4.994 -2.3163  1.7708  0.5834
   34MOL0     H 4692   6.937   4.902   4.930  1.7734 -0.4806 -0.0079
   35MOL0     O 4693   2.405   8.259   4.491 -0.0514 -0.0193  0.3703
   35MOL0     C 4694   2.464   8.162   4.528  0.9787  0.3612 -0.6645
   35MOL0     O 4695   2.495   8.054   4.450  0.2161  0.3388 -0.2171
   35MOL0     C 4696   2.480   8.068   4.313 -0.7034  0.0333  0.5299
   35MOL0     C 4697   2.454   7.942   4.252 -0.2260 -0.3118 -0.0507
   35MOL0     C 4698   2.439   7.932   4.109  0.5148  0.6267  0.1215
   35MOL0     C 4699   2.435   8.046   4.041 -0.3022  0.7806  0.4588
   35MOL0     O 4700   2.382   8.053   3.913  0.1020 -0.7226  0.2280
   35MOL0     C 4701   2.298   7.952   3.856  0.8391 -0.4780 -1.0036
   35MOL0     C 4702   2.172   7.928   3.944 -0.2790  0.3507  0.4514
   35MOL0     C 4703   2.083   8.054   3.961 -0.5574 -0.2939  0.0933
   35MOL0     C 4704   1.989   8.023   4.082 -0.8517  0.1164  0.5769
   35MOL0     C 4705   2.059   8.027   4.213  0.1110  0.0274 -0.0781
   35MOL0     C 4706   1.966   8.004   4.325  0.0806 -0.1137 -0.0755
   35MOL0     C 4707   1.928   7.854   4.345 -0.0649 -0.1967 -0.2481
   35MOL0     C 4708   1.853   7.841   4.476 -0.3183 -1.3964 -0.9733
   35MOL0     N 4709   1.815   7.705   4.491 -1.6995  0.5045  0.3356
   35MOL0     C 4710   1.887   7.602   4.548  0.6451 -0.6397 -0.2191
   35MOL0     C 4711   1.815   7.486   4.538 -0.1957  0.4754 -0.0735
   35MOL0     C 4712   1.845   7.356   4.609  0.6371 -0.0743  0.0840
   35MOL0     C 4713   1.865   7.383   4.763 -0.6215  0.4302  0.1910
   35MOL0     C 4714   1.856   7.256   4.853  0.1712  0.2712  0.0172
   35MOL0     C 4715   1.959   7.152   4.823 -0.0994  0.3442  0.0491
   35MOL0     O 4716   2.096   7.192   4.850  0.3282 -0.0453 -0.0684
   35MOL0     C 4717   2.196   7.101   4.834 -0.8809 -0.2444 -1.0718
   35MOL0     C 4718   2.295   7.132   4.741 -1.5360  0.3877  0.2711
   35MOL0     C 4719   2.386   7.035   4.711 -1.0322  0.7415  0.0819
   35MOL0     C 4720   2.501   7.090   4.638  0.0615  0.4794  0.4817
   35MOL0     C 4721   2.381   6.912   4.777 -0.1768  0.5903 -0.6319
   35MOL0     C 4722   2.491   6.813   4.761 -0.7008  0.2692  0.5945
   35MOL0     O 4723   2.619   6.848   4.727  0.3577 -0.3482 -0.2328
   35MOL0     C 4724   2.713   6.754   4.701 -0.1573 -0.4941  0.5528
   35MOL0     C 4725   2.843   6.799   4.711 -0.0025 -0.7959  0.2015
   35MOL0     C 4726   2.962   6.724   4.695 -0.6977  0.6717  1.0196
   35MOL0     C 4727   2.952   6.593   4.665  0.0111  1.0497  1.0174
   35MOL0     O 4728   3.075   6.523   4.641 -0.0903 -0.0929 -0.4037
   35MOL0     C 4729   3.081   6.395   4.570  1.5721  0.3155 -0.6700
   35MOL0     C 4730   3.093   6.278   4.674 -0.1573 -0.2340  0.7104
   35MOL0     C 4731   2.977   6.209   4.751 -0.1089  0.8290  1.6731
   35MOL0     C 4732   2.923   6.283   4.870 -0.2787 -1.0558  1.1798
   35MOL0     C 4733   2.803   6.214   4.931  0.4982  0.0075  0.8658
   35MOL0     C 4734   2.774   6.262   5.076  0.2811 -0.2991  0.3336
   35MOL0     C 4735   2.651   6.194   5.149  1.0509  0.1359  0.2881
   35MOL0     C 4736   2.636   6.246   5.292  0.4055 -0.0509  0.2440
   35MOL0    Cl 4737   2.495   6.149   5.361  0.1216 -0.0924  0.2286
   35MOL0     C 4738   2.820   6.545   4.642 -1.0242 -0.4375  1.0983
   35MOL0     C 4739   2.701   6.625   4.659 -0.5960  0.0189 -0.0512
   35MOL0     O 4740   2.451   6.696   4.780  0.2868  1.1265  0.3941
   35MOL0     C 4741   2.275   6.881   4.866  0.1533 -0.3801 -0.0871
   35MOL0     C 4742   2.190   6.983   4.905  0.1090 -0.3904  0.2263
   35MOL0     N 4743   1.705   7.515   4.453 -0.2026 -0.3283 -0.2523
   35MOL0     N 4744   1.707   7.644   4.425 -0.3494 -0.5193 -0.2335
   35MOL0     C 4745   2.478   8.173   4.100  0.7665  0.1041  0.8742
   35MOL0     C 4746   2.504   8.176   4.235  0.0111 -0.3908  0.1157
   35MOL0     C 4747   2.524   8.152   4.669  0.4939  0.8606 -0.4584
   35MOL0     C 4748   2.610   8.046   4.709 -0.1362  0.0676 -0.1120
   35MOL0     C 4749   2.670   8.028   4.835 -0.0395 -0.4609 -0.0561
   35MOL0     C 4750   2.643   8.135   4.927  0.2480  0.0541  0.1679
   35MOL0     O 4751   2.681   8.137   5.056 -0.5100  0.6309  0.2850
   35MOL0     C 4752   2.769   8.034   5.115 -0.8154  0.3084 -0.1719
   35MOL0     C 4753   2.756   8.025   5.271 -0.0084 -0.7190  0.9953
   35MOL0     C 4754   2.803   8.162   5.328 -0.7520  0.3334  0.5684
   35MOL0     C 4755   2.724   8.193   5.455 -0.3124 -0.5726 -0.6175
   35MOL0     C 4756   2.770   8.340   5.484 -0.5950 -0.0534 -0.0671
   35MOL0     C 4757   2.794   8.453   5.520  0.0828 -0.2874 -0.2941
   35MOL0     C 4758   2.562   8.242   4.892  0.1409 -1.5264 -0.1096
   35MOL0     C 4759   2.489   8.246   4.775 -0.0064  0.5610 -0.2128
   35MOL0     C 4760   2.370   8.345   4.757 -0.2608 -0.0231 -0.7340
   35MOL0     H 4761   2.429   7.852   4.308 -2.6622  0.5515  0.3662
   35MOL0     H 4762   2.444   7.831   4.072  2.0101  0.6332  0.2676
   35MOL0     H 4763   2.360   7.862   3.852  0.4441 -0.8104  0.0346
   35MOL0     H 4764   2.274   7.983   3.754  2.0650  0.0883 -1.1399
   35MOL0     H 4765   2.103   7.854   3.902 -1.6177  0.4487  2.3360
   35MOL0     H 4766   2.202   7.885   4.040  0.7952 -1.3699 -0.6168
   35MOL0     H 4767   2.149   8.136   3.991 -1.3707  0.6072 -0.5073
   35MOL0     H 4768   2.042   8.082   3.863  1.7212 -0.0468 -0.8507
   35MOL0     H 4769   1.918   8.106   4.089  1.5507  2.5336 -1.6662
   35MOL0     H 4770   1.941   7.928   4.056 -0.0956  0.0756 -0.7195
   35MOL0     H 4771   2.090   8.130   4.232 -0.4327  0.4604 -1.4277
   35MOL0     H 4772   2.143   7.957   4.218  1.4793  1.6618  0.6845
   35MOL0     H 4773   2.012   8.057   4.408 -1.0470  0.2328  0.3534
   35MOL0     H 4774   1.879   8.064   4.298  1.2519  1.8761  0.3947
   35MOL0     H 4775   2.023   7.800   4.352  0.6631  1.1423  0.6620
   35MOL0     H 4776   1.873   7.811   4.260 -0.0647  0.1711 -0.4368
   35MOL0     H 4777   1.914   7.876   4.560 -0.3711 -2.1207 -0.6296
   35MOL0     H 4778   1.760   7.898   4.480 -0.1839 -1.2500  1.5465
   35MOL0     H 4779   1.963   7.618   4.623  1.0181 -0.6032 -0.6050
   35MOL0     H 4780   1.935   7.312   4.566 -0.3717  0.5044 -2.8440
   35MOL0     H 4781   1.772   7.277   4.586  1.3886 -0.2106 -2.0191
   35MOL0     H 4782   1.958   7.434   4.792  0.6702 -2.7927  2.3408
   35MOL0     H 4783   1.781   7.449   4.788 -0.2094  0.9730  0.1701
   35MOL0     H 4784   1.861   7.277   4.960 -2.0290  1.4964 -0.0599
   35MOL0     H 4785   1.756   7.217   4.834  0.5452 -0.5933 -0.2092
   35MOL0     H 4786   1.937   7.064   4.883  0.4368  0.2187  0.0624
   35MOL0     H 4787   1.960   7.124   4.717  0.8355  0.9252 -0.1068
   35MOL0     H 4788   2.279   7.227   4.691 -0.2905  0.1564 -0.6142
   35MOL0     H 4789   2.476   7.191   4.604 -2.3984  0.2268  1.3821
   35MOL0     H 4790   2.530   7.049   4.541 -0.8547 -1.5798  1.0395
   35MOL0     H 4791   2.593   7.100   4.697  0.0986  0.2819  0.4586
   35MOL0     H 4792   2.855   6.899   4.751 -1.5388 -0.5254  0.0397
   35MOL0     H 4793   3.052   6.778   4.720 -0.7747  0.8098  0.9956
   35MOL0     H 4794   2.996   6.388   4.502  2.9770 -1.8613 -2.3072
   35MOL0     H 4795   3.172   6.402   4.510  1.3247  1.4006 -0.9446
   35MOL0     H 4796   3.135   6.197   4.613  1.0513  0.1326  1.0301
   35MOL0     H 4797   3.173   6.295   4.747  1.1233  1.2768 -0.9687
   35MOL0     H 4798   3.000   6.108   4.787  0.2428  0.7472  1.2321
   35MOL0     H 4799   2.896   6.181   4.684  1.4426 -0.3644  0.1921
   35MOL0     H 4800   2.891   6.382   4.836  0.2160 -0.8572  1.2772
   35MOL0     H 4801   2.999   6.298   4.948  1.4459  1.0989 -0.7587
   35MOL0     H 4802   2.713   6.229   4.870  0.9397  3.0757  0.8208
   35MOL0     H 4803   2.816   6.105   4.928  0.6780  0.0504 -0.8180
   35MOL0     H 4804   2.741   6.366   5.075 -1.8727 -0.8553  2.5223
   35MOL0     H 4805   2.861   6.249   5.142 -0.4838 -0.0876  1.4152
   35MOL0     H 4806   2.657   6.085   5.156  0.7038  0.0954  0.0177
   35MOL0     H 4807   2.560   6.210   5.089 -0.2633 -1.2103  1.8204
   35MOL0     H 4808   2.610   6.352   5.294  2.5910  0.5158  1.8214
   35MOL0     H 4809   2.723   6.240   5.358  0.1552  2.2339  0.8704
   35MOL0     H 4810   2.803   6.440   4.617  2.7652 -0.7523 -1.0127
   35MOL0     H 4811   2.609   6.577   4.627 -0.3239 -1.7782  1.7017
   35MOL0     H 4812   2.285   6.789   4.923  3.2299  0.0702  0.2913
   35MOL0     H 4813   2.102   6.972   4.968  0.7539 -1.6894  0.9560
   35MOL0     H 4814   2.483   8.263   4.041  1.4335 -0.1953  0.4589
   35MOL0     H 4815   2.531   8.272   4.279 -0.2592 -0.0225 -0.5122
   35MOL0     H 4816   2.641   7.972   4.637  1.7797  2.1886 -1.6310
   35MOL0     H 4817   2.732   7.942   4.859  1.6682  0.8737  0.4703
   35MOL0     H 4818   2.752   7.938   5.066  0.4546  2.2838 -5.0673
   35MOL0     H 4819   2.870   8.065   5.090 -0.7487 -0.1744 -0.5248
   35MOL0     H 4820   2.822   7.943   5.301 -2.5961 -2.6869  1.7559
   35MOL0     H 4821   2.654   7.999   5.301 -0.6777  1.2326  0.5356
   35MOL0     H 4822   2.906   8.152   5.362 -0.6354  2.0057  0.7671
   35MOL0     H 4823   2.781   8.243   5.258 -1.8640 -0.4884 -0.0691
   35MOL0     H 4824   2.754   8.131   5.540 -1.4832 -0.6994 -0.2837
   35MOL0     H 4825   2.616   8.184   5.449 -0.8789  2.8139  1.4167
   35MOL0     H 4826   2.798   8.556   5.552 -0.0399 -0.6525  0.9641
   35MOL0     H 4827   2.538   8.308   4.975 -0.5432 -2.1973  0.2401
   35MOL0     H 4828   2.290   8.282   4.718 -0.3823  1.3830 -2.9582
   35MOL0     H 4829   2.353   8.383   4.858 -0.6826 -2.5209  0.2036
   35MOL0     H 4830   2.387   8.428   4.688  0.0835  1.0972  0.6503
   36MOL0     O 4831   6.302  10.886   4.736  0.7343 -0.0922 -0.5332
   36MOL0     C 4832   6.399  10.859   4.812  0.6274 -0.1300  0.0154
   36MOL0     O 4833   6.523  10.814   4.767 -0.4247 -0.2127 -0.3117
   36MOL0     C 4834   6.626  10.825   4.859 -0.1874 -0.8644  0.4079
   36MOL0     C 4835   6.664  10.727   4.946  0.5083 -0.2131  0.0208
   36MOL0     C 4836   6.771  10.751   5.040 -0.3582 -0.2970  0.7058
   36MOL0     C 4837   6.838  10.871   5.032  0.1981 -0.3200  0.6007
   36MOL0     O 4838   6.946  10.898   5.111  0.8996  0.2058 -0.2836
   36MOL0     C 4839   6.931  10.876   5.256  0.3850  0.7276  0.7633
   36MOL0     C 4840   6.865  11.007   5.304 -0.2281 -0.0869  0.2949
   36MOL0     C 4841   6.939  11.132   5.245  0.2045 -0.0381 -0.0785
   36MOL0     C 4842   6.894  11.273   5.296  0.6468 -0.8521  0.2840
   36MOL0     C 4843   6.762  11.322   5.226 -0.1207 -0.6012  0.2742
   36MOL0     C 4844   6.773  11.351   5.079 -0.5793  0.1515  0.4229
   36MOL0     C 4845   6.675  11.464   5.028 -0.3756 -0.2249  0.2749
   36MOL0     C 4846   6.694  11.520   4.886 -0.4280 -1.4961  0.8900
   36MOL0     N 4847   6.664  11.437   4.774 -0.4075  0.6264  0.9370
   36MOL0     C 4848   6.562  11.338   4.759 -0.3840 -0.8801  0.5658
   36MOL0     C 4849   6.593  11.272   4.646  0.6616  0.3041 -0.1738
   36MOL0     C 4850   6.503  11.174   4.566  0.5518  0.6507  0.8840
   36MOL0     C 4851   6.390  11.251   4.496 -0.4470 -0.2808 -0.7922
   36MOL0     C 4852   6.325  11.173   4.386  0.6457  0.1479  0.0010
   36MOL0     C 4853   6.232  11.058   4.433  0.1545 -0.3742  0.0310
   36MOL0     O 4854   6.205  10.971   4.325 -0.4443 -0.9831 -0.6483
   36MOL0     C 4855   6.166  10.837   4.344  0.3451  0.6000 -1.2320
   36MOL0     C 4856   6.164  10.752   4.231  0.5154  0.5368 -0.2196
   36MOL0     C 4857   6.124  10.617   4.229  0.2308 -1.3492 -0.1798
   36MOL0     C 4858   6.121  10.544   4.095  0.6923  0.0113 -0.2856
   36MOL0     C 4859   6.095  10.558   4.358  0.3084 -0.5008  0.3860
   36MOL0     C 4860   6.051  10.418   4.370 -0.1217 -0.0265  0.5810
   36MOL0     O 4861   5.927  10.385   4.418 -0.4820  0.1058 -0.2181
   36MOL0     C 4862   5.883  10.443   4.533 -0.0622  0.3866 -0.0533
   36MOL0     C 4863   5.914  10.388   4.661  0.3161  0.2145 -0.0398
   36MOL0     C 4864   5.865  10.437   4.776  0.4186 -0.6496 -1.1092
   36MOL0     C 4865   5.795  10.558   4.776 -0.3378  0.7755  0.2664
   36MOL0     O 4866   5.758  10.601   4.895  0.0286 -0.1278  0.0994
   36MOL0     C 4867   5.847  10.694   4.958  0.1386 -0.3057  0.8864
   36MOL0     C 4868   5.765  10.817   5.008  0.4686  0.9159  0.6482
   36MOL0     C 4869   5.669  10.774   5.129 -0.0750  0.0025  0.3350
   36MOL0     C 4870   5.537  10.708   5.082 -1.1513  0.3534  0.6382
   36MOL0     C 4871   5.438  10.675   5.184  0.3885  1.3868  0.5015
   36MOL0     C 4872   5.499  10.576   5.292  0.1163  0.1807 -0.0961
   36MOL0     C 4873   5.405  10.570   5.423 -0.8481 -1.0680 -0.4762
   36MOL0     C 4874   5.268  10.509   5.375  0.4485  0.5448 -0.5380
   36MOL0    Cl 4875   5.181  10.424   5.505 -0.0711 -0.0758 -0.0179
   36MOL0     C 4876   5.773  10.628   4.654  0.0962 -0.4081 -0.1361
   36MOL0     C 4877   5.815  10.561   4.535  0.7383 -0.5104  0.1199
   36MOL0     O 4878   6.129  10.338   4.315 -0.5974  0.3115 -0.0520
   36MOL0     C 4879   6.114  10.631   4.476  0.5834 -0.0950  0.1387
   36MOL0     C 4880   6.145  10.770   4.464 -0.3734  0.0351  0.9543
   36MOL0     N 4881   6.703  11.323   4.579 -0.3581 -0.5738 -0.2476
   36MOL0     N 4882   6.748  11.411   4.663 -0.2244 -0.2285 -0.8391
   36MOL0     C 4883   6.813  10.956   4.931 -0.5847  0.0914 -0.8258
   36MOL0     C 4884   6.703  10.936   4.848 -0.7523 -0.7275  0.4052
   36MOL0     C 4885   6.387  10.893   4.955 -0.5837 -0.2329  0.9054
   36MOL0     C 4886   6.401  11.026   4.989  0.2141  0.4411 -1.0748
   36MOL0     C 4887   6.377  11.067   5.120  0.6421 -0.1484  0.7077
   36MOL0     C 4888   6.330  10.974   5.215 -0.2375 -0.5089 -0.0014
   36MOL0     O 4889   6.312  11.009   5.342 -0.5891 -0.1463  0.3467
   36MOL0     C 4890   6.422  11.083   5.399 -0.0540  0.2019 -0.1215
   36MOL0     C 4891   6.392  11.087   5.554  0.2586 -0.9284  0.5365
   36MOL0     C 4892   6.514  11.152   5.628 -0.1326  0.2734 -0.1053
   36MOL0     C 4893   6.641  11.068   5.595 -0.3082 -0.4191 -0.1469
   36MOL0     C 4894   6.635  10.925   5.619  0.4192  0.1062  0.2340
   36MOL0     C 4895   6.629  10.808   5.602  0.4232  0.3148 -0.2272
   36MOL0     C 4896   6.328  10.838   5.180  1.3822 -0.1989 -0.9209
   36MOL0     C 4897   6.353  10.799   5.048  0.4914  0.4902  0.1644
   36MOL0     C 4898   6.328  10.650   5.011 -0.0102  0.2245 -0.4667
   36MOL0     H 4899   6.624  10.626   4.946 -0.3307 -0.0070 -3.3760
   36MOL0     H 4900   6.814  10.676   5.106  1.1122 -1.4852 -1.4295
   36MOL0     H 4901   7.031  10.851   5.291  0.3684 -2.7066 -1.1587
   36MOL0     H 4902   6.864  10.795   5.286 -1.1022  1.2896 -0.8549
   36MOL0     H 4903   6.760  10.999   5.274  0.2142 -0.1853 -1.3099
   36MOL0     H 4904   6.872  11.028   5.411  0.2135  2.3957 -0.1800
   36MOL0     H 4905   7.046  11.121   5.268  0.8527  3.3349 -0.8851
   36MOL0     H 4906   6.941  11.137   5.136  0.5131  2.2261 -0.0141
   36MOL0     H 4907   6.880  11.272   5.405  0.6785 -0.0282  0.3057
   36MOL0     H 4908   6.973  11.340   5.260 -0.5186  0.4923  0.1355
   36MOL0     H 4909   6.738  11.420   5.269  2.5092  0.3956 -0.3142
   36MOL0     H 4910   6.686  11.245   5.241 -1.5185  0.4544 -1.0478
   36MOL0     H 4911   6.876  11.383   5.059 -0.9257  1.9725  1.2755
   36MOL0     H 4912   6.756  11.254   5.032 -1.3758 -0.2993  1.6068
   36MOL0     H 4913   6.690  11.547   5.097 -1.5097  1.4464 -1.4085
   36MOL0     H 4914   6.572  11.438   5.056 -0.0872  0.7343  2.4532
   36MOL0     H 4915   6.625  11.604   4.875  1.3075 -0.1718 -0.6530
   36MOL0     H 4916   6.796  11.556   4.866 -1.4036 -0.0353 -2.0309
   36MOL0     H 4917   6.469  11.329   4.814 -1.9487  0.8410 -1.6073
   36MOL0     H 4918   6.471  11.086   4.622 -0.0270 -0.4876 -1.1415
   36MOL0     H 4919   6.562  11.142   4.480 -1.9024  0.6113 -0.9085
   36MOL0     H 4920   6.317  11.275   4.573 -0.0545 -0.9011 -0.2176
   36MOL0     H 4921   6.439  11.341   4.458  3.0429 -1.9791 -0.7411
   36MOL0     H 4922   6.273  11.248   4.326  1.0553 -0.2906 -0.9122
   36MOL0     H 4923   6.396  11.122   4.320 -0.0768 -1.2250  0.2533
   36MOL0     H 4924   6.272  11.012   4.524 -0.6868  0.6933  0.9688
   36MOL0     H 4925   6.131  11.089   4.459 -0.4919 -1.8596 -0.6276
   36MOL0     H 4926   6.180  10.812   4.142  0.5974  1.7721  0.6000
   36MOL0     H 4927   6.084  10.441   4.086 -1.5339  0.4590  2.2445
   36MOL0     H 4928   6.223  10.553   4.059  0.5168  3.9370 -0.2555
   36MOL0     H 4929   6.070  10.597   4.014  2.1317 -0.1034 -1.2888
   36MOL0     H 4930   5.980  10.303   4.669  0.6602  0.3862 -0.8743
   36MOL0     H 4931   5.883  10.390   4.872 -2.1805  0.6962  0.1327
   36MOL0     H 4932   5.912  10.637   5.025  1.0664  0.5625  0.7561
   36MOL0     H 4933   5.920  10.733   4.886 -1.2373  0.0989 -0.3241
   36MOL0     H 4934   5.833  10.891   5.049  1.8213  0.1537 -0.1619
   36MOL0     H 4935   5.711  10.856   4.921  1.2807 -0.3986 -0.5009
   36MOL0     H 4936   5.642  10.863   5.187 -1.0564  0.7208 -1.1501
   36MOL0     H 4937   5.724  10.700   5.188  1.9638 -1.5257 -3.1827
   36MOL0     H 4938   5.576  10.611   5.048 -0.4685  1.2435 -1.2722
   36MOL0     H 4939   5.491  10.757   4.996 -0.5196  1.8229  1.1126
   36MOL0     H 4940   5.400  10.766   5.232 -0.7373  1.3520 -0.2825
   36MOL0     H 4941   5.350  10.623   5.145 -1.1989  3.3411  1.2809
   36MOL0     H 4942   5.601  10.609   5.312 -0.9321  3.3211  0.5585
   36MOL0     H 4943   5.515  10.476   5.250  1.1293 -0.3887  1.5677
   36MOL0     H 4944   5.396  10.659   5.488  1.4524 -1.2156  0.1092
   36MOL0     H 4945   5.460  10.507   5.494 -0.8711  0.4712  0.9901
   36MOL0     H 4946   5.273  10.442   5.288 -0.4010 -0.0744 -0.1220
   36MOL0     H 4947   5.207  10.594   5.343  0.0215  1.4950  2.5146
   36MOL0     H 4948   5.719  10.722   4.650  1.6177  0.5125  0.2374
   36MOL0     H 4949   5.771  10.606   4.447 -1.3037 -0.9835  0.8551
   36MOL0     H 4950   6.109  10.590   4.577 -3.4874 -0.6520 -0.1385
   36MOL0     H 4951   6.152  10.825   4.557  0.9397 -1.4017  1.7532
   36MOL0     H 4952   6.865  11.049   4.950  0.6275 -0.7666  0.2246
   36MOL0     H 4953   6.679  11.003   4.766 -1.1848  0.7683  1.7050
   36MOL0     H 4954   6.441  11.090   4.912  2.7578  0.5116  0.1927
   36MOL0     H 4955   6.389  11.172   5.144 -1.3772 -0.4474  3.5709
   36MOL0     H 4956   6.514  11.031   5.373 -0.9490 -1.6703  0.2767
   36MOL0     H 4957   6.441  11.186   5.367  0.4897  0.6535  1.5596
   36MOL0     H 4958   6.384  10.982   5.584  1.2481 -1.1958 -0.0676
   36MOL0     H 4959   6.298  11.142   5.565  1.2122  1.0352 -0.5494
   36MOL0     H 4960   6.515  11.253   5.586 -1.2663  0.8161  1.1208
   36MOL0     H 4961   6.499  11.164   5.735  1.2777 -1.2539  0.3079
   36MOL0     H 4962   6.711  11.129   5.654  1.1946 -0.5658 -1.6825
   36MOL0     H 4963   6.681  11.091   5.496  1.2117  2.0846  0.9324
   36MOL0     H 4964   6.606  10.707   5.574 -1.0170  1.5965 -4.5440
   36MOL0     H 4965   6.309  10.763   5.255 -0.4789  1.6350  0.5598
   36MOL0     H 4966   6.320  10.591   5.102  1.5664 -1.0715 -1.1186
   36MOL0     H 4967   6.234  10.651   4.956 -1.7802  1.3332  2.3544
   36MOL0     H 4968   6.405  10.605   4.947 -0.0236  0.9615 -1.0213
   37MOL0     O 4969   8.900   8.688   6.715  0.5987 -0.0758 -0.5623
   37MOL0     C 4970   8.880   8.799   6.765  0.0343  0.5718 -0.2377
   37MOL0     O 4971   8.779   8.832   6.854 -0.6884 -0.5352 -0.8709
   37MOL0     C 4972   8.706   8.732   6.909  0.0036  0.0082  0.0580
   37MOL0     C 4973   8.569   8.726   6.908  0.0750 -1.0818 -0.1223
   37MOL0     C 4974   8.483   8.623   6.955  0.0585 -0.4012 -0.3301
   37MOL0     C 4975   8.545   8.519   7.019 -0.2026  0.5589 -0.4452
   37MOL0     O 4976   8.485   8.406   7.074  0.2356 -0.0683 -0.8047
   37MOL0     C 4977   8.363   8.427   7.138  0.4228 -0.9586  0.4531
   37MOL0     C 4978   8.252   8.409   7.039 -0.1597 -0.6298  0.0455
   37MOL0     C 4979   8.201   8.269   7.031  0.2685  0.2666 -0.0112
   37MOL0     C 4980   8.056   8.258   6.981  0.6770  0.7011  0.0255
   37MOL0     C 4981   8.024   8.103   6.976  0.7636  0.1819 -1.0799
   37MOL0     C 4982   8.033   8.022   7.111  0.5319  0.5101  0.1570
   37MOL0     C 4983   7.913   8.044   7.200  0.7555  0.2810 -1.1237
   37MOL0     C 4984   7.905   7.973   7.336  0.2146  0.7958  0.2464
   37MOL0     N 4985   8.003   8.036   7.424  0.1175 -0.1349 -0.1086
   37MOL0     C 4986   7.989   8.144   7.512  0.6939  0.4010 -0.5068
   37MOL0     C 4987   8.110   8.174   7.557  0.8113  0.4093 -0.2597
   37MOL0     C 4988   8.137   8.294   7.638  0.4990 -0.5330 -0.1438
   37MOL0     C 4989   8.206   8.260   7.773 -0.1309 -0.0738  0.4226
   37MOL0     C 4990   8.220   8.390   7.861 -0.3414 -0.3401  0.3099
   37MOL0     C 4991   8.297   8.377   7.990  1.4142 -0.1410 -0.7122
   37MOL0     O 4992   8.258   8.258   8.066  0.3616 -0.5901  0.2156
   37MOL0     C 4993   8.245   8.272   8.196 -0.7518 -0.0787 -0.2731
   37MOL0     C 4994   8.346   8.322   8.271 -0.4519 -0.1998 -1.3079
   37MOL0     C 4995   8.327   8.336   8.410  0.0308  0.7241 -0.8000
   37MOL0     C 4996   8.448   8.397   8.479 -0.2727  0.4661  0.4532
   37MOL0     C 4997   8.203   8.292   8.472  0.2883 -0.8155 -0.4749
   37MOL0     C 4998   8.174   8.309   8.615 -0.9060  0.5218 -1.1684
   37MOL0     O 4999   8.042   8.336   8.640 -0.2435  0.5657 -0.0239
   37MOL0     C 5000   7.998   8.342   8.769 -0.3530 -0.3725  0.1417
   37MOL0     C 5001   7.986   8.466   8.829 -0.4895  0.1859 -1.0928
   37MOL0     C 5002   7.939   8.460   8.964  0.1974 -0.0639  1.0373
   37MOL0     C 5003   7.889   8.346   9.030  0.0040 -0.0671  0.2917
   37MOL0     O 5004   7.816   8.355   9.151 -1.1044 -0.3712  0.6784
   37MOL0     C 5005   7.735   8.248   9.187  0.4166 -0.1059  0.0430
   37MOL0     C 5006   7.655   8.279   9.318 -0.2340  0.3905  0.2334
   37MOL0     C 5007   7.571   8.410   9.300  0.0197 -0.8404  0.4751
   37MOL0     C 5008   7.480   8.416   9.429  1.0485 -1.0964 -0.1082
   37MOL0     C 5009   7.404   8.547   9.443  0.3428 -0.3341  0.5280
   37MOL0     C 5010   7.485   8.673   9.493 -0.2576  0.8208  0.3868
   37MOL0     C 5011   7.414   8.800   9.453  0.2069  0.3820 -1.1662
   37MOL0     C 5012   7.484   8.919   9.498  0.1388  0.8766  0.9526
   37MOL0    Cl 5013   7.540   8.922   9.672  0.5421  0.1110 -0.5287
   37MOL0     C 5014   7.895   8.229   8.955  0.3667 -0.6052  0.2640
   37MOL0     C 5015   7.951   8.224   8.829  0.0322  0.6457 -0.3184
   37MOL0     O 5016   8.268   8.311   8.695  0.3937  0.5738 -0.4933
   37MOL0     C 5017   8.103   8.233   8.392 -0.5428  0.0261  0.4712
   37MOL0     C 5018   8.127   8.219   8.252 -0.1123  0.7659 -1.2356
   37MOL0     N 5019   8.197   8.084   7.500 -0.5205  0.0258  0.1732
   37MOL0     N 5020   8.134   7.999   7.439  0.6866  0.6449 -0.0618
   37MOL0     C 5021   8.685   8.509   7.016  0.1841 -0.4811 -0.8874
   37MOL0     C 5022   8.762   8.619   6.978 -0.6521 -0.3016 -0.5056
   37MOL0     C 5023   8.961   8.913   6.712  1.0448 -0.2685  0.7585
   37MOL0     C 5024   8.984   9.017   6.809 -0.5612 -0.3929 -0.5953
   37MOL0     C 5025   9.076   9.126   6.778 -0.2136  0.6431  0.0620
   37MOL0     C 5026   9.142   9.136   6.649 -0.6928  1.1188  0.0710
   37MOL0     O 5027   9.223   9.247   6.620  0.5382  0.2070  0.6123
   37MOL0     C 5028   9.364   9.240   6.634  0.3956 -0.3818 -0.2192
   37MOL0     C 5029   9.437   9.182   6.511  1.0306  0.9548 -0.4867
   37MOL0     C 5030   9.416   9.271   6.390 -0.1275  0.2886  0.7167
   37MOL0     C 5031   9.424   9.193   6.259  0.9019  0.3178  0.6136
   37MOL0     C 5032   9.295   9.135   6.211 -0.5331  0.6755 -0.7990
   37MOL0     C 5033   9.189   9.073   6.190  0.9129 -0.0427  0.8766
   37MOL0     C 5034   9.095   9.032   6.550 -0.1668  0.1553 -0.5111
   37MOL0     C 5035   9.013   8.922   6.580 -0.2911 -0.0060  0.3002
   37MOL0     C 5036   8.965   8.834   6.462  0.2317 -0.5854 -0.1773
   37MOL0     H 5037   8.525   8.809   6.853 -0.2487 -0.2599  1.3183
   37MOL0     H 5038   8.377   8.617   6.928  0.1370 -2.1161 -0.3817
   37MOL0     H 5039   8.363   8.528   7.179 -1.6101 -0.4694 -0.6378
   37MOL0     H 5040   8.344   8.355   7.218 -3.3072 -1.5075 -0.7224
   37MOL0     H 5041   8.168   8.472   7.070 -0.2271 -1.2668  1.2019
   37MOL0     H 5042   8.265   8.445   6.937 -0.1315  2.8625  1.1562
   37MOL0     H 5043   8.267   8.204   6.973  1.9599  2.3017 -0.4885
   37MOL0     H 5044   8.210   8.224   7.130  0.4439  2.2577  0.9282
   37MOL0     H 5045   7.993   8.314   7.051  0.4888 -0.8501  1.1359
   37MOL0     H 5046   8.031   8.302   6.884 -1.3174 -1.1578 -0.3707
   37MOL0     H 5047   8.098   8.066   6.904  0.1745  1.7047 -2.5306
   37MOL0     H 5048   7.930   8.077   6.927  0.5940  2.3375 -2.0358
   37MOL0     H 5049   8.039   7.917   7.084  1.4069  0.6852 -0.3743
   37MOL0     H 5050   8.124   8.039   7.171  1.3772 -1.2979 -0.5263
   37MOL0     H 5051   7.816   8.027   7.152 -1.0382 -0.5432  2.4246
   37MOL0     H 5052   7.902   8.151   7.221  0.7993  0.2722 -1.0497
   37MOL0     H 5053   7.804   7.988   7.374  0.8093  1.1588  1.7602
   37MOL0     H 5054   7.927   7.869   7.311  2.6370  1.6174 -1.4820
   37MOL0     H 5055   7.902   8.205   7.533 -0.2811 -0.4289 -1.8974
   37MOL0     H 5056   8.041   8.343   7.655  0.4659  1.1134 -4.0387
   37MOL0     H 5057   8.204   8.367   7.591  0.6208  2.5266  4.1969
   37MOL0     H 5058   8.145   8.179   7.813  0.2831 -0.7897 -0.3657
   37MOL0     H 5059   8.302   8.211   7.756 -0.9266 -1.3914 -0.4759
   37MOL0     H 5060   8.270   8.468   7.804  0.2438  0.5796  2.0283
   37MOL0     H 5061   8.122   8.428   7.891  1.0381  1.9520  2.2057
   37MOL0     H 5062   8.406   8.386   7.977  2.1963 -2.0697  3.0522
   37MOL0     H 5063   8.278   8.471   8.043  2.2865 -0.0566 -0.5281
   37MOL0     H 5064   8.442   8.337   8.224 -0.9054 -1.5674 -2.7541
   37MOL0     H 5065   8.505   8.319   8.532  0.7951  1.8705  1.4369
   37MOL0     H 5066   8.417   8.458   8.565 -0.2204 -2.9592  3.1562
   37MOL0     H 5067   8.527   8.443   8.420  0.4498  0.4573  1.3803
   37MOL0     H 5068   8.017   8.551   8.768  1.5294  0.1934 -0.1296
   37MOL0     H 5069   7.949   8.554   9.017  2.1853  0.0309  0.5754
   37MOL0     H 5070   7.662   8.229   9.108 -0.6006 -0.6170  1.0814
   37MOL0     H 5071   7.799   8.160   9.198 -0.9031 -1.0239  0.5805
   37MOL0     H 5072   7.581   8.200   9.330  0.2791 -0.4987 -1.8735
   37MOL0     H 5073   7.708   8.276   9.413 -1.2861 -1.4829  0.7998
   37MOL0     H 5074   7.516   8.406   9.206  0.6579  0.8342 -0.0081
   37MOL0     H 5075   7.647   8.488   9.311 -0.9321  0.2925 -0.6448
   37MOL0     H 5076   7.541   8.409   9.520 -0.6175  2.7569  1.5280
   37MOL0     H 5077   7.406   8.335   9.422 -1.3724  0.9985 -0.2728
   37MOL0     H 5078   7.353   8.566   9.349  0.4946 -1.4146  0.2093
   37MOL0     H 5079   7.325   8.527   9.517 -1.1440 -1.8114 -1.3719
   37MOL0     H 5080   7.579   8.683   9.437  0.7521 -0.1287  1.8500
   37MOL0     H 5081   7.502   8.670   9.601 -0.7346  3.7915  0.6280
   37MOL0     H 5082   7.316   8.796   9.501  1.0645 -0.8645  0.6278
   37MOL0     H 5083   7.407   8.800   9.344  0.4604 -0.5727 -1.1887
   37MOL0     H 5084   7.422   9.007   9.476 -1.6649 -0.6721 -0.5020
   37MOL0     H 5085   7.572   8.932   9.435  0.0229  0.0472  0.6046
   37MOL0     H 5086   7.850   8.136   8.988  2.2543 -2.0210 -0.9587
   37MOL0     H 5087   7.961   8.130   8.776 -2.7469 -0.7363  1.3679
   37MOL0     H 5088   8.015   8.216   8.453 -0.0780  1.0577  1.4538
   37MOL0     H 5089   8.048   8.187   8.184 -1.2035 -1.1386  0.7862
   37MOL0     H 5090   8.722   8.413   7.049  0.2400 -0.1627 -0.0164
   37MOL0     H 5091   8.870   8.620   6.987 -0.7722  1.5251  1.7066
   37MOL0     H 5092   8.938   9.014   6.907  2.4499  0.2743  0.9598
   37MOL0     H 5093   9.086   9.197   6.859 -0.8618  2.1046 -1.1084
   37MOL0     H 5094   9.399   9.337   6.670 -2.3805  1.4302 -2.0630
   37MOL0     H 5095   9.368   9.165   6.713 -1.5577 -0.4636 -0.1581
   37MOL0     H 5096   9.400   9.082   6.488  0.0385  0.4170  2.9442
   37MOL0     H 5097   9.542   9.172   6.539  1.1473  0.4325 -1.0834
   37MOL0     H 5098   9.319   9.320   6.383 -0.3553 -0.2010  0.3956
   37MOL0     H 5099   9.496   9.346   6.384 -1.8549  2.5838  3.6355
   37MOL0     H 5100   9.496   9.111   6.262 -0.9544 -1.4528 -0.3149
   37MOL0     H 5101   9.450   9.269   6.185 -3.1938  1.1764 -0.2359
   37MOL0     H 5102   9.094   9.025   6.178 -0.8414  3.7418 -4.4339
   37MOL0     H 5103   9.125   9.050   6.447 -2.6315 -3.7942 -2.1843
   37MOL0     H 5104   8.889   8.761   6.491 -2.6219  2.0316 -0.5378
   37MOL0     H 5105   8.921   8.904   6.390  0.1475 -2.2571 -1.8407
   37MOL0     H 5106   9.049   8.777   6.419  1.6653 -2.1570  4.1767
   38MOL0     O 5107  10.955   4.547  10.570  0.2316 -0.4351 -0.8494
   38MOL0     C 5108  10.915   4.642  10.639  0.0368  0.9420  0.4088
   38MOL0     O 5109  10.925   4.767  10.610 -0.2707  0.3636 -0.7506
   38MOL0     C 5110  11.009   4.806  10.517  1.1645 -0.3164 -0.2479
   38MOL0     C 5111  10.958   4.825  10.383 -0.1568  1.2849 -0.6288
   38MOL0     C 5112  11.047   4.849  10.276  0.2585 -0.3205 -0.0560
   38MOL0     C 5113  11.184   4.856  10.295 -0.3676 -0.8168  0.3583
   38MOL0     O 5114  11.273   4.874  10.194  0.0049 -0.0583 -0.3972
   38MOL0     C 5115  11.263   4.993  10.121  0.4027 -1.0303 -0.3103
   38MOL0     C 5116  11.305   5.119  10.200 -1.2633 -0.0840 -0.1850
   38MOL0     C 5117  11.247   5.138  10.341  0.2573 -0.2667 -0.2087
   38MOL0     C 5118  11.288   5.278  10.393 -0.4585 -0.2290  0.3101
   38MOL0     C 5119  11.311   5.282  10.541  0.0630  0.7884 -1.3178
   38MOL0     C 5120  11.238   5.398  10.605 -0.3807 -0.4952  0.3363
   38MOL0     C 5121  11.297   5.530  10.569 -1.1370  0.1125 -0.0092
   38MOL0     C 5122  11.298   5.617  10.695 -0.3810  0.1611  0.2220
   38MOL0     N 5123  11.371   5.739  10.660  0.2314 -0.3557  0.4554
   38MOL0     C 5124  11.338   5.830  10.562  0.6165 -0.2684 -0.5237
   38MOL0     C 5125  11.447   5.914  10.540 -0.6211 -0.2543  0.6059
   38MOL0     C 5126  11.456   6.029  10.432  0.7811 -0.3106 -0.1655
   38MOL0     C 5127  11.529   5.993  10.298  0.0248 -0.2038 -0.5451
   38MOL0     C 5128  11.680   6.004  10.326 -0.0268 -0.2930 -0.5237
   38MOL0     C 5129  11.755   5.997  10.193 -0.3880 -0.0888 -0.9794
   38MOL0     O 5130  11.734   5.858  10.147  0.4797 -0.2837  0.1635
   38MOL0     C 5131  11.855   5.795  10.127 -0.6536 -0.2734 -0.5352
   38MOL0     C 5132  11.897   5.775   9.994  0.8113  0.1333  0.1073
   38MOL0     C 5133  12.012   5.706   9.959 -0.7933  0.1043 -0.1030
   38MOL0     C 5134  12.037   5.678   9.815 -0.1534  0.0349  0.1613
   38MOL0     C 5135  12.093   5.651  10.063 -0.7124  0.8320  0.5130
   38MOL0     C 5136  12.218   5.588  10.037  0.8032 -0.5228 -1.3354
   38MOL0     O 5137  12.225   5.491   9.932 -1.0197  0.2467 -0.0541
   38MOL0     C 5138  12.339   5.434   9.894  0.0569  0.2714  0.9256
   38MOL0     C 5139  12.336   5.385   9.764 -0.1548 -0.0090 -0.4726
   38MOL0     C 5140  12.448   5.331   9.706  0.2425 -0.6733 -0.6977
   38MOL0     C 5141  12.572   5.335   9.765 -0.5854 -0.9706  0.7599
   38MOL0     O 5142  12.676   5.296   9.689 -0.6433 -0.8585  0.3587
   38MOL0     C 5143  12.816   5.311   9.726  0.4396  0.7881 -0.4243
   38MOL0     C 5144  12.848   5.182   9.815 -0.4924 -0.0022 -0.0754
   38MOL0     C 5145  12.998   5.150   9.836  0.1688 -0.3622  0.4817
   38MOL0     C 5146  13.074   5.275   9.872  0.6454 -0.8280  0.0298
   38MOL0     C 5147  13.208   5.251   9.938  0.5583 -0.1657  0.1465
   38MOL0     C 5148  13.289   5.382   9.980 -0.5639 -0.3273 -0.1581
   38MOL0     C 5149  13.443   5.354  10.006  0.6454  0.9236 -0.8185
   38MOL0     C 5150  13.502   5.465  10.096  0.3744  0.0697  0.5017
   38MOL0    Cl 5151  13.472   5.625   9.999 -0.0364  0.3481  0.3177
   38MOL0     C 5152  12.576   5.381   9.902  0.0673 -0.2259  0.6821
   38MOL0     C 5153  12.460   5.426   9.960  0.6692  0.7852  0.0598
   38MOL0     O 5154  12.300   5.607  10.126 -0.6419  0.4370  0.6875
   38MOL0     C 5155  12.043   5.664  10.192  0.8732 -0.3118 -0.3162
   38MOL0     C 5156  11.928   5.731  10.223  0.9961  0.5605 -0.5391
   38MOL0     N 5157  11.545   5.869  10.632  1.1280 -0.2577  0.9310
   38MOL0     N 5158  11.501   5.768  10.701  0.4548 -0.4005  0.4951
   38MOL0     C 5159  11.236   4.828  10.423  0.5364  0.1435 -0.0939
   38MOL0     C 5160  11.151   4.803  10.538 -0.0189  0.1549  0.5775
   38MOL0     C 5161  10.833   4.601  10.759  0.8131  0.0239 -0.2421
   38MOL0     C 5162  10.722   4.692  10.790 -0.2798 -0.5489  0.1627
   38MOL0     C 5163  10.642   4.660  10.903 -0.3243 -0.0332 -0.1061
   38MOL0     C 5164  10.673   4.546  10.980 -0.3078  0.0720 -0.4702
   38MOL0     O 5165  10.598   4.506  11.085  0.2400 -0.2304 -0.8658
   38MOL0     C 5166  10.457   4.527  11.110  0.4048  0.2230  0.0821
   38MOL0     C 5167  10.423   4.472  11.245  0.0449 -0.6165 -0.1575
   38MOL0     C 5168  10.451   4.571  11.354  0.0145  0.0260 -1.2445
   38MOL0     C 5169  10.396   4.530  11.485 -0.6543 -0.3845 -0.7526
   38MOL0     C 5170  10.253   4.493  11.481 -0.8572  0.7847  0.1980
   38MOL0     C 5171  10.139   4.450  11.469 -0.3728 -1.2124  0.6432
   38MOL0     C 5172  10.776   4.460  10.945  0.8635  0.4332  0.2100
   38MOL0     C 5173  10.852   4.479  10.839  0.4242 -0.1598 -0.5245
   38MOL0     C 5174  10.957   4.379  10.813 -0.2006 -0.2814  0.3682
   38MOL0     H 5175  10.850   4.823  10.367 -0.1484  0.1307 -0.6196
   38MOL0     H 5176  10.994   4.881  10.187 -0.9947 -2.5024 -0.1608
   38MOL0     H 5177  11.158   5.016  10.101  1.4150  1.4187 -3.5542
   38MOL0     H 5178  11.323   4.992  10.030 -1.7889  1.0630 -1.9262
   38MOL0     H 5179  11.412   5.106  10.213 -1.4355 -2.9327 -0.9028
   38MOL0     H 5180  11.299   5.206  10.135 -0.7161 -0.4061 -0.6788
   38MOL0     H 5181  11.139   5.125  10.342  0.2242  0.0235  0.6651
   38MOL0     H 5182  11.293   5.072  10.416  0.5570  0.3702  0.1782
   38MOL0     H 5183  11.382   5.304  10.343  0.8327 -1.1104  2.1525
   38MOL0     H 5184  11.215   5.353  10.363  0.0020 -0.6290 -2.0168
   38MOL0     H 5185  11.413   5.289  10.581 -0.5626 -1.7816  1.0595
   38MOL0     H 5186  11.269   5.193  10.589 -0.0962  0.9738 -1.1084
   38MOL0     H 5187  11.136   5.403  10.566  0.0537 -1.7947 -1.0396
   38MOL0     H 5188  11.234   5.384  10.713 -0.4577  0.5710  0.4911
   38MOL0     H 5189  11.238   5.578  10.490 -1.2684  1.4152  0.8527
   38MOL0     H 5190  11.401   5.514  10.541 -0.2252  2.4810  1.7367
   38MOL0     H 5191  11.199   5.657  10.721  1.2420  5.8699 -0.8510
   38MOL0     H 5192  11.334   5.564  10.784 -0.8999  0.1874  0.4515
   38MOL0     H 5193  11.243   5.836  10.508 -0.0002  0.7299  0.6235
   38MOL0     H 5194  11.514   6.114  10.470  1.1518  1.0660 -3.4699
   38MOL0     H 5195  11.357   6.072  10.412  0.4516 -0.6569  0.6772
   38MOL0     H 5196  11.498   5.890  10.277 -2.9677 -0.1878  2.7775
   38MOL0     H 5197  11.510   6.061  10.215 -0.9200  0.4043  0.1473
   38MOL0     H 5198  11.710   6.100  10.368 -1.2257  0.2940 -0.9711
   38MOL0     H 5199  11.704   5.918  10.388  1.0584  1.4122  1.5366
   38MOL0     H 5200  11.739   6.080  10.123  1.6346  1.8423  0.7305
   38MOL0     H 5201  11.861   6.011  10.212 -0.5069  2.4750 -1.8424
   38MOL0     H 5202  11.836   5.810   9.911  0.7803 -1.3913 -0.5338
   38MOL0     H 5203  11.965   5.726   9.749  2.6660  2.1605 -1.6085
   38MOL0     H 5204  12.026   5.571   9.795  3.2210 -0.3666 -0.2108
   38MOL0     H 5205  12.133   5.710   9.775 -1.5023  1.9452 -1.7149
   38MOL0     H 5206  12.238   5.381   9.717  0.2928 -0.9137 -1.3455
   38MOL0     H 5207  12.426   5.297   9.606 -2.8718  2.5593 -1.3067
   38MOL0     H 5208  12.883   5.305   9.640 -1.1542 -0.9635 -1.6223
   38MOL0     H 5209  12.829   5.404   9.782 -2.1150 -0.2732  2.2021
   38MOL0     H 5210  12.817   5.194   9.919  2.1340 -0.2151  0.8170
   38MOL0     H 5211  12.794   5.094   9.779 -0.9820  0.5693 -0.7515
   38MOL0     H 5212  13.043   5.103   9.749  0.6109  1.9365 -0.6034
   38MOL0     H 5213  12.992   5.082   9.922 -1.1204 -0.9281 -0.0200
   38MOL0     H 5214  13.012   5.340   9.935 -1.8713 -0.9809 -2.0903
   38MOL0     H 5215  13.107   5.331   9.784  0.8713 -0.4524  0.3521
   38MOL0     H 5216  13.200   5.184  10.025 -1.1846  2.3619  2.0891
   38MOL0     H 5217  13.272   5.205   9.862  0.1854  0.7457 -0.7346
   38MOL0     H 5218  13.237   5.415  10.070  2.1924  3.3175  0.3125
   38MOL0     H 5219  13.291   5.466   9.910  2.9872 -1.7176 -1.9283
   38MOL0     H 5220  13.496   5.351   9.910 -0.0628 -0.9441 -1.2002
   38MOL0     H 5221  13.464   5.258  10.055  1.7912  1.0191 -1.0956
   38MOL0     H 5222  13.610   5.463  10.113  0.4957  2.7387  0.3966
   38MOL0     H 5223  13.451   5.467  10.193 -2.6671  2.2632 -0.9937
   38MOL0     H 5224  12.672   5.375   9.950  2.2224  3.7322 -2.4948
   38MOL0     H 5225  12.470   5.441  10.067  0.7682 -2.0113  0.5101
   38MOL0     H 5226  12.099   5.613  10.269  0.5358  0.8878  0.7724
   38MOL0     H 5227  11.882   5.724  10.321 -2.2955  1.1146 -1.9255
   38MOL0     H 5228  11.344   4.827  10.437  0.7222  5.0452  0.5789
   38MOL0     H 5229  11.187   4.768  10.634  0.0265 -2.0463 -0.2016
   38MOL0     H 5230  10.703   4.786  10.741  1.1953 -0.7190 -0.7661
   38MOL0     H 5231  10.558   4.724  10.931  0.9659  2.0312 -0.7132
   38MOL0     H 5232  10.424   4.631  11.100  1.4225  0.5417 -0.0666
   38MOL0     H 5233  10.397   4.474  11.035  0.0019  1.0341 -0.1772
   38MOL0     H 5234  10.479   4.380  11.265  0.8845  0.4790  3.2704
   38MOL0     H 5235  10.316   4.450  11.243  0.2898 -1.8351 -1.3962
   38MOL0     H 5236  10.558   4.577  11.378 -0.5796 -1.9825  2.8202
   38MOL0     H 5237  10.412   4.671  11.332  1.2227  0.5895 -0.9053
   38MOL0     H 5238  10.414   4.613  11.555  1.6856  0.2855 -2.0530
   38MOL0     H 5239  10.452   4.442  11.517  0.9077  0.6578 -0.5310
   38MOL0     H 5240  10.040   4.410  11.456  1.1870 -5.3450 -0.2315
   38MOL0     H 5241  10.776   4.366  10.998  1.9675 -1.3355 -2.6685
   38MOL0     H 5242  10.914   4.330  10.726 -1.6158  1.6405 -0.0893
   38MOL0     H 5243  11.058   4.420  10.796  1.1930 -2.8592  1.7844
   38MOL0     H 5244  10.982   4.310  10.895  2.9576  0.0422 -0.1869
   39MOL0     O 5245   4.851  11.066   3.099 -0.4773 -0.8637  0.1618
   39MOL0     C 5246   4.795  11.113   3.199  0.7328  0.2830 -0.2279
   39MOL0     O 5247   4.853  11.184   3.297 -0.8492  0.3620 -0.6969
   39MOL0     C 5248   4.954  11.268   3.263 -0.9107  0.3504 -0.0040
   39MOL0     C 5249   4.919  11.403   3.240  1.0576  0.3875  0.4981
   39MOL0     C 5250   5.014  11.499   3.227 -0.1709 -0.7193  0.2881
   39MOL0     C 5251   5.152  11.465   3.233  0.2383 -0.4935 -0.1290
   39MOL0     O 5252   5.258  11.555   3.242  0.4266  0.3993  0.0061
   39MOL0     C 5253   5.227  11.693   3.214  0.4624 -0.0029  0.8463
   39MOL0     C 5254   5.353  11.776   3.212 -0.2784 -0.3376 -0.0618
   39MOL0     C 5255   5.341  11.906   3.131  0.2426  0.3902 -0.3755
   39MOL0     C 5256   5.213  11.970   3.189 -0.4983 -0.5741  0.0835
   39MOL0     C 5257   5.202  12.122   3.134 -0.0417  1.0159 -0.5535
   39MOL0     C 5258   5.198  12.131   2.980 -0.5005 -0.3787  0.4944
   39MOL0     C 5259   5.155  12.267   2.924  1.0862 -0.4216  0.9010
   39MOL0     C 5260   5.252  12.386   2.936 -0.4411  0.4019  0.0573
   39MOL0     N 5261   5.202  12.492   2.851  0.3895  0.3391 -0.3466
   39MOL0     C 5262   5.234  12.514   2.723 -0.4999  0.2821 -0.4418
   39MOL0     C 5263   5.178  12.638   2.701  0.3611  0.4200 -0.5467
   39MOL0     C 5264   5.197  12.721   2.576  0.0413  0.4890  0.7953
   39MOL0     C 5265   5.225  12.863   2.606 -0.2045 -1.1829  0.5626
   39MOL0     C 5266   5.256  12.958   2.490  0.4982 -0.6585 -0.0873
   39MOL0     C 5267   5.227  13.103   2.514  0.6065 -0.1716  0.1652
   39MOL0     O 5268   5.290  13.173   2.403  0.8746  0.5662  0.5426
   39MOL0     C 5269   5.304  13.311   2.414  0.3591  0.1386 -1.2508
   39MOL0     C 5270   5.234  13.390   2.515  0.3287  0.1264  0.2099
   39MOL0     C 5271   5.261  13.523   2.527 -0.6529 -0.0633 -0.9548
   39MOL0     C 5272   5.192  13.582   2.641 -0.6389  0.0241  0.1945
   39MOL0     C 5273   5.349  13.587   2.443  0.6187  0.1058  0.5992
   39MOL0     C 5274   5.373  13.735   2.441  0.2103 -0.4333  0.5560
   39MOL0     O 5275   5.441  13.786   2.550  0.9747  0.5532  0.3387
   39MOL0     C 5276   5.486  13.917   2.561 -0.3395  0.6225  0.7071
   39MOL0     C 5277   5.611  13.931   2.617  0.0576  0.0725  1.2383
   39MOL0     C 5278   5.673  14.053   2.626  0.0591  0.6930 -0.3006
   39MOL0     C 5279   5.612  14.169   2.574 -0.6252 -0.1384 -0.5760
   39MOL0     O 5280   5.660  14.299   2.579 -0.6455 -0.7063  0.2021
   39MOL0     C 5281   5.798  14.303   2.554 -0.5513 -0.7297 -0.5202
   39MOL0     C 5282   5.820  14.424   2.459  0.6425 -0.2520  1.3325
   39MOL0     C 5283   5.960  14.480   2.476 -0.2662 -0.0104 -0.1292
   39MOL0     C 5284   5.990  14.608   2.389  0.6803 -0.0672 -0.2013
   39MOL0     C 5285   6.015  14.567   2.240  0.6351 -0.0263 -0.2355
   39MOL0     C 5286   6.155  14.513   2.223  0.7550  1.1912 -0.1388
   39MOL0     C 5287   6.184  14.498   2.075 -0.6101  0.3880  0.3142
   39MOL0     C 5288   6.264  14.364   2.051  0.2910 -0.4386 -0.2287
   39MOL0    Cl 5289   6.174  14.223   2.078 -0.1270  0.2602 -0.1067
   39MOL0     C 5290   5.497  14.157   2.508  0.1853 -0.0202 -0.3077
   39MOL0     C 5291   5.432  14.033   2.496 -0.7928  0.1414  0.5854
   39MOL0     O 5292   5.352  13.797   2.342 -0.0563 -0.7738  0.3920
   39MOL0     C 5293   5.399  13.513   2.338 -0.2021 -0.8721  0.3492
   39MOL0     C 5294   5.380  13.374   2.320 -0.5885 -0.5316  0.2500
   39MOL0     N 5295   5.098  12.680   2.808 -0.5756  0.0591  0.9992
   39MOL0     N 5296   5.117  12.587   2.894 -0.3795  0.2254 -0.1796
   39MOL0     C 5297   5.192  11.331   3.240 -0.4063  0.1432  0.6196
   39MOL0     C 5298   5.093  11.238   3.274  0.4094 -0.0844  0.4691
   39MOL0     C 5299   4.643  11.102   3.192  0.0543  0.2913  0.0917
   39MOL0     C 5300   4.574  11.164   3.299 -0.2348 -0.8762 -0.3052
   39MOL0     C 5301   4.440  11.171   3.302  0.2339 -0.8399  0.1542
   39MOL0     C 5302   4.361  11.118   3.205  0.5757  0.9592 -0.3307
   39MOL0     O 5303   4.219  11.126   3.203 -0.3571  0.3520 -0.6701
   39MOL0     C 5304   4.150  11.099   3.330  0.7745 -0.0854 -0.1262
   39MOL0     C 5305   3.998  11.071   3.297 -0.2071  0.1584  0.0650
   39MOL0     C 5306   3.918  11.031   3.417 -0.1599 -0.0342  0.0632
   39MOL0     C 5307   3.819  11.137   3.471 -0.3137 -1.0053 -0.3109
   39MOL0     C 5308   3.729  11.079   3.570  0.2112 -0.6159 -0.4858
   39MOL0     C 5309   3.654  11.051   3.647 -0.0794  0.3045 -0.6471
   39MOL0     C 5310   4.423  11.045   3.100 -0.0257  0.0244 -0.0788
   39MOL0     C 5311   4.562  11.031   3.092  0.5138 -0.3879 -0.1382
   39MOL0     C 5312   4.609  10.935   2.986  0.2862 -0.3454 -0.3793
   39MOL0     H 5313   4.811  11.416   3.240  0.8223 -0.6689 -2.5089
   39MOL0     H 5314   4.979  11.602   3.228 -0.2508 -0.7012  2.8068
   39MOL0     H 5315   5.146  11.727   3.279 -1.1598  0.6103 -1.3621
   39MOL0     H 5316   5.172  11.702   3.119  0.7136  1.3550  0.8091
   39MOL0     H 5317   5.395  11.791   3.312 -0.0573  2.5753 -0.5235
   39MOL0     H 5318   5.429  11.710   3.169 -1.1512 -2.8998  2.0252
   39MOL0     H 5319   5.429  11.972   3.130  1.4990 -1.2156 -0.7449
   39MOL0     H 5320   5.334  11.882   3.025  2.8472  0.5946 -0.6641
   39MOL0     H 5321   5.122  11.918   3.158 -0.0514  0.4685 -3.4116
   39MOL0     H 5322   5.209  11.985   3.298 -2.8452  3.0905 -0.3437
   39MOL0     H 5323   5.293  12.168   3.175 -0.4031 -1.3894  3.5220
   39MOL0     H 5324   5.112  12.164   3.179 -1.9108 -3.6013  0.5177
   39MOL0     H 5325   5.293  12.112   2.929 -0.5949  1.3965 -0.3951
   39MOL0     H 5326   5.127  12.061   2.936  1.6878 -0.0768 -4.1114
   39MOL0     H 5327   5.067  12.307   2.976  0.3814 -0.3997 -0.2733
   39MOL0     H 5328   5.147  12.246   2.817  0.7217 -0.9746  1.0311
   39MOL0     H 5329   5.250  12.425   3.038  0.7469 -2.7888  1.4241
   39MOL0     H 5330   5.354  12.353   2.914  0.8906  1.2312  4.0880
   39MOL0     H 5331   5.285  12.449   2.652 -5.5688 -4.5329 -0.3627
   39MOL0     H 5332   5.108  12.707   2.514  1.1210 -1.9716 -0.3547
   39MOL0     H 5333   5.278  12.679   2.516 -1.4539 -0.7393 -0.4527
   39MOL0     H 5334   5.141  12.903   2.664 -2.2875 -1.0478 -2.3450
   39MOL0     H 5335   5.307  12.869   2.678  0.7706 -0.1254 -0.5984
   39MOL0     H 5336   5.362  12.948   2.466  0.3032  0.6084 -1.5988
   39MOL0     H 5337   5.198  12.932   2.401 -0.8440  3.2454 -0.5465
   39MOL0     H 5338   5.121  13.119   2.534  1.1835  4.7714  0.3594
   39MOL0     H 5339   5.282  13.150   2.596 -3.3401  1.1165  2.3234
   39MOL0     H 5340   5.158  13.345   2.578  0.4646 -0.7959 -0.2655
   39MOL0     H 5341   5.082  13.584   2.642 -0.6355  1.2798  1.1610
   39MOL0     H 5342   5.205  13.691   2.642 -0.9130  0.1264 -2.2034
   39MOL0     H 5343   5.226  13.543   2.738 -0.3074  0.5836  0.3106
   39MOL0     H 5344   5.673  13.846   2.647  2.7710  1.4336 -0.0913
   39MOL0     H 5345   5.774  14.058   2.664  0.6551 -3.1568 -0.9078
   39MOL0     H 5346   5.854  14.315   2.648 -0.5467 -4.8744  0.1867
   39MOL0     H 5347   5.828  14.219   2.492 -1.7679  0.3882 -2.7628
   39MOL0     H 5348   5.808  14.400   2.353 -2.2164  0.1416  1.4826
   39MOL0     H 5349   5.740  14.495   2.482 -1.5629 -2.0886 -0.1520
   39MOL0     H 5350   6.029  14.397   2.461  0.8659  1.0165 -0.7663
   39MOL0     H 5351   5.961  14.507   2.582  0.5062  1.4752 -0.4960
   39MOL0     H 5352   6.074  14.662   2.435  2.4099 -2.1821 -0.7313
   39MOL0     H 5353   5.904  14.676   2.381  0.1610 -0.7808 -0.9343
   39MOL0     H 5354   5.942  14.500   2.195  1.2831 -0.9308  0.0296
   39MOL0     H 5355   6.004  14.664   2.191 -1.7036  0.6728  1.4718
   39MOL0     H 5356   6.159  14.420   2.280  0.6790  1.7450  0.7894
   39MOL0     H 5357   6.227  14.576   2.276  1.5293 -0.5818  0.9793
   39MOL0     H 5358   6.257  14.574   2.047  1.2660 -1.9029 -1.3739
   39MOL0     H 5359   6.097  14.518   2.011  0.3593  3.0337 -0.3317
   39MOL0     H 5360   6.352  14.379   2.115  1.0524  0.3062 -1.4060
   39MOL0     H 5361   6.309  14.357   1.952  3.7322  0.0928  1.1395
   39MOL0     H 5362   5.437  14.242   2.477 -3.3683 -1.8634  0.9303
   39MOL0     H 5363   5.336  14.025   2.447 -0.5946 -1.1461  0.3656
   39MOL0     H 5364   5.467  13.554   2.265  1.7177  1.7411  3.3668
   39MOL0     H 5365   5.418  13.318   2.235 -2.7864  2.7199 -3.1788
   39MOL0     H 5366   5.299  11.317   3.256 -0.0680  0.8886 -0.8229
   39MOL0     H 5367   5.128  11.140   3.307  1.9501 -0.3268 -1.6979
   39MOL0     H 5368   4.636  11.213   3.374 -0.2824  1.2368 -1.5432
   39MOL0     H 5369   4.392  11.230   3.380 -0.0698  1.3009 -1.5665
   39MOL0     H 5370   4.180  11.001   3.367 -0.2618 -0.9892 -1.5430
   39MOL0     H 5371   4.146  11.180   3.404 -2.0121 -0.8234  0.6478
   39MOL0     H 5372   3.999  10.997   3.217  0.1120  1.5755 -1.3047
   39MOL0     H 5373   3.959  11.159   3.243 -1.9990  0.5668  1.9125
   39MOL0     H 5374   3.860  10.943   3.388  0.6491  0.3031 -2.9275
   39MOL0     H 5375   3.988  11.021   3.501 -0.6143  2.9793  0.9131
   39MOL0     H 5376   3.759  11.160   3.382  2.6798 -1.7939 -2.6909
   39MOL0     H 5377   3.861  11.235   3.497 -2.2456 -0.0490 -0.5758
   39MOL0     H 5378   3.588  11.027   3.729 -0.2827  0.1175 -0.8654
   39MOL0     H 5379   4.381  11.001   3.011  0.6554 -1.4918  0.3118
   39MOL0     H 5380   4.623  11.000   2.899 -3.4313 -1.0121 -1.6428
   39MOL0     H 5381   4.695  10.882   3.028  0.7920  1.1795  0.5730
   39MOL0     H 5382   4.535  10.863   2.949  1.3453 -0.3607 -2.6934
   40MOL0     O 5383   8.896   3.299   6.124 -0.2508  0.2054 -0.1273
   40MOL0     C 5384   8.809   3.243   6.189 -0.3047 -0.3309 -0.5552
   40MOL0     O 5385   8.687   3.209   6.138  0.3459 -0.4863 -0.0178
   40MOL0     C 5386   8.590   3.300   6.098  0.3265  0.3220 -0.6163
   40MOL0     C 5387   8.484   3.235   6.032 -0.0103 -0.1760 -0.7478
   40MOL0     C 5388   8.395   3.305   5.950  1.2495  0.2031 -0.3959
   40MOL0     C 5389   8.401   3.442   5.953 -0.1271  0.5312  1.4325
   40MOL0     O 5390   8.299   3.509   5.881 -0.0782  0.1542 -0.3289
   40MOL0     C 5391   8.272   3.451   5.752 -0.2629 -0.8864  0.2223
   40MOL0     C 5392   8.187   3.544   5.658  0.8271  0.4885  0.1829
   40MOL0     C 5393   8.072   3.606   5.736  0.1539  0.5380  0.6750
   40MOL0     C 5394   7.980   3.492   5.800  0.1768 -0.4056 -0.6566
   40MOL0     C 5395   7.870   3.548   5.890 -0.9276 -0.0091  0.8213
   40MOL0     C 5396   7.767   3.631   5.814  0.0734 -0.6182  0.6855
   40MOL0     C 5397   7.629   3.645   5.898 -0.7803  0.8470 -0.0576
   40MOL0     C 5398   7.526   3.737   5.832  0.0969 -0.2703 -0.3239
   40MOL0     N 5399   7.566   3.878   5.841  0.0517 -0.5575 -0.3302
   40MOL0     C 5400   7.514   3.975   5.919 -0.6703 -0.0120 -0.6435
   40MOL0     C 5401   7.561   4.093   5.870 -0.2087  1.3209  0.0039
   40MOL0     C 5402   7.516   4.228   5.917 -0.5179  0.4275 -0.1096
   40MOL0     C 5403   7.648   4.303   5.950  0.0186 -1.0210 -0.5032
   40MOL0     C 5404   7.626   4.438   6.021  0.3723 -0.8557 -0.0373
   40MOL0     C 5405   7.758   4.512   6.060 -0.1848 -0.8437  0.0672
   40MOL0     O 5406   7.854   4.419   6.111  0.1416 -0.4020 -0.3298
   40MOL0     C 5407   7.880   4.414   6.250 -0.4859  0.2052  0.4689
   40MOL0     C 5408   7.795   4.463   6.352  0.8682 -0.2229  0.6932
   40MOL0     C 5409   7.797   4.419   6.484  0.2873  0.4066  0.9694
   40MOL0     C 5410   7.695   4.470   6.571  1.0661 -1.1655 -0.6558
   40MOL0     C 5411   7.886   4.316   6.524  0.5952 -0.1134  0.3448
   40MOL0     C 5412   7.879   4.247   6.657  0.2149 -0.5762 -1.1997
   40MOL0     O 5413   7.901   4.110   6.658  0.3615  0.3217 -0.0756
   40MOL0     C 5414   7.859   4.035   6.767  0.2171  0.5563  0.1990
   40MOL0     C 5415   7.918   4.045   6.896  0.4184  0.2227  0.0491
   40MOL0     C 5416   7.881   3.956   6.998  0.0190  0.1648 -0.6411
   40MOL0     C 5417   7.796   3.850   6.983 -0.5509 -0.3699  0.3310
   40MOL0     O 5418   7.773   3.761   7.089  1.0984 -0.5845  0.0889
   40MOL0     C 5419   7.698   3.641   7.056 -0.2927 -0.4020 -0.6446
   40MOL0     C 5420   7.647   3.579   7.188 -0.1686 -0.7986  0.9490
   40MOL0     C 5421   7.499   3.541   7.167 -0.4899  0.0136  0.5752
   40MOL0     C 5422   7.443   3.470   7.283  0.5823 -0.0644  0.0594
   40MOL0     C 5423   7.298   3.418   7.259  0.2739  0.6178  0.7194
   40MOL0     C 5424   7.281   3.330   7.136 -0.8444 -0.2889 -0.1280
   40MOL0     C 5425   7.137   3.274   7.132 -0.4293  0.4203 -0.4597
   40MOL0     C 5426   7.035   3.381   7.091  0.7044  1.0840 -0.3629
   40MOL0    Cl 5427   6.993   3.517   7.207  0.3274 -0.3009  0.3634
   40MOL0     C 5428   7.740   3.846   6.859  0.0925  0.2631  0.3206
   40MOL0     C 5429   7.765   3.936   6.749  0.5252  0.4495  0.0113
   40MOL0     O 5430   7.842   4.304   6.759  0.0197  0.3834  0.6454
   40MOL0     C 5431   7.971   4.265   6.425  0.1466 -0.6183  0.9628
   40MOL0     C 5432   7.975   4.319   6.293 -0.3139  0.7181 -0.2472
   40MOL0     N 5433   7.646   4.060   5.762 -0.2253  0.3111 -0.6232
   40MOL0     N 5434   7.646   3.929   5.746 -0.0696  0.3930  0.2865
   40MOL0     C 5435   8.490   3.509   6.040 -0.2790  0.1022 -0.5594
   40MOL0     C 5436   8.588   3.449   6.113 -0.2817  0.8375  0.0910
   40MOL0     C 5437   8.836   3.206   6.341 -0.3029 -0.0315 -0.2994
   40MOL0     C 5438   8.725   3.167   6.413 -0.0771 -0.3607  0.3215
   40MOL0     C 5439   8.733   3.115   6.548  0.3806 -0.4828 -0.7497
   40MOL0     C 5440   8.856   3.111   6.614  0.8652  0.4229  0.1522
   40MOL0     O 5441   8.858   3.056   6.749 -1.1160 -0.6691 -0.1114
   40MOL0     C 5442   8.956   3.140   6.834 -0.0121  0.0317 -0.0133
   40MOL0     C 5443   8.906   3.170   6.978 -1.4302 -0.1305 -0.2542
   40MOL0     C 5444   8.758   3.182   6.982 -0.0422 -0.1905 -0.2943
   40MOL0     C 5445   8.697   3.201   7.125  0.4475 -0.6542  0.2554
   40MOL0     C 5446   8.550   3.219   7.119  0.7720  0.3439  0.2680
   40MOL0     C 5447   8.432   3.234   7.116 -0.4063  0.0268  1.2019
   40MOL0     C 5448   8.968   3.158   6.543  0.4475  0.9661 -0.5007
   40MOL0     C 5449   8.957   3.217   6.416 -0.9935 -0.4104  0.2991
   40MOL0     C 5450   9.077   3.285   6.358  0.4917  0.5497 -0.3719
   40MOL0     H 5451   8.468   3.129   6.053 -1.5358  0.3070  0.8283
   40MOL0     H 5452   8.313   3.246   5.911  0.5424  0.6699  0.3498
   40MOL0     H 5453   8.209   3.361   5.752  1.3014 -2.0419 -1.1345
   40MOL0     H 5454   8.368   3.437   5.703 -0.6277  1.4380 -1.2916
   40MOL0     H 5455   8.242   3.631   5.623 -2.3203  1.9386 -1.5755
   40MOL0     H 5456   8.156   3.491   5.567 -0.7753  1.6025  0.0459
   40MOL0     H 5457   8.119   3.657   5.820  2.9673  0.0150 -0.4731
   40MOL0     H 5458   8.013   3.678   5.679  1.4901  0.9351 -0.2642
   40MOL0     H 5459   7.944   3.428   5.719  0.5438 -3.4522  1.4243
   40MOL0     H 5460   8.040   3.423   5.860 -0.0332 -2.7232 -2.9777
   40MOL0     H 5461   7.915   3.604   5.973  2.5256 -1.6026  0.2001
   40MOL0     H 5462   7.816   3.461   5.928 -3.7798  2.0284  1.7452
   40MOL0     H 5463   7.817   3.727   5.795 -1.3375  0.2712  1.3368
   40MOL0     H 5464   7.743   3.585   5.717 -2.9031  1.1397  0.4957
   40MOL0     H 5465   7.646   3.680   6.000  0.6502 -0.2907  0.1276
   40MOL0     H 5466   7.592   3.545   5.923  1.6508 -0.3267 -0.9071
   40MOL0     H 5467   7.526   3.710   5.726  3.9704  0.5167 -0.6688
   40MOL0     H 5468   7.428   3.714   5.875  0.3156  0.5718  0.6425
   40MOL0     H 5469   7.453   3.949   6.006  1.1442  1.0217  1.0215
   40MOL0     H 5470   7.457   4.210   6.007 -1.1212  0.1550 -0.5511
   40MOL0     H 5471   7.458   4.272   5.835  1.2844  1.0138 -1.1362
   40MOL0     H 5472   7.714   4.241   6.011  0.4835  0.3194  0.4194
   40MOL0     H 5473   7.698   4.328   5.856 -0.9640 -2.7341 -1.5421
   40MOL0     H 5474   7.561   4.507   5.966  1.8194  0.2817 -0.3994
   40MOL0     H 5475   7.584   4.419   6.120  0.5049 -2.0253 -0.1958
   40MOL0     H 5476   7.808   4.556   5.974  0.9035 -0.4292  0.8963
   40MOL0     H 5477   7.738   4.588   6.136  2.8419 -2.1318  2.3644
   40MOL0     H 5478   7.705   4.522   6.332  0.7236 -0.3974  0.8273
   40MOL0     H 5479   7.729   4.486   6.674  1.4688  1.2763 -1.1128
   40MOL0     H 5480   7.610   4.401   6.565 -0.8547  0.8093  1.7748
   40MOL0     H 5481   7.655   4.562   6.527  0.1573 -1.2241  0.0268
   40MOL0     H 5482   7.999   4.117   6.907 -0.6736  1.6195 -0.6370
   40MOL0     H 5483   7.922   3.971   7.098  0.3607 -1.3307 -0.5245
   40MOL0     H 5484   7.607   3.669   7.001 -0.8205 -2.6320 -1.0003
   40MOL0     H 5485   7.759   3.577   6.992 -0.2353 -1.1519  0.1534
   40MOL0     H 5486   7.715   3.501   7.223  0.6045  0.4316  2.2788
   40MOL0     H 5487   7.643   3.661   7.260 -2.0088 -0.5695  0.6422
   40MOL0     H 5488   7.512   3.465   7.089 -1.0824 -2.8103  3.0441
   40MOL0     H 5489   7.436   3.629   7.154 -0.4482  0.1801  1.4357
   40MOL0     H 5490   7.439   3.545   7.363  1.4797  2.3773 -2.0763
   40MOL0     H 5491   7.509   3.390   7.317  1.1935  1.0701  1.6449
   40MOL0     H 5492   7.258   3.376   7.353  1.7909 -0.3293  0.9819
   40MOL0     H 5493   7.245   3.508   7.228 -0.9992 -0.5764 -0.7318
   40MOL0     H 5494   7.361   3.255   7.134 -1.3877 -0.8861 -0.0773
   40MOL0     H 5495   7.301   3.387   7.045  3.7358 -2.6452 -0.8854
   40MOL0     H 5496   7.117   3.242   7.235 -0.4012  0.3434 -0.4785
   40MOL0     H 5497   7.130   3.188   7.064 -0.7667  0.2030 -0.1569
   40MOL0     H 5498   6.946   3.320   7.074  1.1879 -0.4667  2.1630
   40MOL0     H 5499   7.068   3.413   6.992  0.3819 -1.1756 -1.2617
   40MOL0     H 5500   7.671   3.766   6.836 -2.2466  1.6436  2.0243
   40MOL0     H 5501   7.715   3.927   6.653 -0.4579  1.1821  0.4271
   40MOL0     H 5502   8.050   4.195   6.446  2.6613  1.8291  0.2118
   40MOL0     H 5503   8.032   4.262   6.220 -0.1347 -1.0995  1.2364
   40MOL0     H 5504   8.477   3.616   6.039  2.4647  0.5327  0.3153
   40MOL0     H 5505   8.666   3.497   6.171  0.0391  0.7833 -0.2872
   40MOL0     H 5506   8.633   3.160   6.357  2.0714 -2.2279 -3.4489
   40MOL0     H 5507   8.652   3.057   6.591  0.3038 -0.2352 -0.5632
   40MOL0     H 5508   9.055   3.095   6.827 -0.2646 -0.7901  1.3460
   40MOL0     H 5509   8.968   3.238   6.787 -0.5822 -0.4350 -1.1748
   40MOL0     H 5510   8.964   3.257   7.012  0.7703 -1.3043 -0.7659
   40MOL0     H 5511   8.936   3.084   7.038 -2.4789 -2.0544 -2.3466
   40MOL0     H 5512   8.731   3.260   6.911  0.3040 -0.0305 -0.2526
   40MOL0     H 5513   8.709   3.092   6.943  0.1383  0.6442 -2.6094
   40MOL0     H 5514   8.735   3.292   7.174  0.0268 -0.1767 -0.2907
   40MOL0     H 5515   8.729   3.124   7.196  0.0995 -0.6856  0.3797
   40MOL0     H 5516   8.325   3.241   7.119 -0.5054  2.1153 -1.9462
   40MOL0     H 5517   9.064   3.164   6.593 -0.5417  0.1602  1.6553
   40MOL0     H 5518   9.137   3.319   6.443 -1.9013  2.5598  0.6377
   40MOL0     H 5519   9.131   3.215   6.294  1.9013  0.5796  0.7428
   40MOL0     H 5520   9.057   3.382   6.311  3.1670  0.7180 -1.3603
   41MOL0     O 5521   8.341   7.549  11.513  0.0685 -0.1089 -0.0654
   41MOL0     C 5522   8.272   7.453  11.531  0.4676  0.1950 -0.2554
   41MOL0     O 5523   8.130   7.454  11.536 -0.0580 -0.6537  0.3115
   41MOL0     C 5524   8.054   7.572  11.547  0.5046 -1.7696  0.2937
   41MOL0     C 5525   8.101   7.694  11.599 -0.0730 -0.5273 -0.3603
   41MOL0     C 5526   8.025   7.808  11.601 -0.6131  0.1327  0.4491
   41MOL0     C 5527   7.883   7.805  11.577  0.2549  0.8283  0.8880
   41MOL0     O 5528   7.799   7.906  11.605 -0.1054 -0.7955  0.0525
   41MOL0     C 5529   7.804   7.979  11.735 -0.1858 -0.2406 -0.0663
   41MOL0     C 5530   7.666   8.042  11.767 -0.4759  0.4636 -0.2061
   41MOL0     C 5531   7.670   8.177  11.836 -0.0455 -0.4835 -0.5228
   41MOL0     C 5532   7.529   8.241  11.855  1.0037  0.3694  0.5996
   41MOL0     C 5533   7.539   8.388  11.902 -0.3514 -0.3136  1.2337
   41MOL0     C 5534   7.632   8.415  12.019 -0.4150 -0.4528  0.9127
   41MOL0     C 5535   7.617   8.550  12.066 -0.3485  0.2744  0.0219
   41MOL0     C 5536   7.710   8.592  12.183 -1.5162 -0.2241 -0.4707
   41MOL0     N 5537   7.851   8.565  12.157 -0.0476  0.8928 -1.1270
   41MOL0     C 5538   7.937   8.491  12.244  0.2172 -0.6871  0.4198
   41MOL0     C 5539   8.063   8.531  12.207 -0.0185 -0.5912  0.6368
   41MOL0     C 5540   8.186   8.500  12.276 -0.6193  0.0729 -0.5982
   41MOL0     C 5541   8.187   8.569  12.417 -0.5152 -0.5025  0.0183
   41MOL0     C 5542   8.328   8.605  12.460  0.4645 -0.7136 -0.3321
   41MOL0     C 5543   8.347   8.722  12.553 -0.0721  0.1452  0.3288
   41MOL0     O 5544   8.291   8.687  12.680  0.4936  0.3963  0.0319
   41MOL0     C 5545   8.352   8.713  12.801  0.2212 -0.2124 -1.4705
   41MOL0     C 5546   8.440   8.817  12.818  0.2841  0.1177 -0.3479
   41MOL0     C 5547   8.521   8.835  12.933  1.0333  0.3894 -0.3893
   41MOL0     C 5548   8.614   8.959  12.934  0.2613  0.1794  0.0092
   41MOL0     C 5549   8.508   8.744  13.043  0.2344 -0.4720  0.0390
   41MOL0     C 5550   8.588   8.745  13.164 -0.1046  0.4960  0.2746
   41MOL0     O 5551   8.711   8.795  13.158  0.8456 -0.6272 -0.2919
   41MOL0     C 5552   8.770   8.800  13.285  0.1005  0.2400 -0.3336
   41MOL0     C 5553   8.848   8.698  13.340  0.1601 -0.2357  0.4880
   41MOL0     C 5554   8.918   8.708  13.455 -1.0155  0.6209  0.8381
   41MOL0     C 5555   8.890   8.812  13.539 -0.1980  0.8603 -0.0189
   41MOL0     O 5556   8.946   8.787  13.662  0.2601 -0.1324 -0.5863
   41MOL0     C 5557   8.849   8.762  13.767 -0.4887 -0.7937 -1.1377
   41MOL0     C 5558   8.926   8.736  13.905  1.1221 -0.1663  0.6923
   41MOL0     C 5559   8.988   8.862  13.967  0.2650 -0.0825 -0.2941
   41MOL0     C 5560   9.120   8.830  14.026 -0.4190 -0.5066  0.2889
   41MOL0     C 5561   9.175   8.949  14.090 -0.6297  1.1847 -0.5695
   41MOL0     C 5562   9.111   8.997  14.226  0.2850  0.1882 -0.0756
   41MOL0     C 5563   9.064   8.884  14.320  0.1416  0.1357 -0.0693
   41MOL0     C 5564   8.991   8.933  14.453  0.7419 -0.0207 -0.4313
   41MOL0    Cl 5565   8.912   8.788  14.530  0.3219 -0.0499  0.3896
   41MOL0     C 5566   8.796   8.907  13.507 -0.3693 -0.5887 -0.2098
   41MOL0     C 5567   8.743   8.913  13.377  0.1167  0.1569 -0.3186
   41MOL0     O 5568   8.528   8.704  13.271 -0.7828  0.4311 -0.2675
   41MOL0     C 5569   8.402   8.646  13.033 -0.3316  0.0936  0.9416
   41MOL0     C 5570   8.328   8.629  12.910 -0.4752 -0.0739 -0.7671
   41MOL0     N 5571   8.051   8.613  12.096 -0.3316 -0.1008  0.5784
   41MOL0     N 5572   7.924   8.639  12.074  0.5820  0.3530  0.2816
   41MOL0     C 5573   7.833   7.685  11.526 -0.7710 -0.1151 -0.0697
   41MOL0     C 5574   7.917   7.573  11.508  0.7872  0.4456 -0.3034
   41MOL0     C 5575   8.341   7.325  11.554  0.3369  0.4608 -0.4653
   41MOL0     C 5576   8.483   7.320  11.527  0.3372  0.0471  0.3966
   41MOL0     C 5577   8.554   7.211  11.565 -0.4969 -0.1538  0.1845
   41MOL0     C 5578   8.498   7.101  11.620 -0.1597 -0.1474 -0.8066
   41MOL0     O 5579   8.583   6.995  11.657 -0.0751 -0.8868 -0.0589
   41MOL0     C 5580   8.519   6.876  11.693 -0.2529  0.3398  0.5954
   41MOL0     C 5581   8.470   6.786  11.577  0.2815  0.2845  0.5244
   41MOL0     C 5582   8.410   6.647  11.628  0.2028  0.1737 -0.7610
   41MOL0     C 5583   8.506   6.557  11.711  1.2910 -0.5696 -1.0409
   41MOL0     C 5584   8.589   6.488  11.615 -0.4346  0.1657  0.4398
   41MOL0     C 5585   8.659   6.412  11.556  0.0118 -0.0563  0.0366
   41MOL0     C 5586   8.355   7.097  11.639 -0.0796  0.1710 -0.0673
   41MOL0     C 5587   8.275   7.206  11.605 -0.0013  0.0953 -0.7722
   41MOL0     C 5588   8.129   7.195  11.623  0.4122 -0.3049 -0.6718
   41MOL0     H 5589   8.205   7.696  11.630  0.5953 -2.2176 -2.2724
   41MOL0     H 5590   8.075   7.898  11.633 -2.6703  1.4167  0.2081
   41MOL0     H 5591   7.877   8.060  11.729  1.5798 -1.8145 -1.0914
   41MOL0     H 5592   7.828   7.912  11.819 -1.3869  1.0759  1.3890
   41MOL0     H 5593   7.626   8.061  11.668  2.3246 -2.4478 -2.1087
   41MOL0     H 5594   7.600   7.967  11.813 -0.3010  0.5443  0.1788
   41MOL0     H 5595   7.716   8.166  11.935 -0.7807 -2.2498 -0.3473
   41MOL0     H 5596   7.734   8.246  11.781  0.0533  0.4279  0.6980
   41MOL0     H 5597   7.466   8.233  11.766  2.3723  1.0881 -0.4911
   41MOL0     H 5598   7.486   8.177  11.932  2.3038 -0.4968  0.6388
   41MOL0     H 5599   7.435   8.417  11.922 -0.7019  1.1421 -2.0848
   41MOL0     H 5600   7.577   8.446  11.817  0.2411 -1.8286  0.4215
   41MOL0     H 5601   7.611   8.351  12.105 -1.9414 -2.3463 -0.7804
   41MOL0     H 5602   7.732   8.404  11.976 -1.0751 -1.0668 -0.4933
   41MOL0     H 5603   7.518   8.571  12.106 -1.0701 -2.9775  0.2770
   41MOL0     H 5604   7.652   8.612  11.983  0.5763  2.1460  1.7343
   41MOL0     H 5605   7.713   8.701  12.187  1.8146 -0.2441  1.4576
   41MOL0     H 5606   7.660   8.557  12.275  3.1050  0.1385  2.4939
   41MOL0     H 5607   7.921   8.421  12.325  0.2388  0.4686  1.4517
   41MOL0     H 5608   8.272   8.526  12.213  0.0228  1.0922  0.6505
   41MOL0     H 5609   8.202   8.392  12.289  3.4233  0.1892 -2.8979
   41MOL0     H 5610   8.121   8.656  12.420  0.5258  0.3340 -0.5163
   41MOL0     H 5611   8.157   8.499  12.495  1.6129  1.2616  2.6250
   41MOL0     H 5612   8.361   8.517  12.515  0.3956  0.0237  0.9218
   41MOL0     H 5613   8.391   8.618  12.371  2.0457  1.8554  1.0175
   41MOL0     H 5614   8.455   8.741  12.554  0.3421 -1.5657 -2.1518
   41MOL0     H 5615   8.292   8.807  12.511 -0.6543 -0.9056 -1.0988
   41MOL0     H 5616   8.467   8.890  12.742  1.1524 -0.3111 -0.4683
   41MOL0     H 5617   8.706   8.959  12.993  0.7036  0.3383 -0.6791
   41MOL0     H 5618   8.574   9.059  12.953  0.3800  0.5443 -1.5482
   41MOL0     H 5619   8.641   8.969  12.829 -3.8980  2.7401 -1.0517
   41MOL0     H 5620   8.865   8.606  13.285  0.4596 -0.1980  0.5170
   41MOL0     H 5621   8.979   8.633  13.504 -0.9209  0.0710 -0.1116
   41MOL0     H 5622   8.779   8.841  13.796 -1.2154 -1.9944  0.5431
   41MOL0     H 5623   8.803   8.664  13.753  1.2513 -1.7514 -0.5035
   41MOL0     H 5624   8.852   8.687  13.968  1.5971 -0.2160  1.2241
   41MOL0     H 5625   9.006   8.668  13.875  0.8930  0.6047 -2.0036
   41MOL0     H 5626   8.917   8.896  14.043 -2.9160 -0.8435 -2.7036
   41MOL0     H 5627   8.995   8.942  13.893 -2.7381 -0.2554 -0.9061
   41MOL0     H 5628   9.174   8.806  13.934 -0.3111  0.1704  0.1712
   41MOL0     H 5629   9.112   8.744  14.094  2.1492  1.3681  3.2473
   41MOL0     H 5630   9.280   8.935  14.114 -0.6943  1.4898 -0.0954
   41MOL0     H 5631   9.170   9.027  14.014  1.5052  3.6284  1.5945
   41MOL0     H 5632   9.011   9.034  14.202  0.3782  1.4451  1.3311
   41MOL0     H 5633   9.185   9.062  14.273  0.5505 -0.2782  0.1629
   41MOL0     H 5634   9.160   8.840  14.348  0.0191 -1.6016 -2.1589
   41MOL0     H 5635   9.006   8.804  14.274  1.7761  0.3798 -2.7654
   41MOL0     H 5636   8.923   9.008  14.411  0.0747 -0.8861 -0.9239
   41MOL0     H 5637   9.063   8.981  14.520 -0.3179  3.4227 -1.5598
   41MOL0     H 5638   8.787   8.981  13.586  2.6166 -1.4497  1.1113
   41MOL0     H 5639   8.656   8.976  13.364 -0.1114 -0.3095 -1.1630
   41MOL0     H 5640   8.379   8.575  13.112  0.8537  1.0153  2.1633
   41MOL0     H 5641   8.247   8.557  12.901 -2.3701  1.8793 -0.2738
   41MOL0     H 5642   7.728   7.672  11.504 -0.5060 -1.6687 -0.4839
   41MOL0     H 5643   7.879   7.481  11.465  0.0303  0.1148  1.0217
   41MOL0     H 5644   8.530   7.408  11.486 -0.1003  0.7953  1.4611
   41MOL0     H 5645   8.656   7.239  11.540 -0.8090  3.0303  1.8775
   41MOL0     H 5646   8.593   6.813  11.744 -1.8184 -2.8226 -0.8088
   41MOL0     H 5647   8.433   6.896  11.756 -2.3049  0.9270 -2.1996
   41MOL0     H 5648   8.545   6.774  11.499  0.1096 -4.1300  0.7739
   41MOL0     H 5649   8.380   6.835  11.539 -1.6281 -3.3524 -0.1616
   41MOL0     H 5650   8.322   6.671  11.689  0.3334  1.5242 -1.0612
   41MOL0     H 5651   8.377   6.578  11.550 -1.7726 -2.7935  2.3816
   41MOL0     H 5652   8.450   6.479  11.764 -2.1206  3.0561  1.1721
   41MOL0     H 5653   8.557   6.618  11.786  1.3193 -0.3178 -1.2654
   41MOL0     H 5654   8.709   6.342  11.494  0.4413 -0.8953  1.2921
   41MOL0     H 5655   8.299   7.010  11.670  0.3284 -0.7337 -1.7145
   41MOL0     H 5656   8.083   7.105  11.667 -0.5715  1.3641  1.9525
   41MOL0     H 5657   8.104   7.269  11.700 -0.7908 -0.4970 -0.8474
   41MOL0     H 5658   8.085   7.218  11.525  2.3194  1.5801 -1.1570
   42MOL0     O 5659  10.864   8.053   7.596 -0.0728  0.6926 -0.6463
   42MOL0     C 5660  10.858   7.954   7.665 -0.3995  0.0419 -0.8092
   42MOL0     O 5661  10.902   7.829   7.629  0.0584  0.4563 -0.3091
   42MOL0     C 5662  10.954   7.813   7.505 -0.5549  0.1918  1.4278
   42MOL0     C 5663  10.912   7.863   7.380 -0.3803 -0.9504  0.2089
   42MOL0     C 5664  10.954   7.821   7.259  0.1215 -0.2446  0.3198
   42MOL0     C 5665  11.069   7.736   7.256  0.6459  0.1402 -0.4322
   42MOL0     O 5666  11.139   7.709   7.139  0.2943 -0.3210  0.4067
   42MOL0     C 5667  11.069   7.624   7.045 -0.7511  0.3086  0.1265
   42MOL0     C 5668  11.095   7.474   7.087 -0.8826  0.7536  0.0922
   42MOL0     C 5669  11.251   7.443   7.088 -0.5320 -0.9536  0.3724
   42MOL0     C 5670  11.274   7.297   7.113  0.9194 -0.0989 -0.2550
   42MOL0     C 5671  11.245   7.249   7.262 -1.0272  0.6493  0.1801
   42MOL0     C 5672  11.319   7.330   7.370 -0.6036 -0.1169 -0.6128
   42MOL0     C 5673  11.287   7.275   7.513  0.5166 -0.3173  0.3665
   42MOL0     C 5674  11.324   7.360   7.624 -0.6949 -0.2663  0.4914
   42MOL0     N 5675  11.475   7.366   7.643  0.1224 -0.0784  0.1311
   42MOL0     C 5676  11.554   7.471   7.607  0.3418  0.0045  0.1233
   42MOL0     C 5677  11.682   7.438   7.654  0.0225  0.4488 -0.1477
   42MOL0     C 5678  11.797   7.542   7.639  0.0503  1.4752  0.6095
   42MOL0     C 5679  11.771   7.688   7.680  0.5312  0.0563  0.2587
   42MOL0     C 5680  11.891   7.781   7.644  0.6664 -0.0861  0.1523
   42MOL0     C 5681  11.861   7.924   7.686  0.2122  1.1704 -0.3534
   42MOL0     O 5682  11.793   7.928   7.812 -0.2356  0.4094  0.2936
   42MOL0     C 5683  11.732   8.044   7.854 -0.1321 -0.0032 -0.4347
   42MOL0     C 5684  11.735   8.169   7.799 -0.7445  0.0530  0.3808
   42MOL0     C 5685  11.682   8.277   7.858 -0.1063 -0.5277 -0.1208
   42MOL0     C 5686  11.691   8.414   7.780 -0.1587  0.5598  0.1335
   42MOL0     C 5687  11.609   8.265   7.984 -0.4785 -1.3206  0.1969
   42MOL0     C 5688  11.543   8.387   8.048 -0.8433  0.2432  0.0642
   42MOL0     O 5689  11.491   8.369   8.175  0.8711  0.2157 -0.2332
   42MOL0     C 5690  11.445   8.478   8.249 -0.2599  0.1259 -0.3001
   42MOL0     C 5691  11.321   8.472   8.310  0.2777  1.4550  0.7786
   42MOL0     C 5692  11.283   8.559   8.409 -0.3950  0.5995 -0.2770
   42MOL0     C 5693  11.365   8.671   8.448  0.5760 -0.0595  0.3850
   42MOL0     O 5694  11.303   8.752   8.540  0.1756  0.9335  0.5893
   42MOL0     C 5695  11.352   8.887   8.522 -0.4239  1.0353 -0.1337
   42MOL0     C 5696  11.256   8.976   8.591  0.5969  0.0850  0.1657
   42MOL0     C 5697  11.299   9.126   8.583  0.6829 -0.4247  0.1505
   42MOL0     C 5698  11.180   9.217   8.633  0.7504  0.6464  0.6412
   42MOL0     C 5699  11.192   9.354   8.584  0.1977 -0.0008  0.1539
   42MOL0     C 5700  11.070   9.437   8.620  1.3055  0.1129  0.0618
   42MOL0     C 5701  11.096   9.584   8.601  0.0730  0.2484  0.1359
   42MOL0     C 5702  11.148   9.645   8.727  0.8874 -0.6712 -0.1353
   42MOL0    Cl 5703  11.009   9.637   8.848 -0.6076  0.2388 -0.2494
   42MOL0     C 5704  11.481   8.688   8.370  0.4208 -0.5988 -1.1440
   42MOL0     C 5705  11.525   8.596   8.272  1.0198 -0.2840 -1.2875
   42MOL0     O 5706  11.544   8.497   7.990 -0.5235  0.6144 -0.4117
   42MOL0     C 5707  11.608   8.140   8.039 -0.4123 -0.1997  0.5909
   42MOL0     C 5708  11.658   8.022   7.972 -0.8752 -0.5770 -0.8842
   42MOL0     N 5709  11.679   7.300   7.698  0.1087 -0.7993 -1.0688
   42MOL0     N 5710  11.559   7.264   7.690  0.0260 -0.0075  0.8495
   42MOL0     C 5711  11.120   7.689   7.371  0.5948  0.0441  0.1606
   42MOL0     C 5712  11.060   7.716   7.495  0.0524  0.8651 -0.1678
   42MOL0     C 5713  10.797   7.950   7.801 -0.6713  0.0382  0.5295
   42MOL0     C 5714  10.831   7.850   7.889  0.1451  0.0336 -0.4411
   42MOL0     C 5715  10.777   7.855   8.017  0.2928  0.9016 -0.6839
   42MOL0     C 5716  10.714   7.964   8.068 -1.5605  0.3059 -0.1016
   42MOL0     O 5717  10.676   7.952   8.197  0.1455  0.8320 -0.2706
   42MOL0     C 5718  10.781   7.963   8.294  0.2269  0.3253  0.0144
   42MOL0     C 5719  10.742   8.055   8.409 -0.3734 -0.1596 -0.4431
   42MOL0     C 5720  10.633   7.977   8.478  0.5325 -0.6819 -0.5997
   42MOL0     C 5721  10.696   7.860   8.564  1.3165 -0.3748  1.3142
   42MOL0     C 5722  10.811   7.889   8.649  0.5592  0.7013  0.7514
   42MOL0     C 5723  10.907   7.912   8.719  0.2590 -0.4207  0.6094
   42MOL0     C 5724  10.685   8.067   7.982 -0.2086  0.3314  0.6462
   42MOL0     C 5725  10.720   8.059   7.851 -0.2532 -0.4357  0.8130
   42MOL0     C 5726  10.657   8.163   7.766  0.5732 -0.0150 -0.4629
   42MOL0     H 5727  10.843   7.947   7.380 -2.7386 -2.7314  2.1197
   42MOL0     H 5728  10.904   7.857   7.169  1.7871 -4.3931 -2.5450
   42MOL0     H 5729  11.109   7.635   6.944  0.9220  2.4303  0.9493
   42MOL0     H 5730  10.964   7.654   7.039 -0.4494  2.5025  3.4294
   42MOL0     H 5731  11.057   7.451   7.186  2.4410 -0.2493  1.2687
   42MOL0     H 5732  11.045   7.406   7.017  0.0150 -3.1201  2.9122
   42MOL0     H 5733  11.292   7.463   6.989  1.1192  0.9724  1.3759
   42MOL0     H 5734  11.297   7.511   7.160 -0.3389  0.7389 -1.2840
   42MOL0     H 5735  11.210   7.237   7.048 -0.8732  2.8173 -1.3860
   42MOL0     H 5736  11.381   7.282   7.098  0.8867  0.2991 -0.9025
   42MOL0     H 5737  11.287   7.148   7.266  0.7227  1.2840 -0.8668
   42MOL0     H 5738  11.139   7.248   7.287 -0.5571  0.3003  2.3366
   42MOL0     H 5739  11.424   7.325   7.339 -0.8158  0.2269 -1.4093
   42MOL0     H 5740  11.286   7.434   7.370  1.6188  0.6637  0.6427
   42MOL0     H 5741  11.335   7.177   7.520  0.1189 -0.5399  0.0252
   42MOL0     H 5742  11.180   7.255   7.526  0.2428  1.4299  1.1475
   42MOL0     H 5743  11.280   7.454   7.589 -3.0160 -2.7530 -4.1826
   42MOL0     H 5744  11.288   7.326   7.721  0.1198 -0.2599  0.7976
   42MOL0     H 5745  11.520   7.568   7.571 -0.4332 -0.4799 -0.4815
   42MOL0     H 5746  11.828   7.537   7.534  1.2248 -1.8139  1.0205
   42MOL0     H 5747  11.886   7.507   7.692 -1.4048  0.7974  2.7386
   42MOL0     H 5748  11.676   7.717   7.635  0.6274 -0.5271 -0.3397
   42MOL0     H 5749  11.769   7.694   7.789  0.0639  2.2249  0.1661
   42MOL0     H 5750  11.983   7.750   7.694  0.8121 -0.3761 -0.2814
   42MOL0     H 5751  11.907   7.759   7.538  0.7577 -5.2447  0.9823
   42MOL0     H 5752  11.954   7.979   7.703  0.8800 -0.8134  3.7638
   42MOL0     H 5753  11.790   7.957   7.610 -0.5811  0.0227 -0.1233
   42MOL0     H 5754  11.787   8.190   7.706 -0.5044 -1.5982  0.1052
   42MOL0     H 5755  11.590   8.423   7.740 -0.0200  1.7247  0.0278
   42MOL0     H 5756  11.777   8.403   7.712  1.3390 -0.9132  2.1104
   42MOL0     H 5757  11.728   8.496   7.843  2.6916  0.6860 -1.5459
   42MOL0     H 5758  11.245   8.395   8.294 -0.1043  2.1436 -0.9417
   42MOL0     H 5759  11.190   8.549   8.463  0.4509  0.4302  1.2114
   42MOL0     H 5760  11.453   8.898   8.561 -0.4160 -2.0286  1.0064
   42MOL0     H 5761  11.348   8.917   8.417 -1.4671 -1.7228 -0.9802
   42MOL0     H 5762  11.160   8.956   8.542 -0.0413  1.4301  0.7872
   42MOL0     H 5763  11.242   8.950   8.697  0.8273  0.9611  0.4246
   42MOL0     H 5764  11.328   9.147   8.479  1.2542  0.2576  0.4440
   42MOL0     H 5765  11.383   9.135   8.652 -0.1295 -0.9282  1.2311
   42MOL0     H 5766  11.181   9.224   8.742 -1.6964  0.4400  0.7270
   42MOL0     H 5767  11.085   9.165   8.618 -2.4045  4.4034  4.6730
   42MOL0     H 5768  11.276   9.400   8.636  0.4799 -1.0186  0.6324
   42MOL0     H 5769  11.203   9.353   8.475 -2.3118  0.1052 -0.1578
   42MOL0     H 5770  11.050   9.417   8.726  1.8851  0.5054  0.2487
   42MOL0     H 5771  10.989   9.418   8.550  0.2450  0.7273  1.0831
   42MOL0     H 5772  11.009   9.642   8.569 -1.5593 -0.7515  2.4731
   42MOL0     H 5773  11.170   9.590   8.520 -1.5375 -1.5347 -1.5856
   42MOL0     H 5774  11.180   9.747   8.704  1.0500 -0.8036 -0.4972
   42MOL0     H 5775  11.229   9.585   8.770  3.0836  1.1262 -1.5187
   42MOL0     H 5776  11.536   8.782   8.368 -1.0622  0.3389 -0.2185
   42MOL0     H 5777  11.618   8.611   8.220  2.2090 -2.3520  0.0995
   42MOL0     H 5778  11.563   8.127   8.137  1.6246 -4.2220  1.2030
   42MOL0     H 5779  11.656   7.922   8.013  1.5625  0.0340  0.9507
   42MOL0     H 5780  11.204   7.623   7.350 -0.3901 -0.6778 -1.8490
   42MOL0     H 5781  11.109   7.686   7.587  0.7942  3.8583  0.5414
   42MOL0     H 5782  10.894   7.764   7.868 -0.0093 -0.8958  2.3922
   42MOL0     H 5783  10.804   7.771   8.080  2.1636  0.6340 -1.7711
   42MOL0     H 5784  10.819   7.866   8.328 -3.3171 -1.0043  0.5875
   42MOL0     H 5785  10.864   8.021   8.253 -0.5588  1.8076  0.4517
   42MOL0     H 5786  10.710   8.156   8.384 -1.5064 -0.3240  0.3073
   42MOL0     H 5787  10.828   8.076   8.473  1.6760 -0.9379 -2.7361
   42MOL0     H 5788  10.582   8.045   8.547  0.4070 -1.6006  0.2332
   42MOL0     H 5789  10.557   7.938   8.409 -0.3004  0.6600 -0.4667
   42MOL0     H 5790  10.710   7.778   8.493 -2.8916 -1.2842  1.2378
   42MOL0     H 5791  10.608   7.841   8.627 -1.8048  0.4883 -2.4315
   42MOL0     H 5792  10.973   7.927   8.802 -0.8489  3.4059  0.9737
   42MOL0     H 5793  10.642   8.163   8.010  0.6802  2.7009 -4.9120
   42MOL0     H 5794  10.637   8.143   7.660 -2.4317  0.6998 -0.1270
   42MOL0     H 5795  10.561   8.196   7.807  0.9599 -1.1488  1.4568
   42MOL0     H 5796  10.731   8.243   7.757  1.1757 -0.6798 -1.7866
   43MOL0     O 5797   6.293   3.988   5.199  0.1259 -0.1941 -0.1392
   43MOL0     C 5798   6.391   3.977   5.120 -0.0403  0.3012 -0.0446
   43MOL0     O 5799   6.427   4.074   5.031  0.0670 -0.0019 -0.2596
   43MOL0     C 5800   6.393   4.209   5.044 -1.0492 -0.4040 -0.1956
   43MOL0     C 5801   6.341   4.272   4.931  0.0374  0.6762 -0.4333
   43MOL0     C 5802   6.295   4.402   4.945 -0.9961  0.6915  0.1458
   43MOL0     C 5803   6.311   4.477   5.063  0.9113 -0.2564  0.0787
   43MOL0     O 5804   6.277   4.613   5.070  0.0468  0.9240  0.2429
   43MOL0     C 5805   6.365   4.703   5.002  0.0695 -0.3130  0.0889
   43MOL0     C 5806   6.471   4.759   5.101  0.0989  0.0421  0.1069
   43MOL0     C 5807   6.412   4.825   5.228 -0.2222  0.3450  0.0930
   43MOL0     C 5808   6.514   4.903   5.310 -0.1571  0.5520 -0.0499
   43MOL0     C 5809   6.451   4.938   5.437  0.0963  0.3523 -1.0761
   43MOL0     C 5810   6.538   5.033   5.513  0.2448 -0.0702 -0.7730
   43MOL0     C 5811   6.499   5.023   5.661  0.1152  0.0065 -0.2586
   43MOL0     C 5812   6.569   5.147   5.723 -0.0941 -0.9812  0.6418
   43MOL0     N 5813   6.567   5.165   5.867  0.2225 -0.2320  0.6213
   43MOL0     C 5814   6.444   5.185   5.939 -0.3659 -1.1223 -0.0101
   43MOL0     C 5815   6.486   5.203   6.068 -0.4633  0.2992  0.5754
   43MOL0     C 5816   6.396   5.219   6.181 -0.4968 -0.3403 -0.3736
   43MOL0     C 5817   6.339   5.086   6.235  0.0543  0.9180 -0.8295
   43MOL0     C 5818   6.305   5.084   6.389 -0.7925  0.0245 -0.0959
   43MOL0     C 5819   6.224   5.201   6.436  0.9094 -0.0097  0.6405
   43MOL0     O 5820   6.085   5.201   6.397 -0.4104 -0.4164 -0.4762
   43MOL0     C 5821   6.019   5.317   6.399  1.2512  0.2561 -0.8587
   43MOL0     C 5822   5.877   5.311   6.409  0.4769 -0.4395 -0.3775
   43MOL0     C 5823   5.794   5.428   6.441  0.2306  0.0491  0.9069
   43MOL0     C 5824   5.643   5.392   6.429  0.3305  0.5270 -0.6587
   43MOL0     C 5825   5.861   5.553   6.464  1.0467 -0.0811  0.2842
   43MOL0     C 5826   5.791   5.674   6.523 -0.1244 -1.2135  1.1620
   43MOL0     O 5827   5.651   5.673   6.517 -0.2551  0.5700 -0.1125
   43MOL0     C 5828   5.563   5.772   6.555 -0.0678 -0.1103 -0.3365
   43MOL0     C 5829   5.431   5.731   6.545  0.2660 -1.0227  0.5120
   43MOL0     C 5830   5.325   5.823   6.584 -0.3794  0.0668 -0.2326
   43MOL0     C 5831   5.359   5.951   6.639 -0.7207  0.0129 -0.0773
   43MOL0     O 5832   5.273   6.056   6.674 -0.5364  0.3548  0.7867
   43MOL0     C 5833   5.142   6.024   6.715  0.0725  0.2201  0.3008
   43MOL0     C 5834   5.044   6.044   6.600 -0.2601  0.3566  0.3139
   43MOL0     C 5835   5.009   6.194   6.577  0.6399 -0.3079  0.2120
   43MOL0     C 5836   4.918   6.218   6.459 -0.8771 -0.2189 -0.3047
   43MOL0     C 5837   4.917   6.375   6.431  0.0058 -0.2845  0.1865
   43MOL0     C 5838   4.819   6.419   6.319 -0.5674  0.6249 -0.0725
   43MOL0     C 5839   4.826   6.571   6.298 -0.0007 -0.1305  0.1745
   43MOL0     C 5840   4.809   6.610   6.148  0.0686  0.5353 -0.7863
   43MOL0    Cl 5841   4.661   6.527   6.084  0.2341 -0.3463 -0.5726
   43MOL0     C 5842   5.497   5.980   6.665 -0.0638  0.1692  0.8746
   43MOL0     C 5843   5.590   5.886   6.629  0.2268  0.1256 -0.0455
   43MOL0     O 5844   5.860   5.766   6.559 -0.1038 -1.1973 -0.2572
   43MOL0     C 5845   6.000   5.555   6.438  0.1094  1.2957 -0.6355
   43MOL0     C 5846   6.078   5.447   6.403 -0.5945  0.7794  0.4202
   43MOL0     N 5847   6.625   5.188   6.074  0.7407 -0.9885 -0.7318
   43MOL0     N 5848   6.672   5.173   5.953  0.0520  0.7740  0.2640
   43MOL0     C 5849   6.366   4.421   5.173  0.1086  0.6026 -0.9593
   43MOL0     C 5850   6.415   4.286   5.161  0.4992 -0.4548 -0.3004
   43MOL0     C 5851   6.487   3.855   5.131  0.2086  0.3565 -0.5211
   43MOL0     C 5852   6.610   3.856   5.060  0.0070  0.5402 -0.1131
   43MOL0     C 5853   6.702   3.758   5.075 -0.2302 -1.1540 -0.0252
   43MOL0     C 5854   6.687   3.661   5.171  0.2066  0.5072 -0.5250
   43MOL0     O 5855   6.802   3.591   5.191  0.0251  1.1156  0.1370
   43MOL0     C 5856   6.819   3.487   5.288  0.4232  0.0379 -0.6657
   43MOL0     C 5857   6.838   3.553   5.429 -0.6142 -1.2059 -0.4683
   43MOL0     C 5858   6.809   3.463   5.544 -0.6974  0.0627  0.0021
   43MOL0     C 5859   6.831   3.536   5.676  0.3275 -0.4146  1.6042
   43MOL0     C 5860   6.872   3.451   5.783  0.6551 -0.6995 -0.5967
   43MOL0     C 5861   6.908   3.367   5.863 -0.5364 -0.7754  0.2594
   43MOL0     C 5862   6.570   3.657   5.249 -0.1107 -0.7465 -0.3566
   43MOL0     C 5863   6.464   3.749   5.230 -0.1016 -0.2933 -0.7349
   43MOL0     C 5864   6.332   3.733   5.300  1.0335  0.3052 -0.4532
   43MOL0     H 5865   6.339   4.205   4.845  0.7882 -0.7186  0.5942
   43MOL0     H 5866   6.259   4.453   4.856  1.9061 -1.3941 -2.4450
   43MOL0     H 5867   6.295   4.778   4.962  0.3287 -1.7169 -3.3728
   43MOL0     H 5868   6.415   4.658   4.916  1.5765 -0.3669  0.9604
   43MOL0     H 5869   6.541   4.681   5.134  0.0875  0.2277  0.5677
   43MOL0     H 5870   6.530   4.837   5.051 -0.4732 -0.7507 -1.9108
   43MOL0     H 5871   6.324   4.889   5.216  0.5653  1.3374 -0.5605
   43MOL0     H 5872   6.385   4.740   5.291 -2.5866  0.1835 -1.0587
   43MOL0     H 5873   6.607   4.851   5.335  2.2629  1.9429 -4.8824
   43MOL0     H 5874   6.564   4.985   5.257  0.6342  0.9653  1.2997
   43MOL0     H 5875   6.449   4.851   5.503 -0.9722  2.4906  1.9340
   43MOL0     H 5876   6.350   4.977   5.417 -1.6489 -2.3542  1.5739
   43MOL0     H 5877   6.640   4.998   5.496  0.2674 -0.1175 -0.5369
   43MOL0     H 5878   6.527   5.137   5.478 -1.3865  0.4126  0.9622
   43MOL0     H 5879   6.542   4.929   5.696 -0.0802 -2.5524 -5.9035
   43MOL0     H 5880   6.390   5.034   5.673  0.1341 -0.0520 -0.0227
   43MOL0     H 5881   6.673   5.146   5.691 -0.0753  1.7137  0.3511
   43MOL0     H 5882   6.533   5.242   5.681  0.8041 -0.2281  1.5156
   43MOL0     H 5883   6.338   5.174   5.916 -1.4633 -0.3751  3.9993
   43MOL0     H 5884   6.315   5.279   6.138 -2.3395 -3.8031 -2.1944
   43MOL0     H 5885   6.461   5.270   6.252  0.7344  3.0246 -3.6210
   43MOL0     H 5886   6.240   5.065   6.194  0.3385 -0.8747 -0.6541
   43MOL0     H 5887   6.406   5.003   6.214 -1.2295  0.0138 -1.5029
   43MOL0     H 5888   6.253   4.989   6.404  0.1199 -0.4576  0.0577
   43MOL0     H 5889   6.395   5.060   6.446 -0.0935  2.2476 -0.1851
   43MOL0     H 5890   6.225   5.215   6.544 -1.3405 -0.5600  0.7803
   43MOL0     H 5891   6.274   5.289   6.393 -0.9066 -0.0092 -1.7198
   43MOL0     H 5892   5.835   5.214   6.385 -1.5667  0.1157  0.6813
   43MOL0     H 5893   5.616   5.441   6.335  4.3134 -0.1132 -2.3403
   43MOL0     H 5894   5.594   5.426   6.521  1.4927  0.0325  0.1700
   43MOL0     H 5895   5.622   5.285   6.429  3.3595 -0.1572 -1.7787
   43MOL0     H 5896   5.410   5.639   6.491  0.7631 -1.5232  1.1559
   43MOL0     H 5897   5.217   5.811   6.576 -0.6478  1.0798  1.3436
   43MOL0     H 5898   5.141   5.927   6.766 -1.9599  0.1896  0.2797
   43MOL0     H 5899   5.117   6.102   6.787 -1.1430  0.3203 -0.2056
   43MOL0     H 5900   5.091   6.006   6.509  1.5819  1.2262  0.8549
   43MOL0     H 5901   4.954   5.987   6.626 -1.1512  1.3232 -0.5351
   43MOL0     H 5902   5.109   6.239   6.568  0.2969  0.1922 -1.5560
   43MOL0     H 5903   4.948   6.232   6.659 -3.7923 -1.2573 -2.3364
   43MOL0     H 5904   4.817   6.190   6.489 -2.1985  4.1305  0.0165
   43MOL0     H 5905   4.948   6.157   6.373 -0.3425 -2.9875  1.7076
   43MOL0     H 5906   4.899   6.421   6.529 -1.5616 -1.1513  0.3366
   43MOL0     H 5907   5.017   6.414   6.410 -0.7138 -0.2039 -3.7298
   43MOL0     H 5908   4.715   6.387   6.334  0.0845 -1.4099  0.5328
   43MOL0     H 5909   4.854   6.371   6.227 -0.1857 -0.1569  0.4624
   43MOL0     H 5910   4.916   6.615   6.343 -2.0929  3.4116  1.2863
   43MOL0     H 5911   4.735   6.600   6.351 -0.1106  1.9650 -1.0257
   43MOL0     H 5912   4.892   6.584   6.081 -1.2464 -0.6872 -2.0236
   43MOL0     H 5913   4.790   6.717   6.141 -1.4122  0.6871  3.0335
   43MOL0     H 5914   5.536   6.066   6.718  0.6534  0.2747  0.1948
   43MOL0     H 5915   5.686   5.912   6.671 -0.6083 -2.8647  4.3744
   43MOL0     H 5916   6.057   5.646   6.457 -1.7639  2.3971  0.0179
   43MOL0     H 5917   6.184   5.466   6.393  0.0039 -2.0753  0.3266
   43MOL0     H 5918   6.379   4.479   5.264 -1.7497  3.3732 -2.3482
   43MOL0     H 5919   6.462   4.234   5.244  0.2290 -1.0161 -0.4910
   43MOL0     H 5920   6.628   3.940   4.993 -1.0607 -1.0324 -2.5001
   43MOL0     H 5921   6.792   3.752   5.015 -0.3042  0.6418 -0.3690
   43MOL0     H 5922   6.727   3.429   5.274  0.5486  0.1241 -1.9728
   43MOL0     H 5923   6.904   3.419   5.271  0.6180 -0.3420  1.4320
   43MOL0     H 5924   6.788   3.650   5.435  3.1520  0.7892  2.9383
   43MOL0     H 5925   6.943   3.583   5.438 -0.1518 -1.8021 -3.1073
   43MOL0     H 5926   6.706   3.425   5.544 -0.8473  0.4209 -1.2057
   43MOL0     H 5927   6.882   3.381   5.546  2.1816  2.3212 -2.3801
   43MOL0     H 5928   6.753   3.599   5.719  0.0552  2.8603 -3.0038
   43MOL0     H 5929   6.911   3.609   5.660  1.9680 -2.1946  1.2612
   43MOL0     H 5930   6.942   3.290   5.928  0.9188  0.7022  1.3212
   43MOL0     H 5931   6.550   3.583   5.326 -0.6016  1.1036  1.3961
   43MOL0     H 5932   6.340   3.782   5.397  2.9927  1.8766 -1.3459
   43MOL0     H 5933   6.241   3.761   5.246  0.3171 -2.3795 -0.7924
   43MOL0     H 5934   6.316   3.625   5.310  0.1515  0.4235 -0.5192
   44MOL0     O 5935   3.255   0.851   4.278  0.3996 -0.2146 -0.1992
   44MOL0     C 5936   3.304   0.772   4.198 -0.5276 -0.1232  0.0576
   44MOL0     O 5937   3.429   0.776   4.142 -0.1764 -0.6554 -0.2449
   44MOL0     C 5938   3.501   0.899   4.139  0.6700 -0.6062 -0.3203
   44MOL0     C 5939   3.640   0.907   4.172 -0.0008 -0.6325 -0.5008
   44MOL0     C 5940   3.713   1.027   4.150  0.5188 -0.2589 -0.2701
   44MOL0     C 5941   3.633   1.140   4.113 -0.6733 -0.3759 -0.6026
   44MOL0     O 5942   3.683   1.264   4.117  0.0829  0.3426 -0.4156
   44MOL0     C 5943   3.807   1.276   4.054  0.4669 -0.6461 -0.2168
   44MOL0     C 5944   3.793   1.419   3.992  0.4231  0.5978 -0.6017
   44MOL0     C 5945   3.762   1.524   4.107 -0.0671  0.0020  1.1373
   44MOL0     C 5946   3.770   1.664   4.049  0.2071 -0.0771  0.3398
   44MOL0     C 5947   3.693   1.754   4.148 -0.5360 -1.0726  0.4306
   44MOL0     C 5948   3.677   1.908   4.107 -0.3534  0.4965  0.1478
   44MOL0     C 5949   3.601   2.000   4.203  0.2538  0.3723  0.0490
   44MOL0     C 5950   3.446   1.966   4.187 -0.0985 -0.1336  0.4413
   44MOL0     N 5951   3.374   2.023   4.062  0.4955  0.4640 -0.9688
   44MOL0     C 5952   3.422   2.098   3.958 -0.4585 -0.3976  0.0756
   44MOL0     C 5953   3.316   2.113   3.878 -0.2111 -0.5238 -0.3718
   44MOL0     C 5954   3.326   2.187   3.746 -0.5103  0.6819 -0.4871
   44MOL0     C 5955   3.299   2.100   3.630  0.0541  0.2368 -0.1299
   44MOL0     C 5956   3.369   1.956   3.637 -0.2770 -0.2933  0.1412
   44MOL0     C 5957   3.271   1.853   3.579 -0.7842 -0.2845 -0.1209
   44MOL0     O 5958   3.230   1.897   3.451 -0.4475  0.9383  0.6965
   44MOL0     C 5959   3.303   1.862   3.342 -0.5376  0.4342 -0.0004
   44MOL0     C 5960   3.378   1.956   3.285 -0.6546 -0.2606  0.4595
   44MOL0     C 5961   3.472   1.922   3.181  0.7810  0.4820 -0.2331
   44MOL0     C 5962   3.533   2.032   3.105 -0.2185  0.1491 -0.7079
   44MOL0     C 5963   3.475   1.787   3.131  1.1810  1.0163 -0.4674
   44MOL0     C 5964   3.562   1.737   3.015 -0.0620  0.3198  0.7477
   44MOL0     O 5965   3.522   1.627   2.953 -0.0378 -0.1153 -0.4708
   44MOL0     C 5966   3.584   1.591   2.845 -0.2582 -0.1828  0.1393
   44MOL0     C 5967   3.711   1.520   2.848  0.9215 -0.3010 -0.7266
   44MOL0     C 5968   3.789   1.488   2.730  1.1241  0.2331 -0.1755
   44MOL0     C 5969   3.728   1.513   2.608  0.2716  0.2102 -0.0827
   44MOL0     O 5970   3.785   1.462   2.494  0.4362 -0.3483  0.0646
   44MOL0     C 5971   3.736   1.515   2.370 -0.7291 -0.4001  0.2520
   44MOL0     C 5972   3.814   1.452   2.257 -0.5552 -0.4973 -0.7061
   44MOL0     C 5973   3.793   1.297   2.233 -0.3177  0.1148 -0.1754
   44MOL0     C 5974   3.663   1.263   2.163  0.3176  0.4274 -0.1573
   44MOL0     C 5975   3.660   1.112   2.139 -0.2141  0.7497 -0.9473
   44MOL0     C 5976   3.758   1.070   2.037 -0.2316 -0.7791 -0.3996
   44MOL0     C 5977   3.734   0.927   1.982 -0.6896  0.1586  0.8441
   44MOL0     C 5978   3.848   0.889   1.878  0.1185  0.2231  0.4239
   44MOL0    Cl 5979   3.785   0.762   1.781 -0.0237 -0.0475  0.1079
   44MOL0     C 5980   3.613   1.593   2.611  0.3541 -0.8212 -0.3406
   44MOL0     C 5981   3.537   1.618   2.724  0.4110 -0.7863  0.0304
   44MOL0     O 5982   3.667   1.792   2.993  0.1197  0.3533 -0.9389
   44MOL0     C 5983   3.386   1.694   3.187 -0.0302  0.0555  0.3747
   44MOL0     C 5984   3.309   1.730   3.299 -0.4412  0.6264 -0.1615
   44MOL0     N 5985   3.196   2.065   3.930  0.3981 -0.7600 -0.8506
   44MOL0     N 5986   3.236   2.002   4.039 -0.4677  0.4368 -0.7113
   44MOL0     C 5987   3.496   1.137   4.090 -0.6675  0.0896 -0.8718
   44MOL0     C 5988   3.429   1.017   4.108 -0.1177  0.5201 -0.4417
   44MOL0     C 5989   3.214   0.661   4.139  0.8725  0.4722 -0.3084
   44MOL0     C 5990   3.264   0.608   4.021  0.2311  0.4626  0.2341
   44MOL0     C 5991   3.175   0.522   3.938  0.0631  0.2898 -0.9437
   44MOL0     C 5992   3.044   0.483   3.989  0.1902 -0.0564  0.8691
   44MOL0     O 5993   2.954   0.397   3.933 -0.3269 -0.2060 -0.5189
   44MOL0     C 5994   2.962   0.377   3.792 -0.3324  1.3623 -0.6627
   44MOL0     C 5995   2.845   0.285   3.758  0.3894  0.3452 -1.4208
   44MOL0     C 5996   2.808   0.281   3.618 -0.1373 -0.0368  0.3149
   44MOL0     C 5997   2.702   0.172   3.583  0.0041  0.3078  0.8593
   44MOL0     C 5998   2.587   0.220   3.504 -0.9290 -0.2794  0.2649
   44MOL0     C 5999   2.501   0.269   3.439  0.4290  0.1311 -0.1003
   44MOL0     C 6000   2.995   0.544   4.105 -0.6445  0.0480 -0.2360
   44MOL0     C 6001   3.075   0.639   4.172  0.7568  0.3395 -0.4942
   44MOL0     C 6002   3.010   0.706   4.294 -0.2021  0.3174  0.0969
   44MOL0     H 6003   3.682   0.813   4.207  0.7440  0.9569  3.4558
   44MOL0     H 6004   3.818   1.026   4.176  1.4283 -0.0475 -3.4716
   44MOL0     H 6005   3.828   1.203   3.976 -1.3388 -2.1169  0.5910
   44MOL0     H 6006   3.890   1.258   4.124  1.0932 -0.7673 -0.9765
   44MOL0     H 6007   3.885   1.445   3.940  0.3504 -3.6155 -3.3392
   44MOL0     H 6008   3.710   1.412   3.921  1.4462 -0.2029 -1.7562
   44MOL0     H 6009   3.658   1.502   4.133 -0.1588 -3.5027 -1.3824
   44MOL0     H 6010   3.824   1.512   4.196  0.8116  1.4935  0.7430
   44MOL0     H 6011   3.877   1.688   4.040  0.0637  0.4379 -0.0834
   44MOL0     H 6012   3.726   1.664   3.949 -0.0653 -4.8957  0.2322
   44MOL0     H 6013   3.742   1.749   4.246 -1.1791 -1.0178  0.7610
   44MOL0     H 6014   3.589   1.720   4.156 -1.6316  1.5603 -1.2664
   44MOL0     H 6015   3.774   1.956   4.094  0.7132 -1.3034  1.1565
   44MOL0     H 6016   3.645   1.915   4.003  4.0109 -3.5259 -1.8097
   44MOL0     H 6017   3.612   2.109   4.191  0.7652  0.5279  1.6946
   44MOL0     H 6018   3.641   1.980   4.303  3.9546  1.6325 -0.9878
   44MOL0     H 6019   3.426   1.858   4.192  0.8285 -0.2605  2.0148
   44MOL0     H 6020   3.400   2.012   4.275 -0.4538  0.7621 -0.1972
   44MOL0     H 6021   3.516   2.152   3.954 -1.6961  1.8479 -0.7363
   44MOL0     H 6022   3.428   2.225   3.741  0.5205 -1.9601 -1.5925
   44MOL0     H 6023   3.251   2.264   3.765 -0.4605  0.1528  2.2741
   44MOL0     H 6024   3.191   2.087   3.629  0.1946 -1.0543 -1.0795
   44MOL0     H 6025   3.339   2.155   3.545 -1.0260  2.8354  0.9320
   44MOL0     H 6026   3.458   1.940   3.574 -0.2574  1.4764 -0.3460
   44MOL0     H 6027   3.398   1.928   3.738 -0.2920 -3.0597 -0.5312
   44MOL0     H 6028   3.340   1.770   3.562 -0.0649  0.9166 -4.1331
   44MOL0     H 6029   3.198   1.827   3.656  0.1553 -0.1118  0.8601
   44MOL0     H 6030   3.364   2.058   3.319 -1.1578 -1.0430  2.7291
   44MOL0     H 6031   3.637   2.035   3.140 -0.7380  1.1856  0.8057
   44MOL0     H 6032   3.482   2.125   3.130  0.5373  0.1314  1.0028
   44MOL0     H 6033   3.535   2.006   2.998 -0.2018 -1.2328 -0.3894
   44MOL0     H 6034   3.738   1.473   2.942 -0.7576 -0.6951 -0.4136
   44MOL0     H 6035   3.891   1.453   2.727  1.7336  1.9057 -0.2194
   44MOL0     H 6036   3.629   1.510   2.350 -0.2179 -0.0272 -3.2990
   44MOL0     H 6037   3.761   1.621   2.369 -2.8427  0.2314  2.9653
   44MOL0     H 6038   3.797   1.494   2.158  1.6972 -0.3862 -1.0882
   44MOL0     H 6039   3.921   1.470   2.274 -0.4043 -0.2995 -1.7932
   44MOL0     H 6040   3.797   1.242   2.327 -1.4442 -2.7998 -1.7239
   44MOL0     H 6041   3.873   1.260   2.168 -2.8286 -2.7866 -1.8690
   44MOL0     H 6042   3.658   1.307   2.063  2.0340 -0.1463 -0.5240
   44MOL0     H 6043   3.575   1.290   2.222  0.3439 -2.6338  1.5037
   44MOL0     H 6044   3.680   1.061   2.234 -1.1255 -0.0491 -1.1625
   44MOL0     H 6045   3.560   1.087   2.101 -0.5929  1.6297 -0.5736
   44MOL0     H 6046   3.863   1.072   2.070 -0.8841  3.2101  2.0645
   44MOL0     H 6047   3.733   1.141   1.958 -1.3949  0.0994  0.7257
   44MOL0     H 6048   3.632   0.914   1.946 -0.2024  0.1958 -0.6463
   44MOL0     H 6049   3.739   0.846   2.055 -3.2998 -0.4706  0.4092
   44MOL0     H 6050   3.938   0.870   1.937  1.7639  2.2590 -1.2637
   44MOL0     H 6051   3.871   0.981   1.824  0.7568  0.2775  0.7800
   44MOL0     H 6052   3.576   1.625   2.515  0.9043  0.4019 -0.1528
   44MOL0     H 6053   3.441   1.666   2.705  0.7301  0.1109  0.6635
   44MOL0     H 6054   3.397   1.592   3.153  0.1058  0.1935  0.0026
   44MOL0     H 6055   3.247   1.665   3.360  2.8736 -0.1265  2.7358
   44MOL0     H 6056   3.448   1.230   4.061  2.3779  1.1428 -3.1468
   44MOL0     H 6057   3.323   1.018   4.084 -1.1282  1.5930  3.3430
   44MOL0     H 6058   3.356   0.633   3.969  1.1195  1.2264  2.1056
   44MOL0     H 6059   3.226   0.488   3.848  1.1826  2.7925 -1.3249
   44MOL0     H 6060   2.950   0.474   3.742 -2.7450  0.3374 -2.2227
   44MOL0     H 6061   3.059   0.333   3.767 -0.0447 -0.2360  2.7274
   44MOL0     H 6062   2.756   0.332   3.801  0.6913  0.7879 -1.2745
   44MOL0     H 6063   2.864   0.183   3.790  0.3194  0.0595 -2.2598
   44MOL0     H 6064   2.769   0.381   3.599 -1.8388 -0.7827 -0.3431
   44MOL0     H 6065   2.898   0.266   3.558 -2.2009 -1.3267 -2.6733
   44MOL0     H 6066   2.675   0.111   3.669  1.4422 -2.2550 -0.3866
   44MOL0     H 6067   2.753   0.108   3.510 -0.0096  2.5443 -1.2495
   44MOL0     H 6068   2.435   0.301   3.362  1.5584  1.2477 -0.6411
   44MOL0     H 6069   2.905   0.504   4.149  0.0466  0.3989  1.5901
   44MOL0     H 6070   2.907   0.673   4.308  0.1295 -0.9771 -0.3362
   44MOL0     H 6071   3.078   0.668   4.371  1.3449  3.3930  0.3877
   44MOL0     H 6072   3.018   0.815   4.302  1.4744  0.1811  0.6295
   45MOL0     O 6073   4.406  11.010   7.394 -0.7181  0.5891 -0.8870
   45MOL0     C 6074   4.331  10.912   7.398 -0.1113 -0.7071  0.0835
   45MOL0     O 6075   4.222  10.901   7.488 -0.2247  0.0529  0.1629
   45MOL0     C 6076   4.195  11.001   7.576  0.1964 -0.0731 -0.7700
   45MOL0     C 6077   4.163  11.135   7.544  0.9848 -0.4684  0.0398
   45MOL0     C 6078   4.138  11.229   7.650  0.4066 -0.3819  0.0184
   45MOL0     C 6079   4.139  11.195   7.785 -0.4093 -0.6728  0.3984
   45MOL0     O 6080   4.108  11.289   7.877  0.0818 -0.2711 -0.6088
   45MOL0     C 6081   4.221  11.370   7.913 -0.5215 -0.5241  0.2576
   45MOL0     C 6082   4.169  11.481   8.002  0.1945  0.8391 -0.4428
   45MOL0     C 6083   4.055  11.573   7.941  0.1686  0.1582 -0.6352
   45MOL0     C 6084   4.118  11.688   7.857  0.0298 -0.3823 -0.2877
   45MOL0     C 6085   4.012  11.765   7.778  1.0005  0.5571  0.0513
   45MOL0     C 6086   4.090  11.848   7.670  0.6565  0.0507  0.0602
   45MOL0     C 6087   3.984  11.937   7.604  1.0039  0.1278 -0.5175
   45MOL0     C 6088   3.965  12.073   7.679  0.7083  0.3268  0.3600
   45MOL0     N 6089   3.838  12.127   7.650  1.2934  0.2447 -0.7223
   45MOL0     C 6090   3.723  12.075   7.696  0.9295  0.1735 -0.8389
   45MOL0     C 6091   3.631  12.157   7.642  0.7121 -0.1552 -0.9744
   45MOL0     C 6092   3.491  12.121   7.647 -0.1761 -0.3657 -0.2376
   45MOL0     C 6093   3.427  12.082   7.790  0.4359  0.1132 -0.0320
   45MOL0     C 6094   3.414  12.210   7.878 -0.1304 -0.3631  0.2860
   45MOL0     C 6095   3.336  12.177   8.001 -0.5797 -0.5562 -0.3600
   45MOL0     O 6096   3.358  12.272   8.105 -0.3095 -0.2654  0.3614
   45MOL0     C 6097   3.346  12.248   8.243  0.3392 -0.6996  0.2575
   45MOL0     C 6098   3.424  12.335   8.326  0.0924  0.9275 -0.3629
   45MOL0     C 6099   3.427  12.326   8.460 -0.0329 -0.2665  0.0938
   45MOL0     C 6100   3.513  12.415   8.540  0.0508  0.3189  0.0452
   45MOL0     C 6101   3.359  12.223   8.531  0.6296  0.1809 -0.0723
   45MOL0     C 6102   3.347  12.207   8.679  0.7084 -0.0020 -1.0258
   45MOL0     O 6103   3.446  12.233   8.777  0.2228 -1.3164 -0.3362
   45MOL0     C 6104   3.397  12.221   8.913  0.2054 -0.7362  0.6647
   45MOL0     C 6105   3.324  12.323   8.969 -0.3871 -0.1932  0.0315
   45MOL0     C 6106   3.280  12.314   9.100  0.5909 -0.8895  0.9587
   45MOL0     C 6107   3.315  12.207   9.184 -0.0586 -0.6908 -0.2036
   45MOL0     O 6108   3.283  12.199   9.316  0.1259  0.1869 -0.1823
   45MOL0     C 6109   3.318  12.316   9.397 -0.3063  0.7722 -0.0884
   45MOL0     C 6110   3.319  12.259   9.540  0.7538  0.9742  0.0563
   45MOL0     C 6111   3.378  12.354   9.639  0.3450  0.0913  0.6899
   45MOL0     C 6112   3.391  12.300   9.781  0.8999 -0.1631  0.5447
   45MOL0     C 6113   3.260  12.261   9.851  0.2999 -0.1312 -0.5003
   45MOL0     C 6114   3.290  12.263  10.007 -0.2448 -0.2683 -0.0467
   45MOL0     C 6115   3.160  12.230  10.078 -0.2294  0.6543  0.2571
   45MOL0     C 6116   3.162  12.234  10.232  0.8198  0.1954 -0.6818
   45MOL0    Cl 6117   3.216  12.389  10.292  0.0143 -0.3535  0.3215
   45MOL0     C 6118   3.387  12.102   9.123  0.6420  0.1943  0.4343
   45MOL0     C 6119   3.425  12.104   8.991 -0.6417  0.3099  0.4647
   45MOL0     O 6120   3.233  12.176   8.708 -0.0953 -0.2985  1.1495
   45MOL0     C 6121   3.279  12.140   8.448  0.2476 -0.0194  0.9178
   45MOL0     C 6122   3.276  12.143   8.302  0.0064 -0.6318 -0.2106
   45MOL0     N 6123   3.690  12.259   7.569 -0.1483  0.2040 -0.2004
   45MOL0     N 6124   3.815  12.242   7.583 -0.3155  0.3406  1.0078
   45MOL0     C 6125   4.166  11.072   7.821  0.9432 -0.1173 -0.4210
   45MOL0     C 6126   4.190  10.975   7.719  0.3212  1.1287  1.0662
   45MOL0     C 6127   4.334  10.805   7.287  0.5361  0.2724 -0.0483
   45MOL0     C 6128   4.240  10.694   7.304 -0.3693 -0.0133  0.1875
   45MOL0     C 6129   4.223  10.602   7.209  0.6266 -0.2649  0.1969
   45MOL0     C 6130   4.312  10.592   7.103 -0.1077 -0.7050  0.1693
   45MOL0     O 6131   4.321  10.490   7.011  0.4063 -0.6926  0.3397
   45MOL0     C 6132   4.244  10.367   7.040 -0.3310  0.1967  0.6907
   45MOL0     C 6133   4.235  10.286   6.908 -0.0224 -0.2112 -0.3501
   45MOL0     C 6134   4.160  10.162   6.940 -0.1595 -0.0892 -0.1077
   45MOL0     C 6135   4.177  10.058   6.817 -0.3755 -0.4424 -0.5086
   45MOL0     C 6136   4.155   9.914   6.854  0.9541 -0.6856 -0.0313
   45MOL0     C 6137   4.154   9.801   6.894  0.2955  0.6106 -0.5078
   45MOL0     C 6138   4.398  10.698   7.086 -0.3376 -0.8080 -0.5100
   45MOL0     C 6139   4.423  10.807   7.173  0.8411  1.2616 -0.3106
   45MOL0     C 6140   4.537  10.893   7.158 -0.1049 -1.4226 -0.3584
   45MOL0     H 6141   4.150  11.178   7.445  0.4076  1.2579  0.8231
   45MOL0     H 6142   4.133  11.332   7.618  0.8807 -0.1093  0.7777
   45MOL0     H 6143   4.252  11.415   7.819  0.8909 -0.9989  0.4699
   45MOL0     H 6144   4.305  11.309   7.949  0.6217  0.6298 -0.3607
   45MOL0     H 6145   4.132  11.424   8.088  2.3988 -1.1905 -0.7314
   45MOL0     H 6146   4.245  11.548   8.046  0.8559 -0.4299  0.4038
   45MOL0     H 6147   3.985  11.515   7.881  0.3199  0.8994 -1.5456
   45MOL0     H 6148   4.008  11.630   8.023 -1.8115 -1.6544 -0.4290
   45MOL0     H 6149   4.186  11.754   7.911  1.1275 -2.3217  0.8084
   45MOL0     H 6150   4.180  11.635   7.784 -1.3602 -1.9057 -0.4464
   45MOL0     H 6151   3.944  11.824   7.841  0.7605  1.6704 -1.2311
   45MOL0     H 6152   3.945  11.695   7.726  2.8474  0.9556 -3.0526
   45MOL0     H 6153   4.172  11.910   7.707 -0.4220  1.0825  0.7766
   45MOL0     H 6154   4.136  11.776   7.601  3.5058  1.5852  0.2135
   45MOL0     H 6155   3.889  11.883   7.599  0.1136  1.3155  2.1770
   45MOL0     H 6156   4.008  11.959   7.500 -1.3412  2.3656 -0.6590
   45MOL0     H 6157   3.964  12.060   7.787 -1.5613 -1.9360  0.1666
   45MOL0     H 6158   4.047  12.141   7.652 -0.2394  2.0171  1.5668
   45MOL0     H 6159   3.686  11.984   7.743  0.7145  0.7836  0.2232
   45MOL0     H 6160   3.462  12.039   7.581 -0.9148  0.0927 -0.4925
   45MOL0     H 6161   3.430  12.204   7.610 -1.7493 -0.2498  2.3216
   45MOL0     H 6162   3.326  12.042   7.775 -0.2963  1.3178  1.4330
   45MOL0     H 6163   3.483  12.008   7.848  2.3146  2.2922  1.0635
   45MOL0     H 6164   3.514  12.254   7.887 -0.1983  0.3045 -1.7453
   45MOL0     H 6165   3.355  12.278   7.816  2.3099  2.3038  0.6615
   45MOL0     H 6166   3.230  12.151   7.988 -0.7422 -0.0033 -0.1477
   45MOL0     H 6167   3.376  12.086   8.047 -2.4565 -0.3518  1.8354
   45MOL0     H 6168   3.477  12.421   8.286 -3.5499  2.2116 -2.8675
   45MOL0     H 6169   3.552  12.496   8.478  0.6723 -0.5637 -0.7430
   45MOL0     H 6170   3.594  12.358   8.587 -1.3679 -2.2500 -0.4779
   45MOL0     H 6171   3.453  12.468   8.615 -1.5923  1.8409 -2.2070
   45MOL0     H 6172   3.290  12.408   8.910 -2.6687 -0.5849  0.6923
   45MOL0     H 6173   3.212  12.387   9.143  1.0638  0.4982 -0.5551
   45MOL0     H 6174   3.413  12.363   9.370 -0.0334  1.9217  2.5194
   45MOL0     H 6175   3.237  12.388   9.388  0.0117  1.3334  1.2502
   45MOL0     H 6176   3.220  12.231   9.575  2.0337 -2.5309  1.2103
   45MOL0     H 6177   3.385  12.172   9.539  2.4555  2.1817  0.3926
   45MOL0     H 6178   3.314  12.442   9.651  1.8276  1.4607 -0.8874
   45MOL0     H 6179   3.472  12.392   9.598 -1.8199  2.4287 -2.6507
   45MOL0     H 6180   3.438  12.377   9.842  0.3005  0.8117 -0.2063
   45MOL0     H 6181   3.452  12.209   9.781 -1.3740 -1.8360 -1.7122
   45MOL0     H 6182   3.188  12.344   9.843  0.6461  0.1343 -0.9310
   45MOL0     H 6183   3.221  12.164   9.818 -0.8982  0.1251  0.1000
   45MOL0     H 6184   3.336  12.359  10.030  0.4010 -0.5847  0.0236
   45MOL0     H 6185   3.365  12.186  10.027 -0.4935 -0.0347  1.9634
   45MOL0     H 6186   3.134  12.126  10.055 -0.0520  0.5647  0.4540
   45MOL0     H 6187   3.080  12.290  10.035  0.1165  1.2861  0.4866
   45MOL0     H 6188   3.228  12.152  10.261  1.3785  0.6915 -0.5398
   45MOL0     H 6189   3.058  12.214  10.259  1.9457 -0.7545  3.7686
   45MOL0     H 6190   3.404  12.008   9.174 -1.3665  0.0816  0.9719
   45MOL0     H 6191   3.474  12.022   8.941 -1.1930  0.9700 -1.2460
   45MOL0     H 6192   3.220  12.059   8.489 -1.6131  0.8763  0.1367
   45MOL0     H 6193   3.218  12.069   8.249 -3.1983  3.0640 -2.4555
   45MOL0     H 6194   4.147  11.034   7.921  1.6155  0.8810  0.1042
   45MOL0     H 6195   4.202  10.873   7.751  1.8528  0.9498  0.0316
   45MOL0     H 6196   4.194  10.677   7.401  1.7141 -0.6775  1.1212
   45MOL0     H 6197   4.144  10.528   7.221  0.1577  0.2232  0.1611
   45MOL0     H 6198   4.294  10.313   7.121  0.9194  0.5856  0.2114
   45MOL0     H 6199   4.143  10.390   7.074 -0.1469  2.4342 -0.0874
   45MOL0     H 6200   4.337  10.261   6.875  0.1829 -0.0051  0.1270
   45MOL0     H 6201   4.174  10.328   6.827 -3.1465 -0.6655  1.6181
   45MOL0     H 6202   4.203  10.116   7.030  0.7051 -1.8437 -1.3435
   45MOL0     H 6203   4.054  10.186   6.952  0.4117  2.2826  0.6896
   45MOL0     H 6204   4.277  10.045   6.775  0.3234 -2.5683  1.5623
   45MOL0     H 6205   4.125  10.092   6.728  1.0411  2.3656 -0.3737
   45MOL0     H 6206   4.161   9.703   6.936 -1.2218  0.6103 -0.1946
   45MOL0     H 6207   4.453  10.684   6.994 -1.2067 -3.5466 -0.7068
   45MOL0     H 6208   4.498  10.990   7.127  1.3447 -1.6793 -3.3221
   45MOL0     H 6209   4.600  10.887   7.248  1.7630 -2.6048 -1.6624
   45MOL0     H 6210   4.602  10.848   7.082 -1.0390 -0.6916 -1.6218
   46MOL0     O 6211   6.275   8.338   8.115  0.4426 -0.3756  0.3682
   46MOL0     C 6212   6.301   8.224   8.157 -0.5020 -0.3847 -0.5651
   46MOL0     O 6213   6.307   8.111   8.087  0.2768 -0.1571  0.4094
   46MOL0     C 6214   6.224   8.089   7.980 -0.7874 -0.2715  0.3992
   46MOL0     C 6215   6.105   8.153   7.960  0.3512  0.0036  0.3234
   46MOL0     C 6216   6.020   8.125   7.848 -0.0540  0.0526  0.3454
   46MOL0     C 6217   6.047   8.028   7.750 -0.1954 -0.2949 -0.3418
   46MOL0     O 6218   5.968   8.007   7.643 -0.7934  0.4651  0.9481
   46MOL0     C 6219   5.981   7.889   7.557 -0.4106 -0.6576  0.0241
   46MOL0     C 6220   5.915   7.761   7.623 -0.0860  0.0167 -0.0102
   46MOL0     C 6221   5.926   7.637   7.533  0.5508 -0.5976  0.3022
   46MOL0     C 6222   5.827   7.531   7.569  0.5510  1.7581 -0.3293
   46MOL0     C 6223   5.703   7.519   7.477 -1.0119  0.9416  1.7279
   46MOL0     C 6224   5.603   7.410   7.521 -0.1394 -0.4875  0.0945
   46MOL0     C 6225   5.482   7.407   7.419 -0.4541 -0.0282 -0.1419
   46MOL0     C 6226   5.407   7.540   7.405 -0.0404 -0.3041 -0.6571
   46MOL0     N 6227   5.351   7.595   7.531 -0.0349 -0.6156 -0.0543
   46MOL0     C 6228   5.225   7.581   7.585  0.2508  0.7131 -1.0514
   46MOL0     C 6229   5.228   7.653   7.694  0.0090  0.2445  0.3030
   46MOL0     C 6230   5.108   7.655   7.788  0.1419 -0.1835  0.7580
   46MOL0     C 6231   5.159   7.611   7.924  1.2219  0.5266  0.1157
   46MOL0     C 6232   5.041   7.542   7.999 -0.0679 -0.2637 -0.2544
   46MOL0     C 6233   5.050   7.565   8.152  0.4893  0.1836  0.0742
   46MOL0     O 6234   4.944   7.500   8.217 -0.6472  0.3349  0.1567
   46MOL0     C 6235   4.934   7.508   8.357  0.0414  0.0512  0.1736
   46MOL0     C 6236   4.811   7.491   8.417  0.4095  0.4018  0.3041
   46MOL0     C 6237   4.789   7.508   8.557  0.8036 -0.3008  0.0263
   46MOL0     C 6238   4.650   7.480   8.608  0.3573  0.7280 -0.3605
   46MOL0     C 6239   4.897   7.560   8.633 -0.2656  0.2069 -0.3924
   46MOL0     C 6240   4.888   7.593   8.778  0.2399 -0.4515  0.0747
   46MOL0     O 6241   4.988   7.662   8.830 -0.1214 -0.2803 -0.1208
   46MOL0     C 6242   5.001   7.685   8.964 -0.3653 -0.5249  0.1996
   46MOL0     C 6243   5.058   7.597   9.058  0.3370  0.0114  0.7040
   46MOL0     C 6244   5.027   7.608   9.201  0.4206  0.4523 -0.2506
   46MOL0     C 6245   4.944   7.713   9.248  0.2276  0.1520  0.6098
   46MOL0     O 6246   4.914   7.716   9.383 -0.0095  0.7895  0.0623
   46MOL0     C 6247   5.034   7.745   9.466 -0.5802  0.0566  0.1327
   46MOL0     C 6248   5.032   7.665   9.598 -0.2971  0.5393 -0.3243
   46MOL0     C 6249   4.918   7.688   9.688  0.2424  0.1744  0.0269
   46MOL0     C 6250   4.964   7.673   9.833  0.2378 -0.8213  0.7835
   46MOL0     C 6251   4.835   7.678   9.938  1.1221 -0.6866  0.1912
   46MOL0     C 6252   4.885   7.662  10.077  1.0445 -0.4022  0.1022
   46MOL0     C 6253   4.766   7.683  10.175  0.7531  0.9380  0.4666
   46MOL0     C 6254   4.810   7.637  10.315  0.6822  0.0787  0.2422
   46MOL0    Cl 6255   4.927   7.755  10.388 -0.1809 -0.2838 -0.1054
   46MOL0     C 6256   4.919   7.818   9.159 -0.5208 -0.5009 -0.7419
   46MOL0     C 6257   4.934   7.791   9.017  0.8198 -0.2566  0.2450
   46MOL0     O 6258   4.784   7.560   8.832  0.0603 -0.0152  0.1386
   46MOL0     C 6259   5.022   7.566   8.573 -0.2809  0.8308  0.6477
   46MOL0     C 6260   5.042   7.534   8.441  0.5227  0.1940 -0.8819
   46MOL0     N 6261   5.353   7.724   7.707  0.3188 -0.8036  0.1251
   46MOL0     N 6262   5.424   7.682   7.610  0.3032  0.4916  0.2753
   46MOL0     C 6263   6.156   7.956   7.783 -0.4996  0.5256 -0.3069
   46MOL0     C 6264   6.246   7.982   7.893 -0.2729  0.6124 -0.0997
   46MOL0     C 6265   6.333   8.235   8.298 -0.6900 -0.0119  0.0359
   46MOL0     C 6266   6.406   8.347   8.342 -0.4392  0.7235 -0.1333
   46MOL0     C 6267   6.440   8.358   8.476 -0.5912  0.5549  1.4048
   46MOL0     C 6268   6.384   8.271   8.572 -0.7357  0.7471 -0.0744
   46MOL0     O 6269   6.396   8.281   8.710  0.7334 -0.1460  0.2905
   46MOL0     C 6270   6.455   8.404   8.770  0.6408  1.2867 -0.0031
   46MOL0     C 6271   6.611   8.395   8.772 -1.1709  0.7879 -0.2863
   46MOL0     C 6272   6.661   8.274   8.838 -0.1731  0.4816 -0.1751
   46MOL0     C 6273   6.817   8.267   8.837 -0.3278  0.1417 -0.6438
   46MOL0     C 6274   6.856   8.236   8.985  0.6819  0.1935  0.5296
   46MOL0     C 6275   6.902   8.218   9.094 -0.2127  0.0694 -0.2214
   46MOL0     C 6276   6.322   8.155   8.524 -0.3223  0.5654  0.8249
   46MOL0     C 6277   6.289   8.132   8.393 -0.5149 -0.7571  0.2356
   46MOL0     C 6278   6.190   8.030   8.352 -0.8791  0.0193  0.3242
   46MOL0     H 6279   6.068   8.232   8.025  1.3769  3.2729 -2.7180
   46MOL0     H 6280   5.931   8.185   7.835 -1.1810 -1.0604  2.3541
   46MOL0     H 6281   6.087   7.889   7.528  0.6924  4.3697  2.8512
   46MOL0     H 6282   5.919   7.897   7.468  3.9548  0.8120 -3.2316
   46MOL0     H 6283   5.959   7.731   7.718  1.1845  0.3645 -0.4673
   46MOL0     H 6284   5.814   7.795   7.645  0.3632  1.1247  0.4049
   46MOL0     H 6285   5.902   7.677   7.434 -0.2234 -0.5873  0.4868
   46MOL0     H 6286   6.031   7.611   7.545  1.2845  2.6114  1.9066
   46MOL0     H 6287   5.885   7.439   7.554  0.7583  2.1015 -1.7259
   46MOL0     H 6288   5.801   7.529   7.675  2.4463 -1.9036  0.2475
   46MOL0     H 6289   5.742   7.498   7.377 -0.9866  3.1089  1.2251
   46MOL0     H 6290   5.652   7.615   7.466 -3.1247 -0.2867 -0.0286
   46MOL0     H 6291   5.653   7.314   7.532  2.3181  0.7771  0.8222
   46MOL0     H 6292   5.562   7.442   7.617  1.1326  1.1097  0.1529
   46MOL0     H 6293   5.408   7.335   7.454 -2.3650  1.9871  0.1574
   46MOL0     H 6294   5.510   7.365   7.322 -0.5544  0.3147 -0.3197
   46MOL0     H 6295   5.461   7.614   7.345  0.2591  0.7937  0.9075
   46MOL0     H 6296   5.323   7.511   7.341 -0.8237  0.6281 -0.0747
   46MOL0     H 6297   5.159   7.502   7.549  1.5509 -0.1777 -1.5721
   46MOL0     H 6298   5.020   7.601   7.752 -0.6110  1.2814  0.3349
   46MOL0     H 6299   5.077   7.760   7.783  3.4300  0.8200 -2.5555
   46MOL0     H 6300   5.238   7.537   7.915  1.6594  0.8961  0.7955
   46MOL0     H 6301   5.188   7.705   7.973  2.8499  0.4389 -0.6228
   46MOL0     H 6302   4.947   7.591   7.970 -1.1124 -1.8852  0.2553
   46MOL0     H 6303   5.033   7.437   7.969 -1.3190  0.7664 -4.0910
   46MOL0     H 6304   5.143   7.520   8.188  0.7085  0.1963 -0.4636
   46MOL0     H 6305   5.041   7.674   8.159 -1.6356  0.1087 -0.6650
   46MOL0     H 6306   4.733   7.472   8.344  2.5700  0.8120 -2.2574
   46MOL0     H 6307   4.646   7.399   8.680 -2.3103 -0.6319 -1.8953
   46MOL0     H 6308   4.587   7.444   8.526 -1.0945 -2.8136  2.0556
   46MOL0     H 6309   4.614   7.574   8.650 -1.0636 -1.3387  3.4852
   46MOL0     H 6310   5.130   7.521   9.029  0.4648  0.8434 -1.3454
   46MOL0     H 6311   5.067   7.533   9.269 -2.6132 -0.8214  0.3165
   46MOL0     H 6312   5.133   7.720   9.427  0.4325  1.9012  1.3789
   46MOL0     H 6313   5.024   7.851   9.487 -2.2407 -0.8784  5.4422
   46MOL0     H 6314   5.026   7.557   9.585  2.5022  0.5124 -2.2474
   46MOL0     H 6315   5.129   7.669   9.648  0.6665 -2.0107 -1.7958
   46MOL0     H 6316   4.849   7.605   9.668  2.8092 -2.0253 -0.4174
   46MOL0     H 6317   4.874   7.785   9.665 -1.7051 -0.5651  0.4998
   46MOL0     H 6318   5.024   7.761   9.857 -0.9953  0.7174 -1.4187
   46MOL0     H 6319   5.020   7.580   9.845 -0.2795 -1.6435 -2.4311
   46MOL0     H 6320   4.772   7.767   9.935  2.2302  0.1955  1.5486
   46MOL0     H 6321   4.780   7.587   9.911 -0.5018 -1.1035  4.2278
   46MOL0     H 6322   4.957   7.738  10.108  1.9076  0.2982 -3.2278
   46MOL0     H 6323   4.934   7.564  10.085  0.1096 -0.8283  0.9487
   46MOL0     H 6324   4.675   7.633  10.140  1.1002  0.8405 -0.3221
   46MOL0     H 6325   4.737   7.789  10.175  2.3081  1.4263 -1.4255
   46MOL0     H 6326   4.869   7.545  10.309  2.6026  1.3357 -3.4729
   46MOL0     H 6327   4.725   7.624  10.383 -1.0206 -0.8898 -1.9307
   46MOL0     H 6328   4.880   7.915   9.189 -2.9058 -0.8904 -2.2621
   46MOL0     H 6329   4.896   7.860   8.943  0.8840 -0.9107 -0.4045
   46MOL0     H 6330   5.112   7.585   8.631  0.6051 -2.1193  0.3750
   46MOL0     H 6331   5.141   7.539   8.396  0.5645 -0.4789 -0.8630
   46MOL0     H 6332   6.183   7.867   7.728 -1.2316  1.2113 -1.8265
   46MOL0     H 6333   6.322   7.910   7.922 -0.7415 -0.4192 -1.3431
   46MOL0     H 6334   6.454   8.416   8.274  1.4270 -0.3624  0.0180
   46MOL0     H 6335   6.496   8.440   8.519 -0.4503  1.4638 -0.3998
   46MOL0     H 6336   6.436   8.495   8.714 -1.3044  0.5742 -0.5751
   46MOL0     H 6337   6.416   8.418   8.872 -3.0165  0.8021 -1.1904
   46MOL0     H 6338   6.644   8.482   8.829  1.7122 -1.4363  1.7561
   46MOL0     H 6339   6.656   8.410   8.674 -2.4625 -0.6128 -1.1223
   46MOL0     H 6340   6.626   8.252   8.940  0.4942 -3.3143 -0.5985
   46MOL0     H 6341   6.623   8.189   8.780  0.4388  1.4189 -2.0262
   46MOL0     H 6342   6.858   8.363   8.805  1.4562  0.2531  1.6737
   46MOL0     H 6343   6.852   8.182   8.779  1.5073  1.5553 -1.6730
   46MOL0     H 6344   6.922   8.185   9.194  0.3830 -3.9441 -1.5154
   46MOL0     H 6345   6.291   8.073   8.588  0.6677  1.0317  1.9424
   46MOL0     H 6346   6.232   7.956   8.283  2.0139  0.6275  1.3100
   46MOL0     H 6347   6.170   7.978   8.446 -1.3302  0.5654  0.5332
   46MOL0     H 6348   6.102   8.085   8.316 -1.2633 -1.2571 -0.7822
   47MOL0     O 6349   7.203   5.558   5.469 -0.1641  0.4126 -0.3233
   47MOL0     C 6350   7.316   5.607   5.439 -0.6092  0.2622  0.3652
   47MOL0     O 6351   7.343   5.742   5.411  0.3645 -0.1835  0.0786
   47MOL0     C 6352   7.257   5.836   5.448 -0.0974 -0.8014 -0.1834
   47MOL0     C 6353   7.121   5.844   5.412 -0.1029  0.0275  0.1847
   47MOL0     C 6354   7.038   5.939   5.465 -0.1354 -0.8268  0.7374
   47MOL0     C 6355   7.091   6.039   5.560  0.2367 -0.1828 -0.1947
   47MOL0     O 6356   7.012   6.129   5.618  0.4132  0.4713  0.0065
   47MOL0     C 6357   6.885   6.080   5.663 -0.2694 -0.3583  0.1813
   47MOL0     C 6358   6.907   5.985   5.782 -0.8448 -0.0150  0.0153
   47MOL0     C 6359   6.941   6.054   5.914  0.0604 -0.2777  0.0813
   47MOL0     C 6360   6.933   5.956   6.033 -0.3180  0.2413 -0.4188
   47MOL0     C 6361   6.962   6.015   6.173  0.2074 -0.8870 -0.3388
   47MOL0     C 6362   7.115   6.009   6.210  0.1729  0.3767  0.4537
   47MOL0     C 6363   7.134   6.089   6.346 -0.1269 -1.0841 -0.5286
   47MOL0     C 6364   7.281   6.102   6.394  0.1901  0.2623  1.1622
   47MOL0     N 6365   7.346   5.971   6.415  0.4098  0.3636 -0.1502
   47MOL0     C 6366   7.401   5.891   6.321 -0.0384  0.2641 -0.9354
   47MOL0     C 6367   7.422   5.768   6.388  0.2960  0.2412 -0.4686
   47MOL0     C 6368   7.448   5.639   6.319 -0.6049  0.8371  0.3995
   47MOL0     C 6369   7.598   5.637   6.253  0.1065  0.2328 -0.7992
   47MOL0     C 6370   7.655   5.494   6.234  0.8358 -0.5330 -0.3630
   47MOL0     C 6371   7.770   5.485   6.129  0.7719 -0.7202  0.2192
   47MOL0     O 6372   7.732   5.489   5.988 -0.3814  0.3169  0.7232
   47MOL0     C 6373   7.711   5.371   5.924  0.6657 -0.2162  0.1197
   47MOL0     C 6374   7.720   5.241   5.984  0.2452  0.0840 -1.2793
   47MOL0     C 6375   7.710   5.122   5.915 -1.2185  0.5285 -0.7384
   47MOL0     C 6376   7.727   4.985   5.995  0.5880 -0.5476 -0.5609
   47MOL0     C 6377   7.686   5.135   5.770 -0.3116 -0.4683 -0.4961
   47MOL0     C 6378   7.682   5.007   5.681  0.1145 -0.6723 -0.1041
   47MOL0     O 6379   7.778   4.995   5.585  0.2576  0.7346 -1.1154
   47MOL0     C 6380   7.785   4.866   5.534 -0.3374 -0.8792 -0.0347
   47MOL0     C 6381   7.792   4.869   5.391 -0.1223 -0.3677  0.2077
   47MOL0     C 6382   7.786   4.745   5.315  0.0331  0.1669 -0.7072
   47MOL0     C 6383   7.798   4.620   5.387 -0.2171 -0.1064 -0.5156
   47MOL0     O 6384   7.794   4.498   5.315  0.5628  0.1629 -0.0483
   47MOL0     C 6385   7.818   4.368   5.370 -0.0040 -0.1012  0.3866
   47MOL0     C 6386   7.810   4.266   5.250  0.3974  0.5814 -0.1373
   47MOL0     C 6387   7.664   4.253   5.202 -0.0149 -0.7782 -0.5670
   47MOL0     C 6388   7.670   4.165   5.074 -0.0299  0.5473 -0.6473
   47MOL0     C 6389   7.519   4.147   5.019 -1.0264 -0.0108 -0.0538
   47MOL0     C 6390   7.508   4.056   4.891 -1.2186 -0.0474 -0.3476
   47MOL0     C 6391   7.554   4.124   4.766  0.1114 -0.3273  0.4756
   47MOL0     C 6392   7.469   4.071   4.649 -0.5228 -0.0570  0.3876
   47MOL0    Cl 6393   7.293   4.129   4.659 -0.3148 -0.0250  0.1213
   47MOL0     C 6394   7.807   4.623   5.530 -0.2311  0.4615  0.4948
   47MOL0     C 6395   7.791   4.743   5.608  0.4863 -0.1986  0.2025
   47MOL0     O 6396   7.591   4.933   5.696  1.1505  0.3967 -0.3677
   47MOL0     C 6397   7.670   5.263   5.710  0.0345  0.6130 -0.7106
   47MOL0     C 6398   7.691   5.375   5.788 -0.4891 -0.8228  0.0912
   47MOL0     N 6399   7.373   5.776   6.520 -0.1798  0.2646 -0.3315
   47MOL0     N 6400   7.322   5.888   6.530  0.5106 -1.5808 -0.0566
   47MOL0     C 6401   7.228   6.040   5.593  0.4803 -0.1636 -0.7482
   47MOL0     C 6402   7.302   5.944   5.533 -0.3137 -0.5300  0.1859
   47MOL0     C 6403   7.432   5.514   5.412  0.2100 -0.3367  0.6127
   47MOL0     C 6404   7.403   5.377   5.384 -0.1121 -0.4519 -0.2248
   47MOL0     C 6405   7.505   5.296   5.342 -0.4769 -0.4566  1.2773
   47MOL0     C 6406   7.637   5.325   5.344  0.9369 -0.4014  0.4253
   47MOL0     O 6407   7.740   5.243   5.318 -0.3682 -0.0812  0.1957
   47MOL0     C 6408   7.837   5.278   5.212 -0.0402 -0.3556 -0.1416
   47MOL0     C 6409   7.959   5.196   5.218 -0.2692 -0.6262  0.4482
   47MOL0     C 6410   8.052   5.224   5.097 -0.6021  0.4890  0.3920
   47MOL0     C 6411   8.177   5.137   5.115  0.6617  0.4564 -0.2743
   47MOL0     C 6412   8.239   5.133   4.985  0.1045 -0.4982  0.4114
   47MOL0     C 6413   8.316   5.144   4.887  0.3888 -0.4036  0.5867
   47MOL0     C 6414   7.672   5.456   5.378 -0.3375 -0.2929 -0.3292
   47MOL0     C 6415   7.575   5.556   5.405 -0.8051  2.2541  0.2570
   47MOL0     C 6416   7.642   5.678   5.455 -0.3939  0.1636 -0.9690
   47MOL0     H 6417   7.082   5.764   5.350  1.5130  0.2154 -1.1513
   47MOL0     H 6418   6.933   5.943   5.435  0.6109  2.7652 -2.2307
   47MOL0     H 6419   6.832   6.011   5.597  3.6452 -0.9089 -2.7230
   47MOL0     H 6420   6.822   6.163   5.696 -1.6868 -0.7289 -1.4167
   47MOL0     H 6421   6.812   5.932   5.795  0.2223 -1.9470  0.2751
   47MOL0     H 6422   6.990   5.917   5.761  2.4209  2.5347  3.4252
   47MOL0     H 6423   7.043   6.092   5.906 -0.1798  0.3115 -0.2347
   47MOL0     H 6424   6.867   6.131   5.939 -0.7091 -1.6094  2.2453
   47MOL0     H 6425   6.832   5.915   6.035 -1.5846  3.1360  0.0061
   47MOL0     H 6426   7.004   5.873   6.024  1.2672  1.3617  0.9974
   47MOL0     H 6427   6.889   5.977   6.245 -2.0870  3.9420  0.2867
   47MOL0     H 6428   6.930   6.120   6.166  2.5765 -0.1581 -0.9511
   47MOL0     H 6429   7.153   5.906   6.211 -2.0746 -0.5659  3.0332
   47MOL0     H 6430   7.160   6.070   6.131 -3.1099  1.1156 -1.0393
   47MOL0     H 6431   7.066   6.041   6.418 -1.5598  0.8313 -0.5390
   47MOL0     H 6432   7.097   6.192   6.347  1.6843 -0.3275  2.8138
   47MOL0     H 6433   7.340   6.162   6.324  2.0691 -0.2943  2.1991
   47MOL0     H 6434   7.287   6.172   6.478 -1.1982 -0.0232  1.5176
   47MOL0     H 6435   7.421   5.909   6.216 -3.0461 -1.0173 -1.8461
   47MOL0     H 6436   7.381   5.604   6.240  1.2224 -1.8545 -0.0883
   47MOL0     H 6437   7.446   5.565   6.400  1.5921 -0.3362 -0.5172
   47MOL0     H 6438   7.582   5.684   6.155 -1.7865 -0.6859 -0.9748
   47MOL0     H 6439   7.676   5.690   6.310  0.7841 -0.4804 -1.0454
   47MOL0     H 6440   7.687   5.458   6.332  0.8110  2.3169  0.7920
   47MOL0     H 6441   7.572   5.430   6.204 -0.7540  1.1544  0.2326
   47MOL0     H 6442   7.816   5.582   6.151 -1.7881  2.1218 -5.0871
   47MOL0     H 6443   7.829   5.396   6.153  0.5912 -1.7724 -2.7680
   47MOL0     H 6444   7.732   5.233   6.091  1.2538 -0.2482 -1.4047
   47MOL0     H 6445   7.633   4.932   6.013  2.1864 -4.0936 -1.6539
   47MOL0     H 6446   7.775   5.007   6.091 -3.1702 -2.3310  1.9324
   47MOL0     H 6447   7.786   4.909   5.942  1.4816 -0.3124  0.0664
   47MOL0     H 6448   7.789   4.967   5.345  2.2703 -1.2077 -1.9930
   47MOL0     H 6449   7.770   4.751   5.208 -0.5056 -0.4118 -0.6591
   47MOL0     H 6450   7.911   4.364   5.427 -0.2653  1.5285  0.9781
   47MOL0     H 6451   7.734   4.349   5.436 -1.3339 -1.6376 -1.6257
   47MOL0     H 6452   7.875   4.313   5.176  1.7068  0.4573  0.9017
   47MOL0     H 6453   7.855   4.172   5.283 -2.0428  0.0793  2.0986
   47MOL0     H 6454   7.627   4.352   5.175  2.3534  1.1709  2.6237
   47MOL0     H 6455   7.595   4.211   5.275 -2.0740  2.2664 -0.5942
   47MOL0     H 6456   7.713   4.067   5.097  0.5991  1.0486  0.3458
   47MOL0     H 6457   7.732   4.205   4.993 -0.0826 -1.2557 -1.6375
   47MOL0     H 6458   7.457   4.095   5.093 -0.3857 -1.5903 -0.5745
   47MOL0     H 6459   7.484   4.245   4.985 -1.1165  0.7693  2.1234
   47MOL0     H 6460   7.404   4.025   4.878 -1.5363  0.8281  0.0299
   47MOL0     H 6461   7.566   3.964   4.899 -1.9481 -0.3983  1.4634
   47MOL0     H 6462   7.659   4.094   4.754 -1.0744 -4.5531 -0.9072
   47MOL0     H 6463   7.541   4.232   4.774 -3.1612 -0.6513  0.7448
   47MOL0     H 6464   7.471   3.962   4.650  1.1404 -0.0534  0.0334
   47MOL0     H 6465   7.519   4.099   4.556 -1.5286  2.1283  0.4373
   47MOL0     H 6466   7.801   4.533   5.590  0.2634 -0.3899 -0.7070
   47MOL0     H 6467   7.773   4.733   5.715  1.8209  0.5720  0.5231
   47MOL0     H 6468   7.658   5.256   5.603  0.9031 -0.3782 -0.7635
   47MOL0     H 6469   7.685   5.475   5.746  3.8651 -0.5901 -0.4587
   47MOL0     H 6470   7.263   6.122   5.654  2.5010 -2.6830  1.7593
   47MOL0     H 6471   7.405   5.944   5.566  0.0129  0.6705 -0.7684
   47MOL0     H 6472   7.307   5.327   5.375  1.2996 -2.8706 -4.6001
   47MOL0     H 6473   7.480   5.196   5.310 -1.2351  0.8805 -2.8647
   47MOL0     H 6474   7.800   5.250   5.113  1.5754 -5.1853  0.3360
   47MOL0     H 6475   7.877   5.379   5.221 -2.0583  0.3059  4.4992
   47MOL0     H 6476   7.916   5.096   5.222 -2.8396  0.2606 -2.1058
   47MOL0     H 6477   8.006   5.214   5.315 -2.3872 -2.5077  1.9145
   47MOL0     H 6478   8.002   5.204   5.001 -0.2395  2.4802 -0.2498
   47MOL0     H 6479   8.078   5.330   5.091 -0.4587  0.5588 -6.9008
   47MOL0     H 6480   8.154   5.033   5.138 -2.7233  0.9655 -0.8114
   47MOL0     H 6481   8.248   5.180   5.186 -0.9037 -0.5345  1.9918
   47MOL0     H 6482   8.394   5.166   4.818 -2.7454  4.7703 -1.8692
   47MOL0     H 6483   7.779   5.473   5.387 -0.0009 -2.0718 -0.5273
   47MOL0     H 6484   7.743   5.657   5.491 -1.1801  0.9715  1.9380
   47MOL0     H 6485   7.648   5.752   5.375 -0.7332 -1.4575 -2.5791
   47MOL0     H 6486   7.587   5.727   5.536  1.0269  1.7003 -0.8783
   48MOL0     O 6487   3.758   9.866   8.117  0.0977  0.5860  0.8497
   48MOL0     C 6488   3.692   9.968   8.111  0.3109  0.5906 -0.0361
   48MOL0     O 6489   3.744  10.098   8.120 -0.3803 -0.4964 -1.0797
   48MOL0     C 6490   3.861  10.117   8.180 -0.9133  0.6083 -0.8673
   48MOL0     C 6491   3.874  10.203   8.291 -0.9064 -0.3089 -0.1969
   48MOL0     C 6492   4.005  10.231   8.341  0.5825  0.1234 -0.5426
   48MOL0     C 6493   4.110  10.153   8.297  0.5179  0.4862  0.2394
   48MOL0     O 6494   4.226  10.160   8.371 -0.0640  0.5383 -0.4758
   48MOL0     C 6495   4.349  10.136   8.297  0.6434 -0.1153  0.3422
   48MOL0     C 6496   4.464  10.182   8.384 -0.0861 -0.5056  0.4167
   48MOL0     C 6497   4.461  10.328   8.429 -0.1156 -0.7897  0.3300
   48MOL0     C 6498   4.595  10.396   8.474 -0.5780 -0.0948 -0.3743
   48MOL0     C 6499   4.590  10.557   8.460 -0.5328  0.3148  0.0562
   48MOL0     C 6500   4.725  10.631   8.489 -0.2046 -0.0837  0.6353
   48MOL0     C 6501   4.694  10.786   8.483  0.8747  1.0436 -1.0370
   48MOL0     C 6502   4.736  10.850   8.353 -0.9255 -0.8922 -0.0396
   48MOL0     N 6503   4.739  10.997   8.353  0.6392  0.0992  0.4883
   48MOL0     C 6504   4.665  11.091   8.290 -0.1853  0.2639 -0.3815
   48MOL0     C 6505   4.727  11.211   8.318  0.7927  0.4569 -0.1662
   48MOL0     C 6506   4.688  11.341   8.252  0.7592  0.0326 -0.5777
   48MOL0     C 6507   4.798  11.442   8.251 -0.1520 -0.1309 -0.5185
   48MOL0     C 6508   4.912  11.391   8.158  0.5539  1.0093  0.6018
   48MOL0     C 6509   5.023  11.486   8.119 -0.8783 -0.1010 -0.5158
   48MOL0     O 6510   4.998  11.531   7.982 -0.1843 -0.3448  0.0252
   48MOL0     C 6511   5.109  11.585   7.917  0.8137  0.4829  0.6432
   48MOL0     C 6512   5.221  11.640   7.985  0.8489  0.1719  0.2159
   48MOL0     C 6513   5.319  11.715   7.905  0.1902 -0.4517 -0.0608
   48MOL0     C 6514   5.421  11.802   7.984  0.0147  0.0826  0.7282
   48MOL0     C 6515   5.320  11.715   7.762 -0.5129  0.4421 -0.0153
   48MOL0     C 6516   5.436  11.783   7.681 -0.6217 -0.1032 -0.1750
   48MOL0     O 6517   5.560  11.767   7.728 -0.5083  0.4446 -0.4680
   48MOL0     C 6518   5.673  11.810   7.669 -0.1965  0.1693 -0.5956
   48MOL0     C 6519   5.679  11.920   7.591 -0.2805 -0.5096  0.6231
   48MOL0     C 6520   5.806  11.956   7.531  1.1150  0.2019 -0.0828
   48MOL0     C 6521   5.923  11.897   7.556 -0.5569  1.0293 -0.6273
   48MOL0     O 6522   6.046  11.932   7.492 -0.1199  1.5070  0.6736
   48MOL0     C 6523   6.048  11.952   7.355 -0.0813  0.1618  1.8493
   48MOL0     C 6524   6.171  11.877   7.288  0.6539  0.0593 -0.3285
   48MOL0     C 6525   6.200  11.731   7.337 -0.7524 -0.4329  0.5129
   48MOL0     C 6526   6.277  11.654   7.227  0.8488 -0.1501 -1.0306
   48MOL0     C 6527   6.350  11.523   7.262  0.4088 -0.0261  0.0540
   48MOL0     C 6528   6.450  11.527   7.373  0.5063 -0.5952  0.0686
   48MOL0     C 6529   6.540  11.402   7.381 -0.3485  0.0858 -1.0981
   48MOL0     C 6530   6.617  11.379   7.247 -0.1103 -0.1171  0.8407
   48MOL0    Cl 6531   6.740  11.252   7.294 -0.1183  0.1524 -0.0513
   48MOL0     C 6532   5.922  11.784   7.646  0.2726  0.7081 -0.3168
   48MOL0     C 6533   5.795  11.739   7.694  0.5742 -0.3119 -0.7063
   48MOL0     O 6534   5.408  11.853   7.580  0.2679  0.8276 -0.6685
   48MOL0     C 6535   5.210  11.648   7.708  1.1400 -0.0947  0.2308
   48MOL0     C 6536   5.103  11.580   7.776  0.2154  0.0554 -1.5535
   48MOL0     N 6537   4.823  11.186   8.414 -0.5395  0.0688  0.3766
   48MOL0     N 6538   4.822  11.057   8.435 -0.2083 -1.1704 -0.4687
   48MOL0     C 6539   4.092  10.065   8.194 -0.7017 -0.3367 -0.1046
   48MOL0     C 6540   3.976  10.058   8.128 -0.3961  0.4089  0.4215
   48MOL0     C 6541   3.540   9.957   8.109  0.4454 -0.9662  0.1804
   48MOL0     C 6542   3.474  10.085   8.138 -0.6512  0.4297  1.0553
   48MOL0     C 6543   3.336  10.086   8.140  0.4325 -0.2423 -0.6344
   48MOL0     C 6544   3.261   9.974   8.135 -0.0084 -0.7354  0.1556
   48MOL0     O 6545   3.124   9.995   8.139  0.0370 -0.5209  0.7836
   48MOL0     C 6546   3.038   9.887   8.134 -0.2830 -0.0410  0.3446
   48MOL0     C 6547   3.007   9.829   8.272 -0.7451 -1.0872 -0.0654
   48MOL0     C 6548   3.122   9.750   8.341 -0.4811 -0.0708  1.2569
   48MOL0     C 6549   3.078   9.673   8.466  0.5911  0.7952 -0.2705
   48MOL0     C 6550   3.193   9.641   8.557  0.6511 -0.1946  0.6035
   48MOL0     C 6551   3.283   9.605   8.624 -1.1372 -0.0369 -0.3020
   48MOL0     C 6552   3.326   9.855   8.100  0.1402 -0.3497  0.2433
   48MOL0     C 6553   3.464   9.839   8.083  0.0690 -0.1354 -0.3502
   48MOL0     C 6554   3.522   9.709   8.042  0.5740  0.0277 -0.0596
   48MOL0     H 6555   3.789  10.259   8.329 -0.6170 -2.6559  4.6686
   48MOL0     H 6556   4.019  10.301   8.423  5.8974  1.0998 -1.9233
   48MOL0     H 6557   4.348  10.190   8.202  2.1400 -0.3359  0.1718
   48MOL0     H 6558   4.359  10.028   8.284  0.6675 -0.1282  0.4682
   48MOL0     H 6559   4.459  10.121   8.474 -0.2742  0.1578  0.8601
   48MOL0     H 6560   4.550  10.172   8.317 -0.9304  0.4377 -0.8478
   48MOL0     H 6561   4.432  10.387   8.341  2.3311  0.4053  0.2468
   48MOL0     H 6562   4.390  10.341   8.510 -0.7260 -2.8547  0.1988
   48MOL0     H 6563   4.630  10.363   8.572  0.4512  0.3115 -0.5966
   48MOL0     H 6564   4.674  10.373   8.402 -1.1398  1.0934 -1.4135
   48MOL0     H 6565   4.517  10.601   8.529 -1.9365 -3.5330  1.2721
   48MOL0     H 6566   4.585  10.577   8.353  0.8591  2.1044  0.2893
   48MOL0     H 6567   4.753  10.597   8.589 -1.8335 -1.6291  0.6220
   48MOL0     H 6568   4.797  10.593   8.417  0.2466  0.7522  0.6285
   48MOL0     H 6569   4.756  10.838   8.556 -3.8960  0.8992  3.7099
   48MOL0     H 6570   4.591  10.813   8.508  1.2913  0.5966  1.3788
   48MOL0     H 6571   4.841  10.822   8.341 -0.8651 -0.4730 -0.5632
   48MOL0     H 6572   4.689  10.810   8.263 -1.8785  0.3884 -0.1534
   48MOL0     H 6573   4.591  11.073   8.212  0.2746  1.3036 -1.0855
   48MOL0     H 6574   4.602  11.381   8.307  0.7966  0.2267 -0.6624
   48MOL0     H 6575   4.651  11.314   8.153 -0.9463 -0.9225  0.2663
   48MOL0     H 6576   4.766  11.544   8.227  1.5037  0.6870  0.5125
   48MOL0     H 6577   4.837  11.441   8.353 -1.3480  1.9139  0.0118
   48MOL0     H 6578   4.949  11.299   8.204 -1.9047 -1.0140 -1.1682
   48MOL0     H 6579   4.867  11.349   8.068  1.0021  1.5079  0.1361
   48MOL0     H 6580   5.018  11.565   8.195  0.8784 -0.0816 -0.3748
   48MOL0     H 6581   5.116  11.430   8.126  0.6913  2.3849  0.0605
   48MOL0     H 6582   5.230  11.650   8.093 -1.8242  1.8397  0.3593
   48MOL0     H 6583   5.437  11.901   7.939  0.6802  0.4641  1.7666
   48MOL0     H 6584   5.518  11.754   7.994 -0.0439 -0.0173  0.8229
   48MOL0     H 6585   5.388  11.827   8.086  0.5174 -2.2640  1.5345
   48MOL0     H 6586   5.596  11.987   7.574  0.6365  0.6099  0.3998
   48MOL0     H 6587   5.805  12.043   7.466  0.2980 -0.1578 -0.5703
   48MOL0     H 6588   5.961  11.903   7.308 -0.4287  1.1243  1.4768
   48MOL0     H 6589   6.060  12.060   7.355  1.2191  0.0318  1.5163
   48MOL0     H 6590   6.143  11.870   7.182  0.8481 -2.4568 -0.2671
   48MOL0     H 6591   6.250  11.949   7.308 -0.8616  1.4996  0.7888
   48MOL0     H 6592   6.105  11.676   7.340  0.4215 -2.6214 -0.0688
   48MOL0     H 6593   6.253  11.728   7.433  0.6040 -1.0485 -0.2331
   48MOL0     H 6594   6.344  11.722   7.174  2.0561 -1.2700 -0.9922
   48MOL0     H 6595   6.206  11.631   7.148  1.5420 -0.8901 -1.4517
   48MOL0     H 6596   6.276  11.451   7.299  0.5926 -0.8150 -1.0543
   48MOL0     H 6597   6.382  11.472   7.170 -0.3551  0.8913 -0.7435
   48MOL0     H 6598   6.387  11.536   7.462  1.5277 -3.8557  1.2571
   48MOL0     H 6599   6.517  11.612   7.356  1.3162 -1.1914  0.1997
   48MOL0     H 6600   6.476  11.314   7.394  0.9213 -1.3090 -3.4670
   48MOL0     H 6601   6.601  11.418   7.470  1.5022  0.2661 -2.3450
   48MOL0     H 6602   6.664  11.471   7.211  1.3125 -1.3584 -0.6171
   48MOL0     H 6603   6.554  11.345   7.165  0.8259  1.3657 -0.5434
   48MOL0     H 6604   6.014  11.730   7.665  1.0405  2.3481  0.9984
   48MOL0     H 6605   5.777  11.650   7.754 -2.3918  0.8318  0.2685
   48MOL0     H 6606   5.197  11.652   7.600  0.1880 -0.6822  0.3164
   48MOL0     H 6607   5.017  11.530   7.734 -2.2898  3.5756 -1.1022
   48MOL0     H 6608   4.175   9.997   8.182 -1.7426 -2.9426  4.9702
   48MOL0     H 6609   3.963   9.998   8.039 -2.5264 -0.1683  1.0617
   48MOL0     H 6610   3.534  10.174   8.151  1.0480 -0.1053 -2.1232
   48MOL0     H 6611   3.272  10.174   8.151  0.4964 -0.3256  0.4584
   48MOL0     H 6612   2.947   9.936   8.098  1.8672  2.5780 -2.0340
   48MOL0     H 6613   3.064   9.811   8.060  1.9551  2.4081 -1.5528
   48MOL0     H 6614   2.914   9.772   8.264 -3.2760  2.4347  1.4632
   48MOL0     H 6615   2.989   9.914   8.338  0.7936 -1.2598  0.6179
   48MOL0     H 6616   3.159   9.678   8.268  1.5124 -0.3289  2.4668
   48MOL0     H 6617   3.200   9.822   8.366 -0.1029  0.0859 -0.2863
   48MOL0     H 6618   3.031   9.579   8.434  0.0837  0.8614  0.2667
   48MOL0     H 6619   2.995   9.722   8.516 -0.6675 -0.7982 -0.7314
   48MOL0     H 6620   3.358   9.564   8.688  1.0432  2.0427 -1.3515
   48MOL0     H 6621   3.277   9.759   8.087  1.0210 -0.5123 -2.3452
   48MOL0     H 6622   3.583   9.727   7.953  1.5943  2.4802  1.0468
   48MOL0     H 6623   3.579   9.656   8.119 -1.5089 -1.1148  0.7814
   48MOL0     H 6624   3.434   9.645   8.028 -0.1405  0.5022  1.9155
   49MOL0     O 6625   3.048   0.342   9.163 -0.4170  0.0490 -0.3277
   49MOL0     C 6626   3.035   0.419   9.257  0.0802  0.3566 -0.5104
   49MOL0     O 6627   3.083   0.398   9.387  0.5438  0.1767 -0.8299
   49MOL0     C 6628   3.152   0.279   9.400  0.9464  0.2574  0.0453
   49MOL0     C 6629   3.083   0.160   9.390  0.3499  0.0569  0.5754
   49MOL0     C 6630   3.142   0.042   9.379  0.5997  0.7159  0.5466
   49MOL0     C 6631   3.284   0.029   9.389 -0.1131  0.3995 -0.3673
   49MOL0     O 6632   3.327  -0.103   9.409  0.2424 -0.5557  0.2660
   49MOL0     C 6633   3.450  -0.125   9.454 -0.3733 -0.4839  0.0617
   49MOL0     C 6634   3.448  -0.239   9.548 -0.6437 -1.1574 -0.3637
   49MOL0     C 6635   3.399  -0.365   9.479 -0.5806  0.6856 -0.0780
   49MOL0     C 6636   3.452  -0.483   9.549 -0.4899 -0.4180 -0.1687
   49MOL0     C 6637   3.378  -0.610   9.520 -0.2572  0.0243  0.8404
   49MOL0     C 6638   3.460  -0.736   9.543 -0.7478  0.1436  0.2113
   49MOL0     C 6639   3.387  -0.861   9.497 -0.0927 -0.6581 -0.5967
   49MOL0     C 6640   3.317  -0.917   9.615  0.6516  0.7624  0.2107
   49MOL0     N 6641   3.401  -1.000   9.706 -0.0440  0.6602  0.5084
   49MOL0     C 6642   3.454  -1.123   9.673 -0.9552 -0.3479  0.3063
   49MOL0     C 6643   3.532  -1.157   9.778  0.3967 -0.1579  0.3444
   49MOL0     C 6644   3.645  -1.260   9.768 -0.7400 -0.6519 -0.4695
   49MOL0     C 6645   3.618  -1.367   9.868 -0.1257  0.9125  0.5861
   49MOL0     C 6646   3.627  -1.326  10.012  0.5209 -0.6843 -0.0284
   49MOL0     C 6647   3.492  -1.315  10.087  0.2132 -0.2266  0.1883
   49MOL0     O 6648   3.515  -1.277  10.229 -0.2241 -0.8624  0.4496
   49MOL0     C 6649   3.434  -1.317  10.325  0.0802 -0.4399  0.3680
   49MOL0     C 6650   3.501  -1.308  10.443  0.9195  0.2313 -0.6887
   49MOL0     C 6651   3.438  -1.377  10.554 -1.4702  0.5405  0.0183
   49MOL0     C 6652   3.497  -1.355  10.694  1.0081 -0.3475 -0.1582
   49MOL0     C 6653   3.313  -1.446  10.538  0.4318 -1.3758  1.2270
   49MOL0     C 6654   3.265  -1.549  10.639 -0.2646  0.3601 -0.1473
   49MOL0     O 6655   3.199  -1.663  10.596  0.4049  0.2365  0.3142
   49MOL0     C 6656   3.236  -1.781  10.668  0.4107 -0.8501 -0.1882
   49MOL0     C 6657   3.132  -1.879  10.673  0.0238  0.1850 -0.7417
   49MOL0     C 6658   3.140  -2.006  10.731  0.2635  0.1639 -0.1690
   49MOL0     C 6659   3.264  -2.027  10.805 -0.4571 -0.2577  0.3361
   49MOL0     O 6660   3.305  -2.148  10.857  0.0273  0.3961  0.3393
   49MOL0     C 6661   3.329  -2.246  10.762  0.2882  0.3791 -0.2622
   49MOL0     C 6662   3.381  -2.371  10.828 -0.5647  1.1044  1.0284
   49MOL0     C 6663   3.269  -2.459  10.887  0.1398  0.3907 -0.0597
   49MOL0     C 6664   3.317  -2.593  10.937  0.9377  0.5819 -1.0509
   49MOL0     C 6665   3.208  -2.671  11.015 -0.5488  0.0966 -0.8123
   49MOL0     C 6666   3.263  -2.793  11.085  0.6836 -0.2489 -0.6339
   49MOL0     C 6667   3.153  -2.849  11.180  0.9902  0.8536 -0.0029
   49MOL0     C 6668   3.105  -2.747  11.289 -0.9060 -0.0394 -0.4144
   49MOL0    Cl 6669   3.033  -2.846  11.411  0.2261  0.1149 -0.1330
   49MOL0     C 6670   3.363  -1.927  10.825  0.6712  0.7112  0.3665
   49MOL0     C 6671   3.353  -1.808  10.749 -0.1477 -1.3379  0.0495
   49MOL0     O 6672   3.266  -1.507  10.755  0.3321 -0.1341 -0.2450
   49MOL0     C 6673   3.239  -1.437  10.417 -0.0134  0.1432 -0.0043
   49MOL0     C 6674   3.303  -1.365  10.310  0.2915 -0.1809 -0.5371
   49MOL0     N 6675   3.523  -1.057   9.874 -0.8485 -0.4556 -0.5912
   49MOL0     N 6676   3.452  -0.960   9.818  0.2082 -0.5277  0.4090
   49MOL0     C 6677   3.352   0.148   9.406  1.3308 -0.1620 -0.7295
   49MOL0     C 6678   3.288   0.272   9.397  0.1061  1.1573  0.1997
   49MOL0     C 6679   2.950   0.539   9.243 -0.1312 -0.2010  0.0613
   49MOL0     C 6680   2.892   0.592   9.358 -0.0683  0.3949 -0.2123
   49MOL0     C 6681   2.807   0.697   9.356 -0.5372 -0.3505  0.5312
   49MOL0     C 6682   2.784   0.762   9.238  0.9576  0.2914  0.5159
   49MOL0     O 6683   2.699   0.876   9.240 -0.6951  0.2196  0.0469
   49MOL0     C 6684   2.654   0.936   9.116 -0.0509 -0.5894  1.4536
   49MOL0     C 6685   2.639   1.096   9.116 -0.1069 -0.6885  0.3415
   49MOL0     C 6686   2.526   1.152   9.200  0.1866  0.3478  0.0571
   49MOL0     C 6687   2.519   1.300   9.169  0.0059  0.1000 -1.1229
   49MOL0     C 6688   2.424   1.373   9.251  0.3268  0.7090 -0.2185
   49MOL0     C 6689   2.354   1.427   9.339  0.6350  0.4274 -0.6628
   49MOL0     C 6690   2.855   0.721   9.121 -0.3223 -0.0125  0.2678
   49MOL0     C 6691   2.938   0.605   9.126 -0.8277 -0.7182 -0.7750
   49MOL0     C 6692   3.017   0.564   8.997  0.3153 -0.2817 -0.7858
   49MOL0     H 6693   2.975   0.161   9.392  0.3201 -1.3220  1.5611
   49MOL0     H 6694   3.077  -0.044   9.372 -0.8207  1.6875  1.3869
   49MOL0     H 6695   3.493  -0.045   9.516  2.3348 -0.6408 -1.4650
   49MOL0     H 6696   3.525  -0.138   9.375  0.5448  2.5675  0.3056
   49MOL0     H 6697   3.551  -0.252   9.580 -1.2182  2.0048  3.6121
   49MOL0     H 6698   3.392  -0.213   9.639 -0.5000 -0.4076 -0.4859
   49MOL0     H 6699   3.292  -0.378   9.501 -0.5388 -0.5092 -0.5525
   49MOL0     H 6700   3.424  -0.373   9.373  1.9423 -0.9875  0.5624
   49MOL0     H 6701   3.552  -0.487   9.504 -1.4536 -0.6512 -2.3811
   49MOL0     H 6702   3.463  -0.470   9.657 -0.0441 -2.3644  0.0622
   49MOL0     H 6703   3.341  -0.620   9.418  0.7860 -1.2157  0.5536
   49MOL0     H 6704   3.282  -0.607   9.572 -0.6392  1.9831  0.1088
   49MOL0     H 6705   3.545  -0.722   9.475  0.7801 -1.9595  1.5365
   49MOL0     H 6706   3.501  -0.738   9.644  2.7468  1.7692 -1.0113
   49MOL0     H 6707   3.459  -0.938   9.467 -0.7577 -1.8661  0.8082
   49MOL0     H 6708   3.307  -0.842   9.425 -0.5136  0.5802  0.1766
   49MOL0     H 6709   3.270  -0.838   9.674  1.6483  1.3733  0.2007
   49MOL0     H 6710   3.241  -0.981   9.568  1.1153 -0.9737  1.6921
   49MOL0     H 6711   3.441  -1.176   9.579 -1.2998  0.9995 -0.4207
   49MOL0     H 6712   3.738  -1.208   9.792  0.0052 -0.1076 -4.0038
   49MOL0     H 6713   3.656  -1.302   9.668 -1.3421 -2.5879  0.2235
   49MOL0     H 6714   3.516  -1.404   9.855 -0.4704  1.2552  2.0534
   49MOL0     H 6715   3.694  -1.445   9.860  1.1562  2.1056  0.6863
   49MOL0     H 6716   3.692  -1.392  10.072  0.9335 -1.9352 -1.7680
   49MOL0     H 6717   3.663  -1.223  10.020 -5.2036  1.8848 -1.9650
   49MOL0     H 6718   3.422  -1.237  10.056 -1.7709 -2.0019 -0.0828
   49MOL0     H 6719   3.440  -1.411  10.099  0.1774 -0.2370 -0.0436
   49MOL0     H 6720   3.597  -1.261  10.460  1.5589 -1.1243 -0.4895
   49MOL0     H 6721   3.416  -1.335  10.764 -0.4626 -2.0486 -1.2929
   49MOL0     H 6722   3.559  -1.265  10.697 -0.2596  0.7698 -3.2113
   49MOL0     H 6723   3.552  -1.441  10.734 -0.4588 -0.3542  2.0182
   49MOL0     H 6724   3.035  -1.859  10.628 -0.2214 -1.3041 -0.9289
   49MOL0     H 6725   3.057  -2.075  10.721  0.0774  0.7039 -3.4903
   49MOL0     H 6726   3.239  -2.279  10.709  0.4086 -2.0250  0.9171
   49MOL0     H 6727   3.408  -2.210  10.695  0.4704  1.9938  0.7629
   49MOL0     H 6728   3.422  -2.430  10.746  2.0717  2.4573  1.2915
   49MOL0     H 6729   3.469  -2.343  10.887  0.7694 -1.4759  0.3947
   49MOL0     H 6730   3.193  -2.473  10.810  0.9204  0.3941 -0.8495
   49MOL0     H 6731   3.222  -2.405  10.970  0.4188 -2.1827  1.9033
   49MOL0     H 6732   3.409  -2.573  10.993  0.7584 -2.3651  0.4475
   49MOL0     H 6733   3.346  -2.663  10.859  0.0578 -0.4797 -0.4531
   49MOL0     H 6734   3.156  -2.606  11.085  0.0991 -0.9726  0.7005
   49MOL0     H 6735   3.129  -2.695  10.943 -1.1838 -0.9144  0.2007
   49MOL0     H 6736   3.349  -2.768  11.148  2.5096 -0.7465 -2.7842
   49MOL0     H 6737   3.295  -2.869  11.013 -2.0651 -2.0672 -0.0977
   49MOL0     H 6738   3.194  -2.932  11.239 -2.0021 -1.3673 -0.7827
   49MOL0     H 6739   3.072  -2.889  11.118  2.5311 -0.9895 -0.9400
   49MOL0     H 6740   3.027  -2.697  11.231 -1.4569 -0.7058 -0.2664
   49MOL0     H 6741   3.186  -2.680  11.319  0.3972 -2.6596  2.5446
   49MOL0     H 6742   3.451  -1.937  10.888  0.0649  0.7268  1.2367
   49MOL0     H 6743   3.431  -1.733  10.755  2.6581 -3.9457 -1.1699
   49MOL0     H 6744   3.148  -1.496  10.413  2.2946 -3.6465 -0.9309
   49MOL0     H 6745   3.249  -1.355  10.217  0.5731 -0.4386 -0.7311
   49MOL0     H 6746   3.460   0.152   9.408  1.3129  0.7576 -1.1714
   49MOL0     H 6747   3.342   0.366   9.393  2.7380 -0.2798 -0.3038
   49MOL0     H 6748   2.890   0.549   9.458 -3.5194 -0.5208 -0.5489
   49MOL0     H 6749   2.782   0.749   9.448  2.6587 -0.3757  1.5363
   49MOL0     H 6750   2.712   0.907   9.028  2.0237 -0.7601  2.7967
   49MOL0     H 6751   2.551   0.900   9.105 -2.7703  5.9225  0.8036
   49MOL0     H 6752   2.640   1.146   9.019  0.2223 -1.8629 -0.2776
   49MOL0     H 6753   2.727   1.133   9.170 -0.1895 -1.2620  0.8875
   49MOL0     H 6754   2.431   1.100   9.184  0.3330  0.7259 -2.4222
   49MOL0     H 6755   2.542   1.162   9.308  2.0258  1.0864 -0.2487
   49MOL0     H 6756   2.492   1.317   9.065  0.3737  1.8080 -0.9607
   49MOL0     H 6757   2.617   1.344   9.192 -1.6011  2.4954  2.0302
   49MOL0     H 6758   2.296   1.477   9.415  1.9294  1.3077 -0.2158
   49MOL0     H 6759   2.846   0.757   9.019  1.0627  1.7177  0.7027
   49MOL0     H 6760   2.988   0.624   8.910  0.5770 -0.4525 -0.9890
   49MOL0     H 6761   3.126   0.564   8.996  0.3312 -2.2057 -1.8353
   49MOL0     H 6762   2.995   0.465   8.956  5.5765 -0.2601 -4.5501
   50MOL0     O 6763   3.744   7.596   9.601 -0.4157  0.8765 -0.8216
   50MOL0     C 6764   3.632   7.632   9.624  0.3797 -0.0040  0.0771
   50MOL0     O 6765   3.590   7.704   9.729 -0.3425 -0.3925  0.2807
   50MOL0     C 6766   3.670   7.787   9.798  0.5897  0.2194 -0.2921
   50MOL0     C 6767   3.608   7.871   9.887  0.2919  0.1300 -0.2640
   50MOL0     C 6768   3.690   7.957   9.961  0.5379 -0.9374  0.3028
   50MOL0     C 6769   3.827   7.969   9.950 -0.3878 -0.1231  0.3234
   50MOL0     O 6770   3.918   8.053   9.999 -0.2448 -0.7370  0.1493
   50MOL0     C 6771   3.871   8.177  10.057 -0.1731  0.0384 -0.2356
   50MOL0     C 6772   3.840   8.154  10.206 -0.1850  0.2164  1.3864
   50MOL0     C 6773   3.780   8.276  10.268  0.1229  0.0874 -0.6218
   50MOL0     C 6774   3.753   8.240  10.416 -0.1391  0.5638 -0.1186
   50MOL0     C 6775   3.856   8.287  10.516 -0.5958  0.4167  0.6964
   50MOL0     C 6776   3.803   8.266  10.648 -1.0322  0.0465  0.1412
   50MOL0     C 6777   3.906   8.269  10.759  0.0567 -0.7149 -0.1976
   50MOL0     C 6778   3.863   8.232  10.903 -0.2011 -0.5396 -0.2386
   50MOL0     N 6779   3.753   8.302  10.985 -0.1629  0.8748 -0.0080
   50MOL0     C 6780   3.751   8.307  11.126  0.0628 -0.0154  0.1613
   50MOL0     C 6781   3.648   8.386  11.164 -0.0100 -1.0507  0.0711
   50MOL0     C 6782   3.591   8.442  11.287  0.3068  0.2314  0.7044
   50MOL0     C 6783   3.446   8.414  11.311  1.1500 -0.0211 -0.3747
   50MOL0     C 6784   3.387   8.468  11.449  0.1691  0.0232 -0.3864
   50MOL0     C 6785   3.398   8.614  11.480  0.3334 -0.7054  0.6522
   50MOL0     O 6786   3.309   8.640  11.591  0.4325 -0.3325  0.0908
   50MOL0     C 6787   3.337   8.762  11.653 -0.9988  1.0597  0.6294
   50MOL0     C 6788   3.253   8.800  11.756  0.4118 -0.1292  0.0964
   50MOL0     C 6789   3.264   8.929  11.813  0.0661  0.5397  0.6543
   50MOL0     C 6790   3.167   8.957  11.930  0.3430  0.0964  0.7227
   50MOL0     C 6791   3.354   9.023  11.753  0.9530  0.6182 -1.0088
   50MOL0     C 6792   3.339   9.172  11.772  0.8109 -0.2242  0.1015
   50MOL0     O 6793   3.434   9.251  11.723 -0.2549 -0.3102  0.9451
   50MOL0     C 6794   3.431   9.384  11.733 -1.4916  0.0186 -0.2521
   50MOL0     C 6795   3.477   9.455  11.625  0.8643  0.7020 -0.0652
   50MOL0     C 6796   3.507   9.588  11.637 -0.1497  0.6861  0.2635
   50MOL0     C 6797   3.491   9.659  11.757 -0.1575 -0.3108  0.5882
   50MOL0     O 6798   3.522   9.796  11.751  0.2430  0.7999  0.3149
   50MOL0     C 6799   3.477   9.887  11.855  0.0117  0.1236 -0.1617
   50MOL0     C 6800   3.588   9.982  11.882 -0.6919 -1.5904  0.0694
   50MOL0     C 6801   3.547  10.095  11.977  0.0889  0.1682  0.1158
   50MOL0     C 6802   3.602  10.234  11.969 -0.6036  0.4134  0.2762
   50MOL0     C 6803   3.590  10.307  12.109  0.6889  0.2026 -0.7239
   50MOL0     C 6804   3.449  10.355  12.133  1.3011  0.3234  0.1806
   50MOL0     C 6805   3.428  10.401  12.277 -0.0402  0.1040 -0.2714
   50MOL0     C 6806   3.442  10.563  12.305  0.0150  0.4568 -0.3314
   50MOL0    Cl 6807   3.364  10.589  12.470 -0.3269  0.1682  0.3487
   50MOL0     C 6808   3.461   9.585  11.865  0.1295  0.3000  0.9985
   50MOL0     C 6809   3.425   9.449  11.857 -0.8595  0.2016 -0.6421
   50MOL0     O 6810   3.243   9.211  11.840 -0.0717 -0.1785 -0.1916
   50MOL0     C 6811   3.443   8.974  11.661 -0.0747  0.2180  0.6432
   50MOL0     C 6812   3.430   8.851  11.603  1.5307  0.4786 -0.9794
   50MOL0     N 6813   3.587   8.415  11.038  0.8782 -0.3752 -0.7293
   50MOL0     N 6814   3.648   8.362  10.935 -0.8995 -0.1719 -0.1889
   50MOL0     C 6815   3.891   7.869   9.887 -0.5412 -0.5230 -0.0440
   50MOL0     C 6816   3.814   7.778   9.814  0.2906 -0.0868 -0.3919
   50MOL0     C 6817   3.520   7.582   9.534  0.5599 -0.4679 -0.2080
   50MOL0     C 6818   3.385   7.608   9.580 -0.1566  0.6710 -0.0141
   50MOL0     C 6819   3.276   7.556   9.512 -0.0391 -0.0021 -0.0103
   50MOL0     C 6820   3.304   7.478   9.399 -0.1246  0.5712 -0.0220
   50MOL0     O 6821   3.198   7.420   9.335 -0.1999  1.3198 -0.0033
   50MOL0     C 6822   3.079   7.392   9.406 -0.4715  0.8056 -0.1394
   50MOL0     C 6823   3.095   7.279   9.507  0.7910 -0.5277 -0.3504
   50MOL0     C 6824   2.960   7.207   9.536  0.2935 -0.1736  0.6711
   50MOL0     C 6825   2.860   7.278   9.626 -0.3556 -0.3707 -0.3525
   50MOL0     C 6826   2.791   7.383   9.559 -0.1279  0.3194 -0.2452
   50MOL0     C 6827   2.750   7.486   9.509 -0.1273  0.2286 -0.8761
   50MOL0     C 6828   3.430   7.453   9.351 -0.7354 -1.0190 -0.3784
   50MOL0     C 6829   3.538   7.504   9.420 -0.0467  0.2231  0.1625
   50MOL0     C 6830   3.681   7.459   9.365 -0.1887  0.2212 -0.8914
   50MOL0     H 6831   3.501   7.877   9.903  0.0551 -0.7408 -1.3602
   50MOL0     H 6832   3.645   8.038  10.018  0.9579  0.0076 -0.6690
   50MOL0     H 6833   3.789   8.218   9.997 -2.3298 -0.2794  2.3096
   50MOL0     H 6834   3.951   8.252  10.054 -0.6695  0.6972  1.5663
   50MOL0     H 6835   3.777   8.064  10.211  1.8581 -1.2348  2.0244
   50MOL0     H 6836   3.933   8.123  10.253  1.8909  3.1719 -0.4714
   50MOL0     H 6837   3.844   8.364  10.274  0.0733  0.0237  2.5474
   50MOL0     H 6838   3.691   8.304  10.211 -2.6504  0.7162  3.5198
   50MOL0     H 6839   3.650   8.275  10.430 -0.5849 -1.2836  1.8997
   50MOL0     H 6840   3.742   8.132  10.426  0.2391  0.6406  1.3351
   50MOL0     H 6841   3.877   8.393  10.497  0.6890 -0.0162 -0.4438
   50MOL0     H 6842   3.946   8.228  10.498 -0.8424  1.0644 -3.6608
   50MOL0     H 6843   3.728   8.345  10.663 -0.6639  1.0384 -2.7097
   50MOL0     H 6844   3.759   8.166  10.649  0.9632 -0.9555 -2.6409
   50MOL0     H 6845   3.932   8.374  10.780 -2.5499 -0.2899  1.3798
   50MOL0     H 6846   3.996   8.208  10.744  0.6210 -0.5780  2.1929
   50MOL0     H 6847   3.828   8.128  10.906 -0.6304 -0.3772  0.4171
   50MOL0     H 6848   3.957   8.240  10.959 -0.5719  0.6079  0.2446
   50MOL0     H 6849   3.828   8.268  11.193 -0.6962  2.0768  2.4051
   50MOL0     H 6850   3.609   8.550  11.288  0.9466  0.2526 -2.4977
   50MOL0     H 6851   3.649   8.399  11.370  0.1525 -1.8340 -0.2023
   50MOL0     H 6852   3.379   8.464  11.241 -0.5214  0.9423  1.7783
   50MOL0     H 6853   3.422   8.308  11.298 -0.4743  0.4376 -1.4059
   50MOL0     H 6854   3.279   8.458  11.434  0.2109 -0.0173 -0.6559
   50MOL0     H 6855   3.413   8.412  11.539  2.7978 -2.4149 -2.4987
   50MOL0     H 6856   3.495   8.633  11.527  1.8108  1.1171 -2.7603
   50MOL0     H 6857   3.392   8.667  11.384  2.7564 -1.3669  0.0766
   50MOL0     H 6858   3.169   8.747  11.800  0.2653  1.7008  2.2142
   50MOL0     H 6859   3.082   8.991  11.870  1.3293  0.0041 -0.7908
   50MOL0     H 6860   3.201   9.027  12.007 -1.0395  1.6712 -0.0316
   50MOL0     H 6861   3.147   8.859  11.974 -1.0332  0.3725  0.7561
   50MOL0     H 6862   3.498   9.396  11.537 -0.9395 -1.1721  0.6680
   50MOL0     H 6863   3.535   9.644  11.548  0.2835  2.1357  1.2776
   50MOL0     H 6864   3.385   9.936  11.822  0.2175  0.6571  0.0367
   50MOL0     H 6865   3.462   9.831  11.948 -0.7250  0.5887  0.0050
   50MOL0     H 6866   3.674   9.936  11.932  1.1648 -0.5793 -1.9716
   50MOL0     H 6867   3.620  10.025  11.786  0.0053  3.6556  2.2907
   50MOL0     H 6868   3.585  10.049  12.069 -1.6524  0.7064  1.1534
   50MOL0     H 6869   3.439  10.109  11.981  0.4069  3.0279  1.1803
   50MOL0     H 6870   3.562  10.291  11.885  2.3731  0.8011 -0.9826
   50MOL0     H 6871   3.709  10.220  11.952 -0.7324  1.0356 -1.2059
   50MOL0     H 6872   3.626  10.238  12.185  0.3920 -1.8890 -2.3787
   50MOL0     H 6873   3.656  10.395  12.109  1.9549 -0.6800  0.9031
   50MOL0     H 6874   3.376  10.274  12.124  1.8298 -0.4243  2.2413
   50MOL0     H 6875   3.417  10.436  12.066 -2.7546  0.1716  1.6438
   50MOL0     H 6876   3.490  10.348  12.350 -0.8905  0.7041  0.9296
   50MOL0     H 6877   3.323  10.377  12.300  1.1823 -3.2549  2.7996
   50MOL0     H 6878   3.384  10.624  12.234  1.0523  1.6171 -0.2345
   50MOL0     H 6879   3.547  10.594  12.305  0.3147 -0.2896  2.9102
   50MOL0     H 6880   3.454   9.636  11.961  2.2610 -1.6069  2.2686
   50MOL0     H 6881   3.418   9.389  11.948  0.0922 -2.3622 -2.1465
   50MOL0     H 6882   3.505   9.048  11.611 -2.7734  2.1457 -0.1141
   50MOL0     H 6883   3.484   8.843  11.509  2.9605 -1.5918 -0.0653
   50MOL0     H 6884   3.998   7.878   9.872 -0.6469  2.2341  0.3574
   50MOL0     H 6885   3.876   7.703   9.767  1.8165  0.3984  0.7705
   50MOL0     H 6886   3.357   7.670   9.664 -1.5384 -0.9349  0.7644
   50MOL0     H 6887   3.182   7.592   9.551  0.6105 -2.0796  4.0752
   50MOL0     H 6888   3.022   7.474   9.450 -2.5233 -0.7346  0.2014
   50MOL0     H 6889   3.011   7.369   9.324 -3.0087  3.4055  1.0733
   50MOL0     H 6890   3.145   7.317   9.597 -0.8644  1.0019 -0.0389
   50MOL0     H 6891   3.166   7.207   9.465  0.1354 -1.8479  0.7263
   50MOL0     H 6892   2.926   7.178   9.435 -1.1064 -1.1458  1.3792
   50MOL0     H 6893   2.988   7.115   9.588 -1.2557 -2.0364 -1.5638
   50MOL0     H 6894   2.912   7.333   9.704 -2.2724  1.2287 -0.1307
   50MOL0     H 6895   2.791   7.206   9.672 -4.6441  3.7697  0.4429
   50MOL0     H 6896   2.693   7.571   9.476 -2.4912  0.7253  3.6146
   50MOL0     H 6897   3.456   7.406   9.257  1.8258  1.8013 -1.2640
   50MOL0     H 6898   3.731   7.386   9.429  0.2497  0.5887 -0.8093
   50MOL0     H 6899   3.684   7.404   9.271  1.5856 -0.8138 -0.2657
   50MOL0     H 6900   3.752   7.542   9.358  3.5765 -2.4097  1.8494
   51MOL0     O 6901   0.319   1.692   1.234 -0.6563 -0.2688  0.3012
   51MOL0     C 6902   0.238   1.689   1.144  0.7002 -0.3350 -0.3116
   51MOL0     O 6903   0.115   1.626   1.149  0.1185 -0.5049 -0.3261
   51MOL0     C 6904   0.080   1.551   1.263 -0.5282 -0.1561 -0.3239
   51MOL0     C 6905   0.154   1.439   1.299 -0.4101  0.5365  1.0906
   51MOL0     C 6906   0.106   1.356   1.404  0.4459  0.0749  1.0808
   51MOL0     C 6907  -0.015   1.384   1.476 -0.2488 -0.2286  0.3886
   51MOL0     O 6908  -0.060   1.296   1.577 -0.0254  0.9948  0.8969
   51MOL0     C 6909  -0.170   1.319   1.660  0.0555 -0.2699 -0.5388
   51MOL0     C 6910  -0.185   1.200   1.765  0.3753 -0.9062  0.3295
   51MOL0     C 6911  -0.316   1.211   1.851 -0.4002  0.3274 -0.2707
   51MOL0     C 6912  -0.289   1.308   1.964 -0.9735 -0.0502  0.9653
   51MOL0     C 6913  -0.397   1.305   2.074 -0.3965 -0.0837  0.6696
   51MOL0     C 6914  -0.361   1.390   2.190 -0.5669  0.4546  0.0788
   51MOL0     C 6915  -0.451   1.386   2.315 -0.8763  0.6492 -0.2811
   51MOL0     C 6916  -0.365   1.416   2.437 -0.2573  0.1573  0.0805
   51MOL0     N 6917  -0.420   1.345   2.554  0.1836 -0.0120  1.0755
   51MOL0     C 6918  -0.547   1.336   2.595 -0.2132 -0.1247  0.1469
   51MOL0     C 6919  -0.564   1.219   2.665 -0.7079 -0.9875 -0.2561
   51MOL0     C 6920  -0.679   1.164   2.743 -0.2584 -0.0068  1.1977
   51MOL0     C 6921  -0.735   1.277   2.844 -0.5584  1.1203  0.5362
   51MOL0     C 6922  -0.626   1.296   2.947 -0.1116 -0.2087  0.2233
   51MOL0     C 6923  -0.662   1.408   3.045  0.4917  0.7865  0.9832
   51MOL0     O 6924  -0.699   1.532   2.974 -0.1556 -0.0826 -1.2214
   51MOL0     C 6925  -0.603   1.600   2.904 -0.2597  0.5747 -0.1445
   51MOL0     C 6926  -0.645   1.709   2.825 -0.2692  0.7955  1.1666
   51MOL0     C 6927  -0.557   1.774   2.738 -0.1641 -0.2941  0.2032
   51MOL0     C 6928  -0.620   1.895   2.660 -0.5039 -0.8163 -0.4257
   51MOL0     C 6929  -0.425   1.735   2.727 -0.8247 -0.2220 -0.7822
   51MOL0     C 6930  -0.335   1.798   2.635 -0.1933  0.5570  0.1057
   51MOL0     O 6931  -0.205   1.799   2.683 -0.7903 -0.1823  0.5017
   51MOL0     C 6932  -0.111   1.815   2.584 -0.1797 -0.8653 -0.5363
   51MOL0     C 6933  -0.031   1.934   2.562 -0.1939 -0.3991 -0.5600
   51MOL0     C 6934   0.063   1.954   2.462  0.0722  1.1642  0.3600
   51MOL0     C 6935   0.070   1.849   2.363  0.8223  0.3126 -0.6499
   51MOL0     O 6936   0.141   1.864   2.252 -0.4563 -0.2447  0.0417
   51MOL0     C 6937   0.173   1.999   2.209  0.4704  0.1838 -0.2231
   51MOL0     C 6938   0.225   1.990   2.067  0.0664  0.5636  0.0393
   51MOL0     C 6939   0.212   2.121   1.991 -1.2621 -0.0112 -0.0218
   51MOL0     C 6940   0.084   2.136   1.905  0.1147  0.0745  0.1820
   51MOL0     C 6941   0.089   2.262   1.818  0.4504 -0.8412 -0.1401
   51MOL0     C 6942   0.057   2.389   1.908  0.7873 -0.0621 -0.0671
   51MOL0     C 6943   0.069   2.528   1.823 -0.1108  0.2746 -0.0357
   51MOL0     C 6944   0.010   2.642   1.906  0.1504 -0.0824  0.2141
   51MOL0    Cl 6945   0.125   2.694   2.036 -0.5386 -0.2856 -0.1835
   51MOL0     C 6946   0.006   1.729   2.389  0.0783 -0.7009  0.2921
   51MOL0     C 6947  -0.083   1.710   2.496  0.4328  0.2063 -0.0797
   51MOL0     O 6948  -0.378   1.825   2.522 -1.0240 -0.5219  0.6758
   51MOL0     C 6949  -0.380   1.646   2.821 -0.7681  0.4699  0.8082
   51MOL0     C 6950  -0.464   1.579   2.913 -0.2435  0.1967 -0.0124
   51MOL0     N 6951  -0.441   1.169   2.677 -0.4787  0.0450 -1.4551
   51MOL0     N 6952  -0.360   1.232   2.605  0.3535  0.5223 -1.0026
   51MOL0     C 6953  -0.083   1.502   1.437  0.4185  0.5491 -1.3412
   51MOL0     C 6954  -0.032   1.583   1.341 -0.5218 -0.2321 -0.4298
   51MOL0     C 6955   0.269   1.793   1.036 -0.4905  0.7621  0.3948
   51MOL0     C 6956   0.393   1.851   1.032 -0.4075  0.7965  0.7930
   51MOL0     C 6957   0.441   1.932   0.924  0.2113  0.5104 -1.1217
   51MOL0     C 6958   0.346   1.984   0.833  0.2213  0.5997  0.0367
   51MOL0     O 6959   0.381   2.075   0.735  0.3843  0.2986  1.3624
   51MOL0     C 6960   0.525   2.111   0.734  0.3999 -0.4425  0.1883
   51MOL0     C 6961   0.554   2.211   0.620 -0.4408 -0.1443  1.1944
   51MOL0     C 6962   0.473   2.340   0.646 -0.1149 -0.9341  0.8295
   51MOL0     C 6963   0.451   2.402   0.508 -0.0256 -0.8033 -0.4171
   51MOL0     C 6964   0.575   2.466   0.460  1.1559  0.4601 -0.4711
   51MOL0     C 6965   0.675   2.514   0.417 -0.0849  0.7291  0.6437
   51MOL0     C 6966   0.214   1.931   0.844  0.1461  0.0813  0.0947
   51MOL0     C 6967   0.165   1.837   0.940 -1.3100 -0.5849 -0.0915
   51MOL0     C 6968   0.018   1.815   0.946  0.4632  0.6067  0.2417
   51MOL0     H 6969   0.230   1.399   1.232 -2.0537 -1.0788  0.1143
   51MOL0     H 6970   0.163   1.264   1.411  0.3940 -0.1191 -0.5842
   51MOL0     H 6971  -0.267   1.334   1.610 -2.1291 -2.9093  2.4588
   51MOL0     H 6972  -0.144   1.399   1.730 -1.0165  0.3460 -0.8179
   51MOL0     H 6973  -0.173   1.106   1.710  1.6409 -1.6756  1.8266
   51MOL0     H 6974  -0.103   1.205   1.837 -0.0281 -2.2364  0.9042
   51MOL0     H 6975  -0.397   1.240   1.784 -0.0375 -1.1607 -1.3803
   51MOL0     H 6976  -0.334   1.109   1.887  1.3654  0.5951  1.6229
   51MOL0     H 6977  -0.193   1.282   2.010 -1.2067 -0.3633  1.2857
   51MOL0     H 6978  -0.289   1.411   1.929 -1.2343 -0.8328 -1.5690
   51MOL0     H 6979  -0.400   1.200   2.105  1.7190 -0.4172 -0.0678
   51MOL0     H 6980  -0.490   1.341   2.029 -0.4419 -0.4441  0.4733
   51MOL0     H 6981  -0.254   1.377   2.207  0.3284  1.6128 -3.8122
   51MOL0     H 6982  -0.372   1.494   2.159 -2.7944 -0.1313 -1.3161
   51MOL0     H 6983  -0.491   1.284   2.326 -1.1166  0.9223  1.7102
   51MOL0     H 6984  -0.531   1.459   2.300 -0.7405  0.4352 -2.4612
   51MOL0     H 6985  -0.263   1.382   2.416 -0.5176 -2.6539  2.7356
   51MOL0     H 6986  -0.373   1.524   2.454 -1.0161  0.0772  0.2368
   51MOL0     H 6987  -0.623   1.408   2.567  0.7915  0.3069 -1.6310
   51MOL0     H 6988  -0.648   1.074   2.797 -0.0488 -0.0779  0.9631
   51MOL0     H 6989  -0.763   1.155   2.673 -0.6041 -0.3407  1.6470
   51MOL0     H 6990  -0.749   1.369   2.787  0.9133  3.0476  3.0776
   51MOL0     H 6991  -0.828   1.241   2.888  0.9268 -1.5173  1.8213
   51MOL0     H 6992  -0.619   1.213   3.018  1.8063  1.0944  1.6747
   51MOL0     H 6993  -0.522   1.308   2.913  0.0959 -1.3649  0.4238
   51MOL0     H 6994  -0.746   1.372   3.106 -0.3609  1.4014  0.1953
   51MOL0     H 6995  -0.579   1.409   3.116  3.4378 -2.5286 -1.9876
   51MOL0     H 6996  -0.751   1.729   2.837 -0.9541 -1.2862 -0.5683
   51MOL0     H 6997  -0.546   1.974   2.643 -0.2217 -1.0723 -0.4004
   51MOL0     H 6998  -0.699   1.954   2.709  1.2391  1.1325  0.1886
   51MOL0     H 6999  -0.658   1.860   2.564 -1.3481 -1.5395  0.1555
   51MOL0     H 7000  -0.036   2.019   2.628 -1.6355 -1.3633  0.6291
   51MOL0     H 7001   0.122   2.045   2.457 -0.7698  2.0464  3.9567
   51MOL0     H 7002   0.085   2.064   2.210  0.2017 -0.1130  2.2149
   51MOL0     H 7003   0.261   2.039   2.261  0.7647  1.3296 -1.5493
   51MOL0     H 7004   0.333   1.974   2.074  0.0224  0.1676 -0.1734
   51MOL0     H 7005   0.177   1.909   2.010 -0.4402 -0.0830  1.3339
   51MOL0     H 7006   0.297   2.131   1.924 -0.9216 -1.4169  0.1770
   51MOL0     H 7007   0.212   2.204   2.063 -2.4611  1.1829 -1.3251
   51MOL0     H 7008  -0.003   2.124   1.971  0.0752 -0.1190  0.0945
   51MOL0     H 7009   0.086   2.049   1.838 -4.2891 -1.9338  2.2664
   51MOL0     H 7010   0.189   2.266   1.773  0.1261  1.5657 -0.8082
   51MOL0     H 7011   0.014   2.253   1.739  1.9082 -0.4290 -1.6341
   51MOL0     H 7012   0.124   2.390   1.994 -2.1488  0.0716  2.4061
   51MOL0     H 7013  -0.044   2.362   1.941  1.0764 -4.2932 -1.9528
   51MOL0     H 7014   0.012   2.526   1.730  1.4472 -1.0209 -0.9999
   51MOL0     H 7015   0.168   2.553   1.786 -1.1491  3.3897 -0.9948
   51MOL0     H 7016  -0.084   2.609   1.951 -1.1343  1.6170 -1.0540
   51MOL0     H 7017  -0.005   2.731   1.844  1.3217 -0.1362 -0.1562
   51MOL0     H 7018   0.006   1.650   2.314  0.8090  0.7642 -1.3169
   51MOL0     H 7019  -0.143   1.620   2.494 -1.2846  1.3049 -1.2854
   51MOL0     H 7020  -0.273   1.629   2.821 -1.1601 -3.0264 -0.8204
   51MOL0     H 7021  -0.426   1.504   2.982 -1.1426 -0.1544  0.1148
   51MOL0     H 7022  -0.171   1.508   1.500  0.4635 -1.3955 -1.0352
   51MOL0     H 7023  -0.086   1.673   1.316  0.6920  1.1677  1.6906
   51MOL0     H 7024   0.472   1.815   1.098  0.1788 -3.0301 -1.7096
   51MOL0     H 7025   0.548   1.949   0.930  0.7232 -2.4390  0.1656
   51MOL0     H 7026   0.557   2.167   0.823 -0.7274  2.7873 -1.3071
   51MOL0     H 7027   0.589   2.023   0.736 -0.3417 -1.0491 -1.3021
   51MOL0     H 7028   0.526   2.155   0.530  1.3946  0.4903  0.1761
   51MOL0     H 7029   0.658   2.240   0.608 -0.3446 -0.6547  0.7425
   51MOL0     H 7030   0.372   2.324   0.685 -2.0567  1.3612 -2.7212
   51MOL0     H 7031   0.527   2.408   0.713  0.8941 -0.3401 -0.5500
   51MOL0     H 7032   0.380   2.485   0.518  2.4623  1.6600 -1.8964
   51MOL0     H 7033   0.416   2.328   0.435  1.5400  0.0109 -2.0797
   51MOL0     H 7034   0.766   2.562   0.387  0.6385 -1.3648 -0.7833
   51MOL0     H 7035   0.134   1.967   0.781 -0.3064 -1.1715 -0.0662
   51MOL0     H 7036  -0.014   1.737   0.876  2.1565 -2.4056  2.5248
   51MOL0     H 7037  -0.021   1.782   1.043 -3.8570  1.2895 -1.0427
   51MOL0     H 7038  -0.038   1.905   0.921  0.4128  0.5819  0.2641
   52MOL0     O 7039   6.185   2.916   9.493  0.8081  0.1262  0.0268
   52MOL0     C 7040   6.287   2.933   9.547  0.9256  0.6270 -0.2164
   52MOL0     O 7041   6.300   3.011   9.658  0.0567 -0.3897  0.6195
   52MOL0     C 7042   6.187   3.089   9.693  0.3269  0.5283  0.9981
   52MOL0     C 7043   6.146   3.202   9.617  0.1144  0.3868 -0.3478
   52MOL0     C 7044   6.034   3.283   9.649 -0.6130 -0.3314  0.4922
   52MOL0     C 7045   5.966   3.252   9.760  0.3466  0.8330  0.4861
   52MOL0     O 7046   5.853   3.314   9.792  0.2213 -0.6760 -0.6114
   52MOL0     C 7047   5.844   3.456   9.784  0.5008  0.1809 -0.5361
   52MOL0     C 7048   5.939   3.520   9.885  0.1335  0.3101  0.6379
   52MOL0     C 7049   5.899   3.483  10.031 -0.0038 -0.4513 -0.4976
   52MOL0     C 7050   5.984   3.564  10.131  0.5758  0.2283  0.1958
   52MOL0     C 7051   5.966   3.506  10.275 -0.0290 -0.8757 -0.1855
   52MOL0     C 7052   5.822   3.512  10.323  0.6966 -0.6018  0.0731
   52MOL0     C 7053   5.806   3.481  10.474 -0.1627  0.4299  0.1696
   52MOL0     C 7054   5.873   3.348  10.507 -0.7326  0.5695 -0.4087
   52MOL0     N 7055   5.822   3.237  10.418  0.4462 -0.1664  0.2663
   52MOL0     C 7056   5.724   3.151  10.449 -0.4320  0.3920 -0.0752
   52MOL0     C 7057   5.726   3.046  10.362  0.4672 -1.0849 -0.0906
   52MOL0     C 7058   5.648   2.923  10.355  0.6697 -0.2349  0.5609
   52MOL0     C 7059   5.723   2.819  10.269 -0.2623  0.4901 -0.5982
   52MOL0     C 7060   5.725   2.849  10.122 -0.2999  0.3234  1.2101
   52MOL0     C 7061   5.843   2.793  10.043 -0.4046 -0.2478 -0.3320
   52MOL0     O 7062   5.865   2.659  10.081  0.1723 -0.0121 -0.1087
   52MOL0     C 7063   5.955   2.581  10.005  0.2078 -0.2412  0.3497
   52MOL0     C 7064   6.009   2.628   9.885 -0.3800  0.1648  0.1316
   52MOL0     C 7065   6.104   2.551   9.823  0.0465 -0.4919 -0.3546
   52MOL0     C 7066   6.174   2.622   9.711  0.1899  0.5300  0.9357
   52MOL0     C 7067   6.134   2.419   9.868 -0.2042 -0.2979  0.4341
   52MOL0     C 7068   6.237   2.322   9.803  0.1984 -0.1998  0.1536
   52MOL0     O 7069   6.339   2.388   9.732  0.5048 -0.3653  0.2246
   52MOL0     C 7070   6.431   2.327   9.656  0.0314 -0.2423 -0.0263
   52MOL0     C 7071   6.482   2.200   9.670 -0.2441 -1.6726 -0.0953
   52MOL0     C 7072   6.577   2.150   9.581 -0.0428 -0.0122  1.0497
   52MOL0     C 7073   6.634   2.233   9.476  0.3488 -0.1231 -0.2098
   52MOL0     O 7074   6.702   2.165   9.381 -0.0307 -0.1946  0.6464
   52MOL0     C 7075   6.817   2.225   9.327  0.0237  0.2436 -1.0713
   52MOL0     C 7076   6.928   2.120   9.313 -0.2665 -0.1965  0.0578
   52MOL0     C 7077   7.044   2.196   9.250 -0.1038  0.2353 -0.1560
   52MOL0     C 7078   7.140   2.090   9.174  0.0305  0.1191 -0.2356
   52MOL0     C 7079   7.249   2.157   9.097 -0.2398 -0.4645  0.2717
   52MOL0     C 7080   7.381   2.159   9.181  0.2215  0.0725  0.2328
   52MOL0     C 7081   7.501   2.191   9.101 -0.1988  0.4914 -0.5226
   52MOL0     C 7082   7.619   2.270   9.163  0.9577  0.0359  0.0929
   52MOL0    Cl 7083   7.749   2.256   9.027 -0.2259 -0.2142  0.2463
   52MOL0     C 7084   6.581   2.354   9.455  0.0371  0.3478  0.2720
   52MOL0     C 7085   6.481   2.402   9.547 -0.2329 -0.8790 -0.7853
   52MOL0     O 7086   6.226   2.200   9.807 -0.2965 -0.0521  0.4546
   52MOL0     C 7087   6.073   2.375   9.983  0.0561 -0.5231  0.7160
   52MOL0     C 7088   5.987   2.460  10.053 -0.8595  0.6320  0.5888
   52MOL0     N 7089   5.834   3.085  10.277 -0.2408 -0.0729  0.2438
   52MOL0     N 7090   5.898   3.188  10.321  0.2858  0.3822  0.2103
   52MOL0     C 7091   6.017   3.147   9.859  1.1885 -0.0545  0.9251
   52MOL0     C 7092   6.128   3.075   9.821  0.6611  0.0186 -0.8384
   52MOL0     C 7093   6.400   2.846   9.506 -0.6629 -0.1594 -0.3759
   52MOL0     C 7094   6.518   2.866   9.585  0.0847 -1.0577 -0.3563
   52MOL0     C 7095   6.642   2.811   9.547 -1.0803 -0.8254  0.4696
   52MOL0     C 7096   6.649   2.719   9.451  0.3290 -0.4191 -0.7904
   52MOL0     O 7097   6.765   2.654   9.409 -0.3346 -0.0546 -0.2637
   52MOL0     C 7098   6.894   2.694   9.455  0.3302  0.5821 -0.3909
   52MOL0     C 7099   6.994   2.602   9.385 -0.4260  0.2905  0.3552
   52MOL0     C 7100   6.995   2.608   9.234  0.1037  0.8402 -0.1230
   52MOL0     C 7101   7.117   2.530   9.179  1.2176 -0.1061  0.0165
   52MOL0     C 7102   7.106   2.519   9.031  0.0362  0.0612 -0.4972
   52MOL0     C 7103   7.115   2.530   8.906 -0.6473 -0.4940  0.8332
   52MOL0     C 7104   6.538   2.707   9.367 -0.1940  0.4471  0.2306
   52MOL0     C 7105   6.413   2.764   9.393  0.5653  0.2613  0.0675
   52MOL0     C 7106   6.295   2.720   9.306 -0.3029  0.5829  0.1276
   52MOL0     H 7107   6.179   3.225   9.516 -2.8238  1.2762 -1.1974
   52MOL0     H 7108   5.999   3.367   9.590  1.1867 -0.3840 -0.7183
   52MOL0     H 7109   5.742   3.477   9.817 -0.4002 -3.1677 -0.8315
   52MOL0     H 7110   5.855   3.489   9.681  2.8937 -1.8223 -1.0121
   52MOL0     H 7111   6.040   3.483   9.864  0.1956 -0.2378  1.8663
   52MOL0     H 7112   5.943   3.628   9.863 -0.1927  0.1335 -0.3281
   52MOL0     H 7113   5.795   3.506  10.053 -0.1265 -0.8728 -0.6365
   52MOL0     H 7114   5.930   3.378  10.031 -2.8208 -1.4951  3.1088
   52MOL0     H 7115   6.085   3.583  10.092 -0.3072  1.4931 -1.6364
   52MOL0     H 7116   5.945   3.666  10.145  0.0529  0.4656 -2.4891
   52MOL0     H 7117   6.018   3.565  10.352 -3.8157  2.8265 -0.0711
   52MOL0     H 7118   6.004   3.404  10.274 -2.3037 -1.8308  1.6709
   52MOL0     H 7119   5.792   3.616  10.309  0.5219 -0.6140  0.3534
   52MOL0     H 7120   5.761   3.444  10.262  4.0947 -1.5623 -2.5408
   52MOL0     H 7121   5.699   3.475  10.497  0.0030  1.9049  1.4895
   52MOL0     H 7122   5.867   3.556  10.525  2.6335  0.9090 -3.5017
   52MOL0     H 7123   5.979   3.360  10.484 -0.6967  2.3330  0.5262
   52MOL0     H 7124   5.860   3.311  10.610 -2.4892  0.4601 -0.6463
   52MOL0     H 7125   5.664   3.163  10.538 -1.3142  0.5667 -0.6765
   52MOL0     H 7126   5.541   2.929  10.331  0.4112 -2.8861  0.7585
   52MOL0     H 7127   5.641   2.896  10.461  0.6413  2.3882  1.2936
   52MOL0     H 7128   5.827   2.818  10.301  0.0100 -2.1469 -1.3637
   52MOL0     H 7129   5.681   2.719  10.284  0.2768  0.7129  3.3111
   52MOL0     H 7130   5.633   2.801  10.088 -1.6469  2.3734  1.7658
   52MOL0     H 7131   5.714   2.958  10.113  1.9581  0.4853 -0.6094
   52MOL0     H 7132   5.831   2.811   9.936 -1.2082  2.5117  0.1253
   52MOL0     H 7133   5.937   2.841  10.072 -0.4579 -0.5400  0.3521
   52MOL0     H 7134   5.981   2.723   9.841 -0.3759 -0.0456 -0.3362
   52MOL0     H 7135   6.145   2.728   9.715 -0.3380  0.3797  1.2591
   52MOL0     H 7136   6.128   2.586   9.619  2.0965 -0.4416  0.3127
   52MOL0     H 7137   6.283   2.613   9.718  0.3869 -0.6087 -2.2179
   52MOL0     H 7138   6.445   2.150   9.758 -0.1571 -1.9454 -0.2110
   52MOL0     H 7139   6.619   2.050   9.590 -0.7025 -0.1247  3.7678
   52MOL0     H 7140   6.807   2.277   9.231 -0.8359  0.9682 -0.6028
   52MOL0     H 7141   6.855   2.294   9.404  2.1826 -1.4484 -0.5230
   52MOL0     H 7142   6.961   2.070   9.404  1.0323 -2.7594 -1.6872
   52MOL0     H 7143   6.905   2.036   9.247  2.5916 -0.7189 -0.4045
   52MOL0     H 7144   7.089   2.259   9.328  1.2885  1.4932 -1.9118
   52MOL0     H 7145   7.004   2.256   9.168 -0.6845 -0.5864 -0.4856
   52MOL0     H 7146   7.084   2.032   9.100 -0.6711 -1.6969  1.6229
   52MOL0     H 7147   7.191   2.019   9.239  2.6648  0.0544 -2.1760
   52MOL0     H 7148   7.277   2.101   9.007  0.6308 -1.6857  1.2566
   52MOL0     H 7149   7.220   2.258   9.067  0.3361 -0.6996 -1.1634
   52MOL0     H 7150   7.401   2.067   9.236  1.4165 -0.5395 -1.1615
   52MOL0     H 7151   7.358   2.229   9.262  0.7728  1.4506 -0.7704
   52MOL0     H 7152   7.470   2.232   9.005  0.1084 -0.1044 -0.8764
   52MOL0     H 7153   7.535   2.091   9.072 -2.1913  0.3015 -2.4389
   52MOL0     H 7154   7.657   2.217   9.250  0.0555 -2.3243 -0.8733
   52MOL0     H 7155   7.588   2.372   9.188 -0.3935 -0.1744 -0.6108
   52MOL0     H 7156   6.597   2.408   9.362 -1.8130  1.4235  0.5228
   52MOL0     H 7157   6.441   2.501   9.531 -0.1687 -0.5934  0.6669
   52MOL0     H 7158   6.097   2.275  10.016  3.5716  0.2035  0.6793
   52MOL0     H 7159   5.944   2.409  10.139 -2.6389 -1.1253 -1.2353
   52MOL0     H 7160   5.956   3.129   9.947 -0.6991  3.1597  0.4127
   52MOL0     H 7161   6.154   2.994   9.889  0.9682 -0.0972 -1.0950
   52MOL0     H 7162   6.517   2.938   9.666  0.5522  2.7765 -3.3970
   52MOL0     H 7163   6.727   2.840   9.609 -2.0358  2.2485  0.5127
   52MOL0     H 7164   6.917   2.798   9.430  0.9740  0.8615  1.2537
   52MOL0     H 7165   6.901   2.692   9.564  0.7822  1.7311 -0.3900
   52MOL0     H 7166   6.974   2.498   9.414  1.7042 -0.1595  0.3132
   52MOL0     H 7167   7.093   2.622   9.426  0.0209 -1.4245  0.1885
   52MOL0     H 7168   6.901   2.564   9.199 -0.0604  1.2165 -0.1576
   52MOL0     H 7169   7.001   2.712   9.202 -0.5242  0.8602 -0.1880
   52MOL0     H 7170   7.120   2.432   9.227 -1.1800 -0.9601 -1.4216
   52MOL0     H 7171   7.208   2.584   9.209 -1.2196  3.3232  1.9874
   52MOL0     H 7172   7.133   2.505   8.803  2.2891  3.1614  0.2336
   52MOL0     H 7173   6.540   2.635   9.286  0.0888 -2.5929  2.7429
   52MOL0     H 7174   6.331   2.667   9.217 -0.9307  2.0152 -1.0258
   52MOL0     H 7175   6.224   2.656   9.360 -0.3293  1.9763  1.8382
   52MOL0     H 7176   6.230   2.800   9.269 -1.6758 -1.1895 -1.4738
   53MOL0     O 7177   4.306   3.527   1.642  0.1353  0.3448 -0.8420
   53MOL0     C 7178   4.303   3.487   1.760 -0.1049  0.0180 -0.5118
   53MOL0     O 7179   4.373   3.376   1.808 -0.1978 -0.4261 -0.6596
   53MOL0     C 7180   4.447   3.310   1.719 -0.4119  0.3487  0.2693
   53MOL0     C 7181   4.566   3.261   1.774 -0.6303  0.6210 -0.6251
   53MOL0     C 7182   4.656   3.188   1.694  1.5958  0.3328 -0.3366
   53MOL0     C 7183   4.637   3.161   1.556 -1.0486  0.4182  0.5159
   53MOL0     O 7184   4.703   3.067   1.481 -0.4535 -0.6140 -0.3699
   53MOL0     C 7185   4.823   3.001   1.520 -0.5088  0.4668 -0.4733
   53MOL0     C 7186   4.850   2.920   1.381  0.1757 -0.2643 -0.6615
   53MOL0     C 7187   4.978   2.853   1.367  0.9014 -0.4581  0.2750
   53MOL0     C 7188   4.969   2.765   1.240  0.5456  0.7973  0.4854
   53MOL0     C 7189   5.046   2.634   1.248  0.0103  0.9791 -0.6369
   53MOL0     C 7190   5.024   2.528   1.356  0.8934 -0.8509 -0.5879
   53MOL0     C 7191   5.092   2.397   1.322 -0.6616 -0.0742  0.8435
   53MOL0     C 7192   5.060   2.284   1.421  0.4188  0.3829  0.6107
   53MOL0     N 7193   5.119   2.307   1.548  0.1696 -0.5217 -1.0746
   53MOL0     C 7194   5.259   2.310   1.565  0.9440 -0.0808 -0.2217
   53MOL0     C 7195   5.275   2.358   1.690  0.2560  0.4970 -0.7756
   53MOL0     C 7196   5.396   2.412   1.751 -0.4773  0.5023 -0.7866
   53MOL0     C 7197   5.495   2.310   1.812 -0.0728  0.4813 -0.1878
   53MOL0     C 7198   5.430   2.238   1.934 -0.1569 -0.2391 -0.2287
   53MOL0     C 7199   5.496   2.111   1.994  0.6145 -0.2688  0.5920
   53MOL0     O 7200   5.482   2.004   1.900 -0.3471 -0.1623  0.3661
   53MOL0     C 7201   5.575   1.903   1.892  0.8295 -0.7134  0.0170
   53MOL0     C 7202   5.587   1.832   1.776 -0.5189 -0.8835 -0.0869
   53MOL0     C 7203   5.698   1.749   1.755  0.1954  0.2012 -0.4071
   53MOL0     C 7204   5.692   1.661   1.625 -0.3909  0.5496  0.4899
   53MOL0     C 7205   5.787   1.720   1.856  0.1628  0.1630 -0.6898
   53MOL0     C 7206   5.921   1.646   1.837  0.5684  0.1701  0.2171
   53MOL0     O 7207   5.945   1.544   1.917  0.5297 -0.6867 -0.7092
   53MOL0     C 7208   6.058   1.473   1.886  0.3946 -0.5263  1.0996
   53MOL0     C 7209   6.054   1.342   1.837  0.3720 -0.0110  0.8277
   53MOL0     C 7210   6.170   1.271   1.813 -0.0369  1.1967  0.3614
   53MOL0     C 7211   6.287   1.321   1.844 -0.2759 -0.7641 -0.5722
   53MOL0     O 7212   6.401   1.252   1.813  0.6479  0.8775 -0.5602
   53MOL0     C 7213   6.499   1.228   1.920 -0.6426 -0.0236 -0.9332
   53MOL0     C 7214   6.630   1.150   1.879 -0.3901 -1.0022  0.0512
   53MOL0     C 7215   6.688   1.180   1.739  0.7408 -0.2211 -0.2469
   53MOL0     C 7216   6.790   1.078   1.691 -0.9390  0.1953 -0.2110
   53MOL0     C 7217   6.840   1.114   1.551  0.8256  0.8523  0.4030
   53MOL0     C 7218   6.967   1.034   1.508 -0.1974  0.2212 -0.0206
   53MOL0     C 7219   7.049   1.091   1.389 -0.6766 -0.2661 -1.0192
   53MOL0     C 7220   7.189   1.042   1.402 -0.5734  0.0545 -0.1712
   53MOL0    Cl 7221   7.303   1.132   1.294 -0.1876  0.4964  0.8151
   53MOL0     C 7222   6.291   1.445   1.901  0.0003 -0.3622 -0.0862
   53MOL0     C 7223   6.187   1.526   1.917  0.0742  0.2408  0.4803
   53MOL0     O 7224   5.987   1.672   1.736  0.9504  0.7675 -0.8418
   53MOL0     C 7225   5.762   1.777   1.980 -0.1661 -0.5788  0.0487
   53MOL0     C 7226   5.647   1.860   2.000  0.0618  0.1263 -0.4869
   53MOL0     N 7227   5.147   2.389   1.744 -0.2472 -1.0156  1.2597
   53MOL0     N 7228   5.059   2.363   1.662 -0.2437  0.4864  0.1225
   53MOL0     C 7229   4.520   3.215   1.502  1.6542 -0.4149  0.4211
   53MOL0     C 7230   4.420   3.278   1.583  0.4638  1.0887  0.3967
   53MOL0     C 7231   4.207   3.546   1.859 -0.6546 -0.1058 -1.0999
   53MOL0     C 7232   4.247   3.558   1.998 -0.6112  0.3292  0.5722
   53MOL0     C 7233   4.160   3.606   2.096  0.1875 -0.2138  0.3393
   53MOL0     C 7234   4.027   3.652   2.059  0.3207 -0.2334  0.0469
   53MOL0     O 7235   3.939   3.694   2.158  0.3224  0.4940  0.6032
   53MOL0     C 7236   3.805   3.729   2.122  0.3033 -0.7460 -0.9213
   53MOL0     C 7237   3.732   3.776   2.245 -0.1327 -0.9037 -0.0341
   53MOL0     C 7238   3.575   3.773   2.221  0.2950  0.8638  0.4027
   53MOL0     C 7239   3.527   3.890   2.132  0.7855 -0.1024  0.2220
   53MOL0     C 7240   3.513   4.005   2.220 -0.3056  0.2460 -0.2236
   53MOL0     C 7241   3.505   4.101   2.288 -0.6299 -0.1182  1.1068
   53MOL0     C 7242   3.983   3.639   1.925  0.4909 -0.7378  0.2708
   53MOL0     C 7243   4.078   3.585   1.827  0.7653  0.1360 -0.8134
   53MOL0     C 7244   4.024   3.587   1.684  0.2373  0.3102 -0.4724
   53MOL0     H 7245   4.597   3.294   1.873  0.4509  4.1694 -1.9752
   53MOL0     H 7246   4.748   3.145   1.735  1.8669  0.0044 -1.2643
   53MOL0     H 7247   4.796   2.941   1.608 -3.1760 -0.4929 -1.8306
   53MOL0     H 7248   4.900   3.077   1.536 -0.2025  0.3055 -1.1287
   53MOL0     H 7249   4.768   2.851   1.361 -2.0589  1.7880  0.8902
   53MOL0     H 7250   4.853   2.997   1.303 -2.1464 -1.2897 -1.8488
   53MOL0     H 7251   5.052   2.934   1.363 -0.8113  1.3181  1.9966
   53MOL0     H 7252   4.992   2.790   1.455  0.0673 -2.1440 -0.7514
   53MOL0     H 7253   4.868   2.724   1.229  2.1447 -4.1540  1.9113
   53MOL0     H 7254   4.998   2.826   1.153  1.5606 -1.6447 -0.9798
   53MOL0     H 7255   5.154   2.652   1.247  0.7449 -2.0606 -4.7230
   53MOL0     H 7256   5.043   2.580   1.153  3.8832 -0.7538 -0.0089
   53MOL0     H 7257   5.050   2.560   1.458 -1.0366  0.1284 -0.3482
   53MOL0     H 7258   4.916   2.511   1.358  0.4471  1.5518  1.5512
   53MOL0     H 7259   5.199   2.418   1.323 -0.4454 -1.0950  0.3310
   53MOL0     H 7260   5.070   2.360   1.221  1.9807  1.9788 -0.6345
   53MOL0     H 7261   4.953   2.267   1.425  0.3687  0.6451  0.4088
   53MOL0     H 7262   5.108   2.192   1.386  2.0641  0.9020  1.3641
   53MOL0     H 7263   5.336   2.269   1.501  2.6297 -0.4760  1.9330
   53MOL0     H 7264   5.369   2.485   1.829  2.3294  2.5641 -1.5617
   53MOL0     H 7265   5.438   2.482   1.677 -2.8634 -0.3132 -3.0571
   53MOL0     H 7266   5.528   2.238   1.736 -1.2791  2.8825 -3.2220
   53MOL0     H 7267   5.593   2.349   1.843  0.6690 -0.1840 -1.5931
   53MOL0     H 7268   5.425   2.309   2.016 -0.9314 -0.7712  0.1967
   53MOL0     H 7269   5.326   2.207   1.918 -0.7822  0.7217  1.6995
   53MOL0     H 7270   5.604   2.121   2.010  0.5900  0.2891  0.4193
   53MOL0     H 7271   5.445   2.079   2.086  0.5117 -0.4569  0.4706
   53MOL0     H 7272   5.515   1.850   1.698 -2.3327  0.3774  1.7752
   53MOL0     H 7273   5.760   1.693   1.546 -2.7778  2.9295 -0.7500
   53MOL0     H 7274   5.592   1.665   1.581 -0.7026 -1.8474  0.8264
   53MOL0     H 7275   5.709   1.557   1.657  0.2169  0.7130  0.7166
   53MOL0     H 7276   5.966   1.286   1.808  1.1180  0.1687 -2.1466
   53MOL0     H 7277   6.176   1.169   1.777  2.0543  1.4456 -0.1098
   53MOL0     H 7278   6.538   1.326   1.949  3.2418 -2.2301  2.4088
   53MOL0     H 7279   6.459   1.187   2.013  2.3796 -0.4029  0.3297
   53MOL0     H 7280   6.710   1.169   1.950  1.5229  0.7933 -2.4120
   53MOL0     H 7281   6.604   1.044   1.883  1.0858 -1.4631 -1.5106
   53MOL0     H 7282   6.743   1.275   1.732  2.7130 -0.9958  2.6477
   53MOL0     H 7283   6.596   1.190   1.681 -0.8301 -1.6893  1.8421
   53MOL0     H 7284   6.753   0.975   1.696  2.0194 -0.9727 -0.3076
   53MOL0     H 7285   6.881   1.084   1.752  0.4853  0.5234 -2.2548
   53MOL0     H 7286   6.767   1.105   1.469 -2.2978  2.3936  2.8155
   53MOL0     H 7287   6.859   1.221   1.553 -1.0797  1.2593 -0.5288
   53MOL0     H 7288   6.936   0.931   1.489 -2.4149  0.6930  0.7425
   53MOL0     H 7289   7.031   1.027   1.596 -3.1605  2.3968  2.5463
   53MOL0     H 7290   7.055   1.200   1.403  0.3003 -0.5295  1.0090
   53MOL0     H 7291   7.004   1.064   1.293  1.8655 -1.2800 -2.0419
   53MOL0     H 7292   7.199   0.938   1.368  1.1271 -0.0125  0.4267
   53MOL0     H 7293   7.221   1.043   1.506 -1.8832  0.1592  0.2448
   53MOL0     H 7294   6.381   1.490   1.940 -0.7788 -0.3078  1.7579
   53MOL0     H 7295   6.195   1.627   1.956  0.4573 -0.3266  1.9725
   53MOL0     H 7296   5.824   1.764   2.068  0.8208  1.7877 -0.2167
   53MOL0     H 7297   5.650   1.906   2.099  2.5370 -1.9191  0.5164
   53MOL0     H 7298   4.503   3.190   1.397 -2.7070 -0.5305  0.9498
   53MOL0     H 7299   4.324   3.313   1.547 -0.5309 -2.5945 -1.0825
   53MOL0     H 7300   4.352   3.532   2.013  0.1377 -0.1290 -4.0077
   53MOL0     H 7301   4.187   3.611   2.201 -1.6833  1.0283  0.8094
   53MOL0     H 7302   3.807   3.801   2.040  0.5002 -1.2135 -1.3347
   53MOL0     H 7303   3.743   3.644   2.089 -1.5806  0.7872 -1.5219
   53MOL0     H 7304   3.751   3.883   2.259 -1.1520 -0.3150 -2.5700
   53MOL0     H 7305   3.770   3.730   2.336  0.6242  0.0047  0.1350
   53MOL0     H 7306   3.539   3.676   2.185  1.1896 -0.2206  2.3227
   53MOL0     H 7307   3.537   3.785   2.323  2.1394 -2.2087  1.5843
   53MOL0     H 7308   3.434   3.854   2.086  0.8334 -0.9009  0.7243
   53MOL0     H 7309   3.596   3.913   2.051 -1.1053  1.4198 -1.0360
   53MOL0     H 7310   3.499   4.184   2.355 -0.8144 -0.1875  1.1769
   53MOL0     H 7311   3.887   3.681   1.894 -0.4177 -1.2864  2.1922
   53MOL0     H 7312   4.056   3.505   1.620  0.0376 -0.8596  0.8877
   53MOL0     H 7313   3.915   3.595   1.684  0.2508  0.8044 -2.1683
   53MOL0     H 7314   4.051   3.684   1.641 -1.3116  0.3091 -1.5264
   54MOL0     O 7315  10.860   0.179   1.321  0.3394  0.0563 -0.3029
   54MOL0     C 7316  10.917   0.074   1.370  1.8483  0.2089 -0.4014
   54MOL0     O 7317  10.851  -0.025   1.438 -0.6904 -0.1055 -0.1245
   54MOL0     C 7318  10.721  -0.022   1.471 -0.9616  0.2268  0.3713
   54MOL0     C 7319  10.631  -0.015   1.366  0.8411 -0.7349 -0.2757
   54MOL0     C 7320  10.488  -0.003   1.394  0.5575  0.4294 -0.6468
   54MOL0     C 7321  10.448   0.009   1.517  0.2822 -0.1835 -0.1383
   54MOL0     O 7322  10.312   0.027   1.522 -0.0644 -1.1162  0.1105
   54MOL0     C 7323  10.242  -0.040   1.625 -0.0836 -0.9574 -0.2932
   54MOL0     C 7324  10.090  -0.007   1.603 -0.6553  0.6146  1.0415
   54MOL0     C 7325  10.029  -0.058   1.461 -0.3766 -0.5801  0.1534
   54MOL0     C 7326  10.035  -0.209   1.462  0.6144  0.0543  0.7691
   54MOL0     C 7327   9.952  -0.265   1.344 -0.2279 -0.5464  0.6754
   54MOL0     C 7328   9.959  -0.425   1.345  0.2199 -0.4054 -0.8312
   54MOL0     C 7329   9.881  -0.494   1.463 -0.4060 -0.1843  1.5603
   54MOL0     C 7330   9.955  -0.565   1.587 -0.2723 -0.4386 -0.5824
   54MOL0     N 7331  10.073  -0.484   1.636 -0.4821 -0.3018 -0.3411
   54MOL0     C 7332  10.207  -0.494   1.590  0.8440  0.1312  0.5474
   54MOL0     C 7333  10.276  -0.408   1.669 -0.0780  0.5825  0.4077
   54MOL0     C 7334  10.426  -0.394   1.657  0.2423 -0.1488  1.1691
   54MOL0     C 7335  10.460  -0.361   1.515 -0.2372 -0.1875 -0.1052
   54MOL0     C 7336  10.612  -0.354   1.484 -0.0977  0.1599 -0.0043
   54MOL0     C 7337  10.661  -0.498   1.457 -0.3737 -0.1869 -0.3291
   54MOL0     O 7338  10.801  -0.480   1.418 -1.0208 -0.3059  0.1868
   54MOL0     C 7339  10.887  -0.481   1.528 -0.2615  0.5003 -0.2562
   54MOL0     C 7340  10.911  -0.593   1.605 -0.4538 -0.1655 -0.3190
   54MOL0     C 7341  10.985  -0.580   1.715 -0.3664  0.2200 -0.6133
   54MOL0     C 7342  11.025  -0.700   1.790  0.2421 -0.0115 -0.1170
   54MOL0     C 7343  11.014  -0.456   1.767 -0.0010 -0.1341  0.7096
   54MOL0     C 7344  11.089  -0.442   1.896  0.1040  1.2769  1.6069
   54MOL0     O 7345  11.017  -0.431   2.008 -0.9185  0.3501 -0.3493
   54MOL0     C 7346  11.079  -0.427   2.132 -0.5649 -0.2414 -0.1281
   54MOL0     C 7347  11.052  -0.320   2.217  0.0455  0.1359 -0.2618
   54MOL0     C 7348  11.113  -0.311   2.338  0.0479 -0.4677 -0.7705
   54MOL0     C 7349  11.200  -0.410   2.381  0.3881 -1.1097 -0.8044
   54MOL0     O 7350  11.256  -0.393   2.506 -0.6763 -0.4981  0.6355
   54MOL0     C 7351  11.268  -0.502   2.596 -0.6135  0.6640 -0.0101
   54MOL0     C 7352  11.386  -0.488   2.691  0.1315 -0.1454 -0.0015
   54MOL0     C 7353  11.532  -0.459   2.635  0.1478 -0.5319  0.4921
   54MOL0     C 7354  11.579  -0.586   2.556 -0.2623 -0.3041 -0.4177
   54MOL0     C 7355  11.728  -0.587   2.539  0.1828 -0.8343  0.8708
   54MOL0     C 7356  11.773  -0.697   2.444  0.4990  0.3801  0.2461
   54MOL0     C 7357  11.926  -0.714   2.465 -0.0469  0.1173  0.6022
   54MOL0     C 7358  12.002  -0.796   2.362 -0.5071  0.7259  1.0521
   54MOL0    Cl 7359  12.066  -0.712   2.218 -0.3412  0.4153  0.2169
   54MOL0     C 7360  11.219  -0.526   2.302 -0.4414  0.1741  0.8809
   54MOL0     C 7361  11.172  -0.530   2.172  0.2052  0.3797  0.9111
   54MOL0     O 7362  11.209  -0.467   1.892 -0.3453  0.5269  0.0904
   54MOL0     C 7363  10.984  -0.343   1.692 -0.5352  0.6797  0.2839
   54MOL0     C 7364  10.923  -0.352   1.571 -0.7521  0.1900  0.1354
   54MOL0     N 7365  10.196  -0.338   1.757 -0.0861 -0.2917  0.5764
   54MOL0     N 7366  10.068  -0.390   1.734  0.5457 -0.2846 -0.3789
   54MOL0     C 7367  10.538  -0.011   1.624 -0.1992 -0.3301 -0.2394
   54MOL0     C 7368  10.674  -0.035   1.599 -0.1154 -0.6654  0.0678
   54MOL0     C 7369  11.050   0.045   1.316 -0.3699 -1.1837  0.6192
   54MOL0     C 7370  11.058   0.033   1.183 -0.2528 -0.3314  0.2624
   54MOL0     C 7371  11.174  -0.005   1.118 -0.2920  1.1118 -0.0723
   54MOL0     C 7372  11.291  -0.015   1.192  0.2653 -0.1664 -0.4986
   54MOL0     O 7373  11.420  -0.034   1.136  0.1852  0.0422  0.5933
   54MOL0     C 7374  11.440  -0.014   0.989 -0.3296  0.5763 -0.9860
   54MOL0     C 7375  11.459   0.130   0.971  0.0543  0.1680  1.0476
   54MOL0     C 7376  11.565   0.211   1.048 -0.1400  0.6486 -0.0691
   54MOL0     C 7377  11.687   0.231   0.964 -0.5142  0.4218 -0.0208
   54MOL0     C 7378  11.815   0.268   1.027 -0.7906  0.4368  0.6110
   54MOL0     C 7379  11.908   0.304   1.090 -0.1941  0.1840  1.4367
   54MOL0     C 7380  11.293   0.002   1.334  0.1426 -0.0303 -0.5728
   54MOL0     C 7381  11.163   0.027   1.399 -0.1771 -0.5034 -0.1299
   54MOL0     C 7382  11.155   0.032   1.545  0.6856  0.6043 -0.5532
   54MOL0     H 7383  10.652  -0.020   1.260  2.2174  0.2031 -0.0688
   54MOL0     H 7384  10.412   0.010   1.318  0.8793 -0.3129 -1.1096
   54MOL0     H 7385  10.277  -0.006   1.723  1.1562 -1.6205 -0.4832
   54MOL0     H 7386  10.271  -0.145   1.622 -0.0674 -0.9262 -2.2578
   54MOL0     H 7387  10.037  -0.063   1.681  1.0259 -0.9791  1.0733
   54MOL0     H 7388  10.086   0.103   1.609  0.7932  0.6223  2.6558
   54MOL0     H 7389   9.925  -0.024   1.467 -0.6489 -1.4197  0.4711
   54MOL0     H 7390  10.079  -0.017   1.373 -1.0327  2.2241  0.9942
   54MOL0     H 7391  10.139  -0.239   1.450  0.3410  0.0702 -3.2626
   54MOL0     H 7392   9.992  -0.232   1.560 -0.7995  2.5338  0.8037
   54MOL0     H 7393   9.987  -0.224   1.249  1.0902 -0.7617  1.0498
   54MOL0     H 7394   9.846  -0.240   1.358 -0.1597 -0.3102  0.7755
   54MOL0     H 7395   9.924  -0.465   1.249 -1.1760 -0.3530 -0.3703
   54MOL0     H 7396  10.064  -0.454   1.351  0.5711  0.9018 -0.2349
   54MOL0     H 7397   9.836  -0.580   1.413  1.4111 -0.3664  0.1153
   54MOL0     H 7398   9.805  -0.420   1.491 -0.8986 -0.9010  2.1501
   54MOL0     H 7399   9.876  -0.587   1.660 -0.8098 -1.1886 -1.3607
   54MOL0     H 7400   9.997  -0.665   1.568 -1.0685 -0.7026 -1.0239
   54MOL0     H 7401  10.237  -0.565   1.514 -1.9779 -1.2687  0.6283
   54MOL0     H 7402  10.483  -0.484   1.684  2.0836  0.8936  0.9187
   54MOL0     H 7403  10.464  -0.309   1.715 -0.1345  3.9166 -3.8354
   54MOL0     H 7404  10.407  -0.424   1.444 -0.5954 -2.3801  1.9743
   54MOL0     H 7405  10.426  -0.258   1.500  4.5087  1.7585  0.5468
   54MOL0     H 7406  10.648  -0.283   1.409  0.3558 -1.2876 -1.2001
   54MOL0     H 7407  10.662  -0.315   1.573  0.4136  0.5449 -0.4486
   54MOL0     H 7408  10.655  -0.564   1.544 -0.3738 -0.8608 -0.8380
   54MOL0     H 7409  10.591  -0.532   1.381  1.1884 -1.7599 -1.1248
   54MOL0     H 7410  10.888  -0.696   1.580 -0.5501 -0.3329  0.4408
   54MOL0     H 7411  10.940  -0.715   1.857  0.1708 -3.0345 -0.7061
   54MOL0     H 7412  11.120  -0.688   1.843 -1.1876 -1.3197  2.9891
   54MOL0     H 7413  11.026  -0.784   1.720 -2.2074 -0.0108 -0.2393
   54MOL0     H 7414  10.981  -0.247   2.179 -0.1954  1.7576  2.9881
   54MOL0     H 7415  11.098  -0.227   2.405  1.2512  2.1219 -3.5119
   54MOL0     H 7416  11.181  -0.497   2.663  1.5325 -1.1181  3.1636
   54MOL0     H 7417  11.286  -0.593   2.539 -0.1041  1.7772 -1.6878
   54MOL0     H 7418  11.359  -0.409   2.762 -0.1959  0.7998 -1.1494
   54MOL0     H 7419  11.400  -0.579   2.750  0.1096 -0.7758 -0.9472
   54MOL0     H 7420  11.597  -0.439   2.720  0.5726 -1.7973  0.4828
   54MOL0     H 7421  11.539  -0.376   2.563 -1.4318 -1.8874 -1.3514
   54MOL0     H 7422  11.527  -0.588   2.460  0.5196  2.4903 -1.0006
   54MOL0     H 7423  11.551  -0.673   2.616  0.6597 -0.7244 -0.5763
   54MOL0     H 7424  11.767  -0.493   2.498 -0.4955  0.2555  2.6123
   54MOL0     H 7425  11.778  -0.601   2.635  1.3948 -1.3569  0.1944
   54MOL0     H 7426  11.765  -0.679   2.337 -0.6650 -1.2704  0.0059
   54MOL0     H 7427  11.713  -0.787   2.464 -2.0473  1.7018 -0.9879
   54MOL0     H 7428  11.939  -0.764   2.562  1.6716  1.6248  1.2061
   54MOL0     H 7429  11.968  -0.613   2.467 -1.8839  0.9702 -0.9835
   54MOL0     H 7430  11.942  -0.883   2.334 -2.5411  2.1845  0.6307
   54MOL0     H 7431  12.095  -0.839   2.402 -0.1031  0.0799 -0.5203
   54MOL0     H 7432  11.285  -0.606   2.335  0.6329  0.6340 -0.0601
   54MOL0     H 7433  11.204  -0.610   2.105 -0.2650  1.5604 -0.7839
   54MOL0     H 7434  11.014  -0.243   1.722 -2.2943  1.2399  0.3118
   54MOL0     H 7435  10.899  -0.259   1.520 -2.1813 -0.2019  0.0539
   54MOL0     H 7436  10.505  -0.034   1.725 -0.2669 -0.3051 -0.2566
   54MOL0     H 7437  10.746  -0.046   1.680  1.5076  3.2940 -0.5952
   54MOL0     H 7438  10.964   0.043   1.129  0.4678 -1.8457 -1.3640
   54MOL0     H 7439  11.172  -0.007   1.009 -0.1528 -0.1742 -0.0648
   54MOL0     H 7440  11.528  -0.068   0.954 -0.7374  0.1544 -1.3796
   54MOL0     H 7441  11.351  -0.041   0.930 -0.4686  0.4653 -0.7293
   54MOL0     H 7442  11.362   0.168   1.004 -0.2889  0.4875 -0.3057
   54MOL0     H 7443  11.485   0.159   0.869 -2.1360  0.3913  0.5192
   54MOL0     H 7444  11.557   0.317   1.074  0.2203  0.0942  2.6745
   54MOL0     H 7445  11.586   0.164   1.144  1.6431 -0.3097 -0.8762
   54MOL0     H 7446  11.666   0.301   0.884  0.0403 -0.9497 -1.4173
   54MOL0     H 7447  11.710   0.134   0.919 -1.3383  0.0868  0.2461
   54MOL0     H 7448  11.993   0.347   1.139  1.1834  0.7381 -1.2888
   54MOL0     H 7449  11.381  -0.009   1.396 -1.8312  0.7529  2.5678
   54MOL0     H 7450  11.120   0.134   1.564  1.0973  0.7412 -0.5122
   54MOL0     H 7451  11.072  -0.033   1.573  2.0996 -0.3281  1.7575
   54MOL0     H 7452  11.244  -0.004   1.597 -0.2752  0.6881  1.2046
   55MOL0     O 7453  11.432   6.512   2.083 -1.0463 -0.4538 -0.4378
   55MOL0     C 7454  11.310   6.511   2.068 -0.8908  0.0776  0.5337
   55MOL0     O 7455  11.233   6.403   2.051 -0.1574  0.1198  0.2359
   55MOL0     C 7456  11.281   6.292   1.985  0.5575 -0.7287  0.4338
   55MOL0     C 7457  11.357   6.310   1.872 -1.5721  0.9605 -0.2751
   55MOL0     C 7458  11.408   6.195   1.792 -0.4445 -0.4227 -0.4514
   55MOL0     C 7459  11.352   6.065   1.814  0.8710 -0.9845  0.3875
   55MOL0     O 7460  11.375   5.942   1.761 -0.3749  0.3464  0.2289
   55MOL0     C 7461  11.441   5.925   1.638  0.4730 -0.9368  0.1345
   55MOL0     C 7462  11.574   5.847   1.646  0.6811 -0.1335  0.5706
   55MOL0     C 7463  11.551   5.708   1.712  0.1033 -0.2347 -0.1559
   55MOL0     C 7464  11.678   5.651   1.767  0.2863  0.8477  0.2213
   55MOL0     C 7465  11.642   5.530   1.862  0.3317  0.1656 -0.5483
   55MOL0     C 7466  11.773   5.478   1.921 -0.2314  0.7403 -0.6451
   55MOL0     C 7467  11.749   5.376   2.028 -0.5381 -0.1688 -0.3891
   55MOL0     C 7468  11.758   5.434   2.172 -0.0448 -0.6917 -0.0742
   55MOL0     N 7469  11.899   5.465   2.207  0.0239 -0.5526 -0.2902
   55MOL0     C 7470  11.959   5.582   2.189  0.0199 -0.2381 -0.3095
   55MOL0     C 7471  12.080   5.579   2.248  0.0521 -0.4783  0.4206
   55MOL0     C 7472  12.167   5.694   2.258 -0.0509  0.3884 -0.4329
   55MOL0     C 7473  12.214   5.747   2.120 -0.6716 -0.4356  0.0274
   55MOL0     C 7474  12.277   5.641   2.027 -0.8690  0.0012 -0.2768
   55MOL0     C 7475  12.324   5.706   1.888 -0.2150 -0.0846 -0.3180
   55MOL0     O 7476  12.227   5.692   1.785 -0.0318  0.7146  0.2557
   55MOL0     C 7477  12.169   5.802   1.733 -1.3238  0.0739  0.6020
   55MOL0     C 7478  12.249   5.919   1.690  0.9411  0.5635 -0.0127
   55MOL0     C 7479  12.188   6.020   1.620 -0.1097  0.1586 -0.2953
   55MOL0     C 7480  12.277   6.122   1.557 -0.8387  0.1470 -0.0971
   55MOL0     C 7481  12.047   6.022   1.620  0.4599  0.0768  0.3946
   55MOL0     C 7482  11.981   6.134   1.560 -0.1522  0.6613 -0.6125
   55MOL0     O 7483  12.013   6.169   1.436  0.3755 -0.3552 -0.0579
   55MOL0     C 7484  11.940   6.277   1.378  0.2356  0.1221  0.1112
   55MOL0     C 7485  11.902   6.397   1.441 -0.7914  0.5314 -0.5832
   55MOL0     C 7486  11.825   6.491   1.379 -0.7689 -0.4289  0.0774
   55MOL0     C 7487  11.785   6.471   1.251 -0.1049  0.3291  0.2696
   55MOL0     O 7488  11.722   6.577   1.180 -0.2209 -0.2107 -0.2089
   55MOL0     C 7489  11.626   6.551   1.082 -0.7422 -0.1351 -0.0399
   55MOL0     C 7490  11.541   6.680   1.077  0.2394  0.3684  0.2557
   55MOL0     C 7491  11.609   6.782   0.997  0.1528 -0.6115 -0.6087
   55MOL0     C 7492  11.524   6.906   0.977 -0.0570 -1.2121  0.7709
   55MOL0     C 7493  11.597   7.010   0.886 -0.5087  0.5741  1.0059
   55MOL0     C 7494  11.501   7.117   0.848  0.8109 -0.4697 -0.0825
   55MOL0     C 7495  11.460   7.215   0.962 -0.2208  0.9009  0.3222
   55MOL0     C 7496  11.426   7.343   0.916 -0.5946 -0.7581  1.0995
   55MOL0    Cl 7497  11.261   7.341   0.839 -0.0951  0.1505  0.4689
   55MOL0     C 7498  11.810   6.344   1.192  0.2450 -0.0663  1.1706
   55MOL0     C 7499  11.889   6.247   1.247 -0.3470 -0.9076 -0.2538
   55MOL0     O 7500  11.885   6.173   1.620  0.1834  0.1065 -0.7146
   55MOL0     C 7501  11.970   5.906   1.647 -0.5774 -0.0410 -0.8495
   55MOL0     C 7502  12.033   5.796   1.708  0.0470 -0.2517  0.2946
   55MOL0     N 7503  12.071   5.462   2.309  0.2899  0.0084 -1.0496
   55MOL0     N 7504  11.972   5.392   2.285 -0.1614 -0.1895  0.4849
   55MOL0     C 7505  11.260   6.060   1.917  0.2773 -0.0127  0.5517
   55MOL0     C 7506  11.226   6.167   1.996  0.4579 -0.3957  0.6680
   55MOL0     C 7507  11.231   6.634   2.091  0.4744 -0.2875 -0.0787
   55MOL0     C 7508  11.252   6.699   2.211 -0.0133  0.1067 -0.1450
   55MOL0     C 7509  11.175   6.818   2.239 -0.5897  0.2559  0.5006
   55MOL0     C 7510  11.068   6.857   2.157 -0.0681  0.9113  0.3064
   55MOL0     O 7511  10.986   6.961   2.189  0.5661 -0.4260  0.6468
   55MOL0     C 7512  10.965   7.005   2.323  0.2941  0.6148  0.3613
   55MOL0     C 7513  10.817   7.034   2.345 -0.8805 -0.2388 -0.5966
   55MOL0     C 7514  10.729   6.908   2.333  0.2622 -0.1251  0.1059
   55MOL0     C 7515  10.584   6.908   2.391 -0.3034 -0.4509  0.3010
   55MOL0     C 7516  10.511   6.791   2.343  0.6424  0.3256  1.0794
   55MOL0     C 7517  10.447   6.698   2.286  0.5411 -0.9510 -1.1856
   55MOL0     C 7518  11.063   6.794   2.041  1.1243 -0.0646 -0.7668
   55MOL0     C 7519  11.137   6.689   2.003 -1.0414  0.6384  0.9559
   55MOL0     C 7520  11.102   6.617   1.875  0.2831 -0.2451  0.8424
   55MOL0     H 7521  11.392   6.412   1.867 -0.1949  0.5562  0.7268
   55MOL0     H 7522  11.468   6.201   1.702 -1.1013  0.3914 -0.8528
   55MOL0     H 7523  11.462   6.027   1.604  1.0829 -0.4213  1.9535
   55MOL0     H 7524  11.368   5.879   1.571 -1.3169 -0.4182  1.6421
   55MOL0     H 7525  11.625   5.853   1.550  3.0440  1.9048  1.8278
   55MOL0     H 7526  11.641   5.902   1.713 -0.5148 -0.2569  1.9148
   55MOL0     H 7527  11.487   5.726   1.798 -1.5160  2.8699 -1.8488
   55MOL0     H 7528  11.508   5.635   1.642  3.2551 -2.2310 -0.2541
   55MOL0     H 7529  11.749   5.617   1.691 -0.7110 -0.0241 -0.3614
   55MOL0     H 7530  11.732   5.723   1.828  2.7406 -1.0794  0.4753
   55MOL0     H 7531  11.589   5.454   1.804  2.9556 -2.1168 -0.1863
   55MOL0     H 7532  11.577   5.576   1.937 -1.1432  1.8301 -2.7110
   55MOL0     H 7533  11.829   5.423   1.845 -0.7860  0.0197 -0.5413
   55MOL0     H 7534  11.833   5.562   1.957 -1.7699  1.2500  0.8452
   55MOL0     H 7535  11.827   5.299   2.017  1.2631  1.4498  0.5216
   55MOL0     H 7536  11.656   5.321   2.011  0.4330 -2.1397  0.2522
   55MOL0     H 7537  11.685   5.513   2.191  3.5775  2.7741  0.7736
   55MOL0     H 7538  11.740   5.341   2.227  1.5521 -1.4448 -0.7658
   55MOL0     H 7539  11.915   5.670   2.143 -1.5386 -0.8124 -0.0008
   55MOL0     H 7540  12.253   5.676   2.324  0.1610 -2.3569 -1.3066
   55MOL0     H 7541  12.108   5.774   2.303  1.4457  0.3652  1.7430
   55MOL0     H 7542  12.130   5.797   2.071 -0.6830  2.0693  2.3116
   55MOL0     H 7543  12.285   5.831   2.126  0.5972 -1.5701  2.3290
   55MOL0     H 7544  12.357   5.587   2.078 -1.2562 -1.0888 -0.7877
   55MOL0     H 7545  12.199   5.570   1.998 -0.7451 -1.0376  1.7612
   55MOL0     H 7546  12.364   5.807   1.904 -0.2402 -0.1564  0.2343
   55MOL0     H 7547  12.404   5.644   1.846  1.7256  2.7919 -1.1373
   55MOL0     H 7548  12.357   5.911   1.698  0.8800 -0.9064 -0.3534
   55MOL0     H 7549  12.283   6.116   1.448 -3.4656 -3.4445 -0.2319
   55MOL0     H 7550  12.375   6.106   1.605 -1.6316  0.3193  1.6671
   55MOL0     H 7551  12.249   6.223   1.587  0.3019 -0.4631  3.6001
   55MOL0     H 7552  11.925   6.405   1.546  0.7009  1.1007 -0.9256
   55MOL0     H 7553  11.783   6.574   1.436 -1.4954 -1.7815  1.5940
   55MOL0     H 7554  11.675   6.529   0.987  0.6287 -0.5287  0.7383
   55MOL0     H 7555  11.563   6.463   1.102 -1.7232  1.0684  2.7354
   55MOL0     H 7556  11.439   6.657   1.044  0.2462  0.4614  0.1710
   55MOL0     H 7557  11.522   6.718   1.178 -1.1244 -0.3658  0.2970
   55MOL0     H 7558  11.635   6.737   0.901  0.1154 -0.3202 -0.7573
   55MOL0     H 7559  11.699   6.823   1.043 -1.9919  1.9461  1.6698
   55MOL0     H 7560  11.483   6.957   1.065 -1.7542  0.1950 -0.7878
   55MOL0     H 7561  11.438   6.868   0.923 -0.1862  2.1649 -1.6879
   55MOL0     H 7562  11.680   7.061   0.936  0.8690 -1.8692  1.3576
   55MOL0     H 7563  11.640   6.965   0.796  0.9211 -0.7047  2.2653
   55MOL0     H 7564  11.413   7.070   0.803  0.6276 -2.9146  2.5623
   55MOL0     H 7565  11.554   7.170   0.768  1.1976  0.2347  0.6290
   55MOL0     H 7566  11.538   7.207   1.038  0.3147 -2.0759 -0.3956
   55MOL0     H 7567  11.372   7.169   1.008  0.8290 -2.3476 -0.6175
   55MOL0     H 7568  11.505   7.360   0.842  0.2682  2.1504  2.5190
   55MOL0     H 7569  11.432   7.420   0.994 -2.0595  0.6798 -0.1325
   55MOL0     H 7570  11.776   6.332   1.090 -0.8595 -2.8411  1.7527
   55MOL0     H 7571  11.890   6.147   1.203  0.2322 -2.2413  2.5444
   55MOL0     H 7572  11.863   5.915   1.630 -0.4992  2.4189 -0.5191
   55MOL0     H 7573  11.977   5.709   1.741 -0.0827  0.4821  2.1111
   55MOL0     H 7574  11.213   5.966   1.940 -1.2641  0.4526 -0.5402
   55MOL0     H 7575  11.145   6.156   2.067  0.5601 -1.3197  0.6563
   55MOL0     H 7576  11.308   6.654   2.292  0.5372 -1.5687 -1.3925
   55MOL0     H 7577  11.184   6.867   2.335 -4.4477  0.2020  1.0547
   55MOL0     H 7578  10.996   6.931   2.397 -2.2030  1.1685  2.0989
   55MOL0     H 7579  11.029   7.093   2.338  0.4872  1.0076 -2.3384
   55MOL0     H 7580  10.792   7.105   2.266  0.9476 -0.0906 -1.0765
   55MOL0     H 7581  10.806   7.074   2.446  2.6712 -0.9870  0.2279
   55MOL0     H 7582  10.724   6.868   2.231 -0.4339 -0.6529  0.3404
   55MOL0     H 7583  10.783   6.832   2.391 -1.1183 -0.9846  0.3050
   55MOL0     H 7584  10.546   7.004   2.355  2.9499  0.3076 -1.4473
   55MOL0     H 7585  10.583   6.906   2.501  1.6308  0.7699  0.3876
   55MOL0     H 7586  10.387   6.613   2.262 -2.0269  0.2823  0.4158
   55MOL0     H 7587  10.972   6.816   1.986  0.9852  1.0523 -0.1114
   55MOL0     H 7588  11.182   6.551   1.840  1.4080  0.8646  1.2706
   55MOL0     H 7589  11.006   6.566   1.889  1.3343 -3.2422 -1.6515
   55MOL0     H 7590  11.106   6.695   1.798 -0.1291 -0.9550  0.0826
   56MOL0     O 7591   1.964   0.099   5.913  0.3690  0.1082  0.0632
   56MOL0     C 7592   2.050   0.181   5.885  0.6869 -0.2952  0.0911
   56MOL0     O 7593   2.172   0.187   5.946 -0.8645 -0.2584  0.5115
   56MOL0     C 7594   2.226   0.067   5.972  0.5046  0.7744  0.2726
   56MOL0     C 7595   2.294  -0.008   5.877 -0.1448  0.6928  0.1505
   56MOL0     C 7596   2.359  -0.131   5.905 -0.1840 -0.3892  0.7454
   56MOL0     C 7597   2.346  -0.188   6.028 -0.1184  0.5726 -0.7988
   56MOL0     O 7598   2.397  -0.312   6.056  0.3310 -0.3081 -0.0601
   56MOL0     C 7599   2.384  -0.375   6.188  0.4414  0.0763 -0.0054
   56MOL0     C 7600   2.473  -0.493   6.202 -0.2002  0.7676  0.3248
   56MOL0     C 7601   2.427  -0.631   6.144 -0.0654 -0.3588  0.5634
   56MOL0     C 7602   2.552  -0.722   6.139  0.4861 -0.5971  1.5682
   56MOL0     C 7603   2.586  -0.787   6.267  0.4682  0.5944 -0.4735
   56MOL0     C 7604   2.700  -0.885   6.246  0.4599  0.0978  0.0651
   56MOL0     C 7605   2.740  -0.959   6.377 -0.5151 -0.3551  0.6364
   56MOL0     C 7606   2.898  -0.984   6.389  0.7891  0.0155  0.4240
   56MOL0     N 7607   2.953  -1.049   6.506  0.4318  0.2607 -0.0364
   56MOL0     C 7608   3.005  -1.008   6.613  0.6866 -0.3990  0.4119
   56MOL0     C 7609   3.031  -1.113   6.700 -0.2822 -0.6976  0.4862
   56MOL0     C 7610   3.084  -1.118   6.844 -0.0910 -0.3106  0.5043
   56MOL0     C 7611   3.135  -1.252   6.904 -0.2055  0.2363  1.0375
   56MOL0     C 7612   3.147  -1.240   7.058  0.0762  0.1274 -0.4334
   56MOL0     C 7613   3.019  -1.274   7.134  0.1495 -1.2271  0.3439
   56MOL0     O 7614   2.915  -1.172   7.125  0.1580  0.4769 -0.4420
   56MOL0     C 7615   2.838  -1.159   7.242  0.7043  0.0040  0.2162
   56MOL0     C 7616   2.754  -1.047   7.251 -0.0965 -1.1091 -0.1195
   56MOL0     C 7617   2.662  -1.020   7.353 -0.0104  0.5997 -0.3017
   56MOL0     C 7618   2.589  -0.886   7.336  0.2681  0.1942  0.3203
   56MOL0     C 7619   2.668  -1.111   7.467  0.2043 -0.0703  0.3575
   56MOL0     C 7620   2.584  -1.099   7.591 -0.1212  0.7010  0.8480
   56MOL0     O 7621   2.607  -1.191   7.682  0.4057 -0.2473  0.4241
   56MOL0     C 7622   2.519  -1.202   7.792  0.2534  0.5342  0.4256
   56MOL0     C 7623   2.393  -1.192   7.783  0.9155 -0.2493 -0.2474
   56MOL0     C 7624   2.304  -1.220   7.895 -0.2799  1.2810  0.0546
   56MOL0     C 7625   2.351  -1.260   8.016  0.0152 -1.6728  0.4934
   56MOL0     O 7626   2.263  -1.273   8.123  0.5830  0.1146 -0.7821
   56MOL0     C 7627   2.299  -1.378   8.217  0.3367  0.9088  0.4416
   56MOL0     C 7628   2.193  -1.404   8.325  1.5109 -0.4357 -0.1097
   56MOL0     C 7629   2.150  -1.280   8.402 -0.2903  0.1983  0.6361
   56MOL0     C 7630   2.070  -1.343   8.521  0.2589 -0.8901  0.5135
   56MOL0     C 7631   2.026  -1.225   8.615  0.4620  0.6266 -0.4417
   56MOL0     C 7632   1.892  -1.277   8.681 -0.3929 -0.5003 -0.6379
   56MOL0     C 7633   1.845  -1.202   8.797  0.0660  0.2555  0.0813
   56MOL0     C 7634   1.796  -1.063   8.772 -0.5572 -0.0479 -0.1036
   56MOL0    Cl 7635   1.766  -0.973   8.917 -0.2520  0.3355 -0.0900
   56MOL0     C 7636   2.490  -1.286   8.020 -0.1774  0.2363  0.2976
   56MOL0     C 7637   2.572  -1.252   7.912 -0.2448 -0.1865 -0.0497
   56MOL0     O 7638   2.506  -0.999   7.595  0.0029 -0.0417  0.1222
   56MOL0     C 7639   2.753  -1.218   7.458 -0.2279 -0.4096  0.1948
   56MOL0     C 7640   2.822  -1.251   7.346  0.3523 -0.1924 -0.3548
   56MOL0     N 7641   2.998  -1.226   6.636  0.2153 -0.1996 -0.1215
   56MOL0     N 7642   2.952  -1.184   6.524 -0.2656 -0.0044 -0.2678
   56MOL0     C 7643   2.288  -0.105   6.125 -0.6521 -0.9128 -0.5543
   56MOL0     C 7644   2.221   0.008   6.096 -0.1430  0.2665  0.4407
   56MOL0     C 7645   2.014   0.278   5.783  0.3114  0.6672  0.4044
   56MOL0     C 7646   1.998   0.404   5.831 -0.2985 -0.0218 -0.1070
   56MOL0     C 7647   1.958   0.511   5.738 -0.8724 -0.0130 -0.3852
   56MOL0     C 7648   1.937   0.485   5.600 -0.2316  0.6691  0.0487
   56MOL0     O 7649   1.914   0.594   5.526 -0.4765 -0.3030  0.0520
   56MOL0     C 7650   1.829   0.574   5.417  0.5702  0.1769  0.2402
   56MOL0     C 7651   1.762   0.709   5.387  0.1248 -0.1604  0.0712
   56MOL0     C 7652   1.870   0.811   5.333  0.2660  1.5139 -0.2310
   56MOL0     C 7653   1.913   0.772   5.193  0.2348 -0.0339  0.4494
   56MOL0     C 7654   1.864   0.873   5.106  0.2309  0.2817  0.9383
   56MOL0     C 7655   1.832   0.962   5.029 -0.2273  0.4103  0.2938
   56MOL0     C 7656   1.946   0.351   5.557  0.7249 -0.6937 -0.3892
   56MOL0     C 7657   1.980   0.251   5.653 -0.2411  0.0918  0.7220
   56MOL0     C 7658   1.980   0.113   5.600 -0.1005  0.4671 -0.0435
   56MOL0     H 7659   2.286   0.029   5.775  2.8685 -0.4802 -0.6191
   56MOL0     H 7660   2.424  -0.191   5.841 -0.5162 -0.3115  0.3341
   56MOL0     H 7661   2.276  -0.389   6.198  0.0254  0.0001 -3.5120
   56MOL0     H 7662   2.420  -0.305   6.264 -1.2931  2.1820 -1.0325
   56MOL0     H 7663   2.569  -0.472   6.154  0.2590  0.6766  1.1660
   56MOL0     H 7664   2.486  -0.511   6.310 -1.3021 -1.6646  0.1255
   56MOL0     H 7665   2.340  -0.660   6.204 -0.8986  0.4338 -0.2440
   56MOL0     H 7666   2.400  -0.613   6.040 -0.7409 -4.0742 -0.0505
   56MOL0     H 7667   2.531  -0.801   6.066  1.6175 -0.0985  0.6832
   56MOL0     H 7668   2.635  -0.664   6.098 -0.6355  2.4341  3.2644
   56MOL0     H 7669   2.512  -0.846   6.321  1.8454 -0.4631  0.3392
   56MOL0     H 7670   2.612  -0.701   6.329 -1.3413 -0.2634  1.6073
   56MOL0     H 7671   2.672  -0.966   6.178  0.3984  0.1299  0.0517
   56MOL0     H 7672   2.784  -0.840   6.194 -0.5599 -0.2171 -1.9627
   56MOL0     H 7673   2.689  -1.056   6.376  0.2179 -0.8503  3.1551
   56MOL0     H 7674   2.709  -0.905   6.466  2.4115 -0.2235  1.6862
   56MOL0     H 7675   2.930  -1.046   6.305 -1.3422 -0.7425  0.1025
   56MOL0     H 7676   2.937  -0.882   6.381 -0.7983  0.8057  2.0232
   56MOL0     H 7677   3.028  -0.907   6.643  0.2540 -0.9373  2.6887
   56MOL0     H 7678   2.996  -1.079   6.896 -1.0712  0.2799 -1.5231
   56MOL0     H 7679   3.165  -1.044   6.848 -0.0863 -0.1315 -1.6772
   56MOL0     H 7680   3.061  -1.326   6.869 -0.6222  0.7943  0.7236
   56MOL0     H 7681   3.223  -1.270   6.841 -1.3476  0.2872 -0.6483
   56MOL0     H 7682   3.217  -1.312   7.100 -0.9565  1.0836  3.2580
   56MOL0     H 7683   3.176  -1.137   7.084  1.1055  0.1794 -1.6462
   56MOL0     H 7684   2.977  -1.368   7.096 -2.1555  0.4358 -1.5633
   56MOL0     H 7685   3.047  -1.284   7.239 -0.9766 -0.5381  0.7315
   56MOL0     H 7686   2.738  -0.981   7.166 -3.7251 -1.8678 -0.1971
   56MOL0     H 7687   2.496  -0.896   7.280  0.4454  1.6459 -0.2802
   56MOL0     H 7688   2.654  -0.826   7.271 -1.8316  0.3008 -1.8375
   56MOL0     H 7689   2.579  -0.834   7.432 -0.5555  0.1239  0.2762
   56MOL0     H 7690   2.342  -1.145   7.699 -1.3193  0.3511  1.3426
   56MOL0     H 7691   2.199  -1.192   7.893 -0.1056  1.9703  0.1085
   56MOL0     H 7692   2.300  -1.471   8.159  1.1531  2.4609 -2.1996
   56MOL0     H 7693   2.391  -1.356   8.272 -0.9152 -1.0553  3.5814
   56MOL0     H 7694   2.097  -1.434   8.282  0.9700 -0.4518  1.0680
   56MOL0     H 7695   2.226  -1.489   8.385 -1.0373 -1.5461 -0.1707
   56MOL0     H 7696   2.086  -1.210   8.348 -3.0991 -0.3018  3.0385
   56MOL0     H 7697   2.243  -1.228   8.426  1.7435 -1.9502 -1.8980
   56MOL0     H 7698   2.128  -1.422   8.569 -1.4455 -2.7973 -0.4180
   56MOL0     H 7699   1.981  -1.381   8.469 -1.0426 -0.7276  2.5091
   56MOL0     H 7700   2.104  -1.206   8.689  0.8126 -1.7956 -0.1061
   56MOL0     H 7701   1.996  -1.135   8.561 -1.1723 -0.1749 -0.9722
   56MOL0     H 7702   1.901  -1.383   8.706 -0.6298 -0.1999  0.7760
   56MOL0     H 7703   1.826  -1.268   8.594  0.4025 -0.0019 -1.2047
   56MOL0     H 7704   1.924  -1.197   8.874 -1.6741  2.0071  1.8800
   56MOL0     H 7705   1.757  -1.249   8.841  2.2447 -3.5605  0.7908
   56MOL0     H 7706   1.715  -1.056   8.699 -0.0193  4.5796 -0.5842
   56MOL0     H 7707   1.882  -1.017   8.722 -0.3943 -2.0500 -1.8147
   56MOL0     H 7708   2.542  -1.318   8.110  1.6473  1.9574 -0.0813
   56MOL0     H 7709   2.680  -1.262   7.915  0.2531  3.8118  0.2534
   56MOL0     H 7710   2.764  -1.295   7.535 -3.4585 -1.6599 -0.4531
   56MOL0     H 7711   2.886  -1.336   7.371  2.3519  1.1547 -0.6059
   56MOL0     H 7712   2.283  -0.137   6.229 -2.3078 -0.8743 -0.5984
   56MOL0     H 7713   2.154   0.057   6.167  1.7777  3.1188  0.4320
   56MOL0     H 7714   2.021   0.436   5.932  3.9694 -1.8002 -0.2807
   56MOL0     H 7715   1.934   0.613   5.767 -1.2093  0.3962 -2.0235
   56MOL0     H 7716   1.885   0.533   5.333 -0.5203  0.5194 -0.6843
   56MOL0     H 7717   1.744   0.508   5.438  1.3176 -1.1303 -0.6966
   56MOL0     H 7718   1.731   0.758   5.480  0.0823  1.8178 -0.9208
   56MOL0     H 7719   1.679   0.688   5.319  1.8618 -0.7597 -1.9438
   56MOL0     H 7720   1.828   0.912   5.331 -0.4302  1.4132  3.2212
   56MOL0     H 7721   1.954   0.814   5.403  0.5624 -0.5579 -0.4372
   56MOL0     H 7722   1.883   0.670   5.165  0.0329  0.0241  0.4531
   56MOL0     H 7723   2.022   0.775   5.185  0.1643 -0.2126 -0.8123
   56MOL0     H 7724   1.803   1.039   4.960 -1.8691  1.6510  2.2680
   56MOL0     H 7725   1.937   0.334   5.450  3.0093  0.6916 -0.8642
   56MOL0     H 7726   2.021   0.099   5.499 -2.7205 -0.3210 -1.1109
   56MOL0     H 7727   2.025   0.042   5.670 -2.9916 -0.4457  1.0541
   56MOL0     H 7728   1.876   0.079   5.594  0.1587 -0.1653 -1.7414
   57MOL0     O 7729  10.212   3.850   8.782 -0.2058 -0.0515  0.4971
   57MOL0     C 7730  10.217   3.946   8.704 -0.0636  0.3326  1.0797
   57MOL0     O 7731  10.175   4.069   8.731 -0.0097  0.0856  0.3591
   57MOL0     C 7732  10.077   4.082   8.824 -0.1490 -0.2617 -1.2833
   57MOL0     C 7733   9.966   4.000   8.835 -0.3148 -0.0131  0.2623
   57MOL0     C 7734   9.878   4.011   8.940  1.2878 -0.5199 -0.3918
   57MOL0     C 7735   9.897   4.100   9.047  0.4936 -0.1596  0.7734
   57MOL0     O 7736   9.813   4.099   9.159  0.2943  0.3845 -0.1528
   57MOL0     C 7737   9.754   3.971   9.192  0.6158  0.6791  0.0658
   57MOL0     C 7738   9.693   3.982   9.331 -0.5963 -0.0489 -0.4684
   57MOL0     C 7739   9.789   4.021   9.446 -0.7216  0.7694 -0.4721
   57MOL0     C 7740   9.710   4.066   9.573  0.8260  0.0740 -0.0089
   57MOL0     C 7741   9.806   4.132   9.681  0.8831  0.5713  1.0650
   57MOL0     C 7742   9.857   4.273   9.650  0.6601 -0.2957  0.6771
   57MOL0     C 7743   9.943   4.347   9.742  0.0763 -0.3000  0.3477
   57MOL0     C 7744  10.064   4.267   9.779  0.4665 -0.0433 -0.7445
   57MOL0     N 7745  10.144   4.237   9.665 -0.0220  0.4832  0.9200
   57MOL0     C 7746  10.182   4.116   9.616  0.5687 -0.7070 -0.1824
   57MOL0     C 7747  10.252   4.144   9.509  0.3299 -0.1150 -0.7983
   57MOL0     C 7748  10.321   4.035   9.420 -1.2728 -0.5017  1.6031
   57MOL0     C 7749  10.218   3.979   9.312  0.2246  0.3941  0.1656
   57MOL0     C 7750  10.282   3.872   9.222 -0.2322 -0.9654 -0.3856
   57MOL0     C 7751  10.195   3.805   9.126  0.3457 -0.4879 -0.1492
   57MOL0     O 7752  10.118   3.716   9.204  0.6603  0.8112 -0.8051
   57MOL0     C 7753  10.032   3.621   9.157 -0.2425  0.6635  0.7478
   57MOL0     C 7754   9.942   3.563   9.245  0.3781 -0.1207 -0.1548
   57MOL0     C 7755   9.854   3.461   9.216  0.7760  0.2600  0.6432
   57MOL0     C 7756   9.770   3.403   9.332 -0.4465 -0.2638  0.8851
   57MOL0     C 7757   9.847   3.422   9.080 -0.6405 -0.2169  0.4554
   57MOL0     C 7758   9.754   3.318   9.023  0.8198 -0.6097  0.5954
   57MOL0     O 7759   9.786   3.280   8.905 -0.2228  0.4089  0.7827
   57MOL0     C 7760   9.702   3.209   8.817 -0.0258  0.1001 -0.9639
   57MOL0     C 7761   9.621   3.108   8.854  0.1877 -0.4159 -0.4780
   57MOL0     C 7762   9.548   3.034   8.774  0.1798 -0.1566 -0.3790
   57MOL0     C 7763   9.552   3.069   8.634 -0.6372 -0.7723 -0.8951
   57MOL0     O 7764   9.516   2.975   8.541  0.6118  0.0094  0.4694
   57MOL0     C 7765   9.394   2.904   8.563 -0.9559  0.0660  0.2033
   57MOL0     C 7766   9.328   2.855   8.433  0.7295 -0.4066 -0.8409
   57MOL0     C 7767   9.291   2.971   8.351  0.4075 -1.2245 -0.3856
   57MOL0     C 7768   9.225   2.933   8.223 -0.0979  0.3585  0.6291
   57MOL0     C 7769   9.098   2.855   8.232  0.9107 -0.6203  0.5529
   57MOL0     C 7770   9.077   2.776   8.109 -1.3676  0.4862  0.6993
   57MOL0     C 7771   8.930   2.738   8.078 -0.5778  0.2171  0.0732
   57MOL0     C 7772   8.879   2.645   8.193  0.9494  0.0498 -0.1307
   57MOL0    Cl 7773   8.719   2.559   8.146  0.5309 -0.2063  0.3720
   57MOL0     C 7774   9.636   3.174   8.590 -1.0374  0.5450 -0.2359
   57MOL0     C 7775   9.714   3.240   8.681  0.5085  0.0075 -0.0811
   57MOL0     O 7776   9.659   3.273   9.086 -0.3380 -0.6137  0.0471
   57MOL0     C 7777   9.943   3.481   8.994 -0.2716  0.5968  0.1218
   57MOL0     C 7778  10.026   3.584   9.029  0.4644 -0.5181 -0.6906
   57MOL0     N 7779  10.269   4.280   9.486 -0.1294 -0.3122  0.2352
   57MOL0     N 7780  10.201   4.339   9.582 -0.4110 -0.0527 -0.1374
   57MOL0     C 7781  10.000   4.192   9.029 -0.1343 -0.8348  0.8230
   57MOL0     C 7782  10.089   4.180   8.920 -0.9196 -0.8290 -0.7674
   57MOL0     C 7783  10.268   3.912   8.568 -0.6823 -1.0253 -0.2128
   57MOL0     C 7784  10.305   4.019   8.485 -0.4764  0.8907 -0.5845
   57MOL0     C 7785  10.363   3.997   8.364  0.6334 -0.2550 -0.6724
   57MOL0     C 7786  10.387   3.873   8.311  0.5117  1.3644  0.3426
   57MOL0     O 7787  10.428   3.872   8.182  0.3798  0.5016  0.4725
   57MOL0     C 7788  10.530   3.784   8.144  0.2732  0.6725 -0.3033
   57MOL0     C 7789  10.667   3.826   8.204  0.1451 -0.6038  0.5692
   57MOL0     C 7790  10.738   3.945   8.131  0.0348  0.2080 -0.6560
   57MOL0     C 7791  10.671   4.081   8.126  0.0824  0.0589 -0.1608
   57MOL0     C 7792  10.760   4.186   8.080  0.1912 -0.2822  0.3323
   57MOL0     C 7793  10.823   4.285   8.054  0.4480 -0.1668 -0.2825
   57MOL0     C 7794  10.337   3.766   8.385 -0.9399 -0.0520  0.1368
   57MOL0     C 7795  10.272   3.778   8.506 -0.3386 -0.2933 -1.2800
   57MOL0     C 7796  10.234   3.647   8.572  0.2392 -0.5000  0.1776
   57MOL0     H 7797   9.946   3.921   8.763  0.8681 -0.8528  0.8222
   57MOL0     H 7798   9.790   3.947   8.935  0.7371  0.3026 -2.5626
   57MOL0     H 7799   9.824   3.887   9.186  1.1790  1.2306 -1.3922
   57MOL0     H 7800   9.669   3.947   9.128  1.5954 -2.8612 -0.1624
   57MOL0     H 7801   9.613   4.056   9.323 -2.1361 -1.7629 -1.6423
   57MOL0     H 7802   9.655   3.883   9.357 -1.1674  0.5623  1.1928
   57MOL0     H 7803   9.850   3.936   9.477 -1.4736 -0.4484 -2.2063
   57MOL0     H 7804   9.857   4.100   9.412  1.9732 -0.6166  1.3807
   57MOL0     H 7805   9.639   4.145   9.546  1.8367  0.5655 -1.3324
   57MOL0     H 7806   9.660   3.983   9.623 -0.3208  0.6569 -0.1512
   57MOL0     H 7807   9.895   4.069   9.692 -0.4811 -1.4415  0.8577
   57MOL0     H 7808   9.755   4.147   9.776  1.6225  4.2256  1.0703
   57MOL0     H 7809   9.914   4.272   9.557 -0.7491 -0.1061 -0.2286
   57MOL0     H 7810   9.777   4.348   9.650  1.5776  0.7124  0.1522
   57MOL0     H 7811   9.889   4.366   9.835  1.2072  1.6045  0.6731
   57MOL0     H 7812   9.977   4.438   9.692  5.0650 -2.2606 -0.4535
   57MOL0     H 7813  10.130   4.316   9.851  0.3755  0.0506 -0.7246
   57MOL0     H 7814  10.036   4.176   9.832  1.4271 -0.2937 -0.6454
   57MOL0     H 7815  10.148   4.020   9.652 -2.7130  0.1359 -0.6582
   57MOL0     H 7816  10.363   3.954   9.481  0.2527 -0.3284  0.8298
   57MOL0     H 7817  10.409   4.081   9.374  0.6511  1.6792  6.7102
   57MOL0     H 7818  10.132   3.930   9.359  1.2404 -2.1707 -0.4554
   57MOL0     H 7819  10.179   4.063   9.254  1.0000  0.4529 -0.2893
   57MOL0     H 7820  10.362   3.926   9.170  1.8675  0.4219  3.7874
   57MOL0     H 7821  10.333   3.806   9.293  1.3151  0.7108  0.1355
   57MOL0     H 7822  10.138   3.875   9.065 -2.2116  0.4382  2.9897
   57MOL0     H 7823  10.262   3.746   9.064  2.9835  0.8441  1.2804
   57MOL0     H 7824   9.946   3.604   9.346 -2.7885 -0.6184  0.2906
   57MOL0     H 7825   9.661   3.409   9.323 -0.3855  0.2239  0.4310
   57MOL0     H 7826   9.797   3.467   9.417  2.2461 -0.7004  0.4302
   57MOL0     H 7827   9.801   3.303   9.367  0.6968 -0.2013  0.0922
   57MOL0     H 7828   9.602   3.102   8.961 -3.3554  1.6714 -0.8357
   57MOL0     H 7829   9.502   2.939   8.801  3.8255 -1.9164  0.2417
   57MOL0     H 7830   9.420   2.825   8.634 -1.8990  0.3439  0.8864
   57MOL0     H 7831   9.325   2.971   8.616 -1.9161 -3.1929  3.5678
   57MOL0     H 7832   9.375   2.774   8.376 -3.2604 -3.0390 -0.8116
   57MOL0     H 7833   9.235   2.809   8.468  0.8647 -0.0983 -0.0634
   57MOL0     H 7834   9.366   3.044   8.322 -1.8762 -0.0322 -4.0908
   57MOL0     H 7835   9.219   3.026   8.412  1.3628 -1.3742  0.9041
   57MOL0     H 7836   9.305   2.872   8.179 -0.8494 -0.0138 -0.2559
   57MOL0     H 7837   9.216   3.026   8.166  0.9704  0.4033  0.5203
   57MOL0     H 7838   9.096   2.783   8.314 -0.3182 -2.5331 -1.0754
   57MOL0     H 7839   9.018   2.929   8.238  0.2329 -1.0407 -1.9356
   57MOL0     H 7840   9.125   2.678   8.117 -1.6729  0.1318 -1.2997
   57MOL0     H 7841   9.120   2.834   8.026  0.6709 -0.2306  1.1849
   57MOL0     H 7842   8.921   2.679   7.986  2.1146 -0.3836  0.0937
   57MOL0     H 7843   8.878   2.833   8.071 -0.4655  0.1956 -1.5545
   57MOL0     H 7844   8.861   2.707   8.281  3.1193  1.2796 -0.4940
   57MOL0     H 7845   8.951   2.569   8.226 -0.7112 -1.9220 -0.8386
   57MOL0     H 7846   9.669   3.200   8.490  0.7378 -1.6616 -0.2909
   57MOL0     H 7847   9.794   3.308   8.653  1.2658 -1.5271 -1.8045
   57MOL0     H 7848   9.945   3.440   8.893  0.4448  1.1576 -0.1051
   57MOL0     H 7849  10.082   3.629   8.948 -2.5060  2.3202 -1.4099
   57MOL0     H 7850  10.008   4.271   9.103 -0.8475  0.4032 -0.3668
   57MOL0     H 7851  10.176   4.242   8.939 -1.7215 -0.2269  1.1886
   57MOL0     H 7852  10.297   4.118   8.531  2.6453  0.3834  1.3582
   57MOL0     H 7853  10.384   4.087   8.307 -1.5605  1.1743  0.6270
   57MOL0     H 7854  10.507   3.683   8.179  0.4032  0.1664 -1.6260
   57MOL0     H 7855  10.555   3.782   8.037 -3.7012 -0.0842 -1.3811
   57MOL0     H 7856  10.724   3.733   8.209  1.4598  0.2048  5.5309
   57MOL0     H 7857  10.667   3.847   8.311  1.6280 -1.2584  0.7210
   57MOL0     H 7858  10.839   3.942   8.172 -0.7083 -2.4459  1.2356
   57MOL0     H 7859  10.755   3.917   8.026  4.2146 -5.2480  1.0197
   57MOL0     H 7860  10.636   4.101   8.228  0.8981 -1.6820  0.4987
   57MOL0     H 7861  10.586   4.090   8.059 -1.3761  3.9638  1.8711
   57MOL0     H 7862  10.893   4.365   8.036 -0.8020  0.4320 -3.1556
   57MOL0     H 7863  10.346   3.671   8.334 -1.7917 -0.7118  1.1650
   57MOL0     H 7864  10.268   3.651   8.676  0.8255  1.7862 -0.0602
   57MOL0     H 7865  10.126   3.630   8.561  0.2186 -1.1789  1.2410
   57MOL0     H 7866  10.288   3.569   8.518  1.0233  1.2910 -1.7514
   58MOL0     O 7867   1.473   8.439   4.830  0.2772  0.5699 -0.5501
   58MOL0     C 7868   1.464   8.435   4.942 -0.5586  0.3284 -0.0785
   58MOL0     O 7869   1.444   8.545   5.024 -0.0661  0.3800 -0.0601
   58MOL0     C 7870   1.411   8.660   4.950  0.3386 -0.2596 -0.8251
   58MOL0     C 7871   1.515   8.741   4.911 -0.2318  0.1425 -0.5429
   58MOL0     C 7872   1.490   8.851   4.830  0.6527 -0.1252  0.0510
   58MOL0     C 7873   1.357   8.881   4.791  1.0552  0.5671 -1.0417
   58MOL0     O 7874   1.312   8.966   4.694  0.0640 -0.4954 -0.1750
   58MOL0     C 7875   1.399   9.011   4.588  0.7234 -0.1277 -0.2376
   58MOL0     C 7876   1.330   9.035   4.458  0.8665  0.2328  0.3244
   58MOL0     C 7877   1.198   9.121   4.471  0.4244  1.2711 -0.7819
   58MOL0     C 7878   1.127   9.141   4.333 -0.1979 -1.0079 -0.2174
   58MOL0     C 7879   0.990   9.197   4.354  0.5059  0.3073  0.0588
   58MOL0     C 7880   0.938   9.235   4.216 -1.0542  0.2071  0.0963
   58MOL0     C 7881   0.810   9.324   4.232 -0.7943 -0.4214 -0.9352
   58MOL0     C 7882   0.738   9.340   4.105 -0.1378 -0.0887 -0.4748
   58MOL0     N 7883   0.617   9.422   4.115 -0.0001 -0.9420  0.8144
   58MOL0     C 7884   0.513   9.376   4.182 -0.4122  0.5466  0.0052
   58MOL0     C 7885   0.422   9.477   4.165  0.4754 -1.0324  0.2925
   58MOL0     C 7886   0.281   9.472   4.213 -0.6161  0.5590  0.3994
   58MOL0     C 7887   0.203   9.600   4.170 -0.2857  0.1391 -0.4870
   58MOL0     C 7888   0.056   9.587   4.219 -0.3018  0.3302  0.1239
   58MOL0     C 7889  -0.049   9.654   4.132 -0.2178  0.8118  0.0664
   58MOL0     O 7890  -0.045   9.788   4.158  0.6354 -0.0677 -0.2658
   58MOL0     C 7891  -0.161   9.826   4.214  0.1566 -0.4761  0.1895
   58MOL0     C 7892  -0.285   9.826   4.145  0.2099  0.1801  0.5714
   58MOL0     C 7893  -0.409   9.862   4.205 -0.3880 -0.4892  0.2913
   58MOL0     C 7894  -0.531   9.859   4.118 -0.6725 -0.3496  0.4204
   58MOL0     C 7895  -0.402   9.904   4.341 -0.2125  0.3581 -0.4345
   58MOL0     C 7896  -0.521   9.951   4.417 -0.2166 -0.7774  0.3496
   58MOL0     O 7897  -0.643   9.951   4.356 -0.0190 -0.0415  0.5894
   58MOL0     C 7898  -0.746  10.034   4.393 -0.0452  0.2684 -0.3838
   58MOL0     C 7899  -0.850  10.003   4.488  0.4823 -0.1718 -0.1585
   58MOL0     C 7900  -0.956  10.088   4.510 -0.1265 -0.0329 -0.7150
   58MOL0     C 7901  -0.961  10.214   4.446 -1.0421  0.2871  0.3322
   58MOL0     O 7902  -1.058  10.307   4.482 -0.0040  0.7044 -0.4101
   58MOL0     C 7903  -1.138  10.356   4.373 -0.5472  0.7350  0.3049
   58MOL0     C 7904  -1.273  10.271   4.361  0.4590 -0.0198 -1.1083
   58MOL0     C 7905  -1.360  10.290   4.489 -0.7056  0.5187  0.4897
   58MOL0     C 7906  -1.488  10.215   4.490  0.9111  0.6775 -0.2557
   58MOL0     C 7907  -1.451  10.065   4.515  0.5502  0.7586 -0.2978
   58MOL0     C 7908  -1.467  10.037   4.666 -0.5950 -1.0276  0.2298
   58MOL0     C 7909  -1.395   9.898   4.685  0.3416 -0.2703  0.0960
   58MOL0     C 7910  -1.459   9.774   4.610 -0.6399 -0.8648 -0.5786
   58MOL0    Cl 7911  -1.409   9.618   4.673 -0.0878 -0.2196  0.1902
   58MOL0     C 7912  -0.856  10.245   4.354  1.0984  0.3584  0.5012
   58MOL0     C 7913  -0.751  10.160   4.331  0.4099 -0.3244  0.0297
   58MOL0     O 7914  -0.494   9.988   4.529  0.0578 -0.2866 -0.0029
   58MOL0     C 7915  -0.280   9.897   4.413  0.0629  0.2125 -0.1558
   58MOL0     C 7916  -0.160   9.858   4.346  0.7508 -0.1258 -0.8146
   58MOL0     N 7917   0.481   9.580   4.093  0.1080  0.1774 -0.3108
   58MOL0     N 7918   0.596   9.547   4.059  0.0329  0.8883  0.2997
   58MOL0     C 7919   1.254   8.808   4.856 -0.6245 -0.1058 -0.0747
   58MOL0     C 7920   1.278   8.695   4.921  0.5759  0.7207  0.8276
   58MOL0     C 7921   1.498   8.303   5.011  0.7823 -0.6451  1.4084
   58MOL0     C 7922   1.502   8.302   5.153  0.0731  0.4949 -0.3536
   58MOL0     C 7923   1.556   8.201   5.228 -1.1364 -0.0113 -0.2909
   58MOL0     C 7924   1.606   8.091   5.162  0.7080 -0.6563  1.0196
   58MOL0     O 7925   1.657   8.003   5.244 -0.8617  0.6070 -0.6998
   58MOL0     C 7926   1.709   7.879   5.205 -0.1476  0.4840 -0.3261
   58MOL0     C 7927   1.850   7.902   5.148 -0.0118  1.6251 -0.4505
   58MOL0     C 7928   1.911   7.778   5.078 -0.0949 -1.0155 -0.2515
   58MOL0     C 7929   1.970   7.679   5.191  0.3392  1.2258  0.4560
   58MOL0     C 7930   2.054   7.565   5.131  0.5751 -0.0517  0.3991
   58MOL0     C 7931   2.094   7.461   5.087  0.2946 -0.0762 -0.1907
   58MOL0     C 7932   1.587   8.079   5.027 -0.1458  0.5488 -0.8677
   58MOL0     C 7933   1.535   8.189   4.952  0.3780 -0.9300  0.6914
   58MOL0     C 7934   1.536   8.158   4.799  0.3480 -0.7578 -0.2684
   58MOL0     H 7935   1.617   8.735   4.950 -1.0546  3.9843  2.9460
   58MOL0     H 7936   1.577   8.911   4.804  0.7212 -0.7207 -1.1633
   58MOL0     H 7937   1.476   8.935   4.571  0.6393 -0.1006 -0.7483
   58MOL0     H 7938   1.457   9.097   4.623 -0.1157  0.4909 -0.3413
   58MOL0     H 7939   1.402   9.087   4.394 -0.0875 -1.5516 -2.3664
   58MOL0     H 7940   1.307   8.935   4.419 -0.2989  0.6539 -0.1050
   58MOL0     H 7941   1.133   9.072   4.544  2.6980 -1.0780 -0.2013
   58MOL0     H 7942   1.227   9.221   4.507  0.0792  0.2673  2.6924
   58MOL0     H 7943   1.188   9.221   4.291 -0.2703 -0.8939 -0.1079
   58MOL0     H 7944   1.127   9.050   4.273  2.6121 -0.5909 -0.9936
   58MOL0     H 7945   0.989   9.289   4.412 -0.0306  1.4083 -1.6167
   58MOL0     H 7946   0.926   9.118   4.393 -0.9476 -0.2763 -3.2056
   58MOL0     H 7947   1.007   9.291   4.152  1.6351 -5.5279 -2.6796
   58MOL0     H 7948   0.906   9.147   4.160 -1.9358  0.7988 -0.3563
   58MOL0     H 7949   0.846   9.422   4.265 -1.0508  0.0561 -2.0424
   58MOL0     H 7950   0.754   9.284   4.318  1.3924 -1.2683  0.1656
   58MOL0     H 7951   0.809   9.387   4.036 -0.9867 -1.1779 -2.1537
   58MOL0     H 7952   0.713   9.243   4.061  1.4346 -0.1340 -1.3383
   58MOL0     H 7953   0.502   9.281   4.232 -0.1055 -1.7973 -3.9999
   58MOL0     H 7954   0.266   9.451   4.319  1.2981 -0.9174  0.4376
   58MOL0     H 7955   0.231   9.386   4.167  0.8603  0.7692 -1.7532
   58MOL0     H 7956   0.252   9.686   4.216 -4.8948  1.4133  2.7427
   58MOL0     H 7957   0.211   9.606   4.061 -0.4337  0.1041 -0.4997
   58MOL0     H 7958   0.020   9.484   4.216 -2.8540  1.1447 -4.1873
   58MOL0     H 7959   0.046   9.630   4.320  1.0143  1.5398 -0.2245
   58MOL0     H 7960  -0.024   9.641   4.026 -2.6930  3.2649 -0.9536
   58MOL0     H 7961  -0.147   9.611   4.155 -1.0256  2.7581  0.4691
   58MOL0     H 7962  -0.295   9.796   4.041 -1.3712  0.2430  0.6741
   58MOL0     H 7963  -0.494   9.835   4.017  0.9924 -2.5946  1.4805
   58MOL0     H 7964  -0.582   9.955   4.108  0.5637  0.1944 -1.0815
   58MOL0     H 7965  -0.595   9.775   4.146 -1.2459 -0.6730 -1.6786
   58MOL0     H 7966  -0.857   9.910   4.543  2.3939 -0.3073 -0.0777
   58MOL0     H 7967  -1.038  10.052   4.571  0.3765  0.4883  0.2991
   58MOL0     H 7968  -1.174  10.459   4.384 -3.5440  0.0501 -1.8658
   58MOL0     H 7969  -1.080  10.356   4.281 -1.1818 -1.6134 -0.1516
   58MOL0     H 7970  -1.318  10.327   4.280 -0.0687  1.0958 -0.0793
   58MOL0     H 7971  -1.254  10.165   4.343 -3.8536 -1.5449  1.8415
   58MOL0     H 7972  -1.387  10.395   4.478  2.7690  1.5952  1.1691
   58MOL0     H 7973  -1.297  10.268   4.576  0.0498 -1.1466 -0.4376
   58MOL0     H 7974  -1.535  10.233   4.393  1.1699 -2.7829 -1.1502
   58MOL0     H 7975  -1.550  10.253   4.571 -0.2740 -0.9933 -0.3314
   58MOL0     H 7976  -1.510   9.996   4.454  0.9651 -1.2799  1.5181
   58MOL0     H 7977  -1.347  10.044   4.488 -0.1731  0.0305 -2.8081
   58MOL0     H 7978  -1.574  10.047   4.689 -1.2030  0.9350 -2.9416
   58MOL0     H 7979  -1.400  10.102   4.723  1.2745 -3.0530  0.4678
   58MOL0     H 7980  -1.401   9.868   4.790 -1.0370 -2.3453 -0.4961
   58MOL0     H 7981  -1.291   9.898   4.652 -0.3616 -1.7985 -2.3519
   58MOL0     H 7982  -1.432   9.772   4.504 -0.6104 -1.8761 -0.5559
   58MOL0     H 7983  -1.566   9.796   4.616 -0.6265 -0.2821 -2.0872
   58MOL0     H 7984  -0.855  10.341   4.304  0.2508  1.8324  3.1298
   58MOL0     H 7985  -0.671  10.200   4.270  0.1602 -1.8518 -1.3720
   58MOL0     H 7986  -0.271   9.929   4.516  0.9515  0.4937 -0.3085
   58MOL0     H 7987  -0.079   9.845   4.417  0.2923 -1.9001 -0.5507
   58MOL0     H 7988   1.152   8.840   4.832 -1.5174 -4.8166 -4.1109
   58MOL0     H 7989   1.202   8.631   4.964 -0.7823  2.5635  1.3030
   58MOL0     H 7990   1.466   8.378   5.221  0.2256 -0.7858  1.2326
   58MOL0     H 7991   1.565   8.202   5.336  0.6788 -2.2551 -0.3495
   58MOL0     H 7992   1.724   7.813   5.291 -0.0633 -1.3662 -1.7026
   58MOL0     H 7993   1.651   7.820   5.132  0.0579 -2.3388  1.6216
   58MOL0     H 7994   1.913   7.921   5.235  2.4562 -2.3129 -1.0894
   58MOL0     H 7995   1.846   7.984   5.076 -3.3662  0.0235 -2.3418
   58MOL0     H 7996   1.838   7.721   5.019 -0.9311 -1.1414  0.8684
   58MOL0     H 7997   1.992   7.815   5.015  0.0838  2.9034  1.9452
   58MOL0     H 7998   1.888   7.646   5.255  0.1626 -1.4697 -1.0135
   58MOL0     H 7999   2.030   7.729   5.268 -0.2737  0.7408  1.2594
   58MOL0     H 8000   2.119   7.363   5.052  3.9180  0.6813 -0.1124
   58MOL0     H 8001   1.613   7.991   4.968 -1.9716 -1.1586  0.7585
   58MOL0     H 8002   1.578   8.060   4.777  0.6674 -0.9161  0.9558
   58MOL0     H 8003   1.433   8.139   4.768 -0.8127 -0.6196  3.0537
   58MOL0     H 8004   1.591   8.241   4.754  1.9052 -1.1721  0.7990
   59MOL0     O 8005  10.799   1.896  11.032  0.1508 -0.5968 -0.0031
   59MOL0     C 8006  10.768   1.785  11.067  0.3026  0.6468  0.2356
   59MOL0     O 8007  10.769   1.743  11.192 -0.1054 -0.0484  0.0238
   59MOL0     C 8008  10.829   1.813  11.289 -0.1985  0.4371  0.1105
   59MOL0     C 8009  10.960   1.777  11.334 -0.3441  0.1408  0.3742
   59MOL0     C 8010  11.024   1.848  11.437 -1.4036  0.3898 -0.1862
   59MOL0     C 8011  10.963   1.973  11.487  0.4143 -0.1348  0.3832
   59MOL0     O 8012  11.035   2.070  11.564  0.5674 -0.8604  1.0019
   59MOL0     C 8013  11.046   2.020  11.695 -0.4030  0.0596 -0.4176
   59MOL0     C 8014  11.045   2.118  11.802  0.6420 -0.0419  0.4187
   59MOL0     C 8015  10.919   2.209  11.819  0.4459  0.4373 -0.5190
   59MOL0     C 8016  10.944   2.297  11.940 -0.1936 -0.5630 -0.3511
   59MOL0     C 8017  10.833   2.407  11.934 -0.7026 -0.1506 -0.3258
   59MOL0     C 8018  10.866   2.520  12.041 -0.3985  0.1675  0.3652
   59MOL0     C 8019  10.784   2.654  12.021 -0.1424 -0.2067 -0.1779
   59MOL0     C 8020  10.647   2.648  12.092  0.1829  0.4244  0.5824
   59MOL0     N 8021  10.543   2.553  12.044  0.4847 -0.0246 -0.0219
   59MOL0     C 8022  10.516   2.422  12.082 -0.5305 -0.1007 -0.2480
   59MOL0     C 8023  10.428   2.375  11.996  0.9281  0.5170 -0.3278
   59MOL0     C 8024  10.366   2.237  12.007 -0.8513  0.2915  0.6932
   59MOL0     C 8025  10.338   2.200  12.153 -0.0775  0.2140 -0.1299
   59MOL0     C 8026  10.279   2.060  12.181  0.3562  0.9024 -0.1373
   59MOL0     C 8027  10.127   2.062  12.141 -0.2445  0.1199  0.0446
   59MOL0     O 8028  10.089   1.926  12.123  0.0092  0.1600  0.1715
   59MOL0     C 8029   9.955   1.895  12.128  0.9027  0.2342  0.4758
   59MOL0     C 8030   9.852   1.988  12.128 -0.7197 -0.1343 -0.2385
   59MOL0     C 8031   9.718   1.947  12.106 -0.5552 -0.1471 -0.3948
   59MOL0     C 8032   9.620   2.057  12.105 -0.1551  0.3732 -0.2474
   59MOL0     C 8033   9.681   1.810  12.102 -0.0786 -0.7551  0.0118
   59MOL0     C 8034   9.544   1.759  12.093  1.2992 -0.1717 -0.3964
   59MOL0     O 8035   9.444   1.829  12.151 -0.3290  0.3565 -0.3457
   59MOL0     C 8036   9.316   1.800  12.120  0.0814  0.3181  0.9877
   59MOL0     C 8037   9.263   1.868  12.006 -0.7578  0.2537 -1.4579
   59MOL0     C 8038   9.126   1.863  11.990 -0.4363  0.0699  0.4123
   59MOL0     C 8039   9.041   1.787  12.074 -0.5035  0.8055  0.4299
   59MOL0     O 8040   8.908   1.752  12.033  0.3344  0.0191 -0.2411
   59MOL0     C 8041   8.802   1.731  12.133 -0.4053 -0.0806  0.0334
   59MOL0     C 8042   8.663   1.767  12.080  0.1788  0.4191  0.2850
   59MOL0     C 8043   8.649   1.917  12.054  0.0461  0.5364  0.3501
   59MOL0     C 8044   8.499   1.952  12.017 -0.6655  0.9117  0.0147
   59MOL0     C 8045   8.490   2.098  11.972 -0.6842  0.4433 -0.6757
   59MOL0     C 8046   8.348   2.162  11.994 -1.0785 -0.0822  1.3073
   59MOL0     C 8047   8.351   2.316  12.004 -0.8018  0.0083 -0.2127
   59MOL0     C 8048   8.348   2.399  11.872 -0.3087  0.4688  0.3422
   59MOL0    Cl 8049   8.215   2.350  11.768 -0.3449  0.0196 -0.1112
   59MOL0     C 8050   9.104   1.713  12.176 -0.5495  0.0401 -0.7557
   59MOL0     C 8051   9.239   1.719  12.202 -1.2360  0.1395 -0.3828
   59MOL0     O 8052   9.526   1.661  12.023 -0.9509 -0.9374  0.3201
   59MOL0     C 8053   9.786   1.716  12.123 -1.0906 -0.4148 -0.3341
   59MOL0     C 8054   9.916   1.756  12.132 -0.0110  0.2881  0.4308
   59MOL0     N 8055  10.395   2.480  11.914  1.2003  0.7405 -0.0395
   59MOL0     N 8056  10.450   2.591  11.953 -0.2334 -0.8632 -0.3058
   59MOL0     C 8057  10.836   2.006  11.437 -0.1163  0.1155  0.0947
   59MOL0     C 8058  10.772   1.925  11.352  0.7468 -0.5673  0.4023
   59MOL0     C 8059  10.714   1.689  10.968 -0.0543 -0.2518  0.9026
   59MOL0     C 8060  10.661   1.570  11.011  0.2761  0.4230  0.7564
   59MOL0     C 8061  10.613   1.485  10.916 -0.6829  0.5736 -0.8520
   59MOL0     C 8062  10.611   1.511  10.776  0.1450  0.0402  0.2619
   59MOL0     O 8063  10.560   1.417  10.684  0.7131  0.5656  0.5217
   59MOL0     C 8064  10.418   1.395  10.700 -0.5761  0.2664  0.0355
   59MOL0     C 8065  10.337   1.457  10.592 -0.9419  0.2825  0.3346
   59MOL0     C 8066  10.377   1.387  10.457 -0.9689  0.0273  0.2303
   59MOL0     C 8067  10.311   1.458  10.338  0.4887 -0.1571  0.2905
   59MOL0     C 8068  10.336   1.603  10.332 -1.1286 -0.7748  0.5209
   59MOL0     C 8069  10.362   1.723  10.352 -0.6885  0.5490  0.8338
   59MOL0     C 8070  10.660   1.636  10.730  0.1306 -0.4831  0.0199
   59MOL0     C 8071  10.711   1.724  10.825  0.8002  1.2129 -0.0527
   59MOL0     C 8072  10.783   1.833  10.751  0.1114  0.2554 -0.6530
   59MOL0     H 8073  11.010   1.690  11.293 -1.8556 -0.1944 -0.8462
   59MOL0     H 8074  11.127   1.822  11.456 -1.3258 -0.2534 -1.3907
   59MOL0     H 8075  11.136   1.957  11.695 -0.8235 -0.5451  0.0747
   59MOL0     H 8076  10.962   1.954  11.719 -1.7523  1.1292 -1.9809
   59MOL0     H 8077  11.049   2.069  11.899 -2.7354  1.7303  1.6047
   59MOL0     H 8078  11.135   2.180  11.809  2.2504 -2.3964  2.9004
   59MOL0     H 8079  10.911   2.277  11.734 -3.9448 -0.5134 -1.0943
   59MOL0     H 8080  10.819   2.165  11.823  0.3658  0.5306 -1.2195
   59MOL0     H 8081  10.933   2.234  12.029  1.2298 -1.5039 -0.8008
   59MOL0     H 8082  11.039   2.351  11.943 -0.8208  0.5719  2.3414
   59MOL0     H 8083  10.733   2.366  11.951 -0.1145 -0.5942  2.4626
   59MOL0     H 8084  10.848   2.453  11.836  1.1836 -1.4748 -0.7068
   59MOL0     H 8085  10.842   2.476  12.138  1.0995  1.3155  1.2933
   59MOL0     H 8086  10.974   2.540  12.040 -0.1180 -1.2637 -0.3782
   59MOL0     H 8087  10.770   2.689  11.919 -1.9560  0.1504  0.1618
   59MOL0     H 8088  10.831   2.734  12.079  0.2277 -1.2540  1.0216
   59MOL0     H 8089  10.666   2.632  12.199 -0.7583  0.4463  0.7635
   59MOL0     H 8090  10.603   2.747  12.103 -2.8307 -0.6396 -0.9489
   59MOL0     H 8091  10.559   2.371  12.167 -0.6594 -1.7485 -1.1208
   59MOL0     H 8092  10.425   2.154  11.966  0.9900 -1.2137  5.7485
   59MOL0     H 8093  10.274   2.253  11.950  1.7308  1.7997 -3.4907
   59MOL0     H 8094  10.435   2.193  12.204 -0.4162  0.3397  0.5408
   59MOL0     H 8095  10.284   2.278  12.208  0.0024 -1.7575  2.9704
   59MOL0     H 8096  10.339   1.988  12.126 -1.1015  0.0199 -0.6361
   59MOL0     H 8097  10.291   2.038  12.288 -1.0345  0.4783 -0.0409
   59MOL0     H 8098  10.074   2.106  12.226  1.9537  3.1592 -0.0071
   59MOL0     H 8099  10.108   2.123  12.052  0.1538 -0.1272 -0.2139
   59MOL0     H 8100   9.876   2.092  12.150  0.8165 -0.4753 -0.2035
   59MOL0     H 8101   9.569   2.084  12.198 -1.1036  2.1881 -1.2389
   59MOL0     H 8102   9.542   2.027  12.033 -0.8501 -2.3735  1.4843
   59MOL0     H 8103   9.668   2.153  12.086  0.0709  0.6064  1.3638
   59MOL0     H 8104   9.340   1.921  11.951  0.3399  1.2766  0.9187
   59MOL0     H 8105   9.087   1.914  11.902  0.0533  0.7956  0.6001
   59MOL0     H 8106   8.796   1.629  12.170  2.5517  0.1539  1.5059
   59MOL0     H 8107   8.810   1.781  12.230 -0.9079 -0.7307  0.4090
   59MOL0     H 8108   8.645   1.726  11.981 -0.3241 -0.5341  0.7577
   59MOL0     H 8109   8.586   1.731  12.150  0.2494 -0.5272 -0.1118
   59MOL0     H 8110   8.706   1.936  11.963  1.4052 -0.7366  0.9008
   59MOL0     H 8111   8.683   1.976  12.140  1.6787  1.6462 -1.0003
   59MOL0     H 8112   8.442   1.932  12.108  1.8519  1.2426  1.7743
   59MOL0     H 8113   8.456   1.890  11.938 -2.0034  0.5823  0.9768
   59MOL0     H 8114   8.549   2.156  12.044  2.2015  1.3054 -3.4796
   59MOL0     H 8115   8.533   2.121  11.874 -1.1518 -1.6430 -1.4297
   59MOL0     H 8116   8.309   2.127  12.090  0.9849 -3.2736  1.1456
   59MOL0     H 8117   8.277   2.135  11.915 -0.0035 -1.0079  0.6230
   59MOL0     H 8118   8.446   2.351  12.045 -0.5368  0.3830 -1.1414
   59MOL0     H 8119   8.264   2.340  12.066 -0.1648  0.3098  0.5784
   59MOL0     H 8120   8.439   2.395  11.812  0.8102  2.9878  1.7025
   59MOL0     H 8121   8.340   2.501  11.913 -0.6529  1.4441 -2.0075
   59MOL0     H 8122   9.044   1.643  12.233 -0.3301  2.3494  2.6514
   59MOL0     H 8123   9.282   1.658  12.281  0.1082  0.6261 -0.7152
   59MOL0     H 8124   9.766   1.609  12.126 -0.9546 -0.4229  0.2941
   59MOL0     H 8125   9.988   1.679  12.106  2.3620  2.7689 -0.8375
   59MOL0     H 8126  10.783   2.096  11.469  2.4168  1.8700 -0.3486
   59MOL0     H 8127  10.672   1.946  11.318  0.4550 -0.7862  1.1067
   59MOL0     H 8128  10.671   1.543  11.115  1.5655  0.9104  0.7875
   59MOL0     H 8129  10.588   1.394  10.970  0.0927  0.7032 -0.2448
   59MOL0     H 8130  10.412   1.288  10.682  1.8644  0.3321 -1.5664
   59MOL0     H 8131  10.374   1.416  10.798  0.4453 -2.3221  1.1264
   59MOL0     H 8132  10.372   1.560  10.584  3.0539 -0.9332 -0.2308
   59MOL0     H 8133  10.229   1.455  10.609 -0.9482  1.4157  0.4614
   59MOL0     H 8134  10.482   1.407  10.438 -0.5784  1.0119  2.9176
   59MOL0     H 8135  10.367   1.279  10.467 -2.7438  0.0037 -1.3206
   59MOL0     H 8136  10.202   1.447  10.346  0.0457  0.6431 -3.2900
   59MOL0     H 8137  10.343   1.417  10.243  0.5740 -2.1064  1.1196
   59MOL0     H 8138  10.406   1.820  10.364  2.4652 -0.6046 -0.3346
   59MOL0     H 8139  10.668   1.663  10.625  0.6048  3.0898  0.8406
   59MOL0     H 8140  10.771   1.840  10.642  2.8061  0.3916 -1.0117
   59MOL0     H 8141  10.765   1.932  10.793 -1.6754  0.1100 -0.9678
   59MOL0     H 8142  10.890   1.818  10.762  0.0997 -2.0643 -2.7496
   60MOL0     O 8143   7.314  10.687   7.147  0.5381  0.6048  0.2038
   60MOL0     C 8144   7.236  10.601   7.201 -0.1909 -0.1811  0.6276
   60MOL0     O 8145   7.233  10.467   7.166 -0.1643  0.2230  0.3900
   60MOL0     C 8146   7.277  10.427   7.038  0.6222 -0.1577 -0.2640
   60MOL0     C 8147   7.407  10.414   6.994  0.1333 -0.9025 -0.7145
   60MOL0     C 8148   7.434  10.384   6.861  0.0830  1.1391 -0.6150
   60MOL0     C 8149   7.324  10.370   6.762 -0.5035 -0.0020 -0.7524
   60MOL0     O 8150   7.346  10.353   6.629 -0.5632 -0.1374 -0.2452
   60MOL0     C 8151   7.340  10.216   6.587 -0.3276  0.5142 -1.2305
   60MOL0     C 8152   7.375  10.194   6.439 -0.0375  0.0840 -0.4768
   60MOL0     C 8153   7.454  10.070   6.418  0.1590  0.3101 -0.1272
   60MOL0     C 8154   7.511  10.064   6.278 -0.2751  0.7242  0.2976
   60MOL0     C 8155   7.649   9.991   6.275 -0.2403 -0.2976 -0.7739
   60MOL0     C 8156   7.631   9.839   6.286  0.6087  0.0101 -0.3209
   60MOL0     C 8157   7.693   9.774   6.410 -0.2899 -0.1123 -0.6862
   60MOL0     C 8158   7.839   9.726   6.384  0.1429  0.4960 -0.3069
   60MOL0     N 8159   7.897   9.668   6.510 -1.0529 -0.3808 -0.0941
   60MOL0     C 8160   7.844   9.554   6.566 -0.1124 -0.4352  1.3536
   60MOL0     C 8161   7.893   9.554   6.689 -0.6851  0.2090  0.3317
   60MOL0     C 8162   7.848   9.450   6.796 -0.1793 -0.1449 -0.4326
   60MOL0     C 8163   7.726   9.486   6.878  0.5311 -0.9062  0.3012
   60MOL0     C 8164   7.603   9.464   6.792 -0.1920  0.5743 -0.7324
   60MOL0     C 8165   7.470   9.462   6.883  0.0713 -0.2445  0.3913
   60MOL0     O 8166   7.368   9.426   6.790  0.1548 -0.4816 -0.1939
   60MOL0     C 8167   7.310   9.527   6.716 -0.4108  0.4822 -0.2838
   60MOL0     C 8168   7.195   9.511   6.642  0.3119 -0.2871  0.1434
   60MOL0     C 8169   7.126   9.618   6.578  0.4363 -0.0810 -1.3091
   60MOL0     C 8170   7.008   9.578   6.487  0.1154  0.4673  0.4891
   60MOL0     C 8171   7.175   9.749   6.583 -0.5985  0.2806 -1.3047
   60MOL0     C 8172   7.097   9.861   6.512  0.3863 -0.4335 -0.6724
   60MOL0     O 8173   7.116   9.857   6.380 -0.5305  0.0655  0.1988
   60MOL0     C 8174   7.055   9.950   6.293 -0.6119  0.9046 -0.6365
   60MOL0     C 8175   6.928  10.000   6.319  1.4044 -0.2128 -0.0634
   60MOL0     C 8176   6.875  10.090   6.227 -0.7404 -0.1549  0.0941
   60MOL0     C 8177   6.942  10.128   6.118  0.1173 -0.3364 -0.6333
   60MOL0     O 8178   6.864  10.198   6.039  0.6501 -0.2576  0.2334
   60MOL0     C 8179   6.915  10.269   5.925 -0.0110  0.2286  0.3909
   60MOL0     C 8180   6.852  10.403   5.898  0.0129 -0.9077  0.2113
   60MOL0     C 8181   6.903  10.485   5.778 -0.8428 -0.8187  0.9199
   60MOL0     C 8182   6.858  10.412   5.650 -0.9506 -0.7182  0.2340
   60MOL0     C 8183   6.906  10.485   5.527  0.0665  0.3014  0.4630
   60MOL0     C 8184   6.898  10.388   5.404 -0.7698 -0.5353 -0.3755
   60MOL0     C 8185   6.954  10.456   5.282  0.1428 -0.5448 -0.0227
   60MOL0     C 8186   6.968  10.369   5.161  0.3873 -0.5343 -0.5109
   60MOL0    Cl 8187   7.027  10.472   5.021 -0.2865 -0.6071  0.3958
   60MOL0     C 8188   7.067  10.064   6.088  0.0671  0.0415 -0.6623
   60MOL0     C 8189   7.118   9.976   6.172  0.2261 -0.2795  0.0877
   60MOL0     O 8190   7.043   9.947   6.586 -0.2483 -0.4831  0.0536
   60MOL0     C 8191   7.289   9.769   6.658 -0.0626  0.1526  0.1277
   60MOL0     C 8192   7.350   9.666   6.715 -0.4147  0.0992 -0.7599
   60MOL0     N 8193   7.977   9.661   6.705  0.4561  0.5164 -0.1184
   60MOL0     N 8194   7.981   9.733   6.597 -0.5095  0.0899  0.4424
   60MOL0     C 8195   7.194  10.361   6.814  0.4267 -0.2840 -0.2024
   60MOL0     C 8196   7.174  10.405   6.949  0.9295 -0.7116  0.2132
   60MOL0     C 8197   7.155  10.649   7.316 -0.5273 -0.3754 -0.2197
   60MOL0     C 8198   7.078  10.555   7.384  0.1871  0.6997  0.3990
   60MOL0     C 8199   6.991  10.591   7.490  0.3652  0.9240 -0.2150
   60MOL0     C 8200   6.987  10.719   7.538 -0.5935  0.9732 -0.2270
   60MOL0     O 8201   6.910  10.769   7.643 -0.0625 -0.2871  0.1937
   60MOL0     C 8202   6.788  10.704   7.654 -0.0514  0.7897 -0.9775
   60MOL0     C 8203   6.717  10.785   7.759  0.1839 -0.0316 -0.5388
   60MOL0     C 8204   6.674  10.925   7.710  0.1929  0.5517  0.1181
   60MOL0     C 8205   6.644  11.016   7.829  0.1310  0.0611  0.3709
   60MOL0     C 8206   6.602  11.152   7.794 -0.2497 -0.3302  0.8947
   60MOL0     C 8207   6.555  11.257   7.758  0.8069 -0.5453 -1.2167
   60MOL0     C 8208   7.075  10.804   7.477  0.1876  0.2627 -0.7915
   60MOL0     C 8209   7.145  10.784   7.360  0.8200  0.4729  0.1856
   60MOL0     C 8210   7.220  10.899   7.296 -0.0497 -0.3170 -0.1443
   60MOL0     H 8211   7.494  10.420   7.059 -0.5287  2.0758  0.0505
   60MOL0     H 8212   7.536  10.378   6.823  0.6357 -1.7284  1.0519
   60MOL0     H 8213   7.238  10.176   6.596  0.5568 -1.8227 -0.9956
   60MOL0     H 8214   7.400  10.152   6.652  2.4357  0.1484 -3.9430
   60MOL0     H 8215   7.282  10.203   6.382 -0.9837  2.7622  1.2912
   60MOL0     H 8216   7.427  10.280   6.395 -0.7008  0.4771 -0.5062
   60MOL0     H 8217   7.531  10.081   6.495  1.7104  1.6285 -1.8000
   60MOL0     H 8218   7.396   9.981   6.447  1.8581 -0.0805  2.3902
   60MOL0     H 8219   7.435  10.021   6.213 -1.2192  0.1448  1.7236
   60MOL0     H 8220   7.524  10.165   6.239 -0.5561  1.7570  2.6805
   60MOL0     H 8221   7.720  10.025   6.351 -1.2716 -0.7298  0.4055
   60MOL0     H 8222   7.696  10.017   6.179  2.0821  2.6410  0.9968
   60MOL0     H 8223   7.525   9.814   6.291  1.3203 -3.2270  3.2544
   60MOL0     H 8224   7.670   9.790   6.196  0.8373 -1.3273  0.4720
   60MOL0     H 8225   7.634   9.691   6.450 -3.7691  3.0912  1.5223
   60MOL0     H 8226   7.689   9.845   6.494  2.5624 -0.6781  0.0332
   60MOL0     H 8227   7.841   9.646   6.308  1.5900  1.2270 -1.0844
   60MOL0     H 8228   7.899   9.802   6.332 -1.4300  2.2802  0.3837
   60MOL0     H 8229   7.766   9.496   6.518 -0.3619  0.3190  0.8228
   60MOL0     H 8230   7.931   9.410   6.855  1.8506 -0.5753 -3.3257
   60MOL0     H 8231   7.819   9.362   6.737 -3.3962  0.3116  0.2792
   60MOL0     H 8232   7.726   9.422   6.967 -0.6449 -0.2462  0.7891
   60MOL0     H 8233   7.712   9.592   6.897 -3.6546 -1.5851  1.9604
   60MOL0     H 8234   7.583   9.527   6.705 -0.9602 -1.1972 -1.8852
   60MOL0     H 8235   7.613   9.366   6.745 -0.6946  1.1085 -1.9964
   60MOL0     H 8236   7.479   9.387   6.962 -0.3780 -1.0209 -0.2781
   60MOL0     H 8237   7.459   9.561   6.928  2.7590 -0.0547  0.8408
   60MOL0     H 8238   7.147   9.414   6.645 -1.0832  0.3628 -0.5361
   60MOL0     H 8239   6.922   9.643   6.504 -0.0324  0.7848 -1.2638
   60MOL0     H 8240   6.989   9.471   6.501  3.1524 -0.1227  0.9372
   60MOL0     H 8241   7.032   9.590   6.381  4.8687  0.2796  1.2988
   60MOL0     H 8242   6.864   9.983   6.406 -2.9487 -1.0703 -3.0733
   60MOL0     H 8243   6.775  10.127   6.250 -1.2966 -1.2627 -0.4665
   60MOL0     H 8244   7.023  10.279   5.940 -0.0032  1.0027 -0.1097
   60MOL0     H 8245   6.917  10.204   5.836  4.0836 -1.5792  1.5686
   60MOL0     H 8246   6.745  10.387   5.878 -0.2739  2.3139 -1.4201
   60MOL0     H 8247   6.860  10.470   5.983 -0.5715 -0.6654  0.0831
   60MOL0     H 8248   7.012  10.481   5.781 -0.8620 -1.5421  0.8243
   60MOL0     H 8249   6.884  10.593   5.786  2.5392 -0.1794  1.7147
   60MOL0     H 8250   6.749  10.406   5.643 -0.8631 -0.2574 -2.9625
   60MOL0     H 8251   6.892  10.308   5.651  1.9758  0.1559  1.0961
   60MOL0     H 8252   6.851  10.577   5.504 -2.3096 -1.7333 -2.8588
   60MOL0     H 8253   7.011  10.514   5.535  0.7087  0.6110 -5.2451
   60MOL0     H 8254   6.797  10.355   5.380 -1.1683 -0.2792  0.8746
   60MOL0     H 8255   6.965  10.305   5.431  1.6082  0.6657 -2.2040
   60MOL0     H 8256   7.057  10.487   5.303 -0.3463  2.3540 -1.4772
   60MOL0     H 8257   6.895  10.543   5.253  0.8132  0.3345  1.2099
   60MOL0     H 8258   6.872  10.330   5.126 -0.8930  1.5883  0.4501
   60MOL0     H 8259   7.043  10.290   5.169 -0.9284 -2.3615 -3.8833
   60MOL0     H 8260   7.116  10.077   5.992 -1.5588  1.5433 -1.3359
   60MOL0     H 8261   7.209   9.927   6.140 -1.0858 -0.7160 -3.4743
   60MOL0     H 8262   7.321   9.871   6.676  1.2752 -0.3137  0.4954
   60MOL0     H 8263   7.430   9.696   6.782 -2.9434  0.8249  2.2183
   60MOL0     H 8264   7.106  10.348   6.751 -0.3015 -0.2194  0.7727
   60MOL0     H 8265   7.074  10.412   6.990  1.6702  0.9562  1.9005
   60MOL0     H 8266   7.084  10.450   7.358  0.6274  1.3645 -2.5423
   60MOL0     H 8267   6.923  10.514   7.525  3.4552 -0.8710  2.3947
   60MOL0     H 8268   6.732  10.697   7.560  0.1634 -1.6434 -0.9935
   60MOL0     H 8269   6.790  10.598   7.682 -1.9212  0.8804 -0.3236
   60MOL0     H 8270   6.779  10.806   7.846 -1.9721 -0.2499  1.1287
   60MOL0     H 8271   6.632  10.726   7.796  0.7988 -2.2032 -2.3520
   60MOL0     H 8272   6.763  10.970   7.665  0.4583  1.7344  1.7326
   60MOL0     H 8273   6.591  10.902   7.643  0.5768  0.5184 -0.3515
   60MOL0     H 8274   6.734  11.021   7.891  1.1452 -4.2537 -0.3989
   60MOL0     H 8275   6.570  10.961   7.887  1.3811 -1.2813  0.7665
   60MOL0     H 8276   6.495  11.344   7.743  1.3796 -0.0455 -0.6628
   60MOL0     H 8277   7.081  10.903   7.521 -1.3243 -0.7115  1.9125
   60MOL0     H 8278   7.190  10.990   7.349 -0.9827 -1.4476  1.3763
   60MOL0     H 8279   7.328  10.882   7.306  0.5361  1.3765 -2.6604
   60MOL0     H 8280   7.183  10.908   7.194 -0.6003  2.8284  0.2251
   61MOL0     O 8281  10.167   0.758   6.108 -0.2204  1.0217 -0.6919
   61MOL0     C 8282  10.060   0.800   6.067  0.0975 -0.4652  0.1566
   61MOL0     O 8283   9.948   0.737   6.097  0.2340  0.3358  0.0018
   61MOL0     C 8284   9.931   0.606   6.141 -0.7179  0.3904  0.2384
   61MOL0     C 8285   9.961   0.574   6.272  0.7510 -0.2292 -0.2524
   61MOL0     C 8286   9.947   0.445   6.315 -0.2598  0.6515 -0.6864
   61MOL0     C 8287   9.896   0.345   6.229  0.1622  0.5549 -0.2905
   61MOL0     O 8288   9.854   0.219   6.276  0.5762 -0.1430  0.4651
   61MOL0     C 8289   9.727   0.237   6.348  0.0701  0.1078 -0.7401
   61MOL0     C 8290   9.658   0.096   6.348  0.0279 -0.4687  0.3498
   61MOL0     C 8291   9.601   0.079   6.205 -0.0553  1.2006 -0.4533
   61MOL0     C 8292   9.484  -0.027   6.217  0.7374 -0.4451 -0.2240
   61MOL0     C 8293   9.348   0.029   6.260 -0.3211 -0.6841 -0.1175
   61MOL0     C 8294   9.279   0.121   6.144 -1.1592  0.0755  0.2435
   61MOL0     C 8295   9.130   0.140   6.162 -0.3876 -0.1524  0.4502
   61MOL0     C 8296   9.104   0.210   6.291 -0.5910 -0.1161 -0.0153
   61MOL0     N 8297   8.959   0.227   6.303 -0.1877  0.3780  0.2004
   61MOL0     C 8298   8.900   0.265   6.414  0.2106  0.3173  0.0074
   61MOL0     C 8299   8.765   0.288   6.378 -1.0192  0.2369  0.4661
   61MOL0     C 8300   8.667   0.343   6.465  0.1474  0.4948  0.2637
   61MOL0     C 8301   8.584   0.229   6.525  0.3142 -0.1291  0.1595
   61MOL0     C 8302   8.644   0.199   6.661  0.1201  0.1117  0.4145
   61MOL0     C 8303   8.594   0.066   6.719 -1.0718 -0.1167 -0.3003
   61MOL0     O 8304   8.709   0.014   6.792  0.4117  0.0483  0.6589
   61MOL0     C 8305   8.703  -0.097   6.874  0.5038  0.1144  0.1669
   61MOL0     C 8306   8.815  -0.159   6.897 -0.2058  0.4478  0.4100
   61MOL0     C 8307   8.814  -0.279   6.972  0.6809 -0.6022  0.5764
   61MOL0     C 8308   8.945  -0.344   6.989 -0.0348  0.5364 -1.4214
   61MOL0     C 8309   8.692  -0.340   7.023 -1.1165 -0.3883  1.7621
   61MOL0     C 8310   8.679  -0.457   7.105  0.0604  1.0363  0.0208
   61MOL0     O 8311   8.556  -0.521   7.093  0.0033 -0.0276 -0.5445
   61MOL0     C 8312   8.519  -0.601   7.192 -0.2992  0.2302  0.1178
   61MOL0     C 8313   8.512  -0.553   7.321 -0.6144 -0.7159 -0.3951
   61MOL0     C 8314   8.479  -0.642   7.430 -0.2527 -0.1528 -0.3476
   61MOL0     C 8315   8.480  -0.781   7.411  0.3558 -0.5776 -0.2419
   61MOL0     O 8316   8.433  -0.869   7.517 -0.1582  0.6912 -0.5310
   61MOL0     C 8317   8.367  -0.997   7.489  0.0506  0.3899 -0.0080
   61MOL0     C 8318   8.342  -1.052   7.634  0.1747  0.4027  0.2660
   61MOL0     C 8319   8.464  -1.126   7.678 -1.0514  0.0659 -0.5713
   61MOL0     C 8320   8.468  -1.144   7.826 -0.5878  0.3196  0.0126
   61MOL0     C 8321   8.488  -1.010   7.903 -0.1801  0.0634 -0.7939
   61MOL0     C 8322   8.371  -0.997   8.008 -0.0946  0.5194  1.0186
   61MOL0     C 8323   8.370  -0.850   8.035  0.7543  0.2129 -0.8389
   61MOL0     C 8324   8.293  -0.812   8.163  0.7359  0.2455 -0.2840
   61MOL0    Cl 8325   8.116  -0.843   8.132  0.0431  0.3265  0.1523
   61MOL0     C 8326   8.490  -0.826   7.277 -0.3381 -0.6910  0.2649
   61MOL0     C 8327   8.512  -0.735   7.170 -0.8622  0.3474  0.5239
   61MOL0     O 8328   8.774  -0.484   7.181  0.3511 -0.2913  0.3552
   61MOL0     C 8329   8.578  -0.273   6.974 -1.0917 -0.3085  0.1694
   61MOL0     C 8330   8.589  -0.153   6.907 -1.2657 -0.7210 -0.3173
   61MOL0     N 8331   8.745   0.247   6.248 -0.8217 -0.1434 -0.2752
   61MOL0     N 8332   8.863   0.217   6.203 -0.4488 -0.4992 -0.6568
   61MOL0     C 8333   9.877   0.372   6.092  0.2271 -0.7454 -0.5170
   61MOL0     C 8334   9.886   0.509   6.050  0.7457  0.4063 -0.0770
   61MOL0     C 8335  10.050   0.904   5.973 -0.0256 -0.7785 -0.0212
   61MOL0     C 8336   9.949   0.906   5.872 -0.0228  0.9533 -0.2339
   61MOL0     C 8337   9.956   1.005   5.774 -0.3984 -0.2238 -0.4875
   61MOL0     C 8338  10.041   1.119   5.792  0.9028 -0.7694 -0.4017
   61MOL0     O 8339  10.034   1.221   5.704  0.6575  0.5102  0.2836
   61MOL0     C 8340  10.151   1.252   5.614 -0.1612  0.2169  0.7962
   61MOL0     C 8341  10.154   1.171   5.482 -0.8484  0.9501  0.2928
   61MOL0     C 8342  10.288   1.200   5.415  0.3232  0.5536  0.6445
   61MOL0     C 8343  10.361   1.079   5.368 -0.1075  0.2892  0.2183
   61MOL0     C 8344  10.508   1.075   5.348  0.6095 -0.1662 -0.7845
   61MOL0     C 8345  10.635   1.078   5.342  1.1333  0.4874  0.7667
   61MOL0     C 8346  10.119   1.129   5.900 -1.0175  0.5888  0.5644
   61MOL0     C 8347  10.140   1.016   5.986 -0.5797  0.2281 -0.2245
   61MOL0     C 8348  10.236   1.021   6.101 -0.5035  0.0970  0.1696
   61MOL0     H 8349   9.985   0.660   6.333  3.4674  0.7720 -2.5433
   61MOL0     H 8350   9.943   0.422   6.421 -4.9996  1.5211 -0.4750
   61MOL0     H 8351   9.667   0.316   6.301  1.0678 -1.0023 -4.2241
   61MOL0     H 8352   9.753   0.268   6.449  1.7977 -1.2898 -0.7005
   61MOL0     H 8353   9.728   0.019   6.379 -0.1644 -0.0877  1.7857
   61MOL0     H 8354   9.583   0.087   6.427  0.5640 -4.8683  0.5852
   61MOL0     H 8355   9.570   0.175   6.163  0.4183  1.5388 -0.0339
   61MOL0     H 8356   9.677   0.025   6.147  0.1038  3.3529 -2.3930
   61MOL0     H 8357   9.470  -0.081   6.123  0.5526  0.8402 -0.9572
   61MOL0     H 8358   9.501  -0.107   6.290 -0.5148 -0.3785  0.1587
   61MOL0     H 8359   9.343   0.088   6.352 -0.3887  0.0176 -0.5643
   61MOL0     H 8360   9.287  -0.060   6.277  0.2150 -0.9009  0.7317
   61MOL0     H 8361   9.337   0.213   6.135 -0.0103 -0.7441 -1.1865
   61MOL0     H 8362   9.295   0.061   6.053 -1.7940 -0.5041  0.5007
   61MOL0     H 8363   9.088   0.039   6.167  0.7192 -0.8146 -2.1272
   61MOL0     H 8364   9.094   0.200   6.078 -0.2364 -0.9488 -0.1929
   61MOL0     H 8365   9.134   0.143   6.372  0.7385  0.1455 -0.2628
   61MOL0     H 8366   9.157   0.306   6.295  3.5573 -2.1163 -1.2318
   61MOL0     H 8367   8.937   0.277   6.515 -0.2449  1.8335  0.0199
   61MOL0     H 8368   8.604   0.414   6.410 -2.3566 -0.4391  1.7606
   61MOL0     H 8369   8.720   0.389   6.549 -1.7439  0.3273  1.5949
   61MOL0     H 8370   8.479   0.251   6.547 -0.5107 -1.6594 -1.9013
   61MOL0     H 8371   8.582   0.150   6.449  0.4845  0.8671 -0.9051
   61MOL0     H 8372   8.753   0.197   6.661  0.1367 -2.0284  1.9780
   61MOL0     H 8373   8.624   0.278   6.733  0.2903  2.3365 -1.8476
   61MOL0     H 8374   8.520   0.101   6.791  0.9139  3.4042  0.2729
   61MOL0     H 8375   8.554  -0.005   6.647  0.1948  0.6304 -1.8205
   61MOL0     H 8376   8.913  -0.122   6.866  0.8032 -2.3525 -0.1136
   61MOL0     H 8377   8.982  -0.314   7.088 -0.6042  2.2197 -1.6760
   61MOL0     H 8378   9.028  -0.324   6.921  1.2546 -2.8371 -1.0081
   61MOL0     H 8379   8.928  -0.451   6.977 -1.6982  0.3073  1.8685
   61MOL0     H 8380   8.516  -0.451   7.360 -3.2076 -1.3937  1.9811
   61MOL0     H 8381   8.457  -0.595   7.525  1.7280  0.7024 -0.2659
   61MOL0     H 8382   8.278  -0.963   7.435 -1.3044  0.4129  2.0921
   61MOL0     H 8383   8.426  -1.063   7.424  1.3456  0.5358  0.9800
   61MOL0     H 8384   8.311  -0.978   7.708 -0.5420 -1.2962  1.7471
   61MOL0     H 8385   8.261  -1.125   7.627  1.8722 -1.6850  1.3041
   61MOL0     H 8386   8.556  -1.071   7.655 -0.5910 -0.9247 -1.1596
   61MOL0     H 8387   8.475  -1.221   7.625  4.2072 -1.0136  1.8437
   61MOL0     H 8388   8.550  -1.213   7.847  2.7521  3.3238 -2.0499
   61MOL0     H 8389   8.366  -1.180   7.848 -0.6442  0.4148 -0.0983
   61MOL0     H 8390   8.583  -1.019   7.955  0.3624 -1.5639 -1.9855
   61MOL0     H 8391   8.486  -0.920   7.841 -1.4416  0.3081 -0.4277
   61MOL0     H 8392   8.380  -1.066   8.093 -0.5279  0.4672  1.0265
   61MOL0     H 8393   8.272  -1.016   7.964 -0.3378  2.5719  0.5733
   61MOL0     H 8394   8.332  -0.790   7.952  2.3235  0.3490 -1.4853
   61MOL0     H 8395   8.473  -0.821   8.053  0.1599  1.4085  0.9278
   61MOL0     H 8396   8.300  -0.705   8.181 -1.4784 -0.1131  3.6807
   61MOL0     H 8397   8.340  -0.864   8.247  1.7326  0.6333 -0.5928
   61MOL0     H 8398   8.464  -0.927   7.248  0.4913 -0.8000 -0.1374
   61MOL0     H 8399   8.505  -0.754   7.063 -5.3217  2.2491  0.2775
   61MOL0     H 8400   8.473  -0.298   6.983 -0.8194 -1.5937  0.0190
   61MOL0     H 8401   8.493  -0.111   6.881 -2.3109 -1.1315  2.5129
   61MOL0     H 8402   9.841   0.295   6.024 -1.7281 -1.7526  1.5157
   61MOL0     H 8403   9.866   0.546   5.949  0.4816  0.5665  0.0338
   61MOL0     H 8404   9.892   0.815   5.857 -0.7636  1.0662  1.6795
   61MOL0     H 8405   9.881   0.983   5.699 -1.7161  0.6659  0.5215
   61MOL0     H 8406  10.148   1.360   5.597  1.3987 -0.1597 -2.8210
   61MOL0     H 8407  10.241   1.231   5.673  3.6068  0.0449 -4.3407
   61MOL0     H 8408  10.068   1.184   5.417  2.3381 -1.3734 -5.0594
   61MOL0     H 8409  10.144   1.067   5.515 -0.8471  1.1683  1.0057
   61MOL0     H 8410  10.267   1.266   5.330 -1.2595  0.4084  0.8896
   61MOL0     H 8411  10.352   1.254   5.486  0.2003  2.4154 -0.5748
   61MOL0     H 8412  10.312   1.062   5.272 -0.1653 -3.3990  0.7430
   61MOL0     H 8413  10.340   0.986   5.421  1.1146  0.1158  0.4157
   61MOL0     H 8414  10.740   1.088   5.327  2.1521  0.5187  6.0021
   61MOL0     H 8415  10.166   1.226   5.913 -2.9955  2.1313 -2.4536
   61MOL0     H 8416  10.273   1.122   6.118 -0.9397  0.1858  0.5992
   61MOL0     H 8417  10.195   0.980   6.194 -2.7189 -2.8594 -1.9172
   61MOL0     H 8418  10.320   0.953   6.086 -1.8953 -1.4183 -1.1476
   62MOL0     O 8419   0.374   2.380   2.642  0.2170  0.5763  0.0968
   62MOL0     C 8420   0.275   2.348   2.700  0.5790 -0.4121  0.1793
   62MOL0     O 8421   0.192   2.435   2.763  0.4970 -0.0797 -0.6854
   62MOL0     C 8422   0.193   2.575   2.745  0.0649  0.0729 -0.1733
   62MOL0     C 8423   0.160   2.662   2.848 -0.3049 -0.1006 -0.9471
   62MOL0     C 8424   0.153   2.799   2.831 -0.0405 -0.1676  0.6507
   62MOL0     C 8425   0.194   2.861   2.705  0.4149 -0.4493 -0.8317
   62MOL0     O 8426   0.172   2.994   2.703  0.1142 -0.0718  0.3032
   62MOL0     C 8427   0.182   3.058   2.586 -0.4079 -0.1866  0.7637
   62MOL0     C 8428   0.092   3.182   2.583 -0.7955  0.8405 -0.0836
   62MOL0     C 8429   0.112   3.259   2.450  0.4670  0.2539 -0.2628
   62MOL0     C 8430   0.014   3.379   2.435  0.2339  0.3798 -0.4417
   62MOL0     C 8431   0.027   3.453   2.307 -0.2813  0.5552  0.7991
   62MOL0     C 8432  -0.049   3.401   2.182  0.4083  0.1480  0.3361
   62MOL0     C 8433  -0.029   3.490   2.060  0.3178  0.3903 -0.9866
   62MOL0     C 8434   0.027   3.414   1.938 -0.2086 -0.0115  0.0279
   62MOL0     N 8435   0.145   3.330   1.964 -0.0415  0.1394  0.9382
   62MOL0     C 8436   0.276   3.384   1.985  0.4736 -0.2990 -0.3160
   62MOL0     C 8437   0.344   3.274   2.016 -0.3071 -0.6013  0.5792
   62MOL0     C 8438   0.493   3.281   2.056  0.1684 -0.1240  0.0934
   62MOL0     C 8439   0.507   3.315   2.205 -0.0244  0.1535 -0.5287
   62MOL0     C 8440   0.457   3.205   2.297  0.1622 -0.2030 -0.5622
   62MOL0     C 8441   0.523   3.068   2.268 -1.1537  0.4846 -0.6706
   62MOL0     O 8442   0.514   2.990   2.385 -0.3900 -0.9950 -0.3803
   62MOL0     C 8443   0.558   2.866   2.370 -0.0704 -0.0681  0.3589
   62MOL0     C 8444   0.473   2.776   2.311  0.0325 -0.1350 -1.1243
   62MOL0     C 8445   0.519   2.644   2.278  0.9577 -0.2082  0.5104
   62MOL0     C 8446   0.417   2.573   2.190 -0.1901  0.5377 -0.0666
   62MOL0     C 8447   0.642   2.602   2.323  0.6902 -0.0098 -0.6632
   62MOL0     C 8448   0.700   2.473   2.286  0.0707 -0.2315 -0.2231
   62MOL0     O 8449   0.614   2.372   2.266  0.7132 -1.2752  0.2787
   62MOL0     C 8450   0.666   2.255   2.225  0.5015  0.3357 -0.5141
   62MOL0     C 8451   0.716   2.241   2.098  0.0251 -0.3363  0.1619
   62MOL0     C 8452   0.762   2.120   2.046  0.1831 -0.3293 -0.2786
   62MOL0     C 8453   0.768   2.009   2.139  0.7314 -0.9305  0.7106
   62MOL0     O 8454   0.799   1.884   2.096  0.2155 -0.3397  0.2043
   62MOL0     C 8455   0.770   1.845   1.962 -0.2494 -0.0969 -0.5597
   62MOL0     C 8456   0.816   1.688   1.943  0.1194 -0.0368 -0.2727
   62MOL0     C 8457   0.683   1.611   1.935 -0.6959 -0.8806  0.2852
   62MOL0     C 8458   0.695   1.486   1.851 -0.1199 -0.0185 -0.6683
   62MOL0     C 8459   0.567   1.397   1.859 -0.6129 -0.4689  0.4011
   62MOL0     C 8460   0.549   1.315   1.731 -0.7678  0.1742  0.0579
   62MOL0     C 8461   0.408   1.285   1.695 -0.6182  0.3372 -0.6700
   62MOL0     C 8462   0.399   1.160   1.603 -0.0011  0.5101 -0.1025
   62MOL0    Cl 8463   0.504   1.162   1.460  0.3199  0.3706 -0.0943
   62MOL0     C 8464   0.715   2.027   2.269  0.2524  0.4597  0.0446
   62MOL0     C 8465   0.684   2.155   2.313  0.5043  0.6885 -0.0493
   62MOL0     O 8466   0.826   2.468   2.273 -0.6430 -1.4465  0.1896
   62MOL0     C 8467   0.724   2.692   2.394  0.4708 -0.4314 -0.0215
   62MOL0     C 8468   0.685   2.827   2.420 -0.7133 -0.1155  0.0563
   62MOL0     N 8469   0.266   3.154   2.003  0.5995  0.7139 -0.3516
   62MOL0     N 8470   0.151   3.188   1.970  0.8879 -0.5332 -0.4173
   62MOL0     C 8471   0.247   2.775   2.610  1.0410  0.4498  0.1246
   62MOL0     C 8472   0.245   2.632   2.627  0.8286  0.1179  0.3169
   62MOL0     C 8473   0.245   2.197   2.721 -0.1753 -0.4114  0.7514
   62MOL0     C 8474   0.145   2.155   2.812  1.0513  0.2580 -0.8076
   62MOL0     C 8475   0.127   2.021   2.841 -0.1409  0.5504 -0.4831
   62MOL0     C 8476   0.200   1.918   2.792 -0.4881  0.6128  0.5989
   62MOL0     O 8477   0.171   1.782   2.818 -0.8855  0.7672  0.2574
   62MOL0     C 8478   0.205   1.679   2.716 -0.4780 -0.9793 -0.2761
   62MOL0     C 8479   0.179   1.537   2.769  0.0835  0.3846 -0.2474
   62MOL0     C 8480   0.171   1.434   2.658  0.6379  0.0239  0.6588
   62MOL0     C 8481   0.052   1.345   2.656 -0.1955  0.5277 -0.2647
   62MOL0     C 8482   0.016   1.296   2.521 -0.1822 -0.8835  1.1045
   62MOL0     C 8483  -0.034   1.247   2.422 -0.4990 -0.7096  0.3383
   62MOL0     C 8484   0.288   1.960   2.685 -0.4600 -0.5508  0.7391
   62MOL0     C 8485   0.312   2.094   2.654 -1.0108 -0.1987 -0.5084
   62MOL0     C 8486   0.424   2.125   2.554  0.3313  0.1310 -0.6817
   62MOL0     H 8487   0.141   2.620   2.947 -1.3016 -0.1238 -1.1367
   62MOL0     H 8488   0.121   2.852   2.920 -2.9952 -2.0821  0.8549
   62MOL0     H 8489   0.141   2.998   2.504 -2.4327  0.7347  1.0433
   62MOL0     H 8490   0.285   3.081   2.557 -0.5797 -0.7124 -0.3292
   62MOL0     H 8491  -0.008   3.142   2.600 -1.1757  1.8289  0.0475
   62MOL0     H 8492   0.114   3.243   2.671 -1.0953 -2.1376  2.2126
   62MOL0     H 8493   0.210   3.307   2.462 -0.0399  1.1976  0.2037
   62MOL0     H 8494   0.102   3.197   2.360  1.1399 -0.2754  0.0220
   62MOL0     H 8495  -0.089   3.346   2.444  1.4183 -3.8490 -0.4983
   62MOL0     H 8496   0.039   3.445   2.518  1.2103 -0.4334 -0.0653
   62MOL0     H 8497   0.133   3.452   2.280 -0.6290 -3.9691 -1.1561
   62MOL0     H 8498  -0.016   3.552   2.325 -1.5806  1.3665 -4.8723
   62MOL0     H 8499   0.000   3.305   2.165  0.1711  0.1141 -0.1765
   62MOL0     H 8500  -0.158   3.396   2.193  0.0380  3.1597 -0.9961
   62MOL0     H 8501   0.034   3.578   2.076 -0.7073  0.4953  4.3523
   62MOL0     H 8502  -0.127   3.534   2.044  0.2210  1.3457  1.7360
   62MOL0     H 8503  -0.055   3.346   1.912 -0.7642  0.3884  0.6673
   62MOL0     H 8504   0.046   3.486   1.858  0.7643 -0.7517 -0.4273
   62MOL0     H 8505   0.300   3.490   1.982 -0.9766  0.0614 -0.0720
   62MOL0     H 8506   0.534   3.362   1.995  2.3355 -1.1321  0.1081
   62MOL0     H 8507   0.532   3.182   2.031  0.8988  0.2669 -0.3437
   62MOL0     H 8508   0.615   3.335   2.214 -0.2546  0.6805  1.7855
   62MOL0     H 8509   0.451   3.403   2.236  1.3401 -0.3149  4.0298
   62MOL0     H 8510   0.486   3.233   2.398 -1.9797 -2.9852  0.9732
   62MOL0     H 8511   0.349   3.197   2.287 -0.3055  2.2083  1.6198
   62MOL0     H 8512   0.472   3.028   2.179  0.9998  0.3172 -1.9256
   62MOL0     H 8513   0.625   3.087   2.233 -0.8001  0.1878  0.1658
   62MOL0     H 8514   0.373   2.808   2.284  0.0887  2.5584  1.4022
   62MOL0     H 8515   0.366   2.645   2.126  2.5567 -0.5400 -3.7996
   62MOL0     H 8516   0.351   2.502   2.243  0.2245 -1.3854 -1.9856
   62MOL0     H 8517   0.470   2.500   2.129  0.1419 -0.8896  1.8150
   62MOL0     H 8518   0.722   2.339   2.050  2.2685 -1.1748 -1.4711
   62MOL0     H 8519   0.800   2.105   1.945  3.3311  0.4031  0.6634
   62MOL0     H 8520   0.661   1.855   1.956 -0.6059 -0.0712  3.4246
   62MOL0     H 8521   0.826   1.901   1.886  2.1315  0.2686  1.3294
   62MOL0     H 8522   0.870   1.680   1.848  2.0548  0.8746  0.6799
   62MOL0     H 8523   0.876   1.645   2.024  0.3267  1.4836  0.4094
   62MOL0     H 8524   0.600   1.666   1.891  0.1099  0.0307 -0.1588
   62MOL0     H 8525   0.651   1.599   2.039 -1.3728  2.4275  0.5578
   62MOL0     H 8526   0.785   1.430   1.882 -0.3646 -0.2679 -0.3972
   62MOL0     H 8527   0.717   1.517   1.749  1.2157 -3.3231 -1.5302
   62MOL0     H 8528   0.560   1.338   1.950 -0.6609  0.2559  0.8719
   62MOL0     H 8529   0.481   1.462   1.874 -0.6680  0.0739 -1.8886
   62MOL0     H 8530   0.613   1.226   1.730 -3.0852 -1.7457  3.2783
   62MOL0     H 8531   0.577   1.377   1.645 -1.8059  0.8287  0.1716
   62MOL0     H 8532   0.368   1.372   1.643  0.0672  0.7110 -0.5738
   62MOL0     H 8533   0.346   1.264   1.783  1.1241  0.2604  0.5965
   62MOL0     H 8534   0.293   1.146   1.581 -0.4930  2.5629  0.7516
   62MOL0     H 8535   0.432   1.070   1.656  1.6008  1.0076 -0.2008
   62MOL0     H 8536   0.700   1.939   2.331 -0.7081  1.5003  1.3395
   62MOL0     H 8537   0.647   2.183   2.411 -2.6630 -0.1448 -0.8672
   62MOL0     H 8538   0.824   2.663   2.425  0.7709  1.2955  0.7608
   62MOL0     H 8539   0.742   2.901   2.476 -2.8807  1.6834 -0.0157
   62MOL0     H 8540   0.286   2.821   2.520 -0.9794 -0.3776 -1.2474
   62MOL0     H 8541   0.303   2.578   2.553 -1.5878 -1.3364 -0.6363
   62MOL0     H 8542   0.091   2.226   2.875 -0.6111 -1.2566 -0.4355
   62MOL0     H 8543   0.057   1.985   2.916  1.8383  0.3603  1.3589
   62MOL0     H 8544   0.149   1.700   2.625 -1.5891  3.9729  1.2226
   62MOL0     H 8545   0.314   1.683   2.703 -0.3170  1.9034  1.0910
   62MOL0     H 8546   0.086   1.532   2.827  2.3765  1.0356  3.9048
   62MOL0     H 8547   0.252   1.517   2.848 -0.0101  1.3577  0.1058
   62MOL0     H 8548   0.171   1.481   2.559  2.5585  1.1300  1.1343
   62MOL0     H 8549   0.258   1.367   2.659  2.2707  2.0223  0.2614
   62MOL0     H 8550  -0.035   1.390   2.704  0.5870  0.5412  1.1950
   62MOL0     H 8551   0.063   1.257   2.720  0.0980  0.9588  0.2899
   62MOL0     H 8552  -0.079   1.209   2.332 -2.8710  1.9671  0.2538
   62MOL0     H 8553   0.356   1.893   2.634 -0.5486 -1.2562  1.5234
   62MOL0     H 8554   0.503   2.182   2.604 -1.0899 -0.4877  2.4854
   62MOL0     H 8555   0.472   2.037   2.509  1.1059 -0.7590  1.7458
   62MOL0     H 8556   0.381   2.184   2.473 -1.6399 -1.1333 -0.6231
   63MOL0     O 8557   2.493   4.294   4.372 -0.7296  0.1749  0.3117
   63MOL0     C 8558   2.494   4.415   4.367 -0.0726  0.4018 -0.6241
   63MOL0     O 8559   2.537   4.502   4.274 -0.2577  0.6434  0.0295
   63MOL0     C 8560   2.556   4.457   4.142  0.1652 -0.1453 -0.1209
   63MOL0     C 8561   2.639   4.536   4.066  0.0543  1.0552  0.2704
   63MOL0     C 8562   2.687   4.477   3.943  0.0757 -0.4246  0.3633
   63MOL0     C 8563   2.646   4.350   3.895  0.4063 -0.3434 -0.9692
   63MOL0     O 8564   2.699   4.312   3.776  0.2966  0.3637 -0.6367
   63MOL0     C 8565   2.688   4.174   3.736 -0.2551 -0.4576  0.4106
   63MOL0     C 8566   2.805   4.141   3.636  0.0606 -1.3408  0.7067
   63MOL0     C 8567   2.947   4.150   3.699 -0.4890 -0.8391 -0.2363
   63MOL0     C 8568   3.040   4.112   3.576  0.6912 -0.1956  0.1310
   63MOL0     C 8569   3.186   4.139   3.611  0.4517  0.5528 -0.0903
   63MOL0     C 8570   3.294   4.089   3.514 -0.0024 -0.0794  0.6128
   63MOL0     C 8571   3.446   4.119   3.564 -1.0826 -0.8637  0.1346
   63MOL0     C 8572   3.541   4.022   3.509  0.0188  0.1333  0.1938
   63MOL0     N 8573   3.688   4.056   3.543  0.3416  0.1699  0.2674
   63MOL0     C 8574   3.789   4.079   3.446  1.1522 -0.1897 -0.2945
   63MOL0     C 8575   3.898   4.094   3.518 -0.4392  0.1457 -0.2215
   63MOL0     C 8576   4.042   4.101   3.468 -0.5752 -0.6048 -0.8877
   63MOL0     C 8577   4.106   3.958   3.476 -0.2146  0.2443 -0.0405
   63MOL0     C 8578   4.238   3.961   3.401  0.0320  1.5311 -0.1449
   63MOL0     C 8579   4.322   3.832   3.436 -0.0991  0.5631  1.4764
   63MOL0     O 8580   4.372   3.823   3.563 -0.8024 -0.4212 -0.8993
   63MOL0     C 8581   4.488   3.876   3.609 -0.2264  0.2761  1.4495
   63MOL0     C 8582   4.594   3.922   3.519 -0.2771 -0.1312  0.1563
   63MOL0     C 8583   4.715   3.954   3.579 -0.1013 -0.7599 -0.1618
   63MOL0     C 8584   4.822   3.991   3.472 -0.8426 -0.0151 -0.1937
   63MOL0     C 8585   4.737   3.949   3.720  0.3212 -1.0753 -0.1528
   63MOL0     C 8586   4.860   3.996   3.794 -0.7161 -0.6091  0.2137
   63MOL0     O 8587   4.992   3.999   3.724 -0.1695 -0.4399 -0.3427
   63MOL0     C 8588   5.097   4.058   3.784  0.1804 -0.2301  0.7829
   63MOL0     C 8589   5.184   4.126   3.696 -1.0176 -0.2514  0.1045
   63MOL0     C 8590   5.307   4.172   3.733 -0.7979 -0.2692 -1.1954
   63MOL0     C 8591   5.345   4.149   3.869  0.4936 -0.3223  0.3835
   63MOL0     O 8592   5.475   4.183   3.899  0.0600 -0.2099 -0.0698
   63MOL0     C 8593   5.484   4.262   4.018 -0.6667 -0.4775  0.1140
   63MOL0     C 8594   5.471   4.405   3.969  0.7939  0.2052  0.0231
   63MOL0     C 8595   5.520   4.497   4.074 -0.7185 -0.4293  0.6861
   63MOL0     C 8596   5.485   4.635   4.030 -0.3734  0.3281 -0.3311
   63MOL0     C 8597   5.501   4.735   4.148 -0.4154 -0.4097  0.4265
   63MOL0     C 8598   5.441   4.871   4.113 -0.1806 -0.5933  0.4441
   63MOL0     C 8599   5.477   4.976   4.233 -0.2198  0.2817  0.0732
   63MOL0     C 8600   5.397   5.103   4.226 -0.0873  0.0946 -0.2215
   63MOL0    Cl 8601   5.227   5.078   4.252 -0.0442  0.1879  0.1320
   63MOL0     C 8602   5.249   4.101   3.962 -1.3489 -0.0533 -0.7317
   63MOL0     C 8603   5.126   4.051   3.919 -0.0713 -0.2264 -1.1074
   63MOL0     O 8604   4.837   4.033   3.908  0.9403 -0.1071  0.0898
   63MOL0     C 8605   4.630   3.897   3.799  0.0229 -0.2176  0.4909
   63MOL0     C 8606   4.512   3.857   3.745  0.0898  0.4790  0.3700
   63MOL0     N 8607   3.876   4.052   3.651  0.1761 -0.2104  0.4200
   63MOL0     N 8608   3.748   4.037   3.663 -0.3803 -0.2817 -0.6220
   63MOL0     C 8609   2.555   4.283   3.969 -1.1973 -0.5608  0.1975
   63MOL0     C 8610   2.508   4.332   4.091 -1.4838  0.8842  0.1690
   63MOL0     C 8611   2.431   4.482   4.485 -0.8166 -0.7753 -0.3565
   63MOL0     C 8612   2.323   4.564   4.463  0.6530  1.0321 -0.2824
   63MOL0     C 8613   2.253   4.623   4.570  0.2854 -0.3026  0.4973
   63MOL0     C 8614   2.289   4.598   4.698 -0.5426  0.3276  0.1262
   63MOL0     O 8615   2.229   4.681   4.792 -0.4696 -0.1502  0.4369
   63MOL0     C 8616   2.269   4.661   4.929 -0.3033 -0.2936  0.5184
   63MOL0     C 8617   2.219   4.779   5.021  0.4429 -0.9723  0.1355
   63MOL0     C 8618   2.224   4.749   5.175 -0.1027 -1.1757  0.2107
   63MOL0     C 8619   2.372   4.737   5.214 -0.8454 -0.0642 -0.6348
   63MOL0     C 8620   2.390   4.673   5.344 -0.5802 -0.2587 -0.3060
   63MOL0     C 8621   2.430   4.623   5.446  0.4706  0.1389 -0.7675
   63MOL0     C 8622   2.404   4.525   4.720 -0.8400 -0.6465  1.2773
   63MOL0     C 8623   2.476   4.465   4.618  0.0491  0.0757 -0.2637
   63MOL0     C 8624   2.615   4.409   4.654 -0.0257  0.4910 -1.2203
   63MOL0     H 8625   2.678   4.628   4.108 -0.4425  0.8049  1.3023
   63MOL0     H 8626   2.757   4.535   3.884 -0.8926  0.5316  0.1378
   63MOL0     H 8627   2.593   4.162   3.682  0.7066 -2.4208 -0.9886
   63MOL0     H 8628   2.702   4.117   3.828 -1.7518  1.3220  1.8205
   63MOL0     H 8629   2.795   4.040   3.595 -1.5834  0.0715 -2.7587
   63MOL0     H 8630   2.795   4.207   3.550 -0.6975 -0.4829  1.4292
   63MOL0     H 8631   2.977   4.252   3.728 -0.3421  0.1317 -3.4153
   63MOL0     H 8632   2.965   4.079   3.780  3.7247 -2.4807 -2.3239
   63MOL0     H 8633   3.008   4.008   3.560 -1.2788  0.3640  0.2695
   63MOL0     H 8634   3.020   4.174   3.489  0.0614 -1.0116 -0.3216
   63MOL0     H 8635   3.202   4.108   3.715 -1.1803  2.8135  0.9197
   63MOL0     H 8636   3.195   4.247   3.617  0.6965  0.6877 -2.1343
   63MOL0     H 8637   3.294   3.980   3.526  1.7653 -0.4788 -2.0368
   63MOL0     H 8638   3.274   4.114   3.409 -2.0065  1.4349  1.3054
   63MOL0     H 8639   3.447   4.116   3.673 -1.6138  0.9973  0.2235
   63MOL0     H 8640   3.480   4.217   3.527  0.7286 -1.6002 -0.2701
   63MOL0     H 8641   3.512   3.921   3.539  0.2738  0.2862  1.0053
   63MOL0     H 8642   3.533   4.010   3.401 -0.9390  0.4164  0.2265
   63MOL0     H 8643   3.785   4.072   3.338 -0.6022 -0.1078 -0.2667
   63MOL0     H 8644   4.102   4.166   3.531  2.2649 -3.0100 -0.8962
   63MOL0     H 8645   4.070   4.148   3.373 -0.1846  0.5607 -0.2066
   63MOL0     H 8646   4.103   3.926   3.580  0.2313  0.1450 -0.0565
   63MOL0     H 8647   4.057   3.877   3.421  3.5950 -1.5792 -1.0599
   63MOL0     H 8648   4.220   3.962   3.293 -2.0975  0.8888  0.1523
   63MOL0     H 8649   4.304   4.045   3.424  2.1500 -0.1604  0.3074
   63MOL0     H 8650   4.247   3.753   3.433 -0.6526  1.0581  1.9730
   63MOL0     H 8651   4.391   3.815   3.353 -3.3252  2.3799 -1.8642
   63MOL0     H 8652   4.574   3.918   3.413  0.8246 -0.1697 -0.0629
   63MOL0     H 8653   4.922   3.992   3.516 -1.5396  2.2583  1.5473
   63MOL0     H 8654   4.811   4.096   3.442 -1.1624  0.6199  2.0004
   63MOL0     H 8655   4.843   3.916   3.395  1.3935 -0.6651  0.9399
   63MOL0     H 8656   5.165   4.120   3.589 -0.5871 -5.7149  0.0685
   63MOL0     H 8657   5.385   4.215   3.671 -0.3188  0.7814  0.0832
   63MOL0     H 8658   5.420   4.234   4.102 -1.8082 -1.4731 -1.0403
   63MOL0     H 8659   5.586   4.246   4.054 -0.6075 -1.4119 -0.4306
   63MOL0     H 8660   5.530   4.412   3.877  0.2544  3.2700 -0.1851
   63MOL0     H 8661   5.368   4.435   3.947  0.3030 -0.6853  1.0144
   63MOL0     H 8662   5.629   4.487   4.083 -0.4229  1.5134 -0.2997
   63MOL0     H 8663   5.477   4.474   4.172  2.5223  0.2481  2.4259
   63MOL0     H 8664   5.379   4.648   4.005 -1.0190 -2.8988  0.2802
   63MOL0     H 8665   5.548   4.657   3.943  0.6595 -0.5402  0.1805
   63MOL0     H 8666   5.464   4.701   4.245 -2.6017  1.4295  0.3285
   63MOL0     H 8667   5.609   4.745   4.164 -0.2852 -0.5674 -0.3490
   63MOL0     H 8668   5.332   4.862   4.109 -0.5549 -0.8420  5.4979
   63MOL0     H 8669   5.470   4.921   4.020  0.5903 -2.2028 -0.2221
   63MOL0     H 8670   5.583   5.003   4.225 -0.0515  0.5091  2.4926
   63MOL0     H 8671   5.469   4.940   4.336 -2.5156  2.8240  0.9139
   63MOL0     H 8672   5.411   5.167   4.138 -1.1082  3.7822  2.0841
   63MOL0     H 8673   5.434   5.164   4.308  3.2190 -3.0557  0.8884
   63MOL0     H 8674   5.274   4.096   4.067  1.7789  0.4432 -1.3345
   63MOL0     H 8675   5.066   3.996   3.992 -1.2194 -0.5808 -2.2863
   63MOL0     H 8676   4.649   3.880   3.905  0.2843  0.7575  0.6100
   63MOL0     H 8677   4.435   3.810   3.805 -0.2339  0.6727  0.1095
   63MOL0     H 8678   2.522   4.188   3.928  3.3521 -1.7187 -1.3959
   63MOL0     H 8679   2.435   4.273   4.145 -1.1050  0.0313 -0.2228
   63MOL0     H 8680   2.281   4.595   4.368 -0.3509  1.8377  0.3948
   63MOL0     H 8681   2.166   4.684   4.551 -0.7292 -1.8341 -0.0219
   63MOL0     H 8682   2.223   4.565   4.955  0.1189 -0.6533 -0.0311
   63MOL0     H 8683   2.377   4.650   4.939 -0.3991 -1.3055  0.5853
   63MOL0     H 8684   2.118   4.811   4.995  0.6013 -0.7651 -0.2325
   63MOL0     H 8685   2.277   4.868   4.994  0.1058 -0.0442  2.2667
   63MOL0     H 8686   2.175   4.831   5.228  0.0487 -0.3108 -0.9502
   63MOL0     H 8687   2.177   4.656   5.209 -2.0953 -1.1524 -2.2072
   63MOL0     H 8688   2.411   4.838   5.224 -0.1925 -0.5212  3.3196
   63MOL0     H 8689   2.434   4.685   5.140 -1.1240  1.6240 -2.1140
   63MOL0     H 8690   2.457   4.580   5.540 -1.2493  0.1909 -0.2166
   63MOL0     H 8691   2.461   4.514   4.812  1.7968  0.4630 -0.0833
   63MOL0     H 8692   2.649   4.330   4.585  2.8175  0.8962 -0.3937
   63MOL0     H 8693   2.692   4.486   4.656  0.5233  0.1783 -4.4857
   63MOL0     H 8694   2.608   4.363   4.753 -0.8396  0.4280 -1.3046
   64MOL0     O 8695   6.493   1.713   7.063  0.2254  0.3725 -0.1399
   64MOL0     C 8696   6.568   1.808   7.049 -0.1501 -0.3262  0.6464
   64MOL0     O 8697   6.681   1.801   6.974  1.2012 -1.2038 -0.0014
   64MOL0     C 8698   6.660   1.791   6.842 -0.6975  0.1327  0.6266
   64MOL0     C 8699   6.533   1.793   6.766  0.5305  0.8134 -1.4750
   64MOL0     C 8700   6.532   1.788   6.626  0.8975  0.2043 -0.3403
   64MOL0     C 8701   6.647   1.776   6.548  0.3944 -1.3310  0.1072
   64MOL0     O 8702   6.653   1.769   6.411 -0.5378  0.4578 -0.8485
   64MOL0     C 8703   6.537   1.709   6.355  0.9575 -0.4908  0.3544
   64MOL0     C 8704   6.558   1.728   6.199  0.6461 -0.0171  0.3118
   64MOL0     C 8705   6.448   1.657   6.129 -0.4507  0.6316  0.1088
   64MOL0     C 8706   6.453   1.706   5.983  0.4559  0.3545  0.2056
   64MOL0     C 8707   6.347   1.631   5.896  0.6871 -0.8816 -0.7830
   64MOL0     C 8708   6.358   1.681   5.749 -0.1455 -0.6551  0.5407
   64MOL0     C 8709   6.502   1.657   5.691 -0.5164  0.4018 -1.8138
   64MOL0     C 8710   6.493   1.628   5.546  0.0021 -0.1824 -0.1387
   64MOL0     N 8711   6.434   1.504   5.507 -0.8997  0.1374  0.2942
   64MOL0     C 8712   6.437   1.375   5.573 -0.4180  0.8358  0.0655
   64MOL0     C 8713   6.388   1.290   5.486 -0.2375 -0.1423 -0.6007
   64MOL0     C 8714   6.363   1.146   5.527 -0.3438 -0.1162 -0.2043
   64MOL0     C 8715   6.472   1.046   5.490 -0.1886 -0.2719  0.7104
   64MOL0     C 8716   6.507   1.051   5.343  0.2926 -0.5098 -0.1829
   64MOL0     C 8717   6.623   0.966   5.315 -0.5424  0.2052 -0.4888
   64MOL0     O 8718   6.667   0.999   5.183 -0.1648  0.5634 -0.6077
   64MOL0     C 8719   6.690   0.897   5.091  0.5165 -0.1013  0.4102
   64MOL0     C 8720   6.704   0.933   4.957 -0.7478  0.5841  0.1557
   64MOL0     C 8721   6.720   0.832   4.855 -0.5708  0.2912 -0.0158
   64MOL0     C 8722   6.721   0.889   4.713  0.0439 -0.0238  0.2097
   64MOL0     C 8723   6.721   0.695   4.888 -0.4660  0.0207 -0.3026
   64MOL0     C 8724   6.718   0.585   4.795 -0.7015 -0.7145  0.1214
   64MOL0     O 8725   6.749   0.456   4.844 -0.2508 -0.0028 -0.4713
   64MOL0     C 8726   6.792   0.372   4.741 -0.2184  0.0090  0.0872
   64MOL0     C 8727   6.721   0.264   4.701 -0.3155  1.0598 -0.3920
   64MOL0     C 8728   6.776   0.178   4.597 -0.0618  0.0695 -0.0445
   64MOL0     C 8729   6.900   0.208   4.538  0.2683  0.2880 -0.8036
   64MOL0     O 8730   6.963   0.127   4.447  0.0492  0.0523  0.3488
   64MOL0     C 8731   7.041   0.185   4.338 -0.0261  1.5186 -0.5598
   64MOL0     C 8732   6.964   0.283   4.240  0.4800  0.2116 -0.0139
   64MOL0     C 8733   7.063   0.354   4.142  0.4195 -0.6696 -0.2550
   64MOL0     C 8734   7.208   0.364   4.190  0.2694 -0.1537 -0.1250
   64MOL0     C 8735   7.281   0.445   4.083 -0.8839 -0.6845  0.0553
   64MOL0     C 8736   7.399   0.520   4.151 -0.1063 -0.4121 -0.3632
   64MOL0     C 8737   7.505   0.427   4.229 -0.1472  0.3943 -0.0632
   64MOL0     C 8738   7.612   0.520   4.293  0.0378 -1.3519 -0.7115
   64MOL0    Cl 8739   7.546   0.628   4.425 -0.4081  0.0387 -0.3013
   64MOL0     C 8740   6.976   0.322   4.590 -0.2752  0.2842 -0.1592
   64MOL0     C 8741   6.921   0.402   4.684  1.0398 -0.1684 -0.4368
   64MOL0     O 8742   6.677   0.608   4.689  0.7002 -0.8579  0.0647
   64MOL0     C 8743   6.722   0.665   5.025  0.2443  0.9004 -0.2467
   64MOL0     C 8744   6.694   0.762   5.126  0.3482  0.1046  0.4050
   64MOL0     N 8745   6.366   1.358   5.367 -0.2313 -0.3520  0.0358
   64MOL0     N 8746   6.396   1.485   5.375  0.3014  0.1120 -0.4678
   64MOL0     C 8747   6.760   1.770   6.622  0.6144  1.0761 -0.7114
   64MOL0     C 8748   6.776   1.781   6.762 -0.1378 -0.7201  0.8643
   64MOL0     C 8749   6.513   1.947   7.085 -0.9267 -0.3332  0.4827
   64MOL0     C 8750   6.580   2.062   7.032  0.2785  1.0227  0.2356
   64MOL0     C 8751   6.533   2.191   7.051  1.1237 -0.5638  0.2454
   64MOL0     C 8752   6.433   2.221   7.143 -0.3330 -1.1598 -0.6648
   64MOL0     O 8753   6.414   2.354   7.162  0.1309  0.1525 -0.4302
   64MOL0     C 8754   6.304   2.389   7.249  0.9642  1.0466  0.7887
   64MOL0     C 8755   6.288   2.539   7.263 -0.2234  0.6908  0.0117
   64MOL0     C 8756   6.176   2.604   7.172  0.5400 -0.9107 -0.2551
   64MOL0     C 8757   6.194   2.755   7.142 -0.1519  0.0799  0.7849
   64MOL0     C 8758   6.202   2.786   6.993  0.5088 -0.0173 -0.3938
   64MOL0     C 8759   6.213   2.826   6.877  0.5743 -0.4280 -0.6334
   64MOL0     C 8760   6.366   2.112   7.194 -0.6473  0.0969  0.0881
   64MOL0     C 8761   6.400   1.974   7.173 -1.2174  0.1221  0.7210
   64MOL0     C 8762   6.322   1.864   7.258  0.6553  0.6228  0.1341
   64MOL0     H 8763   6.433   1.803   6.807  1.1396  2.7845 -0.3380
   64MOL0     H 8764   6.436   1.803   6.579  0.6568  0.7496  0.3079
   64MOL0     H 8765   6.437   1.743   6.383  1.4563  2.1188 -0.7374
   64MOL0     H 8766   6.543   1.600   6.359 -1.8688 -0.6842  1.1991
   64MOL0     H 8767   6.558   1.836   6.181 -1.6786 -0.1913 -1.2424
   64MOL0     H 8768   6.653   1.685   6.167  0.0016 -2.9364  1.9424
   64MOL0     H 8769   6.467   1.549   6.129 -0.3875  0.6210  1.5511
   64MOL0     H 8770   6.346   1.677   6.164 -0.6500  3.0993 -1.5924
   64MOL0     H 8771   6.415   1.807   6.000 -3.2766 -1.4027  4.7446
   64MOL0     H 8772   6.554   1.712   5.942 -0.0086 -1.0459 -1.2850
   64MOL0     H 8773   6.248   1.633   5.941  1.2749  0.2754  0.5545
   64MOL0     H 8774   6.368   1.524   5.893 -1.0339 -1.2718  0.0759
   64MOL0     H 8775   6.284   1.636   5.683  1.3229 -0.3868 -1.3989
   64MOL0     H 8776   6.348   1.790   5.740  4.2625 -0.0791 -0.0705
   64MOL0     H 8777   6.555   1.585   5.755  0.3825  3.1219  0.7405
   64MOL0     H 8778   6.568   1.744   5.696 -0.7533  0.6967 -3.3397
   64MOL0     H 8779   6.442   1.712   5.497  1.8645  1.3462  0.4349
   64MOL0     H 8780   6.596   1.635   5.509 -0.6258  1.1950 -1.7740
   64MOL0     H 8781   6.471   1.351   5.673  2.6090 -2.2733 -1.5210
   64MOL0     H 8782   6.273   1.109   5.477 -1.1266 -3.0540  2.9876
   64MOL0     H 8783   6.346   1.138   5.635  0.1739 -2.2182 -0.2455
   64MOL0     H 8784   6.564   1.074   5.544 -0.6644  1.2994  0.7734
   64MOL0     H 8785   6.443   0.943   5.512  1.9764 -1.4384 -1.5137
   64MOL0     H 8786   6.428   1.019   5.274 -1.6067  1.1352  1.0897
   64MOL0     H 8787   6.544   1.148   5.307 -1.1122 -0.2620 -1.0495
   64MOL0     H 8788   6.709   0.978   5.382 -1.8292  1.2924  1.0259
   64MOL0     H 8789   6.594   0.861   5.325  1.2631 -0.4253 -1.3858
   64MOL0     H 8790   6.690   1.037   4.930 -2.1206  0.4925  0.4510
   64MOL0     H 8791   6.632   0.864   4.654  0.0721  3.4050 -1.5622
   64MOL0     H 8792   6.816   0.863   4.667  0.5509 -0.3853  1.4418
   64MOL0     H 8793   6.718   0.999   4.712  1.2615  0.0163 -0.5962
   64MOL0     H 8794   6.626   0.238   4.747 -0.4698  2.5392  0.1799
   64MOL0     H 8795   6.722   0.091   4.562 -1.1611  0.8278 -0.3047
   64MOL0     H 8796   7.129   0.233   4.381  0.2822 -0.5297  1.2558
   64MOL0     H 8797   7.078   0.099   4.281 -1.3171  0.4788  0.1077
   64MOL0     H 8798   6.899   0.219   4.180 -1.6554  0.2298  2.1502
   64MOL0     H 8799   6.896   0.348   4.296  0.2682  1.0316 -1.1690
   64MOL0     H 8800   7.027   0.457   4.128  1.1702 -0.2754  0.5459
   64MOL0     H 8801   7.075   0.310   4.043  1.1758  0.1437 -0.5459
   64MOL0     H 8802   7.257   0.268   4.208 -2.3480 -1.8798 -1.4858
   64MOL0     H 8803   7.216   0.422   4.282  1.1938 -1.0125  0.3483
   64MOL0     H 8804   7.326   0.396   3.996  0.1461 -1.1700  0.8520
   64MOL0     H 8805   7.213   0.518   4.037 -0.8070 -0.1084  0.8441
   64MOL0     H 8806   7.367   0.602   4.217 -0.6311 -0.9703  0.0832
   64MOL0     H 8807   7.452   0.569   4.069 -1.8247 -0.5591 -1.6280
   64MOL0     H 8808   7.548   0.357   4.156  0.2339 -1.1937  1.6044
   64MOL0     H 8809   7.459   0.367   4.308 -1.4055 -1.4848 -2.0844
   64MOL0     H 8810   7.661   0.580   4.216 -1.4912  0.3775 -0.4229
   64MOL0     H 8811   7.687   0.456   4.340 -0.1642  0.5023  2.3928
   64MOL0     H 8812   7.078   0.339   4.558 -0.0921 -0.8624 -0.2358
   64MOL0     H 8813   6.967   0.498   4.703 -1.7103  0.5935  3.5266
   64MOL0     H 8814   6.731   0.562   5.058 -0.1033  1.7552  2.9313
   64MOL0     H 8815   6.677   0.715   5.223  1.7623 -2.4712 -0.4816
   64MOL0     H 8816   6.858   1.748   6.579  0.6710 -0.3889  0.1238
   64MOL0     H 8817   6.874   1.773   6.809  0.1783 -0.1307  0.3153
   64MOL0     H 8818   6.664   2.047   6.965  0.4809  1.1356  0.4634
   64MOL0     H 8819   6.574   2.279   7.003  1.1994  1.0797  3.1267
   64MOL0     H 8820   6.210   2.335   7.235  0.4539  1.8929  0.8146
   64MOL0     H 8821   6.337   2.361   7.350  0.6629 -1.3995  0.2660
   64MOL0     H 8822   6.386   2.568   7.223 -0.3505 -0.0323 -0.8702
   64MOL0     H 8823   6.278   2.568   7.367 -0.1509 -2.4644  1.0035
   64MOL0     H 8824   6.177   2.547   7.079  1.7348 -1.5403  0.1163
   64MOL0     H 8825   6.080   2.604   7.225 -0.4767  3.1791 -1.7685
   64MOL0     H 8826   6.279   2.789   7.202  0.7577  2.7756 -1.7687
   64MOL0     H 8827   6.103   2.801   7.183  0.4540  2.1538 -0.0855
   64MOL0     H 8828   6.209   2.836   6.771 -1.1145 -1.9743 -0.7658
   64MOL0     H 8829   6.301   2.126   7.280  0.0378  1.7176  0.3757
   64MOL0     H 8830   6.255   1.808   7.194  0.4367 -0.1544  1.0230
   64MOL0     H 8831   6.381   1.786   7.307 -0.1709 -1.1177 -1.5428
   64MOL0     H 8832   6.260   1.906   7.338 -4.4317 -1.5579 -2.2363
   65MOL0     O 8833   9.118  11.198  10.642  0.5170  0.8199  0.4484
   65MOL0     C 8834   9.078  11.262  10.740  0.2629  0.3648 -0.9315
   65MOL0     O 8835   8.965  11.346  10.741  0.5636  0.6632 -0.5028
   65MOL0     C 8836   8.900  11.369  10.622  0.6626 -0.3038 -0.5478
   65MOL0     C 8837   8.925  11.488  10.550 -0.2019 -0.0177 -0.6746
   65MOL0     C 8838   8.857  11.508  10.422 -0.2764  0.9570  0.0352
   65MOL0     C 8839   8.773  11.408  10.374 -0.8948 -0.6631  0.3634
   65MOL0     O 8840   8.737  11.431  10.251 -0.4779  0.5670  0.1672
   65MOL0     C 8841   8.596  11.414  10.248  0.1732  0.0918 -0.2902
   65MOL0     C 8842   8.533  11.461  10.119 -0.5655  1.1378 -0.3051
   65MOL0     C 8843   8.604  11.575  10.054 -0.3434 -0.2844 -0.5380
   65MOL0     C 8844   8.628  11.710  10.128  0.0760  0.2390  0.3218
   65MOL0     C 8845   8.647  11.830  10.033  0.5103  0.1465  0.1209
   65MOL0     C 8846   8.764  11.800   9.946  0.7064  0.1575 -0.9368
   65MOL0     C 8847   8.812  11.928   9.878 -0.0744  0.4619  0.2821
   65MOL0     C 8848   8.884  11.893   9.749  0.0376  0.9153  0.3402
   65MOL0     N 8849   9.010  11.823   9.773 -0.0594 -0.3186 -0.0911
   65MOL0     C 8850   9.021  11.686   9.770  0.3784 -0.8867  0.6633
   65MOL0     C 8851   9.153  11.657   9.788  0.3105  0.4868 -0.4019
   65MOL0     C 8852   9.224  11.520   9.798 -0.5195  1.5944 -0.0811
   65MOL0     C 8853   9.147  11.412   9.871  1.0240 -0.0845 -0.4011
   65MOL0     C 8854   9.117  11.449  10.019 -0.0895  0.1487 -0.5773
   65MOL0     C 8855   9.012  11.351  10.075 -0.2555  0.0574 -0.5291
   65MOL0     O 8856   9.081  11.224  10.067  0.3070 -0.0634  1.0229
   65MOL0     C 8857   9.185  11.202  10.150 -0.4676 -0.5218 -0.3166
   65MOL0     C 8858   9.312  11.167  10.094  0.1071  0.6610  0.0252
   65MOL0     C 8859   9.414  11.144  10.184 -0.1749 -0.6011  0.4106
   65MOL0     C 8860   9.537  11.080  10.115  0.2037 -0.3553  0.0901
   65MOL0     C 8861   9.406  11.180  10.317 -0.0555 -0.1840 -0.6474
   65MOL0     C 8862   9.521  11.178  10.401  0.2731  0.5371  0.7870
   65MOL0     O 8863   9.496  11.140  10.533 -0.5421  0.3947 -0.4222
   65MOL0     C 8864   9.595  11.134  10.624 -0.6551 -0.2892 -1.1090
   65MOL0     C 8865   9.682  11.247  10.648  0.6309  0.1172 -0.5963
   65MOL0     C 8866   9.773  11.241  10.751 -0.3006 -0.3871  0.5172
   65MOL0     C 8867   9.787  11.122  10.833 -0.2431 -0.8045  0.7262
   65MOL0     O 8868   9.894  11.124  10.908 -0.0298  0.6095  0.5003
   65MOL0     C 8869   9.891  11.053  11.023  0.8101 -0.0537  0.1844
   65MOL0     C 8870  10.015  11.085  11.096  0.3591  0.2656 -0.0888
   65MOL0     C 8871  10.138  11.017  11.066 -0.3158 -0.1073 -0.6452
   65MOL0     C 8872  10.236  11.022  11.182 -0.6560  0.3342  0.0714
   65MOL0     C 8873  10.360  10.930  11.150 -0.9818  0.3611  0.4089
   65MOL0     C 8874  10.472  10.948  11.257 -0.3777  0.5052 -0.2523
   65MOL0     C 8875  10.567  11.065  11.259 -0.4413  0.0297  0.3213
   65MOL0     C 8876  10.697  11.043  11.349  1.1559 -0.4121 -0.1110
   65MOL0    Cl 8877  10.645  11.001  11.510  0.2096  0.0692 -0.0044
   65MOL0     C 8878   9.694  11.009  10.808  0.6510  0.6310 -0.0878
   65MOL0     C 8879   9.606  11.025  10.706  0.2397 -0.3749  0.5573
   65MOL0     O 8880   9.638  11.198  10.360 -0.3610  0.5922 -0.3140
   65MOL0     C 8881   9.284  11.230  10.367 -0.5675  0.9346  0.1929
   65MOL0     C 8882   9.170  11.232  10.288 -0.5540  0.1966 -0.1439
   65MOL0     N 8883   9.215  11.775   9.813  0.3498 -0.8009 -0.4293
   65MOL0     N 8884   9.132  11.876   9.815 -0.2577 -0.7379  0.5526
   65MOL0     C 8885   8.761  11.285  10.447 -0.1918  0.0149  0.1342
   65MOL0     C 8886   8.811  11.269  10.572 -0.1607  0.2825 -0.5111
   65MOL0     C 8887   9.164  11.237  10.851  0.5528  0.6729 -0.3033
   65MOL0     C 8888   9.301  11.217  10.842 -0.6781 -0.6604 -0.0069
   65MOL0     C 8889   9.373  11.189  10.949 -0.7516  0.4654 -0.2381
   65MOL0     C 8890   9.335  11.190  11.088  0.4104 -0.7763 -0.8355
   65MOL0     O 8891   9.424  11.145  11.179 -0.0315  0.0262  0.1062
   65MOL0     C 8892   9.412  11.174  11.319 -0.0997 -0.0163  0.6040
   65MOL0     C 8893   9.472  11.056  11.408 -0.1296 -0.1521  0.7419
   65MOL0     C 8894   9.492  11.114  11.552 -0.3476  1.4710 -0.2443
   65MOL0     C 8895   9.539  10.997  11.648 -0.6455 -0.7542  0.0616
   65MOL0     C 8896   9.563  11.042  11.785  0.7315 -0.6168  0.1425
   65MOL0     C 8897   9.600  11.063  11.899 -0.1486 -0.4359 -0.0595
   65MOL0     C 8898   9.201  11.217  11.101  0.4254 -0.4032 -0.5982
   65MOL0     C 8899   9.113  11.234  10.987 -0.4851 -0.5202 -0.3262
   65MOL0     C 8900   8.969  11.252  11.020  0.0650  0.6229  0.9225
   65MOL0     H 8901   8.987  11.567  10.591 -3.0126  1.5994  0.8526
   65MOL0     H 8902   8.870  11.604  10.373 -2.2439  0.9711 -0.5544
   65MOL0     H 8903   8.546  11.475  10.325  0.9042  1.9748 -1.2275
   65MOL0     H 8904   8.571  11.310  10.269  1.4643  0.0178  1.0387
   65MOL0     H 8905   8.530  11.371  10.056  2.6743  0.7145 -0.0207
   65MOL0     H 8906   8.427  11.483  10.137 -1.4261 -1.8633 -0.9542
   65MOL0     H 8907   8.699  11.543  10.009 -0.6987  0.0302 -1.5370
   65MOL0     H 8908   8.551  11.593   9.960 -0.0827  2.6846 -0.2256
   65MOL0     H 8909   8.541  11.729  10.192  2.6746  4.9050  3.0424
   65MOL0     H 8910   8.713  11.683  10.191 -0.5171 -1.6856  0.3795
   65MOL0     H 8911   8.664  11.928  10.078  0.9190  0.7471 -1.2949
   65MOL0     H 8912   8.556  11.861   9.982  1.9717  1.0013 -2.1053
   65MOL0     H 8913   8.843  11.763  10.011  0.4851  1.4152  0.0857
   65MOL0     H 8914   8.737  11.722   9.874 -0.9525  2.6572 -3.2556
   65MOL0     H 8915   8.885  11.985   9.935  0.6177  0.8802 -0.9816
   65MOL0     H 8916   8.724  11.986   9.847 -0.4056  0.0617  0.4582
   65MOL0     H 8917   8.824  11.835   9.679  0.8675  0.7936 -0.2919
   65MOL0     H 8918   8.915  11.986   9.701  2.6539 -0.8377 -1.6343
   65MOL0     H 8919   8.935  11.628   9.738  0.6956  0.6291 -3.5280
   65MOL0     H 8920   9.326  11.535   9.834  0.1212 -3.3771  0.8617
   65MOL0     H 8921   9.227  11.479   9.696  1.4548 -2.0958  1.2778
   65MOL0     H 8922   9.049  11.409   9.822 -0.1293 -1.8232  1.8289
   65MOL0     H 8923   9.184  11.310   9.867 -1.8113 -1.2336  0.1643
   65MOL0     H 8924   9.211  11.444  10.075  1.4855  1.5703 -2.9200
   65MOL0     H 8925   9.075  11.550  10.020 -1.3939 -0.3401 -2.3447
   65MOL0     H 8926   8.978  11.375  10.176  0.0538 -0.5654 -0.2687
   65MOL0     H 8927   8.925  11.362  10.010 -1.7025 -1.2621  1.0906
   65MOL0     H 8928   9.323  11.153   9.987 -2.4369  3.0529 -0.6855
   65MOL0     H 8929   9.614  11.158  10.114 -1.5740  1.4968  0.5848
   65MOL0     H 8930   9.523  11.055  10.009  4.1687 -1.8491 -0.2320
   65MOL0     H 8931   9.580  10.998  10.172  0.4607 -0.0916  0.2746
   65MOL0     H 8932   9.694  11.327  10.575  0.2954  1.2674  0.5725
   65MOL0     H 8933   9.839  11.327  10.758 -1.6712  1.1291 -2.8656
   65MOL0     H 8934   9.805  11.085  11.082 -2.8560 -0.6374 -4.2608
   65MOL0     H 8935   9.885  10.946  11.002  0.4682  0.2137 -1.1925
   65MOL0     H 8936  10.020  11.194  11.089 -0.2466  0.2853 -0.3526
   65MOL0     H 8937  10.002  11.066  11.203  0.1814  2.2124  0.2677
   65MOL0     H 8938  10.202  11.048  10.983  2.2066 -1.1503  0.7537
   65MOL0     H 8939  10.118  10.911  11.048  0.6185  0.0072 -2.6804
   65MOL0     H 8940  10.190  10.982  11.273 -0.6030 -1.3187 -0.6051
   65MOL0     H 8941  10.266  11.127  11.189  2.7085 -0.3849 -1.6944
   65MOL0     H 8942  10.336  10.823  11.142  1.5193 -0.2365  0.0578
   65MOL0     H 8943  10.398  10.953  11.050 -0.5720  0.0079  0.4794
   65MOL0     H 8944  10.540  10.862  11.256  1.1152  1.5814  1.5256
   65MOL0     H 8945  10.419  10.956  11.353 -1.9830  1.6004 -1.1888
   65MOL0     H 8946  10.501  11.148  11.289 -1.4230  0.0468 -1.7197
   65MOL0     H 8947  10.603  11.076  11.156 -1.2293  0.2564  0.0623
   65MOL0     H 8948  10.760  11.131  11.363  1.2358 -0.4575 -0.1832
   65MOL0     H 8949  10.766  10.971  11.303  0.5422 -0.8629 -0.3484
   65MOL0     H 8950   9.701  10.924  10.876  1.0412 -0.3169 -1.2842
   65MOL0     H 8951   9.536  10.943  10.700  1.7221 -1.8079  1.8770
   65MOL0     H 8952   9.285  11.258  10.472  0.6743  1.4757  0.0505
   65MOL0     H 8953   9.074  11.264  10.329 -0.8298  0.0264 -0.6505
   65MOL0     H 8954   8.700  11.202  10.413  2.6049 -3.1640  2.2849
   65MOL0     H 8955   8.786  11.181  10.631 -0.3245  0.8877  0.3523
   65MOL0     H 8956   9.335  11.205  10.740 -4.0990  1.0258 -1.5021
   65MOL0     H 8957   9.478  11.169  10.937 -0.1685  2.9533  0.0513
   65MOL0     H 8958   9.480  11.259  11.328  1.9115 -1.6106  1.4411
   65MOL0     H 8959   9.307  11.199  11.337 -1.0055 -2.2720 -1.0325
   65MOL0     H 8960   9.573  11.032  11.374  0.6203  2.9358  0.5327
   65MOL0     H 8961   9.406  10.968  11.403 -0.9010  0.4577  0.0905
   65MOL0     H 8962   9.560  11.200  11.556  0.8525  0.5194  0.5420
   65MOL0     H 8963   9.393  11.150  11.582 -0.6606  0.6628 -0.2976
   65MOL0     H 8964   9.628  10.954  11.601  0.0239  3.7398 -3.4578
   65MOL0     H 8965   9.463  10.919  11.661 -0.1229 -0.8036  3.8396
   65MOL0     H 8966   9.630  11.090  11.998 -2.6614  0.8632  0.4286
   65MOL0     H 8967   9.157  11.236  11.198  3.6652  2.7591  0.4825
   65MOL0     H 8968   8.912  11.165  10.988  0.9712 -0.6737  2.6651
   65MOL0     H 8969   8.963  11.251  11.130  2.1737 -2.5854  1.1501
   65MOL0     H 8970   8.923  11.344  10.982 -0.7501  0.4221  1.3813
   66MOL0     O 8971   4.512   6.847   6.039 -0.2928 -0.4765  0.4172
   66MOL0     C 8972   4.430   6.757   6.022  0.3267  0.1474 -1.1561
   66MOL0     O 8973   4.431   6.667   5.925  0.3705  0.2512 -0.0702
   66MOL0     C 8974   4.492   6.693   5.812 -1.1670  0.5499  0.1577
   66MOL0     C 8975   4.474   6.813   5.732  0.6543  0.4752  0.9467
   66MOL0     C 8976   4.524   6.825   5.601  0.5150  0.3355  0.5076
   66MOL0     C 8977   4.599   6.719   5.555  0.6329 -1.1115 -0.5283
   66MOL0     O 8978   4.661   6.748   5.437  0.2171  0.3392 -0.3414
   66MOL0     C 8979   4.803   6.713   5.423  0.5195 -0.5641 -0.1772
   66MOL0     C 8980   4.842   6.803   5.308  0.6955  0.4180  0.7134
   66MOL0     C 8981   4.783   6.758   5.173 -0.0359  0.8992 -0.3041
   66MOL0     C 8982   4.652   6.826   5.124 -0.0493  0.7072 -0.5924
   66MOL0     C 8983   4.687   6.933   5.017  0.5567  0.3314  0.1083
   66MOL0     C 8984   4.755   7.053   5.085 -1.0398  0.9412 -0.6505
   66MOL0     C 8985   4.727   7.190   5.027  0.8822 -0.5363  0.4380
   66MOL0     C 8986   4.838   7.282   5.067 -0.8478  0.5684 -0.7787
   66MOL0     N 8987   4.811   7.421   5.034  0.4659 -0.3330  0.5066
   66MOL0     C 8988   4.855   7.495   4.930 -0.6149 -0.8940 -0.6614
   66MOL0     C 8989   4.796   7.621   4.937  0.6415  0.6482  0.4957
   66MOL0     C 8990   4.817   7.732   4.837  0.3739  0.3100  0.1919
   66MOL0     C 8991   4.855   7.856   4.912 -0.1389  0.5902  0.1898
   66MOL0     C 8992   4.991   7.839   4.973 -0.3891  0.4577 -0.6585
   66MOL0     C 8993   5.101   7.816   4.871 -0.4802  0.0921  0.0299
   66MOL0     O 8994   5.233   7.849   4.932  0.0508 -0.3512 -0.0923
   66MOL0     C 8995   5.329   7.757   4.927  0.6746 -0.3979  0.1480
   66MOL0     C 8996   5.449   7.769   4.861 -0.3070 -0.0842 -0.7482
   66MOL0     C 8997   5.552   7.662   4.867 -0.0918 -1.3444  0.3894
   66MOL0     C 8998   5.684   7.686   4.793 -0.8332 -0.0303 -0.3104
   66MOL0     C 8999   5.529   7.547   4.940  0.5788 -0.0675 -0.1238
   66MOL0     C 9000   5.630   7.436   4.957 -0.8480  0.0685  0.1318
   66MOL0     O 9001   5.578   7.313   4.992  0.1761  0.2762  0.6007
   66MOL0     C 9002   5.652   7.197   4.980 -0.2467  0.5585  0.7153
   66MOL0     C 9003   5.665   7.107   5.086 -0.2717  0.0114 -0.6407
   66MOL0     C 9004   5.754   7.002   5.079 -0.2274 -0.1162 -0.5839
   66MOL0     C 9005   5.845   6.990   4.972  0.1607 -0.2448 -0.7183
   66MOL0     O 9006   5.922   6.878   4.978 -0.2495  0.2009  0.5304
   66MOL0     C 9007   6.054   6.887   4.936 -0.2524 -1.1891 -0.0161
   66MOL0     C 9008   6.138   6.767   4.969  0.2648 -1.2282  0.7914
   66MOL0     C 9009   6.093   6.638   4.890 -0.2329  0.4021 -0.0490
   66MOL0     C 9010   6.156   6.509   4.947 -0.8846  0.1224 -1.0824
   66MOL0     C 9011   6.171   6.395   4.846 -0.9575 -0.9028  0.8208
   66MOL0     C 9012   6.242   6.277   4.905  0.5818 -0.2228 -0.8584
   66MOL0     C 9013   6.181   6.199   5.022 -0.5618 -0.7808  0.1684
   66MOL0     C 9014   6.033   6.168   5.000 -0.4231 -0.2879 -0.5972
   66MOL0    Cl 9015   5.953   6.064   5.119  0.0985 -0.5505  0.6088
   66MOL0     C 9016   5.830   7.079   4.860  0.3575 -0.2093  0.3261
   66MOL0     C 9017   5.738   7.185   4.864 -0.3071 -0.1398 -0.3999
   66MOL0     O 9018   5.750   7.458   4.935 -0.0948  0.1393 -0.5061
   66MOL0     C 9019   5.398   7.541   5.008  0.7263  0.3282  0.3273
   66MOL0     C 9020   5.301   7.638   4.992 -0.6735 -0.6075 -0.1756
   66MOL0     N 9021   4.718   7.618   5.053 -0.3337  0.2491  0.6438
   66MOL0     N 9022   4.732   7.501   5.109 -0.3855  0.3335 -0.2473
   66MOL0     C 9023   4.616   6.602   5.631 -0.2014 -1.4374  0.1330
   66MOL0     C 9024   4.555   6.588   5.754  0.0392  1.1866 -0.3650
   66MOL0     C 9025   4.333   6.740   6.128  0.1853 -0.3963 -0.0328
   66MOL0     C 9026   4.305   6.607   6.165  0.4187 -1.6912  0.9021
   66MOL0     C 9027   4.216   6.579   6.273 -0.4741  0.3008 -0.5236
   66MOL0     C 9028   4.144   6.676   6.343  0.3983  0.2888 -0.0036
   66MOL0     O 9029   4.061   6.664   6.452 -0.8765  0.8338  0.5781
   66MOL0     C 9030   4.045   6.533   6.517 -0.1444  0.5201  0.6072
   66MOL0     C 9031   4.048   6.562   6.668  0.6473 -0.2642 -0.0874
   66MOL0     C 9032   4.018   6.434   6.746 -0.4783  0.0640 -0.9681
   66MOL0     C 9033   4.022   6.428   6.895 -0.6738 -1.0029  0.9157
   66MOL0     C 9034   3.974   6.299   6.936  0.2797 -1.1956 -0.4139
   66MOL0     C 9035   3.917   6.198   6.975  0.1355 -1.5271 -0.2908
   66MOL0     C 9036   4.175   6.811   6.305  0.3279  0.4085  0.4807
   66MOL0     C 9037   4.274   6.847   6.199  1.1867 -0.2155 -0.0658
   66MOL0     C 9038   4.296   6.997   6.164 -0.9581 -0.1794  0.1923
   66MOL0     H 9039   4.406   6.887   5.773  0.2903  0.4838  0.3275
   66MOL0     H 9040   4.513   6.915   5.541 -0.1454  0.2123  0.4411
   66MOL0     H 9041   4.829   6.611   5.397 -0.0369 -0.3472 -1.6671
   66MOL0     H 9042   4.847   6.744   5.519 -1.4456 -3.8889  2.0011
   66MOL0     H 9043   4.817   6.908   5.329 -2.1426  0.0635 -0.5002
   66MOL0     H 9044   4.950   6.789   5.303  0.6155 -0.4273  1.2427
   66MOL0     H 9045   4.851   6.765   5.087  0.7830  0.3460  0.2794
   66MOL0     H 9046   4.755   6.652   5.183 -0.2910  1.0947  1.2809
   66MOL0     H 9047   4.589   6.747   5.084  1.4325 -0.2969 -1.0114
   66MOL0     H 9048   4.603   6.877   5.208  1.6513  0.7821  0.4062
   66MOL0     H 9049   4.592   6.974   4.981  2.5474  4.8453 -0.7023
   66MOL0     H 9050   4.747   6.888   4.937  1.2116 -1.0215  1.3251
   66MOL0     H 9051   4.738   7.052   5.193  0.4608 -1.8656 -0.3230
   66MOL0     H 9052   4.861   7.027   5.072 -1.2082  0.3848 -0.9669
   66MOL0     H 9053   4.633   7.230   5.065 -0.4433 -0.4481 -2.6186
   66MOL0     H 9054   4.724   7.179   4.918 -1.3239  4.6946 -0.3033
   66MOL0     H 9055   4.869   7.251   5.167 -2.4442 -1.9429 -0.9949
   66MOL0     H 9056   4.927   7.257   5.008  1.2893  3.7585  0.7551
   66MOL0     H 9057   4.916   7.452   4.852 -0.0060 -0.0756 -0.6474
   66MOL0     H 9058   4.728   7.740   4.775 -0.4876  0.6943  1.4417
   66MOL0     H 9059   4.890   7.706   4.759 -1.4587 -0.6904 -1.2534
   66MOL0     H 9060   4.846   7.947   4.853  0.1839  1.4081  1.3729
   66MOL0     H 9061   4.787   7.862   4.997  1.2684 -0.6140  1.4712
   66MOL0     H 9062   5.006   7.936   5.020  1.1231  0.4484 -1.0887
   66MOL0     H 9063   4.983   7.772   5.059  0.7371  3.6272  2.0899
   66MOL0     H 9064   5.100   7.727   4.807  1.3228 -0.8881  1.2605
   66MOL0     H 9065   5.092   7.883   4.785  1.7945  0.9222  0.3543
   66MOL0     H 9066   5.465   7.863   4.808  0.8599  1.2359  1.7591
   66MOL0     H 9067   5.761   7.694   4.870 -1.1222 -2.4912  0.2964
   66MOL0     H 9068   5.682   7.782   4.741 -0.1944  0.7531  1.0651
   66MOL0     H 9069   5.710   7.609   4.721  1.7477  0.3154  0.1782
   66MOL0     H 9070   5.620   7.126   5.183  2.6476 -0.9523  1.0329
   66MOL0     H 9071   5.767   6.940   5.167 -0.6840  2.6754  1.6090
   66MOL0     H 9072   6.051   6.900   4.827  1.8107  0.6548  0.0839
   66MOL0     H 9073   6.114   6.971   4.973  1.8958 -1.3300 -2.7940
   66MOL0     H 9074   6.243   6.789   4.947  0.3655 -4.3821 -3.1124
   66MOL0     H 9075   6.125   6.744   5.075  0.5508 -3.0192  0.4746
   66MOL0     H 9076   6.127   6.647   4.786  1.3638 -0.6771  0.3378
   66MOL0     H 9077   5.986   6.619   4.900 -0.1269  0.4627  1.3056
   66MOL0     H 9078   6.105   6.490   5.042 -2.4833  3.7160 -1.0444
   66MOL0     H 9079   6.259   6.539   4.966 -1.3204  2.9879 -2.6318
   66MOL0     H 9080   6.071   6.372   4.809 -1.6458  1.7051  0.8783
   66MOL0     H 9081   6.239   6.425   4.765 -2.4108  0.8079  0.1746
   66MOL0     H 9082   6.348   6.292   4.929  0.7314  1.4976 -2.3915
   66MOL0     H 9083   6.247   6.199   4.827  0.9299 -0.7772 -0.2946
   66MOL0     H 9084   6.177   6.255   5.116 -3.1959 -0.5451 -0.0093
   66MOL0     H 9085   6.241   6.109   5.040 -1.2695 -0.7246  3.4572
   66MOL0     H 9086   6.009   6.119   4.905 -3.6844 -2.6507  1.2472
   66MOL0     H 9087   5.977   6.262   5.002  1.6003  0.9649 -0.6179
   66MOL0     H 9088   5.884   7.059   4.767 -1.1331  0.9744 -0.8484
   66MOL0     H 9089   5.751   7.258   4.784  0.5763  0.2215  0.0615
   66MOL0     H 9090   5.389   7.446   5.061 -0.3391 -1.0757 -2.1888
   66MOL0     H 9091   5.212   7.633   5.053  1.0599  0.0537  2.6044
   66MOL0     H 9092   4.679   6.529   5.582 -1.8278 -0.2784 -4.2478
   66MOL0     H 9093   4.580   6.497   5.807 -2.1653  0.8539  0.1897
   66MOL0     H 9094   4.347   6.533   6.099 -0.2276  1.4750 -3.5099
   66MOL0     H 9095   4.202   6.471   6.274  4.4242 -0.5570 -1.0810
   66MOL0     H 9096   3.948   6.485   6.503 -0.2804  0.1255  2.5667
   66MOL0     H 9097   4.126   6.466   6.488  1.1633  2.9941 -2.0080
   66MOL0     H 9098   3.971   6.636   6.691 -0.2954 -1.3201  0.2072
   66MOL0     H 9099   4.146   6.601   6.698  0.2323 -2.0299  4.1461
   66MOL0     H 9100   3.915   6.412   6.717 -0.9242 -0.3055  0.7328
   66MOL0     H 9101   4.088   6.353   6.721  1.4157 -0.6112  4.9120
   66MOL0     H 9102   3.959   6.510   6.930  0.8028  0.7743 -0.4144
   66MOL0     H 9103   4.125   6.451   6.923  0.3854 -2.2347 -1.6891
   66MOL0     H 9104   3.865   6.109   7.006  0.0925 -2.0661 -1.7996
   66MOL0     H 9105   4.135   6.888   6.371 -0.4822 -0.9710  1.6437
   66MOL0     H 9106   4.385   7.031   6.216  1.1247 -0.0092 -3.1538
   66MOL0     H 9107   4.318   7.024   6.060  0.8174  0.8609  0.8000
   66MOL0     H 9108   4.204   7.043   6.202 -0.2908 -1.7645  4.2057
   67MOL0     O 9109   2.686   8.030   1.626 -0.3156 -0.4947 -0.3586
   67MOL0     C 9110   2.778   8.016   1.709  1.1666 -0.0974  0.3187
   67MOL0     O 9111   2.845   7.901   1.735  0.4085 -0.0273 -0.1415
   67MOL0     C 9112   2.843   7.785   1.657 -0.8082 -0.7529 -0.2089
   67MOL0     C 9113   2.724   7.729   1.598 -0.1378  0.1635  0.1012
   67MOL0     C 9114   2.714   7.592   1.564 -0.4016 -0.0348  1.2068
   67MOL0     C 9115   2.824   7.501   1.582  0.4013 -0.2616 -0.4806
   67MOL0     O 9116   2.817   7.362   1.565 -0.3125 -0.2875  1.1294
   67MOL0     C 9117   2.711   7.305   1.493  0.3944  0.2222 -0.6333
   67MOL0     C 9118   2.724   7.157   1.510  0.3404  0.3862 -0.5678
   67MOL0     C 9119   2.583   7.096   1.495 -0.0130 -0.3875 -0.2798
   67MOL0     C 9120   2.570   6.953   1.544  0.4549  0.3492  0.1653
   67MOL0     C 9121   2.549   6.944   1.685 -0.4037 -0.2625 -0.7951
   67MOL0     C 9122   2.589   6.809   1.758  0.2043  0.6469  0.0094
   67MOL0     C 9123   2.736   6.778   1.728 -0.3163 -0.7437  0.3854
   67MOL0     C 9124   2.793   6.675   1.828 -0.2929  0.3157  0.2111
   67MOL0     N 9125   2.917   6.604   1.803  0.1301  0.0828 -0.1558
   67MOL0     C 9126   2.963   6.499   1.877  0.0144 -0.3850 -0.0196
   67MOL0     C 9127   3.081   6.475   1.815  0.1786 -1.0000  0.0323
   67MOL0     C 9128   3.180   6.383   1.872 -0.1219  0.3750 -0.7447
   67MOL0     C 9129   3.311   6.358   1.796  0.6623  0.2426  0.1156
   67MOL0     C 9130   3.309   6.302   1.652 -0.2289  0.5059  0.0849
   67MOL0     C 9131   3.263   6.150   1.650 -0.1652 -0.1846  0.5150
   67MOL0     O 9132   3.353   6.066   1.728 -0.8070  0.3848 -0.3523
   67MOL0     C 9133   3.323   5.949   1.778  0.6688  0.5163 -0.9408
   67MOL0     C 9134   3.423   5.867   1.835  0.4676 -0.3412 -0.1127
   67MOL0     C 9135   3.408   5.738   1.883  0.7829  0.4292  1.8954
   67MOL0     C 9136   3.539   5.658   1.918  0.7213 -0.1811  0.4999
   67MOL0     C 9137   3.275   5.685   1.890  0.7083  0.5202 -0.3796
   67MOL0     C 9138   3.238   5.546   1.940 -0.3127 -0.4593  0.3155
   67MOL0     O 9139   3.110   5.502   1.927 -0.5972 -0.0903 -0.0007
   67MOL0     C 9140   3.092   5.376   1.971  0.0695 -0.3149  0.1149
   67MOL0     C 9141   3.098   5.266   1.879  0.8693  0.2052  0.0508
   67MOL0     C 9142   3.072   5.135   1.925  0.3475  0.6057 -0.7072
   67MOL0     C 9143   3.040   5.110   2.064  0.7704  0.5770  0.1829
   67MOL0     O 9144   2.994   4.994   2.122  0.7955 -0.0532 -0.3799
   67MOL0     C 9145   2.980   4.881   2.032 -0.2555 -1.1037 -0.1564
   67MOL0     C 9146   2.949   4.758   2.113  0.3269  0.4797 -0.2990
   67MOL0     C 9147   2.922   4.650   2.011 -0.0335 -0.6868  0.9850
   67MOL0     C 9148   2.831   4.531   2.056 -0.7052  0.7966 -1.5233
   67MOL0     C 9149   2.808   4.430   1.947 -1.1711 -0.1896  0.2295
   67MOL0     C 9150   2.720   4.477   1.824  0.8323  0.4635  0.5935
   67MOL0     C 9151   2.661   4.377   1.719 -0.6722  0.1012 -0.9001
   67MOL0     C 9152   2.558   4.282   1.779 -0.0172  0.3567 -0.0757
   67MOL0    Cl 9153   2.436   4.379   1.851  0.2894  0.1627 -0.1479
   67MOL0     C 9154   3.042   5.224   2.142  0.1433  0.8466  0.4007
   67MOL0     C 9155   3.065   5.354   2.101 -1.0665 -0.1136 -0.0616
   67MOL0     O 9156   3.326   5.483   2.002 -0.0871 -0.3100  0.6658
   67MOL0     C 9157   3.168   5.770   1.849 -0.4681 -0.4085 -0.0804
   67MOL0     C 9158   3.199   5.892   1.781 -0.3474 -0.4621  0.1764
   67MOL0     N 9159   3.109   6.566   1.717 -0.1482 -0.2283  0.7007
   67MOL0     N 9160   3.009   6.639   1.716  0.2644  0.1635  0.5557
   67MOL0     C 9161   2.943   7.563   1.632 -0.0188  0.5559  0.3720
   67MOL0     C 9162   2.950   7.699   1.664  0.1277 -0.2547 -0.3324
   67MOL0     C 9163   2.811   8.134   1.792 -0.6486  0.1841 -0.4015
   67MOL0     C 9164   2.943   8.136   1.837 -0.4277 -0.0917  1.1167
   67MOL0     C 9165   3.000   8.248   1.891 -0.3808  0.0762  0.2698
   67MOL0     C 9166   2.912   8.362   1.916 -0.1625 -0.7887 -0.4075
   67MOL0     O 9167   2.947   8.481   1.980 -0.5975  0.3815  0.0931
   67MOL0     C 9168   3.085   8.519   1.983  0.7369 -0.8070  0.7402
   67MOL0     C 9169   3.164   8.503   2.125  0.0342  0.2545  0.3881
   67MOL0     C 9170   3.293   8.588   2.122 -0.5178 -0.0226  0.5357
   67MOL0     C 9171   3.277   8.738   2.112  1.1364  0.6782  0.1329
   67MOL0     C 9172   3.405   8.805   2.129 -0.2402  0.3376  0.3465
   67MOL0     C 9173   3.514   8.859   2.135 -0.8676 -0.2798  0.5114
   67MOL0     C 9174   2.775   8.356   1.880  0.7785  0.7389 -0.3121
   67MOL0     C 9175   2.718   8.242   1.825  0.1130  0.1093 -0.3904
   67MOL0     C 9176   2.574   8.245   1.808  1.0459 -0.0491  0.4939
   67MOL0     H 9177   2.639   7.794   1.582  0.4399  0.5238 -1.6157
   67MOL0     H 9178   2.622   7.561   1.515  1.1024 -0.7033 -1.3736
   67MOL0     H 9179   2.718   7.318   1.385  2.4543  2.4082 -0.3225
   67MOL0     H 9180   2.617   7.346   1.530  1.8670  2.2290  1.1544
   67MOL0     H 9181   2.792   7.108   1.440 -1.4382 -1.5715 -1.0406
   67MOL0     H 9182   2.765   7.136   1.609 -1.4709  1.7740  0.5369
   67MOL0     H 9183   2.501   7.142   1.551  0.9999  0.3613  0.6372
   67MOL0     H 9184   2.559   7.095   1.388  0.1296 -0.6411 -0.3097
   67MOL0     H 9185   2.473   6.921   1.505  0.7299  0.4405 -0.6203
   67MOL0     H 9186   2.647   6.884   1.508 -3.3570 -2.5521 -3.3205
   67MOL0     H 9187   2.442   6.953   1.710 -0.3042 -3.6531  1.4769
   67MOL0     H 9188   2.605   7.025   1.732  2.0134 -1.1936 -1.9421
   67MOL0     H 9189   2.578   6.819   1.866  1.5641  0.6898  0.1691
   67MOL0     H 9190   2.526   6.726   1.726 -0.4630 -0.2486  3.2362
   67MOL0     H 9191   2.791   6.872   1.736 -2.5283  0.5652  1.3357
   67MOL0     H 9192   2.758   6.729   1.633  1.2775 -2.1216  1.4086
   67MOL0     H 9193   2.802   6.724   1.925 -1.4707  2.1554 -0.5560
   67MOL0     H 9194   2.715   6.599   1.839  0.0163 -0.0385 -0.0394
   67MOL0     H 9195   2.918   6.448   1.962 -1.9295 -1.5549 -1.6727
   67MOL0     H 9196   3.130   6.286   1.883  1.4399 -0.5021 -1.0767
   67MOL0     H 9197   3.215   6.422   1.968 -0.1899 -1.8062  0.2129
   67MOL0     H 9198   3.368   6.451   1.785  0.5472  0.6272  2.3729
   67MOL0     H 9199   3.373   6.288   1.852 -1.7657 -1.3699  0.9549
   67MOL0     H 9200   3.256   6.373   1.588  0.0983  0.2298 -0.5024
   67MOL0     H 9201   3.414   6.306   1.621 -0.6314 -0.0092 -1.4061
   67MOL0     H 9202   3.158   6.147   1.682 -0.9933 -1.8128 -2.0560
   67MOL0     H 9203   3.284   6.118   1.548  0.8651  1.2547  0.2555
   67MOL0     H 9204   3.522   5.911   1.847  0.4821 -0.8944  2.3382
   67MOL0     H 9205   3.632   5.705   1.883 -0.6328  2.5232  0.3256
   67MOL0     H 9206   3.537   5.558   1.873  0.7111  0.8746 -2.0408
   67MOL0     H 9207   3.550   5.654   2.026 -0.5547 -3.2943  0.6152
   67MOL0     H 9208   3.132   5.285   1.778 -0.7299 -2.7820 -1.1558
   67MOL0     H 9209   3.068   5.052   1.855 -0.7849  0.3066 -0.3137
   67MOL0     H 9210   2.920   4.904   1.944 -0.1888  1.7436  0.4148
   67MOL0     H 9211   3.080   4.855   1.996  2.3560  2.3509  3.5838
   67MOL0     H 9212   3.035   4.734   2.176 -1.1387  0.5935  1.8151
   67MOL0     H 9213   2.861   4.781   2.173  1.6860  0.0652  1.9575
   67MOL0     H 9214   3.017   4.609   1.974 -1.5835 -3.3048 -0.3502
   67MOL0     H 9215   2.883   4.692   1.918  3.9567  4.8681  1.2801
   67MOL0     H 9216   2.734   4.561   2.095 -0.6901 -1.1614  0.2009
   67MOL0     H 9217   2.880   4.473   2.135 -1.0722  2.1044 -0.3018
   67MOL0     H 9218   2.899   4.387   1.905 -2.0528 -2.4792  0.5014
   67MOL0     H 9219   2.754   4.341   1.982  0.9656 -2.2002 -1.3163
   67MOL0     H 9220   2.774   4.557   1.775 -1.0388  1.9539  0.8351
   67MOL0     H 9221   2.629   4.527   1.860 -0.5688 -2.7442  1.9003
   67MOL0     H 9222   2.740   4.316   1.675  2.2527  1.3453  2.2725
   67MOL0     H 9223   2.619   4.437   1.636  0.7269  1.2320 -0.8360
   67MOL0     H 9224   2.601   4.221   1.859 -1.9035 -3.0193 -1.3782
   67MOL0     H 9225   2.525   4.213   1.701  0.4616  0.4189 -0.3401
   67MOL0     H 9226   3.023   5.205   2.247  1.4667 -1.5862  0.2832
   67MOL0     H 9227   3.082   5.432   2.174 -3.0197  0.2095  0.0857
   67MOL0     H 9228   3.065   5.739   1.836 -1.5011  2.9943 -1.1197
   67MOL0     H 9229   3.114   5.944   1.737 -1.1587 -0.4389  1.7161
   67MOL0     H 9230   3.030   7.506   1.662  0.7039 -0.0802 -2.6147
   67MOL0     H 9231   3.035   7.741   1.717  1.2214  1.2341 -3.0769
   67MOL0     H 9232   3.009   8.056   1.802  0.4088  2.1599 -3.2335
   67MOL0     H 9233   3.104   8.234   1.916 -0.2367 -3.2685 -1.6420
   67MOL0     H 9234   3.145   8.458   1.915 -0.9880 -0.5128 -1.1293
   67MOL0     H 9235   3.086   8.621   1.944  2.1964 -0.4374  1.6534
   67MOL0     H 9236   3.179   8.397   2.150  2.5674  0.9576  2.1574
   67MOL0     H 9237   3.087   8.535   2.197 -2.2947 -3.6039 -0.0513
   67MOL0     H 9238   3.359   8.573   2.208  3.0475  1.0806 -1.7772
   67MOL0     H 9239   3.346   8.548   2.035 -3.1294 -0.3783 -1.0019
   67MOL0     H 9240   3.200   8.783   2.176 -0.0194 -0.6698 -0.2672
   67MOL0     H 9241   3.234   8.761   2.014 -2.9054 -0.5212  1.3973
   67MOL0     H 9242   3.601   8.917   2.160 -3.4476  4.2397  0.2022
   67MOL0     H 9243   2.708   8.437   1.908 -2.7801 -1.3311 -2.1293
   67MOL0     H 9244   2.532   8.333   1.856 -0.4487  0.8337 -2.2181
   67MOL0     H 9245   2.538   8.262   1.706 -0.7153 -1.6562  0.7849
   67MOL0     H 9246   2.537   8.156   1.860  0.1533  2.0466  3.7574
   68MOL0     O 9247   9.570   5.953  10.460 -0.6986 -0.4541 -0.3238
   68MOL0     C 9248   9.455   5.963  10.416  0.3286  0.5029  0.6821
   68MOL0     O 9249   9.338   5.953  10.490 -0.4434  0.0740  0.1528
   68MOL0     C 9250   9.349   5.923  10.629  0.6327  1.0659 -0.1904
   68MOL0     C 9251   9.354   5.786  10.676  0.2684  0.3074 -0.1589
   68MOL0     C 9252   9.376   5.773  10.816 -0.1583 -0.2950 -0.3132
   68MOL0     C 9253   9.391   5.871  10.913  1.2015  0.4706 -0.4898
   68MOL0     O 9254   9.409   5.810  11.036  0.0663 -0.0149  0.9918
   68MOL0     C 9255   9.328   5.872  11.147 -0.6574 -0.0477  0.2733
   68MOL0     C 9256   9.193   5.804  11.170 -0.5055  0.4499 -0.2606
   68MOL0     C 9257   9.120   5.862  11.291 -0.7483  0.0926 -0.3392
   68MOL0     C 9258   8.975   5.814  11.295 -0.3709 -0.1149 -0.3441
   68MOL0     C 9259   8.900   5.897  11.401 -0.2043 -0.2495  0.5116
   68MOL0     C 9260   8.924   5.868  11.547  0.3731  0.1870 -0.2313
   68MOL0     C 9261   8.839   5.734  11.581 -0.1488 -0.0440 -0.1903
   68MOL0     C 9262   8.862   5.683  11.721  0.3236  0.1803 -0.0089
   68MOL0     N 9263   8.812   5.782  11.823  0.7582 -0.5070 -1.2871
   68MOL0     C 9264   8.693   5.851  11.826 -0.3473 -0.4202  0.0801
   68MOL0     C 9265   8.686   5.914  11.945  0.0068  0.5339 -0.8030
   68MOL0     C 9266   8.587   6.015  12.003  0.2427 -0.6632 -0.2045
   68MOL0     C 9267   8.595   6.044  12.160 -0.5655  0.6972  0.6613
   68MOL0     C 9268   8.459   6.105  12.204 -0.2489 -0.1365  0.1972
   68MOL0     C 9269   8.459   6.162  12.347  0.2402 -0.3923 -0.3705
   68MOL0     O 9270   8.374   6.275  12.348 -0.1793 -0.7790  0.1550
   68MOL0     C 9271   8.381   6.368  12.450 -0.4603 -0.7530  0.2650
   68MOL0     C 9272   8.447   6.353  12.570  0.0658 -0.0128 -0.4338
   68MOL0     C 9273   8.433   6.453  12.664 -0.2094 -1.9456  0.0168
   68MOL0     C 9274   8.517   6.431  12.784  0.0373 -0.1762 -0.2477
   68MOL0     C 9275   8.344   6.561  12.645 -0.5833  0.1764 -0.7816
   68MOL0     C 9276   8.319   6.658  12.751  0.3760  0.4658 -0.7446
   68MOL0     O 9277   8.430   6.725  12.807  0.4704  0.2968 -0.3477
   68MOL0     C 9278   8.447   6.779  12.930  0.6973  0.0067 -0.1637
   68MOL0     C 9279   8.566   6.843  12.953 -0.0708  0.2972  0.1941
   68MOL0     C 9280   8.587   6.914  13.069 -0.6368  0.8244 -0.3843
   68MOL0     C 9281   8.487   6.947  13.158 -0.8227 -0.2532  0.0666
   68MOL0     O 9282   8.513   7.041  13.251 -0.2467  0.5673  0.0591
   68MOL0     C 9283   8.411   7.059  13.352 -0.5668 -0.0285 -0.3973
   68MOL0     C 9284   8.472   7.126  13.478 -0.4112  0.8404  0.7315
   68MOL0     C 9285   8.533   7.270  13.449 -0.4337  0.0899 -0.8583
   68MOL0     C 9286   8.444   7.381  13.386 -0.8449  0.0503 -1.4448
   68MOL0     C 9287   8.487   7.447  13.260  0.6472 -0.2854  0.2086
   68MOL0     C 9288   8.449   7.403  13.123 -0.6610  0.3500 -0.8863
   68MOL0     C 9289   8.489   7.508  13.014 -0.3249 -0.5652 -0.2936
   68MOL0     C 9290   8.422   7.486  12.879  1.2218  0.6109  0.0888
   68MOL0    Cl 9291   8.250   7.440  12.896 -0.0783 -0.0696  0.3176
   68MOL0     C 9292   8.367   6.877  13.141 -0.0776 -0.2510  0.0382
   68MOL0     C 9293   8.350   6.782  13.034 -0.0991 -0.9204 -0.1881
   68MOL0     O 9294   8.202   6.676  12.788 -0.7343 -0.2891 -0.1798
   68MOL0     C 9295   8.272   6.577  12.523 -0.4587 -0.3903  0.2339
   68MOL0     C 9296   8.294   6.474  12.427  0.1949  0.8855 -0.1610
   68MOL0     N 9297   8.794   5.872  12.019 -0.4978  0.5131 -0.4465
   68MOL0     N 9298   8.866   5.796  11.949  0.1004 -0.2303  0.0250
   68MOL0     C 9299   9.386   6.001  10.868 -0.0875 -0.7083  0.6491
   68MOL0     C 9300   9.364   6.032  10.731 -0.4535 -0.2855  0.0219
   68MOL0     C 9301   9.421   5.958  10.270 -0.2043 -0.0904 -0.6244
   68MOL0     C 9302   9.291   5.984  10.230 -0.1435  0.0776 -0.4595
   68MOL0     C 9303   9.262   5.996  10.106 -0.0894 -0.5397  0.1071
   68MOL0     C 9304   9.337   5.962  10.000 -0.0245  0.5447  0.2323
   68MOL0     O 9305   9.298   5.964   9.867  0.4663  0.2300 -0.6982
   68MOL0     C 9306   9.159   5.917   9.848 -0.0427 -0.1579  0.4163
   68MOL0     C 9307   9.159   5.766   9.864  0.2427 -0.1545 -0.4098
   68MOL0     C 9308   9.014   5.714   9.871 -0.6346  0.2366  0.4378
   68MOL0     C 9309   8.992   5.565   9.896  0.3867  0.0479  0.0525
   68MOL0     C 9310   8.846   5.535   9.860  0.8554  1.1503  0.5326
   68MOL0     C 9311   8.731   5.533   9.829 -0.5715 -0.6340 -0.1094
   68MOL0     C 9312   9.469   5.911  10.033 -0.1269  0.6638  0.9350
   68MOL0     C 9313   9.510   5.906  10.171  0.8718  1.0496 -0.9617
   68MOL0     C 9314   9.655   5.870  10.195  0.9708 -0.0152  0.8725
   68MOL0     H 9315   9.365   5.708  10.601 -1.7233  1.4511 -1.7468
   68MOL0     H 9316   9.384   5.668  10.841  1.2130 -1.3237 -4.2838
   68MOL0     H 9317   9.333   5.978  11.122  1.7873 -0.3160 -0.6756
   68MOL0     H 9318   9.384   5.850  11.238 -1.4608 -3.1591  0.1313
   68MOL0     H 9319   9.134   5.805  11.077 -2.3359 -2.5834  0.7176
   68MOL0     H 9320   9.229   5.702  11.186  0.2214  0.7051 -0.2492
   68MOL0     H 9321   9.166   5.832  11.386 -2.9959  0.6887  1.0359
   68MOL0     H 9322   9.113   5.971  11.282  0.2925  0.4045  1.9705
   68MOL0     H 9323   8.940   5.832  11.193 -0.5851 -0.1749 -0.2795
   68MOL0     H 9324   8.969   5.706  11.310 -1.1966  0.0107  0.2754
   68MOL0     H 9325   8.795   5.880  11.379 -0.6457 -1.5185  3.1652
   68MOL0     H 9326   8.912   6.004  11.381 -2.2365 -0.6360 -3.8258
   68MOL0     H 9327   9.029   5.854  11.576 -0.2128  1.7053  3.0417
   68MOL0     H 9328   8.887   5.956  11.601 -1.8801 -2.8601  3.6924
   68MOL0     H 9329   8.846   5.663  11.499 -1.1290  1.6993 -1.8668
   68MOL0     H 9330   8.735   5.760  11.557  1.1365  4.7270 -1.5913
   68MOL0     H 9331   8.808   5.594  11.754  1.0746  0.1103  1.0920
   68MOL0     H 9332   8.971   5.678  11.730  0.4923  2.9264  0.2799
   68MOL0     H 9333   8.628   5.868  11.741  0.2240 -1.9412 -0.6848
   68MOL0     H 9334   8.484   5.981  11.988 -0.9082  3.4310 -3.7744
   68MOL0     H 9335   8.602   6.104  11.941  0.6284 -3.6449 -4.8897
   68MOL0     H 9336   8.609   5.947  12.208  4.6166  0.6559 -0.3325
   68MOL0     H 9337   8.680   6.110  12.185  1.3389 -1.5655  0.4772
   68MOL0     H 9338   8.435   6.186  12.135 -2.8277 -2.2740 -1.6522
   68MOL0     H 9339   8.384   6.025  12.196  0.8364 -0.9976 -3.2340
   68MOL0     H 9340   8.420   6.085  12.414 -3.5573  1.1172 -0.5977
   68MOL0     H 9341   8.565   6.180  12.369  0.7475 -0.8927 -2.2192
   68MOL0     H 9342   8.525   6.278  12.577 -0.0508 -0.0035  1.6895
   68MOL0     H 9343   8.587   6.513  12.801  0.0720  0.5122 -3.1360
   68MOL0     H 9344   8.553   6.329  12.764  2.8011  0.4705  0.9931
   68MOL0     H 9345   8.453   6.424  12.872 -0.4255 -0.2631 -0.5877
   68MOL0     H 9346   8.647   6.832  12.882 -0.7080 -1.5194 -0.3012
   68MOL0     H 9347   8.687   6.948  13.095 -0.2212 -2.1906  2.6944
   68MOL0     H 9348   8.321   7.108  13.311 -1.8628 -3.2791 -1.7631
   68MOL0     H 9349   8.375   6.965  13.393 -0.8578 -0.6979 -2.1004
   68MOL0     H 9350   8.393   7.136  13.553 -1.7637 -0.6746 -0.4204
   68MOL0     H 9351   8.543   7.058  13.525  3.4187  1.2328 -3.7902
   68MOL0     H 9352   8.612   7.249  13.376  1.4524 -0.4984  1.2617
   68MOL0     H 9353   8.583   7.298  13.542 -0.7639  0.0637 -0.6729
   68MOL0     H 9354   8.437   7.456  13.466 -0.2489 -1.6236  0.2299
   68MOL0     H 9355   8.341   7.342  13.387  0.4031 -4.0652  2.8684
   68MOL0     H 9356   8.444   7.547  13.271 -1.7032 -0.8754 -2.4610
   68MOL0     H 9357   8.596   7.455  13.273  0.4071  1.4557  1.5127
   68MOL0     H 9358   8.344   7.373  13.123 -0.6569  0.2945 -2.0485
   68MOL0     H 9359   8.508   7.312  13.114 -0.3049  0.6690 -1.9821
   68MOL0     H 9360   8.597   7.523  13.006 -0.0585  0.7224  3.5025
   68MOL0     H 9361   8.453   7.605  13.051 -2.6958 -1.5231  0.1100
   68MOL0     H 9362   8.471   7.400  12.833 -2.5784 -2.2617  0.9060
   68MOL0     H 9363   8.420   7.574  12.814 -1.9413 -1.0188 -2.2961
   68MOL0     H 9364   8.291   6.914  13.209 -2.5854 -0.6384 -2.3633
   68MOL0     H 9365   8.254   6.731  13.033 -2.7350  3.4555  1.1147
   68MOL0     H 9366   8.217   6.663  12.487 -0.0799  0.2047  1.0358
   68MOL0     H 9367   8.234   6.454  12.339 -0.3863  0.1521  0.3844
   68MOL0     H 9368   9.398   6.090  10.928  1.3745  1.0301 -2.0241
   68MOL0     H 9369   9.357   6.139  10.717  2.2630 -0.2320 -1.6343
   68MOL0     H 9370   9.219   6.021  10.302  0.3115 -0.1290  0.1124
   68MOL0     H 9371   9.161   6.031  10.089  0.8020  0.3702 -4.9381
   68MOL0     H 9372   9.083   5.964   9.910 -2.2936 -0.7829 -1.7322
   68MOL0     H 9373   9.118   5.952   9.753  0.5765 -3.9813 -1.4724
   68MOL0     H 9374   9.211   5.742   9.957 -2.0325  2.2615  1.6096
   68MOL0     H 9375   9.203   5.718   9.776 -0.5355 -1.6964  0.0170
   68MOL0     H 9376   8.964   5.781   9.942  0.8829  0.3101  1.4956
   68MOL0     H 9377   8.981   5.744   9.771 -3.8146 -1.0968  0.9738
   68MOL0     H 9378   9.013   5.542  10.001  1.0740  2.6379  0.5461
   68MOL0     H 9379   9.067   5.510   9.838  1.0927  0.4044  0.6017
   68MOL0     H 9380   8.627   5.512   9.810 -0.8275 -2.0966  2.4684
   68MOL0     H 9381   9.524   5.866   9.951  0.3262 -2.5326  2.8109
   68MOL0     H 9382   9.666   5.783  10.261  1.3067 -1.8051 -1.3741
   68MOL0     H 9383   9.704   5.844  10.100  0.2759  0.2842  0.4227
   68MOL0     H 9384   9.714   5.945  10.248  1.1564  2.4959 -2.5784
   69MOL0     O 9385   7.544   5.819   0.665  0.1472  0.3448 -0.4697
   69MOL0     C 9386   7.607   5.885   0.750 -0.2259  0.5076 -0.5109
   69MOL0     O 9387   7.679   6.002   0.726  0.3801 -0.2012 -0.5374
   69MOL0     C 9388   7.692   6.042   0.590 -0.1305  0.9641  0.4251
   69MOL0     C 9389   7.796   6.012   0.505 -0.4256 -0.1590  0.0756
   69MOL0     C 9390   7.797   6.035   0.365  0.5663 -0.6867  0.3912
   69MOL0     C 9391   7.686   6.103   0.307  0.1275  0.2038 -0.1498
   69MOL0     O 9392   7.676   6.153   0.183 -0.0918  0.2844  0.3136
   69MOL0     C 9393   7.743   6.082   0.081  0.5024 -0.6567  0.4917
   69MOL0     C 9394   7.665   6.099  -0.057 -1.1144 -0.4579 -0.6658
   69MOL0     C 9395   7.756   6.075  -0.180 -0.2560 -0.8537  0.5318
   69MOL0     C 9396   7.709   6.149  -0.303  0.0263 -0.5288  0.4580
   69MOL0     C 9397   7.724   6.298  -0.309 -1.0387 -0.7198  1.3203
   69MOL0     C 9398   7.733   6.347  -0.458  0.1552 -0.4253  0.0751
   69MOL0     C 9399   7.697   6.496  -0.466 -0.1413  0.0734  0.0868
   69MOL0     C 9400   7.800   6.583  -0.389  0.4926 -0.7990 -0.2244
   69MOL0     N 9401   7.778   6.731  -0.421  0.7238  0.1971  0.1913
   69MOL0     C 9402   7.855   6.810  -0.505 -0.1706 -0.7568  0.9372
   69MOL0     C 9403   7.766   6.915  -0.533  0.3987 -0.8356  0.5026
   69MOL0     C 9404   7.781   7.019  -0.637 -0.0797 -0.8705  0.3204
   69MOL0     C 9405   7.654   7.109  -0.639  0.1874 -0.1814 -0.2883
   69MOL0     C 9406   7.656   7.213  -0.752  0.1371  0.2033  0.2735
   69MOL0     C 9407   7.716   7.354  -0.720 -0.0278 -0.3831  0.3477
   69MOL0     O 9408   7.853   7.336  -0.683 -0.1480 -0.0386 -0.3217
   69MOL0     C 9409   7.917   7.439  -0.633 -0.8221 -0.7021  0.0430
   69MOL0     C 9410   8.030   7.414  -0.563  0.1188 -0.1589  0.0985
   69MOL0     C 9411   8.097   7.509  -0.491 -0.2826  0.6282 -0.3825
   69MOL0     C 9412   8.222   7.458  -0.415  0.2717 -0.8785 -0.5131
   69MOL0     C 9413   8.050   7.644  -0.485  0.3920  0.4966 -1.2235
   69MOL0     C 9414   8.110   7.758  -0.407  0.1569 -0.9662  0.2636
   69MOL0     O 9415   8.049   7.880  -0.420 -0.3823 -0.9267  0.0799
   69MOL0     C 9416   8.108   7.987  -0.352 -0.4217 -0.0756  0.1516
   69MOL0     C 9417   8.203   8.079  -0.402  0.1600 -0.6741 -0.4698
   69MOL0     C 9418   8.247   8.182  -0.316  0.0931  0.5440 -0.3974
   69MOL0     C 9419   8.196   8.206  -0.185  0.9434  0.2560 -0.3355
   69MOL0     O 9420   8.258   8.308  -0.109  0.6350  0.7835  0.0828
   69MOL0     C 9421   8.165   8.375  -0.022  1.1105  0.2053 -0.4540
   69MOL0     C 9422   8.196   8.524  -0.019  0.9751  0.7501 -0.1364
   69MOL0     C 9423   8.261   8.559   0.117  0.6757  1.5436  0.4801
   69MOL0     C 9424   8.325   8.698   0.115  0.5862 -1.0249  0.4019
   69MOL0     C 9425   8.351   8.755   0.257  0.0022  0.1837 -0.2617
   69MOL0     C 9426   8.338   8.912   0.255  0.2144 -0.9514  0.8052
   69MOL0     C 9427   8.373   8.976   0.390 -0.4022 -0.7005 -0.8818
   69MOL0     C 9428   8.287   8.910   0.495  1.2109  0.5260  0.7048
   69MOL0    Cl 9429   8.303   8.976   0.664 -0.2542 -0.6381 -0.2344
   69MOL0     C 9430   8.096   8.113  -0.142 -0.1347 -0.3863  0.0783
   69MOL0     C 9431   8.060   8.002  -0.222  0.2661  0.7542 -0.6029
   69MOL0     O 9432   8.198   7.726  -0.328 -0.5699  0.0763  0.0938
   69MOL0     C 9433   7.937   7.677  -0.562 -0.0739  0.8220  0.1145
   69MOL0     C 9434   7.870   7.573  -0.632  0.2833 -0.5408 -0.1867
   69MOL0     N 9435   7.655   6.899  -0.451  0.2582  0.0588  0.3127
   69MOL0     N 9436   7.657   6.792  -0.393 -1.3615  0.2213  0.3454
   69MOL0     C 9437   7.582   6.152   0.392 -0.6255 -0.4694  0.8393
   69MOL0     C 9438   7.585   6.115   0.531  0.7546 -0.3703 -0.3238
   69MOL0     C 9439   7.599   5.833   0.888  0.2678 -0.5358  0.2448
   69MOL0     C 9440   7.489   5.753   0.917 -0.5336 -0.1421 -0.4290
   69MOL0     C 9441   7.476   5.698   1.046 -0.2674  0.0441  0.2990
   69MOL0     C 9442   7.572   5.717   1.142 -0.7680 -0.0346 -0.2078
   69MOL0     O 9443   7.577   5.664   1.263  0.4921 -0.7433 -0.6679
   69MOL0     C 9444   7.461   5.615   1.326  0.6920 -0.1467  0.3501
   69MOL0     C 9445   7.345   5.724   1.329  0.3346 -0.0545 -0.2195
   69MOL0     C 9446   7.382   5.851   1.402 -0.0108  0.6571 -0.2800
   69MOL0     C 9447   7.359   5.850   1.554 -0.1279 -0.0662 -0.6369
   69MOL0     C 9448   7.224   5.814   1.589 -0.9065  0.7470  0.0975
   69MOL0     C 9449   7.114   5.797   1.630  0.4284 -0.6738  0.5949
   69MOL0     C 9450   7.685   5.802   1.115  0.7711  0.5362  0.5973
   69MOL0     C 9451   7.701   5.847   0.987 -0.4648  0.0106  0.7896
   69MOL0     C 9452   7.832   5.930   0.968 -0.0197  0.7904  0.5642
   69MOL0     H 9453   7.883   5.954   0.535  0.8319  1.0859 -1.0253
   69MOL0     H 9454   7.885   6.007   0.307  0.3552 -1.4592  0.4240
   69MOL0     H 9455   7.756   5.977   0.107 -1.8875 -0.6781  1.8500
   69MOL0     H 9456   7.844   6.123   0.068  0.2301 -0.0186  0.3084
   69MOL0     H 9457   7.583   6.027  -0.055 -0.0602 -1.7213 -1.2256
   69MOL0     H 9458   7.626   6.201  -0.052  0.9108  0.4057 -1.4386
   69MOL0     H 9459   7.861   6.097  -0.162 -0.0117 -1.3932 -0.2030
   69MOL0     H 9460   7.764   5.968  -0.202  2.8728 -0.1235 -2.7758
   69MOL0     H 9461   7.760   6.105  -0.389  0.3172 -2.2459  1.4594
   69MOL0     H 9462   7.601   6.135  -0.314  0.0477 -1.6408  1.5716
   69MOL0     H 9463   7.823   6.321  -0.270 -0.9879  0.1708  0.7043
   69MOL0     H 9464   7.642   6.355  -0.266 -2.0299  0.8531 -2.2523
   69MOL0     H 9465   7.829   6.320  -0.503 -0.6677 -2.3210 -0.6270
   69MOL0     H 9466   7.660   6.299  -0.523 -0.7849 -0.2401  0.9845
   69MOL0     H 9467   7.593   6.505  -0.432 -0.1485  0.4384 -0.0262
   69MOL0     H 9468   7.698   6.533  -0.569 -2.2825  1.7762  0.5982
   69MOL0     H 9469   7.775   6.572  -0.283  0.3742  0.5044 -0.1110
   69MOL0     H 9470   7.901   6.550  -0.415 -1.2142 -4.3381 -3.3118
   69MOL0     H 9471   7.963   6.805  -0.520 -0.0768 -0.2488  1.3955
   69MOL0     H 9472   7.792   6.959  -0.728  4.5012  1.5671 -1.0476
   69MOL0     H 9473   7.876   7.070  -0.620  1.3397 -2.9584 -0.8626
   69MOL0     H 9474   7.568   7.045  -0.664 -0.8852  1.4841 -1.0111
   69MOL0     H 9475   7.632   7.160  -0.545  0.8793  2.4441 -1.4644
   69MOL0     H 9476   7.711   7.181  -0.841 -2.1424 -0.4378 -0.9899
   69MOL0     H 9477   7.550   7.221  -0.778 -0.2997  0.9349  2.1288
   69MOL0     H 9478   7.702   7.412  -0.812 -0.3843  0.1893  0.7535
   69MOL0     H 9479   7.657   7.403  -0.642  0.0379 -0.3259  0.3620
   69MOL0     H 9480   8.060   7.310  -0.548  0.8081  0.0169 -0.0075
   69MOL0     H 9481   8.208   7.481  -0.309 -1.2142  0.2338 -0.9277
   69MOL0     H 9482   8.314   7.515  -0.435  1.2014 -1.7680  0.9915
   69MOL0     H 9483   8.248   7.353  -0.430  2.5766  0.0114 -3.8502
   69MOL0     H 9484   8.245   8.069  -0.502  1.5857  4.2059 -0.6266
   69MOL0     H 9485   8.332   8.241  -0.348  2.0188 -1.4824  0.6455
   69MOL0     H 9486   8.059   8.377  -0.050  1.2724  4.3304 -1.3715
   69MOL0     H 9487   8.179   8.312   0.066 -2.2094 -1.2410 -0.7842
   69MOL0     H 9488   8.265   8.546  -0.100 -0.9974 -1.8913 -2.7402
   69MOL0     H 9489   8.112   8.594  -0.031 -0.9686 -1.2812  0.8692
   69MOL0     H 9490   8.341   8.490   0.148 -0.0054  2.3334  4.5538
   69MOL0     H 9491   8.187   8.554   0.197  0.4607 -0.4818  0.2054
   69MOL0     H 9492   8.261   8.774   0.069  3.8197  1.7839  0.1448
   69MOL0     H 9493   8.419   8.697   0.059 -0.5268  0.6643 -1.6373
   69MOL0     H 9494   8.277   8.710   0.323  2.2512 -0.2378  2.1407
   69MOL0     H 9495   8.450   8.732   0.298 -0.7908 -0.4641  1.3826
   69MOL0     H 9496   8.238   8.948   0.231 -0.8238 -1.8511  3.3648
   69MOL0     H 9497   8.403   8.960   0.182  1.3142  0.6548  2.7344
   69MOL0     H 9498   8.365   9.085   0.400  2.4481 -0.3638 -1.4255
   69MOL0     H 9499   8.480   8.965   0.410 -0.3572  2.7507  1.6938
   69MOL0     H 9500   8.302   8.802   0.500 -2.9089 -0.2523 -0.1148
   69MOL0     H 9501   8.181   8.917   0.468  0.1122  2.5681  4.7382
   69MOL0     H 9502   8.058   8.123  -0.040 -1.9210  1.9745 -0.7344
   69MOL0     H 9503   7.983   7.933  -0.188 -1.7611  3.4385  0.6696
   69MOL0     H 9504   7.885   7.772  -0.560  0.7353  1.2917 -0.5527
   69MOL0     H 9505   7.786   7.609  -0.690  1.5442  0.8782 -1.2315
   69MOL0     H 9506   7.505   6.205   0.337  0.9125  1.2252  0.2223
   69MOL0     H 9507   7.498   6.128   0.595  1.6876 -0.0601  0.9289
   69MOL0     H 9508   7.404   5.723   0.855  0.7574 -2.5150 -1.1797
   69MOL0     H 9509   7.390   5.635   1.068 -2.0980  1.1177 -3.0683
   69MOL0     H 9510   7.424   5.527   1.272  2.2381  1.0993 -3.0063
   69MOL0     H 9511   7.492   5.610   1.431  0.0565  0.4133  0.5694
   69MOL0     H 9512   7.257   5.679   1.376  0.9333  0.9891  2.0407
   69MOL0     H 9513   7.307   5.751   1.230 -4.9396  1.0655  1.7995
   69MOL0     H 9514   7.487   5.870   1.381 -0.3820  4.0771  0.3338
   69MOL0     H 9515   7.325   5.932   1.356  0.7323 -0.2613 -2.9998
   69MOL0     H 9516   7.386   5.948   1.594 -1.4013  0.6648 -1.4952
   69MOL0     H 9517   7.441   5.787   1.589  3.1376  2.3945 -3.1838
   69MOL0     H 9518   7.026   5.795   1.691 -2.2171  1.6770 -2.7776
   69MOL0     H 9519   7.755   5.815   1.198  2.3257 -0.9429 -0.4163
   69MOL0     H 9520   7.805   6.036   0.966 -0.5267  0.6867  1.3440
   69MOL0     H 9521   7.907   5.906   1.044 -0.8927 -1.3807  0.8258
   69MOL0     H 9522   7.890   5.900   0.880 -0.4084 -1.0471  0.8842
   70MOL0     O 9523   3.636  10.861   6.268 -0.6479 -0.6836 -0.2445
   70MOL0     C 9524   3.711  10.857   6.364  0.8982 -0.3621 -0.9478
   70MOL0     O 9525   3.843  10.824   6.363 -0.0974  0.5564  0.2556
   70MOL0     C 9526   3.899  10.779   6.244  0.8812  1.1210  0.6844
   70MOL0     C 9527   3.894  10.644   6.213 -0.9621  0.3141 -0.3565
   70MOL0     C 9528   3.961  10.583   6.097 -0.2463  0.3296 -0.1346
   70MOL0     C 9529   4.025  10.675   6.013  0.0785  0.5826  0.2776
   70MOL0     O 9530   4.076  10.638   5.891  0.0183  0.4582 -0.0403
   70MOL0     C 9531   3.978  10.617   5.786 -1.1600  0.1828  1.0180
   70MOL0     C 9532   4.048  10.561   5.654 -0.6126 -1.1302 -0.0601
   70MOL0     C 9533   4.113  10.419   5.676 -0.6273 -0.0026 -0.0039
   70MOL0     C 9534   4.008  10.312   5.631 -0.0982  0.3645 -0.2875
   70MOL0     C 9535   4.081  10.165   5.646 -0.4246  0.8136  0.1416
   70MOL0     C 9536   4.081  10.126   5.798  0.3436  0.1280  0.9494
   70MOL0     C 9537   4.130   9.981   5.805 -0.2367  0.0858  0.2680
   70MOL0     C 9538   4.132   9.924   5.946  0.1466 -0.0621 -0.3110
   70MOL0     N 9539   4.000   9.893   5.999 -0.3521  0.3591 -0.1494
   70MOL0     C 9540   3.921   9.966   6.080  1.1925  1.3626 -0.2754
   70MOL0     C 9541   3.815   9.890   6.100 -0.3683  0.2235  0.0596
   70MOL0     C 9542   3.702   9.915   6.182 -0.0158  1.0019 -0.0068
   70MOL0     C 9543   3.568   9.891   6.104  0.3418 -0.5126  0.1116
   70MOL0     C 9544   3.560   9.966   5.970 -0.0909  0.4412 -0.4853
   70MOL0     C 9545   3.581  10.108   5.985  0.0943 -0.0326  0.2682
   70MOL0     O 9546   3.552  10.176   5.861 -0.5383 -0.7747  0.5787
   70MOL0     C 9547   3.524  10.312   5.867  0.5634 -0.2968  0.9177
   70MOL0     C 9548   3.466  10.371   5.753 -0.0213 -0.6050  0.5261
   70MOL0     C 9549   3.428  10.507   5.752 -0.0859  0.1505 -1.0273
   70MOL0     C 9550   3.356  10.557   5.631 -0.3403  0.0920 -0.0305
   70MOL0     C 9551   3.441  10.579   5.877  0.5679  0.2439  0.2100
   70MOL0     C 9552   3.398  10.723   5.881  0.3526 -0.7283  0.7335
   70MOL0     O 9553   3.469  10.806   5.960 -0.7220  0.2485 -0.5297
   70MOL0     C 9554   3.442  10.938   5.951 -0.0369 -0.3065  0.1635
   70MOL0     C 9555   3.422  11.010   5.838 -1.1608  0.2065  0.2792
   70MOL0     C 9556   3.403  11.150   5.843  0.1837 -0.0653  0.6267
   70MOL0     C 9557   3.385  11.227   5.957  0.8361 -0.2884  0.2008
   70MOL0     O 9558   3.352  11.360   5.946 -0.0687 -0.2893  0.3723
   70MOL0     C 9559   3.235  11.382   5.864 -0.3121  0.2309  0.3427
   70MOL0     C 9560   3.150  11.487   5.934  0.1781  0.0385  0.5044
   70MOL0     C 9561   3.096  11.427   6.058  0.5975  0.5779 -0.9656
   70MOL0     C 9562   3.097  11.538   6.161 -0.8600 -0.0730  0.2111
   70MOL0     C 9563   3.097  11.484   6.302 -0.0228 -0.2483 -1.6832
   70MOL0     C 9564   3.064  11.592   6.400 -0.1902 -1.1113 -0.3137
   70MOL0     C 9565   3.054  11.535   6.542 -0.1248 -0.2107  0.1671
   70MOL0     C 9566   2.997  11.633   6.646  0.2279 -1.4274  0.0427
   70MOL0    Cl 9567   2.915  11.554   6.769  0.3843  0.3295  0.1849
   70MOL0     C 9568   3.408  11.157   6.071 -0.8876 -0.7331 -0.6399
   70MOL0     C 9569   3.429  11.019   6.062 -0.0036 -0.7694 -0.5634
   70MOL0     O 9570   3.286  10.753   5.828 -0.3554  0.0961 -0.1317
   70MOL0     C 9571   3.516  10.529   5.983  0.3698  0.0419 -0.4671
   70MOL0     C 9572   3.547  10.389   5.975 -0.2991  0.5002 -1.4181
   70MOL0     N 9573   3.836   9.764   6.050  0.1130  0.0812 -0.6394
   70MOL0     N 9574   3.947   9.767   6.001 -1.7441 -0.6003  0.8288
   70MOL0     C 9575   4.028  10.810   6.050  0.0042 -0.3216  0.3266
   70MOL0     C 9576   3.966  10.864   6.156  0.3146  0.1045  0.2547
   70MOL0     C 9577   3.656  10.890   6.502 -0.3997  0.8854  0.6166
   70MOL0     C 9578   3.749  10.924   6.599 -0.0549  0.4818 -0.5412
   70MOL0     C 9579   3.713  10.963   6.732 -0.5591 -0.1224  1.0391
   70MOL0     C 9580   3.574  10.968   6.768 -0.2051  0.2708  0.4874
   70MOL0     O 9581   3.528  10.993   6.891 -0.4647 -0.1736  0.2655
   70MOL0     C 9582   3.620  11.014   7.005  0.9966  0.7778  0.8014
   70MOL0     C 9583   3.557  11.092   7.113 -0.4160  0.1308 -0.0550
   70MOL0     C 9584   3.554  11.243   7.078  0.2153  0.5931 -0.8628
   70MOL0     C 9585   3.537  11.346   7.194  0.6551 -0.8531  0.6188
   70MOL0     C 9586   3.405  11.327   7.261 -0.2567 -0.1599 -0.4118
   70MOL0     C 9587   3.296  11.296   7.296 -0.3955 -0.3640 -0.0464
   70MOL0     C 9588   3.481  10.947   6.666 -0.5354  0.0534  0.4050
   70MOL0     C 9589   3.513  10.907   6.533  0.1141 -0.7175  0.9299
   70MOL0     C 9590   3.404  10.889   6.432  0.7885  0.7551  0.0623
   70MOL0     H 9591   3.830  10.575   6.267  1.2593  0.7493  3.1393
   70MOL0     H 9592   3.960  10.478   6.073 -0.2773  0.1029  0.8127
   70MOL0     H 9593   3.947  10.721   5.767 -2.2431 -0.3738 -0.5208
   70MOL0     H 9594   3.893  10.551   5.804 -1.2232 -0.6723 -1.8673
   70MOL0     H 9595   3.978  10.567   5.570 -0.4390 -0.2333 -0.1511
   70MOL0     H 9596   4.133  10.628   5.635 -0.8847 -1.0034 -0.8812
   70MOL0     H 9597   4.207  10.414   5.620  0.2141 -1.7120  1.4753
   70MOL0     H 9598   4.139  10.414   5.782 -1.6743 -0.6477  0.2395
   70MOL0     H 9599   3.924  10.312   5.700 -1.6882 -2.3573 -2.0029
   70MOL0     H 9600   3.969  10.325   5.530 -0.3651 -2.7665 -0.7037
   70MOL0     H 9601   4.183  10.158   5.606  0.0629  1.9274  1.1196
   70MOL0     H 9602   4.020  10.091   5.593 -2.1315  0.5777  2.2980
   70MOL0     H 9603   4.153  10.188   5.852  1.7126 -0.5471 -0.0476
   70MOL0     H 9604   3.981  10.134   5.843 -0.4972  1.7494 -1.0419
   70MOL0     H 9605   4.233   9.979   5.768 -1.1544  0.9589 -2.6512
   70MOL0     H 9606   4.082   9.918   5.730 -1.1126  0.3596  0.5882
   70MOL0     H 9607   4.204   9.843   5.959  0.3418  0.3700  1.6223
   70MOL0     H 9608   4.168   9.998   6.018  1.1707 -2.6050  1.9658
   70MOL0     H 9609   3.929  10.065   6.124 -0.7436  0.4603  2.3477
   70MOL0     H 9610   3.707  10.018   6.218 -3.2562  0.9979  0.7188
   70MOL0     H 9611   3.694   9.854   6.272 -2.3249 -0.4774 -1.1151
   70MOL0     H 9612   3.541   9.789   6.075  0.8555  0.5546 -5.2943
   70MOL0     H 9613   3.484   9.929   6.163  0.2658 -1.8878  0.9249
   70MOL0     H 9614   3.627   9.926   5.894 -0.7014  0.2044 -0.9132
   70MOL0     H 9615   3.458   9.944   5.935  0.2753 -1.5892 -0.3538
   70MOL0     H 9616   3.528  10.152   6.070 -0.6891 -1.2867  0.4495
   70MOL0     H 9617   3.687  10.116   6.010  1.9417 -1.5789 -5.3706
   70MOL0     H 9618   3.438  10.312   5.667 -0.0729 -0.0208  0.1350
   70MOL0     H 9619   3.381  10.662   5.614  2.2143 -0.1308  1.7845
   70MOL0     H 9620   3.249  10.546   5.650 -0.3637  2.9720  2.3928
   70MOL0     H 9621   3.390  10.512   5.538  3.4077  1.0375  0.7306
   70MOL0     H 9622   3.400  10.956   5.746 -2.3453  1.6742 -0.3307
   70MOL0     H 9623   3.395  11.194   5.744  2.2713 -1.4837 -0.2385
   70MOL0     H 9624   3.276  11.411   5.766  1.6338 -0.2427  0.9605
   70MOL0     H 9625   3.168  11.296   5.855 -0.4934 -0.0203  3.1652
   70MOL0     H 9626   3.212  11.575   5.951  4.1616 -2.7385  1.7895
   70MOL0     H 9627   3.071  11.524   5.868  1.4129  1.2080 -0.3543
   70MOL0     H 9628   3.165  11.347   6.089  0.3087  0.0939 -1.5487
   70MOL0     H 9629   2.994  11.389   6.054  0.1594  1.8103 -1.9243
   70MOL0     H 9630   3.022  11.614   6.139  1.4393  1.6092 -2.5624
   70MOL0     H 9631   3.189  11.596   6.151 -0.5857 -0.1708  1.8853
   70MOL0     H 9632   3.022  11.406   6.309 -1.7847  1.1794 -3.4065
   70MOL0     H 9633   3.195  11.447   6.332 -0.2278  1.4977  1.5543
   70MOL0     H 9634   2.966  11.636   6.381 -0.5872 -2.2329 -0.9610
   70MOL0     H 9635   3.141  11.668   6.385  1.1158 -1.9924  1.6681
   70MOL0     H 9636   3.156  11.504   6.570  0.4081 -0.0518 -1.4749
   70MOL0     H 9637   2.994  11.444   6.533  0.0416 -0.1692 -1.7696
   70MOL0     H 9638   2.939  11.707   6.590  1.2299 -1.9085 -1.7341
   70MOL0     H 9639   3.072  11.693   6.698  1.6219 -1.6278 -1.6394
   70MOL0     H 9640   3.421  11.207   6.167  0.4353 -1.2282 -0.5399
   70MOL0     H 9641   3.446  10.973   6.159 -0.8638  1.6756  0.8425
   70MOL0     H 9642   3.546  10.594   6.064 -0.2070  0.9548 -0.9604
   70MOL0     H 9643   3.601  10.343   6.058 -2.0488 -1.6119 -1.3487
   70MOL0     H 9644   4.070  10.879   5.977 -1.1752  1.4005  1.2008
   70MOL0     H 9645   3.962  10.971   6.175  0.5654 -0.2522  2.6936
   70MOL0     H 9646   3.855  10.929   6.573  0.1369  0.2300  0.1701
   70MOL0     H 9647   3.787  11.007   6.797  0.0265 -0.6591  0.7465
   70MOL0     H 9648   3.631  10.911   7.038 -0.5272  0.9550  1.9617
   70MOL0     H 9649   3.720  11.056   6.991  1.4706 -0.2761  0.9850
   70MOL0     H 9650   3.622  11.076   7.199  1.3816  0.0893 -1.3501
   70MOL0     H 9651   3.454  11.060   7.130 -0.4859  0.4372  0.1125
   70MOL0     H 9652   3.648  11.280   7.039  2.1315 -1.8908  1.0384
   70MOL0     H 9653   3.479  11.254   6.999  1.9568 -3.9876 -3.5202
   70MOL0     H 9654   3.532  11.452   7.165  0.0340  0.0171  3.5462
   70MOL0     H 9655   3.625  11.334   7.258 -0.9348 -0.0186  3.1201
   70MOL0     H 9656   3.196  11.270   7.326 -0.4049  1.7848  2.0542
   70MOL0     H 9657   3.380  10.956   6.706 -1.5534  0.2845 -2.0786
   70MOL0     H 9658   3.382  10.982   6.379  0.7353  1.2756  0.9589
   70MOL0     H 9659   3.417  10.802   6.367 -0.5617  1.1972 -0.8419
   70MOL0     H 9660   3.313  10.857   6.483  1.5136  1.4134  1.8644
   71MOL0     O 9661  10.120   1.719   9.600  0.2789 -0.5964  0.8403
   71MOL0     C 9662  10.196   1.792   9.666  0.2201 -0.3217 -0.7602
   71MOL0     O 9663  10.323   1.786   9.672  0.4932 -0.6395 -0.0031
   71MOL0     C 9664  10.392   1.715   9.572  1.1618  0.3440  0.2369
   71MOL0     C 9665  10.361   1.729   9.429 -0.1259  0.1918 -0.1895
   71MOL0     C 9666  10.437   1.651   9.337 -0.3353 -0.0385  0.6668
   71MOL0     C 9667  10.534   1.564   9.382  0.0931  0.4871 -0.6809
   71MOL0     O 9668  10.585   1.481   9.278  0.1404  0.3745 -0.3939
   71MOL0     C 9669  10.706   1.412   9.304 -0.1027 -0.7372  0.6521
   71MOL0     C 9670  10.780   1.371   9.171 -0.0887  0.2881 -1.2189
   71MOL0     C 9671  10.719   1.241   9.114  0.4059  0.5254 -1.2413
   71MOL0     C 9672  10.817   1.160   9.039 -0.4379  1.1962  0.1148
   71MOL0     C 9673  10.930   1.219   8.953 -0.3827 -0.9176  0.0702
   71MOL0     C 9674  11.022   1.112   8.902 -0.3423  0.2621  0.2378
   71MOL0     C 9675  11.140   1.171   8.819  0.3435 -0.1666 -0.2301
   71MOL0     C 9676  11.218   1.058   8.752 -0.4629  0.6872  1.2906
   71MOL0     N 9677  11.285   0.968   8.846  0.4643 -0.8968 -0.8089
   71MOL0     C 9678  11.357   1.016   8.948  0.2020  0.1767 -0.1150
   71MOL0     C 9679  11.394   0.912   9.025  0.5501  0.5041 -0.1621
   71MOL0     C 9680  11.481   0.938   9.150  0.1862  0.7265 -0.2567
   71MOL0     C 9681  11.620   1.002   9.107  0.6952  0.3012 -0.1245
   71MOL0     C 9682  11.700   0.902   9.021 -0.1208  0.8233  0.8213
   71MOL0     C 9683  11.727   0.757   9.068  1.0019  0.4296 -0.1307
   71MOL0     O 9684  11.746   0.748   9.203  0.1745 -0.3597  0.8252
   71MOL0     C 9685  11.878   0.755   9.259  0.6617 -0.0951 -0.4756
   71MOL0     C 9686  11.990   0.785   9.185  0.2073  0.8909 -0.7453
   71MOL0     C 9687  12.121   0.767   9.234 -0.8297  0.7831 -0.2088
   71MOL0     C 9688  12.235   0.816   9.140  1.7774 -0.0325 -0.3551
   71MOL0     C 9689  12.136   0.707   9.369  0.0404 -0.0847  1.2162
   71MOL0     C 9690  12.269   0.669   9.422  0.8441 -0.2266 -0.3172
   71MOL0     O 9691  12.264   0.602   9.549 -0.0022  0.6125  0.5839
   71MOL0     C 9692  12.392   0.581   9.599  0.3375  0.1045  0.3635
   71MOL0     C 9693  12.438   0.655   9.706 -0.1953  0.1382 -1.3551
   71MOL0     C 9694  12.565   0.639   9.774 -0.2025 -0.3956 -0.0857
   71MOL0     C 9695  12.651   0.547   9.717  0.3805  0.2502  0.0593
   71MOL0     O 9696  12.785   0.528   9.761 -0.7125  0.2921  0.2701
   71MOL0     C 9697  12.801   0.522   9.904  1.4518 -0.8040 -0.1356
   71MOL0     C 9698  12.940   0.470   9.927 -0.5123 -0.4070 -1.0247
   71MOL0     C 9699  12.967   0.434  10.079  0.3848  0.7154 -0.9465
   71MOL0     C 9700  13.090   0.367  10.114 -0.8574  0.2941 -0.3539
   71MOL0     C 9701  13.217   0.439  10.071 -0.9568  0.6039  0.1915
   71MOL0     C 9702  13.263   0.560  10.148 -1.1736 -0.0463 -0.0525
   71MOL0     C 9703  13.374   0.643  10.065  0.6805 -0.5233  0.0308
   71MOL0     C 9704  13.415   0.771  10.132 -0.0724  0.6458  0.9351
   71MOL0    Cl 9705  13.536   0.850  10.022 -0.5852  0.1274  0.3404
   71MOL0     C 9706  12.615   0.466   9.613 -0.0382 -0.0248  0.2162
   71MOL0     C 9707  12.491   0.484   9.550 -0.6491 -0.7111  0.1407
   71MOL0     O 9708  12.377   0.690   9.366  0.3594 -0.0267 -0.2624
   71MOL0     C 9709  12.017   0.684   9.440  0.4369  0.1016  0.2114
   71MOL0     C 9710  11.896   0.705   9.391  0.8509  0.7191  0.1868
   71MOL0     N 9711  11.340   0.799   8.967  0.2474 -0.1937  0.5091
   71MOL0     N 9712  11.271   0.832   8.867 -0.6325  0.0330  0.1607
   71MOL0     C 9713  10.573   1.558   9.519  0.8369 -0.1670 -0.9546
   71MOL0     C 9714  10.496   1.637   9.613 -0.5876  0.5119  0.1689
   71MOL0     C 9715  10.114   1.870   9.768 -0.8388  0.6748 -0.2992
   71MOL0     C 9716  10.008   1.816   9.841 -0.3473  0.2244 -0.2222
   71MOL0     C 9717   9.958   1.881   9.948  0.7669  0.0402  0.2611
   71MOL0     C 9718  10.004   2.005   9.983 -0.3119  0.9608 -0.0845
   71MOL0     O 9719   9.958   2.070  10.098 -0.4442 -0.0347  0.1994
   71MOL0     C 9720   9.957   1.986  10.218  0.3280  0.3578  0.2133
   71MOL0     C 9721  10.008   2.057  10.341 -1.1909  0.0446  0.1556
   71MOL0     C 9722  10.161   2.086  10.311  0.2730 -0.3361  0.0773
   71MOL0     C 9723  10.254   2.111  10.437 -0.1209 -0.1526  0.8269
   71MOL0     C 9724  10.247   2.010  10.535  0.6587  0.4019 -0.0119
   71MOL0     C 9725  10.249   1.926  10.619  0.4571 -0.0328  0.4335
   71MOL0     C 9726  10.092   2.063   9.910  0.2802  0.6928  0.1723
   71MOL0     C 9727  10.153   2.004   9.808  0.6701 -0.0469  0.9292
   71MOL0     C 9728  10.243   2.090   9.719  0.2470 -0.2775  0.2493
   71MOL0     H 9729  10.295   1.810   9.401  0.0090  0.5680  0.5372
   71MOL0     H 9730  10.414   1.655   9.231  0.2628 -0.6235  0.5099
   71MOL0     H 9731  10.706   1.322   9.367 -0.1464 -1.2857 -0.1203
   71MOL0     H 9732  10.764   1.492   9.350 -1.2175  1.2704 -1.2737
   71MOL0     H 9733  10.759   1.439   9.088 -2.6298 -1.0618 -1.7721
   71MOL0     H 9734  10.888   1.356   9.183 -0.4533 -0.5774  1.7738
   71MOL0     H 9735  10.677   1.171   9.187  0.3792 -0.6708 -2.3604
   71MOL0     H 9736  10.632   1.277   9.057  0.9431 -1.5485 -3.5819
   71MOL0     H 9737  10.859   1.099   9.120 -4.3558 -0.6033  0.9851
   71MOL0     H 9738  10.749   1.110   8.970 -1.4404  4.9935 -1.9493
   71MOL0     H 9739  10.993   1.285   9.013  0.7266 -0.4969 -1.5004
   71MOL0     H 9740  10.900   1.283   8.870  1.6676 -0.8473 -0.6683
   71MOL0     H 9741  11.058   1.049   8.984 -2.5735 -2.1747 -0.5019
   71MOL0     H 9742  10.968   1.050   8.830  2.7719  0.2779 -2.3026
   71MOL0     H 9743  11.204   1.228   8.887 -1.9027 -1.2508  3.0506
   71MOL0     H 9744  11.098   1.243   8.748 -1.6156 -0.2492  0.7721
   71MOL0     H 9745  11.162   0.991   8.686  0.4326  0.3034  0.9045
   71MOL0     H 9746  11.292   1.104   8.687 -3.1421  2.0450 -1.0133
   71MOL0     H 9747  11.371   1.121   8.971 -0.5131  0.3724 -0.5313
   71MOL0     H 9748  11.498   0.854   9.218 -3.1188  0.1419 -0.0108
   71MOL0     H 9749  11.414   1.002   9.208 -5.7859 -3.1981 -1.8880
   71MOL0     H 9750  11.610   1.088   9.041  1.0558 -1.3755 -2.4780
   71MOL0     H 9751  11.682   1.024   9.194  1.3603  1.3616 -0.8564
   71MOL0     H 9752  11.641   0.884   8.930 -1.5306 -0.3384  1.9297
   71MOL0     H 9753  11.793   0.947   8.985  0.5578 -1.9755 -1.2387
   71MOL0     H 9754  11.634   0.702   9.049  2.6078 -1.3779 -3.7424
   71MOL0     H 9755  11.803   0.707   9.007 -0.0986  1.6268 -2.5997
   71MOL0     H 9756  11.995   0.821   9.082  1.9262 -1.2133 -1.4837
   71MOL0     H 9757  12.300   0.728   9.135  1.8885  0.0457 -0.2846
   71MOL0     H 9758  12.290   0.899   9.184 -1.8280  3.7377 -2.2793
   71MOL0     H 9759  12.200   0.852   9.043  0.7256  1.5121  0.5567
   71MOL0     H 9760  12.362   0.720   9.748  1.4163  0.8632  0.5986
   71MOL0     H 9761  12.588   0.692   9.866 -1.1778  0.3034 -0.2276
   71MOL0     H 9762  12.775   0.622   9.941 -2.7554  0.0996 -4.4656
   71MOL0     H 9763  12.726   0.454   9.945 -1.6460  2.3334 -0.0536
   71MOL0     H 9764  12.957   0.381   9.865  3.3388 -1.5217  1.3053
   71MOL0     H 9765  13.012   0.546   9.894 -2.5901  0.3209 -4.3970
   71MOL0     H 9766  12.896   0.359  10.112 -0.7180  2.8287  1.9524
   71MOL0     H 9767  12.948   0.524  10.139  1.5303 -1.3906  2.9384
   71MOL0     H 9768  13.088   0.271  10.062 -2.3743 -0.6778  1.3630
   71MOL0     H 9769  13.105   0.343  10.220 -0.2700  0.9653 -0.2776
   71MOL0     H 9770  13.302   0.370  10.073 -0.6370  0.9933  0.2133
   71MOL0     H 9771  13.216   0.466   9.965  0.7803 -0.0352 -0.0172
   71MOL0     H 9772  13.311   0.528  10.240  0.4351  2.0738 -0.0834
   71MOL0     H 9773  13.174   0.617  10.178 -2.2880 -1.1361 -1.1264
   71MOL0     H 9774  13.320   0.663   9.972  0.6853 -1.8555 -0.2879
   71MOL0     H 9775  13.464   0.587  10.039  3.0679  0.9514  4.2213
   71MOL0     H 9776  13.459   0.748  10.229  0.6363 -1.1035  0.2265
   71MOL0     H 9777  13.329   0.838  10.149 -2.0383 -1.5656  0.2290
   71MOL0     H 9778  12.690   0.409   9.560 -1.6753  0.4995 -2.9146
   71MOL0     H 9779  12.464   0.430   9.460  1.7595 -0.2764 -0.9405
   71MOL0     H 9780  12.004   0.644   9.540  3.4543  2.3256  1.6278
   71MOL0     H 9781  11.808   0.679   9.449  0.5064 -1.5378 -1.2460
   71MOL0     H 9782  10.655   1.506   9.567  0.7051  1.2424  0.9054
   71MOL0     H 9783  10.517   1.630   9.720 -0.5394  2.7155  0.3497
   71MOL0     H 9784   9.963   1.718   9.830 -0.8946  0.2257  1.6797
   71MOL0     H 9785   9.875   1.833   9.999 -0.0734 -1.6285 -2.5033
   71MOL0     H 9786   9.852   1.965  10.243 -0.6015  4.5572  0.4617
   71MOL0     H 9787  10.002   1.890  10.191  0.4430  0.1967  0.9482
   71MOL0     H 9788   9.986   1.995  10.429  0.6364  1.0605  1.4090
   71MOL0     H 9789   9.940   2.142  10.340 -1.8269 -0.4534  0.0340
   71MOL0     H 9790  10.199   1.996  10.262  1.1246  1.1124 -2.0818
   71MOL0     H 9791  10.167   2.162  10.232 -0.5512 -0.6896 -0.3384
   71MOL0     H 9792  10.233   2.208  10.481  3.1791  0.5507  1.1326
   71MOL0     H 9793  10.355   2.128  10.399  0.9760 -3.3459  1.9916
   71MOL0     H 9794  10.236   1.853  10.696  1.5869  0.2702  0.9289
   71MOL0     H 9795  10.113   2.165   9.943 -0.9430  0.2815  2.4086
   71MOL0     H 9796  10.339   2.043   9.694  0.5050  0.6880 -0.6245
   71MOL0     H 9797  10.199   2.113   9.621  0.3069 -1.0768  0.0222
   71MOL0     H 9798  10.262   2.183   9.772  3.3913 -0.2107 -0.7830
   72MOL0     O 9799  10.161   3.074   7.650  0.3092 -0.1101 -0.7735
   72MOL0     C 9800  10.189   3.114   7.764  0.0822  0.6704  0.0814
   72MOL0     O 9801  10.212   3.256   7.800  0.4071 -0.1096 -0.1873
   72MOL0     C 9802  10.185   3.357   7.703  0.2678  0.1262 -0.4883
   72MOL0     C 9803  10.153   3.476   7.773 -0.7098  0.2578 -0.6689
   72MOL0     C 9804  10.119   3.593   7.701 -0.5109  0.4731 -0.6331
   72MOL0     C 9805  10.138   3.591   7.567  0.7246 -0.0295 -0.0611
   72MOL0     O 9806  10.075   3.693   7.501 -0.4476 -0.4699 -0.3819
   72MOL0     C 9807  10.023   3.668   7.371  0.2843 -0.6117 -0.0169
   72MOL0     C 9808   9.942   3.792   7.329  0.3798 -0.4231  0.6755
   72MOL0     C 9809   9.823   3.827   7.415  0.2695 -0.1025  0.0160
   72MOL0     C 9810   9.715   3.708   7.440  0.2577  0.5046  0.2027
   72MOL0     C 9811   9.584   3.763   7.506 -0.3586  0.2298 -0.0801
   72MOL0     C 9812   9.484   3.655   7.501 -0.2206  0.5641  0.0266
   72MOL0     C 9813   9.363   3.686   7.600 -0.4280 -0.2152  0.1631
   72MOL0     C 9814   9.235   3.636   7.543 -0.0173  0.1518 -0.3235
   72MOL0     N 9815   9.134   3.639   7.643 -0.1978  0.6735  0.4405
   72MOL0     C 9816   9.056   3.739   7.689 -1.1497  0.3339  0.5707
   72MOL0     C 9817   8.973   3.685   7.783 -0.2405 -0.4510 -0.2252
   72MOL0     C 9818   8.852   3.756   7.841  0.3801  0.9298 -0.8613
   72MOL0     C 9819   8.790   3.677   7.959  0.7276  0.1614  0.0798
   72MOL0     C 9820   8.648   3.725   7.978  0.0730  0.0861 -0.3491
   72MOL0     C 9821   8.588   3.678   8.113  0.2085 -0.0734  0.9310
   72MOL0     O 9822   8.669   3.700   8.227 -0.1599  0.3018 -0.1005
   72MOL0     C 9823   8.651   3.645   8.351  0.2911  0.2317 -0.1697
   72MOL0     C 9824   8.729   3.684   8.460  0.1142  0.4600  0.6690
   72MOL0     C 9825   8.710   3.619   8.582 -0.0459  0.4760 -0.5121
   72MOL0     C 9826   8.814   3.666   8.681  0.5093  1.3270 -0.9271
   72MOL0     C 9827   8.609   3.516   8.599 -0.4313 -0.2549  0.1200
   72MOL0     C 9828   8.580   3.440   8.729  0.4243 -0.5532  0.0441
   72MOL0     O 9829   8.505   3.328   8.718 -0.0527  0.1912 -0.5195
   72MOL0     C 9830   8.442   3.272   8.830  1.4387 -0.2711 -0.1964
   72MOL0     C 9831   8.433   3.134   8.832 -0.1833  0.8873 -1.0145
   72MOL0     C 9832   8.361   3.065   8.935 -0.7065 -0.5366 -0.1802
   72MOL0     C 9833   8.289   3.147   9.032 -0.2891  0.6717 -0.0502
   72MOL0     O 9834   8.211   3.078   9.121 -0.5914  0.0991  0.8353
   72MOL0     C 9835   8.277   3.002   9.214 -0.1607 -0.2803 -0.8047
   72MOL0     C 9836   8.192   2.982   9.343 -0.6378  0.0975  0.0807
   72MOL0     C 9837   8.148   3.113   9.408 -0.0738 -0.1039 -0.4534
   72MOL0     C 9838   8.080   3.095   9.542  0.7422  0.6226 -0.9295
   72MOL0     C 9839   7.984   3.203   9.580  0.9254 -0.7092 -0.1845
   72MOL0     C 9840   7.949   3.199   9.729  0.1689  0.2452  0.1828
   72MOL0     C 9841   7.877   3.331   9.775  0.5733 -0.3361 -0.1359
   72MOL0     C 9842   7.876   3.318   9.928 -0.6021 -0.3447  0.8230
   72MOL0    Cl 9843   7.814   3.470  10.001 -0.1100  0.0579  0.2383
   72MOL0     C 9844   8.315   3.282   9.033  0.5140 -1.0575 -0.0813
   72MOL0     C 9845   8.384   3.352   8.938  0.8857  0.8587 -0.5994
   72MOL0     O 9846   8.623   3.475   8.842 -0.2586 -0.2316  1.1138
   72MOL0     C 9847   8.527   3.487   8.486  0.4421 -0.1995  0.0422
   72MOL0     C 9848   8.551   3.544   8.367  0.1423 -0.7573  0.6028
   72MOL0     N 9849   9.029   3.564   7.815  0.1634  0.6521  0.6625
   72MOL0     N 9850   9.117   3.528   7.718  0.1217 -0.2096  0.6779
   72MOL0     C 9851  10.192   3.477   7.496  0.6203 -0.5653 -0.3060
   72MOL0     C 9852  10.206   3.353   7.569 -0.5037  0.4098  0.6821
   72MOL0     C 9853  10.142   3.017   7.873 -1.1117 -0.6587 -0.2937
   72MOL0     C 9854  10.080   2.900   7.832  0.4810 -0.2352 -0.4964
   72MOL0     C 9855  10.025   2.809   7.920  0.6440  0.7457 -0.0054
   72MOL0     C 9856  10.042   2.831   8.054  0.9523  0.3192  0.0510
   72MOL0     O 9857   9.967   2.740   8.127 -0.0981  0.1088 -0.3068
   72MOL0     C 9858   9.964   2.744   8.269 -0.2628  0.3053  0.3412
   72MOL0     C 9859   9.866   2.634   8.317  0.2685  0.2986 -0.1590
   72MOL0     C 9860   9.807   2.654   8.463 -0.4259  0.0270 -0.0922
   72MOL0     C 9861   9.661   2.684   8.456  0.8387  0.7946 -0.0849
   72MOL0     C 9862   9.574   2.572   8.422 -0.4379 -0.6877  0.1006
   72MOL0     C 9863   9.511   2.485   8.373  1.0620  0.1076 -0.5928
   72MOL0     C 9864  10.103   2.943   8.104 -0.5178 -0.0628 -0.3123
   72MOL0     C 9865  10.161   3.039   8.011 -0.3984 -0.1678 -0.9425
   72MOL0     C 9866  10.229   3.160   8.060 -0.2754  0.4424  0.2442
   72MOL0     H 9867  10.150   3.495   7.880  0.6309  2.7339 -1.0079
   72MOL0     H 9868  10.083   3.681   7.753 -0.8629 -0.5891  0.9987
   72MOL0     H 9869   9.971   3.572   7.364 -0.2051 -0.3152 -0.4838
   72MOL0     H 9870  10.109   3.665   7.303 -0.7468  1.3545 -1.5188
   72MOL0     H 9871  10.003   3.883   7.335  0.8018 -0.6964  0.5070
   72MOL0     H 9872   9.909   3.778   7.225 -1.9876  2.4817  0.8667
   72MOL0     H 9873   9.858   3.873   7.508  0.1517 -1.6467  0.8599
   72MOL0     H 9874   9.776   3.909   7.359  1.8031  1.4986  0.9906
   72MOL0     H 9875   9.702   3.667   7.340  0.3276 -0.7969  0.7122
   72MOL0     H 9876   9.753   3.627   7.503 -0.5258  1.4099  1.9243
   72MOL0     H 9877   9.547   3.855   7.458 -1.6374  0.6557  1.6100
   72MOL0     H 9878   9.619   3.795   7.604 -0.0645 -1.6709  0.4776
   72MOL0     H 9879   9.448   3.616   7.405 -1.6936  1.3962  0.2190
   72MOL0     H 9880   9.541   3.573   7.545  0.5130  0.9607 -0.1753
   72MOL0     H 9881   9.360   3.795   7.598 -0.6853 -0.1873 -2.7562
   72MOL0     H 9882   9.389   3.656   7.702  3.0975  3.4961  0.6276
   72MOL0     H 9883   9.201   3.697   7.459 -0.0682  0.9325  0.2472
   72MOL0     H 9884   9.259   3.536   7.507  4.9242  2.0344 -3.3347
   72MOL0     H 9885   9.044   3.835   7.642 -1.1248  0.4042  0.7069
   72MOL0     H 9886   8.774   3.771   7.766 -2.2498 -0.2983  1.4282
   72MOL0     H 9887   8.876   3.858   7.870 -1.5081  0.9314  0.8948
   72MOL0     H 9888   8.772   3.574   7.927 -0.2306  0.5995 -0.8705
   72MOL0     H 9889   8.853   3.676   8.048 -1.1381 -2.3019  1.5027
   72MOL0     H 9890   8.645   3.834   7.967  0.2000 -0.1023 -2.7174
   72MOL0     H 9891   8.589   3.696   7.891 -0.7332 -0.4867  0.3636
   72MOL0     H 9892   8.491   3.725   8.131 -0.8752 -2.1619  0.8122
   72MOL0     H 9893   8.584   3.569   8.110  3.5732 -0.3022  0.8829
   72MOL0     H 9894   8.798   3.767   8.445  0.2934 -0.3978 -5.8391
   72MOL0     H 9895   8.910   3.660   8.628 -0.1787 -0.9108 -2.0497
   72MOL0     H 9896   8.830   3.595   8.762 -1.7538  0.0854 -1.4851
   72MOL0     H 9897   8.789   3.767   8.715 -0.2515  1.8977 -2.9925
   72MOL0     H 9898   8.481   3.074   8.755 -0.3480  1.5046 -1.6172
   72MOL0     H 9899   8.356   2.957   8.925  0.7432 -0.6464  0.1491
   72MOL0     H 9900   8.307   2.908   9.167  2.3361  1.9467 -4.1582
   72MOL0     H 9901   8.374   3.045   9.241  0.1721 -0.4263 -1.7311
   72MOL0     H 9902   8.098   2.934   9.316 -2.4451  3.3164  0.2079
   72MOL0     H 9903   8.237   2.918   9.419 -2.3642  1.7635  2.6451
   72MOL0     H 9904   8.075   3.173   9.353 -0.8955  1.1259  1.8640
   72MOL0     H 9905   8.234   3.180   9.418  0.7279 -0.9726 -1.3184
   72MOL0     H 9906   8.153   3.087   9.623 -0.3254  0.7314  0.0595
   72MOL0     H 9907   8.019   3.005   9.534  0.1086  0.8919  0.6059
   72MOL0     H 9908   8.025   3.301   9.554  0.1838 -0.0919  0.9025
   72MOL0     H 9909   7.888   3.192   9.528 -0.5212 -0.9323  2.3473
   72MOL0     H 9910   8.047   3.195   9.777 -0.3606 -1.1583  1.1790
   72MOL0     H 9911   7.891   3.111   9.758 -0.2337  0.9850  1.7508
   72MOL0     H 9912   7.772   3.323   9.742  0.6036  1.4705 -0.7492
   72MOL0     H 9913   7.925   3.421   9.735 -0.8174 -0.3361 -1.9380
   72MOL0     H 9914   7.979   3.316   9.963  0.1989 -2.5613 -1.3497
   72MOL0     H 9915   7.821   3.228   9.956 -0.1168 -1.2829 -1.0749
   72MOL0     H 9916   8.257   3.345   9.100 -0.7046 -2.4539  0.2474
   72MOL0     H 9917   8.383   3.461   8.940  2.1838  0.8869 -0.6012
   72MOL0     H 9918   8.441   3.421   8.490  0.0500  0.2043 -1.2576
   72MOL0     H 9919   8.495   3.498   8.287  0.2885 -1.6719  1.0125
   72MOL0     H 9920  10.201   3.477   7.388  1.7680 -2.3009 -0.2617
   72MOL0     H 9921  10.240   3.268   7.511 -1.3094  1.3955 -1.3537
   72MOL0     H 9922  10.062   2.886   7.726 -1.6522 -0.5658 -0.1252
   72MOL0     H 9923   9.972   2.728   7.873  0.7383  0.2476  0.7375
   72MOL0     H 9924  10.064   2.731   8.311  0.1973 -2.1702 -1.3327
   72MOL0     H 9925   9.925   2.837   8.312 -1.0339 -0.3200  1.0370
   72MOL0     H 9926   9.914   2.536   8.323  3.2051  1.6930  1.7659
   72MOL0     H 9927   9.792   2.619   8.239  0.8485 -3.0068 -0.2268
   72MOL0     H 9928   9.822   2.567   8.528 -1.3724 -0.4942 -0.5501
   72MOL0     H 9929   9.857   2.732   8.520  1.4905  0.5476 -2.3153
   72MOL0     H 9930   9.646   2.763   8.381 -0.5875  0.7674  0.1499
   72MOL0     H 9931   9.620   2.712   8.553  2.4330 -0.2352  0.9227
   72MOL0     H 9932   9.455   2.417   8.313 -0.5227  0.1481  0.7690
   72MOL0     H 9933  10.101   2.978   8.207  0.3034 -0.5166 -0.1294
   72MOL0     H 9934  10.320   3.185   8.004 -0.2076  2.4485  1.1609
   72MOL0     H 9935  10.154   3.239   8.055  0.0944  0.8207  0.5409
   72MOL0     H 9936  10.261   3.138   8.162 -0.5533 -0.5056  0.1376
   73MOL0     O 9937   9.598   5.339   8.590 -0.5798  0.2983 -0.1771
   73MOL0     C 9938   9.622   5.457   8.590  0.2201  0.4064  1.1386
   73MOL0     O 9939   9.523   5.550   8.602  0.3322 -0.0088 -0.1316
   73MOL0     C 9940   9.389   5.532   8.632 -0.5339  0.2072 -0.4236
   73MOL0     C 9941   9.332   5.426   8.705 -0.0456  0.6045 -0.0249
   73MOL0     C 9942   9.191   5.412   8.720  0.9212  0.2351  0.0837
   73MOL0     C 9943   9.100   5.518   8.684 -0.8397  0.1400  0.2206
   73MOL0     O 9944   8.962   5.507   8.704 -0.2311 -0.3330 -0.7745
   73MOL0     C 9945   8.884   5.553   8.594 -0.0023  0.3085  0.7856
   73MOL0     C 9946   8.727   5.527   8.601  0.2675 -0.3891  0.2849
   73MOL0     C 9947   8.645   5.595   8.497 -0.8171 -0.9728  0.7488
   73MOL0     C 9948   8.621   5.518   8.365 -0.2778 -0.6036  0.0212
   73MOL0     C 9949   8.525   5.592   8.273  0.0265 -0.3510 -0.4681
   73MOL0     C 9950   8.382   5.585   8.330  0.5582 -0.4221  0.0602
   73MOL0     C 9951   8.279   5.607   8.216 -0.0796 -0.2469 -0.6180
   73MOL0     C 9952   8.276   5.746   8.153  0.1977 -1.0979 -0.0927
   73MOL0     N 9953   8.222   5.843   8.258 -0.5371 -0.3136  0.3666
   73MOL0     C 9954   8.088   5.860   8.306  0.2111 -1.0560 -0.0476
   73MOL0     C 9955   8.098   5.969   8.377  0.1458 -0.3423 -0.1618
   73MOL0     C 9956   7.984   6.029   8.460  0.0240  0.3688 -0.4932
   73MOL0     C 9957   7.880   6.077   8.363 -0.0699 -0.8209  0.2210
   73MOL0     C 9958   7.782   6.175   8.432  0.5587  0.0252 -0.1127
   73MOL0     C 9959   7.693   6.254   8.343 -0.4416  0.6382  0.5008
   73MOL0     O 9960   7.752   6.330   8.245 -0.5351 -0.0088  0.4526
   73MOL0     C 9961   7.666   6.430   8.210  0.4643  0.2584 -0.4343
   73MOL0     C 9962   7.662   6.560   8.261  0.1030  0.3945  0.2615
   73MOL0     C 9963   7.580   6.668   8.204  0.0276  0.6661 -0.1299
   73MOL0     C 9964   7.611   6.810   8.261  1.5510 -0.6158 -0.6081
   73MOL0     C 9965   7.511   6.641   8.086  0.2387 -0.0288  0.9174
   73MOL0     C 9966   7.438   6.747   8.006 -0.7330  0.7221 -0.2648
   73MOL0     O 9967   7.388   6.709   7.886 -0.1528 -0.1755  0.1672
   73MOL0     C 9968   7.367   6.806   7.790 -0.1741  0.0679 -0.2248
   73MOL0     C 9969   7.428   6.932   7.794  0.1776 -0.0513  0.5172
   73MOL0     C 9970   7.399   7.026   7.703 -0.5414  0.1754 -0.0705
   73MOL0     C 9971   7.308   7.002   7.603 -0.1619  1.4607  0.6296
   73MOL0     O 9972   7.301   7.088   7.500 -0.7944  0.0250  0.4318
   73MOL0     C 9973   7.255   7.048   7.370 -0.8002 -0.7165  0.1937
   73MOL0     C 9974   7.290   7.160   7.269 -0.0725  0.0337 -0.5557
   73MOL0     C 9975   7.441   7.164   7.218  0.2797  0.4816  0.0721
   73MOL0     C 9976   7.547   7.208   7.332  0.8453 -0.0471  0.3968
   73MOL0     C 9977   7.689   7.173   7.285 -0.0874  0.6492  0.8681
   73MOL0     C 9978   7.794   7.215   7.393  0.4982 -0.1719  0.1977
   73MOL0     C 9979   7.927   7.162   7.342  0.4980 -0.1125 -0.3202
   73MOL0     C 9980   8.027   7.145   7.461  0.5281  0.5206  0.6701
   73MOL0    Cl 9981   7.994   6.985   7.532  0.1386 -0.3708  0.2952
   73MOL0     C 9982   7.233   6.877   7.601 -0.7179 -0.8921 -0.4134
   73MOL0     C 9983   7.266   6.781   7.705 -0.6374 -0.7578  0.4373
   73MOL0     O 9984   7.423   6.859   8.061  0.5119  0.3647  0.1043
   73MOL0     C 9985   7.511   6.512   8.040  0.3896 -0.5789 -0.3723
   73MOL0     C 9986   7.594   6.404   8.100 -0.5472 -1.4852  0.5169
   73MOL0     N 9987   8.230   6.013   8.396 -0.1894  0.3007 -0.7229
   73MOL0     N 9988   8.299   5.931   8.319 -0.8546  0.6559  0.3980
   73MOL0     C 9989   9.153   5.622   8.609  0.2784  0.5865  0.0875
   73MOL0     C 9990   9.295   5.628   8.584  0.7812 -0.5356  0.2614
   73MOL0     C 9991   9.755   5.505   8.562  0.1841 -0.5267 -0.3545
   73MOL0     C 9992   9.860   5.408   8.562  0.5416 -0.3815 -0.5646
   73MOL0     C 9993   9.994   5.441   8.540  0.3796 -0.2610 -0.1753
   73MOL0     C 9994  10.030   5.577   8.509 -0.7052  0.0314 -0.3339
   73MOL0     O 9995  10.158   5.625   8.514 -0.8791  0.3001 -1.3349
   73MOL0     C 9996  10.250   5.562   8.415  0.4178  0.3269 -0.9471
   73MOL0     C 9997  10.396   5.592   8.454  0.1428  0.0197 -0.2505
   73MOL0     C 9998  10.457   5.506   8.561  0.4990  0.4011 -0.2399
   73MOL0     C 9999  10.606   5.548   8.558 -0.2590  0.2084  0.3343
   73MOL0     C10000  10.673   5.486   8.668  0.1046  0.2896 -0.2869
   73MOL0     C10001  10.712   5.439   8.776 -0.1233 -0.0967  0.1898
   73MOL0     C10002   9.923   5.673   8.489  0.1085 -0.4094  0.2899
   73MOL0     C10003   9.790   5.643   8.524 -0.4691 -0.2923 -0.3811
   73MOL0     C10004   9.697   5.757   8.489  0.9023 -0.7766 -0.7748
   73MOL0     H10005   9.402   5.349   8.736  0.0799  0.2151 -1.1999
   73MOL0     H10006   9.141   5.334   8.776  1.0108 -1.1209 -1.6348
   73MOL0     H10007   8.919   5.504   8.503  1.3410  2.2734  0.1718
   73MOL0     H10008   8.899   5.661   8.583 -0.6551  0.6196  2.6268
   73MOL0     H10009   8.716   5.418   8.600 -0.8283 -0.3266  2.1516
   73MOL0     H10010   8.689   5.558   8.698 -2.1835 -1.4294 -0.2822
   73MOL0     H10011   8.550   5.625   8.542 -0.1877 -1.9288  2.8501
   73MOL0     H10012   8.691   5.689   8.465 -1.5700 -0.3954  1.3468
   73MOL0     H10013   8.720   5.504   8.322  0.2305  0.5803  0.7500
   73MOL0     H10014   8.583   5.418   8.389  1.7695 -1.5372 -0.4697
   73MOL0     H10015   8.522   5.533   8.181 -2.6239 -1.8106  0.4623
   73MOL0     H10016   8.561   5.695   8.269  3.2825 -1.1226  2.9094
   73MOL0     H10017   8.358   5.487   8.372  1.5401 -0.9876 -0.6813
   73MOL0     H10018   8.362   5.662   8.406  1.8981 -0.2905  0.2950
   73MOL0     H10019   8.178   5.596   8.258  1.1954 -0.2632  2.6989
   73MOL0     H10020   8.295   5.534   8.136 -1.5467 -0.3541 -0.8558
   73MOL0     H10021   8.372   5.786   8.121 -0.8179  2.4555  0.7560
   73MOL0     H10022   8.210   5.738   8.067 -1.3654 -0.8566  1.0301
   73MOL0     H10023   7.997   5.803   8.291 -1.0315  1.0590 -0.8875
   73MOL0     H10024   8.025   6.109   8.523  1.2534 -0.5426 -0.0908
   73MOL0     H10025   7.942   5.960   8.534  2.9213  0.2781  1.2087
   73MOL0     H10026   7.926   6.137   8.285 -3.9229  1.7479 -0.3762
   73MOL0     H10027   7.835   6.001   8.297 -0.0914  0.2786 -1.0698
   73MOL0     H10028   7.718   6.121   8.503  1.2210 -1.1397 -0.3718
   73MOL0     H10029   7.843   6.241   8.494 -0.8971  0.7542  0.5932
   73MOL0     H10030   7.622   6.178   8.309  2.4859 -2.2156  0.2229
   73MOL0     H10031   7.635   6.319   8.408 -1.2258 -0.1869  0.6515
   73MOL0     H10032   7.724   6.592   8.344 -1.6796  0.7594  1.5110
   73MOL0     H10033   7.631   6.886   8.185  1.1201  2.9978  2.5271
   73MOL0     H10034   7.690   6.806   8.337  0.6041 -0.4580  0.4271
   73MOL0     H10035   7.515   6.838   8.307  1.4194 -2.4487  0.3142
   73MOL0     H10036   7.494   6.958   7.876 -1.3115  0.6119  1.5503
   73MOL0     H10037   7.446   7.124   7.706 -1.1740  0.5016  3.6193
   73MOL0     H10038   7.295   6.949   7.344  0.8403 -0.0927  0.2046
   73MOL0     H10039   7.146   7.041   7.377 -1.1699  2.6105 -0.5683
   73MOL0     H10040   7.225   7.152   7.182 -1.1043  2.9315 -0.1829
   73MOL0     H10041   7.271   7.259   7.311 -1.9526  1.1422 -3.6798
   73MOL0     H10042   7.452   7.234   7.134 -0.6813 -1.0445 -1.3799
   73MOL0     H10043   7.457   7.063   7.179 -1.8037 -0.2233  0.9432
   73MOL0     H10044   7.521   7.155   7.424  1.6505 -1.0201  0.0718
   73MOL0     H10045   7.546   7.316   7.353 -0.1792 -0.0705  0.4993
   73MOL0     H10046   7.696   7.071   7.246  0.6899  0.4743  1.4290
   73MOL0     H10047   7.700   7.244   7.203  0.8224  1.6301  1.8037
   73MOL0     H10048   7.782   7.152   7.481  1.9361 -1.8781 -0.7637
   73MOL0     H10049   7.804   7.322   7.409  3.7619 -0.6943  2.4114
   73MOL0     H10050   7.982   7.211   7.262 -0.3867  1.1337 -0.1953
   73MOL0     H10051   7.909   7.061   7.306 -4.0500 -0.6893  2.6807
   73MOL0     H10052   8.005   7.225   7.534  3.0737  1.0666  0.9538
   73MOL0     H10053   8.130   7.159   7.428  1.5908 -0.5378  3.2463
   73MOL0     H10054   7.156   6.868   7.525 -2.5217  2.6319  0.7332
   73MOL0     H10055   7.213   6.685   7.703 -1.0869 -0.5077  0.0096
   73MOL0     H10056   7.451   6.493   7.951  0.6412  0.0318 -0.6723
   73MOL0     H10057   7.601   6.306   8.055 -2.0632 -1.2579 -0.2570
   73MOL0     H10058   9.083   5.699   8.579 -2.4499 -1.6982  0.1502
   73MOL0     H10059   9.345   5.712   8.538  0.4457 -0.7155 -0.4319
   73MOL0     H10060   9.830   5.315   8.609 -0.1549 -0.4207 -1.0700
   73MOL0     H10061  10.072   5.372   8.567  0.5190  0.2539  0.7616
   73MOL0     H10062  10.236   5.454   8.409 -1.0500  0.5419 -1.8628
   73MOL0     H10063  10.217   5.593   8.315  0.0024 -1.5574 -1.4240
   73MOL0     H10064  10.408   5.698   8.479  2.6273 -0.6421  1.7452
   73MOL0     H10065  10.449   5.583   8.359 -2.6123 -0.6009 -1.8463
   73MOL0     H10066  10.400   5.524   8.652 -1.5557 -0.0864 -1.3610
   73MOL0     H10067  10.448   5.402   8.529 -0.3939  0.4146 -0.0429
   73MOL0     H10068  10.622   5.653   8.582 -1.0043 -0.0695  2.2559
   73MOL0     H10069  10.653   5.509   8.468  1.1572 -4.0056  2.6094
   73MOL0     H10070  10.752   5.409   8.871 -3.0728 -0.6351  1.3815
   73MOL0     H10071   9.957   5.772   8.461 -0.0422 -0.8970 -1.7388
   73MOL0     H10072   9.611   5.708   8.443 -0.8726 -1.5962  3.0596
   73MOL0     H10073   9.655   5.815   8.571  2.7787 -1.5034  0.7846
   73MOL0     H10074   9.729   5.829   8.414 -2.6405  2.9243  0.9083
   74MOL0     O10075  11.194   1.635   3.198 -0.1258 -1.1703 -0.1180
   74MOL0     C10076  11.115   1.696   3.270  0.5116 -0.3486  0.2297
   74MOL0     O10077  11.121   1.834   3.303  0.3317  0.4692  0.2013
   74MOL0     C10078  11.230   1.904   3.244 -1.3182  0.7460 -0.2474
   74MOL0     C10079  11.290   1.997   3.335 -0.6701  0.2395  0.4536
   74MOL0     C10080  11.392   2.088   3.293 -0.7690  0.4964  0.6540
   74MOL0     C10081  11.428   2.078   3.161 -0.1333 -0.2710  0.2311
   74MOL0     O10082  11.520   2.166   3.100 -0.2478 -0.0727 -0.2142
   74MOL0     C10083  11.638   2.208   3.175  0.6865 -0.5779 -0.2342
   74MOL0     C10084  11.605   2.341   3.246  0.5162  0.4949 -0.0954
   74MOL0     C10085  11.662   2.458   3.165  0.0223  0.7456 -0.5517
   74MOL0     C10086  11.643   2.593   3.218  0.5357 -0.7917 -0.2195
   74MOL0     C10087  11.492   2.635   3.219  0.6505 -0.4784  0.2025
   74MOL0     C10088  11.454   2.784   3.175  0.2200 -0.2533 -0.4080
   74MOL0     C10089  11.530   2.875   3.272  0.0902  0.4563 -0.1490
   74MOL0     C10090  11.492   3.018   3.245 -0.6239  0.4311  0.4993
   74MOL0     N10091  11.599   3.108   3.303  0.4363  0.2947 -0.3811
   74MOL0     C10092  11.593   3.188   3.419 -0.3197  0.4116 -0.0155
   74MOL0     C10093  11.715   3.251   3.421 -0.8062  0.0077  0.2644
   74MOL0     C10094  11.748   3.352   3.527  0.1018 -0.3756  0.0822
   74MOL0     C10095  11.837   3.296   3.640 -0.2227 -0.4889  0.5902
   74MOL0     C10096  11.970   3.238   3.583  0.9032 -0.3492  0.2617
   74MOL0     C10097  12.051   3.186   3.695  0.4248  0.2019 -0.5233
   74MOL0     O10098  12.190   3.177   3.681  0.2449  0.6065 -0.3201
   74MOL0     C10099  12.266   3.112   3.781  0.8254  0.3550  0.1599
   74MOL0     C10100  12.222   3.077   3.910  0.5154  1.0615  0.1751
   74MOL0     C10101  12.311   3.035   4.011  0.2597  0.0188  0.4403
   74MOL0     C10102  12.258   3.037   4.153 -0.4516 -1.1625  0.0951
   74MOL0     C10103  12.446   3.004   3.982 -0.6199 -0.1801  0.8351
   74MOL0     C10104  12.553   2.955   4.075 -0.3195 -1.1725 -0.9534
   74MOL0     O10105  12.684   2.945   4.027  0.3724 -0.0799  0.2657
   74MOL0     C10106  12.787   2.921   4.109  0.5287 -0.8486  0.2316
   74MOL0     C10107  12.790   2.823   4.200 -0.1397  0.3551 -0.3789
   74MOL0     C10108  12.910   2.787   4.264 -0.3916 -0.1965  0.3590
   74MOL0     C10109  13.027   2.850   4.233 -0.7164  0.1140  0.8082
   74MOL0     O10110  13.151   2.821   4.274 -0.0363  0.1673  0.3576
   74MOL0     C10111  13.172   2.749   4.394 -0.2003  0.3101  0.5810
   74MOL0     C10112  13.321   2.712   4.416  0.3167 -0.4489 -0.2890
   74MOL0     C10113  13.366   2.588   4.355  1.1552 -0.5895  0.5273
   74MOL0     C10114  13.492   2.537   4.427  0.3326  0.7726  0.3136
   74MOL0     C10115  13.611   2.631   4.414 -1.2656 -0.4416 -0.2931
   74MOL0     C10116  13.736   2.561   4.457  0.0266 -0.1705 -0.1818
   74MOL0     C10117  13.850   2.667   4.478 -0.4464 -0.5178  0.1332
   74MOL0     C10118  13.920   2.724   4.344  0.4194  0.3823  0.0890
   74MOL0    Cl10119  14.039   2.834   4.412 -0.2240 -0.7046  0.1293
   74MOL0     C10120  13.021   2.957   4.146 -0.5139 -0.4518  0.1083
   74MOL0     C10121  12.904   2.994   4.084 -0.4877  0.2084  0.2527
   74MOL0     O10122  12.518   2.926   4.196  0.1522  0.2784  0.4360
   74MOL0     C10123  12.492   3.052   3.859  0.4426 -0.4335 -1.2189
   74MOL0     C10124  12.400   3.099   3.757 -0.4030  0.3277  0.4748
   74MOL0     N10125  11.780   3.223   3.307 -0.2122  0.7766 -0.0443
   74MOL0     N10126  11.708   3.143   3.238 -0.6745  0.1404  0.0931
   74MOL0     C10127  11.384   1.986   3.079  0.8436  0.2087 -0.1032
   74MOL0     C10128  11.292   1.886   3.122 -1.2236  0.2120 -0.1670
   74MOL0     C10129  11.008   1.612   3.321 -0.6373 -0.2864  0.0511
   74MOL0     C10130  11.049   1.510   3.402  0.7190 -0.1367  0.9106
   74MOL0     C10131  10.957   1.412   3.450  1.4261  0.1868 -1.2384
   74MOL0     C10132  10.819   1.415   3.418  0.0913 -0.2506  0.5129
   74MOL0     O10133  10.723   1.317   3.453  0.2015  0.0921  0.9105
   74MOL0     C10134  10.770   1.192   3.519  0.0876 -0.2034  1.0009
   74MOL0     C10135  10.650   1.096   3.535  0.4522  0.2504  0.9747
   74MOL0     C10136  10.591   1.143   3.657 -0.2833  0.9680 -0.2746
   74MOL0     C10137  10.474   1.055   3.694  0.1615 -0.1658 -0.7109
   74MOL0     C10138  10.451   1.077   3.833  1.6795 -0.6718  0.0617
   74MOL0     C10139  10.441   1.091   3.953  1.1553  0.6848 -0.0709
   74MOL0     C10140  10.777   1.525   3.340  0.6961 -0.8823 -0.2339
   74MOL0     C10141  10.869   1.631   3.306  0.5074  0.5252 -0.3436
   74MOL0     C10142  10.811   1.764   3.270 -0.3303  0.1267 -0.3175
   74MOL0     H10143  11.253   2.007   3.437  1.4802  2.4565  1.0956
   74MOL0     H10144  11.423   2.161   3.367 -2.3533  1.6050  0.2854
   74MOL0     H10145  11.726   2.214   3.110  2.2490 -0.0256  1.8138
   74MOL0     H10146  11.682   2.134   3.243  4.3631  2.8444  1.6172
   74MOL0     H10147  11.498   2.364   3.249  0.3004 -0.0512 -2.2808
   74MOL0     H10148  11.652   2.332   3.345 -0.8529 -1.7137  0.4322
   74MOL0     H10149  11.767   2.433   3.145 -0.0830 -0.5606  0.3594
   74MOL0     H10150  11.616   2.454   3.066 -2.4915 -1.9334  0.5792
   74MOL0     H10151  11.690   2.596   3.317 -0.2113  3.5225  0.2109
   74MOL0     H10152  11.705   2.665   3.163  0.1305 -0.2091  0.0736
   74MOL0     H10153  11.442   2.615   3.314 -0.0675  1.7155  0.3450
   74MOL0     H10154  11.440   2.569   3.149  0.2534  1.3478 -1.2994
   74MOL0     H10155  11.484   2.794   3.070 -3.9353  0.8482 -1.6596
   74MOL0     H10156  11.346   2.793   3.175  0.1480 -0.1883  2.3681
   74MOL0     H10157  11.638   2.878   3.251 -0.1621  2.5759 -1.4966
   74MOL0     H10158  11.507   2.837   3.371  0.3709 -0.2153 -0.3395
   74MOL0     H10159  11.490   3.035   3.137  0.0204 -4.2362 -0.4593
   74MOL0     H10160  11.389   3.036   3.276 -0.9053  0.1141 -0.2284
   74MOL0     H10161  11.527   3.181   3.505  0.5469  0.7361  0.6924
   74MOL0     H10162  11.652   3.392   3.560  0.1149  0.0531 -0.3835
   74MOL0     H10163  11.790   3.445   3.486 -0.1229  1.5900  3.8713
   74MOL0     H10164  11.843   3.373   3.717  0.1347  1.2416 -1.1159
   74MOL0     H10165  11.788   3.213   3.692 -1.0137 -0.1342  0.4187
   74MOL0     H10166  11.957   3.166   3.503 -1.8281  1.8547 -1.4654
   74MOL0     H10167  12.033   3.312   3.533 -1.1873  1.2023 -0.2236
   74MOL0     H10168  12.019   3.244   3.782 -1.8557  0.3137 -1.3738
   74MOL0     H10169  12.008   3.089   3.722 -0.1150  1.1471  2.4753
   74MOL0     H10170  12.117   3.086   3.934 -0.0717 -2.5090 -0.4319
   74MOL0     H10171  12.323   3.093   4.220  3.4268 -0.5723 -3.6864
   74MOL0     H10172  12.254   2.932   4.184 -1.4675 -0.6723  1.7744
   74MOL0     H10173  12.157   3.077   4.145 -0.5974 -1.8751 -3.5810
   74MOL0     H10174  12.701   2.766   4.223  1.3455 -1.3574  1.4104
   74MOL0     H10175  12.913   2.711   4.342 -0.2967 -0.5014  0.0595
   74MOL0     H10176  13.135   2.810   4.477 -3.0977 -0.8606  0.2779
   74MOL0     H10177  13.123   2.651   4.399  0.8136 -0.1931  0.8164
   74MOL0     H10178  13.377   2.793   4.368  0.7083 -1.3492 -1.3973
   74MOL0     H10179  13.334   2.713   4.525  0.3325  3.0969 -0.1993
   74MOL0     H10180  13.374   2.614   4.249 -1.1256 -2.0181 -0.0708
   74MOL0     H10181  13.298   2.503   4.365 -0.2506  0.1440 -1.9002
   74MOL0     H10182  13.519   2.447   4.370 -1.6246  0.9515 -1.0106
   74MOL0     H10183  13.465   2.515   4.530  0.0306  0.8283  0.2464
   74MOL0     H10184  13.608   2.684   4.319 -1.2603 -0.7675 -0.4755
   74MOL0     H10185  13.590   2.719   4.476 -0.1775  0.2322 -0.8406
   74MOL0     H10186  13.753   2.481   4.385 -2.6828  0.1326 -1.2882
   74MOL0     H10187  13.713   2.512   4.552  0.7808  0.7912  0.5213
   74MOL0     H10188  13.919   2.632   4.557 -2.2642 -1.8484  1.2145
   74MOL0     H10189  13.810   2.757   4.524  1.2802  3.0622 -4.5938
   74MOL0     H10190  13.861   2.776   4.268  2.9859  0.0096 -2.3341
   74MOL0     H10191  13.959   2.637   4.290  0.8183 -1.6402  3.4014
   74MOL0     H10192  13.115   3.007   4.125  0.1277 -0.9813  1.5476
   74MOL0     H10193  12.904   3.075   4.011  0.3348 -0.3517 -0.3860
   74MOL0     H10194  12.596   3.071   3.835  0.4341 -2.4098 -3.0895
   74MOL0     H10195  12.432   3.142   3.663  2.4210  0.5965  1.4715
   74MOL0     H10196  11.413   1.967   2.976 -1.0120 -0.6626 -0.4978
   74MOL0     H10197  11.270   1.808   3.050 -1.4652  2.0848 -2.1980
   74MOL0     H10198  11.151   1.501   3.437  0.6568  2.2710  1.8748
   74MOL0     H10199  10.996   1.329   3.507 -1.3107 -0.2864  0.0928
   74MOL0     H10200  10.835   1.155   3.439  0.7304  0.8693  1.0111
   74MOL0     H10201  10.834   1.212   3.605  1.0129 -1.0017  0.5168
   74MOL0     H10202  10.697   0.997   3.538 -2.7597 -1.4392 -0.0983
   74MOL0     H10203  10.581   1.101   3.450  1.1655 -0.2787  0.3494
   74MOL0     H10204  10.667   1.136   3.736 -1.0905  0.2718  0.4659
   74MOL0     H10205  10.572   1.251   3.656  1.6120  1.3941  1.5128
   74MOL0     H10206  10.493   0.950   3.668 -0.7658 -0.7387  0.7544
   74MOL0     H10207  10.390   1.077   3.627  2.5158 -1.3859 -4.3675
   74MOL0     H10208  10.427   1.098   4.059  1.6216 -2.7256  0.3572
   74MOL0     H10209  10.670   1.537   3.332  0.5899 -2.2756 -1.3353
   74MOL0     H10210  10.878   1.848   3.292 -1.0995  0.9616 -1.0480
   74MOL0     H10211  10.787   1.766   3.163 -2.9943 -2.9487  0.0792
   74MOL0     H10212  10.718   1.788   3.323 -0.1888 -2.7270  1.3894
   75MOL0     O10213   8.742   5.565   7.503  1.2300 -0.1070 -0.1303
   75MOL0     C10214   8.779   5.489   7.596 -0.5223  0.5548  1.5611
   75MOL0     O10215   8.715   5.466   7.715  0.2277 -0.6630  0.3120
   75MOL0     C10216   8.600   5.515   7.744  0.5950  0.0040 -0.1176
   75MOL0     C10217   8.530   5.620   7.682  0.8076 -0.6466 -0.0552
   75MOL0     C10218   8.393   5.647   7.705  0.3766  0.3857  0.5753
   75MOL0     C10219   8.321   5.571   7.793  1.2636 -0.3110  0.5747
   75MOL0     O10220   8.200   5.622   7.815  0.2623 -0.3688  0.3848
   75MOL0     C10221   8.093   5.557   7.888 -0.6924 -0.4996 -0.1084
   75MOL0     C10222   8.020   5.466   7.789  0.1601  0.5289  0.1741
   75MOL0     C10223   8.019   5.317   7.823 -0.0596 -0.3974  0.0992
   75MOL0     C10224   7.943   5.277   7.948  0.6772 -0.1302 -0.5340
   75MOL0     C10225   7.941   5.126   7.973  1.1260 -0.8652  0.3658
   75MOL0     C10226   8.075   5.086   8.047 -0.2036 -0.3803 -0.4584
   75MOL0     C10227   8.095   5.131   8.196  0.0073  0.3999 -0.0958
   75MOL0     C10228   8.226   5.214   8.206  0.0042  0.0626 -0.1628
   75MOL0     N10229   8.349   5.133   8.159  1.2280 -0.8645 -0.2228
   75MOL0     C10230   8.413   5.034   8.227  0.2408  0.3489 -0.2784
   75MOL0     C10231   8.544   5.030   8.174  0.5149  0.3136 -0.6799
   75MOL0     C10232   8.652   4.938   8.226 -0.6443  0.0405 -0.8521
   75MOL0     C10233   8.702   4.978   8.364  0.3963 -0.2664  0.1092
   75MOL0     C10234   8.767   5.124   8.350  0.6740 -0.5609 -0.9316
   75MOL0     C10235   8.861   5.146   8.470 -0.9384 -0.0978 -0.2000
   75MOL0     O10236   8.795   5.150   8.596  0.6278 -0.3166 -0.6449
   75MOL0     C10237   8.875   5.159   8.712  0.2559 -0.4782 -0.0167
   75MOL0     C10238   8.990   5.078   8.732 -0.1391  0.4828  0.6367
   75MOL0     C10239   9.045   5.052   8.861 -0.9114  0.7406 -0.1583
   75MOL0     C10240   9.167   4.956   8.875 -0.6492  0.2426  0.1905
   75MOL0     C10241   8.981   5.124   8.969 -0.0474 -0.3139  0.4364
   75MOL0     C10242   9.011   5.092   9.113  0.5614  0.1342  0.2966
   75MOL0     O10243   8.919   5.096   9.216 -0.1187 -0.2820  0.5721
   75MOL0     C10244   8.941   5.094   9.347  0.2471  0.2166 -0.2539
   75MOL0     C10245   8.828   5.069   9.424  0.5226  0.5489  0.1549
   75MOL0     C10246   8.823   5.094   9.561  0.6411 -0.0092 -0.0066
   75MOL0     C10247   8.931   5.139   9.636  0.5744 -0.3717  0.2814
   75MOL0     O10248   8.923   5.174   9.768 -0.3274  0.2762  0.4002
   75MOL0     C10249   8.788   5.174   9.823  0.0369  0.1417 -0.2873
   75MOL0     C10250   8.810   5.195   9.977  0.3391  0.2492  0.4893
   75MOL0     C10251   8.683   5.190  10.050 -0.2131  0.2471  1.2772
   75MOL0     C10252   8.715   5.183  10.201  0.1925  0.6631  0.1936
   75MOL0     C10253   8.785   5.310  10.248  0.5646 -0.6843 -0.5699
   75MOL0     C10254   8.682   5.423  10.287  0.6880  0.8914  0.6105
   75MOL0     C10255   8.756   5.533  10.358 -0.0891 -0.1418 -0.0110
   75MOL0     C10256   8.656   5.647  10.408 -0.2407  0.6155 -0.0039
   75MOL0    Cl10257   8.563   5.715  10.265 -0.1263  0.1823 -0.2239
   75MOL0     C10258   9.049   5.161   9.557 -0.1861  0.4544 -0.2347
   75MOL0     C10259   9.056   5.132   9.418 -0.1470  0.6090 -0.4406
   75MOL0     O10260   9.134   5.077   9.128  0.2562  0.2564  0.1198
   75MOL0     C10261   8.882   5.220   8.943  0.3671  0.6220 -0.0152
   75MOL0     C10262   8.826   5.240   8.812 -0.0925  0.5587  0.5305
   75MOL0     N10263   8.543   5.117   8.066  0.5306 -1.0648 -0.4608
   75MOL0     N10264   8.437   5.190   8.067 -0.6334 -0.1515  0.3318
   75MOL0     C10265   8.383   5.466   7.860  0.1979  0.9378 -0.0376
   75MOL0     C10266   8.516   5.442   7.834  0.6234  0.7161  0.7732
   75MOL0     C10267   8.906   5.406   7.580  0.9561 -0.2186  0.4473
   75MOL0     C10268   8.956   5.329   7.687 -0.5411  0.0228  0.0858
   75MOL0     C10269   9.084   5.282   7.684 -0.0825  0.2814  0.1830
   75MOL0     C10270   9.159   5.291   7.567  0.0236  0.4315 -0.8321
   75MOL0     O10271   9.292   5.257   7.554  0.4645 -1.0823 -0.0217
   75MOL0     C10272   9.383   5.304   7.658 -0.8834 -0.0701 -0.0130
   75MOL0     C10273   9.513   5.323   7.582  0.6407  0.0585  0.1105
   75MOL0     C10274   9.625   5.314   7.681  0.0370  0.2943 -0.3753
   75MOL0     C10275   9.761   5.288   7.612  0.3564 -0.1919 -0.1666
   75MOL0     C10276   9.847   5.268   7.728  0.1702 -0.1554  0.3658
   75MOL0     C10277   9.920   5.265   7.830  0.7420  1.1457 -0.3926
   75MOL0     C10278   9.109   5.358   7.460 -0.5706  0.7973 -0.1838
   75MOL0     C10279   8.985   5.411   7.457  0.7242  0.2549 -1.1855
   75MOL0     C10280   8.959   5.482   7.327  0.7183  0.0647  0.3644
   75MOL0     H10281   8.568   5.683   7.602 -0.3888  0.8245  0.4884
   75MOL0     H10282   8.349   5.740   7.668 -0.9466 -0.9731 -1.4677
   75MOL0     H10283   8.019   5.630   7.921  0.4556  1.1966 -1.1309
   75MOL0     H10284   8.125   5.500   7.976  0.2732 -1.6932 -1.1880
   75MOL0     H10285   7.916   5.502   7.787  0.1170  0.4144  0.4358
   75MOL0     H10286   8.059   5.480   7.687  2.5582 -1.4743  0.7277
   75MOL0     H10287   7.976   5.269   7.735 -0.2734  1.9144 -1.1414
   75MOL0     H10288   8.122   5.284   7.835  0.8060  1.2076 -2.2998
   75MOL0     H10289   7.975   5.322   8.043 -1.4714 -1.9309  1.1622
   75MOL0     H10290   7.844   5.317   7.921  1.3548  0.6350 -2.0274
   75MOL0     H10291   7.917   5.081   7.877 -0.4579 -0.5500  0.5792
   75MOL0     H10292   7.863   5.106   8.047  2.2172 -0.2998  1.7276
   75MOL0     H10293   8.066   4.977   8.053 -1.7078 -0.2871 -0.6364
   75MOL0     H10294   8.166   5.111   7.992  1.0640  0.8466  2.0619
   75MOL0     H10295   8.117   5.043   8.257 -2.4011 -0.6717 -0.6658
   75MOL0     H10296   8.001   5.172   8.235  0.6015  0.0017  1.8990
   75MOL0     H10297   8.213   5.300   8.139  2.9770  0.4151 -0.4402
   75MOL0     H10298   8.234   5.260   8.305  3.1145  1.8167 -1.0703
   75MOL0     H10299   8.369   4.971   8.304 -0.6922 -1.9642 -2.5359
   75MOL0     H10300   8.734   4.947   8.154  1.1896  0.7371  1.2045
   75MOL0     H10301   8.608   4.838   8.225  0.9184 -0.6764 -0.5636
   75MOL0     H10302   8.630   4.968   8.446  0.2312  0.2818  0.0372
   75MOL0     H10303   8.788   4.914   8.383  1.8651  1.3194 -0.8838
   75MOL0     H10304   8.820   5.132   8.254  1.3437 -1.4780 -0.6575
   75MOL0     H10305   8.688   5.199   8.351 -0.9532 -2.1901 -1.5957
   75MOL0     H10306   8.935   5.065   8.471  2.6025  2.8760 -1.1261
   75MOL0     H10307   8.930   5.230   8.459 -1.1999 -0.0867 -2.2606
   75MOL0     H10308   9.020   5.018   8.647 -0.4556  2.3007 -0.8193
   75MOL0     H10309   9.259   5.008   8.904 -1.0259  0.5544  0.8437
   75MOL0     H10310   9.186   4.911   8.777 -1.2345  1.7745 -0.6588
   75MOL0     H10311   9.143   4.881   8.951  0.8595 -1.5369 -1.0041
   75MOL0     H10312   8.734   5.049   9.373  1.2124  0.7056 -1.2569
   75MOL0     H10313   8.720   5.090   9.597  0.1004  0.5357 -1.4354
   75MOL0     H10314   8.729   5.256   9.782 -0.5225 -0.6011 -1.0060
   75MOL0     H10315   8.730   5.083   9.804 -2.4156  1.3980  0.6893
   75MOL0     H10316   8.876   5.115  10.011 -0.1976  0.8222  3.0943
   75MOL0     H10317   8.867   5.288   9.988  1.9399 -0.9189  2.8431
   75MOL0     H10318   8.623   5.102  10.023 -0.3759  1.1498 -1.6531
   75MOL0     H10319   8.623   5.281  10.044  1.8510  1.7222 -5.0867
   75MOL0     H10320   8.769   5.093  10.231 -2.1630 -0.9097  0.0075
   75MOL0     H10321   8.621   5.161  10.252  0.6259 -2.8663 -0.2593
   75MOL0     H10322   8.835   5.298  10.344  1.3981 -5.0253 -1.3430
   75MOL0     H10323   8.855   5.357  10.179 -1.3726  0.8474 -1.6081
   75MOL0     H10324   8.598   5.381  10.342 -2.5136  3.9915 -1.4196
   75MOL0     H10325   8.640   5.455  10.191 -2.1999  0.4553  1.6378
   75MOL0     H10326   8.832   5.578  10.294  1.4459 -2.9682 -0.3304
   75MOL0     H10327   8.803   5.485  10.444 -0.6956 -2.5465 -0.9379
   75MOL0     H10328   8.714   5.729  10.452  1.3055 -2.3107  3.9672
   75MOL0     H10329   8.588   5.611  10.486 -1.6684 -2.2026 -2.3562
   75MOL0     H10330   9.138   5.185   9.614 -1.0119 -0.1252  1.3575
   75MOL0     H10331   9.140   5.162   9.357 -1.0975  1.8569 -1.1815
   75MOL0     H10332   8.842   5.280   9.024 -1.4082  0.5075 -0.7706
   75MOL0     H10333   8.736   5.300   8.805  1.0093  2.2202  0.0436
   75MOL0     H10334   8.322   5.400   7.920  2.4410 -1.1001  0.1812
   75MOL0     H10335   8.555   5.354   7.885  1.1748  1.5314  1.7846
   75MOL0     H10336   8.894   5.326   7.776 -1.0559  1.0267 -0.2235
   75MOL0     H10337   9.134   5.223   7.761  1.3886 -1.0734 -1.7143
   75MOL0     H10338   9.339   5.393   7.703 -3.3574 -1.6475  0.8871
   75MOL0     H10339   9.399   5.236   7.742  0.5427  1.4604  1.0033
   75MOL0     H10340   9.513   5.423   7.537  2.5183 -1.8032 -4.6570
   75MOL0     H10341   9.517   5.241   7.510  3.4885 -2.3449  2.7390
   75MOL0     H10342   9.624   5.407   7.738 -0.6968 -0.6519  1.2433
   75MOL0     H10343   9.607   5.232   7.752  2.3376 -0.3323 -0.4067
   75MOL0     H10344   9.791   5.379   7.561 -3.1099  2.1776  1.5958
   75MOL0     H10345   9.745   5.197   7.553 -0.2570 -0.3717  0.2667
   75MOL0     H10346   9.978   5.280   7.919  1.0786  1.4011 -0.6512
   75MOL0     H10347   9.184   5.367   7.382 -0.4181  0.8749 -0.0262
   75MOL0     H10348   9.011   5.578   7.326  2.4449 -0.8230 -0.2645
   75MOL0     H10349   8.986   5.421   7.240 -2.4126 -1.0814  0.0785
   75MOL0     H10350   8.853   5.493   7.302  0.9191 -1.6732 -1.5766
   76MOL0     O10351   6.267   6.878   6.986 -0.1239 -0.4368 -0.9273
   76MOL0     C10352   6.228   6.987   6.945  0.4860 -0.6486 -0.4811
   76MOL0     O10353   6.170   7.006   6.821 -0.6188  0.5027 -0.8181
   76MOL0     C10354   6.110   6.905   6.763 -0.4011  0.0112 -0.1204
   76MOL0     C10355   5.972   6.922   6.772  0.0919 -0.1154  0.3940
   76MOL0     C10356   5.892   6.826   6.713  0.7069  0.5453  0.5757
   76MOL0     C10357   5.947   6.714   6.637  0.3973  0.4535  0.0560
   76MOL0     O10358   5.868   6.626   6.578  1.3440 -0.8477 -0.1921
   76MOL0     C10359   5.879   6.490   6.619  0.5099 -0.3153 -0.7047
   76MOL0     C10360   5.743   6.417   6.589  0.6473  0.2250  0.1447
   76MOL0     C10361   5.722   6.389   6.443 -0.2436  0.1633 -0.1019
   76MOL0     C10362   5.821   6.282   6.371  0.0089  0.0771 -0.0566
   76MOL0     C10363   5.811   6.127   6.413  0.3529  0.0485  0.6796
   76MOL0     C10364   5.883   6.034   6.304  0.0611 -0.2756  0.2873
   76MOL0     C10365   6.042   6.032   6.306 -0.9726  0.7518  0.4039
   76MOL0     C10366   6.101   5.966   6.425  0.0381  0.1550 -0.1529
   76MOL0     N10367   6.246   5.940   6.407 -0.6784  0.7499  0.3644
   76MOL0     C10368   6.329   6.028   6.350 -0.5305 -0.0510 -0.1443
   76MOL0     C10369   6.452   5.972   6.327 -0.2215  0.9769 -0.2623
   76MOL0     C10370   6.570   6.035   6.246 -0.2447  0.5356  0.0075
   76MOL0     C10371   6.523   6.070   6.103  0.2121  0.0575  0.4987
   76MOL0     C10372   6.488   5.934   6.036  0.3163  0.0459 -0.0554
   76MOL0     C10373   6.438   5.966   5.896 -0.2149  0.8925 -0.6569
   76MOL0     O10374   6.345   5.857   5.854 -0.2514 -0.9766  0.1705
   76MOL0     C10375   6.218   5.864   5.909 -0.3009  0.8939 -0.4803
   76MOL0     C10376   6.172   5.751   5.969  0.2361  0.0150 -0.8698
   76MOL0     C10377   6.040   5.734   6.006 -0.2489  0.7020 -0.1285
   76MOL0     C10378   6.009   5.600   6.075 -0.1410 -0.5808 -0.5889
   76MOL0     C10379   5.944   5.841   5.964 -0.1214  0.6870  1.0090
   76MOL0     C10380   5.804   5.846   6.004 -0.5846 -0.1096 -0.0737
   76MOL0     O10381   5.753   5.745   6.083  0.1898  0.6382  0.7315
   76MOL0     C10382   5.620   5.763   6.095  0.6250 -0.7246  0.4478
   76MOL0     C10383   5.557   5.840   6.195  0.0670  0.3306  0.0173
   76MOL0     C10384   5.418   5.855   6.189  0.4223  0.0741 -0.1589
   76MOL0     C10385   5.337   5.782   6.093 -0.5883 -1.0836  0.1040
   76MOL0     O10386   5.204   5.769   6.104  0.1594 -0.3531 -0.0624
   76MOL0     C10387   5.125   5.859   6.189 -0.3580  0.7607  0.2161
   76MOL0     C10388   4.978   5.841   6.154 -0.7681 -0.2369 -1.0169
   76MOL0     C10389   4.951   5.813   6.007  1.3953 -0.2787  0.5392
   76MOL0     C10390   5.023   5.895   5.904  0.0121  0.1089  0.0220
   76MOL0     C10391   4.977   5.865   5.760  0.1458 -0.3071 -0.1966
   76MOL0     C10392   5.063   5.919   5.639  0.3486  0.3133 -0.5072
   76MOL0     C10393   4.977   5.920   5.513  0.2448 -0.6242  0.5078
   76MOL0     C10394   5.067   5.940   5.396 -0.6923 -1.2764 -0.1172
   76MOL0    Cl10395   4.979   5.915   5.237  0.0181 -0.2708 -0.1429
   76MOL0     C10396   5.405   5.711   5.995  0.9663  0.0644 -0.4864
   76MOL0     C10397   5.539   5.704   5.991  0.0889  1.1435  0.2923
   76MOL0     O10398   5.742   5.941   5.959 -0.2981 -0.5361 -0.2222
   76MOL0     C10399   5.994   5.947   5.881 -0.4024 -0.0577 -0.6029
   76MOL0     C10400   6.132   5.956   5.852  0.2999 -0.7262  1.0748
   76MOL0     N10401   6.436   5.843   6.385 -0.7300  0.5139  0.6070
   76MOL0     N10402   6.317   5.820   6.426  0.1551 -0.0419  0.4184
   76MOL0     C10403   6.086   6.708   6.630  0.5727  0.0496 -0.2889
   76MOL0     C10404   6.174   6.802   6.695 -0.3728 -0.9011  0.2086
   76MOL0     C10405   6.236   7.113   7.023 -0.1365  0.2942  1.0240
   76MOL0     C10406   6.264   7.223   6.934 -0.4836 -0.3010  0.4166
   76MOL0     C10407   6.281   7.355   6.993  0.2992 -0.0800 -0.2916
   76MOL0     C10408   6.271   7.376   7.129  0.3140  0.0212 -0.5053
   76MOL0     O10409   6.274   7.510   7.162 -0.1259  0.0814 -0.2488
   76MOL0     C10410   6.211   7.551   7.287 -0.3476 -0.3569 -0.4849
   76MOL0     C10411   6.312   7.542   7.403 -0.2872  0.1669 -0.7844
   76MOL0     C10412   6.443   7.613   7.368 -0.2624  0.3743 -0.4409
   76MOL0     C10413   6.544   7.597   7.486 -0.2243  0.5080  0.1536
   76MOL0     C10414   6.497   7.601   7.623  0.2826  0.1203  0.4180
   76MOL0     C10415   6.475   7.602   7.740 -0.1759  0.2366  0.7375
   76MOL0     C10416   6.245   7.265   7.212 -0.1154  0.0559 -0.3118
   76MOL0     C10417   6.231   7.132   7.164 -0.5444 -0.3378  0.4957
   76MOL0     C10418   6.210   7.018   7.266  0.9285  0.7154  0.6188
   76MOL0     H10419   5.929   7.002   6.832 -3.2255 -1.1540 -0.3500
   76MOL0     H10420   5.785   6.845   6.707  0.4921 -0.7345  0.1131
   76MOL0     H10421   5.880   6.496   6.728 -0.6748  2.9518 -0.7895
   76MOL0     H10422   5.967   6.435   6.584 -1.4554 -1.5841 -4.1379
   76MOL0     H10423   5.737   6.322   6.644  2.5041 -0.2119 -0.3498
   76MOL0     H10424   5.655   6.476   6.618  0.4094 -0.5962  1.1834
   76MOL0     H10425   5.620   6.350   6.442 -0.3250  0.3498  0.3404
   76MOL0     H10426   5.711   6.486   6.393 -0.7506 -1.3076 -3.0553
   76MOL0     H10427   5.811   6.284   6.262  3.1110  0.3693 -0.4266
   76MOL0     H10428   5.923   6.320   6.385 -0.0951  0.2881  0.1447
   76MOL0     H10429   5.704   6.105   6.414 -0.1357  2.2564  0.4372
   76MOL0     H10430   5.842   6.107   6.516 -6.1965 -3.1087  2.6317
   76MOL0     H10431   5.846   5.931   6.305  1.8948 -1.0027 -0.9257
   76MOL0     H10432   5.856   6.077   6.207 -2.0006 -0.1784  0.8675
   76MOL0     H10433   6.075   6.136   6.320 -0.0688  0.4608  0.4739
   76MOL0     H10434   6.076   5.982   6.215  3.0336 -0.4875  2.3514
   76MOL0     H10435   6.100   6.032   6.512  1.6684  1.5059 -1.0991
   76MOL0     H10436   6.050   5.871   6.442  4.0582 -1.7751  2.8184
   76MOL0     H10437   6.290   6.119   6.307 -4.4992 -1.6163 -0.3072
   76MOL0     H10438   6.651   5.961   6.250 -2.0506 -1.5020  3.0770
   76MOL0     H10439   6.592   6.124   6.304  2.6418 -1.6841  2.6632
   76MOL0     H10440   6.433   6.133   6.106 -0.5660 -1.0220  0.6114
   76MOL0     H10441   6.597   6.128   6.047 -2.1225  1.0065 -1.8381
   76MOL0     H10442   6.575   5.869   6.034  0.7628  0.4558  2.5224
   76MOL0     H10443   6.418   5.872   6.092  2.0275  1.3217  3.8627
   76MOL0     H10444   6.383   6.060   5.888 -0.1885  0.9016 -0.7324
   76MOL0     H10445   6.525   5.979   5.831 -0.1295  0.9694 -0.5270
   76MOL0     H10446   6.244   5.674   5.992  0.5397  0.9140  1.4855
   76MOL0     H10447   6.103   5.548   6.098 -0.4762 -1.3878 -1.0075
   76MOL0     H10448   5.943   5.539   6.014 -0.5859 -0.5829 -0.1152
   76MOL0     H10449   5.954   5.615   6.168 -1.0980  2.9091 -1.5708
   76MOL0     H10450   5.614   5.891   6.272  2.4175 -0.8150 -0.8442
   76MOL0     H10451   5.378   5.922   6.265  0.1326  2.1663 -2.0785
   76MOL0     H10452   5.141   5.832   6.294 -0.8619  0.2569  0.1700
   76MOL0     H10453   5.156   5.962   6.171  0.3993  0.0783 -2.8148
   76MOL0     H10454   4.935   5.762   6.216 -4.4458  3.1993  1.2915
   76MOL0     H10455   4.935   5.937   6.183 -2.8284 -1.5346  0.4903
   76MOL0     H10456   4.843   5.832   5.999  1.5126 -0.1268 -1.0765
   76MOL0     H10457   4.967   5.708   5.982 -1.2690 -0.7307  0.4187
   76MOL0     H10458   5.129   5.870   5.909 -0.1565 -0.4420  1.0677
   76MOL0     H10459   5.020   6.002   5.926 -2.9619  0.7294 -2.6480
   76MOL0     H10460   4.954   5.758   5.760 -0.8853 -0.1439  1.7547
   76MOL0     H10461   4.882   5.918   5.767  0.8037  0.7661  1.1620
   76MOL0     H10462   5.151   5.857   5.622 -2.0848 -2.9645 -2.1630
   76MOL0     H10463   5.088   6.020   5.674  2.3680 -0.2559 -0.1968
   76MOL0     H10464   4.904   6.001   5.522 -1.7590 -2.4767  2.7358
   76MOL0     H10465   4.928   5.822   5.514  2.7404 -1.9525  1.8561
   76MOL0     H10466   5.156   5.877   5.403  2.0111  2.3008  0.8064
   76MOL0     H10467   5.103   6.044   5.398 -3.3409 -0.1466 -2.6828
   76MOL0     H10468   5.346   5.643   5.934  0.0094 -1.1293  1.6716
   76MOL0     H10469   5.572   5.642   5.908 -3.0283  0.2296 -0.4163
   76MOL0     H10470   5.926   6.027   5.854 -0.4142  1.4593  3.2329
   76MOL0     H10471   6.175   6.036   5.793  2.7926 -2.8237 -0.1761
   76MOL0     H10472   6.134   6.632   6.570  3.4065  1.1137  0.4837
   76MOL0     H10473   6.282   6.802   6.685 -0.3398 -2.2586  0.4088
   76MOL0     H10474   6.272   7.218   6.826 -0.3194  2.5742  0.2403
   76MOL0     H10475   6.308   7.429   6.918 -3.0788 -0.0929 -1.6709
   76MOL0     H10476   6.197   7.657   7.264 -1.4714 -0.0042  1.5687
   76MOL0     H10477   6.117   7.502   7.314  0.6677 -2.3670 -0.3906
   76MOL0     H10478   6.320   7.436   7.430  0.4076  0.2059 -0.8050
   76MOL0     H10479   6.273   7.594   7.491  1.1002  1.9090 -1.1321
   76MOL0     H10480   6.500   7.559   7.292  1.4255  0.2259  0.8764
   76MOL0     H10481   6.423   7.718   7.344  1.1503  0.7406 -0.1080
   76MOL0     H10482   6.617   7.677   7.471  0.6996 -0.3841 -0.2203
   76MOL0     H10483   6.606   7.508   7.481  0.5658  0.7205  3.6584
   76MOL0     H10484   6.441   7.597   7.842 -1.1141 -1.8652  0.3706
   76MOL0     H10485   6.229   7.272   7.319 -0.5360 -1.3326 -0.2674
   76MOL0     H10486   6.167   7.048   7.362 -1.8376 -3.1640  0.8430
   76MOL0     H10487   6.153   6.935   7.224  2.8402  0.4358 -1.6461
   76MOL0     H10488   6.306   6.974   7.296 -0.2676  0.9039  5.6652
   77MOL0     O10489   0.615   0.619   0.603 -0.4837 -0.2626 -0.1030
   77MOL0     C10490   0.624   0.663   0.723  0.1481  0.9961  0.3368
   77MOL0     O10491   0.583   0.780   0.760 -0.1623  0.9952  0.5096
   77MOL0     C10492   0.509   0.855   0.658  0.2550  0.5569 -0.2005
   77MOL0     C10493   0.382   0.894   0.679  0.1557  0.4017  0.1952
   77MOL0     C10494   0.313   0.987   0.594  0.0186 -0.2170 -0.1584
   77MOL0     C10495   0.374   1.026   0.474  0.8111 -0.0148  0.0853
   77MOL0     O10496   0.305   1.105   0.386  0.3949 -1.0553 -0.3528
   77MOL0     C10497   0.382   1.199   0.323 -0.1225 -0.1630 -1.0689
   77MOL0     C10498   0.278   1.261   0.233  0.6725  0.2576 -0.1287
   77MOL0     C10499   0.347   1.341   0.128 -0.5886 -0.5590 -0.1883
   77MOL0     C10500   0.257   1.407   0.024 -0.2062 -0.5834  1.1280
   77MOL0     C10501   0.331   1.510  -0.076 -0.8615 -1.8169  0.4029
   77MOL0     C10502   0.453   1.472  -0.152 -0.4853  0.0214  0.4720
   77MOL0     C10503   0.474   1.561  -0.267  0.0954 -0.3031  0.4378
   77MOL0     C10504   0.624   1.565  -0.305 -0.3477 -0.1928 -0.1489
   77MOL0     N10505   0.674   1.440  -0.349 -0.1728  0.3525 -0.7972
   77MOL0     C10506   0.802   1.395  -0.358  0.2419  0.5933  0.3614
   77MOL0     C10507   0.789   1.299  -0.444  0.3876 -0.1580  0.6235
   77MOL0     C10508   0.910   1.232  -0.491  0.2451  0.7663  0.1547
   77MOL0     C10509   0.980   1.320  -0.591 -0.0349  0.2149 -0.0225
   77MOL0     C10510   0.919   1.339  -0.729  0.0260  0.8241 -0.0188
   77MOL0     C10511   0.899   1.204  -0.800  1.4948  0.6708  0.2533
   77MOL0     O10512   0.770   1.213  -0.865 -0.9628  0.2568 -0.1894
   77MOL0     C10513   0.766   1.152  -0.984  0.5443  0.4814  0.0293
   77MOL0     C10514   0.693   1.216  -1.084  1.1736  0.6094  0.1903
   77MOL0     C10515   0.696   1.162  -1.217 -0.3098 -0.5078 -0.2495
   77MOL0     C10516   0.635   1.242  -1.323 -0.6757  0.2789  0.2109
   77MOL0     C10517   0.753   1.035  -1.239  0.1211 -0.6231  0.7431
   77MOL0     C10518   0.754   0.965  -1.380  0.6634  0.0143 -0.5782
   77MOL0     O10519   0.633   0.969  -1.440  0.2115  0.2443 -0.3589
   77MOL0     C10520   0.586   0.872  -1.524 -0.3257 -0.6855  1.2023
   77MOL0     C10521   0.491   0.915  -1.611 -0.3506  0.6299  0.0267
   77MOL0     C10522   0.417   0.830  -1.690 -0.3374 -0.3089  0.4259
   77MOL0     C10523   0.430   0.694  -1.685  0.0570  0.4419 -0.3858
   77MOL0     O10524   0.375   0.622  -1.781 -0.0315 -0.6548 -0.4232
   77MOL0     C10525   0.405   0.488  -1.791 -0.0156  0.5652  0.4519
   77MOL0     C10526   0.330   0.396  -1.692  0.1645 -1.2289  0.4017
   77MOL0     C10527   0.177   0.411  -1.697 -0.2549  0.1924  0.2728
   77MOL0     C10528   0.136   0.548  -1.662  0.1724  0.6892  1.0396
   77MOL0     C10529  -0.007   0.559  -1.604 -0.6047 -0.5869 -0.3737
   77MOL0     C10530  -0.025   0.506  -1.458  0.3855  0.9167 -0.1669
   77MOL0     C10531  -0.146   0.555  -1.390  0.3112 -0.0938  0.1286
   77MOL0     C10532  -0.154   0.507  -1.242 -0.5431 -0.3280  0.7221
   77MOL0    Cl10533  -0.304   0.563  -1.155 -0.1199  0.4659  0.0614
   77MOL0     C10534   0.521   0.645  -1.588 -0.0666 -0.2647 -0.4225
   77MOL0     C10535   0.606   0.733  -1.520  0.6077 -0.7347  0.4024
   77MOL0     O10536   0.850   0.903  -1.425 -0.0349 -0.3506  0.8025
   77MOL0     C10537   0.821   0.976  -1.135 -0.1840  0.4120 -0.1527
   77MOL0     C10538   0.820   1.027  -1.003 -0.7180  0.0251  0.6542
   77MOL0     N10539   0.661   1.272  -0.484 -0.0573 -0.4678 -0.6911
   77MOL0     N10540   0.589   1.362  -0.427  0.3539  0.5684 -0.1163
   77MOL0     C10541   0.500   0.971   0.454 -0.1581  0.0823  0.5564
   77MOL0     C10542   0.568   0.895   0.542 -0.3618 -0.7779  0.3117
   77MOL0     C10543   0.678   0.578   0.832  1.2203 -0.7226 -0.1231
   77MOL0     C10544   0.714   0.642   0.952 -0.0298 -0.4131 -0.9016
   77MOL0     C10545   0.737   0.571   1.075 -0.3025 -0.5711  0.3787
   77MOL0     C10546   0.745   0.430   1.070 -0.9782  0.3828  0.0206
   77MOL0     O10547   0.774   0.358   1.188  0.8860 -0.5057  0.5261
   77MOL0     C10548   0.837   0.423   1.296 -0.3511 -0.6616 -1.3538
   77MOL0     C10549   0.876   0.326   1.408 -0.3267 -0.2061  0.4504
   77MOL0     C10550   0.745   0.257   1.453 -0.6948 -1.0251  0.3632
   77MOL0     C10551   0.761   0.192   1.592 -0.4264  0.8262 -0.0231
   77MOL0     C10552   0.655   0.102   1.636  0.6577  0.7417 -1.1280
   77MOL0     C10553   0.558   0.046   1.680  0.2280  0.0912  0.2569
   77MOL0     C10554   0.715   0.366   0.948  0.4051  1.1607 -0.2811
   77MOL0     C10555   0.666   0.431   0.835  0.2524  0.2745 -0.8002
   77MOL0     C10556   0.593   0.350   0.735 -0.0711 -1.0251 -0.4688
   77MOL0     H10557   0.347   0.866   0.777 -1.2416 -3.8707 -1.2825
   77MOL0     H10558   0.212   1.025   0.602  0.6046  1.9249 -1.8959
   77MOL0     H10559   0.463   1.155   0.264 -0.6315 -0.0750 -1.8454
   77MOL0     H10560   0.438   1.261   0.394  2.6833 -1.5092 -1.9651
   77MOL0     H10561   0.216   1.186   0.183 -0.5370  2.3032 -1.8448
   77MOL0     H10562   0.206   1.332   0.274 -0.4959 -1.2849  0.6235
   77MOL0     H10563   0.405   1.423   0.171 -3.1946  1.3121 -0.0083
   77MOL0     H10564   0.407   1.271   0.068  0.6886  1.5516 -1.5071
   77MOL0     H10565   0.216   1.325  -0.035  0.0380 -1.5705  2.2967
   77MOL0     H10566   0.171   1.448   0.078  0.2954  1.3768  0.5448
   77MOL0     H10567   0.354   1.602  -0.021  0.4467 -0.8563 -1.6061
   77MOL0     H10568   0.258   1.538  -0.152 -0.0463 -1.8495 -0.4063
   77MOL0     H10569   0.539   1.486  -0.087  0.0128  2.6530 -0.6126
   77MOL0     H10570   0.438   1.371  -0.191 -0.5958  0.5482 -0.9048
   77MOL0     H10571   0.460   1.666  -0.238  2.6393 -0.0221  0.9244
   77MOL0     H10572   0.404   1.535  -0.346  0.5465  0.1938 -0.1448
   77MOL0     H10573   0.640   1.640  -0.382  3.0273  0.6040  1.1288
   77MOL0     H10574   0.679   1.590  -0.213  0.7912 -2.3374 -0.1774
   77MOL0     H10575   0.888   1.430  -0.301 -1.1652  2.8406  1.2598
   77MOL0     H10576   0.903   1.130  -0.531  2.3905  0.9170 -0.7350
   77MOL0     H10577   0.983   1.225  -0.410  0.3432  0.2334  0.0246
   77MOL0     H10578   1.013   1.410  -0.539 -1.5343 -0.6238  2.5594
   77MOL0     H10579   1.069   1.259  -0.604  0.3018  0.0051  2.6588
   77MOL0     H10580   0.829   1.399  -0.724 -1.1534 -0.8886  0.1947
   77MOL0     H10581   1.001   1.386  -0.785  2.7276 -4.9251 -1.7682
   77MOL0     H10582   0.989   1.192  -0.861  3.3175  1.3026  2.6509
   77MOL0     H10583   0.893   1.119  -0.730  2.7016 -0.7293 -1.2671
   77MOL0     H10584   0.635   1.302  -1.052  0.4340 -0.4012  1.7007
   77MOL0     H10585   0.535   1.207  -1.349  0.4351 -0.9710 -2.8743
   77MOL0     H10586   0.691   1.234  -1.416 -3.6661  1.5103 -1.8271
   77MOL0     H10587   0.629   1.347  -1.292  1.0167  0.4042  0.2031
   77MOL0     H10588   0.479   1.022  -1.625 -2.1579  0.5026  0.2980
   77MOL0     H10589   0.340   0.868  -1.758  0.2680  1.5277  0.7066
   77MOL0     H10590   0.367   0.449  -1.886  0.3360 -1.4382  1.1019
   77MOL0     H10591   0.512   0.464  -1.793 -0.6424 -2.6312  0.8903
   77MOL0     H10592   0.347   0.294  -1.726 -1.8872 -1.2399 -0.7238
   77MOL0     H10593   0.357   0.411  -1.587 -2.2673 -2.2538  1.2247
   77MOL0     H10594   0.144   0.336  -1.625  3.3522 -1.0674  0.8154
   77MOL0     H10595   0.152   0.379  -1.798  2.0301 -1.1140  0.0590
   77MOL0     H10596   0.148   0.601  -1.757  2.4087  0.2212  0.9963
   77MOL0     H10597   0.205   0.598  -1.593  1.0890  0.4291  0.3305
   77MOL0     H10598  -0.027   0.666  -1.605 -0.2152 -0.5120 -1.2082
   77MOL0     H10599  -0.079   0.515  -1.674 -0.3826  0.5601 -1.3557
   77MOL0     H10600   0.064   0.539  -1.403 -0.4952 -1.3876  2.9178
   77MOL0     H10601  -0.019   0.397  -1.473  0.8198  0.8141  0.7217
   77MOL0     H10602  -0.233   0.525  -1.448  2.2099 -2.3142 -1.7800
   77MOL0     H10603  -0.144   0.664  -1.393 -2.0303 -0.0363 -1.1732
   77MOL0     H10604  -0.063   0.535  -1.188  0.5849  1.4592 -1.8919
   77MOL0     H10605  -0.159   0.398  -1.239 -1.1092 -0.3094  0.5081
   77MOL0     H10606   0.533   0.539  -1.565 -4.3557 -0.9136 -0.3342
   77MOL0     H10607   0.670   0.700  -1.438 -2.3414 -1.7760  2.4315
   77MOL0     H10608   0.874   0.881  -1.136 -0.4685  0.2500 -0.1826
   77MOL0     H10609   0.861   0.964  -0.924 -2.3372 -2.5484 -0.4043
   77MOL0     H10610   0.558   0.989   0.364 -0.8675 -0.6887 -0.0661
   77MOL0     H10611   0.667   0.854   0.522 -0.8849 -2.4653  0.9298
   77MOL0     H10612   0.708   0.750   0.961 -0.5820 -0.6287  2.3646
   77MOL0     H10613   0.757   0.622   1.168 -1.2187 -0.6488  0.6298
   77MOL0     H10614   0.925   0.474   1.258 -1.0422  2.2345  0.5543
   77MOL0     H10615   0.778   0.496   1.353 -1.2643 -2.0238 -0.4603
   77MOL0     H10616   0.937   0.373   1.486 -0.8987 -0.3565  0.9945
   77MOL0     H10617   0.932   0.242   1.366 -0.2472 -0.1054  0.3527
   77MOL0     H10618   0.666   0.332   1.468 -0.3068 -0.6155  0.3754
   77MOL0     H10619   0.711   0.186   1.377 -2.3607  1.7619 -1.7084
   77MOL0     H10620   0.774   0.262   1.675  0.8690  1.8474 -1.0438
   77MOL0     H10621   0.855   0.138   1.583 -0.9720 -0.3467  0.9981
   77MOL0     H10622   0.468   0.022   1.734  1.3446 -2.3910  1.1608
   77MOL0     H10623   0.695   0.259   0.950 -1.2241  1.4465  1.5491
   77MOL0     H10624   0.554   0.259   0.780 -0.7854  0.4715  2.1592
   77MOL0     H10625   0.510   0.406   0.690 -0.7161  1.5747  3.4202
   77MOL0     H10626   0.663   0.327   0.655  1.2119  0.7358  0.0852
   78MOL0     O10627   2.905   4.055   9.144 -0.3390  0.0754 -0.6673
   78MOL0     C10628   2.841   4.072   9.249  0.2771  0.0414  0.3900
   78MOL0     O10629   2.881   4.155   9.346  0.0221 -1.0041  0.6882
   78MOL0     C10630   2.967   4.257   9.319 -0.8496 -0.7440  0.2931
   78MOL0     C10631   3.050   4.287   9.416 -0.7314  0.2052  0.4330
   78MOL0     C10632   3.139   4.398   9.405  0.0350  0.4719 -0.2048
   78MOL0     C10633   3.128   4.485   9.296 -0.6940 -0.0662  0.3101
   78MOL0     O10634   3.208   4.591   9.277 -0.5840 -1.0082  0.1614
   78MOL0     C10635   3.349   4.561   9.271  0.7045  0.3714 -0.5498
   78MOL0     C10636   3.432   4.589   9.399 -0.5139 -0.4352 -0.5405
   78MOL0     C10637   3.566   4.510   9.403  0.2470 -0.6217 -0.2346
   78MOL0     C10638   3.673   4.566   9.297  0.2898 -0.0457 -0.3785
   78MOL0     C10639   3.806   4.502   9.315  0.0330  0.1567  0.6914
   78MOL0     C10640   3.907   4.600   9.381 -1.1695  0.4380  0.2064
   78MOL0     C10641   4.053   4.557   9.363 -0.1712  0.0321  0.1435
   78MOL0     C10642   4.155   4.675   9.364 -0.6071  0.0262  0.5680
   78MOL0     N10643   4.178   4.738   9.231  0.0788  0.3400 -0.8647
   78MOL0     C10644   4.125   4.861   9.193 -0.4342  0.5290 -0.5555
   78MOL0     C10645   4.157   4.874   9.069  0.5660 -0.8166 -0.7125
   78MOL0     C10646   4.074   4.980   8.996 -0.7167 -0.9928  0.1603
   78MOL0     C10647   3.931   4.949   8.973 -0.6682 -0.1984 -0.2278
   78MOL0     C10648   3.914   4.837   8.878 -0.3607  0.6503  0.7161
   78MOL0     C10649   3.767   4.780   8.878  0.5835  0.0449 -0.0911
   78MOL0     O10650   3.761   4.678   8.773  0.8015 -0.2711 -0.0712
   78MOL0     C10651   3.717   4.711   8.642 -0.0130  0.1946 -0.7236
   78MOL0     C10652   3.634   4.815   8.619  0.3992  0.3147  0.3502
   78MOL0     C10653   3.590   4.845   8.490  0.6013 -1.2297 -0.7431
   78MOL0     C10654   3.477   4.953   8.493 -0.5563  0.5538 -0.1727
   78MOL0     C10655   3.647   4.785   8.381 -0.0310  0.1277  0.1753
   78MOL0     C10656   3.608   4.821   8.242 -1.2280 -0.4566  0.9498
   78MOL0     O10657   3.704   4.784   8.147 -0.0120 -0.1221 -0.3071
   78MOL0     C10658   3.661   4.779   8.019 -1.0724  0.0518 -0.5434
   78MOL0     C10659   3.615   4.890   7.955 -0.0741 -0.6898  0.4275
   78MOL0     C10660   3.549   4.877   7.827  0.8290 -0.6349  0.3552
   78MOL0     C10661   3.503   4.749   7.790  0.6113  0.0191  0.4849
   78MOL0     O10662   3.430   4.732   7.673  0.8734 -0.0690 -0.9289
   78MOL0     C10663   3.515   4.689   7.562 -0.3635  0.1369 -0.7615
   78MOL0     C10664   3.443   4.713   7.428 -0.2894 -0.4414  0.2222
   78MOL0     C10665   3.300   4.652   7.441  0.4714 -0.6852  0.7720
   78MOL0     C10666   3.233   4.650   7.296  1.2233  0.9584  0.3329
   78MOL0     C10667   3.101   4.578   7.307 -0.5651  0.0358 -0.3894
   78MOL0     C10668   3.046   4.530   7.167  0.7111  0.0153  0.3817
   78MOL0     C10669   2.905   4.474   7.202 -0.5081  0.7475 -0.7457
   78MOL0     C10670   2.799   4.456   7.081  0.6080  0.1176 -0.4038
   78MOL0    Cl10671   2.873   4.414   6.923  0.2663 -0.1348 -0.4687
   78MOL0     C10672   3.546   4.637   7.862  0.1857 -0.1796 -0.9342
   78MOL0     C10673   3.645   4.652   7.960  0.2802 -0.0972  0.5254
   78MOL0     O10674   3.507   4.875   8.221  0.6127 -0.0587 -0.2051
   78MOL0     C10675   3.727   4.668   8.412  0.4135 -0.8684  0.1491
   78MOL0     C10676   3.762   4.634   8.537 -0.5469  0.3298 -0.0057
   78MOL0     N10677   4.208   4.761   9.029 -0.9907  0.7423 -0.2934
   78MOL0     N10678   4.229   4.682   9.124 -0.4080 -0.4468  0.8403
   78MOL0     C10679   3.034   4.452   9.187  0.1495 -0.8049 -0.7196
   78MOL0     C10680   2.953   4.339   9.208 -0.1723 -0.0480 -0.7848
   78MOL0     C10681   2.737   3.969   9.278  0.0050 -0.0736  0.2554
   78MOL0     C10682   2.684   3.973   9.408  0.3396 -0.2600 -0.5317
   78MOL0     C10683   2.591   3.869   9.447  0.0743 -0.2482  0.4645
   78MOL0     C10684   2.546   3.767   9.367  0.6295 -0.5818  0.0070
   78MOL0     O10685   2.448   3.692   9.416  0.3425 -0.0058 -0.3392
   78MOL0     C10686   2.417   3.569   9.337 -0.4033 -0.2150  0.2393
   78MOL0     C10687   2.323   3.475   9.405 -0.0129  0.7689 -0.7311
   78MOL0     C10688   2.265   3.374   9.306 -0.1791 -0.6990  0.5104
   78MOL0     C10689   2.158   3.419   9.214  0.3267 -0.1470  0.3086
   78MOL0     C10690   2.129   3.332   9.095 -0.0748 -0.4780 -0.8221
   78MOL0     C10691   2.115   3.235   9.017 -0.1761 -0.2230  0.8257
   78MOL0     C10692   2.584   3.776   9.230 -0.3462  0.7499  0.7434
   78MOL0     C10693   2.688   3.868   9.196  0.0244  1.2949  0.5642
   78MOL0     C10694   2.734   3.850   9.058 -0.4133  0.6823 -0.0339
   78MOL0     H10695   3.049   4.227   9.506  0.7166  2.1253  1.8322
   78MOL0     H10696   3.214   4.414   9.481 -0.1985  0.5233  0.0143
   78MOL0     H10697   3.379   4.631   9.193 -1.6501 -0.9672 -2.8565
   78MOL0     H10698   3.368   4.458   9.237  1.4070 -0.3658  1.8818
   78MOL0     H10699   3.450   4.697   9.411  0.3095 -0.6245  0.0565
   78MOL0     H10700   3.377   4.549   9.485  1.4626 -3.0872 -0.3846
   78MOL0     H10701   3.604   4.506   9.505  0.0673 -0.1531 -0.1514
   78MOL0     H10702   3.543   4.407   9.372 -2.1399  0.2184 -1.5225
   78MOL0     H10703   3.642   4.532   9.198 -0.7254 -0.7492  0.1624
   78MOL0     H10704   3.680   4.675   9.304 -2.3645  0.1469  0.3873
   78MOL0     H10705   3.847   4.471   9.218  5.9161 -0.2693  2.9574
   78MOL0     H10706   3.784   4.407   9.363  2.6591  0.7178  3.2684
   78MOL0     H10707   3.892   4.699   9.336  0.5058  1.5440  1.9247
   78MOL0     H10708   3.879   4.625   9.484 -0.8278  3.0723 -0.2668
   78MOL0     H10709   4.063   4.503   9.269 -0.9734 -0.3434  0.2606
   78MOL0     H10710   4.077   4.488   9.445  1.9184  1.8324  1.1809
   78MOL0     H10711   4.139   4.742   9.450  2.3229 -0.9301  2.0034
   78MOL0     H10712   4.250   4.623   9.377  0.7148  1.6485 -1.8655
   78MOL0     H10713   4.062   4.932   9.246  1.5415  0.9177  1.4550
   78MOL0     H10714   4.131   4.985   8.903  0.7211  2.2172  1.0695
   78MOL0     H10715   4.078   5.080   9.041 -0.5320  0.3523 -2.6776
   78MOL0     H10716   3.876   4.934   9.066  0.5113  2.6001  1.0588
   78MOL0     H10717   3.883   5.026   8.911 -1.3663  0.8376  1.5082
   78MOL0     H10718   3.930   4.879   8.779  1.8498 -0.2835  0.6152
   78MOL0     H10719   3.994   4.763   8.884  1.7519  2.7394 -0.2275
   78MOL0     H10720   3.755   4.733   8.976 -0.0842 -1.6675 -0.9546
   78MOL0     H10721   3.697   4.863   8.881  0.7086  0.1206  2.0436
   78MOL0     H10722   3.592   4.868   8.704 -1.3677 -1.5050  0.7246
   78MOL0     H10723   3.394   4.914   8.435 -2.6548  3.0222  0.9370
   78MOL0     H10724   3.506   5.050   8.450 -3.9172  0.9270 -1.9532
   78MOL0     H10725   3.430   4.969   8.591 -3.3145 -3.5481 -0.6058
   78MOL0     H10726   3.635   4.991   7.991 -0.5716 -0.4494  0.0422
   78MOL0     H10727   3.519   4.956   7.759  4.1753 -0.5694 -1.2608
   78MOL0     H10728   3.605   4.750   7.552 -0.0655 -0.0710  0.3918
   78MOL0     H10729   3.539   4.584   7.581  0.7418  0.4274 -0.4853
   78MOL0     H10730   3.436   4.821   7.413 -0.5110 -0.7195 -2.0538
   78MOL0     H10731   3.513   4.674   7.354  1.9907  2.5037  0.6046
   78MOL0     H10732   3.252   4.715   7.516 -0.8637 -0.3647 -0.2962
   78MOL0     H10733   3.315   4.553   7.486  0.2799 -0.8182  0.5463
   78MOL0     H10734   3.304   4.600   7.230 -2.3315 -3.1957 -0.8381
   78MOL0     H10735   3.217   4.754   7.265  1.7133  0.6306 -1.0517
   78MOL0     H10736   3.113   4.487   7.366  3.3342  0.8837  0.3780
   78MOL0     H10737   3.031   4.644   7.360 -0.1947  1.7710 -1.9466
   78MOL0     H10738   3.102   4.450   7.119  1.4050  0.0353  1.1397
   78MOL0     H10739   3.040   4.611   7.093  1.5479 -0.1609  0.1083
   78MOL0     H10740   2.850   4.545   7.265 -0.7279  0.7111 -0.8935
   78MOL0     H10741   2.919   4.377   7.250 -0.3313  1.7684  1.3964
   78MOL0     H10742   2.752   4.555   7.074  0.5913  0.2570  1.1891
   78MOL0     H10743   2.732   4.377   7.116  1.2316 -1.6669 -2.9711
   78MOL0     H10744   3.516   4.540   7.825  0.0090  0.2633 -1.9871
   78MOL0     H10745   3.683   4.569   8.019 -1.8707 -3.2428 -2.1367
   78MOL0     H10746   3.773   4.606   8.335  0.9363 -1.3487  0.8286
   78MOL0     H10747   3.819   4.546   8.567 -2.1311 -0.3664  1.0958
   78MOL0     H10748   3.020   4.514   9.099  0.6256  0.3875  0.0192
   78MOL0     H10749   2.877   4.318   9.133 -0.9955 -0.6385  0.1857
   78MOL0     H10750   2.700   4.059   9.472 -0.8462 -0.4495  0.0523
   78MOL0     H10751   2.560   3.867   9.551 -0.1307 -2.3295  0.4048
   78MOL0     H10752   2.372   3.599   9.242  1.7432  0.1281 -0.7322
   78MOL0     H10753   2.512   3.516   9.323 -1.0947 -1.9042  1.6677
   78MOL0     H10754   2.238   3.524   9.454  1.4912  1.0426  1.7814
   78MOL0     H10755   2.380   3.426   9.483 -1.2804  0.9929  0.3827
   78MOL0     H10756   2.354   3.334   9.257 -0.4150 -1.7924  0.9304
   78MOL0     H10757   2.228   3.284   9.356 -3.1804  0.4232  0.5399
   78MOL0     H10758   2.182   3.518   9.174  1.0450 -0.4643 -0.0534
   78MOL0     H10759   2.065   3.420   9.272 -2.1331  0.2533 -3.3115
   78MOL0     H10760   2.132   3.168   8.935  0.6706  2.9308 -1.7531
   78MOL0     H10761   2.541   3.716   9.151  1.1557 -0.0798  0.5283
   78MOL0     H10762   2.842   3.837   9.061 -0.5157  0.0212  1.4600
   78MOL0     H10763   2.707   3.753   9.016 -1.3635  0.2905  1.4287
   78MOL0     H10764   2.704   3.925   8.983  0.3871  0.2255 -0.8325
   79MOL0     O10765   3.493   3.764   5.437 -0.0638 -0.0737  0.1623
   79MOL0     C10766   3.512   3.871   5.380 -0.1512  0.6823 -0.9629
   79MOL0     O10767   3.568   3.980   5.439  0.7470  0.4861  0.1093
   79MOL0     C10768   3.568   3.999   5.575  0.8946  0.7675 -0.3636
   79MOL0     C10769   3.674   3.981   5.657  0.2423 -0.1354  0.0664
   79MOL0     C10770   3.663   3.978   5.798  0.4829 -0.2747  0.5390
   79MOL0     C10771   3.544   4.014   5.863 -0.0671  0.0941 -0.1082
   79MOL0     O10772   3.543   4.040   5.997  0.2560  0.9411  0.3273
   79MOL0     C10773   3.426   4.096   6.065  0.1934  0.3050  0.1575
   79MOL0     C10774   3.409   4.247   6.048 -0.9218 -0.6712 -0.3739
   79MOL0     C10775   3.507   4.317   6.134 -0.5911  0.1923  0.4969
   79MOL0     C10776   3.490   4.468   6.120  0.4700 -0.2163 -0.0345
   79MOL0     C10777   3.568   4.567   6.194  0.3617  0.7951 -0.8362
   79MOL0     C10778   3.522   4.596   6.339  0.3432  0.4582 -0.5102
   79MOL0     C10779   3.647   4.645   6.425 -0.2954 -0.3355 -0.3604
   79MOL0     C10780   3.614   4.692   6.567 -0.2190  1.3839 -0.7032
   79MOL0     N10781   3.729   4.736   6.646  0.5671 -0.4454  0.6778
   79MOL0     C10782   3.850   4.790   6.606  0.6139 -0.1040  0.3649
   79MOL0     C10783   3.916   4.801   6.723  0.0173  0.4713  0.4689
   79MOL0     C10784   4.052   4.864   6.749 -0.2143  0.3631 -0.3130
   79MOL0     C10785   4.024   5.009   6.765  0.0384  0.0277  0.2112
   79MOL0     C10786   4.155   5.082   6.811 -0.0475 -0.2695 -0.0190
   79MOL0     C10787   4.150   5.230   6.825 -0.8067  0.2577 -0.4834
   79MOL0     O10788   4.045   5.258   6.911  0.0302  0.8984 -0.3334
   79MOL0     C10789   4.003   5.385   6.923 -0.0555  0.3585 -0.4611
   79MOL0     C10790   4.067   5.499   6.871 -0.1588 -0.4097  0.1458
   79MOL0     C10791   4.013   5.630   6.881  0.6822 -1.1487 -0.9040
   79MOL0     C10792   4.085   5.750   6.819 -1.1292 -1.1710  0.2613
   79MOL0     C10793   3.885   5.645   6.948 -0.3637  0.3478 -0.1896
   79MOL0     C10794   3.827   5.778   6.979  0.1464 -0.6229  0.0151
   79MOL0     O10795   3.701   5.790   6.952  0.1772 -0.0251 -0.0845
   79MOL0     C10796   3.655   5.915   6.980  0.3453 -0.0093 -0.5915
   79MOL0     C10797   3.600   6.000   6.882 -0.0999  0.2985  0.1885
   79MOL0     C10798   3.528   6.118   6.912 -0.5958 -0.0277 -0.0893
   79MOL0     C10799   3.504   6.135   7.044  0.7170 -0.4547  0.2176
   79MOL0     O10800   3.411   6.232   7.059 -0.0732 -0.1668  0.8624
   79MOL0     C10801   3.404   6.313   7.171 -0.2203  0.2365  0.2145
   79MOL0     C10802   3.285   6.258   7.244 -0.3782  0.0348 -0.8159
   79MOL0     C10803   3.275   6.323   7.387 -0.3458  0.1743 -0.1329
   79MOL0     C10804   3.172   6.253   7.481  0.1545  0.2214  0.0853
   79MOL0     C10805   3.185   6.282   7.631 -0.4188  0.9038  0.6107
   79MOL0     C10806   3.053   6.257   7.704  0.7890 -0.0279  0.3923
   79MOL0     C10807   3.052   6.265   7.859 -0.0349 -0.1582  0.0259
   79MOL0     C10808   2.924   6.216   7.933  0.5859  0.5155  0.5528
   79MOL0    Cl10809   2.940   6.038   7.954  0.0120  0.3327 -0.0963
   79MOL0     C10810   3.555   6.053   7.153  0.3412 -0.3269  0.4797
   79MOL0     C10811   3.630   5.941   7.120 -0.3897 -0.7983 -0.7564
   79MOL0     O10812   3.894   5.860   7.039  0.2460  0.1776 -0.1196
   79MOL0     C10813   3.825   5.524   6.995 -0.3979  0.3330 -0.1255
   79MOL0     C10814   3.891   5.403   6.995  0.4644 -0.0707  0.0828
   79MOL0     N10815   3.835   4.769   6.830  0.1021  0.3193  1.7647
   79MOL0     N10816   3.721   4.722   6.782 -0.0793  0.1255 -0.6099
   79MOL0     C10817   3.428   4.031   5.774 -0.3388 -0.0872 -1.0015
   79MOL0     C10818   3.443   4.023   5.639 -0.6058 -0.3085 -0.3071
   79MOL0     C10819   3.469   3.878   5.235 -0.9884 -0.4213  0.7752
   79MOL0     C10820   3.521   3.992   5.166  0.0639  0.2402 -0.2592
   79MOL0     C10821   3.500   4.011   5.027  0.5781 -0.6083  0.3600
   79MOL0     C10822   3.418   3.925   4.955  0.4496  0.2500  0.4907
   79MOL0     O10823   3.398   3.934   4.820  0.0442 -0.1151  0.1322
   79MOL0     C10824   3.490   4.005   4.739 -1.2112  0.4051 -0.2848
   79MOL0     C10825   3.436   3.991   4.600  0.1457 -0.4081 -0.3252
   79MOL0     C10826   3.291   4.038   4.586 -0.9637 -0.2449 -0.0171
   79MOL0     C10827   3.276   4.029   4.431  0.5926  0.6340  0.3351
   79MOL0     C10828   3.220   3.896   4.383  0.0771 -0.5514 -0.6331
   79MOL0     C10829   3.189   3.781   4.344 -0.8303  0.3558 -0.4376
   79MOL0     C10830   3.365   3.809   5.025  0.2109 -0.9674  0.3093
   79MOL0     C10831   3.391   3.781   5.158  0.0793  0.2099  0.5558
   79MOL0     C10832   3.349   3.660   5.233 -0.3848 -0.8485  0.7513
   79MOL0     H10833   3.773   3.978   5.612 -1.0430 -0.7806 -2.9796
   79MOL0     H10834   3.749   3.977   5.865  1.5197  2.3785 -0.5936
   79MOL0     H10835   3.434   4.064   6.170 -1.9927 -1.0180 -0.0261
   79MOL0     H10836   3.337   4.048   6.024  0.4023 -1.0997  1.2531
   79MOL0     H10837   3.419   4.274   5.942 -2.4028  2.1754  0.1195
   79MOL0     H10838   3.310   4.281   6.080 -0.3288  0.8794 -0.1277
   79MOL0     H10839   3.514   4.282   6.237  1.5041 -1.2248 -0.0572
   79MOL0     H10840   3.607   4.288   6.099 -0.7564  0.6473 -0.3762
   79MOL0     H10841   3.515   4.492   6.016  1.9912  2.3723  0.8267
   79MOL0     H10842   3.385   4.495   6.134  0.1012 -1.3419 -0.5086
   79MOL0     H10843   3.570   4.668   6.152 -1.1104  1.5280  0.7011
   79MOL0     H10844   3.664   4.517   6.198 -1.2618 -2.4792  1.9450
   79MOL0     H10845   3.442   4.670   6.333  1.6882  1.9097 -1.1438
   79MOL0     H10846   3.476   4.504   6.378 -0.1638  1.0027  0.1975
   79MOL0     H10847   3.700   4.732   6.384  1.5823 -1.0214  0.5066
   79MOL0     H10848   3.711   4.557   6.428 -0.4695 -0.4712 -0.6265
   79MOL0     H10849   3.540   4.772   6.555 -2.3353 -0.4964 -0.7355
   79MOL0     H10850   3.550   4.629   6.629 -0.2871  4.9411  3.3401
   79MOL0     H10851   3.893   4.820   6.511  1.6049  0.9650  1.1157
   79MOL0     H10852   4.122   4.840   6.669  1.5128 -0.7875  1.4715
   79MOL0     H10853   4.087   4.821   6.843  0.5060  0.5614 -0.4860
   79MOL0     H10854   4.010   5.052   6.666  2.6823  1.9571  0.5401
   79MOL0     H10855   3.936   5.037   6.823  1.6621  3.6922  1.2490
   79MOL0     H10856   4.178   5.037   6.908 -1.9669  3.4594  2.4147
   79MOL0     H10857   4.236   5.059   6.741  1.0666  0.2524  1.0467
   79MOL0     H10858   4.237   5.274   6.874 -2.1216 -0.1279  2.3714
   79MOL0     H10859   4.149   5.259   6.719 -0.0960 -1.0583 -0.8705
   79MOL0     H10860   4.152   5.494   6.805 -1.4291  0.4735 -1.6256
   79MOL0     H10861   4.154   5.790   6.894 -0.4529 -4.3598  1.5129
   79MOL0     H10862   4.016   5.832   6.799  0.1537 -0.2109 -0.3485
   79MOL0     H10863   4.139   5.721   6.729  1.5486  1.0578  1.0093
   79MOL0     H10864   3.603   5.971   6.777 -1.8249  1.1111 -0.1099
   79MOL0     H10865   3.496   6.183   6.831 -1.6939 -2.7998 -2.0442
   79MOL0     H10866   3.488   6.297   7.239  0.2550  0.6694 -0.2603
   79MOL0     H10867   3.397   6.416   7.135  2.6844 -0.3890 -2.6985
   79MOL0     H10868   3.197   6.289   7.186  0.4501  2.0481 -1.0843
   79MOL0     H10869   3.289   6.150   7.260  0.6542  0.5007  2.8716
   79MOL0     H10870   3.262   6.431   7.389  3.5121  0.7785  1.9799
   79MOL0     H10871   3.370   6.314   7.440 -0.1896 -0.2426 -0.4728
   79MOL0     H10872   3.191   6.145   7.480  2.6983  0.6228 -1.4848
   79MOL0     H10873   3.072   6.286   7.452  0.0715 -0.4963 -0.4654
   79MOL0     H10874   3.253   6.206   7.669 -1.3998  0.6987  2.0380
   79MOL0     H10875   3.217   6.383   7.658  1.0069  1.0410 -1.3856
   79MOL0     H10876   3.013   6.156   7.695  0.0532 -0.0510  2.9814
   79MOL0     H10877   2.979   6.327   7.663 -0.1912 -1.6530 -0.7128
   79MOL0     H10878   3.046   6.372   7.885 -0.3284  0.7567 -3.3282
   79MOL0     H10879   3.143   6.219   7.898  0.4434 -1.9273 -2.8346
   79MOL0     H10880   2.834   6.246   7.878  1.0554 -0.2868 -0.7037
   79MOL0     H10881   2.926   6.261   8.033  5.8150  1.0371  0.4931
   79MOL0     H10882   3.521   6.064   7.255  0.5181  1.5521  0.3676
   79MOL0     H10883   3.656   5.876   7.203  0.5538 -0.1845 -0.5585
   79MOL0     H10884   3.728   5.526   7.043 -2.4967  1.3049 -3.9722
   79MOL0     H10885   3.844   5.318   7.044 -0.4817  0.6515  0.4636
   79MOL0     H10886   3.331   4.059   5.813  0.9822  2.1833  0.9287
   79MOL0     H10887   3.358   4.023   5.572  1.1035 -1.0147 -2.5949
   79MOL0     H10888   3.585   4.069   5.208 -1.7946  1.2206  0.9593
   79MOL0     H10889   3.550   4.098   4.985  0.6839 -0.8854 -0.1038
   79MOL0     H10890   3.483   4.110   4.770  0.7490  0.7500 -0.8504
   79MOL0     H10891   3.596   3.975   4.742 -0.7122  2.0093 -0.6495
   79MOL0     H10892   3.444   3.888   4.562 -0.2132 -0.2870 -0.7378
   79MOL0     H10893   3.499   4.054   4.537 -0.8420  0.8145 -0.1219
   79MOL0     H10894   3.214   3.981   4.639 -4.4937  2.7116 -1.4866
   79MOL0     H10895   3.282   4.143   4.615  3.6321  0.9187 -1.9028
   79MOL0     H10896   3.367   4.049   4.372  0.7236 -1.0406 -0.0819
   79MOL0     H10897   3.197   4.100   4.409 -0.3666  0.4206  2.8133
   79MOL0     H10898   3.173   3.698   4.278  0.4088  0.0343 -0.3579
   79MOL0     H10899   3.302   3.742   4.968  0.2630 -2.1191  1.5545
   79MOL0     H10900   3.444   3.608   5.251  0.7305  1.0642  0.5808
   79MOL0     H10901   3.293   3.683   5.324  0.3295 -0.2967  1.0651
   79MOL0     H10902   3.282   3.600   5.171 -1.6632  0.3609  0.9073
   80MOL0     O10903   7.095   7.900   4.284  0.7176 -0.7218 -0.6513
   80MOL0     C10904   7.148   8.010   4.286 -0.7829 -0.9177  0.2580
   80MOL0     O10905   7.248   8.049   4.372 -0.0692  0.5928  0.5033
   80MOL0     C10906   7.314   7.970   4.467 -0.2343 -0.4358  0.8304
   80MOL0     C10907   7.371   8.032   4.575  1.3247  0.0511 -0.6079
   80MOL0     C10908   7.436   7.964   4.675  0.0042  0.0617 -0.7592
   80MOL0     C10909   7.474   7.831   4.650  0.3117 -0.7190 -0.8008
   80MOL0     O10910   7.552   7.763   4.738  0.6414  0.2869 -0.2993
   80MOL0     C10911   7.658   7.676   4.681 -0.3271 -0.0234  0.4220
   80MOL0     C10912   7.761   7.752   4.600  0.2006 -1.2083  0.1931
   80MOL0     C10913   7.755   7.735   4.453  0.3269 -0.0340 -0.0876
   80MOL0     C10914   7.852   7.831   4.385  0.3570 -0.6649 -0.7512
   80MOL0     C10915   7.831   7.825   4.236 -0.0034  0.2745  1.0426
   80MOL0     C10916   7.906   7.930   4.154 -0.4530  0.1580 -0.3923
   80MOL0     C10917   7.862   7.945   4.010  0.0861 -0.3882  0.7858
   80MOL0     C10918   7.918   8.081   3.944 -0.2577 -0.1420 -0.2057
   80MOL0     N10919   8.066   8.097   3.973 -0.2391 -0.1425 -0.6470
   80MOL0     C10920   8.146   8.011   3.898 -0.7822  0.3217  0.3754
   80MOL0     C10921   8.268   8.070   3.912 -0.8895 -0.1950 -0.4186
   80MOL0     C10922   8.400   8.031   3.862  0.1972 -0.6007  0.7578
   80MOL0     C10923   8.401   7.901   3.781 -0.1388  0.4208 -0.4375
   80MOL0     C10924   8.423   7.777   3.869 -0.6939 -0.0912 -0.6422
   80MOL0     C10925   8.436   7.645   3.785  0.1041 -0.1940  0.9662
   80MOL0     O10926   8.530   7.665   3.679 -0.4734 -0.0164 -0.1127
   80MOL0     C10927   8.497   7.638   3.550 -0.2185 -0.5281 -0.1407
   80MOL0     C10928   8.375   7.632   3.490  0.0379  0.6388 -0.1094
   80MOL0     C10929   8.356   7.590   3.350 -0.2185 -0.1689 -0.8629
   80MOL0     C10930   8.220   7.596   3.292  0.0099 -0.5360  0.5009
   80MOL0     C10931   8.475   7.539   3.285  0.5060  0.1242  0.9992
   80MOL0     C10932   8.483   7.510   3.138  0.5175  0.2033  0.1357
   80MOL0     O10933   8.604   7.528   3.075 -0.1184  0.9759  0.9170
   80MOL0     C10934   8.622   7.440   2.964 -1.1315  0.4219 -0.4742
   80MOL0     C10935   8.672   7.505   2.849 -0.1222  0.0388  0.2889
   80MOL0     C10936   8.689   7.432   2.731  0.8602 -0.5108  0.0480
   80MOL0     C10937   8.661   7.300   2.725 -0.8342 -0.3527  0.1641
   80MOL0     O10938   8.697   7.238   2.606  0.2312  0.3904 -0.7058
   80MOL0     C10939   8.654   7.108   2.579  0.4504 -0.3658  0.1878
   80MOL0     C10940   8.679   7.086   2.425 -1.4320 -0.5836  0.5460
   80MOL0     C10941   8.689   6.931   2.389 -0.5943  0.1086  0.4686
   80MOL0     C10942   8.563   6.856   2.419  0.4853 -0.3750  0.7585
   80MOL0     C10943   8.551   6.721   2.365  0.5171  0.2081 -0.5540
   80MOL0     C10944   8.658   6.632   2.407  0.1701 -0.3194 -0.5525
   80MOL0     C10945   8.666   6.610   2.562 -0.1985  1.0097  0.2284
   80MOL0     C10946   8.774   6.504   2.586  0.4400  0.8711 -0.3577
   80MOL0    Cl10947   8.731   6.340   2.520  0.3963  0.4403 -0.1866
   80MOL0     C10948   8.619   7.234   2.842  1.1635 -0.6465  0.1941
   80MOL0     C10949   8.602   7.299   2.963  0.1895 -0.5653 -0.1386
   80MOL0     O10950   8.377   7.491   3.077  0.6516 -0.5595 -0.1978
   80MOL0     C10951   8.595   7.536   3.359  0.4096  0.7676  0.7091
   80MOL0     C10952   8.607   7.592   3.483  0.5317 -0.1711  0.0583
   80MOL0     N10953   8.254   8.189   3.978 -0.1399 -0.2838  0.6568
   80MOL0     N10954   8.139   8.212   4.012 -0.5794  0.4011 -0.4711
   80MOL0     C10955   7.423   7.768   4.534  0.0075  0.6100  0.2319
   80MOL0     C10956   7.342   7.836   4.443 -0.6504 -0.8762  0.0647
   80MOL0     C10957   7.111   8.108   4.177 -0.2419  0.4548  0.2920
   80MOL0     C10958   7.197   8.217   4.156  0.9942  0.1722 -0.7453
   80MOL0     C10959   7.175   8.311   4.049  0.7453  0.8777 -0.7261
   80MOL0     C10960   7.055   8.303   3.976 -0.5916  1.0028  0.6512
   80MOL0     O10961   7.005   8.404   3.897  0.2199  0.1679  0.0697
   80MOL0     C10962   7.074   8.517   3.859 -0.1963  0.3591  0.4087
   80MOL0     C10963   7.170   8.475   3.737 -0.3549 -0.6665  0.2288
   80MOL0     C10964   7.127   8.525   3.594  0.3839  0.0857 -0.5358
   80MOL0     C10965   7.203   8.432   3.496  0.1549 -0.3995 -0.1676
   80MOL0     C10966   7.224   8.501   3.372  0.3482 -0.0808  0.2935
   80MOL0     C10967   7.238   8.554   3.258  0.1632 -0.4561 -0.1383
   80MOL0     C10968   6.967   8.192   3.998 -0.0350 -0.5559  1.0212
   80MOL0     C10969   6.997   8.096   4.091  0.4012  0.0429  0.0946
   80MOL0     C10970   6.901   7.986   4.098 -0.0029  0.4407  0.1700
   80MOL0     H10971   7.357   8.140   4.579 -2.6479 -0.3477  1.1112
   80MOL0     H10972   7.482   8.007   4.764  3.2252  2.2853 -3.2494
   80MOL0     H10973   7.611   7.604   4.614  2.1613  1.2714 -2.9984
   80MOL0     H10974   7.699   7.620   4.766 -2.2480 -2.2772 -0.0446
   80MOL0     H10975   7.761   7.858   4.626  0.3847 -1.4604  1.2935
   80MOL0     H10976   7.861   7.719   4.631  0.2840 -1.2084 -0.0746
   80MOL0     H10977   7.770   7.629   4.429 -0.4554  0.0046 -0.7983
   80MOL0     H10978   7.658   7.766   4.414  1.5777  2.9722 -1.0339
   80MOL0     H10979   7.842   7.932   4.426  3.8403 -0.5726  0.2020
   80MOL0     H10980   7.957   7.801   4.401  0.3539 -1.0634 -1.4693
   80MOL0     H10981   7.726   7.820   4.206  0.4339 -2.9530 -0.2690
   80MOL0     H10982   7.870   7.731   4.198 -0.8320  1.4272 -3.1684
   80MOL0     H10983   7.909   8.022   4.213 -4.2745 -0.3736  0.9001
   80MOL0     H10984   8.010   7.895   4.159 -0.6193 -0.1404  1.7553
   80MOL0     H10985   7.755   7.945   3.987  0.7390 -0.2807 -2.8482
   80MOL0     H10986   7.898   7.871   3.938  1.8087  2.7339 -1.8100
   80MOL0     H10987   7.908   8.072   3.835 -0.7968 -1.3379 -0.0756
   80MOL0     H10988   7.863   8.165   3.989  0.7416  1.9958 -2.7008
   80MOL0     H10989   8.124   7.920   3.844 -2.3678  2.5377 -3.0265
   80MOL0     H10990   8.476   8.030   3.941  1.0016 -1.9511  0.0045
   80MOL0     H10991   8.430   8.121   3.808 -2.8646  1.6419  2.5001
   80MOL0     H10992   8.308   7.891   3.725 -1.2639  1.2736  1.1841
   80MOL0     H10993   8.469   7.900   3.696 -0.5511  2.3594 -0.8520
   80MOL0     H10994   8.515   7.789   3.928 -1.4887  0.1048  0.5850
   80MOL0     H10995   8.342   7.762   3.940  0.7139 -0.1516  1.0186
   80MOL0     H10996   8.485   7.568   3.845  2.1691  1.4358  1.4869
   80MOL0     H10997   8.334   7.612   3.760 -0.0405  1.9294 -1.7976
   80MOL0     H10998   8.296   7.661   3.558  0.4579  2.3779 -0.3004
   80MOL0     H10999   8.145   7.636   3.360 -1.5139 -0.4058 -1.1932
   80MOL0     H11000   8.183   7.497   3.268 -0.5330  0.6060 -4.5182
   80MOL0     H11001   8.212   7.659   3.202  2.4468  3.0441  2.5154
   80MOL0     H11002   8.690   7.612   2.848 -0.4904  0.1154 -1.8412
   80MOL0     H11003   8.728   7.487   2.646 -0.7331  1.5722  0.5499
   80MOL0     H11004   8.699   7.032   2.643  2.1667  0.5703  0.1589
   80MOL0     H11005   8.550   7.089   2.607 -0.1230 -0.3216 -1.7452
   80MOL0     H11006   8.601   7.136   2.368  0.1437 -0.2939 -1.4765
   80MOL0     H11007   8.773   7.134   2.396 -0.7363 -1.7236  0.8280
   80MOL0     H11008   8.774   6.890   2.444 -0.1975 -2.2582 -1.7456
   80MOL0     H11009   8.700   6.918   2.281 -0.0122  0.2654  0.5022
   80MOL0     H11010   8.475   6.911   2.385  0.1015 -1.1819  0.4056
   80MOL0     H11011   8.563   6.852   2.528 -0.6745  2.5757  0.9409
   80MOL0     H11012   8.456   6.674   2.392  0.4696  1.7168  2.2104
   80MOL0     H11013   8.558   6.733   2.256 -0.5275  3.1319 -0.3975
   80MOL0     H11014   8.754   6.665   2.366  0.5386  0.6178  0.9925
   80MOL0     H11015   8.646   6.535   2.357 -0.0471  0.1510 -1.4412
   80MOL0     H11016   8.573   6.577   2.610 -0.8339  3.9861  1.2384
   80MOL0     H11017   8.698   6.707   2.598  2.0227  0.9743 -1.4537
   80MOL0     H11018   8.801   6.489   2.691  0.0015  0.9964 -0.2255
   80MOL0     H11019   8.871   6.533   2.543  1.3114 -0.2082  0.8148
   80MOL0     H11020   8.594   7.129   2.850  3.6137 -1.1597  2.6011
   80MOL0     H11021   8.570   7.240   3.048  1.3942 -0.8715  0.1230
   80MOL0     H11022   8.671   7.485   3.301  0.2849 -0.5842  1.6925
   80MOL0     H11023   8.696   7.585   3.545  0.1803 -0.2254  0.5665
   80MOL0     H11024   7.444   7.662   4.525 -0.6505  0.4997 -0.0532
   80MOL0     H11025   7.308   7.785   4.353  1.8427 -0.0283 -1.4624
   80MOL0     H11026   7.272   8.239   4.231 -1.7792  1.3694  1.8540
   80MOL0     H11027   7.230   8.403   4.034 -0.3252  1.5941 -0.3527
   80MOL0     H11028   6.989   8.571   3.817 -0.8148 -1.6842 -1.1495
   80MOL0     H11029   7.127   8.579   3.932  1.9270  0.5968 -1.2475
   80MOL0     H11030   7.161   8.366   3.734 -1.8912 -0.5506 -0.0020
   80MOL0     H11031   7.272   8.498   3.770 -0.4260  0.1067 -0.0543
   80MOL0     H11032   7.018   8.529   3.581  0.4352 -0.0163 -1.0482
   80MOL0     H11033   7.172   8.624   3.601  1.3274 -0.3692  0.0136
   80MOL0     H11034   7.149   8.339   3.473  0.4933 -0.9743  1.2847
   80MOL0     H11035   7.296   8.394   3.537  0.2152  3.5448  4.1005
   80MOL0     H11036   7.253   8.586   3.157 -1.8827  3.8138  0.6744
   80MOL0     H11037   6.873   8.183   3.945  1.4358 -1.8552 -1.5627
   80MOL0     H11038   6.951   7.890   4.082  0.4919  0.9322 -1.3606
   80MOL0     H11039   6.858   7.979   4.199 -2.3377 -0.5806 -0.8251
   80MOL0     H11040   6.818   7.988   4.026  0.1000 -0.6503  0.0028
   81MOL0     O11041   0.544   8.991   1.923  0.0811  0.0906  0.5101
   81MOL0     C11042   0.601   8.885   1.944  0.1716  0.2090 -0.0573
   81MOL0     O11043   0.681   8.822   1.849  0.7625  0.0949 -0.1126
   81MOL0     C11044   0.715   8.902   1.742 -0.5109  0.6987 -0.7960
   81MOL0     C11045   0.848   8.937   1.731  0.6950 -0.2706  0.2531
   81MOL0     C11046   0.885   9.016   1.618 -0.1978 -0.0779  0.5376
   81MOL0     C11047   0.798   9.045   1.513 -0.3797 -0.1630  0.6422
   81MOL0     O11048   0.836   9.109   1.400 -0.5123 -0.0643  0.4558
   81MOL0     C11049   0.801   9.029   1.276  0.0321 -0.3241 -1.1734
   81MOL0     C11050   0.893   9.091   1.168 -0.3436  0.1751  0.1150
   81MOL0     C11051   0.878   9.035   1.029 -0.1339 -0.4364 -0.2213
   81MOL0     C11052   0.997   9.069   0.934  0.7607 -0.4019  0.4298
   81MOL0     C11053   1.043   8.972   0.826 -0.3468  0.5954 -0.2306
   81MOL0     C11054   0.924   8.902   0.752 -0.0824 -0.3318 -1.2067
   81MOL0     C11055   0.976   8.813   0.631  0.0083  0.5183 -1.1724
   81MOL0     C11056   0.877   8.781   0.513 -0.3223  0.3925 -0.0485
   81MOL0     N11057   0.924   8.665   0.438 -0.6415 -0.8251  0.7520
   81MOL0     C11058   0.924   8.524   0.472 -0.9614  0.8927  0.1671
   81MOL0     C11059   1.000   8.468   0.381  0.0881  0.3145 -0.3299
   81MOL0     C11060   1.039   8.326   0.383 -0.7043 -0.1288 -0.2584
   81MOL0     C11061   0.965   8.243   0.484  0.1320  1.0978 -0.2285
   81MOL0     C11062   1.036   8.108   0.501  0.5376 -0.3318 -0.4662
   81MOL0     C11063   0.975   8.036   0.621  0.2582 -0.4394  0.0380
   81MOL0     O11064   0.830   8.050   0.613 -1.2260 -0.6541 -0.1305
   81MOL0     C11065   0.754   7.966   0.687  0.1321  0.4169 -0.5350
   81MOL0     C11066   0.617   7.998   0.681  0.1784  0.9316  1.7541
   81MOL0     C11067   0.527   7.919   0.758  0.4910 -0.7368 -0.3631
   81MOL0     C11068   0.377   7.946   0.736  1.4923  0.0621  0.4465
   81MOL0     C11069   0.574   7.801   0.830  0.5978 -0.4336 -0.4004
   81MOL0     C11070   0.492   7.710   0.912  0.5726 -0.8808 -0.5675
   81MOL0     O11071   0.362   7.681   0.871  0.1199 -0.0341 -0.1253
   81MOL0     C11072   0.299   7.592   0.954  0.0826 -0.3855 -0.7617
   81MOL0     C11073   0.313   7.456   0.941  0.3257 -0.3813  0.6451
   81MOL0     C11074   0.247   7.375   1.036  0.1357 -0.2068  0.7210
   81MOL0     C11075   0.159   7.430   1.136  0.9861 -0.2071  0.3985
   81MOL0     O11076   0.104   7.341   1.226  0.4046  0.5066 -0.1596
   81MOL0     C11077   0.073   7.379   1.359 -0.0186  0.5955  0.8439
   81MOL0     C11078   0.186   7.447   1.436 -0.3419  0.5435  0.1177
   81MOL0     C11079   0.322   7.376   1.430 -0.0306  0.0253 -0.6525
   81MOL0     C11080   0.428   7.451   1.352  0.5935  1.1444  0.0342
   81MOL0     C11081   0.571   7.393   1.364  0.6842  0.1306  0.1739
   81MOL0     C11082   0.655   7.477   1.263  0.1769  0.8059  1.1991
   81MOL0     C11083   0.806   7.426   1.252 -0.3656  0.2927  1.1815
   81MOL0     C11084   0.892   7.444   1.378  0.2727 -0.7369 -0.4819
   81MOL0    Cl11085   1.070   7.477   1.333 -0.2908  0.3006 -0.1830
   81MOL0     C11086   0.134   7.568   1.136  0.4705  0.0979  0.3724
   81MOL0     C11087   0.224   7.648   1.060  0.2226 -0.0633  0.1272
   81MOL0     O11088   0.550   7.665   1.007 -0.1140  0.4335 -0.1145
   81MOL0     C11089   0.714   7.781   0.836 -0.4640  0.1742 -0.1461
   81MOL0     C11090   0.802   7.862   0.766 -0.0292  0.5315 -0.2142
   81MOL0     N11091   1.040   8.559   0.284 -1.0001  0.8190 -0.6072
   81MOL0     N11092   0.985   8.663   0.311 -0.4017  0.7122  0.6514
   81MOL0     C11093   0.667   8.993   1.524 -0.2785 -0.5572 -0.1676
   81MOL0     C11094   0.629   8.924   1.635  0.4105 -0.5079 -0.0287
   81MOL0     C11095   0.580   8.811   2.068 -0.7731 -1.1170 -0.4375
   81MOL0     C11096   0.590   8.672   2.066 -0.2485  0.2872  0.7241
   81MOL0     C11097   0.530   8.599   2.171  0.7498  0.0760 -0.1090
   81MOL0     C11098   0.480   8.665   2.284  0.8888 -0.9312 -1.1214
   81MOL0     O11099   0.447   8.591   2.396  0.3504  0.1215  0.2777
   81MOL0     C11100   0.435   8.651   2.530 -0.0881  0.1582  0.1523
   81MOL0     C11101   0.436   8.523   2.627 -0.2238 -0.4680 -0.0484
   81MOL0     C11102   0.294   8.466   2.642 -0.3586  0.3461 -0.2234
   81MOL0     C11103   0.311   8.316   2.660  0.2141  0.3624 -0.3625
   81MOL0     C11104   0.193   8.251   2.720  0.3740  0.6808  0.6991
   81MOL0     C11105   0.099   8.205   2.781 -0.7731  0.3800 -0.3791
   81MOL0     C11106   0.475   8.807   2.296  0.8243  0.1316 -1.5405
   81MOL0     C11107   0.528   8.875   2.190  0.5450  0.6554  1.2090
   81MOL0     C11108   0.543   9.026   2.195  0.7896  0.2830 -0.1322
   81MOL0     H11109   0.921   8.930   1.811 -0.7981  1.3918  1.8629
   81MOL0     H11110   0.991   9.038   1.626  0.4184 -3.1772  3.3268
   81MOL0     H11111   0.694   9.041   1.258 -0.3866 -0.0865  1.2133
   81MOL0     H11112   0.834   8.926   1.296 -0.1160 -0.3310 -0.9583
   81MOL0     H11113   0.866   9.197   1.160 -0.4830  0.2711  1.5739
   81MOL0     H11114   0.996   9.079   1.201  0.1659 -0.1766 -1.4999
   81MOL0     H11115   0.884   8.926   1.037  2.3327 -0.8264 -4.3196
   81MOL0     H11116   0.782   9.051   0.980 -0.1289  3.5826  0.8060
   81MOL0     H11117   0.976   9.161   0.880  0.3234  0.8297  2.5855
   81MOL0     H11118   1.082   9.086   1.000  0.4379  3.2148  0.1230
   81MOL0     H11119   1.101   8.892   0.872 -0.9791  1.1836  1.7326
   81MOL0     H11120   1.108   9.026   0.756 -0.1818  1.4728  0.5589
   81MOL0     H11121   0.879   8.828   0.819 -4.3140  1.1186 -2.1063
   81MOL0     H11122   0.849   8.980   0.733  0.7392  1.0529  0.7968
   81MOL0     H11123   1.010   8.722   0.682  0.3045  1.1580 -0.1804
   81MOL0     H11124   1.065   8.864   0.592 -0.1446  0.7373 -1.2339
   81MOL0     H11125   0.786   8.757   0.567 -2.2029 -0.4853 -3.3175
   81MOL0     H11126   0.858   8.872   0.454 -2.4031 -0.2799 -0.4849
   81MOL0     H11127   0.890   8.479   0.565 -0.4495 -0.9504 -0.4927
   81MOL0     H11128   1.146   8.329   0.405 -1.1113 -3.3367  3.2630
   81MOL0     H11129   1.032   8.290   0.279  0.7703  2.6367 -1.4158
   81MOL0     H11130   0.941   8.289   0.580 -1.6720  0.6216 -0.4162
   81MOL0     H11131   0.867   8.224   0.438  0.5823 -0.3050 -0.6433
   81MOL0     H11132   1.007   8.043   0.418 -1.5465 -1.6899  1.1994
   81MOL0     H11133   1.144   8.112   0.516  0.3166  0.2412  1.1624
   81MOL0     H11134   1.026   7.939   0.623 -0.0962 -0.6239  0.1313
   81MOL0     H11135   1.007   8.082   0.714  0.4860 -0.4767 -0.0204
   81MOL0     H11136   0.579   8.078   0.618 -1.1908 -2.5015 -2.2729
   81MOL0     H11137   0.327   7.930   0.832 -1.2333 -2.1087 -1.1808
   81MOL0     H11138   0.332   7.877   0.664  1.3469  0.5427  0.0660
   81MOL0     H11139   0.361   8.046   0.695 -0.6822 -1.1187 -1.8563
   81MOL0     H11140   0.370   7.412   0.859 -3.9620 -0.0542 -2.8443
   81MOL0     H11141   0.242   7.267   1.028 -1.1559 -0.0669 -0.9402
   81MOL0     H11142  -0.010   7.450   1.354 -0.2058  0.3173 -0.2695
   81MOL0     H11143   0.037   7.297   1.421 -2.2582  2.5475  2.3098
   81MOL0     H11144   0.196   7.551   1.403  1.7722  0.7571  1.2770
   81MOL0     H11145   0.144   7.454   1.536  0.9183 -1.6075  0.8626
   81MOL0     H11146   0.316   7.270   1.405 -0.4330 -1.1308  3.5601
   81MOL0     H11147   0.365   7.374   1.531  3.6319 -2.9669 -2.0435
   81MOL0     H11148   0.451   7.548   1.398  0.8748  0.9828  0.2319
   81MOL0     H11149   0.381   7.460   1.253 -0.7969  3.8226  0.8317
   81MOL0     H11150   0.611   7.404   1.465 -2.6170  4.0777  1.3581
   81MOL0     H11151   0.572   7.287   1.340 -0.5156 -0.1089  1.0903
   81MOL0     H11152   0.663   7.579   1.299  0.4632  0.6854  1.4835
   81MOL0     H11153   0.604   7.467   1.166  0.6031  0.7174  0.9775
   81MOL0     H11154   0.860   7.482   1.174  1.5224 -1.9756  0.7403
   81MOL0     H11155   0.806   7.319   1.228  1.3763  0.2772  1.0859
   81MOL0     H11156   0.892   7.357   1.445 -2.6206  0.0527  0.6880
   81MOL0     H11157   0.846   7.518   1.444  2.6332  1.0533 -0.7160
   81MOL0     H11158   0.069   7.622   1.204 -1.4051 -1.6336  0.0500
   81MOL0     H11159   0.209   7.755   1.070  0.3709 -0.0160 -0.1418
   81MOL0     H11160   0.756   7.711   0.908 -1.3554 -0.4393 -0.2077
   81MOL0     H11161   0.908   7.843   0.777  0.0402  1.0788  0.1532
   81MOL0     H11162   0.604   9.022   1.440 -0.8159  0.8885  0.6835
   81MOL0     H11163   0.526   8.891   1.638  0.0755  0.5222  0.3039
   81MOL0     H11164   0.613   8.634   1.967  0.4285  0.3076  0.8686
   81MOL0     H11165   0.505   8.493   2.171 -3.0566  0.8669 -0.2654
   81MOL0     H11166   0.517   8.718   2.560 -0.5522  0.6752  0.2785
   81MOL0     H11167   0.341   8.704   2.547  0.4169  0.9239  0.6478
   81MOL0     H11168   0.471   8.559   2.724  2.4046  1.7855 -1.6707
   81MOL0     H11169   0.505   8.446   2.593  2.5439  1.8779 -0.1324
   81MOL0     H11170   0.245   8.499   2.733 -2.7668 -2.4722 -0.3402
   81MOL0     H11171   0.233   8.484   2.552 -0.2300  0.3006 -0.3194
   81MOL0     H11172   0.396   8.290   2.724  2.3263 -1.4528 -3.6334
   81MOL0     H11173   0.350   8.262   2.573  2.0178 -1.1983  1.3050
   81MOL0     H11174   0.014   8.160   2.828 -1.2163  0.6016 -0.9502
   81MOL0     H11175   0.440   8.865   2.381  2.0626 -0.2643 -0.7355
   81MOL0     H11176   0.459   9.067   2.139  0.5020 -0.5618 -0.3396
   81MOL0     H11177   0.521   9.048   2.300  3.1105  2.8842 -0.0810
   81MOL0     H11178   0.634   9.077   2.165  1.8426 -0.2790  1.9036
   82MOL0     O11179   3.450  10.716   8.140 -0.3219  0.8103  0.6992
   82MOL0     C11180   3.398  10.787   8.218  0.4664  0.8973  0.3542
   82MOL0     O11181   3.390  10.926   8.214  0.1919 -0.7981  0.3938
   82MOL0     C11182   3.434  11.011   8.115 -0.2107 -0.3027  0.7167
   82MOL0     C11183   3.421  11.150   8.144  0.2855  0.2868 -0.1620
   82MOL0     C11184   3.475  11.243   8.053  0.5838 -1.0203  0.2416
   82MOL0     C11185   3.532  11.203   7.930  0.3545  0.3136  0.0691
   82MOL0     O11186   3.599  11.306   7.872 -0.0191 -1.2531 -0.2981
   82MOL0     C11187   3.641  11.296   7.735 -0.3907 -0.4572 -1.3779
   82MOL0     C11188   3.743  11.410   7.695  0.7994 -0.5573  0.4523
   82MOL0     C11189   3.745  11.427   7.546 -0.4729 -0.4687  0.8794
   82MOL0     C11190   3.832  11.550   7.520 -0.1605 -0.5374  0.1940
   82MOL0     C11191   3.848  11.583   7.370  0.2858  0.6421  0.8137
   82MOL0     C11192   3.895  11.461   7.278  0.6485 -0.7189  1.3859
   82MOL0     C11193   3.881  11.507   7.129 -1.1278 -1.5900 -0.4834
   82MOL0     C11194   3.971  11.415   7.047 -0.5281 -0.4359  0.1481
   82MOL0     N11195   3.923  11.384   6.912 -0.1256  0.4073 -0.6314
   82MOL0     C11196   3.917  11.463   6.807  0.0250  0.2431 -0.8650
   82MOL0     C11197   3.893  11.382   6.700  0.5439 -0.1120  1.2330
   82MOL0     C11198   3.914  11.419   6.556 -0.3410  0.9677 -0.5910
   82MOL0     C11199   4.056  11.379   6.504  0.0032  0.0034 -0.0921
   82MOL0     C11200   4.079  11.222   6.473 -0.2472  0.0388 -0.6877
   82MOL0     C11201   4.138  11.194   6.340  0.3750 -0.0469 -0.2499
   82MOL0     O11202   4.171  11.050   6.329 -0.5614  1.0714 -0.7981
   82MOL0     C11203   4.295  11.005   6.364  0.6800 -0.1608 -0.2742
   82MOL0     C11204   4.331  10.881   6.300  0.5291 -1.0409 -0.3065
   82MOL0     C11205   4.450  10.822   6.329 -0.0607  0.9064 -1.0219
   82MOL0     C11206   4.495  10.710   6.249 -0.2880 -0.2578 -0.4325
   82MOL0     C11207   4.542  10.877   6.423 -0.6007 -0.3951  0.2004
   82MOL0     C11208   4.663  10.814   6.474 -0.4783 -0.6352 -0.2065
   82MOL0     O11209   4.694  10.838   6.605  0.5587  0.0980  0.4752
   82MOL0     C11210   4.792  10.768   6.675  0.3853  0.6855 -0.2020
   82MOL0     C11211   4.747  10.698   6.784 -0.3271 -0.6578  0.8331
   82MOL0     C11212   4.838  10.628   6.860  0.4164  0.1926 -0.4222
   82MOL0     C11213   4.973  10.633   6.826 -0.6468  0.1989 -0.3217
   82MOL0     O11214   5.054  10.567   6.918 -0.0971 -0.0302  0.5878
   82MOL0     C11215   5.184  10.627   6.955  0.1530  0.4736  0.7253
   82MOL0     C11216   5.297  10.525   6.971 -0.3151  0.7863 -0.2181
   82MOL0     C11217   5.258  10.399   7.063  0.0616 -1.4758  0.4682
   82MOL0     C11218   5.220  10.449   7.209 -0.6799  0.0169 -0.2745
   82MOL0     C11219   5.188  10.327   7.294 -0.5180 -0.8276 -0.7694
   82MOL0     C11220   5.142  10.369   7.432  0.4240 -0.5849 -0.8286
   82MOL0     C11221   5.002  10.431   7.421 -0.8627 -0.0405 -0.3492
   82MOL0     C11222   4.995  10.579   7.470 -0.6209  0.8236  0.8736
   82MOL0    Cl11223   5.039  10.596   7.642  0.0089  0.1265 -0.0642
   82MOL0     C11224   5.017  10.690   6.711  0.4863 -0.3489 -0.7268
   82MOL0     C11225   4.929  10.769   6.639 -0.5657  0.1236 -0.2836
   82MOL0     O11226   4.726  10.734   6.406  0.5874 -0.2225 -0.6882
   82MOL0     C11227   4.510  11.001   6.474  1.1193  0.3271  0.1337
   82MOL0     C11228   4.386  11.065   6.448  0.2596  0.0141 -0.1333
   82MOL0     N11229   3.884  11.254   6.752  0.8085 -0.2584  0.5894
   82MOL0     N11230   3.899  11.256   6.876  1.2797  0.2275 -0.4458
   82MOL0     C11231   3.536  11.071   7.888 -0.4904  0.5254  0.3494
   82MOL0     C11232   3.489  10.980   7.984  0.4088  0.8840  0.0903
   82MOL0     C11233   3.331  10.733   8.331 -0.2527  0.5500 -0.4655
   82MOL0     C11234   3.250  10.815   8.405 -0.7734 -0.6051  0.6759
   82MOL0     C11235   3.184  10.783   8.523 -0.1350 -0.4218 -0.3472
   82MOL0     C11236   3.186  10.649   8.568  0.0669 -0.8787 -0.9828
   82MOL0     O11237   3.127  10.605   8.691 -0.0852 -0.3659 -0.0901
   82MOL0     C11238   3.002  10.671   8.724  0.0011 -0.0779 -0.5458
   82MOL0     C11239   2.943  10.637   8.863 -0.1395  0.5228 -0.0932
   82MOL0     C11240   3.057  10.629   8.966  0.9099 -1.1354  0.9143
   82MOL0     C11241   3.010  10.601   9.109  0.2784  0.6136  0.0344
   82MOL0     C11242   3.115  10.548   9.192 -0.0930 -0.1976  0.4084
   82MOL0     C11243   3.197  10.492   9.263 -0.1467  0.6102  0.3490
   82MOL0     C11244   3.269  10.559   8.504 -0.5267  1.0720 -0.4131
   82MOL0     C11245   3.337  10.595   8.388 -0.3187  0.1128  0.1913
   82MOL0     C11246   3.404  10.482   8.318  0.6833  0.1721 -0.3782
   82MOL0     H11247   3.371  11.183   8.234  0.3666 -0.9983  0.3784
   82MOL0     H11248   3.476  11.347   8.083 -2.0741  0.6119 -4.2980
   82MOL0     H11249   3.553  11.291   7.671 -0.1938  0.3635 -1.7225
   82MOL0     H11250   3.693  11.200   7.721 -0.4402 -0.5140 -1.1798
   82MOL0     H11251   3.716  11.503   7.747  0.8140 -0.7983  0.8922
   82MOL0     H11252   3.847  11.404   7.726  1.3308  2.5443 -0.3242
   82MOL0     H11253   3.785  11.338   7.498  0.3112 -0.1246  0.8679
   82MOL0     H11254   3.645  11.444   7.505 -0.0821  1.6321  0.6603
   82MOL0     H11255   3.786  11.632   7.575 -0.6528 -2.2914  2.5922
   82MOL0     H11256   3.934  11.533   7.557 -0.2091 -1.0034  0.1172
   82MOL0     H11257   3.931  11.652   7.351  3.7045 -3.0076  1.1401
   82MOL0     H11258   3.749  11.614   7.336 -1.0078 -1.1809  2.6651
   82MOL0     H11259   3.996  11.436   7.312  0.2090 -4.1854  0.5176
   82MOL0     H11260   3.833  11.373   7.300 -0.2972 -0.7320 -1.0415
   82MOL0     H11261   3.919  11.610   7.124  0.1837 -2.0487 -0.2603
   82MOL0     H11262   3.778  11.502   7.092 -0.0007  0.1279 -4.3207
   82MOL0     H11263   4.074  11.453   7.049 -0.0062 -1.7740  0.2180
   82MOL0     H11264   3.986  11.318   7.096 -1.8437 -1.5180 -1.5015
   82MOL0     H11265   3.937  11.570   6.808  5.4950 -0.4327  1.8974
   82MOL0     H11266   3.909  11.528   6.556  0.5060  1.0259  0.7189
   82MOL0     H11267   3.839  11.372   6.492 -0.0962 -1.7025  0.9372
   82MOL0     H11268   4.066  11.435   6.410 -1.4698 -2.7775 -2.0769
   82MOL0     H11269   4.137  11.409   6.570 -0.4678 -0.6320  0.7893
   82MOL0     H11270   4.138  11.173   6.551  0.7103 -2.0453 -2.6068
   82MOL0     H11271   3.980  11.176   6.464  0.4691 -1.6264 -0.4173
   82MOL0     H11272   4.061  11.220   6.267  2.4121  0.3970 -2.3420
   82MOL0     H11273   4.226  11.256   6.324  0.5369  0.0956  1.0986
   82MOL0     H11274   4.269  10.836   6.224 -2.4572 -0.0808  1.4065
   82MOL0     H11275   4.482  10.608   6.287 -0.8300 -0.9849 -2.4207
   82MOL0     H11276   4.599  10.724   6.217 -0.0239 -1.4018 -0.1225
   82MOL0     H11277   4.433  10.698   6.160 -1.1720  1.0478 -0.0185
   82MOL0     H11278   4.644  10.679   6.814 -1.3042 -1.4648 -2.5745
   82MOL0     H11279   4.825  10.565   6.948  3.0331  0.8962  0.5822
   82MOL0     H11280   5.225  10.688   6.874  1.2315 -1.3519 -0.1907
   82MOL0     H11281   5.179  10.682   7.049 -0.6410 -1.1694  1.6910
   82MOL0     H11282   5.336  10.482   6.878  1.2444 -0.6141  1.0335
   82MOL0     H11283   5.383  10.568   7.022 -0.2342 -0.5678  0.8496
   82MOL0     H11284   5.334  10.321   7.065  0.4264 -1.1388  0.0973
   82MOL0     H11285   5.161  10.368   7.023 -0.1997  1.5289 -1.5484
   82MOL0     H11286   5.128  10.508   7.202 -0.8470 -0.0212  1.1328
   82MOL0     H11287   5.301  10.504   7.259 -0.8099 -1.2615  1.4310
   82MOL0     H11288   5.113  10.259   7.253  0.1376 -2.4962  0.6924
   82MOL0     H11289   5.272  10.257   7.302  2.0705  1.9080 -1.8941
   82MOL0     H11290   5.209  10.445   7.473 -0.4019  0.5349 -1.4862
   82MOL0     H11291   5.145  10.282   7.497  0.6123 -0.1723 -0.2759
   82MOL0     H11292   4.940  10.376   7.493  0.3190  0.1832  0.8742
   82MOL0     H11293   4.952  10.413   7.325  0.9836 -2.4947 -0.9606
   82MOL0     H11294   4.901  10.625   7.439 -1.2147 -2.4670 -3.0440
   82MOL0     H11295   5.070  10.643   7.421 -1.3402 -0.9523 -2.9873
   82MOL0     H11296   5.123  10.683   6.689  0.5045  0.5030 -0.9240
   82MOL0     H11297   4.958  10.808   6.542  1.3748 -0.2231  0.1201
   82MOL0     H11298   4.578  11.049   6.543  0.8822  0.4891  0.2530
   82MOL0     H11299   4.379  11.164   6.491  5.1082  0.8937 -0.8675
   82MOL0     H11300   3.569  11.046   7.788 -0.3907  2.6408 -0.2055
   82MOL0     H11301   3.501  10.878   7.950 -1.6262  1.1452 -1.5466
   82MOL0     H11302   3.237  10.916   8.367  3.4319 -0.2068 -0.2521
   82MOL0     H11303   3.127  10.855   8.580 -1.3997 -3.1942  2.1377
   82MOL0     H11304   2.998  10.781   8.721 -3.5387 -0.0779 -0.5366
   82MOL0     H11305   2.922  10.637   8.658 -2.9579  3.8405  0.6309
   82MOL0     H11306   2.868  10.558   8.853 -0.0521  0.7645 -4.3731
   82MOL0     H11307   2.881  10.726   8.880  1.7972  2.3143 -1.8429
   82MOL0     H11308   3.132  10.555   8.939  2.7117 -0.0920  2.7665
   82MOL0     H11309   3.101  10.729   8.970 -0.1103 -0.6713  0.9088
   82MOL0     H11310   2.929  10.528   9.099  1.3516 -1.0437  2.3616
   82MOL0     H11311   2.983  10.695   9.159 -1.7205 -0.4831  1.1386
   82MOL0     H11312   3.283  10.448   9.310  0.8754  1.0722 -1.0507
   82MOL0     H11313   3.281  10.459   8.544  2.7853  1.2321 -0.7607
   82MOL0     H11314   3.397  10.389   8.375  2.4981 -0.1062 -0.5737
   82MOL0     H11315   3.367  10.459   8.218 -0.0326 -1.2895  0.1994
   82MOL0     H11316   3.511  10.501   8.309  0.6332 -0.3468 -2.7791
   83MOL0     O11317   5.277   2.177   1.160  0.5309  0.2577  0.4965
   83MOL0     C11318   5.355   2.125   1.078 -0.3424  0.0578 -0.4905
   83MOL0     O11319   5.397   2.182   0.957 -0.1816 -0.6226 -0.7819
   83MOL0     C11320   5.328   2.298   0.927 -1.0451 -0.0768 -1.1262
   83MOL0     C11321   5.410   2.396   0.881  0.7817 -0.1820 -0.2395
   83MOL0     C11322   5.365   2.518   0.827 -0.2835 -1.2259 -0.2323
   83MOL0     C11323   5.234   2.564   0.844 -0.0361  0.5196  0.0172
   83MOL0     O11324   5.180   2.685   0.814 -0.8157 -0.0150 -0.1693
   83MOL0     C11325   5.233   2.747   0.699 -0.5452 -0.6519  1.1111
   83MOL0     C11326   5.133   2.693   0.587 -0.5338 -0.4260 -0.5754
   83MOL0     C11327   5.207   2.660   0.445  0.2975  0.6119 -0.6874
   83MOL0     C11328   5.175   2.775   0.350  0.4838  0.2017 -0.3805
   83MOL0     C11329   5.282   2.781   0.247 -0.3156  0.2129  0.5070
   83MOL0     C11330   5.261   2.890   0.135  0.4244 -0.5172 -0.1734
   83MOL0     C11331   5.285   3.037   0.172 -0.2388  0.8225 -0.9456
   83MOL0     C11332   5.273   3.120   0.034  0.1390  0.0977 -0.0828
   83MOL0     N11333   5.133   3.154  -0.000 -0.1161  0.1708  0.3822
   83MOL0     C11334   5.067   3.257   0.054 -0.3803 -0.5015 -0.0596
   83MOL0     C11335   4.947   3.271  -0.001  0.0369 -0.3543 -0.2548
   83MOL0     C11336   4.856   3.369   0.043  0.1724  0.6525 -0.0920
   83MOL0     C11337   4.775   3.319   0.157  0.3485 -0.5442 -0.8002
   83MOL0     C11338   4.678   3.203   0.117  0.0086  0.6293  0.0640
   83MOL0     C11339   4.545   3.221   0.196 -0.2089  0.5523  0.1503
   83MOL0     O11340   4.478   3.344   0.164  0.2520 -0.0494  0.9099
   83MOL0     C11341   4.371   3.386   0.235  0.2474 -0.2924  1.4854
   83MOL0     C11342   4.313   3.499   0.184  0.6658  0.1622 -0.0382
   83MOL0     C11343   4.200   3.546   0.248  0.3252  0.3181 -0.5924
   83MOL0     C11344   4.146   3.671   0.187  0.7616 -0.1099 -0.4429
   83MOL0     C11345   4.142   3.482   0.363  0.4283 -1.0570 -0.3330
   83MOL0     C11346   4.020   3.533   0.444 -0.3426  0.1385 -0.9328
   83MOL0     O11347   3.974   3.443   0.542 -0.5536  0.1161  1.2523
   83MOL0     C11348   3.871   3.479   0.623  0.4457  0.4652 -0.4478
   83MOL0     C11349   3.736   3.491   0.575 -0.3810  0.1247  0.3427
   83MOL0     C11350   3.631   3.502   0.662  0.2785  0.6493 -0.1273
   83MOL0     C11351   3.656   3.504   0.798  0.4979  0.1013  0.6655
   83MOL0     O11352   3.548   3.517   0.875  0.6807  0.4233  0.5434
   83MOL0     C11353   3.542   3.474   1.006 -1.2509 -0.2873 -0.5472
   83MOL0     C11354   3.404   3.402   1.033  0.4414 -0.0418 -0.6379
   83MOL0     C11355   3.372   3.348   1.182 -0.2352  0.2250  1.1472
   83MOL0     C11356   3.229   3.308   1.204 -0.3436  0.4729  0.1793
   83MOL0     C11357   3.200   3.329   1.346 -0.0195 -0.2036 -0.6006
   83MOL0     C11358   3.055   3.286   1.390  0.0967  0.1071 -0.6795
   83MOL0     C11359   3.018   3.337   1.531  0.2859  0.4435 -0.2459
   83MOL0     C11360   2.986   3.480   1.543  0.2785  0.5270  0.2703
   83MOL0    Cl11361   2.964   3.501   1.718 -0.2190  0.1302  0.5171
   83MOL0     C11362   3.789   3.490   0.844  0.1645  0.0314 -0.3862
   83MOL0     C11363   3.902   3.479   0.757  1.0134 -0.3032  0.1806
   83MOL0     O11364   3.959   3.637   0.414 -0.0480 -0.6109 -0.4103
   83MOL0     C11365   4.195   3.362   0.406 -0.5170  0.6899 -0.3042
   83MOL0     C11366   4.315   3.323   0.354 -0.3009 -0.1121  1.4225
   83MOL0     N11367   4.934   3.162  -0.085  0.0066  0.1355 -0.2340
   83MOL0     N11368   5.041   3.093  -0.083  0.8524  0.1774  0.6104
   83MOL0     C11369   5.141   2.465   0.888 -0.5315  0.2344 -0.1310
   83MOL0     C11370   5.189   2.334   0.929 -1.1032  0.0266 -1.4131
   83MOL0     C11371   5.396   1.982   1.085 -0.2029 -0.9772 -0.7194
   83MOL0     C11372   5.403   1.909   0.967  0.2723  0.2196  1.3741
   83MOL0     C11373   5.429   1.770   0.964 -0.0536 -0.3212  0.3792
   83MOL0     C11374   5.454   1.701   1.078 -0.2801  0.9130  0.4746
   83MOL0     O11375   5.463   1.559   1.057  0.1086  0.4259 -0.4248
   83MOL0     C11376   5.453   1.474   1.176  0.6953 -0.9137  0.4373
   83MOL0     C11377   5.585   1.437   1.243  0.3826  0.0765  0.6283
   83MOL0     C11378   5.672   1.353   1.150  0.4217  0.0978 -0.6052
   83MOL0     C11379   5.800   1.290   1.221  0.1375  0.1996  0.2717
   83MOL0     C11380   5.895   1.228   1.130 -0.5400  0.3973  0.1505
   83MOL0     C11381   5.961   1.156   1.056  0.0287 -0.7141 -0.4037
   83MOL0     C11382   5.448   1.770   1.204 -0.0192  0.2840  0.3009
   83MOL0     C11383   5.416   1.907   1.203 -1.0849 -0.0532  0.4281
   83MOL0     C11384   5.405   1.971   1.336 -0.0131 -0.9492 -0.3551
   83MOL0     H11385   5.515   2.370   0.867  0.6869  0.5024 -2.6200
   83MOL0     H11386   5.442   2.586   0.790 -0.7449 -2.0546 -2.9070
   83MOL0     H11387   5.338   2.722   0.680 -0.4805  0.6563 -0.5420
   83MOL0     H11388   5.226   2.856   0.700 -2.1299 -0.6041 -1.9941
   83MOL0     H11389   5.093   2.596   0.618  0.9884 -1.0121 -0.3454
   83MOL0     H11390   5.051   2.763   0.570  0.1334 -0.2293 -3.4691
   83MOL0     H11391   5.315   2.646   0.450  0.2748  0.1728 -1.3740
   83MOL0     H11392   5.161   2.568   0.408  1.4789 -1.0677  1.7283
   83MOL0     H11393   5.076   2.766   0.304  0.0543  1.2359  0.2813
   83MOL0     H11394   5.161   2.875   0.395 -1.8468 -0.3453  0.2520
   83MOL0     H11395   5.300   2.685   0.198  3.1616  1.4862 -1.0445
   83MOL0     H11396   5.376   2.808   0.297 -1.6681 -0.0472  3.3720
   83MOL0     H11397   5.341   2.861   0.066  1.7238  3.7838 -0.7767
   83MOL0     H11398   5.166   2.872   0.084  0.2906  0.4356 -0.2738
   83MOL0     H11399   5.385   3.044   0.217  0.6781 -1.6119 -2.3682
   83MOL0     H11400   5.218   3.061   0.255  1.2616  1.0782  0.2462
   83MOL0     H11401   5.335   3.209   0.043 -1.8961  1.6423 -0.6637
   83MOL0     H11402   5.313   3.057  -0.046  1.3485  0.3572  0.2946
   83MOL0     H11403   5.106   3.310   0.141  0.0803 -0.9397  0.0056
   83MOL0     H11404   4.778   3.378  -0.033 -0.3151  0.2610  0.3648
   83MOL0     H11405   4.900   3.460   0.085 -0.2880 -0.0984  2.1501
   83MOL0     H11406   4.845   3.282   0.233  0.8565 -0.1902 -1.0866
   83MOL0     H11407   4.721   3.402   0.203 -1.9809 -2.2800 -0.2314
   83MOL0     H11408   4.652   3.213   0.011 -1.8984 -2.8066  0.0682
   83MOL0     H11409   4.732   3.113   0.146  2.2964  1.9744  0.2572
   83MOL0     H11410   4.491   3.130   0.168  0.4181 -0.0452  0.8351
   83MOL0     H11411   4.564   3.214   0.303  1.4012 -2.0985 -0.1876
   83MOL0     H11412   4.361   3.550   0.101  1.8403  1.8122  1.5723
   83MOL0     H11413   4.206   3.709   0.103 -0.2831 -0.0092 -1.1699
   83MOL0     H11414   4.140   3.751   0.262 -2.2686 -1.6312  1.1423
   83MOL0     H11415   4.050   3.651   0.139  2.1250 -3.1946 -2.1526
   83MOL0     H11416   3.711   3.490   0.470 -2.3347  0.4737  0.7773
   83MOL0     H11417   3.533   3.521   0.619 -0.5209  1.4033  1.9466
   83MOL0     H11418   3.618   3.403   1.040 -1.8947 -0.2401  1.0720
   83MOL0     H11419   3.552   3.560   1.073 -2.4357 -0.9415  0.4944
   83MOL0     H11420   3.324   3.473   1.009 -0.4478 -0.1383  1.6990
   83MOL0     H11421   3.398   3.311   0.974 -1.2756 -0.4780  0.1394
   83MOL0     H11422   3.410   3.426   1.250  1.0032  0.7891 -0.1351
   83MOL0     H11423   3.431   3.261   1.213  0.2447 -0.1289 -0.6732
   83MOL0     H11424   3.207   3.205   1.177 -2.1918  0.9936 -0.4880
   83MOL0     H11425   3.155   3.371   1.154 -2.5177 -2.5028 -0.6494
   83MOL0     H11426   3.253   3.254   1.406 -1.4073  0.6287  1.7779
   83MOL0     H11427   3.228   3.427   1.386 -0.2617  0.1532 -1.2876
   83MOL0     H11428   3.051   3.177   1.394 -1.2901 -0.1913 -5.2393
   83MOL0     H11429   2.976   3.309   1.318 -2.1287  1.9576  2.1191
   83MOL0     H11430   3.104   3.322   1.597 -1.5756 -0.5822  2.0901
   83MOL0     H11431   2.935   3.275   1.567 -0.3447  0.6037 -1.3954
   83MOL0     H11432   2.886   3.496   1.501  0.0600  2.1198  1.2984
   83MOL0     H11433   3.064   3.540   1.495  2.0389 -1.8835 -0.0916
   83MOL0     H11434   3.808   3.483   0.951 -3.4765 -2.9756  0.2898
   83MOL0     H11435   4.005   3.468   0.788  1.1506 -4.0544 -1.0880
   83MOL0     H11436   4.144   3.313   0.488  0.0444  5.0161  2.9865
   83MOL0     H11437   4.357   3.229   0.389 -1.5370 -0.6008  1.6485
   83MOL0     H11438   5.038   2.498   0.898  0.3186  2.9012  0.5974
   83MOL0     H11439   5.120   2.250   0.938  0.1598 -1.1381 -2.1670
   83MOL0     H11440   5.399   1.967   0.875 -1.8888  1.4036  2.1346
   83MOL0     H11441   5.424   1.714   0.871  0.4239  1.0622 -0.5058
   83MOL0     H11442   5.382   1.514   1.249  1.9864 -0.5075  1.5252
   83MOL0     H11443   5.412   1.378   1.145 -2.0614 -0.5364  2.5476
   83MOL0     H11444   5.561   1.369   1.325  1.2112 -4.1425 -2.2873
   83MOL0     H11445   5.644   1.525   1.271 -0.8325  0.2380  2.9714
   83MOL0     H11446   5.623   1.265   1.106 -2.4043  1.4589 -0.3880
   83MOL0     H11447   5.715   1.413   1.070  1.0193 -0.6840 -0.8813
   83MOL0     H11448   5.762   1.215   1.291 -1.3455 -0.0101 -0.7351
   83MOL0     H11449   5.860   1.367   1.273  0.1941 -0.1125  0.6728
   83MOL0     H11450   6.009   1.089   0.987  0.9883 -1.1146  0.6069
   83MOL0     H11451   5.454   1.705   1.291  0.7852  1.1674  0.9162
   83MOL0     H11452   5.317   2.036   1.343  1.0526  0.4885 -0.0346
   83MOL0     H11453   5.392   1.900   1.418  0.6094 -1.2065 -0.4723
   83MOL0     H11454   5.489   2.037   1.357  0.5979 -1.5092 -0.9780
   84MOL0     O11455   7.332   3.037   6.464 -0.3238 -0.1827 -0.1992
   84MOL0     C11456   7.356   2.918   6.463  0.3462  0.1943 -0.4903
   84MOL0     O11457   7.398   2.843   6.564 -0.2949 -0.6855  0.3606
   84MOL0     C11458   7.399   2.879   6.701  0.5059 -1.1815 -0.0860
   84MOL0     C11459   7.324   2.976   6.762 -0.1024  0.1688  0.1801
   84MOL0     C11460   7.358   3.027   6.893 -0.2930 -0.3046  0.4048
   84MOL0     C11461   7.470   2.976   6.965 -0.3102  0.8960  0.3202
   84MOL0     O11462   7.507   3.030   7.090 -0.0285  0.2516  0.7412
   84MOL0     C11463   7.642   3.070   7.126  0.2155  0.2338  0.2716
   84MOL0     C11464   7.646   3.103   7.288 -0.4160 -0.2712 -0.0720
   84MOL0     C11465   7.554   3.004   7.366  0.4422 -1.4291  1.0272
   84MOL0     C11466   7.403   3.052   7.366 -0.3366  0.3548 -0.1675
   84MOL0     C11467   7.310   2.944   7.414  0.6482 -0.3660 -0.3843
   84MOL0     C11468   7.277   2.855   7.291  0.6008  0.5854 -0.0981
   84MOL0     C11469   7.166   2.751   7.321  0.0496 -0.1672 -0.7291
   84MOL0     C11470   7.117   2.654   7.216 -0.3287  0.1448  0.5037
   84MOL0     N11471   7.074   2.733   7.099  0.4250 -0.7569 -0.3226
   84MOL0     C11472   7.006   2.861   7.098  0.2962 -0.0855  1.3772
   84MOL0     C11473   6.998   2.894   6.965 -0.0311  0.0462 -1.2046
   84MOL0     C11474   6.933   3.006   6.896 -0.3703 -0.8671  0.1666
   84MOL0     C11475   6.790   3.030   6.938  0.1456  0.3268  0.8493
   84MOL0     C11476   6.740   3.151   6.863  0.4956 -0.0279  0.6808
   84MOL0     C11477   6.586   3.175   6.864 -0.1209  0.2152  0.4251
   84MOL0     O11478   6.519   3.133   6.985  0.8667  0.3043 -1.0341
   84MOL0     C11479   6.474   3.225   7.083 -0.2491 -0.1910  0.7796
   84MOL0     C11480   6.454   3.359   7.074  0.4285 -0.0472  0.1962
   84MOL0     C11481   6.431   3.428   7.189  0.3691 -0.2905  0.3173
   84MOL0     C11482   6.402   3.572   7.171 -0.4430  0.2157 -0.1687
   84MOL0     C11483   6.430   3.375   7.314  0.0550  0.1453 -0.2820
   84MOL0     C11484   6.419   3.450   7.435  0.2867 -0.0127 -0.2936
   84MOL0     O11485   6.489   3.565   7.437 -0.0135 -0.2107  0.7489
   84MOL0     C11486   6.489   3.651   7.549  0.1987 -0.8543 -0.3949
   84MOL0     C11487   6.478   3.789   7.520  0.3306 -0.3621 -0.2413
   84MOL0     C11488   6.473   3.878   7.634  0.7867  0.2322  0.6955
   84MOL0     C11489   6.483   3.841   7.766  0.0466  0.8973 -0.0439
   84MOL0     O11490   6.486   3.938   7.861  0.2426 -0.5194  0.4479
   84MOL0     C11491   6.463   3.888   7.995  0.1043  1.2598  0.8065
   84MOL0     C11492   6.444   4.002   8.099 -0.5082  0.2446  0.0856
   84MOL0     C11493   6.551   4.118   8.086 -0.0547  0.2882 -1.0202
   84MOL0     C11494   6.559   4.201   8.208  0.3942  1.2029 -0.1385
   84MOL0     C11495   6.642   4.329   8.194  0.6518  0.1158 -0.4483
   84MOL0     C11496   6.627   4.417   8.309  0.8938 -0.4214 -0.0731
   84MOL0     C11497   6.636   4.573   8.259 -0.3560 -0.2805  0.2233
   84MOL0     C11498   6.787   4.595   8.234  0.0064 -0.0309  1.3806
   84MOL0    Cl11499   6.882   4.575   8.378  0.0482 -0.2757 -0.9300
   84MOL0     C11500   6.493   3.695   7.788 -1.0531 -0.5440 -0.1631
   84MOL0     C11501   6.493   3.612   7.684 -0.1779 -0.4618 -0.3412
   84MOL0     O11502   6.360   3.405   7.534 -0.3261 -0.1790 -0.2209
   84MOL0     C11503   6.424   3.236   7.314  1.4217 -0.6699 -0.0209
   84MOL0     C11504   6.442   3.159   7.200 -0.1997  0.0021 -0.5770
   84MOL0     N11505   7.065   2.798   6.887  0.6333  0.8319  0.2035
   84MOL0     N11506   7.081   2.689   6.966  0.4952  0.9941 -0.4584
   84MOL0     C11507   7.542   2.866   6.905 -0.3601 -0.4577 -0.5636
   84MOL0     C11508   7.509   2.827   6.772 -0.3820 -0.6887 -0.2453
   84MOL0     C11509   7.345   2.844   6.333  0.5444  0.0141  0.0974
   84MOL0     C11510   7.362   2.702   6.335  0.9100 -0.3906  1.3317
   84MOL0     C11511   7.372   2.624   6.217 -0.2699  0.6520  0.2357
   84MOL0     C11512   7.368   2.680   6.092 -0.9628 -0.3422  0.9461
   84MOL0     O11513   7.370   2.590   5.990 -0.4470 -0.5119 -0.5062
   84MOL0     C11514   7.415   2.623   5.858  0.6109  1.2692 -0.2971
   84MOL0     C11515   7.456   2.489   5.786 -0.2009 -0.9713 -0.3264
   84MOL0     C11516   7.610   2.466   5.808  0.3952 -1.2770 -0.8219
   84MOL0     C11517   7.651   2.330   5.765 -0.2568  0.0203  0.2645
   84MOL0     C11518   7.633   2.231   5.871  0.6538  0.2424  1.1141
   84MOL0     C11519   7.622   2.161   5.971 -0.4871 -0.0003  0.5875
   84MOL0     C11520   7.330   2.815   6.082  0.8155 -0.2099 -0.8889
   84MOL0     C11521   7.319   2.900   6.205 -0.0519  0.1487 -0.5744
   84MOL0     C11522   7.276   3.035   6.191 -0.3477  0.0767 -0.3494
   84MOL0     H11523   7.234   3.016   6.718  1.0053  1.6189 -0.8771
   84MOL0     H11524   7.295   3.098   6.946 -0.2561 -0.7752  1.0832
   84MOL0     H11525   7.676   3.155   7.066  1.9325 -1.0576 -0.6650
   84MOL0     H11526   7.709   2.985   7.112 -0.1330  0.4498 -4.6409
   84MOL0     H11527   7.751   3.107   7.319  0.2608  0.9548 -2.2447
   84MOL0     H11528   7.612   3.205   7.306  1.1832 -0.1921  3.0656
   84MOL0     H11529   7.561   2.905   7.320 -1.7406 -1.6095  0.9768
   84MOL0     H11530   7.593   2.998   7.468 -0.5202 -0.6394  1.4553
   84MOL0     H11531   7.391   3.134   7.437  2.3737 -0.3905  1.2835
   84MOL0     H11532   7.373   3.081   7.265 -4.5831 -0.6142  0.6163
   84MOL0     H11533   7.212   2.984   7.443  0.3002 -1.1100 -0.5020
   84MOL0     H11534   7.353   2.886   7.496  1.2746  0.6025 -0.0141
   84MOL0     H11535   7.244   2.913   7.204 -0.9425  0.8284  0.6035
   84MOL0     H11536   7.362   2.799   7.252  0.2953 -0.2259  0.3732
   84MOL0     H11537   7.077   2.801   7.360  0.8152 -0.9689  2.3512
   84MOL0     H11538   7.208   2.690   7.402  3.1398  2.5584 -0.0506
   84MOL0     H11539   7.200   2.591   7.185 -0.6498  0.0884 -0.2579
   84MOL0     H11540   7.040   2.591   7.262  0.8418 -0.8467  1.1552
   84MOL0     H11541   6.955   2.914   7.178 -3.3206 -3.5082  1.6382
   84MOL0     H11542   6.932   3.002   6.786 -2.8604 -1.1287  0.1324
   84MOL0     H11543   6.983   3.101   6.916 -0.1548 -0.8981 -0.2094
   84MOL0     H11544   6.732   2.953   6.888 -1.1929 -1.1087  4.3218
   84MOL0     H11545   6.771   3.019   7.045  1.8816 -1.1279  1.0525
   84MOL0     H11546   6.791   3.237   6.907 -2.0199  2.4691 -0.9644
   84MOL0     H11547   6.776   3.151   6.760  0.6355  2.2477  0.6896
   84MOL0     H11548   6.569   3.276   6.826 -1.7719  0.7803  2.4636
   84MOL0     H11549   6.544   3.108   6.788 -5.0356 -0.0643  2.9699
   84MOL0     H11550   6.461   3.406   6.976 -0.6440  1.3057  0.7361
   84MOL0     H11551   6.495   3.629   7.168  1.4554 -2.6842 -1.2085
   84MOL0     H11552   6.330   3.605   7.246  0.0686 -3.4677  2.2299
   84MOL0     H11553   6.355   3.582   7.072 -1.2043 -0.4820  0.1098
   84MOL0     H11554   6.468   3.830   7.420 -2.1828 -0.4414 -0.0699
   84MOL0     H11555   6.472   3.984   7.612  1.6763  0.4353  1.5685
   84MOL0     H11556   6.365   3.840   7.990  1.1763 -0.9657 -0.6819
   84MOL0     H11557   6.541   3.818   8.026 -1.1678 -0.2896  0.6185
   84MOL0     H11558   6.349   4.049   8.073 -0.5380  0.0441 -0.1831
   84MOL0     H11559   6.427   3.954   8.196 -2.0330  1.8972  0.6820
   84MOL0     H11560   6.545   4.187   8.001  3.2793 -1.2296 -2.7136
   84MOL0     H11561   6.653   4.078   8.092  0.3163  1.2207 -0.9992
   84MOL0     H11562   6.593   4.142   8.294 -0.3704 -0.1487 -0.7262
   84MOL0     H11563   6.454   4.219   8.236  0.5756  0.1838  1.2938
   84MOL0     H11564   6.750   4.308   8.192  0.8866  0.4029  3.0849
   84MOL0     H11565   6.613   4.380   8.102 -1.7949 -0.3037  0.0333
   84MOL0     H11566   6.700   4.404   8.389  0.0577  1.4887  1.0823
   84MOL0     H11567   6.529   4.398   8.353  1.7888 -2.6439  1.0540
   84MOL0     H11568   6.597   4.648   8.328 -2.2800  0.8295 -1.9519
   84MOL0     H11569   6.586   4.608   8.169  1.2855 -0.7061 -0.8872
   84MOL0     H11570   6.798   4.698   8.198  2.7971  0.0742  2.3157
   84MOL0     H11571   6.824   4.523   8.160 -0.8358 -0.1022  1.0136
   84MOL0     H11572   6.500   3.649   7.886 -0.6040  1.2476  0.6936
   84MOL0     H11573   6.508   3.507   7.704 -2.1038 -0.5118  1.1320
   84MOL0     H11574   6.403   3.181   7.406  2.3267  1.3734  1.4896
   84MOL0     H11575   6.429   3.051   7.197 -1.4029  0.1105  0.1057
   84MOL0     H11576   7.640   2.841   6.944  0.1842 -0.5358 -1.9132
   84MOL0     H11577   7.579   2.773   6.709 -1.8118 -1.0603 -1.5668
   84MOL0     H11578   7.353   2.648   6.428 -3.0542 -2.7594 -0.1880
   84MOL0     H11579   7.387   2.517   6.221  1.7317  0.8192 -1.0481
   84MOL0     H11580   7.346   2.679   5.794  1.3624  0.6189 -1.7434
   84MOL0     H11581   7.495   2.697   5.862 -0.8479  3.0470 -1.9264
   84MOL0     H11582   7.437   2.490   5.678  0.3074  1.6181 -0.4457
   84MOL0     H11583   7.411   2.404   5.838  1.9106 -2.1948 -0.3911
   84MOL0     H11584   7.670   2.542   5.757 -1.0534 -1.0057 -2.1982
   84MOL0     H11585   7.634   2.468   5.915 -0.6824 -1.4064 -0.5693
   84MOL0     H11586   7.755   2.333   5.730 -0.0667 -1.8334  0.5763
   84MOL0     H11587   7.579   2.299   5.689 -2.3934 -0.8044  2.5166
   84MOL0     H11588   7.641   2.099   6.057  0.7664 -0.8661 -0.2580
   84MOL0     H11589   7.313   2.858   5.984 -0.9191  1.8742  0.2360
   84MOL0     H11590   7.174   3.043   6.230 -0.8009  0.0855 -1.4819
   84MOL0     H11591   7.341   3.112   6.234  2.0173 -1.1768 -1.4552
   84MOL0     H11592   7.244   3.055   6.088 -1.3075 -1.0695 -0.2972
   85MOL0     O11593   0.423   4.377   1.067 -0.3340  0.2888 -0.1465
   85MOL0     C11594   0.471   4.442   1.161 -0.1111 -1.0203 -1.0311
   85MOL0     O11595   0.608   4.470   1.190  0.4987  0.4413 -0.3284
   85MOL0     C11596   0.713   4.470   1.105  0.7037  0.5994  0.3240
   85MOL0     C11597   0.838   4.493   1.164 -0.2261  1.4479 -0.5737
   85MOL0     C11598   0.950   4.474   1.096  0.1965  0.0327 -0.0201
   85MOL0     C11599   0.942   4.449   0.957  0.0631 -0.6590 -0.3067
   85MOL0     O11600   1.054   4.454   0.882 -0.5820 -0.2851 -0.2164
   85MOL0     C11601   1.066   4.550   0.788  0.5149  0.2815  0.0189
   85MOL0     C11602   1.119   4.683   0.834  0.4182 -0.1776 -0.5648
   85MOL0     C11603   1.265   4.680   0.877  0.0742 -0.4725 -0.8986
   85MOL0     C11604   1.362   4.662   0.754  0.3473 -0.0101  0.4132
   85MOL0     C11605   1.375   4.787   0.666 -1.3981  1.2951 -1.1066
   85MOL0     C11606   1.507   4.793   0.600  0.0198 -0.5693  0.1455
   85MOL0     C11607   1.520   4.912   0.495  0.2231  0.5665  0.9388
   85MOL0     C11608   1.450   4.860   0.363  0.5751  0.2247 -0.1057
   85MOL0     N11609   1.539   4.757   0.297 -0.0631 -0.6242  0.1163
   85MOL0     C11610   1.671   4.787   0.253 -0.2828 -0.8182  0.0096
   85MOL0     C11611   1.731   4.666   0.224  1.7192  0.1043 -0.1803
   85MOL0     C11612   1.873   4.631   0.181 -0.1420 -0.0636  0.1677
   85MOL0     C11613   1.919   4.515   0.274 -0.1615 -0.4367  0.9330
   85MOL0     C11614   2.068   4.464   0.254 -0.3407 -0.4731  0.0628
   85MOL0     C11615   2.125   4.359   0.352  0.2577  0.1437  0.7315
   85MOL0     O11616   2.249   4.337   0.294 -0.7267 -0.1128  0.2175
   85MOL0     C11617   2.335   4.254   0.359 -0.3126  0.1729 -0.6231
   85MOL0     C11618   2.308   4.182   0.482 -0.0588 -0.0886 -0.4402
   85MOL0     C11619   2.415   4.093   0.538 -0.1236  0.2186  0.4142
   85MOL0     C11620   2.380   4.026   0.667 -0.0549 -0.3257 -1.1726
   85MOL0     C11621   2.541   4.093   0.472 -0.8353 -0.3683 -0.8269
   85MOL0     C11622   2.666   4.035   0.534  0.0577  0.4897 -0.2253
   85MOL0     O11623   2.785   4.066   0.480 -0.2268  0.0908 -0.0958
   85MOL0     C11624   2.900   4.014   0.529  1.7921 -0.4020 -0.4413
   85MOL0     C11625   2.938   4.014   0.659 -0.7738 -0.4169 -0.8903
   85MOL0     C11626   3.054   3.943   0.692 -0.2711 -0.3732  0.1274
   85MOL0     C11627   3.133   3.882   0.594  0.9364  0.2454 -0.5094
   85MOL0     O11628   3.251   3.826   0.620 -1.2735  0.8766 -0.2601
   85MOL0     C11629   3.288   3.768   0.748  0.1932 -0.2142  0.9440
   85MOL0     C11630   3.260   3.619   0.757 -0.1275  0.0122  0.2432
   85MOL0     C11631   3.121   3.581   0.792 -0.5742  0.6447 -0.7377
   85MOL0     C11632   3.092   3.439   0.749 -0.1275  1.0825 -0.1445
   85MOL0     C11633   2.971   3.383   0.830 -0.6995 -0.4079  0.9745
   85MOL0     C11634   2.953   3.230   0.818 -0.4597  0.1778  0.5902
   85MOL0     C11635   3.051   3.170   0.929 -0.6371 -0.1001  0.6773
   85MOL0     C11636   3.041   3.026   0.931 -0.9003  0.5602 -1.6273
   85MOL0    Cl11637   3.103   2.957   1.084 -0.5283 -0.3020  0.0142
   85MOL0     C11638   3.090   3.897   0.468 -0.4105  0.3320 -0.2593
   85MOL0     C11639   2.972   3.951   0.428 -0.7128 -0.6296  0.4366
   85MOL0     O11640   2.649   3.953   0.621  0.5422 -0.3042 -0.2764
   85MOL0     C11641   2.550   4.162   0.349 -0.0312 -0.3586  0.3489
   85MOL0     C11642   2.448   4.234   0.293  0.3112  0.3785  0.6432
   85MOL0     N11643   1.621   4.571   0.234  0.4480  0.1429  0.0678
   85MOL0     N11644   1.512   4.630   0.266  0.0868 -0.5414 -1.6052
   85MOL0     C11645   0.822   4.426   0.896  0.0549  0.5198  0.1849
   85MOL0     C11646   0.703   4.439   0.961 -0.0462  0.3905  0.5001
   85MOL0     C11647   0.380   4.509   1.261  0.9094 -0.0314  0.5707
   85MOL0     C11648   0.439   4.549   1.380 -0.2907  0.0531 -0.1170
   85MOL0     C11649   0.360   4.607   1.491 -0.5203 -0.4044  1.6545
   85MOL0     C11650   0.217   4.620   1.480  0.1914  0.4404  0.9762
   85MOL0     O11651   0.132   4.665   1.579 -0.4016  0.1492 -0.5688
   85MOL0     C11652   0.184   4.711   1.699 -0.5155 -0.5450 -0.0948
   85MOL0     C11653   0.072   4.778   1.773  0.1969 -0.4221  0.3519
   85MOL0     C11654  -0.048   4.687   1.812  0.0653  0.8547 -0.1465
   85MOL0     C11655  -0.009   4.548   1.867  0.6920 -0.0442  0.4049
   85MOL0     C11656   0.073   4.574   1.984 -0.0488  0.6605 -0.9660
   85MOL0     C11657   0.144   4.583   2.083  0.4522 -0.3726 -0.4987
   85MOL0     C11658   0.156   4.583   1.351 -0.6016  0.5491 -0.0155
   85MOL0     C11659   0.237   4.524   1.245 -0.4898  0.4114 -0.4286
   85MOL0     C11660   0.165   4.485   1.124  0.3323  1.3039 -0.2208
   85MOL0     H11661   0.828   4.518   1.269 -3.8815  2.2336 -0.9906
   85MOL0     H11662   1.042   4.494   1.149  1.6653 -0.4153 -2.2635
   85MOL0     H11663   0.972   4.564   0.734  2.3261 -0.9406 -3.7597
   85MOL0     H11664   1.128   4.509   0.708  0.4613 -0.3622  0.3008
   85MOL0     H11665   1.120   4.758   0.755  0.5879  0.9422  0.4830
   85MOL0     H11666   1.066   4.717   0.924 -0.7448 -0.0076 -1.2899
   85MOL0     H11667   1.282   4.775   0.928 -1.0152 -1.0989  0.7188
   85MOL0     H11668   1.291   4.595   0.940  0.7386 -0.4837 -1.1799
   85MOL0     H11669   1.459   4.623   0.785 -0.4655 -1.6643  0.9859
   85MOL0     H11670   1.313   4.594   0.683 -2.7844  1.5111  0.9125
   85MOL0     H11671   1.367   4.873   0.733 -0.1788  0.3774  0.3100
   85MOL0     H11672   1.295   4.789   0.592 -0.7236 -1.2296 -2.0224
   85MOL0     H11673   1.576   4.823   0.679 -0.6176 -4.5512  2.4808
   85MOL0     H11674   1.545   4.698   0.561  0.6191 -0.8722  1.4069
   85MOL0     H11675   1.624   4.937   0.474  0.3747 -1.4097 -0.9173
   85MOL0     H11676   1.477   5.006   0.532 -0.0647  0.9093 -0.2254
   85MOL0     H11677   1.353   4.812   0.379 -0.5033  2.6563  1.3563
   85MOL0     H11678   1.436   4.941   0.290  3.0911  0.1045 -0.8386
   85MOL0     H11679   1.728   4.878   0.264 -0.8639 -0.5773  1.2170
   85MOL0     H11680   1.938   4.718   0.190  3.2190 -2.4533  0.7889
   85MOL0     H11681   1.870   4.592   0.078  0.4411  1.1563 -0.3395
   85MOL0     H11682   1.917   4.545   0.379  0.2001  0.9615  0.5607
   85MOL0     H11683   1.860   4.426   0.249 -0.1841 -0.8158  2.2819
   85MOL0     H11684   2.082   4.438   0.148  0.6550  4.1423 -1.1701
   85MOL0     H11685   2.122   4.559   0.251 -1.3918  0.1234 -2.2398
   85MOL0     H11686   2.124   4.395   0.455  0.0926  2.9568 -0.1592
   85MOL0     H11687   2.058   4.272   0.359  2.2022 -1.4834  0.0968
   85MOL0     H11688   2.214   4.206   0.531 -0.6280  0.2978 -1.6984
   85MOL0     H11689   2.273   4.006   0.678 -0.4232  0.8159 -2.3765
   85MOL0     H11690   2.418   4.098   0.740  0.6749  0.9971 -2.7592
   85MOL0     H11691   2.428   3.930   0.687 -1.0070 -0.0991  2.9115
   85MOL0     H11692   2.871   4.060   0.732  1.0964  1.1929 -0.0980
   85MOL0     H11693   3.078   3.947   0.797  0.6868  2.5974 -0.1043
   85MOL0     H11694   3.394   3.778   0.776  0.7518 -0.8583 -0.8368
   85MOL0     H11695   3.221   3.818   0.819 -3.9019  0.0514 -2.7067
   85MOL0     H11696   3.292   3.566   0.667 -2.1441 -0.8021 -0.0531
   85MOL0     H11697   3.334   3.600   0.836  1.6484  4.2298 -0.1799
   85MOL0     H11698   3.049   3.654   0.754 -0.3725  0.9556 -0.5339
   85MOL0     H11699   3.119   3.580   0.902 -0.8106 -0.9259 -0.7379
   85MOL0     H11700   3.181   3.379   0.768 -0.1843  1.4460  1.4831
   85MOL0     H11701   3.071   3.450   0.643  0.9005  0.4731 -0.4217
   85MOL0     H11702   2.979   3.409   0.936 -2.0694 -1.2250  1.2980
   85MOL0     H11703   2.880   3.430   0.793 -0.2729 -1.7217 -1.9905
   85MOL0     H11704   2.994   3.212   0.719  0.5398 -4.0015  1.5678
   85MOL0     H11705   2.850   3.195   0.828 -0.7317  0.8830  0.3476
   85MOL0     H11706   3.019   3.215   1.024 -1.3621  0.0148  0.3937
   85MOL0     H11707   3.155   3.199   0.911  0.1471 -2.8409  0.4492
   85MOL0     H11708   3.092   2.984   0.843  1.8879  1.6366 -0.6095
   85MOL0     H11709   2.934   3.003   0.936 -1.0503  1.4826  1.4048
   85MOL0     H11710   3.145   3.854   0.385 -1.5427  0.9305 -1.3638
   85MOL0     H11711   2.933   3.940   0.328  0.2636  0.7765 -0.1347
   85MOL0     H11712   2.646   4.138   0.304 -0.9609 -2.2893 -0.7758
   85MOL0     H11713   2.467   4.293   0.204  3.4736 -0.6306  0.5204
   85MOL0     H11714   0.835   4.384   0.796  1.8345 -2.6383  1.6061
   85MOL0     H11715   0.607   4.419   0.915  0.3209  1.9837 -1.0459
   85MOL0     H11716   0.544   4.540   1.406 -0.1175 -2.4493 -1.3790
   85MOL0     H11717   0.416   4.655   1.570  0.4364  1.9140 -0.3051
   85MOL0     H11718   0.227   4.633   1.763 -0.1093 -1.1070 -1.0341
   85MOL0     H11719   0.259   4.788   1.681  0.5979 -1.4156  0.6949
   85MOL0     H11720   0.019   4.853   1.713 -2.1462 -2.0819  0.2278
   85MOL0     H11721   0.105   4.819   1.869 -2.2633 -0.5104  1.3169
   85MOL0     H11722  -0.117   4.733   1.883  0.6399 -0.0976  1.0714
   85MOL0     H11723  -0.099   4.665   1.718  2.8966 -3.1249 -1.0188
   85MOL0     H11724   0.049   4.511   1.782 -1.1836  0.7152 -1.2799
   85MOL0     H11725  -0.089   4.479   1.893  2.5596 -2.3083  0.4633
   85MOL0     H11726   0.213   4.592   2.165 -1.0048 -1.3993  0.9119
   85MOL0     H11727   0.055   4.616   1.327 -1.6635 -0.4009  2.7440
   85MOL0     H11728   0.162   4.377   1.110 -0.1851  1.1001  1.2476
   85MOL0     H11729   0.062   4.522   1.134  0.7082  2.0805  1.0548
   85MOL0     H11730   0.208   4.518   1.029 -2.3200  2.1787 -1.1988
   86MOL0     O11731   2.105  10.903   1.724  0.2976 -0.4514  0.3124
   86MOL0     C11732   2.085  10.795   1.669  0.8787 -0.2713  0.1519
   86MOL0     O11733   2.076  10.682   1.740 -0.1528  0.4937  0.3135
   86MOL0     C11734   2.031  10.676   1.867  0.3168 -0.4893 -0.0635
   86MOL0     C11735   2.042  10.543   1.913  0.7797 -0.2634 -0.4171
   86MOL0     C11736   1.985  10.501   2.036 -0.7072  0.2966 -0.0555
   86MOL0     C11737   1.916  10.602   2.117 -0.0569 -0.3145 -0.4862
   86MOL0     O11738   1.872  10.557   2.239 -0.4952  0.0067  0.3788
   86MOL0     C11739   1.812  10.651   2.329 -0.0316 -0.1783  0.5203
   86MOL0     C11740   1.668  10.673   2.296  0.0421 -0.0303 -0.0459
   86MOL0     C11741   1.606  10.753   2.412  0.1710 -0.5785  0.3164
   86MOL0     C11742   1.465  10.789   2.371 -0.3854 -0.5652 -0.0182
   86MOL0     C11743   1.386  10.878   2.464  0.5928  0.2634 -0.7498
   86MOL0     C11744   1.364  10.828   2.614  0.5891  0.2791  0.3071
   86MOL0     C11745   1.221  10.784   2.658  0.4151 -0.0961  0.1222
   86MOL0     C11746   1.219  10.758   2.811  0.1033  1.2038  0.0078
   86MOL0     N11747   1.258  10.628   2.860  0.3918  0.6650  0.3241
   86MOL0     C11748   1.186  10.510   2.879  0.4791  0.0726 -0.3410
   86MOL0     C11749   1.273  10.409   2.901  0.3575  0.4826 -0.2535
   86MOL0     C11750   1.247  10.270   2.956 -0.2978 -0.1623 -0.3954
   86MOL0     C11751   1.119  10.204   2.905 -1.4362  0.1578 -0.8081
   86MOL0     C11752   1.143  10.164   2.753  0.0134 -0.2937 -0.2635
   86MOL0     C11753   1.004  10.115   2.692  0.2633 -0.0061 -0.0055
   86MOL0     O11754   0.979   9.986   2.755  0.2398 -0.2582 -0.1869
   86MOL0     C11755   0.857   9.975   2.807 -0.2257 -0.5057  1.0643
   86MOL0     C11756   0.764   9.904   2.735  0.6820 -0.0389 -0.1223
   86MOL0     C11757   0.631   9.884   2.783  0.3651 -1.3219  0.1260
   86MOL0     C11758   0.539   9.795   2.699  0.3074  0.6483  0.5320
   86MOL0     C11759   0.598   9.953   2.896 -0.0209 -0.1212 -0.7704
   86MOL0     C11760   0.449   9.940   2.944 -0.1790  0.5970 -0.3007
   86MOL0     O11761   0.398   9.812   2.943 -0.5184 -0.7288 -0.5549
   86MOL0     C11762   0.265   9.805   2.971  0.4317  0.2721  0.9294
   86MOL0     C11763   0.219   9.752   3.097  0.4602  0.7215 -0.4894
   86MOL0     C11764   0.079   9.745   3.112  0.7637  0.7272 -1.0325
   86MOL0     C11765  -0.017   9.808   3.023  0.0530  0.1542 -0.1767
   86MOL0     O11766  -0.160   9.821   3.041 -0.2318 -0.1901  0.2956
   86MOL0     C11767  -0.219   9.755   3.150 -0.2013  1.5979  0.3306
   86MOL0     C11768  -0.224   9.831   3.279 -0.3165 -0.3115 -0.6935
   86MOL0     C11769  -0.305   9.960   3.260  0.5385  0.1300  0.1863
   86MOL0     C11770  -0.334  10.043   3.391 -0.9672  0.3383  1.0964
   86MOL0     C11771  -0.386  10.180   3.355  0.6691 -0.0412 -0.2864
   86MOL0     C11772  -0.503  10.169   3.265  1.0479  0.0073 -0.2540
   86MOL0     C11773  -0.585  10.294   3.262  0.4132 -0.4368 -1.1154
   86MOL0     C11774  -0.669  10.318   3.393 -0.0609  0.8651  0.3991
   86MOL0    Cl11775  -0.711  10.499   3.403 -0.0218 -0.2711  0.4683
   86MOL0     C11776   0.039   9.861   2.904 -0.1035  0.2614 -0.2134
   86MOL0     C11777   0.172   9.862   2.885  0.0544  0.2420  0.4816
   86MOL0     O11778   0.396  10.043   2.981 -0.4469 -0.2490 -0.5531
   86MOL0     C11779   0.694  10.025   2.975 -0.3499 -0.0326 -0.3774
   86MOL0     C11780   0.817  10.043   2.926 -0.9448  1.0456  0.9753
   86MOL0     N11781   1.398  10.469   2.892 -0.4004 -0.0454  0.3431
   86MOL0     N11782   1.385  10.588   2.873 -0.3899  0.2595  0.6867
   86MOL0     C11783   1.908  10.736   2.072 -0.8282 -0.1283  0.5198
   86MOL0     C11784   1.961  10.772   1.941 -0.3873  0.2599  0.5370
   86MOL0     C11785   2.091  10.781   1.525  0.2425 -1.0037 -0.1505
   86MOL0     C11786   2.123  10.656   1.460  0.0492  0.0213 -0.2805
   86MOL0     C11787   2.134  10.638   1.326 -0.0293 -0.4433 -0.2758
   86MOL0     C11788   2.108  10.749   1.247  0.4036 -1.3886  0.0850
   86MOL0     O11789   2.112  10.736   1.111 -0.9429  0.0700 -0.1331
   86MOL0     C11790   2.136  10.849   1.022 -0.6260 -0.2546 -0.4372
   86MOL0     C11791   2.246  10.814   0.924 -0.3589  0.0607 -0.3703
   86MOL0     C11792   2.247  10.911   0.810 -0.2832 -1.0984 -0.0961
   86MOL0     C11793   2.350  10.866   0.705 -0.0573 -0.9720  0.0345
   86MOL0     C11794   2.483  10.865   0.762 -0.3751 -0.5082  0.5318
   86MOL0     C11795   2.588  10.831   0.808 -0.5980 -0.2403 -0.1238
   86MOL0     C11796   2.071  10.874   1.304  0.2931  1.3921 -0.1451
   86MOL0     C11797   2.063  10.889   1.442 -1.5489 -0.5301  0.5287
   86MOL0     C11798   1.995  11.016   1.480 -0.1818  0.5280 -0.5795
   86MOL0     H11799   2.093  10.469   1.852 -1.8452 -2.7467  0.1140
   86MOL0     H11800   1.990  10.396   2.065  2.4531  1.0849  2.8356
   86MOL0     H11801   1.868  10.745   2.322  0.2654 -0.4177 -0.4309
   86MOL0     H11802   1.814  10.623   2.434 -1.0876  2.9400  1.5074
   86MOL0     H11803   1.658  10.719   2.197 -0.0656  2.8026  1.1898
   86MOL0     H11804   1.619  10.575   2.290 -2.3995  1.1485 -0.8546
   86MOL0     H11805   1.609  10.696   2.506  1.5299  0.5329  0.9867
   86MOL0     H11806   1.668  10.836   2.446  2.7282 -1.8071 -1.1238
   86MOL0     H11807   1.482  10.835   2.273 -1.0233  0.6214  0.4051
   86MOL0     H11808   1.400  10.704   2.349 -2.5792  0.9453  0.3237
   86MOL0     H11809   1.290  10.907   2.422  0.7729  1.0502 -0.6293
   86MOL0     H11810   1.442  10.972   2.469  0.7885  0.1217  0.0121
   86MOL0     H11811   1.417  10.733   2.619  1.3871  0.7684  3.9549
   86MOL0     H11812   1.407  10.896   2.689 -0.4595  0.1221  1.0833
   86MOL0     H11813   1.171  10.710   2.595 -2.0788  2.3683 -1.0061
   86MOL0     H11814   1.160  10.874   2.644  3.6662  2.3170  0.1240
   86MOL0     H11815   1.285  10.826   2.864  1.0165 -0.1714  0.7052
   86MOL0     H11816   1.115  10.760   2.842 -0.3782  0.1636 -1.4081
   86MOL0     H11817   1.078  10.501   2.873  0.6904 -1.8953 -3.3439
   86MOL0     H11818   1.236  10.275   3.064 -1.4309 -1.3752 -0.4231
   86MOL0     H11819   1.329  10.201   2.932 -0.1732  0.1028 -0.7421
   86MOL0     H11820   1.096  10.118   2.968  1.0059  0.3275  0.4210
   86MOL0     H11821   1.041  10.281   2.916 -0.2285  1.3843 -0.5885
   86MOL0     H11822   1.194  10.242   2.696  1.5626 -1.4336 -0.5240
   86MOL0     H11823   1.218  10.084   2.755 -0.5193 -0.8093 -0.5595
   86MOL0     H11824   0.925  10.189   2.709  0.6113  0.1693  0.9114
   86MOL0     H11825   0.997  10.092   2.585 -1.9174 -2.7772  0.6189
   86MOL0     H11826   0.802   9.853   2.647 -0.6558 -1.0272 -0.1600
   86MOL0     H11827   0.520   9.699   2.748  2.4738  0.7389  1.6858
   86MOL0     H11828   0.588   9.776   2.603 -0.3461  1.4459  0.0337
   86MOL0     H11829   0.459   9.866   2.679 -0.1228  0.1613  0.4910
   86MOL0     H11830   0.282   9.723   3.180  1.1063  0.8970 -0.9134
   86MOL0     H11831   0.048   9.680   3.193 -2.5249 -0.2052 -2.8552
   86MOL0     H11832  -0.320   9.744   3.111 -1.2469  5.6406  1.4166
   86MOL0     H11833  -0.175   9.655   3.165 -1.1896  1.3109  1.4976
   86MOL0     H11834  -0.274   9.782   3.362  0.6661 -0.3810 -0.1321
   86MOL0     H11835  -0.120   9.835   3.313 -0.8479  0.7738  0.9041
   86MOL0     H11836  -0.399   9.928   3.215  2.1423 -0.8986 -2.6633
   86MOL0     H11837  -0.260  10.019   3.179 -0.3377  0.3612 -0.1501
   86MOL0     H11838  -0.247  10.048   3.457 -0.0736 -3.2511  0.3698
   86MOL0     H11839  -0.410   9.992   3.450 -3.0649  1.1311 -0.7743
   86MOL0     H11840  -0.422  10.216   3.452  1.0182 -1.2030  0.2840
   86MOL0     H11841  -0.308  10.241   3.307 -0.8315  1.7543 -0.5689
   86MOL0     H11842  -0.564  10.081   3.284  1.0419  0.1310  0.3169
   86MOL0     H11843  -0.460  10.170   3.164 -0.3836  1.9033 -0.9272
   86MOL0     H11844  -0.651  10.289   3.175 -0.3219  0.8986 -0.6694
   86MOL0     H11845  -0.524  10.381   3.237 -1.2292  0.0837 -3.7438
   86MOL0     H11846  -0.607  10.293   3.479  1.0643 -1.1232 -0.9111
   86MOL0     H11847  -0.751  10.246   3.386  1.0806 -0.3094 -2.4415
   86MOL0     H11848  -0.020   9.907   2.825  0.7738 -0.2789 -1.2060
   86MOL0     H11849   0.206   9.900   2.789  0.4715  0.8670  0.8682
   86MOL0     H11850   0.659  10.083   3.060  2.3400  2.1570 -0.6186
   86MOL0     H11851   0.896  10.109   2.960 -0.8045  2.1903 -1.3937
   86MOL0     H11852   1.858  10.815   2.127  1.5608  1.9744 -0.1399
   86MOL0     H11853   1.938  10.872   1.906 -2.1827  0.7179  2.7592
   86MOL0     H11854   2.141  10.569   1.523 -1.2883  0.9539  1.5072
   86MOL0     H11855   2.153  10.541   1.281  3.1098 -1.0825  2.0986
   86MOL0     H11856   2.042  10.867   0.968 -1.1141 -2.9612 -0.6326
   86MOL0     H11857   2.169  10.941   1.070  1.8501 -0.6772 -1.2256
   86MOL0     H11858   2.223  10.715   0.882  3.1507 -0.7688 -0.6109
   86MOL0     H11859   2.340  10.812   0.980 -0.3033 -1.2984 -0.4732
   86MOL0     H11860   2.146  10.927   0.773 -0.1630  5.0576  1.2440
   86MOL0     H11861   2.280  11.007   0.852 -0.6119 -0.5723 -1.0374
   86MOL0     H11862   2.354  10.913   0.606  0.4447 -3.5549 -1.2507
   86MOL0     H11863   2.326  10.763   0.679  1.1805 -0.9587 -1.3190
   86MOL0     H11864   2.685  10.804   0.847 -0.0302 -0.1424 -1.4275
   86MOL0     H11865   2.061  10.968   1.249 -1.5653  0.1151 -2.1775
   86MOL0     H11866   2.055  11.080   1.545 -0.1142 -3.6841  4.1288
   86MOL0     H11867   1.967  11.079   1.395 -2.6745 -0.1069 -0.3166
   86MOL0     H11868   1.903  11.000   1.538 -0.1320 -3.4682 -1.3349
   87MOL0     O11869   1.210   0.471  11.055  0.4220 -0.5055 -1.3492
   87MOL0     C11870   1.299   0.560  11.063  0.0359 -0.1770  0.0304
   87MOL0     O11871   1.280   0.695  11.049  0.4784 -0.1909 -0.4846
   87MOL0     C11872   1.158   0.734  11.010  0.5887 -0.2439 -0.7663
   87MOL0     C11873   1.071   0.818  11.080 -0.7439  0.0267 -0.0362
   87MOL0     C11874   0.944   0.858  11.033  0.7237 -0.0348  0.3025
   87MOL0     C11875   0.906   0.812  10.911  0.6256 -0.0905  0.6800
   87MOL0     O11876   0.775   0.814  10.857  0.2979 -0.5844 -0.1514
   87MOL0     C11877   0.666   0.872  10.928  0.7503 -0.5686 -0.5761
   87MOL0     C11878   0.533   0.848  10.863  0.9141  0.7616  0.2222
   87MOL0     C11879   0.442   0.961  10.894  0.2489 -0.3671 -0.8367
   87MOL0     C11880   0.479   1.094  10.808 -0.4903  0.6788 -0.9983
   87MOL0     C11881   0.395   1.213  10.867  0.9760 -0.1721 -0.4653
   87MOL0     C11882   0.446   1.347  10.812  0.5464 -0.5710  0.2132
   87MOL0     C11883   0.377   1.472  10.873 -1.1040  0.0718  0.1242
   87MOL0     C11884   0.480   1.585  10.903  0.3857 -0.7288  1.0780
   87MOL0     N11885   0.432   1.706  10.972  0.2571 -0.3357 -0.1221
   87MOL0     C11886   0.508   1.818  10.998 -0.5262  0.2444 -0.3248
   87MOL0     C11887   0.430   1.885  11.095 -0.2516  0.7581 -0.5851
   87MOL0     C11888   0.458   2.017  11.172 -0.1117  0.2945 -1.0912
   87MOL0     C11889   0.341   2.110  11.186  0.0322 -0.1712  0.1455
   87MOL0     C11890   0.264   2.129  11.051  0.3587 -0.2913  0.0996
   87MOL0     C11891   0.138   2.221  11.073  0.5568  0.5087 -0.6196
   87MOL0     O11892   0.048   2.213  10.966 -0.5237 -0.2816  0.3051
   87MOL0     C11893   0.039   2.294  10.858 -0.8668  0.5166  0.1391
   87MOL0     C11894   0.140   2.379  10.820  0.3763 -0.4314  0.8356
   87MOL0     C11895   0.123   2.477  10.726  0.3794 -0.4869 -0.2530
   87MOL0     C11896   0.251   2.573  10.701 -0.5532 -0.6834 -0.3489
   87MOL0     C11897  -0.002   2.485  10.655  0.2975  0.0141 -0.1153
   87MOL0     C11898  -0.030   2.589  10.553 -0.5021 -0.7414  0.0371
   87MOL0     O11899   0.042   2.701  10.551 -0.3430  0.6625 -0.0169
   87MOL0     C11900   0.006   2.794  10.461 -1.0157 -0.8328  0.2931
   87MOL0     C11901  -0.095   2.883  10.501 -1.3288 -0.8856  0.1278
   87MOL0     C11902  -0.143   2.981  10.416 -0.6749 -0.1781 -0.5408
   87MOL0     C11903  -0.083   2.987  10.285 -0.2384 -0.2328  0.1678
   87MOL0     O11904  -0.107   3.090  10.200  0.3435 -1.3682 -0.7620
   87MOL0     C11905  -0.193   3.059  10.087  0.2219 -0.5392 -0.5533
   87MOL0     C11906  -0.132   3.134   9.964 -0.6793  0.1708 -0.0200
   87MOL0     C11907  -0.142   3.290   9.960  0.2535 -0.1853  0.4593
   87MOL0     C11908  -0.286   3.331   9.915 -0.1846  0.7125 -0.3989
   87MOL0     C11909  -0.306   3.490   9.917 -0.2279  0.4784  0.2691
   87MOL0     C11910  -0.438   3.544   9.880  0.7082 -0.2469 -0.0712
   87MOL0     C11911  -0.548   3.491   9.968  0.2224 -0.6997  0.6263
   87MOL0     C11912  -0.699   3.537   9.939 -0.3550 -0.0881  0.4040
   87MOL0    Cl11913  -0.730   3.699  10.002 -0.5754 -0.0982 -0.0265
   87MOL0     C11914   0.021   2.899  10.246 -0.2654 -0.0159 -0.6749
   87MOL0     C11915   0.059   2.804  10.331 -0.0868 -0.2155 -0.1942
   87MOL0     O11916  -0.105   2.550  10.465  0.0566 -0.8858  0.3457
   87MOL0     C11917  -0.109   2.388  10.681  0.8569 -0.1883  0.5009
   87MOL0     C11918  -0.085   2.299  10.793 -0.7130 -0.6149  0.0447
   87MOL0     N11919   0.315   1.812  11.121  0.2357  0.3310  0.0352
   87MOL0     N11920   0.317   1.712  11.041  0.0103 -0.0091  0.2446
   87MOL0     C11921   0.998   0.751  10.832  0.0589 -0.3755  0.3479
   87MOL0     C11922   1.117   0.695  10.882 -0.4530 -0.6921  0.6268
   87MOL0     C11923   1.435   0.504  11.077  0.7019  0.6993 -0.6738
   87MOL0     C11924   1.467   0.416  11.183 -0.1189 -0.0973  0.2400
   87MOL0     C11925   1.596   0.382  11.211  0.3964 -0.7899 -0.1613
   87MOL0     C11926   1.700   0.439  11.133  0.1036 -0.0932  0.0101
   87MOL0     O11927   1.826   0.406  11.173  0.9603  0.3636  0.3324
   87MOL0     C11928   1.931   0.480  11.106 -0.1885  0.1122 -0.1070
   87MOL0     C11929   2.060   0.451  11.176  0.0667  0.5432  0.4561
   87MOL0     C11930   2.103   0.302  11.163  0.0338 -0.2786  0.0125
   87MOL0     C11931   2.248   0.276  11.195  1.2387 -0.0670  0.0455
   87MOL0     C11932   2.282   0.135  11.179  0.0299  0.4908  0.0358
   87MOL0     C11933   2.315   0.024  11.170 -1.4399 -0.4871 -1.0067
   87MOL0     C11934   1.663   0.514  11.017 -1.6025  0.7563 -0.0312
   87MOL0     C11935   1.536   0.544  10.991  0.1492  0.1570 -0.1549
   87MOL0     C11936   1.519   0.615  10.867 -0.7944 -0.5736 -0.1121
   87MOL0     H11937   1.108   0.868  11.169 -1.3246 -0.3158  0.3971
   87MOL0     H11938   0.890   0.929  11.095  1.5645 -0.1958  1.2628
   87MOL0     H11939   0.694   0.978  10.932 -0.6603  0.0778 -4.2636
   87MOL0     H11940   0.668   0.828  11.029 -2.2524  0.1451 -0.0914
   87MOL0     H11941   0.542   0.843  10.754  0.6580  2.8979  0.0513
   87MOL0     H11942   0.496   0.756  10.909 -0.2086  2.4205  2.8620
   87MOL0     H11943   0.335   0.938  10.883  0.3484 -2.1986  1.3643
   87MOL0     H11944   0.463   0.989  10.997  0.6667  0.9254 -1.2552
   87MOL0     H11945   0.587   1.107  10.811 -0.5352  1.9440 -2.9892
   87MOL0     H11946   0.447   1.074  10.705 -1.1020  1.2327 -0.9255
   87MOL0     H11947   0.413   1.219  10.975  0.5857 -0.4153 -0.3866
   87MOL0     H11948   0.287   1.193  10.865  0.9022 -0.6121  2.5566
   87MOL0     H11949   0.552   1.360  10.834 -0.3192  1.9061  3.7822
   87MOL0     H11950   0.428   1.352  10.704 -2.1211 -1.2749  0.5397
   87MOL0     H11951   0.328   1.450  10.968 -4.3667  1.5178 -1.0582
   87MOL0     H11952   0.309   1.524  10.804 -2.0863  0.8218  1.6051
   87MOL0     H11953   0.568   1.546  10.955 -0.1440 -0.1651  2.4683
   87MOL0     H11954   0.505   1.615  10.801 -2.4250 -0.3373  0.4283
   87MOL0     H11955   0.603   1.847  10.953 -0.3733  1.1462  0.5269
   87MOL0     H11956   0.538   2.075  11.125  0.9153  0.7841  1.1077
   87MOL0     H11957   0.491   1.997  11.275 -1.3265  0.1515 -0.7093
   87MOL0     H11958   0.268   2.079  11.261 -2.5421  2.1002 -1.2726
   87MOL0     H11959   0.385   2.203  11.222  0.3697  0.5597 -2.0192
   87MOL0     H11960   0.324   2.176  10.972 -2.6257  0.3805 -1.9454
   87MOL0     H11961   0.252   2.028  11.013 -0.5850 -0.4017  0.6659
   87MOL0     H11962   0.086   2.172  11.156 -0.1493  1.3668 -0.5426
   87MOL0     H11963   0.167   2.324  11.095 -3.1134  1.6075 -0.3816
   87MOL0     H11964   0.230   2.360  10.877 -0.2865  1.1021  2.4916
   87MOL0     H11965   0.279   2.586  10.595  0.2429  0.8304  0.0225
   87MOL0     H11966   0.336   2.554  10.767  0.0694  0.4645 -0.7823
   87MOL0     H11967   0.224   2.674  10.734  0.9577  0.1379 -1.4658
   87MOL0     H11968  -0.142   2.865  10.597 -1.6887 -0.3367  0.0606
   87MOL0     H11969  -0.220   3.056  10.435 -1.4359 -0.5992 -1.8076
   87MOL0     H11970  -0.210   2.954  10.059 -3.6901  0.2895 -1.9330
   87MOL0     H11971  -0.295   3.095  10.104  0.6459  0.6733 -0.5257
   87MOL0     H11972  -0.024   3.117   9.975 -0.6547  1.1220  1.6022
   87MOL0     H11973  -0.176   3.109   9.867  1.1709  2.9560 -1.7416
   87MOL0     H11974  -0.083   3.335   9.879 -2.7731 -1.7489 -2.8967
   87MOL0     H11975  -0.118   3.336  10.056 -1.4386 -0.6198  1.1143
   87MOL0     H11976  -0.351   3.276   9.984  1.3645  1.2109  1.5501
   87MOL0     H11977  -0.321   3.311   9.813 -0.2241  0.6427 -0.3712
   87MOL0     H11978  -0.290   3.518  10.021 -2.0302 -0.4173  0.8296
   87MOL0     H11979  -0.242   3.547   9.848  2.1121  0.8178  2.5810
   87MOL0     H11980  -0.458   3.510   9.778  3.0520  1.9134 -1.3539
   87MOL0     H11981  -0.439   3.653   9.886 -3.3589 -0.1779  1.8291
   87MOL0     H11982  -0.538   3.537  10.067 -0.7392  0.8646  0.0405
   87MOL0     H11983  -0.551   3.383   9.979 -0.2441 -0.6415  1.1541
   87MOL0     H11984  -0.769   3.477   9.997 -0.7107  0.1880  0.2603
   87MOL0     H11985  -0.718   3.527   9.832 -1.3500 -0.3231  0.5998
   87MOL0     H11986   0.057   2.913  10.145  0.4992  0.1562 -0.3856
   87MOL0     H11987   0.127   2.728  10.296 -0.0632 -1.6598  2.6630
   87MOL0     H11988  -0.203   2.392  10.626 -0.1135  3.1232  2.1410
   87MOL0     H11989  -0.172   2.240  10.819 -0.6056 -0.9809 -0.4110
   87MOL0     H11990   0.974   0.732  10.728  1.9464 -2.3813  0.2155
   87MOL0     H11991   1.192   0.637  10.831  0.9402  0.6065  1.1135
   87MOL0     H11992   1.383   0.374  11.237 -0.9010  0.2944 -0.6434
   87MOL0     H11993   1.628   0.327  11.299 -0.3976 -0.3944  0.3888
   87MOL0     H11994   1.946   0.449  11.002 -0.5241 -1.9584  0.4251
   87MOL0     H11995   1.906   0.585  11.122 -4.4069 -1.0567  2.5537
   87MOL0     H11996   2.065   0.485  11.280 -0.9802  1.5361  0.2023
   87MOL0     H11997   2.130   0.507  11.112 -2.0424  0.1734 -2.3886
   87MOL0     H11998   2.046   0.250  11.240  1.3252  1.3123  2.1751
   87MOL0     H11999   2.091   0.272  11.059  0.9045  0.6361 -0.3720
   87MOL0     H12000   2.284   0.315  11.290  1.1818  0.9351 -0.3263
   87MOL0     H12001   2.302   0.331  11.117 -2.2960  1.4304 -1.5905
   87MOL0     H12002   2.348  -0.078  11.175  3.4278  0.9322  0.3465
   87MOL0     H12003   1.748   0.528  10.951 -0.5181 -0.9179  0.9525
   87MOL0     H12004   1.434   0.584  10.806  0.8907 -2.8608 -1.4942
   87MOL0     H12005   1.519   0.720  10.896 -1.5374 -0.6790  0.2817
   87MOL0     H12006   1.609   0.598  10.807  2.5255  0.5214  4.1057
   88MOL0     O12007   1.597   4.990   9.070  0.3285 -0.5886  0.7191
   88MOL0     C12008   1.608   4.991   8.946  0.2051  0.5520 -0.8037
   88MOL0     O12009   1.538   4.904   8.867  0.3528  0.2737 -1.3611
   88MOL0     C12010   1.427   4.847   8.925 -1.1222  1.9945 -0.5441
   88MOL0     C12011   1.307   4.912   8.913  0.4031  0.2731 -0.2053
   88MOL0     C12012   1.187   4.883   8.984  0.3023 -0.6966 -1.0667
   88MOL0     C12013   1.190   4.765   9.058  0.6471  0.6404  0.4179
   88MOL0     O12014   1.089   4.701   9.126 -0.2071  0.0039  0.6960
   88MOL0     C12015   0.958   4.756   9.130  0.0790 -0.1516  0.0470
   88MOL0     C12016   0.864   4.656   9.204  0.4146  0.1619  0.7116
   88MOL0     C12017   0.914   4.645   9.348 -0.6586 -0.2985 -0.6616
   88MOL0     C12018   0.815   4.541   9.416  0.4307  0.4405 -0.1901
   88MOL0     C12019   0.845   4.547   9.561 -0.9674 -0.9785 -0.8537
   88MOL0     C12020   0.792   4.424   9.626 -0.0504 -0.8924  0.3656
   88MOL0     C12021   0.746   4.456   9.767  0.3679  0.6797  0.0031
   88MOL0     C12022   0.851   4.485   9.873 -0.5824  1.1445  0.1249
   88MOL0     N12023   0.962   4.389   9.877 -1.0546 -0.1577 -0.0918
   88MOL0     C12024   0.967   4.263   9.930  0.5414  0.4734 -0.7607
   88MOL0     C12025   1.089   4.205   9.894  0.2841 -1.0417 -1.1037
   88MOL0     C12026   1.151   4.082   9.952  0.5319  0.1983 -0.0613
   88MOL0     C12027   1.285   4.107  10.030  0.4394  0.6779 -0.8423
   88MOL0     C12028   1.276   4.207  10.149 -0.2605 -0.5470  0.3018
   88MOL0     C12029   1.398   4.193  10.234 -0.5525  1.0827  0.0645
   88MOL0     O12030   1.423   4.295  10.336  0.0780  0.0858  0.6797
   88MOL0     C12031   1.477   4.248  10.446 -0.1062  0.4390 -0.7055
   88MOL0     C12032   1.610   4.273  10.496 -0.7064 -0.4264  0.4253
   88MOL0     C12033   1.674   4.213  10.603 -0.1836 -0.6768  0.4936
   88MOL0     C12034   1.816   4.245  10.634  0.0637  0.4158 -0.3433
   88MOL0     C12035   1.604   4.116  10.680  0.2955 -1.2203 -0.1785
   88MOL0     C12036   1.650   4.045  10.799  0.0537  0.3293  0.0586
   88MOL0     O12037   1.571   3.941  10.841  0.8498 -0.0953  0.0262
   88MOL0     C12038   1.614   3.878  10.952 -0.5392  0.6121  0.1214
   88MOL0     C12039   1.573   3.924  11.077 -0.5537  0.6109  1.3324
   88MOL0     C12040   1.617   3.851  11.184 -0.3945 -0.7092 -0.7712
   88MOL0     C12041   1.703   3.740  11.178 -0.0078 -0.2492 -0.8606
   88MOL0     O12042   1.757   3.684  11.291  0.1688 -0.5946  1.2567
   88MOL0     C12043   1.665   3.619  11.377 -0.7095  0.5706 -0.3696
   88MOL0     C12044   1.730   3.540  11.484 -0.8250  0.3475  0.1618
   88MOL0     C12045   1.858   3.597  11.543 -0.3816  0.3853  1.0146
   88MOL0     C12046   1.815   3.698  11.652 -1.0614 -0.5534  0.8876
   88MOL0     C12047   1.933   3.735  11.733 -0.1625  0.5323  0.4792
   88MOL0     C12048   1.905   3.864  11.820  0.0937 -0.1446  0.2887
   88MOL0     C12049   2.038   3.926  11.871 -0.0979  0.3024  0.4646
   88MOL0     C12050   2.069   3.912  12.014  0.8543  0.3338  0.2184
   88MOL0    Cl12051   2.045   3.744  12.067  0.0983  0.1498  0.1098
   88MOL0     C12052   1.730   3.687  11.056 -0.3594 -0.0818  0.2690
   88MOL0     C12053   1.676   3.757  10.944 -0.7547  0.2640 -0.2564
   88MOL0     O12054   1.752   4.086  10.857  1.1085 -0.3074  0.2656
   88MOL0     C12055   1.476   4.092  10.639  0.1248 -0.1506  0.6682
   88MOL0     C12056   1.407   4.163  10.533 -0.2093 -0.0157  0.3837
   88MOL0     N12057   1.163   4.303   9.825 -0.1652  0.6901 -0.5392
   88MOL0     N12058   1.086   4.409   9.815 -0.6038  0.5131 -0.2594
   88MOL0     C12059   1.308   4.694   9.071  0.7928 -0.4071 -0.4670
   88MOL0     C12060   1.429   4.734   9.005  0.6434 -0.2013 -0.2383
   88MOL0     C12061   1.717   5.057   8.877 -0.3866 -0.4677 -0.2974
   88MOL0     C12062   1.752   5.017   8.740 -0.6605  0.8045 -2.1890
   88MOL0     C12063   1.877   5.062   8.690 -0.7332 -0.4819 -0.4378
   88MOL0     C12064   1.943   5.172   8.744  0.0517 -0.2137  0.2665
   88MOL0     O12065   2.060   5.230   8.699 -0.9618 -0.5140  0.7849
   88MOL0     C12066   2.127   5.182   8.582 -0.5212 -0.5256  0.1592
   88MOL0     C12067   2.269   5.246   8.566 -0.0838  0.3281 -0.5430
   88MOL0     C12068   2.356   5.180   8.460  0.1758  0.1464  0.4261
   88MOL0     C12069   2.487   5.116   8.518  0.8699 -0.3367  0.2128
   88MOL0     C12070   2.586   5.082   8.411  0.0283  0.4656  0.9651
   88MOL0     C12071   2.667   5.063   8.319 -1.1588  0.6861 -0.1833
   88MOL0     C12072   1.894   5.222   8.868  0.2516 -0.0216  0.4803
   88MOL0     C12073   1.789   5.165   8.938 -0.0469  0.1835 -0.7455
   88MOL0     C12074   1.753   5.240   9.062  0.5738 -1.0325  0.3821
   88MOL0     H12075   1.300   5.003   8.855 -2.2335  2.0144  2.5575
   88MOL0     H12076   1.108   4.955   8.999  2.5212  1.3421  1.7955
   88MOL0     H12077   0.931   4.775   9.026 -1.4795 -1.6060  0.1391
   88MOL0     H12078   0.959   4.852   9.183 -2.1627  1.0333 -1.8367
   88MOL0     H12079   0.760   4.688   9.197 -0.1151 -1.6786 -0.6881
   88MOL0     H12080   0.869   4.560   9.151  0.9329 -1.0623  2.8407
   88MOL0     H12081   1.018   4.610   9.347 -0.5537 -0.0136 -2.0929
   88MOL0     H12082   0.916   4.737   9.406 -1.0322 -0.1402 -0.8964
   88MOL0     H12083   0.715   4.584   9.401  0.2409  0.1083  0.1215
   88MOL0     H12084   0.831   4.443   9.372  0.9225  0.8068 -0.8447
   88MOL0     H12085   0.807   4.642   9.601 -0.1962 -1.6259  1.5840
   88MOL0     H12086   0.954   4.543   9.574 -0.6893 -2.1575 -3.1175
   88MOL0     H12087   0.703   4.394   9.570 -3.3492  2.0456  3.4791
   88MOL0     H12088   0.861   4.340   9.628 -0.9770 -1.7076 -0.6504
   88MOL0     H12089   0.698   4.367   9.809  1.1522  0.3834  0.2758
   88MOL0     H12090   0.682   4.545   9.768  1.5013  1.5115  0.8028
   88MOL0     H12091   0.909   4.572   9.842 -0.1227  1.1779  1.0479
   88MOL0     H12092   0.809   4.501   9.972  0.2920  1.6879  0.4111
   88MOL0     H12093   0.893   4.211   9.991  0.8052 -1.2233 -1.8174
   88MOL0     H12094   1.192   4.020   9.872 -1.6095 -4.8677  2.2884
   88MOL0     H12095   1.079   4.020  10.007  1.3209 -0.5169  0.2050
   88MOL0     H12096   1.306   4.008  10.072 -1.2468  0.2687 -0.8867
   88MOL0     H12097   1.357   4.139   9.954 -0.0085  1.9166 -0.7756
   88MOL0     H12098   1.260   4.312  10.124 -0.6524 -0.4852  0.8138
   88MOL0     H12099   1.190   4.191  10.215 -0.9202  4.9608  1.2525
   88MOL0     H12100   1.392   4.088  10.264 -0.9020  1.2148  0.4683
   88MOL0     H12101   1.480   4.205  10.162 -0.4306 -0.1495 -0.0285
   88MOL0     H12102   1.664   4.347  10.439 -3.2200  1.0729 -0.1202
   88MOL0     H12103   1.855   4.300  10.548  1.1577 -0.2787 -0.3200
   88MOL0     H12104   1.878   4.155  10.641  0.5412  0.7369 -0.3999
   88MOL0     H12105   1.821   4.314  10.718  1.4760 -1.3328  1.1044
   88MOL0     H12106   1.517   4.016  11.091 -2.1894 -0.0764 -0.3107
   88MOL0     H12107   1.602   3.897  11.281  3.3627  0.3733 -0.5459
   88MOL0     H12108   1.600   3.691  11.427 -0.5281  0.6100 -0.1928
   88MOL0     H12109   1.599   3.555  11.317  0.6817 -0.2832 -1.0512
   88MOL0     H12110   1.653   3.522  11.560 -2.2390  2.7411 -0.6066
   88MOL0     H12111   1.755   3.439  11.448  1.7143  0.7616  0.5653
   88MOL0     H12112   1.921   3.640  11.464 -0.4574 -1.0790  0.1226
   88MOL0     H12113   1.909   3.516  11.595  0.7989 -1.4530 -2.6645
   88MOL0     H12114   1.740   3.656  11.720 -1.9350 -1.6581 -0.6863
   88MOL0     H12115   1.769   3.786  11.606 -0.9770 -0.6191  0.6729
   88MOL0     H12116   1.959   3.650  11.797 -2.9128 -1.5773 -1.0154
   88MOL0     H12117   2.023   3.749  11.671  1.0674 -1.5360  1.6855
   88MOL0     H12118   1.839   3.855  11.907 -0.1345  4.7869  0.8881
   88MOL0     H12119   1.861   3.939  11.754 -0.5625 -0.6218  0.1684
   88MOL0     H12120   2.032   4.033  11.849 -1.1285 -0.0363 -1.0543
   88MOL0     H12121   2.121   3.890  11.811 -2.0853 -0.4566 -2.0016
   88MOL0     H12122   2.004   3.978  12.072 -0.0864  1.5799 -2.1397
   88MOL0     H12123   2.171   3.944  12.038  1.4307 -1.4374  0.2924
   88MOL0     H12124   1.795   3.603  11.033  2.9850  2.4540 -0.2377
   88MOL0     H12125   1.684   3.707  10.848 -2.0359 -0.4764 -0.0065
   88MOL0     H12126   1.403   4.025  10.683 -3.3903  1.9633 -1.4726
   88MOL0     H12127   1.300   4.152  10.518 -0.2296  1.2864 -0.5586
   88MOL0     H12128   1.301   4.603   9.130  1.0062 -1.0009 -1.3320
   88MOL0     H12129   1.518   4.675   9.026 -1.7333 -3.9079  0.4567
   88MOL0     H12130   1.701   4.943   8.681  0.2896  0.9469 -3.2168
   88MOL0     H12131   1.905   5.015   8.597 -1.4753 -0.0699 -0.8793
   88MOL0     H12132   2.133   5.074   8.596 -0.5795 -0.6352 -0.6015
   88MOL0     H12133   2.072   5.197   8.488  0.4110  2.0632 -0.0438
   88MOL0     H12134   2.318   5.242   8.664  2.2845 -0.4627 -1.6687
   88MOL0     H12135   2.256   5.350   8.535 -1.4653  0.7242  1.2392
   88MOL0     H12136   2.290   5.112   8.407 -3.2884  2.0155  2.0313
   88MOL0     H12137   2.390   5.251   8.384  1.6230  0.5286  1.3869
   88MOL0     H12138   2.458   5.028   8.576 -0.6474 -0.4156 -0.5960
   88MOL0     H12139   2.532   5.185   8.589  1.3333 -0.9461  0.5165
   88MOL0     H12140   2.732   5.045   8.236 -1.2539  3.0563 -0.8449
   88MOL0     H12141   1.953   5.299   8.917  2.4214  1.6393 -4.1492
   88MOL0     H12142   1.799   5.337   9.081 -0.5519 -0.5601  0.7687
   88MOL0     H12143   1.645   5.254   9.064  0.5003 -1.4765 -0.0606
   88MOL0     H12144   1.761   5.187   9.157 -2.4693 -0.9485  0.7799
   89MOL0     O12145   8.619   2.900   7.303  0.4132  0.2806  0.0670
   89MOL0     C12146   8.694   2.815   7.258 -0.6421 -0.0382 -0.5591
   89MOL0     O12147   8.819   2.796   7.305 -0.6378  0.1080  0.3337
   89MOL0     C12148   8.837   2.852   7.431 -0.7632 -0.0420  0.9103
   89MOL0     C12149   8.799   2.769   7.532  0.1764  0.7421 -0.0839
   89MOL0     C12150   8.829   2.817   7.657  0.0552  0.0182  0.9935
   89MOL0     C12151   8.901   2.929   7.693  0.3954 -0.5497  0.4930
   89MOL0     O12152   8.927   2.952   7.821  0.5505  0.0805  0.2280
   89MOL0     C12153   8.914   3.087   7.872  0.5905  0.2186  0.6280
   89MOL0     C12154   8.770   3.119   7.914 -0.1199 -0.4434  0.5632
   89MOL0     C12155   8.699   3.184   7.790 -0.1708  0.6441 -0.1410
   89MOL0     C12156   8.733   3.338   7.767  0.5521  0.6012 -0.0545
   89MOL0     C12157   8.660   3.396   7.638 -0.1204 -0.2695 -0.3651
   89MOL0     C12158   8.728   3.366   7.500 -0.1869 -0.1833 -0.7750
   89MOL0     C12159   8.863   3.421   7.467 -0.0378  0.1865 -0.3759
   89MOL0     C12160   8.847   3.570   7.447  0.4631  0.4528 -0.4724
   89MOL0     N12161   8.748   3.604   7.341  1.0681 -0.2719 -0.6654
   89MOL0     C12162   8.764   3.590   7.210  0.0894 -0.7249 -0.0720
   89MOL0     C12163   8.676   3.679   7.144 -0.0270 -0.3346  0.0787
   89MOL0     C12164   8.651   3.682   7.000  0.1681 -0.8859  0.4798
   89MOL0     C12165   8.583   3.554   6.948  0.4626  0.1861  0.4555
   89MOL0     C12166   8.494   3.587   6.826  0.1834  0.1557  0.3067
   89MOL0     C12167   8.492   3.485   6.721  1.0684 -0.6838 -0.6950
   89MOL0     O12168   8.399   3.381   6.757  0.1175 -0.4606 -0.1154
   89MOL0     C12169   8.390   3.279   6.670 -0.0283 -0.1412  0.3976
   89MOL0     C12170   8.391   3.149   6.722  0.7199  0.1454 -0.6064
   89MOL0     C12171   8.378   3.024   6.652 -0.2909  0.2974  0.3492
   89MOL0     C12172   8.373   2.904   6.738  1.1120  0.4464 -0.3860
   89MOL0     C12173   8.366   3.046   6.513 -0.4036  0.1649 -0.6306
   89MOL0     C12174   8.342   2.928   6.426  0.0935 -0.1688 -0.0651
   89MOL0     O12175   8.428   2.817   6.438 -0.8093 -0.1504 -0.3578
   89MOL0     C12176   8.399   2.707   6.353 -0.2145 -0.0553  0.1170
   89MOL0     C12177   8.276   2.660   6.323  0.3982  0.0482 -0.5532
   89MOL0     C12178   8.254   2.541   6.245 -0.9850 -0.3111 -0.6442
   89MOL0     C12179   8.364   2.474   6.198 -0.2505 -0.0948  0.2092
   89MOL0     O12180   8.349   2.367   6.121  0.3813 -0.5204 -0.1777
   89MOL0     C12181   8.291   2.253   6.183  1.4885  0.1542 -0.2288
   89MOL0     C12182   8.389   2.136   6.162  0.1541 -0.6326 -0.3982
   89MOL0     C12183   8.411   2.109   6.020  0.3501 -0.5174  1.1204
   89MOL0     C12184   8.353   1.968   5.967  0.5470  0.0347  0.6251
   89MOL0     C12185   8.209   1.946   5.973  0.5594  1.3376 -0.4760
   89MOL0     C12186   8.174   1.802   5.909 -0.5315 -0.7512  0.1507
   89MOL0     C12187   8.017   1.789   5.897 -0.1525 -0.8852 -0.1097
   89MOL0     C12188   7.942   1.823   6.034 -0.1495 -0.0521  0.6086
   89MOL0    Cl12189   7.965   1.679   6.139  0.5361 -0.1958 -0.3716
   89MOL0     C12190   8.492   2.521   6.234 -0.2144  0.6406  0.4259
   89MOL0     C12191   8.517   2.636   6.308  0.2802  0.0994 -0.1970
   89MOL0     O12192   8.259   2.949   6.333 -0.0415  0.0157  0.0044
   89MOL0     C12193   8.347   3.172   6.454  0.5123  0.0758 -0.6775
   89MOL0     C12194   8.353   3.287   6.537 -0.0226 -0.4907 -0.5935
   89MOL0     N12195   8.599   3.742   7.239 -1.1964  0.4991 -0.7618
   89MOL0     N12196   8.639   3.696   7.355  0.0014  0.0799  0.3739
   89MOL0     C12197   8.952   3.002   7.586  0.0116 -0.7216  0.4917
   89MOL0     C12198   8.912   2.967   7.453  0.8957 -0.8833 -0.0677
   89MOL0     C12199   8.642   2.715   7.162  0.0482  0.1082  1.2595
   89MOL0     C12200   8.509   2.724   7.109 -0.1742  1.1439 -0.1827
   89MOL0     C12201   8.465   2.631   7.008 -0.2603 -0.2204  0.1223
   89MOL0     C12202   8.541   2.530   6.963  0.1937  1.0621 -0.9046
   89MOL0     O12203   8.499   2.438   6.880 -0.2226 -0.1806  0.1327
   89MOL0     C12204   8.358   2.414   6.866 -0.0462  0.3207 -0.3146
   89MOL0     C12205   8.325   2.277   6.808 -0.1870  0.2190  0.1437
   89MOL0     C12206   8.363   2.251   6.658  0.5498  0.5924 -0.8601
   89MOL0     C12207   8.256   2.160   6.585  0.6013 -0.7610 -0.0685
   89MOL0     C12208   8.133   2.239   6.558  0.3100  0.0863  0.5679
   89MOL0     C12209   8.048   2.317   6.519 -0.3067  0.3938  0.2491
   89MOL0     C12210   8.667   2.519   7.012 -1.0996 -1.0684 -0.3182
   89MOL0     C12211   8.731   2.610   7.101  0.3790 -0.5145  0.1100
   89MOL0     C12212   8.880   2.588   7.135 -0.4206  0.5315 -0.7919
   89MOL0     H12213   8.769   2.666   7.518  0.9399  0.1883  2.0019
   89MOL0     H12214   8.807   2.758   7.746 -2.0907  1.1238  1.2535
   89MOL0     H12215   8.965   3.158   7.806  1.5946 -0.7948  0.2927
   89MOL0     H12216   8.976   3.102   7.960  0.9414  0.3973  0.3540
   89MOL0     H12217   8.707   3.035   7.945 -0.9714  0.1935  0.5802
   89MOL0     H12218   8.755   3.195   7.991  0.1277 -0.7749  0.9430
   89MOL0     H12219   8.727   3.125   7.702 -2.9200 -1.9551  0.5654
   89MOL0     H12220   8.592   3.160   7.793  0.3320 -1.7982  0.2710
   89MOL0     H12221   8.681   3.379   7.854 -0.2040 -0.5991  0.0777
   89MOL0     H12222   8.841   3.354   7.759  0.9104 -2.1594 -3.0184
   89MOL0     H12223   8.668   3.504   7.647  1.6520 -0.5209  2.0573
   89MOL0     H12224   8.555   3.366   7.631 -0.8407  2.3599 -1.9464
   89MOL0     H12225   8.738   3.257   7.489  1.2330 -0.3832  1.6777
   89MOL0     H12226   8.664   3.399   7.418  1.8658 -1.6410 -3.1030
   89MOL0     H12227   8.911   3.369   7.383 -1.7819  0.7737 -1.7997
   89MOL0     H12228   8.932   3.409   7.552 -0.1315  0.2463 -0.2919
   89MOL0     H12229   8.821   3.623   7.540 -2.3713 -1.0188 -0.3388
   89MOL0     H12230   8.940   3.614   7.410  0.8478 -1.4788 -1.9119
   89MOL0     H12231   8.832   3.517   7.167 -0.3339 -0.8634 -0.5101
   89MOL0     H12232   8.746   3.707   6.950 -1.0991 -0.3482 -1.7940
   89MOL0     H12233   8.589   3.769   6.979  0.5104 -0.7987 -0.1951
   89MOL0     H12234   8.657   3.475   6.933  1.3774  0.1085  4.3435
   89MOL0     H12235   8.512   3.513   7.020  1.2339  0.3369  1.3112
   89MOL0     H12236   8.387   3.594   6.849 -0.4090  0.3778 -2.2079
   89MOL0     H12237   8.531   3.677   6.777 -1.1034 -1.0963 -3.3562
   89MOL0     H12238   8.469   3.528   6.623  0.0686  1.9959  0.6103
   89MOL0     H12239   8.594   3.445   6.720  1.3501  0.0057 -1.7863
   89MOL0     H12240   8.419   3.138   6.826 -1.3342 -2.8654 -0.2475
   89MOL0     H12241   8.424   2.912   6.834  2.5432 -4.0335 -0.5512
   89MOL0     H12242   8.410   2.811   6.692 -3.1583 -1.2250 -0.8739
   89MOL0     H12243   8.266   2.885   6.743  1.0757  0.6380 -0.4387
   89MOL0     H12244   8.187   2.716   6.349  2.2285  2.3310  1.2696
   89MOL0     H12245   8.158   2.503   6.210 -1.5925 -0.1273  0.7411
   89MOL0     H12246   8.249   2.257   6.285 -1.6738  1.3232 -1.4325
   89MOL0     H12247   8.199   2.250   6.124  1.7395  1.5834 -0.7447
   89MOL0     H12248   8.484   2.170   6.205  0.6501  0.9841 -2.5570
   89MOL0     H12249   8.378   2.045   6.222  0.4255 -1.4415 -1.5157
   89MOL0     H12250   8.512   2.121   5.982 -0.7061 -1.0181 -2.1984
   89MOL0     H12251   8.363   2.183   5.954  5.3153  1.6441 -0.5042
   89MOL0     H12252   8.395   1.878   6.011  1.4191  1.5410  3.0735
   89MOL0     H12253   8.376   1.973   5.860  1.6615  2.2890  0.9062
   89MOL0     H12254   8.189   1.958   6.080  2.7146  1.3828 -0.0439
   89MOL0     H12255   8.141   2.020   5.928 -0.9846  0.0027 -0.4154
   89MOL0     H12256   8.226   1.725   5.966  2.6254 -0.6450 -2.2908
   89MOL0     H12257   8.227   1.799   5.813  3.3943  1.2484  2.0251
   89MOL0     H12258   8.006   1.682   5.875  1.9102 -0.9667 -0.9845
   89MOL0     H12259   7.975   1.846   5.813 -2.5103 -1.6804  0.4348
   89MOL0     H12260   7.837   1.832   6.006  0.0851  1.3580  0.0633
   89MOL0     H12261   7.975   1.918   6.077 -0.9277  0.0052  1.0911
   89MOL0     H12262   8.577   2.471   6.187 -0.7094 -1.3632  1.5768
   89MOL0     H12263   8.605   2.692   6.337 -1.2435  0.3035  4.9797
   89MOL0     H12264   8.319   3.188   6.351 -1.4058  1.8195  0.0491
   89MOL0     H12265   8.336   3.387   6.497 -2.9766  0.1271  1.8193
   89MOL0     H12266   9.001   3.098   7.605  0.8661 -1.0656  0.0828
   89MOL0     H12267   8.928   3.029   7.365 -2.2252 -1.5672 -1.2397
   89MOL0     H12268   8.431   2.793   7.141  0.0956  1.0014  0.8136
   89MOL0     H12269   8.373   2.651   6.954  0.3192  1.3418 -0.3425
   89MOL0     H12270   8.316   2.436   6.965  0.5195  3.6353 -0.7267
   89MOL0     H12271   8.315   2.490   6.801  0.6203 -1.5954 -3.2233
   89MOL0     H12272   8.216   2.268   6.804 -0.0393 -3.0088  0.7779
   89MOL0     H12273   8.351   2.206   6.887 -0.7867  0.4336  0.5400
   89MOL0     H12274   8.359   2.352   6.616 -0.1018  0.4434 -1.1674
   89MOL0     H12275   8.466   2.214   6.652  0.2373 -1.0493  2.1722
   89MOL0     H12276   8.243   2.067   6.641  1.6802 -1.0617 -0.2929
   89MOL0     H12277   8.277   2.146   6.478 -0.2917 -0.6232 -0.2712
   89MOL0     H12278   7.983   2.386   6.470  1.2895  1.7385 -0.0514
   89MOL0     H12279   8.728   2.439   6.973  1.5460 -0.2122  1.7858
   89MOL0     H12280   8.917   2.497   7.086 -0.5755 -2.6281  4.2268
   89MOL0     H12281   8.933   2.676   7.097  1.5080 -0.1379  0.2298
   89MOL0     H12282   8.904   2.577   7.241  3.1315  0.3521 -1.4986
   90MOL0     O12283   4.075   2.498   0.143 -0.7938 -0.3744  0.6467
   90MOL0     C12284   3.982   2.425   0.131  0.1366  0.1581 -0.2394
   90MOL0     O12285   3.994   2.299   0.102 -0.4447 -0.7347 -0.0751
   90MOL0     C12286   4.107   2.261   0.030  0.2262 -0.4382 -0.5387
   90MOL0     C12287   4.234   2.269   0.084  0.3392 -0.4842 -0.1481
   90MOL0     C12288   4.344   2.225   0.012  0.4904 -0.6938  0.0056
   90MOL0     C12289   4.331   2.175  -0.118  0.5890 -0.2059  0.4493
   90MOL0     O12290   4.431   2.133  -0.203 -0.5200 -0.6587  0.4183
   90MOL0     C12291   4.567   2.169  -0.172  0.7591 -0.6479 -0.0884
   90MOL0     C12292   4.654   2.118  -0.271  0.5787  0.6773  0.4546
   90MOL0     C12293   4.641   2.206  -0.396  0.2001 -0.2369 -0.1104
   90MOL0     C12294   4.654   2.127  -0.524 -0.7072 -0.4849 -0.1926
   90MOL0     C12295   4.693   2.201  -0.651  0.5542 -0.2670  0.0621
   90MOL0     C12296   4.645   2.143  -0.787 -0.3076  0.4398  0.7125
   90MOL0     C12297   4.730   2.196  -0.903  0.6774  0.2055 -0.2278
   90MOL0     C12298   4.692   2.335  -0.952 -0.2038  0.5363 -0.0276
   90MOL0     N12299   4.597   2.335  -1.067 -0.3840  0.7762  0.5593
   90MOL0     C12300   4.545   2.450  -1.125  0.7841  0.4081 -1.3150
   90MOL0     C12301   4.428   2.414  -1.194 -0.3158  0.0488 -0.5106
   90MOL0     C12302   4.331   2.473  -1.286  0.1546  0.8305 -0.6099
   90MOL0     C12303   4.209   2.508  -1.203 -0.9261 -0.6047  0.4899
   90MOL0     C12304   4.103   2.570  -1.287 -0.0110 -0.5847  0.6858
   90MOL0     C12305   4.017   2.683  -1.219 -1.3296 -0.9568 -1.1944
   90MOL0     O12306   3.987   2.634  -1.080 -0.4824  0.1206  0.3374
   90MOL0     C12307   3.902   2.695  -1.000 -0.1347  0.1035 -0.8995
   90MOL0     C12308   3.867   2.614  -0.890 -0.1942 -0.7855  0.5751
   90MOL0     C12309   3.758   2.648  -0.808 -1.0134 -0.2034 -0.6578
   90MOL0     C12310   3.750   2.555  -0.686 -0.2059 -0.4061  0.1235
   90MOL0     C12311   3.687   2.773  -0.820 -0.3014 -0.6038  0.1767
   90MOL0     C12312   3.587   2.814  -0.727  0.4202  0.3076  0.0041
   90MOL0     O12313   3.572   2.947  -0.711 -1.0267 -0.2914  0.1735
   90MOL0     C12314   3.463   2.995  -0.639 -0.0828 -0.1282  1.4618
   90MOL0     C12315   3.330   3.006  -0.695 -0.7766  0.8752 -0.1302
   90MOL0     C12316   3.229   3.061  -0.616  1.0774 -0.5144 -0.4466
   90MOL0     C12317   3.244   3.083  -0.476  0.0168 -0.0888 -0.0732
   90MOL0     O12318   3.135   3.130  -0.403 -0.1754  0.2049  0.2613
   90MOL0     C12319   3.149   3.235  -0.307  0.8352 -0.0193 -1.0756
   90MOL0     C12320   3.019   3.230  -0.217  0.0240 -0.5900  0.2769
   90MOL0     C12321   3.043   3.322  -0.081 -0.1953  0.2431  0.4827
   90MOL0     C12322   3.040   3.464  -0.119 -0.2737  0.2570 -0.7485
   90MOL0     C12323   3.024   3.560  -0.004  0.0269 -0.4176  0.2449
   90MOL0     C12324   3.140   3.585   0.089 -0.9321 -0.0019  0.5618
   90MOL0     C12325   3.111   3.646   0.222 -0.7970  0.3253 -0.4780
   90MOL0     C12326   3.062   3.543   0.333 -0.0289  0.3454  0.0118
   90MOL0    Cl12327   3.193   3.417   0.362 -0.7006 -0.2570  0.2762
   90MOL0     C12328   3.370   3.062  -0.415 -1.0525  0.0473  0.0467
   90MOL0     C12329   3.481   3.026  -0.497 -0.3857  0.1157  0.3978
   90MOL0     O12330   3.501   2.726  -0.700 -0.5470 -0.4203 -0.9146
   90MOL0     C12331   3.725   2.847  -0.933 -0.0298  0.4316 -0.0756
   90MOL0     C12332   3.831   2.812  -1.024 -0.3273  0.3457  0.9067
   90MOL0     N12333   4.413   2.276  -1.179  0.4864 -0.9400  0.2218
   90MOL0     N12334   4.511   2.230  -1.109  0.7231  1.0210  0.7862
   90MOL0     C12335   4.209   2.153  -0.164  1.0560  0.5323 -0.8488
   90MOL0     C12336   4.096   2.192  -0.089  0.3555 -0.9969 -0.1713
   90MOL0     C12337   3.852   2.494   0.146 -0.9428 -0.1191 -0.5450
   90MOL0     C12338   3.849   2.621   0.218  0.5626  0.3101 -0.3070
   90MOL0     C12339   3.735   2.696   0.226  0.6593 -0.7050  0.0963
   90MOL0     C12340   3.615   2.649   0.188  1.2581 -1.2222  0.2134
   90MOL0     O12341   3.499   2.733   0.212 -0.2647  0.2377 -0.3363
   90MOL0     C12342   3.367   2.670   0.175  0.6685 -0.2628 -0.3890
   90MOL0     C12343   3.250   2.781   0.167  0.6034  0.1633  0.9702
   90MOL0     C12344   3.229   2.830   0.015  0.0301  0.3731  0.1336
   90MOL0     C12345   3.179   2.969   0.003 -0.0327 -0.1786 -0.2454
   90MOL0     C12346   3.281   3.080   0.034  1.0664  1.1168  0.3747
   90MOL0     C12347   3.356   3.165   0.055  0.4195 -0.1303 -0.5279
   90MOL0     C12348   3.609   2.525   0.132 -0.3706  0.7217  0.7247
   90MOL0     C12349   3.729   2.442   0.109 -0.1708  0.3470  0.1437
   90MOL0     C12350   3.716   2.312   0.024  0.1944  0.6202 -0.1615
   90MOL0     H12351   4.248   2.315   0.181 -0.4848  0.3288 -0.4030
   90MOL0     H12352   4.441   2.243   0.057  0.2437 -0.0216  0.2650
   90MOL0     H12353   4.595   2.126  -0.075  2.1653 -1.0721 -0.6518
   90MOL0     H12354   4.575   2.277  -0.165  0.6163 -0.7496  3.1007
   90MOL0     H12355   4.761   2.121  -0.248  1.2306 -3.0138 -1.2402
   90MOL0     H12356   4.635   2.013  -0.297 -1.9738  1.5954 -1.9686
   90MOL0     H12357   4.537   2.241  -0.389 -1.3600 -4.5654  2.3591
   90MOL0     H12358   4.712   2.289  -0.389 -1.1671  0.8841  1.2486
   90MOL0     H12359   4.737   2.061  -0.497  1.0881  2.1145  1.1347
   90MOL0     H12360   4.559   2.077  -0.539 -0.4407 -0.4151 -2.4106
   90MOL0     H12361   4.802   2.213  -0.657  0.4187  1.3811  0.3142
   90MOL0     H12362   4.660   2.303  -0.629  0.9261 -0.1453  0.0642
   90MOL0     H12363   4.670   2.036  -0.781  0.7612  0.5542 -0.9931
   90MOL0     H12364   4.542   2.178  -0.799  0.0588  2.5609  2.9294
   90MOL0     H12365   4.723   2.128  -0.988  1.3309 -0.6727  0.4031
   90MOL0     H12366   4.836   2.201  -0.879  1.0039  2.7600 -1.8286
   90MOL0     H12367   4.641   2.387  -0.870 -0.7777 -1.2593  0.8089
   90MOL0     H12368   4.785   2.382  -0.986  1.3710 -0.7482  2.2546
   90MOL0     H12369   4.573   2.554  -1.112  0.0788  1.2343 -5.1005
   90MOL0     H12370   4.303   2.394  -1.356  0.8750  0.7426 -0.8045
   90MOL0     H12371   4.366   2.563  -1.338  1.6606  1.7202  1.7722
   90MOL0     H12372   4.161   2.419  -1.161 -2.0559 -1.1667 -1.8674
   90MOL0     H12373   4.241   2.584  -1.130  0.3223 -0.5036 -0.1480
   90MOL0     H12374   4.149   2.605  -1.380  0.4074 -1.9686  0.3617
   90MOL0     H12375   4.043   2.486  -1.324  0.0101 -0.5451  0.5586
   90MOL0     H12376   4.078   2.773  -1.218  0.3887 -2.0636  0.0420
   90MOL0     H12377   3.932   2.697  -1.287 -1.0618  1.4151 -1.1002
   90MOL0     H12378   3.923   2.522  -0.876 -0.9124 -1.6937 -1.9899
   90MOL0     H12379   3.649   2.529  -0.652 -1.6129  1.0305 -2.6136
   90MOL0     H12380   3.802   2.610  -0.607 -0.3960  0.1286 -0.1173
   90MOL0     H12381   3.796   2.459  -0.709  2.1709  0.4374  1.0990
   90MOL0     H12382   3.311   2.985  -0.800 -1.7339  0.8419  0.0423
   90MOL0     H12383   3.129   3.075  -0.656  2.3300  1.6596 -3.0909
   90MOL0     H12384   3.234   3.215  -0.241 -0.0803 -0.9401 -0.1572
   90MOL0     H12385   3.163   3.335  -0.349  3.9553 -0.0263 -0.2712
   90MOL0     H12386   2.927   3.254  -0.271  1.1160  0.9114 -1.0077
   90MOL0     H12387   3.002   3.127  -0.186  1.6384  0.0285  3.7964
   90MOL0     H12388   3.135   3.300  -0.027 -0.2739 -0.8555  0.1943
   90MOL0     H12389   2.967   3.303  -0.005  0.1549 -0.1190  0.7455
   90MOL0     H12390   2.961   3.485  -0.192  0.1422  0.0083 -1.2783
   90MOL0     H12391   3.133   3.497  -0.167  0.2849  0.0968  0.1999
   90MOL0     H12392   2.979   3.651  -0.046  1.4709 -0.4464 -1.5051
   90MOL0     H12393   2.941   3.525   0.058 -0.0529 -0.3573  0.1729
   90MOL0     H12394   3.204   3.654   0.034  0.0095  0.6625  2.4216
   90MOL0     H12395   3.189   3.488   0.102  1.4609  1.1643  0.6151
   90MOL0     H12396   3.044   3.732   0.227 -0.1172  0.9236 -1.2948
   90MOL0     H12397   3.204   3.689   0.260 -2.5331  2.5174  1.6412
   90MOL0     H12398   2.969   3.495   0.301 -0.3509  2.0560 -1.8426
   90MOL0     H12399   3.043   3.591   0.430 -0.1033  0.7698 -0.2118
   90MOL0     H12400   3.385   3.065  -0.307 -1.3692 -0.7346  0.1169
   90MOL0     H12401   3.578   3.011  -0.450  1.1936  1.6785 -2.1075
   90MOL0     H12402   3.672   2.940  -0.953 -0.1002 -0.1543 -3.0183
   90MOL0     H12403   3.843   2.871  -1.114  0.9483 -0.6703  0.3937
   90MOL0     H12404   4.187   2.105  -0.259 -1.9639 -0.2527  0.1311
   90MOL0     H12405   3.994   2.164  -0.115 -0.4979  2.1592 -0.6971
   90MOL0     H12406   3.936   2.669   0.260 -2.5665  3.5081  3.2337
   90MOL0     H12407   3.740   2.797   0.265 -0.2999 -0.0208 -1.4516
   90MOL0     H12408   3.370   2.618   0.079 -0.6233  2.5542 -2.0791
   90MOL0     H12409   3.347   2.596   0.254  0.3233  0.4921  0.2426
   90MOL0     H12410   3.264   2.861   0.242  0.2543 -0.2169  1.4471
   90MOL0     H12411   3.150   2.745   0.191  0.2921  0.4334  0.1102
   90MOL0     H12412   3.323   2.823  -0.041  0.9146  0.8395  1.5080
   90MOL0     H12413   3.166   2.756  -0.035  2.2414 -1.1470 -0.5480
   90MOL0     H12414   3.089   2.980   0.064 -0.9649 -2.6071 -1.0624
   90MOL0     H12415   3.150   2.986  -0.102  0.8433  1.2333 -0.2826
   90MOL0     H12416   3.407   3.253   0.089  0.5048 -1.0762  1.9924
   90MOL0     H12417   3.532   2.510   0.057  0.2030  1.2932  0.0021
   90MOL0     H12418   3.736   2.218   0.075 -1.8969  0.4344  0.4009
   90MOL0     H12419   3.611   2.305  -0.005 -0.0963  3.4195 -0.0628
   90MOL0     H12420   3.773   2.316  -0.069  0.6704 -2.4079 -0.0993
   91MOL0     O12421   4.708  10.139   4.840  0.1092  0.4313  0.0998
   91MOL0     C12422   4.662  10.215   4.753 -0.0578  0.2722 -0.3890
   91MOL0     O12423   4.701  10.218   4.621 -0.2921 -0.5541 -0.2083
   91MOL0     C12424   4.820  10.165   4.581  0.5301  0.0273 -0.2827
   91MOL0     C12425   4.838  10.140   4.449  0.4954 -0.4277 -0.9875
   91MOL0     C12426   4.958  10.089   4.397 -0.4817  0.6418 -0.2778
   91MOL0     C12427   5.068  10.056   4.483 -0.5826  0.8262  0.2226
   91MOL0     O12428   5.185  10.006   4.443 -0.6479 -0.0140 -0.0296
   91MOL0     C12429   5.185   9.947   4.309 -0.1013  0.3861 -0.2891
   91MOL0     C12430   5.322   9.878   4.299  0.6046 -0.4195  0.2514
   91MOL0     C12431   5.325   9.813   4.149 -0.1744 -1.0407 -1.0928
   91MOL0     C12432   5.358   9.920   4.043  0.0573  0.2362 -0.1361
   91MOL0     C12433   5.332   9.878   3.899  0.0093  0.3973 -0.9719
   91MOL0     C12434   5.373   9.989   3.792 -0.9140  0.0715  0.0733
   91MOL0     C12435   5.513  10.044   3.799 -0.3903  0.1054  0.4831
   91MOL0     C12436   5.622   9.932   3.805  0.2861 -0.3030 -0.1884
   91MOL0     N12437   5.725   9.961   3.897  0.2360  0.4777 -0.5098
   91MOL0     C12438   5.788  10.074   3.897 -0.3730  0.4674  0.0043
   91MOL0     C12439   5.893  10.054   3.975 -0.5589  0.3060 -1.0121
   91MOL0     C12440   5.977  10.180   3.999 -0.4065  0.0930  0.3946
   91MOL0     C12441   6.134  10.151   4.004  0.8464 -0.4444  1.0221
   91MOL0     C12442   6.177  10.052   4.119  0.2539  0.3290  0.3889
   91MOL0     C12443   6.327  10.061   4.139 -0.1230 -0.0415 -0.0364
   91MOL0     O12444   6.368   9.942   4.216  0.9703 -0.1110 -0.2948
   91MOL0     C12445   6.329   9.942   4.349 -0.0780  0.2242  0.0682
   91MOL0     C12446   6.358   9.819   4.421  0.1107  0.2690  0.2447
   91MOL0     C12447   6.313   9.803   4.554 -1.3673 -0.0820  0.5425
   91MOL0     C12448   6.369   9.675   4.621 -0.2426 -0.0754  0.3641
   91MOL0     C12449   6.249   9.909   4.623  0.8761 -0.7554  0.1071
   91MOL0     C12450   6.197   9.888   4.751 -0.6585  0.5084 -0.2178
   91MOL0     O12451   6.091   9.796   4.771 -0.9358 -0.7483 -0.6142
   91MOL0     C12452   6.030   9.799   4.897 -0.2103 -0.1308 -0.5822
   91MOL0     C12453   5.932   9.886   4.925 -0.5659  0.4572  0.6141
   91MOL0     C12454   5.891   9.913   5.062 -0.3711 -0.2181 -0.1362
   91MOL0     C12455   5.958   9.840   5.162  1.4354 -0.0626  0.2164
   91MOL0     O12456   5.936   9.833   5.294 -0.2028 -0.0895  0.1756
   91MOL0     C12457   5.819   9.900   5.342 -0.1610  0.4269  0.4316
   91MOL0     C12458   5.817   9.895   5.500 -0.1734  1.0978  0.9937
   91MOL0     C12459   5.787   9.749   5.551  0.1506  0.0934 -0.9212
   91MOL0     C12460   5.774   9.758   5.700 -0.1350  0.1368 -0.3714
   91MOL0     C12461   5.749   9.622   5.763  0.3368 -0.0820 -0.6652
   91MOL0     C12462   5.722   9.626   5.916 -0.3389  0.4647  0.2913
   91MOL0     C12463   5.617   9.721   5.977 -0.2993 -0.0352  0.6713
   91MOL0     C12464   5.544   9.639   6.081  0.2731  0.2812  0.4140
   91MOL0    Cl12465   5.438   9.521   5.994  0.4721 -0.0308 -0.1407
   91MOL0     C12466   6.057   9.751   5.129 -0.3940 -0.0113  0.4778
   91MOL0     C12467   6.092   9.735   4.993  0.3817  1.2938 -0.4927
   91MOL0     O12468   6.243   9.965   4.839  0.4415 -0.2722 -0.3009
   91MOL0     C12469   6.236  10.031   4.557  0.2130  0.3038 -0.2507
   91MOL0     C12470   6.282  10.052   4.428  0.0381  0.2548  0.5615
   91MOL0     N12471   5.885   9.928   4.032 -0.1295  0.4746  0.0670
   91MOL0     N12472   5.776   9.876   3.992  0.1589  0.3517 -0.0108
   91MOL0     C12473   5.049  10.076   4.617 -0.1582  0.1554 -0.7106
   91MOL0     C12474   4.926  10.132   4.667 -0.0583 -0.5715 -0.0088
   91MOL0     C12475   4.545  10.300   4.780 -0.1400 -0.2004 -0.6069
   91MOL0     C12476   4.476  10.364   4.671 -0.1473 -0.8137  1.4496
   91MOL0     C12477   4.362  10.441   4.690  0.3438  0.4823 -0.5829
   91MOL0     C12478   4.309  10.457   4.818 -0.3734  0.0328  0.1114
   91MOL0     O12479   4.190  10.523   4.842 -0.1273 -0.8057 -0.7772
   91MOL0     C12480   4.150  10.636   4.754 -0.5352  0.2938 -0.3533
   91MOL0     C12481   4.052  10.726   4.820 -0.4872 -0.0405  0.3781
   91MOL0     C12482   3.910  10.661   4.820 -0.0105 -0.6387 -0.5918
   91MOL0     C12483   3.890  10.570   4.934 -0.0112  0.3625  0.0185
   91MOL0     C12484   3.784  10.468   4.900  0.2561  0.0959 -0.1901
   91MOL0     C12485   3.693  10.387   4.877  0.0150  0.2385  1.2304
   91MOL0     C12486   4.363  10.376   4.917  0.4453  0.2017  0.5844
   91MOL0     C12487   4.478  10.297   4.907  0.9033 -0.2044  0.1448
   91MOL0     C12488   4.514  10.195   5.023  0.0732 -0.0917 -0.1656
   91MOL0     H12489   4.770  10.188   4.379  1.8016  1.1555 -1.2258
   91MOL0     H12490   4.961  10.084   4.289  2.0904 -2.0751 -0.2008
   91MOL0     H12491   5.173  10.024   4.232  1.3012 -0.3026 -1.2411
   91MOL0     H12492   5.105   9.873   4.304  1.4739 -1.6923  2.2682
   91MOL0     H12493   5.404   9.946   4.325  1.7581 -2.2458  1.6044
   91MOL0     H12494   5.323   9.802   4.378 -3.8350  0.2526  1.2696
   91MOL0     H12495   5.413   9.748   4.154  2.4852  2.3184  0.0715
   91MOL0     H12496   5.228   9.765   4.133 -0.9666  0.3674 -0.6841
   91MOL0     H12497   5.297  10.008   4.061  2.9335  2.5283 -0.8461
   91MOL0     H12498   5.464   9.945   4.054  0.3524  0.6939 -3.2340
   91MOL0     H12499   5.224   9.863   3.892  0.2094 -1.2066 -1.0212
   91MOL0     H12500   5.388   9.785   3.888 -0.3456 -0.0314  0.5050
   91MOL0     H12501   5.364   9.959   3.687 -0.6361  0.0898  0.0429
   91MOL0     H12502   5.296  10.064   3.807 -1.2465 -0.1190 -0.6501
   91MOL0     H12503   5.510  10.109   3.887  1.8354  0.7500  0.1462
   91MOL0     H12504   5.528  10.105   3.710 -0.8467  0.6905  0.7972
   91MOL0     H12505   5.580   9.831   3.809 -2.5655  0.7470 -1.2296
   91MOL0     H12506   5.677   9.920   3.711  2.6328 -1.1471  1.2027
   91MOL0     H12507   5.760  10.163   3.842 -0.0713  1.8887  2.0398
   91MOL0     H12508   5.963  10.221   4.100 -0.3652  3.1058 -0.7057
   91MOL0     H12509   5.957  10.251   3.918  1.8513 -1.6633 -1.8800
   91MOL0     H12510   6.182  10.120   3.911 -1.5994 -3.3174  0.5343
   91MOL0     H12511   6.174  10.252   4.010  2.1424 -0.9141  0.7551
   91MOL0     H12512   6.113  10.068   4.206 -0.7212  0.4491 -0.3369
   91MOL0     H12513   6.161   9.955   4.071  2.9268 -0.1398  0.3065
   91MOL0     H12514   6.387  10.068   4.049 -1.6446 -0.8221 -1.1619
   91MOL0     H12515   6.332  10.155   4.196  0.0597  0.1994 -0.4519
   91MOL0     H12516   6.410   9.743   4.364 -0.9323 -0.1335 -0.1897
   91MOL0     H12517   6.322   9.646   4.715  0.0944  0.2819  0.6504
   91MOL0     H12518   6.466   9.692   4.669 -0.1490 -1.1011  0.5644
   91MOL0     H12519   6.371   9.584   4.561 -0.0605  2.3371 -3.6275
   91MOL0     H12520   5.892   9.927   4.834 -2.7789 -0.5219  1.0741
   91MOL0     H12521   5.817   9.992   5.077 -0.0074  0.3852 -1.3878
   91MOL0     H12522   5.838  10.006   5.319  1.5683  0.2754  1.0230
   91MOL0     H12523   5.731   9.855   5.296  0.5557 -0.8148  0.2114
   91MOL0     H12524   5.910   9.933   5.543  1.4008 -2.3794  1.0111
   91MOL0     H12525   5.728   9.947   5.534 -1.8670 -2.4759  2.5818
   91MOL0     H12526   5.865   9.681   5.517  0.4652  0.2990 -0.6169
   91MOL0     H12527   5.691   9.719   5.508 -0.3130  0.3326 -0.0899
   91MOL0     H12528   5.706   9.837   5.733  1.2850  1.0794  0.4135
   91MOL0     H12529   5.872   9.781   5.744  0.0801 -1.5729  0.0972
   91MOL0     H12530   5.670   9.558   5.722  0.6609 -0.5859 -0.5235
   91MOL0     H12531   5.842   9.564   5.751 -0.2236 -1.0011 -0.6775
   91MOL0     H12532   5.815   9.634   5.973  0.1385 -1.4546 -0.1239
   91MOL0     H12533   5.701   9.523   5.948  0.5493  0.4145  0.7613
   91MOL0     H12534   5.544   9.755   5.902  0.3079  2.1635  1.0214
   91MOL0     H12535   5.674   9.799   6.027 -0.1383  0.0042  0.4316
   91MOL0     H12536   5.478   9.705   6.138  3.2940  2.5273  1.5500
   91MOL0     H12537   5.619   9.591   6.145  0.5523  0.9785  0.6253
   91MOL0     H12538   6.108   9.685   5.199  1.4704 -0.3394 -1.1085
   91MOL0     H12539   6.169   9.661   4.973  0.1036  0.8117  0.1851
   91MOL0     H12540   6.170  10.099   4.610 -0.0348 -0.2388  0.1374
   91MOL0     H12541   6.242  10.138   4.375  1.2387 -0.2131 -1.2130
   91MOL0     H12542   5.121  10.048   4.694  2.7122 -0.8105 -3.5270
   91MOL0     H12543   4.921  10.152   4.774 -2.1689  1.7774 -0.4508
   91MOL0     H12544   4.514  10.362   4.570 -1.4049  0.2956  0.9234
   91MOL0     H12545   4.327  10.506   4.610 -3.8923  1.6913  1.8764
   91MOL0     H12546   4.237  10.701   4.741 -0.8365  0.9288  0.7123
   91MOL0     H12547   4.110  10.603   4.657  1.7354 -1.1459 -0.8692
   91MOL0     H12548   4.047  10.825   4.774  2.4825  0.1924  0.4203
   91MOL0     H12549   4.093  10.743   4.919  1.8947  0.9406 -0.6959
   91MOL0     H12550   3.843  10.748   4.824  0.5225 -0.1507 -1.6905
   91MOL0     H12551   3.875  10.624   4.724  0.4066 -3.0740  0.1405
   91MOL0     H12552   3.863  10.624   5.024  2.9682  0.0305  1.2398
   91MOL0     H12553   3.984  10.517   4.954 -1.9743 -3.1994  0.7593
   91MOL0     H12554   3.607  10.325   4.860 -0.7482  1.4154  0.6489
   91MOL0     H12555   4.313  10.375   5.014 -0.1386  0.3057  0.2878
   91MOL0     H12556   4.508  10.090   4.993  2.2292 -0.0133 -1.0878
   91MOL0     H12557   4.616  10.215   5.055  1.5542 -2.6264 -2.8323
   91MOL0     H12558   4.443  10.204   5.105  3.3417  0.0013  2.8662
   92MOL0     O12559   4.795   7.029   9.944 -0.5266  0.1721  0.2547
   92MOL0     C12560   4.740   7.140   9.926  0.3787 -0.0421 -0.0828
   92MOL0     O12561   4.774   7.260   9.985  0.0208  0.3081 -0.4920
   92MOL0     C12562   4.895   7.263  10.051 -1.0564 -0.5646  0.2229
   92MOL0     C12563   4.881   7.291  10.190 -0.7080  0.6916  0.7436
   92MOL0     C12564   5.005   7.289  10.263 -0.9834 -0.7310  0.3901
   92MOL0     C12565   5.128   7.279  10.200 -0.3331  0.6003  0.9831
   92MOL0     O12566   5.251   7.277  10.256  1.0378 -0.4088 -0.0663
   92MOL0     C12567   5.264   7.291  10.399 -0.3767  0.6484 -0.5280
   92MOL0     C12568   5.246   7.429  10.446  1.0536 -0.1942  0.5501
   92MOL0     C12569   5.199   7.427  10.594  0.4262  0.0233 -0.7029
   92MOL0     C12570   5.175   7.573  10.657 -0.1646  0.1321  0.2567
   92MOL0     C12571   5.271   7.675  10.593 -0.5337  0.3638  0.1160
   92MOL0     C12572   5.250   7.820  10.659  0.3658  1.2083  0.3386
   92MOL0     C12573   5.306   7.810  10.805 -0.0796 -0.1198 -0.2302
   92MOL0     C12574   5.448   7.747  10.814  0.1258 -0.0151  0.2928
   92MOL0     N12575   5.494   7.752  10.948  0.2606  0.0828 -0.0799
   92MOL0     C12576   5.492   7.856  11.033  0.0099  1.0115  0.5793
   92MOL0     C12577   5.510   7.799  11.153 -0.0913 -0.8163 -0.5995
   92MOL0     C12578   5.503   7.858  11.300 -0.1268  0.2417  0.0645
   92MOL0     C12579   5.371   7.842  11.368 -0.0922  0.5731 -0.5705
   92MOL0     C12580   5.393   7.810  11.523  0.7710 -0.1282  0.0074
   92MOL0     C12581   5.266   7.831  11.618 -0.1922 -0.0094 -0.3299
   92MOL0     O12582   5.224   7.966  11.605 -0.0119  0.4241  0.2135
   92MOL0     C12583   5.160   8.032  11.702 -0.0024 -0.1474  0.7412
   92MOL0     C12584   5.128   8.161  11.663 -0.2768  0.0626  0.3130
   92MOL0     C12585   5.046   8.240  11.741 -0.6872 -0.3202  0.0010
   92MOL0     C12586   5.002   8.379  11.693 -0.3547 -0.1528 -0.6858
   92MOL0     C12587   5.006   8.182  11.865 -0.1507  0.0889  0.6418
   92MOL0     C12588   4.915   8.247  11.954 -0.6361 -0.2189 -0.2652
   92MOL0     O12589   4.946   8.364  12.005 -0.7729 -1.1977 -0.6345
   92MOL0     C12590   4.854   8.424  12.093 -0.5747  0.0751 -0.4447
   92MOL0     C12591   4.909   8.472  12.210 -0.5070 -0.3085  0.5585
   92MOL0     C12592   4.823   8.543  12.290 -0.7982  0.5476 -0.0664
   92MOL0     C12593   4.704   8.595  12.246 -0.3703  0.1734 -1.4835
   92MOL0     O12594   4.631   8.695  12.308  0.1827 -0.0727 -0.8524
   92MOL0     C12595   4.700   8.772  12.418  0.2528 -0.1311  0.4563
   92MOL0     C12596   4.608   8.885  12.457  0.0769 -0.5904 -0.3762
   92MOL0     C12597   4.655   8.952  12.580 -0.2847 -0.1873  0.5470
   92MOL0     C12598   4.612   9.092  12.573  0.1764  0.0358  0.4621
   92MOL0     C12599   4.646   9.162  12.703  0.3435  0.2478 -0.2494
   92MOL0     C12600   4.612   9.313  12.707 -0.1913  0.1500 -0.0440
   92MOL0     C12601   4.695   9.402  12.616  0.1623  1.0359 -0.5791
   92MOL0     C12602   4.652   9.550  12.641 -0.2129 -0.0597 -0.1899
   92MOL0    Cl12603   4.487   9.584  12.580  0.1159  0.1054 -0.0732
   92MOL0     C12604   4.646   8.542  12.130 -1.1464  0.0357 -0.2449
   92MOL0     C12605   4.717   8.445  12.060  0.2978  0.0909  0.5985
   92MOL0     O12606   4.817   8.181  11.992  0.2805 -0.5722 -0.3975
   92MOL0     C12607   5.035   8.053  11.906 -0.6642 -0.0141 -0.8694
   92MOL0     C12608   5.125   7.979  11.828 -0.6791  1.1947  0.2846
   92MOL0     N12609   5.526   7.666  11.140 -0.5285  0.8336  1.1067
   92MOL0     N12610   5.523   7.637  11.013  0.1222 -0.0844 -0.1964
   92MOL0     C12611   5.139   7.261  10.059  0.2535 -0.4521  0.0376
   92MOL0     C12612   5.020   7.253   9.980  0.3739 -0.8089 -0.7734
   92MOL0     C12613   4.629   7.147   9.830 -0.5312  0.5610  1.3880
   92MOL0     C12614   4.550   7.256   9.823 -0.1164 -0.1774  0.3528
   92MOL0     C12615   4.431   7.269   9.736 -0.5494 -0.7920  0.8764
   92MOL0     C12616   4.399   7.158   9.650 -0.0207  0.4469 -0.3522
   92MOL0     O12617   4.292   7.171   9.561 -0.5810  0.2707  0.0362
   92MOL0     C12618   4.280   7.072   9.465 -0.4625 -0.6938 -0.6520
   92MOL0     C12619   4.152   7.087   9.395  0.5388 -0.2236  0.6118
   92MOL0     C12620   4.019   7.070   9.473 -0.6282  0.3685 -0.4320
   92MOL0     C12621   3.999   6.937   9.534 -0.1152  0.4812 -0.2315
   92MOL0     C12622   3.944   6.827   9.451  0.1270  0.5241 -0.2181
   92MOL0     C12623   3.884   6.750   9.383 -1.3232 -0.3048 -0.7357
   92MOL0     C12624   4.483   7.044   9.661  0.0401  0.3483 -1.0978
   92MOL0     C12625   4.597   7.032   9.751  0.8010  0.4158  0.2708
   92MOL0     C12626   4.670   6.895   9.739 -0.4619 -0.0391 -0.2405
   92MOL0     H12627   4.779   7.309  10.224 -1.6544  0.4494 -1.7943
   92MOL0     H12628   4.998   7.294  10.371  1.3774  0.6952  0.5612
   92MOL0     H12629   5.367   7.267  10.429  0.1665 -0.2211 -2.8889
   92MOL0     H12630   5.193   7.225  10.449 -0.6853  2.1561  1.1416
   92MOL0     H12631   5.347   7.470  10.441  1.4270 -1.2293 -0.9270
   92MOL0     H12632   5.180   7.499  10.393  3.2026  0.6078 -1.2107
   92MOL0     H12633   5.105   7.374  10.612 -0.4092  1.8661  0.6137
   92MOL0     H12634   5.278   7.371  10.645  0.0332 -1.0587 -1.2312
   92MOL0     H12635   5.080   7.605  10.613  0.8985  1.4163 -1.2025
   92MOL0     H12636   5.162   7.570  10.766 -1.6195 -1.3380  0.0835
   92MOL0     H12637   5.248   7.691  10.488 -0.5567  0.4049  0.1276
   92MOL0     H12638   5.375   7.641  10.595 -0.8043 -0.4732  0.3572
   92MOL0     H12639   5.309   7.887  10.596  3.2732  0.9827  2.6047
   92MOL0     H12640   5.143   7.841  10.654  0.4364  1.3369 -0.8293
   92MOL0     H12641   5.229   7.742  10.844 -2.2064 -1.2685 -5.5160
   92MOL0     H12642   5.296   7.907  10.854 -1.4934 -0.4698  0.2242
   92MOL0     H12643   5.461   7.641  10.788  0.4214 -0.4655  2.1589
   92MOL0     H12644   5.507   7.813  10.750  0.0611 -0.5551 -0.3355
   92MOL0     H12645   5.479   7.959  11.001 -4.2491  0.1147 -1.2968
   92MOL0     H12646   5.531   7.963  11.306 -1.6475  0.7411 -1.0245
   92MOL0     H12647   5.581   7.809  11.360  1.5248 -0.0801 -2.2153
   92MOL0     H12648   5.293   7.917  11.356 -1.9971 -1.2892 -0.6008
   92MOL0     H12649   5.314   7.759  11.325  0.1156  1.0271 -1.7473
   92MOL0     H12650   5.432   7.710  11.542 -0.3094 -0.4167  0.8003
   92MOL0     H12651   5.466   7.884  11.558  0.4318  0.3252 -0.2273
   92MOL0     H12652   5.181   7.770  11.586 -0.4404  0.4252 -0.5004
   92MOL0     H12653   5.305   7.796  11.714 -2.0021 -4.5037 -0.9681
   92MOL0     H12654   5.165   8.196  11.568  2.9138 -1.4452  0.8455
   92MOL0     H12655   4.896   8.362  11.673 -0.5110  0.7831 -0.6786
   92MOL0     H12656   5.055   8.401  11.600  0.5971  0.4405 -0.0147
   92MOL0     H12657   5.016   8.458  11.767 -1.5160 -2.0716  1.7123
   92MOL0     H12658   5.013   8.460  12.240 -0.6144  1.0525  1.5575
   92MOL0     H12659   4.860   8.580  12.385 -0.6688  0.1085  0.0549
   92MOL0     H12660   4.738   8.709  12.500  2.4210 -1.0538 -1.1586
   92MOL0     H12661   4.796   8.809  12.380  1.2776 -2.0740  0.9972
   92MOL0     H12662   4.611   8.953  12.371 -3.7558  0.1734 -0.0579
   92MOL0     H12663   4.508   8.845  12.474  0.3688 -1.9164 -1.5419
   92MOL0     H12664   4.764   8.949  12.595 -0.5582  1.9355  4.3127
   92MOL0     H12665   4.610   8.906  12.668 -2.4439  0.9395  0.0841
   92MOL0     H12666   4.505   9.104  12.557 -0.0595  2.3076  2.9617
   92MOL0     H12667   4.666   9.149  12.497 -1.7211  1.2499 -0.0399
   92MOL0     H12668   4.590   9.112  12.782  2.4172 -0.3628  0.9117
   92MOL0     H12669   4.753   9.152  12.723  0.1954 -1.0838 -0.0668
   92MOL0     H12670   4.631   9.349  12.809  0.5930 -2.5652  0.8523
   92MOL0     H12671   4.506   9.318  12.681  0.3354  3.3432 -2.1384
   92MOL0     H12672   4.683   9.358  12.517  2.8028 -2.8682  0.6253
   92MOL0     H12673   4.800   9.385  12.638 -0.7045 -1.6186  2.3534
   92MOL0     H12674   4.720   9.608  12.578  2.7257  0.6903  3.3411
   92MOL0     H12675   4.673   9.580  12.744  1.8801  1.2809 -0.9463
   92MOL0     H12676   4.549   8.564  12.086  0.5471  0.6010 -4.1670
   92MOL0     H12677   4.690   8.412  11.960  1.9873 -2.1830  0.8162
   92MOL0     H12678   4.993   8.002  11.992  0.9678 -0.7467 -0.4826
   92MOL0     H12679   5.171   7.886  11.861 -0.5333  0.3934 -2.0144
   92MOL0     H12680   5.236   7.260  10.011  0.9771 -3.5728  1.3157
   92MOL0     H12681   5.028   7.258   9.872 -2.0683 -1.2307 -1.0321
   92MOL0     H12682   4.563   7.340   9.891 -0.6642 -1.2578  1.8408
   92MOL0     H12683   4.361   7.351   9.729  1.1736  0.5938 -1.7540
   92MOL0     H12684   4.360   7.106   9.398 -1.0868  3.1462  0.3301
   92MOL0     H12685   4.286   6.970   9.506  1.8204 -1.4058 -2.5035
   92MOL0     H12686   4.146   7.006   9.322  2.4051 -0.0942  0.2496
   92MOL0     H12687   4.162   7.183   9.342  0.8637 -0.8339 -0.4759
   92MOL0     H12688   4.022   7.140   9.557  1.4529 -1.8107  1.4814
   92MOL0     H12689   3.940   7.100   9.404 -0.0238  0.1262 -1.2584
   92MOL0     H12690   3.949   6.948   9.630 -1.5816  1.7240 -1.0786
   92MOL0     H12691   4.094   6.902   9.576 -0.3764  1.3005  1.0984
   92MOL0     H12692   3.826   6.671   9.337 -0.3499 -0.0768 -2.4100
   92MOL0     H12693   4.469   6.957   9.598 -1.0582 -0.0134 -0.3825
   92MOL0     H12694   4.631   6.827   9.663 -1.3510 -0.6764  0.7515
   92MOL0     H12695   4.779   6.902   9.734 -0.2762  0.2518  2.5366
   92MOL0     H12696   4.650   6.857   9.839 -1.1405  0.1440 -0.2988
   93MOL0     O12697   0.913   9.699   2.427  0.0458  0.4342 -0.0328
   93MOL0     C12698   0.988   9.791   2.399 -0.6166  0.6755  0.6194
   93MOL0     O12699   0.959   9.882   2.299 -0.3293 -0.2696  0.6037
   93MOL0     C12700   0.853   9.868   2.218  0.1689 -0.5981  0.5866
   93MOL0     C12701   0.745   9.960   2.224 -0.2066  0.1191 -0.3021
   93MOL0     C12702   0.624   9.929   2.152 -0.1202  0.5379  0.1489
   93MOL0     C12703   0.628   9.825   2.055  0.2267  1.0056  0.9154
   93MOL0     O12704   0.515   9.779   1.988  0.7002 -0.4777 -0.1559
   93MOL0     C12705   0.399   9.863   1.993 -0.4124  0.1013  0.4211
   93MOL0     C12706   0.295   9.790   1.904  0.1871  0.4164  0.4923
   93MOL0     C12707   0.335   9.774   1.756 -0.0182  0.5225 -1.2778
   93MOL0     C12708   0.228   9.685   1.687  0.8285  0.5858  0.0987
   93MOL0     C12709   0.276   9.641   1.553  0.1954 -0.4045  0.1543
   93MOL0     C12710   0.171   9.558   1.492 -0.4227  0.8166  0.8521
   93MOL0     C12711   0.207   9.530   1.346 -0.4554  0.4384  0.5386
   93MOL0     C12712   0.125   9.425   1.283  0.3072 -0.0838 -0.5522
   93MOL0     N12713   0.150   9.417   1.137  0.3710  0.5537 -0.0724
   93MOL0     C12714   0.150   9.292   1.070 -0.0899 -0.1219 -1.4998
   93MOL0     C12715   0.129   9.315   0.943  0.6304  0.2261  0.3268
   93MOL0     C12716   0.112   9.212   0.839 -0.4065 -1.1556 -0.2730
   93MOL0     C12717  -0.023   9.224   0.768 -0.2392  0.0935 -0.0873
   93MOL0     C12718  -0.040   9.104   0.676  0.0482 -0.3581 -0.8504
   93MOL0     C12719  -0.184   9.104   0.611 -0.2162  0.3718 -0.2739
   93MOL0     O12720  -0.178   8.998   0.507 -0.6334  0.0125 -0.8178
   93MOL0     C12721  -0.280   8.924   0.465  1.0272 -0.2381  0.2824
   93MOL0     C12722  -0.257   8.798   0.405 -0.1848  0.3134 -0.0767
   93MOL0     C12723  -0.355   8.711   0.357  0.8944  0.0625 -0.5127
   93MOL0     C12724  -0.301   8.575   0.311  0.2522  0.1766  0.2623
   93MOL0     C12725  -0.488   8.758   0.367  0.2848 -1.1906 -0.4189
   93MOL0     C12726  -0.606   8.669   0.333 -0.7711  0.4150 -1.3133
   93MOL0     O12727  -0.708   8.720   0.272 -0.6573  0.0738  0.1963
   93MOL0     C12728  -0.815   8.637   0.259  0.3821 -0.3957  0.7591
   93MOL0     C12729  -0.932   8.654   0.333 -0.5788  0.5812 -0.4500
   93MOL0     C12730  -1.042   8.579   0.314  0.7936  0.5546  0.2363
   93MOL0     C12731  -1.047   8.475   0.212 -0.5008  0.1235 -0.1195
   93MOL0     O12732  -1.176   8.425   0.192 -0.5476  0.3503 -0.5547
   93MOL0     C12733  -1.194   8.330   0.085  0.7100  0.5685  1.0576
   93MOL0     C12734  -1.340   8.299   0.084  1.0748 -0.4457  0.0239
   93MOL0     C12735  -1.363   8.157   0.040 -0.1418 -1.0565  0.6723
   93MOL0     C12736  -1.510   8.119   0.054  0.4051  0.0878  0.3478
   93MOL0     C12737  -1.604   8.190  -0.042 -1.2453 -0.3444 -0.0848
   93MOL0     C12738  -1.745   8.168   0.013 -0.2506  0.1446  0.3864
   93MOL0     C12739  -1.855   8.222  -0.078 -0.3405  0.4887  0.3971
   93MOL0     C12740  -1.985   8.237  -0.005  0.2987 -0.9103 -0.2748
   93MOL0    Cl12741  -2.032   8.086   0.077  0.5137  0.3682 -0.3562
   93MOL0     C12742  -0.936   8.457   0.141  0.0756  0.1196 -0.3276
   93MOL0     C12743  -0.824   8.536   0.164 -0.6505  0.4068  0.0615
   93MOL0     O12744  -0.593   8.553   0.369 -0.0548 -0.2569  0.6681
   93MOL0     C12745  -0.511   8.889   0.424  0.0007  0.6082 -0.8840
   93MOL0     C12746  -0.408   8.973   0.477 -0.1645 -0.0182 -0.2949
   93MOL0     N12747   0.108   9.453   0.924  0.4365  0.2844  0.6780
   93MOL0     N12748   0.124   9.503   1.042 -0.6770  0.2386  0.0074
   93MOL0     C12749   0.745   9.746   2.040  0.2129  0.3958 -0.7043
   93MOL0     C12750   0.855   9.771   2.119 -0.4076 -0.7265  0.3249
   93MOL0     C12751   1.102   9.821   2.490 -0.1012 -0.3217 -0.5947
   93MOL0     C12752   1.180   9.939   2.468  1.1097  0.7549  0.9422
   93MOL0     C12753   1.297   9.959   2.534 -0.1487 -0.1355  0.2050
   93MOL0     C12754   1.337   9.883   2.640 -0.2649 -0.2820  0.4652
   93MOL0     O12755   1.457   9.899   2.700  0.2193 -0.5385 -0.2746
   93MOL0     C12756   1.528  10.018   2.686  0.3316 -0.1671  1.2740
   93MOL0     C12757   1.648  10.032   2.787  0.1920 -0.8931 -0.6412
   93MOL0     C12758   1.616  10.092   2.932 -0.0053  0.1631  0.5935
   93MOL0     C12759   1.548   9.982   3.022 -0.1051 -0.3190  0.9992
   93MOL0     C12760   1.497  10.046   3.146 -0.4386  0.6490  0.3786
   93MOL0     C12761   1.439  10.100   3.242  0.1199  0.5701  0.0410
   93MOL0     C12762   1.269   9.768   2.671  1.0574  0.1977  0.0545
   93MOL0     C12763   1.141   9.733   2.595 -0.5646  0.4793 -0.4024
   93MOL0     C12764   1.078   9.602   2.642  0.4343  0.2827  0.5274
   93MOL0     H12765   0.762  10.022   2.312  0.7092 -1.1219  0.4224
   93MOL0     H12766   0.529   9.978   2.171 -0.6634 -0.8679  1.3037
   93MOL0     H12767   0.427   9.960   1.951 -1.0498  0.4885  0.8716
   93MOL0     H12768   0.347   9.873   2.089  0.8893 -0.7068  1.2449
   93MOL0     H12769   0.278   9.690   1.946 -1.2198  0.2486 -0.4261
   93MOL0     H12770   0.199   9.841   1.900 -0.3659 -0.6045  0.3243
   93MOL0     H12771   0.345   9.868   1.702 -0.4077  0.6840 -1.0743
   93MOL0     H12772   0.428   9.718   1.744 -0.3256 -0.2758 -0.1220
   93MOL0     H12773   0.193   9.599   1.746 -0.2995  1.9548  1.5132
   93MOL0     H12774   0.145   9.757   1.680  0.6813  0.8342  2.9943
   93MOL0     H12775   0.365   9.578   1.561 -0.1776 -0.8810  0.6816
   93MOL0     H12776   0.298   9.726   1.488 -3.6000 -0.0380 -0.8849
   93MOL0     H12777   0.169   9.466   1.551  1.3132  0.3222  0.2090
   93MOL0     H12778   0.075   9.610   1.492  0.4234  2.5251 -1.0734
   93MOL0     H12779   0.309   9.492   1.346 -0.6940 -0.2574 -0.4623
   93MOL0     H12780   0.207   9.624   1.289 -4.9796 -0.7525 -1.9154
   93MOL0     H12781   0.146   9.327   1.327 -0.9151 -1.0383 -2.0055
   93MOL0     H12782   0.021   9.456   1.297  1.3599  2.2641  4.2143
   93MOL0     H12783   0.180   9.195   1.109  1.2400  0.8692  0.1023
   93MOL0     H12784   0.117   9.114   0.888 -0.3095  0.1488  2.4932
   93MOL0     H12785   0.195   9.209   0.768  0.7178  1.3410  0.8203
   93MOL0     H12786  -0.093   9.230   0.852  0.9284 -0.9356  0.9855
   93MOL0     H12787  -0.035   9.317   0.711 -0.9286  0.2557  0.3094
   93MOL0     H12788   0.040   9.099   0.603  1.5826  2.4932  0.4552
   93MOL0     H12789  -0.041   9.019   0.744 -0.5335  0.2624 -0.0488
   93MOL0     H12790  -0.259   9.095   0.690  0.8694  2.5777  1.1201
   93MOL0     H12791  -0.206   9.196   0.556  2.0237 -0.1124 -2.1318
   93MOL0     H12792  -0.153   8.767   0.407 -0.1316  0.4781 -0.2173
   93MOL0     H12793  -0.192   8.568   0.302  0.0197 -4.2772 -1.7992
   93MOL0     H12794  -0.343   8.550   0.213 -1.3951 -2.5304  1.5251
   93MOL0     H12795  -0.339   8.494   0.375 -2.0364 -0.3087 -1.5689
   93MOL0     H12796  -0.944   8.731   0.409  0.6736  1.2522 -0.8987
   93MOL0     H12797  -1.141   8.589   0.357 -0.6611  2.0509 -3.0800
   93MOL0     H12798  -1.158   8.354  -0.015  3.2639  2.9650  2.3986
   93MOL0     H12799  -1.133   8.240   0.098 -0.8789 -0.7193  0.0755
   93MOL0     H12800  -1.394   8.314   0.178 -2.9546  1.4199 -2.3230
   93MOL0     H12801  -1.385   8.362   0.007  0.1144 -2.1507 -0.8836
   93MOL0     H12802  -1.303   8.098   0.110 -1.9804 -0.8438  2.5254
   93MOL0     H12803  -1.322   8.150  -0.062  1.8938  0.7377  1.2913
   93MOL0     H12804  -1.539   8.134   0.159  3.7906  4.1437  0.9744
   93MOL0     H12805  -1.511   8.013   0.027 -0.5742  0.0796  0.4003
   93MOL0     H12806  -1.586   8.297  -0.037 -0.5582 -0.4721  0.1799
   93MOL0     H12807  -1.591   8.147  -0.142  1.5154  0.8217 -0.3148
   93MOL0     H12808  -1.751   8.216   0.111 -0.4523  0.7480  0.0789
   93MOL0     H12809  -1.767   8.062   0.032  0.7591  0.0850  1.3535
   93MOL0     H12810  -1.875   8.143  -0.151 -0.4239 -0.3436  1.2818
   93MOL0     H12811  -1.828   8.320  -0.116  0.7264  0.5701  1.3069
   93MOL0     H12812  -2.066   8.257  -0.075 -1.0410  0.6788  1.6060
   93MOL0     H12813  -1.976   8.323   0.063  2.3271  0.3757 -2.0490
   93MOL0     H12814  -0.912   8.376   0.073  1.5727  1.1517 -1.0843
   93MOL0     H12815  -0.737   8.521   0.101  0.6712 -0.4607  1.9960
   93MOL0     H12816  -0.611   8.931   0.426  0.8416  2.7408 -0.8307
   93MOL0     H12817  -0.435   9.068   0.522  5.0961  0.3808  2.8884
   93MOL0     H12818   0.733   9.658   1.978  3.1306 -1.2997  0.9499
   93MOL0     H12819   0.931   9.693   2.114 -1.3659 -1.5982 -2.4069
   93MOL0     H12820   1.151  10.005   2.387  0.3473 -2.5389 -1.6541
   93MOL0     H12821   1.343  10.052   2.502  0.0825 -0.8877 -1.8180
   93MOL0     H12822   1.572  10.027   2.587  0.8171 -1.1419  1.3918
   93MOL0     H12823   1.456  10.101   2.686  1.1172  0.5499  2.1922
   93MOL0     H12824   1.711  10.108   2.739  0.2975 -0.6815 -0.1744
   93MOL0     H12825   1.711   9.943   2.789 -1.7511 -2.3271  1.1875
   93MOL0     H12826   1.709  10.125   2.978  1.0456 -2.9172  0.8882
   93MOL0     H12827   1.556  10.183   2.920 -2.2552 -1.4931 -2.6002
   93MOL0     H12828   1.616   9.899   3.043  2.3624  1.2220 -0.3656
   93MOL0     H12829   1.462   9.942   2.967  0.3587 -0.8283  0.6404
   93MOL0     H12830   1.370  10.141   3.313  0.5166 -1.4127  1.6523
   93MOL0     H12831   1.312   9.707   2.749  2.6992  0.0806 -0.9113
   93MOL0     H12832   1.104   9.522   2.572 -1.3941  1.5389 -1.7225
   93MOL0     H12833   1.118   9.571   2.739  1.2184 -1.2268 -0.2349
   93MOL0     H12834   0.969   9.604   2.641  0.3804 -0.8424 -1.0341
   94MOL0     O12835   6.135   5.703   7.640 -1.3455  0.4796 -0.2901
   94MOL0     C12836   6.125   5.694   7.517 -0.5142  0.0705 -0.3035
   94MOL0     O12837   6.011   5.711   7.444  0.8258  0.2074  0.0570
   94MOL0     C12838   5.910   5.814   7.458 -0.5587 -0.3055  0.1113
   94MOL0     C12839   5.798   5.811   7.374  0.0713 -0.5696 -0.4785
   94MOL0     C12840   5.698   5.905   7.392  1.1719  0.6018  0.7301
   94MOL0     C12841   5.705   6.000   7.490  0.6469 -1.0360  0.4550
   94MOL0     O12842   5.596   6.089   7.507 -0.5058  0.6322 -0.4021
   94MOL0     C12843   5.619   6.218   7.546 -0.5109 -0.6596 -0.1930
   94MOL0     C12844   5.482   6.284   7.511  0.8089  0.8135  0.2509
   94MOL0     C12845   5.493   6.440   7.505  1.0301  0.5931  1.0695
   94MOL0     C12846   5.366   6.486   7.423  0.6389 -0.1912  0.5492
   94MOL0     C12847   5.357   6.644   7.406  0.9043 -0.0588 -0.8627
   94MOL0     C12848   5.487   6.723   7.397 -0.2911 -0.9097 -0.6904
   94MOL0     C12849   5.445   6.872   7.368 -0.6156  0.6900  0.3800
   94MOL0     C12850   5.408   6.878   7.223 -0.5291  0.2542  0.5979
   94MOL0     N12851   5.329   6.997   7.204 -0.6215 -0.3214 -0.2788
   94MOL0     C12852   5.191   7.016   7.220  0.3119 -0.6373  0.9135
   94MOL0     C12853   5.168   7.144   7.166  0.7010  0.2838  1.1595
   94MOL0     C12854   5.042   7.212   7.163 -0.7019 -0.8861 -0.6318
   94MOL0     C12855   4.968   7.207   7.028  0.3616  0.6370 -0.2909
   94MOL0     C12856   4.920   7.063   7.010 -0.7398 -1.0121  0.3702
   94MOL0     C12857   4.806   7.056   6.912 -0.7510  1.0159 -0.9567
   94MOL0     O12858   4.767   6.926   6.877  0.3881 -0.3424 -0.5072
   94MOL0     C12859   4.712   6.845   6.975 -0.5316  0.0681  0.3253
   94MOL0     C12860   4.631   6.903   7.072  0.7987 -0.1317  0.5302
   94MOL0     C12861   4.556   6.820   7.152  0.7531  1.3032 -0.6611
   94MOL0     C12862   4.452   6.885   7.237 -0.5522 -0.2131  0.1154
   94MOL0     C12863   4.571   6.672   7.145  0.0988 -0.2350 -0.9901
   94MOL0     C12864   4.494   6.571   7.215  0.5874  0.5131  0.0857
   94MOL0     O12865   4.528   6.440   7.196  0.3569  0.1517 -0.4984
   94MOL0     C12866   4.442   6.357   7.251  0.5223  0.1931  0.4523
   94MOL0     C12867   4.488   6.257   7.346  0.9833 -0.6199  0.2451
   94MOL0     C12868   4.404   6.159   7.399  0.0583  0.2508 -0.1290
   94MOL0     C12869   4.273   6.161   7.354 -0.0473 -0.0715  0.0432
   94MOL0     O12870   4.184   6.074   7.411  0.2117 -0.1450  0.1819
   94MOL0     C12871   4.062   6.027   7.355  0.8056 -0.1875  0.4691
   94MOL0     C12872   3.994   5.931   7.449 -0.2863  0.8080 -0.6493
   94MOL0     C12873   3.955   6.007   7.578  0.5887  0.1511  0.0880
   94MOL0     C12874   3.863   5.919   7.665 -0.0222 -0.1252  1.1745
   94MOL0     C12875   3.934   5.796   7.715  0.5762  0.5659  0.7595
   94MOL0     C12876   3.873   5.765   7.844 -0.1079  1.4851 -0.4420
   94MOL0     C12877   3.981   5.813   7.958  0.0462  0.6887  1.2030
   94MOL0     C12878   3.923   5.845   8.097 -0.3268  0.1859 -0.4865
   94MOL0    Cl12879   4.008   5.978   8.178 -0.0211 -0.3881  0.2405
   94MOL0     C12880   4.233   6.247   7.250  0.1387 -0.2092 -0.3530
   94MOL0     C12881   4.317   6.348   7.200  0.4310  0.5756  0.7642
   94MOL0     O12882   4.405   6.614   7.286  0.0865 -0.9452 -0.2989
   94MOL0     C12883   4.660   6.627   7.048  0.0246 -0.3325 -0.2226
   94MOL0     C12884   4.730   6.711   6.963 -0.0268  0.1755  0.1504
   94MOL0     N12885   5.287   7.195   7.128 -0.4385  0.0823 -0.5336
   94MOL0     N12886   5.384   7.116   7.152 -0.8628  0.1770 -0.6406
   94MOL0     C12887   5.826   6.004   7.573  0.1295  0.0694 -0.4115
   94MOL0     C12888   5.926   5.913   7.550  0.0169 -0.0798 -0.3600
   94MOL0     C12889   6.238   5.647   7.450 -0.7008  1.1231 -0.5515
   94MOL0     C12890   6.267   5.696   7.321 -0.3151 -0.4385  1.1912
   94MOL0     C12891   6.371   5.641   7.244 -0.3051 -0.0579 -1.3474
   94MOL0     C12892   6.460   5.550   7.299 -0.4196  0.5191 -0.3854
   94MOL0     O12893   6.572   5.496   7.239  0.0077  0.0793 -0.3671
   94MOL0     C12894   6.633   5.567   7.131 -0.1167 -0.7955  0.7514
   94MOL0     C12895   6.757   5.487   7.069  0.1216 -0.8844 -0.0552
   94MOL0     C12896   6.857   5.585   7.006 -0.4427 -0.5341 -0.0371
   94MOL0     C12897   6.936   5.517   6.894 -0.1659 -1.2614 -0.2879
   94MOL0     C12898   7.020   5.401   6.945  0.2182 -0.1001  0.4431
   94MOL0     C12899   7.097   5.312   6.980  0.5277  0.5173  0.1061
   94MOL0     C12900   6.430   5.492   7.424  0.2742 -0.0295 -0.6027
   94MOL0     C12901   6.327   5.541   7.504  0.1934 -0.3533 -1.4229
   94MOL0     C12902   6.307   5.478   7.642 -0.3259 -0.6095  0.7190
   94MOL0     H12903   5.787   5.725   7.308 -3.4784 -0.7477  0.1607
   94MOL0     H12904   5.608   5.893   7.332  0.7172 -2.7726  1.9094
   94MOL0     H12905   5.709   6.257   7.497 -1.5228  0.6343 -1.1060
   94MOL0     H12906   5.641   6.224   7.653  3.6074  0.0703 -0.8835
   94MOL0     H12907   5.460   6.255   7.408 -1.2169  1.9389  0.3218
   94MOL0     H12908   5.404   6.255   7.582 -0.1346  1.9248 -0.3001
   94MOL0     H12909   5.486   6.484   7.605  1.9016  3.1638  0.0738
   94MOL0     H12910   5.583   6.470   7.450  1.3585 -3.0417 -0.6997
   94MOL0     H12911   5.371   6.435   7.326 -1.4107 -3.1612  1.8691
   94MOL0     H12912   5.283   6.453   7.486  1.5673 -0.2351  1.7948
   94MOL0     H12913   5.302   6.675   7.495 -0.0946 -0.5900 -1.2698
   94MOL0     H12914   5.287   6.676   7.328  2.1839  1.0087 -1.6138
   94MOL0     H12915   5.537   6.712   7.494  0.6209  0.9433 -0.8911
   94MOL0     H12916   5.555   6.688   7.319  0.4867 -0.4680 -0.2248
   94MOL0     H12917   5.521   6.949   7.387 -1.2504  2.0392 -2.1313
   94MOL0     H12918   5.361   6.902   7.431  0.2790  1.4731  1.2452
   94MOL0     H12919   5.505   6.879   7.174  0.4688 -0.4070  2.4727
   94MOL0     H12920   5.361   6.788   7.180  1.3425 -0.3558 -0.3132
   94MOL0     H12921   5.120   6.955   7.276  1.4765 -0.5296  2.5880
   94MOL0     H12922   5.069   7.318   7.169  1.0142 -1.3716  2.0616
   94MOL0     H12923   4.985   7.188   7.254 -3.1076  0.3254 -1.7383
   94MOL0     H12924   4.889   7.281   7.041 -1.4198 -1.2992  0.3934
   94MOL0     H12925   5.031   7.228   6.941  2.7592 -3.6686  0.0998
   94MOL0     H12926   5.002   7.003   6.970  2.1365  2.9945 -0.2572
   94MOL0     H12927   4.907   7.029   7.113  0.7712  4.1169  2.5324
   94MOL0     H12928   4.729   7.118   6.961  1.4065  1.5165  2.1043
   94MOL0     H12929   4.834   7.090   6.812  2.8217 -0.5940 -0.6378
   94MOL0     H12930   4.614   7.009   7.089 -4.3373 -0.3115 -1.8014
   94MOL0     H12931   4.451   6.994   7.236  2.7513 -0.0782 -0.6465
   94MOL0     H12932   4.470   6.865   7.343 -0.2680 -0.5774  0.0017
   94MOL0     H12933   4.357   6.837   7.208  1.6789 -3.8028 -2.1364
   94MOL0     H12934   4.591   6.258   7.378  0.8486 -4.6532  1.4013
   94MOL0     H12935   4.440   6.087   7.472  0.8431 -0.8937 -1.5971
   94MOL0     H12936   4.000   6.106   7.314  0.8470 -1.5643 -2.4868
   94MOL0     H12937   4.081   5.972   7.262 -2.1412  1.0095 -0.9512
   94MOL0     H12938   3.912   5.886   7.393  1.0226 -0.8187 -1.3582
   94MOL0     H12939   4.067   5.856   7.482 -2.5790 -2.6499 -2.8477
   94MOL0     H12940   3.895   6.090   7.539  2.4437  1.6648  0.3443
   94MOL0     H12941   4.045   6.041   7.630  0.4194 -0.8929  1.1038
   94MOL0     H12942   3.775   5.885   7.608  0.6168 -3.8456  2.1389
   94MOL0     H12943   3.821   5.991   7.735 -0.1723  0.2236  0.7357
   94MOL0     H12944   3.897   5.718   7.648 -0.5049 -0.7497  2.7605
   94MOL0     H12945   4.042   5.807   7.728  0.3556  5.8118  0.2132
   94MOL0     H12946   3.864   5.656   7.837  3.5493  1.1741 -3.4740
   94MOL0     H12947   3.770   5.801   7.858 -1.3577 -1.4914 -1.3027
   94MOL0     H12948   4.021   5.911   7.931 -1.3390  1.6716  2.5647
   94MOL0     H12949   4.065   5.743   7.963  1.7543  2.1977 -2.3163
   94MOL0     H12950   3.914   5.753   8.156 -3.8214  1.5349  1.3795
   94MOL0     H12951   3.823   5.882   8.076 -0.5487 -0.5701 -0.7924
   94MOL0     H12952   4.130   6.238   7.217 -0.2741  2.6935 -0.1553
   94MOL0     H12953   4.268   6.402   7.118 -1.8257 -1.4872  0.6300
   94MOL0     H12954   4.663   6.520   7.030  2.8281 -0.6159  1.3453
   94MOL0     H12955   4.796   6.670   6.888  1.4874  0.5641  1.2247
   94MOL0     H12956   5.831   6.079   7.651 -2.9999 -1.4235  1.4137
   94MOL0     H12957   6.016   5.915   7.611 -1.9714  2.4197  2.8812
   94MOL0     H12958   6.196   5.766   7.279 -1.7531 -0.6811  3.0615
   94MOL0     H12959   6.381   5.696   7.150 -1.5717  0.0075 -1.4568
   94MOL0     H12960   6.562   5.596   7.053  0.2431  0.9991  1.0518
   94MOL0     H12961   6.666   5.661   7.174  0.4076 -1.8075  2.6714
   94MOL0     H12962   6.724   5.403   7.007 -0.9381  0.6513 -1.6618
   94MOL0     H12963   6.809   5.444   7.155  1.1054  3.3482  1.7042
   94MOL0     H12964   6.800   5.667   6.959  1.9235  0.5761 -1.1078
   94MOL0     H12965   6.917   5.609   7.094 -1.6387 -2.5501  1.3872
   94MOL0     H12966   7.007   5.594   6.863 -2.5669  1.3549  0.3322
   94MOL0     H12967   6.866   5.480   6.818 -2.1048  2.2928 -0.4272
   94MOL0     H12968   7.171   5.243   7.016  1.5308  0.0691 -2.6197
   94MOL0     H12969   6.500   5.423   7.470 -1.3325 -2.6822 -1.9386
   94MOL0     H12970   6.205   5.445   7.660 -1.0277  1.9216  1.9438
   94MOL0     H12971   6.370   5.389   7.647  1.4547  0.4421 -1.2367
   94MOL0     H12972   6.331   5.553   7.718 -0.7599 -0.5432  0.7887
   95MOL0     O12973   5.962   1.716   7.589 -0.2929  0.9821 -0.2910
   95MOL0     C12974   6.051   1.683   7.505  1.2122 -0.1041  0.0716
   95MOL0     O12975   6.183   1.695   7.518  0.2987 -1.0049 -0.0321
   95MOL0     C12976   6.226   1.758   7.635  1.6581  0.3003 -0.6696
   95MOL0     C12977   6.258   1.679   7.742  0.1249 -0.1782  0.1015
   95MOL0     C12978   6.296   1.738   7.859  0.2572 -0.8050  0.2861
   95MOL0     C12979   6.298   1.873   7.879 -0.1475  0.1511 -0.1824
   95MOL0     O12980   6.342   1.913   8.004  0.0412 -0.3516  0.5010
   95MOL0     C12981   6.460   2.005   8.006 -1.1001  0.3733  0.6764
   95MOL0     C12982   6.414   2.144   8.022 -0.3104 -0.6920  1.1383
   95MOL0     C12983   6.363   2.186   8.159  0.3608  1.1399 -0.2935
   95MOL0     C12984   6.474   2.200   8.253 -0.6235 -0.3381  0.1581
   95MOL0     C12985   6.429   2.228   8.394  0.5615 -0.0718 -0.0535
   95MOL0     C12986   6.535   2.210   8.496 -0.2132 -0.9013 -0.6493
   95MOL0     C12987   6.652   2.316   8.497  0.6870  0.1216 -0.5176
   95MOL0     C12988   6.765   2.285   8.598 -0.2669  0.1252 -0.1686
   95MOL0     N12989   6.886   2.328   8.528  0.1818 -1.1660  0.3272
   95MOL0     C12990   6.945   2.269   8.420  0.3413  0.5403  0.5755
   95MOL0     C12991   7.065   2.334   8.394  0.5416 -0.8928 -0.6919
   95MOL0     C12992   7.160   2.310   8.274  0.0211  0.3053  0.2882
   95MOL0     C12993   7.212   2.447   8.228 -1.8151  0.0751  0.3217
   95MOL0     C12994   7.302   2.419   8.099  0.0961 -0.0612  0.1770
   95MOL0     C12995   7.409   2.529   8.061 -0.3448 -0.4481 -0.1287
   95MOL0     O12996   7.479   2.478   7.945 -0.3044  0.0031  1.0809
   95MOL0     C12997   7.601   2.407   7.961 -0.6536  1.1574  0.0073
   95MOL0     C12998   7.665   2.369   7.842  0.2003  0.4678  0.2920
   95MOL0     C12999   7.786   2.311   7.832 -0.4056 -1.4225  0.6882
   95MOL0     C13000   7.828   2.267   7.695 -0.6562  0.1396 -0.8537
   95MOL0     C13001   7.867   2.298   7.949 -0.6421 -0.2147 -0.2307
   95MOL0     C13002   8.009   2.240   7.950 -0.3849 -0.8585  1.1194
   95MOL0     O13003   8.073   2.230   8.066  0.0246  0.1109 -0.6071
   95MOL0     C13004   8.207   2.212   8.081 -0.7966 -0.2499 -0.6126
   95MOL0     C13005   8.300   2.287   7.996  0.7146  1.3208 -0.3828
   95MOL0     C13006   8.439   2.280   8.013 -0.7492  0.2268 -0.3811
   95MOL0     C13007   8.493   2.198   8.115 -0.0746 -0.0873  0.0575
   95MOL0     O13008   8.630   2.215   8.115  0.7298 -0.0169 -1.1336
   95MOL0     C13009   8.703   2.163   8.223  0.1770 -0.1367  0.6805
   95MOL0     C13010   8.843   2.213   8.212 -0.0229  0.0793 -0.2991
   95MOL0     C13011   8.910   2.170   8.084 -0.6998 -0.1490 -0.0651
   95MOL0     C13012   9.057   2.119   8.110  0.6720  0.1305  0.0253
   95MOL0     C13013   9.118   2.070   7.978 -0.4773  0.7291 -0.4281
   95MOL0     C13014   9.261   2.020   7.992  0.2442  0.0938  0.4337
   95MOL0     C13015   9.361   2.134   8.038  0.0339  0.1268  0.2289
   95MOL0     C13016   9.498   2.078   8.076 -0.3974 -0.6630  0.7797
   95MOL0    Cl13017   9.602   2.215   8.137  0.5762  0.0405  0.1964
   95MOL0     C13018   8.413   2.129   8.195 -0.5312  0.4617  0.2686
   95MOL0     C13019   8.268   2.146   8.182 -0.1757  0.2752 -0.1391
   95MOL0     O13020   8.064   2.207   7.842 -0.2296  0.1147  0.7134
   95MOL0     C13021   7.812   2.346   8.069  0.0179 -0.3115  0.0266
   95MOL0     C13022   7.682   2.390   8.075  1.1448 -0.0251 -0.0100
   95MOL0     N13023   7.086   2.424   8.495  0.5401  0.4741  0.4116
   95MOL0     N13024   6.980   2.414   8.567 -0.1960  0.6528  0.2538
   95MOL0     C13025   6.258   1.954   7.777 -0.3093  0.1502 -0.8469
   95MOL0     C13026   6.227   1.903   7.647  0.1276 -0.4405  0.2681
   95MOL0     C13027   6.006   1.638   7.371  0.6691  0.0117  0.9394
   95MOL0     C13028   5.876   1.670   7.324  0.2855 -0.6179  0.8590
   95MOL0     C13029   5.824   1.625   7.203  0.9978 -0.4692 -0.1281
   95MOL0     C13030   5.912   1.567   7.110 -0.4884 -0.1262 -0.0643
   95MOL0     O13031   5.884   1.540   6.977  0.6519  0.0416 -0.4669
   95MOL0     C13032   5.748   1.554   6.930 -0.4287  0.1311 -0.5175
   95MOL0     C13033   5.740   1.493   6.783 -0.6020 -0.0289 -1.0263
   95MOL0     C13034   5.595   1.471   6.731 -0.4444  0.0371 -0.1884
   95MOL0     C13035   5.506   1.384   6.818  0.4084  0.1879  0.2198
   95MOL0     C13036   5.560   1.253   6.857 -0.1070 -0.5292 -0.3348
   95MOL0     C13037   5.601   1.149   6.901 -0.6460  0.8811  0.0440
   95MOL0     C13038   6.033   1.523   7.162 -0.5013  0.1791  1.1668
   95MOL0     C13039   6.081   1.549   7.289 -1.0261 -0.8336  0.7822
   95MOL0     C13040   6.218   1.497   7.333 -0.3972 -0.2035 -0.0942
   95MOL0     H13041   6.272   1.572   7.727  0.0927 -0.3361  1.0940
   95MOL0     H13042   6.331   1.667   7.933 -1.8576 -0.4090  1.7703
   95MOL0     H13043   6.522   1.992   7.916 -3.1377 -3.1165 -0.4067
   95MOL0     H13044   6.527   1.985   8.090 -3.0388  2.1796  2.8009
   95MOL0     H13045   6.504   2.205   8.008 -0.2856 -0.8500  0.5915
   95MOL0     H13046   6.349   2.170   7.938  0.4652  0.3469  0.8472
   95MOL0     H13047   6.303   2.275   8.138 -1.0015 -0.3494 -3.4779
   95MOL0     H13048   6.293   2.109   8.191  0.3799  1.3931  0.3615
   95MOL0     H13049   6.547   2.119   8.256  1.7479  1.6746 -0.1328
   95MOL0     H13050   6.532   2.286   8.218 -0.1558 -0.6380  0.1874
   95MOL0     H13051   6.348   2.156   8.408 -0.5192  0.3254 -3.3376
   95MOL0     H13052   6.392   2.331   8.399  0.8132  0.2668 -3.1286
   95MOL0     H13053   6.491   2.211   8.596 -0.2348 -2.5293 -0.6172
   95MOL0     H13054   6.578   2.111   8.478  0.0860 -0.4803 -2.4233
   95MOL0     H13055   6.599   2.407   8.526  0.4819  0.1040 -0.8320
   95MOL0     H13056   6.686   2.321   8.393 -0.4401 -3.8064 -1.2023
   95MOL0     H13057   6.745   2.325   8.698  1.5443 -0.0108  0.2782
   95MOL0     H13058   6.765   2.175   8.600  0.1592  0.1324  0.2289
   95MOL0     H13059   6.904   2.181   8.371  0.4414  0.9084 -0.1855
   95MOL0     H13060   7.099   2.267   8.194  0.5000  2.4369 -1.3111
   95MOL0     H13061   7.240   2.242   8.305  0.9496  1.8146  1.3157
   95MOL0     H13062   7.131   2.517   8.206 -1.1614  0.4464 -1.0894
   95MOL0     H13063   7.276   2.479   8.311  0.5886 -1.5982 -0.7830
   95MOL0     H13064   7.353   2.325   8.122  1.0328  0.2887 -0.3895
   95MOL0     H13065   7.240   2.424   8.009  1.6613 -1.1125 -1.0325
   95MOL0     H13066   7.365   2.629   8.050  2.0190  0.4476 -2.7838
   95MOL0     H13067   7.471   2.554   8.147 -1.5454  0.9648  0.3768
   95MOL0     H13068   7.600   2.391   7.758 -1.3250 -2.0078  0.7223
   95MOL0     H13069   7.738   2.240   7.639 -0.5149  0.2770 -1.1443
   95MOL0     H13070   7.882   2.172   7.705 -3.5795 -1.4836  1.3123
   95MOL0     H13071   7.884   2.344   7.642  2.2058 -2.4588 -1.8824
   95MOL0     H13072   8.268   2.345   7.909  2.2238  1.0651 -1.1414
   95MOL0     H13073   8.506   2.345   7.956  0.0961 -0.2139  0.0975
   95MOL0     H13074   8.659   2.192   8.319 -1.7554 -2.1197  0.4577
   95MOL0     H13075   8.698   2.054   8.215 -1.5358 -0.0209 -0.2612
   95MOL0     H13076   8.844   2.322   8.222 -2.5313  0.0874  0.5409
   95MOL0     H13077   8.901   2.167   8.292  0.8651 -1.4452 -1.7372
   95MOL0     H13078   8.919   2.243   8.003  4.1565 -1.0216 -0.5727
   95MOL0     H13079   8.855   2.080   8.055 -0.8188 -0.3670  0.8292
   95MOL0     H13080   9.046   2.026   8.168 -0.2973 -1.2079 -2.1846
   95MOL0     H13081   9.113   2.201   8.156  1.8947  0.3473 -1.7362
   95MOL0     H13082   9.051   2.003   7.922 -0.5726 -0.7496  1.3586
   95MOL0     H13083   9.132   2.161   7.919  3.5532  2.4531  2.7331
   95MOL0     H13084   9.295   1.995   7.891  1.0766  1.3039  0.3950
   95MOL0     H13085   9.271   1.935   8.060  1.2122  0.9023  1.3290
   95MOL0     H13086   9.319   2.182   8.127 -0.4041 -1.8393  1.1281
   95MOL0     H13087   9.361   2.211   7.959 -1.8609 -0.1604 -0.1045
   95MOL0     H13088   9.547   2.026   7.994 -1.4269 -0.4192 -0.0211
   95MOL0     H13089   9.482   2.006   8.156  0.6078 -0.7757  0.8885
   95MOL0     H13090   8.462   2.067   8.269  3.0861 -0.3954 -2.6033
   95MOL0     H13091   8.216   2.091   8.261  1.4617  0.8796  1.4439
   95MOL0     H13092   7.859   2.343   8.167  0.8050  3.3922 -0.0703
   95MOL0     H13093   7.649   2.435   8.169 -0.2974  1.1782 -1.0523
   95MOL0     H13094   6.247   2.057   7.810 -2.4714  0.4362 -2.2780
   95MOL0     H13095   6.208   1.959   7.556  4.6220 -2.1304 -2.0516
   95MOL0     H13096   5.806   1.733   7.377  0.3993  0.0700  0.2267
   95MOL0     H13097   5.718   1.640   7.186  0.9838  0.0249  0.3565
   95MOL0     H13098   5.684   1.508   7.006  1.8455 -1.0856  0.7711
   95MOL0     H13099   5.716   1.658   6.921  1.3600  0.5696 -3.0260
   95MOL0     H13100   5.796   1.399   6.790 -3.2066 -1.5185  2.1850
   95MOL0     H13101   5.791   1.563   6.717  1.9578  0.4141  1.2152
   95MOL0     H13102   5.551   1.570   6.715 -2.0486 -0.3918  1.2474
   95MOL0     H13103   5.595   1.436   6.627  3.0574  0.4977 -0.4649
   95MOL0     H13104   5.417   1.360   6.759  1.8517 -0.7687 -1.6421
   95MOL0     H13105   5.465   1.421   6.913 -1.3719  1.7973 -1.1004
   95MOL0     H13106   5.638   1.063   6.953 -0.2139 -0.3138 -2.1235
   95MOL0     H13107   6.091   1.481   7.080 -4.1685 -1.3319 -0.9211
   95MOL0     H13108   6.236   1.403   7.280  2.7009 -1.1996  2.4040
   95MOL0     H13109   6.288   1.577   7.311 -0.8376  1.1385  2.9093
   95MOL0     H13110   6.209   1.472   7.439  0.0597  0.1727  0.0341
   96MOL0     O13111   4.600   9.879   8.351  0.4458 -0.4532 -0.5432
   96MOL0     C13112   4.611   9.841   8.233  0.8556 -0.2620 -0.6562
   96MOL0     O13113   4.717   9.782   8.180 -0.0478  0.6110 -0.0998
   96MOL0     C13114   4.830   9.819   8.246  0.4546 -0.2148  0.4426
   96MOL0     C13115   4.900   9.718   8.305 -0.5104  0.4459  0.5091
   96MOL0     C13116   5.031   9.737   8.352  0.0160 -1.4899 -0.2991
   96MOL0     C13117   5.100   9.862   8.320  0.4137  1.0478  0.1936
   96MOL0     O13118   5.230   9.884   8.353  0.6357  0.4547  0.0821
   96MOL0     C13119   5.313   9.869   8.238 -0.7922 -0.4356 -0.3361
   96MOL0     C13120   5.429   9.964   8.262 -0.0938 -0.6357  0.0623
   96MOL0     C13121   5.541   9.946   8.163 -1.4877  0.5223 -0.9021
   96MOL0     C13122   5.542  10.026   8.030 -0.2523  0.2316 -1.1523
   96MOL0     C13123   5.679  10.024   7.971 -0.2098 -0.0082  0.1115
   96MOL0     C13124   5.695  10.080   7.841  0.1948 -0.0507  0.1278
   96MOL0     C13125   5.846  10.077   7.802  0.1560  0.2936  0.9386
   96MOL0     C13126   5.873  10.191   7.708  0.5793  0.8224 -0.3645
   96MOL0     N13127   6.014  10.182   7.651 -0.0410  0.1593 -0.6019
   96MOL0     C13128   6.121  10.276   7.675  0.2555 -0.1541  0.2169
   96MOL0     C13129   6.233  10.202   7.648 -0.4091 -0.4981 -0.1841
   96MOL0     C13130   6.373  10.266   7.668 -0.2812  0.6736  0.2967
   96MOL0     C13131   6.424  10.317   7.535  1.2528 -0.4257  0.0364
   96MOL0     C13132   6.518  10.442   7.555  0.0918 -0.1744  0.0362
   96MOL0     C13133   6.612  10.447   7.435 -0.0567  0.7378  0.0336
   96MOL0     O13134   6.548  10.495   7.321  0.5292 -0.5337 -0.3475
   96MOL0     C13135   6.634  10.573   7.240  0.0189  0.2955 -0.5307
   96MOL0     C13136   6.644  10.703   7.256 -0.6129 -0.4726  0.3455
   96MOL0     C13137   6.745  10.789   7.200 -0.1890  0.9499  0.8425
   96MOL0     C13138   6.750  10.927   7.260  0.6917 -0.7401  0.1197
   96MOL0     C13139   6.841  10.730   7.111 -0.1799 -0.3099 -0.1299
   96MOL0     C13140   6.946  10.797   7.028  0.1363  0.2605  0.2649
   96MOL0     O13141   7.003  10.733   6.922 -0.0093 -0.8908  0.2238
   96MOL0     C13142   7.082  10.807   6.833  0.2790  0.8458 -0.3037
   96MOL0     C13143   7.025  10.912   6.762  0.0796  0.1104  0.1925
   96MOL0     C13144   7.090  10.988   6.674  0.3142 -0.9497  0.2444
   96MOL0     C13145   7.227  10.959   6.645 -0.4093  0.6729  0.5615
   96MOL0     O13146   7.285  11.058   6.567 -0.2843  0.2344  0.3392
   96MOL0     C13147   7.430  11.052   6.544  0.4419 -0.3768 -0.1950
   96MOL0     C13148   7.459  10.957   6.435  0.0297  0.6310 -0.4281
   96MOL0     C13149   7.430  11.026   6.295  0.1452  0.5929 -0.6916
   96MOL0     C13150   7.429  10.909   6.189 -0.2446 -0.8968 -0.2561
   96MOL0     C13151   7.458  10.967   6.047  0.0899 -0.3165  0.6653
   96MOL0     C13152   7.603  11.005   6.026 -0.0880 -0.1493  0.2356
   96MOL0     C13153   7.611  11.124   5.922 -0.4977  1.3159  0.5001
   96MOL0     C13154   7.756  11.130   5.871 -0.5928  1.0946  0.0513
   96MOL0    Cl13155   7.878  11.145   5.999  0.0416  0.2265 -0.1524
   96MOL0     C13156   7.284  10.841   6.703 -0.3061  0.4814  0.0456
   96MOL0     C13157   7.212  10.761   6.797 -0.0046 -0.0027  0.3373
   96MOL0     O13158   6.966  10.912   7.056 -0.5737 -0.5534 -0.3587
   96MOL0     C13159   6.816  10.593   7.083 -0.9384  0.3973  0.8322
   96MOL0     C13160   6.714  10.520   7.145 -0.4724  0.2618 -0.1184
   96MOL0     N13161   6.200  10.077   7.608  0.2684 -0.2606 -0.3910
   96MOL0     N13162   6.068  10.068   7.605  0.1980  0.1370 -0.8748
   96MOL0     C13163   5.028   9.963   8.267 -0.6316  0.3112  0.1843
   96MOL0     C13164   4.898   9.940   8.225  0.0474  0.7036  0.3191
   96MOL0     C13165   4.482   9.818   8.165  0.4774 -1.2469  0.4293
   96MOL0     C13166   4.364   9.774   8.227  0.1584 -0.6847 -0.0085
   96MOL0     C13167   4.243   9.758   8.150 -0.2921 -0.0464 -0.4376
   96MOL0     C13168   4.240   9.760   8.012 -0.2280  0.2573 -0.0218
   96MOL0     O13169   4.128   9.742   7.930  0.5848  0.4063 -0.5296
   96MOL0     C13170   3.998   9.717   7.980 -0.1669 -0.2567  0.7785
   96MOL0     C13171   3.999   9.565   8.035 -0.4255  0.2339  0.2330
   96MOL0     C13172   3.856   9.521   8.083  0.0987  0.6143 -0.0623
   96MOL0     C13173   3.865   9.368   8.110  0.1047  0.7507 -0.1229
   96MOL0     C13174   3.889   9.344   8.246 -0.5001 -0.4821 -1.2628
   96MOL0     C13175   3.901   9.323   8.367  0.6675 -0.3347 -0.2309
   96MOL0     C13176   4.357   9.799   7.953  0.1564 -0.3398 -0.6673
   96MOL0     C13177   4.473   9.841   8.024  0.5150 -0.2923 -0.1950
   96MOL0     C13178   4.578   9.908   7.937  0.2227  0.3893 -0.1445
   96MOL0     H13179   4.859   9.618   8.307  2.1923 -0.7546  0.1500
   96MOL0     H13180   5.075   9.667   8.422 -2.6157 -0.4151  2.6623
   96MOL0     H13181   5.265   9.913   8.149  4.2091  2.5404 -2.0137
   96MOL0     H13182   5.334   9.763   8.222 -2.9150 -0.9022 -0.2430
   96MOL0     H13183   5.401  10.069   8.252  4.8857  1.0222  0.8103
   96MOL0     H13184   5.462   9.959   8.366  1.5053  1.3848 -0.2879
   96MOL0     H13185   5.632   9.973   8.217 -0.2647 -1.4334 -1.8536
   96MOL0     H13186   5.557   9.841   8.135 -0.4549  1.2079 -3.1353
   96MOL0     H13187   5.480   9.968   7.961 -1.1543 -2.8938  2.0428
   96MOL0     H13188   5.510  10.130   8.041  1.1905  1.2468 -4.8137
   96MOL0     H13189   5.713   9.920   7.970  1.8743  0.5739  2.1540
   96MOL0     H13190   5.736  10.077   8.048 -0.9740 -2.2985  2.3967
   96MOL0     H13191   5.633  10.027   7.769 -2.4939  3.9199 -0.7699
   96MOL0     H13192   5.656  10.182   7.850  0.4668  0.3055 -2.2036
   96MOL0     H13193   5.875   9.979   7.763  0.9967  1.1708 -0.7355
   96MOL0     H13194   5.904  10.091   7.894 -1.2191  0.4856  1.7975
   96MOL0     H13195   5.804  10.174   7.625  1.3484 -2.8060 -0.4061
   96MOL0     H13196   5.858  10.293   7.746 -0.4934  1.6376 -2.7450
   96MOL0     H13197   6.111  10.378   7.710 -1.2525 -0.2514  0.1269
   96MOL0     H13198   6.441  10.190   7.708 -0.3482 -0.8922 -2.3252
   96MOL0     H13199   6.364  10.344   7.744 -1.7246  0.8702 -0.0357
   96MOL0     H13200   6.474  10.240   7.477 -0.4026 -0.9383 -0.7536
   96MOL0     H13201   6.341  10.341   7.469 -1.1492 -3.0933  1.8693
   96MOL0     H13202   6.451  10.527   7.559 -3.3058 -2.5432 -1.4645
   96MOL0     H13203   6.583  10.425   7.641 -1.1794 -3.8326  0.4679
   96MOL0     H13204   6.705  10.503   7.450  1.0256  0.0174 -3.2351
   96MOL0     H13205   6.651  10.348   7.412  1.6559  1.4717 -0.3868
   96MOL0     H13206   6.582  10.753   7.330  0.3868 -0.5560  1.2699
   96MOL0     H13207   6.661  10.942   7.323  1.5963 -1.9948  1.7675
   96MOL0     H13208   6.767  11.011   7.192  2.2364  0.0169  1.3771
   96MOL0     H13209   6.836  10.926   7.327 -1.3951  1.1136  3.0595
   96MOL0     H13210   6.924  10.933   6.796  0.6500  1.7854  0.9907
   96MOL0     H13211   7.045  11.079   6.636 -3.0717 -2.9343 -0.9198
   96MOL0     H13212   7.462  11.154   6.521 -5.5863  2.4298  1.6241
   96MOL0     H13213   7.480  11.021   6.636 -0.5471 -1.1077  0.1280
   96MOL0     H13214   7.563  10.925   6.436 -0.2529 -0.3477 -1.1205
   96MOL0     H13215   7.404  10.864   6.450 -0.5334  1.2064  1.3986
   96MOL0     H13216   7.502  11.104   6.268  2.4617 -0.4551  1.9259
   96MOL0     H13217   7.330  11.070   6.295 -1.4656 -2.7614  0.8107
   96MOL0     H13218   7.344  10.840   6.187 -0.0196 -1.1701 -0.9510
   96MOL0     H13219   7.514  10.842   6.205 -0.3544 -0.8664  0.4659
   96MOL0     H13220   7.425  10.895   5.972  0.9922  0.7974 -0.8464
   96MOL0     H13221   7.403  11.060   6.032  0.9488 -0.0721 -1.3741
   96MOL0     H13222   7.660  10.916   5.997 -0.6206 -1.2134  2.2843
   96MOL0     H13223   7.651  11.029   6.122  2.3544 -1.1329 -0.6621
   96MOL0     H13224   7.565  11.217   5.958 -0.9646  0.8303  1.2009
   96MOL0     H13225   7.551  11.094   5.836  1.1702 -1.5144  0.2231
   96MOL0     H13226   7.777  11.212   5.802  2.0769  0.2085 -0.3168
   96MOL0     H13227   7.776  11.048   5.801  2.7555  1.9717 -0.2008
   96MOL0     H13228   7.385  10.807   6.679 -0.8498 -0.2713 -1.3150
   96MOL0     H13229   7.264  10.682   6.852  1.2781  0.8052  0.3230
   96MOL0     H13230   6.871  10.549   7.000  2.2417  3.7274  0.9196
   96MOL0     H13231   6.679  10.420   7.120 -2.2034  1.3113 -2.2810
   96MOL0     H13232   5.078  10.056   8.242 -0.7530  0.1587 -0.6505
   96MOL0     H13233   4.860  10.028   8.174  2.5722  1.0100 -1.2235
   96MOL0     H13234   4.373   9.755   8.334  1.9372  0.6047  0.1134
   96MOL0     H13235   4.158   9.735   8.214 -0.1803 -0.8392 -0.5700
   96MOL0     H13236   3.979   9.780   8.068 -1.9079  2.1212 -1.1575
   96MOL0     H13237   3.919   9.727   7.904  1.7318  0.8132 -1.1725
   96MOL0     H13238   4.067   9.558   8.120 -2.6907  0.3606  2.1497
   96MOL0     H13239   4.037   9.501   7.954  0.4073  1.0848 -0.0694
   96MOL0     H13240   3.822   9.582   8.166  0.4748 -1.2791  1.5627
   96MOL0     H13241   3.798   9.535   7.991  1.8248  1.1794 -1.1244
   96MOL0     H13242   3.939   9.320   8.044  1.2074  1.9912  0.1705
   96MOL0     H13243   3.764   9.345   8.075  0.3516 -0.2908 -0.1780
   96MOL0     H13244   3.897   9.305   8.472 -2.2589  2.2040  0.2558
   96MOL0     H13245   4.355   9.806   7.845  0.4904  2.4778 -0.5576
   96MOL0     H13246   4.541   9.958   7.847  4.2217 -0.1001 -2.3085
   96MOL0     H13247   4.608  10.000   7.988  0.8254  0.0486  0.1224
   96MOL0     H13248   4.663   9.840   7.924  1.8710  2.3985 -0.5143
   97MOL0     O13249   5.179   4.811   5.249  0.1677  0.6027  0.0748
   97MOL0     C13250   5.204   4.763   5.136  0.0561 -0.1094  0.3404
   97MOL0     O13251   5.131   4.803   5.025 -1.0035  0.3972  0.0615
   97MOL0     C13252   5.027   4.888   5.046  0.1949 -0.2322 -0.2600
   97MOL0     C13253   5.037   5.021   4.998  0.2472 -0.3516  0.4354
   97MOL0     C13254   4.930   5.107   5.026  0.0816  0.8905 -0.1174
   97MOL0     C13255   4.816   5.062   5.097  0.1067 -0.8897 -0.5530
   97MOL0     O13256   4.707   5.147   5.119 -0.3435 -0.4345 -0.1381
   97MOL0     C13257   4.698   5.196   5.251  0.0312  0.6440 -0.5397
   97MOL0     C13258   4.805   5.303   5.283 -0.4493  0.2346 -0.7611
   97MOL0     C13259   4.768   5.444   5.238 -0.1725 -0.2826  0.3554
   97MOL0     C13260   4.813   5.449   5.094 -0.1815  0.1248  0.1329
   97MOL0     C13261   4.784   5.585   5.037  0.0490 -1.6072  0.1260
   97MOL0     C13262   4.848   5.603   4.903 -0.9609 -0.2667  0.1416
   97MOL0     C13263   4.809   5.482   4.806  0.6847  0.1297 -0.0895
   97MOL0     C13264   4.833   5.520   4.669  0.5428 -0.0814 -0.2416
   97MOL0     N13265   4.977   5.520   4.651  0.5636 -0.0311  0.1960
   97MOL0     C13266   5.032   5.420   4.575 -0.0529  0.0489 -0.2370
   97MOL0     C13267   5.157   5.459   4.549  0.2850 -0.1141 -0.1385
   97MOL0     C13268   5.260   5.380   4.479  0.2100  0.3261  0.4730
   97MOL0     C13269   5.335   5.291   4.572  0.5260 -0.0731 -0.1264
   97MOL0     C13270   5.402   5.383   4.680  0.4562  0.2123  0.6798
   97MOL0     C13271   5.512   5.290   4.756 -0.3409 -0.3735  0.6390
   97MOL0     O13272   5.444   5.210   4.851 -0.2176 -0.5926 -0.1855
   97MOL0     C13273   5.525   5.128   4.925 -0.3333  0.2975 -0.4391
   97MOL0     C13274   5.478   5.092   5.055  0.5203  0.5584  0.3033
   97MOL0     C13275   5.554   5.019   5.142  0.4078  0.1838  0.0518
   97MOL0     C13276   5.508   5.014   5.281  0.3000  0.1775  0.6083
   97MOL0     C13277   5.676   4.971   5.092  0.0215 -0.2403 -0.5741
   97MOL0     C13278   5.760   4.883   5.175  0.3109  1.1529  0.2108
   97MOL0     O13279   5.888   4.924   5.194  0.2482 -1.3932 -0.4146
   97MOL0     C13280   5.960   4.856   5.284 -0.1744 -0.2058 -0.0157
   97MOL0     C13281   5.981   4.911   5.412 -0.6627  0.3214  0.0785
   97MOL0     C13282   6.068   4.846   5.501 -0.6543 -0.0400  0.3379
   97MOL0     C13283   6.130   4.726   5.475  0.1660 -0.1369  0.8730
   97MOL0     O13284   6.201   4.673   5.577  0.7890 -0.1244 -0.3685
   97MOL0     C13285   6.297   4.573   5.554  0.4322  0.8701  0.1241
   97MOL0     C13286   6.339   4.505   5.677  0.3683  0.2345 -0.5677
   97MOL0     C13287   6.487   4.456   5.682  0.2368 -0.4299 -0.2227
   97MOL0     C13288   6.523   4.364   5.564  0.3167 -0.0322  0.3734
   97MOL0     C13289   6.628   4.271   5.619  0.2051  0.2482  0.5859
   97MOL0     C13290   6.714   4.228   5.506 -1.3172 -0.9386 -0.0310
   97MOL0     C13291   6.640   4.131   5.417 -1.2115  1.2172 -0.0362
   97MOL0     C13292   6.630   3.988   5.473 -0.0967  0.9287 -0.5272
   97MOL0    Cl13293   6.776   3.911   5.528 -0.3322 -0.2490 -0.2627
   97MOL0     C13294   6.123   4.677   5.342 -0.4337  0.9623  0.6605
   97MOL0     C13295   6.045   4.750   5.252 -1.9594 -0.9634 -0.2233
   97MOL0     O13296   5.713   4.772   5.202 -0.1395 -0.0480 -0.2700
   97MOL0     C13297   5.721   4.988   4.959  0.1073  0.4575  0.4725
   97MOL0     C13298   5.647   5.069   4.875 -0.5759  1.0858  0.1420
   97MOL0     N13299   5.174   5.586   4.609  0.0283  0.2340  0.5038
   97MOL0     N13300   5.064   5.627   4.668 -0.0986  0.2755  0.6494
   97MOL0     C13301   4.795   4.925   5.118 -0.6248  0.8971  0.2992
   97MOL0     C13302   4.910   4.842   5.116  0.3146 -0.0676 -0.3987
   97MOL0     C13303   5.324   4.682   5.111 -0.2461 -0.1423 -0.1357
   97MOL0     C13304   5.405   4.725   5.000 -0.3820  1.1355  0.4084
   97MOL0     C13305   5.510   4.646   4.954 -0.2058  0.2408  0.0810
   97MOL0     C13306   5.554   4.532   5.022  0.4562 -0.1393  0.0477
   97MOL0     O13307   5.664   4.457   4.990  0.3282  0.0622 -0.1162
   97MOL0     C13308   5.791   4.521   4.977  0.7053  0.6987 -0.4049
   97MOL0     C13309   5.818   4.504   4.831  1.3404  0.3720  0.4419
   97MOL0     C13310   5.938   4.594   4.789 -0.6091 -0.1672  0.1953
   97MOL0     C13311   5.956   4.642   4.649  0.0684 -0.1565  1.0177
   97MOL0     C13312   5.855   4.738   4.606  0.4728 -0.3462  0.4607
   97MOL0     C13313   5.778   4.825   4.557  0.0040  0.6766 -0.4274
   97MOL0     C13314   5.465   4.489   5.130  0.0510 -0.4668  0.2718
   97MOL0     C13315   5.345   4.559   5.169  0.8124  0.2000 -0.1118
   97MOL0     C13316   5.254   4.507   5.276 -0.3416  0.5188  0.8136
   97MOL0     H13317   5.120   5.072   4.950 -0.6659  2.4052  1.5440
   97MOL0     H13318   4.945   5.210   4.997  1.0397  1.1948  1.3469
   97MOL0     H13319   4.709   5.114   5.323  0.0550  0.6884 -0.4932
   97MOL0     H13320   4.594   5.222   5.271 -0.9544 -2.7554 -0.5807
   97MOL0     H13321   4.810   5.303   5.393 -2.1609  1.4211 -0.6557
   97MOL0     H13322   4.896   5.261   5.238 -0.9154  0.6943 -2.1515
   97MOL0     H13323   4.663   5.476   5.240  0.3207  1.9432 -2.4457
   97MOL0     H13324   4.830   5.510   5.300  2.3249 -1.0341 -1.1931
   97MOL0     H13325   4.918   5.423   5.073  0.3870  1.4195  1.1924
   97MOL0     H13326   4.756   5.371   5.043 -2.5486  1.1872  1.0268
   97MOL0     H13327   4.800   5.666   5.109 -3.7247 -1.7939  1.4006
   97MOL0     H13328   4.677   5.601   5.025  0.0199 -0.4718  1.5884
   97MOL0     H13329   4.827   5.701   4.859  0.8907 -0.3617 -1.0387
   97MOL0     H13330   4.956   5.605   4.918 -0.7934  1.2947 -0.9808
   97MOL0     H13331   4.700   5.472   4.808  0.3015  3.3748  2.0524
   97MOL0     H13332   4.851   5.385   4.833 -2.2679 -0.7384  1.8587
   97MOL0     H13333   4.778   5.457   4.599 -0.2672  1.2244 -0.8204
   97MOL0     H13334   4.794   5.621   4.653  2.3385  0.1592 -4.6266
   97MOL0     H13335   4.990   5.326   4.539  2.7027 -1.4218  0.1317
   97MOL0     H13336   5.330   5.446   4.428  1.4787 -1.1524  0.2259
   97MOL0     H13337   5.209   5.323   4.401  2.3488  0.9791 -1.5110
   97MOL0     H13338   5.268   5.216   4.614 -0.4902 -0.8315 -2.9406
   97MOL0     H13339   5.398   5.221   4.517  0.1926 -0.1433 -0.4233
   97MOL0     H13340   5.453   5.471   4.640  1.2498 -1.9206 -3.5549
   97MOL0     H13341   5.335   5.417   4.759 -1.2497  1.5139 -1.2509
   97MOL0     H13342   5.576   5.234   4.687  1.4966  1.2936  0.8946
   97MOL0     H13343   5.586   5.353   4.806 -1.0006  1.6115 -0.7865
   97MOL0     H13344   5.385   5.142   5.080 -0.2078  0.9947 -2.9002
   97MOL0     H13345   5.481   4.912   5.307  4.1553 -1.1789  0.0409
   97MOL0     H13346   5.420   5.077   5.299 -0.9117 -1.9850  2.7362
   97MOL0     H13347   5.588   5.041   5.351 -1.9826  1.3891  2.9257
   97MOL0     H13348   5.920   4.991   5.452 -0.5654 -0.9881  3.0430
   97MOL0     H13349   6.074   4.879   5.605  0.7144 -0.0420  0.2687
   97MOL0     H13350   6.262   4.495   5.486  1.3008  0.6356 -0.0688
   97MOL0     H13351   6.385   4.623   5.513  0.7324  1.9859  2.0126
   97MOL0     H13352   6.319   4.580   5.754 -3.7231 -0.4339 -0.7395
   97MOL0     H13353   6.267   4.423   5.689 -0.2304  0.6562 -1.1729
   97MOL0     H13354   6.502   4.402   5.776  3.5938 -0.7849 -0.8484
   97MOL0     H13355   6.547   4.547   5.682  0.0345 -0.2922  0.6122
   97MOL0     H13356   6.554   4.425   5.479 -0.0450  2.6461  2.0503
   97MOL0     H13357   6.436   4.313   5.522  0.3425  1.5396 -1.7099
   97MOL0     H13358   6.693   4.320   5.692 -0.6808 -2.3560  3.3333
   97MOL0     H13359   6.575   4.184   5.661  0.4688 -0.5082 -0.5902
   97MOL0     H13360   6.806   4.184   5.544 -1.4163 -0.3731  0.8796
   97MOL0     H13361   6.747   4.307   5.437  0.6598 -0.0758  1.8071
   97MOL0     H13362   6.686   4.123   5.318 -0.4634  1.0885  0.3198
   97MOL0     H13363   6.535   4.160   5.403 -1.6132 -0.9325 -2.3065
   97MOL0     H13364   6.593   3.919   5.397  0.2385 -0.9502  0.9446
   97MOL0     H13365   6.570   3.983   5.564  0.7101 -0.8879 -0.0583
   97MOL0     H13366   6.174   4.589   5.306 -1.3873  2.0816 -4.0505
   97MOL0     H13367   6.058   4.710   5.151 -1.0016 -0.8518 -0.1520
   97MOL0     H13368   5.798   4.941   4.898 -0.3826  0.3268 -0.0477
   97MOL0     H13369   5.696   5.079   4.778  1.3071 -0.3946  0.8657
   97MOL0     H13370   4.703   4.895   5.168 -1.5373 -0.4715 -2.0013
   97MOL0     H13371   4.905   4.745   5.164 -0.1696  1.7133  3.6215
   97MOL0     H13372   5.391   4.823   4.955  2.1315  1.5724  0.4506
   97MOL0     H13373   5.572   4.689   4.876  3.9257 -4.1314  0.4858
   97MOL0     H13374   5.787   4.630   4.989  0.8599  0.7142 -0.4885
   97MOL0     H13375   5.864   4.469   5.039 -0.3306  1.3679  1.4555
   97MOL0     H13376   5.741   4.530   4.758  0.7689  0.9904  1.2428
   97MOL0     H13377   5.837   4.399   4.809  1.2591  0.6861 -1.2910
   97MOL0     H13378   5.939   4.689   4.843 -5.3906  0.0905  0.2223
   97MOL0     H13379   6.029   4.538   4.812 -2.0702 -3.1913 -0.9478
   97MOL0     H13380   5.963   4.557   4.581  2.3063  0.4044  0.4613
   97MOL0     H13381   6.051   4.696   4.647 -0.4137  0.8156  2.3724
   97MOL0     H13382   5.743   4.924   4.537  3.0937  2.3600  1.6805
   97MOL0     H13383   5.494   4.397   5.180 -0.6057 -1.0712 -0.4271
   97MOL0     H13384   5.164   4.566   5.296  0.2488  2.0885 -0.9379
   97MOL0     H13385   5.227   4.405   5.247  0.9165  0.0432  1.2451
   97MOL0     H13386   5.298   4.493   5.375  3.3917  1.7628 -0.5247
   98MOL0     O13387   4.305   2.754   5.605  0.3258  0.6337 -0.2463
   98MOL0     C13388   4.224   2.841   5.570 -0.0431  0.5133 -0.6972
   98MOL0     O13389   4.098   2.816   5.535 -0.6920  0.1857  0.0547
   98MOL0     C13390   4.052   2.697   5.573 -0.4174 -0.9726 -0.1365
   98MOL0     C13391   4.049   2.589   5.478  0.3657 -0.4780 -0.6745
   98MOL0     C13392   4.014   2.464   5.507 -0.6175  0.1322  0.4216
   98MOL0     C13393   3.969   2.437   5.638 -0.8418 -0.3031  0.7514
   98MOL0     O13394   3.937   2.308   5.660 -0.6121  0.4516 -0.7384
   98MOL0     C13395   3.949   2.263   5.793 -0.3408 -0.2939 -0.2870
   98MOL0     C13396   3.914   2.110   5.803 -0.4257  0.1408  0.1895
   98MOL0     C13397   3.765   2.086   5.791  0.1809  0.1606 -0.6382
   98MOL0     C13398   3.745   1.997   5.663 -0.1716 -1.3705  0.6130
   98MOL0     C13399   3.600   1.965   5.648  0.3427  0.0673 -0.5048
   98MOL0     C13400   3.590   1.873   5.522 -0.3039 -0.4542 -0.5779
   98MOL0     C13401   3.441   1.860   5.488 -0.0631  0.3653 -0.5294
   98MOL0     C13402   3.426   1.799   5.346  1.4998 -0.8821  0.4244
   98MOL0     N13403   3.283   1.767   5.324  0.3817  0.2890 -0.0035
   98MOL0     C13404   3.220   1.643   5.323 -0.1895 -0.7952 -0.1237
   98MOL0     C13405   3.089   1.668   5.306  0.1793  0.7728  0.6231
   98MOL0     C13406   2.981   1.569   5.290  1.0234  0.3204  0.3570
   98MOL0     C13407   2.937   1.556   5.151 -0.9056  0.7701  0.3904
   98MOL0     C13408   3.036   1.456   5.069  0.4639 -0.2866 -0.7725
   98MOL0     C13409   3.175   1.520   5.027 -0.7523 -0.5617 -0.1158
   98MOL0     O13410   3.153   1.660   4.991 -0.0392 -0.3143  0.4877
   98MOL0     C13411   3.267   1.739   4.982  0.1067 -0.0975  0.1860
   98MOL0     C13412   3.397   1.687   5.001  1.0356  0.4295 -0.3049
   98MOL0     C13413   3.510   1.773   5.018  0.2395 -0.6105 -0.0997
   98MOL0     C13414   3.644   1.710   5.055 -0.4848 -0.2627  0.1118
   98MOL0     C13415   3.498   1.917   4.993  0.7262  0.5364 -1.2959
   98MOL0     C13416   3.599   2.015   4.977  0.3779  0.3435  0.3591
   98MOL0     O13417   3.563   2.146   4.998  0.6043 -0.6147  0.9894
   98MOL0     C13418   3.666   2.239   4.997  0.5079  0.8857 -0.6572
   98MOL0     C13419   3.718   2.286   5.118 -0.1105  0.0161 -0.3206
   98MOL0     C13420   3.814   2.386   5.106  0.0926 -0.3175 -0.6432
   98MOL0     C13421   3.841   2.444   4.988 -0.1805  0.6952 -0.2422
   98MOL0     O13422   3.931   2.550   4.979  0.0000  0.0049 -0.2474
   98MOL0     C13423   3.879   2.676   4.928 -0.2292 -0.2878 -0.5609
   98MOL0     C13424   3.975   2.793   4.940 -0.0044 -0.5276  0.3820
   98MOL0     C13425   4.000   2.859   5.073 -0.1062  0.3252 -0.0381
   98MOL0     C13426   3.887   2.903   5.163  0.7863 -0.3926 -1.0530
   98MOL0     C13427   3.840   2.785   5.250  0.4800  0.5483 -0.1221
   98MOL0     C13428   3.733   2.842   5.344  1.0624 -0.3400  0.3009
   98MOL0     C13429   3.691   2.747   5.449  0.3744  0.7913  0.5498
   98MOL0     C13430   3.633   2.813   5.573  0.4959 -0.6439  0.0072
   98MOL0    Cl13431   3.751   2.913   5.669 -0.0931 -0.1194 -0.2598
   98MOL0     C13432   3.776   2.410   4.865 -0.0047  1.2647 -0.0512
   98MOL0     C13433   3.687   2.293   4.876 -0.3935  0.6179  0.0251
   98MOL0     O13434   3.707   1.969   4.943 -0.8297  0.0940 -0.5154
   98MOL0     C13435   3.366   1.959   4.955  0.3987 -0.1027  0.6169
   98MOL0     C13436   3.257   1.871   4.950  1.0406  0.6025  1.0189
   98MOL0     N13437   3.068   1.802   5.303 -0.0806  0.2576 -0.1558
   98MOL0     N13438   3.183   1.858   5.320 -0.6079  0.4185  0.1905
   98MOL0     C13439   3.957   2.540   5.738  0.7326 -0.1379  0.1414
   98MOL0     C13440   3.996   2.667   5.700  0.1365 -0.1660 -0.2350
   98MOL0     C13441   4.278   2.976   5.551 -0.6385 -0.5170 -0.1220
   98MOL0     C13442   4.415   2.986   5.519  0.3530  0.4637  0.2326
   98MOL0     C13443   4.477   3.107   5.499 -0.3256 -0.2331  0.2991
   98MOL0     C13444   4.404   3.226   5.506 -0.9110  1.1170  0.0214
   98MOL0     O13445   4.462   3.339   5.465  0.4165  0.0224 -0.3897
   98MOL0     C13446   4.382   3.462   5.463 -0.3634 -0.1946 -0.5600
   98MOL0     C13447   4.459   3.581   5.420 -0.6426 -1.1267  0.0687
   98MOL0     C13448   4.532   3.567   5.290 -0.7083 -0.6728  0.3309
   98MOL0     C13449   4.447   3.590   5.167  0.4836  0.0523  0.2918
   98MOL0     C13450   4.528   3.561   5.052 -0.3913  0.2337 -0.2161
   98MOL0     C13451   4.588   3.531   4.946  0.1894 -0.4390 -0.8587
   98MOL0     C13452   4.271   3.209   5.549 -0.4582 -0.9081 -0.5576
   98MOL0     C13453   4.198   3.095   5.573 -0.8357 -0.1730  0.3196
   98MOL0     C13454   4.052   3.101   5.611  0.8687 -0.0702 -1.2341
   98MOL0     H13455   4.107   2.609   5.388  1.4806  0.0360  0.1377
   98MOL0     H13456   4.011   2.387   5.432  2.4725 -1.5154  1.7958
   98MOL0     H13457   3.876   2.318   5.854 -0.9443 -0.2708 -1.0152
   98MOL0     H13458   4.051   2.270   5.832 -0.7203 -0.0590  0.7126
   98MOL0     H13459   3.972   2.064   5.723 -1.0417  0.4795 -0.4618
   98MOL0     H13460   3.952   2.065   5.895  3.5054 -0.5967 -1.6182
   98MOL0     H13461   3.728   2.041   5.883 -0.3876 -1.2710 -1.5289
   98MOL0     H13462   3.709   2.178   5.774  0.7512  0.3602 -1.5233
   98MOL0     H13463   3.779   2.048   5.572 -2.2829  0.0789  0.5830
   98MOL0     H13464   3.809   1.909   5.679 -0.6075 -1.8197 -0.0554
   98MOL0     H13465   3.540   2.056   5.637  1.3353  0.8888  0.7332
   98MOL0     H13466   3.567   1.915   5.740 -2.4115 -0.3253 -1.6104
   98MOL0     H13467   3.644   1.936   5.451 -0.8009  0.5317 -0.1021
   98MOL0     H13468   3.634   1.774   5.529 -0.9873 -0.7739 -0.6831
   98MOL0     H13469   3.396   1.959   5.488  0.0564  0.4253  0.1414
   98MOL0     H13470   3.400   1.799   5.569  2.0202 -2.0630 -1.1550
   98MOL0     H13471   3.455   1.873   5.270 -2.0090 -2.0164 -2.3130
   98MOL0     H13472   3.488   1.709   5.336 -2.5668 -3.8641 -0.5484
   98MOL0     H13473   3.262   1.544   5.340 -0.3882 -0.8078  0.3230
   98MOL0     H13474   2.898   1.594   5.357 -0.3149  0.0880 -1.1683
   98MOL0     H13475   3.015   1.473   5.331 -2.8905 -0.9927  0.9443
   98MOL0     H13476   2.837   1.514   5.143 -1.3606  1.6993  1.0639
   98MOL0     H13477   2.942   1.657   5.111  0.0712  1.2330  1.6138
   98MOL0     H13478   3.059   1.365   5.126 -0.8031 -0.1798 -0.0725
   98MOL0     H13479   2.980   1.424   4.981 -3.6969  0.6912  1.2640
   98MOL0     H13480   3.233   1.518   5.119  1.0527  1.7308 -1.0907
   98MOL0     H13481   3.239   1.454   4.968  0.6336 -0.5165  1.2756
   98MOL0     H13482   3.406   1.582   5.023  1.3585  0.3051 -0.9816
   98MOL0     H13483   3.691   1.777   5.128 -0.0934  0.2448 -0.5962
   98MOL0     H13484   3.706   1.699   4.966 -1.1364  1.6077 -0.6269
   98MOL0     H13485   3.634   1.611   5.100  4.1405 -0.0409  2.2030
   98MOL0     H13486   3.695   2.229   5.207  0.7432 -0.4182 -0.3706
   98MOL0     H13487   3.863   2.410   5.199  0.7721  4.6653 -2.0019
   98MOL0     H13488   3.850   2.652   4.825 -2.3663 -2.8052  0.4987
   98MOL0     H13489   3.783   2.700   4.975 -1.8999 -2.1008 -2.8154
   98MOL0     H13490   4.067   2.755   4.896  0.0248 -0.1697  0.1283
   98MOL0     H13491   3.919   2.867   4.883 -0.2048 -0.3380  0.8199
   98MOL0     H13492   4.041   2.955   5.042 -1.0359  0.8506  0.3236
   98MOL0     H13493   4.077   2.798   5.121 -0.6917 -0.2930  0.1369
   98MOL0     H13494   3.795   2.926   5.109  0.8937  0.3064 -0.9411
   98MOL0     H13495   3.925   2.977   5.234 -0.5545 -1.9422  1.4392
   98MOL0     H13496   3.798   2.701   5.193 -1.4895  1.2012  0.2915
   98MOL0     H13497   3.927   2.749   5.305  0.7604  2.7336  0.9382
   98MOL0     H13498   3.646   2.875   5.286  1.7249  1.7181  0.3900
   98MOL0     H13499   3.772   2.931   5.394  2.2987  0.0959 -1.3230
   98MOL0     H13500   3.776   2.686   5.480 -1.0305 -1.2014  0.7484
   98MOL0     H13501   3.627   2.669   5.405 -0.3908  1.8587 -0.2749
   98MOL0     H13502   3.583   2.739   5.635 -1.1270 -0.1637 -0.6636
   98MOL0     H13503   3.558   2.886   5.539 -1.2975 -2.7208 -0.7375
   98MOL0     H13504   3.799   2.449   4.766 -0.2891 -0.6247 -0.9007
   98MOL0     H13505   3.652   2.248   4.784  1.6701  2.6367 -1.8987
   98MOL0     H13506   3.357   2.065   4.935  0.9572  0.1739  1.7669
   98MOL0     H13507   3.158   1.914   4.935 -0.6245 -2.6357  1.6725
   98MOL0     H13508   3.932   2.516   5.841  3.5684 -3.1474  0.3344
   98MOL0     H13509   3.998   2.748   5.773 -0.8365 -0.6149  0.3112
   98MOL0     H13510   4.488   2.906   5.511  0.8594  0.8090  1.2079
   98MOL0     H13511   4.580   3.108   5.465 -0.6450 -1.7300 -0.7827
   98MOL0     H13512   4.291   3.445   5.405 -0.7616  1.3370 -0.4218
   98MOL0     H13513   4.350   3.484   5.565 -2.5711 -1.2726 -0.9794
   98MOL0     H13514   4.538   3.602   5.492  0.8687 -2.1888 -1.2125
   98MOL0     H13515   4.396   3.670   5.415  0.2352 -0.1224  3.7284
   98MOL0     H13516   4.602   3.651   5.298 -1.6831 -0.0370  6.2317
   98MOL0     H13517   4.604   3.486   5.278  0.4280  0.3975 -0.3754
   98MOL0     H13518   4.401   3.688   5.154 -1.3131 -0.6766  0.8485
   98MOL0     H13519   4.365   3.518   5.157  0.5747  0.0479 -0.5268
   98MOL0     H13520   4.633   3.489   4.859  1.0624  2.7545 -2.1101
   98MOL0     H13521   4.214   3.301   5.560 -0.2154 -0.5772 -1.8923
   98MOL0     H13522   4.040   3.208   5.633 -1.7908 -0.2539 -1.4567
   98MOL0     H13523   3.992   3.058   5.531 -1.8312 -0.3235  0.7850
   98MOL0     H13524   4.030   3.046   5.703  1.8531 -3.7039 -3.0206
   99MOL0     O13525   3.086  11.238   8.417  0.2421  0.3330 -0.4313
   99MOL0     C13526   3.053  11.340   8.371  0.0469  0.1336 -0.0648
   99MOL0     O13527   3.062  11.370   8.241 -0.0737  0.2060 -0.5261
   99MOL0     C13528   3.083  11.281   8.142  0.2064 -1.5073 -0.0301
   99MOL0     C13529   3.034  11.154   8.134  0.7307 -0.3715 -0.4754
   99MOL0     C13530   3.029  11.086   8.024  0.0759  0.5810 -0.2667
   99MOL0     C13531   3.075  11.134   7.907  0.3939 -0.1214 -0.2828
   99MOL0     O13532   3.075  11.053   7.798  0.2282  0.8699 -0.1641
   99MOL0     C13533   3.186  10.966   7.785  0.0777  0.5275  0.2747
   99MOL0     C13534   3.166  10.874   7.657  0.3584  0.9956 -0.5138
   99MOL0     C13535   3.238  10.942   7.533  0.0679 -0.4444 -0.2246
   99MOL0     C13536   3.388  10.898   7.536 -0.0468  0.4846  0.9586
   99MOL0     C13537   3.469  10.924   7.401  0.1186 -0.4256 -0.3496
   99MOL0     C13538   3.613  10.885   7.404 -1.5900  0.7587 -0.2192
   99MOL0     C13539   3.688  10.985   7.497  0.2812  0.7984  0.1875
   99MOL0     C13540   3.840  10.950   7.481 -0.7487  0.1821  1.2379
   99MOL0     N13541   3.904  10.983   7.349  0.1819  0.2448  0.6296
   99MOL0     C13542   3.963  10.900   7.265 -0.1170 -0.1297  1.1195
   99MOL0     C13543   3.981  10.970   7.148 -0.2110  1.1548 -1.2438
   99MOL0     C13544   4.047  10.919   7.025 -0.3836  0.5056  0.1640
   99MOL0     C13545   4.156  11.020   6.984  0.3821  0.2527 -0.7633
   99MOL0     C13546   4.227  10.990   6.848  0.0675 -0.5606 -0.0856
   99MOL0     C13547   4.353  11.071   6.814  0.8545  0.9452  0.3665
   99MOL0     O13548   4.294  11.203   6.798  0.8381 -0.3344 -0.6239
   99MOL0     C13549   4.313  11.308   6.884 -0.2564 -0.6044  0.0184
   99MOL0     C13550   4.371  11.290   7.008  0.5435  0.5454  0.0937
   99MOL0     C13551   4.408  11.394   7.085 -0.3766 -0.7000  0.1273
   99MOL0     C13552   4.458  11.360   7.227  0.6138  0.6070  0.7474
   99MOL0     C13553   4.385  11.522   7.032  0.0567  0.1458  1.1423
   99MOL0     C13554   4.421  11.639   7.103 -0.6440 -0.0591  0.0158
   99MOL0     O13555   4.335  11.692   7.188  0.7831  0.2445 -0.1812
   99MOL0     C13556   4.367  11.800   7.260 -1.3991 -0.8659  0.8025
   99MOL0     C13557   4.496  11.830   7.308  0.5281 -0.3579  0.5450
   99MOL0     C13558   4.519  11.922   7.412  0.5642  0.5940  0.0167
   99MOL0     C13559   4.413  11.998   7.457  0.1428  0.7999  0.1164
   99MOL0     O13560   4.426  12.085   7.558  0.4346 -0.2462 -0.4744
   99MOL0     C13561   4.532  12.182   7.563 -0.7416 -0.4549  0.6509
   99MOL0     C13562   4.509  12.286   7.667 -0.4870  0.3261 -0.9398
   99MOL0     C13563   4.468  12.227   7.806 -0.5424  1.0691  0.4446
   99MOL0     C13564   4.411  12.344   7.889  0.3397 -0.2304  0.3214
   99MOL0     C13565   4.395  12.307   8.034  0.6675 -1.1248  0.1145
   99MOL0     C13566   4.349  12.442   8.105  0.8991 -0.4143  0.2293
   99MOL0     C13567   4.218  12.494   8.048 -0.1271  0.0454 -0.4720
   99MOL0     C13568   4.138  12.573   8.143 -0.3972 -0.4874 -0.4254
   99MOL0    Cl13569   4.246  12.713   8.202  0.1685 -0.1337 -0.1208
   99MOL0     C13570   4.287  11.997   7.395 -0.0921 -0.4523  0.2201
   99MOL0     C13571   4.268  11.893   7.298  0.7622  0.3575  0.1318
   99MOL0     O13572   4.506  11.698   7.049 -0.0710  0.3418 -0.0135
   99MOL0     C13573   4.323  11.544   6.907 -0.0799  1.1831 -0.5953
   99MOL0     C13574   4.283  11.432   6.837  0.0502 -0.3616  0.3494
   99MOL0     N13575   3.924  11.097   7.160  0.2589 -0.2083 -0.1444
   99MOL0     N13576   3.871  11.099   7.278  0.4099 -0.0161  0.8364
   99MOL0     C13577   3.135  11.262   7.914  0.7374  0.0914 -1.0092
   99MOL0     C13578   3.131  11.335   8.032 -0.0576  0.0711  0.8611
   99MOL0     C13579   2.998  11.445   8.466 -0.1352 -0.3565 -0.0124
   99MOL0     C13580   2.894  11.521   8.422  0.2230  1.4305 -0.3887
   99MOL0     C13581   2.834  11.613   8.510 -0.3831 -0.0764 -0.2914
   99MOL0     C13582   2.890  11.624   8.637  0.2501 -0.4630  0.0238
   99MOL0     O13583   2.823  11.721   8.716  0.0522 -0.3520  0.3357
   99MOL0     C13584   2.856  11.752   8.852 -0.0649 -0.8166 -1.0055
   99MOL0     C13585   2.792  11.647   8.955  0.7726  0.1069 -0.5380
   99MOL0     C13586   2.846  11.498   8.932 -0.1064  0.2549  0.7360
   99MOL0     C13587   2.775  11.405   9.025  0.5057  0.5213  0.2328
   99MOL0     C13588   2.797  11.431   9.169 -0.1103 -1.0488 -0.1101
   99MOL0     C13589   2.823  11.456   9.288  0.6753  0.0038  0.3342
   99MOL0     C13590   3.003  11.550   8.676  0.1862 -0.3121  0.6966
   99MOL0     C13591   3.055  11.460   8.592  0.7363  0.5672  0.2191
   99MOL0     C13592   3.179  11.387   8.630  0.1713  0.7040 -0.5044
   99MOL0     H13593   2.994  11.105   8.222 -2.7764  2.1567 -0.4697
   99MOL0     H13594   2.977  10.994   8.048  2.6884 -0.7072  0.9288
   99MOL0     H13595   3.180  10.905   7.875 -1.2900  0.6060  0.2578
   99MOL0     H13596   3.277  11.027   7.775  0.8831 -0.8528 -1.3300
   99MOL0     H13597   3.203  10.772   7.674  3.2789  1.8756 -1.0168
   99MOL0     H13598   3.060  10.868   7.629 -0.1235  0.1824  1.3332
   99MOL0     H13599   3.191  10.892   7.449  0.4786  0.5903 -1.0979
   99MOL0     H13600   3.226  11.051   7.537 -1.1266 -0.5209 -1.3192
   99MOL0     H13601   3.437  10.948   7.620 -1.7980  0.7107  1.9070
   99MOL0     H13602   3.393  10.790   7.552  3.3145  0.1241 -1.4619
   99MOL0     H13603   3.460  11.027   7.367  0.9344  0.3256  1.5275
   99MOL0     H13604   3.419  10.853   7.334  0.9017  0.5827 -2.0521
   99MOL0     H13605   3.616  10.786   7.451  3.2982  0.2407 -1.1629
   99MOL0     H13606   3.660  10.876   7.306 -0.8700 -1.4079  0.2558
   99MOL0     H13607   3.636  10.963   7.591 -1.5474  2.8496 -0.2754
   99MOL0     H13608   3.666  11.090   7.475 -1.8009  1.7122  5.0756
   99MOL0     H13609   3.900  10.995   7.560  0.3082 -0.1287  0.6424
   99MOL0     H13610   3.848  10.842   7.496  1.0901  0.1632  0.4189
   99MOL0     H13611   3.994  10.799   7.291  2.2646  0.0421 -0.6933
   99MOL0     H13612   3.975  10.908   6.943 -2.9797  1.9199  2.1090
   99MOL0     H13613   4.084  10.818   7.045  0.6294  0.9300  0.4798
   99MOL0     H13614   4.123  11.123   7.000 -3.4524 -1.1533  2.0487
   99MOL0     H13615   4.236  10.980   7.046 -0.8115 -2.0796 -0.6007
   99MOL0     H13616   4.264  10.887   6.848  1.4166 -0.0937 -0.0705
   99MOL0     H13617   4.158  11.003   6.765  1.3362  1.5356 -0.8797
   99MOL0     H13618   4.440  11.060   6.880  1.3913 -0.1208 -0.4999
   99MOL0     H13619   4.389  11.034   6.718  0.9268  1.2027  0.2924
   99MOL0     H13620   4.388  11.188   7.039  4.7434  0.4241 -1.9688
   99MOL0     H13621   4.459  11.253   7.248 -1.9118 -0.3060 -2.8367
   99MOL0     H13622   4.389  11.409   7.296 -0.1043 -1.8863  1.8955
   99MOL0     H13623   4.560  11.397   7.239  0.6454  0.3068  1.4400
   99MOL0     H13624   4.580  11.769   7.276  0.7207  0.6560 -1.0124
   99MOL0     H13625   4.617  11.933   7.456  2.5294 -0.0121 -3.7781
   99MOL0     H13626   4.633  12.144   7.580 -0.3727  1.2899  2.9432
   99MOL0     H13627   4.528  12.230   7.465 -2.4941 -1.8521 -0.0164
   99MOL0     H13628   4.599  12.347   7.673 -0.3849  0.1426 -0.6030
   99MOL0     H13629   4.430  12.343   7.617 -0.2261  1.4685 -0.0723
   99MOL0     H13630   4.556  12.181   7.850 -1.0880 -2.6099 -1.9083
   99MOL0     H13631   4.389  12.152   7.794  1.6396 -0.8720 -3.7585
   99MOL0     H13632   4.313  12.369   7.846  0.0609 -2.0117 -0.1730
   99MOL0     H13633   4.467  12.438   7.889  0.5748 -0.2803 -2.7469
   99MOL0     H13634   4.317  12.233   8.055  1.3084 -1.7673  0.2575
   99MOL0     H13635   4.493  12.276   8.070  0.9092  2.1319  2.7852
   99MOL0     H13636   4.432  12.513   8.106  3.3315 -3.0681  0.7143
   99MOL0     H13637   4.323  12.408   8.206  0.3905 -2.8735 -0.6589
   99MOL0     H13638   4.148  12.421   8.005 -1.5122 -0.1052  1.9006
   99MOL0     H13639   4.238  12.559   7.962 -0.7117  4.3328  2.3395
   99MOL0     H13640   4.102  12.509   8.223 -1.2957  0.3878 -0.1006
   99MOL0     H13641   4.044  12.614   8.104 -0.7858  0.8088  1.7114
   99MOL0     H13642   4.208  12.064   7.427 -0.4142 -1.3859  1.4476
   99MOL0     H13643   4.181  11.862   7.240  1.0531 -0.8502  0.3182
   99MOL0     H13644   4.316  11.643   6.863  2.8537  1.4190 -0.6918
   99MOL0     H13645   4.254  11.455   6.735 -1.1908 -0.8412  0.5689
   99MOL0     H13646   3.171  11.300   7.819  4.0051  2.6119  1.0165
   99MOL0     H13647   3.163  11.438   8.024 -0.0002 -0.1048 -2.1620
   99MOL0     H13648   2.847  11.494   8.328 -1.0325 -1.2755  0.9093
   99MOL0     H13649   2.750  11.675   8.481 -0.6703 -0.6812 -0.7863
   99MOL0     H13650   2.964  11.738   8.859  0.7447  3.3681 -2.3327
   99MOL0     H13651   2.830  11.857   8.867 -0.8860 -1.1060 -0.2836
   99MOL0     H13652   2.683  11.654   8.962  0.3647 -2.0220 -3.0719
   99MOL0     H13653   2.822  11.681   9.054 -2.8072 -2.2867  1.5966
   99MOL0     H13654   2.827  11.465   8.830  0.9912  1.1425  0.2325
   99MOL0     H13655   2.951  11.490   8.959  0.0867 -1.3455 -0.3456
   99MOL0     H13656   2.810  11.302   9.012  0.5583  0.6037 -0.3231
   99MOL0     H13657   2.667  11.411   9.005  0.1678 -1.5157  1.2062
   99MOL0     H13658   2.845  11.472   9.391 -0.0363  1.3585  0.3113
   99MOL0     H13659   3.060  11.574   8.765 -0.6182  0.3242  1.0506
   99MOL0     H13660   3.254  11.377   8.552  2.5218  2.7830  1.3267
   99MOL0     H13661   3.227  11.452   8.703 -0.8937  1.6317 -0.5937
   99MOL0     H13662   3.140  11.298   8.680 -2.9037  0.8689 -2.3204
  100MOL0     O13663   2.570   5.688   9.745  0.5500 -0.3451  0.7327
  100MOL0     C13664   2.641   5.671   9.833  0.0181 -0.4018 -1.2156
  100MOL0     O13665   2.615   5.583   9.932  0.0048  0.5160  1.1350
  100MOL0     C13666   2.530   5.470   9.924 -0.3300 -0.7124 -0.5911
  100MOL0     C13667   2.546   5.363   9.839  0.0509 -0.0899  0.4934
  100MOL0     C13668   2.478   5.249   9.850  0.2670  0.2769  0.2122
  100MOL0     C13669   2.371   5.236   9.939 -0.0016 -0.2012  0.3287
  100MOL0     O13670   2.296   5.129   9.958 -0.5195  0.2984  0.4202
  100MOL0     C13671   2.200   5.114   9.854 -0.8132 -0.3024 -0.3927
  100MOL0     C13672   2.095   5.015   9.883  0.2624 -0.2478  0.2320
  100MOL0     C13673   1.964   5.033   9.794  0.6579  0.5851  0.0381
  100MOL0     C13674   1.971   4.941   9.664 -1.5051 -0.2976  0.5611
  100MOL0     C13675   1.836   4.962   9.589  0.5383 -0.0088 -0.5978
  100MOL0     C13676   1.837   4.873   9.459  0.7156  0.2709 -0.5305
  100MOL0     C13677   1.702   4.847   9.399  0.4960  0.4193  0.3956
  100MOL0     C13678   1.710   4.739   9.285 -0.4192 -0.1869 -0.5519
  100MOL0     N13679   1.652   4.614   9.344 -0.2669  1.0834  0.7832
  100MOL0     C13680   1.519   4.579   9.364  0.0545  0.1035 -0.6794
  100MOL0     C13681   1.515   4.478   9.450 -0.4767 -0.0793  0.3316
  100MOL0     C13682   1.397   4.399   9.496  1.1645  0.2564 -0.5273
  100MOL0     C13683   1.280   4.395   9.394 -0.7119 -0.1639  0.5141
  100MOL0     C13684   1.151   4.350   9.464  0.3455 -0.3016  0.9320
  100MOL0     C13685   1.149   4.204   9.514  0.5777  1.1881 -0.1857
  100MOL0     O13686   1.177   4.107   9.413  0.5568  0.0125 -0.4466
  100MOL0     C13687   1.093   4.092   9.311  0.0697 -0.0507  0.3649
  100MOL0     C13688   1.141   4.026   9.202 -0.9499  0.3050 -0.2527
  100MOL0     C13689   1.056   3.967   9.110  0.0798 -0.3493  0.1364
  100MOL0     C13690   1.128   3.887   9.013  0.0542  0.7246  0.1000
  100MOL0     C13691   0.919   3.999   9.117  0.7650  0.1408 -0.5345
  100MOL0     C13692   0.816   3.946   9.013 -0.0519  0.4025  0.1483
  100MOL0     O13693   0.849   3.929   8.886 -0.1110  0.3463 -0.0939
  100MOL0     C13694   0.764   3.881   8.787 -0.2003  0.0313  0.3092
  100MOL0     C13695   0.680   3.972   8.714 -1.1666 -0.9659 -0.7764
  100MOL0     C13696   0.601   3.927   8.612  0.3789 -0.0754  0.3513
  100MOL0     C13697   0.620   3.792   8.563  0.3154 -0.3304  0.2323
  100MOL0     O13698   0.529   3.772   8.466  0.4985  0.1325  0.4687
  100MOL0     C13699   0.487   3.634   8.432 -0.6121  0.0976 -0.7930
  100MOL0     C13700   0.382   3.624   8.324  0.2802 -0.8152  0.0466
  100MOL0     C13701   0.242   3.647   8.372  0.6834 -0.1130 -0.1824
  100MOL0     C13702   0.149   3.653   8.254 -1.1501  0.3324  0.3512
  100MOL0     C13703   0.007   3.706   8.297 -0.4906 -0.7560  0.2832
  100MOL0     C13704  -0.080   3.619   8.392  0.6950  0.4376  1.2217
  100MOL0     C13705  -0.089   3.465   8.346  0.4528  0.3723 -0.2450
  100MOL0     C13706  -0.159   3.443   8.218 -0.1408  0.9355  0.7658
  100MOL0    Cl13707  -0.327   3.418   8.240 -0.2665 -0.2308 -0.4012
  100MOL0     C13708   0.712   3.706   8.628  0.2564 -0.6764  0.3153
  100MOL0     C13709   0.777   3.748   8.744 -0.4069  0.2520 -1.1744
  100MOL0     O13710   0.706   3.912   9.055  0.7004  0.2619 -0.4451
  100MOL0     C13711   0.870   4.069   9.228  0.2045 -0.4324  0.2657
  100MOL0     C13712   0.957   4.116   9.319 -0.2282 -0.4186 -0.8252
  100MOL0     N13713   1.641   4.459   9.503  0.0371 -0.0280 -0.4649
  100MOL0     N13714   1.722   4.547   9.441  0.0941 -0.1232 -0.3068
  100MOL0     C13715   2.358   5.337  10.035  0.5473 -0.3873  0.4539
  100MOL0     C13716   2.442   5.452  10.030 -0.3736 -1.5764 -1.1792
  100MOL0     C13717   2.768   5.742   9.828  0.3891  0.2624 -0.4924
  100MOL0     C13718   2.880   5.673   9.874 -0.0291  0.5157  0.0557
  100MOL0     C13719   3.004   5.728   9.877  0.3557 -0.2642 -0.5714
  100MOL0     C13720   3.027   5.857   9.822 -0.6083 -1.1583  0.2637
  100MOL0     O13721   3.156   5.912   9.833  0.1560 -0.1025  0.5337
  100MOL0     C13722   3.189   6.019   9.742 -0.1975  0.0007 -0.5891
  100MOL0     C13723   3.338   6.055   9.756  0.5401  0.4287  0.5172
  100MOL0     C13724   3.355   6.113   9.903 -0.2584 -0.3473 -0.3216
  100MOL0     C13725   3.492   6.177   9.926  0.9075 -0.3513 -0.0226
  100MOL0     C13726   3.593   6.073   9.926  0.2074 -1.0492 -0.9935
  100MOL0     C13727   3.685   5.995   9.916  0.4843  0.0903 -0.2918
  100MOL0     C13728   2.916   5.916   9.767  0.3580 -0.5749  0.1895
  100MOL0     C13729   2.787   5.859   9.763 -0.3190 -0.5388  0.8686
  100MOL0     C13730   2.683   5.940   9.693 -0.1913 -0.1545 -0.0531
  100MOL0     H13731   2.615   5.364   9.755 -0.9063 -0.2332 -0.3140
  100MOL0     H13732   2.498   5.169   9.779 -0.6824  0.5920 -0.4205
  100MOL0     H13733   2.241   5.110   9.752  1.1261 -1.2175  0.3802
  100MOL0     H13734   2.146   5.209   9.859  1.8351  1.2331  0.7708
  100MOL0     H13735   2.132   4.914   9.862 -1.7648 -0.7282 -1.3886
  100MOL0     H13736   2.091   5.017   9.992 -2.6738  0.4047  0.2057
  100MOL0     H13737   1.888   4.984   9.856  0.0580  0.2315 -0.9450
  100MOL0     H13738   1.940   5.139   9.780  0.3788  1.0842  3.5018
  100MOL0     H13739   2.049   4.987   9.602 -0.8461  1.3337  2.4844
  100MOL0     H13740   1.991   4.839   9.697 -2.9162 -0.2635  1.6036
  100MOL0     H13741   1.822   5.067   9.562 -2.0052 -0.9225 -3.3733
  100MOL0     H13742   1.749   4.938   9.650 -1.8914  0.2681 -3.7001
  100MOL0     H13743   1.906   4.924   9.392  1.7259  2.5121  2.0040
  100MOL0     H13744   1.883   4.776   9.477 -0.1525  0.1648  1.5223
  100MOL0     H13745   1.659   4.943   9.369  0.8065  0.8624  1.3239
  100MOL0     H13746   1.628   4.816   9.473 -0.7868  2.0059 -0.1780
  100MOL0     H13747   1.639   4.772   9.209  1.1400  2.3810 -1.0135
  100MOL0     H13748   1.808   4.727   9.237  0.3353 -0.5721  0.9907
  100MOL0     H13749   1.427   4.618   9.321 -1.6964  0.0725  2.7165
  100MOL0     H13750   1.361   4.431   9.595 -3.2527 -0.0258 -1.8060
  100MOL0     H13751   1.426   4.295   9.513 -0.8589 -0.1716  0.6890
  100MOL0     H13752   1.280   4.498   9.357  0.9970  0.4478  2.0888
  100MOL0     H13753   1.316   4.332   9.312  0.5713 -1.2557  1.8699
  100MOL0     H13754   1.119   4.424   9.537 -1.9494  0.6361 -0.8996
  100MOL0     H13755   1.074   4.360   9.387  1.2313 -1.1618 -0.1122
  100MOL0     H13756   1.232   4.190   9.584  0.5914  2.2458  0.0288
  100MOL0     H13757   1.051   4.200   9.562  1.1314 -2.9784  1.0364
  100MOL0     H13758   1.246   3.999   9.203 -0.7212  1.1361  0.9079
  100MOL0     H13759   1.074   3.796   8.984 -0.5812  0.7498  1.1231
  100MOL0     H13760   1.228   3.861   9.048  0.1234  0.2039 -0.4631
  100MOL0     H13761   1.140   3.934   8.916  0.8673 -1.5746 -0.9929
  100MOL0     H13762   0.681   4.079   8.736  3.9402 -0.9483  0.1099
  100MOL0     H13763   0.532   4.000   8.571  0.9013 -0.9012 -2.1936
  100MOL0     H13764   0.580   3.588   8.394 -2.9361 -3.1565 -3.1268
  100MOL0     H13765   0.464   3.581   8.525  2.3118  0.2579  0.1469
  100MOL0     H13766   0.404   3.697   8.246 -2.4598  0.6546  0.5494
  100MOL0     H13767   0.377   3.528   8.273  0.6959 -1.3728  1.0134
  100MOL0     H13768   0.243   3.752   8.403 -1.2558  0.0788 -0.6488
  100MOL0     H13769   0.202   3.583   8.451  1.6153 -1.3903 -0.6964
  100MOL0     H13770   0.129   3.562   8.196 -0.5109  0.5908 -0.3004
  100MOL0     H13771   0.197   3.717   8.179 -2.5330  2.2027  1.0153
  100MOL0     H13772   0.011   3.796   8.359 -3.5577  0.3492 -0.9267
  100MOL0     H13773  -0.041   3.743   8.205  2.2617  1.3698 -0.4373
  100MOL0     H13774  -0.177   3.666   8.415 -0.3678 -2.2841  2.7095
  100MOL0     H13775  -0.032   3.615   8.490  3.9572  0.1680 -0.2531
  100MOL0     H13776  -0.144   3.400   8.415  1.0686 -0.5443 -0.5999
  100MOL0     H13777   0.014   3.430   8.349 -0.2855 -1.9903  0.0356
  100MOL0     H13778  -0.102   3.364   8.167  1.2742  1.5257  1.3841
  100MOL0     H13779  -0.142   3.534   8.161 -1.3868  1.4791  1.2283
  100MOL0     H13780   0.719   3.604   8.592  1.3191 -0.1963 -0.9387
  100MOL0     H13781   0.841   3.672   8.789  0.6546  0.8937 -1.5446
  100MOL0     H13782   0.767   4.100   9.241  1.1955  3.8494 -0.6513
  100MOL0     H13783   0.905   4.156   9.406 -2.9422 -4.0575 -0.5476
  100MOL0     H13784   2.273   5.343  10.102  1.1839  2.8317  1.1341
  100MOL0     H13785   2.440   5.543  10.089  2.4607 -1.5871 -0.9220
  100MOL0     H13786   2.872   5.568   9.898  1.5478 -0.3396 -2.7096
  100MOL0     H13787   3.087   5.666   9.908 -0.8341 -0.7426  1.8978
  100MOL0     H13788   3.162   5.992   9.639  3.2716 -0.2094 -1.5715
  100MOL0     H13789   3.140   6.109   9.778 -0.2706 -1.5751  3.8444
  100MOL0     H13790   3.378   6.133   9.690  0.8741 -1.0397 -1.0689
  100MOL0     H13791   3.393   5.962   9.739 -0.1051  0.3741 -1.4538
  100MOL0     H13792   3.270   6.173   9.936 -0.7244 -0.6091 -1.0023
  100MOL0     H13793   3.353   6.014   9.950  1.8714  0.2393  1.1458
  100MOL0     H13794   3.478   6.219  10.026  0.2269  2.5075 -1.2227
  100MOL0     H13795   3.516   6.251   9.848 -1.8926  1.7987  0.9750
  100MOL0     H13796   3.759   5.919   9.896  0.5336 -0.2661  1.1660
  100MOL0     H13797   2.923   6.017   9.729 -0.7093  0.3692  2.3455
  100MOL0     H13798   2.687   6.049   9.685 -0.5000  0.2154  3.2962
  100MOL0     H13799   2.673   5.901   9.592 -4.3502 -3.0928  1.2467
  100MOL0     H13800   2.588   5.923   9.745 -0.7099 -0.5989 -1.1377
  101MOL0     O13801   5.233   2.170   7.734 -0.5409  0.4500 -0.6084
  101MOL0     C13802   5.148   2.119   7.670  1.3105 -0.5820  0.1801
  101MOL0     O13803   5.106   1.986   7.685  0.2758  0.0982  0.1966
  101MOL0     C13804   5.173   1.911   7.783 -0.1998  0.3079 -0.0659
  101MOL0     C13805   5.301   1.864   7.763  0.4639 -0.9953  0.5897
  101MOL0     C13806   5.352   1.788   7.860 -0.2244 -0.1636  0.0582
  101MOL0     C13807   5.289   1.764   7.978  1.5580  0.4039  0.7305
  101MOL0     O13808   5.365   1.706   8.076 -0.0262  0.1759  0.7883
  101MOL0     C13809   5.304   1.670   8.194  0.6893 -0.2749  0.6794
  101MOL0     C13810   5.412   1.676   8.301  0.6980  0.6885  1.3261
  101MOL0     C13811   5.354   1.638   8.439  0.9179 -0.1006  0.7898
  101MOL0     C13812   5.471   1.644   8.540  0.3725 -0.1936 -0.3139
  101MOL0     C13813   5.498   1.526   8.635  0.6556 -0.3541  0.1638
  101MOL0     C13814   5.384   1.518   8.739 -0.1837  0.3452 -0.5738
  101MOL0     C13815   5.414   1.408   8.834  0.0736  0.5422 -1.0927
  101MOL0     C13816   5.535   1.435   8.929  0.1996  0.9517  0.2258
  101MOL0     N13817   5.527   1.565   9.004 -0.7959  0.8262  0.2891
  101MOL0     C13818   5.629   1.649   9.019 -0.3559 -0.5346  0.7351
  101MOL0     C13819   5.584   1.751   9.094  0.0782 -0.0407 -0.2247
  101MOL0     C13820   5.674   1.863   9.135 -0.3446 -0.4704 -0.5613
  101MOL0     C13821   5.720   1.839   9.280  0.4167 -0.3053 -0.4212
  101MOL0     C13822   5.813   1.942   9.338  0.0769  0.7255 -0.1304
  101MOL0     C13823   5.847   1.902   9.482  0.5224  0.8832  0.9880
  101MOL0     O13824   5.755   1.963   9.565 -0.1104 -0.5511 -0.1176
  101MOL0     C13825   5.752   1.920   9.697 -0.4956  0.1690 -0.0659
  101MOL0     C13826   5.755   1.786   9.742  1.7489  0.0859 -0.3126
  101MOL0     C13827   5.757   1.759   9.881 -0.6273  0.3079  0.2880
  101MOL0     C13828   5.779   1.624   9.927  0.0889  0.5989 -0.3875
  101MOL0     C13829   5.738   1.872   9.978  0.3314 -0.6436  0.1458
  101MOL0     C13830   5.720   1.858  10.126 -0.6687  0.4009  0.3002
  101MOL0     O13831   5.668   1.968  10.192  0.2629 -0.6609  0.2063
  101MOL0     C13832   5.658   1.971  10.329 -1.2589  0.0137  0.5811
  101MOL0     C13833   5.729   2.054  10.411  0.1533 -0.3291 -0.3698
  101MOL0     C13834   5.694   2.067  10.549 -0.0145 -0.5300 -0.9291
  101MOL0     C13835   5.582   1.999  10.603  0.5831 -0.6766  0.3204
  101MOL0     O13836   5.517   2.037  10.717  0.1676 -0.6278 -0.9846
  101MOL0     C13837   5.460   2.169  10.718 -0.3511 -0.4386 -0.3347
  101MOL0     C13838   5.496   2.258  10.837 -0.3140  0.1336  0.6388
  101MOL0     C13839   5.649   2.269  10.867 -0.0446 -0.4232 -0.3209
  101MOL0     C13840   5.692   2.374  10.965 -0.3639 -0.0757 -0.4200
  101MOL0     C13841   5.832   2.365  11.005 -0.0097 -0.3028 -0.1607
  101MOL0     C13842   5.914   2.436  10.893 -0.5421  0.0430 -0.3135
  101MOL0     C13843   6.071   2.427  10.904  0.3066 -0.4755 -0.6310
  101MOL0     C13844   6.124   2.547  10.979  0.5359  0.3578 -0.4198
  101MOL0    Cl13845   6.305   2.545  10.954 -0.4300 -0.1374  0.0092
  101MOL0     C13846   5.512   1.912  10.515 -0.3648 -0.5403 -0.3515
  101MOL0     C13847   5.553   1.902  10.386 -0.3836  0.1496  0.2441
  101MOL0     O13848   5.786   1.768  10.176  0.1014  0.2755  0.0175
  101MOL0     C13849   5.725   2.003   9.922  0.4592 -0.3147 -0.1031
  101MOL0     C13850   5.739   2.027   9.795  0.4852  0.7415  0.6120
  101MOL0     N13851   5.459   1.719   9.137  1.2347 -0.5814 -0.0034
  101MOL0     N13852   5.420   1.613   9.078 -0.3931 -0.7448 -0.1371
  101MOL0     C13853   5.154   1.799   7.987  0.4085 -0.2440 -0.5087
  101MOL0     C13854   5.095   1.872   7.889 -0.7872 -0.2100 -0.3231
  101MOL0     C13855   5.080   2.206   7.566 -0.1969  0.4455  1.2402
  101MOL0     C13856   4.969   2.156   7.494 -0.0025 -0.2870 -0.7676
  101MOL0     C13857   4.902   2.227   7.395 -0.4168 -0.0963  0.1448
  101MOL0     C13858   4.945   2.356   7.364 -0.3834 -0.5774 -0.9928
  101MOL0     O13859   4.886   2.443   7.275  0.4401  0.7990  0.0302
  101MOL0     C13860   4.738   2.435   7.267  0.5565 -0.3403  0.2755
  101MOL0     C13861   4.679   2.570   7.229  0.6676 -1.0423 -0.3325
  101MOL0     C13862   4.683   2.670   7.347  0.3281 -0.2587  0.8502
  101MOL0     C13863   4.588   2.792   7.338 -0.1738 -0.1734 -1.6545
  101MOL0     C13864   4.631   2.883   7.450 -0.3202 -0.1685 -0.3916
  101MOL0     C13865   4.670   2.970   7.530  0.5337  0.6897  0.2070
  101MOL0     C13866   5.040   2.418   7.434  0.7720  0.6863  0.3828
  101MOL0     C13867   5.111   2.343   7.533  0.2541 -0.9753  0.6413
  101MOL0     C13868   5.233   2.421   7.586 -0.0315 -0.3573  0.3135
  101MOL0     H13869   5.358   1.872   7.671 -0.4174 -0.1245  0.1055
  101MOL0     H13870   5.455   1.757   7.850  0.3035  2.1096 -2.5785
  101MOL0     H13871   5.264   1.570   8.173 -2.2089  0.8772  0.2297
  101MOL0     H13872   5.222   1.731   8.234  0.4205 -2.1932  3.3652
  101MOL0     H13873   5.494   1.608   8.272  0.2969 -0.0062  1.8006
  101MOL0     H13874   5.454   1.777   8.310 -3.7011  2.7185  1.2971
  101MOL0     H13875   5.278   1.711   8.469  0.5600 -0.0315 -0.2433
  101MOL0     H13876   5.313   1.537   8.428  0.0647  0.4507 -1.6893
  101MOL0     H13877   5.570   1.671   8.502  1.2008  1.7214  2.8608
  101MOL0     H13878   5.448   1.730   8.602  3.1925  0.0981  0.4828
  101MOL0     H13879   5.589   1.556   8.688  0.4639  0.1490  0.2140
  101MOL0     H13880   5.508   1.430   8.583 -0.2840 -1.4482  1.9184
  101MOL0     H13881   5.375   1.615   8.788 -2.2150 -0.4364  0.7457
  101MOL0     H13882   5.286   1.500   8.692  1.1619 -0.5503 -3.2513
  101MOL0     H13883   5.432   1.321   8.770 -0.3029 -0.8959  0.6891
  101MOL0     H13884   5.328   1.380   8.895 -1.0309 -0.6484 -3.0772
  101MOL0     H13885   5.537   1.347   8.994  1.0563 -1.6912 -3.0479
  101MOL0     H13886   5.630   1.433   8.874 -0.3043 -1.0154 -0.6709
  101MOL0     H13887   5.730   1.638   8.980 -0.9247  0.6103 -1.2734
  101MOL0     H13888   5.609   1.951   9.139 -1.5787 -1.2860  4.4759
  101MOL0     H13889   5.760   1.878   9.069  0.9075  1.9165  1.4375
  101MOL0     H13890   5.626   1.828   9.335  0.0918  0.7271 -0.7528
  101MOL0     H13891   5.772   1.743   9.290  1.8796  0.4652 -0.2689
  101MOL0     H13892   5.901   1.960   9.275  0.4078  0.7138  0.3293
  101MOL0     H13893   5.773   2.044   9.330 -0.8686  0.2292 -3.0478
  101MOL0     H13894   5.843   1.796   9.507  4.8556  0.5262  0.8806
  101MOL0     H13895   5.949   1.933   9.508  1.2852 -1.4830  1.0543
  101MOL0     H13896   5.758   1.710   9.665 -1.3903  0.2268 -0.6946
  101MOL0     H13897   5.695   1.583   9.984  1.4653 -0.2135  1.1856
  101MOL0     H13898   5.864   1.613   9.995 -0.1374 -0.3880 -0.2391
  101MOL0     H13899   5.795   1.556   9.843  0.1823  3.2436 -2.6298
  101MOL0     H13900   5.818   2.106  10.379 -0.8019  1.9493  0.4593
  101MOL0     H13901   5.741   2.141  10.613 -2.2217  1.4695 -1.4778
  101MOL0     H13902   5.504   2.220  10.632  1.4047 -2.0586 -0.4826
  101MOL0     H13903   5.352   2.157  10.713 -0.4880  0.5066  0.1438
  101MOL0     H13904   5.470   2.360  10.807  4.3465  0.8499 -1.9055
  101MOL0     H13905   5.439   2.227  10.925 -3.3278 -1.5914 -1.7276
  101MOL0     H13906   5.707   2.291  10.777 -0.6035 -0.8912 -0.8064
  101MOL0     H13907   5.685   2.174  10.907  1.5232 -0.5415 -1.8857
  101MOL0     H13908   5.624   2.342  11.045  0.2188 -1.6817 -0.5387
  101MOL0     H13909   5.650   2.466  10.924 -1.2391 -0.8323 -1.2757
  101MOL0     H13910   5.850   2.416  11.100  0.8965 -1.8829  0.5644
  101MOL0     H13911   5.850   2.257  11.008  1.3441 -0.0802  2.4768
  101MOL0     H13912   5.888   2.542  10.887  3.2588  1.0951 -1.0166
  101MOL0     H13913   5.898   2.396  10.792  0.9340 -0.6956 -0.2774
  101MOL0     H13914   6.114   2.427  10.804  1.5069 -2.7522 -0.1751
  101MOL0     H13915   6.098   2.330  10.947  0.6625 -1.1644 -2.3389
  101MOL0     H13916   6.086   2.557  11.081 -1.9071  1.5405 -1.3535
  101MOL0     H13917   6.089   2.637  10.927 -2.4994 -2.3457 -3.5419
  101MOL0     H13918   5.419   1.868  10.550 -0.3950  0.7705  1.3606
  101MOL0     H13919   5.491   1.825  10.339  1.0282 -1.9747  1.6505
  101MOL0     H13920   5.698   2.088   9.984  2.5370 -0.8213  1.6162
  101MOL0     H13921   5.731   2.132   9.769  2.3372  1.1744  1.6234
  101MOL0     H13922   5.081   1.758   8.056 -0.2824  4.2030  1.7672
  101MOL0     H13923   4.990   1.900   7.895 -0.8184 -0.5948  2.1120
  101MOL0     H13924   4.951   2.052   7.516 -2.9696 -0.1631 -2.1311
  101MOL0     H13925   4.823   2.181   7.337  1.6254 -2.6475 -0.8081
  101MOL0     H13926   4.700   2.360   7.197  2.0861 -0.0637 -0.9027
  101MOL0     H13927   4.702   2.400   7.364  0.6059 -0.1445  0.3647
  101MOL0     H13928   4.577   2.547   7.199  0.8825 -3.7139  0.6847
  101MOL0     H13929   4.721   2.620   7.142  0.5369  3.0612  1.7366
  101MOL0     H13930   4.656   2.614   7.437 -1.6328  0.7527  0.9426
  101MOL0     H13931   4.785   2.709   7.355 -0.2236  1.8848 -1.3990
  101MOL0     H13932   4.480   2.782   7.352 -0.9980  3.6729 -3.8736
  101MOL0     H13933   4.603   2.845   7.243 -0.4061 -0.6394 -1.9510
  101MOL0     H13934   4.719   3.034   7.600  1.0257  0.4397  0.1001
  101MOL0     H13935   5.056   2.525   7.421 -1.7682  1.1552  0.5540
  101MOL0     H13936   5.328   2.382   7.547 -0.8397 -0.2426 -1.9198
  101MOL0     H13937   5.225   2.526   7.555  2.4321 -0.4909 -1.1176
  101MOL0     H13938   5.242   2.417   7.695 -0.8346 -2.7310  0.3598
  102MOL0     O13939  11.232   0.092   4.568  0.9502  0.2976  0.3908
  102MOL0     C13940  11.196   0.185   4.489 -0.4784 -0.7864 -0.7910
  102MOL0     O13941  11.238   0.311   4.511  0.2523 -0.9129  0.5755
  102MOL0     C13942  11.334   0.333   4.609  0.4420 -0.8456  0.7027
  102MOL0     C13943  11.304   0.390   4.733  0.2096 -0.0532 -1.1436
  102MOL0     C13944  11.397   0.408   4.830 -0.3028  0.2708 -0.7787
  102MOL0     C13945  11.531   0.389   4.800  1.2826  0.3091 -0.0153
  102MOL0     O13946  11.615   0.415   4.906  0.4627  0.7128 -0.3038
  102MOL0     C13947  11.757   0.431   4.883  0.2856 -0.4124 -1.0816
  102MOL0     C13948  11.826   0.460   5.016  0.2437 -0.7262 -0.3314
  102MOL0     C13949  11.774   0.584   5.068  0.0721  0.5513  0.3534
  102MOL0     C13950  11.857   0.638   5.186 -0.4564 -1.0878  1.1054
  102MOL0     C13951  11.828   0.780   5.241 -0.0276 -0.7626  0.6940
  102MOL0     C13952  11.677   0.793   5.272 -0.6060 -1.0788 -0.0522
  102MOL0     C13953  11.647   0.908   5.365 -0.1666 -0.3067  0.5575
  102MOL0     C13954  11.618   0.849   5.503  0.0839 -0.3865 -0.4584
  102MOL0     N13955  11.732   0.816   5.587  0.9191  0.1761  1.0246
  102MOL0     C13956  11.729   0.715   5.674  0.2465 -1.0467 -0.3823
  102MOL0     C13957  11.855   0.715   5.730  0.4028 -0.5494 -0.2635
  102MOL0     C13958  11.898   0.622   5.849 -0.2402 -0.2635 -0.5643
  102MOL0     C13959  11.956   0.491   5.791 -0.8112 -0.1834  0.1267
  102MOL0     C13960  11.986   0.412   5.916 -0.3440 -0.1843 -0.0810
  102MOL0     C13961  11.872   0.334   5.958 -0.5877  0.4942 -0.1085
  102MOL0     O13962  11.838   0.249   5.851  0.7686  0.5873 -0.7152
  102MOL0     C13963  11.720   0.177   5.871 -0.4363  0.0544 -0.9110
  102MOL0     C13964  11.683   0.093   5.768  0.4892  0.4358 -0.1377
  102MOL0     C13965  11.580   0.005   5.781 -0.7357 -0.9627  0.4140
  102MOL0     C13966  11.543  -0.069   5.662  0.6800 -0.9616 -0.5881
  102MOL0     C13967  11.499  -0.006   5.902 -0.4537 -0.3290  0.2214
  102MOL0     C13968  11.389  -0.096   5.924  0.4402 -0.3158  0.3036
  102MOL0     O13969  11.269  -0.045   5.940 -0.5232 -0.3249 -0.5055
  102MOL0     C13970  11.155  -0.112   5.897  0.4876 -0.1782  1.4035
  102MOL0     C13971  11.148  -0.228   5.809  1.0800  0.8058  0.1648
  102MOL0     C13972  11.016  -0.265   5.762 -0.2886  0.4521  0.3370
  102MOL0     C13973  10.907  -0.209   5.812  0.6486  0.0062 -0.1158
  102MOL0     O13974  10.788  -0.269   5.770  0.6324  0.7270  0.1324
  102MOL0     C13975  10.669  -0.255   5.843  0.8211 -0.8399 -0.7428
  102MOL0     C13976  10.574  -0.368   5.808 -0.3382 -0.2145  0.8382
  102MOL0     C13977  10.476  -0.398   5.925 -0.5777  0.0381  0.2654
  102MOL0     C13978  10.368  -0.291   5.937 -0.3886 -0.0959 -0.5743
  102MOL0     C13979  10.256  -0.359   6.011  0.2517  0.3286 -0.3766
  102MOL0     C13980  10.160  -0.246   6.039 -0.2634  0.1464 -0.7986
  102MOL0     C13981  10.057  -0.297   6.148  0.1692  0.2028  0.5285
  102MOL0     C13982   9.916  -0.249   6.120 -0.5905 -0.5860  0.0972
  102MOL0    Cl13983   9.813  -0.343   6.220 -0.0964 -0.3670 -0.2973
  102MOL0     C13984  10.913  -0.103   5.905  0.2420  0.0639  0.1426
  102MOL0     C13985  11.035  -0.053   5.939  1.0144  0.4076 -0.0074
  102MOL0     O13986  11.416  -0.208   5.912  0.4386 -0.0210 -0.4161
  102MOL0     C13987  11.534   0.084   5.999  0.1021  0.0552 -0.6723
  102MOL0     C13988  11.642   0.175   5.989  0.1049  1.1219  0.1184
  102MOL0     N13989  11.930   0.808   5.666  0.1512 -0.5163 -0.0862
  102MOL0     N13990  11.854   0.875   5.588 -0.7810 -0.0350 -0.0277
  102MOL0     C13991  11.565   0.361   4.672  0.4490  0.1039 -0.1701
  102MOL0     C13992  11.465   0.325   4.573 -0.2228 -0.0494  0.3332
  102MOL0     C13993  11.110   0.163   4.372  1.2386  0.3220  0.2770
  102MOL0     C13994  11.054   0.031   4.371 -0.2397 -0.2051  0.6647
  102MOL0     C13995  10.972  -0.017   4.269 -0.4394 -0.5329  0.3078
  102MOL0     C13996  10.946   0.065   4.157 -0.7273 -0.2877  0.6918
  102MOL0     O13997  10.877   0.009   4.054 -0.7151  0.3751 -0.1122
  102MOL0     C13998  10.891   0.069   3.928 -0.2601  0.3974 -0.7648
  102MOL0     C13999  10.785  -0.010   3.842  1.0456 -0.5398 -0.0690
  102MOL0     C14000  10.643  -0.007   3.914 -0.0900 -1.3575  0.0573
  102MOL0     C14001  10.532   0.017   3.815 -0.5109  0.8522 -0.5750
  102MOL0     C14002  10.498   0.154   3.790  0.8699  0.7213 -0.3696
  102MOL0     C14003  10.478   0.274   3.779 -0.0896  0.0773  0.3727
  102MOL0     C14004  11.003   0.192   4.151  0.3602  0.4343  0.0668
  102MOL0     C14005  11.075   0.243   4.257 -0.2345  1.1216  0.3699
  102MOL0     C14006  11.118   0.390   4.249 -0.3990 -0.3190 -0.6278
  102MOL0     H14007  11.203   0.426   4.746  0.3859  0.9517 -2.3769
  102MOL0     H14008  11.370   0.464   4.920 -0.3692  2.8343 -2.2789
  102MOL0     H14009  11.773   0.510   4.809 -4.5793  2.9902  0.9325
  102MOL0     H14010  11.796   0.338   4.839 -1.6772 -1.0231 -1.6817
  102MOL0     H14011  11.797   0.381   5.087 -0.8165 -0.3255 -0.2914
  102MOL0     H14012  11.933   0.462   4.995 -0.3811  0.1529 -4.0888
  102MOL0     H14013  11.770   0.661   4.991  0.0340 -0.9078 -1.1434
  102MOL0     H14014  11.673   0.550   5.093  0.6657 -1.4136  0.2286
  102MOL0     H14015  11.840   0.575   5.274 -2.9275  1.2693  2.4622
  102MOL0     H14016  11.962   0.635   5.154 -1.1477  1.4501 -1.9591
  102MOL0     H14017  11.858   0.850   5.163 -0.2796  0.9422  2.0794
  102MOL0     H14018  11.898   0.783   5.325  2.0314  0.5214 -0.9790
  102MOL0     H14019  11.642   0.823   5.172  0.7550  3.2983  0.5536
  102MOL0     H14020  11.632   0.706   5.320 -2.4481  1.3402  3.0022
  102MOL0     H14021  11.562   0.972   5.338  0.0032 -1.0203 -1.9238
  102MOL0     H14022  11.735   0.972   5.383 -0.1515 -0.8434  2.5923
  102MOL0     H14023  11.571   0.934   5.554  4.9553  3.6792 -1.8599
  102MOL0     H14024  11.543   0.771   5.486 -1.6868  1.6229 -2.5049
  102MOL0     H14025  11.647   0.647   5.694 -0.1510 -0.5278 -0.2387
  102MOL0     H14026  11.812   0.605   5.915  0.8627 -0.0356  1.0043
  102MOL0     H14027  11.975   0.676   5.905  0.4337 -1.9090  0.1600
  102MOL0     H14028  11.884   0.450   5.720  0.5114 -2.8837  0.2307
  102MOL0     H14029  12.051   0.518   5.744 -0.1375 -0.4331  1.2855
  102MOL0     H14030  12.058   0.333   5.892 -0.6858 -0.5437  0.0651
  102MOL0     H14031  12.015   0.475   6.001 -1.1744 -1.8297  1.5057
  102MOL0     H14032  11.893   0.283   6.053 -0.2521  2.0519  0.6824
  102MOL0     H14033  11.799   0.413   5.975  0.1291  0.9473  0.9265
  102MOL0     H14034  11.747   0.079   5.682  0.4733 -2.9602  0.2828
  102MOL0     H14035  11.514  -0.173   5.681 -5.4248  0.6830  1.2392
  102MOL0     H14036  11.609  -0.056   5.576  0.7649 -2.3451 -0.7598
  102MOL0     H14037  11.450  -0.029   5.620  1.6587  1.8322 -0.3066
  102MOL0     H14038  11.236  -0.277   5.769  0.3437  0.9800 -1.7589
  102MOL0     H14039  11.019  -0.353   5.699  1.3777 -1.4323  2.8738
  102MOL0     H14040  10.675  -0.261   5.952  2.6721  0.5692 -0.7222
  102MOL0     H14041  10.624  -0.160   5.814 -1.2299 -1.4575  0.2163
  102MOL0     H14042  10.516  -0.349   5.717 -0.6418 -3.3519  0.2506
  102MOL0     H14043  10.629  -0.462   5.793 -1.0277 -0.6047  0.7080
  102MOL0     H14044  10.542  -0.399   6.012  0.4968  2.2451 -0.4449
  102MOL0     H14045  10.434  -0.496   5.902  1.4392 -0.7930 -0.0735
  102MOL0     H14046  10.324  -0.260   5.841 -3.8409  0.5334  1.0308
  102MOL0     H14047  10.400  -0.200   5.988 -1.1168 -0.2635  0.2106
  102MOL0     H14048  10.215  -0.444   5.956  2.2393 -0.6160 -0.4776
  102MOL0     H14049  10.301  -0.395   6.104  0.4872  0.7111 -0.3414
  102MOL0     H14050  10.122  -0.206   5.945 -1.6254 -1.5934 -1.0306
  102MOL0     H14051  10.221  -0.166   6.081 -0.2556  0.8113 -2.0203
  102MOL0     H14052  10.095  -0.263   6.245 -3.7138  0.2307  2.2213
  102MOL0     H14053  10.054  -0.406   6.137  2.0806  0.2902 -1.6698
  102MOL0     H14054   9.884  -0.273   6.018  0.2403 -3.1736  0.3950
  102MOL0     H14055   9.904  -0.141   6.135 -1.3038 -0.6557  0.0590
  102MOL0     H14056  10.821  -0.060   5.944 -1.0544 -1.4082 -1.1694
  102MOL0     H14057  11.042   0.026   6.013 -2.3277 -0.5453  1.5106
  102MOL0     H14058  11.472   0.076   6.089  0.3599  0.6293 -0.4386
  102MOL0     H14059  11.659   0.244   6.072  4.1391 -0.9576  1.2495
  102MOL0     H14060  11.669   0.340   4.650  0.4117 -0.4420  0.1465
  102MOL0     H14061  11.502   0.298   4.475  0.4258 -0.0151  0.5615
  102MOL0     H14062  11.072  -0.044   4.447  1.2091 -0.7158 -0.1321
  102MOL0     H14063  10.941  -0.121   4.269 -1.2486 -0.3141 -0.8407
  102MOL0     H14064  10.865   0.174   3.936 -1.7349 -0.0982  2.3279
  102MOL0     H14065  10.992   0.047   3.891 -0.0534 -1.8774  0.8763
  102MOL0     H14066  10.818  -0.111   3.816 -2.8022 -1.8010 -0.6616
  102MOL0     H14067  10.764   0.037   3.745 -1.0599 -2.2565 -0.5273
  102MOL0     H14068  10.628  -0.105   3.961  0.4747 -2.2103 -1.4595
  102MOL0     H14069  10.641   0.059   4.000  1.0324 -1.8918  0.5145
  102MOL0     H14070  10.441  -0.026   3.859 -0.8749 -1.1228 -2.9934
  102MOL0     H14071  10.540  -0.033   3.718 -0.1327  1.5834 -0.9285
  102MOL0     H14072  10.453   0.375   3.755 -0.9387 -0.5748 -1.6989
  102MOL0     H14073  10.995   0.269   4.075 -0.1145 -0.4956 -0.8472
  102MOL0     H14074  11.060   0.455   4.316  1.5871 -0.0180  0.9177
  102MOL0     H14075  11.225   0.413   4.263 -0.6293 -0.1350  1.0321
  102MOL0     H14076  11.088   0.431   4.152 -0.5177 -2.0319 -1.3396
  103MOL0     O14077   3.148   7.227  10.435 -0.1044 -0.5608 -0.2782
  103MOL0     C14078   3.130   7.201  10.550  1.1645  0.4539  0.3534
  103MOL0     O14079   3.053   7.093  10.600  0.7159 -0.8215 -0.1846
  103MOL0     C14080   3.010   6.988  10.514 -0.7397 -0.3757 -0.1115
  103MOL0     C14081   3.087   6.937  10.409 -1.2621  0.0720 -0.0443
  103MOL0     C14082   3.042   6.842  10.316  0.5812  0.6616  0.8635
  103MOL0     C14083   2.918   6.779  10.337 -0.3787  0.2541  0.2745
  103MOL0     O14084   2.885   6.688  10.237  0.0904  0.6405 -0.2591
  103MOL0     C14085   2.761   6.617  10.255 -0.0207  0.6633  0.0813
  103MOL0     C14086   2.761   6.509  10.366  0.1659  0.4566 -0.3515
  103MOL0     C14087   2.750   6.374  10.293  0.0353 -0.6716  0.3119
  103MOL0     C14088   2.887   6.334  10.239 -0.2886 -0.0097 -0.9281
  103MOL0     C14089   2.872   6.211  10.144 -0.3038  0.2998  0.6133
  103MOL0     C14090   2.814   6.085  10.213 -0.3091 -0.0027  0.4645
  103MOL0     C14091   2.745   5.986  10.109 -0.1457  0.8376  0.1610
  103MOL0     C14092   2.711   5.846  10.176  0.3514 -0.1020  0.1384
  103MOL0     N14093   2.818   5.751  10.179 -0.6199 -0.8801  0.9871
  103MOL0     C14094   2.803   5.613  10.180 -0.3845  0.5238  0.4177
  103MOL0     C14095   2.935   5.567  10.199  0.2558  0.4257 -0.4560
  103MOL0     C14096   2.973   5.426  10.197  0.3606 -0.8072  0.3158
  103MOL0     C14097   2.974   5.363  10.058  0.5364 -0.4492  0.1640
  103MOL0     C14098   3.063   5.231  10.046 -0.2875  0.4682 -0.1216
  103MOL0     C14099   3.032   5.160   9.905  0.0845  0.3074  0.6640
  103MOL0     O14100   3.089   5.222   9.790  0.2646  0.2097 -0.3497
  103MOL0     C14101   3.024   5.313   9.718  0.4028  0.5284 -0.0567
  103MOL0     C14102   3.079   5.431   9.682 -0.0777 -0.0429 -0.5139
  103MOL0     C14103   3.025   5.526   9.595  0.0645  0.1699  0.2203
  103MOL0     C14104   3.115   5.652   9.570  0.7830  0.3310 -0.1496
  103MOL0     C14105   2.897   5.493   9.540 -0.3594 -0.0142 -0.1722
  103MOL0     C14106   2.830   5.595   9.448  0.7983 -0.5618 -0.5730
  103MOL0     O14107   2.729   5.534   9.377 -0.3970  0.1305  0.5598
  103MOL0     C14108   2.637   5.609   9.316  1.4367 -1.0289 -0.0175
  103MOL0     C14109   2.647   5.632   9.176 -0.2938 -0.3947 -0.2369
  103MOL0     C14110   2.557   5.724   9.112  0.2142 -0.0877 -0.1236
  103MOL0     C14111   2.468   5.789   9.198 -0.1877 -1.4423 -0.0283
  103MOL0     O14112   2.380   5.884   9.136 -0.2929 -0.0628 -0.7927
  103MOL0     C14113   2.251   5.832   9.097  0.0050 -0.2257 -0.4917
  103MOL0     C14114   2.188   5.932   9.002  0.6949 -1.0090  0.2535
  103MOL0     C14115   2.147   6.060   9.076  0.0466 -0.7429 -1.2729
  103MOL0     C14116   2.046   6.134   8.988 -0.5193 -0.7027  0.3254
  103MOL0     C14117   2.060   6.282   8.972  0.0531 -0.5126  0.1896
  103MOL0     C14118   2.178   6.334   8.892 -0.3028  0.5020 -0.4091
  103MOL0     C14119   2.192   6.297   8.742  0.8501  0.1049 -0.4385
  103MOL0     C14120   2.083   6.324   8.644  0.4563 -0.1635 -0.9282
  103MOL0    Cl14121   2.105   6.484   8.594 -0.4959 -0.8292 -0.3215
  103MOL0     C14122   2.453   5.769   9.336  0.6800 -0.1975  0.7590
  103MOL0     C14123   2.542   5.682   9.396  0.1132 -0.1503 -0.4629
  103MOL0     O14124   2.846   5.717   9.461 -0.1766  0.5704 -0.0638
  103MOL0     C14125   2.846   5.360   9.561 -0.2769  0.8761  0.9946
  103MOL0     C14126   2.906   5.281   9.658 -0.0093 -0.5177 -1.1834
  103MOL0     N14127   3.019   5.673  10.195 -0.2641 -0.0716 -0.0565
  103MOL0     N14128   2.947   5.783  10.191 -0.2342 -0.2824  0.2842
  103MOL0     C14129   2.845   6.817  10.447  0.0482 -1.2565 -0.8023
  103MOL0     C14130   2.888   6.925  10.533 -0.4006  0.9024  0.7221
  103MOL0     C14131   3.196   7.285  10.654  0.2189  0.0979  0.5872
  103MOL0     C14132   3.138   7.268  10.783 -0.4977 -0.3060  0.8529
  103MOL0     C14133   3.181   7.340  10.891  0.2282 -0.1106  0.7881
  103MOL0     C14134   3.270   7.447  10.876  0.7137 -0.0254  1.4333
  103MOL0     O14135   3.270   7.539  10.976  0.6992 -0.9423  0.3416
  103MOL0     C14136   3.401   7.555  11.024 -0.0544  0.2758 -0.6511
  103MOL0     C14137   3.445   7.442  11.123  0.2244 -0.1714 -0.2563
  103MOL0     C14138   3.531   7.505  11.240  0.6074 -0.2573 -0.2297
  103MOL0     C14139   3.456   7.537  11.364 -0.6577 -0.4328 -0.9825
  103MOL0     C14140   3.372   7.658  11.353 -1.2948  0.2443 -0.2747
  103MOL0     C14141   3.315   7.761  11.332  0.9308 -0.7481  0.2633
  103MOL0     C14142   3.340   7.458  10.756 -0.5998  0.7866 -0.2184
  103MOL0     C14143   3.303   7.382  10.642 -0.3130  0.4288 -0.3687
  103MOL0     C14144   3.378   7.393  10.510 -0.2623 -0.6133 -0.5422
  103MOL0     H14145   3.186   6.978  10.388 -0.3342 -2.5291 -1.1156
  103MOL0     H14146   3.100   6.811  10.230 -0.2607 -0.2781  0.6114
  103MOL0     H14147   2.722   6.584  10.158  2.8799 -1.3789 -0.4915
  103MOL0     H14148   2.688   6.693  10.285  0.8395  1.5305  0.0306
  103MOL0     H14149   2.850   6.508  10.430  0.6576 -1.0663 -1.0110
  103MOL0     H14150   2.674   6.515  10.431  0.7232 -1.2744  0.6134
  103MOL0     H14151   2.718   6.300  10.367  2.0731  0.2131  2.1925
  103MOL0     H14152   2.693   6.385  10.201  0.5403 -1.1467 -0.0588
  103MOL0     H14153   2.925   6.414  10.175  0.3132  0.8793  0.4868
  103MOL0     H14154   2.955   6.311  10.322 -2.6770 -2.9905  0.3943
  103MOL0     H14155   2.969   6.183  10.104 -0.3882  0.7942  0.0600
  103MOL0     H14156   2.809   6.234  10.058  3.2206 -0.3056 -2.3250
  103MOL0     H14157   2.900   6.043  10.266  0.5425  0.8726 -0.1726
  103MOL0     H14158   2.735   6.110  10.284 -3.1274 -1.0579 -2.1049
  103MOL0     H14159   2.807   5.969  10.020 -0.5301 -1.5385  0.2762
  103MOL0     H14160   2.653   6.037  10.080 -1.7772 -2.2875 -0.5888
  103MOL0     H14161   2.657   5.856  10.271  0.8388 -3.4951  0.8975
  103MOL0     H14162   2.633   5.802  10.114 -1.4422 -2.5281  3.7472
  103MOL0     H14163   2.711   5.556  10.171 -0.0396 -0.5199  2.7986
  103MOL0     H14164   2.907   5.373  10.265 -2.2826  1.7490 -0.0764
  103MOL0     H14165   3.080   5.421  10.223 -0.2217  0.8454  3.4708
  103MOL0     H14166   2.872   5.341  10.028 -0.5510  2.2802  1.5095
  103MOL0     H14167   3.008   5.431   9.979 -0.5816 -1.0474 -0.8557
  103MOL0     H14168   3.168   5.262  10.050 -0.3152  0.7556 -1.1733
  103MOL0     H14169   3.041   5.162  10.128  0.5470  3.3011  2.6915
  103MOL0     H14170   3.081   5.063   9.905  3.9635  2.0307  2.7046
  103MOL0     H14171   2.923   5.149   9.902 -0.0150  1.3030 -1.0929
  103MOL0     H14172   3.177   5.452   9.724 -0.4138 -3.1114  2.2088
  103MOL0     H14173   3.196   5.656   9.642 -0.3649  0.3819  1.1766
  103MOL0     H14174   3.054   5.741   9.585 -1.2068 -0.7031 -1.6170
  103MOL0     H14175   3.150   5.647   9.466 -1.8011 -1.8908 -1.0396
  103MOL0     H14176   2.731   5.590   9.123  0.4515  1.7364 -0.8390
  103MOL0     H14177   2.547   5.739   9.005  0.2833  1.0053  0.0172
  103MOL0     H14178   2.275   5.738   9.048 -0.2020 -0.7050  0.3009
  103MOL0     H14179   2.194   5.814   9.189  1.1506  2.3327  0.8446
  103MOL0     H14180   2.247   5.968   8.917 -0.0869 -0.8889 -0.2446
  103MOL0     H14181   2.096   5.886   8.963 -1.2732  3.2358 -0.7188
  103MOL0     H14182   2.227   6.131   9.100 -2.2480  1.2855  0.9712
  103MOL0     H14183   2.096   6.034   9.169  2.6348 -1.0965  0.1500
  103MOL0     H14184   1.942   6.122   9.018 -1.3473 -2.8105 -2.8240
  103MOL0     H14185   2.050   6.101   8.883  1.2693  4.9580 -1.7791
  103MOL0     H14186   1.965   6.312   8.926 -1.1504  0.1038  2.9000
  103MOL0     H14187   2.077   6.334   9.067  2.1246 -0.2742 -0.2808
  103MOL0     H14188   2.268   6.292   8.938 -1.6182 -1.0054  0.8739
  103MOL0     H14189   2.185   6.442   8.905 -0.2032  1.0738 -4.1827
  103MOL0     H14190   2.203   6.188   8.745 -1.0621 -0.2600 -3.0502
  103MOL0     H14191   2.288   6.339   8.709  0.3104  0.0882 -2.1195
  103MOL0     H14192   1.979   6.319   8.678 -0.0201 -0.1937 -2.3177
  103MOL0     H14193   2.089   6.257   8.558  1.6094 -0.1067 -0.9000
  103MOL0     H14194   2.373   5.826   9.382  2.9962  3.1637  0.9551
  103MOL0     H14195   2.543   5.657   9.502  0.9200 -1.3764 -0.7415
  103MOL0     H14196   2.754   5.328   9.513  0.4843  0.5000 -0.2499
  103MOL0     H14197   2.844   5.202   9.700 -0.8780  0.6491 -0.1818
  103MOL0     H14198   2.747   6.775  10.465 -0.5802  0.3390 -0.2754
  103MOL0     H14199   2.824   6.959  10.614  0.4048  2.0542  0.9005
  103MOL0     H14200   3.052   7.205  10.803  0.6120 -2.7652 -1.4944
  103MOL0     H14201   3.127   7.325  10.984 -0.4784  1.0622  0.5792
  103MOL0     H14202   3.487   7.564  10.958 -0.8560 -1.1508 -1.9625
  103MOL0     H14203   3.395   7.650  11.079  1.1668 -0.1891  0.3306
  103MOL0     H14204   3.490   7.367  11.057 -0.8117  0.2149 -1.4651
  103MOL0     H14205   3.353   7.406  11.170 -2.1569  2.8411 -2.2675
  103MOL0     H14206   3.625   7.453  11.259  1.3564  1.7754  2.0894
  103MOL0     H14207   3.564   7.602  11.204  0.8977 -0.3367 -0.1812
  103MOL0     H14208   3.532   7.555  11.441  0.7883 -1.5161 -2.1242
  103MOL0     H14209   3.388   7.455  11.390 -3.0772  1.6610 -0.2309
  103MOL0     H14210   3.265   7.854  11.311 -1.9133 -2.3211 -0.5343
  103MOL0     H14211   3.427   7.523  10.763 -0.3396  0.3067  1.2541
  103MOL0     H14212   3.323   7.458  10.441  2.0472  3.8095  1.4115
  103MOL0     H14213   3.479   7.432  10.519  0.3592 -2.4891  1.4839
  103MOL0     H14214   3.384   7.297  10.458 -0.7799  0.6409 -3.0665
  104MOL0     O14215   0.455   3.611   0.831 -0.0665 -0.4927  0.5697
  104MOL0     C14216   0.389   3.669   0.919 -0.1300 -0.5587 -0.2511
  104MOL0     O14217   0.453   3.745   1.018 -0.3069  0.8707  0.2255
  104MOL0     C14218   0.577   3.787   0.986  0.1131 -0.0251  0.5419
  104MOL0     C14219   0.596   3.917   0.942 -0.4880  0.2859 -0.0601
  104MOL0     C14220   0.720   3.970   0.915  0.6672 -0.2204 -0.3396
  104MOL0     C14221   0.835   3.892   0.923 -0.2796 -0.7106  0.1036
  104MOL0     O14222   0.956   3.940   0.880 -0.3725  0.4703  0.2732
  104MOL0     C14223   0.987   4.079   0.881  0.8011  0.5449 -0.3870
  104MOL0     C14224   1.120   4.109   0.826 -0.9864 -1.0698  0.3241
  104MOL0     C14225   1.152   4.056   0.683  0.2865  0.6066  0.3972
  104MOL0     C14226   1.260   4.132   0.603  0.7183  0.1955  0.1859
  104MOL0     C14227   1.398   4.103   0.654  0.1023 -0.3218  0.1817
  104MOL0     C14228   1.501   4.187   0.585  1.1374 -0.3850 -0.9712
  104MOL0     C14229   1.541   4.129   0.455 -0.9256 -0.7361 -0.5057
  104MOL0     C14230   1.624   4.235   0.376 -0.2039  0.0765  1.0066
  104MOL0     N14231   1.739   4.280   0.456  0.4639  0.1050  0.8125
  104MOL0     C14232   1.753   4.397   0.522 -0.2875  0.2435 -0.4054
  104MOL0     C14233   1.860   4.384   0.611 -0.6476  0.1160  0.4441
  104MOL0     C14234   1.879   4.475   0.722  0.6690  0.4632 -0.4401
  104MOL0     C14235   1.791   4.428   0.843  0.8043  0.3898 -0.3263
  104MOL0     C14236   1.739   4.549   0.918  0.1684 -0.9787  0.0687
  104MOL0     C14237   1.627   4.514   1.011 -0.1040 -0.5243  0.0106
  104MOL0     O14238   1.660   4.419   1.113 -0.4086 -0.5776 -0.4057
  104MOL0     C14239   1.578   4.324   1.126  0.3148 -0.5055 -0.2745
  104MOL0     C14240   1.481   4.317   1.231  0.1597  0.0551  0.4225
  104MOL0     C14241   1.390   4.201   1.244 -0.3888 -0.3932  0.5235
  104MOL0     C14242   1.294   4.201   1.354  0.7305 -0.1214 -0.9376
  104MOL0     C14243   1.407   4.096   1.155  0.1162 -0.3950  0.2211
  104MOL0     C14244   1.334   3.964   1.167 -1.3853 -0.2070  0.2659
  104MOL0     O14245   1.393   3.847   1.117  0.6912  0.0046  0.4536
  104MOL0     C14246   1.303   3.756   1.066  0.9791 -1.3420 -0.1021
  104MOL0     C14247   1.232   3.668   1.155 -0.3074  0.0898 -0.0986
  104MOL0     C14248   1.159   3.566   1.101 -0.0386 -0.4053  0.5035
  104MOL0     C14249   1.145   3.548   0.961  0.4920  0.2144 -0.1302
  104MOL0     O14250   1.058   3.455   0.909 -0.1743 -0.5400 -0.5633
  104MOL0     C14251   0.986   3.371   1.000 -0.5230 -0.8118 -0.3285
  104MOL0     C14252   0.898   3.264   0.926  0.5947 -0.1998  0.4554
  104MOL0     C14253   0.984   3.160   0.848 -0.1036 -0.0429 -0.5822
  104MOL0     C14254   1.103   3.103   0.930  0.0488 -0.0904 -0.0409
  104MOL0     C14255   1.177   2.983   0.859 -0.2747  0.3465  0.4598
  104MOL0     C14256   1.287   2.907   0.938  0.8012 -0.9404  0.6276
  104MOL0     C14257   1.323   2.785   0.863  0.0375  0.0159 -0.1283
  104MOL0     C14258   1.455   2.724   0.913 -0.4694  0.0595 -0.4099
  104MOL0    Cl14259   1.478   2.572   0.828 -0.1371 -0.0262  0.0196
  104MOL0     C14260   1.204   3.640   0.871  0.3030  0.1055  0.1612
  104MOL0     C14261   1.295   3.738   0.926  0.6453  0.0597 -0.2589
  104MOL0     O14262   1.217   3.970   1.191  0.9305  0.1248  0.0668
  104MOL0     C14263   1.508   4.095   1.062  0.4286 -1.4496  0.3573
  104MOL0     C14264   1.594   4.209   1.054 -0.5771 -0.3967  1.2982
  104MOL0     N14265   1.908   4.256   0.592  0.8514  1.0932  0.6806
  104MOL0     N14266   1.836   4.191   0.496  0.5043 -0.5664 -0.0714
  104MOL0     C14267   0.824   3.761   0.965  0.1025  0.2183  0.2378
  104MOL0     C14268   0.688   3.701   0.996  0.3590 -0.5532  0.0636
  104MOL0     C14269   0.241   3.672   0.927  0.3997 -0.0429 -0.6892
  104MOL0     C14270   0.190   3.759   1.021 -0.7671 -0.7840  0.2469
  104MOL0     C14271   0.050   3.761   1.045  0.0254  0.3935 -0.2399
  104MOL0     C14272  -0.033   3.685   0.963 -0.3701 -1.0620  0.2443
  104MOL0     O14273  -0.164   3.722   0.980  0.0522  0.8989  0.1135
  104MOL0     C14274  -0.265   3.642   0.913  0.2381 -0.7998  0.0708
  104MOL0     C14275  -0.399   3.693   0.954  0.2141  0.4323  0.8406
  104MOL0     C14276  -0.518   3.601   0.920  0.1672  0.5682 -0.4189
  104MOL0     C14277  -0.522   3.481   1.014  0.1515 -0.1432 -0.2829
  104MOL0     C14278  -0.640   3.395   0.993  0.2524  0.4451 -0.1625
  104MOL0     C14279  -0.723   3.304   0.977  0.4604  0.2877 -0.2808
  104MOL0     C14280   0.024   3.597   0.867  0.4067 -0.0480  0.2341
  104MOL0     C14281   0.157   3.583   0.857  0.0216 -0.6101  0.4242
  104MOL0     C14282   0.203   3.478   0.764 -0.1091 -0.9071  0.3504
  104MOL0     H14283   0.503   3.970   0.925 -0.7743 -0.5889 -1.3924
  104MOL0     H14284   0.709   4.073   0.885 -2.0090 -0.6429 -1.0651
  104MOL0     H14285   0.999   4.116   0.984  1.9312  0.2732 -0.4085
  104MOL0     H14286   0.909   4.126   0.820 -0.1381 -2.2714 -1.4957
  104MOL0     H14287   1.129   4.218   0.822  5.8769 -1.2355 -2.4017
  104MOL0     H14288   1.209   4.074   0.880 -0.1483  1.2362  0.5608
  104MOL0     H14289   1.172   3.948   0.684  1.6500  0.7920 -1.6435
  104MOL0     H14290   1.059   4.064   0.625  1.0530  1.0202 -0.8101
  104MOL0     H14291   1.251   4.110   0.497 -0.3969  3.6734 -0.5458
  104MOL0     H14292   1.236   4.238   0.612 -0.3416 -0.1436  1.8415
  104MOL0     H14293   1.422   3.996   0.646 -1.9007 -0.7745 -0.2195
  104MOL0     H14294   1.404   4.108   0.763  1.6547 -2.2415  0.2641
  104MOL0     H14295   1.469   4.291   0.575  2.4031  0.3928  2.0156
  104MOL0     H14296   1.598   4.195   0.635  1.5035 -0.3704 -1.6693
  104MOL0     H14297   1.449   4.107   0.400 -1.1903  1.9796 -1.2979
  104MOL0     H14298   1.599   4.037   0.467 -1.6802 -1.1807 -0.1860
  104MOL0     H14299   1.660   4.181   0.288 -1.9440 -1.0457  0.9169
  104MOL0     H14300   1.561   4.319   0.347  0.3310  1.5123  3.6498
  104MOL0     H14301   1.679   4.476   0.515 -1.2398 -0.6487 -0.6756
  104MOL0     H14302   1.862   4.580   0.696 -2.3841 -0.1248 -1.1974
  104MOL0     H14303   1.986   4.475   0.745  0.5362  3.4007  0.5665
  104MOL0     H14304   1.712   4.367   0.800  0.4397  0.1462  0.6652
  104MOL0     H14305   1.845   4.364   0.914 -1.2413 -0.7065  0.3288
  104MOL0     H14306   1.818   4.598   0.975  0.0430 -0.2755 -0.3545
  104MOL0     H14307   1.705   4.619   0.841 -0.6587  0.8003  1.9661
  104MOL0     H14308   1.600   4.603   1.069  3.3111 -0.5695  2.0013
  104MOL0     H14309   1.541   4.478   0.954 -1.1553 -0.1967  1.3284
  104MOL0     H14310   1.473   4.408   1.289 -0.6612  1.0234 -1.1356
  104MOL0     H14311   1.194   4.241   1.331  0.7997 -0.6240 -2.2177
  104MOL0     H14312   1.331   4.277   1.423  0.7212 -0.0529 -1.0075
  104MOL0     H14313   1.288   4.103   1.401 -1.5563  1.8963  3.6210
  104MOL0     H14314   1.244   3.686   1.262  3.3008 -1.4981 -0.0963
  104MOL0     H14315   1.113   3.500   1.173  1.8353 -0.9751  1.2538
  104MOL0     H14316   1.055   3.311   1.060  0.1769 -1.1737 -1.4567
  104MOL0     H14317   0.919   3.428   1.065  0.7202 -0.8069  1.0017
  104MOL0     H14318   0.834   3.218   1.002  1.2117 -1.6507  0.1438
  104MOL0     H14319   0.828   3.314   0.859  1.1054 -4.4368 -3.8855
  104MOL0     H14320   1.026   3.196   0.753  2.6259 -0.1791  0.4896
  104MOL0     H14321   0.932   3.072   0.810  2.5462 -0.8438 -2.6611
  104MOL0     H14322   1.057   3.071   1.024  0.4641  3.0801  1.3790
  104MOL0     H14323   1.183   3.177   0.932  0.8110 -0.8937 -0.0833
  104MOL0     H14324   1.100   2.910   0.830 -0.2366 -0.1627  1.6060
  104MOL0     H14325   1.232   3.014   0.769 -0.7876  0.1631  0.0776
  104MOL0     H14326   1.247   2.872   1.034  0.7912  2.6264  2.0808
  104MOL0     H14327   1.367   2.981   0.951  2.2262 -2.4687  0.7714
  104MOL0     H14328   1.336   2.806   0.756  0.3654 -0.1888 -0.1315
  104MOL0     H14329   1.242   2.714   0.884  0.3824 -0.6598 -0.9800
  104MOL0     H14330   1.452   2.698   1.019  1.5112 -2.3114 -0.8316
  104MOL0     H14331   1.546   2.783   0.897 -1.6791  2.4587  1.1072
  104MOL0     H14332   1.207   3.628   0.763  0.3971 -1.2812  0.3053
  104MOL0     H14333   1.359   3.789   0.854 -1.6390  1.5271 -1.3622
  104MOL0     H14334   1.517   4.021   0.984 -0.5443 -0.9329 -0.2668
  104MOL0     H14335   1.676   4.193   0.984 -0.0006 -2.4124  2.3816
  104MOL0     H14336   0.912   3.701   0.981 -1.0189 -1.2004  1.4124
  104MOL0     H14337   0.666   3.617   1.061 -1.7275  0.1450  0.3240
  104MOL0     H14338   0.244   3.830   1.083 -0.4715 -0.1884 -0.6719
  104MOL0     H14339   0.012   3.825   1.124 -0.7754 -0.0596 -0.2498
  104MOL0     H14340  -0.255   3.633   0.805  3.7309  0.0673  0.2194
  104MOL0     H14341  -0.239   3.538   0.935  1.7560 -0.2801  0.8688
  104MOL0     H14342  -0.433   3.789   0.914 -2.4027 -0.5361  0.5867
  104MOL0     H14343  -0.392   3.702   1.063 -0.8116 -1.9687  1.1734
  104MOL0     H14344  -0.609   3.658   0.940  0.5889  2.0788 -2.3911
  104MOL0     H14345  -0.521   3.565   0.816 -0.5259 -1.7891  0.3524
  104MOL0     H14346  -0.536   3.508   1.119 -2.6529  0.0962 -0.6438
  104MOL0     H14347  -0.428   3.428   0.995  2.2185  2.8010  0.9085
  104MOL0     H14348  -0.805   3.236   0.964 -1.8405  3.0068 -0.9639
  104MOL0     H14349  -0.041   3.540   0.801  0.5300  0.9643 -0.7897
  104MOL0     H14350   0.248   3.526   0.677  1.8187 -3.2758 -0.0468
  104MOL0     H14351   0.286   3.431   0.817 -0.4853 -0.4876  1.3329
  104MOL0     H14352   0.131   3.396   0.749 -0.8451  0.0300 -1.7266
  105MOL0     O14353   3.505   1.350   8.513 -0.3165  0.4853  0.1889
  105MOL0     C14354   3.422   1.436   8.530  0.1487 -0.1040  1.0092
  105MOL0     O14355   3.358   1.470   8.647  0.8165 -1.2204 -0.1793
  105MOL0     C14356   3.393   1.388   8.754 -0.3598 -0.6584  0.5435
  105MOL0     C14357   3.328   1.272   8.759  0.6947  0.6026  0.5173
  105MOL0     C14358   3.369   1.174   8.852  0.0391 -1.0728  0.3012
  105MOL0     C14359   3.487   1.194   8.934  0.4406  0.4880 -0.3771
  105MOL0     O14360   3.524   1.092   9.010  0.2972  0.0839  0.9675
  105MOL0     C14361   3.568   1.130   9.134  0.3302 -0.5604 -0.4688
  105MOL0     C14362   3.720   1.113   9.159 -0.1007  0.4292  0.1779
  105MOL0     C14363   3.757   1.005   9.260  0.0010  0.4670  0.0420
  105MOL0     C14364   3.693   0.864   9.252  0.1494 -0.7150  0.7921
  105MOL0     C14365   3.721   0.776   9.374  1.0109  1.2140  0.5031
  105MOL0     C14366   3.672   0.629   9.368  0.8892  0.3537  0.0481
  105MOL0     C14367   3.741   0.544   9.259  0.6050 -0.9911  0.2848
  105MOL0     C14368   3.700   0.392   9.272 -0.0208 -0.8058 -0.2718
  105MOL0     N14369   3.740   0.305   9.161 -0.0107 -0.6441  0.4434
  105MOL0     C14370   3.860   0.252   9.111  0.3800 -0.2349 -0.5309
  105MOL0     C14371   3.822   0.169   9.017  0.2744  0.3700  1.3645
  105MOL0     C14372   3.925   0.113   8.924 -0.3279 -0.9457  0.3580
  105MOL0     C14373   3.981  -0.023   8.965 -0.3185 -0.7777  0.3168
  105MOL0     C14374   3.884  -0.148   8.974  0.4528 -0.5608  1.0830
  105MOL0     C14375   3.928  -0.265   8.884  0.2151 -0.6753 -0.7590
  105MOL0     O14376   3.956  -0.222   8.756 -0.0713  0.4483  0.1461
  105MOL0     C14377   4.028  -0.303   8.665  0.1551 -0.0854 -0.0634
  105MOL0     C14378   4.098  -0.244   8.557  0.5535  0.4524  0.3785
  105MOL0     C14379   4.163  -0.322   8.452 -0.2212 -0.4357 -0.3571
  105MOL0     C14380   4.231  -0.260   8.336 -0.5478 -0.1491 -0.5032
  105MOL0     C14381   4.153  -0.465   8.459 -0.2473 -0.2343  0.0718
  105MOL0     C14382   4.197  -0.570   8.364 -0.2395  0.1528  0.2927
  105MOL0     O14383   4.153  -0.697   8.384 -0.9223 -0.1786  0.2849
  105MOL0     C14384   4.157  -0.785   8.280 -0.0848  0.0199  1.3537
  105MOL0     C14385   4.102  -0.761   8.153  0.0143 -0.4923  0.3031
  105MOL0     C14386   4.107  -0.854   8.047  0.5099 -0.4006 -0.2265
  105MOL0     C14387   4.155  -0.978   8.067  0.8558 -0.4557 -0.3852
  105MOL0     O14388   4.151  -1.063   7.965  0.0707  0.3979 -0.2072
  105MOL0     C14389   4.180  -1.198   7.991  0.6669 -0.4233  0.1720
  105MOL0     C14390   4.151  -1.290   7.874  0.5792  0.7473 -0.8954
  105MOL0     C14391   4.207  -1.244   7.743 -0.2959  0.5577  0.5078
  105MOL0     C14392   4.221  -1.357   7.638 -0.6890  0.9241 -0.3067
  105MOL0     C14393   4.264  -1.302   7.505  0.3502 -0.9758 -1.6428
  105MOL0     C14394   4.401  -1.235   7.495  1.2336  0.7200 -0.0088
  105MOL0     C14395   4.466  -1.254   7.352 -0.7499  0.3806  0.0434
  105MOL0     C14396   4.620  -1.236   7.334  0.2014  0.5673 -0.0384
  105MOL0    Cl14397   4.710  -1.360   7.427  0.0392 -0.0762 -0.0307
  105MOL0     C14398   4.208  -1.004   8.194 -0.3137 -0.0911  0.4517
  105MOL0     C14399   4.208  -0.914   8.297 -0.3382  0.1375  0.1918
  105MOL0     O14400   4.264  -0.533   8.270 -0.7156  0.4293 -0.7313
  105MOL0     C14401   4.065  -0.515   8.556 -0.4031 -0.8041  0.5970
  105MOL0     C14402   4.009  -0.434   8.651 -0.7252 -0.1028 -0.5848
  105MOL0     N14403   3.684   0.168   8.998  0.1505  0.0486 -0.1632
  105MOL0     N14404   3.638   0.242   9.095  0.1498  0.0668 -0.1325
  105MOL0     C14405   3.560   1.313   8.909 -0.0451  0.9565 -0.0401
  105MOL0     C14406   3.509   1.420   8.827  0.4562  0.2688 -0.2194
  105MOL0     C14407   3.371   1.489   8.404 -0.1151 -0.2798 -0.4647
  105MOL0     C14408   3.232   1.533   8.401 -0.2325 -0.7981  0.1683
  105MOL0     C14409   3.175   1.579   8.287 -0.3585  0.4385 -0.0056
  105MOL0     C14410   3.239   1.559   8.161 -0.2487 -0.0152  0.2951
  105MOL0     O14411   3.176   1.615   8.056 -0.7865  0.5024  0.7895
  105MOL0     C14412   3.149   1.542   7.929  0.7879  0.1177 -0.9982
  105MOL0     C14413   3.049   1.438   7.959 -0.3154 -0.4111  0.4177
  105MOL0     C14414   2.910   1.505   7.997 -0.0386 -0.2989  0.4461
  105MOL0     C14415   2.832   1.406   8.062 -0.3700 -0.1070 -0.3840
  105MOL0     C14416   2.855   1.368   8.206  0.0008  0.5725 -0.0434
  105MOL0     C14417   2.884   1.322   8.314 -0.3118  1.3180 -1.8030
  105MOL0     C14418   3.372   1.516   8.156  0.2370  0.4523  0.1479
  105MOL0     C14419   3.444   1.489   8.279 -1.1324 -0.1909 -0.6919
  105MOL0     C14420   3.593   1.473   8.271  0.2605 -0.5187 -0.0459
  105MOL0     H14421   3.266   1.253   8.672  1.2755  0.1087  0.2018
  105MOL0     H14422   3.317   1.081   8.871 -1.2029 -0.3054  0.8129
  105MOL0     H14423   3.513   1.072   9.209 -0.8618  1.4118  0.2753
  105MOL0     H14424   3.546   1.233   9.164 -0.1187  0.0319 -2.6550
  105MOL0     H14425   3.756   1.083   9.061 -4.2022 -0.8752 -1.1305
  105MOL0     H14426   3.774   1.206   9.179  0.8681 -0.0107 -0.3542
  105MOL0     H14427   3.865   0.986   9.249  0.3378  1.0171  2.0176
  105MOL0     H14428   3.746   1.040   9.364  0.1134  1.1339 -0.1635
  105MOL0     H14429   3.589   0.873   9.218  0.4466  1.3107  0.3084
  105MOL0     H14430   3.742   0.811   9.169 -0.9334 -1.1166  0.3856
  105MOL0     H14431   3.666   0.821   9.457 -0.8884  0.5648 -0.3445
  105MOL0     H14432   3.827   0.786   9.398  1.8183 -1.2263 -1.6330
  105MOL0     H14433   3.706   0.577   9.458  1.9505 -1.4508 -1.3087
  105MOL0     H14434   3.564   0.611   9.371  0.3548  3.0851 -0.5685
  105MOL0     H14435   3.848   0.562   9.269  0.6476  2.3937 -3.5872
  105MOL0     H14436   3.727   0.588   9.160  2.5025  0.7663  0.7173
  105MOL0     H14437   3.740   0.351   9.365 -1.7399 -1.0625  0.3782
  105MOL0     H14438   3.591   0.388   9.281  0.1316 -0.8677  2.1262
  105MOL0     H14439   3.961   0.285   9.135 -1.0034  2.7345  1.8588
  105MOL0     H14440   4.005   0.187   8.916  0.6548 -2.1781 -2.0967
  105MOL0     H14441   3.876   0.119   8.826 -2.2090  1.3726  1.3304
  105MOL0     H14442   4.067  -0.039   8.898 -1.7920  1.2278 -2.2767
  105MOL0     H14443   4.014  -0.012   9.068 -5.2242 -0.4966  2.1066
  105MOL0     H14444   3.860  -0.174   9.077 -2.9249  0.0474  0.5477
  105MOL0     H14445   3.789  -0.115   8.932  2.1611  0.2521 -2.6010
  105MOL0     H14446   4.017  -0.318   8.920 -0.9560 -3.5936 -1.8325
  105MOL0     H14447   3.848  -0.340   8.886  2.1027 -2.7979 -1.3547
  105MOL0     H14448   4.093  -0.135   8.558 -0.9309  0.4096  0.4870
  105MOL0     H14449   4.212  -0.153   8.349 -0.2882 -0.3654  2.4851
  105MOL0     H14450   4.181  -0.291   8.245  1.5414  0.4267 -1.9303
  105MOL0     H14451   4.339  -0.277   8.346 -0.1943  2.0058 -0.0158
  105MOL0     H14452   4.052  -0.665   8.142 -0.5499 -0.9950 -2.0787
  105MOL0     H14453   4.061  -0.826   7.953  3.3057  1.8028 -1.0661
  105MOL0     H14454   4.286  -1.207   8.018  1.1477  0.2267 -1.3561
  105MOL0     H14455   4.134  -1.245   8.078  2.7046 -0.7508  1.1351
  105MOL0     H14456   4.187  -1.391   7.897 -0.8740 -0.6203 -4.0142
  105MOL0     H14457   4.042  -1.301   7.865  0.6602  0.3484 -1.4498
  105MOL0     H14458   4.309  -1.206   7.756  0.2168 -0.8322  0.7060
  105MOL0     H14459   4.150  -1.165   7.695  2.5442  2.9357  0.7614
  105MOL0     H14460   4.125  -1.408   7.626 -0.6271  1.3601 -3.5504
  105MOL0     H14461   4.296  -1.431   7.669  0.5015  1.1774 -2.4301
  105MOL0     H14462   4.248  -1.375   7.425  0.9440 -0.5012 -2.2028
  105MOL0     H14463   4.202  -1.217   7.477  2.1358  0.3424 -1.7091
  105MOL0     H14464   4.471  -1.291   7.558  2.2581  0.9455 -0.9106
  105MOL0     H14465   4.410  -1.128   7.514  1.1591  1.2103 -2.4354
  105MOL0     H14466   4.422  -1.182   7.282  0.5642  2.7866  1.5366
  105MOL0     H14467   4.439  -1.356   7.322 -0.4601  0.4997 -0.6385
  105MOL0     H14468   4.645  -1.139   7.378  1.3012  0.7344 -0.9834
  105MOL0     H14469   4.638  -1.228   7.227 -4.2838  4.4127 -0.7914
  105MOL0     H14470   4.248  -1.101   8.223 -1.0609 -0.4439  0.3395
  105MOL0     H14471   4.268  -0.937   8.384  1.6323 -1.0778 -1.4051
  105MOL0     H14472   4.030  -0.615   8.536  1.6541 -1.1394 -1.7907
  105MOL0     H14473   3.925  -0.476   8.706  0.6558 -0.6869  1.1718
  105MOL0     H14474   3.651   1.343   8.960 -0.2010  1.7544 -0.2244
  105MOL0     H14475   3.560   1.515   8.836  0.4802  0.0582  3.8049
  105MOL0     H14476   3.171   1.532   8.491  0.6323  2.0589  0.9078
  105MOL0     H14477   3.074   1.619   8.284 -0.8336 -0.7567 -0.5505
  105MOL0     H14478   3.109   1.610   7.853 -1.5033  2.3835  2.0049
  105MOL0     H14479   3.235   1.486   7.891 -1.9664 -4.1499 -1.7037
  105MOL0     H14480   3.093   1.374   8.036  0.4881  0.7925  1.0034
  105MOL0     H14481   3.039   1.379   7.868 -1.9937  0.4728 -0.0035
  105MOL0     H14482   2.927   1.586   8.068  1.5411  0.4725 -0.7609
  105MOL0     H14483   2.878   1.562   7.910 -0.3699  3.9854  3.1199
  105MOL0     H14484   2.849   1.317   8.000  2.2914 -1.0944  1.5589
  105MOL0     H14485   2.727   1.436   8.062 -0.5738 -0.4362  3.0694
  105MOL0     H14486   2.876   1.280   8.413 -0.9680  0.2782 -2.2815
  105MOL0     H14487   3.418   1.517   8.058 -0.3117 -2.7610 -0.2353
  105MOL0     H14488   3.631   1.371   8.259 -0.0372 -0.8786  1.7329
  105MOL0     H14489   3.648   1.532   8.198  1.1721 -0.7203  0.4550
  105MOL0     H14490   3.636   1.515   8.363 -1.7226 -0.2171  0.8137
  106MOL0     O14491   4.756   6.006   0.413 -0.0125 -0.3391 -0.5581
  106MOL0     C14492   4.771   6.123   0.426 -0.2990 -0.1116  0.1701
  106MOL0     O14493   4.804   6.212   0.330  0.1092  0.0207  0.3330
  106MOL0     C14494   4.836   6.192   0.199 -0.2963  0.8891 -0.0698
  106MOL0     C14495   4.820   6.297   0.117  0.0964  0.3173  0.4603
  106MOL0     C14496   4.849   6.283  -0.021  0.8546 -1.0215 -0.4395
  106MOL0     C14497   4.880   6.165  -0.077 -0.9819 -0.3751  0.2758
  106MOL0     O14498   4.903   6.168  -0.214  0.8127 -0.0382  0.8419
  106MOL0     C14499   4.891   6.037  -0.283 -0.1224 -0.0039  0.1929
  106MOL0     C14500   4.892   6.077  -0.435 -0.2370  1.0743  0.5720
  106MOL0     C14501   5.032   6.079  -0.498  0.5659  0.7882  0.0619
  106MOL0     C14502   5.110   6.185  -0.414 -0.2783 -1.4844  0.1503
  106MOL0     C14503   5.226   6.238  -0.506  0.6799  0.1141 -0.2353
  106MOL0     C14504   5.345   6.141  -0.484  0.7063 -0.2084  0.6133
  106MOL0     C14505   5.480   6.185  -0.541  0.4322  0.2277  0.4977
  106MOL0     C14506   5.526   6.320  -0.492  0.1537 -0.7118  0.1533
  106MOL0     N14507   5.656   6.348  -0.547  0.3107 -0.3689  0.1250
  106MOL0     C14508   5.778   6.304  -0.497 -0.2496 -0.6033 -0.1685
  106MOL0     C14509   5.875   6.380  -0.570  0.2074  0.8249 -0.1542
  106MOL0     C14510   6.018   6.369  -0.538 -0.5078  1.5035 -0.1144
  106MOL0     C14511   6.063   6.491  -0.455 -1.6518  0.2433 -0.2242
  106MOL0     C14512   6.103   6.606  -0.553  0.5108  0.7757 -0.1848
  106MOL0     C14513   6.153   6.732  -0.481 -0.1905 -1.0619  0.8242
  106MOL0     O14514   6.274   6.780  -0.516  0.1172 -0.2938 -0.6746
  106MOL0     C14515   6.341   6.888  -0.458 -0.4406  0.2605 -1.2400
  106MOL0     C14516   6.315   6.945  -0.336 -0.8786 -0.5466 -0.8085
  106MOL0     C14517   6.404   7.046  -0.289  0.3952  0.1842  0.0503
  106MOL0     C14518   6.375   7.080  -0.139  0.2329  0.3324  0.0452
  106MOL0     C14519   6.526   7.082  -0.355 -0.1480  0.1887 -0.6814
  106MOL0     C14520   6.622   7.186  -0.315  0.4756 -0.6347 -0.0376
  106MOL0     O14521   6.705   7.243  -0.414  0.2645  0.0395 -0.8677
  106MOL0     C14522   6.785   7.343  -0.364 -0.6410  0.5868 -0.0510
  106MOL0     C14523   6.917   7.330  -0.390 -0.6653 -1.7106  0.1714
  106MOL0     C14524   7.011   7.434  -0.348  0.3808  0.3146 -0.2005
  106MOL0     C14525   6.958   7.554  -0.295  0.8461  0.2015  0.5659
  106MOL0     O14526   7.037   7.665  -0.272  0.3496 -0.0715  0.2382
  106MOL0     C14527   7.148   7.651  -0.179  0.2909  0.6311 -0.5050
  106MOL0     C14528   7.112   7.584  -0.041 -0.3534 -0.3148  0.8719
  106MOL0     C14529   7.236   7.537   0.029  0.2003  0.0100 -0.3000
  106MOL0     C14530   7.202   7.488   0.176  0.6666  0.7881  0.4092
  106MOL0     C14531   7.318   7.504   0.275 -1.2664  0.2165  0.0612
  106MOL0     C14532   7.334   7.650   0.315 -0.7762 -0.8181 -0.1225
  106MOL0     C14533   7.430   7.674   0.432  0.3967 -0.1403 -0.4916
  106MOL0     C14534   7.445   7.819   0.464  0.4186  0.1114  0.2336
  106MOL0    Cl14535   7.317   7.886   0.578  0.0971  0.1426  0.2674
  106MOL0     C14536   6.814   7.564  -0.284  0.2049  0.0453  0.1939
  106MOL0     C14537   6.735   7.462  -0.322  0.1813 -0.5569  0.7139
  106MOL0     O14538   6.634   7.193  -0.189 -0.6372 -0.0156 -0.2010
  106MOL0     C14539   6.545   7.013  -0.474  0.1647  0.5367  0.7073
  106MOL0     C14540   6.452   6.929  -0.530 -0.3961 -0.1303 -0.7139
  106MOL0     N14541   5.806   6.470  -0.653  0.6876  0.1689  1.0234
  106MOL0     N14542   5.672   6.447  -0.637  0.5019 -0.6348  0.5544
  106MOL0     C14543   4.899   6.051   0.009 -0.1814  0.9231 -1.2010
  106MOL0     C14544   4.869   6.064   0.144  0.1917 -0.9064 -0.1120
  106MOL0     C14545   4.744   6.173   0.569 -0.2703 -0.4707 -0.2924
  106MOL0     C14546   4.690   6.095   0.667  0.7480  0.4964  0.7580
  106MOL0     C14547   4.649   6.140   0.794 -0.3235 -0.6949  0.1617
  106MOL0     C14548   4.687   6.269   0.832  0.1378  0.0721  0.7692
  106MOL0     O14549   4.683   6.328   0.966 -0.1745  0.3329  0.9483
  106MOL0     C14550   4.580   6.281   1.044 -0.8929 -0.1922 -0.2619
  106MOL0     C14551   4.559   6.370   1.165  0.5172 -0.8209 -0.7706
  106MOL0     C14552   4.566   6.525   1.139 -0.3959 -0.1501  1.0436
  106MOL0     C14553   4.524   6.610   1.263  0.0908 -0.3081 -0.8044
  106MOL0     C14554   4.609   6.583   1.376  0.3562  0.1524 -0.4280
  106MOL0     C14555   4.667   6.533   1.470 -0.2767  0.5628 -0.1265
  106MOL0     C14556   4.732   6.358   0.736  0.2070  0.8307 -0.2677
  106MOL0     C14557   4.753   6.306   0.608 -0.5551 -1.9045 -0.7260
  106MOL0     C14558   4.821   6.410   0.515 -0.3000  0.7131  0.4935
  106MOL0     H14559   4.812   6.398   0.157  0.0322  0.1141  0.9765
  106MOL0     H14560   4.846   6.377  -0.076 -0.8658 -0.6591  0.2219
  106MOL0     H14561   4.797   5.991  -0.253 -0.9674 -0.2551 -2.6058
  106MOL0     H14562   4.975   5.975  -0.249  1.3453  2.8302  2.2071
  106MOL0     H14563   4.828   6.013  -0.497  1.6466  0.7935 -1.1779
  106MOL0     H14564   4.862   6.182  -0.433  0.2653  1.4608 -3.2748
  106MOL0     H14565   5.089   5.986  -0.487 -0.8711  0.0195  1.4806
  106MOL0     H14566   5.021   6.107  -0.603  1.6966  3.3313  0.5216
  106MOL0     H14567   5.062   6.282  -0.402  1.3918 -0.2754 -2.1369
  106MOL0     H14568   5.147   6.138  -0.322 -1.2761 -0.6014  1.0189
  106MOL0     H14569   5.234   6.343  -0.476 -3.7966  0.3058  1.1400
  106MOL0     H14570   5.201   6.245  -0.612  2.5233  4.3307 -0.5903
  106MOL0     H14571   5.367   6.123  -0.378  1.8428 -1.4819  0.1901
  106MOL0     H14572   5.326   6.044  -0.532  1.4488 -0.1555  0.1895
  106MOL0     H14573   5.477   6.174  -0.650 -2.0125 -2.4673  0.7206
  106MOL0     H14574   5.557   6.110  -0.521 -2.0928 -2.2048  1.7591
  106MOL0     H14575   5.459   6.398  -0.529  0.2954 -1.2096 -1.2024
  106MOL0     H14576   5.518   6.337  -0.384 -1.9620 -0.0766 -0.0586
  106MOL0     H14577   5.793   6.232  -0.417 -3.0176 -0.0020  1.0271
  106MOL0     H14578   6.077   6.341  -0.625  0.8900 -3.5439  2.0847
  106MOL0     H14579   6.030   6.283  -0.470 -0.9307  2.2866  0.9882
  106MOL0     H14580   5.990   6.524  -0.381 -1.0042 -1.0300  1.0216
  106MOL0     H14581   6.154   6.461  -0.403 -2.2591 -1.3708 -0.0639
  106MOL0     H14582   6.182   6.570  -0.619 -0.5122 -0.4705 -0.7921
  106MOL0     H14583   6.014   6.628  -0.612  2.6982  3.5563 -2.7106
  106MOL0     H14584   6.072   6.806  -0.489  0.2399 -0.7519 -1.3329
  106MOL0     H14585   6.170   6.703  -0.377  2.4500  0.4850  0.8996
  106MOL0     H14586   6.221   6.923  -0.287  1.6951 -1.7220  4.2267
  106MOL0     H14587   6.294   7.014  -0.107 -0.7300  1.0665 -0.8086
  106MOL0     H14588   6.335   7.181  -0.141 -3.0133 -0.8495 -0.4640
  106MOL0     H14589   6.468   7.067  -0.083  1.4977 -1.0069 -2.2182
  106MOL0     H14590   6.953   7.244  -0.444  1.7928 -0.6635 -0.0116
  106MOL0     H14591   7.116   7.409  -0.359  0.5809  1.0541 -0.0084
  106MOL0     H14592   7.217   7.581  -0.229 -1.4108 -1.5517  0.0494
  106MOL0     H14593   7.203   7.744  -0.163  0.5942  0.1397  1.6473
  106MOL0     H14594   7.081   7.665   0.026  3.3342  1.4169  0.7344
  106MOL0     H14595   7.031   7.511  -0.049 -1.6253  0.7669  2.9708
  106MOL0     H14596   7.320   7.606   0.016  1.4898 -0.9109  2.4657
  106MOL0     H14597   7.265   7.448  -0.029 -0.8516  0.0796 -0.9502
  106MOL0     H14598   7.174   7.382   0.170  2.8298  0.0151  2.4079
  106MOL0     H14599   7.117   7.540   0.221  0.9843  1.0487  0.7094
  106MOL0     H14600   7.279   7.451   0.362 -2.8574  1.3259  0.0627
  106MOL0     H14601   7.417   7.468   0.244 -0.0866  2.4291  1.0288
  106MOL0     H14602   7.237   7.690   0.347 -0.8440 -0.7150 -0.4536
  106MOL0     H14603   7.374   7.705   0.230  0.9340 -3.1620 -0.9476
  106MOL0     H14604   7.529   7.636   0.409 -0.2290 -1.3859 -1.2068
  106MOL0     H14605   7.393   7.627   0.524  0.0158 -0.5636 -0.8567
  106MOL0     H14606   7.444   7.881   0.374  0.7731 -1.7559 -1.1211
  106MOL0     H14607   7.544   7.827   0.512  0.2412 -1.2184  0.8643
  106MOL0     H14608   6.768   7.655  -0.247 -3.9294 -2.6970  2.6190
  106MOL0     H14609   6.627   7.450  -0.318 -0.2843  2.0528 -1.1849
  106MOL0     H14610   6.625   7.050  -0.538 -0.6979  1.8456  0.3441
  106MOL0     H14611   6.456   6.902  -0.635  1.4499 -0.5682 -0.5556
  106MOL0     H14612   4.925   5.949  -0.018  4.1333  0.8913  1.9415
  106MOL0     H14613   4.872   5.975   0.205 -0.8676 -0.0699  1.2210
  106MOL0     H14614   4.662   5.992   0.643 -0.5115  1.0137 -0.1239
  106MOL0     H14615   4.617   6.066   0.867  2.7963 -0.4506  1.9585
  106MOL0     H14616   4.483   6.269   0.995 -1.1102 -1.6861  0.4731
  106MOL0     H14617   4.604   6.177   1.066  0.0266 -0.1787 -1.1315
  106MOL0     H14618   4.629   6.336   1.241  0.2570 -2.9383 -1.4173
  106MOL0     H14619   4.458   6.338   1.193  0.4878 -3.7751 -3.6762
  106MOL0     H14620   4.666   6.547   1.101 -0.6001  0.2802  0.7387
  106MOL0     H14621   4.507   6.555   1.052 -1.2150  0.0800  1.6612
  106MOL0     H14622   4.420   6.590   1.289  0.1854  2.3554  2.0849
  106MOL0     H14623   4.521   6.716   1.237  1.8875 -0.9337 -4.3055
  106MOL0     H14624   4.694   6.474   1.554 -0.0884  0.2596 -0.3989
  106MOL0     H14625   4.777   6.450   0.771  0.1217  0.7820 -0.0274
  106MOL0     H14626   4.923   6.379   0.493  0.2474  3.0492 -0.5622
  106MOL0     H14627   4.765   6.422   0.421 -0.4011 -3.1137 -0.1002
  106MOL0     H14628   4.825   6.508   0.562  0.0354  0.8177  0.2525
  107MOL0     O14629   7.413   1.181   5.352  0.4182  0.0731  0.7295
  107MOL0     C14630   7.441   1.073   5.399  0.7749 -0.0567 -0.5999
  107MOL0     O14631   7.492   0.971   5.335  0.2229 -0.8338  0.5120
  107MOL0     C14632   7.538   0.983   5.212  0.0431 -0.2704 -0.5009
  107MOL0     C14633   7.659   1.041   5.190  0.3895  0.7645 -0.5566
  107MOL0     C14634   7.716   1.029   5.059  1.3762  0.3832 -0.1992
  107MOL0     C14635   7.653   0.945   4.959  1.5219 -0.4082  0.2646
  107MOL0     O14636   7.731   0.934   4.848 -0.4854  0.4612 -0.4310
  107MOL0     C14637   7.687   0.869   4.735  0.5749  0.6712 -0.1404
  107MOL0     C14638   7.714   0.718   4.741 -0.3702  0.5377 -1.0205
  107MOL0     C14639   7.869   0.683   4.736  0.6674 -0.6941  0.2698
  107MOL0     C14640   7.915   0.540   4.714 -0.4803  0.5715 -0.1538
  107MOL0     C14641   8.069   0.528   4.730  1.0067  0.2437  0.4756
  107MOL0     C14642   8.140   0.445   4.625 -0.4257 -0.5432  1.2821
  107MOL0     C14643   8.299   0.457   4.648 -0.0130 -0.0400 -0.2163
  107MOL0     C14644   8.369   0.581   4.568 -0.0064  0.5876 -0.4556
  107MOL0     N14645   8.326   0.587   4.421 -0.0672  0.6078 -0.1949
  107MOL0     C14646   8.327   0.497   4.315 -0.4743 -0.5537  0.2183
  107MOL0     C14647   8.333   0.565   4.203  1.5997 -0.7177 -0.0486
  107MOL0     C14648   8.341   0.506   4.063 -0.7476 -0.2376  0.4805
  107MOL0     C14649   8.453   0.547   3.968  0.4558  0.1043 -0.6773
  107MOL0     C14650   8.599   0.503   4.027  0.8042  0.1188 -0.1880
  107MOL0     C14651   8.717   0.560   3.945  0.1830  0.2632 -0.5842
  107MOL0     O14652   8.695   0.542   3.803  0.2763  0.3884 -0.5575
  107MOL0     C14653   8.688   0.410   3.757 -0.3879 -0.1290 -0.6302
  107MOL0     C14654   8.738   0.297   3.829 -0.1995  0.9293 -0.7481
  107MOL0     C14655   8.748   0.172   3.767  0.4568  0.1985 -0.9174
  107MOL0     C14656   8.797   0.060   3.852 -1.1591  0.3516 -0.8314
  107MOL0     C14657   8.685   0.158   3.639 -0.1069 -0.0812  0.2770
  107MOL0     C14658   8.680   0.025   3.570  0.1046 -0.6447  0.2025
  107MOL0     O14659   8.588   0.020   3.469  0.2920 -0.4728 -0.7854
  107MOL0     C14660   8.571  -0.105   3.400 -0.0755  0.6508  0.2164
  107MOL0     C14661   8.616  -0.106   3.271  0.2564 -0.2112 -0.5709
  107MOL0     C14662   8.614  -0.225   3.192 -0.0159 -0.8374 -0.7180
  107MOL0     C14663   8.561  -0.339   3.245 -0.2478 -0.7099  0.3208
  107MOL0     O14664   8.541  -0.444   3.156 -0.1079  0.2923 -0.8245
  107MOL0     C14665   8.425  -0.526   3.189  0.3520 -0.4880  0.0133
  107MOL0     C14666   8.403  -0.618   3.072 -0.3263  0.5633 -0.0819
  107MOL0     C14667   8.328  -0.553   2.954 -1.2799  0.3367 -0.3749
  107MOL0     C14668   8.434  -0.488   2.858  0.3178 -0.5911  0.3763
  107MOL0     C14669   8.419  -0.328   2.841  0.6324  0.2334 -0.2988
  107MOL0     C14670   8.420  -0.290   2.691 -0.0633  0.7733  0.6021
  107MOL0     C14671   8.402  -0.148   2.651 -1.2979 -0.1768 -0.4061
  107MOL0     C14672   8.504  -0.049   2.719 -0.5280 -0.7825  0.6874
  107MOL0    Cl14673   8.476   0.101   2.634  0.2344  0.1034 -0.2364
  107MOL0     C14674   8.519  -0.338   3.382  0.5705 -0.5356  0.8240
  107MOL0     C14675   8.516  -0.214   3.456  0.2673 -0.1006  0.3036
  107MOL0     O14676   8.758  -0.061   3.606 -0.3178  0.0545 -0.4240
  107MOL0     C14677   8.622   0.264   3.584 -0.4602  0.4729  0.7215
  107MOL0     C14678   8.630   0.394   3.640  0.5775  0.6531  0.0858
  107MOL0     N14679   8.315   0.697   4.237  0.6265 -0.5863 -0.3578
  107MOL0     N14680   8.316   0.707   4.360 -0.0264  0.2370 -0.4909
  107MOL0     C14681   7.520   0.904   4.982  0.4608 -0.2109  0.2671
  107MOL0     C14682   7.468   0.915   5.117  1.1161 -0.4232 -0.2159
  107MOL0     C14683   7.419   1.049   5.545 -0.2782  0.2679  0.8437
  107MOL0     C14684   7.519   0.960   5.606  0.9241 -0.2345 -1.2540
  107MOL0     C14685   7.509   0.930   5.744  0.3986  0.0701  1.1417
  107MOL0     C14686   7.394   0.971   5.813  0.0188  0.0660 -0.6815
  107MOL0     O14687   7.371   0.900   5.930 -0.1840  0.1452  0.3782
  107MOL0     C14688   7.227   0.877   5.946 -0.8666  0.3020 -0.0179
  107MOL0     C14689   7.198   0.751   6.035  1.0299 -0.1228  0.3720
  107MOL0     C14690   7.048   0.709   6.027  0.1725  0.4165 -0.1779
  107MOL0     C14691   7.011   0.590   6.119 -0.6914 -0.1037  0.6865
  107MOL0     C14692   6.864   0.572   6.140 -0.8735  0.3685  0.2038
  107MOL0     C14693   6.747   0.550   6.157 -0.3505  0.4042  0.8163
  107MOL0     C14694   7.312   1.081   5.763  0.2503  0.4660  0.3339
  107MOL0     C14695   7.329   1.119   5.627  1.5989 -0.6651 -0.2144
  107MOL0     C14696   7.236   1.229   5.575 -0.2375 -0.3553 -1.6543
  107MOL0     H14697   7.712   1.086   5.274  1.7919 -3.1352  0.8491
  107MOL0     H14698   7.812   1.075   5.039 -0.1269  3.0069 -2.0536
  107MOL0     H14699   7.740   0.908   4.647 -0.0043  0.1254 -0.7376
  107MOL0     H14700   7.581   0.890   4.719  0.1979  0.8589  2.1873
  107MOL0     H14701   7.667   0.683   4.833  0.4811  0.3524 -0.6459
  107MOL0     H14702   7.660   0.682   4.652  1.4626 -0.4359 -1.7888
  107MOL0     H14703   7.909   0.744   4.655 -1.8489  0.7165 -0.0089
  107MOL0     H14704   7.904   0.722   4.833 -3.0042  4.5221 -0.1132
  107MOL0     H14705   7.860   0.477   4.783 -0.0598 -0.8744 -1.0940
  107MOL0     H14706   7.885   0.511   4.613 -2.1489 -0.4533  0.5943
  107MOL0     H14707   8.087   0.491   4.831  2.8928  1.3085  0.5863
  107MOL0     H14708   8.111   0.629   4.728  0.7825  0.3712  1.5891
  107MOL0     H14709   8.120   0.339   4.646  0.3317 -0.7265  1.0992
  107MOL0     H14710   8.113   0.471   4.522  0.0723  0.3759  1.3743
  107MOL0     H14711   8.333   0.365   4.600  0.1169  1.8374 -4.1067
  107MOL0     H14712   8.321   0.464   4.755 -2.4606 -0.7647  0.4131
  107MOL0     H14713   8.346   0.681   4.606  1.0470  0.8536 -0.4769
  107MOL0     H14714   8.478   0.573   4.576 -0.0246  0.8775  0.1592
  107MOL0     H14715   8.341   0.390   4.305 -0.8969 -0.7920  1.9288
  107MOL0     H14716   8.245   0.524   4.015 -0.5094 -0.2471 -0.0101
  107MOL0     H14717   8.354   0.402   4.093  1.8503  0.5868  2.6326
  107MOL0     H14718   8.441   0.492   3.874  2.6862 -1.6816  0.0112
  107MOL0     H14719   8.452   0.656   3.952  2.4277  0.1340 -0.8414
  107MOL0     H14720   8.610   0.555   4.123  0.9115  2.2035 -1.2962
  107MOL0     H14721   8.601   0.396   4.049 -1.7432  0.7029  4.0537
  107MOL0     H14722   8.736   0.664   3.975  1.0391  0.5671 -2.0567
  107MOL0     H14723   8.810   0.510   3.974  1.6331  1.9253 -2.0678
  107MOL0     H14724   8.774   0.305   3.930  0.4141  0.0653 -0.8849
  107MOL0     H14725   8.806   0.108   3.950 -3.2936  2.7573 -1.7183
  107MOL0     H14726   8.897   0.024   3.826  0.3927  0.7078  3.7468
  107MOL0     H14727   8.718  -0.016   3.850 -0.1696 -0.7007 -1.7589
  107MOL0     H14728   8.655  -0.010   3.237 -1.5737  0.9471  0.4158
  107MOL0     H14729   8.649  -0.228   3.090  4.1726 -1.8519  0.5271
  107MOL0     H14730   8.443  -0.584   3.280 -0.9237 -0.7733  0.1061
  107MOL0     H14731   8.335  -0.466   3.207  1.4780  1.0107  0.9223
  107MOL0     H14732   8.485  -0.685   3.047 -0.9393 -0.7902  1.3573
  107MOL0     H14733   8.320  -0.683   3.103 -1.6888  2.0946 -0.3478
  107MOL0     H14734   8.256  -0.475   2.980 -1.0612  1.0412 -1.7829
  107MOL0     H14735   8.265  -0.618   2.893 -1.1769  0.7652 -0.9464
  107MOL0     H14736   8.413  -0.533   2.760  0.9312  1.6405 -0.8596
  107MOL0     H14737   8.533  -0.526   2.884  0.9463  0.4536 -0.3873
  107MOL0     H14738   8.323  -0.300   2.885 -1.5863 -2.3285 -3.1429
  107MOL0     H14739   8.499  -0.279   2.898 -1.7959  2.5042  1.4649
  107MOL0     H14740   8.335  -0.344   2.648 -0.0243  0.6746  0.6501
  107MOL0     H14741   8.514  -0.331   2.653 -0.0919 -0.6403  1.9653
  107MOL0     H14742   8.302  -0.114   2.678 -0.0528  1.8879  1.9458
  107MOL0     H14743   8.401  -0.138   2.542 -6.0211  2.9758 -0.3544
  107MOL0     H14744   8.604  -0.085   2.695 -0.8775 -2.9164  2.1461
  107MOL0     H14745   8.488  -0.051   2.828  0.1609 -3.0566  0.8004
  107MOL0     H14746   8.458  -0.416   3.425 -1.4988  1.6980  2.2134
  107MOL0     H14747   8.476  -0.210   3.557 -0.4105 -3.3759  0.2701
  107MOL0     H14748   8.577   0.248   3.487  2.5190  0.3865 -0.7539
  107MOL0     H14749   8.610   0.483   3.583  2.4157  0.9820 -0.1059
  107MOL0     H14750   7.453   0.856   4.911  1.6061 -0.4005 -0.7180
  107MOL0     H14751   7.369   0.873   5.134 -1.6969  4.0688 -3.2643
  107MOL0     H14752   7.585   0.912   5.535  2.7574  1.2829 -0.6353
  107MOL0     H14753   7.572   0.857   5.792  1.4038  1.0067  1.2901
  107MOL0     H14754   7.179   0.963   5.994  1.3194  0.5063  2.0136
  107MOL0     H14755   7.188   0.855   5.846 -0.0061 -2.9329  0.2449
  107MOL0     H14756   7.215   0.758   6.143 -1.7103 -3.7676  1.2214
  107MOL0     H14757   7.257   0.668   5.995  1.0002 -1.0088  2.0895
  107MOL0     H14758   6.996   0.794   6.073  1.8912  0.4418  1.8944
  107MOL0     H14759   7.021   0.676   5.927  0.5494 -0.3883 -0.0169
  107MOL0     H14760   7.068   0.589   6.212 -0.2540 -3.6888  0.5496
  107MOL0     H14761   7.042   0.503   6.060 -1.8658  0.1493 -0.3400
  107MOL0     H14762   6.642   0.535   6.140 -0.5904  3.2314 -0.8524
  107MOL0     H14763   7.228   1.125   5.816 -0.2983  1.4127 -1.2640
  107MOL0     H14764   7.191   1.203   5.478 -1.4182 -0.4963 -1.0870
  107MOL0     H14765   7.149   1.237   5.641  1.2399 -2.0634  0.6642
  107MOL0     H14766   7.288   1.324   5.564  1.6120 -0.9792  0.6424
  108MOL0     O14767   2.804   1.133   9.765 -0.3582 -0.2895  0.1303
  108MOL0     C14768   2.926   1.129   9.745 -0.0940 -0.5290 -0.6020
  108MOL0     O14769   3.023   1.124   9.840 -1.1456 -0.2485 -0.0372
  108MOL0     C14770   3.005   1.098   9.974 -0.0081 -0.3902  0.4507
  108MOL0     C14771   3.049   1.193  10.071 -1.4522  0.5964  0.0744
  108MOL0     C14772   3.034   1.159  10.203  0.7645 -0.5732  0.4740
  108MOL0     C14773   2.974   1.051  10.247  0.1084  0.6923  0.0703
  108MOL0     O14774   2.956   1.037  10.381  0.1375  0.2606 -0.1338
  108MOL0     C14775   2.854   0.944  10.420  0.7822  0.2749  0.3618
  108MOL0     C14776   2.818   0.968  10.574  1.3270  1.0099  0.5393
  108MOL0     C14777   2.929   0.930  10.663  0.0543  1.1834  0.5612
  108MOL0     C14778   2.876   0.947  10.807 -0.7862 -0.7065 -0.4315
  108MOL0     C14779   2.990   0.892  10.898  0.4551  0.8502 -0.4426
  108MOL0     C14780   2.949   0.897  11.045  0.4014  1.2700 -0.7575
  108MOL0     C14781   3.043   0.825  11.137 -0.7534 -0.0199  0.6645
  108MOL0     C14782   2.987   0.845  11.276  0.6547  0.5839 -0.1395
  108MOL0     N14783   3.049   0.770  11.381  0.6977 -0.3567 -0.3178
  108MOL0     C14784   3.167   0.807  11.435 -0.0352 -0.3688  0.3376
  108MOL0     C14785   3.168   0.740  11.555  0.5739 -0.1852 -0.0868
  108MOL0     C14786   3.286   0.746  11.653 -0.7085 -0.8265 -0.5699
  108MOL0     C14787   3.387   0.619  11.652 -0.1168  0.0001 -0.1651
  108MOL0     C14788   3.455   0.595  11.510  0.5077  0.4231 -0.5822
  108MOL0     C14789   3.514   0.450  11.495  0.2464  0.0675  0.2043
  108MOL0     O14790   3.563   0.426  11.363  0.1348  0.5772 -0.5485
  108MOL0     C14791   3.683   0.481  11.334 -1.0062  0.3405  0.5379
  108MOL0     C14792   3.771   0.553  11.414  0.4222  0.3602 -0.5404
  108MOL0     C14793   3.886   0.610  11.367  0.3178  0.3971 -0.2003
  108MOL0     C14794   3.971   0.685  11.467  0.4957 -0.2854  0.4007
  108MOL0     C14795   3.913   0.589  11.227 -0.3995  0.4813  1.2639
  108MOL0     C14796   4.040   0.636  11.170  0.2383 -0.0292  0.1715
  108MOL0     O14797   4.079   0.568  11.060  0.0513 -0.6312 -0.2760
  108MOL0     C14798   4.208   0.551  11.033  0.0705  0.1314  1.3567
  108MOL0     C14799   4.312   0.572  11.124  0.2138 -0.3314  0.2822
  108MOL0     C14800   4.442   0.572  11.082  0.0882 -0.5800  0.3893
  108MOL0     C14801   4.470   0.546  10.950  0.3438  0.5338  2.0052
  108MOL0     O14802   4.597   0.555  10.902  0.4718  0.2120 -0.7661
  108MOL0     C14803   4.624   0.699  10.874  0.1190 -0.9157  0.6932
  108MOL0     C14804   4.759   0.705  10.827  0.1498 -0.2410  0.8322
  108MOL0     C14805   4.774   0.684  10.675 -0.7081  0.1780  0.2632
  108MOL0     C14806   4.890   0.758  10.626  1.5855  0.4407  0.8006
  108MOL0     C14807   4.930   0.713  10.482 -0.8679  0.4421 -0.4615
  108MOL0     C14808   4.807   0.713  10.380  0.2076 -0.3296 -0.1181
  108MOL0     C14809   4.707   0.843  10.383  1.2231  0.7256 -0.2939
  108MOL0     C14810   4.585   0.826  10.277 -0.7889  0.1690  0.4603
  108MOL0    Cl14811   4.463   0.695  10.324 -0.0372  0.3028  0.3838
  108MOL0     C14812   4.367   0.510  10.859  0.6407  0.2975 -0.1621
  108MOL0     C14813   4.238   0.513  10.905  0.8742  0.1664 -0.8009
  108MOL0     O14814   4.091   0.742  11.200  0.1334  0.2173  0.2651
  108MOL0     C14815   3.827   0.514  11.132 -0.1205 -0.4003  0.5310
  108MOL0     C14816   3.710   0.463  11.189  0.7457 -0.5330 -0.4681
  108MOL0     N14817   3.053   0.665  11.570  0.4063  0.1918 -0.9978
  108MOL0     N14818   2.973   0.702  11.470 -0.1619 -0.2124  0.0148
  108MOL0     C14819   2.948   0.947  10.154  0.0196 -0.0454 -0.1720
  108MOL0     C14820   2.947   0.977  10.021 -0.7004  0.1201 -0.2744
  108MOL0     C14821   2.975   1.151   9.603  0.4922  0.5180  0.4996
  108MOL0     C14822   2.893   1.116   9.497  0.8119 -1.0796 -0.3870
  108MOL0     C14823   2.946   1.127   9.369 -0.0440 -0.4850 -0.2216
  108MOL0     C14824   3.068   1.190   9.346 -0.3063 -0.1366  0.2041
  108MOL0     O14825   3.099   1.215   9.211  0.1490  0.9254  0.2911
  108MOL0     C14826   3.215   1.303   9.169  0.2116  0.7800 -0.1538
  108MOL0     C14827   3.165   1.446   9.136 -0.3959  0.0507 -0.2126
  108MOL0     C14828   3.090   1.442   9.003 -0.3012  0.2829 -0.0502
  108MOL0     C14829   3.099   1.567   8.905 -0.7400  0.8737 -0.9866
  108MOL0     C14830   3.054   1.528   8.773 -0.1601  0.0325  0.1736
  108MOL0     C14831   2.992   1.489   8.677 -0.2827 -0.0435  0.2680
  108MOL0     C14832   3.150   1.231   9.448 -0.4028 -0.5519 -0.2678
  108MOL0     C14833   3.107   1.200   9.577  0.4671 -0.4460 -0.2235
  108MOL0     C14834   3.206   1.260   9.689  0.0465  0.6144  0.2043
  108MOL0     H14835   3.109   1.281  10.049  1.8211 -1.4025  0.2385
  108MOL0     H14836   3.069   1.229  10.280 -0.1417 -0.2852  0.6359
  108MOL0     H14837   2.877   0.841  10.390  0.7671  0.2179  0.5461
  108MOL0     H14838   2.762   0.972  10.370  1.5354 -0.9972 -1.8661
  108MOL0     H14839   2.804   1.072  10.602  2.3785  1.5475 -0.8123
  108MOL0     H14840   2.730   0.906  10.593  1.3880  0.1935 -1.5150
  108MOL0     H14841   2.953   0.824  10.649 -3.0635  0.5559 -0.7816
  108MOL0     H14842   3.017   0.993  10.642  1.5444 -0.7189  0.7642
  108MOL0     H14843   2.856   1.052  10.831  2.9235 -0.2464  1.2624
  108MOL0     H14844   2.784   0.889  10.817 -0.5783 -0.9496  0.1105
  108MOL0     H14845   3.086   0.945  10.890  0.9751  0.0417  0.1652
  108MOL0     H14846   3.010   0.787  10.874 -4.1424 -0.7132  1.5382
  108MOL0     H14847   2.940   1.002  11.071  5.7398  1.8582 -0.2445
  108MOL0     H14848   2.845   0.869  11.063  0.2102  2.0829 -0.5761
  108MOL0     H14849   3.143   0.870  11.130  0.4643 -2.6836 -0.1299
  108MOL0     H14850   3.041   0.721  11.105 -0.0879 -0.0882  0.8211
  108MOL0     H14851   2.991   0.951  11.304  1.3024  0.2138  1.2906
  108MOL0     H14852   2.878   0.834  11.274  0.6395 -0.3438  2.3624
  108MOL0     H14853   3.243   0.881  11.410 -0.1752 -0.5384 -0.6057
  108MOL0     H14854   3.232   0.754  11.748  0.0022  2.7606 -0.3073
  108MOL0     H14855   3.335   0.842  11.636 -2.0371 -0.1189 -0.5515
  108MOL0     H14856   3.461   0.627  11.732 -1.7009  1.5606  1.2403
  108MOL0     H14857   3.325   0.530  11.666 -0.5730  0.3774  0.2711
  108MOL0     H14858   3.372   0.604  11.439 -0.7486 -0.7605  0.6623
  108MOL0     H14859   3.533   0.668  11.489  0.8922 -0.0992 -0.9860
  108MOL0     H14860   3.594   0.439  11.568  1.8551  2.3986 -1.0851
  108MOL0     H14861   3.430   0.380  11.509 -0.5780  1.2022  1.1377
  108MOL0     H14862   3.750   0.558  11.520  0.3362  1.3292 -0.5961
  108MOL0     H14863   3.961   0.788  11.432 -0.4468 -0.6962 -0.5911
  108MOL0     H14864   4.080   0.672  11.464  0.7216  1.4201 -1.5728
  108MOL0     H14865   3.925   0.677  11.566 -1.6856  3.2436 -0.1593
  108MOL0     H14866   4.303   0.597  11.229 -2.8697 -4.4911  1.3226
  108MOL0     H14867   4.516   0.606  11.153 -3.6104  2.3053  3.3245
  108MOL0     H14868   4.550   0.745  10.808  0.1453  2.4154  2.7444
  108MOL0     H14869   4.612   0.754  10.968 -0.2537  3.0211 -1.4576
  108MOL0     H14870   4.786   0.812  10.827 -2.4011  0.5775 -2.6015
  108MOL0     H14871   4.839   0.648  10.875 -0.0249 -0.5740  0.7243
  108MOL0     H14872   4.687   0.702  10.610  1.4960 -0.1887 -3.0330
  108MOL0     H14873   4.797   0.579  10.659 -0.2197  0.6547 -2.8418
  108MOL0     H14874   4.973   0.747  10.696  0.4081 -5.4188  1.7646
  108MOL0     H14875   4.873   0.866  10.620  0.9192  0.4622  2.4073
  108MOL0     H14876   4.993   0.789  10.435  0.8489 -0.8545 -0.3561
  108MOL0     H14877   4.983   0.617  10.482 -0.4545  0.6102  1.9398
  108MOL0     H14878   4.736   0.634  10.407 -2.1555  2.1811  1.5811
  108MOL0     H14879   4.855   0.692  10.285  0.2984  0.2365 -0.2013
  108MOL0     H14880   4.763   0.926  10.339 -0.9756  1.9949 -0.8344
  108MOL0     H14881   4.668   0.870  10.482 -1.1487 -0.1009 -0.9533
  108MOL0     H14882   4.645   0.781  10.198 -1.2252 -1.6702  1.1429
  108MOL0     H14883   4.545   0.923  10.246 -2.2278 -0.3780  0.5399
  108MOL0     H14884   4.374   0.487  10.753 -1.4250 -1.8527  0.0896
  108MOL0     H14885   4.152   0.503  10.840  1.6487 -2.1592 -1.5708
  108MOL0     H14886   3.840   0.504  11.025 -0.6590 -2.0007  0.5973
  108MOL0     H14887   3.639   0.411  11.126 -0.1785 -1.2526  1.0889
  108MOL0     H14888   2.914   0.848  10.180  1.2187 -0.7362 -1.1738
  108MOL0     H14889   2.911   0.910   9.944 -1.6010 -2.4089  2.1896
  108MOL0     H14890   2.801   1.061   9.512  0.4796 -0.2112  0.9000
  108MOL0     H14891   2.897   1.087   9.281  3.5781 -1.7625 -1.8654
  108MOL0     H14892   3.295   1.303   9.244 -1.1340  0.3744  1.3369
  108MOL0     H14893   3.265   1.259   9.082 -3.1537 -2.8441 -0.5438
  108MOL0     H14894   3.250   1.513   9.123  0.8157 -1.8736 -3.4592
  108MOL0     H14895   3.100   1.479   9.217  2.0250 -2.8477  3.2829
  108MOL0     H14896   3.114   1.350   8.950  2.1547 -0.1432  1.6445
  108MOL0     H14897   2.986   1.450   9.038  0.4299  1.9397  1.9191
  108MOL0     H14898   3.203   1.601   8.903  0.4082 -2.2625 -0.1454
  108MOL0     H14899   3.029   1.647   8.930  0.3897  2.4021 -2.4707
  108MOL0     H14900   2.933   1.452   8.596  0.7498 -2.2265  0.4386
  108MOL0     H14901   3.248   1.274   9.429 -1.7906  3.3833  0.5923
  108MOL0     H14902   3.152   1.325   9.759 -0.8977 -1.4595  1.4992
  108MOL0     H14903   3.256   1.183   9.749  1.3615  1.8393  0.7300
  108MOL0     H14904   3.287   1.317   9.645  0.1431  1.2291  1.1437
  109MOL0     O14905   4.821   6.455   4.042  0.1301 -0.6109 -0.0007
  109MOL0     C14906   4.752   6.474   3.941  0.3314 -0.1303 -0.4866
  109MOL0     O14907   4.770   6.574   3.851 -0.7406 -0.0803  0.5499
  109MOL0     C14908   4.850   6.673   3.903  0.0197 -0.6569 -0.3197
  109MOL0     C14909   4.993   6.665   3.896 -0.1891 -0.4824 -0.5806
  109MOL0     C14910   5.071   6.767   3.943 -0.1534  0.4448  0.0970
  109MOL0     C14911   5.022   6.888   3.987  0.9798  0.6934  0.6255
  109MOL0     O14912   5.115   6.977   4.034 -0.3803  0.6569  0.2896
  109MOL0     C14913   5.066   7.054   4.147  0.1513 -0.2064 -0.5053
  109MOL0     C14914   5.183   7.100   4.231  0.3551  0.0170 -0.5859
  109MOL0     C14915   5.287   7.176   4.137  1.0058  0.8897  0.0338
  109MOL0     C14916   5.418   7.232   4.214  0.6609  0.1128 -0.5275
  109MOL0     C14917   5.507   7.111   4.249 -0.0765 -0.4340  0.4996
  109MOL0     C14918   5.622   7.186   4.318 -0.6620  0.6881 -0.9885
  109MOL0     C14919   5.722   7.086   4.370 -0.7100 -1.5767 -0.2026
  109MOL0     C14920   5.824   7.155   4.455  0.5519  0.8286 -0.3680
  109MOL0     N14921   5.916   7.245   4.381  0.4458 -0.4681  0.8784
  109MOL0     C14922   6.026   7.204   4.317  0.4809  0.3778  0.2991
  109MOL0     C14923   6.061   7.307   4.232  0.0832  0.0724 -0.5054
  109MOL0     C14924   6.181   7.309   4.137 -0.0710  0.3381  0.7243
  109MOL0     C14925   6.136   7.259   3.994  0.7194 -0.1056  0.4091
  109MOL0     C14926   6.036   7.349   3.922 -0.4881  0.4384 -1.0515
  109MOL0     C14927   6.089   7.481   3.884  0.3069  0.2475 -0.6259
  109MOL0     O14928   5.982   7.536   3.797  0.2523 -0.1678 -0.4412
  109MOL0     C14929   5.996   7.486   3.665  0.6161 -1.8391  0.4506
  109MOL0     C14930   6.114   7.471   3.593  0.3360  0.0075  1.1301
  109MOL0     C14931   6.107   7.444   3.453  0.4990  0.1585 -0.6756
  109MOL0     C14932   6.239   7.472   3.385 -0.3199 -0.2784 -0.1981
  109MOL0     C14933   5.989   7.401   3.390 -0.3880  0.0785 -0.1423
  109MOL0     C14934   5.979   7.365   3.244  0.6742  0.5301 -0.4196
  109MOL0     O14935   6.083   7.308   3.179 -0.4901 -0.2886 -0.2248
  109MOL0     C14936   6.087   7.354   3.047 -0.7446 -0.2063  0.4190
  109MOL0     C14937   6.118   7.484   3.002  0.3847 -0.3345 -0.2016
  109MOL0     C14938   6.117   7.523   2.871  0.2280 -0.9278 -0.6655
  109MOL0     C14939   6.105   7.430   2.781 -0.7506 -1.2458  0.3121
  109MOL0     O14940   6.109   7.488   2.654 -0.8778  0.7608  0.2993
  109MOL0     C14941   6.110   7.394   2.540 -0.1254 -0.0476 -0.8102
  109MOL0     C14942   6.069   7.455   2.406 -0.0038 -0.4697 -0.4814
  109MOL0     C14943   6.162   7.573   2.370 -1.0154  0.7356 -1.1125
  109MOL0     C14944   6.091   7.662   2.274  0.2964 -0.1976  0.0793
  109MOL0     C14945   6.178   7.779   2.242  0.4527 -0.2410  1.0372
  109MOL0     C14946   6.106   7.887   2.159 -0.4688  0.1352 -0.2052
  109MOL0     C14947   6.157   8.028   2.185 -0.7048  0.0503 -0.2411
  109MOL0     C14948   6.100   8.137   2.090  0.1162  1.4845 -0.6896
  109MOL0    Cl14949   6.120   8.303   2.137 -0.1660 -0.3681 -0.7327
  109MOL0     C14950   6.099   7.292   2.811 -0.5136 -0.4997  0.7473
  109MOL0     C14951   6.082   7.259   2.950  0.2053  0.2828 -0.0667
  109MOL0     O14952   5.887   7.415   3.189 -0.0792 -0.4662  0.1367
  109MOL0     C14953   5.875   7.401   3.468  0.3182 -0.1343 -0.1563
  109MOL0     C14954   5.874   7.445   3.602 -0.8920 -0.3359  0.6893
  109MOL0     N14955   5.971   7.411   4.251  0.3254  0.1491  0.2095
  109MOL0     N14956   5.882   7.374   4.340 -0.5192  0.2411  0.8796
  109MOL0     C14957   4.880   6.900   3.990  1.2727 -0.2280  0.1584
  109MOL0     C14958   4.793   6.800   3.945 -0.1613  0.0183 -0.4612
  109MOL0     C14959   4.640   6.382   3.913 -0.7168  0.2692 -0.0088
  109MOL0     C14960   4.546   6.420   3.815 -0.0625 -0.2747  0.3727
  109MOL0     C14961   4.445   6.348   3.769  1.0638 -0.0403  0.0662
  109MOL0     C14962   4.426   6.216   3.818  0.6101  0.1816  0.1854
  109MOL0     O14963   4.328   6.134   3.776  0.1047  0.0101  0.2008
  109MOL0     C14964   4.357   6.055   3.665  0.5475 -0.3146  0.2624
  109MOL0     C14965   4.226   5.990   3.620 -0.3478  0.2107  0.2598
  109MOL0     C14966   4.107   6.089   3.630 -1.5922 -0.0592 -0.2899
  109MOL0     C14967   3.976   6.037   3.548  0.2927  0.1325  0.2406
  109MOL0     C14968   3.933   6.115   3.433 -0.4889 -0.2547 -0.2912
  109MOL0     C14969   3.923   6.198   3.337 -0.4684  0.0233  0.1007
  109MOL0     C14970   4.512   6.172   3.910 -0.2766 -0.6580 -0.1006
  109MOL0     C14971   4.624   6.248   3.957  0.3029 -0.2415 -0.6966
  109MOL0     C14972   4.710   6.199   4.067  0.1199  0.4225 -0.3264
  109MOL0     H14973   5.037   6.568   3.875  3.0355  1.4168 -3.9125
  109MOL0     H14974   5.178   6.756   3.956  0.5121  2.9898 -2.1786
  109MOL0     H14975   4.996   7.002   4.214  1.1757  1.4780  2.0398
  109MOL0     H14976   5.017   7.143   4.107  2.1994  1.8286  1.2126
  109MOL0     H14977   5.164   7.158   4.322  1.1332 -0.9740  0.2391
  109MOL0     H14978   5.233   7.007   4.261  2.6266  1.1916 -0.4879
  109MOL0     H14979   5.316   7.094   4.070 -0.3301  1.2178 -0.9734
  109MOL0     H14980   5.229   7.257   4.092 -2.4532 -1.4852 -0.1197
  109MOL0     H14981   5.477   7.290   4.143  1.9308 -2.5316 -1.7636
  109MOL0     H14982   5.383   7.286   4.302 -0.3156 -1.1737 -0.0842
  109MOL0     H14983   5.546   7.067   4.157 -1.6941  1.9663 -1.4933
  109MOL0     H14984   5.446   7.048   4.314 -0.6169  1.6700  2.1761
  109MOL0     H14985   5.669   7.252   4.245  4.0028  2.9605  3.4386
  109MOL0     H14986   5.596   7.251   4.402 -1.1018 -0.2293 -0.3882
  109MOL0     H14987   5.780   7.049   4.285  1.1058  0.1683  0.2077
  109MOL0     H14988   5.675   7.005   4.426 -0.9072 -0.1820  1.7677
  109MOL0     H14989   5.770   7.215   4.529  2.5120  1.9941  0.1904
  109MOL0     H14990   5.880   7.078   4.510  1.8847 -0.7094 -3.6284
  109MOL0     H14991   6.072   7.105   4.320 -1.0081 -0.4943 -2.2610
  109MOL0     H14992   6.266   7.249   4.170 -1.7465 -1.6908  1.6308
  109MOL0     H14993   6.216   7.410   4.117  3.7675 -1.1105 -0.6363
  109MOL0     H14994   6.224   7.250   3.930 -1.7163  0.4967 -3.2874
  109MOL0     H14995   6.093   7.160   4.008  0.3996  0.1131  0.9988
  109MOL0     H14996   5.998   7.284   3.842  0.8396 -0.0199 -1.3258
  109MOL0     H14997   5.946   7.370   3.981  1.2076  0.3479  1.7441
  109MOL0     H14998   6.077   7.545   3.972 -0.6987 -1.5632  0.6249
  109MOL0     H14999   6.194   7.484   3.854  1.2576  1.6817  2.4300
  109MOL0     H15000   6.208   7.495   3.642  0.5095  1.5272  0.1139
  109MOL0     H15001   6.268   7.575   3.406  0.0794  0.1914 -2.7245
  109MOL0     H15002   6.233   7.471   3.276 -2.9817 -0.2023 -0.1334
  109MOL0     H15003   6.313   7.394   3.405 -2.5342 -3.0512 -2.0389
  109MOL0     H15004   6.132   7.568   3.069 -0.6377  1.4989 -2.1759
  109MOL0     H15005   6.126   7.625   2.834  2.0034 -1.9685 -3.3971
  109MOL0     H15006   6.208   7.351   2.520  1.0046  2.5715 -1.3296
  109MOL0     H15007   6.032   7.320   2.559 -1.0746  0.6187 -1.9717
  109MOL0     H15008   6.064   7.390   2.318  0.7586  1.1281 -1.7687
  109MOL0     H15009   5.964   7.482   2.420 -0.0529 -0.3991 -0.9775
  109MOL0     H15010   6.252   7.538   2.319 -0.2296 -3.2656  2.4085
  109MOL0     H15011   6.193   7.617   2.465 -1.2103  1.3429 -1.3270
  109MOL0     H15012   6.002   7.705   2.321  0.6257 -0.4037  0.9116
  109MOL0     H15013   6.050   7.606   2.190 -3.1389 -2.5600  3.0153
  109MOL0     H15014   6.210   7.820   2.338  0.9326  0.8309  0.4414
  109MOL0     H15015   6.273   7.743   2.201  2.2118  1.7745  3.1100
  109MOL0     H15016   6.000   7.898   2.184 -0.2167 -0.1738  1.0535
  109MOL0     H15017   6.110   7.869   2.051 -1.0263  2.9546 -0.7727
  109MOL0     H15018   6.266   8.029   2.174 -0.6260  0.3987  0.4850
  109MOL0     H15019   6.132   8.063   2.286 -3.6239  1.4702 -1.3466
  109MOL0     H15020   5.992   8.128   2.080 -0.0380  2.2618  0.2115
  109MOL0     H15021   6.145   8.113   1.993  3.9748 -0.2317  1.2575
  109MOL0     H15022   6.104   7.215   2.735  1.7298  0.5891 -0.3094
  109MOL0     H15023   6.072   7.151   2.963  4.3046 -0.2743 -0.2218
  109MOL0     H15024   5.787   7.352   3.429  0.7635 -0.9140 -0.2000
  109MOL0     H15025   5.775   7.443   3.646 -0.7229  1.9640  1.2979
  109MOL0     H15026   4.836   6.996   4.018  0.0186  0.0018 -2.3751
  109MOL0     H15027   4.690   6.833   3.956  0.5540  3.0660 -1.6562
  109MOL0     H15028   4.559   6.519   3.771 -0.4658 -1.1634 -1.8709
  109MOL0     H15029   4.376   6.384   3.693  1.2845  1.0692  0.3750
  109MOL0     H15030   4.399   6.111   3.582 -1.3505  1.2699  0.2765
  109MOL0     H15031   4.432   5.984   3.700  3.5219  2.6818  0.4598
  109MOL0     H15032   4.207   5.897   3.675 -0.7011 -0.4939 -1.0061
  109MOL0     H15033   4.237   5.952   3.518  3.4771 -0.8871  0.9253
  109MOL0     H15034   4.087   6.090   3.738  1.7816  0.4783  0.4296
  109MOL0     H15035   4.129   6.187   3.588 -0.1056 -1.2655 -2.5494
  109MOL0     H15036   3.889   6.056   3.612  0.0186 -0.1249 -0.0549
  109MOL0     H15037   3.994   5.932   3.524 -0.0538  0.6410 -2.5940
  109MOL0     H15038   3.912   6.283   3.272  0.2579  1.3720  1.6643
  109MOL0     H15039   4.497   6.074   3.953 -0.1173 -0.2061  1.0183
  109MOL0     H15040   4.815   6.206   4.039  0.1657  1.6087  0.0947
  109MOL0     H15041   4.687   6.254   4.158  0.6513 -0.5219  0.3900
  109MOL0     H15042   4.682   6.098   4.098  2.3959  0.2447  1.3118
  110MOL0     O15043   3.174   4.989  10.548  0.4870  0.1939 -0.3218
  110MOL0     C15044   3.087   4.932  10.603 -0.9164 -0.3290  0.7401
  110MOL0     O15045   3.089   4.892  10.727  0.6984 -0.3636  0.6845
  110MOL0     C15046   3.200   4.923  10.810 -0.4154 -0.2185  0.1146
  110MOL0     C15047   3.278   4.819  10.865 -0.3063  0.9783  0.0855
  110MOL0     C15048   3.388   4.846  10.957  0.0329 -0.0885  0.0304
  110MOL0     C15049   3.417   4.986  10.988 -0.3125  0.1179 -0.4950
  110MOL0     O15050   3.525   5.016  11.070 -0.5385 -0.6927 -0.3957
  110MOL0     C15051   3.524   4.960  11.205  0.8604 -0.7462 -0.5477
  110MOL0     C15052   3.624   5.025  11.314 -0.2091  0.8216  0.0802
  110MOL0     C15053   3.587   4.960  11.451 -0.0977 -0.0504  0.6305
  110MOL0     C15054   3.686   5.004  11.557 -0.6126  0.0301 -0.0906
  110MOL0     C15055   3.669   4.930  11.694 -0.2322  0.6574 -0.3985
  110MOL0     C15056   3.572   4.998  11.791 -0.8535  0.5270 -0.0219
  110MOL0     C15057   3.424   4.999  11.746  0.4725  0.4545  0.6123
  110MOL0     C15058   3.332   5.025  11.874  1.3424  0.5408  0.1356
  110MOL0     N15059   3.185   5.025  11.841  0.2553  0.0115  0.2971
  110MOL0     C15060   3.112   4.906  11.821  1.6040 -0.4588 -0.5218
  110MOL0     C15061   2.983   4.953  11.790  0.6291  0.0868 -0.0285
  110MOL0     C15062   2.869   4.864  11.771  0.1975  0.4532  0.1091
  110MOL0     C15063   2.772   4.911  11.657  0.1170  1.1591  0.1119
  110MOL0     C15064   2.686   5.024  11.697  0.0873 -0.9949 -0.1599
  110MOL0     C15065   2.538   4.988  11.723 -0.1837 -0.1930 -0.7679
  110MOL0     O15066   2.522   4.924  11.853  0.2709 -0.0997 -0.0329
  110MOL0     C15067   2.394   4.937  11.902 -0.1533  0.7910  0.2861
  110MOL0     C15068   2.378   4.868  12.019 -0.7378 -0.4745  0.5973
  110MOL0     C15069   2.256   4.854  12.092  0.1559  0.3693 -0.2050
  110MOL0     C15070   2.251   4.745  12.197 -0.5179 -0.1929 -0.5877
  110MOL0     C15071   2.136   4.909  12.034  1.4474 -1.0245  0.7097
  110MOL0     C15072   2.005   4.909  12.099  0.6864  1.1842  0.7136
  110MOL0     O15073   2.000   4.934  12.232  0.2808  0.1097 -0.2521
  110MOL0     C15074   1.888   4.988  12.292 -0.1151  0.5381  0.3390
  110MOL0     C15075   1.811   5.090  12.238  0.6371 -0.0447 -0.2594
  110MOL0     C15076   1.712   5.150  12.312 -0.5011  0.0269 -0.8785
  110MOL0     C15077   1.671   5.089  12.439  0.1962  0.7259  1.0698
  110MOL0     O15078   1.562   5.131  12.514 -0.2122 -0.2352  0.3281
  110MOL0     C15079   1.433   5.145  12.448  0.8850 -0.2374 -0.0708
  110MOL0     C15080   1.336   5.228  12.540  1.0285 -0.1179  0.0864
  110MOL0     C15081   1.318   5.151  12.673 -0.2194  0.7716  0.0679
  110MOL0     C15082   1.203   5.198  12.766  0.5794  0.1033  0.0348
  110MOL0     C15083   1.203   5.102  12.888  0.0115 -0.5241  0.0708
  110MOL0     C15084   1.076   5.129  12.970 -0.3595  0.2643 -0.3391
  110MOL0     C15085   1.053   5.271  13.028  0.2726  0.9659  0.5887
  110MOL0     C15086   0.939   5.358  12.971 -0.3547  0.8196  0.6732
  110MOL0    Cl15087   0.958   5.513  13.069  0.0598  0.3864  0.2556
  110MOL0     C15088   1.750   4.981  12.488 -0.5582 -0.8085  0.4281
  110MOL0     C15089   1.861   4.942  12.416 -0.5667 -0.0189  0.3973
  110MOL0     O15090   1.907   4.871  12.037 -0.5182  0.5838 -0.5151
  110MOL0     C15091   2.144   4.963  11.904  0.2576  0.2509 -0.4957
  110MOL0     C15092   2.271   4.981  11.839 -0.7056 -0.1084 -0.1601
  110MOL0     N15093   2.989   5.091  11.778 -1.0851 -0.1537 -0.4240
  110MOL0     N15094   3.106   5.130  11.810  0.1861 -1.0704 -0.8135
  110MOL0     C15095   3.333   5.084  10.933  0.1151 -0.0103  0.0451
  110MOL0     C15096   3.230   5.053  10.846 -0.1159  0.2429 -0.5133
  110MOL0     C15097   2.958   4.904  10.537 -0.3809  0.0683  0.4234
  110MOL0     C15098   2.885   4.793  10.586  0.1194 -0.2266 -0.2585
  110MOL0     C15099   2.770   4.757  10.516  0.7438 -0.0362 -0.2367
  110MOL0     C15100   2.728   4.810  10.403  0.5311 -0.0023 -0.5000
  110MOL0     O15101   2.629   4.739  10.337  0.3633  0.3418  0.0500
  110MOL0     C15102   2.582   4.782  10.213  0.2873 -0.6659  0.4986
  110MOL0     C15103   2.688   4.740  10.108 -0.2475  0.0971  0.3714
  110MOL0     C15104   2.644   4.778   9.968  0.0644  0.5138  0.4820
  110MOL0     C15105   2.725   4.898   9.919 -0.3003  0.1782  0.9284
  110MOL0     C15106   2.669   4.911   9.776 -0.4224  0.4649  0.1804
  110MOL0     C15107   2.645   4.926   9.653 -0.3099 -0.1362 -0.1355
  110MOL0     C15108   2.788   4.923  10.355 -0.0671 -0.8225 -0.2584
  110MOL0     C15109   2.899   4.973  10.430 -0.2142 -0.0094  0.5931
  110MOL0     C15110   2.955   5.105  10.371  0.2639 -0.3118 -1.3149
  110MOL0     H15111   3.257   4.715  10.847 -1.1005  1.3559 -1.3094
  110MOL0     H15112   3.455   4.768  10.992  0.0107 -0.4739 -0.7684
  110MOL0     H15113   3.547   4.853  11.198  2.5315 -0.4070 -0.7053
  110MOL0     H15114   3.428   4.988  11.250  2.2610  0.9341  1.5741
  110MOL0     H15115   3.729   5.011  11.284 -0.3336 -0.1418  0.0639
  110MOL0     H15116   3.607   5.131  11.337 -0.5557  0.9363 -0.6843
  110MOL0     H15117   3.483   4.966  11.484 -1.0977  1.3512 -2.3995
  110MOL0     H15118   3.600   4.855  11.425 -0.5535  0.0846 -0.1790
  110MOL0     H15119   3.788   4.983  11.523  0.1055  1.6322  0.9533
  110MOL0     H15120   3.672   5.112  11.567  0.7937  0.5841 -3.1864
  110MOL0     H15121   3.769   4.908  11.733 -0.8793 -3.0073 -0.4529
  110MOL0     H15122   3.626   4.831  11.678 -0.3845  0.5639  0.5711
  110MOL0     H15123   3.594   4.944  11.884 -0.1499  0.2492 -0.3458
  110MOL0     H15124   3.613   5.097  11.810 -0.9967  0.5937 -0.0552
  110MOL0     H15125   3.401   4.902  11.701  0.2205 -0.3600  2.3942
  110MOL0     H15126   3.397   5.073  11.671 -2.7467  1.3737  2.4707
  110MOL0     H15127   3.341   4.969  11.967 -0.9637 -0.6233 -0.2602
  110MOL0     H15128   3.359   5.125  11.909 -2.8355  1.6657  0.6961
  110MOL0     H15129   3.139   4.803  11.841 -0.5425 -1.7316 -3.3673
  110MOL0     H15130   2.816   4.833  11.861 -0.3306  0.9911 -0.0096
  110MOL0     H15131   2.901   4.766  11.733 -0.5926  1.7328 -4.4869
  110MOL0     H15132   2.826   4.937  11.565  0.7619  0.8634  0.3981
  110MOL0     H15133   2.701   4.831  11.634  0.4817  1.3430 -1.9097
  110MOL0     H15134   2.731   5.073  11.784  0.0601 -0.6726 -0.3258
  110MOL0     H15135   2.689   5.102  11.621 -2.2419 -3.5675 -3.1960
  110MOL0     H15136   2.487   5.084  11.722 -3.1770 -1.6375  0.4806
  110MOL0     H15137   2.486   4.930  11.646 -3.5092 -0.1269  1.2523
  110MOL0     H15138   2.467   4.824  12.062  0.3703  0.2059 -0.9382
  110MOL0     H15139   2.155   4.742  12.250 -0.7132 -0.1243 -0.9298
  110MOL0     H15140   2.320   4.778  12.275 -0.8409  3.7332 -1.7490
  110MOL0     H15141   2.273   4.647  12.154 -2.1075 -0.6380 -0.4592
  110MOL0     H15142   1.847   5.136  12.146 -1.2390  3.2370  0.4458
  110MOL0     H15143   1.662   5.237  12.270  0.4930  1.1857  0.2626
  110MOL0     H15144   1.454   5.202  12.357  1.9123 -1.7511 -0.8291
  110MOL0     H15145   1.393   5.048  12.418  3.1190 -1.8669  1.8610
  110MOL0     H15146   1.380   5.326  12.559  0.6522 -0.3172  2.1306
  110MOL0     H15147   1.235   5.243  12.500  1.1374  2.9127  0.6756
  110MOL0     H15148   1.407   5.126  12.731 -0.6192  0.7231  0.6696
  110MOL0     H15149   1.284   5.054  12.635 -0.7176  1.3309 -0.9660
  110MOL0     H15150   1.109   5.203  12.710 -1.0515 -0.6167  2.5359
  110MOL0     H15151   1.222   5.301  12.797  0.2533  0.5651 -1.2210
  110MOL0     H15152   1.192   4.999  12.853 -2.2229 -0.1430 -0.5032
  110MOL0     H15153   1.292   5.118  12.950  0.1897 -2.2256  0.2947
  110MOL0     H15154   1.081   5.070  13.062 -2.0026  0.9987  0.2573
  110MOL0     H15155   0.985   5.098  12.918 -1.5653  2.7714  0.1178
  110MOL0     H15156   1.148   5.325  13.042 -0.4494  2.4620 -0.0003
  110MOL0     H15157   1.022   5.244  13.129  0.2519  1.9336  0.8565
  110MOL0     H15158   0.849   5.300  12.993 -0.8188  0.8441 -1.0026
  110MOL0     H15159   0.951   5.374  12.864  3.4199 -1.9745  0.4641
  110MOL0     H15160   1.743   4.937  12.586  1.4685 -0.2039  0.8935
  110MOL0     H15161   1.922   4.877  12.478  1.3208  2.1720  0.9817
  110MOL0     H15162   2.052   4.988  11.852  0.1933 -0.5912 -0.8069
  110MOL0     H15163   2.266   5.020  11.738 -1.1928 -2.1680 -0.9816
  110MOL0     H15164   3.348   5.189  10.957 -1.1453  0.5819 -1.5417
  110MOL0     H15165   3.188   5.136  10.789  1.4401  0.3519 -1.5521
  110MOL0     H15166   2.914   4.735  10.673 -3.1944 -1.6870 -0.0143
  110MOL0     H15167   2.720   4.674  10.566  3.0682 -1.2265  0.2421
  110MOL0     H15168   2.496   4.716  10.197  0.8205 -2.0748  2.8659
  110MOL0     H15169   2.554   4.887  10.215  3.6359  0.3853 -0.6998
  110MOL0     H15170   2.708   4.633  10.111 -0.6471 -0.2192 -3.4099
  110MOL0     H15171   2.787   4.777  10.133  1.1185 -3.2976  0.4146
  110MOL0     H15172   2.668   4.694   9.901  1.1802  1.2356 -0.0679
  110MOL0     H15173   2.537   4.796   9.958  0.4515  2.6291 -0.3222
  110MOL0     H15174   2.832   4.879   9.928  0.4694  4.2405  2.2405
  110MOL0     H15175   2.710   4.993   9.971  1.4760  0.8077  0.3588
  110MOL0     H15176   2.634   4.939   9.547  1.5689 -1.3091 -0.5310
  110MOL0     H15177   2.750   4.972  10.266  0.1726  1.4249  0.8047
  110MOL0     H15178   2.940   5.184  10.445 -1.0436 -3.3065  1.9010
  110MOL0     H15179   3.063   5.103  10.350  0.8951  0.3856  1.4760
  110MOL0     H15180   2.894   5.142  10.289  0.4975  3.0238 -0.1213
  111MOL0     O15181   0.570   5.558   5.498  0.0572 -0.3140 -0.2116
  111MOL0     C15182   0.569   5.442   5.451  1.2042 -0.5241 -0.8523
  111MOL0     O15183   0.677   5.382   5.393 -0.0463  0.8736 -0.2964
  111MOL0     C15184   0.782   5.464   5.365  0.9266 -0.0819 -0.1501
  111MOL0     C15185   0.775   5.551   5.255  0.3092  1.1026 -0.2322
  111MOL0     C15186   0.883   5.631   5.217  0.6632  0.8728 -0.0168
  111MOL0     C15187   0.995   5.634   5.296 -0.9344 -0.9440  0.0657
  111MOL0     O15188   1.105   5.712   5.252 -0.0748 -0.0120 -0.7357
  111MOL0     C15189   1.103   5.844   5.200  0.5436  0.0850  0.3270
  111MOL0     C15190   1.250   5.886   5.181 -0.1963  0.4668  0.7874
  111MOL0     C15191   1.345   5.861   5.311  0.2684 -0.5160  0.6710
  111MOL0     C15192   1.492   5.884   5.267 -0.0996 -0.3416 -0.6775
  111MOL0     C15193   1.581   5.869   5.399  0.8008  0.4061 -0.3781
  111MOL0     C15194   1.582   5.992   5.490  0.3664 -0.2627 -0.5483
  111MOL0     C15195   1.659   5.968   5.619  0.0050 -0.3547  0.9093
  111MOL0     C15196   1.798   5.991   5.598 -0.7040  0.6866 -0.9799
  111MOL0     N15197   1.875   5.935   5.712 -0.1057  0.2513  0.6946
  111MOL0     C15198   1.977   6.001   5.771  0.0148 -0.1007 -0.4276
  111MOL0     C15199   2.034   5.906   5.848 -0.0890 -0.1468 -0.8605
  111MOL0     C15200   2.150   5.954   5.940  0.4342 -0.0767  0.0348
  111MOL0     C15201   2.297   5.940   5.884 -0.7542  0.5929  0.0679
  111MOL0     C15202   2.402   5.989   5.982  0.3455  0.1271  0.3471
  111MOL0     C15203   2.488   6.109   5.926  0.6214 -0.5884  0.0864
  111MOL0     O15204   2.558   6.145   6.043 -0.1616  0.0013 -0.3533
  111MOL0     C15205   2.667   6.230   6.032  0.2517  1.1813 -0.6284
  111MOL0     C15206   2.782   6.186   6.097 -0.3509  0.1947 -0.2593
  111MOL0     C15207   2.900   6.270   6.095  0.8931  0.3903  0.2114
  111MOL0     C15208   3.020   6.202   6.150  0.4025  0.2382  0.7058
  111MOL0     C15209   2.894   6.398   6.030 -1.0105 -0.8279  0.3880
  111MOL0     C15210   3.014   6.489   6.017  0.1045  0.8058 -0.1671
  111MOL0     O15211   2.991   6.617   5.979 -0.9042  0.1909 -0.0793
  111MOL0     C15212   3.095   6.714   5.952 -0.3501  0.1117  0.1640
  111MOL0     C15213   3.037   6.841   5.944 -0.3336  0.6386 -0.3358
  111MOL0     C15214   3.118   6.955   5.932  0.0861 -0.0173 -0.1490
  111MOL0     C15215   3.260   6.944   5.929 -0.9466  0.0223  0.0962
  111MOL0     O15216   3.345   7.039   5.895  0.1509 -0.8783 -0.2093
  111MOL0     C15217   3.295   7.179   5.883 -0.4762  0.3311 -0.7885
  111MOL0     C15218   3.279   7.235   6.024  0.8381  0.0668 -0.1547
  111MOL0     C15219   3.245   7.383   6.026  0.6940 -0.8805  0.3189
  111MOL0     C15220   3.110   7.407   5.963 -0.3879  0.0387 -0.2502
  111MOL0     C15221   2.993   7.340   6.030  0.2771  0.1058  0.5939
  111MOL0     C15222   2.863   7.421   5.998  0.0554 -0.3430  0.0378
  111MOL0     C15223   2.739   7.327   6.060  0.3999 -0.0351  0.3593
  111MOL0     C15224   2.599   7.395   6.047  0.1339  0.4973 -0.8692
  111MOL0    Cl15225   2.517   7.359   5.889 -0.4080 -0.2235  0.0907
  111MOL0     C15226   3.309   6.812   5.920 -0.5239 -0.1394 -0.5165
  111MOL0     C15227   3.236   6.696   5.929 -0.2286 -0.0198 -0.3420
  111MOL0     O15228   3.127   6.440   6.049  0.4570 -0.4281 -0.2940
  111MOL0     C15229   2.774   6.437   5.973  0.6764  0.2534 -0.2416
  111MOL0     C15230   2.659   6.346   5.965  0.1463 -0.0540  0.6285
  111MOL0     N15231   1.971   5.785   5.833 -0.4058 -0.1068  1.1127
  111MOL0     N15232   1.872   5.809   5.750  0.8942 -0.1575 -0.2034
  111MOL0     C15233   1.006   5.545   5.403  0.5450 -0.2427 -0.2506
  111MOL0     C15234   0.895   5.462   5.440 -0.2064  0.9524  0.0501
  111MOL0     C15235   0.439   5.363   5.476  0.2687  0.7440 -0.2605
  111MOL0     C15236   0.310   5.409   5.470 -0.0555  0.0667  0.3175
  111MOL0     C15237   0.192   5.333   5.468 -0.3710 -0.7021 -0.2228
  111MOL0     C15238   0.206   5.205   5.502  0.4865  0.3790 -0.1906
  111MOL0     O15239   0.087   5.148   5.493  0.6533  0.8538  0.8234
  111MOL0     C15240   0.079   5.010   5.518  0.3301  0.4074 -0.9534
  111MOL0     C15241   0.102   4.935   5.387  0.6586  0.3438  0.4306
  111MOL0     C15242   0.068   4.780   5.399 -0.0740 -0.0505  0.3321
  111MOL0     C15243  -0.029   4.738   5.511  0.1814  0.0750  0.5616
  111MOL0     C15244  -0.061   4.592   5.518 -0.3827  0.0708 -0.0619
  111MOL0     C15245  -0.092   4.477   5.541  0.5864 -0.1283  0.5910
  111MOL0     C15246   0.330   5.153   5.540 -0.1195 -0.1271  0.2165
  111MOL0     C15247   0.445   5.228   5.513  0.1542 -0.3182 -0.2915
  111MOL0     C15248   0.574   5.157   5.547  1.5030 -1.3691 -1.1763
  111MOL0     H15249   0.682   5.543   5.201 -0.3397 -0.6557  1.0256
  111MOL0     H15250   0.884   5.682   5.121 -0.2260  2.6567  0.8755
  111MOL0     H15251   1.057   5.916   5.267  0.7289  0.3805  0.1401
  111MOL0     H15252   1.051   5.834   5.104 -0.2480  2.0240  0.5188
  111MOL0     H15253   1.295   5.832   5.097  0.2639  0.8094  0.8040
  111MOL0     H15254   1.247   5.993   5.158 -1.6366  0.2840  0.0032
  111MOL0     H15255   1.318   5.934   5.387 -0.0555  2.3739 -2.0075
  111MOL0     H15256   1.326   5.761   5.351  0.4029  0.5378  3.6564
  111MOL0     H15257   1.531   5.814   5.193 -2.2823 -1.9411 -0.4287
  111MOL0     H15258   1.516   5.984   5.229  2.5848 -1.1969 -1.4435
  111MOL0     H15259   1.683   5.839   5.374  0.7825  1.2836 -1.5714
  111MOL0     H15260   1.536   5.786   5.455  1.3215  0.5043  0.1990
  111MOL0     H15261   1.631   6.076   5.440  1.7833 -0.8406 -0.1803
  111MOL0     H15262   1.478   6.022   5.503  0.1758  0.6246 -3.3488
  111MOL0     H15263   1.644   5.864   5.651 -0.8374 -0.9601 -1.2507
  111MOL0     H15264   1.629   6.046   5.689  0.0976  1.1163 -0.6401
  111MOL0     H15265   1.825   5.929   5.513  2.4744  0.8864 -0.2159
  111MOL0     H15266   1.815   6.098   5.585 -0.6098  1.0026  1.2844
  111MOL0     H15267   2.001   6.107   5.765 -1.7738  0.7011  3.4480
  111MOL0     H15268   2.130   5.893   6.029 -1.1328 -1.7175 -1.3519
  111MOL0     H15269   2.133   6.059   5.964  0.2814 -0.0382 -0.2417
  111MOL0     H15270   2.317   5.832   5.884  3.4950  1.1503  2.6278
  111MOL0     H15271   2.321   5.982   5.786 -0.8564  1.3954  0.3810
  111MOL0     H15272   2.355   6.015   6.077  1.6860 -1.2555  1.4422
  111MOL0     H15273   2.467   5.902   5.997  1.8184  1.0188 -0.5629
  111MOL0     H15274   2.548   6.073   5.842  1.1999  2.9670 -1.2282
  111MOL0     H15275   2.423   6.191   5.894  4.3826  2.3798 -0.6133
  111MOL0     H15276   2.779   6.092   6.150  2.5217 -0.4346 -1.0398
  111MOL0     H15277   3.091   6.270   6.199  2.0965 -0.3506 -0.7976
  111MOL0     H15278   3.063   6.152   6.063 -0.6275  0.7360 -0.1119
  111MOL0     H15279   2.995   6.133   6.232  1.2195 -1.8364 -0.7116
  111MOL0     H15280   2.931   6.853   5.962 -0.2063 -0.4253  1.3450
  111MOL0     H15281   3.072   7.053   5.932  3.9187  2.0736  2.9367
  111MOL0     H15282   3.367   7.236   5.824  2.4299 -0.5553  1.6958
  111MOL0     H15283   3.197   7.173   5.834 -0.5087 -1.8031 -0.5921
  111MOL0     H15284   3.220   7.169   6.089  3.3069 -0.5865  1.5767
  111MOL0     H15285   3.375   7.232   6.077  1.3978  4.1340 -0.6592
  111MOL0     H15286   3.321   7.452   5.987  0.9218 -1.1317  0.3233
  111MOL0     H15287   3.241   7.396   6.134 -0.7531  3.2752 -0.0449
  111MOL0     H15288   3.122   7.382   5.858 -0.6573 -1.5201  0.0579
  111MOL0     H15289   3.094   7.515   5.969 -0.6344  0.0831 -1.4345
  111MOL0     H15290   2.981   7.236   6.000  1.5997 -0.2218  1.1375
  111MOL0     H15291   2.995   7.345   6.139  2.0880 -1.9778  0.7207
  111MOL0     H15292   2.841   7.436   5.892 -1.8325  2.3981  0.7088
  111MOL0     H15293   2.853   7.511   6.060 -2.3157 -3.2774  4.5228
  111MOL0     H15294   2.752   7.298   6.165 -2.2370  0.5567  0.9088
  111MOL0     H15295   2.730   7.238   5.998 -1.6919  1.6998 -2.0256
  111MOL0     H15296   2.609   7.503   6.046 -2.1503  0.7600 -1.3538
  111MOL0     H15297   2.529   7.375   6.128  0.5738  1.3588 -0.2699
  111MOL0     H15298   3.415   6.792   5.906  0.0002 -0.1138  2.6122
  111MOL0     H15299   3.291   6.603   5.922 -1.6945 -0.9015 -0.5335
  111MOL0     H15300   2.763   6.535   5.927 -2.1274  0.6848  1.1653
  111MOL0     H15301   2.565   6.371   5.917 -0.7766 -1.3035  1.7169
  111MOL0     H15302   1.096   5.542   5.464  0.8526  2.8401 -0.3934
  111MOL0     H15303   0.906   5.386   5.516  0.7713 -2.3815 -3.1044
  111MOL0     H15304   0.293   5.516   5.467  1.5273  0.3904  1.5898
  111MOL0     H15305   0.092   5.371   5.449  0.2755  0.0678 -2.3566
  111MOL0     H15306   0.148   4.962   5.589  0.4667 -0.1587 -1.4584
  111MOL0     H15307  -0.020   4.981   5.554 -0.8265  0.4809 -3.7635
  111MOL0     H15308   0.208   4.948   5.359  0.6919 -0.7002  0.0391
  111MOL0     H15309   0.052   4.982   5.301  2.9613  1.6598 -0.2923
  111MOL0     H15310   0.055   4.731   5.302  0.5056  0.1854  0.1301
  111MOL0     H15311   0.166   4.745   5.434  0.5508  0.0041 -1.3009
  111MOL0     H15312  -0.127   4.782   5.488 -0.7837 -2.1189  0.1902
  111MOL0     H15313   0.001   4.773   5.611  0.0144  0.5561  0.4471
  111MOL0     H15314  -0.125   4.376   5.553  2.5334 -0.6815  1.5766
  111MOL0     H15315   0.331   5.059   5.593 -2.7508 -1.7593 -2.3231
  111MOL0     H15316   0.643   5.149   5.462  4.3658 -1.6770  1.0250
  111MOL0     H15317   0.615   5.205   5.636 -3.0684 -1.6067  1.3494
  111MOL0     H15318   0.573   5.050   5.571  1.4622 -1.3870 -1.2513
  112MOL0     O15319   4.632   5.809   0.004  0.7855 -0.5955 -0.4825
  112MOL0     C15320   4.561   5.720  -0.027  0.0994 -0.4354  0.3846
  112MOL0     O15321   4.588   5.586   0.005 -0.4716 -0.7163  0.2324
  112MOL0     C15322   4.639   5.556   0.131  0.8140 -0.8826 -0.3685
  112MOL0     C15323   4.611   5.631   0.253  0.2709 -0.0060  0.0427
  112MOL0     C15324   4.655   5.582   0.380 -0.4303  0.5915  0.0780
  112MOL0     C15325   4.725   5.457   0.400  0.4887 -0.2688 -0.0356
  112MOL0     O15326   4.780   5.423   0.518  0.2777 -0.0763  0.2902
  112MOL0     C15327   4.907   5.344   0.516  1.4865  0.0429  0.0734
  112MOL0     C15328   4.958   5.330   0.661 -0.5504 -0.1461 -0.3598
  112MOL0     C15329   4.872   5.268   0.764 -0.1249  0.4174  0.4575
  112MOL0     C15330   4.768   5.371   0.810 -0.8913 -1.1212  0.5127
  112MOL0     C15331   4.707   5.330   0.943 -0.3128  0.1491 -0.5460
  112MOL0     C15332   4.624   5.439   1.017 -0.2659 -0.1285 -0.4650
  112MOL0     C15333   4.670   5.585   0.982 -0.5555  0.4706 -0.8576
  112MOL0     C15334   4.571   5.679   1.034  1.0766  0.8523 -0.3420
  112MOL0     N15335   4.574   5.679   1.185  0.1551 -0.5922 -0.1589
  112MOL0     C15336   4.678   5.709   1.273  1.1154  0.3484  0.4920
  112MOL0     C15337   4.626   5.718   1.394  0.3339  0.2480 -0.0652
  112MOL0     C15338   4.700   5.765   1.513  0.8865  0.6327 -0.2003
  112MOL0     C15339   4.665   5.908   1.545 -0.4023  0.3604 -0.4433
  112MOL0     C15340   4.726   5.944   1.683  0.1086  0.4624  0.4538
  112MOL0     C15341   4.888   5.954   1.692 -0.3730 -0.1273  0.7935
  112MOL0     O15342   4.952   6.041   1.597  0.3249  0.1407 -0.0555
  112MOL0     C15343   4.984   6.166   1.631  0.3951 -0.2209  0.5417
  112MOL0     C15344   5.117   6.217   1.609  0.5357 -0.3657  0.3841
  112MOL0     C15345   5.154   6.343   1.637 -0.9929 -0.5750 -0.2696
  112MOL0     C15346   5.303   6.384   1.624 -0.4509 -0.3198 -0.3793
  112MOL0     C15347   5.055   6.442   1.680  1.1641  0.1985  0.5616
  112MOL0     C15348   5.070   6.585   1.708  0.2845 -0.0501 -0.5086
  112MOL0     O15349   4.961   6.663   1.730  0.0953 -0.0899 -0.1389
  112MOL0     C15350   4.982   6.799   1.750  0.4155  0.1381 -0.7780
  112MOL0     C15351   4.929   6.858   1.875 -0.4502  0.2100  1.0656
  112MOL0     C15352   4.947   6.990   1.901 -0.0899  0.5993 -0.0452
  112MOL0     C15353   5.036   7.065   1.820  0.9765 -0.6111 -0.3433
  112MOL0     O15354   5.026   7.193   1.859 -0.0166  0.5151  0.1595
  112MOL0     C15355   5.134   7.277   1.814 -0.5099 -0.7274 -0.6470
  112MOL0     C15356   5.126   7.405   1.894  0.3751 -0.7059  0.2322
  112MOL0     C15357   5.127   7.388   2.048  0.6688  0.6106  0.3883
  112MOL0     C15358   5.161   7.524   2.112  0.4300 -0.6987 -0.1982
  112MOL0     C15359   5.049   7.631   2.105 -0.0571  0.0811  0.2348
  112MOL0     C15360   5.074   7.745   2.191  1.2027  0.8532  1.3801
  112MOL0     C15361   5.060   7.724   2.335 -0.2388 -0.4093 -0.0679
  112MOL0     C15362   5.072   7.862   2.409  0.1776 -1.1598  0.5799
  112MOL0    Cl15363   5.083   7.835   2.591  0.1591  1.0417  0.0112
  112MOL0     C15364   5.094   7.018   1.698  0.6034 -0.4929  0.2662
  112MOL0     C15365   5.062   6.883   1.674  0.0078  1.0305  0.8038
  112MOL0     O15366   5.187   6.616   1.736 -0.5077 -0.2588 -0.2194
  112MOL0     C15367   4.918   6.397   1.699 -0.6219 -0.1606  0.0799
  112MOL0     C15368   4.884   6.266   1.667 -0.1730  0.1411  0.4523
  112MOL0     N15369   4.495   5.677   1.385 -0.5172  0.9278 -0.3149
  112MOL0     N15370   4.465   5.656   1.255  0.5366 -0.3936 -0.4074
  112MOL0     C15371   4.754   5.389   0.275 -0.9698  0.2080  0.2460
  112MOL0     C15372   4.706   5.438   0.143 -0.0953 -0.3971 -1.3182
  112MOL0     C15373   4.454   5.745  -0.127  0.1017 -0.4960 -0.2072
  112MOL0     C15374   4.325   5.736  -0.087  1.3467 -1.0837  0.7567
  112MOL0     C15375   4.221   5.781  -0.172  0.3440  0.0558  0.0690
  112MOL0     C15376   4.249   5.818  -0.306 -1.3894  0.2254  0.0262
  112MOL0     O15377   4.145   5.863  -0.379 -0.3494  0.2291 -0.7476
  112MOL0     C15378   4.152   5.888  -0.517 -0.4472 -0.0688  0.1011
  112MOL0     C15379   4.018   5.885  -0.567  1.1496 -0.0117 -0.1621
  112MOL0     C15380   4.004   5.973  -0.693 -0.1596  0.4979 -0.0819
  112MOL0     C15381   3.874   5.935  -0.766  0.0203 -0.2055 -0.1947
  112MOL0     C15382   3.754   5.967  -0.683 -1.0737  0.0389 -0.6084
  112MOL0     C15383   3.661   5.990  -0.608 -0.3153  0.2409 -0.6877
  112MOL0     C15384   4.380   5.798  -0.354 -0.0780 -0.0717 -0.1158
  112MOL0     C15385   4.482   5.759  -0.265 -0.7310 -0.6050  0.2805
  112MOL0     C15386   4.615   5.722  -0.330  0.5719 -0.2365  0.4545
  112MOL0     H15387   4.583   5.736   0.250 -0.5619 -0.1927  0.8506
  112MOL0     H15388   4.625   5.643   0.465  4.4984  1.4820  1.5402
  112MOL0     H15389   4.978   5.403   0.456  1.3881 -0.2381 -0.3206
  112MOL0     H15390   4.888   5.243   0.481 -0.8006  0.7791 -1.0060
  112MOL0     H15391   5.045   5.265   0.673 -0.7588 -0.1551  1.3184
  112MOL0     H15392   4.981   5.433   0.692 -2.4088 -0.0865  0.9468
  112MOL0     H15393   4.814   5.192   0.711 -1.0406  1.3108  0.1488
  112MOL0     H15394   4.932   5.222   0.843  2.5044 -2.2273 -2.7787
  112MOL0     H15395   4.825   5.464   0.821 -2.0805 -0.1330 -1.1547
  112MOL0     H15396   4.698   5.392   0.729  0.2890  3.6838  0.4260
  112MOL0     H15397   4.796   5.321   1.006  0.1855 -1.1119 -1.4051
  112MOL0     H15398   4.657   5.233   0.933 -1.0680  0.0824  2.6539
  112MOL0     H15399   4.525   5.436   0.971  0.1670  4.4543 -2.2164
  112MOL0     H15400   4.605   5.429   1.124 -2.4438  2.7095 -0.4315
  112MOL0     H15401   4.680   5.606   0.875  1.4937 -0.1427 -0.8160
  112MOL0     H15402   4.765   5.614   1.028 -0.7259 -0.0192 -0.1822
  112MOL0     H15403   4.589   5.784   1.011  2.1108  1.0197  1.1367
  112MOL0     H15404   4.475   5.655   0.986  1.6230 -2.3560 -0.0304
  112MOL0     H15405   4.780   5.736   1.247  1.6008  1.3177  3.1146
  112MOL0     H15406   4.807   5.756   1.494  1.3581  1.5988  1.7049
  112MOL0     H15407   4.680   5.697   1.596  1.2384 -3.9654 -3.5183
  112MOL0     H15408   4.704   5.980   1.472 -3.1161  2.4189 -0.0282
  112MOL0     H15409   4.557   5.926   1.544 -0.6105 -0.8466 -0.8901
  112MOL0     H15410   4.683   6.041   1.709 -0.7651  0.4536 -0.9047
  112MOL0     H15411   4.702   5.872   1.761 -0.7412  0.4590  0.1954
  112MOL0     H15412   4.908   6.005   1.787  0.4417  2.7332 -0.7659
  112MOL0     H15413   4.937   5.857   1.681  0.3262  0.2634  0.3283
  112MOL0     H15414   5.191   6.157   1.558 -0.5395 -0.1564 -1.5275
  112MOL0     H15415   5.358   6.305   1.572 -2.8917 -1.9308 -0.6211
  112MOL0     H15416   5.349   6.398   1.722  0.2306  0.6688 -0.8189
  112MOL0     H15417   5.311   6.475   1.563 -1.8512  0.0038 -0.1034
  112MOL0     H15418   4.887   6.792   1.951  1.5435 -1.2556  0.9675
  112MOL0     H15419   4.907   7.028   1.995  0.0690 -1.0660  0.7355
  112MOL0     H15420   5.233   7.233   1.828 -0.9121 -2.8012 -3.4266
  112MOL0     H15421   5.129   7.299   1.707  0.2794 -0.4007 -0.6231
  112MOL0     H15422   5.208   7.465   1.855  2.3295 -3.7029 -0.6628
  112MOL0     H15423   5.032   7.457   1.875  1.3715  1.0200 -0.1817
  112MOL0     H15424   5.204   7.317   2.079  0.6564 -1.6011 -3.9590
  112MOL0     H15425   5.023   7.353   2.052  0.6492  0.1773 -2.2768
  112MOL0     H15426   5.250   7.563   2.063  0.4716  1.8767  1.7215
  112MOL0     H15427   5.170   7.516   2.220  0.0438  2.0806  0.1197
  112MOL0     H15428   5.039   7.658   1.999  2.2321 -0.7122 -0.2398
  112MOL0     H15429   4.953   7.586   2.131 -1.5802  2.8447 -0.2683
  112MOL0     H15430   5.006   7.824   2.156 -0.9195 -1.1031  0.8581
  112MOL0     H15431   5.172   7.785   2.166  3.2240 -3.4484  1.5577
  112MOL0     H15432   5.135   7.658   2.379 -0.0587 -0.0251  0.2106
  112MOL0     H15433   4.965   7.673   2.353 -0.3541 -0.5597 -1.0717
  112MOL0     H15434   4.981   7.918   2.385  0.6780 -1.4854 -2.5084
  112MOL0     H15435   5.159   7.920   2.376  0.0294 -2.3698 -2.2581
  112MOL0     H15436   5.162   7.069   1.630  0.0427 -0.3132 -0.1650
  112MOL0     H15437   5.113   6.831   1.593 -1.3430 -0.4942  0.8752
  112MOL0     H15438   4.841   6.470   1.722 -0.6030  0.3555 -1.4002
  112MOL0     H15439   4.782   6.230   1.659 -0.5087  0.9350  1.0706
  112MOL0     H15440   4.814   5.298   0.269 -1.6123 -0.2004 -0.1056
  112MOL0     H15441   4.723   5.391   0.046 -2.7726 -0.1409 -2.0035
  112MOL0     H15442   4.307   5.712   0.017  0.5147  0.7699  1.0832
  112MOL0     H15443   4.120   5.792  -0.133 -0.7781  1.9570 -2.9723
  112MOL0     H15444   4.198   5.984  -0.541 -1.3585  0.0154 -1.4825
  112MOL0     H15445   4.220   5.818  -0.566  0.0232  2.3403 -3.0129
  112MOL0     H15446   3.956   5.932  -0.491 -1.7938  2.1007 -3.5380
  112MOL0     H15447   3.983   5.785  -0.595 -0.0054  1.0995 -3.1072
  112MOL0     H15448   4.013   6.076  -0.657 -1.5664  0.7484 -0.3873
  112MOL0     H15449   4.086   5.960  -0.765 -0.5436  4.6176 -1.5640
  112MOL0     H15450   3.880   5.833  -0.805 -0.9249  0.7887 -3.2930
  112MOL0     H15451   3.869   5.996  -0.857 -1.9829 -0.7794 -0.5301
  112MOL0     H15452   3.581   5.996  -0.537  0.1027  1.6595 -0.2876
  112MOL0     H15453   4.406   5.806  -0.459 -0.7938 -2.3843 -0.5041
  112MOL0     H15454   4.687   5.674  -0.263 -1.1512 -1.0454  1.8075
  112MOL0     H15455   4.590   5.664  -0.418 -3.1874  1.7788 -0.0096
  112MOL0     H15456   4.664   5.812  -0.368 -1.4179 -0.9873 -4.6416
  113MOL0     O15457   3.400   1.660   2.200 -0.3458 -0.1310  0.0844
  113MOL0     C15458   3.292   1.689   2.155  0.5834  1.8893 -0.7871
  113MOL0     O15459   3.186   1.738   2.228 -1.2467  0.9200  0.1661
  113MOL0     C15460   3.191   1.724   2.360 -0.2024 -0.7918  0.5652
  113MOL0     C15461   3.145   1.829   2.440  0.4736 -0.1758 -0.2588
  113MOL0     C15462   3.134   1.820   2.582  0.5414 -0.3044 -0.4432
  113MOL0     C15463   3.168   1.696   2.643  0.3637 -0.9442 -1.0334
  113MOL0     O15464   3.161   1.669   2.778 -0.4284  0.2716 -0.6760
  113MOL0     C15465   3.157   1.770   2.880 -0.1022 -0.6103  0.1200
  113MOL0     C15466   3.025   1.761   2.964 -0.5976  0.1875  0.3629
  113MOL0     C15467   3.004   1.876   3.069  0.3066  0.3966 -1.2638
  113MOL0     C15468   2.891   1.823   3.155  1.0735  0.2598  0.9468
  113MOL0     C15469   2.845   1.948   3.244 -0.2305  0.1017  0.3757
  113MOL0     C15470   2.711   1.933   3.304  0.2955  0.1612  0.4481
  113MOL0     C15471   2.679   2.065   3.374 -0.2608 -1.3067  1.0321
  113MOL0     C15472   2.762   2.105   3.494 -0.5750 -0.0234 -0.0610
  113MOL0     N15473   2.786   2.000   3.592  0.7506  1.1988  0.0161
  113MOL0     C15474   2.878   2.002   3.693 -0.9965  1.5688 -0.9326
  113MOL0     C15475   2.822   1.913   3.785 -0.5576  0.7646 -0.6232
  113MOL0     C15476   2.903   1.846   3.904  0.9170  0.4004 -0.2113
  113MOL0     C15477   2.819   1.878   4.029 -0.0134 -0.1286 -0.9019
  113MOL0     C15478   2.866   1.806   4.159  0.2726  0.3423  0.5211
  113MOL0     C15479   3.010   1.859   4.212  0.0253  0.2131 -0.9270
  113MOL0     O15480   3.027   1.809   4.349 -0.0457  1.8517  0.3391
  113MOL0     C15481   3.165   1.796   4.381  0.5295 -0.6677  0.6462
  113MOL0     C15482   3.236   1.886   4.458 -0.2214 -1.5745 -0.6335
  113MOL0     C15483   3.363   1.857   4.511  0.0396 -0.4176  0.2319
  113MOL0     C15484   3.439   1.944   4.611  0.5605  1.2192  0.3905
  113MOL0     C15485   3.425   1.738   4.470  0.5351 -0.5989  0.9471
  113MOL0     C15486   3.567   1.696   4.492 -0.0851 -0.3714 -0.0384
  113MOL0     O15487   3.597   1.556   4.499  0.6028 -0.9668 -0.3122
  113MOL0     C15488   3.725   1.513   4.516  0.7319  1.0408  0.4011
  113MOL0     C15489   3.828   1.573   4.588 -1.1959 -0.3333 -0.7059
  113MOL0     C15490   3.954   1.514   4.599 -0.0464  0.1243  0.2468
  113MOL0     C15491   3.978   1.389   4.541  0.4910  0.6521  0.7887
  113MOL0     O15492   4.100   1.321   4.531  0.4339 -0.3037  0.3275
  113MOL0     C15493   4.222   1.380   4.569  0.2356  0.4386  0.2971
  113MOL0     C15494   4.328   1.297   4.631 -0.6026 -0.4003 -0.4965
  113MOL0     C15495   4.407   1.204   4.542  0.5051  1.3681 -0.9112
  113MOL0     C15496   4.317   1.099   4.475 -1.5840 -0.0876  0.6949
  113MOL0     C15497   4.398   0.988   4.409  0.5191  0.1646 -0.1779
  113MOL0     C15498   4.502   1.022   4.301 -0.2666  0.9963 -0.7624
  113MOL0     C15499   4.577   0.899   4.253 -0.6568 -0.0783  0.6148
  113MOL0     C15500   4.640   0.913   4.117 -0.0432  0.6603 -0.4882
  113MOL0    Cl15501   4.737   1.067   4.103  0.4299  0.0229  0.5871
  113MOL0     C15502   3.870   1.328   4.470  0.0976 -0.4261  0.2801
  113MOL0     C15503   3.745   1.386   4.465  0.8366 -1.0328 -0.0508
  113MOL0     O15504   3.653   1.788   4.481  0.4187 -0.1629  0.0033
  113MOL0     C15505   3.351   1.648   4.396  0.2690  0.6981 -0.2943
  113MOL0     C15506   3.220   1.674   4.363  0.5678 -0.1421  0.2206
  113MOL0     N15507   2.700   1.858   3.741 -0.5061  0.1860  0.1028
  113MOL0     N15508   2.678   1.926   3.628  0.3445  0.0576  0.4297
  113MOL0     C15509   3.224   1.590   2.562  0.7509 -1.2298  0.2031
  113MOL0     C15510   3.231   1.608   2.428  0.1112 -0.2572 -0.3438
  113MOL0     C15511   3.265   1.689   2.015 -0.9463  0.1619  0.0861
  113MOL0     C15512   3.271   1.567   1.946 -0.1740 -0.2149 -0.1446
  113MOL0     C15513   3.240   1.567   1.809 -0.6347  0.5688 -0.7946
  113MOL0     C15514   3.199   1.688   1.743 -0.0711 -0.2001 -0.5037
  113MOL0     O15515   3.173   1.702   1.609 -0.1166  0.1755  0.7204
  113MOL0     C15516   3.170   1.582   1.525  0.6713 -0.2266  0.4397
  113MOL0     C15517   3.153   1.618   1.371 -0.4153  0.3245 -0.8172
  113MOL0     C15518   3.166   1.491   1.286  0.3659 -0.4831  0.3004
  113MOL0     C15519   3.098   1.518   1.146  0.3056  0.3067  0.1325
  113MOL0     C15520   2.952   1.493   1.153 -0.4650  1.1726 -0.7120
  113MOL0     C15521   2.837   1.451   1.166  0.2609  0.5287 -0.2609
  113MOL0     C15522   3.200   1.806   1.814 -0.4986  0.0753 -0.3795
  113MOL0     C15523   3.233   1.808   1.946  0.3811 -0.7042 -0.4197
  113MOL0     C15524   3.229   1.949   2.006 -0.1869  0.5054 -0.0456
  113MOL0     H15525   3.106   1.921   2.398 -0.5951  0.5518  2.1408
  113MOL0     H15526   3.091   1.906   2.632  2.7630 -0.7020  2.4047
  113MOL0     H15527   3.159   1.872   2.841 -2.3878  0.5456  2.7039
  113MOL0     H15528   3.245   1.751   2.943  0.0168  0.5855  0.3310
  113MOL0     H15529   2.933   1.756   2.906 -0.8760 -3.8299  0.8247
  113MOL0     H15530   3.027   1.668   3.022  2.1799  0.5267  0.9988
  113MOL0     H15531   3.101   1.892   3.118 -0.4913 -0.2356  0.6107
  113MOL0     H15532   2.973   1.966   3.017 -0.8197  0.0902 -1.1405
  113MOL0     H15533   2.808   1.780   3.099  3.2565 -4.4926  0.8543
  113MOL0     H15534   2.935   1.752   3.226  0.4274  0.8167  1.9196
  113MOL0     H15535   2.848   2.038   3.183  0.1523 -0.5681 -0.6265
  113MOL0     H15536   2.920   1.973   3.319  0.9668 -0.4526 -0.5961
  113MOL0     H15537   2.639   1.900   3.228  0.7259  1.2984 -0.4811
  113MOL0     H15538   2.725   1.857   3.382  0.1184  2.7709  3.2193
  113MOL0     H15539   2.579   2.051   3.416  0.3373 -3.7658  1.8155
  113MOL0     H15540   2.674   2.145   3.300  3.4127 -1.3220  0.5819
  113MOL0     H15541   2.856   2.155   3.473 -2.0384  2.7684 -0.3886
  113MOL0     H15542   2.702   2.180   3.546  1.8616  0.8364  1.6491
  113MOL0     H15543   2.968   2.063   3.692 -1.5762  2.4506 -0.5984
  113MOL0     H15544   3.006   1.882   3.903  2.4739 -3.1391 -4.3520
  113MOL0     H15545   2.920   1.739   3.889  2.0004  0.7050 -1.3291
  113MOL0     H15546   2.824   1.985   4.050  0.2830  0.2010 -2.5221
  113MOL0     H15547   2.717   1.842   4.010 -0.1134 -0.0901 -0.4652
  113MOL0     H15548   2.778   1.834   4.218  0.1658  3.1292 -0.8089
  113MOL0     H15549   2.872   1.699   4.140  0.5726  0.8474 -3.0461
  113MOL0     H15550   3.087   1.824   4.143  0.1729  0.9598 -1.1504
  113MOL0     H15551   3.003   1.968   4.212 -3.3623  0.1088 -1.5410
  113MOL0     H15552   3.185   1.976   4.489  0.2131 -1.7224  0.5450
  113MOL0     H15553   3.366   2.018   4.646  0.7573  2.5496 -1.7905
  113MOL0     H15554   3.516   1.996   4.553  1.1052  0.0896  0.0800
  113MOL0     H15555   3.468   1.883   4.697 -0.1346 -0.1938 -0.3457
  113MOL0     H15556   3.828   1.663   4.648 -1.1020  0.6956 -2.1901
  113MOL0     H15557   4.034   1.575   4.640  1.4349 -2.2398  1.1098
  113MOL0     H15558   4.272   1.415   4.478 -0.1417 -4.7448 -2.2696
  113MOL0     H15559   4.204   1.466   4.634 -0.4063  2.2299 -2.0834
  113MOL0     H15560   4.395   1.373   4.671 -1.6079  1.2409 -1.8010
  113MOL0     H15561   4.279   1.232   4.703  0.2346  0.5359  0.9616
  113MOL0     H15562   4.480   1.146   4.600 -0.6195  1.2093  0.3798
  113MOL0     H15563   4.467   1.256   4.467  1.3212 -3.1601 -3.7868
  113MOL0     H15564   4.267   1.144   4.389  1.0037 -1.8657 -1.9429
  113MOL0     H15565   4.258   1.055   4.555  0.3145  1.5790  3.1955
  113MOL0     H15566   4.434   0.922   4.489  1.7241 -0.1005 -0.9113
  113MOL0     H15567   4.322   0.926   4.362 -1.5761  0.5869  2.4040
  113MOL0     H15568   4.582   1.087   4.338  0.2013 -0.3285  0.6031
  113MOL0     H15569   4.467   1.077   4.213 -0.0117  0.9746 -0.8780
  113MOL0     H15570   4.514   0.810   4.259  0.6175 -1.2228 -1.5268
  113MOL0     H15571   4.660   0.878   4.322  1.8348 -3.3396 -2.8966
  113MOL0     H15572   4.563   0.897   4.041 -1.2326 -2.0697  1.1678
  113MOL0     H15573   4.711   0.831   4.104 -1.4423 -0.4494 -1.4486
  113MOL0     H15574   3.896   1.231   4.429  1.5104  0.1842 -0.3356
  113MOL0     H15575   3.672   1.324   4.414  1.0735 -1.1981 -0.1946
  113MOL0     H15576   3.405   1.560   4.360  2.4242  0.7860  2.3841
  113MOL0     H15577   3.165   1.609   4.295  2.8726 -0.8858 -1.0514
  113MOL0     H15578   3.243   1.497   2.615  1.2286 -0.9726  0.4855
  113MOL0     H15579   3.273   1.524   2.374 -3.1948 -0.8659 -2.2626
  113MOL0     H15580   3.312   1.478   1.992  3.6879  1.1836 -0.4835
  113MOL0     H15581   3.242   1.475   1.750 -1.0444  1.0220 -1.5307
  113MOL0     H15582   3.261   1.525   1.549  0.7186 -1.0626 -1.5574
  113MOL0     H15583   3.084   1.525   1.562 -0.1303 -0.5858 -1.8547
  113MOL0     H15584   3.247   1.672   1.363  1.2929 -2.0427  1.5880
  113MOL0     H15585   3.070   1.684   1.341 -1.7839 -1.1934 -0.4977
  113MOL0     H15586   3.273   1.475   1.268  0.6967  1.1844  0.6168
  113MOL0     H15587   3.123   1.403   1.335  1.6622 -2.4234 -1.8340
  113MOL0     H15588   3.151   1.453   1.077  0.9660  0.2706  0.6639
  113MOL0     H15589   3.107   1.618   1.103 -0.7899  0.9375  1.2802
  113MOL0     H15590   2.741   1.405   1.180  0.2412  1.1085  1.9484
  113MOL0     H15591   3.173   1.902   1.772 -0.6860  0.1284 -0.1362
  113MOL0     H15592   3.130   1.993   2.016 -0.0292  0.8518  0.0172
  113MOL0     H15593   3.269   1.956   2.107 -1.3192  1.4944  0.3479
  113MOL0     H15594   3.265   2.026   1.936 -0.1833  0.8108  0.2919
  114MOL0     O15595   7.476   1.943   0.045  0.3489 -0.8129 -0.4287
  114MOL0     C15596   7.515   1.885  -0.053  0.4532 -0.1262 -0.7059
  114MOL0     O15597   7.579   1.754  -0.057  0.2475  0.2788 -0.5622
  114MOL0     C15598   7.575   1.681   0.055  0.8215  0.0884 -0.8873
  114MOL0     C15599   7.684   1.593   0.079  0.8725 -0.2981  0.4861
  114MOL0     C15600   7.673   1.510   0.195 -0.4934  0.0975  0.7490
  114MOL0     C15601   7.569   1.507   0.281  0.9835  0.2333 -0.1477
  114MOL0     O15602   7.573   1.408   0.385  0.0496 -0.4331 -0.8581
  114MOL0     C15603   7.450   1.376   0.455 -0.5781 -0.6083 -0.4539
  114MOL0     C15604   7.361   1.279   0.376  0.2158 -1.4827  0.6365
  114MOL0     C15605   7.415   1.139   0.357  0.3873 -0.6415  0.5031
  114MOL0     C15606   7.393   1.085   0.218  0.1863 -0.1181  0.7653
  114MOL0     C15607   7.416   0.934   0.224  0.2804 -0.6165  0.3457
  114MOL0     C15608   7.549   0.885   0.286  0.3990 -0.2277  0.0892
  114MOL0     C15609   7.670   0.930   0.207 -0.2246 -0.9128  0.2393
  114MOL0     C15610   7.796   0.883   0.273  0.4540 -0.6478 -0.6956
  114MOL0     N15611   7.842   0.754   0.219 -0.1621 -0.4922  0.2350
  114MOL0     C15612   7.932   0.746   0.114 -1.2553  0.3052 -0.5046
  114MOL0     C15613   7.915   0.613   0.073 -1.0844 -0.3630  1.0279
  114MOL0     C15614   7.967   0.555  -0.049 -0.8872  0.7786  1.0335
  114MOL0     C15615   7.872   0.519  -0.163 -0.4321 -0.4671 -0.8971
  114MOL0     C15616   7.943   0.439  -0.272 -0.3346  0.1962 -0.6785
  114MOL0     C15617   7.840   0.409  -0.380 -0.2374 -0.0449  0.4642
  114MOL0     O15618   7.807   0.535  -0.437  0.0814 -0.5056 -0.4818
  114MOL0     C15619   7.710   0.542  -0.535 -0.3741 -0.2641  0.6802
  114MOL0     C15620   7.659   0.435  -0.605  0.7748  0.2829 -0.2103
  114MOL0     C15621   7.576   0.450  -0.722 -0.0407 -1.1351  0.5779
  114MOL0     C15622   7.538   0.330  -0.788  0.9145  0.5937  0.0227
  114MOL0     C15623   7.541   0.582  -0.773  0.6130  0.3691  0.1171
  114MOL0     C15624   7.451   0.622  -0.882  0.6282  0.5165  0.1242
  114MOL0     O15625   7.482   0.747  -0.944 -0.3268  0.4284 -0.2271
  114MOL0     C15626   7.416   0.782  -1.062 -0.3039  0.0191 -0.5418
  114MOL0     C15627   7.491   0.833  -1.167 -0.3342  0.6565  0.7074
  114MOL0     C15628   7.432   0.867  -1.287 -0.7039 -0.0490  0.1654
  114MOL0     C15629   7.298   0.858  -1.315 -0.5208 -0.8743  0.4597
  114MOL0     O15630   7.241   0.887  -1.435 -0.0846  0.3507  0.3794
  114MOL0     C15631   7.306   0.939  -1.553  0.2902  0.1535 -0.4524
  114MOL0     C15632   7.360   0.827  -1.637  0.4480  0.0751  1.2394
  114MOL0     C15633   7.282   0.700  -1.662  0.1482  0.6752  0.1203
  114MOL0     C15634   7.148   0.746  -1.722  0.2849  0.0479 -0.6693
  114MOL0     C15635   7.067   0.621  -1.769  0.6109 -0.4519  0.8190
  114MOL0     C15636   7.031   0.541  -1.648  0.7152 -0.0312 -0.8216
  114MOL0     C15637   6.949   0.611  -1.536  0.3607 -0.1952  0.0018
  114MOL0     C15638   6.906   0.513  -1.426  0.7702 -0.0204 -0.8884
  114MOL0    Cl15639   6.853   0.355  -1.480  0.3060 -0.1004  0.5074
  114MOL0     C15640   7.221   0.808  -1.206 -1.1141  0.2690  0.2786
  114MOL0     C15641   7.281   0.773  -1.077 -0.0251  0.3477 -0.2855
  114MOL0     O15642   7.358   0.541  -0.912  0.3352  0.0061 -0.2704
  114MOL0     C15643   7.598   0.692  -0.698  0.2744  0.9273 -0.6101
  114MOL0     C15644   7.677   0.667  -0.589  0.0343  0.2964 -0.1500
  114MOL0     N15645   7.828   0.549   0.151  0.7760 -0.3824 -0.2351
  114MOL0     N15646   7.779   0.631   0.237  0.4629  0.0869  0.1799
  114MOL0     C15647   7.465   1.594   0.256  1.2625 -0.6148 -0.4723
  114MOL0     C15648   7.464   1.677   0.146  0.1984  0.1359  0.1566
  114MOL0     C15649   7.505   1.941  -0.187  0.0989  0.0964  1.6681
  114MOL0     C15650   7.499   1.861  -0.305 -1.4388 -1.2424 -0.6572
  114MOL0     C15651   7.481   1.911  -0.441  0.0182 -0.1459 -0.0307
  114MOL0     C15652   7.484   2.044  -0.470 -0.8589 -0.0918 -0.6302
  114MOL0     O15653   7.465   2.104  -0.595  0.6631 -0.1796 -0.6545
  114MOL0     C15654   7.464   2.032  -0.718  0.2139  0.2571  0.2403
  114MOL0     C15655   7.506   2.113  -0.830 -0.8246  0.4064 -0.2675
  114MOL0     C15656   7.645   2.080  -0.905 -0.1725  0.7409 -0.2495
  114MOL0     C15657   7.771   2.086  -0.822 -0.8304  1.0112 -0.4157
  114MOL0     C15658   7.787   1.962  -0.745  0.9508 -0.1504 -0.9384
  114MOL0     C15659   7.802   1.855  -0.688  1.6938 -0.2361 -1.0125
  114MOL0     C15660   7.492   2.131  -0.357 -0.5790  0.2840 -0.1622
  114MOL0     C15661   7.501   2.082  -0.221  0.2944 -0.4142 -0.2290
  114MOL0     C15662   7.508   2.177  -0.105 -1.2484 -0.2145  0.7831
  114MOL0     H15663   7.764   1.593   0.006  0.5615 -1.2626  0.1395
  114MOL0     H15664   7.753   1.438   0.204 -0.8516 -0.6012 -1.2330
  114MOL0     H15665   7.406   1.473   0.479  1.3131  0.3363 -0.6067
  114MOL0     H15666   7.480   1.332   0.551 -0.9523  0.3908  0.1405
  114MOL0     H15667   7.273   1.266   0.440  0.4315  2.5976  2.1104
  114MOL0     H15668   7.326   1.326   0.283  3.4458 -0.8880 -0.4162
  114MOL0     H15669   7.524   1.149   0.365  0.4283 -1.7498  1.6894
  114MOL0     H15670   7.373   1.069   0.430 -2.1792 -2.7794 -2.7491
  114MOL0     H15671   7.288   1.103   0.195 -0.0217 -1.7040  0.3419
  114MOL0     H15672   7.454   1.129   0.138 -1.9435 -1.3385 -1.6885
  114MOL0     H15673   7.411   0.890   0.124  2.0784  1.1387 -0.6005
  114MOL0     H15674   7.344   0.888   0.292 -0.3009  1.0328  0.9140
  114MOL0     H15675   7.561   0.927   0.386 -0.5675  0.2291  0.0281
  114MOL0     H15676   7.543   0.776   0.296  1.9347 -0.3557 -0.2083
  114MOL0     H15677   7.675   1.040   0.204  1.7085 -0.9902 -0.8941
  114MOL0     H15678   7.654   0.892   0.106  3.2910 -3.0411  0.3341
  114MOL0     H15679   7.870   0.961   0.257 -1.1824  0.5127 -3.2506
  114MOL0     H15680   7.788   0.878   0.382 -0.4158 -0.2399 -0.7296
  114MOL0     H15681   7.998   0.825   0.079  1.5361 -1.5824  0.1700
  114MOL0     H15682   8.010   0.464  -0.008 -0.5759  0.0259 -0.8970
  114MOL0     H15683   8.049   0.614  -0.091 -1.2698 -0.3501 -1.4218
  114MOL0     H15684   7.792   0.457  -0.122 -0.3325 -0.6014 -0.9040
  114MOL0     H15685   7.833   0.613  -0.204  0.0925 -1.4397 -3.9116
  114MOL0     H15686   8.031   0.492  -0.308  0.4934 -0.6559  0.0353
  114MOL0     H15687   7.968   0.340  -0.233 -0.5309  0.8639  1.2381
  114MOL0     H15688   7.873   0.334  -0.451 -0.3985  3.0270 -3.1778
  114MOL0     H15689   7.747   0.365  -0.344 -1.2335  0.8726 -0.9077
  114MOL0     H15690   7.679   0.334  -0.570  0.1664 -0.5009 -1.9824
  114MOL0     H15691   7.430   0.319  -0.782  0.8795  0.3942 -0.8912
  114MOL0     H15692   7.580   0.239  -0.745  1.2257  2.3059  3.8165
  114MOL0     H15693   7.563   0.327  -0.894 -2.6150  0.5644 -0.9182
  114MOL0     H15694   7.598   0.840  -1.152 -0.1802  3.3923 -0.9698
  114MOL0     H15695   7.494   0.912  -1.364 -0.2371 -0.9908 -0.0254
  114MOL0     H15696   7.222   0.991  -1.601 -1.4274 -1.1031  1.0274
  114MOL0     H15697   7.382   1.012  -1.526  1.0144 -1.2365  1.4532
  114MOL0     H15698   7.389   0.866  -1.734  0.5438 -1.5761  0.5595
  114MOL0     H15699   7.456   0.801  -1.592  0.1652 -0.4849  1.5375
  114MOL0     H15700   7.260   0.657  -1.564 -2.6998  1.3074 -0.1239
  114MOL0     H15701   7.333   0.630  -1.728 -1.7746 -0.7321  0.0334
  114MOL0     H15702   7.159   0.803  -1.814 -3.4722  0.2679 -1.1402
  114MOL0     H15703   7.098   0.810  -1.649  0.0619  0.0179 -0.7961
  114MOL0     H15704   6.973   0.643  -1.820  1.5531 -1.3503 -1.4360
  114MOL0     H15705   7.123   0.564  -1.843 -0.6231 -1.5191  0.6716
  114MOL0     H15706   7.114   0.518  -1.581  0.7848 -0.5147 -1.0700
  114MOL0     H15707   6.993   0.445  -1.687  0.8324  0.0857 -1.2307
  114MOL0     H15708   6.861   0.668  -1.566 -0.1564  0.8651  3.2495
  114MOL0     H15709   7.014   0.685  -1.489  1.6198  1.1092 -3.4222
  114MOL0     H15710   6.827   0.556  -1.364  3.3116  0.1603  2.5054
  114MOL0     H15711   7.000   0.502  -1.371  1.6319  2.2298 -1.7901
  114MOL0     H15712   7.112   0.811  -1.214 -1.2717 -1.6681  0.9491
  114MOL0     H15713   7.226   0.743  -0.988  0.3473  3.2704  1.0659
  114MOL0     H15714   7.592   0.797  -0.723  2.8506  1.5495  0.9694
  114MOL0     H15715   7.721   0.750  -0.535 -1.1864 -1.3173  3.7107
  114MOL0     H15716   7.382   1.609   0.325  1.8283  1.1446 -0.1098
  114MOL0     H15717   7.386   1.752   0.153 -2.0798 -2.1772  1.1687
  114MOL0     H15718   7.498   1.753  -0.292 -1.0214 -1.2929 -1.0158
  114MOL0     H15719   7.463   1.845  -0.525 -0.6393 -0.1512  0.1088
  114MOL0     H15720   7.534   1.950  -0.702  0.6362  0.7079  0.7742
  114MOL0     H15721   7.360   2.001  -0.730 -0.4724  1.7993  1.7288
  114MOL0     H15722   7.513   2.219  -0.805  5.6137  0.3197 -0.0294
  114MOL0     H15723   7.429   2.104  -0.907 -4.0663  0.1290  2.7545
  114MOL0     H15724   7.629   1.994  -0.971  2.1585  0.6513 -0.7779
  114MOL0     H15725   7.656   2.171  -0.964 -0.0585  0.7429 -0.2266
  114MOL0     H15726   7.776   2.167  -0.749 -0.4381  3.1636 -2.6793
  114MOL0     H15727   7.855   2.096  -0.891  0.6852 -0.0971  1.1773
  114MOL0     H15728   7.805   1.774  -0.618  3.6077 -2.1592 -3.1755
  114MOL0     H15729   7.492   2.239  -0.373  0.7443  0.6200  1.7367
  114MOL0     H15730   7.577   2.148  -0.026  1.5730 -0.3562 -1.5682
  114MOL0     H15731   7.529   2.272  -0.156 -0.7110 -1.3995 -1.3243
  114MOL0     H15732   7.412   2.200  -0.056 -0.6747  1.7865  1.0821
  115MOL0     O15733   7.897   6.945   8.072  0.6434 -0.2033 -0.5255
  115MOL0     C15734   7.931   6.929   7.959 -1.0012 -0.0011  0.2435
  115MOL0     O15735   8.021   7.004   7.891 -0.2480  0.2304  0.1996
  115MOL0     C15736   8.086   7.088   7.974  0.2053 -0.2557 -0.0291
  115MOL0     C15737   8.081   7.231   7.956  0.3752  0.5785  0.0161
  115MOL0     C15738   8.138   7.317   8.050  0.2707 -0.5843  1.0711
  115MOL0     C15739   8.193   7.261   8.161  0.2065  0.1804 -0.3416
  115MOL0     O15740   8.238   7.355   8.249 -0.8100  0.0939 -0.5342
  115MOL0     C15741   8.350   7.303   8.340  0.4052  0.2261  0.1940
  115MOL0     C15742   8.414   7.410   8.421  0.5921 -0.8681 -0.2641
  115MOL0     C15743   8.450   7.538   8.333  0.5617  0.3906 -0.5134
  115MOL0     C15744   8.551   7.626   8.407 -0.1331 -0.5553 -0.1698
  115MOL0     C15745   8.581   7.742   8.318  0.9669  0.3442  0.7085
  115MOL0     C15746   8.664   7.846   8.385  0.2049  0.0999 -0.3768
  115MOL0     C15747   8.675   7.977   8.296 -0.2667 -0.0235 -0.3616
  115MOL0     C15748   8.736   8.080   8.390 -0.6713  0.3366  0.1484
  115MOL0     N15749   8.879   8.066   8.410  0.0631  0.5877  0.5375
  115MOL0     C15750   8.947   8.016   8.516  0.2243 -0.5943 -0.3732
  115MOL0     C15751   9.068   8.081   8.513 -0.1556  0.4345 -0.3889
  115MOL0     C15752   9.180   8.069   8.618  0.1877  1.2947 -0.2352
  115MOL0     C15753   9.179   8.185   8.710 -0.1736  0.4913  0.2904
  115MOL0     C15754   9.251   8.153   8.845  0.4806  0.5089  0.1773
  115MOL0     C15755   9.401   8.109   8.848  0.2831  0.2372 -0.2952
  115MOL0     O15756   9.480   8.195   8.756 -0.7954  0.0924 -0.5523
  115MOL0     C15757   9.530   8.316   8.804  0.3401  0.1640  0.7669
  115MOL0     C15758   9.502   8.376   8.921 -0.4624  0.3852 -0.3924
  115MOL0     C15759   9.562   8.490   8.964 -0.6642 -0.2546  0.2975
  115MOL0     C15760   9.532   8.522   9.107 -0.3199 -0.1899  0.1174
  115MOL0     C15761   9.669   8.550   8.892  0.2479 -0.5001  0.0053
  115MOL0     C15762   9.731   8.683   8.942  0.7309 -0.4245  0.5942
  115MOL0     O15763   9.755   8.717   9.073  0.9551  0.6168  0.4422
  115MOL0     C15764   9.855   8.817   9.076  0.5789 -0.4850  0.4799
  115MOL0     C15765   9.980   8.800   9.011 -0.6242 -0.3515 -0.2788
  115MOL0     C15766  10.068   8.910   9.005 -0.1670  0.6637  0.6686
  115MOL0     C15767  10.052   9.031   9.073 -0.4143 -0.2111  0.3120
  115MOL0     O15768  10.147   9.129   9.065 -0.8241  0.1669  0.2872
  115MOL0     C15769  10.122   9.257   9.138  0.6205 -0.2948  0.3710
  115MOL0     C15770  10.239   9.360   9.129  0.1578  0.0375 -0.0908
  115MOL0     C15771  10.238   9.467   9.024 -0.2334 -0.5802 -0.5175
  115MOL0     C15772  10.109   9.555   9.023  0.1269 -0.1599  1.7716
  115MOL0     C15773  10.079   9.623   9.160  0.6200  0.1741  1.0140
  115MOL0     C15774  10.181   9.734   9.176 -0.2198 -0.7853  0.1523
  115MOL0     C15775  10.177   9.812   9.308  0.4856 -1.0460 -0.3862
  115MOL0     C15776  10.312   9.805   9.368  0.1727 -0.0576  0.2331
  115MOL0    Cl15777  10.351   9.639   9.420  0.4281  0.6061  0.5887
  115MOL0     C15778   9.939   9.029   9.159  0.0392 -0.1774  0.5745
  115MOL0     C15779   9.832   8.934   9.144  0.1195  0.0054 -0.9021
  115MOL0     O15780   9.755   8.754   8.846 -0.4541  0.0229 -0.3286
  115MOL0     C15781   9.695   8.494   8.769 -0.1229  0.8476 -0.1724
  115MOL0     C15782   9.636   8.368   8.731  0.6890  0.0331  0.7149
  115MOL0     N15783   9.075   8.143   8.394  0.3826 -0.3581  0.0718
  115MOL0     N15784   8.959   8.133   8.332  0.3514  0.0017  0.0077
  115MOL0     C15785   8.196   7.125   8.185  0.1261 -0.2472  0.6691
  115MOL0     C15786   8.159   7.039   8.084 -0.0511 -0.4687  0.3524
  115MOL0     C15787   7.865   6.821   7.886  0.1285 -1.0081 -0.8514
  115MOL0     C15788   7.778   6.853   7.789  0.1072 -0.1414 -0.3906
  115MOL0     C15789   7.692   6.755   7.728 -0.3835 -0.0086 -0.6616
  115MOL0     C15790   7.701   6.625   7.768 -0.2326  0.1795  0.1188
  115MOL0     O15791   7.638   6.518   7.707 -0.5461 -0.3025  0.7572
  115MOL0     C15792   7.620   6.536   7.569 -1.2221  0.0548 -0.0192
  115MOL0     C15793   7.577   6.411   7.507 -0.2856  0.5910  1.3943
  115MOL0     C15794   7.456   6.350   7.583  0.2442  0.2074 -1.2650
  115MOL0     C15795   7.379   6.250   7.497  0.1514  0.9115  0.2544
  115MOL0     C15796   7.473   6.136   7.475  0.1783 -0.1264 -0.7320
  115MOL0     C15797   7.543   6.039   7.471 -0.0721 -0.5087  0.0966
  115MOL0     C15798   7.782   6.598   7.877 -0.3488  0.5288  1.1257
  115MOL0     C15799   7.874   6.690   7.931 -0.0347 -0.0133  0.5959
  115MOL0     C15800   7.968   6.640   8.036 -0.1629  0.0615  0.0571
  115MOL0     H15801   8.030   7.264   7.867 -0.3252  0.9101  0.5385
  115MOL0     H15802   8.142   7.425   8.039 -1.6193 -0.4294  1.5231
  115MOL0     H15803   8.426   7.259   8.274  2.3328 -0.2192  2.5465
  115MOL0     H15804   8.315   7.234   8.417 -1.2886  0.7063 -0.1153
  115MOL0     H15805   8.349   7.433   8.506  1.0814  2.7649 -0.6891
  115MOL0     H15806   8.506   7.366   8.460  0.4496 -2.0849 -1.2641
  115MOL0     H15807   8.486   7.505   8.235 -1.1369 -1.6627 -0.5280
  115MOL0     H15808   8.361   7.600   8.324  1.1947  1.3045 -0.5995
  115MOL0     H15809   8.511   7.670   8.498  1.8201  2.2261 -0.5237
  115MOL0     H15810   8.637   7.567   8.439 -0.0026  0.5453  1.6478
  115MOL0     H15811   8.493   7.792   8.275  2.6322  1.9537 -1.0193
  115MOL0     H15812   8.642   7.699   8.239  0.3077 -0.8802  0.8415
  115MOL0     H15813   8.618   7.875   8.480 -0.7669  1.4108 -1.2124
  115MOL0     H15814   8.764   7.802   8.400  1.2951  2.4203 -0.3935
  115MOL0     H15815   8.576   8.017   8.270 -1.3098 -2.2954 -0.1168
  115MOL0     H15816   8.725   7.970   8.199 -0.2402  2.6943 -0.6244
  115MOL0     H15817   8.727   8.177   8.341  0.4130  0.8882  1.0038
  115MOL0     H15818   8.686   8.089   8.487  3.1264 -1.5528  2.5381
  115MOL0     H15819   8.917   7.951   8.599  1.7518 -1.0110 -0.1278
  115MOL0     H15820   9.281   8.052   8.578 -1.4649 -1.9959 -3.5379
  115MOL0     H15821   9.153   7.984   8.681  3.1837  1.6084  1.7046
  115MOL0     H15822   9.224   8.276   8.670 -0.5882  1.5953  2.1961
  115MOL0     H15823   9.077   8.216   8.735  0.0985  4.4882 -2.5442
  115MOL0     H15824   9.242   8.240   8.911  0.9115  0.3146  0.4953
  115MOL0     H15825   9.196   8.075   8.897 -0.5339 -0.3432 -2.0504
  115MOL0     H15826   9.443   8.111   8.949 -0.0191  2.3842 -0.1547
  115MOL0     H15827   9.404   8.005   8.815  1.5446  0.1086  0.1837
  115MOL0     H15828   9.442   8.327   8.997  2.0569 -0.0285  1.4732
  115MOL0     H15829   9.603   8.464   9.166 -0.6158 -0.9142 -0.2319
  115MOL0     H15830   9.429   8.507   9.139 -0.6621 -0.5370 -1.0831
  115MOL0     H15831   9.550   8.628   9.127  0.2114 -0.1975 -0.2988
  115MOL0     H15832   9.993   8.704   8.961 -1.3042 -0.2585 -0.6413
  115MOL0     H15833  10.157   8.895   8.946 -1.8346 -0.3180 -1.7422
  115MOL0     H15834  10.029   9.306   9.108 -0.1457 -2.6252 -1.3348
  115MOL0     H15835  10.099   9.228   9.241  1.5940 -1.4001  0.3011
  115MOL0     H15836  10.252   9.407   9.227 -2.2985  2.6744 -0.8934
  115MOL0     H15837  10.332   9.302   9.121  0.9174  0.4843  3.5701
  115MOL0     H15838  10.238   9.419   8.926 -2.7058 -0.5226 -0.6168
  115MOL0     H15839  10.328   9.526   9.044 -0.9012  1.4520 -2.9532
  115MOL0     H15840  10.025   9.495   8.987  1.1004  1.4172 -4.2455
  115MOL0     H15841  10.110   9.615   8.932 -2.8295 -1.7020  0.5961
  115MOL0     H15842   9.976   9.659   9.154  1.4956  2.7288 -0.0773
  115MOL0     H15843  10.103   9.557   9.244  3.2236  1.4724  1.3695
  115MOL0     H15844  10.153   9.802   9.095 -1.2564  0.7642  1.7413
  115MOL0     H15845  10.280   9.691   9.161 -1.1315 -4.3256  2.9171
  115MOL0     H15846  10.123   9.767   9.392  1.1958  0.6921  1.0799
  115MOL0     H15847  10.145   9.916   9.300 -2.2437 -1.7804 -0.0602
  115MOL0     H15848  10.309   9.856   9.464  1.2735  1.7962 -0.6539
  115MOL0     H15849  10.390   9.861   9.315 -0.7124  0.7164 -0.2786
  115MOL0     H15850   9.909   9.108   9.227 -2.1673 -2.1786  2.0619
  115MOL0     H15851   9.744   8.941   9.207 -0.0507 -0.5981 -1.0682
  115MOL0     H15852   9.755   8.549   8.697  2.5405  0.8546  1.8675
  115MOL0     H15853   9.650   8.319   8.635 -1.6358  0.3295  0.1654
  115MOL0     H15854   8.230   7.091   8.282 -1.8320  1.2326  1.9381
  115MOL0     H15855   8.164   6.932   8.101 -0.3114 -0.8734 -1.8248
  115MOL0     H15856   7.760   6.950   7.746 -1.6277 -0.8993 -1.4885
  115MOL0     H15857   7.632   6.775   7.639 -1.9812 -0.6613  0.2261
  115MOL0     H15858   7.540   6.609   7.556  0.6637  1.9988 -1.2489
  115MOL0     H15859   7.710   6.567   7.515  0.3247 -0.3739  2.1390
  115MOL0     H15860   7.661   6.345   7.484  1.7442  3.9444 -2.0111
  115MOL0     H15861   7.536   6.432   7.408  0.9686  0.2687  0.7852
  115MOL0     H15862   7.490   6.303   7.676 -0.8152 -1.9215 -1.9038
  115MOL0     H15863   7.379   6.421   7.615 -0.6543  0.1494 -3.1389
  115MOL0     H15864   7.349   6.294   7.402 -1.4180  0.9916  0.7521
  115MOL0     H15865   7.281   6.226   7.540 -0.3155 -1.2020 -1.8115
  115MOL0     H15866   7.600   5.952   7.449 -0.4360 -0.7255  0.0142
  115MOL0     H15867   7.784   6.496   7.914 -1.2116 -0.0642 -0.3857
  115MOL0     H15868   7.961   6.533   8.056 -0.6529  0.2195  0.7385
  115MOL0     H15869   8.072   6.646   8.003  0.2690 -2.3005  0.8348
  115MOL0     H15870   7.942   6.682   8.133 -3.8032 -0.3752 -0.5905
  116MOL0     O15871   7.640  10.681  10.805  0.2603  0.0557  0.2659
  116MOL0     C15872   7.579  10.785  10.831 -1.1663  1.0409  0.7715
  116MOL0     O15873   7.637  10.908  10.833 -0.4983 -0.2095 -0.4213
  116MOL0     C15874   7.756  10.928  10.762  0.2096 -0.7752  0.4814
  116MOL0     C15875   7.871  10.854  10.791 -0.5566  0.0956 -0.1276
  116MOL0     C15876   7.985  10.861  10.713  0.1191 -0.4753 -0.4686
  116MOL0     C15877   7.998  10.960  10.616  0.4761 -0.9137 -0.2816
  116MOL0     O15878   8.105  10.958  10.540 -0.4389  0.3043 -0.1578
  116MOL0     C15879   8.116  11.050  10.430  0.1683  1.4432  0.7221
  116MOL0     C15880   8.246  11.034  10.345 -0.9256 -0.4929  0.4849
  116MOL0     C15881   8.231  10.903  10.259  0.2678  0.1277  0.4473
  116MOL0     C15882   8.372  10.858  10.211  1.0090  0.5356  0.4294
  116MOL0     C15883   8.353  10.720  10.141 -0.4377 -0.0284 -0.5604
  116MOL0     C15884   8.287  10.746  10.011  0.7067 -1.0345  0.7674
  116MOL0     C15885   8.291  10.609   9.935 -0.1604 -0.4717  0.5623
  116MOL0     C15886   8.189  10.597   9.823 -0.6210  0.4248  0.8231
  116MOL0     N15887   8.167  10.712   9.736 -0.1168 -0.1459 -0.0150
  116MOL0     C15888   8.273  10.772   9.675  0.2185  0.1063 -0.3361
  116MOL0     C15889   8.223  10.891   9.628 -0.8148  0.1868 -0.1205
  116MOL0     C15890   8.302  10.988   9.542  0.0492  0.1142 -0.2603
  116MOL0     C15891   8.427  11.042   9.627 -0.5320  0.4638 -0.5882
  116MOL0     C15892   8.400  11.103   9.768  0.1265  0.3045 -0.2149
  116MOL0     C15893   8.306  11.219   9.777  0.3826 -0.0342 -0.1831
  116MOL0     O15894   8.296  11.244   9.917  0.1476  0.5440  0.0381
  116MOL0     C15895   8.169  11.231   9.975  0.7174  0.3003  0.1612
  116MOL0     C15896   8.095  11.114   9.954  0.3530 -0.5538  0.0448
  116MOL0     C15897   7.976  11.099  10.025 -0.4846  0.1793 -0.3038
  116MOL0     C15898   7.909  10.963  10.016 -0.4353  0.4945 -0.2487
  116MOL0     C15899   7.932  11.211  10.104 -0.3840  0.5908  0.0669
  116MOL0     C15900   7.815  11.199  10.191  0.0998 -0.4160  0.1641
  116MOL0     O15901   7.701  11.259  10.145  0.2474 -0.2039 -0.0324
  116MOL0     C15902   7.587  11.289  10.218 -0.2621  0.1356  0.1285
  116MOL0     C15903   7.562  11.252  10.345  0.1265  0.8971 -0.7500
  116MOL0     C15904   7.440  11.290  10.409 -0.7317  0.2865  0.2056
  116MOL0     C15905   7.348  11.368  10.341  0.9050  0.4835 -0.5809
  116MOL0     O15906   7.227  11.397  10.401 -0.2375 -0.0608 -0.1848
  116MOL0     C15907   7.237  11.435  10.539 -0.1327  0.1840 -0.4964
  116MOL0     C15908   7.103  11.473  10.603 -0.6111  0.1637  0.1717
  116MOL0     C15909   7.075  11.617  10.577 -0.9705 -1.2046 -0.2187
  116MOL0     C15910   6.936  11.671  10.620 -0.6261 -0.5276  0.0607
  116MOL0     C15911   6.933  11.828  10.628 -0.3399 -0.1802 -0.0954
  116MOL0     C15912   6.983  11.901  10.505  0.3016 -0.4462 -1.0707
  116MOL0     C15913   6.962  12.054  10.520 -0.7997 -0.3010 -0.7415
  116MOL0     C15914   6.819  12.107  10.519  0.4222  1.1671 -0.5209
  116MOL0    Cl15915   6.824  12.267  10.595  0.3749 -0.1680 -0.0300
  116MOL0     C15916   7.360  11.386  10.209 -0.5744 -1.0642  0.0291
  116MOL0     C15917   7.485  11.357  10.144 -0.0597  0.5866 -0.1967
  116MOL0     O15918   7.825  11.129  10.291  0.6479 -0.3833 -0.2252
  116MOL0     C15919   8.004  11.313  10.127 -2.0740 -0.7817 -0.2801
  116MOL0     C15920   8.135  11.327  10.071 -0.0119  0.2690 -0.2542
  116MOL0     N15921   8.090  10.900   9.669  0.0317  0.5027 -0.0191
  116MOL0     N15922   8.055  10.795   9.735 -0.2783 -0.3942 -0.0971
  116MOL0     C15923   7.890  11.051  10.594  1.0097  0.2113 -0.1594
  116MOL0     C15924   7.774  11.036  10.668  0.1825  0.1410  0.7465
  116MOL0     C15925   7.451  10.774  10.888 -0.2191  1.9589 -1.1133
  116MOL0     C15926   7.354  10.703  10.816 -0.0823  0.1739 -0.2702
  116MOL0     C15927   7.224  10.685  10.873 -0.3495 -0.7581 -1.2576
  116MOL0     C15928   7.186  10.759  10.984 -0.4508 -0.0522  1.0153
  116MOL0     O15929   7.069  10.752  11.051  0.1203  0.5745 -0.1701
  116MOL0     C15930   6.940  10.764  10.985  0.0162 -0.6737  0.5215
  116MOL0     C15931   6.816  10.738  11.077  0.6040 -0.5012  0.5736
  116MOL0     C15932   6.691  10.812  11.013  1.3670 -0.0793 -0.8814
  116MOL0     C15933   6.553  10.789  11.071 -0.0740 -0.4853 -0.2202
  116MOL0     C15934   6.510  10.656  11.041 -0.2889  0.0839  0.2152
  116MOL0     C15935   6.472  10.549  11.017 -0.5668 -0.3963 -0.3667
  116MOL0     C15936   7.279  10.838  11.049 -0.5027 -0.8336  0.5051
  116MOL0     C15937   7.414  10.835  11.004  0.5223 -0.1724 -0.0380
  116MOL0     C15938   7.512  10.911  11.090 -0.1110 -0.3671 -0.5800
  116MOL0     H15939   7.860  10.785  10.874 -1.8254  1.4229  0.8425
  116MOL0     H15940   8.063  10.786  10.726 -1.3724 -1.9523  0.3875
  116MOL0     H15941   8.106  11.148  10.479 -3.5335  0.1265  3.0470
  116MOL0     H15942   8.028  11.038  10.365  0.5151  1.3716  0.2644
  116MOL0     H15943   8.265  11.117  10.276 -1.1151 -0.3141  0.6441
  116MOL0     H15944   8.334  11.027  10.409  1.0337 -1.2266 -2.1055
  116MOL0     H15945   8.188  10.826  10.324 -1.1300  2.1034  1.9841
  116MOL0     H15946   8.155  10.929  10.185  0.7362 -0.6474 -0.3293
  116MOL0     H15947   8.407  10.934  10.140  0.8280 -0.4814 -0.7855
  116MOL0     H15948   8.443  10.839  10.292  0.9447 -2.0203 -0.0198
  116MOL0     H15949   8.293  10.654  10.205 -4.0965  1.5728 -2.0327
  116MOL0     H15950   8.447  10.669  10.120  0.3930  1.8713 -1.7352
  116MOL0     H15951   8.185  10.781  10.031  1.4807  0.2135  2.7410
  116MOL0     H15952   8.337  10.826   9.957 -1.3006  1.6819  2.6645
  116MOL0     H15953   8.268  10.528  10.004  2.1084 -0.7458  1.0945
  116MOL0     H15954   8.387  10.594   9.884 -2.0781  0.8228 -3.9788
  116MOL0     H15955   8.206  10.505   9.766 -1.2679 -0.3442  1.8425
  116MOL0     H15956   8.094  10.586   9.876 -0.3836 -0.6360  1.0657
  116MOL0     H15957   8.372  10.732   9.658 -0.3856 -1.5472 -0.1240
  116MOL0     H15958   8.241  11.077   9.524  2.3852  2.2810  1.8206
  116MOL0     H15959   8.331  10.931   9.453 -0.0219 -0.9258  0.3713
  116MOL0     H15960   8.509  10.971   9.632  3.1361  4.2062 -1.8025
  116MOL0     H15961   8.465  11.131   9.576 -1.4067  0.7615 -0.7489
  116MOL0     H15962   8.358  11.028   9.836 -0.1722 -0.0708 -0.7976
  116MOL0     H15963   8.495  11.141   9.806  1.0806 -0.7845 -1.3966
  116MOL0     H15964   8.353  11.306   9.731  5.2432 -1.9978  0.4707
  116MOL0     H15965   8.206  11.205   9.735 -0.8686  1.0764  2.1865
  116MOL0     H15966   8.143  11.037   9.895  1.6882 -0.7309  1.3180
  116MOL0     H15967   7.992  10.892  10.020  0.5634  1.6569  0.7470
  116MOL0     H15968   7.864  10.939   9.920 -1.0901  1.8251 -0.2973
  116MOL0     H15969   7.850  10.950  10.107  0.0794 -0.8576 -0.0910
  116MOL0     H15970   7.632  11.200  10.410 -0.2516  2.3408  0.8919
  116MOL0     H15971   7.440  11.252  10.511  0.1630 -0.8416 -0.1907
  116MOL0     H15972   7.264  11.350  10.602 -1.9536 -2.3943 -2.9384
  116MOL0     H15973   7.311  11.514  10.551 -0.2672  0.5599 -1.8697
  116MOL0     H15974   7.022  11.422  10.551  0.6367  0.5346 -2.2684
  116MOL0     H15975   7.098  11.440  10.707 -4.1821  0.4199  0.2273
  116MOL0     H15976   7.076  11.622  10.468 -0.4674 -3.0457 -0.3336
  116MOL0     H15977   7.157  11.680  10.612 -3.1707  0.0064  3.3174
  116MOL0     H15978   6.920  11.634  10.722  2.4765 -0.9261  0.4936
  116MOL0     H15979   6.858  11.627  10.558 -2.4855  1.1200  1.1049
  116MOL0     H15980   6.833  11.864  10.653  1.1872  3.3943  1.4952
  116MOL0     H15981   7.004  11.853  10.707  1.1745 -0.5282 -1.3007
  116MOL0     H15982   6.936  11.871  10.411  0.7888  1.0981 -1.8426
  116MOL0     H15983   7.088  11.873  10.497 -0.0490 -2.5975  0.7851
  116MOL0     H15984   7.024  12.113  10.452 -0.5498 -0.4770 -0.6686
  116MOL0     H15985   7.009  12.076  10.616  1.6210 -1.8069 -1.4873
  116MOL0     H15986   6.751  12.040  10.572 -1.0838  2.3254 -0.9156
  116MOL0     H15987   6.791  12.112  10.413  0.0748  0.7822 -0.4485
  116MOL0     H15988   7.269  11.435  10.177 -1.4373 -2.5590  0.1016
  116MOL0     H15989   7.516  11.389  10.044  1.7135  2.9972  1.0062
  116MOL0     H15990   7.967  11.373  10.210 -2.1804 -2.6269  1.0800
  116MOL0     H15991   8.208  11.406  10.087 -0.7164  0.4652  2.4516
  116MOL0     H15992   7.900  11.133  10.524  1.2561 -1.7176 -2.5354
  116MOL0     H15993   7.685  11.095  10.647 -0.1611  0.6182  3.2117
  116MOL0     H15994   7.381  10.673  10.716  0.5000  5.5479 -2.0423
  116MOL0     H15995   7.146  10.625  10.827 -1.2222  0.3041 -1.1744
  116MOL0     H15996   6.936  10.865  10.944  1.0146 -0.5575  0.6870
  116MOL0     H15997   6.931  10.694  10.902 -0.7042 -1.9285  1.6138
  116MOL0     H15998   6.844  10.773  11.176  1.1911 -0.3535  0.3574
  116MOL0     H15999   6.795  10.631  11.073  0.6237 -0.4664 -1.1659
  116MOL0     H16000   6.711  10.919  10.999  0.0882  0.7237  2.3924
  116MOL0     H16001   6.683  10.769  10.913  5.5598 -2.1354 -0.5234
  116MOL0     H16002   6.484  10.867  11.038 -0.3627  0.0482  1.5587
  116MOL0     H16003   6.569  10.793  11.179  2.8283 -4.0409 -0.3611
  116MOL0     H16004   6.432  10.453  10.990  0.0420 -0.8312  0.2183
  116MOL0     H16005   7.246  10.897  11.134  1.0312  0.9532 -0.0829
  116MOL0     H16006   7.465  10.935  11.186 -0.6272 -1.7934 -0.4557
  116MOL0     H16007   7.609  10.862  11.102  0.4187  1.0734  1.8021
  116MOL0     H16008   7.519  11.010  11.045  2.0695  0.6321  1.6856
  117MOL0     O16009   6.501  10.308   3.995  0.1223 -0.1049 -0.0474
  117MOL0     C16010   6.591  10.317   3.915 -0.6463  0.0033 -0.4253
  117MOL0     O16011   6.572  10.360   3.781 -0.0780 -0.5107 -0.3156
  117MOL0     C16012   6.450  10.421   3.760 -0.5064 -0.3414  0.0832
  117MOL0     C16013   6.338  10.349   3.733 -0.7426 -0.3443  0.1340
  117MOL0     C16014   6.221  10.416   3.710  0.2253  0.0510  0.2422
  117MOL0     C16015   6.232  10.554   3.684  0.8537  0.1425  1.2230
  117MOL0     O16016   6.116  10.628   3.653 -0.0465  1.3737  0.2917
  117MOL0     C16017   6.118  10.678   3.513  0.5481  0.6961 -0.2119
  117MOL0     C16018   6.014  10.783   3.515 -0.0100 -0.0333  0.7543
  117MOL0     C16019   6.027  10.905   3.608  0.7639 -0.1605 -0.6642
  117MOL0     C16020   6.010  11.039   3.540 -0.3447  0.0039  0.2565
  117MOL0     C16021   6.024  11.156   3.639  1.0070  0.2405  0.6782
  117MOL0     C16022   6.148  11.160   3.724  0.4968 -1.0275 -0.2837
  117MOL0     C16023   6.152  11.282   3.816 -0.5046 -0.0766  0.1461
  117MOL0     C16024   6.048  11.263   3.931 -0.0264  0.2484 -0.1680
  117MOL0     N16025   6.050  11.359   4.038 -0.5169  0.5853 -0.6049
  117MOL0     C16026   6.063  11.331   4.171 -1.5015  0.6028 -1.0947
  117MOL0     C16027   6.047  11.450   4.236  0.0218  0.6185  0.6727
  117MOL0     C16028   6.067  11.473   4.386  0.0467  0.0679 -0.2932
  117MOL0     C16029   5.943  11.401   4.462 -0.8005  0.2779  0.3821
  117MOL0     C16030   5.825  11.498   4.459 -0.1540 -0.0024 -0.3862
  117MOL0     C16031   5.836  11.608   4.557  0.3727 -1.1553  0.1347
  117MOL0     O16032   5.727  11.698   4.536 -0.8561 -0.3054  0.3403
  117MOL0     C16033   5.693  11.789   4.637 -0.0745  0.6060  0.0146
  117MOL0     C16034   5.581  11.872   4.607 -0.0151  0.1663  0.1661
  117MOL0     C16035   5.551  11.979   4.688 -0.8031  0.1505  0.2834
  117MOL0     C16036   5.442  12.069   4.646  0.1331  0.0415  0.2784
  117MOL0     C16037   5.612  11.992   4.817  0.1979  0.9576  0.0435
  117MOL0     C16038   5.554  12.076   4.932  0.4144  0.4050 -0.2597
  117MOL0     O16039   5.626  12.078   5.046  0.5563 -0.2632  0.5931
  117MOL0     C16040   5.601  12.181   5.139 -0.0115  0.0208  0.0700
  117MOL0     C16041   5.646  12.152   5.273  0.3189  0.6851  1.1458
  117MOL0     C16042   5.639  12.252   5.368 -0.0648  0.0933 -0.3515
  117MOL0     C16043   5.591  12.384   5.347 -0.6718 -0.1166  0.0264
  117MOL0     O16044   5.580  12.497   5.430 -0.0437  0.3471  0.4566
  117MOL0     C16045   5.578  12.463   5.568 -0.7655  0.6757  1.2983
  117MOL0     C16046   5.529  12.580   5.653  0.3075  0.5767 -0.2979
  117MOL0     C16047   5.621  12.699   5.640 -0.4025 -0.1915 -1.0692
  117MOL0     C16048   5.632  12.780   5.772 -0.3749  0.0767  0.6630
  117MOL0     C16049   5.503  12.843   5.809 -0.8459  0.1189 -0.5989
  117MOL0     C16050   5.458  12.820   5.959  0.5741 -0.8176  0.4543
  117MOL0     C16051   5.316  12.862   5.979  0.9242 -0.1312  0.8344
  117MOL0     C16052   5.287  12.921   6.121  0.8363  0.7256 -0.2697
  117MOL0    Cl16053   5.135  13.023   6.127 -0.2116  0.0397  0.2827
  117MOL0     C16054   5.548  12.405   5.217  0.0849  0.0069 -1.0897
  117MOL0     C16055   5.552  12.309   5.114 -0.8600 -0.0989  0.1856
  117MOL0     O16056   5.441  12.129   4.915  0.2468 -0.0433  1.0201
  117MOL0     C16057   5.712  11.890   4.854 -0.2657 -0.2595  0.9801
  117MOL0     C16058   5.753  11.799   4.763 -0.1607  0.0953  0.4821
  117MOL0     N16059   6.008  11.538   4.141 -0.6683 -0.8660  0.6136
  117MOL0     N16060   6.028  11.492   4.024  0.4288  0.2746 -1.0553
  117MOL0     C16061   6.350  10.627   3.716  0.7322 -0.5127 -0.6874
  117MOL0     C16062   6.456  10.555   3.755 -0.3866 -0.0336 -0.3334
  117MOL0     C16063   6.730  10.301   3.948 -0.0620 -1.1869  0.3206
  117MOL0     C16064   6.820  10.362   3.857 -0.8585  0.4667  0.4837
  117MOL0     C16065   6.962  10.359   3.890  0.9780  0.3692  0.1853
  117MOL0     C16066   7.016  10.303   4.002  0.3573  0.0739  0.2614
  117MOL0     O16067   7.151  10.319   4.019 -0.0275  0.2660  0.2060
  117MOL0     C16068   7.195  10.365   4.145 -0.2315  0.2958  0.3074
  117MOL0     C16069   7.275  10.248   4.219  0.7591 -0.9499 -0.3565
  117MOL0     C16070   7.297  10.292   4.366 -0.7526 -0.1930 -0.2245
  117MOL0     C16071   7.196  10.229   4.461  0.3746  1.0631  0.4467
  117MOL0     C16072   7.191  10.306   4.577  0.7942  0.0209 -0.1450
  117MOL0     C16073   7.182  10.376   4.672  0.2784  0.1009  0.8771
  117MOL0     C16074   6.932  10.232   4.078  0.0703  0.0914 -0.1953
  117MOL0     C16075   6.790  10.233   4.054  0.1505  0.1885 -0.0733
  117MOL0     C16076   6.706  10.152   4.149  0.2116  0.0701 -0.1213
  117MOL0     H16077   6.345  10.242   3.750  3.1727  0.1187  2.8500
  117MOL0     H16078   6.123  10.371   3.693 -1.0993  1.8087  2.6314
  117MOL0     H16079   6.092  10.588   3.455 -1.9860  2.0783 -1.3798
  117MOL0     H16080   6.220  10.709   3.490  1.5586 -1.5223  0.8842
  117MOL0     H16081   5.996  10.822   3.414 -3.8824  2.9427  2.3402
  117MOL0     H16082   5.926  10.725   3.546 -0.6175 -0.0174 -0.8537
  117MOL0     H16083   5.948  10.901   3.684  1.9041  2.3957  0.8089
  117MOL0     H16084   6.124  10.896   3.658  0.9099  2.3577 -0.3280
  117MOL0     H16085   6.093  11.049   3.469  2.9446 -1.2751  3.5869
  117MOL0     H16086   5.913  11.032   3.490  0.7175 -2.7739 -1.6810
  117MOL0     H16087   5.938  11.151   3.706  0.3491 -2.0417 -0.2448
  117MOL0     H16088   6.019  11.246   3.577  0.5926 -1.0157 -1.1961
  117MOL0     H16089   6.167  11.071   3.784  1.1251 -0.8163 -0.1614
  117MOL0     H16090   6.238  11.157   3.661  0.3401 -1.7872 -0.4815
  117MOL0     H16091   6.121  11.372   3.762 -0.8381  0.1117  0.6395
  117MOL0     H16092   6.253  11.292   3.855 -0.6667  0.3132  0.4706
  117MOL0     H16093   5.948  11.267   3.887  0.2347 -4.5169 -1.8203
  117MOL0     H16094   6.059  11.160   3.968  1.5126 -0.8334 -3.2855
  117MOL0     H16095   6.105  11.240   4.213 -1.4965  1.1173  0.0595
  117MOL0     H16096   6.071  11.580   4.411  1.1068 -0.5353  2.5702
  117MOL0     H16097   6.162  11.430   4.419 -0.5796 -2.0100 -1.0362
  117MOL0     H16098   5.903  11.309   4.419 -2.7028  1.6989 -1.0647
  117MOL0     H16099   5.970  11.382   4.566 -0.8882  0.0832  0.3701
  117MOL0     H16100   5.816  11.531   4.355  0.1438  1.7678  0.1291
  117MOL0     H16101   5.728  11.462   4.497 -0.4346  1.5808  0.4971
  117MOL0     H16102   5.818  11.565   4.656 -2.7408 -2.7447 -0.9843
  117MOL0     H16103   5.932  11.662   4.554 -1.9237  3.4269  0.4793
  117MOL0     H16104   5.531  11.859   4.511 -0.4730 -0.3713  0.4709
  117MOL0     H16105   5.476  12.173   4.649 -0.4263  0.3295 -1.9547
  117MOL0     H16106   5.354  12.039   4.704  1.4447  0.9280  2.9073
  117MOL0     H16107   5.420  12.057   4.540  0.1828  2.1658 -0.0175
  117MOL0     H16108   5.691  12.055   5.288 -1.5398 -0.9099 -2.3153
  117MOL0     H16109   5.666  12.216   5.467  3.0453 -2.8051 -2.0590
  117MOL0     H16110   5.510  12.378   5.580  2.6799 -2.5938 -0.3230
  117MOL0     H16111   5.683  12.438   5.584 -1.0117 -6.2596 -3.4435
  117MOL0     H16112   5.431  12.612   5.616  0.6346  1.4484 -0.4599
  117MOL0     H16113   5.517  12.541   5.754  2.1374  1.4159  0.2899
  117MOL0     H16114   5.588  12.765   5.559  1.7167  0.3524 -1.5535
  117MOL0     H16115   5.719  12.668   5.603 -1.2340 -0.2709 -3.4110
  117MOL0     H16116   5.720  12.844   5.775  2.9883 -4.0205  3.9266
  117MOL0     H16117   5.649  12.710   5.855  2.6462  1.8042  1.6540
  117MOL0     H16118   5.517  12.946   5.773 -0.4575 -0.4776 -2.2127
  117MOL0     H16119   5.420  12.810   5.747 -0.8762  2.2713 -1.8149
  117MOL0     H16120   5.527  12.872   6.025  2.2137 -2.6385  0.2529
  117MOL0     H16121   5.453  12.713   5.980  0.3398 -1.1073 -0.9789
  117MOL0     H16122   5.241  12.783   5.969  0.7695  0.2066 -0.8875
  117MOL0     H16123   5.297  12.934   5.899 -0.4118 -1.3957 -0.0348
  117MOL0     H16124   5.366  12.992   6.142  0.0636  1.6092 -0.2969
  117MOL0     H16125   5.280  12.842   6.197 -0.2164  0.1809 -0.9051
  117MOL0     H16126   5.513  12.505   5.192 -0.7555 -0.2138 -0.8277
  117MOL0     H16127   5.511  12.337   5.018  1.5271  1.0426 -0.5693
  117MOL0     H16128   5.735  11.883   4.960 -1.3609  2.3819  1.4818
  117MOL0     H16129   5.835  11.734   4.792  0.6329  1.9535  2.7857
  117MOL0     H16130   6.343  10.735   3.717 -1.2147 -0.5552  1.9786
  117MOL0     H16131   6.548  10.612   3.767 -2.5811  4.0846 -1.0538
  117MOL0     H16132   6.789  10.408   3.763  1.0186 -0.8798 -0.8732
  117MOL0     H16133   7.029  10.414   3.826  1.6374  1.4643  1.7571
  117MOL0     H16134   7.254  10.455   4.130  0.8602 -0.5884 -0.9297
  117MOL0     H16135   7.112  10.395   4.210  0.0988  3.3892 -0.5573
  117MOL0     H16136   7.370  10.233   4.167  2.3108 -1.2748  2.3822
  117MOL0     H16137   7.225  10.151   4.216 -2.8480  0.7287  0.3124
  117MOL0     H16138   7.397  10.260   4.397 -1.0485  0.8467  2.0098
  117MOL0     H16139   7.297  10.400   4.382 -0.7957 -0.1536 -0.4806
  117MOL0     H16140   7.217  10.122   4.470  2.0519  1.1954 -1.2805
  117MOL0     H16141   7.097  10.236   4.415 -1.0820  0.1268  3.2000
  117MOL0     H16142   7.163  10.443   4.754  0.0117  1.1007  0.0123
  117MOL0     H16143   6.973  10.182   4.165  0.7400 -1.2951 -1.2798
  117MOL0     H16144   6.771  10.075   4.192  1.8714  2.1132  1.2220
  117MOL0     H16145   6.676  10.215   4.233  0.6440  0.2603 -0.1049
  117MOL0     H16146   6.621  10.097   4.107 -1.0472  1.1751  0.8743
  118MOL0     O16147   9.435   2.676   2.519  0.4061  0.0823  0.3497
  118MOL0     C16148   9.402   2.785   2.473 -0.7200  0.2967 -0.1166
  118MOL0     O16149   9.271   2.822   2.454  0.1988  0.3861 -0.2011
  118MOL0     C16150   9.174   2.767   2.544  0.3126  0.4363 -0.0187
  118MOL0     C16151   9.103   2.855   2.615  0.1669  1.4533 -0.0267
  118MOL0     C16152   8.991   2.825   2.684  1.0380  0.4579 -0.1392
  118MOL0     C16153   8.949   2.691   2.687  0.4634 -0.5373 -0.5866
  118MOL0     O16154   8.840   2.642   2.756 -0.0303 -0.1358  0.5714
  118MOL0     C16155   8.772   2.741   2.837  0.5454  0.6109  0.4123
  118MOL0     C16156   8.676   2.665   2.933 -0.2277  0.1637 -0.7478
  118MOL0     C16157   8.596   2.762   3.027  0.2342  0.3534 -0.1442
  118MOL0     C16158   8.551   2.693   3.163  0.1306  0.7890  0.2262
  118MOL0     C16159   8.630   2.715   3.291 -0.8399  0.0077 -0.1057
  118MOL0     C16160   8.767   2.650   3.270 -0.5722  0.1529 -0.2381
  118MOL0     C16161   8.846   2.675   3.387 -0.2547 -0.0149 -1.1928
  118MOL0     C16162   8.993   2.639   3.381 -0.6233 -0.2983  0.2142
  118MOL0     N16163   9.014   2.515   3.304  0.3605  0.0612  0.1373
  118MOL0     C16164   8.997   2.398   3.362  0.9369 -0.0363  0.3960
  118MOL0     C16165   9.026   2.314   3.263  0.6199 -0.1159 -0.8279
  118MOL0     C16166   9.021   2.166   3.261 -0.6338  0.1232  0.5792
  118MOL0     C16167   8.881   2.119   3.219  0.3481  0.0876 -0.3890
  118MOL0     C16168   8.875   1.973   3.183  0.7716 -0.2715 -0.0357
  118MOL0     C16169   8.949   1.924   3.049  0.1818 -0.0008 -0.9670
  118MOL0     O16170   8.959   1.780   3.037 -0.2393 -1.3435  0.4326
  118MOL0     C16171   8.952   1.734   2.908  0.2223 -0.2033  0.8427
  118MOL0     C16172   8.998   1.792   2.794  0.1316  0.2732  0.2253
  118MOL0     C16173   8.981   1.735   2.671 -0.1763  0.0920 -0.0480
  118MOL0     C16174   9.039   1.813   2.556  0.0339  0.1762 -0.2398
  118MOL0     C16175   8.914   1.616   2.660 -0.7615  0.3352 -0.4856
  118MOL0     C16176   8.902   1.549   2.533  0.2797  0.0362  0.0350
  118MOL0     O16177   8.921   1.414   2.531  0.0654  1.3106  0.2825
  118MOL0     C16178   8.969   1.354   2.414 -0.3249  0.6533  0.3007
  118MOL0     C16179   9.069   1.413   2.332 -0.3622  0.1292  0.6035
  118MOL0     C16180   9.092   1.368   2.203 -0.2764  0.0188  0.5894
  118MOL0     C16181   9.018   1.258   2.146  0.4728  0.1835 -0.9892
  118MOL0     O16182   9.031   1.204   2.027 -0.6630  0.0316  0.0880
  118MOL0     C16183   9.075   1.286   1.921 -0.3218 -0.2032  0.5373
  118MOL0     C16184   9.194   1.224   1.850 -0.0142  0.6683 -0.8910
  118MOL0     C16185   9.318   1.200   1.933  0.6538  0.0661  0.3304
  118MOL0     C16186   9.457   1.227   1.860  0.8486 -0.0100 -0.0713
  118MOL0     C16187   9.488   1.104   1.776 -0.7141  0.6417 -0.5657
  118MOL0     C16188   9.602   1.125   1.681 -0.2735  0.9357  0.6941
  118MOL0     C16189   9.620   0.972   1.624  0.3780 -0.2739  0.5049
  118MOL0     C16190   9.506   0.908   1.543  0.1962 -0.5197  0.6412
  118MOL0    Cl16191   9.492   1.016   1.402  0.0044 -0.4840  0.7026
  118MOL0     C16192   8.925   1.196   2.230  0.0019  0.2141  0.3364
  118MOL0     C16193   8.895   1.242   2.358  0.1478 -0.1246 -0.1112
  118MOL0     O16194   8.868   1.616   2.440 -0.4032 -0.1175  0.3998
  118MOL0     C16195   8.856   1.556   2.770 -0.4002  1.4277 -0.4328
  118MOL0     C16196   8.873   1.619   2.892  0.5396  1.6140 -0.3042
  118MOL0     N16197   9.056   2.384   3.152  0.0199 -0.2048 -0.2093
  118MOL0     N16198   9.059   2.507   3.181  0.9517 -0.1952  0.1055
  118MOL0     C16199   9.037   2.594   2.632 -0.3984  0.6843  1.2538
  118MOL0     C16200   9.147   2.625   2.557 -0.0040 -1.0047 -1.0566
  118MOL0     C16201   9.516   2.883   2.463  1.0355 -0.7730 -0.3230
  118MOL0     C16202   9.637   2.850   2.512 -0.4326  0.1334  0.3380
  118MOL0     C16203   9.746   2.936   2.481 -0.1312  0.5139 -0.3617
  118MOL0     C16204   9.739   3.046   2.405 -0.6158  0.1772 -0.2583
  118MOL0     O16205   9.856   3.107   2.360 -0.0832  0.0837 -0.3001
  118MOL0     C16206   9.851   3.229   2.292 -0.2439 -0.9080  0.5989
  118MOL0     C16207  10.002   3.265   2.268 -0.8242 -0.3644  0.6375
  118MOL0     C16208  10.053   3.197   2.139  0.4443 -0.6843 -0.3347
  118MOL0     C16209  10.180   3.264   2.083 -0.6422 -1.0618 -0.1555
  118MOL0     C16210  10.258   3.168   2.003  0.1295  0.1912  0.5959
  118MOL0     C16211  10.338   3.088   1.949  0.4130  0.3785 -0.0320
  118MOL0     C16212   9.614   3.091   2.363 -0.2183 -0.3846 -0.7933
  118MOL0     C16213   9.503   3.010   2.395 -0.0360 -0.2467 -0.5441
  118MOL0     C16214   9.372   3.055   2.342  0.4964 -0.4720  0.2664
  118MOL0     H16215   9.132   2.960   2.616  1.2092  1.1765  0.4642
  118MOL0     H16216   8.940   2.912   2.724 -2.5689 -1.2205 -0.6933
  118MOL0     H16217   8.712   2.812   2.779 -1.0705  0.4467  1.7846
  118MOL0     H16218   8.843   2.799   2.896  3.1105 -2.5014  0.6596
  118MOL0     H16219   8.604   2.605   2.877  0.4295 -1.4822  0.1123
  118MOL0     H16220   8.735   2.588   2.983 -2.1101 -0.1156  1.1587
  118MOL0     H16221   8.644   2.859   3.042 -2.4028  1.7387 -0.0529
  118MOL0     H16222   8.502   2.784   2.975  0.3630 -2.5477 -1.7806
  118MOL0     H16223   8.448   2.720   3.184 -0.9077 -1.9599 -0.8378
  118MOL0     H16224   8.542   2.586   3.143  3.1063  0.6975 -1.3154
  118MOL0     H16225   8.571   2.670   3.372 -0.2798  1.2314  1.0283
  118MOL0     H16226   8.643   2.821   3.314  2.4414 -0.0888 -0.9603
  118MOL0     H16227   8.762   2.542   3.252  1.8546 -0.6950  3.2172
  118MOL0     H16228   8.819   2.691   3.183 -0.6269 -0.6483 -0.6651
  118MOL0     H16229   8.793   2.620   3.466 -0.7939 -1.0808 -2.2711
  118MOL0     H16230   8.843   2.779   3.419  3.8415 -0.3699  0.9982
  118MOL0     H16231   9.050   2.714   3.325  0.6433 -2.3026 -1.3473
  118MOL0     H16232   9.047   2.629   3.476  1.7395  0.1270 -0.9940
  118MOL0     H16233   8.972   2.372   3.465 -0.9803 -2.4099 -0.5710
  118MOL0     H16234   9.050   2.123   3.357 -0.9767 -0.1224  0.5753
  118MOL0     H16235   9.100   2.132   3.194  2.0835  4.0074  1.4818
  118MOL0     H16236   8.802   2.133   3.293 -1.4819  1.7297 -2.4885
  118MOL0     H16237   8.842   2.182   3.138  2.7290 -0.4100 -2.0119
  118MOL0     H16238   8.899   1.906   3.266  1.7964 -0.9485 -0.8517
  118MOL0     H16239   8.769   1.950   3.166  0.9082 -2.2967  1.5182
  118MOL0     H16240   8.890   1.965   2.966 -1.6186  0.7511  0.6024
  118MOL0     H16241   9.051   1.961   3.046  0.4300  0.2422  3.6531
  118MOL0     H16242   9.057   1.883   2.786 -1.3542  1.2323 -0.1814
  118MOL0     H16243   8.964   1.881   2.513 -0.3033  0.1951  0.3736
  118MOL0     H16244   9.079   1.743   2.482 -1.5216 -0.0476 -0.8979
  118MOL0     H16245   9.123   1.877   2.587 -0.1009  0.5062 -0.5376
  118MOL0     H16246   9.123   1.494   2.380  0.1792 -0.7648  1.5421
  118MOL0     H16247   9.160   1.424   2.140  0.6557 -0.3520  1.2256
  118MOL0     H16248   9.004   1.306   1.841  0.5916  0.1398 -0.2133
  118MOL0     H16249   9.113   1.385   1.949  1.2923 -0.5429 -0.3470
  118MOL0     H16250   9.156   1.138   1.794 -0.5585  0.2903  0.0498
  118MOL0     H16251   9.220   1.306   1.782 -0.9948  0.2607 -1.7949
  118MOL0     H16252   9.325   1.097   1.969  1.3206 -0.1403 -0.3564
  118MOL0     H16253   9.316   1.253   2.029 -2.4030  1.8960 -0.5895
  118MOL0     H16254   9.543   1.237   1.925  0.2601 -1.9725  1.1208
  118MOL0     H16255   9.445   1.317   1.799 -0.7284  0.8147  1.3883
  118MOL0     H16256   9.503   1.026   1.852 -1.3924 -0.6574 -1.7154
  118MOL0     H16257   9.397   1.085   1.719  0.6967 -0.3049 -2.6366
  118MOL0     H16258   9.693   1.163   1.729 -0.5415  2.4455  0.0623
  118MOL0     H16259   9.559   1.201   1.615 -1.6063  0.4752  1.0030
  118MOL0     H16260   9.651   0.906   1.705 -2.6797 -0.1566  1.8956
  118MOL0     H16261   9.702   0.964   1.553 -0.3917 -5.9506 -0.1567
  118MOL0     H16262   9.409   0.897   1.593 -1.0207 -0.6089 -1.6323
  118MOL0     H16263   9.536   0.808   1.510 -1.7656 -0.8582 -0.2481
  118MOL0     H16264   8.868   1.111   2.192 -2.2286  2.0809 -0.7296
  118MOL0     H16265   8.810   1.212   2.419 -1.0663 -0.4873 -1.9227
  118MOL0     H16266   8.821   1.455   2.754 -2.4144  2.3346 -2.1501
  118MOL0     H16267   8.834   1.582   2.986  0.3674  0.5470 -0.7812
  118MOL0     H16268   9.013   2.488   2.631  3.3601 -0.3503 -1.8003
  118MOL0     H16269   9.203   2.550   2.502  0.0474  0.4592 -3.1011
  118MOL0     H16270   9.653   2.762   2.573 -2.4532 -0.8995 -0.5227
  118MOL0     H16271   9.843   2.900   2.514  0.8402  0.6381 -2.8815
  118MOL0     H16272   9.796   3.217   2.198  0.4625 -1.4605  0.2486
  118MOL0     H16273   9.803   3.305   2.354 -0.9940 -1.6312  0.9188
  118MOL0     H16274  10.069   3.232   2.348  0.6503  1.4776  0.2381
  118MOL0     H16275  10.009   3.374   2.269 -0.3462 -0.3858 -0.0685
  118MOL0     H16276  10.079   3.092   2.152  0.6819 -0.8255 -1.8179
  118MOL0     H16277   9.980   3.194   2.058  2.1234 -1.8897 -1.8660
  118MOL0     H16278  10.252   3.298   2.158  1.0708 -0.4213 -2.0242
  118MOL0     H16279  10.159   3.348   2.016 -0.7804 -0.1193  1.0399
  118MOL0     H16280  10.409   3.027   1.896 -0.6105  0.1629 -1.2171
  118MOL0     H16281   9.595   3.187   2.317 -0.0580  0.1195  0.1731
  118MOL0     H16282   9.306   3.068   2.428  2.1507 -0.2712  1.5481
  118MOL0     H16283   9.374   3.149   2.285  0.3921 -1.1906 -0.9588
  118MOL0     H16284   9.330   2.983   2.272  0.0659 -0.8090  0.8621
  119MOL0     O16285   0.696   7.761   3.527  0.5354 -0.3419 -0.1520
  119MOL0     C16286   0.643   7.732   3.418  0.4297 -0.7929 -0.4154
  119MOL0     O16287   0.521   7.665   3.409  0.3739 -0.1213 -0.2666
  119MOL0     C16288   0.464   7.612   3.524 -0.9825 -0.8044 -1.0318
  119MOL0     C16289   0.414   7.690   3.622 -0.8068  0.1357 -0.6564
  119MOL0     C16290   0.360   7.627   3.739 -0.3991 -0.0818  0.4593
  119MOL0     C16291   0.337   7.487   3.742  0.1309 -0.4302  0.4737
  119MOL0     O16292   0.280   7.425   3.854 -0.8157  0.5063 -0.1273
  119MOL0     C16293   0.175   7.325   3.837  0.7399  0.3904  0.3629
  119MOL0     C16294   0.078   7.339   3.965 -0.2868  0.2694 -0.2697
  119MOL0     C16295   0.024   7.478   3.984 -0.1446 -1.1171 -0.0426
  119MOL0     C16296  -0.076   7.476   4.108  0.7686  0.8084  0.2315
  119MOL0     C16297  -0.120   7.622   4.140  0.2019  0.0955  0.1682
  119MOL0     C16298  -0.007   7.704   4.203  0.2254  1.1257  0.4592
  119MOL0     C16299  -0.063   7.842   4.250  0.1849 -0.0715  0.0922
  119MOL0     C16300   0.045   7.947   4.295  0.0308 -0.2615  0.1888
  119MOL0     N16301   0.128   8.006   4.195  0.3047 -0.0919 -0.5514
  119MOL0     C16302   0.223   7.936   4.121  1.1038  0.0890  0.0888
  119MOL0     C16303   0.288   8.032   4.044 -0.3677  0.2095 -0.4282
  119MOL0     C16304   0.386   7.988   3.938  0.6084  0.1872 -0.4379
  119MOL0     C16305   0.503   7.929   4.012 -0.2168  0.5674  0.6309
  119MOL0     C16306   0.613   7.884   3.913 -0.8769  0.3464  0.0636
  119MOL0     C16307   0.728   7.799   3.980 -0.8916  0.1095  0.2296
  119MOL0     O16308   0.844   7.887   4.001  0.0622  0.5221 -0.2423
  119MOL0     C16309   0.937   7.908   3.900 -0.1917  0.0545 -1.2420
  119MOL0     C16310   1.044   7.982   3.941 -0.6586 -0.2383  0.1163
  119MOL0     C16311   1.121   8.044   3.852 -0.4640  0.7807  0.1698
  119MOL0     C16312   1.236   8.123   3.914  0.0696  0.7205  0.1393
  119MOL0     C16313   1.092   8.034   3.711 -0.5466  0.8759  0.2068
  119MOL0     C16314   1.159   8.108   3.604  0.3627 -1.0726 -0.6219
  119MOL0     O16315   1.142   8.074   3.476 -0.2384 -0.5407 -0.0996
  119MOL0     C16316   1.207   8.137   3.369 -0.8056  0.4649 -0.1353
  119MOL0     C16317   1.247   8.272   3.376  0.4162 -0.6144 -0.5581
  119MOL0     C16318   1.307   8.338   3.269 -0.4323 -0.3279 -0.1818
  119MOL0     C16319   1.322   8.278   3.146 -0.2508  0.7947 -0.5165
  119MOL0     O16320   1.339   8.368   3.044 -0.8435  0.5643 -0.4436
  119MOL0     C16321   1.425   8.325   2.937  0.6607 -0.0089 -0.0556
  119MOL0     C16322   1.580   8.318   2.974  0.9103  0.3057 -0.5858
  119MOL0     C16323   1.614   8.457   3.021  0.3524 -0.7649  0.0351
  119MOL0     C16324   1.764   8.469   3.064  0.3351 -0.0852 -0.0518
  119MOL0     C16325   1.804   8.619   3.075 -0.8209 -0.5227  0.8602
  119MOL0     C16326   1.943   8.628   3.147  0.0834 -0.4523  0.0147
  119MOL0     C16327   2.073   8.591   3.057 -0.2112  0.2358 -0.1981
  119MOL0     C16328   2.160   8.716   3.047 -0.4028 -0.1235  0.3865
  119MOL0    Cl16329   2.071   8.848   2.968  0.1662 -0.2166  0.0598
  119MOL0     C16330   1.272   8.148   3.129 -0.2165  0.1638 -0.4538
  119MOL0     C16331   1.224   8.074   3.241  0.4564  0.4669 -0.1853
  119MOL0     O16332   1.240   8.192   3.646  1.0340  0.6183  0.0926
  119MOL0     C16333   0.984   7.959   3.668  0.1181  0.0332 -0.3433
  119MOL0     C16334   0.905   7.894   3.766 -0.2599  0.8684  0.0541
  119MOL0     N16335   0.243   8.152   4.091 -0.2739  1.2125  0.9388
  119MOL0     N16336   0.150   8.141   4.176 -1.0491 -0.7309  0.2451
  119MOL0     C16337   0.389   7.414   3.639 -0.0417  0.8972 -1.5444
  119MOL0     C16338   0.459   7.477   3.534 -0.9907 -0.3897  0.2507
  119MOL0     C16339   0.730   7.726   3.297  0.1025  1.8601  0.2429
  119MOL0     C16340   0.734   7.608   3.223 -0.5238  0.9277  0.1071
  119MOL0     C16341   0.807   7.595   3.101  0.1300 -0.8085  0.1713
  119MOL0     C16342   0.879   7.708   3.057  0.1711  0.3329  0.5026
  119MOL0     O16343   0.949   7.707   2.938 -0.3162  0.2202 -0.1103
  119MOL0     C16344   1.037   7.815   2.898 -0.5486 -0.2601 -0.1227
  119MOL0     C16345   1.135   7.746   2.800 -0.4607 -0.8377  0.0995
  119MOL0     C16346   1.227   7.843   2.718  0.5360  0.1675  0.3292
  119MOL0     C16347   1.148   7.922   2.604  0.5694 -0.5685  0.2326
  119MOL0     C16348   1.089   7.841   2.504 -0.6882 -0.1695  0.0120
  119MOL0     C16349   1.038   7.794   2.405  0.1593 -0.2987 -0.9234
  119MOL0     C16350   0.878   7.821   3.136 -0.4259  0.4562  0.4330
  119MOL0     C16351   0.807   7.829   3.251 -0.3593  0.2708 -0.0489
  119MOL0     C16352   0.797   7.962   3.314  0.1767 -0.3022 -0.6303
  119MOL0     H16353   0.453   7.791   3.612 -1.0907  0.3106 -0.0814
  119MOL0     H16354   0.342   7.685   3.829 -0.8192  2.2015 -1.0143
  119MOL0     H16355   0.221   7.228   3.815 -0.9610 -0.4315  0.2318
  119MOL0     H16356   0.113   7.345   3.749  2.8665 -2.0537 -1.8768
  119MOL0     H16357  -0.001   7.263   3.959 -0.0999  0.1780 -3.1997
  119MOL0     H16358   0.131   7.327   4.059  0.8255  4.5242 -0.1775
  119MOL0     H16359   0.102   7.553   3.999 -0.0768 -1.3270  0.6751
  119MOL0     H16360  -0.022   7.499   3.887  1.2570 -1.7506 -0.8772
  119MOL0     H16361  -0.168   7.424   4.078  2.0527 -0.1715 -2.2629
  119MOL0     H16362  -0.031   7.429   4.196  1.1491  2.4428  0.9350
  119MOL0     H16363  -0.216   7.622   4.193 -0.5125  1.0725 -1.0462
  119MOL0     H16364  -0.147   7.683   4.053 -1.9464  2.9957  2.6854
  119MOL0     H16365   0.041   7.654   4.288 -0.2762  3.5041  2.2519
  119MOL0     H16366   0.063   7.719   4.121 -2.8232 -0.2233 -2.6223
  119MOL0     H16367  -0.135   7.819   4.329  0.0509 -1.9541 -0.5295
  119MOL0     H16368  -0.124   7.884   4.170  1.7380 -1.3504 -1.8592
  119MOL0     H16369  -0.006   8.024   4.353  1.4585  0.4378  0.5708
  119MOL0     H16370   0.111   7.895   4.365 -0.7557 -2.3074 -0.5306
  119MOL0     H16371   0.230   7.828   4.116  1.0487  0.0797  0.1906
  119MOL0     H16372   0.420   8.077   3.884  0.2411  0.4457 -0.2474
  119MOL0     H16373   0.338   7.922   3.865  2.3361 -0.5535 -0.9616
  119MOL0     H16374   0.548   8.010   4.071 -3.7496  3.6208 -0.4515
  119MOL0     H16375   0.483   7.845   4.079 -2.5865 -0.4914 -1.2307
  119MOL0     H16376   0.567   7.820   3.838 -0.7055  2.9548 -2.4723
  119MOL0     H16377   0.650   7.972   3.858 -1.6707 -0.3153 -1.5941
  119MOL0     H16378   0.687   7.762   4.074  1.7547 -2.1300  0.6110
  119MOL0     H16379   0.759   7.715   3.918  1.3341  0.7521  0.3897
  119MOL0     H16380   1.057   8.006   4.046  0.8093  0.7589 -0.2629
  119MOL0     H16381   1.229   8.232   3.902  1.5628  0.8098 -0.0606
  119MOL0     H16382   1.330   8.089   3.870 -0.1985  0.9929 -0.6708
  119MOL0     H16383   1.250   8.089   4.017 -0.8911 -3.5063 -0.9284
  119MOL0     H16384   1.231   8.321   3.472  0.2505  1.5180 -1.6159
  119MOL0     H16385   1.312   8.446   3.278 -4.0786 -0.0264 -0.1152
  119MOL0     H16386   1.405   8.222   2.905  4.7945 -1.2046  0.5848
  119MOL0     H16387   1.418   8.389   2.849  2.0641 -0.8946 -0.8473
  119MOL0     H16388   1.595   8.245   3.055  1.9708 -0.0535 -1.0858
  119MOL0     H16389   1.633   8.272   2.890  2.2398 -0.1541  0.4815
  119MOL0     H16390   1.548   8.478   3.105 -1.2196  0.7748 -1.4982
  119MOL0     H16391   1.595   8.524   2.936 -0.6199 -2.3918 -1.0950
  119MOL0     H16392   1.835   8.425   2.993  3.9274  0.3740  2.9215
  119MOL0     H16393   1.774   8.409   3.155 -1.4265 -1.8499 -0.9257
  119MOL0     H16394   1.818   8.669   2.979  1.2707 -1.5683  0.5583
  119MOL0     H16395   1.724   8.667   3.132 -1.4565  0.2152 -0.6276
  119MOL0     H16396   1.945   8.552   3.226  2.2174 -1.6653 -1.1024
  119MOL0     H16397   1.945   8.724   3.199 -2.0525 -0.1753 -0.3240
  119MOL0     H16398   2.046   8.567   2.954  1.0057 -6.5353  0.6367
  119MOL0     H16399   2.123   8.501   3.095 -0.8515 -0.2527 -0.5052
  119MOL0     H16400   2.255   8.697   2.995  0.3154  2.4994  0.5784
  119MOL0     H16401   2.182   8.751   3.148 -1.9496  2.6455 -0.1571
  119MOL0     H16402   1.253   8.110   3.029  1.0526  1.2454 -1.1336
  119MOL0     H16403   1.169   7.981   3.231 -2.6730  2.3078 -1.2678
  119MOL0     H16404   0.958   7.954   3.563 -0.6610 -0.5603 -0.1381
  119MOL0     H16405   0.817   7.839   3.737 -0.6948  1.6885 -0.2079
  119MOL0     H16406   0.397   7.306   3.632  1.2901  0.6368  2.0430
  119MOL0     H16407   0.515   7.417   3.462  2.0675  0.9121  1.3832
  119MOL0     H16408   0.686   7.518   3.260 -0.0237  0.4726 -0.3535
  119MOL0     H16409   0.808   7.500   3.050  2.1590  0.1492 -1.7684
  119MOL0     H16410   0.972   7.894   2.859  0.6574  1.2655  0.8290
  119MOL0     H16411   1.094   7.863   2.978 -2.3814 -0.9051  1.6634
  119MOL0     H16412   1.073   7.693   2.728  0.4372 -3.6175  1.2367
  119MOL0     H16413   1.191   7.669   2.854 -1.1272  0.0186  2.0896
  119MOL0     H16414   1.288   7.901   2.788 -0.6979 -0.3211  1.8788
  119MOL0     H16415   1.302   7.777   2.673 -0.0689 -0.3913  0.1264
  119MOL0     H16416   1.212   7.991   2.549  2.6241 -1.1166  1.8259
  119MOL0     H16417   1.057   7.970   2.640  0.1736 -0.8505 -0.3718
  119MOL0     H16418   1.012   7.755   2.309 -1.7340 -0.2396 -0.4772
  119MOL0     H16419   0.914   7.917   3.100  0.5279  2.1042  4.9936
  119MOL0     H16420   0.702   8.015   3.297  1.8910  2.8400 -1.1613
  119MOL0     H16421   0.804   7.943   3.422  0.0924  0.2633 -0.5228
  119MOL0     H16422   0.888   8.011   3.280  2.2318 -3.4048 -0.0397
  120MOL0     O16423   1.359   6.546   2.468  0.4711 -0.5739 -0.8024
  120MOL0     C16424   1.284   6.452   2.481 -0.5330 -0.5746  1.0064
  120MOL0     O16425   1.183   6.441   2.562 -0.3626 -0.3440  0.4590
  120MOL0     C16426   1.146   6.550   2.635  0.5917  0.0182 -0.6569
  120MOL0     C16427   1.058   6.649   2.592  0.4334 -0.4371 -0.2208
  120MOL0     C16428   1.045   6.761   2.663  0.4004 -0.7506 -0.3987
  120MOL0     C16429   1.108   6.788   2.781 -0.6559  0.3506  0.2115
  120MOL0     O16430   1.074   6.908   2.835 -0.9205 -0.3960 -0.2628
  120MOL0     C16431   1.139   6.938   2.966 -0.1059 -0.0819 -0.7473
  120MOL0     C16432   1.292   6.974   2.945  0.6124  0.8970  0.2564
  120MOL0     C16433   1.369   6.932   3.068  0.8528 -0.5388  0.2269
  120MOL0     C16434   1.517   6.982   3.055  0.0283  0.6012  0.1826
  120MOL0     C16435   1.582   6.977   3.196  0.5819 -0.1896 -0.5277
  120MOL0     C16436   1.565   6.838   3.276 -0.5134 -0.1154  0.6105
  120MOL0     C16437   1.655   6.845   3.393  0.9764  0.5717  0.1196
  120MOL0     C16438   1.699   6.700   3.435 -0.8093 -0.0964 -0.8314
  120MOL0     N16439   1.804   6.640   3.353 -0.1904 -0.4423  0.6699
  120MOL0     C16440   1.866   6.680   3.239 -0.2001 -0.3986  0.7279
  120MOL0     C16441   1.973   6.597   3.227  0.3844  0.7342  0.2718
  120MOL0     C16442   2.076   6.601   3.115  0.1829 -0.6769 -0.2152
  120MOL0     C16443   2.064   6.480   3.010  0.2484 -0.2246 -0.1682
  120MOL0     C16444   2.135   6.528   2.876  0.6108 -0.4607 -0.1117
  120MOL0     C16445   2.158   6.407   2.794  0.3132 -0.1518 -0.5443
  120MOL0     O16446   2.215   6.300   2.874  0.6129 -0.3851  0.2613
  120MOL0     C16447   2.187   6.176   2.825  0.0178  0.2083 -0.4600
  120MOL0     C16448   2.228   6.067   2.908 -0.3535 -0.0593 -0.3175
  120MOL0     C16449   2.203   5.941   2.884  0.1456  0.5086  0.1611
  120MOL0     C16450   2.224   5.851   2.996  0.8917  0.3636  0.3100
  120MOL0     C16451   2.142   5.896   2.766 -0.4262 -0.4781  0.2268
  120MOL0     C16452   2.112   5.759   2.727  0.6974  0.8452  0.7483
  120MOL0     O16453   2.063   5.663   2.811  0.7128  0.1708 -0.4911
  120MOL0     C16454   2.005   5.546   2.771 -0.9040 -0.2012  0.8074
  120MOL0     C16455   2.060   5.425   2.813  0.7057 -0.3192 -0.5885
  120MOL0     C16456   2.017   5.298   2.761  0.1109  0.8934  1.1435
  120MOL0     C16457   1.899   5.302   2.680 -0.5834  0.1500  0.5921
  120MOL0     O16458   1.853   5.191   2.606 -0.6110  0.0796  0.2827
  120MOL0     C16459   1.949   5.080   2.559  0.9435 -0.6028  1.2435
  120MOL0     C16460   1.873   4.999   2.458 -0.0443  0.2108  0.3564
  120MOL0     C16461   1.929   4.856   2.468  0.2048 -0.6657  0.8317
  120MOL0     C16462   1.834   4.780   2.372 -0.9180  0.5117  0.2454
  120MOL0     C16463   1.875   4.630   2.379  0.6979 -0.4950  0.4219
  120MOL0     C16464   1.857   4.560   2.524  0.9573  0.5314  0.1695
  120MOL0     C16465   1.908   4.412   2.515 -0.2509  0.9665  0.8912
  120MOL0     C16466   1.847   4.333   2.614  0.1679 -0.3497  0.2567
  120MOL0    Cl16467   1.909   4.373   2.780  0.1204  0.3874 -0.1766
  120MOL0     C16468   1.827   5.427   2.655 -0.0351 -0.5433 -0.1938
  120MOL0     C16469   1.885   5.548   2.702  0.4106 -1.2059 -0.3419
  120MOL0     O16470   2.118   5.737   2.605  0.2892  0.4990 -0.2040
  120MOL0     C16471   2.115   6.002   2.669  0.6483 -0.2950  0.9354
  120MOL0     C16472   2.137   6.141   2.697 -0.4947 -0.1900 -0.0052
  120MOL0     N16473   1.975   6.513   3.335 -0.8483 -0.8260  0.4092
  120MOL0     N16474   1.878   6.542   3.404  0.4945  0.4096 -0.4693
  120MOL0     C16475   1.197   6.694   2.823 -0.5268 -0.8648  0.1515
  120MOL0     C16476   1.212   6.577   2.752  0.7743  0.1665  0.5685
  120MOL0     C16477   1.293   6.333   2.411 -0.1114 -0.5403  1.0145
  120MOL0     C16478   1.244   6.211   2.463  0.5786  0.7064  0.1523
  120MOL0     C16479   1.238   6.095   2.374  0.2689 -0.0814  0.2074
  120MOL0     C16480   1.299   6.093   2.245 -1.0230 -0.7530  0.1388
  120MOL0     O16481   1.285   5.970   2.177 -0.8630 -0.2674 -0.6561
  120MOL0     C16482   1.410   5.914   2.136  0.3907  0.1853  0.6719
  120MOL0     C16483   1.383   5.781   2.078  0.2770 -0.2357 -0.2715
  120MOL0     C16484   1.512   5.704   2.062 -0.0056 -0.7129 -0.0034
  120MOL0     C16485   1.493   5.583   1.972 -0.1736 -0.6159  0.5341
  120MOL0     C16486   1.404   5.487   2.030  0.5373  0.5268 -0.3754
  120MOL0     C16487   1.329   5.409   2.083 -0.5609  0.0708  0.8516
  120MOL0     C16488   1.372   6.207   2.202 -0.4804 -0.2345  0.7104
  120MOL0     C16489   1.370   6.324   2.285 -0.3884 -0.7739 -0.2321
  120MOL0     C16490   1.463   6.437   2.231  0.6875  0.1102 -0.2629
  120MOL0     H16491   1.014   6.658   2.494 -0.4948  4.0024  0.3721
  120MOL0     H16492   0.972   6.832   2.625  2.4475 -1.0693 -5.8381
  120MOL0     H16493   1.137   6.853   3.035 -0.3260 -0.2304 -0.9333
  120MOL0     H16494   1.089   7.022   3.017  0.2438 -0.8594  0.9479
  120MOL0     H16495   1.328   6.916   2.860 -0.4705  0.5401  0.0191
  120MOL0     H16496   1.309   7.076   2.911  0.7892  0.0070 -2.6330
  120MOL0     H16497   1.334   6.971   3.164  1.8692  0.6668  0.1209
  120MOL0     H16498   1.349   6.824   3.074 -1.9336 -0.0443  1.9681
  120MOL0     H16499   1.576   6.926   2.982  1.1742  1.9380  0.0498
  120MOL0     H16500   1.509   7.088   3.030 -0.0458  0.6576  0.4436
  120MOL0     H16501   1.524   7.058   3.239  0.2132  1.1826 -3.3563
  120MOL0     H16502   1.687   7.009   3.193  1.1137 -1.4407  2.1621
  120MOL0     H16503   1.459   6.837   3.299 -0.5300 -0.9878  0.5290
  120MOL0     H16504   1.600   6.757   3.211 -0.5498  0.7100 -0.4857
  120MOL0     H16505   1.585   6.893   3.463 -2.2368  1.1647 -3.1841
  120MOL0     H16506   1.734   6.919   3.378 -0.8889  2.4947 -0.7563
  120MOL0     H16507   1.732   6.713   3.538 -3.0328  4.1971 -0.3882
  120MOL0     H16508   1.614   6.631   3.435  0.1031 -1.2564 -0.1195
  120MOL0     H16509   1.849   6.752   3.160  2.4008 -2.7451 -2.2173
  120MOL0     H16510   2.171   6.606   3.169 -0.1455 -2.6557  0.6336
  120MOL0     H16511   2.061   6.695   3.060  0.4968 -0.0575  0.7322
  120MOL0     H16512   2.119   6.406   3.070 -0.7434  0.1643  1.2647
  120MOL0     H16513   1.969   6.430   2.989 -0.7668  2.5138 -2.7534
  120MOL0     H16514   2.071   6.595   2.818  1.9170  0.6032 -0.3869
  120MOL0     H16515   2.234   6.572   2.897 -0.9369  1.8575  3.1877
  120MOL0     H16516   2.060   6.386   2.752  0.8539  1.0972 -2.5614
  120MOL0     H16517   2.228   6.418   2.711 -2.8707 -0.1367 -3.3977
  120MOL0     H16518   2.253   6.089   3.012 -1.4199  1.7467 -0.3875
  120MOL0     H16519   2.263   5.898   3.087 -2.8957  3.6613  0.5375
  120MOL0     H16520   2.289   5.771   2.961 -1.6714 -1.5025 -0.5517
  120MOL0     H16521   2.130   5.802   3.023  0.6278  1.3960  1.3649
  120MOL0     H16522   2.143   5.418   2.883 -0.5255  2.3580  1.3558
  120MOL0     H16523   2.072   5.206   2.777 -1.3031 -0.3998 -0.9551
  120MOL0     H16524   2.022   5.135   2.499 -0.2585 -0.4158 -0.0804
  120MOL0     H16525   1.990   5.024   2.644 -1.5711 -1.3596  2.0670
  120MOL0     H16526   1.765   5.008   2.468  0.2185  1.1942  3.2462
  120MOL0     H16527   1.897   5.039   2.359  0.7293 -2.4480 -0.6442
  120MOL0     H16528   1.908   4.828   2.572 -3.1881  1.2436  0.7856
  120MOL0     H16529   2.036   4.854   2.446 -0.0811 -0.2203 -0.7448
  120MOL0     H16530   1.836   4.804   2.265 -1.1454  2.5883  0.6741
  120MOL0     H16531   1.730   4.791   2.403 -0.8635 -0.1996  0.7001
  120MOL0     H16532   1.815   4.581   2.302 -2.6402  1.7939  1.3227
  120MOL0     H16533   1.981   4.620   2.356 -0.0626 -4.6463 -2.3775
  120MOL0     H16534   1.753   4.560   2.557  0.2760  0.4498 -1.8627
  120MOL0     H16535   1.912   4.613   2.602  2.3247  0.5798 -0.7881
  120MOL0     H16536   2.016   4.404   2.531 -0.2030  0.7039  0.4550
  120MOL0     H16537   1.895   4.365   2.417 -0.3283 -1.5076  2.0143
  120MOL0     H16538   1.876   4.228   2.602  1.4970  0.1155 -0.8303
  120MOL0     H16539   1.739   4.335   2.597  0.1409 -1.2910  0.2807
  120MOL0     H16540   1.737   5.422   2.595 -0.6232  0.1828  0.5975
  120MOL0     H16541   1.833   5.638   2.669  2.4110 -0.2135 -0.9616
  120MOL0     H16542   2.076   5.977   2.570 -3.1411  1.9019  1.6554
  120MOL0     H16543   2.107   6.213   2.621 -0.6752  0.4990  0.7078
  120MOL0     H16544   1.257   6.713   2.911  0.4160 -0.5937 -0.5359
  120MOL0     H16545   1.287   6.503   2.777  0.3190 -0.0937  1.1937
  120MOL0     H16546   1.192   6.201   2.557 -1.1033 -0.1175 -0.8066
  120MOL0     H16547   1.181   6.016   2.422 -0.8138 -0.7579 -2.0483
  120MOL0     H16548   1.448   5.973   2.052  0.0375 -2.0858 -1.1995
  120MOL0     H16549   1.485   5.904   2.215  1.1630  2.6555  0.3431
  120MOL0     H16550   1.330   5.787   1.982 -1.7009  2.6514  0.8507
  120MOL0     H16551   1.316   5.730   2.148  0.0499  1.2617  0.6367
  120MOL0     H16552   1.589   5.765   2.014  0.7805 -0.2689  1.7345
  120MOL0     H16553   1.552   5.683   2.161 -0.2868  0.0034  0.2634
  120MOL0     H16554   1.593   5.540   1.959  0.0247 -0.3887  1.2149
  120MOL0     H16555   1.451   5.609   1.875 -0.6005 -0.6636  0.7043
  120MOL0     H16556   1.257   5.347   2.132 -0.2271 -1.1383 -0.1400
  120MOL0     H16557   1.419   6.214   2.105  1.4605 -2.4291  1.3931
  120MOL0     H16558   1.543   6.452   2.304 -0.0147 -0.9659  0.7473
  120MOL0     H16559   1.520   6.406   2.143  0.1075  0.8148 -0.9019
  120MOL0     H16560   1.421   6.534   2.201 -2.3398 -1.6710 -2.3539
  121MOL0     O16561   2.759   6.757   9.534  0.2580  0.1187 -0.6051
  121MOL0     C16562   2.740   6.832   9.439 -0.5106  1.0100 -0.0469
  121MOL0     O16563   2.840   6.876   9.361 -0.2410 -0.5493  0.4859
  121MOL0     C16564   2.975   6.860   9.390 -0.2451  1.5079 -0.2396
  121MOL0     C16565   3.042   6.817   9.507  0.9308 -0.1176  0.1183
  121MOL0     C16566   3.179   6.826   9.527 -0.1734  0.2148  0.9856
  121MOL0     C16567   3.258   6.879   9.425  0.8998  0.3343  0.6889
  121MOL0     O16568   3.391   6.879   9.447 -0.1077  0.1648  0.5186
  121MOL0     C16569   3.446   7.016   9.428 -0.2924 -0.5689 -0.8797
  121MOL0     C16570   3.540   7.044   9.544  0.8660  0.2656  0.2415
  121MOL0     C16571   3.474   7.032   9.681  0.0431 -0.3650  0.4609
  121MOL0     C16572   3.580   7.070   9.790 -0.6036 -0.0557  0.1585
  121MOL0     C16573   3.537   7.096   9.936  0.1950  0.8737 -0.1512
  121MOL0     C16574   3.446   7.002  10.011  0.5913 -0.0145 -0.1177
  121MOL0     C16575   3.491   6.971  10.152 -0.6105 -0.7042  0.5081
  121MOL0     C16576   3.403   6.881  10.222 -0.2053 -0.7424  0.0949
  121MOL0     N16577   3.466   6.853  10.352 -0.1111  0.0543  0.6160
  121MOL0     C16578   3.470   6.945  10.451 -0.0706  0.1596  0.2493
  121MOL0     C16579   3.543   6.889  10.543 -0.3946 -0.5336 -0.1638
  121MOL0     C16580   3.583   6.949  10.674  0.4217  0.7132 -0.1742
  121MOL0     C16581   3.490   7.055  10.727  0.3395 -0.3052 -0.5709
  121MOL0     C16582   3.532   7.135  10.861 -0.4447  0.3044 -0.0146
  121MOL0     C16583   3.579   7.069  10.987 -0.1278 -0.5350 -1.0262
  121MOL0     O16584   3.521   6.935  11.002 -0.2593  0.2539 -0.1291
  121MOL0     C16585   3.586   6.849  11.083 -0.3843 -0.0208 -0.0448
  121MOL0     C16586   3.656   6.889  11.193  0.2884 -0.6905 -0.3073
  121MOL0     C16587   3.755   6.816  11.255  1.1592  0.3852 -0.2428
  121MOL0     C16588   3.825   6.887  11.372  0.4489 -0.0822  0.1806
  121MOL0     C16589   3.756   6.683  11.229 -0.1413  0.2510 -0.3941
  121MOL0     C16590   3.862   6.587  11.281  0.2976 -0.3815 -0.0832
  121MOL0     O16591   3.825   6.454  11.252 -0.4293  0.4936  0.1009
  121MOL0     C16592   3.865   6.339  11.310  0.0468  1.1460 -0.0665
  121MOL0     C16593   3.775   6.227  11.287  0.6763  0.0409 -0.9100
  121MOL0     C16594   3.808   6.112  11.351  1.0614 -0.6352  0.1735
  121MOL0     C16595   3.937   6.092  11.415 -0.2978 -0.2485  0.6138
  121MOL0     O16596   3.978   5.979  11.479 -0.1559 -0.1073  0.7512
  121MOL0     C16597   3.894   5.924  11.577  0.0312 -0.0095 -2.3639
  121MOL0     C16598   3.988   5.875  11.688  0.6034  0.7439 -0.4180
  121MOL0     C16599   4.049   5.992  11.765 -0.1719 -0.2027 -0.3295
  121MOL0     C16600   4.194   6.022  11.736 -0.0389  0.8457 -0.1162
  121MOL0     C16601   4.294   5.950  11.828 -0.4669 -0.6447  0.1867
  121MOL0     C16602   4.330   6.026  11.953  0.1227  0.5836 -0.7028
  121MOL0     C16603   4.410   5.948  12.061 -0.6680 -0.6338  0.5487
  121MOL0     C16604   4.364   5.808  12.102  0.6403  0.5132  0.4677
  121MOL0    Cl16605   4.473   5.735  12.230  0.0276  0.1470  0.1634
  121MOL0     C16606   4.026   6.197  11.428  0.4137 -0.2627  0.2491
  121MOL0     C16607   3.982   6.321  11.372 -0.1745  0.2793 -0.0044
  121MOL0     O16608   3.960   6.616  11.347  0.0525 -1.3260 -0.0961
  121MOL0     C16609   3.670   6.636  11.113 -0.0062  0.8109 -0.1498
  121MOL0     C16610   3.587   6.721  11.042 -0.4693  0.8196 -0.5419
  121MOL0     N16611   3.579   6.765  10.493  0.4338  0.2503 -0.5355
  121MOL0     N16612   3.543   6.748  10.377 -0.7495  0.2299  1.0999
  121MOL0     C16613   3.198   6.918   9.308  0.8962  0.7696  0.3908
  121MOL0     C16614   3.057   6.908   9.289  0.3059 -0.4882  0.3287
  121MOL0     C16615   2.598   6.869   9.435  0.1677  0.3020 -0.3009
  121MOL0     C16616   2.565   6.993   9.379  0.7357 -0.1077 -0.7110
  121MOL0     C16617   2.429   7.029   9.359 -0.0673  0.8635 -0.4354
  121MOL0     C16618   2.323   6.951   9.405  0.2013  0.7146 -0.3197
  121MOL0     O16619   2.192   6.970   9.392  0.2217  0.8862  0.4448
  121MOL0     C16620   2.155   7.075   9.308  0.4897 -0.4647  0.5830
  121MOL0     C16621   2.141   7.218   9.369  0.1664  0.3109  0.4269
  121MOL0     C16622   2.055   7.307   9.283 -0.5678  0.0283  0.5533
  121MOL0     C16623   2.122   7.440   9.279 -0.9874  0.0039  0.0441
  121MOL0     C16624   2.246   7.434   9.193 -0.1980 -0.2555  0.1359
  121MOL0     C16625   2.348   7.430   9.120  0.1025 -0.8079 -0.6028
  121MOL0     C16626   2.355   6.833   9.466 -0.1770 -0.7247 -0.0457
  121MOL0     C16627   2.486   6.787   9.478  0.2783  0.5883 -1.3073
  121MOL0     C16628   2.503   6.650   9.534 -0.1497 -0.0144 -0.1682
  121MOL0     H16629   2.994   6.770   9.592  0.9278 -2.3312 -1.0474
  121MOL0     H16630   3.229   6.778   9.611  2.2711 -0.7889 -0.9093
  121MOL0     H16631   3.370   7.094   9.437 -1.1160 -1.0467 -3.0297
  121MOL0     H16632   3.494   7.038   9.333 -0.0076 -2.7654 -1.3066
  121MOL0     H16633   3.621   6.972   9.535  1.3432  0.7718  0.4298
  121MOL0     H16634   3.577   7.147   9.536  0.2923  0.4439 -0.2321
  121MOL0     H16635   3.389   7.100   9.679  0.0787 -0.3296 -1.0806
  121MOL0     H16636   3.446   6.927   9.694 -2.6067 -0.0370 -1.8959
  121MOL0     H16637   3.655   6.991   9.787 -0.9899 -0.3826 -1.5013
  121MOL0     H16638   3.635   7.161   9.764 -2.3614  0.6611 -1.2857
  121MOL0     H16639   3.476   7.186   9.925  0.0250  0.8274  0.3972
  121MOL0     H16640   3.627   7.116   9.996  1.7618  0.0784 -2.0868
  121MOL0     H16641   3.349   7.052  10.009  0.1874 -0.7436  0.8847
  121MOL0     H16642   3.430   6.909   9.957 -1.0512 -1.0565  1.9983
  121MOL0     H16643   3.502   7.056  10.221 -0.0480 -2.2358  2.3983
  121MOL0     H16644   3.586   6.917  10.158 -0.4828 -0.4304  1.0192
  121MOL0     H16645   3.307   6.931  10.235 -1.4751 -3.8396  5.3599
  121MOL0     H16646   3.392   6.793  10.157 -0.6986 -0.4446 -0.2339
  121MOL0     H16647   3.416   7.039  10.448  2.1010  1.4576 -1.1546
  121MOL0     H16648   3.683   6.990  10.660  1.5508 -1.6559  0.3967
  121MOL0     H16649   3.586   6.874  10.754 -1.4375  1.9657  1.1608
  121MOL0     H16650   3.478   7.130  10.649  0.8298  0.8310  0.4095
  121MOL0     H16651   3.391   7.014  10.749 -0.4789  1.0758 -1.5091
  121MOL0     H16652   3.613   7.204  10.835  0.1874 -0.4671 -0.1209
  121MOL0     H16653   3.455   7.208  10.889 -0.2172  0.3139  0.5929
  121MOL0     H16654   3.689   7.066  10.984 -0.1666 -2.4624 -2.7814
  121MOL0     H16655   3.548   7.126  11.075  1.8163 -2.5680  1.1668
  121MOL0     H16656   3.637   6.989  11.231 -4.1225 -1.3345 -0.3394
  121MOL0     H16657   3.757   6.966  11.403  0.6595 -0.3807  1.4461
  121MOL0     H16658   3.914   6.927  11.323  1.3091 -1.2762  0.7122
  121MOL0     H16659   3.854   6.827  11.459  1.7957 -0.5780 -0.5777
  121MOL0     H16660   3.679   6.247  11.241 -1.2275 -2.1046  1.7673
  121MOL0     H16661   3.740   6.028  11.347 -0.1814  0.3335  0.2372
  121MOL0     H16662   3.822   5.998  11.613  0.0571  0.5899 -3.5211
  121MOL0     H16663   3.831   5.844  11.537 -2.8094  1.8132 -1.8686
  121MOL0     H16664   3.926   5.808  11.747 -0.0982  0.6118 -1.2966
  121MOL0     H16665   4.070   5.813  11.652  0.7794 -0.2416  1.5253
  121MOL0     H16666   4.038   5.979  11.873  4.2288 -1.6220  0.1290
  121MOL0     H16667   4.008   6.087  11.731  2.3750  1.7398  1.6081
  121MOL0     H16668   4.204   6.130  11.748 -0.7577  0.7229  2.1668
  121MOL0     H16669   4.212   5.997  11.631 -0.5596  1.2302 -0.2999
  121MOL0     H16670   4.260   5.846  11.842  2.1719 -1.8102 -1.3432
  121MOL0     H16671   4.394   5.951  11.784  1.4947  1.8982  4.1194
  121MOL0     H16672   4.240   6.066  12.002  0.1271 -0.5299  0.2634
  121MOL0     H16673   4.392   6.109  11.917  2.0471  0.0607  1.1654
  121MOL0     H16674   4.443   6.008  12.146 -1.8423  1.4951 -0.4051
  121MOL0     H16675   4.505   5.936  12.008  0.5109  1.9439  1.8754
  121MOL0     H16676   4.381   5.736  12.022  0.2776  0.8496  0.0848
  121MOL0     H16677   4.261   5.802  12.138  0.1242  2.2575 -0.6002
  121MOL0     H16678   4.126   6.204  11.470 -0.3274  1.9026  1.8568
  121MOL0     H16679   4.040   6.411  11.390 -3.1489  2.3787 -0.2292
  121MOL0     H16680   3.674   6.530  11.088  0.7708  0.6582  0.6080
  121MOL0     H16681   3.536   6.677  10.958 -2.0234 -0.8612  1.1798
  121MOL0     H16682   3.266   6.967   9.239 -1.4116 -0.2071 -2.7689
  121MOL0     H16683   3.012   6.940   9.195  0.1736 -0.7175  0.3122
  121MOL0     H16684   2.637   7.065   9.343  1.1728 -0.5077 -0.6419
  121MOL0     H16685   2.410   7.124   9.310 -3.5108  1.7890  2.3105
  121MOL0     H16686   2.216   7.079   9.217 -0.8766 -0.2528 -0.3626
  121MOL0     H16687   2.051   7.053   9.282 -0.2670 -0.1898  3.1630
  121MOL0     H16688   2.239   7.258   9.396 -0.2689  0.4545  1.8848
  121MOL0     H16689   2.097   7.213   9.469  2.6050 -0.3704  1.5530
  121MOL0     H16690   2.044   7.263   9.184  3.6796  1.3761 -0.7055
  121MOL0     H16691   1.960   7.332   9.331  0.3968  1.2365  1.8944
  121MOL0     H16692   2.156   7.479   9.375  1.4314 -1.1037 -0.2939
  121MOL0     H16693   2.055   7.516   9.238  0.2184  0.5834 -0.9326
  121MOL0     H16694   2.423   7.440   9.044  2.0643  2.7991  1.5291
  121MOL0     H16695   2.269   6.784   9.512 -0.3453  0.3862  0.8761
  121MOL0     H16696   2.552   6.655   9.632 -1.7906 -0.6023  0.7120
  121MOL0     H16697   2.409   6.595   9.539  0.7292 -1.6595 -0.9249
  121MOL0     H16698   2.569   6.595   9.466  0.5287 -0.0092  0.4612
  122MOL0     O16699   2.298   0.680   0.541  0.0999 -0.1815  0.7225
  122MOL0     C16700   2.243   0.584   0.581  0.2801  0.6845 -0.3125
  122MOL0     O16701   2.304   0.457   0.610  0.3731 -0.2315  0.2171
  122MOL0     C16702   2.438   0.445   0.626  0.7965 -0.7126 -0.5524
  122MOL0     C16703   2.525   0.561   0.663  0.0087 -0.0266 -0.6781
  122MOL0     C16704   2.667   0.534   0.695  1.0138 -0.4545  0.7799
  122MOL0     C16705   2.710   0.396   0.698 -1.0977 -0.3635  0.4902
  122MOL0     O16706   2.836   0.354   0.735  0.6207  0.5401  0.7783
  122MOL0     C16707   2.920   0.462   0.787  0.3138 -0.5686 -0.1107
  122MOL0     C16708   3.043   0.388   0.829  0.0753  0.5088 -0.6494
  122MOL0     C16709   3.168   0.487   0.843 -0.6547 -0.3880  0.6325
  122MOL0     C16710   3.281   0.406   0.901  0.6185 -0.4200  0.2264
  122MOL0     C16711   3.350   0.492   1.013  0.3571  0.1914  0.2117
  122MOL0     C16712   3.426   0.611   0.966  0.5462 -0.9964 -0.2163
  122MOL0     C16713   3.528   0.665   1.075 -0.2330  0.1879  0.3296
  122MOL0     C16714   3.560   0.811   1.060  0.1906  0.0425 -0.4064
  122MOL0     N16715   3.548   0.868   1.193 -0.9701 -0.5113  0.5631
  122MOL0     C16716   3.663   0.891   1.276 -0.1173  0.5601 -0.3161
  122MOL0     C16717   3.610   0.949   1.384  0.6308 -0.5192 -0.2136
  122MOL0     C16718   3.689   0.998   1.505 -0.7848  0.1241 -0.0508
  122MOL0     C16719   3.631   1.138   1.553 -0.3547  0.0921  0.8937
  122MOL0     C16720   3.568   1.131   1.694 -0.0560  0.3171  0.7353
  122MOL0     C16721   3.535   1.277   1.749 -0.8121  0.5844  0.7156
  122MOL0     O16722   3.663   1.343   1.754 -0.0855  0.3806  0.5191
  122MOL0     C16723   3.648   1.477   1.745 -0.3185  0.1713 -0.0971
  122MOL0     C16724   3.593   1.534   1.633 -0.5126 -0.2903  0.0968
  122MOL0     C16725   3.571   1.676   1.637  0.2056 -0.2031 -0.0417
  122MOL0     C16726   3.503   1.721   1.511 -0.7548  0.3092  0.5348
  122MOL0     C16727   3.602   1.759   1.756  1.0586  0.5292  0.0423
  122MOL0     C16728   3.590   1.905   1.753 -0.3952  0.0088  0.5295
  122MOL0     O16729   3.563   1.954   1.879 -0.2519 -0.0041 -0.5708
  122MOL0     C16730   3.626   2.069   1.939  0.4750  0.8027 -0.7324
  122MOL0     C16731   3.719   2.144   1.867  0.6114 -0.2376  0.2095
  122MOL0     C16732   3.764   2.262   1.935 -0.0877  1.0924  1.0003
  122MOL0     C16733   3.712   2.309   2.058  0.2617 -0.4354 -0.8032
  122MOL0     O16734   3.741   2.440   2.094 -0.1892  0.9741  0.3792
  122MOL0     C16735   3.687   2.503   2.217 -0.4296  0.8170  0.1111
  122MOL0     C16736   3.738   2.634   2.254 -0.0931 -0.2094 -0.2499
  122MOL0     C16737   3.658   2.745   2.172 -0.4732  0.2911 -0.6013
  122MOL0     C16738   3.691   2.884   2.227  0.5442  0.1197 -0.3416
  122MOL0     C16739   3.574   2.976   2.195 -1.0148 -0.3821 -0.1134
  122MOL0     C16740   3.607   3.118   2.237  0.2569 -0.5116 -0.0915
  122MOL0     C16741   3.508   3.232   2.188 -0.4948  0.6169  0.0797
  122MOL0     C16742   3.468   3.321   2.309  0.5214  0.3723 -0.1240
  122MOL0    Cl16743   3.593   3.444   2.358  0.2876  0.3500  0.2910
  122MOL0     C16744   3.606   2.237   2.116  0.5007 -0.0997 -1.2967
  122MOL0     C16745   3.572   2.118   2.057 -0.2077 -0.5823 -0.2183
  122MOL0     O16746   3.610   1.972   1.658 -0.3737  0.1889  0.3990
  122MOL0     C16747   3.642   1.690   1.866 -0.3571  0.8848 -0.4739
  122MOL0     C16748   3.674   1.550   1.867  0.7653 -0.6948 -1.6927
  122MOL0     N16749   3.468   0.963   1.369 -0.7032  0.0799  0.3301
  122MOL0     N16750   3.434   0.918   1.250 -1.0537 -0.3357 -0.7940
  122MOL0     C16751   2.622   0.290   0.684  1.1318  0.0794 -0.1800
  122MOL0     C16752   2.499   0.323   0.633 -0.5045  0.8357  0.9816
  122MOL0     C16753   2.091   0.606   0.586  1.4551 -0.0106 -0.4185
  122MOL0     C16754   2.027   0.526   0.677  0.0118  0.5238  0.2875
  122MOL0     C16755   1.881   0.517   0.682 -0.1496 -0.1554  0.0124
  122MOL0     C16756   1.806   0.606   0.606 -0.1471  0.3546 -0.4149
  122MOL0     O16757   1.679   0.582   0.591  0.4534  0.0705 -0.0782
  122MOL0     C16758   1.597   0.693   0.596 -0.6833 -0.1378 -0.7460
  122MOL0     C16759   1.453   0.667   0.527  0.0003  0.1311  0.4964
  122MOL0     C16760   1.469   0.602   0.384  0.7896 -0.2401 -0.6240
  122MOL0     C16761   1.582   0.649   0.297  0.3489 -0.5368  0.1742
  122MOL0     C16762   1.569   0.796   0.287  0.7977  1.6163 -0.7209
  122MOL0     C16763   1.542   0.907   0.264  0.7039 -0.0052 -0.2307
  122MOL0     C16764   1.872   0.695   0.524  0.1545  0.4117  0.0753
  122MOL0     C16765   2.012   0.701   0.507  0.0339 -0.1134  0.3936
  122MOL0     C16766   2.071   0.813   0.422 -0.6688  0.2521  0.7956
  122MOL0     H16767   2.490   0.664   0.671  2.5937  0.8137  1.0295
  122MOL0     H16768   2.745   0.608   0.710  3.2814 -2.3327 -0.9951
  122MOL0     H16769   2.889   0.520   0.876  0.0114 -3.0944  1.5234
  122MOL0     H16770   2.941   0.540   0.714 -3.6016 -0.3689 -1.2456
  122MOL0     H16771   3.024   0.347   0.929  0.0211 -0.0587 -0.8897
  122MOL0     H16772   3.069   0.309   0.759  3.3548  2.4752 -1.9032
  122MOL0     H16773   3.202   0.529   0.748 -0.7227 -0.0184  0.7703
  122MOL0     H16774   3.152   0.573   0.908 -0.3799  1.2356 -1.3581
  122MOL0     H16775   3.240   0.316   0.946 -1.2120  0.5975  0.6828
  122MOL0     H16776   3.346   0.376   0.819  3.7955 -0.6520  2.6083
  122MOL0     H16777   3.413   0.424   1.071  1.6881  0.3633 -0.9852
  122MOL0     H16778   3.279   0.540   1.081  0.4457  1.7352 -0.7351
  122MOL0     H16779   3.475   0.580   0.873 -1.3972 -2.0003 -0.9849
  122MOL0     H16780   3.352   0.690   0.950 -1.4412 -2.3710  1.5290
  122MOL0     H16781   3.625   0.614   1.076 -1.5892 -2.5737  0.8908
  122MOL0     H16782   3.479   0.652   1.172  2.6229  1.1726  2.0230
  122MOL0     H16783   3.656   0.845   1.021  0.4713 -0.6242 -0.2942
  122MOL0     H16784   3.489   0.859   0.992  2.1903 -0.2622 -2.8444
  122MOL0     H16785   3.768   0.867   1.262  0.3975  1.9412  0.9021
  122MOL0     H16786   3.793   1.005   1.472 -0.0622  0.5707  2.1521
  122MOL0     H16787   3.687   0.928   1.589 -1.6511 -1.5430 -1.3921
  122MOL0     H16788   3.713   1.210   1.545 -1.4323  1.3394  0.7785
  122MOL0     H16789   3.551   1.172   1.486  1.3893  0.9503 -0.8584
  122MOL0     H16790   3.484   1.062   1.695  1.1736 -1.7803 -4.8563
  122MOL0     H16791   3.650   1.086   1.751  0.4670 -2.1241 -1.6993
  122MOL0     H16792   3.463   1.328   1.685  0.3886  1.7476  0.2594
  122MOL0     H16793   3.486   1.274   1.847 -0.5305 -0.8703  0.8366
  122MOL0     H16794   3.582   1.474   1.543  1.9792 -1.9299  0.7888
  122MOL0     H16795   3.566   1.797   1.464 -0.2114 -1.0014 -0.9169
  122MOL0     H16796   3.408   1.772   1.528 -1.5076 -0.6505 -0.7002
  122MOL0     H16797   3.485   1.632   1.451  0.0521 -0.3182  1.1962
  122MOL0     H16798   3.756   2.116   1.769  3.3650 -1.6387  1.5219
  122MOL0     H16799   3.839   2.316   1.879  1.1131 -1.0022  0.4996
  122MOL0     H16800   3.580   2.505   2.238 -0.2450  0.6240  1.1361
  122MOL0     H16801   3.721   2.437   2.298 -1.5020  0.0024 -0.0921
  122MOL0     H16802   3.721   2.646   2.361 -1.5314  0.8549 -0.5763
  122MOL0     H16803   3.843   2.649   2.228  0.1939  2.1008  1.8394
  122MOL0     H16804   3.551   2.727   2.178 -0.8995  2.8657  1.1500
  122MOL0     H16805   3.684   2.742   2.066  0.6160 -0.7668 -0.3271
  122MOL0     H16806   3.784   2.921   2.184  0.1220  2.5956  0.6823
  122MOL0     H16807   3.709   2.890   2.335 -1.5304  3.9051 -0.0290
  122MOL0     H16808   3.556   2.973   2.087 -0.3272  1.3855 -0.3105
  122MOL0     H16809   3.484   2.948   2.250 -1.5801  3.3166  1.1003
  122MOL0     H16810   3.708   3.144   2.204 -0.0852 -0.6838 -1.3117
  122MOL0     H16811   3.616   3.118   2.346 -1.0798  1.2507  0.0506
  122MOL0     H16812   3.419   3.185   2.145 -0.2079  1.2815 -1.2979
  122MOL0     H16813   3.551   3.294   2.108 -0.7038  1.4636  0.6067
  122MOL0     H16814   3.439   3.275   2.404  0.6483 -0.1927 -0.3579
  122MOL0     H16815   3.376   3.362   2.265  1.8753  1.6631 -1.9207
  122MOL0     H16816   3.563   2.297   2.195  2.7336  1.5276 -1.2447
  122MOL0     H16817   3.510   2.052   2.116  1.6475 -2.9658 -0.7954
  122MOL0     H16818   3.670   1.753   1.950  1.0175  3.6386 -2.8525
  122MOL0     H16819   3.705   1.510   1.963  0.6070  1.8320 -0.5052
  122MOL0     H16820   2.652   0.187   0.693 -1.5855 -0.8292 -0.5508
  122MOL0     H16821   2.437   0.239   0.604 -0.3725  0.3480  2.0603
  122MOL0     H16822   2.086   0.463   0.744 -2.8742  0.3457  2.8831
  122MOL0     H16823   1.834   0.443   0.745 -0.4163 -1.2548 -1.4373
  122MOL0     H16824   1.569   0.706   0.701 -0.3495 -1.1048 -0.5245
  122MOL0     H16825   1.643   0.779   0.548 -0.9128 -0.3044 -1.2724
  122MOL0     H16826   1.397   0.761   0.521  0.2270  0.2952  0.8594
  122MOL0     H16827   1.406   0.599   0.599  2.3388  0.2943  2.3187
  122MOL0     H16828   1.486   0.494   0.394 -1.7960 -0.7032 -0.4847
  122MOL0     H16829   1.371   0.608   0.335 -0.7974 -1.0213  2.2335
  122MOL0     H16830   1.567   0.605   0.198 -1.8543 -4.3374  1.9728
  122MOL0     H16831   1.678   0.616   0.336 -0.1185  0.2308  2.0705
  122MOL0     H16832   1.520   1.011   0.257 -0.6701 -0.2604  0.0268
  122MOL0     H16833   1.826   0.758   0.449  2.6444 -0.4889 -2.4078
  122MOL0     H16834   2.125   0.775   0.335 -1.1313  0.1528  0.5496
  122MOL0     H16835   1.991   0.871   0.374 -1.6351 -1.4735  0.2098
  122MOL0     H16836   2.128   0.891   0.474  1.0046  0.0180 -0.6127
  123MOL0     O16837   5.102   9.014   4.149 -0.9792  0.2662 -0.1784
  123MOL0     C16838   5.050   8.902   4.122 -0.0099 -0.6946  0.2821
  123MOL0     O16839   4.937   8.849   4.175 -0.1228 -0.9932  0.0031
  123MOL0     C16840   4.915   8.893   4.302 -0.3290  0.5477  0.4865
  123MOL0     C16841   4.779   8.911   4.335 -0.1690 -0.6208 -0.8019
  123MOL0     C16842   4.737   8.972   4.457  0.3917 -1.0578  0.8725
  123MOL0     C16843   4.834   9.015   4.545 -0.5546 -0.2531 -0.2781
  123MOL0     O16844   4.810   9.077   4.663 -0.4746  0.3357  0.3734
  123MOL0     C16845   4.708   9.169   4.679  0.0779 -1.1056  0.2112
  123MOL0     C16846   4.702   9.208   4.828  0.4306 -0.1633  0.1534
  123MOL0     C16847   4.551   9.246   4.863 -0.0573  0.9608 -0.6034
  123MOL0     C16848   4.522   9.390   4.807  0.3378 -0.7631 -0.3047
  123MOL0     C16849   4.402   9.468   4.861  0.6270 -0.1611 -0.2204
  123MOL0     C16850   4.404   9.491   5.016  0.5679  0.4626  0.0518
  123MOL0     C16851   4.486   9.611   5.046 -0.2899  0.0183 -0.4761
  123MOL0     C16852   4.593   9.575   5.152 -0.5153  0.1646  0.5001
  123MOL0     N16853   4.517   9.540   5.276  0.3756  0.1151 -0.5087
  123MOL0     C16854   4.471   9.626   5.364  1.2067  0.3018 -0.4146
  123MOL0     C16855   4.416   9.551   5.462 -1.4774  0.2769  0.1165
  123MOL0     C16856   4.353   9.601   5.589  0.5438  0.2418  0.0993
  123MOL0     C16857   4.430   9.550   5.712  0.2898  0.5548  0.3393
  123MOL0     C16858   4.371   9.615   5.834 -0.1209  0.0131  0.0207
  123MOL0     C16859   4.222   9.575   5.866  0.0160  0.6160  0.3362
  123MOL0     O16860   4.189   9.444   5.834  0.2147  0.3703  0.1201
  123MOL0     C16861   4.139   9.364   5.933  0.2612 -0.3405  0.5241
  123MOL0     C16862   4.185   9.237   5.951 -0.1455 -0.1184 -0.1525
  123MOL0     C16863   4.144   9.150   6.061 -0.9080 -0.1716 -0.0286
  123MOL0     C16864   4.194   9.006   6.064 -0.1536 -0.5786  0.1268
  123MOL0     C16865   4.035   9.204   6.146 -0.1563 -0.4701  0.8678
  123MOL0     C16866   3.964   9.140   6.261 -0.3284  0.4955 -0.2411
  123MOL0     O16867   3.842   9.185   6.277 -0.1276 -0.2677  0.3732
  123MOL0     C16868   3.789   9.151   6.395 -0.2170 -0.2404  0.8194
  123MOL0     C16869   3.764   9.264   6.479 -0.2204  0.9596 -1.0119
  123MOL0     C16870   3.708   9.230   6.603 -0.0208 -0.4921  0.2018
  123MOL0     C16871   3.664   9.098   6.632  0.6584 -0.2299 -0.4917
  123MOL0     O16872   3.592   9.076   6.753 -0.3836  0.0055  0.0411
  123MOL0     C16873   3.588   8.948   6.815  0.8283  0.5275 -0.2548
  123MOL0     C16874   3.525   8.961   6.956  0.6710 -0.3661 -0.0030
  123MOL0     C16875   3.560   8.853   7.059  0.4106 -0.5257 -0.1974
  123MOL0     C16876   3.441   8.774   7.109 -0.4865  0.7894 -1.2485
  123MOL0     C16877   3.484   8.638   7.177  1.3919  0.5014 -0.4142
  123MOL0     C16878   3.547   8.659   7.312  0.2010 -0.2009 -0.1651
  123MOL0     C16879   3.447   8.722   7.412  0.0087 -0.6672 -0.1708
  123MOL0     C16880   3.504   8.719   7.553  0.0644 -0.5917  0.4134
  123MOL0    Cl16881   3.508   8.555   7.587 -0.2895  0.0793  0.2549
  123MOL0     C16882   3.678   8.993   6.544 -0.6277  0.8528 -0.0509
  123MOL0     C16883   3.748   9.017   6.434  0.5735 -0.0931  0.5471
  123MOL0     O16884   4.017   9.056   6.338 -0.4751 -0.1685  0.2103
  123MOL0     C16885   3.992   9.341   6.121  0.9359  0.2738 -0.1563
  123MOL0     C16886   4.049   9.412   6.025  0.4263  0.7252  0.1486
  123MOL0     N16887   4.449   9.416   5.442  0.6037 -0.7660 -0.7441
  123MOL0     N16888   4.518   9.414   5.334  0.4728  0.2938 -0.1539
  123MOL0     C16889   4.972   9.014   4.507 -0.0363  0.4537 -0.2034
  123MOL0     C16890   5.010   8.932   4.400  0.0041  0.4184  0.4172
  123MOL0     C16891   5.110   8.830   4.012 -0.1244 -0.1145 -1.2934
  123MOL0     C16892   5.018   8.749   3.943 -1.0287  1.4679  0.5122
  123MOL0     C16893   5.062   8.669   3.831  0.7076 -0.8058 -0.5182
  123MOL0     C16894   5.185   8.697   3.776 -0.3603  0.5381 -0.1058
  123MOL0     O16895   5.240   8.638   3.663  0.3261 -1.1007 -0.4538
  123MOL0     C16896   5.167   8.562   3.578  0.2680  0.0226 -0.7109
  123MOL0     C16897   5.180   8.620   3.434 -0.4768  0.3865 -0.9563
  123MOL0     C16898   5.326   8.619   3.388  0.4879  0.2784  0.5298
  123MOL0     C16899   5.338   8.650   3.235  0.2160 -1.3278  0.3294
  123MOL0     C16900   5.330   8.797   3.200  0.1373  0.4362  0.5045
  123MOL0     C16901   5.324   8.912   3.174  0.5872 -0.9834  0.7364
  123MOL0     C16902   5.273   8.780   3.840  0.0731  0.0846  0.3327
  123MOL0     C16903   5.239   8.847   3.964 -1.5595  1.2578 -0.1704
  123MOL0     C16904   5.342   8.922   4.053 -0.0802  1.0706  0.0180
  123MOL0     H16905   4.709   8.882   4.257  1.5267 -0.9832 -2.2459
  123MOL0     H16906   4.633   8.992   4.483  0.9009 -0.5851  2.6677
  123MOL0     H16907   4.621   9.110   4.649  1.7092 -2.5809 -2.0276
  123MOL0     H16908   4.723   9.257   4.617 -1.8103  0.3246  1.6501
  123MOL0     H16909   4.721   9.115   4.883 -1.9462 -1.8281 -1.6191
  123MOL0     H16910   4.777   9.283   4.852 -1.3496  2.7535 -2.6402
  123MOL0     H16911   4.482   9.169   4.828  1.6150 -0.1922 -1.5033
  123MOL0     H16912   4.556   9.244   4.972  1.3286  0.2135 -0.6584
  123MOL0     H16913   4.607   9.449   4.841 -0.3629  0.6379 -0.9235
  123MOL0     H16914   4.513   9.396   4.698 -0.6227  0.3654 -0.1778
  123MOL0     H16915   4.313   9.420   4.819  0.7517 -2.3377  1.8240
  123MOL0     H16916   4.387   9.564   4.810 -0.2555  0.2735  0.8374
  123MOL0     H16917   4.301   9.502   5.050  0.7852  0.6864  0.6656
  123MOL0     H16918   4.434   9.404   5.074 -1.3823  1.8426  3.4346
  123MOL0     H16919   4.428   9.695   5.085  0.5338  1.3148 -1.9162
  123MOL0     H16920   4.539   9.645   4.957 -1.0635 -0.1480 -0.9999
  123MOL0     H16921   4.647   9.488   5.112 -1.9603  1.3789 -4.9710
  123MOL0     H16922   4.670   9.651   5.167 -0.0901 -0.3682  1.0512
  123MOL0     H16923   4.459   9.728   5.331  1.1558  0.3072 -0.3810
  123MOL0     H16924   4.250   9.567   5.598 -0.0342  1.6948 -0.6922
  123MOL0     H16925   4.344   9.709   5.578 -3.4059 -0.0445 -0.9857
  123MOL0     H16926   4.417   9.441   5.720  1.7691  0.4025  1.0457
  123MOL0     H16927   4.536   9.573   5.702  0.6584  0.0552  2.4562
  123MOL0     H16928   4.431   9.577   5.917 -4.2737 -0.1008  3.2986
  123MOL0     H16929   4.374   9.724   5.831 -4.6938  0.3032 -1.3076
  123MOL0     H16930   4.213   9.577   5.975  2.3605 -1.3670  0.6646
  123MOL0     H16931   4.153   9.648   5.823  1.0469  1.3297 -0.1729
  123MOL0     H16932   4.250   9.202   5.871  1.6571  0.7207  0.8871
  123MOL0     H16933   4.115   8.942   6.104  0.8647 -0.6849  2.0623
  123MOL0     H16934   4.272   8.995   6.139 -0.5444 -1.1309  0.4569
  123MOL0     H16935   4.231   8.971   5.967  2.8005  0.1693  0.8850
  123MOL0     H16936   3.809   9.359   6.453  2.9841  0.5073  2.0914
  123MOL0     H16937   3.715   9.310   6.676 -3.3178  1.6491 -1.6399
  123MOL0     H16938   3.545   8.868   6.755  0.4978  2.5846 -2.9151
  123MOL0     H16939   3.692   8.926   6.840  1.0732  4.2058  2.9569
  123MOL0     H16940   3.544   9.056   7.007  0.6225  0.2874 -1.1761
  123MOL0     H16941   3.422   8.943   6.924  1.2683 -0.3931 -2.0960
  123MOL0     H16942   3.594   8.897   7.153 -2.2094  0.5928  0.3152
  123MOL0     H16943   3.634   8.785   7.017  0.7105 -0.5247  0.3283
  123MOL0     H16944   3.374   8.759   7.024  0.1709 -0.1417 -1.6328
  123MOL0     H16945   3.381   8.827   7.183 -0.2616 -0.8768  0.1839
  123MOL0     H16946   3.394   8.577   7.183  0.8485  0.7758 -3.9080
  123MOL0     H16947   3.564   8.589   7.120  0.1079 -1.1664 -0.8499
  123MOL0     H16948   3.640   8.716   7.302  0.0506  0.0833  0.0250
  123MOL0     H16949   3.587   8.566   7.352  0.6804  0.6549  1.4340
  123MOL0     H16950   3.345   8.681   7.405 -0.7278  0.9955  0.4315
  123MOL0     H16951   3.425   8.825   7.383  3.6571 -0.0030 -1.0393
  123MOL0     H16952   3.450   8.773   7.632  2.2591  2.0584  0.2666
  123MOL0     H16953   3.601   8.765   7.531 -0.8255  1.2244  0.1188
  123MOL0     H16954   3.645   8.894   6.572  3.0524  0.2183  2.8481
  123MOL0     H16955   3.766   8.937   6.363  2.5851  1.7096 -1.1421
  123MOL0     H16956   3.930   9.388   6.197 -1.5362  0.2597 -2.0259
  123MOL0     H16957   4.021   9.517   6.026  2.8806  1.4847  2.7044
  123MOL0     H16958   5.038   9.030   4.591  1.6669 -1.0872 -1.1536
  123MOL0     H16959   5.117   8.934   4.381 -0.5466  3.1152 -3.7910
  123MOL0     H16960   4.917   8.730   3.976 -0.8521  1.0105  0.8121
  123MOL0     H16961   4.998   8.587   3.799  1.0748 -1.2248 -0.1925
  123MOL0     H16962   5.206   8.460   3.580  2.0150  0.6503  0.9397
  123MOL0     H16963   5.059   8.572   3.595  0.1351  1.3788 -2.0916
  123MOL0     H16964   5.154   8.726   3.438  0.3979  0.5902 -0.4862
  123MOL0     H16965   5.112   8.561   3.371 -2.6340 -1.0089  2.3447
  123MOL0     H16966   5.377   8.689   3.455 -0.6189  0.6078  1.0526
  123MOL0     H16967   5.370   8.520   3.402  2.0140  0.0831 -4.0578
  123MOL0     H16968   5.274   8.587   3.172  2.2177 -1.5652 -1.5817
  123MOL0     H16969   5.444   8.631   3.216  1.0038  1.0015  1.9529
  123MOL0     H16970   5.320   9.018   3.156  0.5716 -1.0812  0.1310
  123MOL0     H16971   5.376   8.795   3.808  0.8472  1.8869  3.2286
  123MOL0     H16972   5.334   9.031   4.042 -1.5970  0.9682 -0.1153
  123MOL0     H16973   5.321   8.883   4.153  0.4020 -0.8724 -0.5980
  123MOL0     H16974   5.442   8.881   4.036 -1.2634 -1.8723 -0.3408
  124MOL0     O16975   4.370   9.193   6.523 -0.3003  0.4076  0.0116
  124MOL0     C16976   4.354   9.239   6.406  0.3438 -1.4172  1.0455
  124MOL0     O16977   4.417   9.185   6.290 -0.3434 -0.0968  0.5827
  124MOL0     C16978   4.498   9.083   6.303  0.2356  0.0628  0.1170
  124MOL0     C16979   4.631   9.084   6.268  1.1684 -0.1403  0.0114
  124MOL0     C16980   4.718   8.972   6.292 -0.2068  0.1545 -1.0451
  124MOL0     C16981   4.673   8.864   6.369 -0.8403 -0.6248  0.7930
  124MOL0     O16982   4.751   8.749   6.394  0.0689  0.2541  0.6279
  124MOL0     C16983   4.874   8.729   6.324  0.0877 -0.6638  0.0920
  124MOL0     C16984   4.950   8.618   6.401 -0.2308  0.1125 -0.4482
  124MOL0     C16985   5.067   8.572   6.323 -0.5662  0.1292  0.2963
  124MOL0     C16986   5.154   8.692   6.268  0.0636  1.1742  0.3096
  124MOL0     C16987   5.222   8.777   6.374 -0.5582 -0.2739 -0.4806
  124MOL0     C16988   5.340   8.717   6.455  0.3251  0.1103 -1.0057
  124MOL0     C16989   5.276   8.664   6.576  0.0411 -0.5567 -0.3117
  124MOL0     C16990   5.380   8.595   6.670  0.1314 -0.7491  0.5016
  124MOL0     N16991   5.307   8.530   6.783 -0.0030  0.0861  0.4744
  124MOL0     C16992   5.205   8.437   6.771 -0.3217 -0.0720  0.8958
  124MOL0     C16993   5.168   8.402   6.895  0.3471 -0.2465  1.1744
  124MOL0     C16994   5.057   8.299   6.907  0.1476  0.6176 -0.4913
  124MOL0     C16995   5.097   8.175   6.992 -1.2026 -0.7777 -0.0864
  124MOL0     C16996   5.246   8.132   6.971  1.5653 -0.2804 -0.0502
  124MOL0     C16997   5.272   7.992   7.026 -0.2015  1.2951  0.5009
  124MOL0     O16998   5.408   7.959   7.010 -0.3826  0.1459  0.6273
  124MOL0     C16999   5.506   8.031   7.079 -0.8383  0.5746  0.0753
  124MOL0     C17000   5.635   7.971   7.065  0.8411 -0.9593  1.6621
  124MOL0     C17001   5.747   8.020   7.132 -0.3448  0.0314  0.3115
  124MOL0     C17002   5.873   7.936   7.108 -0.9638  0.5439  0.1184
  124MOL0     C17003   5.736   8.125   7.227 -0.3992 -0.3551 -0.0966
  124MOL0     C17004   5.847   8.188   7.300  0.3606 -0.7761  0.7768
  124MOL0     O17005   5.813   8.302   7.376  0.3767  0.0755 -0.5213
  124MOL0     C17006   5.905   8.373   7.449 -0.0860  0.2019 -0.5143
  124MOL0     C17007   6.033   8.400   7.402 -0.5713 -0.3630  0.2630
  124MOL0     C17008   6.125   8.464   7.493 -0.4627  0.1873 -0.6606
  124MOL0     C17009   6.085   8.495   7.620  0.7678  0.0578 -0.7045
  124MOL0     O17010   6.176   8.575   7.685  0.2594 -0.4080  0.5415
  124MOL0     C17011   6.194   8.542   7.820 -0.3822 -0.3148 -0.3963
  124MOL0     C17012   6.252   8.674   7.862 -0.9956 -0.5709 -0.4041
  124MOL0     C17013   6.328   8.659   7.993 -0.0626  0.0811 -0.1723
  124MOL0     C17014   6.433   8.759   8.000  0.0374  0.8759 -0.6326
  124MOL0     C17015   6.511   8.736   8.137  0.0453 -1.0845  0.4771
  124MOL0     C17016   6.435   8.768   8.261 -0.1950 -0.1715  0.3695
  124MOL0     C17017   6.528   8.770   8.373  0.1371  0.2817 -0.0920
  124MOL0     C17018   6.462   8.788   8.511 -0.1355 -0.2910 -0.5018
  124MOL0    Cl17019   6.582   8.783   8.640 -0.3494  0.2003 -0.1184
  124MOL0     C17020   5.950   8.469   7.667 -0.0883 -0.0172 -0.1449
  124MOL0     C17021   5.862   8.403   7.580 -0.8930  0.0947  0.6608
  124MOL0     O17022   5.951   8.136   7.289 -1.3810  0.6344  0.2607
  124MOL0     C17023   5.609   8.180   7.233 -0.6677 -0.2854  0.6494
  124MOL0     C17024   5.493   8.132   7.169  0.3627  0.5396  0.7073
  124MOL0     N17025   5.235   8.480   6.987  0.1472 -0.1331 -0.5066
  124MOL0     N17026   5.332   8.538   6.913 -0.8424  0.3633 -0.2700
  124MOL0     C17027   4.535   8.858   6.395 -0.2005 -0.1383 -1.5269
  124MOL0     C17028   4.454   8.965   6.367  0.1841 -0.6345  0.5568
  124MOL0     C17029   4.263   9.355   6.398  0.3257  0.9522  0.1105
  124MOL0     C17030   4.142   9.363   6.473 -0.3462 -0.0822  0.2881
  124MOL0     C17031   4.071   9.482   6.476  0.7962  0.0078 -0.4501
  124MOL0     C17032   4.100   9.588   6.398  0.2023  0.5736  0.1954
  124MOL0     O17033   4.027   9.701   6.402  0.0723  0.4051 -0.8519
  124MOL0     C17034   4.047   9.765   6.528  0.7702 -0.0853  0.2629
  124MOL0     C17035   3.964   9.892   6.535 -0.1717  0.2963  0.1444
  124MOL0     C17036   4.036  10.006   6.472 -0.2577 -1.6281  0.7428
  124MOL0     C17037   3.939  10.128   6.474 -1.1456  0.6058  0.1955
  124MOL0     C17038   4.000  10.238   6.399 -1.2413 -0.3919  0.3954
  124MOL0     C17039   4.050  10.326   6.334  0.2801 -0.9481 -0.7094
  124MOL0     C17040   4.209   9.570   6.307  0.8977  0.7022 -0.1158
  124MOL0     C17041   4.296   9.464   6.314 -0.3192 -0.0426  0.1643
  124MOL0     C17042   4.411   9.462   6.218  0.6556 -0.5774  0.4622
  124MOL0     H17043   4.685   9.168   6.224 -1.4835  0.5637 -2.1558
  124MOL0     H17044   4.822   8.972   6.261 -0.0000 -1.7344 -0.4584
  124MOL0     H17045   4.939   8.816   6.336  0.6862 -1.0234 -0.4007
  124MOL0     H17046   4.858   8.704   6.218 -0.7988 -2.4226  0.6012
  124MOL0     H17047   4.975   8.657   6.500 -2.5586  0.7801 -0.0804
  124MOL0     H17048   4.886   8.532   6.423  0.5100 -0.2508  0.3433
  124MOL0     H17049   5.118   8.491   6.377 -1.2600  0.5315  1.5995
  124MOL0     H17050   5.029   8.523   6.233  0.9564  0.8974 -0.8105
  124MOL0     H17051   5.233   8.648   6.206  1.0134 -1.1073  2.9357
  124MOL0     H17052   5.094   8.761   6.209 -1.0220  0.0795  0.1061
  124MOL0     H17053   5.146   8.815   6.442  0.2656  0.7307 -0.1002
  124MOL0     H17054   5.263   8.861   6.317  0.9910 -0.5555  0.1570
  124MOL0     H17055   5.380   8.639   6.389  0.1185  1.2022 -2.4916
  124MOL0     H17056   5.411   8.794   6.485  0.1964  0.7270 -2.2028
  124MOL0     H17057   5.197   8.591   6.554  1.2490 -1.7830 -0.7121
  124MOL0     H17058   5.225   8.735   6.642 -0.6598 -3.9469  3.1193
  124MOL0     H17059   5.432   8.516   6.615  1.9489 -0.2672  1.4186
  124MOL0     H17060   5.440   8.671   6.721 -1.9525  0.4418  1.3193
  124MOL0     H17061   5.185   8.383   6.679  2.4532  3.0569 -1.8230
  124MOL0     H17062   5.015   8.268   6.811 -0.3712 -3.1977  0.8027
  124MOL0     H17063   4.973   8.348   6.958  0.7504 -0.7032  1.9275
  124MOL0     H17064   5.097   8.187   7.100  0.3575 -1.3020 -0.0049
  124MOL0     H17065   5.024   8.096   6.969 -3.7952  0.4377  3.2295
  124MOL0     H17066   5.261   8.135   6.863 -2.0215  0.0918 -0.6581
  124MOL0     H17067   5.304   8.218   7.004  1.6537  0.2496 -1.5359
  124MOL0     H17068   5.244   7.987   7.132  1.1215 -1.0649  0.8111
  124MOL0     H17069   5.223   7.913   6.969  0.7204  0.8840  0.2505
  124MOL0     H17070   5.645   7.892   6.992  0.3842  1.7472 -1.5711
  124MOL0     H17071   5.939   7.975   7.030 -0.2970 -1.4652 -0.3887
  124MOL0     H17072   5.851   7.837   7.066 -1.9531  0.0651  1.6869
  124MOL0     H17073   5.933   7.913   7.197 -1.4048 -0.0231  0.2752
  124MOL0     H17074   6.054   8.377   7.298  1.3083 -2.0984  0.9424
  124MOL0     H17075   6.229   8.481   7.467 -0.6255 -0.4716 -1.8201
  124MOL0     H17076   6.106   8.522   7.881 -1.7517 -0.9290 -2.4753
  124MOL0     H17077   6.263   8.458   7.836 -2.4851 -2.3980 -1.6339
  124MOL0     H17078   6.325   8.713   7.790 -0.8277  2.5988  1.3125
  124MOL0     H17079   6.167   8.741   7.879 -1.0857 -0.2080 -2.1204
  124MOL0     H17080   6.375   8.560   7.993  1.0752  0.6033 -0.7911
  124MOL0     H17081   6.256   8.674   8.075  0.3446  2.1747 -0.1480
  124MOL0     H17082   6.376   8.853   8.007  0.8023  1.3076 -0.1269
  124MOL0     H17083   6.504   8.754   7.917  0.1628  1.8797 -0.5974
  124MOL0     H17084   6.547   8.633   8.142  0.6805 -0.9162 -0.4396
  124MOL0     H17085   6.589   8.812   8.130  0.7388 -1.8918 -0.8517
  124MOL0     H17086   6.362   8.687   8.271  1.1157 -1.6867 -1.4372
  124MOL0     H17087   6.374   8.859   8.255 -2.6869 -1.8526 -1.7681
  124MOL0     H17088   6.606   8.847   8.368  1.1463 -0.6930  0.1909
  124MOL0     H17089   6.587   8.678   8.371 -0.1469  0.0557  1.0309
  124MOL0     H17090   6.385   8.713   8.529  0.6066 -0.4425  2.6497
  124MOL0     H17091   6.407   8.883   8.513 -1.3976 -0.8849 -3.3189
  124MOL0     H17092   5.924   8.491   7.770  1.5322 -1.2909  0.5718
  124MOL0     H17093   5.760   8.370   7.599 -0.1706 -2.8278  0.0238
  124MOL0     H17094   5.596   8.258   7.307  1.3204  3.2985 -2.4214
  124MOL0     H17095   5.391   8.159   7.195  1.0372  1.0692  3.0812
  124MOL0     H17096   4.496   8.769   6.442 -2.0471 -0.1161 -2.9043
  124MOL0     H17097   4.350   8.952   6.394  0.5865 -1.0574  2.0500
  124MOL0     H17098   4.122   9.276   6.535  0.3597 -0.3187  0.1936
  124MOL0     H17099   3.981   9.496   6.536  1.1690  3.6479 -0.5157
  124MOL0     H17100   3.983   9.710   6.597 -0.1547  0.7577  0.1043
  124MOL0     H17101   4.151   9.769   6.560  0.0029 -1.1651  3.1479
  124MOL0     H17102   3.945   9.911   6.641 -3.2467 -2.5015  0.2582
  124MOL0     H17103   3.874   9.886   6.474 -0.4617 -0.9247  0.6531
  124MOL0     H17104   4.130  10.031   6.523 -0.3033 -2.1750  1.0996
  124MOL0     H17105   4.047   9.986   6.365  1.0562  0.1741  0.4891
  124MOL0     H17106   3.911  10.165   6.573  0.9516  1.7501  0.4228
  124MOL0     H17107   3.855  10.101   6.409 -0.2812  2.9382 -2.0235
  124MOL0     H17108   4.112  10.406   6.297  0.3987 -0.6761  0.0445
  124MOL0     H17109   4.227   9.652   6.238  1.3277  1.0134  0.3559
  124MOL0     H17110   4.394   9.388   6.140 -2.4542 -0.9009  1.3326
  124MOL0     H17111   4.437   9.562   6.180  3.2245 -0.3793  2.4659
  124MOL0     H17112   4.501   9.441   6.277  1.4555  0.3197 -0.3851
  125MOL0     O17113   8.656   1.441   0.648  0.0240 -0.2256 -0.5385
  125MOL0     C17114   8.563   1.367   0.694  0.4155  1.1656 -0.4600
  125MOL0     O17115   8.576   1.299   0.808 -0.7379  0.4056  0.0174
  125MOL0     C17116   8.683   1.326   0.884 -0.5926  0.1576  0.1687
  125MOL0     C17117   8.672   1.434   0.970 -0.9005  0.4922 -0.2738
  125MOL0     C17118   8.785   1.479   1.031  0.7857 -0.3824  0.5762
  125MOL0     C17119   8.908   1.422   1.018  0.3047 -0.6148  0.2549
  125MOL0     O17120   9.008   1.480   1.090 -0.3494 -0.4053  0.2992
  125MOL0     C17121   9.137   1.475   1.034  0.2878  0.7995 -0.6624
  125MOL0     C17122   9.208   1.613   1.059 -0.1585  0.0581  0.7118
  125MOL0     C17123   9.350   1.607   1.033 -0.6710 -0.2075 -0.2090
  125MOL0     C17124   9.415   1.733   1.085 -0.6225  0.3527  0.9850
  125MOL0     C17125   9.571   1.732   1.067  0.8554  0.4292  0.4160
  125MOL0     C17126   9.625   1.827   1.166 -0.0311  0.7502  1.1016
  125MOL0     C17127   9.591   1.974   1.143  0.2088  0.5017  0.4781
  125MOL0     C17128   9.613   2.041   1.270 -0.2536 -0.7486  0.4457
  125MOL0     N17129   9.574   2.179   1.266 -0.2015  0.4475 -0.4349
  125MOL0     C17130   9.632   2.285   1.212  0.3944  0.3216  0.1434
  125MOL0     C17131   9.560   2.394   1.242 -0.5726 -0.2671 -1.2002
  125MOL0     C17132   9.590   2.541   1.183 -0.3092  0.0787  0.7632
  125MOL0     C17133   9.519   2.579   1.048  0.8747  0.0450  0.4982
  125MOL0     C17134   9.596   2.545   0.917 -0.6574  0.6617 -0.8709
  125MOL0     C17135   9.692   2.651   0.885 -0.5489  0.7660  0.2064
  125MOL0     O17136   9.646   2.781   0.925  0.1279 -0.1704 -1.1440
  125MOL0     C17137   9.738   2.889   0.932 -0.6524  0.2717  0.5274
  125MOL0     C17138   9.786   2.926   1.060 -0.1741  0.4766 -0.8417
  125MOL0     C17139   9.886   3.023   1.076 -0.8727  0.1401 -0.1894
  125MOL0     C17140   9.933   3.034   1.222 -0.4340 -0.5032 -0.4545
  125MOL0     C17141   9.931   3.104   0.960  0.6486  1.1700 -0.4140
  125MOL0     C17142  10.023   3.215   0.952  0.0133  0.1163 -0.0263
  125MOL0     O17143  10.082   3.226   0.830 -0.2034  0.1940  0.2398
  125MOL0     C17144  10.185   3.327   0.813  0.3835  0.0295  0.3887
  125MOL0     C17145  10.298   3.291   0.734  0.6476  1.3435 -0.7462
  125MOL0     C17146  10.404   3.383   0.723  0.0017 -0.4353  0.4121
  125MOL0     C17147  10.391   3.509   0.774 -0.3945  0.1031  1.1328
  125MOL0     O17148  10.485   3.607   0.764 -0.2498  0.0506  0.1844
  125MOL0     C17149  10.620   3.566   0.808  0.2521 -0.4107 -0.4589
  125MOL0     C17150  10.718   3.597   0.696  0.1008 -1.0541 -0.7866
  125MOL0     C17151  10.702   3.747   0.666 -0.4603 -0.3319 -0.2872
  125MOL0     C17152  10.795   3.795   0.564 -0.2668 -0.3027 -0.0737
  125MOL0     C17153  10.819   3.945   0.574 -0.3753  0.8751 -0.6167
  125MOL0     C17154  10.694   4.034   0.559 -1.0285  0.7286 -0.1354
  125MOL0     C17155  10.620   4.018   0.426  0.2122 -0.0298 -0.2772
  125MOL0     C17156  10.470   4.056   0.431 -0.6998 -1.1054  0.4627
  125MOL0    Cl17157  10.464   4.223   0.501 -0.0279 -0.3076 -0.3252
  125MOL0     C17158  10.282   3.544   0.846 -1.1426 -0.1141 -0.6249
  125MOL0     C17159  10.181   3.455   0.866 -0.0041  0.7883 -0.3160
  125MOL0     O17160  10.056   3.271   1.051  0.3921 -0.4641 -0.7206
  125MOL0     C17161   9.871   3.067   0.838 -0.3149 -0.0007  0.1584
  125MOL0     C17162   9.785   2.959   0.820 -0.3827 -0.0639 -0.3869
  125MOL0     N17163   9.446   2.348   1.314 -0.0452 -0.1392  0.8091
  125MOL0     N17164   9.457   2.224   1.326  0.5305  0.2518  1.0756
  125MOL0     C17165   8.919   1.310   0.931 -0.4700 -1.0650  0.4129
  125MOL0     C17166   8.801   1.263   0.867  0.4754  0.3399 -0.1951
  125MOL0     C17167   8.437   1.347   0.621  0.7362  0.7065 -0.4716
  125MOL0     C17168   8.326   1.327   0.703 -0.0353  0.1980 -0.3456
  125MOL0     C17169   8.200   1.336   0.641  0.4519 -0.6860  0.2844
  125MOL0     C17170   8.181   1.361   0.505  0.1181  0.0879  0.9717
  125MOL0     O17171   8.062   1.366   0.437  0.6720  0.2579  0.1795
  125MOL0     C17172   7.939   1.352   0.520  0.4645  0.3201  0.3546
  125MOL0     C17173   7.888   1.212   0.534 -0.0919 -1.0924 -0.7274
  125MOL0     C17174   7.763   1.211   0.618  0.5599  0.9719  0.2386
  125MOL0     C17175   7.741   1.066   0.675  0.2386  0.7859 -0.2337
  125MOL0     C17176   7.611   1.055   0.740  0.7134  0.5493  0.3890
  125MOL0     C17177   7.501   1.049   0.794  0.2386 -0.3759  1.1914
  125MOL0     C17178   8.292   1.361   0.430 -0.3351 -0.9566 -0.0881
  125MOL0     C17179   8.424   1.356   0.481 -0.4307  1.4223  0.1410
  125MOL0     C17180   8.540   1.352   0.385  0.6185 -0.0263  0.2284
  125MOL0     H17181   8.578   1.486   0.987 -1.3816 -0.5952  0.4664
  125MOL0     H17182   8.772   1.563   1.097  1.7104 -1.7688  2.6521
  125MOL0     H17183   9.142   1.454   0.927 -0.9100 -0.3264 -0.5253
  125MOL0     H17184   9.190   1.396   1.088 -2.5213  0.9534  2.6768
  125MOL0     H17185   9.151   1.682   0.996 -2.4807 -2.6635 -0.4335
  125MOL0     H17186   9.198   1.646   1.163  0.0894 -3.1994  1.9137
  125MOL0     H17187   9.393   1.521   1.085 -0.5239  0.8714  1.5161
  125MOL0     H17188   9.370   1.603   0.925 -0.8535  2.7047 -0.4481
  125MOL0     H17189   9.380   1.813   1.019  0.6808 -1.5316 -2.2256
  125MOL0     H17190   9.376   1.748   1.187 -2.3439 -2.3380  0.8204
  125MOL0     H17191   9.596   1.770   0.967 -1.6489 -0.2959 -0.5725
  125MOL0     H17192   9.626   1.639   1.082 -0.1750 -0.3135 -0.2436
  125MOL0     H17193   9.595   1.788   1.264 -0.9357  0.3278  0.6743
  125MOL0     H17194   9.733   1.820   1.156  0.0280  1.9123  0.8070
  125MOL0     H17195   9.489   1.989   1.106  0.7505 -0.3673 -1.5474
  125MOL0     H17196   9.654   2.024   1.069  2.2849  1.5743  2.8200
  125MOL0     H17197   9.550   1.996   1.348 -3.9432  1.6322 -0.9051
  125MOL0     H17198   9.720   2.024   1.285 -0.0783  0.0998  0.1821
  125MOL0     H17199   9.722   2.296   1.151  0.5247 -1.8638 -0.1486
  125MOL0     H17200   9.694   2.576   1.192 -0.6470  1.3490  0.0164
  125MOL0     H17201   9.528   2.595   1.256  0.6549  3.1269 -0.4954
  125MOL0     H17202   9.430   2.515   1.041  0.1968  0.7671  2.1248
  125MOL0     H17203   9.479   2.680   1.045 -1.5989 -0.8185  1.7042
  125MOL0     H17204   9.648   2.449   0.914 -0.3399  0.8438 -1.1268
  125MOL0     H17205   9.514   2.535   0.845 -2.0648 -1.4237  0.8522
  125MOL0     H17206   9.783   2.610   0.930 -1.0634  0.4798  1.0203
  125MOL0     H17207   9.702   2.648   0.777 -0.2288 -2.0377  0.2433
  125MOL0     H17208   9.750   2.867   1.144  2.7699  2.6588  2.2685
  125MOL0     H17209  10.040   3.013   1.235 -0.0194  0.3284 -2.1131
  125MOL0     H17210   9.872   2.976   1.291 -0.6236 -1.1732 -1.1832
  125MOL0     H17211   9.908   3.135   1.257 -0.0609  0.0455 -1.7063
  125MOL0     H17212  10.308   3.193   0.688  1.4409  0.2690  1.5701
  125MOL0     H17213  10.499   3.369   0.672 -0.0398 -1.6612  0.6491
  125MOL0     H17214  10.654   3.623   0.895 -1.2535  1.2625 -0.9160
  125MOL0     H17215  10.623   3.459   0.830 -0.3269 -1.2904 -4.0577
  125MOL0     H17216  10.818   3.561   0.719  0.6608 -0.8868 -2.7790
  125MOL0     H17217  10.682   3.559   0.600 -1.7075  0.1514 -0.6377
  125MOL0     H17218  10.704   3.813   0.753  0.0979 -0.6641 -0.0457
  125MOL0     H17219  10.606   3.767   0.618 -0.5655  1.0871  0.4804
  125MOL0     H17220  10.757   3.769   0.466 -1.1690  0.6599  0.0050
  125MOL0     H17221  10.895   3.751   0.578  1.5854  2.8957 -1.9823
  125MOL0     H17222  10.864   3.969   0.671  0.7896 -3.1967  0.0504
  125MOL0     H17223  10.898   3.973   0.504 -1.2298  1.7644 -1.2559
  125MOL0     H17224  10.737   4.133   0.576  0.8860 -0.0107 -0.4170
  125MOL0     H17225  10.626   4.008   0.642  0.1967  0.7387  0.9043
  125MOL0     H17226  10.621   3.920   0.378  1.3956  0.0913 -0.5230
  125MOL0     H17227  10.667   4.089   0.357  0.2507  0.6647  0.4429
  125MOL0     H17228  10.423   3.989   0.504  2.1605 -1.2398  2.3359
  125MOL0     H17229  10.433   4.039   0.330 -2.0709  0.5808  0.6436
  125MOL0     H17230  10.263   3.646   0.878 -0.0985 -0.6191  1.9167
  125MOL0     H17231  10.097   3.475   0.933 -0.3071 -3.5497  0.9029
  125MOL0     H17232   9.897   3.123   0.748  1.5601 -1.0698 -0.0331
  125MOL0     H17233   9.759   2.930   0.719 -2.0445  0.2118 -0.0751
  125MOL0     H17234   9.010   1.251   0.933 -2.0741 -3.6995  1.1256
  125MOL0     H17235   8.813   1.181   0.796 -1.5501  0.0107 -0.2041
  125MOL0     H17236   8.342   1.296   0.806  0.9509 -0.0570 -0.5618
  125MOL0     H17237   8.112   1.322   0.702  1.0325  0.8719  1.5576
  125MOL0     H17238   7.946   1.396   0.620  1.8547  0.2504  0.3046
  125MOL0     H17239   7.866   1.411   0.463  0.6534 -2.1403 -2.7439
  125MOL0     H17240   7.961   1.141   0.575  0.0624  0.1200  1.2433
  125MOL0     H17241   7.855   1.178   0.436 -0.3892  0.5321 -1.2259
  125MOL0     H17242   7.749   1.285   0.696 -1.4351  1.0583 -0.1412
  125MOL0     H17243   7.678   1.242   0.557  0.7663  2.1557  0.5341
  125MOL0     H17244   7.821   1.048   0.748  0.4253  0.3464 -0.5483
  125MOL0     H17245   7.753   0.986   0.603  0.4875 -0.0572  0.7216
  125MOL0     H17246   7.412   1.024   0.848 -1.0549 -3.9132 -2.1199
  125MOL0     H17247   8.274   1.383   0.325 -0.4511  3.8811  0.7277
  125MOL0     H17248   8.613   1.282   0.427 -0.6278 -0.7510  1.2749
  125MOL0     H17249   8.515   1.297   0.294  1.6020  1.3204 -0.9056
  125MOL0     H17250   8.580   1.453   0.373 -2.4991  1.2023 -0.9864
  126MOL0     O17251   2.714   8.638  11.503  0.6396 -0.0039  0.2827
  126MOL0     C17252   2.714   8.734  11.427  0.2485 -0.4397 -0.2719
  126MOL0     O17253   2.703   8.864  11.474 -0.3248  0.2380 -0.2795
  126MOL0     C17254   2.670   8.905  11.604 -0.1176  0.5731 -0.9701
  126MOL0     C17255   2.764   8.895  11.703  0.2340  0.3413  0.3485
  126MOL0     C17256   2.738   8.933  11.836 -0.6956  0.5722 -0.2076
  126MOL0     C17257   2.616   8.996  11.869 -0.4842  0.1277  1.1862
  126MOL0     O17258   2.608   9.044  11.998  0.0934  0.0550  0.2645
  126MOL0     C17259   2.491   9.125  12.030  0.5363  0.0415 -0.3031
  126MOL0     C17260   2.488   9.164  12.180  1.1489 -0.1754  0.6496
  126MOL0     C17261   2.472   9.040  12.264  0.4789  0.8075  0.3441
  126MOL0     C17262   2.319   9.010  12.289  0.8275 -0.5565 -0.0407
  126MOL0     C17263   2.296   8.903  12.388 -0.0521  0.6664 -0.6992
  126MOL0     C17264   2.148   8.864  12.420  0.4652  0.1496 -0.5151
  126MOL0     C17265   2.060   8.850  12.305  0.7351  0.0598 -0.0136
  126MOL0     C17266   2.087   8.730  12.222  0.1753 -0.1440 -0.3353
  126MOL0     N17267   1.971   8.642  12.223  0.1248 -0.1565  0.0850
  126MOL0     C17268   1.949   8.523  12.300 -0.0295 -0.6746 -0.0990
  126MOL0     C17269   1.818   8.492  12.276  0.5228  0.6144 -0.6353
  126MOL0     C17270   1.746   8.362  12.323 -0.8968  0.0021  0.0901
  126MOL0     C17271   1.647   8.403  12.429  0.8968 -0.7641  0.1316
  126MOL0     C17272   1.712   8.466  12.554  0.0728  0.1747 -0.9740
  126MOL0     C17273   1.615   8.484  12.674  0.4335 -0.6081 -0.4772
  126MOL0     O17274   1.488   8.532  12.629 -0.3405  0.7607 -0.2463
  126MOL0     C17275   1.384   8.540  12.714  0.5385 -0.0007  0.3483
  126MOL0     C17276   1.310   8.654  12.725 -0.6849 -0.9634  0.9251
  126MOL0     C17277   1.200   8.675  12.812  0.0438  0.6278  0.4249
  126MOL0     C17278   1.138   8.812  12.825  0.8792  0.2439 -0.7696
  126MOL0     C17279   1.164   8.563  12.887 -0.4209 -0.7606  0.1098
  126MOL0     C17280   1.049   8.563  12.983 -0.6601  0.5816  0.1298
  126MOL0     O17281   1.048   8.449  13.065 -0.7635 -0.3102  0.1167
  126MOL0     C17282   0.934   8.409  13.133  0.2915 -0.5895 -0.0602
  126MOL0     C17283   0.890   8.484  13.241  0.0033  0.1553 -0.0592
  126MOL0     C17284   0.778   8.441  13.307  0.4465 -0.1332  0.5908
  126MOL0     C17285   0.699   8.334  13.251 -0.2376  0.5055 -0.2303
  126MOL0     O17286   0.588   8.290  13.319 -0.4849 -0.1261 -0.3635
  126MOL0     C17287   0.481   8.242  13.243 -0.5335 -0.3418  0.2189
  126MOL0     C17288   0.345   8.286  13.308 -0.1291 -1.1059  0.0857
  126MOL0     C17289   0.332   8.256  13.456  0.0834  1.0972 -0.2305
  126MOL0     C17290   0.201   8.293  13.524  0.3135 -0.6372  0.7300
  126MOL0     C17291   0.208   8.260  13.665 -0.6195  0.4148 -0.9002
  126MOL0     C17292   0.095   8.322  13.749  0.9743 -0.4250  0.4046
  126MOL0     C17293   0.118   8.301  13.897 -0.5749 -0.1998  0.2289
  126MOL0     C17294  -0.004   8.313  13.994  0.0190 -0.3331  0.2750
  126MOL0    Cl17295  -0.136   8.192  13.987  0.2287 -0.0203  0.1702
  126MOL0     C17296   0.745   8.257  13.137  0.4543  0.0060 -0.0968
  126MOL0     C17297   0.868   8.296  13.084  0.2279 -0.1118  0.0055
  126MOL0     O17298   0.952   8.641  12.964 -0.4438  1.4910  1.3206
  126MOL0     C17299   1.235   8.446  12.874 -0.3714  0.8831 -0.3151
  126MOL0     C17300   1.338   8.434  12.785 -0.1740  0.3667 -0.4630
  126MOL0     N17301   1.763   8.576  12.186 -0.3416 -1.5850  0.1419
  126MOL0     N17302   1.857   8.666  12.152  1.3262  0.4457  0.1336
  126MOL0     C17303   2.520   9.007  11.769 -0.3033 -0.0871  0.1851
  126MOL0     C17304   2.556   8.965  11.633 -0.7687  0.2007 -0.3352
  126MOL0     C17305   2.742   8.716  11.279 -0.2127  0.5959  1.5270
  126MOL0     C17306   2.768   8.832  11.203  0.0098  1.2603  0.2305
  126MOL0     C17307   2.778   8.833  11.059  0.1587  0.4734 -0.0761
  126MOL0     C17308   2.762   8.708  10.988 -0.3062  0.2866  0.1198
  126MOL0     O17309   2.778   8.685  10.853 -0.0543 -0.1184  0.2692
  126MOL0     C17310   2.783   8.785  10.755  0.3473 -0.3979 -1.3735
  126MOL0     C17311   2.805   8.728  10.614  0.0481 -0.2324  0.1329
  126MOL0     C17312   2.671   8.669  10.559  0.5650 -0.2626  0.0765
  126MOL0     C17313   2.667   8.625  10.419 -0.2159  0.2851  0.7186
  126MOL0     C17314   2.594   8.727  10.344  1.0272 -0.5301 -0.6681
  126MOL0     C17315   2.527   8.788  10.262 -0.7723 -0.3882  0.5590
  126MOL0     C17316   2.738   8.594  11.060  0.4590 -0.0332 -0.2253
  126MOL0     C17317   2.729   8.596  11.198 -0.2349  0.7192 -0.0997
  126MOL0     C17318   2.689   8.465  11.270  0.4791 -0.3532 -0.2492
  126MOL0     H17319   2.860   8.854  11.674 -1.0852 -3.3039  0.6426
  126MOL0     H17320   2.813   8.928  11.914  0.4541  0.3990 -1.2718
  126MOL0     H17321   2.397   9.080  11.998 -0.0100  2.8287 -3.0916
  126MOL0     H17322   2.491   9.214  11.967  0.8660 -2.5932 -4.3639
  126MOL0     H17323   2.572   9.226  12.215  1.5545 -0.5779  0.3944
  126MOL0     H17324   2.402   9.230  12.200 -0.1548 -1.8312  0.7060
  126MOL0     H17325   2.521   8.956  12.214  2.5591  3.1704 -1.8359
  126MOL0     H17326   2.521   9.049  12.361  2.6453  0.0789 -0.6259
  126MOL0     H17327   2.265   9.098  12.325  1.0174 -1.0651  1.5590
  126MOL0     H17328   2.272   8.976  12.196 -0.1451 -4.6168  1.6864
  126MOL0     H17329   2.340   8.927  12.485 -2.1608 -0.6356  0.6555
  126MOL0     H17330   2.345   8.812  12.351 -1.5278 -0.3578 -0.2248
  126MOL0     H17331   2.139   8.778  12.486 -0.0807 -1.4113 -2.5359
  126MOL0     H17332   2.118   8.942  12.491 -2.2347 -2.6006  1.6569
  126MOL0     H17333   2.060   8.940  12.244  0.1600  0.5407  0.6758
  126MOL0     H17334   1.960   8.835  12.348  1.2834 -0.4378  1.1409
  126MOL0     H17335   2.108   8.765  12.121 -1.4223  2.7492  0.2018
  126MOL0     H17336   2.175   8.678  12.261  0.6663 -0.3767 -1.7153
  126MOL0     H17337   2.027   8.473  12.355  1.6994 -0.5208 -2.2739
  126MOL0     H17338   1.821   8.291  12.360  0.8833  1.4135 -0.6654
  126MOL0     H17339   1.701   8.310  12.238 -0.1262 -0.8474  0.1899
  126MOL0     H17340   1.573   8.472  12.388  2.6973  1.2573  0.1367
  126MOL0     H17341   1.590   8.315  12.462 -0.3955 -0.0957 -0.2317
  126MOL0     H17342   1.789   8.397  12.588 -0.1542 -0.7088 -2.2027
  126MOL0     H17343   1.757   8.565  12.541 -3.3243  2.6291  3.2021
  126MOL0     H17344   1.606   8.396  12.739 -0.0396  1.7733  2.9244
  126MOL0     H17345   1.648   8.561  12.744 -0.4288 -1.7149  1.2237
  126MOL0     H17346   1.352   8.732  12.662 -2.1139 -1.7305 -1.0488
  126MOL0     H17347   1.054   8.832  12.757 -2.6647  1.3751  3.4465
  126MOL0     H17348   1.213   8.885  12.794  0.0424  0.7545 -1.6696
  126MOL0     H17349   1.107   8.849  12.923  0.6166  0.1221 -0.8032
  126MOL0     H17350   0.944   8.576  13.262  1.3586 -0.9443  1.4951
  126MOL0     H17351   0.731   8.493  13.390 -1.4913 -0.3070 -0.3318
  126MOL0     H17352   0.473   8.289  13.144 -1.2711 -1.9917 -0.5468
  126MOL0     H17353   0.492   8.133  13.233  2.4660 -0.1083 -0.1228
  126MOL0     H17354   0.325   8.389  13.278 -0.8609 -1.6979 -1.5802
  126MOL0     H17355   0.274   8.233  13.244  1.5604 -1.8542 -1.2305
  126MOL0     H17356   0.419   8.303  13.504 -0.0480  1.4256 -0.3134
  126MOL0     H17357   0.339   8.147  13.467 -1.1048  1.0106 -0.1834
  126MOL0     H17358   0.109   8.251  13.483  0.3376 -1.1328  1.1780
  126MOL0     H17359   0.182   8.400  13.510 -1.3114 -0.6685  2.3475
  126MOL0     H17360   0.186   8.153  13.668  0.1013  0.2393 -1.4905
  126MOL0     H17361   0.309   8.275  13.704  0.6995  0.7836 -4.1003
  126MOL0     H17362  -0.000   8.283  13.713  0.8205  2.1552 -2.4136
  126MOL0     H17363   0.091   8.430  13.732  0.1997 -0.6769 -1.1643
  126MOL0     H17364   0.192   8.374  13.929  0.9394 -0.9526 -1.3932
  126MOL0     H17365   0.147   8.196  13.907  0.8791  0.3153  1.7377
  126MOL0     H17366  -0.052   8.410  13.975  2.1317  0.4314 -1.5062
  126MOL0     H17367   0.033   8.318  14.097  1.1660  1.3295 -0.1818
  126MOL0     H17368   0.694   8.171  13.094  1.4800 -0.3479 -0.6331
  126MOL0     H17369   0.912   8.249  12.996 -1.5096  0.4583 -1.2189
  126MOL0     H17370   1.214   8.357  12.931  0.6679  1.5255  1.1231
  126MOL0     H17371   1.387   8.337  12.780 -1.3577 -0.2283 -1.0592
  126MOL0     H17372   2.421   9.053  11.771  0.2898  1.5611 -2.8153
  126MOL0     H17373   2.473   8.966  11.563 -1.0804 -1.9700 -0.0692
  126MOL0     H17374   2.773   8.930  11.250 -1.4016  0.9611  1.0893
  126MOL0     H17375   2.791   8.926  11.004  3.3659 -0.5283 -1.2306
  126MOL0     H17376   2.693   8.847  10.756  0.6070  0.3879  4.0244
  126MOL0     H17377   2.866   8.843  10.795 -3.2644  2.4468  3.0096
  126MOL0     H17378   2.875   8.645  10.618 -1.5387 -1.7579 -1.7365
  126MOL0     H17379   2.847   8.807  10.551  0.7761  0.7842  1.8188
  126MOL0     H17380   2.637   8.582  10.615 -0.7306 -1.1783 -2.0148
  126MOL0     H17381   2.597   8.750  10.566  1.2449  0.3972 -0.3152
  126MOL0     H17382   2.616   8.530  10.404  1.4380 -0.2733 -2.0459
  126MOL0     H17383   2.756   8.624  10.355 -0.4617 -1.2278  0.3783
  126MOL0     H17384   2.449   8.819  10.196  0.0225 -0.7740 -0.5921
  126MOL0     H17385   2.717   8.508  10.997  2.3119 -0.4680 -0.3171
  126MOL0     H17386   2.622   8.494  11.351 -1.4247 -1.9802 -1.1633
  126MOL0     H17387   2.638   8.408  11.191 -1.5519  1.3767 -0.2631
  126MOL0     H17388   2.781   8.409  11.292  0.1165 -1.5226 -1.5727
  127MOL0     O17389   4.117   6.668   4.073  0.4478  0.4081  0.4317
  127MOL0     C17390   4.239   6.673   4.086  0.6527 -0.0365  0.6105
  127MOL0     O17391   4.309   6.789   4.071  0.2086  0.4076  0.0446
  127MOL0     C17392   4.251   6.895   4.007  1.2936  0.6018 -0.0714
  127MOL0     C17393   4.251   7.018   4.074 -1.3278 -0.6806  0.3902
  127MOL0     C17394   4.200   7.136   4.017 -1.0716  1.1809  1.1078
  127MOL0     C17395   4.159   7.131   3.880 -0.6600 -0.0049  0.6464
  127MOL0     O17396   4.123   7.244   3.812  1.4469  0.0356  0.0491
  127MOL0     C17397   4.020   7.240   3.715  0.1207 -0.4315  0.6320
  127MOL0     C17398   3.954   7.381   3.713  0.5130 -0.2085  0.1841
  127MOL0     C17399   3.811   7.383   3.638 -0.3470 -0.3171 -0.9019
  127MOL0     C17400   3.815   7.304   3.509 -0.3558  0.2564  0.0515
  127MOL0     C17401   3.678   7.322   3.439  0.0784 -0.8557 -0.3365
  127MOL0     C17402   3.678   7.276   3.298  0.2243  0.0604 -0.4804
  127MOL0     C17403   3.669   7.120   3.299 -0.5009  0.1442  0.0190
  127MOL0     C17404   3.754   7.052   3.186  0.1317 -0.5618 -1.1376
  127MOL0     N17405   3.691   7.096   3.057  0.1672  0.6652 -0.1975
  127MOL0     C17406   3.742   7.191   2.979  0.2619 -0.0986 -0.0038
  127MOL0     C17407   3.643   7.213   2.889  0.0423  0.0754 -0.3974
  127MOL0     C17408   3.657   7.296   2.773  0.2114  0.2547 -1.0559
  127MOL0     C17409   3.566   7.427   2.786 -0.5014 -0.2765  0.2664
  127MOL0     C17410   3.538   7.486   2.640  0.6355 -0.2172 -0.4887
  127MOL0     C17411   3.451   7.611   2.666 -0.6693  0.3885  0.6938
  127MOL0     O17412   3.524   7.708   2.733 -0.7259  0.0092 -0.2501
  127MOL0     C17413   3.477   7.835   2.725 -0.1268 -0.2972  0.5181
  127MOL0     C17414   3.538   7.923   2.808  0.3223  0.4660  0.1830
  127MOL0     C17415   3.493   8.057   2.823 -0.5443  0.1409 -0.0695
  127MOL0     C17416   3.552   8.141   2.932  0.5570 -0.0321 -0.0108
  127MOL0     C17417   3.395   8.106   2.736 -0.1946  0.0039  0.8523
  127MOL0     C17418   3.356   8.250   2.711  0.0500 -0.1510 -0.0031
  127MOL0     O17419   3.311   8.288   2.594  0.7797 -0.1154  0.0264
  127MOL0     C17420   3.257   8.414   2.571 -0.5724  0.6594  0.6223
  127MOL0     C17421   3.125   8.434   2.543 -0.2840 -0.7150 -0.8667
  127MOL0     C17422   3.071   8.556   2.496 -1.1427 -1.0164  0.1792
  127MOL0     C17423   3.169   8.660   2.478  0.5813 -0.0009  0.3699
  127MOL0     O17424   3.112   8.776   2.439 -0.7751  0.1781  0.6792
  127MOL0     C17425   3.197   8.897   2.433  0.3871  0.9956  0.0777
  127MOL0     C17426   3.112   9.010   2.375 -1.2444 -0.1303 -1.2143
  127MOL0     C17427   3.206   9.138   2.365  0.2136  0.1495  0.4530
  127MOL0     C17428   3.174   9.231   2.480 -0.0609 -0.2705  0.1326
  127MOL0     C17429   3.218   9.194   2.626 -0.5263 -0.5334  0.6072
  127MOL0     C17430   3.371   9.158   2.634  0.1286  0.0864  0.8746
  127MOL0     C17431   3.411   9.126   2.775 -0.7957  0.6140 -0.2939
  127MOL0     C17432   3.559   9.087   2.774  0.3764  0.3727  0.5739
  127MOL0    Cl17433   3.567   8.916   2.718 -0.1579  0.4794  0.1511
  127MOL0     C17434   3.308   8.632   2.491 -1.0097 -0.3937 -0.0217
  127MOL0     C17435   3.347   8.515   2.534  0.2233  0.9240  0.2096
  127MOL0     O17436   3.365   8.325   2.811  0.2565  0.3573  0.4425
  127MOL0     C17437   3.339   8.010   2.651  0.1804 -0.1347  0.3645
  127MOL0     C17438   3.374   7.876   2.651  0.5407 -0.1606  0.6019
  127MOL0     N17439   3.540   7.113   2.911 -1.3559  0.5109 -0.5211
  127MOL0     N17440   3.575   7.049   3.014  0.4167 -0.0416 -0.7160
  127MOL0     C17441   4.146   7.004   3.829  0.6077 -0.4178  0.3819
  127MOL0     C17442   4.193   6.890   3.889 -0.3003  0.3028  0.5344
  127MOL0     C17443   4.306   6.552   4.143  0.9592  0.1181 -0.0918
  127MOL0     C17444   4.415   6.574   4.219  0.7763 -0.4159  0.1449
  127MOL0     C17445   4.464   6.475   4.304 -0.4999 -0.0592  0.7744
  127MOL0     C17446   4.415   6.340   4.294 -0.3153  0.2098  0.1906
  127MOL0     O17447   4.454   6.243   4.384  0.0137  0.3858 -0.5713
  127MOL0     C17448   4.547   6.278   4.481 -0.0375 -0.1702  0.1883
  127MOL0     C17449   4.593   6.168   4.576  0.2403  1.3164  0.0424
  127MOL0     C17450   4.702   6.074   4.513  0.5500  0.5986  0.5931
  127MOL0     C17451   4.733   5.943   4.595 -0.2195 -0.2989  0.2442
  127MOL0     C17452   4.840   5.965   4.688  0.2249  0.0189 -0.8948
  127MOL0     C17453   4.936   5.982   4.765 -0.4991  0.6500 -0.1648
  127MOL0     C17454   4.318   6.313   4.191 -0.4929  0.0763  0.9038
  127MOL0     C17455   4.259   6.416   4.117 -0.2240  0.0834 -0.7327
  127MOL0     C17456   4.151   6.376   4.024  0.1797 -0.6820 -0.2876
  127MOL0     H17457   4.283   7.020   4.178  1.7039  1.2850 -0.4401
  127MOL0     H17458   4.233   7.221   4.076  4.1021  1.5240 -1.6477
  127MOL0     H17459   3.950   7.159   3.736 -0.7766  0.2504  0.3065
  127MOL0     H17460   4.066   7.223   3.617 -1.3143 -0.6855 -0.0214
  127MOL0     H17461   3.955   7.420   3.815 -0.3997 -2.2072  1.0027
  127MOL0     H17462   4.009   7.448   3.646 -2.9657 -0.1356 -2.9092
  127MOL0     H17463   3.735   7.345   3.707 -1.0632  2.0758 -0.2806
  127MOL0     H17464   3.790   7.489   3.619  1.3675  0.2322  0.0674
  127MOL0     H17465   3.889   7.350   3.442 -0.6689  2.1022  0.9107
  127MOL0     H17466   3.846   7.201   3.527 -0.8123  0.0026 -0.5696
  127MOL0     H17467   3.654   7.428   3.427 -0.2943 -1.1203 -2.1654
  127MOL0     H17468   3.598   7.272   3.496  0.2069 -1.1818 -0.4388
  127MOL0     H17469   3.603   7.322   3.233  1.2938  1.3869 -0.8503
  127MOL0     H17470   3.778   7.308   3.266  0.9724  1.6501  3.0130
  127MOL0     H17471   3.566   7.085   3.292  0.1677 -1.6517 -1.4695
  127MOL0     H17472   3.705   7.083   3.395 -1.5482  0.4003  0.5258
  127MOL0     H17473   3.863   7.061   3.194  0.2699 -2.3539 -0.4624
  127MOL0     H17474   3.756   6.942   3.189 -0.4480 -0.5630  0.8290
  127MOL0     H17475   3.841   7.236   2.972 -0.4576  1.4145 -1.0471
  127MOL0     H17476   3.627   7.227   2.693 -1.5025 -2.2804  1.5892
  127MOL0     H17477   3.761   7.327   2.762  0.6426 -0.9469 -0.5110
  127MOL0     H17478   3.473   7.401   2.837 -1.3336 -1.0836 -1.5988
  127MOL0     H17479   3.627   7.500   2.840 -1.0487  0.5018 -0.1550
  127MOL0     H17480   3.628   7.515   2.585  0.0686  2.4575 -0.1400
  127MOL0     H17481   3.485   7.411   2.580  2.0388  0.2804 -2.4676
  127MOL0     H17482   3.433   7.653   2.567 -3.4470  1.1712  1.4372
  127MOL0     H17483   3.355   7.586   2.712 -0.8724 -0.9730 -0.4098
  127MOL0     H17484   3.614   7.887   2.877  1.5917  1.5474 -0.6221
  127MOL0     H17485   3.610   8.081   3.003 -1.1551 -3.5739 -1.3547
  127MOL0     H17486   3.474   8.186   2.993  0.8501 -1.9900  1.9160
  127MOL0     H17487   3.611   8.227   2.900 -0.6854  0.7247 -0.3342
  127MOL0     H17488   3.055   8.352   2.549 -1.4715  0.3013 -0.3171
  127MOL0     H17489   2.966   8.581   2.487 -0.2138  4.6650  1.2048
  127MOL0     H17490   3.224   8.912   2.539 -1.3480  2.6703  0.3318
  127MOL0     H17491   3.286   8.876   2.374 -1.5978 -0.1488 -2.6990
  127MOL0     H17492   3.066   8.982   2.279  2.1797  0.9250 -3.3682
  127MOL0     H17493   3.026   9.030   2.439  1.4516  2.6087  1.9493
  127MOL0     H17494   3.180   9.194   2.274 -0.6937 -1.7774 -0.5374
  127MOL0     H17495   3.310   9.112   2.343  0.1160  0.1450 -0.0236
  127MOL0     H17496   3.068   9.253   2.471 -0.4811 -0.6561  3.0289
  127MOL0     H17497   3.219   9.331   2.473 -2.0728  0.8267  1.9044
  127MOL0     H17498   3.205   9.282   2.691  2.9668 -0.5549  1.5868
  127MOL0     H17499   3.156   9.116   2.670 -0.8372 -0.1457  0.8634
  127MOL0     H17500   3.435   9.232   2.585  1.5015 -1.3802  0.3551
  127MOL0     H17501   3.389   9.071   2.570 -2.2554  0.3660 -0.2599
  127MOL0     H17502   3.353   9.040   2.809  0.4014  0.0884  0.4857
  127MOL0     H17503   3.398   9.210   2.844  1.4115 -0.1576  1.1443
  127MOL0     H17504   3.591   9.091   2.879 -0.5115 -4.1838  1.2390
  127MOL0     H17505   3.628   9.148   2.715  2.2712 -4.2654 -2.6352
  127MOL0     H17506   3.383   8.711   2.484  0.6239 -1.6449  1.9319
  127MOL0     H17507   3.452   8.489   2.546  0.4754 -0.7510 -3.9271
  127MOL0     H17508   3.262   8.047   2.584  0.4335  6.1589  2.8927
  127MOL0     H17509   3.319   7.807   2.587 -2.4172 -0.2832  3.0154
  127MOL0     H17510   4.099   6.980   3.734  0.3148 -2.2736  0.9421
  127MOL0     H17511   4.192   6.794   3.838  0.9125 -0.8254  2.5246
  127MOL0     H17512   4.452   6.674   4.240  0.4135  0.3128 -2.2986
  127MOL0     H17513   4.552   6.489   4.365 -0.6329  1.6314  0.6218
  127MOL0     H17514   4.640   6.301   4.429  0.5086 -0.5281  0.9878
  127MOL0     H17515   4.512   6.353   4.552  0.4522 -0.5288  0.8203
  127MOL0     H17516   4.503   6.118   4.616  0.4624 -1.6960 -2.8076
  127MOL0     H17517   4.638   6.213   4.665 -1.5690  0.7921  1.2799
  127MOL0     H17518   4.665   6.047   4.414  0.8428 -2.1265  1.1304
  127MOL0     H17519   4.794   6.132   4.503  0.2862  0.9177 -0.0474
  127MOL0     H17520   4.766   5.861   4.530 -0.6672 -1.5001  1.4939
  127MOL0     H17521   4.636   5.913   4.634 -1.5233 -0.7717 -3.0282
  127MOL0     H17522   5.026   5.973   4.821  1.0823 -1.8321 -2.7890
  127MOL0     H17523   4.278   6.212   4.188 -1.5536  0.2264 -5.5069
  127MOL0     H17524   4.060   6.376   4.085  0.0124  1.0195 -0.5047
  127MOL0     H17525   4.129   6.457   3.954 -5.3483  0.9655  2.7321
  127MOL0     H17526   4.158   6.282   3.968 -1.9157 -0.2303 -1.4298
  128MOL0     O17527   6.722   5.782   9.010 -0.7510  0.2757 -0.0615
  128MOL0     C17528   6.610   5.734   8.986  0.1838  0.0191 -0.3985
  128MOL0     O17529   6.515   5.693   9.075  0.8549  0.4065 -0.4271
  128MOL0     C17530   6.543   5.710   9.209  0.2291 -0.0688 -0.1093
  128MOL0     C17531   6.508   5.835   9.279  0.4604 -0.6519  0.4473
  128MOL0     C17532   6.543   5.850   9.418 -0.9660  0.0811  0.9192
  128MOL0     C17533   6.607   5.748   9.482 -1.0243  0.9880  0.4188
  128MOL0     O17534   6.636   5.767   9.616  0.0095  0.8299 -0.4153
  128MOL0     C17535   6.521   5.739   9.704 -0.5704 -0.2801 -0.2564
  128MOL0     C17536   6.528   5.771   9.855  0.8417  0.3433 -0.7003
  128MOL0     C17537   6.405   5.730   9.937 -0.7609  0.3443  1.2632
  128MOL0     C17538   6.265   5.775   9.913  0.0375  0.1181  0.3280
  128MOL0     C17539   6.154   5.702  10.000  1.0156  0.8597  1.1726
  128MOL0     C17540   6.140   5.554   9.966  0.4883  0.8253 -0.0597
  128MOL0     C17541   5.996   5.505   9.994 -0.6489 -0.8904  0.2830
  128MOL0     C17542   5.984   5.445  10.138  0.3571 -0.4224  0.1817
  128MOL0     N17543   5.882   5.340  10.143 -0.6229  0.5557 -0.3535
  128MOL0     C17544   5.753   5.329  10.090  0.0731 -0.8385  0.3745
  128MOL0     C17545   5.691   5.230  10.151 -0.5113  0.1858  0.2484
  128MOL0     C17546   5.563   5.172  10.115  0.1501 -0.1502 -0.3529
  128MOL0     C17547   5.466   5.159  10.227 -0.0743  0.4367 -0.5848
  128MOL0     C17548   5.365   5.044  10.202  0.8907 -0.7236 -0.3224
  128MOL0     C17549   5.279   5.081  10.077 -0.6483 -0.9157 -0.0432
  128MOL0     O17550   5.197   4.973  10.039  0.8532 -0.1129 -0.3437
  128MOL0     C17551   5.076   4.985  10.102  0.1743 -0.8509 -0.5671
  128MOL0     C17552   5.042   4.930  10.231 -1.0231 -0.6234  0.0283
  128MOL0     C17553   4.918   4.930  10.280  0.5365  0.1110 -1.1430
  128MOL0     C17554   4.894   4.880  10.420 -1.2840 -0.3732 -0.7242
  128MOL0     C17555   4.807   4.979  10.205  0.6483 -0.0449 -0.0190
  128MOL0     C17556   4.664   4.961  10.257  0.6271  0.5418 -0.2966
  128MOL0     O17557   4.571   4.953  10.158  0.3935  0.0001  0.3437
  128MOL0     C17558   4.438   4.925  10.179 -0.7521 -0.0541  0.9697
  128MOL0     C17559   4.369   4.901  10.304 -0.3026 -0.1157  0.4887
  128MOL0     C17560   4.229   4.888  10.313 -0.5559 -0.6325 -0.4925
  128MOL0     C17561   4.151   4.884  10.208  0.2075  0.2116  0.1844
  128MOL0     O17562   4.028   4.848  10.199 -0.5503 -0.1877 -0.7692
  128MOL0     C17563   3.982   4.741  10.282  0.3850 -0.4152 -0.2041
  128MOL0     C17564   4.045   4.599  10.252  0.3452  0.3328 -0.3890
  128MOL0     C17565   4.014   4.549  10.117 -0.1327  0.0865 -0.0927
  128MOL0     C17566   4.030   4.390  10.092 -0.2133 -0.7594 -0.2760
  128MOL0     C17567   3.987   4.357   9.950 -0.6380  0.9317  0.0861
  128MOL0     C17568   3.996   4.205   9.939 -0.2005 -0.5125 -0.9004
  128MOL0     C17569   3.898   4.134   9.846 -0.1665 -0.8519  0.2892
  128MOL0     C17570   3.873   4.207   9.715 -0.5000 -0.8266  0.0610
  128MOL0    Cl17571   4.026   4.228   9.618 -0.0438  0.2245 -0.3217
  128MOL0     C17572   4.216   4.904  10.088 -0.1425 -0.6085  0.4461
  128MOL0     C17573   4.354   4.917  10.070  0.0283  0.1693  0.4898
  128MOL0     O17574   4.638   4.958  10.376  0.0380 -0.0242 -0.2842
  128MOL0     C17575   4.836   5.033  10.068  0.3495 -0.1495 -0.8902
  128MOL0     C17576   4.971   5.041  10.021  0.2215  0.1428 -0.4489
  128MOL0     N17577   5.790   5.172  10.238  0.2896 -0.0012  0.0028
  128MOL0     N17578   5.901   5.236  10.230  0.3699  0.3632  0.7969
  128MOL0     C17579   6.644   5.629   9.414  0.1381 -0.0066 -0.0554
  128MOL0     C17580   6.613   5.617   9.274  0.6219  0.4624 -0.4469
  128MOL0     C17581   6.574   5.694   8.848 -0.6452 -0.4452 -0.0045
  128MOL0     C17582   6.507   5.569   8.824  0.3029 -0.2470 -1.2168
  128MOL0     C17583   6.476   5.538   8.698  0.2244 -0.2868  0.2690
  128MOL0     C17584   6.502   5.613   8.586  0.8095  0.3591 -0.3121
  128MOL0     O17585   6.469   5.578   8.461  0.3600 -0.2593 -1.5409
  128MOL0     C17586   6.486   5.441   8.436 -0.4062 -0.2211 -0.0270
  128MOL0     C17587   6.517   5.438   8.287  0.0758 -0.5552 -0.2820
  128MOL0     C17588   6.542   5.294   8.233  0.5196 -0.3113 -0.7616
  128MOL0     C17589   6.602   5.319   8.091  0.3423  0.1219  0.5073
  128MOL0     C17590   6.745   5.339   8.075 -0.3731 -0.1908 -0.9817
  128MOL0     C17591   6.860   5.354   8.055  0.1976 -0.3128  0.9276
  128MOL0     C17592   6.558   5.737   8.611 -0.9720 -0.2850  0.6008
  128MOL0     C17593   6.599   5.783   8.740  1.0506 -1.2890  0.3293
  128MOL0     C17594   6.621   5.930   8.754 -0.6924  1.1410  0.0019
  128MOL0     H17595   6.442   5.910   9.237  0.4385  0.3464  2.1511
  128MOL0     H17596   6.508   5.943   9.463  0.3916 -0.2790  2.8562
  128MOL0     H17597   6.494   5.634   9.694 -1.8570 -0.4360  3.3350
  128MOL0     H17598   6.430   5.789   9.670  0.1506  2.0312  0.9728
  128MOL0     H17599   6.616   5.735   9.909  0.7008  0.5655 -0.3132
  128MOL0     H17600   6.526   5.881   9.858  0.0619  0.3716  2.6990
  128MOL0     H17601   6.406   5.621   9.922  0.6187  0.3785  0.9895
  128MOL0     H17602   6.435   5.749  10.040 -3.2571  0.3772  2.0720
  128MOL0     H17603   6.267   5.883   9.933 -0.8974 -0.2267  2.7276
  128MOL0     H17604   6.245   5.750   9.809  0.4291 -0.6212  0.4241
  128MOL0     H17605   6.064   5.761   9.979  1.1137  1.2236  1.7580
  128MOL0     H17606   6.163   5.723  10.107 -2.5725 -1.0186  1.9982
  128MOL0     H17607   6.159   5.548   9.858 -0.3592  1.4630 -0.2547
  128MOL0     H17608   6.210   5.488  10.018  0.6785  0.0219 -1.2982
  128MOL0     H17609   5.975   5.425   9.922  0.7530 -1.1695  0.1515
  128MOL0     H17610   5.919   5.582   9.988  0.5572  0.2897 -1.0316
  128MOL0     H17611   6.079   5.399  10.167  0.0580 -2.0761 -1.3027
  128MOL0     H17612   5.959   5.535  10.195  3.6835 -0.9305  2.7471
  128MOL0     H17613   5.713   5.386  10.007  0.0863 -0.3304  0.7097
  128MOL0     H17614   5.579   5.070  10.078 -0.7137  0.2552 -1.9276
  128MOL0     H17615   5.521   5.228  10.031  0.8318 -0.8174 -1.1625
  128MOL0     H17616   5.525   5.146  10.318 -1.7882  1.9930  0.8196
  128MOL0     H17617   5.408   5.250  10.241  3.3888  2.4035  2.5842
  128MOL0     H17618   5.421   4.951  10.185  3.5245  1.0316 -1.9179
  128MOL0     H17619   5.302   5.029  10.290  0.8154  1.3495  0.0357
  128MOL0     H17620   5.226   5.176  10.091 -0.1061 -0.2852 -2.0868
  128MOL0     H17621   5.349   5.102   9.997 -1.6519 -0.8248 -0.9158
  128MOL0     H17622   5.129   4.895  10.285  0.8731 -0.4416 -2.6883
  128MOL0     H17623   4.990   4.880  10.473 -1.7175  2.8811  0.2860
  128MOL0     H17624   4.860   4.778  10.433  1.1195 -0.8648  4.0570
  128MOL0     H17625   4.844   4.944  10.494  1.0427 -0.4869  1.0739
  128MOL0     H17626   4.414   4.884  10.401  1.5020 -1.1631 -0.4782
  128MOL0     H17627   4.201   4.862  10.415  1.4599  0.6198  0.4447
  128MOL0     H17628   3.994   4.771  10.387  0.4735  2.0101 -0.8301
  128MOL0     H17629   3.873   4.741  10.286  0.3592  1.8625  0.6903
  128MOL0     H17630   4.153   4.601  10.269  0.5736  1.5108 -1.7369
  128MOL0     H17631   4.002   4.527  10.322  0.0628  1.5309  0.7113
  128MOL0     H17632   4.087   4.594  10.049 -1.6999 -0.8507 -2.5281
  128MOL0     H17633   3.914   4.578  10.084  1.4168  3.3424 -2.5349
  128MOL0     H17634   3.955   4.342  10.157 -1.9357  0.5146 -1.2187
  128MOL0     H17635   4.132   4.354  10.107  0.8748  2.5896  1.4516
  128MOL0     H17636   3.885   4.396   9.938  0.0851  2.6481 -0.6843
  128MOL0     H17637   4.053   4.408   9.881  0.8675 -0.0011  0.7867
  128MOL0     H17638   3.981   4.153  10.035 -1.9556 -0.1885 -0.9602
  128MOL0     H17639   4.101   4.185   9.916  1.0695  3.5124  0.5226
  128MOL0     H17640   3.801   4.129   9.898  1.0077  1.6544  3.0365
  128MOL0     H17641   3.942   4.039   9.814 -0.2333  0.0998 -2.9353
  128MOL0     H17642   3.816   4.300   9.723 -0.5306 -0.7426 -0.9874
  128MOL0     H17643   3.805   4.143   9.658 -1.2099 -0.2726  0.2633
  128MOL0     H17644   4.152   4.909  10.000 -0.4480  1.2196  0.7275
  128MOL0     H17645   4.398   4.936   9.972  0.5586 -0.3011  0.6300
  128MOL0     H17646   4.749   5.070  10.014  0.3568 -1.2856 -1.7143
  128MOL0     H17647   5.007   5.082   9.928  0.9540 -1.4185 -0.8771
  128MOL0     H17648   6.686   5.547   9.471 -0.7258  0.1358  0.8185
  128MOL0     H17649   6.635   5.525   9.221  0.1515 -0.9897  1.7594
  128MOL0     H17650   6.478   5.506   8.908 -0.3484  2.5014  0.7652
  128MOL0     H17651   6.419   5.448   8.674  2.6446 -1.9846  0.5736
  128MOL0     H17652   6.560   5.379   8.488  0.9342  0.7101 -0.7812
  128MOL0     H17653   6.389   5.394   8.456 -1.7740  3.5584  3.9100
  128MOL0     H17654   6.607   5.497   8.266 -1.6665  2.1150 -0.6994
  128MOL0     H17655   6.444   5.496   8.230  1.3066 -0.2324 -1.6145
  128MOL0     H17656   6.610   5.242   8.301 -2.0226 -1.3199  1.1720
  128MOL0     H17657   6.447   5.240   8.242 -1.1739  2.7374  1.6358
  128MOL0     H17658   6.551   5.402   8.042 -1.0480 -0.0774  1.5582
  128MOL0     H17659   6.573   5.235   8.028 -1.4749 -0.1721  1.6820
  128MOL0     H17660   6.962   5.379   8.034  0.2785  0.9659  2.6617
  128MOL0     H17661   6.579   5.802   8.528  1.7555  0.2562  1.6124
  128MOL0     H17662   6.633   5.960   8.859 -3.0351 -0.3790  0.7608
  128MOL0     H17663   6.704   5.965   8.691 -1.0502  1.3637 -0.3509
  128MOL0     H17664   6.532   5.983   8.718  0.6897  1.6903 -2.9480
  129MOL0     O17665   9.207   6.703   1.884  0.2173 -1.0258  0.4231
  129MOL0     C17666   9.262   6.802   1.828  0.8917 -0.2998  0.3416
  129MOL0     O17667   9.360   6.793   1.729  0.0088 -0.6499 -0.1166
  129MOL0     C17668   9.344   6.691   1.646  0.6014 -0.4872 -0.1193
  129MOL0     C17669   9.330   6.554   1.673 -0.1536 -0.3351  0.3420
  129MOL0     C17670   9.326   6.457   1.568 -0.8136  0.5838  0.9729
  129MOL0     C17671   9.321   6.491   1.435 -0.7479  0.3331  0.2287
  129MOL0     O17672   9.290   6.388   1.337 -0.0185  0.0083 -0.1160
  129MOL0     C17673   9.226   6.429   1.217  0.2306  0.1008  0.9461
  129MOL0     C17674   9.198   6.306   1.128 -0.3926  0.6106  0.0024
  129MOL0     C17675   9.330   6.225   1.108 -0.4386  0.6494  0.1016
  129MOL0     C17676   9.331   6.103   1.208  0.0682 -1.2810  0.3395
  129MOL0     C17677   9.465   6.050   1.235  0.1395  0.4035 -0.1056
  129MOL0     C17678   9.564   6.045   1.109 -0.7953 -0.0177 -0.4861
  129MOL0     C17679   9.707   6.014   1.147 -0.6017  0.5410  0.1301
  129MOL0     C17680   9.798   6.137   1.171  0.0859 -0.8974 -0.2693
  129MOL0     N17681   9.927   6.091   1.221 -0.9552 -1.0829 -0.6061
  129MOL0     C17682   9.952   6.046   1.354 -0.2041 -0.1738  0.1196
  129MOL0     C17683  10.086   6.008   1.351  0.6811  0.6922  0.9420
  129MOL0     C17684  10.165   5.958   1.475 -0.0588 -0.4523 -0.6287
  129MOL0     C17685  10.103   5.831   1.542  0.4279 -0.8031 -0.0026
  129MOL0     C17686  10.187   5.757   1.629  0.3334 -0.1167  0.1242
  129MOL0     C17687  10.126   5.641   1.691 -0.3739 -0.3358  0.6458
  129MOL0     O17688  10.142   5.520   1.609  0.4923 -0.1878 -0.2738
  129MOL0     C17689  10.059   5.414   1.640 -0.3532  0.0978 -1.0262
  129MOL0     C17690   9.958   5.416   1.736  1.2121  0.1132  0.3274
  129MOL0     C17691   9.882   5.298   1.769  0.0866 -0.2035  0.3347
  129MOL0     C17692   9.766   5.325   1.864  0.3854  0.1357  0.3613
  129MOL0     C17693   9.926   5.176   1.713  0.0038 -0.1150  1.5006
  129MOL0     C17694   9.851   5.049   1.727  0.5036  0.0261  0.1778
  129MOL0     O17695   9.875   4.961   1.626 -0.0670 -0.6188  0.2730
  129MOL0     C17696   9.819   4.841   1.634 -0.7860  0.3454 -0.0889
  129MOL0     C17697   9.700   4.810   1.555 -0.3758 -0.1618  0.0153
  129MOL0     C17698   9.643   4.687   1.545  0.0239 -0.6827  0.2096
  129MOL0     C17699   9.713   4.578   1.601  0.4664 -0.6359  0.3357
  129MOL0     O17700   9.658   4.452   1.583 -0.2338 -0.0073 -0.3950
  129MOL0     C17701   9.681   4.350   1.685  0.8093  0.1711 -0.0801
  129MOL0     C17702   9.586   4.240   1.649 -1.2599  0.7978 -0.7927
  129MOL0     C17703   9.654   4.158   1.543  0.1882 -0.0138  0.8276
  129MOL0     C17704   9.562   4.069   1.458 -0.6541 -0.3475  0.0290
  129MOL0     C17705   9.640   3.984   1.356  0.0213 -0.1874 -0.8432
  129MOL0     C17706   9.545   3.913   1.261  0.4396 -0.1055  0.6294
  129MOL0     C17707   9.621   3.816   1.167 -0.0222 -0.4288  0.2732
  129MOL0     C17708   9.514   3.761   1.075  0.5236 -0.0116 -0.4833
  129MOL0    Cl17709   9.540   3.831   0.911 -0.0225  0.6676  0.1913
  129MOL0     C17710   9.834   4.598   1.677  0.2910 -0.0455  0.2048
  129MOL0     C17711   9.873   4.733   1.696  0.3325 -0.7998 -0.4110
  129MOL0     O17712   9.769   5.025   1.821  0.5083  0.6972 -0.4455
  129MOL0     C17713  10.022   5.184   1.607 -0.4420 -0.0813 -0.6019
  129MOL0     C17714  10.082   5.305   1.574 -0.1826 -0.5244 -0.3696
  129MOL0     N17715  10.139   6.027   1.221  0.5265 -0.3754 -0.1276
  129MOL0     N17716  10.047   6.079   1.152 -0.2270 -0.2178 -0.0913
  129MOL0     C17717   9.335   6.627   1.405 -0.6981 -0.2627  0.6949
  129MOL0     C17718   9.344   6.720   1.510 -0.3363  0.1799 -0.1999
  129MOL0     C17719   9.252   6.941   1.887  0.5513  0.3137 -0.0431
  129MOL0     C17720   9.337   7.039   1.849 -0.9438 -0.3892 -0.2174
  129MOL0     C17721   9.335   7.167   1.895 -0.9104  0.2011  0.1555
  129MOL0     C17722   9.243   7.218   1.991  0.3273  1.4070 -0.5555
  129MOL0     O17723   9.231   7.347   2.036  0.7983 -0.4450 -0.3303
  129MOL0     C17724   9.345   7.435   2.012 -0.3885 -0.5208 -0.5297
  129MOL0     C17725   9.313   7.571   2.082 -0.3569 -0.3278 -0.4709
  129MOL0     C17726   9.426   7.668   2.098 -1.7225  0.3368 -0.0425
  129MOL0     C17727   9.374   7.811   2.103  0.7603 -0.6714 -0.2490
  129MOL0     C17728   9.467   7.917   2.154 -0.5032  1.0874  0.0917
  129MOL0     C17729   9.546   7.994   2.206  0.6203 -0.3825  1.0176
  129MOL0     C17730   9.149   7.115   2.035 -0.4938 -0.5463  0.4744
  129MOL0     C17731   9.152   6.983   1.979 -0.5658  0.7098 -0.5836
  129MOL0     C17732   9.034   6.898   2.024  0.7960 -0.7643 -0.5532
  129MOL0     H17733   9.331   6.518   1.775 -2.6284 -3.2534 -0.5124
  129MOL0     H17734   9.294   6.359   1.602 -1.1027  0.1854 -0.3622
  129MOL0     H17735   9.294   6.496   1.164 -0.7695  1.4255  1.2917
  129MOL0     H17736   9.134   6.483   1.243  0.2058  0.7984 -0.4684
  129MOL0     H17737   9.126   6.237   1.173 -0.1938 -3.2431 -4.7107
  129MOL0     H17738   9.158   6.332   1.030 -0.1212  0.1432 -0.2380
  129MOL0     H17739   9.319   6.195   1.003 -0.0892  0.3883  0.1388
  129MOL0     H17740   9.422   6.284   1.114  0.3691 -0.5365 -0.2567
  129MOL0     H17741   9.285   6.133   1.303 -0.0275 -0.2833 -0.0139
  129MOL0     H17742   9.263   6.022   1.181 -0.5791  0.2359 -3.0757
  129MOL0     H17743   9.459   5.947   1.270 -0.9839  0.8114  0.9610
  129MOL0     H17744   9.512   6.107   1.316  0.2716  1.4926 -0.9164
  129MOL0     H17745   9.532   5.959   1.049 -0.6011  0.4211 -1.2307
  129MOL0     H17746   9.555   6.135   1.048 -1.2268 -0.5173 -1.1729
  129MOL0     H17747   9.756   5.954   1.070 -0.7529  0.5254  0.0458
  129MOL0     H17748   9.713   5.933   1.221  0.7405 -0.4409 -0.9970
  129MOL0     H17749   9.796   6.192   1.076 -0.2341  0.0483  0.2720
  129MOL0     H17750   9.760   6.206   1.247  1.0829  0.1356 -0.6759
  129MOL0     H17751   9.889   6.048   1.442 -0.2841  1.2051  0.0649
  129MOL0     H17752  10.167   6.040   1.548 -0.2114 -2.3345  1.5919
  129MOL0     H17753  10.270   5.939   1.455  0.3132 -1.0607  1.6180
  129MOL0     H17754  10.011   5.855   1.597 -1.5756 -0.2504 -3.2835
  129MOL0     H17755  10.064   5.763   1.466 -3.0456  0.7674  0.1877
  129MOL0     H17756  10.279   5.728   1.577 -0.1901 -1.0733 -0.2990
  129MOL0     H17757  10.221   5.826   1.707 -0.2359 -1.4447  1.5936
  129MOL0     H17758  10.189   5.614   1.777  1.1088  3.3569  0.8758
  129MOL0     H17759  10.029   5.667   1.734 -0.1795 -1.6244  1.9487
  129MOL0     H17760   9.929   5.505   1.791  0.3746 -0.8337  1.4662
  129MOL0     H17761   9.794   5.411   1.925  1.7528  1.3378 -1.8501
  129MOL0     H17762   9.726   5.237   1.915  2.6902 -1.5785 -0.6090
  129MOL0     H17763   9.692   5.360   1.791 -0.6968 -0.9815  0.8764
  129MOL0     H17764   9.652   4.895   1.507 -2.2780  0.7113  3.2031
  129MOL0     H17765   9.546   4.671   1.499  0.6343 -1.0620 -0.9922
  129MOL0     H17766   9.780   4.304   1.694 -0.3840 -2.1443  4.0673
  129MOL0     H17767   9.651   4.385   1.784 -3.4192  1.3085 -1.5363
  129MOL0     H17768   9.582   4.184   1.742  0.9038  2.0447  0.1399
  129MOL0     H17769   9.483   4.270   1.625 -2.6768 -0.1918  3.3109
  129MOL0     H17770   9.734   4.096   1.584 -0.0952 -0.0688  1.3116
  129MOL0     H17771   9.702   4.222   1.469  1.8990 -1.9720  0.1499
  129MOL0     H17772   9.486   4.126   1.405 -0.6529  1.6068  1.9713
  129MOL0     H17773   9.504   4.007   1.527 -1.9971 -0.1497 -0.8955
  129MOL0     H17774   9.703   4.054   1.299  0.9375  1.3073  1.8370
  129MOL0     H17775   9.705   3.914   1.409 -3.1392 -1.0666  2.1708
  129MOL0     H17776   9.501   3.985   1.191  4.2460  1.1469 -0.6986
  129MOL0     H17777   9.478   3.853   1.324  0.5391 -0.8267  0.0687
  129MOL0     H17778   9.667   3.737   1.227 -0.8113  0.6082  2.3787
  129MOL0     H17779   9.702   3.860   1.109 -1.0969  0.9731 -0.2270
  129MOL0     H17780   9.413   3.773   1.116  1.6743  1.0215  2.2976
  129MOL0     H17781   9.535   3.655   1.065  1.6111  0.2066 -0.5945
  129MOL0     H17782   9.889   4.517   1.724 -1.3554 -1.3389  0.0200
  129MOL0     H17783   9.950   4.757   1.768 -1.1554  0.3230  0.8763
  129MOL0     H17784  10.061   5.099   1.552  1.6354 -0.6363  1.5641
  129MOL0     H17785  10.159   5.317   1.499  3.8507 -1.0043  3.3101
  129MOL0     H17786   9.306   6.661   1.306  2.4748 -1.1868 -0.7019
  129MOL0     H17787   9.359   6.824   1.482 -0.2957 -0.2852 -2.0710
  129MOL0     H17788   9.427   7.017   1.792 -0.7546 -0.3288  0.0594
  129MOL0     H17789   9.430   7.216   1.874  0.5337 -2.6528 -0.5756
  129MOL0     H17790   9.437   7.395   2.057 -1.2071 -0.4351  1.3056
  129MOL0     H17791   9.348   7.451   1.904 -2.1641  1.4725 -0.3489
  129MOL0     H17792   9.286   7.556   2.187  3.3920 -0.0623  0.6705
  129MOL0     H17793   9.224   7.615   2.037 -1.0082  1.0613  1.9433
  129MOL0     H17794   9.480   7.649   2.191  1.9795  2.5022 -1.5501
  129MOL0     H17795   9.504   7.668   2.022 -2.0127  0.5805 -0.3479
  129MOL0     H17796   9.290   7.814   2.173 -0.2552 -3.4077 -1.2130
  129MOL0     H17797   9.352   7.829   1.997 -1.7901 -4.8449 -0.6748
  129MOL0     H17798   9.604   8.059   2.269 -0.3852  0.3206  1.2394
  129MOL0     H17799   9.073   7.149   2.105  0.2330 -0.8034  1.4060
  129MOL0     H17800   8.974   6.872   1.936 -1.6931  0.5921  0.6375
  129MOL0     H17801   9.076   6.807   2.068  1.1950 -1.2905 -1.9712
  129MOL0     H17802   8.967   6.958   2.087  0.8899  0.9503 -2.0215
  130MOL0     O17803   9.769   7.721   8.193 -0.4061 -0.0748  0.3716
  130MOL0     C17804   9.697   7.819   8.195  0.5631 -0.1816  0.7446
  130MOL0     O17805   9.609   7.863   8.292  0.9598  0.0401  0.3917
  130MOL0     C17806   9.616   7.821   8.424  0.6788  0.5419 -0.5533
  130MOL0     C17807   9.498   7.835   8.496 -0.0905 -1.2745 -0.9375
  130MOL0     C17808   9.509   7.818   8.637 -0.2687  0.2696  0.0536
  130MOL0     C17809   9.628   7.783   8.699 -0.3646  0.0728  0.4162
  130MOL0     O17810   9.620   7.743   8.831 -0.2487 -0.1040 -0.9817
  130MOL0     C17811   9.725   7.661   8.886 -0.1105  0.6745 -0.5325
  130MOL0     C17812   9.675   7.636   9.022  0.1768  0.0075 -0.7105
  130MOL0     C17813   9.771   7.559   9.117 -0.2957  1.3178  0.6012
  130MOL0     C17814   9.805   7.416   9.067 -0.4375 -0.7671  0.3227
  130MOL0     C17815   9.868   7.322   9.170 -0.7598  0.2899  0.0457
  130MOL0     C17816   9.860   7.165   9.133  0.5923 -0.4590 -0.3456
  130MOL0     C17817   9.988   7.128   9.058  0.3357 -0.6552 -0.2818
  130MOL0     C17818  10.021   6.983   9.047  0.3906  0.7740  0.1355
  130MOL0     N17819  10.029   6.902   9.176 -0.2851 -0.2743  0.8654
  130MOL0     C17820  10.048   6.934   9.308  0.6440 -0.2217 -0.7245
  130MOL0     C17821  10.092   6.819   9.372  0.9725  1.0296  0.6059
  130MOL0     C17822  10.131   6.820   9.517 -0.0798  0.6188 -0.2142
  130MOL0     C17823  10.079   6.703   9.587  0.7898 -0.4947 -1.2940
  130MOL0     C17824  10.132   6.701   9.731 -0.7124 -0.3924 -0.8836
  130MOL0     C17825  10.279   6.655   9.756 -0.0299 -0.2286  0.1355
  130MOL0     O17826  10.312   6.521   9.712 -0.2646 -0.1553 -0.3894
  130MOL0     C17827  10.442   6.484   9.723  0.0019  0.1373  0.5253
  130MOL0     C17828  10.526   6.505   9.832 -0.2503  0.6055 -0.3619
  130MOL0     C17829  10.665   6.484   9.834 -0.6478 -0.1951 -0.1444
  130MOL0     C17830  10.733   6.512   9.968 -0.1437 -0.0881 -1.0481
  130MOL0     C17831  10.728   6.426   9.714  0.3840  0.3852  0.1430
  130MOL0     C17832  10.872   6.388   9.697 -0.3759  0.6669 -0.2623
  130MOL0     O17833  10.926   6.430   9.581 -0.3991  0.0107 -0.3716
  130MOL0     C17834  11.061   6.414   9.563 -0.0805  0.1654  0.4608
  130MOL0     C17835  11.137   6.537   9.567  0.8799 -0.1261 -0.3940
  130MOL0     C17836  11.275   6.534   9.536 -0.1948  0.2811 -0.1049
  130MOL0     C17837  11.339   6.416   9.487 -0.2018 -0.6869  0.2895
  130MOL0     O17838  11.466   6.433   9.435  0.2683 -0.5422  0.2217
  130MOL0     C17839  11.501   6.371   9.305 -0.3716 -0.0297 -1.0389
  130MOL0     C17840  11.561   6.238   9.334 -0.6978  0.8454 -0.3583
  130MOL0     C17841  11.709   6.237   9.386  0.2874  0.5570  0.1709
  130MOL0     C17842  11.821   6.241   9.277 -0.1245  0.2382 -0.8248
  130MOL0     C17843  11.861   6.100   9.239  0.4397  0.9036 -0.3735
  130MOL0     C17844  12.007   6.096   9.185 -0.1035  0.6515  0.1016
  130MOL0     C17845  12.043   5.945   9.166 -0.1923 -0.4574  1.1957
  130MOL0     C17846  12.195   5.932   9.182 -0.7768  0.0048 -0.3529
  130MOL0    Cl17847  12.284   6.014   9.044 -0.2319 -0.1173 -0.2056
  130MOL0     C17848  11.264   6.295   9.495  0.5888 -0.0017  0.7926
  130MOL0     C17849  11.125   6.292   9.529 -0.2279  1.1474  0.8079
  130MOL0     O17850  10.934   6.330   9.785  0.4353  0.7290 -1.0406
  130MOL0     C17851  10.641   6.399   9.609  1.0412 -0.2346  0.3582
  130MOL0     C17852  10.504   6.432   9.612 -0.6214  0.8374  0.2402
  130MOL0     N17853  10.085   6.720   9.285 -0.4960 -0.2968  0.2051
  130MOL0     N17854  10.062   6.769   9.167 -0.5455  0.1666  0.4285
  130MOL0     C17855   9.737   7.759   8.622  0.3095  0.7105  0.4952
  130MOL0     C17856   9.734   7.785   8.493 -0.0567 -1.2164  0.1246
  130MOL0     C17857   9.718   7.920   8.089  0.0729 -1.1585 -0.1178
  130MOL0     C17858   9.641   8.041   8.095  0.2054 -0.5495 -0.4749
  130MOL0     C17859   9.655   8.147   8.006  0.7174 -0.4267 -0.2167
  130MOL0     C17860   9.732   8.143   7.901 -0.3244  0.2775  1.4194
  130MOL0     O17861   9.746   8.260   7.837  0.0491 -0.4318  0.0533
  130MOL0     C17862   9.833   8.295   7.733 -0.3586  1.0978  0.4826
  130MOL0     C17863   9.766   8.353   7.610  0.2011 -0.5337  1.0234
  130MOL0     C17864   9.876   8.413   7.505  0.3989 -0.6082  0.5630
  130MOL0     C17865   9.820   8.439   7.357 -0.0407  0.5033  0.1757
  130MOL0     C17866   9.776   8.327   7.282 -0.0397  0.9598  0.6209
  130MOL0     C17867   9.748   8.229   7.213  0.3531  0.7027  1.1555
  130MOL0     C17868   9.799   8.018   7.876  0.3671  0.7252 -0.4485
  130MOL0     C17869   9.799   7.915   7.977 -0.0378 -0.3634  0.7066
  130MOL0     C17870   9.889   7.806   7.952 -0.7938 -0.3411  0.7631
  130MOL0     H17871   9.407   7.868   8.446  1.5244  0.8664 -2.6282
  130MOL0     H17872   9.419   7.836   8.695 -1.8753 -3.1312 -1.1362
  130MOL0     H17873   9.820   7.715   8.882  0.8245 -0.7063  1.2863
  130MOL0     H17874   9.742   7.568   8.830  0.5922  0.4585  0.0251
  130MOL0     H17875   9.663   7.734   9.071 -0.4675  0.6973 -2.1994
  130MOL0     H17876   9.575   7.592   9.020 -0.5231  1.4636  0.3125
  130MOL0     H17877   9.859   7.612   9.157 -0.1413  1.6237 -0.1279
  130MOL0     H17878   9.716   7.545   9.211  2.0717 -2.4995  1.6307
  130MOL0     H17879   9.715   7.370   9.024 -0.4241  0.6489 -1.3223
  130MOL0     H17880   9.876   7.419   8.984  0.6303 -4.9905  0.8446
  130MOL0     H17881   9.815   7.345   9.263 -2.8353  2.5844 -1.5696
  130MOL0     H17882   9.972   7.354   9.177  0.1057 -0.5143 -5.1870
  130MOL0     H17883   9.850   7.103   9.223  0.9477  1.4967  1.1255
  130MOL0     H17884   9.769   7.155   9.073 -0.8610  0.0776  1.6455
  130MOL0     H17885  10.073   7.186   9.094 -0.3242  0.3752 -0.3500
  130MOL0     H17886   9.973   7.159   8.954  0.3036  0.8596  0.1592
  130MOL0     H17887   9.946   6.929   8.988  1.9342 -2.1926  0.6378
  130MOL0     H17888  10.111   6.964   8.986  1.6181  0.3824  1.9869
  130MOL0     H17889  10.037   7.030   9.357  0.4947 -0.4746 -0.2470
  130MOL0     H17890  10.082   6.902   9.570  0.7503  0.9682  0.0272
  130MOL0     H17891  10.239   6.834   9.517  0.0645 -0.2529  1.4679
  130MOL0     H17892   9.971   6.693   9.594  0.7337 -0.0576 -1.4551
  130MOL0     H17893  10.117   6.614   9.537 -0.0174 -1.7741  0.2896
  130MOL0     H17894  10.134   6.802   9.773  1.0098  0.0814 -2.0053
  130MOL0     H17895  10.059   6.639   9.784 -0.8220 -0.3866 -1.0248
  130MOL0     H17896  10.345   6.735   9.719 -0.2265 -0.6797 -1.2512
  130MOL0     H17897  10.290   6.665   9.865 -3.0736  1.1777  0.4200
  130MOL0     H17898  10.484   6.541   9.926  2.6527 -2.3331  2.3684
  130MOL0     H17899  10.676   6.552  10.053  0.3697  0.0959 -0.7822
  130MOL0     H17900  10.822   6.576   9.962  1.3609 -2.1345 -1.7622
  130MOL0     H17901  10.778   6.418  10.002 -0.4931  0.2905  0.5662
  130MOL0     H17902  11.093   6.629   9.603 -1.2699 -0.7297 -1.2609
  130MOL0     H17903  11.328   6.623   9.568  0.6868 -0.7707  1.4850
  130MOL0     H17904  11.412   6.366   9.241 -1.5046  2.7286  0.1700
  130MOL0     H17905  11.567   6.447   9.263 -1.9868  1.1753 -1.4837
  130MOL0     H17906  11.497   6.170   9.391  1.0536 -1.1129 -0.5969
  130MOL0     H17907  11.573   6.192   9.235  1.6365  1.3694 -0.3559
  130MOL0     H17908  11.715   6.155   9.458  0.1817  1.0276  0.7189
  130MOL0     H17909  11.711   6.331   9.441 -1.1931  0.6129  0.1602
  130MOL0     H17910  11.909   6.293   9.316 -0.9751  1.1502 -0.0532
  130MOL0     H17911  11.783   6.294   9.189  0.9646  1.0081 -0.8452
  130MOL0     H17912  11.855   6.031   9.324 -0.4598 -0.9486 -1.8777
  130MOL0     H17913  11.791   6.062   9.165 -1.6951  1.8243  1.0886
  130MOL0     H17914  12.076   6.145   9.254 -0.6287 -0.7856  1.7038
  130MOL0     H17915  12.015   6.160   9.096  1.1079  3.4896  2.0883
  130MOL0     H17916  12.017   5.915   9.064  3.0575  3.5134 -1.1041
  130MOL0     H17917  12.002   5.872   9.237  0.9150 -1.3786  0.9267
  130MOL0     H17918  12.228   5.827   9.179 -2.1029 -0.5825  2.2538
  130MOL0     H17919  12.212   5.977   9.280 -1.9596  2.0855 -1.0340
  130MOL0     H17920  11.310   6.198   9.480  1.6642  0.7610 -1.1223
  130MOL0     H17921  11.082   6.193   9.540  2.1605  0.2270  2.4993
  130MOL0     H17922  10.677   6.346   9.522 -5.2047 -2.4276 -1.4109
  130MOL0     H17923  10.443   6.387   9.534  0.7623  0.3499 -0.6018
  130MOL0     H17924   9.837   7.726   8.651  1.9362  2.8489 -2.1214
  130MOL0     H17925   9.833   7.779   8.449  0.3028 -2.1485  1.0295
  130MOL0     H17926   9.577   8.053   8.182  0.9384  1.5716 -0.1714
  130MOL0     H17927   9.612   8.244   8.029  4.8046  1.6286 -0.4221
  130MOL0     H17928   9.906   8.368   7.770  2.3359 -0.3863 -1.4980
  130MOL0     H17929   9.888   8.203   7.709  0.1172  1.9146 -1.8422
  130MOL0     H17930   9.706   8.441   7.636 -1.8013 -1.7704  0.8378
  130MOL0     H17931   9.694   8.282   7.568 -0.3767  0.4782  0.2477
  130MOL0     H17932   9.913   8.504   7.553  0.4643  0.5571 -1.5402
  130MOL0     H17933   9.955   8.339   7.491 -1.2631 -2.1917 -1.0405
  130MOL0     H17934   9.886   8.500   7.296 -2.7316  1.6264 -1.8317
  130MOL0     H17935   9.735   8.508   7.356  0.1803  0.7714 -0.4390
  130MOL0     H17936   9.732   8.137   7.161  3.9969 -0.0381  1.1023
  130MOL0     H17937   9.871   8.007   7.796  0.0518 -0.7246 -0.5545
  130MOL0     H17938   9.947   7.786   8.042  1.0178 -0.7071 -0.4335
  130MOL0     H17939   9.830   7.715   7.936  0.8103 -2.3343  4.7603
  130MOL0     H17940   9.970   7.822   7.880 -1.8907  0.5007 -0.3169
  131MOL0     O17941  10.507   7.102   7.133 -0.0667 -0.2035  0.0016
  131MOL0     C17942  10.427   7.013   7.171 -0.4144 -0.3914 -0.1373
  131MOL0     O17943  10.392   6.990   7.301  0.2441 -0.0329 -0.7076
  131MOL0     C17944  10.456   7.059   7.401 -0.4274  0.1193 -0.2753
  131MOL0     C17945  10.390   7.131   7.497  0.1626 -0.2984  0.2981
  131MOL0     C17946  10.458   7.207   7.592 -0.1755  0.0636 -0.1118
  131MOL0     C17947  10.596   7.227   7.591  0.2856  0.1321 -0.0908
  131MOL0     O17948  10.670   7.315   7.660 -0.6504  0.8236 -0.2335
  131MOL0     C17949  10.614   7.432   7.726  0.5735 -0.1261  0.3747
  131MOL0     C17950  10.725   7.532   7.755 -0.5520 -0.9626 -0.3106
  131MOL0     C17951  10.844   7.474   7.829  0.1406  0.6052 -0.1007
  131MOL0     C17952  10.811   7.402   7.964  0.0879 -0.6791 -0.1084
  131MOL0     C17953  10.938   7.369   8.043 -0.4052 -0.2971  1.0353
  131MOL0     C17954  11.020   7.260   7.962  0.1180 -0.5067 -0.7116
  131MOL0     C17955  11.111   7.190   8.072  0.0846  0.0074 -1.0655
  131MOL0     C17956  11.236   7.120   8.014  0.0435  0.0894  0.1022
  131MOL0     N17957  11.303   7.034   8.114  0.1796  0.1026  1.0394
  131MOL0     C17958  11.324   7.066   8.246 -0.1045  0.1462 -1.0794
  131MOL0     C17959  11.421   6.982   8.287  0.2134  0.7437  0.0663
  131MOL0     C17960  11.486   6.976   8.420  0.0907 -0.9675 -0.8761
  131MOL0     C17961  11.562   7.112   8.461 -0.6598  0.5768  1.3554
  131MOL0     C17962  11.672   7.155   8.374  0.1920 -0.5857  0.2444
  131MOL0     C17963  11.779   7.051   8.368 -0.6977 -0.8790  1.4192
  131MOL0     O17964  11.814   7.008   8.496 -0.4268 -0.5323 -0.6178
  131MOL0     C17965  11.941   6.962   8.519  0.4647  0.0904  0.3894
  131MOL0     C17966  12.002   7.023   8.628  0.3777  0.6543 -0.1514
  131MOL0     C17967  12.137   6.979   8.660 -0.2085  0.2170 -0.3939
  131MOL0     C17968  12.211   7.058   8.776  0.5528 -0.1959  0.3460
  131MOL0     C17969  12.208   6.877   8.586  0.8664 -0.3354 -0.0889
  131MOL0     C17970  12.344   6.838   8.623  0.3863 -0.0413  0.7358
  131MOL0     O17971  12.375   6.817   8.751 -0.2774  0.5995  1.1604
  131MOL0     C17972  12.508   6.806   8.782  0.8668 -0.1810 -0.4830
  131MOL0     C17973  12.597   6.906   8.742 -0.2346  0.5775 -1.0476
  131MOL0     C17974  12.732   6.903   8.793 -0.1566 -0.0826  0.1571
  131MOL0     C17975  12.770   6.792   8.874  0.4975  0.4890  0.1197
  131MOL0     O17976  12.897   6.771   8.918  0.6703  0.5423 -0.0439
  131MOL0     C17977  13.001   6.794   8.815  0.5820  0.8053  0.4897
  131MOL0     C17978  13.092   6.906   8.859  0.3660  0.3670 -0.0127
  131MOL0     C17979  13.027   7.035   8.903  0.7044  0.2454 -0.3703
  131MOL0     C17980  13.135   7.132   8.958 -0.7253 -1.0886 -0.4637
  131MOL0     C17981  13.076   7.272   8.961 -0.8320  1.2277  0.6059
  131MOL0     C17982  13.172   7.392   9.009 -0.1809 -0.0656  0.6110
  131MOL0     C17983  13.079   7.514   9.039 -0.4991  0.1297 -0.2785
  131MOL0     C17984  13.151   7.633   9.082 -1.2304  0.0008  0.1242
  131MOL0    Cl17985  13.175   7.621   9.267  0.0107 -0.1111 -0.0045
  131MOL0     C17986  12.678   6.690   8.902 -0.8922 -0.7289  0.4390
  131MOL0     C17987  12.548   6.706   8.857 -0.2180  0.8191 -0.6036
  131MOL0     O17988  12.419   6.817   8.529 -0.4058  0.4087  0.2907
  131MOL0     C17989  12.140   6.821   8.476  0.4245  0.1951  1.1632
  131MOL0     C17990  12.004   6.855   8.451 -0.8533 -0.5444  0.0109
  131MOL0     N17991  11.428   6.888   8.186 -0.0639  0.6381 -0.2974
  131MOL0     N17992  11.363   6.917   8.084 -0.2672 -0.6113 -0.6838
  131MOL0     C17993  10.665   7.138   7.508  0.1583 -0.3876  0.2771
  131MOL0     C17994  10.602   7.056   7.418 -0.3539  0.6545 -0.8276
  131MOL0     C17995  10.363   6.921   7.072 -0.3520 -0.1317  0.2075
  131MOL0     C17996  10.336   6.793   7.113 -0.4671 -0.0696 -0.6960
  131MOL0     C17997  10.265   6.705   7.034  0.5118 -0.3381 -1.3110
  131MOL0     C17998  10.201   6.747   6.918  0.2804 -0.0429  0.4610
  131MOL0     O17999  10.097   6.675   6.859 -0.5201  0.6951  0.0581
  131MOL0     C18000   9.969   6.722   6.897  0.2777 -0.1710 -0.3061
  131MOL0     C18001   9.872   6.599   6.874 -0.3579 -0.3575 -0.1209
  131MOL0     C18002   9.728   6.640   6.823 -0.5459  0.2512 -0.0764
  131MOL0     C18003   9.641   6.521   6.783 -0.7173 -0.2805 -0.0740
  131MOL0     C18004   9.512   6.574   6.748 -0.2577  0.3006 -0.5338
  131MOL0     C18005   9.393   6.609   6.751  0.3451  0.3337  0.3104
  131MOL0     C18006  10.240   6.870   6.861 -0.2460  0.6910  0.0460
  131MOL0     C18007  10.318   6.958   6.943 -0.7733 -0.7563  0.0993
  131MOL0     C18008  10.366   7.097   6.891 -0.4046  0.3100  0.3260
  131MOL0     H18009  10.282   7.139   7.499 -0.3967 -0.9511 -6.1918
  131MOL0     H18010  10.399   7.262   7.664 -1.1348 -0.3191 -0.5954
  131MOL0     H18011  10.556   7.402   7.814  0.1108  2.7030  1.1463
  131MOL0     H18012  10.544   7.481   7.657  1.8955 -1.3720 -1.9628
  131MOL0     H18013  10.754   7.554   7.652  0.2526  0.2053  0.1430
  131MOL0     H18014  10.683   7.611   7.818  3.7341 -0.4206  2.2770
  131MOL0     H18015  10.892   7.404   7.761  1.4853  0.4011  1.0083
  131MOL0     H18016  10.914   7.558   7.833 -0.3833  1.0498 -0.1325
  131MOL0     H18017  10.739   7.455   8.027  0.0758 -1.0039  0.1528
  131MOL0     H18018  10.778   7.305   7.928 -1.0484 -0.0783 -0.7553
  131MOL0     H18019  10.908   7.324   8.138 -1.9687 -1.5361  0.0048
  131MOL0     H18020  10.989   7.464   8.060  1.8210 -0.7036 -2.4340
  131MOL0     H18021  10.956   7.181   7.922  1.1658 -2.3050  0.9740
  131MOL0     H18022  11.088   7.299   7.886  2.5638 -0.6479  1.2503
  131MOL0     H18023  11.054   7.125   8.140  0.1951  1.7455  0.7993
  131MOL0     H18024  11.152   7.268   8.137  0.7236 -0.3985 -0.9653
  131MOL0     H18025  11.214   7.053   7.930  0.8792 -2.7410  2.0348
  131MOL0     H18026  11.302   7.205   7.993 -0.6102 -0.2836 -4.4143
  131MOL0     H18027  11.289   7.156   8.296 -1.5400 -0.7103 -0.4992
  131MOL0     H18028  11.557   6.893   8.430  1.1131  0.1035  1.4797
  131MOL0     H18029  11.402   6.945   8.483 -0.2492 -4.7585 -2.8688
  131MOL0     H18030  11.490   7.194   8.457 -0.9032  0.3237 -1.2211
  131MOL0     H18031  11.593   7.106   8.566 -1.0440 -4.4195  1.3977
  131MOL0     H18032  11.620   7.174   8.280 -3.2509  2.6761  2.5237
  131MOL0     H18033  11.714   7.247   8.415 -0.7470 -0.7580  1.6248
  131MOL0     H18034  11.745   6.964   8.312  0.5908 -0.9866  0.7633
  131MOL0     H18035  11.862   7.082   8.304 -2.8255  0.1044 -1.0239
  131MOL0     H18036  11.965   7.106   8.688  2.7756  0.9712  1.0223
  131MOL0     H18037  12.167   7.158   8.777 -0.5824 -0.6586  2.4449
  131MOL0     H18038  12.320   7.072   8.773  0.4565  1.1997  2.1138
  131MOL0     H18039  12.186   7.009   8.870 -1.9529  0.8116  0.2950
  131MOL0     H18040  12.556   6.996   8.697  3.1958  1.3911 -2.8723
  131MOL0     H18041  12.810   6.974   8.767  0.8561 -1.3816 -0.4433
  131MOL0     H18042  13.061   6.705   8.797  2.8546  2.5275 -1.0091
  131MOL0     H18043  12.950   6.812   8.719  1.5513 -0.4011 -0.2741
  131MOL0     H18044  13.158   6.865   8.936  0.1182 -1.9326 -0.9454
  131MOL0     H18045  13.157   6.921   8.773  1.0716 -3.8417 -0.4608
  131MOL0     H18046  12.960   7.026   8.989  1.6726  2.7002  0.7367
  131MOL0     H18047  12.978   7.083   8.817  2.9107  2.1167 -0.6808
  131MOL0     H18048  13.221   7.133   8.889  0.6635 -1.6618  1.1851
  131MOL0     H18049  13.171   7.092   9.053  0.7818 -0.6623 -0.8253
  131MOL0     H18050  13.050   7.294   8.857  2.3209 -0.6661 -0.7298
  131MOL0     H18051  12.984   7.262   9.020 -0.8136 -1.6149  0.2888
  131MOL0     H18052  13.250   7.413   8.935  0.2284  0.2809  1.1332
  131MOL0     H18053  13.234   7.358   9.092 -3.2289 -1.4728  2.4821
  131MOL0     H18054  13.013   7.477   9.118  0.1034  0.2298  0.2713
  131MOL0     H18055  13.025   7.535   8.946 -0.2109  2.5809  0.0464
  131MOL0     H18056  13.088   7.721   9.064 -0.0068  0.5945 -1.5444
  131MOL0     H18057  13.239   7.640   9.017  0.2419 -1.0635  1.8814
  131MOL0     H18058  12.718   6.623   8.977  1.6768  1.1409  0.8636
  131MOL0     H18059  12.470   6.651   8.908 -0.5996  2.6669  0.9554
  131MOL0     H18060  12.190   6.745   8.417  2.0725  1.0241  1.4307
  131MOL0     H18061  11.953   6.793   8.378  0.0167 -0.8305 -0.3694
  131MOL0     H18062  10.773   7.138   7.493  0.3065  0.0765  1.2582
  131MOL0     H18063  10.660   6.981   7.365 -0.5385 -0.7310  0.8555
  131MOL0     H18064  10.361   6.745   7.207  0.6940  2.2993  0.2710
  131MOL0     H18065  10.241   6.614   7.087 -2.1992  1.1108  0.2016
  131MOL0     H18066   9.965   6.753   7.002  1.9556  2.4584 -0.9218
  131MOL0     H18067   9.943   6.796   6.821  1.9859  1.2667  0.4401
  131MOL0     H18068   9.858   6.550   6.971 -1.6218  0.4810  0.1507
  131MOL0     H18069   9.914   6.526   6.804  1.4657 -0.5220  1.0745
  131MOL0     H18070   9.683   6.689   6.910  1.3401 -1.9336  2.2882
  131MOL0     H18071   9.725   6.716   6.744 -1.6667 -0.0291 -0.3211
  131MOL0     H18072   9.648   6.443   6.859  0.5966  1.1001  1.3104
  131MOL0     H18073   9.696   6.484   6.697  1.6525  0.1960  1.1619
  131MOL0     H18074   9.292   6.646   6.749  0.5056  0.7676 -1.9500
  131MOL0     H18075  10.217   6.895   6.758  0.1092 -1.4270 -0.6024
  131MOL0     H18076  10.475   7.094   6.894 -0.4136 -0.5566  2.6559
  131MOL0     H18077  10.326   7.108   6.790  0.2892  2.3069  0.2201
  131MOL0     H18078  10.337   7.176   6.961  2.7311  0.7064  1.3260
  132MOL0     O18079   6.205   2.750   7.517 -0.1685 -0.3810  0.0065
  132MOL0     C18080   6.178   2.756   7.632 -0.0808 -0.9097 -0.7937
  132MOL0     O18081   6.136   2.651   7.713 -0.3427 -0.2619  0.0595
  132MOL0     C18082   6.122   2.532   7.642 -0.2974 -0.1677 -0.0171
  132MOL0     C18083   6.013   2.519   7.561  0.0927 -0.0807  0.6865
  132MOL0     C18084   5.989   2.396   7.497  0.6553  0.1507 -0.4645
  132MOL0     C18085   6.072   2.288   7.530 -1.2535  1.0123  0.7363
  132MOL0     O18086   6.075   2.177   7.463  0.2801  0.2870  0.3574
  132MOL0     C18087   5.962   2.095   7.448 -0.4530 -0.2941  0.6438
  132MOL0     C18088   5.912   2.084   7.300 -0.4026  0.6791 -1.1856
  132MOL0     C18089   6.001   2.000   7.207  0.3645 -0.2633 -0.4309
  132MOL0     C18090   5.951   1.985   7.063 -0.1240 -0.4225  0.3603
  132MOL0     C18091   6.062   1.931   6.976 -0.3514  1.0613  0.0027
  132MOL0     C18092   6.017   1.909   6.831  1.0494 -0.9162  0.2547
  132MOL0     C18093   6.114   1.835   6.749 -0.3598  0.1230  0.9178
  132MOL0     C18094   6.162   1.707   6.812  0.9099  0.3179  0.5039
  132MOL0     N18095   6.220   1.612   6.712  0.2754  0.5017  0.1357
  132MOL0     C18096   6.252   1.479   6.737  0.4465 -0.7171 -0.3456
  132MOL0     C18097   6.289   1.430   6.615 -0.7119 -0.8654 -0.6033
  132MOL0     C18098   6.322   1.284   6.590 -0.7175 -0.5946 -0.4999
  132MOL0     C18099   6.467   1.253   6.640 -0.6353  0.0817  0.2938
  132MOL0     C18100   6.576   1.351   6.599  0.1623  1.0685 -1.1789
  132MOL0     C18101   6.585   1.338   6.442 -0.0487  0.2447 -0.5793
  132MOL0     O18102   6.624   1.197   6.414  0.5293  0.0421  0.2862
  132MOL0     C18103   6.640   1.163   6.277  0.4433 -0.0115 -1.1866
  132MOL0     C18104   6.587   1.232   6.171  0.8381  0.3056 -0.3481
  132MOL0     C18105   6.619   1.188   6.042 -0.5518  0.2141 -0.1567
  132MOL0     C18106   6.575   1.273   5.922 -0.5642 -0.2918  0.1239
  132MOL0     C18107   6.669   1.058   6.028 -1.5688  0.8641  0.1088
  132MOL0     C18108   6.697   1.001   5.899 -0.3625 -0.4993  0.6680
  132MOL0     O18109   6.826   0.955   5.884 -0.3292  0.9078  0.3015
  132MOL0     C18110   6.874   0.936   5.756 -0.0814 -0.8723  0.8349
  132MOL0     C18111   6.885   1.050   5.676 -0.2858  0.2538  1.5795
  132MOL0     C18112   6.935   1.048   5.543 -0.8228 -0.4940 -0.0625
  132MOL0     C18113   6.965   0.928   5.484  0.4755  0.5558 -0.3392
  132MOL0     O18114   7.022   0.917   5.359  0.1126  1.0515 -0.0226
  132MOL0     C18115   7.019   1.030   5.273  0.2083 -0.3557  0.4341
  132MOL0     C18116   7.083   0.982   5.133  1.0791  0.5149 -0.4498
  132MOL0     C18117   7.119   1.091   5.049 -0.3037  0.0822  0.9198
  132MOL0     C18118   7.120   1.058   4.900 -0.0600 -0.6245 -0.0033
  132MOL0     C18119   7.194   1.178   4.823  0.0182 -0.2178  0.2294
  132MOL0     C18120   7.271   1.121   4.699  0.6781  0.6411  0.5121
  132MOL0     C18121   7.307   1.230   4.589 -0.3036  0.1111  0.1910
  132MOL0     C18122   7.437   1.299   4.628 -0.3098  0.8555  0.4775
  132MOL0    Cl18123   7.581   1.194   4.647 -0.1950  0.2710 -0.1043
  132MOL0     C18124   6.949   0.817   5.566 -0.6858 -0.8076  0.1078
  132MOL0     C18125   6.894   0.819   5.694 -0.6777 -1.6868 -0.1260
  132MOL0     O18126   6.609   0.990   5.811  0.3109  0.0160 -0.7800
  132MOL0     C18127   6.722   0.986   6.144 -0.0513 -0.4411  0.3627
  132MOL0     C18128   6.709   1.041   6.268 -0.2189  0.2235 -0.5975
  132MOL0     N18129   6.268   1.524   6.527  0.3389  0.0637  0.5327
  132MOL0     N18130   6.228   1.641   6.575 -0.8056  1.2417  0.1569
  132MOL0     C18131   6.181   2.308   7.623 -0.3015  0.2603  0.0382
  132MOL0     C18132   6.206   2.426   7.678  0.2903  1.2569 -0.2848
  132MOL0     C18133   6.184   2.887   7.701  0.6646 -0.3388 -0.5916
  132MOL0     C18134   6.192   2.895   7.837 -0.5182  0.0163 -0.3025
  132MOL0     C18135   6.184   3.019   7.905 -0.6669  0.2032 -0.2196
  132MOL0     C18136   6.177   3.138   7.838 -0.3914  0.1394 -0.4476
  132MOL0     O18137   6.158   3.259   7.912  0.7868 -0.0751  0.4273
  132MOL0     C18138   6.151   3.387   7.835 -0.2732 -0.0791 -0.3526
  132MOL0     C18139   6.169   3.499   7.934 -0.1325  0.4479  0.1537
  132MOL0     C18140   6.065   3.515   8.041 -0.7494 -0.6987 -0.2464
  132MOL0     C18141   6.066   3.658   8.111  0.8279 -0.3345  0.5181
  132MOL0     C18142   5.962   3.652   8.214  0.2981 -0.1156 -0.6055
  132MOL0     C18143   5.886   3.652   8.299  0.7049 -0.2166  0.1362
  132MOL0     C18144   6.171   3.127   7.703  0.1188 -0.3503 -1.0802
  132MOL0     C18145   6.172   3.012   7.625 -0.6749 -0.0338 -0.2411
  132MOL0     C18146   6.157   3.021   7.477  0.0584  0.4298 -0.2757
  132MOL0     H18147   5.959   2.608   7.529  0.3348 -0.7259 -1.7108
  132MOL0     H18148   5.914   2.396   7.419  0.8335  0.9296 -0.6469
  132MOL0     H18149   5.879   2.140   7.503 -0.5965 -0.8666  0.9069
  132MOL0     H18150   5.981   1.995   7.489  0.2237 -0.7133 -0.6572
  132MOL0     H18151   5.811   2.042   7.297 -0.2785  0.3577 -0.9288
  132MOL0     H18152   5.912   2.192   7.280  0.3665  1.1602  1.1461
  132MOL0     H18153   6.100   2.047   7.214  0.3716  0.1266 -2.6342
  132MOL0     H18154   6.009   1.899   7.249 -1.1280  0.3074  1.3752
  132MOL0     H18155   5.862   1.921   7.067 -1.2692  1.0339 -0.7611
  132MOL0     H18156   5.926   2.081   7.017  2.1196  0.8906  1.7357
  132MOL0     H18157   6.088   1.833   7.016  0.8943  1.1076 -0.6371
  132MOL0     H18158   6.152   1.994   6.977  2.1370 -2.2511  0.6296
  132MOL0     H18159   5.915   1.868   6.835  0.2410  1.0172  2.4921
  132MOL0     H18160   6.001   2.002   6.775  1.2142  1.3402  3.6178
  132MOL0     H18161   6.203   1.891   6.719  0.2809 -1.4222 -0.2331
  132MOL0     H18162   6.072   1.818   6.649  1.7434 -0.5767  0.1000
  132MOL0     H18163   6.234   1.736   6.889  0.5166 -1.1272  1.4676
  132MOL0     H18164   6.076   1.653   6.854 -1.5876  2.9581 -0.8403
  132MOL0     H18165   6.248   1.414   6.825  1.0187 -2.9002 -1.8454
  132MOL0     H18166   6.323   1.255   6.484 -5.1735 -2.2597 -0.2626
  132MOL0     H18167   6.245   1.225   6.639 -2.7941  2.7477  0.6088
  132MOL0     H18168   6.452   1.249   6.748 -3.3320  0.2969  0.0009
  132MOL0     H18169   6.487   1.152   6.603  3.0489 -0.4099  3.1569
  132MOL0     H18170   6.544   1.453   6.625 -2.3692  0.3805 -1.3461
  132MOL0     H18171   6.669   1.321   6.648  0.9029  1.7536 -2.1176
  132MOL0     H18172   6.488   1.362   6.398 -0.8165 -2.1589 -0.3670
  132MOL0     H18173   6.660   1.405   6.398  2.2159 -0.3338  2.1342
  132MOL0     H18174   6.520   1.317   6.182  2.8610  1.7025  2.3914
  132MOL0     H18175   6.468   1.291   5.937 -0.8040 -0.6810 -1.0588
  132MOL0     H18176   6.602   1.237   5.823  0.1311  2.5402 -0.7999
  132MOL0     H18177   6.618   1.373   5.919 -0.3916 -0.3264  1.0976
  132MOL0     H18178   6.855   1.147   5.713  0.7939  1.1735  0.1638
  132MOL0     H18179   6.945   1.145   5.494 -1.8089  0.9115  2.3485
  132MOL0     H18180   6.920   1.074   5.258  1.0695  1.4367 -0.3449
  132MOL0     H18181   7.068   1.124   5.301 -1.4634  0.8156 -0.4042
  132MOL0     H18182   7.172   0.932   5.172  0.7137 -0.3997 -0.7580
  132MOL0     H18183   7.024   0.908   5.079  0.9874 -0.8088  1.3583
  132MOL0     H18184   7.215   1.130   5.083  1.0842 -1.8075 -0.6148
  132MOL0     H18185   7.059   1.179   5.070  1.5908  1.6703 -0.0239
  132MOL0     H18186   7.015   1.038   4.876 -0.7864 -0.5989  2.8324
  132MOL0     H18187   7.173   0.965   4.880 -2.2474 -2.0366  0.3835
  132MOL0     H18188   7.126   1.257   4.790 -1.2506 -0.7472  1.5004
  132MOL0     H18189   7.268   1.225   4.888 -0.8105 -1.2313  1.9807
  132MOL0     H18190   7.203   1.054   4.646  0.2934  2.0487 -0.8306
  132MOL0     H18191   7.361   1.079   4.745  0.9983  3.5558  2.8720
  132MOL0     H18192   7.241   1.316   4.579 -0.2053  0.1842  0.1747
  132MOL0     H18193   7.322   1.186   4.490  0.4070  0.9361 -0.0813
  132MOL0     H18194   7.423   1.361   4.717 -0.2719  2.3058 -0.4819
  132MOL0     H18195   7.457   1.356   4.536 -0.8146 -0.2529 -0.3378
  132MOL0     H18196   6.962   0.717   5.525 -1.5485 -1.2152  0.7846
  132MOL0     H18197   6.873   0.731   5.754 -0.0721 -2.8450 -1.5412
  132MOL0     H18198   6.784   0.897   6.142  0.5834 -0.1027  2.5922
  132MOL0     H18199   6.775   0.997   6.342  1.6644  2.3045 -0.9407
  132MOL0     H18200   6.249   2.228   7.651  0.3264  0.5160 -0.7325
  132MOL0     H18201   6.286   2.433   7.751 -0.6530 -4.1923  1.7148
  132MOL0     H18202   6.222   2.814   7.903 -0.0308  0.3336 -0.1267
  132MOL0     H18203   6.207   3.030   8.011  0.0617  2.4090 -0.5429
  132MOL0     H18204   6.238   3.394   7.769 -1.1259  0.3692 -1.4394
  132MOL0     H18205   6.052   3.397   7.790 -0.2898 -0.1673 -0.3350
  132MOL0     H18206   6.169   3.586   7.869  0.0948 -0.2057 -0.7421
  132MOL0     H18207   6.270   3.490   7.974 -0.0935  0.4658  0.0598
  132MOL0     H18208   5.962   3.502   8.008 -2.2580  5.0983  0.9535
  132MOL0     H18209   6.090   3.441   8.117  5.0440 -1.3582 -2.2827
  132MOL0     H18210   6.037   3.734   8.039 -2.0521 -2.3759 -0.6723
  132MOL0     H18211   6.162   3.686   8.155  0.8695  0.6736 -0.1829
  132MOL0     H18212   5.801   3.660   8.364 -0.6189 -1.0346 -1.3991
  132MOL0     H18213   6.163   3.215   7.640 -0.6222 -1.2248 -2.2510
  132MOL0     H18214   6.066   2.966   7.454  0.2857  0.4854 -1.3231
  132MOL0     H18215   6.151   3.121   7.433 -3.3929 -0.5333 -2.3413
  132MOL0     H18216   6.244   2.968   7.436 -0.4906  0.1306 -1.0707
  133MOL0     O18217   2.320   4.453  10.908 -0.5011 -0.6590  0.6229
  133MOL0     C18218   2.218   4.387  10.899 -0.0595  0.6919 -0.0233
  133MOL0     O18219   2.212   4.258  10.843  0.2190 -0.5159 -1.1867
  133MOL0     C18220   2.332   4.200  10.817  0.7479 -0.4298 -1.0759
  133MOL0     C18221   2.364   4.162  10.683  0.1581  1.0096 -0.1521
  133MOL0     C18222   2.486   4.097  10.674  0.0155 -0.5057  0.9140
  133MOL0     C18223   2.570   4.076  10.778 -0.6236 -0.3813 -0.4809
  133MOL0     O18224   2.686   4.001  10.753  1.0771  0.3100 -0.2972
  133MOL0     C18225   2.797   4.015  10.840  0.1093 -1.2472  1.3169
  133MOL0     C18226   2.935   3.987  10.778 -0.5462 -0.5244 -0.2006
  133MOL0     C18227   2.932   3.863  10.689  0.0400 -0.2278 -0.4697
  133MOL0     C18228   3.068   3.800  10.658  0.2754  0.0178  0.3204
  133MOL0     C18229   3.142   3.723  10.760 -0.1618  0.3527  0.1006
  133MOL0     C18230   3.053   3.633  10.841 -0.1494 -0.7925 -0.1904
  133MOL0     C18231   3.109   3.554  10.958  0.1358 -0.8256 -0.0554
  133MOL0     C18232   3.216   3.451  10.918  0.2457 -0.6504 -0.0750
  133MOL0     N18233   3.359   3.505  10.935 -0.4477 -0.5844 -0.2137
  133MOL0     C18234   3.451   3.440  11.021  0.0147 -0.0609 -0.4138
  133MOL0     C18235   3.569   3.507  10.995  0.1335  0.3796  0.6207
  133MOL0     C18236   3.707   3.451  11.040 -0.7506 -0.6940 -0.6273
  133MOL0     C18237   3.780   3.384  10.921  0.2603  0.5331  0.8873
  133MOL0     C18238   3.721   3.256  10.856 -0.8948  0.1431  0.3710
  133MOL0     C18239   3.673   3.288  10.711  0.3626  0.7146  0.3190
  133MOL0     O18240   3.770   3.355  10.631 -0.2345 -0.2651 -0.6591
  133MOL0     C18241   3.895   3.299  10.596 -0.1168 -0.7287 -0.4387
  133MOL0     C18242   3.975   3.381  10.513 -1.1003  0.8111  0.7316
  133MOL0     C18243   4.094   3.329  10.447 -0.5813 -0.1616  0.2033
  133MOL0     C18244   4.183   3.420  10.376 -0.3520 -0.0976  0.6647
  133MOL0     C18245   4.121   3.189  10.447 -0.2675 -0.5577 -0.3096
  133MOL0     C18246   4.224   3.122  10.366 -0.5178  1.0733 -0.3267
  133MOL0     O18247   4.239   2.992  10.369 -0.4856 -0.4338  0.4573
  133MOL0     C18248   4.352   2.943  10.318 -1.1570 -0.0307 -0.3508
  133MOL0     C18249   4.472   2.924  10.395  0.3107 -0.3146 -0.2633
  133MOL0     C18250   4.585   2.868  10.335 -0.3209 -0.1025 -0.0192
  133MOL0     C18251   4.586   2.841  10.202  0.3372 -0.0827  0.8312
  133MOL0     O18252   4.701   2.813  10.131 -0.4117  0.4640 -0.4616
  133MOL0     C18253   4.816   2.767  10.202 -0.0670 -0.7863  0.0055
  133MOL0     C18254   4.895   2.676  10.125  0.2683 -0.1467  0.4812
  133MOL0     C18255   5.013   2.606  10.197  0.8885 -0.4142 -0.0932
  133MOL0     C18256   4.952   2.482  10.272  0.5960  0.6262  0.1801
  133MOL0     C18257   5.063   2.372  10.282  0.2799  0.4961  0.4765
  133MOL0     C18258   5.013   2.250  10.357 -0.5303 -1.3025  0.2164
  133MOL0     C18259   5.123   2.163  10.398 -0.6670 -1.2024 -0.8246
  133MOL0     C18260   5.058   2.064  10.497 -0.3843  0.0568 -0.7050
  133MOL0    Cl18261   5.184   1.971  10.580 -0.0843 -0.0262  0.5131
  133MOL0     C18262   4.470   2.853  10.125  0.2215 -0.5446  0.2568
  133MOL0     C18263   4.359   2.908  10.181  0.5170  0.0346 -0.8779
  133MOL0     O18264   4.305   3.189  10.298  0.2881 -0.1585 -0.5168
  133MOL0     C18265   4.039   3.111  10.525 -0.2597 -0.0102 -0.5111
  133MOL0     C18266   3.925   3.166  10.602  0.3713 -0.0087 -0.2219
  133MOL0     N18267   3.550   3.602  10.896  0.5688 -0.0411  0.0294
  133MOL0     N18268   3.422   3.614  10.873 -1.5527 -0.1697 -0.4657
  133MOL0     C18269   2.538   4.122  10.903  0.6500  0.1991  0.0593
  133MOL0     C18270   2.413   4.173  10.927 -0.4071 -0.2893 -0.1834
  133MOL0     C18271   2.094   4.442  10.968  0.4831  0.5319  0.3513
  133MOL0     C18272   1.989   4.340  10.994  0.1887 -0.0919  0.0443
  133MOL0     C18273   1.877   4.370  11.071  0.1117  0.4007 -0.0063
  133MOL0     C18274   1.869   4.504  11.116  0.2927  0.2548  0.0955
  133MOL0     O18275   1.761   4.564  11.179 -0.0665  0.3729  0.5411
  133MOL0     C18276   1.701   4.493  11.282 -1.0948  0.6175 -0.7599
  133MOL0     C18277   1.569   4.547  11.319  0.2676  0.6168  0.2059
  133MOL0     C18278   1.577   4.691  11.369  0.6772  0.0684  0.3858
  133MOL0     C18279   1.440   4.754  11.389 -0.1032  0.4289  0.1764
  133MOL0     C18280   1.454   4.891  11.449 -0.3003  0.1646  0.3306
  133MOL0     C18281   1.460   5.010  11.485 -1.0534  0.2425 -0.1142
  133MOL0     C18282   1.959   4.603  11.084  0.2243  0.2212 -0.3736
  133MOL0     C18283   2.074   4.573  11.015  0.1678  0.1918  0.1472
  133MOL0     C18284   2.167   4.692  11.000  0.4351  0.0016  0.7702
  133MOL0     H18285   2.282   4.171  10.614 -2.0265 -2.0395  1.7830
  133MOL0     H18286   2.521   4.061  10.578 -0.6493 -3.2951  1.6394
  133MOL0     H18287   2.796   3.949  10.926  4.2317  2.3567  4.6008
  133MOL0     H18288   2.800   4.117  10.880  1.5104 -0.2932 -0.9943
  133MOL0     H18289   2.962   4.066  10.708 -0.2719 -1.2899 -0.9830
  133MOL0     H18290   3.015   3.985  10.853 -1.2387  0.2532  0.5693
  133MOL0     H18291   2.861   3.800  10.743 -2.0995  2.2365 -0.2096
  133MOL0     H18292   2.892   3.892  10.591  3.0408  1.2692 -1.3845
  133MOL0     H18293   3.055   3.741  10.566 -2.4049 -0.4988  0.9525
  133MOL0     H18294   3.119   3.893  10.631  2.6574 -0.8795  1.4240
  133MOL0     H18295   3.177   3.791  10.838  0.8686 -1.0877  0.9513
  133MOL0     H18296   3.224   3.664  10.719  0.9816  2.7592 -1.2463
  133MOL0     H18297   2.991   3.707  10.893  2.3949  0.2780  1.5291
  133MOL0     H18298   2.988   3.570  10.780 -1.9925 -0.4621  1.3189
  133MOL0     H18299   3.024   3.512  11.013  0.4991  0.1704  1.3312
  133MOL0     H18300   3.167   3.621  11.022  1.0977 -0.3999 -1.3335
  133MOL0     H18301   3.208   3.361  10.981 -1.2833 -0.6390 -0.2169
  133MOL0     H18302   3.195   3.416  10.817 -1.1917  1.2919 -0.5051
  133MOL0     H18303   3.438   3.348  11.076 -2.0244 -0.7614 -1.9169
  133MOL0     H18304   3.704   3.386  11.127  2.6641 -1.4848 -0.9610
  133MOL0     H18305   3.768   3.539  11.065 -2.7920  0.4444  0.6575
  133MOL0     H18306   3.812   3.452  10.841  3.3864 -0.2838  1.3492
  133MOL0     H18307   3.878   3.355  10.958  0.1573 -0.3259  0.5167
  133MOL0     H18308   3.807   3.188  10.862 -1.0649 -0.8120 -4.1415
  133MOL0     H18309   3.635   3.210  10.905 -3.1911 -0.8358 -4.0606
  133MOL0     H18310   3.647   3.192  10.666 -0.5092  0.6942  0.8195
  133MOL0     H18311   3.579   3.344  10.712  0.0628  0.2172  0.5153
  133MOL0     H18312   3.957   3.487  10.501  0.4771  0.8157 -2.8415
  133MOL0     H18313   4.284   3.413  10.417  1.0401  1.8670 -2.1045
  133MOL0     H18314   4.150   3.523  10.391 -2.5024 -0.6455 -0.0079
  133MOL0     H18315   4.184   3.401  10.268  3.1387 -0.7451  0.6872
  133MOL0     H18316   4.450   2.940  10.500 -4.1271  0.7203 -1.1716
  133MOL0     H18317   4.685   2.880  10.377 -0.5187 -0.0880  0.4573
  133MOL0     H18318   4.884   2.848  10.229  2.0369 -1.4034 -2.9492
  133MOL0     H18319   4.786   2.709  10.289  1.0269 -0.6820  0.4718
  133MOL0     H18320   4.817   2.605  10.098 -0.8299  0.8795  0.8540
  133MOL0     H18321   4.936   2.734  10.042 -0.5640 -0.4851 -0.1699
  133MOL0     H18322   5.072   2.672  10.259  1.1705 -0.0059 -0.7866
  133MOL0     H18323   5.090   2.572  10.127  1.7609  1.0555  0.1279
  133MOL0     H18324   4.865   2.440  10.221  0.0919  3.6602 -1.6759
  133MOL0     H18325   4.927   2.522  10.370  0.2236  0.4999  0.1354
  133MOL0     H18326   5.094   2.335  10.184 -2.8907 -2.0939  0.2875
  133MOL0     H18327   5.158   2.412  10.318  0.9646 -1.2337  0.6838
  133MOL0     H18328   4.939   2.208  10.289  0.5243 -1.8896 -0.5936
  133MOL0     H18329   4.970   2.284  10.452  2.2800 -0.6609  1.3519
  133MOL0     H18330   5.197   2.224  10.451 -0.4967  1.3530 -3.7367
  133MOL0     H18331   5.164   2.111  10.311  1.3247 -1.7380  0.3600
  133MOL0     H18332   4.994   1.995  10.440  0.1758  0.4296 -1.8134
  133MOL0     H18333   4.991   2.113  10.568  0.8155 -1.1471  1.3524
  133MOL0     H18334   4.467   2.825  10.020  1.9397 -0.8351  0.2444
  133MOL0     H18335   4.271   2.908  10.118  0.9867  0.7310 -1.5413
  133MOL0     H18336   4.061   3.007  10.548 -1.3844  0.7133  5.6747
  133MOL0     H18337   3.858   3.105  10.662 -0.4506  3.7735  3.1365
  133MOL0     H18338   2.602   4.103  10.989  1.1924 -0.8947 -0.5681
  133MOL0     H18339   2.381   4.204  11.026  1.2708 -1.2670  0.7059
  133MOL0     H18340   1.981   4.239  10.957 -1.0304  0.4023 -1.1046
  133MOL0     H18341   1.795   4.301  11.086 -1.0151  0.6231 -4.0000
  133MOL0     H18342   1.674   4.390  11.260 -0.9232  0.4700 -0.2913
  133MOL0     H18343   1.759   4.491  11.374  0.6506  1.7663 -1.7850
  133MOL0     H18344   1.522   4.485  11.396 -2.3484  1.8018 -0.3104
  133MOL0     H18345   1.507   4.539  11.229 -1.2265  3.4428  0.8476
  133MOL0     H18346   1.616   4.687  11.471 -2.1467 -2.1778  1.5068
  133MOL0     H18347   1.639   4.760  11.311 -0.8962 -0.3513 -1.9239
  133MOL0     H18348   1.378   4.682  11.443  1.6671 -0.6878  0.7872
  133MOL0     H18349   1.391   4.768  11.292  1.0346  0.0427 -0.4638
  133MOL0     H18350   1.478   5.106  11.530  1.4090  0.9116 -2.2507
  133MOL0     H18351   1.945   4.706  11.114  0.1237  0.5541 -1.5093
  133MOL0     H18352   2.111   4.785  11.011 -4.0263 -2.4935  1.3220
  133MOL0     H18353   2.244   4.687  11.078 -0.6330 -1.8095  1.7789
  133MOL0     H18354   2.211   4.695  10.900 -2.2070  1.2699 -0.4348
  134MOL0     O18355  10.794  11.151   3.704 -0.6185 -0.0893 -0.1666
  134MOL0     C18356  10.678  11.175   3.707 -0.3071  0.0128 -0.2803
  134MOL0     O18357  10.612  11.238   3.605 -0.3899 -0.8251  0.8681
  134MOL0     C18358  10.654  11.250   3.470  0.4298  0.2691  0.6593
  134MOL0     C18359  10.620  11.366   3.408  0.5094  0.7353  0.2861
  134MOL0     C18360  10.668  11.389   3.274  0.1481  1.3231  0.5813
  134MOL0     C18361  10.741  11.289   3.207 -0.2490 -0.4858  0.6433
  134MOL0     O18362  10.789  11.319   3.084  0.1756 -0.1127  0.1223
  134MOL0     C18363  10.870  11.215   3.016  0.1924 -1.1168 -0.6131
  134MOL0     C18364  10.940  11.276   2.896 -1.1747 -0.3297 -0.4379
  134MOL0     C18365  11.053  11.376   2.935  0.8248  0.9466  0.3314
  134MOL0     C18366  11.140  11.397   2.807  0.0371 -1.0445 -0.7161
  134MOL0     C18367  11.231  11.522   2.837  0.3408 -0.1439  0.8834
  134MOL0     C18368  11.361  11.505   2.929 -0.9512 -0.0087  0.8418
  134MOL0     C18369  11.446  11.637   2.945  0.1905 -0.1411  0.1837
  134MOL0     C18370  11.514  11.662   2.812  1.2154 -0.0094  0.0481
  134MOL0     N18371  11.614  11.769   2.835  0.1123  0.1249  0.3229
  134MOL0     C18372  11.744  11.750   2.883  0.2136 -0.0435 -0.6389
  134MOL0     C18373  11.804  11.873   2.867 -0.1552  0.5343 -0.4125
  134MOL0     C18374  11.940  11.917   2.913 -0.8548 -0.2274  0.2003
  134MOL0     C18375  11.939  11.961   3.050 -0.2528  0.3444 -0.8186
  134MOL0     C18376  12.070  12.033   3.093  0.2551  0.4953  0.8651
  134MOL0     C18377  12.074  12.085   3.234 -0.2827  0.1766  0.6340
  134MOL0     O18378  12.195  12.174   3.239  0.0509  0.1081 -1.2063
  134MOL0     C18379  12.217  12.236   3.361  1.0694  0.5980 -0.3176
  134MOL0     C18380  12.336  12.295   3.359 -0.2225 -0.6121  0.1962
  134MOL0     C18381  12.381  12.371   3.464 -0.4050 -0.1457 -0.2677
  134MOL0     C18382  12.526  12.422   3.451  0.4230 -0.5144 -0.9336
  134MOL0     C18383  12.292  12.403   3.567  0.3930  0.8476 -0.3720
  134MOL0     C18384  12.323  12.474   3.693 -0.7793  0.8206 -0.1208
  134MOL0     O18385  12.226  12.499   3.784 -0.0132  0.6081 -0.4088
  134MOL0     C18386  12.231  12.613   3.855 -0.0426 -0.7524 -0.7536
  134MOL0     C18387  12.237  12.731   3.782 -0.0001 -0.9599  0.9009
  134MOL0     C18388  12.231  12.862   3.839 -0.7768 -0.6698 -0.2201
  134MOL0     C18389  12.211  12.868   3.973 -1.2023  0.5167  0.8562
  134MOL0     O18390  12.209  12.980   4.048  0.2860 -0.3850 -0.1152
  134MOL0     C18391  12.084  13.053   4.055 -0.0219  0.0131  0.1740
  134MOL0     C18392  12.020  13.094   4.187 -0.9913 -0.1043  0.0219
  134MOL0     C18393  11.970  12.975   4.264 -0.4280 -0.3653 -0.7735
  134MOL0     C18394  11.947  12.991   4.412 -0.4008 -0.6898 -0.0655
  134MOL0     C18395  12.076  13.029   4.479 -0.8524 -0.0719  0.0222
  134MOL0     C18396  12.186  12.922   4.471 -0.6887 -0.9908  0.3132
  134MOL0     C18397  12.205  12.843   4.595  0.1168 -0.2676 -1.4984
  134MOL0     C18398  12.096  12.753   4.639  0.5372  0.8240  0.0925
  134MOL0    Cl18399  12.128  12.718   4.815 -0.0309 -0.5517  0.0885
  134MOL0     C18400  12.208  12.750   4.050 -1.0134  0.5823 -1.0203
  134MOL0     C18401  12.223  12.625   3.994 -0.5112 -0.0751  0.8261
  134MOL0     O18402  12.438  12.513   3.705  0.0445  0.5231  0.1996
  134MOL0     C18403  12.157  12.355   3.558  0.5010  0.9489  0.5509
  134MOL0     C18404  12.121  12.267   3.463  0.1117  0.2841  0.0565
  134MOL0     N18405  11.714  11.948   2.800 -0.5993  0.5258 -0.1963
  134MOL0     N18406  11.594  11.899   2.793  0.0333 -0.2130  0.3572
  134MOL0     C18407  10.769  11.179   3.286  0.0927  0.1865 -0.2313
  134MOL0     C18408  10.728  11.155   3.413  0.2969  0.1194 -0.0489
  134MOL0     C18409  10.599  11.142   3.825 -0.6806  0.1523 -0.4398
  134MOL0     C18410  10.466  11.180   3.840  0.6607 -1.0573 -1.1358
  134MOL0     C18411  10.389  11.142   3.956  0.7530 -0.6034 -0.5039
  134MOL0     C18412  10.445  11.079   4.062 -0.6191  0.3014 -0.3376
  134MOL0     O18413  10.362  11.040   4.159  0.0818 -0.1282  0.4672
  134MOL0     C18414  10.292  11.148   4.231  0.3078 -0.5897  1.3967
  134MOL0     C18415  10.347  11.132   4.375  0.6399  0.8481  0.4716
  134MOL0     C18416  10.358  10.984   4.420 -0.1964  1.2584  0.4547
  134MOL0     C18417  10.433  10.970   4.548 -1.2421  0.4689 -0.1474
  134MOL0     C18418  10.457  10.828   4.573 -1.0654  0.3488 -0.0879
  134MOL0     C18419  10.471  10.707   4.594 -0.9420  0.5230  0.9117
  134MOL0     C18420  10.578  11.052   4.055  0.3686  0.6764 -0.0604
  134MOL0     C18421  10.648  11.072   3.933  0.3366  0.5045 -0.5187
  134MOL0     C18422  10.784  10.999   3.944  0.7315 -0.8898 -0.4778
  134MOL0     H18423  10.554  11.427   3.469  0.2825  0.4452  0.3334
  134MOL0     H18424  10.633  11.483   3.233 -0.3657  1.6467  1.7170
  134MOL0     H18425  10.806  11.137   2.974 -0.4129 -0.2871 -1.2664
  134MOL0     H18426  10.937  11.175   3.092 -1.1929  0.8855  1.7964
  134MOL0     H18427  10.992  11.191   2.853  1.8634  0.9422  0.4550
  134MOL0     H18428  10.876  11.328   2.824  0.4811  0.7430 -1.1886
  134MOL0     H18429  11.006  11.466   2.976  1.8631  0.8685  1.7633
  134MOL0     H18430  11.109  11.330   3.017  2.1758  0.7462 -0.6570
  134MOL0     H18431  11.195  11.306   2.786  0.3086 -0.9887 -0.2607
  134MOL0     H18432  11.077  11.417   2.720 -1.7381 -0.2564  0.6644
  134MOL0     H18433  11.165  11.596   2.882  0.5498 -0.8885  2.4887
  134MOL0     H18434  11.268  11.566   2.744  0.9984  0.0832  1.2426
  134MOL0     H18435  11.325  11.459   3.021 -2.1520 -1.5082 -0.3371
  134MOL0     H18436  11.430  11.436   2.880 -1.5534 -1.9618  2.6320
  134MOL0     H18437  11.526  11.633   3.020  3.1263  2.2972 -2.4957
  134MOL0     H18438  11.383  11.726   2.960  1.7001  1.3297 -1.6877
  134MOL0     H18439  11.568  11.582   2.761  0.3704  0.4563 -1.6482
  134MOL0     H18440  11.443  11.690   2.734  1.0281  0.9157  0.5421
  134MOL0     H18441  11.779  11.659   2.931 -3.3700 -1.6077 -0.6553
  134MOL0     H18442  11.970  11.999   2.847  0.3510 -0.9362 -0.1565
  134MOL0     H18443  12.011  11.834   2.904  0.6579  0.3147  4.7681
  134MOL0     H18444  11.861  12.037   3.058 -1.8939 -1.4323  0.8124
  134MOL0     H18445  11.920  11.882   3.123 -0.5016  1.4774  0.3657
  134MOL0     H18446  12.154  11.969   3.065 -1.9209 -1.3735 -2.0113
  134MOL0     H18447  12.084  12.119   3.027 -1.5491 -0.3878 -0.7735
  134MOL0     H18448  11.978  12.137   3.244 -0.0084  1.2056 -1.4599
  134MOL0     H18449  12.080  12.001   3.303  0.9749  0.1899  0.5640
  134MOL0     H18450  12.394  12.267   3.272 -1.4129 -1.8998 -0.2186
  134MOL0     H18451  12.583  12.379   3.368  7.9265  6.9456 -0.9087
  134MOL0     H18452  12.587  12.414   3.542  2.1876 -1.6771 -2.1580
  134MOL0     H18453  12.515  12.528   3.429 -0.4900 -0.7237 -1.5075
  134MOL0     H18454  12.250  12.722   3.674  0.3446  2.5162  0.5138
  134MOL0     H18455  12.251  12.945   3.772  3.9119  1.7006  3.4269
  134MOL0     H18456  12.104  13.157   4.027 -1.6051  1.3062  3.4640
  134MOL0     H18457  12.008  13.014   3.987  0.3881  1.8750 -1.4452
  134MOL0     H18458  12.091  13.162   4.234 -0.9854  1.7414 -2.4462
  134MOL0     H18459  11.939  13.167   4.174  1.6574  3.2737  0.9711
  134MOL0     H18460  12.038  12.891   4.244  0.4937  0.1356  0.1647
  134MOL0     H18461  11.884  12.938   4.208  0.1671 -1.9290 -0.7170
  134MOL0     H18462  11.907  12.896   4.447 -3.5674  0.8137  0.8057
  134MOL0     H18463  11.876  13.074   4.425  0.7600  0.5599 -1.3393
  134MOL0     H18464  12.112  13.120   4.430 -0.9796 -0.2107 -0.3363
  134MOL0     H18465  12.053  13.069   4.578  2.7878  1.7736  0.2883
  134MOL0     H18466  12.283  12.964   4.442 -1.0721  0.2283  0.7425
  134MOL0     H18467  12.170  12.839   4.401 -0.0748 -1.4341  0.6815
  134MOL0     H18468  12.227  12.909   4.679 -1.4358  1.5792 -2.4533
  134MOL0     H18469  12.294  12.784   4.569  0.1716 -1.0403  0.3041
  134MOL0     H18470  12.085  12.666   4.573 -1.3462  0.9464  0.2038
  134MOL0     H18471  11.998  12.801   4.635  0.6572  1.0409 -0.2263
  134MOL0     H18472  12.199  12.768   4.157  0.7452 -1.8682 -0.3779
  134MOL0     H18473  12.232  12.537   4.058 -1.6342 -1.8318 -1.3177
  134MOL0     H18474  12.081  12.382   3.631  1.4645  3.3339  0.7726
  134MOL0     H18475  12.019  12.232   3.453 -0.1930  0.4205  2.2387
  134MOL0     H18476  10.832  11.097   3.253  1.1075  1.1047 -0.6503
  134MOL0     H18477  10.735  11.055   3.454 -0.7435 -0.6289 -1.6250
  134MOL0     H18478  10.420  11.246   3.768 -0.2747  3.3146  2.9734
  134MOL0     H18479  10.283  11.165   3.948  1.1048  0.7359 -1.7787
  134MOL0     H18480  10.308  11.251   4.200 -0.1803 -0.8889  0.0616
  134MOL0     H18481  10.184  11.128   4.229  0.3353 -0.7407  1.3570
  134MOL0     H18482  10.295  11.192   4.450 -1.9603  0.7322 -1.0907
  134MOL0     H18483  10.445  11.177   4.361 -0.0965  2.0241 -1.1708
  134MOL0     H18484  10.254  10.957   4.439  1.1157 -3.4150  2.5111
  134MOL0     H18485  10.394  10.916   4.343  0.2093  0.0258  1.6918
  134MOL0     H18486  10.376  11.011   4.632  1.1365  3.7467  0.0431
  134MOL0     H18487  10.531  11.016   4.556 -1.4221  0.7236  0.7438
  134MOL0     H18488  10.481  10.600   4.604  0.4557 -0.2086 -4.7745
  134MOL0     H18489  10.613  10.992   4.138  2.8309  1.9906 -0.0524
  134MOL0     H18490  10.864  11.062   3.985  0.7905 -3.2151  3.4168
  134MOL0     H18491  10.782  10.916   4.015 -1.1926  0.0553  0.6554
  134MOL0     H18492  10.817  10.974   3.843 -2.0620 -0.3587 -1.6319
  135MOL0     O18493   2.250   3.014   0.108 -0.1161  0.0970  0.3873
  135MOL0     C18494   2.304   3.075   0.199  0.0049  0.0580 -1.0167
  135MOL0     O18495   2.379   3.017   0.297 -0.0826 -0.2339 -0.7582
  135MOL0     C18496   2.401   2.880   0.299  0.2600  0.6342 -0.5382
  135MOL0     C18497   2.530   2.838   0.314 -0.2759 -0.4831 -0.8803
  135MOL0     C18498   2.580   2.709   0.310  0.0914 -0.3457  0.8023
  135MOL0     C18499   2.493   2.607   0.284  0.5024 -0.8938  0.4363
  135MOL0     O18500   2.534   2.477   0.285  0.2341 -0.0203 -0.1724
  135MOL0     C18501   2.629   2.444   0.186 -0.5375  0.2291  0.2712
  135MOL0     C18502   2.664   2.293   0.203 -1.0619  0.7996  1.4218
  135MOL0     C18503   2.750   2.232   0.098 -0.4505 -0.6369  0.1301
  135MOL0     C18504   2.820   2.097   0.122  0.3697 -0.1758 -1.3401
  135MOL0     C18505   2.721   1.987   0.123 -0.0463  0.1989 -0.6514
  135MOL0     C18506   2.783   1.847   0.154  0.2877 -0.2742  0.7230
  135MOL0     C18507   2.882   1.799   0.054 -0.6982  0.6799  0.3992
  135MOL0     C18508   2.918   1.646   0.075  1.0203 -0.2949  0.1597
  135MOL0     N18509   2.807   1.564   0.025 -0.1376 -1.1071  0.2071
  135MOL0     C18510   2.737   1.578  -0.096  0.4011  0.2340 -0.4761
  135MOL0     C18511   2.627   1.509  -0.074 -0.5542 -0.6461 -1.2646
  135MOL0     C18512   2.515   1.506  -0.164  0.0350  0.1086 -0.5522
  135MOL0     C18513   2.378   1.555  -0.096 -0.0952  0.3875  1.1424
  135MOL0     C18514   2.317   1.683  -0.152 -0.4657 -0.2127 -0.2136
  135MOL0     C18515   2.183   1.736  -0.098 -0.9298  0.8029 -0.0917
  135MOL0     O18516   2.148   1.861  -0.147 -0.3847  0.1951  0.3027
  135MOL0     C18517   2.087   1.880  -0.271 -0.4810 -0.6700  0.1663
  135MOL0     C18518   1.954   1.860  -0.289  0.0407 -0.1780  0.3519
  135MOL0     C18519   1.907   1.847  -0.416 -0.2449 -0.1366 -0.0519
  135MOL0     C18520   1.762   1.801  -0.425  0.5514 -0.6317 -0.6769
  135MOL0     C18521   1.992   1.865  -0.528  0.6292 -0.6680 -0.4240
  135MOL0     C18522   1.942   1.849  -0.673  1.3242 -0.2501 -1.2268
  135MOL0     O18523   1.953   1.953  -0.752 -0.6426  0.0891  0.2967
  135MOL0     C18524   1.943   1.943  -0.891 -0.2812 -1.1457  0.4282
  135MOL0     C18525   1.921   2.062  -0.956 -0.4378 -0.9642  0.3118
  135MOL0     C18526   1.923   2.066  -1.092 -0.5753  0.1682 -0.3399
  135MOL0     C18527   1.958   1.957  -1.178  0.1496 -0.2559 -0.9371
  135MOL0     O18528   1.949   1.966  -1.315 -0.6308  0.7656 -0.9736
  135MOL0     C18529   1.838   1.904  -1.377  0.2361 -0.4322  0.1905
  135MOL0     C18530   1.846   1.907  -1.529  0.5757  0.2279  0.5481
  135MOL0     C18531   1.717   1.854  -1.584  0.0058 -0.5438  0.0768
  135MOL0     C18532   1.679   1.917  -1.715  0.0302 -0.8254  0.3935
  135MOL0     C18533   1.576   1.834  -1.780 -0.4741  0.5204  0.1019
  135MOL0     C18534   1.556   1.895  -1.928  0.5947 -0.0854 -0.0264
  135MOL0     C18535   1.447   1.808  -1.994 -0.1607 -0.3956 -0.0017
  135MOL0     C18536   1.430   1.860  -2.142 -0.1977  0.3410  0.0858
  135MOL0    Cl18537   1.295   1.779  -2.214  0.6546  0.0422 -0.1758
  135MOL0     C18538   1.968   1.830  -1.119 -0.3264  0.0245 -1.0046
  135MOL0     C18539   1.962   1.824  -0.975 -1.0112 -0.3814 -0.4843
  135MOL0     O18540   1.896   1.740  -0.701  0.3005  0.6588 -0.1238
  135MOL0     C18541   2.120   1.913  -0.509  0.0468 -0.3845  0.6032
  135MOL0     C18542   2.175   1.916  -0.379 -0.0686 -0.6436 -0.6007
  135MOL0     N18543   2.622   1.442   0.051 -0.7189 -0.2331 -0.1527
  135MOL0     N18544   2.731   1.491   0.107 -0.6731  0.2930 -0.0699
  135MOL0     C18545   2.357   2.638   0.274 -0.0134 -0.3497 -0.2045
  135MOL0     C18546   2.312   2.772   0.273 -0.1266  0.2994  0.0283
  135MOL0     C18547   2.287   3.222   0.216  1.1766  0.7715  0.3143
  135MOL0     C18548   2.368   3.276   0.321 -0.6613  0.6965  1.1618
  135MOL0     C18549   2.363   3.411   0.347  0.2484 -0.2893  0.4430
  135MOL0     C18550   2.291   3.498   0.260 -0.2388  0.2419  0.0328
  135MOL0     O18551   2.282   3.634   0.277 -0.4192  0.9234  0.3245
  135MOL0     C18552   2.355   3.713   0.367 -0.2297 -0.6927  0.2626
  135MOL0     C18553   2.510   3.711   0.332 -0.2330 -0.6371  0.3618
  135MOL0     C18554   2.547   3.775   0.202 -0.7621 -1.3802  0.4538
  135MOL0     C18555   2.697   3.806   0.194 -1.0611 -1.1725  0.0902
  135MOL0     C18556   2.744   3.853   0.062  0.4392  0.3446  0.4470
  135MOL0     C18557   2.798   3.884  -0.048  0.5989 -0.5073 -0.8215
  135MOL0     C18558   2.204   3.442   0.165 -0.5195 -0.1406 -0.5399
  135MOL0     C18559   2.203   3.307   0.141 -0.2480  0.4622  1.3530
  135MOL0     C18560   2.125   3.271   0.015 -0.3285 -0.4100 -0.3787
  135MOL0     H18561   2.584   2.923   0.354 -0.3479 -0.9459  0.2324
  135MOL0     H18562   2.687   2.696   0.324  0.6284 -0.6347 -2.5596
  135MOL0     H18563   2.724   2.496   0.197  3.0805 -5.2414 -1.0655
  135MOL0     H18564   2.590   2.449   0.083  0.1387 -0.6837 -0.0398
  135MOL0     H18565   2.717   2.296   0.299  0.4720  2.3148  0.5824
  135MOL0     H18566   2.574   2.233   0.222  0.2299 -0.7089  3.1595
  135MOL0     H18567   2.687   2.229   0.009  0.6462  2.8748 -0.9395
  135MOL0     H18568   2.839   2.290   0.072 -0.5359  1.0151  3.1577
  135MOL0     H18569   2.903   2.077   0.054  1.5371 -3.2485  0.7628
  135MOL0     H18570   2.865   2.094   0.222 -0.0091 -1.0154 -1.1869
  135MOL0     H18571   2.664   1.980   0.030  1.8185  0.9149 -1.9099
  135MOL0     H18572   2.637   2.014   0.188  0.3806  1.1719 -0.4932
  135MOL0     H18573   2.826   1.854   0.255 -4.5241  1.3050  2.9699
  135MOL0     H18574   2.699   1.776   0.158 -0.2889  0.3392 -0.2500
  135MOL0     H18575   2.971   1.861   0.068 -0.2322 -0.8115  6.5677
  135MOL0     H18576   2.865   1.815  -0.053 -0.3043  0.2890  0.2767
  135MOL0     H18577   3.009   1.622   0.019  1.7794  0.5986  0.9951
  135MOL0     H18578   2.934   1.634   0.182  0.4342  0.8404  0.3896
  135MOL0     H18579   2.760   1.651  -0.173  0.2681 -1.8977 -2.6824
  135MOL0     H18580   2.510   1.400  -0.192 -1.0058 -0.6605  2.2396
  135MOL0     H18581   2.524   1.568  -0.253  0.5736  4.3378  2.1669
  135MOL0     H18582   2.295   1.485  -0.105  0.2958 -0.0360  0.7350
  135MOL0     H18583   2.395   1.585   0.008 -0.1888  0.9364  1.0038
  135MOL0     H18584   2.386   1.768  -0.151 -1.8041  0.9139  0.2034
  135MOL0     H18585   2.299   1.669  -0.259  2.2985 -0.6982 -0.6927
  135MOL0     H18586   2.100   1.675  -0.133 -1.1744  1.9462 -1.6108
  135MOL0     H18587   2.188   1.731   0.011 -2.0219 -0.6247 -0.0759
  135MOL0     H18588   1.893   1.856  -0.199 -0.1683 -0.1661  0.2140
  135MOL0     H18589   1.685   1.849  -0.363  1.8393  1.1900 -0.4145
  135MOL0     H18590   1.756   1.693  -0.407 -2.6258 -0.8364 -2.3005
  135MOL0     H18591   1.724   1.827  -0.524 -0.7032 -0.3119 -0.1350
  135MOL0     H18592   1.914   2.155  -0.901  0.5781 -1.7311  1.8168
  135MOL0     H18593   1.914   2.153  -1.156  3.0091 -1.6740 -3.7805
  135MOL0     H18594   1.831   1.800  -1.344 -0.2499 -0.0112  1.4586
  135MOL0     H18595   1.741   1.947  -1.349  0.0877  0.6092 -1.7145
  135MOL0     H18596   1.861   2.015  -1.543 -1.7895  0.6806  1.0037
  135MOL0     H18597   1.933   1.856  -1.570  0.0442 -0.1614 -0.1318
  135MOL0     H18598   1.631   1.887  -1.525 -0.2210 -1.9456  0.5571
  135MOL0     H18599   1.715   1.745  -1.585  0.0699 -0.6016 -3.0432
  135MOL0     H18600   1.762   1.918  -1.786  0.1548 -1.2059  0.5277
  135MOL0     H18601   1.647   2.019  -1.694  1.9910 -0.6366  2.9044
  135MOL0     H18602   1.616   1.732  -1.789  0.6421  0.9800 -0.3765
  135MOL0     H18603   1.488   1.824  -1.716  1.4483 -2.7459  2.5626
  135MOL0     H18604   1.650   1.900  -1.984 -1.2053  0.1812 -3.3405
  135MOL0     H18605   1.513   1.995  -1.920 -2.0340 -1.1824  0.5768
  135MOL0     H18606   1.352   1.831  -1.945 -0.0504  0.3899 -0.1435
  135MOL0     H18607   1.470   1.701  -1.998 -1.8371 -0.7746 -0.1430
  135MOL0     H18608   1.511   1.823  -2.204  0.9398  1.1202  1.0581
  135MOL0     H18609   1.418   1.968  -2.142 -0.1398  0.3479  0.2234
  135MOL0     H18610   1.966   1.744  -1.186 -3.2909 -1.3056  0.5559
  135MOL0     H18611   1.975   1.728  -0.926 -1.8719  0.1347  0.8024
  135MOL0     H18612   2.187   1.936  -0.591 -2.5175  0.6809 -1.3158
  135MOL0     H18613   2.281   1.933  -0.365  0.1442 -1.9466 -0.4827
  135MOL0     H18614   2.283   2.561   0.254 -0.5328  0.8151 -3.3139
  135MOL0     H18615   2.208   2.802   0.279 -0.4085 -0.8860  1.5228
  135MOL0     H18616   2.432   3.217   0.387 -1.2498  1.0944  2.1077
  135MOL0     H18617   2.428   3.439   0.430 -0.2740  1.3219  0.3377
  135MOL0     H18618   2.318   3.815   0.354 -1.7028 -1.4209 -1.7061
  135MOL0     H18619   2.344   3.691   0.474 -0.0200 -0.5771  0.3095
  135MOL0     H18620   2.558   3.613   0.343 -0.1077 -0.3898  2.4020
  135MOL0     H18621   2.559   3.779   0.402  0.9650 -2.4014  1.3341
  135MOL0     H18622   2.522   3.708   0.119  1.2117  0.7841 -2.0712
  135MOL0     H18623   2.478   3.859   0.185 -1.7737 -2.4709 -1.1514
  135MOL0     H18624   2.769   3.730   0.227  0.3489 -0.0068 -0.2209
  135MOL0     H18625   2.729   3.882   0.267 -0.2388 -2.0347  0.6559
  135MOL0     H18626   2.836   3.901  -0.147 -0.7994 -0.2803 -1.3485
  135MOL0     H18627   2.147   3.514   0.107  1.6705  0.9525 -1.4317
  135MOL0     H18628   2.035   3.227   0.059  0.3297 -2.0636 -0.6534
  135MOL0     H18629   2.103   3.358  -0.048 -0.2867  1.6093  2.1909
  135MOL0     H18630   2.170   3.193  -0.046 -0.6651 -1.0276  0.1511
  136MOL0     O18631   1.449   1.624   8.928  0.0105  0.2494 -0.3265
  136MOL0     C18632   1.358   1.540   8.898 -0.8463  1.0335 -1.1191
  136MOL0     O18633   1.291   1.458   8.986 -0.4900 -0.1670 -0.2549
  136MOL0     C18634   1.312   1.450   9.121 -1.3668 -0.0523 -0.4676
  136MOL0     C18635   1.204   1.430   9.205  0.0472  0.0396 -0.1310
  136MOL0     C18636   1.241   1.411   9.345  0.0788 -0.8872 -0.1142
  136MOL0     C18637   1.371   1.417   9.395 -0.2249 -0.2249  1.0546
  136MOL0     O18638   1.393   1.405   9.529 -0.6286 -1.3503 -0.3468
  136MOL0     C18639   1.329   1.307   9.613  0.3632 -0.4551  0.4362
  136MOL0     C18640   1.400   1.317   9.749 -0.7776 -0.8872  0.4211
  136MOL0     C18641   1.380   1.459   9.824 -0.4994  0.4511 -0.5301
  136MOL0     C18642   1.361   1.427   9.978  0.1971  1.1254  0.8031
  136MOL0     C18643   1.377   1.546  10.055  0.2970  1.2668  0.6443
  136MOL0     C18644   1.319   1.517  10.196 -0.0945 -0.4198  0.2557
  136MOL0     C18645   1.340   1.626  10.293 -0.2248 -1.4022 -0.3074
  136MOL0     C18646   1.480   1.687  10.305 -0.3621 -0.1450 -0.5082
  136MOL0     N18647   1.587   1.596  10.346  0.0792 -0.0908  0.4199
  136MOL0     C18648   1.607   1.579  10.480 -1.3583 -0.0601  0.5346
  136MOL0     C18649   1.719   1.514  10.493 -0.4363  1.2404 -0.3408
  136MOL0     C18650   1.784   1.481  10.622  0.5008  1.2681 -0.1911
  136MOL0     C18651   1.856   1.344  10.602 -0.3938 -0.0845 -0.8591
  136MOL0     C18652   1.904   1.265  10.723 -0.1994  0.5193  0.1422
  136MOL0     C18653   1.796   1.167  10.772  0.2152  0.4103  0.9846
  136MOL0     O18654   1.801   1.076  10.670 -0.1585  0.4441  0.4573
  136MOL0     C18655   1.692   0.996  10.636  0.0735 -0.5256 -0.3031
  136MOL0     C18656   1.553   1.016  10.686 -1.1100  0.2002  0.2340
  136MOL0     C18657   1.447   0.934  10.647 -0.5393 -0.4962 -0.1760
  136MOL0     C18658   1.316   0.979  10.700  0.4905 -0.2785 -0.1454
  136MOL0     C18659   1.471   0.821  10.566 -0.0021  0.1057  0.0520
  136MOL0     C18660   1.365   0.737  10.521 -0.5582 -0.0436  0.6066
  136MOL0     O18661   1.378   0.669  10.398 -0.1682 -0.0294  0.5492
  136MOL0     C18662   1.270   0.607  10.348 -0.0481 -0.2032 -0.2567
  136MOL0     C18663   1.179   0.686  10.273 -0.7625  0.5294  0.2066
  136MOL0     C18664   1.072   0.622  10.210 -0.1418  0.0001 -0.7058
  136MOL0     C18665   1.053   0.485  10.210 -0.1162 -0.7960 -1.0256
  136MOL0     O18666   0.947   0.443  10.138 -0.1196 -0.2398 -0.4339
  136MOL0     C18667   0.892   0.311  10.148 -0.1674  0.4642  0.1486
  136MOL0     C18668   0.760   0.290  10.074 -0.1759  0.3132 -0.2634
  136MOL0     C18669   0.698   0.150  10.103  1.0894  0.2119  0.0412
  136MOL0     C18670   0.554   0.141  10.067 -0.4513 -0.3681  0.5028
  136MOL0     C18671   0.516  -0.003  10.024 -0.4319 -0.2394  0.5535
  136MOL0     C18672   0.379   0.002   9.956 -0.5545 -0.0968  0.1409
  136MOL0     C18673   0.323  -0.129   9.932 -1.8818  0.1366  0.4286
  136MOL0     C18674   0.179  -0.129   9.878 -0.3459  0.1904  0.4432
  136MOL0    Cl18675   0.188  -0.050   9.715  0.4412 -0.1417  0.2173
  136MOL0     C18676   1.148   0.403  10.285  0.3607 -0.5593 -0.0353
  136MOL0     C18677   1.249   0.466  10.362  0.2627 -0.0301 -0.6324
  136MOL0     O18678   1.269   0.718  10.595 -0.3562  0.5413  0.0843
  136MOL0     C18679   1.605   0.801  10.524  0.1153  0.2143  0.0191
  136MOL0     C18680   1.710   0.888  10.553  0.2018 -0.0505  0.2251
  136MOL0     N18681   1.766   1.494  10.354  0.1950 -0.5241 -0.3441
  136MOL0     N18682   1.681   1.545  10.277 -0.5405  0.1778 -0.0596
  136MOL0     C18683   1.474   1.435   9.298  0.2069  0.0023 -0.0337
  136MOL0     C18684   1.446   1.458   9.162 -0.1014  0.1857 -0.6734
  136MOL0     C18685   1.314   1.532   8.758 -0.0175  0.3409 -0.3124
  136MOL0     C18686   1.276   1.658   8.710 -0.2757  0.0259  0.0153
  136MOL0     C18687   1.235   1.671   8.583  0.3722  0.4026 -1.2572
  136MOL0     C18688   1.228   1.561   8.501 -0.1821 -0.0268  0.2304
  136MOL0     O18689   1.183   1.575   8.373  0.3013 -0.7043 -0.3377
  136MOL0     C18690   1.231   1.683   8.289  1.4861 -0.0679 -0.3607
  136MOL0     C18691   1.382   1.708   8.287  0.6135 -0.1705  0.4846
  136MOL0     C18692   1.462   1.585   8.229  0.0876 -0.7460  0.1802
  136MOL0     C18693   1.412   1.529   8.097 -1.1580  0.7576  0.8051
  136MOL0     C18694   1.491   1.413   8.052  0.7664  0.2999 -0.2551
  136MOL0     C18695   1.572   1.330   8.018  0.0536  0.7703  0.1874
  136MOL0     C18696   1.255   1.432   8.543  0.4567  0.6545  0.8799
  136MOL0     C18697   1.293   1.413   8.680  0.6190  0.4409 -1.2906
  136MOL0     C18698   1.311   1.282   8.743  0.5776  0.7019 -0.6003
  136MOL0     H18699   1.099   1.417   9.182  0.1680 -3.1892  0.7096
  136MOL0     H18700   1.167   1.398   9.423 -0.3784  1.9632  0.0284
  136MOL0     H18701   1.349   1.205   9.580  1.4192 -0.7198  1.7769
  136MOL0     H18702   1.222   1.329   9.614  0.7548  1.8861 -1.2736
  136MOL0     H18703   1.366   1.230   9.806  0.2350 -2.0970 -0.7656
  136MOL0     H18704   1.506   1.301   9.731 -0.5039  0.1757  1.0122
  136MOL0     H18705   1.465   1.527   9.815 -2.7265  3.2073 -2.6583
  136MOL0     H18706   1.301   1.517   9.775 -0.8336  2.9991  2.7306
  136MOL0     H18707   1.264   1.379   9.997  0.4988 -0.8696 -2.0092
  136MOL0     H18708   1.442   1.360  10.006 -1.1645 -0.6007  0.7674
  136MOL0     H18709   1.334   1.637  10.012 -1.2995  0.1843 -0.1515
  136MOL0     H18710   1.483   1.574  10.062  0.0653  3.0066 -1.6310
  136MOL0     H18711   1.211   1.497  10.203 -0.2192  0.3053  0.4754
  136MOL0     H18712   1.371   1.427  10.230 -0.1410 -0.4445  0.2621
  136MOL0     H18713   1.318   1.592  10.395 -1.3517 -2.9431 -1.0395
  136MOL0     H18714   1.273   1.709  10.268  2.3341  0.7815 -0.3581
  136MOL0     H18715   1.501   1.740  10.212 -0.3229  1.2741  0.2871
  136MOL0     H18716   1.485   1.767  10.379  1.3001 -1.3481  0.7710
  136MOL0     H18717   1.559   1.618  10.570 -0.3849 -0.3229  1.1857
  136MOL0     H18718   1.706   1.485  10.698 -0.9956 -2.0601 -1.3933
  136MOL0     H18719   1.858   1.559  10.646 -0.5314  2.4600 -0.7479
  136MOL0     H18720   1.792   1.277  10.544  0.8587 -2.0149 -0.0889
  136MOL0     H18721   1.945   1.373  10.545 -0.2158 -0.6955 -0.8937
  136MOL0     H18722   1.993   1.204  10.703 -0.3833  0.1217  0.5247
  136MOL0     H18723   1.935   1.324  10.809 -2.6981  0.6604  1.0119
  136MOL0     H18724   1.811   1.135  10.876  0.3565  0.7599  1.0753
  136MOL0     H18725   1.702   1.224  10.777 -1.6245 -2.2858 -0.3014
  136MOL0     H18726   1.537   1.096  10.758 -1.6986 -0.2652  0.6388
  136MOL0     H18727   1.316   1.089  10.697  0.6431 -0.2952 -1.7008
  136MOL0     H18728   1.304   0.933  10.798  1.9182 -0.1129  0.1336
  136MOL0     H18729   1.237   0.952  10.629  1.2534  0.0623 -1.1505
  136MOL0     H18730   1.199   0.792  10.260  1.2207  0.6340  3.1661
  136MOL0     H18731   0.986   0.677  10.171 -1.3518 -0.2753  1.4533
  136MOL0     H18732   0.970   0.241  10.116  0.0509 -1.2038  3.8204
  136MOL0     H18733   0.874   0.299  10.255 -1.0110  4.2355  0.5745
  136MOL0     H18734   0.702   0.379  10.101 -1.4668 -0.2644 -1.0230
  136MOL0     H18735   0.775   0.298   9.966  0.5543  1.5345 -0.0850
  136MOL0     H18736   0.725   0.115  10.203 -0.8958  1.5849  1.1178
  136MOL0     H18737   0.751   0.083  10.034  1.5971 -1.8940  2.3194
  136MOL0     H18738   0.533   0.196   9.975 -1.5241 -2.2166 -0.4044
  136MOL0     H18739   0.498   0.170  10.156  0.6245 -0.2501  1.1497
  136MOL0     H18740   0.593  -0.040   9.955 -1.1725  1.5027 -1.2941
  136MOL0     H18741   0.517  -0.069  10.111  1.9126 -0.0481  0.7499
  136MOL0     H18742   0.376   0.054   9.860 -0.7339 -0.8699 -0.2869
  136MOL0     H18743   0.306   0.049  10.022 -0.7381  2.3002 -1.6528
  136MOL0     H18744   0.328  -0.187  10.025  1.4097 -1.1419 -0.3983
  136MOL0     H18745   0.401  -0.173   9.869 -2.0097  1.6218 -0.8341
  136MOL0     H18746   0.116  -0.066   9.942  0.3284  1.4706 -0.1009
  136MOL0     H18747   0.143  -0.232   9.871 -0.5807  0.3252 -0.4965
  136MOL0     H18748   1.137   0.296  10.293  1.8638 -0.8750 -1.6535
  136MOL0     H18749   1.329   0.408  10.407  3.2255  3.8994 -0.2600
  136MOL0     H18750   1.631   0.725  10.451  2.4247  0.2661  0.6951
  136MOL0     H18751   1.804   0.879  10.499  1.0071  0.3875  1.5052
  136MOL0     H18752   1.579   1.447   9.321  0.5532 -1.3541 -0.8116
  136MOL0     H18753   1.528   1.453   9.091  0.5733 -0.5255  0.1179
  136MOL0     H18754   1.260   1.739   8.781  0.7782 -1.1325  1.6429
  136MOL0     H18755   1.210   1.772   8.552 -1.9328  0.7312  1.3851
  136MOL0     H18756   1.208   1.676   8.182  4.7533  0.6924 -1.2040
  136MOL0     H18757   1.188   1.780   8.317 -1.0692 -1.0474 -0.5479
  136MOL0     H18758   1.417   1.733   8.388 -1.0906  2.5784  0.5070
  136MOL0     H18759   1.402   1.800   8.231 -0.3616  1.2133  2.3204
  136MOL0     H18760   1.570   1.600   8.219 -0.1845  0.5626 -1.2299
  136MOL0     H18761   1.460   1.511   8.310  1.3373 -0.6045  0.3582
  136MOL0     H18762   1.408   1.609   8.022 -2.2596 -1.5784 -1.8059
  136MOL0     H18763   1.308   1.495   8.104 -1.3894  1.3958  0.5402
  136MOL0     H18764   1.654   1.266   7.993  1.8920  3.5391 -1.4088
  136MOL0     H18765   1.233   1.358   8.467 -1.2489  0.7143  1.2734
  136MOL0     H18766   1.248   1.269   8.831  1.5546  3.4746  0.6195
  136MOL0     H18767   1.278   1.207   8.670 -2.1186  2.4582 -1.3209
  136MOL0     H18768   1.415   1.253   8.765 -0.7872 -3.5681  1.3216
  137MOL0     O18769   6.486   3.971   1.706 -0.2916 -0.1154  0.2515
  137MOL0     C18770   6.450   3.861   1.664 -0.0763  1.2722 -1.3667
  137MOL0     O18771   6.450   3.745   1.743 -0.4777 -0.4147  0.9113
  137MOL0     C18772   6.517   3.748   1.862 -0.5740 -0.5128 -0.1220
  137MOL0     C18773   6.443   3.759   1.984 -0.5684 -0.3785  0.6883
  137MOL0     C18774   6.502   3.734   2.108  0.2908  0.2948 -0.0318
  137MOL0     C18775   6.636   3.682   2.113  0.4845 -0.3615  0.5300
  137MOL0     O18776   6.684   3.650   2.241 -0.8146 -0.1876  0.1085
  137MOL0     C18777   6.745   3.517   2.242  0.2897 -1.1301  0.8140
  137MOL0     C18778   6.771   3.492   2.379  0.1742 -0.3030  0.4106
  137MOL0     C18779   6.875   3.573   2.459  0.1158 -0.2509 -0.6602
  137MOL0     C18780   6.831   3.719   2.502 -0.9620  0.2356 -0.7405
  137MOL0     C18781   6.699   3.723   2.594 -0.4386  0.1950  0.9450
  137MOL0     C18782   6.679   3.864   2.638  0.8014 -0.6150 -1.1824
  137MOL0     C18783   6.543   3.899   2.714 -0.3180  0.1903  0.6643
  137MOL0     C18784   6.526   4.051   2.731  0.0585 -0.2116 -0.5177
  137MOL0     N18785   6.386   4.073   2.771 -0.3398 -0.3554 -0.3979
  137MOL0     C18786   6.280   4.072   2.695  0.5625  0.2395  0.8706
  137MOL0     C18787   6.168   4.094   2.778  0.2575  0.0614 -0.5666
  137MOL0     C18788   6.018   4.116   2.729 -1.0971  0.7283 -0.0336
  137MOL0     C18789   5.998   4.268   2.736 -0.4202 -0.2736  0.9817
  137MOL0     C18790   6.090   4.359   2.639  1.0009 -0.3391  0.3519
  137MOL0     C18791   6.075   4.509   2.672 -0.4245 -0.1589  0.0289
  137MOL0     O18792   5.938   4.551   2.679  0.3366  0.7192  0.5499
  137MOL0     C18793   5.928   4.688   2.666  1.7209 -0.0841  0.2945
  137MOL0     C18794   5.799   4.731   2.697  0.1455 -0.0422 -0.0732
  137MOL0     C18795   5.759   4.865   2.685  1.0838 -0.0599  0.2608
  137MOL0     C18796   5.618   4.890   2.719 -0.0151  0.5393  0.8691
  137MOL0     C18797   5.856   4.959   2.646 -0.2311  0.4092 -0.2064
  137MOL0     C18798   5.825   5.098   2.599 -0.5064 -0.0266  0.9930
  137MOL0     O18799   5.707   5.118   2.526 -0.3156  0.1784 -0.6550
  137MOL0     C18800   5.687   5.249   2.492  0.1287 -0.0058 -0.3093
  137MOL0     C18801   5.658   5.268   2.360  0.4882 -0.2074  0.5098
  137MOL0     C18802   5.652   5.395   2.308  0.3516 -0.1177  0.8586
  137MOL0     C18803   5.655   5.511   2.390 -0.1834 -0.3658 -0.3525
  137MOL0     O18804   5.635   5.641   2.343  0.3568 -0.2422 -0.3191
  137MOL0     C18805   5.525   5.652   2.247 -0.8006  0.8176 -0.8898
  137MOL0     C18806   5.484   5.806   2.230  0.5019  0.6184 -0.4764
  137MOL0     C18807   5.580   5.882   2.157  0.0379  0.6006  1.0117
  137MOL0     C18808   5.555   6.034   2.181  0.2603  0.5198 -0.3616
  137MOL0     C18809   5.620   6.132   2.075  0.2868 -0.0873 -0.3566
  137MOL0     C18810   5.772   6.114   2.079  0.8593 -0.6987  0.0367
  137MOL0     C18811   5.841   6.213   1.981 -0.7741  0.9022  0.1577
  137MOL0     C18812   5.997   6.223   2.020 -0.2509  0.2591  0.4981
  137MOL0    Cl18813   6.094   6.285   1.878  0.0239  0.1983 -0.2089
  137MOL0     C18814   5.677   5.492   2.524  0.3703 -0.2729 -0.7552
  137MOL0     C18815   5.693   5.363   2.578 -0.3018 -0.1585  0.3169
  137MOL0     O18816   5.916   5.181   2.632  0.1435 -0.7634 -0.3069
  137MOL0     C18817   5.989   4.914   2.632 -0.4427  0.3614  0.8646
  137MOL0     C18818   6.024   4.779   2.638  0.4476 -0.1425 -0.0317
  137MOL0     N18819   6.225   4.120   2.902  0.7468 -0.3747 -0.5707
  137MOL0     N18820   6.357   4.100   2.904  1.2530 -0.6869  0.9494
  137MOL0     C18821   6.718   3.691   1.999  0.0579 -0.4715  0.7167
  137MOL0     C18822   6.660   3.714   1.870  0.1737  1.1530 -0.2774
  137MOL0     C18823   6.396   3.853   1.521 -0.2056  0.6265  0.2477
  137MOL0     C18824   6.332   3.967   1.480  0.3401 -0.5381 -0.4357
  137MOL0     C18825   6.258   3.961   1.357  0.4908 -0.1626  0.1915
  137MOL0     C18826   6.253   3.850   1.281 -0.3376  0.5197 -0.2143
  137MOL0     O18827   6.185   3.851   1.162 -0.4949 -0.3871 -0.2812
  137MOL0     C18828   6.059   3.794   1.171 -0.3102  0.1837  0.1699
  137MOL0     C18829   5.955   3.898   1.183 -0.4390  0.0792 -0.1705
  137MOL0     C18830   5.932   3.963   1.043  0.4299 -0.3439 -0.0797
  137MOL0     C18831   5.830   4.070   1.012  0.2937 -0.8499 -0.2464
  137MOL0     C18832   5.695   4.027   1.035 -0.1951 -0.1582  0.9459
  137MOL0     C18833   5.588   3.983   1.072 -0.1721  0.0504  0.4270
  137MOL0     C18834   6.306   3.727   1.331  0.0284 -1.1579  0.8808
  137MOL0     C18835   6.376   3.732   1.455  0.3624 -0.1170  0.0812
  137MOL0     C18836   6.455   3.600   1.493 -0.0587 -0.6871  0.0788
  137MOL0     H18837   6.336   3.777   1.983 -0.1220  2.8131  0.8823
  137MOL0     H18838   6.442   3.755   2.196 -2.2821  1.2154 -1.8934
  137MOL0     H18839   6.840   3.502   2.189  0.4486 -0.4742  0.9053
  137MOL0     H18840   6.678   3.441   2.200 -2.0047  0.1108  2.0111
  137MOL0     H18841   6.684   3.498   2.445  0.1067  1.4199  0.2201
  137MOL0     H18842   6.807   3.389   2.377 -0.7284 -0.6470  1.0331
  137MOL0     H18843   6.892   3.519   2.553 -0.7261  2.8268  1.3921
  137MOL0     H18844   6.975   3.586   2.417  1.4133 -3.5796  1.0113
  137MOL0     H18845   6.913   3.741   2.570 -1.8429 -0.1531  0.5022
  137MOL0     H18846   6.829   3.793   2.421  3.0941  2.1717  0.6809
  137MOL0     H18847   6.710   3.653   2.677 -0.0029 -0.8465  0.0272
  137MOL0     H18848   6.621   3.694   2.522 -2.7529  0.6202  3.1341
  137MOL0     H18849   6.760   3.894   2.705 -0.2452 -1.7412  0.6778
  137MOL0     H18850   6.682   3.931   2.551 -1.4177 -0.5620 -1.2804
  137MOL0     H18851   6.546   3.862   2.817  0.3054  0.5344  0.7753
  137MOL0     H18852   6.458   3.852   2.663 -0.1771 -1.1183  1.5723
  137MOL0     H18853   6.603   4.075   2.805  0.5759 -2.3765 -0.2950
  137MOL0     H18854   6.545   4.113   2.643  0.2945  1.5384  0.7101
  137MOL0     H18855   6.279   4.056   2.588 -3.0198  0.2896  0.7518
  137MOL0     H18856   5.939   4.067   2.786 -0.0952  1.5527  2.1801
  137MOL0     H18857   6.010   4.078   2.627  1.4452  1.0683 -0.4304
  137MOL0     H18858   5.891   4.272   2.717 -0.3280 -0.0726  0.4967
  137MOL0     H18859   6.021   4.298   2.839 -1.3434 -2.5630  1.9121
  137MOL0     H18860   6.195   4.332   2.646  0.9612 -0.5728  0.0674
  137MOL0     H18861   6.066   4.337   2.534  1.5590 -0.3355  0.2246
  137MOL0     H18862   6.121   4.543   2.765 -0.3718  2.9386 -1.0177
  137MOL0     H18863   6.127   4.548   2.584  3.2534 -2.3006  1.0552
  137MOL0     H18864   5.728   4.649   2.704 -0.3494  0.3793 -0.0987
  137MOL0     H18865   5.593   4.803   2.781  0.5559 -1.6189 -1.7114
  137MOL0     H18866   5.553   4.897   2.632  0.7160  0.2316  0.2867
  137MOL0     H18867   5.601   4.975   2.785 -1.5246  0.5633  0.4833
  137MOL0     H18868   5.639   5.175   2.307  2.0640 -0.5312  0.4526
  137MOL0     H18869   5.624   5.412   2.204  1.5159  0.2483  0.5825
  137MOL0     H18870   5.560   5.626   2.146 -1.0910 -1.2971 -0.4846
  137MOL0     H18871   5.449   5.589   2.294  1.2346 -0.8313  0.3702
  137MOL0     H18872   5.388   5.812   2.178 -0.9175 -1.4905  1.6806
  137MOL0     H18873   5.481   5.851   2.330  0.5792 -1.9672  0.7616
  137MOL0     H18874   5.558   5.883   2.050 -2.2543  1.9163  1.4267
  137MOL0     H18875   5.681   5.850   2.184 -0.0999 -1.9051 -1.0808
  137MOL0     H18876   5.597   6.070   2.275  3.5349 -0.0315 -1.5055
  137MOL0     H18877   5.448   6.057   2.188  0.1519  0.4614 -1.6612
  137MOL0     H18878   5.586   6.122   1.972  1.0566 -5.3713 -0.4090
  137MOL0     H18879   5.606   6.231   2.120 -0.7850 -0.7515  0.8710
  137MOL0     H18880   5.800   6.015   2.042 -0.0131  0.1469 -3.2849
  137MOL0     H18881   5.799   6.127   2.184 -0.7497  2.4323  0.1980
  137MOL0     H18882   5.802   6.315   1.983 -4.1052 -0.2439  2.8207
  137MOL0     H18883   5.838   6.168   1.881  1.2338 -1.2504  0.9559
  137MOL0     H18884   6.033   6.122   2.042 -0.6430 -0.1920 -0.8424
  137MOL0     H18885   6.028   6.292   2.100  2.9817  0.6438 -0.9567
  137MOL0     H18886   5.683   5.581   2.586  0.1571 -0.1000 -0.9818
  137MOL0     H18887   5.699   5.357   2.686 -1.8704 -0.1714  0.4244
  137MOL0     H18888   6.074   4.973   2.598 -1.6313  1.5838 -0.1327
  137MOL0     H18889   6.127   4.745   2.623  1.2368  1.2941  1.7615
  137MOL0     H18890   6.826   3.678   2.000 -0.0793 -1.8323 -0.2222
  137MOL0     H18891   6.719   3.703   1.779 -1.6864  0.6788 -1.4837
  137MOL0     H18892   6.339   4.064   1.528  2.2294  0.1764 -2.0387
  137MOL0     H18893   6.205   4.048   1.319  0.8891 -0.0854 -0.1897
  137MOL0     H18894   6.044   3.744   1.075  1.7662  3.6991 -2.2267
  137MOL0     H18895   6.059   3.718   1.250 -1.5767  0.1481  0.1664
  137MOL0     H18896   5.979   3.974   1.258  0.1141 -0.8390  0.6105
  137MOL0     H18897   5.856   3.855   1.197 -0.5173  0.1309 -0.5386
  137MOL0     H18898   6.025   4.009   1.008 -0.1326  1.4135  0.5820
  137MOL0     H18899   5.898   3.880   0.980 -0.8790  0.3959 -0.3854
  137MOL0     H18900   5.840   4.092   0.905  2.8454 -1.3677 -0.1730
  137MOL0     H18901   5.848   4.159   1.072 -2.2444 -2.3098  2.9446
  137MOL0     H18902   5.487   3.968   1.106 -0.3746 -0.8210 -0.5279
  137MOL0     H18903   6.281   3.638   1.274 -1.1786  0.1731 -0.7400
  137MOL0     H18904   6.480   3.554   1.396  1.2541  1.7401 -0.8149
  137MOL0     H18905   6.547   3.629   1.543 -0.2288 -2.2040  1.3772
  137MOL0     H18906   6.397   3.535   1.560 -2.6287 -0.7083 -2.0086
  138MOL0     O18907  11.433  11.345   5.348 -0.3922 -1.0186  0.5419
  138MOL0     C18908  11.352  11.419   5.300 -0.0079 -0.1074 -0.4774
  138MOL0     O18909  11.382  11.524   5.221  0.7905 -0.6446  0.0480
  138MOL0     C18910  11.498  11.596   5.244  1.0310 -0.8358 -0.0529
  138MOL0     C18911  11.624  11.541   5.258 -0.1070 -0.2070 -0.4143
  138MOL0     C18912  11.730  11.623   5.291  0.9834 -0.0728  0.8176
  138MOL0     C18913  11.728  11.767   5.277  0.2323 -1.0706 -0.3259
  138MOL0     O18914  11.838  11.849   5.315 -0.1195 -0.3858  0.0215
  138MOL0     C18915  11.963  11.773   5.333  1.8119 -0.6730  1.4553
  138MOL0     C18916  11.979  11.751   5.487  0.7915  0.3490  0.3681
  138MOL0     C18917  12.130  11.734   5.531  0.7681  0.5704 -0.5195
  138MOL0     C18918  12.208  11.858   5.567  0.5459 -0.1419  0.9237
  138MOL0     C18919  12.352  11.836   5.558 -0.1906  0.7538  0.1603
  138MOL0     C18920  12.411  11.789   5.695  0.8370  0.2931  1.2230
  138MOL0     C18921  12.567  11.787   5.692 -0.6050  0.5014 -0.3277
  138MOL0     C18922  12.625  11.691   5.798 -0.6158 -0.6976 -0.8874
  138MOL0     N18923  12.587  11.549   5.781  0.0406  0.3063 -1.0672
  138MOL0     C18924  12.569  11.478   5.665 -0.9798  0.8455 -0.2151
  138MOL0     C18925  12.508  11.358   5.708 -0.0138  0.2908  0.8305
  138MOL0     C18926  12.453  11.250   5.622 -0.2927 -0.8061 -0.2914
  138MOL0     C18927  12.497  11.105   5.657  0.0846 -0.4652  0.5578
  138MOL0     C18928  12.383  11.011   5.652  0.4113 -0.6369 -0.7532
  138MOL0     C18929  12.301  11.020   5.519  0.0984  0.5226 -0.3209
  138MOL0     O18930  12.383  10.989   5.407  0.6408 -0.2133 -0.0580
  138MOL0     C18931  12.423  10.864   5.373  0.3070 -0.1136 -0.2111
  138MOL0     C18932  12.535  10.860   5.298  0.9793 -0.6602 -0.1515
  138MOL0     C18933  12.596  10.742   5.259 -0.5733 -0.1571 -1.2898
  138MOL0     C18934  12.724  10.765   5.182  0.4099 -0.0119  0.4350
  138MOL0     C18935  12.551  10.616   5.307 -0.1204 -1.2622  0.0921
  138MOL0     C18936  12.618  10.492   5.290  0.4694 -1.1904  0.3997
  138MOL0     O18937  12.549  10.372   5.293  0.5268 -0.5082  0.2392
  138MOL0     C18938  12.606  10.289   5.199  0.6134  0.1114  0.3931
  138MOL0     C18939  12.708  10.191   5.224 -0.1031  0.0281 -0.5754
  138MOL0     C18940  12.769  10.116   5.120 -0.2737  0.8612 -0.9174
  138MOL0     C18941  12.732  10.135   4.990 -0.0148 -0.3688  0.1200
  138MOL0     O18942  12.778  10.070   4.872  0.2919  0.1108 -0.9700
  138MOL0     C18943  12.917  10.028   4.865  0.1461  0.1590  0.6003
  138MOL0     C18944  12.931  10.007   4.715 -0.0509 -0.2746  0.5556
  138MOL0     C18945  13.072   9.952   4.667 -0.1490  0.4311 -0.3001
  138MOL0     C18946  13.083   9.981   4.518  0.3092  0.8947  0.5145
  138MOL0     C18947  13.219   9.954   4.447  0.0621 -0.3024  0.1499
  138MOL0     C18948  13.205   9.949   4.297  0.5009  0.6402 -0.6602
  138MOL0     C18949  13.144   9.822   4.261 -0.4777 -0.4650  0.0875
  138MOL0     C18950  13.144   9.798   4.110  0.2083 -0.9345 -0.1587
  138MOL0    Cl18951  13.075   9.943   4.034 -0.0866  0.5596  0.8119
  138MOL0     C18952  12.635  10.234   4.964 -0.5815 -0.3290 -0.2576
  138MOL0     C18953  12.577  10.314   5.060  0.5158 -0.8404  0.0401
  138MOL0     O18954  12.739  10.505   5.276  0.1881 -0.5387  0.2883
  138MOL0     C18955  12.438  10.627   5.388 -0.3358 -0.7639 -0.4493
  138MOL0     C18956  12.376  10.741   5.422  0.3584  0.2747  0.9399
  138MOL0     N18957  12.498  11.359   5.840 -0.1068  0.0006  0.4067
  138MOL0     N18958  12.528  11.481   5.881 -0.3235 -0.5878  0.7247
  138MOL0     C18959  11.608  11.822   5.225 -0.0750  0.1175 -0.3566
  138MOL0     C18960  11.495  11.738   5.207  0.1515  0.2513 -0.1855
  138MOL0     C18961  11.211  11.369   5.313  0.3745 -0.0380 -0.8969
  138MOL0     C18962  11.111  11.448   5.269  0.2972  1.3512  0.2852
  138MOL0     C18963  10.976  11.412   5.266 -0.2602 -0.0261 -1.2900
  138MOL0     C18964  10.942  11.280   5.299  1.1925  0.0907 -0.5554
  138MOL0     O18965  10.810  11.225   5.300 -0.2086 -0.7764 -0.3928
  138MOL0     C18966  10.717  11.262   5.199 -0.1183 -0.3393 -0.0150
  138MOL0     C18967  10.762  11.235   5.055  0.2414  0.5975  0.4742
  138MOL0     C18968  10.800  11.085   5.029 -0.1317 -0.6136  0.1895
  138MOL0     C18969  10.678  10.997   5.039  0.5397  0.4187 -0.3959
  138MOL0     C18970  10.555  11.039   4.965  0.6618  0.0766 -0.0704
  138MOL0     C18971  10.457  11.068   4.903  0.4566  0.6055 -0.4533
  138MOL0     C18972  11.042  11.186   5.332  0.6098  0.6237 -0.7348
  138MOL0     C18973  11.178  11.239   5.357  0.1271 -0.4325 -0.2761
  138MOL0     C18974  11.260  11.139   5.426 -0.9453  0.1621 -0.5380
  138MOL0     H18975  11.644  11.434   5.253  0.1259 -0.1042 -2.0104
  138MOL0     H18976  11.812  11.562   5.327 -0.6570 -1.9177  1.5468
  138MOL0     H18977  12.041  11.840   5.297  2.4047 -2.7389 -1.4611
  138MOL0     H18978  11.972  11.688   5.265  1.2183  0.4408 -0.0965
  138MOL0     H18979  11.924  11.826   5.546  0.3049  1.2056 -1.1183
  138MOL0     H18980  11.934  11.652   5.499  0.7839 -0.0413 -2.3668
  138MOL0     H18981  12.124  11.677   5.625 -3.5740  1.2785 -0.1308
  138MOL0     H18982  12.170  11.673   5.450 -1.1722 -0.2127 -0.9389
  138MOL0     H18983  12.189  11.929   5.486  0.0735  0.2469  1.3674
  138MOL0     H18984  12.174  11.898   5.663  3.6990  2.5904  1.0914
  138MOL0     H18985  12.394  11.933   5.530 -3.3163  2.0312 -0.4100
  138MOL0     H18986  12.379  11.762   5.481  1.2378  1.7128 -0.3037
  138MOL0     H18987  12.369  11.850   5.776 -1.1128 -1.2898  1.4916
  138MOL0     H18988  12.380  11.684   5.703  0.1607  0.4264  0.4428
  138MOL0     H18989  12.601  11.889   5.714  2.2279 -0.3459 -0.4010
  138MOL0     H18990  12.603  11.769   5.590 -1.7028  2.0934 -1.0392
  138MOL0     H18991  12.733  11.705   5.789 -0.0469 -1.6769  2.7704
  138MOL0     H18992  12.590  11.721   5.897  0.9509 -0.8669 -0.2629
  138MOL0     H18993  12.600  11.514   5.567 -0.2379 -1.2116 -0.7823
  138MOL0     H18994  12.464  11.271   5.515  1.2273 -2.1045 -0.4163
  138MOL0     H18995  12.348  11.269   5.649  0.8739  2.0464  3.0929
  138MOL0     H18996  12.573  11.084   5.581 -0.8287  0.0017 -0.5201
  138MOL0     H18997  12.539  11.109   5.758  1.4137  1.2055 -0.0211
  138MOL0     H18998  12.417  10.907   5.655  1.4094 -0.3266 -1.0020
  138MOL0     H18999  12.320  11.028   5.739  2.6897  1.9491  0.5522
  138MOL0     H19000  12.218  10.949   5.527  0.4513 -0.3432 -3.1451
  138MOL0     H19001  12.254  11.116   5.497  2.4222  1.3793 -1.9116
  138MOL0     H19002  12.580  10.955   5.268 -0.2319 -0.2010 -0.5961
  138MOL0     H19003  12.744  10.870   5.161 -3.0051  0.7504  0.3775
  138MOL0     H19004  12.714  10.719   5.084 -3.9580  2.0072 -0.3271
  138MOL0     H19005  12.816  10.734   5.232  1.2363  0.5812 -0.6775
  138MOL0     H19006  12.723  10.161   5.327 -0.0185 -0.5561 -0.7516
  138MOL0     H19007  12.837  10.033   5.137 -3.1340 -1.7711 -1.4034
  138MOL0     H19008  12.981  10.110   4.898 -1.0991  1.3049  0.2832
  138MOL0     H19009  12.935   9.930   4.911 -4.0444 -2.1030 -1.8826
  138MOL0     H19010  12.867   9.927   4.678  1.7115 -1.0971 -0.8965
  138MOL0     H19011  12.894  10.097   4.665 -2.7447 -1.4236  0.3591
  138MOL0     H19012  13.084   9.844   4.678  3.6244  0.7684  0.2478
  138MOL0     H19013  13.143  10.009   4.728 -0.1235  1.0296 -0.8755
  138MOL0     H19014  13.049  10.078   4.482 -2.3366  0.4401  1.5562
  138MOL0     H19015  13.009   9.904   4.492 -0.3344  1.1583  1.4896
  138MOL0     H19016  13.284  10.039   4.467 -0.7386 -0.0017  1.6363
  138MOL0     H19017  13.267   9.864   4.487  0.8772  1.1092  2.5382
  138MOL0     H19018  13.307   9.949   4.258  1.7299 -0.9753  2.2108
  138MOL0     H19019  13.133  10.024   4.263 -2.0030 -1.8517 -1.2816
  138MOL0     H19020  13.042   9.808   4.298  0.3656  0.2068  2.8266
  138MOL0     H19021  13.204   9.740   4.300  1.3371  0.1445 -1.2565
  138MOL0     H19022  13.079   9.711   4.092  1.4590 -1.9696  0.1797
  138MOL0     H19023  13.246   9.781   4.075  1.3356  2.6537  0.9998
  138MOL0     H19024  12.601  10.257   4.863 -1.3567 -0.8728 -0.1294
  138MOL0     H19025  12.515  10.392   5.016  1.6902 -0.4278 -0.9237
  138MOL0     H19026  12.414  10.534   5.437 -2.6060 -0.1603 -0.2926
  138MOL0     H19027  12.290  10.739   5.487  1.3102  0.9078  2.2819
  138MOL0     H19028  11.595  11.927   5.203 -0.4279  0.1660  0.0747
  138MOL0     H19029  11.411  11.780   5.153 -1.8662 -1.5473  1.3959
  138MOL0     H19030  11.136  11.545   5.229  1.2190  1.7368  1.7171
  138MOL0     H19031  10.904  11.491   5.247 -2.3860 -1.4392  0.3905
  138MOL0     H19032  10.627  11.204   5.218 -0.7300  0.0991 -1.3950
  138MOL0     H19033  10.695  11.369   5.204  1.9218  0.0681  1.6697
  138MOL0     H19034  10.854  11.290   5.031  0.5248  1.2329  2.7949
  138MOL0     H19035  10.683  11.275   4.992  1.2701  1.7443 -0.1393
  138MOL0     H19036  10.842  11.066   4.929 -3.1542 -2.0187 -0.9518
  138MOL0     H19037  10.876  11.063   5.104  2.0961  0.1981 -1.6984
  138MOL0     H19038  10.645  10.989   5.143 -1.3813  1.9298 -0.8388
  138MOL0     H19039  10.702  10.894   5.008 -3.4687 -0.9635  0.5105
  138MOL0     H19040  10.382  11.098   4.832 -0.1319 -2.3825 -1.2099
  138MOL0     H19041  11.005  11.091   5.370 -0.2935  0.2546 -2.4655
  138MOL0     H19042  11.330  11.192   5.492 -2.7029 -0.6486  2.1220
  138MOL0     H19043  11.210  11.057   5.478  2.5556 -1.8087  0.0598
  138MOL0     H19044  11.326  11.087   5.356  1.2789  1.5467  0.4075
  139MOL0     O19045   1.841   8.647   7.114 -0.5760 -0.4908  0.6242
  139MOL0     C19046   1.850   8.530   7.084 -0.3119  0.2377 -0.5452
  139MOL0     O19047   1.940   8.473   6.987 -0.0958 -0.1114  0.7517
  139MOL0     C19048   2.030   8.560   6.925  0.2829  0.0069 -0.4606
  139MOL0     C19049   2.010   8.601   6.790  0.3964 -0.0308 -1.3648
  139MOL0     C19050   2.083   8.707   6.739  0.9735  0.8333 -0.1017
  139MOL0     C19051   2.180   8.773   6.808  0.4611 -0.6361  0.0482
  139MOL0     O19052   2.255   8.874   6.761  0.8003 -0.3294 -0.0454
  139MOL0     C19053   2.187   8.969   6.669  0.1947  0.1062 -0.5557
  139MOL0     C19054   2.262   9.103   6.670 -0.1549  0.1180 -0.0550
  139MOL0     C19055   2.259   9.169   6.815 -0.3382  0.5841  0.1433
  139MOL0     C19056   2.130   9.240   6.839  0.8741  0.2562  0.2682
  139MOL0     C19057   2.115   9.315   6.962 -0.1799  0.2033 -1.0416
  139MOL0     C19058   1.972   9.384   6.961 -0.5015 -0.0454 -0.6212
  139MOL0     C19059   1.942   9.483   7.074 -0.1343  1.6320  0.0177
  139MOL0     C19060   1.793   9.482   7.119  0.6161  0.3549  0.5750
  139MOL0     N19061   1.690   9.515   7.018  0.1186 -0.0781 -0.2036
  139MOL0     C19062   1.632   9.433   6.919 -0.6754  1.0091  0.2151
  139MOL0     C19063   1.538   9.510   6.865 -0.6606 -1.0578  0.9570
  139MOL0     C19064   1.460   9.474   6.740 -0.0824 -1.2188 -0.2329
  139MOL0     C19065   1.523   9.535   6.614  0.1823 -0.2498  0.7967
  139MOL0     C19066   1.445   9.490   6.499  1.1843 -0.1702  0.2665
  139MOL0     C19067   1.483   9.560   6.361 -0.8575  0.0002 -0.8624
  139MOL0     O19068   1.608   9.514   6.322 -0.1391 -0.2440 -0.0442
  139MOL0     C19069   1.660   9.542   6.199  0.6165 -0.0740  0.3371
  139MOL0     C19070   1.596   9.517   6.086  0.7789 -0.0783 -0.1620
  139MOL0     C19071   1.661   9.540   5.958  0.8719 -0.4441  0.8770
  139MOL0     C19072   1.595   9.499   5.828  0.2937 -0.5810  0.2592
  139MOL0     C19073   1.793   9.594   5.950 -0.2199  0.5377  1.3419
  139MOL0     C19074   1.877   9.627   5.828  0.2793  0.0868  0.7839
  139MOL0     O19075   1.993   9.577   5.816  0.7488  0.3962  0.4185
  139MOL0     C19076   2.066   9.610   5.710 -0.6235 -0.3939  0.2384
  139MOL0     C19077   2.069   9.510   5.617  0.4728  0.4825  0.1286
  139MOL0     C19078   2.140   9.522   5.497 -0.2875  0.7579 -0.0185
  139MOL0     C19079   2.227   9.638   5.483  0.2223  0.4815 -0.4352
  139MOL0     O19080   2.300   9.639   5.372 -0.0577  0.1072  0.3923
  139MOL0     C19081   2.353   9.770   5.332  0.5656 -0.5544 -0.3113
  139MOL0     C19082   2.474   9.745   5.238 -1.0026  0.2326  0.1957
  139MOL0     C19083   2.424   9.683   5.103 -0.1450 -1.2689 -0.8195
  139MOL0     C19084   2.538   9.676   4.991  0.5130  0.3983  0.6993
  139MOL0     C19085   2.484   9.595   4.874 -0.1912 -0.0944 -0.3578
  139MOL0     C19086   2.364   9.656   4.792  0.1503  0.3729  0.1298
  139MOL0     C19087   2.402   9.794   4.718 -0.3441 -0.4476 -1.0855
  139MOL0     C19088   2.442   9.765   4.576  0.7861 -0.0435 -0.6349
  139MOL0    Cl19089   2.600   9.698   4.575 -0.5008 -0.2300  0.6234
  139MOL0     C19090   2.224   9.734   5.588  0.1950  1.3621 -0.7259
  139MOL0     C19091   2.138   9.724   5.698  0.0330  0.7618 -0.6406
  139MOL0     O19092   1.814   9.704   5.748  0.1308  0.9136  0.1894
  139MOL0     C19093   1.845   9.631   6.082 -1.0719 -0.5651 -0.0079
  139MOL0     C19094   1.779   9.601   6.201 -1.0493 -0.9660  1.7905
  139MOL0     N19095   1.538   9.636   6.925  0.0522  0.2579  0.5657
  139MOL0     N19096   1.617   9.639   7.025 -0.1458 -0.3093  0.5193
  139MOL0     C19097   2.197   8.727   6.940 -0.0901  0.3425  0.6151
  139MOL0     C19098   2.129   8.625   7.001 -1.1380 -0.2147 -0.0512
  139MOL0     C19099   1.749   8.433   7.135  0.4958 -0.1337 -0.6712
  139MOL0     C19100   1.738   8.309   7.063 -0.1163  0.1605  0.2161
  139MOL0     C19101   1.651   8.214   7.094  0.4292 -0.8287 -0.7883
  139MOL0     C19102   1.558   8.237   7.200 -1.1995 -0.0856  0.7567
  139MOL0     O19103   1.472   8.143   7.245  0.2448 -0.9790  0.4419
  139MOL0     C19104   1.350   8.151   7.181 -0.3420  0.3978  1.0083
  139MOL0     C19105   1.276   8.024   7.214 -0.1483  0.2894  0.1483
  139MOL0     C19106   1.289   7.910   7.101  0.0706 -0.5663  0.0026
  139MOL0     C19107   1.217   7.778   7.128  0.2928 -0.0556  0.2981
  139MOL0     C19108   1.233   7.677   7.025  0.5838 -0.3136  0.0759
  139MOL0     C19109   1.250   7.598   6.935  0.1051 -1.4275  0.7655
  139MOL0     C19110   1.564   8.360   7.268 -0.4212 -0.4051  0.3752
  139MOL0     C19111   1.654   8.463   7.241  0.3822 -0.4627  0.2543
  139MOL0     C19112   1.649   8.586   7.328  0.1534  0.0213 -0.0270
  139MOL0     H19113   1.922   8.560   6.744  2.1977 -3.4697 -2.0684
  139MOL0     H19114   2.056   8.741   6.640  1.0568 -3.9050 -2.0114
  139MOL0     H19115   2.080   8.973   6.687 -0.1625 -1.8944 -1.8756
  139MOL0     H19116   2.206   8.921   6.572  0.6436  0.1359 -0.4870
  139MOL0     H19117   2.368   9.097   6.641  0.8063  1.4381  2.8300
  139MOL0     H19118   2.231   9.180   6.599  0.0328 -0.6520 -0.9958
  139MOL0     H19119   2.267   9.081   6.880  0.9548  0.5549 -0.0240
  139MOL0     H19120   2.337   9.245   6.824  0.0860 -0.0337  2.4056
  139MOL0     H19121   2.113   9.313   6.759 -1.2633 -1.3429 -0.8311
  139MOL0     H19122   2.052   9.166   6.823 -0.7792  2.3269 -1.9829
  139MOL0     H19123   2.188   9.396   6.973  2.7831 -2.5990  2.7410
  139MOL0     H19124   2.138   9.256   7.051  1.2325 -2.0490 -2.8010
  139MOL0     H19125   1.952   9.424   6.862  1.8703 -1.1570 -1.6131
  139MOL0     H19126   1.902   9.299   6.969  0.3934 -1.2405 -3.9744
  139MOL0     H19127   1.971   9.583   7.040 -2.5333  1.6993 -2.1599
  139MOL0     H19128   1.999   9.444   7.158  1.4696  0.3521 -1.5880
  139MOL0     H19129   1.758   9.385   7.155  1.5712  0.5321  2.0301
  139MOL0     H19130   1.793   9.556   7.199 -1.4345  0.0016  0.9648
  139MOL0     H19131   1.670   9.336   6.888 -1.8936  0.2094  1.0874
  139MOL0     H19132   1.355   9.500   6.758  0.5147  0.4044  1.2978
  139MOL0     H19133   1.461   9.367   6.720 -2.3841 -1.1159 -1.2438
  139MOL0     H19134   1.524   9.644   6.614 -1.7080 -0.1965  1.8350
  139MOL0     H19135   1.622   9.489   6.602  0.1859  0.3705 -2.2691
  139MOL0     H19136   1.434   9.381   6.498  2.1077 -0.3260  2.6523
  139MOL0     H19137   1.344   9.530   6.511  0.4248 -1.0844 -2.3729
  139MOL0     H19138   1.415   9.526   6.282  0.4492 -2.5579 -1.0063
  139MOL0     H19139   1.505   9.667   6.363 -0.4080 -0.0358 -2.4062
  139MOL0     H19140   1.498   9.472   6.098 -1.2729  4.0100  0.3844
  139MOL0     H19141   1.668   9.505   5.747  0.9047  0.7456  0.8750
  139MOL0     H19142   1.517   9.567   5.792  0.7929  0.3795  0.9274
  139MOL0     H19143   1.541   9.405   5.842  0.6070 -1.0187 -1.2464
  139MOL0     H19144   2.013   9.420   5.636  2.0067 -0.3654  0.8461
  139MOL0     H19145   2.134   9.452   5.414 -0.7550  0.3515  0.3591
  139MOL0     H19146   2.276   9.821   5.274  2.4418  2.8255 -0.0768
  139MOL0     H19147   2.387   9.828   5.418 -1.9865  0.1596  0.2743
  139MOL0     H19148   2.532   9.837   5.224  1.5618 -0.4804  4.4125
  139MOL0     H19149   2.547   9.682   5.290  1.0384  0.8646 -1.7263
  139MOL0     H19150   2.339   9.747   5.077 -2.2667 -2.3619  2.7385
  139MOL0     H19151   2.380   9.585   5.121  1.7100 -1.9299  0.3421
  139MOL0     H19152   2.626   9.625   5.032 -0.6265 -2.1944  0.1252
  139MOL0     H19153   2.564   9.778   4.961 -2.5851  0.7615 -1.1800
  139MOL0     H19154   2.571   9.578   4.809  0.6115 -1.8551  1.0862
  139MOL0     H19155   2.442   9.504   4.917 -1.7110  1.5507  1.9159
  139MOL0     H19156   2.282   9.672   4.863 -0.4425 -3.6972  0.5783
  139MOL0     H19157   2.340   9.577   4.720 -1.2875  2.4505 -1.8134
  139MOL0     H19158   2.477   9.855   4.769 -1.1148  0.5796 -1.1282
  139MOL0     H19159   2.314   9.858   4.708  0.2690  0.4875 -0.6621
  139MOL0     H19160   2.437   9.863   4.527  1.1861 -0.1631 -0.9203
  139MOL0     H19161   2.370   9.715   4.510 -1.3539  4.3384 -1.9996
  139MOL0     H19162   2.283   9.825   5.592 -0.7681  1.9326  1.4760
  139MOL0     H19163   2.131   9.798   5.777  1.2835  0.1046  0.1327
  139MOL0     H19164   1.936   9.690   6.084 -1.1041 -0.3267 -2.6161
  139MOL0     H19165   1.825   9.622   6.297  0.3885 -0.7156  1.0707
  139MOL0     H19166   2.277   8.786   6.984  2.6452 -0.4953 -2.7485
  139MOL0     H19167   2.142   8.603   7.106  5.3681  1.9127  0.0130
  139MOL0     H19168   1.803   8.282   6.980 -0.5895 -0.4872  0.0494
  139MOL0     H19169   1.665   8.122   7.039 -0.0788  0.0608 -2.4637
  139MOL0     H19170   1.277   8.228   7.208 -3.7338 -2.0219 -0.5340
  139MOL0     H19171   1.369   8.155   7.073 -1.1181 -1.7992  0.7265
  139MOL0     H19172   1.175   8.051   7.247  0.0534 -1.0116  1.9806
  139MOL0     H19173   1.311   7.967   7.301  0.6533  1.2503  0.4705
  139MOL0     H19174   1.242   7.951   7.011 -1.2563  1.1911  1.4200
  139MOL0     H19175   1.393   7.891   7.072 -0.1325  0.6741 -1.7121
  139MOL0     H19176   1.113   7.800   7.154  0.5039  0.5999  0.5863
  139MOL0     H19177   1.266   7.731   7.213 -0.8872 -2.8195 -0.4367
  139MOL0     H19178   1.262   7.545   6.843 -0.3325  0.8463 -0.6910
  139MOL0     H19179   1.499   8.380   7.353 -0.8673 -2.3507  0.5533
  139MOL0     H19180   1.650   8.684   7.281  3.4226  0.4940  0.8025
  139MOL0     H19181   1.556   8.582   7.386 -0.6735  0.5379 -1.2886
  139MOL0     H19182   1.722   8.585   7.410 -0.6883  1.5232  0.7741
  140MOL0     O19183   9.242  11.414   5.429 -0.6099  0.2568 -0.0461
  140MOL0     C19184   9.337  11.335   5.419  0.6045 -0.6065  0.6201
  140MOL0     O19185   9.344  11.238   5.320  0.4999 -0.2480  0.0286
  140MOL0     C19186   9.289  11.250   5.197  0.0521 -0.5748 -0.0722
  140MOL0     C19187   9.258  11.141   5.114 -0.3634  1.7795 -0.3037
  140MOL0     C19188   9.191  11.150   4.990  0.6895 -0.3306  0.4247
  140MOL0     C19189   9.185  11.275   4.928 -0.3199 -1.0778  0.1010
  140MOL0     O19190   9.116  11.314   4.815 -0.7205  0.3603  0.0152
  140MOL0     C19191   9.098  11.216   4.707  0.1086 -0.5928 -0.8433
  140MOL0     C19192   9.071  11.296   4.572 -0.1270  0.6613 -0.3091
  140MOL0     C19193   9.088  11.207   4.448  0.6068 -0.1460  0.0076
  140MOL0     C19194   9.110  11.306   4.330  0.1698  1.1800  1.3140
  140MOL0     C19195   9.121  11.243   4.189  0.0564 -0.3826  0.2672
  140MOL0     C19196   9.261  11.167   4.181 -1.1201 -0.6457  0.5769
  140MOL0     C19197   9.278  11.101   4.043  0.1609 -0.6148  0.6757
  140MOL0     C19198   9.423  11.068   4.025 -0.9785  0.5690  0.6436
  140MOL0     N19199   9.508  11.178   3.974  0.4659 -0.4171  0.1852
  140MOL0     C19200   9.518  11.229   3.848  0.4943 -0.3270  0.1871
  140MOL0     C19201   9.602  11.334   3.860  0.0783  0.0968 -0.7388
  140MOL0     C19202   9.649  11.415   3.747  0.2262  0.1681  0.0424
  140MOL0     C19203   9.762  11.330   3.677 -0.2373 -0.5043  0.1048
  140MOL0     C19204   9.793  11.395   3.536  0.9737  0.2127  0.5781
  140MOL0     C19205   9.687  11.376   3.436 -0.7467 -0.1207  0.0571
  140MOL0     O19206   9.692  11.244   3.373 -0.3491 -0.1834  0.1003
  140MOL0     C19207   9.796  11.232   3.291 -0.4623  0.5903 -0.6362
  140MOL0     C19208   9.810  11.311   3.177  0.8716 -0.1366  0.5710
  140MOL0     C19209   9.899  11.293   3.078 -0.1486 -0.0471  0.9028
  140MOL0     C19210   9.883  11.393   2.967  0.2359  0.0430  0.6720
  140MOL0     C19211   9.994  11.185   3.092 -1.0364 -0.2450  0.0737
  140MOL0     C19212  10.101  11.145   2.997 -0.6436 -0.1325 -0.3552
  140MOL0     O19213  10.145  11.235   2.904  0.0471 -0.0360 -0.6054
  140MOL0     C19214  10.265  11.230   2.838  0.5458  0.3366 -0.8125
  140MOL0     C19215  10.318  11.346   2.790 -0.2438  0.0701 -0.8504
  140MOL0     C19216  10.434  11.354   2.717 -0.5753 -0.6416 -0.6552
  140MOL0     C19217  10.499  11.238   2.679  0.5236  1.0316  0.1834
  140MOL0     O19218  10.624  11.252   2.629 -0.7365  0.4283 -0.3003
  140MOL0     C19219  10.628  11.218   2.483  0.1729 -1.0183 -0.4618
  140MOL0     C19220  10.762  11.163   2.454  0.0020  0.7351  0.7930
  140MOL0     C19221  10.794  11.022   2.517 -0.0505  0.4405 -0.2906
  140MOL0     C19222  10.859  10.923   2.410  0.8847 -0.4341 -0.0388
  140MOL0     C19223  10.883  10.779   2.465 -0.5055  0.2473  0.5414
  140MOL0     C19224  10.927  10.683   2.355 -0.6024 -0.1201 -0.8937
  140MOL0     C19225  10.951  10.539   2.414  0.5975  0.8473  0.5210
  140MOL0     C19226  10.820  10.453   2.432 -0.3529 -0.3238  0.8985
  140MOL0    Cl19227  10.746  10.438   2.273  0.2519  0.3384  0.6954
  140MOL0     C19228  10.443  11.116   2.723 -0.4051  0.5491  0.7426
  140MOL0     C19229  10.328  11.113   2.793 -0.1384 -0.4879  0.1454
  140MOL0     O19230  10.132  11.024   3.000 -0.1792  0.5227 -0.1136
  140MOL0     C19231   9.977  11.099   3.204 -0.7529  0.4482 -0.4434
  140MOL0     C19232   9.874  11.108   3.296 -0.0961 -0.6691  0.4074
  140MOL0     N19233   9.643  11.346   3.990 -0.4914 -0.3044 -0.9373
  140MOL0     N19234   9.578  11.260   4.060  0.0263  0.3596 -0.3980
  140MOL0     C19235   9.223  11.392   5.003 -1.5463  0.1016  0.3483
  140MOL0     C19236   9.278  11.377   5.128 -0.3581 -0.5551  0.0892
  140MOL0     C19237   9.445  11.340   5.520 -0.5003  1.0753  0.7375
  140MOL0     C19238   9.526  11.222   5.541 -1.1358 -0.6466 -0.8828
  140MOL0     C19239   9.643  11.223   5.624 -0.3693 -0.3343  0.1688
  140MOL0     C19240   9.671  11.343   5.691  0.3638 -0.5546 -0.1824
  140MOL0     O19241   9.777  11.329   5.780  0.3464  0.4627 -0.0592
  140MOL0     C19242   9.904  11.298   5.731 -0.6097 -0.4623  0.3803
  140MOL0     C19243   9.990  11.423   5.690 -0.9501 -0.2040 -0.6933
  140MOL0     C19244  10.066  11.419   5.550 -0.9132 -1.6224 -0.0923
  140MOL0     C19245  10.007  11.343   5.434 -0.3228 -0.0093  0.8383
  140MOL0     C19246   9.872  11.402   5.405 -0.7170 -0.3536 -0.4070
  140MOL0     C19247   9.765  11.456   5.376  0.8495 -0.2237 -0.0898
  140MOL0     C19248   9.596  11.454   5.662 -0.2299 -0.4288 -0.1660
  140MOL0     C19249   9.482  11.460   5.582 -0.1711 -0.1912  0.9524
  140MOL0     C19250   9.418  11.592   5.554  0.1169 -0.7844  0.8986
  140MOL0     H19251   9.248  11.042   5.157 -0.2924  1.4511 -1.0398
  140MOL0     H19252   9.136  11.060   4.962 -0.6682  0.1711  1.3789
  140MOL0     H19253   9.023  11.140   4.728 -0.8373  1.2300  3.6636
  140MOL0     H19254   9.195  11.167   4.703  0.2584 -0.6016  1.3086
  140MOL0     H19255   8.973  11.343   4.568 -0.1377  0.5600 -1.4740
  140MOL0     H19256   9.147  11.374   4.569  1.0111 -0.4359 -2.2473
  140MOL0     H19257   9.181  11.151   4.444  2.1215  1.8242 -7.3057
  140MOL0     H19258   9.007  11.134   4.445 -0.2598  0.6237  2.2080
  140MOL0     H19259   9.025  11.371   4.306  1.0877  1.0417 -2.9990
  140MOL0     H19260   9.191  11.375   4.354  0.7999  0.7342  0.5045
  140MOL0     H19261   9.124  11.325   4.116  0.0858  3.4555  4.1665
  140MOL0     H19262   9.034  11.178   4.177 -0.6090  0.0815  2.2403
  140MOL0     H19263   9.346  11.236   4.190 -1.3590 -0.4579  1.5053
  140MOL0     H19264   9.279  11.097   4.263  2.7319 -2.4513 -1.5237
  140MOL0     H19265   9.260  11.183   3.973 -3.3242 -0.2449  1.7559
  140MOL0     H19266   9.210  11.016   4.034  0.9862 -1.2032 -0.0272
  140MOL0     H19267   9.465  11.044   4.124  2.4079 -1.6852 -1.1539
  140MOL0     H19268   9.416  10.984   3.956 -0.5185  1.5365 -0.6253
  140MOL0     H19269   9.475  11.199   3.754  4.1141 -0.2236 -1.6946
  140MOL0     H19270   9.692  11.509   3.783 -0.4399 -0.4395  2.5990
  140MOL0     H19271   9.571  11.449   3.678  1.6110  1.5290 -0.9175
  140MOL0     H19272   9.853  11.326   3.738  0.8797  0.5283 -1.4160
  140MOL0     H19273   9.739  11.223   3.667 -0.8464 -0.5500  1.6522
  140MOL0     H19274   9.793  11.505   3.542 -1.0986  0.2048  2.0708
  140MOL0     H19275   9.890  11.362   3.499  1.0004  0.1457  0.7068
  140MOL0     H19276   9.586  11.372   3.480 -2.2985  0.4556 -3.1648
  140MOL0     H19277   9.685  11.460   3.366 -0.2675  2.4424  2.9127
  140MOL0     H19278   9.729  11.375   3.142 -0.0572 -2.7188 -2.4490
  140MOL0     H19279   9.780  11.424   2.948  1.8827  4.0173 -3.7968
  140MOL0     H19280   9.922  11.355   2.872  0.8953 -1.2868  1.4384
  140MOL0     H19281   9.934  11.489   2.972 -0.8303  0.6042  0.8271
  140MOL0     H19282  10.266  11.441   2.801 -0.7433 -0.1315 -1.4181
  140MOL0     H19283  10.483  11.451   2.709  0.1539 -0.6506  2.5000
  140MOL0     H19284  10.547  11.150   2.457 -0.3546 -0.0764 -1.3689
  140MOL0     H19285  10.628  11.314   2.431  0.7307  0.5701  2.2668
  140MOL0     H19286  10.745  11.138   2.349 -1.1846  0.2280  1.0931
  140MOL0     H19287  10.844  11.231   2.476  1.4435 -0.8424  0.5239
  140MOL0     H19288  10.703  10.996   2.571  0.8196  0.3224  1.1607
  140MOL0     H19289  10.872  11.040   2.592 -1.1866  0.0991  1.0076
  140MOL0     H19290  10.951  10.963   2.367 -0.3681  0.6777 -1.8349
  140MOL0     H19291  10.781  10.922   2.333  3.7782  0.4629 -3.2444
  140MOL0     H19292  10.955  10.799   2.545 -0.0341  0.9581 -0.0431
  140MOL0     H19293  10.794  10.748   2.521  2.5699  0.5040  6.3229
  140MOL0     H19294  11.023  10.720   2.316  0.5460  1.6279  3.1045
  140MOL0     H19295  10.850  10.684   2.278 -0.4239  4.9233 -1.3171
  140MOL0     H19296  11.012  10.541   2.505  0.5169 -0.6645  0.6304
  140MOL0     H19297  11.015  10.493   2.337  3.5416  2.2064  1.9785
  140MOL0     H19298  10.741  10.495   2.495 -0.9754  0.0065 -0.0899
  140MOL0     H19299  10.843  10.353   2.471 -1.9536 -0.0381  2.7037
  140MOL0     H19300  10.489  11.027   2.682  0.4825  2.2310 -2.2220
  140MOL0     H19301  10.289  11.014   2.812 -2.1724  0.6350  2.4837
  140MOL0     H19302  10.040  11.018   3.239  0.3447  1.9785  1.3196
  140MOL0     H19303   9.862  11.028   3.368  0.4367 -0.6773  0.4863
  140MOL0     H19304   9.211  11.494   4.966 -2.8476 -0.4843 -0.9347
  140MOL0     H19305   9.311  11.466   5.181  1.0444 -0.0594 -1.5504
  140MOL0     H19306   9.495  11.130   5.493 -3.4654 -0.8116  0.7636
  140MOL0     H19307   9.704  11.134   5.635 -2.3055 -1.9246 -1.3218
  140MOL0     H19308   9.959  11.237   5.802  0.3207 -1.2512 -0.9910
  140MOL0     H19309   9.900  11.243   5.637  2.8749  0.5532 -0.5055
  140MOL0     H19310  10.059  11.444   5.772  1.9216 -2.9518 -2.2000
  140MOL0     H19311   9.927  11.512   5.693  1.1951  1.3593  0.2013
  140MOL0     H19312  10.077  11.524   5.521 -1.7463 -1.2756  0.7763
  140MOL0     H19313  10.166  11.384   5.576  0.4606  0.8851 -1.5228
  140MOL0     H19314   9.994  11.238   5.460  0.6482  0.4969  3.7731
  140MOL0     H19315  10.070  11.346   5.345  4.6206 -4.2023  3.6693
  140MOL0     H19316   9.670  11.496   5.346  1.9202  0.7428 -2.4620
  140MOL0     H19317   9.618  11.547   5.713 -0.4447 -1.0714  1.1467
  140MOL0     H19318   9.309  11.589   5.564  0.0511  3.2200  6.0809
  140MOL0     H19319   9.441  11.668   5.630  2.0245  0.2915 -0.6711
  140MOL0     H19320   9.432  11.627   5.452 -4.7272  0.2386  0.3684
  141MOL0     O19321   7.926   2.982   3.782  0.2295  0.0653  0.1124
  141MOL0     C19322   7.905   2.897   3.693  0.8642 -0.3022  0.2100
  141MOL0     O19323   7.960   2.904   3.569 -0.0478 -0.5387  0.4903
  141MOL0     C19324   8.042   3.014   3.540  0.7982  0.3305 -0.1398
  141MOL0     C19325   7.999   3.144   3.532  0.5565  0.0334 -0.4246
  141MOL0     C19326   8.079   3.244   3.478  0.0398  0.3750 -0.2648
  141MOL0     C19327   8.212   3.220   3.433 -0.3228  0.1498 -0.6783
  141MOL0     O19328   8.279   3.327   3.388  0.1524  0.4210 -0.4538
  141MOL0     C19329   8.406   3.316   3.319 -0.8582  0.2637 -0.0355
  141MOL0     C19330   8.513   3.322   3.419 -0.2076 -0.2915 -0.1370
  141MOL0     C19331   8.508   3.461   3.496  0.4352 -0.2184  0.2151
  141MOL0     C19332   8.596   3.464   3.615 -0.3515  0.4727  0.6430
  141MOL0     C19333   8.750   3.473   3.582  0.9395 -0.0231  0.2207
  141MOL0     C19334   8.836   3.480   3.710  0.5013 -0.0476  0.1418
  141MOL0     C19335   8.979   3.517   3.668 -0.2348 -0.4054  0.4585
  141MOL0     C19336   9.076   3.533   3.785  0.9457  0.5164  0.2753
  141MOL0     N19337   9.091   3.668   3.828 -0.6878 -0.1936 -1.3918
  141MOL0     C19338   9.010   3.730   3.919  0.5830  0.6132  0.5261
  141MOL0     C19339   9.050   3.856   3.908 -0.7956  0.7053 -1.3792
  141MOL0     C19340   9.001   3.950   4.005  0.1466  0.2247 -0.3720
  141MOL0     C19341   9.077   3.974   4.140  0.4214 -0.3037  0.4782
  141MOL0     C19342   9.032   3.865   4.240  0.1908 -0.8946 -0.5286
  141MOL0     C19343   9.153   3.789   4.312 -0.0659 -0.5402 -0.4424
  141MOL0     O19344   9.238   3.744   4.211 -0.1912  0.2957  0.3425
  141MOL0     C19345   9.231   3.612   4.158 -0.9988  0.1667 -0.1219
  141MOL0     C19346   9.324   3.576   4.060 -0.6418  0.0821  0.6213
  141MOL0     C19347   9.341   3.449   3.986 -0.6560 -0.6065 -0.2588
  141MOL0     C19348   9.465   3.442   3.906  0.4584  0.3357 -0.1318
  141MOL0     C19349   9.258   3.345   4.027  1.2986 -0.1343  0.0776
  141MOL0     C19350   9.249   3.208   3.975  0.5020 -0.1807 -1.2683
  141MOL0     O19351   9.137   3.130   3.996  0.1773 -0.3167  0.1561
  141MOL0     C19352   9.141   3.009   3.941 -0.1606 -0.7440  0.6627
  141MOL0     C19353   9.050   2.979   3.845 -0.4699 -0.0830  0.7685
  141MOL0     C19354   9.040   2.851   3.793  0.0222  0.2937  0.1502
  141MOL0     C19355   9.127   2.752   3.843  0.3203  0.4960  0.5633
  141MOL0     O19356   9.130   2.631   3.772 -0.4509  0.7099 -0.0392
  141MOL0     C19357   9.232   2.525   3.797 -0.0622 -0.2739  0.1901
  141MOL0     C19358   9.185   2.436   3.919 -0.2816  0.0460 -0.1436
  141MOL0     C19359   9.273   2.330   3.979 -0.0292 -0.6485 -0.4343
  141MOL0     C19360   9.411   2.369   4.037 -0.2667 -0.8540 -0.4216
  141MOL0     C19361   9.393   2.401   4.182 -0.5070 -1.4150  0.1999
  141MOL0     C19362   9.507   2.465   4.253 -0.4137  0.0027  0.6520
  141MOL0     C19363   9.492   2.466   4.408 -0.4882 -0.1829  0.5544
  141MOL0     C19364   9.612   2.507   4.484  0.1534  0.0729  0.1404
  141MOL0    Cl19365   9.756   2.424   4.436  0.7147 -0.5319  0.2438
  141MOL0     C19366   9.219   2.780   3.949 -0.3549  0.2861  0.2153
  141MOL0     C19367   9.228   2.906   4.002  0.0550  0.4765 -0.6294
  141MOL0     O19368   9.349   3.171   3.922 -0.5386  0.2605  0.8179
  141MOL0     C19369   9.163   3.381   4.129  1.1084 -1.2420  0.3316
  141MOL0     C19370   9.137   3.508   4.194 -0.5778  1.1373 -0.2227
  141MOL0     N19371   9.146   3.879   3.812 -0.6149 -1.1534 -0.3247
  141MOL0     N19372   9.166   3.760   3.765  0.0587 -0.1986 -0.5752
  141MOL0     C19373   8.260   3.089   3.441  0.0564  0.7916 -0.0377
  141MOL0     C19374   8.175   2.988   3.495  0.8867  0.1612  0.8940
  141MOL0     C19375   7.817   2.779   3.720 -0.4300  0.7753  1.7213
  141MOL0     C19376   7.809   2.674   3.620 -0.0299  0.0918 -0.1449
  141MOL0     C19377   7.736   2.557   3.644 -1.6619  0.8186 -0.2752
  141MOL0     C19378   7.655   2.540   3.758 -0.2849  0.3620 -0.6657
  141MOL0     O19379   7.573   2.436   3.793  0.7280  1.3130 -0.5157
  141MOL0     C19380   7.543   2.333   3.696  0.3680  0.8874 -0.0487
  141MOL0     C19381   7.404   2.365   3.644 -0.0118 -0.3914  0.9150
  141MOL0     C19382   7.295   2.293   3.728 -0.4532  0.0936  0.1075
  141MOL0     C19383   7.279   2.348   3.871  0.0037  0.0857  0.0567
  141MOL0     C19384   7.220   2.485   3.870 -0.6846 -0.0095  0.3329
  141MOL0     C19385   7.174   2.596   3.866 -0.1245  0.8916  0.8024
  141MOL0     C19386   7.655   2.641   3.849  0.0669 -0.7680  1.1942
  141MOL0     C19387   7.737   2.749   3.834 -1.1951 -0.4357 -0.3388
  141MOL0     C19388   7.721   2.842   3.951 -0.8508  0.6763  0.1618
  141MOL0     H19389   7.908   3.176   3.582  0.2296  0.5609 -1.3468
  141MOL0     H19390   8.041   3.345   3.486  1.9709  1.0309  1.1413
  141MOL0     H19391   8.410   3.396   3.245  1.2638  1.9235  1.7309
  141MOL0     H19392   8.412   3.228   3.253  0.1718  1.4162 -1.5521
  141MOL0     H19393   8.522   3.244   3.495  0.9643  0.7398  0.8287
  141MOL0     H19394   8.612   3.302   3.376 -1.0750 -2.3733 -1.3211
  141MOL0     H19395   8.527   3.549   3.432 -0.8155  0.7355  1.1101
  141MOL0     H19396   8.403   3.471   3.525 -1.3943 -1.6074 -4.8415
  141MOL0     H19397   8.558   3.541   3.682 -0.1879 -0.2349  1.5694
  141MOL0     H19398   8.593   3.372   3.674  0.1095  1.0123  1.5339
  141MOL0     H19399   8.776   3.559   3.519  1.4371 -0.1703  0.2146
  141MOL0     H19400   8.768   3.379   3.529  0.7052 -0.1245  0.3193
  141MOL0     H19401   8.802   3.569   3.764 -0.0536 -1.6330  2.5360
  141MOL0     H19402   8.833   3.388   3.769 -0.5872 -0.3534 -0.3574
  141MOL0     H19403   8.984   3.604   3.603  0.8252 -0.7208  0.0847
  141MOL0     H19404   9.023   3.444   3.599 -1.2184  2.6021 -3.7421
  141MOL0     H19405   9.051   3.469   3.870  0.8303  0.2840  0.0682
  141MOL0     H19406   9.172   3.501   3.744 -0.7101 -0.3432 -3.2634
  141MOL0     H19407   8.935   3.679   3.978 -0.2350 -1.5324 -2.1970
  141MOL0     H19408   8.895   3.934   4.030  0.1277  4.1180  3.1210
  141MOL0     H19409   9.007   4.044   3.948  0.0737  0.4716  0.0231
  141MOL0     H19410   9.186   3.986   4.133  0.2232  0.6317 -1.5396
  141MOL0     H19411   9.050   4.076   4.166 -1.3203 -1.1590  2.2827
  141MOL0     H19412   8.975   3.906   4.324  0.1959  0.0102 -0.9549
  141MOL0     H19413   8.975   3.785   4.192 -0.6539 -2.0407  2.1651
  141MOL0     H19414   9.213   3.859   4.372 -0.1431 -0.9702  0.1443
  141MOL0     H19415   9.114   3.707   4.372 -0.5576  0.1096  0.1434
  141MOL0     H19416   9.401   3.649   4.036  1.3659 -1.5504  1.7780
  141MOL0     H19417   9.477   3.543   3.868 -3.1229  1.0459  0.3000
  141MOL0     H19418   9.452   3.371   3.823  5.4580 -2.1538  0.8013
  141MOL0     H19419   9.552   3.402   3.958 -0.8537 -0.3672  1.6116
  141MOL0     H19420   8.985   3.055   3.804 -0.3264 -0.3985 -0.0775
  141MOL0     H19421   8.978   2.832   3.706 -0.7508 -1.4471  1.0312
  141MOL0     H19422   9.241   2.457   3.711  0.4838  1.2872 -1.0402
  141MOL0     H19423   9.331   2.569   3.808 -0.7177  2.5893 -3.3839
  141MOL0     H19424   9.167   2.510   3.997  1.3728  1.0613 -0.6790
  141MOL0     H19425   9.100   2.375   3.888  1.5000 -2.8987  0.3704
  141MOL0     H19426   9.300   2.255   3.905  1.7452 -2.5350  1.9382
  141MOL0     H19427   9.204   2.296   4.057  1.3877  0.6565  1.4995
  141MOL0     H19428   9.460   2.452   3.986  0.7636 -2.2456 -1.7950
  141MOL0     H19429   9.479   2.284   4.029  2.2390  1.1567 -1.9614
  141MOL0     H19430   9.301   2.456   4.202 -0.9188 -2.3530  0.9724
  141MOL0     H19431   9.393   2.304   4.232  2.0685 -1.2533  0.6306
  141MOL0     H19432   9.525   2.569   4.222 -2.0420  0.3471  0.7856
  141MOL0     H19433   9.602   2.412   4.244 -0.3947 -0.5037  3.1773
  141MOL0     H19434   9.479   2.360   4.430 -1.0846 -0.2960 -0.3046
  141MOL0     H19435   9.407   2.527   4.439 -1.3285 -0.9114 -0.2471
  141MOL0     H19436   9.594   2.497   4.591  2.7421  0.9032  0.7039
  141MOL0     H19437   9.631   2.613   4.469  1.7419  0.0119  1.4434
  141MOL0     H19438   9.285   2.706   3.993 -1.2265 -0.1819  0.7675
  141MOL0     H19439   9.271   2.913   4.101  0.8159  1.2222 -1.0001
  141MOL0     H19440   9.083   3.311   4.153  1.6072 -1.9970 -0.1768
  141MOL0     H19441   9.056   3.525   4.264 -2.1581 -0.5694 -1.5603
  141MOL0     H19442   8.358   3.060   3.407  0.2275  0.5920  0.6107
  141MOL0     H19443   8.211   2.887   3.511 -0.1485 -0.3764  0.0018
  141MOL0     H19444   7.866   2.665   3.528 -1.2973 -0.1685 -0.9265
  141MOL0     H19445   7.740   2.481   3.567  0.9022  0.4862  0.1075
  141MOL0     H19446   7.629   2.332   3.628  2.7626 -0.2130  2.7966
  141MOL0     H19447   7.543   2.234   3.742 -1.6389  1.7820  2.0647
  141MOL0     H19448   7.402   2.327   3.542  1.4420  0.9458  0.3542
  141MOL0     H19449   7.382   2.472   3.635  1.7416 -0.0393  0.3824
  141MOL0     H19450   7.196   2.287   3.681  0.0804 -1.9428 -0.8629
  141MOL0     H19451   7.314   2.185   3.729 -1.1022 -0.0338 -0.3696
  141MOL0     H19452   7.373   2.343   3.928  0.7145 -1.3079 -1.1662
  141MOL0     H19453   7.214   2.278   3.926 -0.4625  0.8442  0.4841
  141MOL0     H19454   7.121   2.689   3.856  1.0270  1.4533 -0.2564
  141MOL0     H19455   7.600   2.623   3.941  0.8544 -0.7644  1.6757
  141MOL0     H19456   7.676   2.938   3.923 -0.6438  1.6752  2.9537
  141MOL0     H19457   7.650   2.802   4.023 -1.6013  2.1978  0.3019
  141MOL0     H19458   7.815   2.859   4.005 -0.8994 -2.8466  1.6021
  142MOL0     O19459   9.033  10.233   3.155  0.5787 -0.3405  0.3455
  142MOL0     C19460   8.913  10.217   3.134 -0.5732  0.1770  0.1440
  142MOL0     O19461   8.818  10.311   3.158  0.2738  0.3348 -0.4875
  142MOL0     C19462   8.851  10.445   3.195 -0.2152  0.7773  0.5045
  142MOL0     C19463   8.894  10.473   3.327 -0.0286 -0.2025 -0.0496
  142MOL0     C19464   8.936  10.605   3.353  0.2626  0.1249  0.8502
  142MOL0     C19465   8.922  10.716   3.264  0.4585  1.4205  0.3601
  142MOL0     O19466   8.934  10.836   3.324 -0.1499 -0.3159  0.0195
  142MOL0     C19467   8.822  10.925   3.308 -0.8688  0.4892  0.0397
  142MOL0     C19468   8.841  11.050   3.385 -0.0576 -1.1495 -1.1957
  142MOL0     C19469   8.832  11.039   3.536 -0.0362  0.4158 -0.5192
  142MOL0     C19470   8.898  11.154   3.602  0.2361 -0.6172 -0.1717
  142MOL0     C19471   8.920  11.148   3.753  0.1014  0.7697 -0.6734
  142MOL0     C19472   8.786  11.130   3.837 -0.2628  0.0186 -0.8059
  142MOL0     C19473   8.689  11.246   3.816 -1.0299 -0.8457  0.4817
  142MOL0     C19474   8.560  11.243   3.896  0.4682 -0.5317  0.4626
  142MOL0     N19475   8.441  11.178   3.829 -0.1509  0.4690  0.0583
  142MOL0     C19476   8.445  11.060   3.764 -0.8243 -1.4944 -0.0346
  142MOL0     C19477   8.341  11.065   3.684 -1.1339  0.6135  0.0467
  142MOL0     C19478   8.297  10.950   3.584  0.3763 -0.0969 -1.2078
  142MOL0     C19479   8.169  11.000   3.518 -0.0727  0.4303  0.9828
  142MOL0     C19480   8.047  10.995   3.609  0.2387  0.9243  0.3381
  142MOL0     C19481   7.923  11.047   3.532 -0.4648 -0.4699 -0.0512
  142MOL0     O19482   7.868  10.934   3.454  1.0418 -0.2925 -0.7495
  142MOL0     C19483   7.745  10.951   3.398  0.7950 -0.3365 -0.1167
  142MOL0     C19484   7.672  10.831   3.371  0.1901  0.2889  0.3270
  142MOL0     C19485   7.541  10.828   3.334  0.3269 -0.1866  0.1789
  142MOL0     C19486   7.481  10.700   3.304 -0.1348  0.0757  0.0515
  142MOL0     C19487   7.478  10.957   3.309 -0.0404 -0.5540 -0.3190
  142MOL0     C19488   7.348  10.974   3.234 -0.4638 -0.2770 -0.6946
  142MOL0     O19489   7.337  11.110   3.206  0.1879  0.5396 -0.4161
  142MOL0     C19490   7.262  11.164   3.112  0.3295 -0.7437 -0.7030
  142MOL0     C19491   7.249  11.122   2.978 -1.1338 -0.0375 -0.9324
  142MOL0     C19492   7.183  11.207   2.892 -0.1147  0.0728  1.0161
  142MOL0     C19493   7.146  11.338   2.919 -0.6314 -0.8549 -0.4287
  142MOL0     O19494   7.096  11.427   2.825 -0.1829 -0.5633 -0.2050
  142MOL0     C19495   7.054  11.387   2.700 -0.5602 -0.0329 -0.1629
  142MOL0     C19496   7.026  11.504   2.625 -0.2135  0.6189 -0.3747
  142MOL0     C19497   6.945  11.465   2.505 -0.0590  0.5221  0.8982
  142MOL0     C19498   6.906  11.595   2.420 -0.0834  0.0778 -0.2516
  142MOL0     C19499   7.029  11.675   2.374  0.5904  0.4955  0.2123
  142MOL0     C19500   6.980  11.806   2.312 -0.2684  0.5376  0.2040
  142MOL0     C19501   7.095  11.875   2.238 -0.8609  0.3970 -0.3237
  142MOL0     C19502   7.073  12.019   2.180 -0.1059 -0.2503 -0.5151
  142MOL0    Cl19503   7.224  12.107   2.189 -0.0192 -0.0018  0.4800
  142MOL0     C19504   7.167  11.381   3.053 -0.4453  0.1749 -0.5395
  142MOL0     C19505   7.217  11.289   3.146  0.4404 -0.3177 -0.7239
  142MOL0     O19506   7.260  10.888   3.212  0.4492  0.1506 -0.0201
  142MOL0     C19507   7.550  11.084   3.341  0.1593  0.7173  0.3255
  142MOL0     C19508   7.680  11.079   3.385  0.0490 -0.4547  0.4016
  142MOL0     N19509   8.262  11.180   3.706  0.6907  0.5429  1.2566
  142MOL0     N19510   8.334  11.251   3.795  1.4090 -0.7180  0.1168
  142MOL0     C19511   8.865  10.683   3.136 -1.3601  0.0619  0.4263
  142MOL0     C19512   8.844  10.549   3.102 -0.6396  0.3206 -0.3669
  142MOL0     C19513   8.871  10.082   3.086 -0.4982  0.0247  0.0493
  142MOL0     C19514   8.736  10.064   3.034 -0.8179 -0.6167 -1.0626
  142MOL0     C19515   8.700   9.944   2.977 -0.6672  0.2749  1.1450
  142MOL0     C19516   8.772   9.834   2.979 -0.4983 -0.3541 -0.3773
  142MOL0     O19517   8.713   9.717   2.938  0.6979  0.1029  0.0930
  142MOL0     C19518   8.800   9.609   2.887  0.1495  0.1363 -0.9948
  142MOL0     C19519   8.870   9.629   2.760 -0.8017  0.9889 -0.7817
  142MOL0     C19520   9.010   9.561   2.762  0.7401  0.0595 -0.9088
  142MOL0     C19521   9.076   9.569   2.622 -0.5085 -0.1544 -0.4398
  142MOL0     C19522   9.101   9.438   2.549  1.0715 -0.4684 -0.1037
  142MOL0     C19523   9.125   9.354   2.465  0.4603 -0.8338  0.2413
  142MOL0     C19524   8.899   9.845   3.046 -0.8735  0.6627 -1.0382
  142MOL0     C19525   8.957   9.968   3.087  0.4958  0.1561 -0.7403
  142MOL0     C19526   9.100   9.967   3.133 -0.2993 -0.1529  0.6380
  142MOL0     H19527   8.885  10.403   3.409 -2.1362  1.8338  1.5796
  142MOL0     H19528   8.975  10.612   3.454 -2.5357 -0.5887  2.0762
  142MOL0     H19529   8.728  10.876   3.333 -0.2319 -1.4478 -1.1451
  142MOL0     H19530   8.819  10.955   3.203  0.3592  1.1531  0.1765
  142MOL0     H19531   8.942  11.085   3.364  0.7040 -1.9280  1.0043
  142MOL0     H19532   8.772  11.129   3.352  2.2488  0.8803 -1.4454
  142MOL0     H19533   8.725  11.034   3.562  0.3407 -0.1550  1.0338
  142MOL0     H19534   8.884  10.950   3.572 -0.7449 -0.4881 -1.6857
  142MOL0     H19535   8.992  11.177   3.552  0.9908  2.5432  2.3780
  142MOL0     H19536   8.833  11.240   3.585  0.3474  0.6452  4.4536
  142MOL0     H19537   8.983  11.228   3.793  0.8503  0.5027 -1.3009
  142MOL0     H19538   8.986  11.064   3.774  1.4631  2.2203  1.1771
  142MOL0     H19539   8.720  11.046   3.812 -2.3858  1.6309 -0.8759
  142MOL0     H19540   8.815  11.124   3.943 -6.1653 -0.1321  1.1630
  142MOL0     H19541   8.670  11.242   3.709  3.0383  0.0400 -0.4758
  142MOL0     H19542   8.743  11.339   3.841 -1.1161 -1.1484  1.8833
  142MOL0     H19543   8.565  11.203   3.998  0.1643  0.8709  1.0429
  142MOL0     H19544   8.528  11.347   3.898  0.5934 -0.5066  1.4483
  142MOL0     H19545   8.526  10.987   3.765  1.8599  1.2096 -1.2651
  142MOL0     H19546   8.296  10.849   3.624 -0.9641  0.2913 -0.1885
  142MOL0     H19547   8.384  10.947   3.518  1.2211  0.4002 -0.1550
  142MOL0     H19548   8.173  11.101   3.478 -1.8471  0.3771  0.6017
  142MOL0     H19549   8.158  10.940   3.427  3.5224 -0.9230  1.2546
  142MOL0     H19550   8.022  10.890   3.626  2.4522 -0.2999 -2.8115
  142MOL0     H19551   8.041  11.061   3.696  1.5157  2.5464 -0.7411
  142MOL0     H19552   7.850  11.088   3.602  0.1319 -2.1661  1.6654
  142MOL0     H19553   7.953  11.129   3.467 -0.2730  0.3081  0.9946
  142MOL0     H19554   7.727  10.738   3.382 -0.8827 -0.3437  0.4166
  142MOL0     H19555   7.557  10.645   3.247  0.7781  2.9919 -1.7467
  142MOL0     H19556   7.390  10.706   3.243 -1.6869 -2.2345  1.9254
  142MOL0     H19557   7.464  10.646   3.397  1.0961 -0.4596 -0.0175
  142MOL0     H19558   7.290  11.026   2.948  0.0701  0.0936  0.2325
  142MOL0     H19559   7.161  11.167   2.793  1.4324 -1.0966  1.1026
  142MOL0     H19560   7.140  11.341   2.649  0.9435  0.1780  2.0467
  142MOL0     H19561   6.978  11.310   2.711 -0.5410 -0.0869 -0.4065
  142MOL0     H19562   6.971  11.575   2.687 -0.3956 -0.5817  0.8868
  142MOL0     H19563   7.125  11.546   2.603  1.3104 -1.9627  1.0291
  142MOL0     H19564   6.852  11.415   2.533  0.1350 -1.8496 -2.1746
  142MOL0     H19565   7.012  11.405   2.443  2.2047  4.6946 -1.1001
  142MOL0     H19566   6.845  11.655   2.488 -0.1379 -0.1459 -0.1003
  142MOL0     H19567   6.854  11.570   2.327  0.5827 -1.1972 -0.3057
  142MOL0     H19568   7.103  11.692   2.453  1.2001  2.5541 -0.7348
  142MOL0     H19569   7.062  11.623   2.284 -2.0771 -0.9741 -0.0185
  142MOL0     H19570   6.941  11.869   2.392 -0.0780  1.8323 -0.6898
  142MOL0     H19571   6.901  11.783   2.240  1.3992 -1.5920 -1.0844
  142MOL0     H19572   7.121  11.815   2.150  1.8060 -0.4083  0.9329
  142MOL0     H19573   7.180  11.880   2.306 -0.5615  2.4151 -0.7683
  142MOL0     H19574   6.996  12.070   2.238 -1.9873 -2.0063 -1.3297
  142MOL0     H19575   7.038  12.020   2.076  2.0233 -1.5782 -1.3274
  142MOL0     H19576   7.128  11.476   3.089 -0.7998 -1.4450  4.0518
  142MOL0     H19577   7.211  11.322   3.249  0.7261 -1.5016 -0.3149
  142MOL0     H19578   7.503  11.181   3.330 -0.7408  0.2614  0.0334
  142MOL0     H19579   7.723  11.174   3.414 -0.2512 -0.0772 -0.3434
  142MOL0     H19580   8.852  10.764   3.066  0.5890  1.5631  1.7031
  142MOL0     H19581   8.815  10.541   2.998 -0.1291  2.8166 -0.7573
  142MOL0     H19582   8.676  10.154   3.031 -0.8704 -0.4491  1.7566
  142MOL0     H19583   8.599   9.930   2.940 -0.8177  0.3882  1.5059
  142MOL0     H19584   8.872   9.585   2.966 -4.9790 -3.8004  3.2706
  142MOL0     H19585   8.735   9.528   2.853  1.3220 -1.0967 -0.3331
  142MOL0     H19586   8.892   9.736   2.749  1.0374  0.7641  0.3443
  142MOL0     H19587   8.823   9.588   2.670 -1.5630 -2.3051  0.9585
  142MOL0     H19588   9.060   9.621   2.839 -3.0755 -1.4760  3.2287
  142MOL0     H19589   9.013   9.453   2.780  2.8753  0.4469  1.7729
  142MOL0     H19590   9.177   9.612   2.630 -0.2748 -0.3593 -1.8945
  142MOL0     H19591   9.013   9.635   2.561  0.8505  1.5562 -0.0896
  142MOL0     H19592   9.168   9.277   2.405 -2.0902 -2.8073  0.7646
  142MOL0     H19593   8.956   9.754   3.059  2.1066  2.6123  0.5278
  142MOL0     H19594   9.154  10.031   3.063 -0.6471  1.4107  1.7221
  142MOL0     H19595   9.126   9.995   3.236  1.7480 -0.5945  0.2799
  142MOL0     H19596   9.134   9.864   3.124 -2.5190 -0.8167 -1.3858
  143MOL0     O19597   0.309   4.969  11.037  0.1488  0.0292  0.4442
  143MOL0     C19598   0.348   4.887  11.117  0.7358 -0.6944 -0.1027
  143MOL0     O19599   0.474   4.837  11.119 -0.1747 -0.8920  0.2403
  143MOL0     C19600   0.562   4.823  11.011  0.5003 -0.7373 -0.5155
  143MOL0     C19601   0.529   4.822  10.873 -0.5138 -0.2267 -0.7585
  143MOL0     C19602   0.633   4.815  10.779  0.6377  0.0201  0.4336
  143MOL0     C19603   0.767   4.782  10.816  0.7090 -0.3236  0.3476
  143MOL0     O19604   0.860   4.785  10.730  0.5885  0.0566 -0.5691
  143MOL0     C19605   0.891   4.914  10.678  0.1582 -0.1383  0.1735
  143MOL0     C19606   1.039   4.916  10.661 -0.0469  0.1588 -0.1155
  143MOL0     C19607   1.097   5.032  10.587 -0.1378 -0.1875  0.0360
  143MOL0     C19608   1.076   5.170  10.655  0.1485 -0.0365 -0.1977
  143MOL0     C19609   1.177   5.278  10.621 -0.2684  0.4805  0.9476
  143MOL0     C19610   1.172   5.404  10.702  0.3814  0.9274 -0.2809
  143MOL0     C19611   1.264   5.513  10.655  0.2273 -0.2703  0.5315
  143MOL0     C19612   1.245   5.649  10.728  0.7019  1.2781  0.7060
  143MOL0     N19613   1.238   5.751  10.621 -0.0659  0.2911  0.7254
  143MOL0     C19614   1.136   5.779  10.539  0.4577 -0.5711 -0.1429
  143MOL0     C19615   1.190   5.888  10.470  0.0197 -0.5976 -0.3213
  143MOL0     C19616   1.136   5.949  10.341 -0.6681  0.2710 -0.1928
  143MOL0     C19617   1.011   6.038  10.387 -0.5854  0.4379  0.6577
  143MOL0     C19618   1.048   6.154  10.494  1.3193  0.6070  1.3501
  143MOL0     C19619   0.931   6.258  10.500  0.0141  0.2263 -0.1807
  143MOL0     O19620   0.798   6.210  10.540 -0.1884  0.1070  0.0764
  143MOL0     C19621   0.711   6.312  10.544  0.4176 -0.0293  0.5355
  143MOL0     C19622   0.580   6.286  10.588 -0.1711 -0.1813  0.3775
  143MOL0     C19623   0.474   6.381  10.603 -0.4676 -0.8157  0.6932
  143MOL0     C19624   0.341   6.325  10.638  1.3067  0.2773  0.2271
  143MOL0     C19625   0.492   6.516  10.553 -0.0633  0.3241 -0.9001
  143MOL0     C19626   0.391   6.626  10.563  0.5569 -0.5727  0.1284
  143MOL0     O19627   0.436   6.755  10.560 -0.7057 -0.2351 -0.0008
  143MOL0     C19628   0.344   6.859  10.536  0.5352 -0.4076  0.4177
  143MOL0     C19629   0.287   6.856  10.404 -0.5932  0.5036  0.0141
  143MOL0     C19630   0.189   6.946  10.368  0.0584 -0.1787 -0.0175
  143MOL0     C19631   0.144   7.048  10.459  0.7943 -0.1485 -0.0917
  143MOL0     O19632   0.052   7.156  10.431  0.2784  0.0345  0.1600
  143MOL0     C19633   0.022   7.186  10.298  0.3435 -0.1175 -0.0124
  143MOL0     C19634  -0.074   7.296  10.280  0.5655 -0.6263  0.1529
  143MOL0     C19635  -0.215   7.252  10.337 -0.1080  0.2730 -0.3438
  143MOL0     C19636  -0.318   7.362  10.327  1.0456  0.4685  0.7263
  143MOL0     C19637  -0.465   7.314  10.362  1.1291  0.0587 -0.6389
  143MOL0     C19638  -0.494   7.317  10.519  0.0345 -0.3623  0.2046
  143MOL0     C19639  -0.544   7.450  10.571  0.3745  1.0586 -0.1472
  143MOL0     C19640  -0.570   7.443  10.717 -0.1376 -0.4114  0.1463
  143MOL0    Cl19641  -0.467   7.336  10.807 -0.4380  0.1624 -0.1803
  143MOL0     C19642   0.197   7.043  10.589 -0.5738  0.9594  0.1194
  143MOL0     C19643   0.298   6.952  10.624  0.2739  0.6164 -0.6537
  143MOL0     O19644   0.267   6.600  10.542 -0.1531  0.0136 -0.1441
  143MOL0     C19645   0.625   6.552  10.528 -0.7677  0.0690 -1.1082
  143MOL0     C19646   0.729   6.454  10.512  0.7132 -0.3955 -0.1304
  143MOL0     N19647   1.306   5.934  10.517  0.3730  0.2511 -0.1921
  143MOL0     N19648   1.338   5.848  10.613 -0.5133 -0.1503  0.8739
  143MOL0     C19649   0.793   4.773  10.952 -0.1239 -1.2119 -0.9812
  143MOL0     C19650   0.694   4.803  11.047 -0.4778 -0.4446  0.5174
  143MOL0     C19651   0.251   4.837  11.224 -0.3464 -0.8627  0.5868
  143MOL0     C19652   0.295   4.739  11.305  0.3253  0.2084  0.5690
  143MOL0     C19653   0.223   4.691  11.417 -0.4787  0.7008 -0.0871
  143MOL0     C19654   0.112   4.763  11.453  0.6840  0.1613 -0.3067
  143MOL0     O19655   0.023   4.752  11.556  0.3184 -0.3413 -0.1324
  143MOL0     C19656   0.046   4.644  11.654 -0.0656 -0.3986 -0.0522
  143MOL0     C19657  -0.007   4.515  11.593 -0.6016  0.1996  0.5820
  143MOL0     C19658  -0.025   4.415  11.708  0.1857  0.6389 -0.8740
  143MOL0     C19659   0.105   4.356  11.766 -0.5213  0.2157  0.9047
  143MOL0     C19660   0.088   4.227  11.838  0.1815 -0.2602  0.1979
  143MOL0     C19661   0.081   4.115  11.887  0.6988 -0.3403 -0.4206
  143MOL0     C19662   0.076   4.881  11.385  0.7991  0.9660 -0.8248
  143MOL0     C19663   0.138   4.915  11.265 -0.0986 -0.4517 -0.7646
  143MOL0     C19664   0.077   5.039  11.197 -0.1165  0.8340 -0.0003
  143MOL0     H19665   0.423   4.833  10.854 -0.5332  3.3022  0.5683
  143MOL0     H19666   0.607   4.830  10.675 -0.4906  1.8691  0.9403
  143MOL0     H19667   0.861   4.992  10.749 -0.9941 -0.2418 -0.1858
  143MOL0     H19668   0.833   4.926  10.586 -1.6801 -1.3989  1.1230
  143MOL0     H19669   1.091   4.915  10.758 -1.0144  1.1768  0.4434
  143MOL0     H19670   1.072   4.828  10.606 -0.4421  1.3369 -2.3668
  143MOL0     H19671   1.203   5.006  10.575  0.0680 -0.3278  1.8448
  143MOL0     H19672   1.047   5.030  10.490 -2.4492  2.7525  1.0333
  143MOL0     H19673   0.979   5.214  10.631  0.1817  1.9199  2.7152
  143MOL0     H19674   1.086   5.156  10.763 -0.3476 -2.5228 -0.4304
  143MOL0     H19675   1.166   5.301  10.514  2.6398  1.3607  0.7475
  143MOL0     H19676   1.272   5.226  10.637 -3.1323 -5.8540  0.2436
  143MOL0     H19677   1.068   5.439  10.706  1.3660  3.9996  2.1076
  143MOL0     H19678   1.214   5.377  10.800  0.3102 -1.3612 -0.8238
  143MOL0     H19679   1.251   5.522  10.547  1.8793  2.8209  0.4976
  143MOL0     H19680   1.367   5.480  10.668 -0.0696 -0.6113  2.1914
  143MOL0     H19681   1.159   5.647  10.795  1.5114  1.0890  1.7678
  143MOL0     H19682   1.335   5.675  10.785  0.4461 -0.1688  1.8390
  143MOL0     H19683   1.040   5.731  10.523 -1.2320  2.1006  1.2127
  143MOL0     H19684   1.092   5.869  10.281 -4.3546  2.2523 -0.4305
  143MOL0     H19685   1.210   6.000  10.278  2.9048 -3.1705  0.8513
  143MOL0     H19686   0.972   6.087  10.297  0.7614  2.9682  1.3530
  143MOL0     H19687   0.935   5.974  10.432  0.2142  0.1087  1.5757
  143MOL0     H19688   1.063   6.111  10.593 -0.1058 -0.3781  1.1659
  143MOL0     H19689   1.145   6.193  10.459  2.0466 -0.7408  1.7906
  143MOL0     H19690   0.962   6.346  10.557 -1.4055  1.4660 -1.2388
  143MOL0     H19691   0.922   6.298  10.399 -1.1801  0.2854 -0.0652
  143MOL0     H19692   0.571   6.180  10.610  1.3805 -0.7062 -1.2995
  143MOL0     H19693   0.260   6.350  10.568 -2.1855 -0.4215  3.6535
  143MOL0     H19694   0.323   6.386  10.728 -0.3902 -1.2770  1.0099
  143MOL0     H19695   0.342   6.217  10.650 -0.1979  0.0306 -1.3858
  143MOL0     H19696   0.317   6.777  10.336 -3.2775  1.2448 -2.2135
  143MOL0     H19697   0.150   6.950  10.267  0.9929  1.6941 -0.3650
  143MOL0     H19698   0.120   7.203  10.252 -0.1177 -1.5445 -1.6300
  143MOL0     H19699  -0.028   7.098  10.256 -2.2701  0.4328  1.7486
  143MOL0     H19700  -0.027   7.383  10.327 -0.3811 -0.6630  1.2039
  143MOL0     H19701  -0.102   7.320  10.177  0.2134  0.6651  0.5254
  143MOL0     H19702  -0.208   7.217  10.441 -3.6143 -1.1943 -0.4275
  143MOL0     H19703  -0.259   7.164  10.289  2.5372 -0.7396 -1.1068
  143MOL0     H19704  -0.320   7.390  10.221  0.2806  3.2092  1.3984
  143MOL0     H19705  -0.288   7.453  10.379 -1.5948  2.0925 -0.4045
  143MOL0     H19706  -0.540   7.381  10.318 -0.3538 -0.5953  0.7736
  143MOL0     H19707  -0.502   7.215  10.332 -1.7119  1.0657 -0.7497
  143MOL0     H19708  -0.401   7.288  10.569 -0.7534 -3.0981  0.2755
  143MOL0     H19709  -0.569   7.243  10.550  1.7617 -2.6061 -0.6986
  143MOL0     H19710  -0.643   7.478  10.534 -1.5510 -4.1176  0.2155
  143MOL0     H19711  -0.471   7.524  10.538 -0.7096  0.5496 -4.1694
  143MOL0     H19712  -0.669   7.398  10.723 -0.1692 -0.2755  0.6788
  143MOL0     H19713  -0.567   7.548  10.749  0.1957 -0.1272 -0.8083
  143MOL0     H19714   0.153   7.110  10.662 -1.8726 -1.3212  1.5428
  143MOL0     H19715   0.335   6.965  10.725  0.0633  3.1316 -0.8496
  143MOL0     H19716   0.639   6.654  10.493 -2.6900 -0.4405 -3.6646
  143MOL0     H19717   0.824   6.487  10.472  1.2518 -4.0667 -2.2405
  143MOL0     H19718   0.895   4.752  10.984  0.0136  2.0180  1.1780
  143MOL0     H19719   0.718   4.803  11.153 -0.4359  2.1309  0.5619
  143MOL0     H19720   0.389   4.687  11.287 -1.6058 -3.1157 -0.8898
  143MOL0     H19721   0.249   4.606  11.479  2.7526  2.4260  1.1938
  143MOL0     H19722   0.154   4.637  11.674  0.9915  5.3720 -1.7355
  143MOL0     H19723  -0.004   4.678  11.745 -1.1997 -0.0172 -0.8029
  143MOL0     H19724   0.069   4.478  11.524 -0.3844  2.7006 -0.6295
  143MOL0     H19725  -0.106   4.527  11.549 -1.1964 -1.3209  1.4490
  143MOL0     H19726  -0.082   4.455  11.792  0.5270  1.2069 -0.9022
  143MOL0     H19727  -0.081   4.335  11.660  1.3187  1.1461 -3.2167
  143MOL0     H19728   0.152   4.428  11.834  0.2376  1.5593 -0.9841
  143MOL0     H19729   0.174   4.339  11.683 -0.7122  0.2592  0.7390
  143MOL0     H19730   0.050   4.025  11.936  0.0133 -1.6370 -3.0657
  143MOL0     H19731  -0.003   4.945  11.421 -1.0935 -1.4189 -0.4808
  143MOL0     H19732   0.093   5.035  11.089 -4.4583  1.0673 -0.8013
  143MOL0     H19733  -0.031   5.033  11.209 -0.1222 -0.4318 -0.5669
  143MOL0     H19734   0.113   5.135  11.238 -1.7655  0.7056  1.9305
  144MOL0     O19735   1.469   8.022   5.624 -0.3944  0.1170 -0.2911
  144MOL0     C19736   1.361   8.045   5.680  0.6372 -0.6794  0.3665
  144MOL0     O19737   1.250   7.981   5.642  0.1716  1.0409 -0.3253
  144MOL0     C19738   1.253   7.873   5.555  0.4890 -0.2241 -0.0927
  144MOL0     C19739   1.151   7.855   5.469  0.8558  0.3521  0.4558
  144MOL0     C19740   1.145   7.745   5.384  0.4383 -0.7686  1.1877
  144MOL0     C19741   1.232   7.644   5.404 -0.0421  0.9504  1.4378
  144MOL0     O19742   1.226   7.525   5.318 -0.1158 -0.7987 -0.4423
  144MOL0     C19743   1.167   7.534   5.190 -0.7032  0.4292  1.1258
  144MOL0     C19744   1.036   7.467   5.217 -1.2433 -0.3005  0.3997
  144MOL0     C19745   0.927   7.493   5.121  1.0187 -0.2801  0.6539
  144MOL0     C19746   0.789   7.430   5.167  1.1135 -0.3067  0.0487
  144MOL0     C19747   0.697   7.555   5.194  0.9830  0.2292  0.0072
  144MOL0     C19748   0.571   7.517   5.278 -0.0826 -0.3390 -0.1286
  144MOL0     C19749   0.504   7.401   5.211 -0.8612  0.1430  0.5438
  144MOL0     C19750   0.456   7.425   5.069  0.3835 -0.2194  0.2400
  144MOL0     N19751   0.401   7.303   4.997 -0.1426  0.4841  0.5602
  144MOL0     C19752   0.486   7.210   4.950  0.4377 -0.3689 -0.0819
  144MOL0     C19753   0.410   7.105   4.919  0.1523 -0.5234 -0.3320
  144MOL0     C19754   0.450   6.965   4.873 -0.7348 -0.5940 -0.0969
  144MOL0     C19755   0.434   6.953   4.724  0.9838 -0.3517 -0.0495
  144MOL0     C19756   0.287   6.951   4.680  0.0486  0.0366 -0.7566
  144MOL0     C19757   0.275   6.943   4.535 -0.0304 -0.1629  0.5955
  144MOL0     O19758   0.370   6.854   4.478 -0.1805  0.1296 -1.0070
  144MOL0     C19759   0.399   6.858   4.344  1.2183 -0.1509 -0.2714
  144MOL0     C19760   0.343   6.948   4.252 -0.9575 -0.5226  0.9201
  144MOL0     C19761   0.369   6.944   4.114 -0.4381 -0.2749 -0.3420
  144MOL0     C19762   0.307   7.059   4.038  0.6861  0.5002 -0.2192
  144MOL0     C19763   0.470   6.858   4.072  0.0126  0.0929  0.2174
  144MOL0     C19764   0.512   6.845   3.934 -0.0831 -0.0803 -1.0153
  144MOL0     O19765   0.641   6.797   3.920 -0.2753  0.9514  0.1001
  144MOL0     C19766   0.701   6.805   3.794  0.1586  0.0829  0.4524
  144MOL0     C19767   0.656   6.735   3.679 -0.0696  0.3709 -0.9087
  144MOL0     C19768   0.729   6.744   3.565 -0.7904 -0.1772  0.9014
  144MOL0     C19769   0.839   6.840   3.554  1.4002  0.4318 -0.7626
  144MOL0     O19770   0.932   6.858   3.440  0.9786  0.0872 -1.0616
  144MOL0     C19771   0.906   6.773   3.326  0.0377 -0.8147  0.1644
  144MOL0     C19772   0.811   6.847   3.234 -0.3265  0.2119 -0.4838
  144MOL0     C19773   0.740   6.776   3.118 -1.5545  0.3660  0.8188
  144MOL0     C19774   0.843   6.723   3.013  0.3731 -0.0800 -0.1008
  144MOL0     C19775   0.789   6.605   2.927  0.9490  0.1676  1.2991
  144MOL0     C19776   0.687   6.638   2.817  0.1765 -0.4062 -0.3686
  144MOL0     C19777   0.642   6.523   2.724 -0.3701 -0.1042 -0.4012
  144MOL0     C19778   0.744   6.468   2.627 -0.5571 -0.0475 -0.0749
  144MOL0    Cl19779   0.759   6.574   2.488 -0.2751 -0.0318 -0.0902
  144MOL0     C19780   0.872   6.907   3.667 -0.0223 -0.7763 -0.4206
  144MOL0     C19781   0.809   6.888   3.784  0.2765  0.3839  0.3749
  144MOL0     O19782   0.441   6.892   3.840 -0.3177 -0.2926 -0.5200
  144MOL0     C19783   0.520   6.762   4.161 -0.3896 -0.1490 -0.1934
  144MOL0     C19784   0.490   6.769   4.296 -0.3487 -0.3384  0.5486
  144MOL0     N19785   0.278   7.123   4.965 -0.2667  0.3546 -0.2144
  144MOL0     N19786   0.272   7.246   5.003  0.2726 -0.7942 -0.2553
  144MOL0     C19787   1.336   7.652   5.502  0.0107  0.8032  0.3467
  144MOL0     C19788   1.342   7.776   5.573 -0.2620  0.1316 -0.5313
  144MOL0     C19789   1.344   8.141   5.794 -1.0667  0.1737  0.4046
  144MOL0     C19790   1.240   8.140   5.885  0.3679 -0.7622  0.0204
  144MOL0     C19791   1.243   8.222   6.005 -0.5934  0.5765  0.7024
  144MOL0     C19792   1.337   8.315   6.023  0.4171 -1.1605  0.2578
  144MOL0     O19793   1.333   8.387   6.140 -0.0926 -0.3437  0.1611
  144MOL0     C19794   1.292   8.518   6.138  0.1020 -1.0101 -0.3462
  144MOL0     C19795   1.183   8.518   6.241  0.1066 -0.4824 -0.9007
  144MOL0     C19796   1.236   8.460   6.379 -0.4683  0.0827 -0.3545
  144MOL0     C19797   1.140   8.500   6.494  0.5021  0.6226  0.2300
  144MOL0     C19798   1.145   8.632   6.548 -0.1458 -0.5056  0.1039
  144MOL0     C19799   1.158   8.742   6.580  0.3167  0.1740  0.8055
  144MOL0     C19800   1.430   8.330   5.930  0.2487  0.7121  1.0398
  144MOL0     C19801   1.440   8.248   5.818 -0.1039  0.5941  0.7897
  144MOL0     C19802   1.548   8.280   5.714  0.6288  0.3134  0.2242
  144MOL0     H19803   1.073   7.930   5.463 -1.3349 -1.8452 -0.6996
  144MOL0     H19804   1.059   7.726   5.320  2.0911  0.1319 -1.4473
  144MOL0     H19805   1.227   7.470   5.125 -2.1354  1.8953 -1.8661
  144MOL0     H19806   1.158   7.632   5.142 -2.7914 -0.2771 -0.0666
  144MOL0     H19807   1.052   7.359   5.219 -2.4783 -0.5791 -1.9972
  144MOL0     H19808   1.012   7.486   5.323  2.4597  0.0131  1.3260
  144MOL0     H19809   0.914   7.598   5.092  4.2873 -0.0728 -0.4689
  144MOL0     H19810   0.942   7.449   5.022 -3.1155 -2.0450  0.5892
  144MOL0     H19811   0.748   7.374   5.083  1.9073 -1.6793  0.5356
  144MOL0     H19812   0.800   7.365   5.254  0.3367 -1.1664 -0.4829
  144MOL0     H19813   0.668   7.598   5.098  1.9177 -2.0636 -1.3918
  144MOL0     H19814   0.742   7.641   5.246  1.2838 -0.0307  0.1837
  144MOL0     H19815   0.608   7.492   5.378  1.0446  1.5351 -0.0280
  144MOL0     H19816   0.508   7.607   5.284  2.2487  1.3457  0.7752
  144MOL0     H19817   0.419   7.383   5.278 -0.4285  2.2824  1.7650
  144MOL0     H19818   0.569   7.314   5.211  1.1377  1.4774  2.9993
  144MOL0     H19819   0.375   7.498   5.073  0.0707 -0.5081 -0.6275
  144MOL0     H19820   0.530   7.452   4.993  2.1281 -3.4383  0.5898
  144MOL0     H19821   0.593   7.218   4.934  0.4035 -0.6112 -0.4306
  144MOL0     H19822   0.394   6.885   4.922  1.8362 -1.4818  1.5735
  144MOL0     H19823   0.553   6.951   4.908 -0.7978  3.9961  2.7942
  144MOL0     H19824   0.493   7.032   4.675  2.0328  1.2346  3.4637
  144MOL0     H19825   0.477   6.856   4.696  0.5870 -0.3447 -0.7109
  144MOL0     H19826   0.233   6.867   4.723 -1.8223  0.9581 -1.2126
  144MOL0     H19827   0.233   7.039   4.714  0.8934  0.6606 -0.9806
  144MOL0     H19828   0.174   6.916   4.504 -0.1318 -0.3312  1.0773
  144MOL0     H19829   0.298   7.046   4.508 -2.8440  0.5855  0.8149
  144MOL0     H19830   0.267   7.020   4.283 -0.9984 -0.3539  0.4285
  144MOL0     H19831   0.382   7.137   4.021  2.0863 -1.0345 -1.5235
  144MOL0     H19832   0.225   7.108   4.089  0.3860 -0.2826  0.0639
  144MOL0     H19833   0.274   7.034   3.936  3.6733  0.1622 -1.2387
  144MOL0     H19834   0.571   6.671   3.696 -0.0172  0.1943 -1.3147
  144MOL0     H19835   0.691   6.690   3.479  4.5403 -0.7261 -1.5327
  144MOL0     H19836   0.998   6.779   3.267 -1.1627  1.1888 -1.6515
  144MOL0     H19837   0.879   6.667   3.338  2.1758 -1.4696 -0.3109
  144MOL0     H19838   0.733   6.882   3.302  0.2212  2.4733 -0.9294
  144MOL0     H19839   0.858   6.940   3.201 -1.7336  1.3694  0.6038
  144MOL0     H19840   0.680   6.855   3.072 -2.2543 -0.7128 -0.1774
  144MOL0     H19841   0.671   6.696   3.148 -0.5746  0.3569  3.2459
  144MOL0     H19842   0.937   6.684   3.053 -0.0253  0.5535  1.5643
  144MOL0     H19843   0.881   6.802   2.947  3.2240 -1.9152 -0.8192
  144MOL0     H19844   0.876   6.553   2.886 -0.0560  0.3382 -1.2055
  144MOL0     H19845   0.740   6.523   2.979  1.4903  0.0586  1.6382
  144MOL0     H19846   0.721   6.727   2.763 -3.8913  0.3615 -1.9714
  144MOL0     H19847   0.591   6.676   2.852 -1.2473 -1.4841 -2.8502
  144MOL0     H19848   0.552   6.546   2.666 -1.5254 -0.6745  1.1145
  144MOL0     H19849   0.616   6.446   2.796  3.5058  0.5254  1.9897
  144MOL0     H19850   0.707   6.371   2.593  0.7997 -1.0979  1.2993
  144MOL0     H19851   0.841   6.456   2.678 -1.5043  0.9869  2.1255
  144MOL0     H19852   0.949   6.983   3.677 -0.5160 -0.3258 -0.0263
  144MOL0     H19853   0.838   6.937   3.876 -0.7533 -2.8833  2.6154
  144MOL0     H19854   0.588   6.686   4.125  1.1918 -0.0078  2.2290
  144MOL0     H19855   0.543   6.695   4.354  0.4540 -0.6279 -0.5221
  144MOL0     H19856   1.400   7.567   5.524 -2.2787 -0.2527  3.6157
  144MOL0     H19857   1.418   7.788   5.650 -2.8821 -1.1978  2.5156
  144MOL0     H19858   1.156   8.072   5.874 -0.9380  1.1031 -2.9821
  144MOL0     H19859   1.170   8.209   6.084 -1.9168  0.8363 -0.4444
  144MOL0     H19860   1.364   8.587   6.184 -3.4090  1.7758  1.4333
  144MOL0     H19861   1.262   8.547   6.037  0.9316 -0.5850 -0.4807
  144MOL0     H19862   1.107   8.447   6.205  0.0272  0.0567 -1.8435
  144MOL0     H19863   1.139   8.617   6.256  1.2257  0.3247 -2.6589
  144MOL0     H19864   1.240   8.351   6.372  3.8755 -0.0729  1.5503
  144MOL0     H19865   1.339   8.493   6.392 -0.1389 -0.9665 -0.3052
  144MOL0     H19866   1.162   8.433   6.578 -2.3978 -1.8556 -0.8033
  144MOL0     H19867   1.032   8.492   6.477 -0.2935  3.8197  2.8032
  144MOL0     H19868   1.178   8.845   6.604  2.7967  0.5653 -2.3040
  144MOL0     H19869   1.508   8.400   5.958  0.5640  0.7687  0.0414
  144MOL0     H19870   1.601   8.374   5.735  2.6248 -0.8601  0.7030
  144MOL0     H19871   1.619   8.197   5.717 -0.2322 -0.4152  0.9964
  144MOL0     H19872   1.501   8.286   5.615 -2.2543  0.3330  1.4964
  145MOL0     O19873   0.785   7.324   2.072 -0.2560 -0.0591 -0.4623
  145MOL0     C19874   0.717   7.347   1.973  0.3134  0.1768 -0.0160
  145MOL0     O19875   0.766   7.385   1.857  0.0048 -0.3791 -0.7988
  145MOL0     C19876   0.892   7.455   1.855  0.1870  0.2329 -0.1490
  145MOL0     C19877   0.969   7.435   1.738  0.6669 -0.2957  0.2650
  145MOL0     C19878   1.088   7.504   1.719 -0.0395 -1.1308 -0.8112
  145MOL0     C19879   1.146   7.581   1.826  0.1017  0.0478  0.3632
  145MOL0     O19880   1.264   7.653   1.805  0.3315 -0.6245 -0.1768
  145MOL0     C19881   1.379   7.584   1.849 -0.4288  0.1303 -0.0227
  145MOL0     C19882   1.479   7.589   1.735  0.1240 -0.4690  0.4038
  145MOL0     C19883   1.611   7.515   1.760  0.2681  0.3907 -0.0816
  145MOL0     C19884   1.713   7.579   1.855 -0.0500  0.5566 -0.3413
  145MOL0     C19885   1.830   7.474   1.875 -0.1247  0.2822  0.2480
  145MOL0     C19886   1.804   7.352   1.967  0.4203 -0.4587 -0.5263
  145MOL0     C19887   1.791   7.404   2.107 -0.2930 -0.7299  0.1675
  145MOL0     C19888   1.770   7.284   2.198  0.4953  0.1992  1.2604
  145MOL0     N19889   1.745   7.329   2.339  0.5115 -0.3426  0.9961
  145MOL0     C19890   1.704   7.249   2.440  1.2574  0.3509 -0.2324
  145MOL0     C19891   1.744   7.322   2.544  0.4678 -0.1515 -0.3125
  145MOL0     C19892   1.729   7.268   2.679 -0.4032  0.5982  0.1181
  145MOL0     C19893   1.601   7.292   2.740  0.3925 -0.8146 -0.5657
  145MOL0     C19894   1.558   7.438   2.754 -0.4081  0.2941  0.9092
  145MOL0     C19895   1.432   7.447   2.837  0.1133  0.2747  0.4658
  145MOL0     O19896   1.435   7.372   2.952 -0.2375 -0.1283 -0.0218
  145MOL0     C19897   1.330   7.356   3.033  0.0799  0.1700  0.4031
  145MOL0     C19898   1.358   7.295   3.155  0.3942  0.4954  0.1711
  145MOL0     C19899   1.253   7.270   3.243  0.2160 -0.1334 -0.6084
  145MOL0     C19900   1.290   7.208   3.372  0.4930 -0.2526  0.3074
  145MOL0     C19901   1.123   7.304   3.216  0.6061  0.3573  0.2357
  145MOL0     C19902   0.994   7.270   3.300  0.2013  0.9070 -0.1369
  145MOL0     O19903   0.872   7.260   3.233 -0.0042  0.3227 -0.0624
  145MOL0     C19904   0.755   7.218   3.291  0.3723  1.2058 -0.1104
  145MOL0     C19905   0.644   7.215   3.214 -0.8244 -0.6147 -0.7601
  145MOL0     C19906   0.521   7.180   3.259  0.1481 -0.3968 -0.0092
  145MOL0     C19907   0.506   7.125   3.391  0.4031  0.0095 -0.4427
  145MOL0     O19908   0.379   7.085   3.427  0.1282  0.8763 -0.8281
  145MOL0     C19909   0.342   7.027   3.550 -0.1188  0.1260  0.3145
  145MOL0     C19910   0.213   6.945   3.539  0.3212  0.4073 -0.3247
  145MOL0     C19911   0.227   6.826   3.438  0.0624 -0.2576  0.3709
  145MOL0     C19912   0.340   6.722   3.469 -0.5784 -0.0762  0.6196
  145MOL0     C19913   0.321   6.593   3.396  0.4856 -0.6166  0.7467
  145MOL0     C19914   0.445   6.509   3.405 -0.4551 -0.0856  0.0142
  145MOL0     C19915   0.417   6.361   3.362 -0.7269 -0.7500 -0.2156
  145MOL0     C19916   0.544   6.268   3.378 -0.2107 -0.5027 -0.5521
  145MOL0    Cl19917   0.510   6.114   3.297  0.3256 -0.1789 -0.1855
  145MOL0     C19918   0.620   7.113   3.468 -1.1425  0.1816  0.2973
  145MOL0     C19919   0.739   7.164   3.428 -0.0071 -0.4430  0.1225
  145MOL0     O19920   1.018   7.242   3.414 -0.4301 -0.4069  0.0721
  145MOL0     C19921   1.092   7.368   3.089 -0.6106  0.2865  0.2031
  145MOL0     C19922   1.200   7.393   3.008 -0.3806 -0.6272  0.5690
  145MOL0     N19923   1.806   7.435   2.506 -0.6528  0.2615 -0.0424
  145MOL0     N19924   1.794   7.447   2.381 -0.1351  0.3272 -0.1719
  145MOL0     C19925   1.076   7.587   1.943 -0.6358 -1.0746 -0.1600
  145MOL0     C19926   0.945   7.534   1.958  1.1261  0.0070 -0.0336
  145MOL0     C19927   0.560   7.343   1.984  0.5768 -0.3604  0.4422
  145MOL0     C19928   0.485   7.390   1.878  0.7529  0.9652 -0.1795
  145MOL0     C19929   0.341   7.381   1.890 -0.1444  1.2148  0.5750
  145MOL0     C19930   0.271   7.322   1.995  0.3532  0.1614  1.2382
  145MOL0     O19931   0.135   7.330   1.976 -0.3482 -0.4974 -0.7183
  145MOL0     C19932   0.056   7.316   2.091 -1.2213 -0.4107 -0.0160
  145MOL0     C19933  -0.082   7.297   2.049  1.0662  0.6488  0.1682
  145MOL0     C19934  -0.183   7.396   2.117 -0.3567 -0.3534  0.2593
  145MOL0     C19935  -0.191   7.355   2.269  0.8810 -0.6479 -0.1386
  145MOL0     C19936  -0.323   7.383   2.324  0.3116 -0.4844 -0.5474
  145MOL0     C19937  -0.436   7.430   2.342 -0.2066  0.7364  0.2859
  145MOL0     C19938   0.352   7.290   2.104  0.2005  0.2334 -0.0773
  145MOL0     C19939   0.494   7.300   2.106 -0.8879 -0.0265 -0.2728
  145MOL0     C19940   0.561   7.239   2.234 -1.1939 -1.3418  0.1716
  145MOL0     H19941   0.920   7.373   1.663 -2.0664  1.5276  0.4036
  145MOL0     H19942   1.153   7.498   1.633  2.3940  2.3539  0.5856
  145MOL0     H19943   1.351   7.483   1.880 -0.5627  0.6793  1.7476
  145MOL0     H19944   1.423   7.634   1.935 -0.2267  1.0172 -0.6368
  145MOL0     H19945   1.437   7.558   1.639  3.0019 -2.1807 -0.4192
  145MOL0     H19946   1.511   7.692   1.718 -0.6754 -0.4770 -1.2914
  145MOL0     H19947   1.580   7.416   1.796 -1.6954  1.2817  0.8152
  145MOL0     H19948   1.660   7.484   1.667  1.3446 -2.7811  1.3778
  145MOL0     H19949   1.752   7.670   1.809  3.4347  0.5086  2.1262
  145MOL0     H19950   1.667   7.610   1.949 -3.3663  0.1108 -1.6674
  145MOL0     H19951   1.917   7.523   1.918 -0.4848  1.5641 -0.4335
  145MOL0     H19952   1.853   7.432   1.777  0.6986 -2.5542  1.5630
  145MOL0     H19953   1.708   7.303   1.949  0.1469 -1.9540  3.8189
  145MOL0     H19954   1.893   7.288   1.967  3.1927  2.8812  2.5330
  145MOL0     H19955   1.709   7.475   2.120  0.2472 -0.3165  1.4662
  145MOL0     H19956   1.883   7.448   2.146 -0.2207 -0.1550 -0.6269
  145MOL0     H19957   1.683   7.222   2.173 -1.2570  2.4825  1.3578
  145MOL0     H19958   1.851   7.211   2.207 -1.1315 -1.6602  1.7214
  145MOL0     H19959   1.664   7.149   2.443 -2.8118  1.7361 -1.8412
  145MOL0     H19960   1.808   7.308   2.744 -0.3796  2.1601 -0.8423
  145MOL0     H19961   1.749   7.160   2.678  0.2220  0.6482  2.2963
  145MOL0     H19962   1.523   7.231   2.694 -1.1463  0.1857  0.6240
  145MOL0     H19963   1.616   7.262   2.844  1.0592  3.1680  0.6236
  145MOL0     H19964   1.640   7.489   2.806  1.2006 -0.1748 -1.0285
  145MOL0     H19965   1.544   7.498   2.663  0.2607  1.2522  1.4196
  145MOL0     H19966   1.410   7.552   2.859 -2.4052  0.7029 -3.2337
  145MOL0     H19967   1.346   7.421   2.774  0.6558  0.6187 -0.4290
  145MOL0     H19968   1.454   7.271   3.198 -0.5528  0.9075  2.6828
  145MOL0     H19969   1.269   7.276   3.456  2.5013 -0.8126  1.3450
  145MOL0     H19970   1.398   7.188   3.379  0.1959 -2.3668 -0.6187
  145MOL0     H19971   1.225   7.121   3.382 -1.0726  0.9006  0.5690
  145MOL0     H19972   0.671   7.250   3.115 -0.0786  1.0888  0.0209
  145MOL0     H19973   0.435   7.189   3.194 -0.4892  1.8869  1.0405
  145MOL0     H19974   0.431   6.968   3.578 -0.1018 -1.3086 -2.3723
  145MOL0     H19975   0.312   7.104   3.622  0.0855 -0.2751  0.8387
  145MOL0     H19976   0.185   6.903   3.636  2.5539 -1.3955 -0.3919
  145MOL0     H19977   0.133   7.010   3.503  1.5400  1.7801 -0.6463
  145MOL0     H19978   0.244   6.869   3.338  0.5205  2.4217  1.5292
  145MOL0     H19979   0.136   6.766   3.439  1.1607 -1.9825  0.6923
  145MOL0     H19980   0.331   6.695   3.574 -1.1184 -3.4959 -0.2096
  145MOL0     H19981   0.436   6.768   3.444 -0.1912 -0.8418  0.6732
  145MOL0     H19982   0.233   6.546   3.441 -1.9657  2.0473 -0.9626
  145MOL0     H19983   0.298   6.613   3.291 -0.9557  0.6859  1.2806
  145MOL0     H19984   0.479   6.501   3.509  3.2750  1.2448 -0.9364
  145MOL0     H19985   0.532   6.546   3.349  1.1146  2.5851  3.8035
  145MOL0     H19986   0.402   6.353   3.254  2.0464 -3.3523 -0.5449
  145MOL0     H19987   0.334   6.319   3.419 -2.5482  1.9373 -0.7077
  145MOL0     H19988   0.562   6.265   3.486 -0.3533  0.2612 -0.5074
  145MOL0     H19989   0.632   6.324   3.346 -1.9801  1.9488 -1.3219
  145MOL0     H19990   0.623   7.063   3.564  1.0795  1.6849  1.0899
  145MOL0     H19991   0.824   7.140   3.491  1.2799 -1.5511 -1.9448
  145MOL0     H19992   0.996   7.399   3.050  0.4480  0.8905 -2.0808
  145MOL0     H19993   1.177   7.416   2.905 -0.0190 -1.2201  0.3500
  145MOL0     H19994   1.111   7.661   2.014 -4.6627 -0.7430  1.7978
  145MOL0     H19995   0.905   7.557   2.056  0.7856  0.3537 -0.2504
  145MOL0     H19996   0.535   7.423   1.787  2.4380 -0.0383  0.3380
  145MOL0     H19997   0.293   7.422   1.801  1.1250 -1.5960 -1.5800
  145MOL0     H19998   0.099   7.243   2.159  0.5037  1.1968  0.7172
  145MOL0     H19999   0.063   7.411   2.145  1.3156 -1.1588  1.1101
  145MOL0     H20000  -0.116   7.197   2.077  0.2398  1.0554  0.6478
  145MOL0     H20001  -0.091   7.314   1.941  1.7840  0.8729  0.1338
  145MOL0     H20002  -0.157   7.502   2.106  0.2531 -0.5530 -0.2882
  145MOL0     H20003  -0.279   7.385   2.065 -1.4537 -0.1952  2.1475
  145MOL0     H20004  -0.130   7.427   2.324 -0.8687  0.0838  0.9326
  145MOL0     H20005  -0.169   7.248   2.280  2.3809 -0.4453 -0.8961
  145MOL0     H20006  -0.538   7.459   2.359 -0.1805  0.2968  1.2535
  145MOL0     H20007   0.312   7.246   2.195  2.9112 -2.2160  0.1028
  145MOL0     H20008   0.642   7.302   2.270 -1.6637 -0.7166  0.1411
  145MOL0     H20009   0.498   7.230   2.323 -0.8111  2.2060  0.9460
  145MOL0     H20010   0.614   7.148   2.204 -0.9743 -2.2338  3.0414
  146MOL0     O20011   0.053   9.793  11.513 -0.4866 -1.1020  0.0019
  146MOL0     C20012   0.052   9.777  11.386  0.1612  0.3139 -0.4357
  146MOL0     O20013   0.125   9.684  11.324  0.1343 -0.0900  0.9712
  146MOL0     C20014   0.225   9.610  11.374  0.0856  0.9065 -1.0286
  146MOL0     C20015   0.306   9.669  11.474 -0.2422  0.2848  0.3206
  146MOL0     C20016   0.409   9.592  11.538 -0.6066 -0.8933 -0.8303
  146MOL0     C20017   0.415   9.454  11.512  0.6863 -1.1481 -0.1872
  146MOL0     O20018   0.504   9.382  11.584  0.0482 -1.1389 -1.0562
  146MOL0     C20019   0.465   9.241  11.588 -0.2439 -0.3861 -0.1306
  146MOL0     C20020   0.532   9.174  11.715 -0.1947 -0.1094 -0.8877
  146MOL0     C20021   0.687   9.144  11.702 -0.1834 -0.2845 -0.5498
  146MOL0     C20022   0.762   9.141  11.843 -0.2806  0.9087  0.2805
  146MOL0     C20023   0.752   9.270  11.914 -0.7411 -0.6811 -0.6066
  146MOL0     C20024   0.867   9.266  12.025  0.2596 -0.4426  0.7070
  146MOL0     C20025   0.889   9.399  12.097  0.3889  0.4408  0.2438
  146MOL0     C20026   1.006   9.471  12.038 -0.3744 -0.1649  1.0202
  146MOL0     N20027   0.977   9.619  12.045 -0.8862  0.1968  0.0900
  146MOL0     C20028   0.893   9.695  11.963  0.1641 -0.5419 -0.1294
  146MOL0     C20029   0.911   9.824  12.011  0.1040  0.3994 -0.4767
  146MOL0     C20030   0.854   9.948  11.943 -0.2084  0.2078 -0.1768
  146MOL0     C20031   0.958  10.056  11.904 -0.6700  0.7606 -0.4491
  146MOL0     C20032   0.921  10.201  11.918  0.0804 -0.0367  0.5470
  146MOL0     C20033   1.002  10.285  11.829 -0.1502 -0.0821  0.4327
  146MOL0     O20034   1.139  10.252  11.849  0.4370  0.4227  0.2906
  146MOL0     C20035   1.238  10.331  11.798 -0.0578  0.4033  0.4557
  146MOL0     C20036   1.369  10.327  11.844 -1.0907  0.3411  0.9220
  146MOL0     C20037   1.474  10.392  11.779 -0.2725  0.2852 -0.0193
  146MOL0     C20038   1.611  10.356  11.840  0.2285  0.9029 -0.3482
  146MOL0     C20039   1.447  10.496  11.691  0.3944  0.0794  0.1785
  146MOL0     C20040   1.552  10.597  11.651  0.6694  0.2084 -1.4591
  146MOL0     O20041   1.521  10.681  11.548  0.4197  0.2432  0.0615
  146MOL0     C20042   1.620  10.770  11.507  0.6633 -0.1655  0.5149
  146MOL0     C20043   1.627  10.902  11.565  0.2190 -0.0803  0.7252
  146MOL0     C20044   1.731  10.986  11.531  1.0340 -0.0486 -0.4214
  146MOL0     C20045   1.823  10.956  11.432  0.6038 -0.3302  0.3578
  146MOL0     O20046   1.942  11.031  11.420  0.0146  0.1425  0.3697
  146MOL0     C20047   1.937  11.172  11.396  0.9651  1.0901  0.3563
  146MOL0     C20048   2.034  11.204  11.287  0.0162 -0.3559 -0.2473
  146MOL0     C20049   2.028  11.100  11.164 -0.1070  0.1029  0.2891
  146MOL0     C20050   1.886  11.106  11.097 -0.0171  0.1928  0.5053
  146MOL0     C20051   1.875  11.003  10.985 -0.5412 -0.0272  0.3995
  146MOL0     C20052   1.951  11.041  10.862  0.6476  0.0112  0.1662
  146MOL0     C20053   1.973  10.929  10.765 -0.4909  0.4356 -0.2161
  146MOL0     C20054   2.049  10.971  10.640  0.3143 -0.2772 -0.3770
  146MOL0    Cl20055   1.991  11.118  10.555  0.0739 -0.6795  0.0348
  146MOL0     C20056   1.806  10.831  11.367 -0.4191  0.4488 -0.0003
  146MOL0     C20057   1.706  10.739  11.399 -0.0820  0.1608  0.6548
  146MOL0     O20058   1.648  10.609  11.731 -0.6636 -0.2605  0.0106
  146MOL0     C20059   1.319  10.501  11.637  0.5405 -0.4081  0.7080
  146MOL0     C20060   1.217  10.427  11.688  0.6702  1.0496  0.0303
  146MOL0     N20061   1.006   9.821  12.104 -0.0170  0.3233  0.6609
  146MOL0     N20062   1.033   9.696  12.138  0.3900  0.1547 -0.0730
  146MOL0     C20063   0.323   9.399  11.419  0.7330  0.1786  0.1052
  146MOL0     C20064   0.235   9.476  11.342 -0.1405 -0.8005 -0.1226
  146MOL0     C20065  -0.020   9.869  11.292  0.8035 -1.1720  0.3296
  146MOL0     C20066  -0.039   9.997  11.344 -0.4004 -0.2014 -0.4364
  146MOL0     C20067  -0.102  10.096  11.271 -0.1394  0.3856 -0.1424
  146MOL0     C20068  -0.151  10.077  11.141  0.6968  0.8250 -0.0036
  146MOL0     O20069  -0.236  10.186  11.106 -0.5885  0.2840 -0.1342
  146MOL0     C20070  -0.260  10.217  10.970  0.7034  0.5047 -0.1965
  146MOL0     C20071  -0.147  10.258  10.886 -0.6081 -0.1762 -0.6486
  146MOL0     C20072  -0.069  10.378  10.939 -0.2731 -0.6430 -0.6217
  146MOL0     C20073  -0.140  10.509  10.992  0.7869 -0.8394 -0.0880
  146MOL0     C20074  -0.251  10.551  10.905 -0.3301 -0.2570  0.2532
  146MOL0     C20075  -0.355  10.575  10.845 -0.2779  0.0461 -0.9343
  146MOL0     C20076  -0.128   9.948  11.083 -0.5674  0.6446  0.2113
  146MOL0     C20077  -0.063   9.843  11.163  0.0818  0.1377  0.3020
  146MOL0     C20078  -0.065   9.707  11.102 -0.5631  0.6944  0.0518
  146MOL0     H20079   0.292   9.774  11.500 -0.4299  0.4164 -0.3090
  146MOL0     H20080   0.461   9.637  11.623 -0.7915 -1.0219 -0.6481
  146MOL0     H20081   0.504   9.190  11.500  1.2032 -0.0061  0.2618
  146MOL0     H20082   0.358   9.225  11.602 -0.2475 -3.6710 -2.7636
  146MOL0     H20083   0.507   9.218  11.812  2.5407 -1.5618  0.6134
  146MOL0     H20084   0.491   9.073  11.730 -2.2640  0.4729 -2.1764
  146MOL0     H20085   0.701   9.043  11.663 -1.3034 -1.5409  2.0086
  146MOL0     H20086   0.737   9.205  11.627  0.5212  0.8805  0.8098
  146MOL0     H20087   0.716   9.070  11.911 -2.2030  0.9691 -0.8552
  146MOL0     H20088   0.866   9.115  11.823  0.0383  2.6892 -0.6658
  146MOL0     H20089   0.657   9.273  11.967 -0.0845 -2.9130  0.8172
  146MOL0     H20090   0.774   9.353  11.846 -0.7708 -0.2274 -0.0665
  146MOL0     H20091   0.823   9.209  12.108  1.4454 -0.7693  1.1259
  146MOL0     H20092   0.957   9.213  11.993  0.6974 -0.1792  1.4866
  146MOL0     H20093   0.901   9.387  12.205  0.6139 -2.3436 -0.0152
  146MOL0     H20094   0.802   9.461  12.070  2.8669  3.7485 -0.8672
  146MOL0     H20095   1.108   9.443  12.067  1.5080  0.4320 -3.9236
  146MOL0     H20096   0.994   9.441  11.933 -4.0898  0.2665  1.2073
  146MOL0     H20097   0.844   9.665  11.871  3.1190 -0.8248 -1.7286
  146MOL0     H20098   0.778   9.990  12.010 -0.0461 -0.0043  0.1417
  146MOL0     H20099   0.806   9.924  11.847  0.2879 -1.3520 -0.0531
  146MOL0     H20100   1.045  10.045  11.970 -0.0572 -0.0852 -1.3720
  146MOL0     H20101   0.983  10.022  11.803  0.3525 -0.7594  0.2944
  146MOL0     H20102   0.815  10.213  11.897  0.1013 -2.1190 -1.1574
  146MOL0     H20103   0.937  10.235  12.021  0.9951 -0.1804  0.4651
  146MOL0     H20104   0.976  10.289  11.723  1.1656  1.3377  0.1298
  146MOL0     H20105   0.979  10.388  11.859 -2.2188  0.0658 -1.3657
  146MOL0     H20106   1.389  10.243  11.910 -0.1210 -0.3183 -0.1769
  146MOL0     H20107   1.644  10.442  11.900 -4.3384  0.5157  3.2274
  146MOL0     H20108   1.680  10.321  11.763 -1.3833  2.3097 -2.5519
  146MOL0     H20109   1.596  10.268  11.902 -1.1168 -0.0007 -1.8780
  146MOL0     H20110   1.553  10.936  11.637 -0.4244 -2.1677  1.1332
  146MOL0     H20111   1.744  11.064  11.605 -2.6014 -1.0292  1.5133
  146MOL0     H20112   1.837  11.200  11.361 -0.7177 -1.5159  2.6376
  146MOL0     H20113   1.955  11.231  11.487 -1.8311  1.9746  0.4412
  146MOL0     H20114   2.014  11.306  11.254 -1.2071 -2.2047 -6.8675
  146MOL0     H20115   2.134  11.192  11.329 -0.1404  0.7529  0.4716
  146MOL0     H20116   2.055  11.000  11.199  2.7247  0.8484  0.4794
  146MOL0     H20117   2.111  11.121  11.096  1.0742 -0.4712  1.5107
  146MOL0     H20118   1.880  11.210  11.063  0.1315 -0.4527 -1.6894
  146MOL0     H20119   1.814  11.080  11.174 -0.0814 -1.4058 -0.0500
  146MOL0     H20120   1.913  10.905  11.015  2.3766  1.1904  1.0675
  146MOL0     H20121   1.768  10.988  10.970 -0.4001 -2.2251  1.2113
  146MOL0     H20122   2.048  11.089  10.878  0.1132  1.3526 -0.5148
  146MOL0     H20123   1.906  11.127  10.813  2.8235  1.1338  0.0034
  146MOL0     H20124   1.872  10.899  10.737 -0.9907  0.7140  1.2051
  146MOL0     H20125   2.013  10.837  10.809  1.4752  0.7271 -1.2448
  146MOL0     H20126   2.040  10.884  10.575 -4.4191 -1.1036  1.0305
  146MOL0     H20127   2.151  10.998  10.670  0.6360 -0.4400 -1.3006
  146MOL0     H20128   1.864  10.802  11.280 -1.3643  0.1449 -0.5468
  146MOL0     H20129   1.702  10.650  11.338  1.6566  1.7824 -2.0364
  146MOL0     H20130   1.303  10.566  11.552 -1.9442 -2.2503 -0.3725
  146MOL0     H20131   1.122  10.440  11.637  0.1039  0.7431  0.9842
  146MOL0     H20132   0.328   9.298  11.382  2.1773  0.7486 -1.3941
  146MOL0     H20133   0.168   9.444  11.263 -1.7320 -1.5021  1.4500
  146MOL0     H20134  -0.013  10.022  11.446 -1.6835 -1.4627  0.2313
  146MOL0     H20135  -0.120  10.190  11.322  1.4523 -0.2902  1.8330
  146MOL0     H20136  -0.317  10.132  10.932 -2.7432  1.6509  1.9354
  146MOL0     H20137  -0.342  10.289  10.965 -1.5578 -1.9094 -0.0300
  146MOL0     H20138  -0.179  10.272  10.783 -2.3451 -2.5704 -0.5302
  146MOL0     H20139  -0.087  10.167  10.876 -3.2587 -2.1546  0.1040
  146MOL0     H20140  -0.006  10.338  11.020 -1.6471 -1.9568 -0.1620
  146MOL0     H20141  -0.001  10.406  10.858 -2.4004 -1.5767 -2.8163
  146MOL0     H20142  -0.071  10.594  10.991  0.2751 -0.4195 -0.7830
  146MOL0     H20143  -0.170  10.493  11.096 -1.5277  3.0539  0.0317
  146MOL0     H20144  -0.433  10.607  10.780  0.4703 -1.4349 -2.6428
  146MOL0     H20145  -0.168   9.921  10.986  0.5099 -1.4284  0.2843
  146MOL0     H20146  -0.151   9.705  11.034 -1.5665 -0.0418  1.2801
  146MOL0     H20147   0.030   9.680  11.056 -1.0182  0.7144 -0.9305
  146MOL0     H20148  -0.084   9.628  11.175  2.1906 -1.6892 -1.6408
  147MOL0     O20149   5.216   3.873   9.950  0.0013 -0.5726  0.6328
  147MOL0     C20150   5.164   3.983   9.922  0.6439 -0.2327  0.4423
  147MOL0     O20151   5.131   4.081  10.004  1.0283  0.5160 -0.4170
  147MOL0     C20152   5.146   4.046  10.137  0.6608 -0.9421  0.8752
  147MOL0     C20153   5.037   3.996  10.212 -0.2577  0.4325  0.4554
  147MOL0     C20154   5.057   3.975  10.348 -0.7392  0.9672  0.5723
  147MOL0     C20155   5.179   4.001  10.412 -0.8127  0.2400  0.0946
  147MOL0     O20156   5.221   3.972  10.540 -0.7311 -0.2911 -0.5566
  147MOL0     C20157   5.124   3.930  10.633  0.3010  0.6491 -0.2395
  147MOL0     C20158   5.189   3.935  10.780  0.1342 -0.4924  0.7353
  147MOL0     C20159   5.252   4.061  10.821 -0.1813  1.9937 -0.1038
  147MOL0     C20160   5.259   4.058  10.976 -0.7508 -0.2326 -0.3437
  147MOL0     C20161   5.142   4.126  11.047  0.4180  0.0713  0.0216
  147MOL0     C20162   5.176   4.169  11.179 -0.1498  0.5699 -0.5739
  147MOL0     C20163   5.054   4.218  11.266  0.5822 -0.0858  0.2938
  147MOL0     C20164   5.092   4.247  11.409 -0.4933 -0.3506  0.0515
  147MOL0     N20165   4.974   4.261  11.502  0.1314  0.0153  0.4743
  147MOL0     C20166   4.852   4.312  11.470 -0.6075  0.5503 -0.9200
  147MOL0     C20167   4.767   4.273  11.562 -1.2698 -0.3948 -1.1147
  147MOL0     C20168   4.628   4.336  11.599 -1.4471 -0.6403  0.0813
  147MOL0     C20169   4.531   4.319  11.487 -0.2374 -0.0007 -0.2989
  147MOL0     C20170   4.442   4.443  11.449 -0.1321 -0.3522 -0.3060
  147MOL0     C20171   4.341   4.409  11.336 -1.2709 -0.3103 -1.0232
  147MOL0     O20172   4.406   4.332  11.234 -0.1199  0.0884  0.6334
  147MOL0     C20173   4.335   4.294  11.123  0.4383  0.9408 -0.6996
  147MOL0     C20174   4.406   4.260  11.014 -0.9008 -0.5771  0.2274
  147MOL0     C20175   4.357   4.215  10.897  0.1116 -0.0686  0.2720
  147MOL0     C20176   4.464   4.168  10.796 -0.0348  0.5615  0.3262
  147MOL0     C20177   4.214   4.193  10.883 -1.0448  0.2706  0.2264
  147MOL0     C20178   4.139   4.120  10.772 -0.2483 -1.0708 -0.5519
  147MOL0     O20179   3.998   4.098  10.785 -0.5262  0.0871  0.4223
  147MOL0     C20180   3.939   4.009  10.701 -0.4385  0.0294 -0.4219
  147MOL0     C20181   3.804   4.039  10.679 -0.1089  0.0499 -0.5083
  147MOL0     C20182   3.725   3.942  10.619  0.3600 -0.5382  0.2798
  147MOL0     C20183   3.783   3.812  10.588  0.1693  0.3803 -0.4626
  147MOL0     O20184   3.708   3.708  10.526 -0.4753 -0.0227 -0.2409
  147MOL0     C20185   3.609   3.654  10.605  0.0990  0.7042  0.2259
  147MOL0     C20186   3.501   3.576  10.539  0.4573 -0.0879 -0.0375
  147MOL0     C20187   3.420   3.661  10.450  0.0010  0.2710  0.6940
  147MOL0     C20188   3.317   3.594  10.355  0.5603 -0.5274 -0.4078
  147MOL0     C20189   3.210   3.495  10.410 -0.1892  0.1666 -0.6318
  147MOL0     C20190   3.277   3.351  10.445 -0.3208 -0.7129  0.0662
  147MOL0     C20191   3.327   3.285  10.310 -0.0054  0.4370  0.3830
  147MOL0     C20192   3.334   3.131  10.325  0.2262  0.0726 -1.0660
  147MOL0    Cl20193   3.462   3.076  10.435 -0.4146 -0.4383 -0.0934
  147MOL0     C20194   3.913   3.784  10.619 -0.2209  0.6618 -0.6894
  147MOL0     C20195   3.994   3.885  10.677 -0.0357  0.9196 -0.0938
  147MOL0     O20196   4.209   4.086  10.673 -0.6202  0.0155  0.5025
  147MOL0     C20197   4.136   4.228  10.994  0.0035  0.0514  0.2797
  147MOL0     C20198   4.194   4.280  11.111 -0.6610 -0.0382  0.5402
  147MOL0     N20199   4.834   4.177  11.644 -0.1898 -0.4178 -0.7210
  147MOL0     N20200   4.957   4.179  11.608 -0.6098  0.6932  0.1101
  147MOL0     C20201   5.276   4.065  10.331  0.2594  0.4802 -0.5708
  147MOL0     C20202   5.261   4.083  10.204 -0.3321  0.2182  0.6121
  147MOL0     C20203   5.150   4.032   9.782  0.9168  0.0441 -0.2528
  147MOL0     C20204   5.126   4.172   9.761 -0.0867  0.1040 -0.2690
  147MOL0     C20205   5.128   4.224   9.630  0.6652 -0.7203 -0.6710
  147MOL0     C20206   5.135   4.143   9.513 -0.0904 -0.5155 -0.5322
  147MOL0     O20207   5.108   4.213   9.396 -0.3430  0.5125  0.3841
  147MOL0     C20208   5.093   4.136   9.279 -0.3392 -0.1160  0.4912
  147MOL0     C20209   4.945   4.109   9.255 -0.3328  0.2463 -0.2128
  147MOL0     C20210   4.917   4.038   9.115  0.4990  0.0934 -1.0073
  147MOL0     C20211   4.892   4.142   9.011 -0.3772  0.3064  0.8594
  147MOL0     C20212   4.796   4.248   9.053 -0.4405  0.0436 -0.9716
  147MOL0     C20213   4.717   4.333   9.079  0.1836 -1.0417  0.0922
  147MOL0     C20214   5.140   4.012   9.540 -0.0004  1.4893 -0.9940
  147MOL0     C20215   5.155   3.951   9.672  0.4235  0.9390  0.8130
  147MOL0     C20216   5.156   3.800   9.677  0.4954 -0.3285 -0.5272
  147MOL0     H20217   4.955   3.974  10.144 -0.9039  2.5493  0.4737
  147MOL0     H20218   4.968   3.937  10.397 -1.9792  3.7265  0.6495
  147MOL0     H20219   5.104   3.824  10.614 -0.6565  0.6429  0.7023
  147MOL0     H20220   5.036   3.995  10.631 -2.0641 -2.1820  2.4522
  147MOL0     H20221   5.096   3.928  10.836  0.3040  0.8173  1.2158
  147MOL0     H20222   5.253   3.849  10.803 -3.1161 -3.2325  0.3115
  147MOL0     H20223   5.354   4.046  10.785 -1.0435 -1.2611 -1.5326
  147MOL0     H20224   5.192   4.150  10.798  1.0475  2.7219 -0.5662
  147MOL0     H20225   5.266   3.954  11.010 -2.5652 -0.6110 -0.9957
  147MOL0     H20226   5.352   4.107  11.006  2.7291 -4.6106 -2.6938
  147MOL0     H20227   5.051   4.065  11.048  1.6197 -1.8124  1.3164
  147MOL0     H20228   5.112   4.216  10.993  0.9625  0.4884  0.4028
  147MOL0     H20229   5.222   4.081  11.226 -2.9567 -0.7188  0.0245
  147MOL0     H20230   5.253   4.246  11.190  0.1212  0.0065  2.2901
  147MOL0     H20231   4.987   4.131  11.267  2.6506 -1.8431 -1.8907
  147MOL0     H20232   5.001   4.304  11.225  0.3934 -0.3309  0.0202
  147MOL0     H20233   5.157   4.165  11.442  1.5601  0.8685 -0.7931
  147MOL0     H20234   5.160   4.331  11.418  0.6493 -1.4270  2.3876
  147MOL0     H20235   4.838   4.383  11.389  2.0737 -0.5417 -2.4787
  147MOL0     H20236   4.635   4.443  11.621 -3.2140 -0.4621 -0.1062
  147MOL0     H20237   4.604   4.279  11.689 -0.1322 -1.4090 -0.0183
  147MOL0     H20238   4.582   4.286  11.396  1.9114 -1.1070  1.2214
  147MOL0     H20239   4.471   4.232  11.515  1.7652 -0.5826  2.7164
  147MOL0     H20240   4.380   4.466  11.536 -4.1035  1.2179 -3.2436
  147MOL0     H20241   4.504   4.527  11.416 -1.4238  0.6883 -0.1714
  147MOL0     H20242   4.255   4.357  11.379 -0.9512  1.9286  2.8226
  147MOL0     H20243   4.308   4.509  11.305 -1.3358  0.9761  2.6603
  147MOL0     H20244   4.513   4.270  11.027 -0.6709 -3.2565  0.8677
  147MOL0     H20245   4.430   4.162  10.693 -0.9104 -1.6204  0.6876
  147MOL0     H20246   4.500   4.066  10.813 -2.0334 -0.5095 -1.5261
  147MOL0     H20247   4.547   4.238  10.810 -1.5292  2.3140  0.8303
  147MOL0     H20248   3.755   4.134  10.695 -0.3651  0.2906 -2.4821
  147MOL0     H20249   3.625   3.966  10.585  0.9049 -2.0910 -2.7374
  147MOL0     H20250   3.658   3.576  10.662 -2.2511 -2.5212 -1.8121
  147MOL0     H20251   3.577   3.730  10.677 -0.3781 -0.6126  1.4436
  147MOL0     H20252   3.553   3.497  10.484  3.0172  0.5171  1.3398
  147MOL0     H20253   3.434   3.538  10.617  1.0841 -1.2804 -0.0491
  147MOL0     H20254   3.489   3.711  10.382 -0.6736  0.8981  0.4671
  147MOL0     H20255   3.367   3.740  10.503  0.0299  0.4856  0.4021
  147MOL0     H20256   3.362   3.552  10.265 -1.4476 -1.4154 -1.0675
  147MOL0     H20257   3.261   3.676  10.307  1.7582 -1.9327 -4.7015
  147MOL0     H20258   3.166   3.539  10.500  2.1704 -2.5411  2.0596
  147MOL0     H20259   3.135   3.492  10.331  2.4067 -0.4203 -3.2849
  147MOL0     H20260   3.192   3.303  10.493 -0.4366 -0.3608  0.2104
  147MOL0     H20261   3.353   3.343  10.523  0.3100  1.8223 -0.2031
  147MOL0     H20262   3.426   3.313  10.273 -1.0435  1.5561 -1.7045
  147MOL0     H20263   3.258   3.308  10.229  0.6308  2.2419  0.3054
  147MOL0     H20264   3.362   3.076  10.234  2.6802  0.1421 -0.4176
  147MOL0     H20265   3.242   3.095  10.371  2.3849 -1.2832  2.5786
  147MOL0     H20266   3.957   3.686  10.601 -0.1241  0.5066  0.3505
  147MOL0     H20267   4.099   3.875  10.701 -0.3598  0.0360  0.9977
  147MOL0     H20268   4.027   4.223  10.992  0.0440 -1.7941 -1.7608
  147MOL0     H20269   4.119   4.306  11.185 -2.5678 -0.8541 -1.0115
  147MOL0     H20270   5.373   4.088  10.374  0.9496 -1.6513 -0.8918
  147MOL0     H20271   5.358   4.108  10.161 -1.2576  0.8957 -1.1836
  147MOL0     H20272   5.128   4.245   9.841 -3.3262  0.3620 -0.3132
  147MOL0     H20273   5.097   4.326   9.612  0.9643 -0.6078 -0.5469
  147MOL0     H20274   5.119   4.206   9.200 -2.6729  0.5516  0.2279
  147MOL0     H20275   5.149   4.047   9.249 -2.3372 -0.4648 -2.5820
  147MOL0     H20276   4.896   4.205   9.274  0.2932  0.9128 -1.7917
  147MOL0     H20277   4.917   4.038   9.334 -1.3106 -1.7054 -2.1878
  147MOL0     H20278   5.012   3.988   9.096  0.5051  0.2299 -1.3390
  147MOL0     H20279   4.829   3.973   9.124  1.4286 -0.9111  3.1589
  147MOL0     H20280   4.866   4.095   8.916 -0.5395 -3.0607  2.4253
  147MOL0     H20281   4.985   4.200   9.001  1.9339 -2.4266  4.1549
  147MOL0     H20282   4.650   4.412   9.108 -0.9637 -0.8961 -2.7214
  147MOL0     H20283   5.127   3.944   9.457 -1.8036 -1.2249  1.3136
  147MOL0     H20284   5.259   3.775   9.703  0.2547 -4.0200 -2.4395
  147MOL0     H20285   5.082   3.748   9.739  0.0033 -1.6247 -2.1282
  147MOL0     H20286   5.145   3.754   9.579  2.8200 -2.9333  0.3259
  148MOL0     O20287   1.309   0.904   3.163  0.6594 -0.3507  0.4568
  148MOL0     C20288   1.209   0.984   3.146  0.3873 -0.2497  0.5605
  148MOL0     O20289   1.166   1.067   3.244  0.9451  0.5858  0.5316
  148MOL0     C20290   1.245   1.118   3.338 -0.0419 -0.5525  0.2897
  148MOL0     C20291   1.314   1.242   3.330 -0.1355 -0.3831 -0.0806
  148MOL0     C20292   1.399   1.292   3.427  0.5096  0.1535 -0.2847
  148MOL0     C20293   1.411   1.219   3.544 -0.1519  0.4724  0.3327
  148MOL0     O20294   1.502   1.256   3.643 -0.5774 -0.1462 -0.0248
  148MOL0     C20295   1.627   1.297   3.595 -0.7694  0.1991  0.6681
  148MOL0     C20296   1.744   1.226   3.662  0.6628  0.5343  0.3193
  148MOL0     C20297   1.712   1.224   3.812  0.5380 -0.6017  0.3166
  148MOL0     C20298   1.838   1.182   3.889 -1.0450 -0.3872  0.2329
  148MOL0     C20299   1.821   1.179   4.040 -0.1046 -0.6718  0.2667
  148MOL0     C20300   1.731   1.079   4.103  0.8264  0.8414 -0.0462
  148MOL0     C20301   1.778   0.933   4.084 -0.3331  0.2873 -0.5390
  148MOL0     C20302   1.662   0.837   4.122 -0.3869  0.4111 -0.7647
  148MOL0     N20303   1.695   0.686   4.094  0.1172 -0.8666  0.1488
  148MOL0     C20304   1.617   0.604   4.030  0.5864 -1.4210  0.5683
  148MOL0     C20305   1.681   0.487   4.029  0.6176  0.1444 -0.0874
  148MOL0     C20306   1.619   0.354   3.997 -1.0038  0.1222  0.2015
  148MOL0     C20307   1.541   0.343   3.870 -0.8200  0.0646 -0.2249
  148MOL0     C20308   1.609   0.404   3.743 -0.0104 -0.6174  0.8541
  148MOL0     C20309   1.736   0.337   3.686  0.3606  0.3277 -0.1626
  148MOL0     O20310   1.704   0.215   3.615 -0.0430 -0.8450 -0.2137
  148MOL0     C20311   1.830   0.173   3.566  0.8146  0.6276  0.0795
  148MOL0     C20312   1.888   0.195   3.433  0.4867 -0.0743 -0.4797
  148MOL0     C20313   2.008   0.134   3.384 -0.0654  0.1592 -0.3364
  148MOL0     C20314   2.060   0.178   3.253 -0.8609 -0.1901 -0.5817
  148MOL0     C20315   2.068   0.045   3.475 -0.1600  0.5024  0.5880
  148MOL0     C20316   2.201  -0.019   3.447  0.0731 -1.2125  0.1967
  148MOL0     O20317   2.273  -0.076   3.552  0.1267  0.7710  0.2666
  148MOL0     C20318   2.410  -0.102   3.551 -0.3744 -0.1161 -0.8613
  148MOL0     C20319   2.463  -0.164   3.670 -0.0737 -0.2913 -0.8137
  148MOL0     C20320   2.593  -0.201   3.674 -0.3022 -0.5260 -0.3973
  148MOL0     C20321   2.676  -0.193   3.563 -1.0681 -0.3384  1.2579
  148MOL0     O20322   2.814  -0.232   3.566  0.3073 -1.0386  1.2402
  148MOL0     C20323   2.830  -0.366   3.619 -0.8123 -0.0622 -0.2721
  148MOL0     C20324   2.974  -0.416   3.579 -0.9663  0.0508 -0.9699
  148MOL0     C20325   2.991  -0.567   3.592  0.7015  0.2085 -0.4282
  148MOL0     C20326   2.963  -0.628   3.733  0.4209  0.0976  0.1324
  148MOL0     C20327   3.013  -0.775   3.747 -0.0004  0.7294  0.1984
  148MOL0     C20328   2.965  -0.835   3.875 -0.3265  0.1747 -0.4599
  148MOL0     C20329   3.028  -0.972   3.905  0.1877  0.4347  0.2794
  148MOL0     C20330   3.168  -0.969   3.948 -0.3464 -0.5593  0.9377
  148MOL0    Cl20331   3.175  -0.914   4.121  0.3794 -0.0937  0.2155
  148MOL0     C20332   2.635  -0.118   3.451  0.8416  0.3781 -0.1394
  148MOL0     C20333   2.508  -0.070   3.451  0.9185  1.1416 -0.3208
  148MOL0     O20334   2.231  -0.028   3.329 -0.9393 -0.0292  0.2536
  148MOL0     C20335   2.016   0.024   3.601 -0.3021  0.4823  0.3144
  148MOL0     C20336   1.904   0.091   3.649  0.0404  0.8708  0.4699
  148MOL0     N20337   1.802   0.497   4.097  0.1188 -0.6480  0.3269
  148MOL0     N20338   1.812   0.625   4.123 -0.5821  0.3810 -0.2786
  148MOL0     C20339   1.342   1.099   3.556  1.0611  1.4552 -0.5307
  148MOL0     C20340   1.265   1.048   3.456  0.7842  0.6668 -0.3723
  148MOL0     C20341   1.154   0.980   3.011  1.2462  0.7930 -0.1058
  148MOL0     C20342   1.077   1.094   2.975 -0.8130 -0.0341  0.6905
  148MOL0     C20343   1.019   1.094   2.849 -0.4925 -0.1175 -0.1462
  148MOL0     C20344   1.033   0.984   2.768 -0.1239 -0.5744  0.1008
  148MOL0     O20345   0.967   0.976   2.650 -0.0989  0.8088 -0.6010
  148MOL0     C20346   0.911   1.093   2.593  0.3382 -0.1600 -0.3619
  148MOL0     C20347   0.895   1.066   2.456  0.8352 -0.8230  1.3155
  148MOL0     C20348   0.896   1.192   2.367  0.8794 -0.4458 -0.0952
  148MOL0     C20349   0.795   1.303   2.410  0.3110 -0.2254 -0.3651
  148MOL0     C20350   0.652   1.255   2.420 -0.1554  0.3210  0.0612
  148MOL0     C20351   0.537   1.216   2.443 -0.3139 -0.4905 -0.2042
  148MOL0     C20352   1.100   0.872   2.807 -0.4316 -0.2038 -0.5963
  148MOL0     C20353   1.162   0.867   2.928  0.0936 -0.8057 -0.2453
  148MOL0     C20354   1.237   0.734   2.959 -0.5049  0.8173  0.8896
  148MOL0     H20355   1.308   1.301   3.239 -0.0104 -1.0469 -0.5291
  148MOL0     H20356   1.443   1.390   3.410 -2.1316  1.6277  0.8096
  148MOL0     H20357   1.626   1.405   3.613 -0.0707  0.2067  0.6727
  148MOL0     H20358   1.640   1.286   3.487  1.0714 -0.3866  0.9131
  148MOL0     H20359   1.758   1.124   3.627 -0.8325  0.3786  0.1096
  148MOL0     H20360   1.833   1.288   3.643 -0.6197  2.5802  0.6319
  148MOL0     H20361   1.672   1.320   3.846 -0.3527 -0.7859 -0.1789
  148MOL0     H20362   1.633   1.149   3.821 -0.5999  0.3072 -1.6160
  148MOL0     H20363   1.883   1.091   3.849 -1.5209 -1.2824  1.6492
  148MOL0     H20364   1.913   1.259   3.873 -0.8692 -0.8332 -1.1974
  148MOL0     H20365   1.792   1.280   4.069 -1.4191 -0.5688 -1.2887
  148MOL0     H20366   1.919   1.152   4.081 -0.2507 -3.9778 -1.2585
  148MOL0     H20367   1.732   1.107   4.209  2.6103  1.3644 -0.1805
  148MOL0     H20368   1.633   1.096   4.058  0.5551  1.5090  0.7774
  148MOL0     H20369   1.871   0.911   4.137 -1.2747 -0.9399  0.6861
  148MOL0     H20370   1.803   0.928   3.978 -3.5225  1.1906 -1.4581
  148MOL0     H20371   1.642   0.851   4.229  1.3935 -2.8554  0.1409
  148MOL0     H20372   1.580   0.871   4.059  1.5425 -0.4073 -3.9373
  148MOL0     H20373   1.523   0.628   3.982  1.2444 -0.0596 -0.0854
  148MOL0     H20374   1.556   0.322   4.080 -2.9348  1.4515 -0.6758
  148MOL0     H20375   1.707   0.293   3.977 -1.2125  0.2228 -1.1330
  148MOL0     H20376   1.513   0.239   3.849 -0.9792  0.6026 -3.1054
  148MOL0     H20377   1.446   0.395   3.889  1.2297  3.5190  1.5369
  148MOL0     H20378   1.530   0.409   3.668 -0.0125  1.8985  0.9529
  148MOL0     H20379   1.648   0.503   3.766  0.4091 -0.8501  1.1703
  148MOL0     H20380   1.787   0.411   3.622 -1.2347  0.9679 -0.7315
  148MOL0     H20381   1.802   0.316   3.770 -2.5166  1.2066  2.5007
  148MOL0     H20382   1.830   0.269   3.380 -1.6897 -2.9971 -2.5289
  148MOL0     H20383   2.163   0.214   3.251 -0.9157 -0.0052 -2.3802
  148MOL0     H20384   1.995   0.263   3.231 -0.3561  0.8657  1.7620
  148MOL0     H20385   2.046   0.095   3.181  2.1133 -1.9994  0.7468
  148MOL0     H20386   2.382  -0.182   3.740 -0.8330  0.8583 -1.3718
  148MOL0     H20387   2.630  -0.249   3.764 -1.6723  2.4538  1.9459
  148MOL0     H20388   2.801  -0.372   3.724  1.9177 -0.1818  0.5441
  148MOL0     H20389   2.757  -0.422   3.559 -1.1151 -0.5812  0.5618
  148MOL0     H20390   3.000  -0.397   3.474 -0.2744  0.5321 -0.7181
  148MOL0     H20391   3.050  -0.380   3.649 -0.6986 -0.1330 -1.1631
  148MOL0     H20392   3.096  -0.585   3.569  1.0381  1.0774  0.3617
  148MOL0     H20393   2.939  -0.629   3.519 -0.0692 -1.8686  1.7743
  148MOL0     H20394   2.857  -0.615   3.759  0.2999 -1.6381  0.5729
  148MOL0     H20395   3.021  -0.570   3.806  2.2130  0.4936 -1.5070
  148MOL0     H20396   2.973  -0.834   3.664 -0.0861 -1.5355  1.7603
  148MOL0     H20397   3.121  -0.765   3.746 -0.0586  1.4539 -1.3376
  148MOL0     H20398   2.856  -0.842   3.876 -0.2348 -1.3215  0.6064
  148MOL0     H20399   3.009  -0.766   3.948 -0.4112  0.2996 -0.5260
  148MOL0     H20400   3.013  -1.028   3.812  0.9495 -1.4366  1.2141
  148MOL0     H20401   2.971  -1.020   3.985  1.6150  1.3083  1.8923
  148MOL0     H20402   3.233  -0.904   3.888 -2.3793  3.7467  2.9792
  148MOL0     H20403   3.210  -1.069   3.931  1.2160  0.7475 -6.3602
  148MOL0     H20404   2.708  -0.092   3.375 -0.4594  3.5688 -0.4249
  148MOL0     H20405   2.469  -0.026   3.360  0.1518  0.1128 -0.5123
  148MOL0     H20406   2.072  -0.039   3.670  0.9950 -0.2886 -1.3533
  148MOL0     H20407   1.869   0.064   3.748 -0.8743 -0.6754 -0.2320
  148MOL0     H20408   1.353   1.033   3.642  0.1707  0.6139 -1.0477
  148MOL0     H20409   1.222   0.951   3.478  2.3108 -0.3296 -1.5157
  148MOL0     H20410   1.060   1.174   3.047 -0.8697 -1.7464  2.7051
  148MOL0     H20411   0.958   1.180   2.824 -0.2240 -0.6114 -2.8011
  148MOL0     H20412   0.816   1.109   2.646 -0.0994 -1.5714 -0.6639
  148MOL0     H20413   0.982   1.175   2.604 -2.7548  2.9371 -1.4936
  148MOL0     H20414   0.803   1.011   2.436  1.6193 -1.1548 -2.0149
  148MOL0     H20415   0.974   0.998   2.422  0.6878  0.1309 -1.1618
  148MOL0     H20416   0.992   1.244   2.365  0.0346  1.5335  3.5103
  148MOL0     H20417   0.869   1.162   2.265 -0.6590  0.0209  0.1497
  148MOL0     H20418   0.797   1.381   2.334  1.2860  0.2128  0.0888
  148MOL0     H20419   0.821   1.352   2.504  1.1302 -2.7989  0.8536
  148MOL0     H20420   0.444   1.164   2.448 -1.0077  0.7933  1.0934
  148MOL0     H20421   1.110   0.786   2.740 -1.5145 -1.0595  0.2975
  148MOL0     H20422   1.208   0.667   2.878 -1.7533 -0.3180  2.2088
  148MOL0     H20423   1.344   0.747   2.942 -0.1621 -1.8704  0.4941
  148MOL0     H20424   1.228   0.696   3.061  0.2633 -0.1539  0.6212
  149MOL0     O20425   5.501  11.288  11.332  1.2396  0.1329  0.0884
  149MOL0     C20426   5.612  11.294  11.288 -0.3872 -0.8134  0.8267
  149MOL0     O20427   5.679  11.194  11.222 -0.3565 -0.7629  0.2044
  149MOL0     C20428   5.639  11.069  11.188  0.5727  0.0119 -0.7496
  149MOL0     C20429   5.725  10.985  11.120 -0.0513 -0.0226  0.1778
  149MOL0     C20430   5.695  10.855  11.096  0.4355 -1.3822 -0.3607
  149MOL0     C20431   5.568  10.802  11.116 -0.6903 -0.8275  0.3881
  149MOL0     O20432   5.558  10.664  11.100 -0.1012  0.6447 -0.4620
  149MOL0     C20433   5.660  10.565  11.062 -0.1300 -0.2723 -0.1707
  149MOL0     C20434   5.597  10.428  11.090 -0.7433  0.0603  0.4096
  149MOL0     C20435   5.616  10.418  11.247 -0.1269  1.0077 -0.1082
  149MOL0     C20436   5.563  10.276  11.288 -0.1185  0.1126 -0.5983
  149MOL0     C20437   5.554  10.258  11.444  0.0311  0.6775  0.5704
  149MOL0     C20438   5.430  10.313  11.508 -0.2000 -0.0901  1.2761
  149MOL0     C20439   5.437  10.355  11.650 -0.1366  0.0092 -0.4435
  149MOL0     C20440   5.297  10.393  11.702  1.1477 -0.7692  0.2147
  149MOL0     N20441   5.201  10.285  11.717 -0.6760 -0.3463 -0.1924
  149MOL0     C20442   5.133  10.258  11.828 -0.6251 -0.1320 -0.5978
  149MOL0     C20443   5.047  10.157  11.801 -1.4872  1.0128  0.2666
  149MOL0     C20444   4.951  10.080  11.895  0.6956  1.0584  0.6220
  149MOL0     C20445   4.820  10.156  11.931 -0.7187 -0.2999  1.3236
  149MOL0     C20446   4.709  10.153  11.828 -0.7646  0.1804  0.8609
  149MOL0     C20447   4.744  10.194  11.683  0.4810 -0.3140 -0.3306
  149MOL0     O20448   4.820  10.316  11.697 -0.0571 -1.0042  0.3713
  149MOL0     C20449   4.771  10.443  11.679  1.2011  0.0239 -0.4431
  149MOL0     C20450   4.798  10.539  11.768 -0.5260 -0.5684  1.2907
  149MOL0     C20451   4.763  10.674  11.742 -0.4423 -0.0277 -1.6568
  149MOL0     C20452   4.798  10.780  11.846  0.1697 -0.6262  0.0560
  149MOL0     C20453   4.679  10.703  11.630  0.4612 -0.0583  0.6741
  149MOL0     C20454   4.625  10.838  11.613  0.3802  0.4466 -0.9514
  149MOL0     O20455   4.489  10.841  11.600  0.0281  0.0055 -0.1887
  149MOL0     C20456   4.424  10.960  11.578 -0.5877 -0.2425  0.4201
  149MOL0     C20457   4.443  11.039  11.462  0.2993  0.1451  0.5999
  149MOL0     C20458   4.353  11.144  11.438  0.0479  0.3730  0.7222
  149MOL0     C20459   4.240  11.165  11.515 -0.0419 -0.0989 -0.2032
  149MOL0     O20460   4.150  11.247  11.470 -0.2032 -0.0713 -0.2467
  149MOL0     C20461   4.111  11.360  11.553 -0.2011  0.1056  0.5989
  149MOL0     C20462   4.008  11.427  11.454  0.4143  0.1468  0.0859
  149MOL0     C20463   4.070  11.504  11.336  0.3999  0.2876  0.3249
  149MOL0     C20464   3.974  11.587  11.250 -0.6040  0.2851 -0.7482
  149MOL0     C20465   4.027  11.634  11.120  0.1018  0.1553 -0.2182
  149MOL0     C20466   3.926  11.712  11.041  0.8558  0.7710  0.2115
  149MOL0     C20467   3.972  11.759  10.903  0.5818 -0.3178  0.1174
  149MOL0     C20468   3.863  11.762  10.791  1.0927 -0.0766  0.1042
  149MOL0    Cl20469   3.729  11.867  10.840  0.0079 -0.1797 -0.2820
  149MOL0     C20470   4.220  11.097  11.635  0.3293  0.7504  0.8082
  149MOL0     C20471   4.320  10.997  11.670  0.1724 -0.6741  0.7411
  149MOL0     O20472   4.702  10.935  11.609 -0.0221  0.0297  0.2598
  149MOL0     C20473   4.640  10.595  11.547 -0.3697 -0.7123  0.7006
  149MOL0     C20474   4.689  10.474  11.571 -0.0174  0.1403 -0.0283
  149MOL0     N20475   5.073  10.121  11.669  0.3364 -0.0589  0.3676
  149MOL0     N20476   5.163  10.193  11.618 -0.3347  0.0971 -0.0820
  149MOL0     C20477   5.474  10.885  11.177 -0.1692 -0.1209  0.6758
  149MOL0     C20478   5.508  11.014  11.206 -0.6509 -0.9309 -0.7476
  149MOL0     C20479   5.708  11.413  11.325  0.5511  0.1989  0.6782
  149MOL0     C20480   5.782  11.477  11.229  0.0398 -0.7391  0.1741
  149MOL0     C20481   5.865  11.582  11.261  0.4589  0.2984  0.3788
  149MOL0     C20482   5.878  11.623  11.394  0.7980 -0.4473 -1.3423
  149MOL0     O20483   5.941  11.734  11.440  0.6359  0.4964  0.2148
  149MOL0     C20484   6.048  11.784  11.355  0.5651 -0.9077 -0.4423
  149MOL0     C20485   6.077  11.933  11.391 -1.1450  0.0329 -0.3612
  149MOL0     C20486   6.167  12.005  11.290  0.2866 -0.2563 -0.1419
  149MOL0     C20487   6.203  12.131  11.365 -0.1404 -0.0446 -0.0796
  149MOL0     C20488   6.253  12.238  11.293 -0.1278 -0.7045 -0.0016
  149MOL0     C20489   6.288  12.351  11.255  0.2085 -1.3659  0.0602
  149MOL0     C20490   5.796  11.561  11.492  0.2654  0.4629  0.1107
  149MOL0     C20491   5.720  11.455  11.458  0.0946  1.4687 -0.6149
  149MOL0     C20492   5.660  11.372  11.579 -0.2634 -0.4902  0.7830
  149MOL0     H20493   5.827  11.009  11.094 -0.1741  0.6236  0.2769
  149MOL0     H20494   5.776  10.789  11.065  2.0862 -0.9851  2.7102
  149MOL0     H20495   5.743  10.579  11.132  1.7061  0.5614 -2.3542
  149MOL0     H20496   5.690  10.566  10.957 -0.0760  2.4317 -0.2090
  149MOL0     H20497   5.489  10.432  11.070 -0.5295  0.8005 -0.6628
  149MOL0     H20498   5.649  10.345  11.040 -2.1053 -0.1114 -0.8031
  149MOL0     H20499   5.722  10.426  11.275  1.0353 -0.0098 -3.7471
  149MOL0     H20500   5.564  10.500  11.297 -0.3233  0.1114  1.2175
  149MOL0     H20501   5.469  10.239  11.245 -0.1310  0.1253 -0.5809
  149MOL0     H20502   5.648  10.213  11.259 -1.5415 -1.5848 -1.2963
  149MOL0     H20503   5.640  10.299  11.497 -1.3108  2.4086  1.5336
  149MOL0     H20504   5.551  10.149  11.454 -1.1575  0.6884  0.5591
  149MOL0     H20505   5.409  10.403  11.450  0.4303  0.0514  1.2673
  149MOL0     H20506   5.355  10.235  11.491 -0.6805  0.1089  2.4131
  149MOL0     H20507   5.516  10.430  11.663  2.4414 -2.8913  2.2922
  149MOL0     H20508   5.475  10.266  11.700 -1.0323 -1.0036 -1.5073
  149MOL0     H20509   5.300  10.442  11.800 -1.4212 -0.1068  0.0467
  149MOL0     H20510   5.255  10.467  11.632  0.6829 -1.1443  0.0891
  149MOL0     H20511   5.151  10.299  11.927 -0.5236 -1.1238 -0.1929
  149MOL0     H20512   4.995  10.051  11.991  1.0933 -3.2548 -0.6378
  149MOL0     H20513   4.919   9.990  11.841 -0.6259  1.2038  1.1056
  149MOL0     H20514   4.774  10.117  12.022  1.3187 -5.1266  0.5861
  149MOL0     H20515   4.849  10.261  11.946 -0.1622 -0.3112  0.3878
  149MOL0     H20516   4.674  10.050  11.826 -1.5346  0.4482  0.5215
  149MOL0     H20517   4.634  10.227  11.856 -1.7696 -0.3725 -0.2992
  149MOL0     H20518   4.805  10.113  11.642  1.0824  0.3379 -0.7410
  149MOL0     H20519   4.654  10.207  11.621  0.6031 -0.1696 -0.4774
  149MOL0     H20520   4.864  10.518  11.851  1.2783 -0.8895 -0.1663
  149MOL0     H20521   4.712  10.810  11.906 -1.3266  0.6348 -2.5662
  149MOL0     H20522   4.842  10.865  11.792  1.0430 -2.2953 -2.0089
  149MOL0     H20523   4.885  10.747  11.903 -1.2601  0.1847  2.8671
  149MOL0     H20524   4.523  11.016  11.392 -0.6348 -3.1596  0.4293
  149MOL0     H20525   4.359  11.203  11.347 -0.1168 -0.1761  0.3444
  149MOL0     H20526   4.059  11.316  11.639 -2.2874 -1.3332 -1.2932
  149MOL0     H20527   4.198  11.421  11.580  0.5073 -1.4301  1.9555
  149MOL0     H20528   3.943  11.352  11.408 -0.0235  1.3782 -1.4002
  149MOL0     H20529   3.945  11.501  11.505 -2.4697 -0.7011 -1.9898
  149MOL0     H20530   4.135  11.443  11.272  2.9689  4.0055 -0.9725
  149MOL0     H20531   4.143  11.568  11.386  1.1559 -0.6056  0.4000
  149MOL0     H20532   3.917  11.664  11.304 -0.4274 -0.1587  0.0881
  149MOL0     H20533   3.899  11.508  11.240 -0.5181 -0.9272  4.6675
  149MOL0     H20534   4.119  11.691  11.134 -0.2071  1.9043 -4.0406
  149MOL0     H20535   4.068  11.544  11.072 -0.3684 -2.6337  4.0517
  149MOL0     H20536   3.879  11.796  11.094 -3.3320 -1.3312  0.2873
  149MOL0     H20537   3.843  11.641  11.033  1.7948 -0.5783  1.7603
  149MOL0     H20538   4.057  11.696  10.876  0.2322  0.3628 -2.8539
  149MOL0     H20539   4.001  11.864  10.898 -4.0155  1.1191 -1.4040
  149MOL0     H20540   3.833  11.659  10.772 -0.4337  0.0672  1.5788
  149MOL0     H20541   3.909  11.803  10.700  1.9909 -2.3468 -0.5427
  149MOL0     H20542   4.125  11.111  11.686 -0.3595 -1.0634  0.0901
  149MOL0     H20543   4.321  10.946  11.766  1.6520  1.7025  2.0973
  149MOL0     H20544   4.568  10.617  11.469 -2.1566 -5.4271  0.6862
  149MOL0     H20545   4.660  10.396  11.501  0.2045 -0.0549  0.0958
  149MOL0     H20546   5.379  10.844  11.209 -0.0742  0.1833  1.3540
  149MOL0     H20547   5.427  11.065  11.258 -0.9593 -1.2815 -0.8795
  149MOL0     H20548   5.784  11.439  11.127  0.4585 -2.4561  0.7858
  149MOL0     H20549   5.938  11.606  11.184  0.4782 -1.0049 -0.0256
  149MOL0     H20550   6.143  11.730  11.365  0.6694 -0.3437  2.3852
  149MOL0     H20551   6.014  11.792  11.251 -0.8527  4.4949  0.1375
  149MOL0     H20552   6.125  11.929  11.489  0.6926 -0.4378 -1.2377
  149MOL0     H20553   5.985  11.992  11.403 -1.1142 -0.2221  1.3761
  149MOL0     H20554   6.261  11.951  11.275  0.2369 -1.4496  3.0464
  149MOL0     H20555   6.110  12.026  11.199 -1.3868 -0.1914  0.8874
  149MOL0     H20556   6.273  12.117  11.448  1.7022  2.7865 -1.0304
  149MOL0     H20557   6.116  12.175  11.416  2.8201  4.3463  1.7756
  149MOL0     H20558   6.323  12.450  11.231  0.3419 -1.3579  0.2868
  149MOL0     H20559   5.805  11.583  11.598  0.3373 -1.2715  0.4883
  149MOL0     H20560   5.643  11.271  11.540  4.3798 -0.9197 -0.8131
  149MOL0     H20561   5.737  11.371  11.657 -0.5327  1.9699  1.1580
  149MOL0     H20562   5.570  11.418  11.620 -0.4767  1.2888 -1.4640
  150MOL0     O20563   0.515   8.194   6.884 -0.3802 -0.6275 -0.9208
  150MOL0     C20564   0.570   8.178   6.774 -0.0162 -0.3239 -0.2159
  150MOL0     O20565   0.628   8.278   6.708  0.0186  0.9710 -0.2260
  150MOL0     C20566   0.663   8.389   6.776 -0.0127 -0.1107  1.0802
  150MOL0     C20567   0.772   8.387   6.856 -0.5573 -0.0527  0.3371
  150MOL0     C20568   0.804   8.504   6.921  0.6586  0.5438 -0.1889
  150MOL0     C20569   0.723   8.621   6.917 -0.5438  0.7580 -0.4245
  150MOL0     O20570   0.772   8.733   6.979  0.0828  0.4778 -0.3635
  150MOL0     C20571   0.899   8.775   6.919  0.5131  0.8984  0.5153
  150MOL0     C20572   0.942   8.912   6.946 -0.6146 -0.4907  0.4971
  150MOL0     C20573   0.821   9.003   6.989  0.2699 -1.0547  0.4294
  150MOL0     C20574   0.870   9.139   7.021  0.7447  0.1187 -0.1387
  150MOL0     C20575   0.754   9.227   7.062  0.1104 -0.4749  0.0674
  150MOL0     C20576   0.649   9.169   7.165 -0.1190  0.4444  0.2696
  150MOL0     C20577   0.727   9.136   7.298 -0.3738 -0.1526  0.1137
  150MOL0     C20578   0.719   9.259   7.391 -0.4205 -0.1135 -0.8028
  150MOL0     N20579   0.621   9.245   7.497 -0.3040  0.2173  0.1319
  150MOL0     C20580   0.486   9.236   7.486  0.0594 -0.5777  0.0859
  150MOL0     C20581   0.435   9.189   7.596 -1.2215 -0.7020 -0.4506
  150MOL0     C20582   0.287   9.165   7.617  0.0728 -0.1683  0.1338
  150MOL0     C20583   0.255   9.239   7.744  0.1244 -0.4707  0.5359
  150MOL0     C20584   0.105   9.271   7.741 -0.8905 -0.9453  0.9864
  150MOL0     C20585   0.054   9.329   7.877 -0.1004 -0.0883 -0.2241
  150MOL0     O20586   0.126   9.448   7.922  0.1539  0.0586  1.1049
  150MOL0     C20587   0.063   9.522   8.019  0.1137 -0.2412  0.4444
  150MOL0     C20588  -0.047   9.486   8.106 -1.2448  0.7992  0.5022
  150MOL0     C20589  -0.091   9.564   8.207 -0.2667 -1.3951  0.0781
  150MOL0     C20590  -0.202   9.509   8.299 -0.4289 -0.3653 -0.2154
  150MOL0     C20591  -0.047   9.697   8.228  0.2754  0.2378  0.3089
  150MOL0     C20592  -0.092   9.789   8.339  0.7880 -0.0942  0.2393
  150MOL0     O20593  -0.227   9.795   8.361  0.1311  0.3285  0.6646
  150MOL0     C20594  -0.287   9.885   8.441 -0.1190  0.7612 -0.2476
  150MOL0     C20595  -0.399   9.952   8.392  1.2175 -0.0788  0.9668
  150MOL0     C20596  -0.483  10.027   8.472 -0.6967 -0.7399 -0.3174
  150MOL0     C20597  -0.445  10.062   8.601  0.2436 -0.2686 -0.3013
  150MOL0     O20598  -0.532  10.140   8.671 -0.2370  0.0429 -0.7766
  150MOL0     C20599  -0.513  10.154   8.812  0.5329  1.0991 -0.4577
  150MOL0     C20600  -0.636  10.129   8.894 -0.6699 -0.4925 -0.0214
  150MOL0     C20601  -0.728  10.253   8.878  0.2456  0.6110 -0.2339
  150MOL0     C20602  -0.830  10.227   8.774  0.9173 -0.5422  0.5278
  150MOL0     C20603  -0.909  10.359   8.749 -0.1137 -0.1978 -0.1747
  150MOL0     C20604  -1.003  10.324   8.635  0.0527  0.2726  0.6621
  150MOL0     C20605  -1.107  10.428   8.600 -0.3361 -0.3617 -0.4798
  150MOL0     C20606  -1.054  10.573   8.614 -0.4197  0.1269 -0.3247
  150MOL0    Cl20607  -1.023  10.639   8.778  0.1095 -0.2998  0.2792
  150MOL0     C20608  -0.323  10.013   8.645  0.4418 -0.4348 -0.1674
  150MOL0     C20609  -0.252   9.919   8.568 -0.5039 -0.6759  0.2801
  150MOL0     O20610  -0.014   9.874   8.376  0.1596  0.5868 -0.1556
  150MOL0     C20611   0.064   9.736   8.154  0.1461  0.2355  0.4019
  150MOL0     C20612   0.122   9.643   8.052  0.2789 -0.1406 -0.4445
  150MOL0     N20613   0.545   9.163   7.680  0.3449 -0.0153  0.2053
  150MOL0     N20614   0.653   9.189   7.615 -0.0595  0.0186  0.1136
  150MOL0     C20615   0.597   8.604   6.861  0.6011  0.8190 -0.6071
  150MOL0     C20616   0.566   8.491   6.780 -0.0194  0.1133  1.5730
  150MOL0     C20617   0.573   8.038   6.720 -0.2600 -0.2502 -1.2891
  150MOL0     C20618   0.674   8.014   6.623 -0.5257  0.4447  0.5683
  150MOL0     C20619   0.688   7.889   6.564 -0.1062 -0.0627  0.7587
  150MOL0     C20620   0.597   7.786   6.598  0.2521  0.1076 -0.0726
  150MOL0     O20621   0.608   7.677   6.525  0.4051  0.2624  0.4646
  150MOL0     C20622   0.560   7.547   6.565  0.2087 -0.2657 -0.9128
  150MOL0     C20623   0.648   7.478   6.679  0.1819 -0.4270  0.1044
  150MOL0     C20624   0.678   7.332   6.651  0.9339  0.0782 -0.1007
  150MOL0     C20625   0.753   7.255   6.759  0.7486  0.4011  0.3650
  150MOL0     C20626   0.848   7.343   6.829  0.0515  0.0924 -0.2895
  150MOL0     C20627   0.924   7.423   6.884  0.1593 -0.0838  1.1112
  150MOL0     C20628   0.503   7.803   6.704 -0.2904  1.0023 -0.6923
  150MOL0     C20629   0.491   7.922   6.762 -0.0789 -0.6058  0.2389
  150MOL0     C20630   0.361   7.947   6.846  0.2176 -0.4486 -0.0829
  150MOL0     H20631   0.834   8.298   6.863  0.6861  0.3654 -3.2728
  150MOL0     H20632   0.896   8.506   6.979  0.5923 -0.6434 -0.0208
  150MOL0     H20633   0.880   8.770   6.811  1.3612 -0.9461  0.4024
  150MOL0     H20634   0.982   8.705   6.936 -0.2561 -0.6899 -1.7104
  150MOL0     H20635   1.019   8.910   7.024 -0.5633 -2.1596  0.4470
  150MOL0     H20636   0.986   8.963   6.859 -1.2299 -0.0241  0.4547
  150MOL0     H20637   0.738   9.003   6.919 -0.0788  0.6686  0.8090
  150MOL0     H20638   0.783   8.962   7.083  1.0324 -1.3534  0.6173
  150MOL0     H20639   0.939   9.131   7.106  2.1118 -2.9765 -1.3819
  150MOL0     H20640   0.930   9.184   6.942  4.6293 -1.5072  1.6423
  150MOL0     H20641   0.712   9.250   6.964  1.9636 -1.1285 -0.9283
  150MOL0     H20642   0.798   9.315   7.112 -0.4058  0.1880 -0.6300
  150MOL0     H20643   0.571   9.237   7.201 -0.0212 -0.9038  3.3364
  150MOL0     H20644   0.591   9.083   7.131  1.2615  0.6073 -2.8586
  150MOL0     H20645   0.829   9.104   7.276 -0.6553 -0.3843 -0.9137
  150MOL0     H20646   0.667   9.054   7.340  0.8926 -1.3059 -0.2333
  150MOL0     H20647   0.814   9.286   7.440 -1.1724  0.1990  0.5468
  150MOL0     H20648   0.702   9.351   7.334 -0.3209  1.2328  1.1903
  150MOL0     H20649   0.426   9.259   7.399 -0.7449 -2.4530  0.0980
  150MOL0     H20650   0.274   9.058   7.636 -1.2564 -0.3805 -1.7618
  150MOL0     H20651   0.234   9.194   7.526  1.1673 -0.7309 -0.6950
  150MOL0     H20652   0.280   9.169   7.823  4.0407 -1.8724 -1.6840
  150MOL0     H20653   0.308   9.334   7.754 -0.2575  0.1188 -2.2503
  150MOL0     H20654   0.086   9.361   7.682  0.5906 -0.1009  1.7320
  150MOL0     H20655   0.043   9.185   7.714 -0.1187 -1.4204  0.7080
  150MOL0     H20656  -0.052   9.347   7.856 -0.2436 -3.9182 -4.5315
  150MOL0     H20657   0.066   9.247   7.949 -3.3297 -0.2627  0.2707
  150MOL0     H20658  -0.091   9.387   8.092  3.1690 -1.2940 -0.1891
  150MOL0     H20659  -0.297   9.518   8.245 -0.8580 -0.9400  0.4255
  150MOL0     H20660  -0.191   9.543   8.402 -1.6230 -0.5694 -0.0033
  150MOL0     H20661  -0.190   9.401   8.315 -1.8294 -0.7485 -1.4790
  150MOL0     H20662  -0.439   9.934   8.293  3.5626 -1.6141  0.2092
  150MOL0     H20663  -0.573  10.073   8.430  0.2431 -0.4559 -2.1140
  150MOL0     H20664  -0.449  10.074   8.851 -2.3720 -0.5213  1.3463
  150MOL0     H20665  -0.478  10.256   8.831 -0.4051  1.3201  0.1619
  150MOL0     H20666  -0.685  10.037   8.860  1.2455 -1.1199 -1.2452
  150MOL0     H20667  -0.606  10.123   8.998  1.3637  0.7408 -0.4848
  150MOL0     H20668  -0.677  10.345   8.848 -2.8084  1.4071 -3.6539
  150MOL0     H20669  -0.774  10.276   8.975 -1.0656  1.2863 -0.9835
  150MOL0     H20670  -0.906  10.153   8.799  0.8498 -0.4582  0.5747
  150MOL0     H20671  -0.783  10.182   8.686 -1.4922 -1.6853 -0.2525
  150MOL0     H20672  -0.956  10.378   8.846  4.0818  0.5833  1.9338
  150MOL0     H20673  -0.844  10.445   8.730  2.1222 -1.6540  0.5048
  150MOL0     H20674  -1.054  10.230   8.659  1.8899 -0.4707  1.9265
  150MOL0     H20675  -0.949  10.322   8.540 -0.0095  1.3836  0.5913
  150MOL0     H20676  -1.188  10.431   8.674 -1.7302  1.6534 -1.9689
  150MOL0     H20677  -1.149  10.423   8.499  1.5428  3.1129 -1.5877
  150MOL0     H20678  -1.128  10.638   8.567 -1.6745 -0.1461  1.1933
  150MOL0     H20679  -0.958  10.580   8.562  0.2011 -2.6963  0.2878
  150MOL0     H20680  -0.286  10.045   8.742  0.9796 -0.7933 -0.2532
  150MOL0     H20681  -0.154   9.887   8.602 -0.6437  1.3371  2.8961
  150MOL0     H20682   0.110   9.833   8.167 -1.4653  0.7695  2.5807
  150MOL0     H20683   0.203   9.669   7.986  0.5962 -2.1984 -0.9287
  150MOL0     H20684   0.523   8.681   6.881  1.0326  0.9060  0.7597
  150MOL0     H20685   0.480   8.479   6.714  2.1310  0.1319 -1.4553
  150MOL0     H20686   0.737   8.099   6.601 -3.4014  2.5078 -0.2618
  150MOL0     H20687   0.762   7.880   6.485 -1.0856 -1.0555 -0.0798
  150MOL0     H20688   0.455   7.564   6.593  0.3672  4.6569 -2.3248
  150MOL0     H20689   0.555   7.476   6.482 -0.9998 -1.4500  0.1206
  150MOL0     H20690   0.585   7.489   6.768 -0.1011 -1.0813 -0.0101
  150MOL0     H20691   0.742   7.533   6.687 -0.6061  0.8080  1.4856
  150MOL0     H20692   0.579   7.291   6.627 -0.5110  2.5367  1.2218
  150MOL0     H20693   0.735   7.314   6.560  2.2734 -5.0831  1.3980
  150MOL0     H20694   0.797   7.165   6.717  0.0808 -0.0786  0.6815
  150MOL0     H20695   0.687   7.216   6.837  1.1530  0.2915  0.6552
  150MOL0     H20696   0.988   7.491   6.936 -1.1315  1.4267  0.8273
  150MOL0     H20697   0.433   7.725   6.732 -0.6321  1.7600  0.6438
  150MOL0     H20698   0.303   8.029   6.804  1.6574  1.3984  1.4050
  150MOL0     H20699   0.303   7.857   6.868  1.2071 -0.4463  2.9763
  150MOL0     H20700   0.403   7.965   6.945  2.2554 -3.5248 -0.2497
  151MOL0     O20701   8.954   8.460   0.551 -0.2227  0.3116 -0.0528
  151MOL0     C20702   9.045   8.486   0.641  0.4709  0.3525  0.4211
  151MOL0     O20703   9.058   8.605   0.701  0.1250  0.1903  0.7823
  151MOL0     C20704   9.000   8.713   0.641  0.0846 -0.5059  0.4517
  151MOL0     C20705   9.084   8.802   0.581  0.6690  0.3117 -0.2772
  151MOL0     C20706   9.030   8.916   0.515 -0.8428 -0.3059  0.1741
  151MOL0     C20707   8.895   8.938   0.503  0.3887 -0.5578 -0.3680
  151MOL0     O20708   8.842   9.042   0.434 -0.0291 -0.3520  0.1716
  151MOL0     C20709   8.841   9.037   0.290  0.2079 -0.2473  0.3116
  151MOL0     C20710   8.841   9.181   0.226 -0.2518 -0.1327 -0.1418
  151MOL0     C20711   8.725   9.265   0.289  1.3409 -0.2157  0.0641
  151MOL0     C20712   8.593   9.226   0.221  0.4272  0.0741 -0.5213
  151MOL0     C20713   8.479   9.314   0.275 -0.0583 -0.2888  0.2939
  151MOL0     C20714   8.344   9.276   0.208 -0.3748 -0.0375  0.3808
  151MOL0     C20715   8.230   9.364   0.258  0.1368  0.1156 -0.9275
  151MOL0     C20716   8.099   9.327   0.179  0.1557 -0.6162 -0.6505
  151MOL0     N20717   7.983   9.401   0.244 -0.7278  0.4778  0.5302
  151MOL0     C20718   7.944   9.538   0.228 -0.0741 -0.1986  0.2458
  151MOL0     C20719   7.825   9.545   0.290 -0.0427 -0.0662  0.1385
  151MOL0     C20720   7.743   9.667   0.302 -0.0564  0.3019 -0.1292
  151MOL0     C20721   7.822   9.761   0.395  1.0465  1.0134 -0.0622
  151MOL0     C20722   7.745   9.890   0.415 -0.6052  0.6540  0.4482
  151MOL0     C20723   7.816   9.982   0.510  0.1812 -0.7728 -0.0014
  151MOL0     O20724   7.924  10.036   0.436  0.2420  0.5203  0.8722
  151MOL0     C20725   7.921  10.172   0.409 -0.6247 -1.1165  0.1346
  151MOL0     C20726   7.807  10.253   0.404 -0.3305 -0.4852  1.1725
  151MOL0     C20727   7.821  10.382   0.385 -0.3247  0.0546  0.2966
  151MOL0     C20728   7.701  10.465   0.379  0.8693  0.5350  0.8670
  151MOL0     C20729   7.945  10.450   0.391 -0.5797 -0.6791 -0.3375
  151MOL0     C20730   7.961  10.599   0.397  0.5404  0.6144  0.3131
  151MOL0     O20731   8.017  10.647   0.506 -0.7943 -0.1442  0.1633
  151MOL0     C20732   8.049  10.772   0.509 -0.0051 -0.9486  0.2271
  151MOL0     C20733   8.187  10.808   0.508  0.3120 -0.4405  0.2014
  151MOL0     C20734   8.234  10.938   0.508  0.1566 -0.4298 -0.5344
  151MOL0     C20735   8.140  11.040   0.507 -0.3941 -0.8135  0.8281
  151MOL0     O20736   8.174  11.176   0.499 -0.5927  0.3769  0.2941
  151MOL0     C20737   8.290  11.227   0.435  0.2507  0.2991  0.3707
  151MOL0     C20738   8.419  11.262   0.519  0.9155  1.1090  0.4102
  151MOL0     C20739   8.385  11.287   0.668 -0.3345  0.4960 -0.0337
  151MOL0     C20740   8.501  11.357   0.744 -0.3420 -0.3496  0.0589
  151MOL0     C20741   8.478  11.388   0.894 -0.1266  0.9527  0.4024
  151MOL0     C20742   8.348  11.465   0.930 -0.4648 -0.6023  0.2900
  151MOL0     C20743   8.366  11.510   1.077 -0.1724 -0.2503 -0.0951
  151MOL0     C20744   8.239  11.588   1.117 -1.3193  0.6862  0.6202
  151MOL0    Cl20745   8.131  11.464   1.182  0.2562 -0.1256 -0.0437
  151MOL0     C20746   8.009  11.012   0.498  0.0426  0.9822 -0.7738
  151MOL0     C20747   7.964  10.879   0.499 -0.1063 -0.4596  0.2637
  151MOL0     O20748   7.933  10.676   0.302  0.1664  0.5580  0.5001
  151MOL0     C20749   8.060  10.368   0.400  0.1449 -0.4527  0.0004
  151MOL0     C20750   8.050  10.231   0.398  0.0867 -0.3553 -0.2103
  151MOL0     N20751   7.790   9.416   0.334 -0.1269  0.3739 -0.4802
  151MOL0     N20752   7.884   9.331   0.308 -0.7145  0.5065 -0.1696
  151MOL0     C20753   8.811   8.847   0.568  0.6050  0.0538  0.0167
  151MOL0     C20754   8.855   8.730   0.631  0.1174 -0.5307 -0.0446
  151MOL0     C20755   9.140   8.382   0.676  1.1950  0.0011  0.3136
  151MOL0     C20756   9.278   8.423   0.696  0.6026 -0.6628 -0.4470
  151MOL0     C20757   9.374   8.334   0.745 -0.0490 -0.3513  0.3289
  151MOL0     C20758   9.336   8.195   0.756 -0.2262  0.1211 -0.3303
  151MOL0     O20759   9.437   8.107   0.780 -1.4817  0.5704  0.4211
  151MOL0     C20760   9.411   7.960   0.760  0.7727 -0.7301  0.0856
  151MOL0     C20761   9.538   7.883   0.741 -0.8729 -0.2460 -0.3258
  151MOL0     C20762   9.609   7.829   0.862  0.7881  0.0077  0.9290
  151MOL0     C20763   9.713   7.734   0.825 -0.8169  0.6108  0.6369
  151MOL0     C20764   9.741   7.645   0.942 -0.3383 -0.1644  0.1210
  151MOL0     C20765   9.756   7.563   1.030 -0.2805 -0.2206  0.1578
  151MOL0     C20766   9.206   8.160   0.739 -0.0336  0.1151  1.2823
  151MOL0     C20767   9.113   8.246   0.686  0.5096  0.2393 -0.5086
  151MOL0     C20768   8.977   8.182   0.658 -0.3113 -0.4178  0.5579
  151MOL0     H20769   9.189   8.776   0.583  0.2924 -1.2844  0.3844
  151MOL0     H20770   9.100   8.978   0.460 -0.7397  0.4368  1.1290
  151MOL0     H20771   8.749   8.983   0.268 -0.3804 -0.2624  2.5928
  151MOL0     H20772   8.924   8.986   0.240  0.9973  0.3399  0.9774
  151MOL0     H20773   8.944   9.218   0.223  1.4467 -4.2151  0.3444
  151MOL0     H20774   8.820   9.182   0.119 -0.3296  0.9648 -0.1306
  151MOL0     H20775   8.721   9.265   0.399  1.6682  0.7293  0.0808
  151MOL0     H20776   8.757   9.368   0.272  0.8546  0.0878  0.8915
  151MOL0     H20777   8.591   9.231   0.111 -0.8110  0.2567 -0.5110
  151MOL0     H20778   8.563   9.122   0.236 -3.1467  1.1259  0.7304
  151MOL0     H20779   8.501   9.420   0.265 -0.9527 -0.0758  0.5105
  151MOL0     H20780   8.469   9.295   0.382 -0.5069 -1.8101  0.0102
  151MOL0     H20781   8.358   9.289   0.100  5.4598  0.4707  0.8843
  151MOL0     H20782   8.311   9.174   0.233 -1.4880  0.0425 -0.7149
  151MOL0     H20783   8.256   9.470   0.251 -0.2350  0.3099  0.3105
  151MOL0     H20784   8.212   9.334   0.362  2.2022 -0.4014 -0.6782
  151MOL0     H20785   8.116   9.355   0.075 -1.1384  2.0003 -0.2516
  151MOL0     H20786   8.083   9.219   0.176  1.0625 -0.7783 -0.1942
  151MOL0     H20787   7.996   9.617   0.174  2.0813  0.1905  2.6958
  151MOL0     H20788   7.641   9.650   0.338  1.1375 -1.5006  2.7829
  151MOL0     H20789   7.730   9.714   0.204 -0.9126  1.4989  0.5317
  151MOL0     H20790   7.825   9.709   0.491 -0.4682  0.0333 -0.5057
  151MOL0     H20791   7.917   9.774   0.343  1.3511  0.3774  0.3349
  151MOL0     H20792   7.740   9.943   0.319 -0.4556 -0.7313 -0.3477
  151MOL0     H20793   7.643   9.865   0.443 -0.2435 -0.4170  0.8541
  151MOL0     H20794   7.743  10.059   0.538  2.6128  0.9800  1.9001
  151MOL0     H20795   7.853   9.937   0.602 -1.6379  1.2903  1.8707
  151MOL0     H20796   7.709  10.210   0.423  0.3400 -0.7441  4.6247
  151MOL0     H20797   7.615  10.410   0.339 -1.5219  4.4551 -0.0179
  151MOL0     H20798   7.714  10.553   0.316  0.3078  0.8498  1.1765
  151MOL0     H20799   7.684  10.510   0.477 -0.1858  0.1375  0.8772
  151MOL0     H20800   8.271  10.742   0.491  0.9885  0.9270 -2.2751
  151MOL0     H20801   8.340  10.958   0.520  0.0476 -0.5265  0.7649
  151MOL0     H20802   8.326  11.149   0.367  0.7587 -1.6923  2.7810
  151MOL0     H20803   8.255  11.322   0.393 -2.2748  0.0070  1.6586
  151MOL0     H20804   8.488  11.177   0.512  0.9054  1.2514 -2.8594
  151MOL0     H20805   8.464  11.351   0.475  1.0166  0.8968  0.0819
  151MOL0     H20806   8.359  11.188   0.708  1.4892 -0.0457 -0.0819
  151MOL0     H20807   8.297  11.351   0.675 -1.7621 -1.5451  2.6084
  151MOL0     H20808   8.529  11.445   0.685  1.9180 -1.7562 -1.1048
  151MOL0     H20809   8.592  11.296   0.743 -1.4895 -2.1310 -0.3880
  151MOL0     H20810   8.474  11.292   0.946  3.1915 -0.6170 -1.9099
  151MOL0     H20811   8.569  11.434   0.934  0.2172 -1.5836  2.8435
  151MOL0     H20812   8.248  11.425   0.916 -1.3456  1.2938  0.8233
  151MOL0     H20813   8.348  11.553   0.864 -0.3961  0.4988  1.7115
  151MOL0     H20814   8.447  11.585   1.079 -0.0133 -0.4328  0.6907
  151MOL0     H20815   8.399  11.434   1.148  2.6006  0.1398 -0.8387
  151MOL0     H20816   8.201  11.653   1.038 -2.7728  1.8939  2.2496
  151MOL0     H20817   8.260  11.651   1.204 -2.6652  3.3905 -0.8798
  151MOL0     H20818   7.940  11.088   0.462 -0.5852 -0.5023 -2.8570
  151MOL0     H20819   7.860  10.856   0.478  0.3840 -1.0423 -1.8310
  151MOL0     H20820   8.158  10.415   0.397 -0.3670  0.6174 -0.1828
  151MOL0     H20821   8.149  10.187   0.411  0.1698  0.4279  2.1909
  151MOL0     H20822   8.704   8.862   0.561  0.7932  1.5111 -0.1518
  151MOL0     H20823   8.782   8.655   0.658  0.5298 -0.4915  1.2257
  151MOL0     H20824   9.294   8.530   0.682 -0.7374 -0.1297  1.6298
  151MOL0     H20825   9.477   8.366   0.760  0.2436  0.1413 -2.2788
  151MOL0     H20826   9.334   7.924   0.829  1.2183  1.5411  1.9006
  151MOL0     H20827   9.371   7.956   0.658  0.2461  3.6293 -0.0963
  151MOL0     H20828   9.607   7.947   0.686 -1.7633  1.6156  0.6314
  151MOL0     H20829   9.531   7.800   0.670  4.2933  1.3229 -3.1505
  151MOL0     H20830   9.663   7.900   0.926 -0.5865 -2.1094  4.8189
  151MOL0     H20831   9.529   7.780   0.918  0.5595  0.0987  0.6832
  151MOL0     H20832   9.801   7.787   0.787  0.4002  0.7798  3.4711
  151MOL0     H20833   9.682   7.676   0.737  3.6852 -1.0713 -0.0909
  151MOL0     H20834   9.764   7.494   1.112 -0.4149 -1.0823 -0.5331
  151MOL0     H20835   9.175   8.057   0.752  1.2607 -0.5273 -0.3771
  151MOL0     H20836   8.961   8.091   0.716 -0.0443 -1.7207 -1.2961
  151MOL0     H20837   8.902   8.257   0.679  1.2010  1.4988 -0.5465
  151MOL0     H20838   8.967   8.143   0.556  1.9894  1.5079 -0.5123
  152MOL0     O20839   2.938   5.497   5.176  0.3376  0.0840 -0.0504
  152MOL0     C20840   2.897   5.607   5.135  0.1702  0.4663  0.3215
  152MOL0     O20841   2.759   5.646   5.134 -0.7979 -0.5662 -0.7760
  152MOL0     C20842   2.661   5.583   5.205 -1.2957 -0.0447 -0.7009
  152MOL0     C20843   2.682   5.501   5.323  0.2705 -1.2015  0.0745
  152MOL0     C20844   2.575   5.436   5.386 -0.0794  0.3206  1.4701
  152MOL0     C20845   2.441   5.461   5.341 -0.6235  0.0572 -0.0112
  152MOL0     O20846   2.329   5.401   5.393 -0.2557 -0.0454 -0.5365
  152MOL0     C20847   2.329   5.291   5.487  0.4492  0.1823  0.5379
  152MOL0     C20848   2.360   5.340   5.626 -0.2914 -0.5946 -0.7192
  152MOL0     C20849   2.234   5.402   5.703  0.0763 -0.1893  0.6155
  152MOL0     C20850   2.266   5.506   5.817  0.8231 -0.0223 -0.2153
  152MOL0     C20851   2.329   5.440   5.941 -0.0260 -0.0568  0.8239
  152MOL0     C20852   2.242   5.331   6.022  0.7423  1.0014 -0.3981
  152MOL0     C20853   2.160   5.391   6.130  0.2947 -0.7802  0.0191
  152MOL0     C20854   2.073   5.307   6.226 -0.4308 -0.3057  1.2864
  152MOL0     N20855   2.140   5.250   6.337 -0.9621  0.3517 -0.0368
  152MOL0     C20856   2.246   5.153   6.322  0.4175  0.4507 -0.1959
  152MOL0     C20857   2.304   5.161   6.443  0.0944  0.2255 -0.7506
  152MOL0     C20858   2.410   5.055   6.484  0.9137  0.7389 -0.0473
  152MOL0     C20859   2.498   5.098   6.602  0.9778  1.7566 -0.1783
  152MOL0     C20860   2.547   4.969   6.673  0.0831 -0.1549  0.7248
  152MOL0     C20861   2.641   5.009   6.784  0.2294 -0.5774 -0.2242
  152MOL0     O20862   2.580   5.089   6.891 -0.2001 -0.5828 -0.3991
  152MOL0     C20863   2.632   5.068   7.013 -0.4017 -0.1295 -0.6778
  152MOL0     C20864   2.764   5.007   7.036 -0.4622  0.0627 -0.5534
  152MOL0     C20865   2.809   4.993   7.174 -1.0310 -0.1422  0.5122
  152MOL0     C20866   2.955   4.953   7.182  0.0147 -0.3154 -0.9818
  152MOL0     C20867   2.739   5.039   7.283  0.4188  0.8689 -0.6681
  152MOL0     C20868   2.789   5.030   7.423  1.3305 -0.7109  0.3262
  152MOL0     O20869   2.883   4.945   7.448  0.1176 -0.5677 -0.4283
  152MOL0     C20870   2.935   4.926   7.576  0.6355 -1.0443 -0.4806
  152MOL0     C20871   3.070   4.954   7.596 -0.1412 -0.1227 -1.0688
  152MOL0     C20872   3.127   4.944   7.728  0.1887 -0.3699  0.2449
  152MOL0     C20873   3.044   4.913   7.842  0.3219  0.5699  0.8324
  152MOL0     O20874   3.078   4.920   7.974 -0.7450 -0.1313 -0.0013
  152MOL0     C20875   3.174   5.026   8.005 -0.2861  0.7438 -0.4111
  152MOL0     C20876   3.184   5.023   8.161 -0.5007 -0.4224 -1.2384
  152MOL0     C20877   3.053   5.028   8.233  1.1497  1.1300 -0.6180
  152MOL0     C20878   3.055   5.064   8.380 -0.2889 -0.4234  1.1052
  152MOL0     C20879   3.108   5.209   8.399 -0.2359  0.3996 -0.7560
  152MOL0     C20880   3.083   5.265   8.540  0.4763 -0.2882  0.5485
  152MOL0     C20881   3.155   5.175   8.646 -0.0286 -0.2982  0.6302
  152MOL0     C20882   3.144   5.224   8.797 -0.8927 -0.4201  0.4150
  152MOL0    Cl20883   3.229   5.383   8.805  0.5341  0.1788 -0.0863
  152MOL0     C20884   2.904   4.884   7.807 -0.2464  0.8987  1.1050
  152MOL0     C20885   2.850   4.900   7.680 -0.2758 -0.4043 -0.1664
  152MOL0     O20886   2.745   5.117   7.499 -0.2029  0.0528  0.5384
  152MOL0     C20887   2.626   5.113   7.251  0.2875 -0.0261 -0.4690
  152MOL0     C20888   2.563   5.119   7.127  0.9320 -0.2384  0.2020
  152MOL0     N20889   2.245   5.258   6.525  0.4075 -0.3358 -0.4061
  152MOL0     N20890   2.151   5.314   6.464  0.2284 -0.2225  0.1665
  152MOL0     C20891   2.422   5.549   5.229  1.4324  0.1766 -0.2874
  152MOL0     C20892   2.532   5.603   5.161  0.0073 -0.7965 -0.1894
  152MOL0     C20893   2.988   5.699   5.059  0.3388  0.2577  0.1006
  152MOL0     C20894   2.988   5.835   5.083 -0.4271 -0.1440  0.2338
  152MOL0     C20895   3.079   5.920   5.021  0.6787 -0.1503 -1.1094
  152MOL0     C20896   3.165   5.871   4.922 -0.1909 -0.5231  0.2096
  152MOL0     O20897   3.245   5.960   4.860 -0.4689  0.4557  0.0051
  152MOL0     C20898   3.271   5.933   4.721  0.2008 -0.2769 -0.0566
  152MOL0     C20899   3.411   5.980   4.686 -0.3157  0.0608 -0.3139
  152MOL0     C20900   3.413   6.136   4.662 -0.1878  0.3044 -0.4694
  152MOL0     C20901   3.556   6.174   4.629 -0.7600 -0.3805  0.5326
  152MOL0     C20902   3.561   6.319   4.604  0.1181 -0.2796 -0.5710
  152MOL0     C20903   3.543   6.442   4.589 -0.0981  0.1135 -0.8089
  152MOL0     C20904   3.188   5.726   4.911  0.7122 -0.0996  0.0706
  152MOL0     C20905   3.089   5.644   4.969 -0.1778 -0.0720 -0.0059
  152MOL0     C20906   3.104   5.504   4.939  0.1834 -1.0525 -0.0393
  152MOL0     H20907   2.786   5.483   5.348  1.5836  2.6049 -1.7976
  152MOL0     H20908   2.594   5.363   5.463  0.8955 -0.5327  0.4491
  152MOL0     H20909   2.407   5.221   5.453  1.3255  1.8868 -1.1666
  152MOL0     H20910   2.235   5.235   5.484  1.3855 -1.4073 -1.3024
  152MOL0     H20911   2.387   5.249   5.681 -0.9562  0.0123  0.6643
  152MOL0     H20912   2.440   5.415   5.619 -1.4840  0.7691 -0.1954
  152MOL0     H20913   2.168   5.446   5.627 -0.0687 -3.7415 -1.5968
  152MOL0     H20914   2.189   5.316   5.753  1.1267 -1.0519  0.1112
  152MOL0     H20915   2.336   5.584   5.786 -0.1305  1.3710  1.0076
  152MOL0     H20916   2.174   5.559   5.843  0.4599  0.1274 -1.6820
  152MOL0     H20917   2.354   5.525   6.005  0.4148  0.0234  0.5450
  152MOL0     H20918   2.422   5.398   5.903  0.2084  0.5263  0.7367
  152MOL0     H20919   2.167   5.280   5.961 -1.3348  0.0707  2.6774
  152MOL0     H20920   2.312   5.258   6.064 -0.5864  0.3462  0.7738
  152MOL0     H20921   2.090   5.461   6.083  0.3009 -0.8294 -0.0637
  152MOL0     H20922   2.224   5.445   6.200  0.9798 -2.8776  1.0974
  152MOL0     H20923   2.003   5.375   6.274 -1.6880 -0.2175 -0.5690
  152MOL0     H20924   2.021   5.223   6.179 -1.9508 -0.5142  3.2289
  152MOL0     H20925   2.269   5.088   6.238  0.9155  2.4059 -1.6588
  152MOL0     H20926   2.481   5.035   6.404 -0.9077 -0.3131 -1.4747
  152MOL0     H20927   2.361   4.962   6.514  3.4362 -0.2129  1.5243
  152MOL0     H20928   2.587   5.139   6.555  1.8551  1.4932  1.1947
  152MOL0     H20929   2.445   5.154   6.679  0.7894 -0.4592  1.4163
  152MOL0     H20930   2.459   4.926   6.721  0.5279 -1.0650  0.7346
  152MOL0     H20931   2.585   4.893   6.605  1.4905 -0.4797  1.8180
  152MOL0     H20932   2.671   4.911   6.821  1.6296  0.0662  0.4257
  152MOL0     H20933   2.728   5.066   6.751  0.4068 -1.2615 -0.9753
  152MOL0     H20934   2.824   4.966   6.955  0.4178  2.2286 -1.0660
  152MOL0     H20935   3.015   5.032   7.227 -3.4431  2.7740 -1.3337
  152MOL0     H20936   2.994   4.925   7.083  1.9837 -2.3206  0.2886
  152MOL0     H20937   2.970   4.867   7.247  2.5101  2.0595  1.8566
  152MOL0     H20938   3.127   4.974   7.505 -0.7882 -0.7718 -1.6227
  152MOL0     H20939   3.232   4.969   7.740  1.2582 -3.0235 -2.1863
  152MOL0     H20940   3.269   4.995   7.960 -0.5101 -0.1392 -0.3067
  152MOL0     H20941   3.144   5.126   7.974 -3.5621  0.0309  0.0741
  152MOL0     H20942   3.232   4.927   8.178  0.4285  0.0466 -1.1203
  152MOL0     H20943   3.246   5.111   8.184  3.1430 -2.2684 -3.1544
  152MOL0     H20944   3.008   4.928   8.228 -0.3381  1.5819  1.8984
  152MOL0     H20945   2.991   5.106   8.187 -0.6074  1.3993  1.9950
  152MOL0     H20946   3.115   4.996   8.441 -2.1218 -1.3704  1.9134
  152MOL0     H20947   2.954   5.055   8.420 -1.0441  0.1385 -0.6054
  152MOL0     H20948   3.216   5.214   8.386 -0.4139  0.3715 -2.4804
  152MOL0     H20949   3.059   5.271   8.323 -2.6694 -0.2425  0.1876
  152MOL0     H20950   2.979   5.295   8.556  0.8322  2.3093 -1.4319
  152MOL0     H20951   3.136   5.360   8.531 -2.9112  1.5771 -4.1313
  152MOL0     H20952   3.258   5.165   8.612 -0.2424  1.9429 -0.9147
  152MOL0     H20953   3.098   5.081   8.646 -0.0974 -0.2613 -0.1843
  152MOL0     H20954   3.187   5.138   8.850  0.8989 -0.4191 -0.9678
  152MOL0     H20955   3.043   5.233   8.840 -1.1216  1.1614 -0.3947
  152MOL0     H20956   2.840   4.874   7.894  2.0953 -0.6811  2.7830
  152MOL0     H20957   2.744   4.887   7.665  0.2948 -2.2413 -3.6314
  152MOL0     H20958   2.587   5.185   7.322  2.8535  2.2198 -1.1848
  152MOL0     H20959   2.478   5.183   7.106  1.9883  1.0390 -0.3290
  152MOL0     H20960   2.320   5.571   5.198  0.3570 -3.1504  0.4892
  152MOL0     H20961   2.530   5.676   5.081  0.2305 -1.8853 -1.2220
  152MOL0     H20962   2.911   5.886   5.139  1.2581  1.9331  0.8136
  152MOL0     H20963   3.071   6.027   5.037 -1.0504 -0.6312  2.1013
  152MOL0     H20964   3.272   5.825   4.705 -0.2573 -0.3627  0.4344
  152MOL0     H20965   3.192   5.979   4.661 -1.9123  0.3904  2.9955
  152MOL0     H20966   3.446   5.933   4.594  2.3056  0.4343  0.4155
  152MOL0     H20967   3.474   5.950   4.771 -2.2267 -1.1556  0.7415
  152MOL0     H20968   3.343   6.171   4.586  0.0544  1.0757 -0.3393
  152MOL0     H20969   3.374   6.184   4.752 -1.4607  0.8371 -1.2854
  152MOL0     H20970   3.590   6.121   4.540  0.3391  0.7480  0.2535
  152MOL0     H20971   3.619   6.143   4.712 -0.8854 -0.3880  0.6261
  152MOL0     H20972   3.519   6.544   4.566  0.6695 -0.2014 -3.2620
  152MOL0     H20973   3.277   5.696   4.857  0.1485 -1.5574 -0.0703
  152MOL0     H20974   3.016   5.472   4.882  0.9981 -4.2332  0.2797
  152MOL0     H20975   3.181   5.489   4.862  2.1771  0.1900  1.6272
  152MOL0     H20976   3.126   5.445   5.028  4.6705 -3.0189 -2.0904
  153MOL0     O20977   0.726   1.644   9.432  0.3977  1.0801  0.4615
  153MOL0     C20978   0.713   1.672   9.552 -0.0432 -0.3347  0.1764
  153MOL0     O20979   0.610   1.646   9.631  0.4531  0.3264 -0.3906
  153MOL0     C20980   0.490   1.606   9.578  0.5544 -0.0083 -1.1733
  153MOL0     C20981   0.419   1.527   9.667 -0.0546 -1.0318 -0.4940
  153MOL0     C20982   0.300   1.483   9.623 -0.3781 -0.3159 -0.2891
  153MOL0     C20983   0.248   1.507   9.495 -0.7018  1.0753  0.4466
  153MOL0     O20984   0.126   1.467   9.467 -0.4822  0.4085 -0.3155
  153MOL0     C20985   0.109   1.404   9.338  0.1320  0.4183  0.1639
  153MOL0     C20986  -0.050   1.386   9.322 -1.3582 -0.9314  0.4212
  153MOL0     C20987  -0.089   1.293   9.435  0.3840 -0.4231  0.6417
  153MOL0     C20988  -0.239   1.250   9.424 -0.2401  0.5291 -0.7573
  153MOL0     C20989  -0.337   1.371   9.412 -0.0594  0.2005  0.8616
  153MOL0     C20990  -0.487   1.326   9.397  0.3460  0.0169  0.2596
  153MOL0     C20991  -0.569   1.279   9.530  0.2347 -0.1175  0.6929
  153MOL0     C20992  -0.547   1.136   9.565  0.6626  0.1439 -0.2629
  153MOL0     N20993  -0.575   1.040   9.457 -0.4511 -0.8238  0.4211
  153MOL0     C20994  -0.484   0.979   9.378  0.3832 -0.1468  0.0241
  153MOL0     C20995  -0.578   0.911   9.293 -1.5461 -0.3765 -0.1021
  153MOL0     C20996  -0.526   0.828   9.175  0.1819 -1.1842  0.1100
  153MOL0     C20997  -0.540   0.682   9.203 -0.2324 -0.1470 -0.4851
  153MOL0     C20998  -0.466   0.645   9.333  0.7215  0.3381  0.2689
  153MOL0     C20999  -0.329   0.592   9.294  0.2967  1.4451  0.1929
  153MOL0     O21000  -0.257   0.539   9.402  0.3335 -0.1028 -0.8071
  153MOL0     C21001  -0.126   0.489   9.371  0.1346  0.0474 -0.4694
  153MOL0     C21002  -0.072   0.487   9.244 -0.1522 -0.3930  0.0316
  153MOL0     C21003   0.057   0.431   9.219 -0.0260  0.6938  0.0130
  153MOL0     C21004   0.087   0.408   9.075 -0.2735  0.4106 -0.3373
  153MOL0     C21005   0.146   0.410   9.334  1.0375  0.7814 -0.3648
  153MOL0     C21006   0.290   0.361   9.329  0.6184  0.0992  0.6890
  153MOL0     O21007   0.340   0.355   9.461 -0.0443 -0.0701  0.5445
  153MOL0     C21008   0.461   0.290   9.477  0.0860 -0.2390 -0.3346
  153MOL0     C21009   0.441   0.176   9.555  0.3157 -0.3848 -0.2965
  153MOL0     C21010   0.559   0.097   9.591 -0.0340  0.1046 -0.0707
  153MOL0     C21011   0.685   0.127   9.534  1.1567 -0.0145 -0.1347
  153MOL0     O21012   0.799   0.051   9.553  0.4543  0.2416  0.1404
  153MOL0     C21013   0.909   0.137   9.596  1.0445  0.6108 -0.4291
  153MOL0     C21014   1.013   0.038   9.653  0.0677  0.2487 -0.9379
  153MOL0     C21015   1.137   0.117   9.709  0.0944  0.2166  0.3784
  153MOL0     C21016   1.261   0.031   9.680  0.3266 -0.4887 -0.8738
  153MOL0     C21017   1.392   0.115   9.697  0.7325 -0.1839 -0.4279
  153MOL0     C21018   1.418   0.211   9.583 -0.1129  0.8404 -0.4914
  153MOL0     C21019   1.565   0.267   9.594  0.2213 -0.0743  0.3293
  153MOL0     C21020   1.577   0.397   9.503 -0.0101 -1.1523 -0.3179
  153MOL0    Cl21021   1.472   0.524   9.589  0.3555  0.1685  0.1691
  153MOL0     C21022   0.691   0.247   9.450  0.8762  0.6118 -0.8345
  153MOL0     C21023   0.581   0.334   9.426 -0.3871 -0.1353  0.1771
  153MOL0     O21024   0.357   0.336   9.222  0.3316 -0.6340 -0.2597
  153MOL0     C21025   0.087   0.431   9.461 -0.2815 -0.5257  1.1009
  153MOL0     C21026  -0.040   0.478   9.485 -0.6908  0.7145 -1.1355
  153MOL0     N21027  -0.706   0.934   9.317  0.4101 -0.5618 -0.5415
  153MOL0     N21028  -0.700   1.011   9.422  0.4317  0.5065  0.5471
  153MOL0     C21029   0.330   1.576   9.404  0.4415  0.1761  0.3022
  153MOL0     C21030   0.446   1.633   9.448  0.7127 -0.0018  0.6624
  153MOL0     C21031   0.818   1.753   9.620 -0.2928 -0.1184 -0.3643
  153MOL0     C21032   0.786   1.873   9.680  0.5404  0.1099  0.5720
  153MOL0     C21033   0.890   1.939   9.757 -0.4184 -0.2116 -0.2647
  153MOL0     C21034   1.023   1.892   9.780  0.5305  0.2085 -0.4539
  153MOL0     O21035   1.108   1.951   9.864  0.4411 -0.1702  0.5939
  153MOL0     C21036   1.055   2.029   9.963  0.9824 -0.0294  0.5727
  153MOL0     C21037   1.154   2.084  10.062  0.4660  0.8761 -0.0722
  153MOL0     C21038   1.211   1.973  10.162 -0.4194 -0.7637  0.4780
  153MOL0     C21039   1.300   2.032  10.271  0.0768  0.6600 -0.2468
  153MOL0     C21040   1.412   2.087  10.206  0.2132 -0.1033  0.0263
  153MOL0     C21041   1.490   2.168  10.162  0.0253 -0.6727  0.0064
  153MOL0     C21042   1.053   1.778   9.702  0.2659  0.4744  0.2687
  153MOL0     C21043   0.956   1.710   9.623  0.0067 -0.0837 -0.6601
  153MOL0     C21044   1.006   1.587   9.538 -0.1877 -0.0404 -0.9134
  153MOL0     H21045   0.453   1.508   9.768  0.5535 -1.8987 -0.8493
  153MOL0     H21046   0.229   1.431   9.687 -2.2020 -0.1502 -2.0712
  153MOL0     H21047   0.164   1.311   9.322  2.2050  1.6400 -0.2804
  153MOL0     H21048   0.139   1.468   9.254 -0.1494 -0.3737 -0.5488
  153MOL0     H21049  -0.093   1.486   9.334  0.3119 -0.0366 -0.7848
  153MOL0     H21050  -0.089   1.335   9.234 -4.1262  0.2757  0.8328
  153MOL0     H21051  -0.029   1.203   9.447 -0.3911 -0.6039  4.6269
  153MOL0     H21052  -0.080   1.352   9.527 -1.5235  0.9373  0.0207
  153MOL0     H21053  -0.255   1.192   9.333 -0.3334 -1.8970  0.7227
  153MOL0     H21054  -0.274   1.187   9.506 -0.4393 -1.4228 -2.2478
  153MOL0     H21055  -0.313   1.432   9.324 -2.4034  0.1670  0.1278
  153MOL0     H21056  -0.335   1.426   9.506  0.5475  0.6298  0.6017
  153MOL0     H21057  -0.553   1.408   9.367 -0.0873  0.3725  2.0867
  153MOL0     H21058  -0.491   1.259   9.310  1.3529 -0.4494  0.5610
  153MOL0     H21059  -0.673   1.300   9.505  0.7583 -0.2335 -1.8833
  153MOL0     H21060  -0.540   1.347   9.610 -0.8396  1.6071 -0.3128
  153MOL0     H21061  -0.448   1.112   9.607  0.9400 -1.9072 -1.8828
  153MOL0     H21062  -0.612   1.112   9.650  1.0270  0.0783  0.0011
  153MOL0     H21063  -0.376   0.980   9.376  0.4901  3.6546 -1.3191
  153MOL0     H21064  -0.428   0.869   9.151 -1.1869  2.7845  0.5994
  153MOL0     H21065  -0.596   0.843   9.092 -0.2675  1.3790  0.8701
  153MOL0     H21066  -0.645   0.662   9.225  0.0416 -1.2191 -0.0445
  153MOL0     H21067  -0.500   0.634   9.113  0.2532  2.6928 -1.8897
  153MOL0     H21068  -0.473   0.723   9.409 -2.3378  2.8586 -2.3012
  153MOL0     H21069  -0.512   0.553   9.371  4.5097 -1.1367  1.7920
  153MOL0     H21070  -0.348   0.499   9.240 -1.5736 -0.2839  3.5436
  153MOL0     H21071  -0.266   0.662   9.238  2.9525 -2.8404 -2.7988
  153MOL0     H21072  -0.137   0.496   9.158  1.4365 -0.1582 -1.1811
  153MOL0     H21073   0.009   0.461   9.019 -2.8009 -1.7290  0.9629
  153MOL0     H21074   0.075   0.302   9.050 -0.7415 -0.2456  2.4045
  153MOL0     H21075   0.188   0.448   9.061  0.3240 -0.8710  0.1848
  153MOL0     H21076   0.350   0.134   9.597 -0.9267  0.5647 -1.9348
  153MOL0     H21077   0.537   0.005   9.644 -0.2481  0.2918  0.1653
  153MOL0     H21078   0.948   0.185   9.506  3.0686  0.1884  0.1745
  153MOL0     H21079   0.877   0.204   9.676 -0.5137 -1.4721  0.8106
  153MOL0     H21080   0.968  -0.010   9.740  1.0839  1.6776  0.4423
  153MOL0     H21081   1.043  -0.031   9.573 -2.3151 -2.6279  0.4611
  153MOL0     H21082   1.117   0.132   9.816 -3.3321 -2.6146  0.3179
  153MOL0     H21083   1.148   0.219   9.669  1.6687  0.7233  1.9272
  153MOL0     H21084   1.252  -0.015   9.581 -0.6313 -1.2148 -0.4544
  153MOL0     H21085   1.258  -0.041   9.762 -0.3251 -0.6009 -0.9937
  153MOL0     H21086   1.390   0.165   9.794  1.5548 -2.0570  0.5896
  153MOL0     H21087   1.474   0.043   9.698 -0.2188 -1.3507  1.7902
  153MOL0     H21088   1.350   0.296   9.591 -2.8624 -1.2482 -0.4183
  153MOL0     H21089   1.404   0.169   9.483  0.3781  1.6924 -0.9381
  153MOL0     H21090   1.635   0.189   9.563 -0.3127 -0.5269  0.2533
  153MOL0     H21091   1.587   0.281   9.700  1.1699 -0.4950  0.1979
  153MOL0     H21092   1.533   0.383   9.404 -0.3005  0.7567 -0.4862
  153MOL0     H21093   1.681   0.429   9.501 -0.2005 -0.2484 -4.8057
  153MOL0     H21094   0.785   0.265   9.399  2.7444  0.8479  2.4206
  153MOL0     H21095   0.601   0.421   9.363  1.2101 -0.6285 -0.0312
  153MOL0     H21096   0.139   0.417   9.555 -1.0458  1.4270  1.8589
  153MOL0     H21097  -0.081   0.478   9.586  1.9492 -0.8959  0.0453
  153MOL0     H21098   0.306   1.578   9.298  3.4710 -0.8375 -0.5036
  153MOL0     H21099   0.497   1.698   9.378  1.4731 -1.7205 -0.4345
  153MOL0     H21100   0.683   1.904   9.668 -0.2144 -1.2296  3.0466
  153MOL0     H21101   0.865   2.039   9.791 -3.2085 -0.6034 -0.8808
  153MOL0     H21102   1.024   2.117   9.906 -0.1991 -1.2235 -0.7039
  153MOL0     H21103   0.971   1.988  10.019  2.4869 -0.3682  2.7279
  153MOL0     H21104   1.111   2.168  10.117 -2.3351  0.3181 -1.2130
  153MOL0     H21105   1.240   2.116  10.003  0.2657  0.9506 -0.3256
  153MOL0     H21106   1.128   1.919  10.208 -2.0941  2.3372  1.4547
  153MOL0     H21107   1.265   1.904  10.097  1.3739 -0.3799  1.5015
  153MOL0     H21108   1.330   1.953  10.340  1.4907  2.2729  1.0844
  153MOL0     H21109   1.246   2.104  10.334 -0.7635 -2.5396  3.0409
  153MOL0     H21110   1.566   2.226  10.114  1.5012 -1.6607  1.0756
  153MOL0     H21111   1.158   1.753   9.692  1.1506  2.4568  3.2250
  153MOL0     H21112   0.952   1.494   9.560 -1.4680  1.1560  1.3598
  153MOL0     H21113   0.999   1.614   9.433  2.5878  3.0385 -0.4764
  153MOL0     H21114   1.108   1.562   9.569 -0.5121  0.6115  0.7839
  154MOL0     O21115   7.843   8.531  11.032 -0.4784 -0.2969 -0.4393
  154MOL0     C21116   7.952   8.535  11.083  0.3554  0.3968  0.1622
  154MOL0     O21117   8.054   8.450  11.059 -0.3834 -0.5032 -0.1715
  154MOL0     C21118   8.029   8.348  10.969  0.4663 -0.3772 -0.7369
  154MOL0     C21119   8.085   8.352  10.839  0.5968  0.7426 -0.1857
  154MOL0     C21120   8.069   8.241  10.754  0.0616 -0.2626  0.4458
  154MOL0     C21121   8.016   8.119  10.803  0.3390  0.4551 -0.2871
  154MOL0     O21122   8.026   8.007  10.727 -1.1120 -0.7029 -0.4627
  154MOL0     C21123   8.115   7.901  10.770 -0.5695 -0.3085 -0.1225
  154MOL0     C21124   8.074   7.767  10.707 -0.1999 -0.3622 -0.7473
  154MOL0     C21125   8.091   7.752  10.552 -0.0618  0.1148 -0.1926
  154MOL0     C21126   8.105   7.615  10.487 -0.0746  0.7619  0.0834
  154MOL0     C21127   7.982   7.521  10.507 -0.8052  0.2061  0.3671
  154MOL0     C21128   7.980   7.401  10.407  0.3757 -0.1364  0.2606
  154MOL0     C21129   8.106   7.316  10.421 -1.0251  0.2762 -0.2248
  154MOL0     C21130   8.094   7.199  10.323  0.2987 -0.0741 -0.1105
  154MOL0     N21131   8.226   7.139  10.298  0.7756 -0.4814  0.4136
  154MOL0     C21132   8.268   7.033  10.374  0.7331  0.0173  0.4017
  154MOL0     C21133   8.401   7.017  10.346 -0.1301  1.3068  0.8706
  154MOL0     C21134   8.493   6.921  10.414 -0.0869  0.0053  0.6113
  154MOL0     C21135   8.614   6.910  10.322  0.1884  0.8786  0.9905
  154MOL0     C21136   8.728   6.824  10.391 -0.1177  0.7470  0.6122
  154MOL0     C21137   8.817   6.906  10.484  0.9898 -0.1686  0.3439
  154MOL0     O21138   8.799   6.873  10.626 -0.4235  0.1552 -0.8969
  154MOL0     C21139   8.872   6.943  10.724 -0.5838 -0.1803  0.5558
  154MOL0     C21140   8.996   7.008  10.705  0.1095 -0.2893 -0.4521
  154MOL0     C21141   9.076   7.046  10.814  0.6210 -0.2288  0.0647
  154MOL0     C21142   9.221   7.074  10.774  0.2245 -0.1669 -0.5177
  154MOL0     C21143   9.031   7.029  10.949  0.1581 -0.2932  0.5724
  154MOL0     C21144   9.097   7.080  11.069 -0.5338  0.3176  0.2149
  154MOL0     O21145   9.045   7.021  11.180  0.4802  0.0198 -0.2311
  154MOL0     C21146   9.119   7.047  11.287 -0.2131  0.9355 -0.0537
  154MOL0     C21147   9.104   7.162  11.366 -0.1177 -0.3077  0.0442
  154MOL0     C21148   9.189   7.176  11.479 -0.0298  0.1202  0.8872
  154MOL0     C21149   9.268   7.074  11.529  0.4368  0.5845 -0.9973
  154MOL0     O21150   9.356   7.076  11.632  0.0952  0.3072 -0.5440
  154MOL0     C21151   9.419   7.205  11.665  0.2025  0.4620 -0.6014
  154MOL0     C21152   9.382   7.237  11.821  0.0646 -0.0848  0.2357
  154MOL0     C21153   9.228   7.250  11.865  0.6882 -0.3993  0.7548
  154MOL0     C21154   9.201   7.262  12.011  0.2689  0.4358  0.3888
  154MOL0     C21155   9.264   7.391  12.076 -0.4092 -0.6390  0.4019
  154MOL0     C21156   9.297   7.371  12.217  0.6466 -0.0200  0.0087
  154MOL0     C21157   9.434   7.304  12.249 -0.3276 -0.9023  0.5150
  154MOL0     C21158   9.499   7.370  12.376  0.8164  0.3300 -0.5074
  154MOL0    Cl21159   9.366   7.379  12.503 -0.3870 -0.1686 -0.3555
  154MOL0     C21160   9.254   6.952  11.464 -0.3463 -0.5214  1.3395
  154MOL0     C21161   9.185   6.943  11.343  0.2094  0.1741 -0.4430
  154MOL0     O21162   9.192   7.161  11.063  0.8857 -0.2965 -0.0211
  154MOL0     C21163   8.898   6.977  10.964  0.8918  0.9555 -0.3702
  154MOL0     C21164   8.824   6.935  10.853 -0.3125 -0.6315  0.7349
  154MOL0     N21165   8.427   7.120  10.255 -0.3003 -0.4872 -0.1301
  154MOL0     N21166   8.323   7.195  10.225 -0.4353  0.1636 -0.0879
  154MOL0     C21167   7.955   8.116  10.932 -0.5567 -0.0527  0.3234
  154MOL0     C21168   7.961   8.227  11.015 -0.1679 -0.6492 -0.6769
  154MOL0     C21169   8.003   8.653  11.147 -0.3707 -0.4801 -0.3110
  154MOL0     C21170   8.145   8.672  11.141 -0.4368  0.8913 -1.2090
  154MOL0     C21171   8.202   8.795  11.182 -0.3566  1.3523  0.2047
  154MOL0     C21172   8.131   8.900  11.234 -0.6569 -0.6305  0.5907
  154MOL0     O21173   8.188   9.015  11.282  0.3048 -0.4592 -0.5527
  154MOL0     C21174   8.320   9.003  11.339  0.2041 -0.6099 -0.1322
  154MOL0     C21175   8.324   9.123  11.428  0.4537 -0.5904  0.5673
  154MOL0     C21176   8.322   9.244  11.349  0.0406  0.4753  0.1624
  154MOL0     C21177   8.441   9.269  11.261  0.6179 -0.1894  0.2682
  154MOL0     C21178   8.574   9.244  11.320 -0.1950  1.8192 -0.4667
  154MOL0     C21179   8.692   9.234  11.354  0.1970  0.2834  0.0794
  154MOL0     C21180   7.993   8.877  11.248  0.6320  1.6431 -0.7311
  154MOL0     C21181   7.934   8.754  11.211  1.0283 -0.6299 -0.1211
  154MOL0     C21182   7.788   8.731  11.238  0.3076 -0.0822 -0.1166
  154MOL0     H21183   8.144   8.433  10.799  1.4554 -0.4330 -1.4051
  154MOL0     H21184   8.122   8.245  10.659 -0.5203  0.8114  0.1529
  154MOL0     H21185   8.121   7.904  10.880 -1.5846 -0.2080 -0.0676
  154MOL0     H21186   8.208   7.944  10.731 -1.6027  2.9435  0.6405
  154MOL0     H21187   8.128   7.685  10.756 -1.1168  0.0752  1.0719
  154MOL0     H21188   7.970   7.745  10.732 -0.1606  1.6126  1.5750
  154MOL0     H21189   8.011   7.806  10.501  0.6343  2.8898  1.4531
  154MOL0     H21190   8.179   7.812  10.527 -1.2122  1.8744 -0.1246
  154MOL0     H21191   8.108   7.617  10.377 -0.0861  2.6711  0.0916
  154MOL0     H21192   8.190   7.573  10.541 -0.5698  2.7641  2.5764
  154MOL0     H21193   7.887   7.575  10.497 -1.3575  0.6726  5.4696
  154MOL0     H21194   7.983   7.484  10.610 -2.1633  0.5658  0.5307
  154MOL0     H21195   7.894   7.336  10.428 -1.5724  1.3403 -2.4662
  154MOL0     H21196   7.973   7.440  10.305  2.3236 -1.2177 -0.3376
  154MOL0     H21197   8.103   7.266  10.518 -0.5136  0.8235  0.0790
  154MOL0     H21198   8.193   7.369  10.382  0.5144 -2.1660 -0.3156
  154MOL0     H21199   8.024   7.128  10.367 -0.1593  0.3950 -0.0665
  154MOL0     H21200   8.059   7.241  10.228  2.1976  2.6262  0.2438
  154MOL0     H21201   8.209   6.985  10.452 -0.2247  0.9058  0.2459
  154MOL0     H21202   8.448   6.825  10.442 -0.3041 -0.2203 -0.4600
  154MOL0     H21203   8.515   6.961  10.513  0.3634 -1.6235  1.2043
  154MOL0     H21204   8.594   6.873  10.221  0.9179  0.0221  1.1427
  154MOL0     H21205   8.657   7.007  10.296 -0.4210  0.9192  0.1042
  154MOL0     H21206   8.692   6.738  10.447 -0.6944  0.9875  0.6126
  154MOL0     H21207   8.803   6.790  10.319  1.9600  1.3875  2.3390
  154MOL0     H21208   8.924   6.896  10.462  1.2488 -1.7376  2.0369
  154MOL0     H21209   8.800   7.014  10.476  0.2283 -0.0665  2.5053
  154MOL0     H21210   9.044   7.014  10.608 -0.1807 -0.6879 -0.6259
  154MOL0     H21211   9.270   7.141  10.845 -1.2055  0.6323 -0.2549
  154MOL0     H21212   9.232   7.127  10.679  0.3853  0.8260  0.0390
  154MOL0     H21213   9.281   6.982  10.767  2.0596  0.5583  3.1947
  154MOL0     H21214   9.045   7.242  11.323 -2.7265 -1.6900  0.8313
  154MOL0     H21215   9.203   7.272  11.528 -0.2297  0.1226  0.9416
  154MOL0     H21216   9.526   7.182  11.668 -0.1060 -1.0416  0.8757
  154MOL0     H21217   9.390   7.278  11.589  0.8572 -0.0266 -1.3343
  154MOL0     H21218   9.424   7.158  11.884  2.0407  2.0861  1.7760
  154MOL0     H21219   9.433   7.332  11.834  1.2423 -0.6673 -0.0134
  154MOL0     H21220   9.176   7.160  11.830  3.2792 -1.3495 -1.0275
  154MOL0     H21221   9.195   7.343  11.819  4.6832  0.5774 -0.5369
  154MOL0     H21222   9.237   7.173  12.064 -0.1416 -0.3499 -0.5982
  154MOL0     H21223   9.093   7.258  12.029 -0.1884  1.3983 -1.7724
  154MOL0     H21224   9.353   7.429  12.025  0.4340 -0.3275  2.0514
  154MOL0     H21225   9.188   7.469  12.069 -0.2564 -0.4999  0.2939
  154MOL0     H21226   9.223   7.301  12.259  4.2095 -3.1003  1.7512
  154MOL0     H21227   9.288   7.470  12.261 -1.7485  0.6047 -1.6556
  154MOL0     H21228   9.509   7.312  12.169  1.4382 -0.9088  2.0978
  154MOL0     H21229   9.411   7.197  12.258  1.5760 -1.6410 -2.1035
  154MOL0     H21230   9.541   7.466  12.345  2.6387 -0.4009 -0.4614
  154MOL0     H21231   9.582   7.315  12.423 -0.4505 -1.2887 -0.0863
  154MOL0     H21232   9.303   6.861  11.496 -0.6765 -0.8389  0.9565
  154MOL0     H21233   9.196   6.855  11.281  3.4956  2.1536 -3.0158
  154MOL0     H21234   8.846   6.964  11.059 -0.6061  1.6537 -1.0500
  154MOL0     H21235   8.731   6.880  10.864 -1.3141  1.0961  1.2581
  154MOL0     H21236   7.911   8.028  10.978 -1.7253  0.7408  0.7675
  154MOL0     H21237   7.928   8.218  11.118 -0.8135  0.1592 -0.8017
  154MOL0     H21238   8.220   8.598  11.117  0.0060  0.3277  1.5710
  154MOL0     H21239   8.309   8.796  11.165 -0.6687  1.5620 -2.0543
  154MOL0     H21240   8.327   8.913  11.401  0.9415 -0.0880  0.5623
  154MOL0     H21241   8.399   9.020  11.265 -2.0304  2.4387 -2.0925
  154MOL0     H21242   8.414   9.120  11.490  0.5086 -1.8462  0.4410
  154MOL0     H21243   8.237   9.110  11.494  0.9876 -2.7818  0.9073
  154MOL0     H21244   8.233   9.257  11.286 -1.8249  1.7555  2.8595
  154MOL0     H21245   8.318   9.326  11.422 -2.8875  0.1022  0.5386
  154MOL0     H21246   8.444   9.372  11.225 -1.0587  1.3299  3.9827
  154MOL0     H21247   8.433   9.212  11.168 -0.2919 -1.1663  0.9222
  154MOL0     H21248   8.795   9.212  11.375  0.0071 -0.3247  0.4055
  154MOL0     H21249   7.940   8.952  11.305  1.7509  1.2172  0.9420
  154MOL0     H21250   7.747   8.780  11.328 -0.6578 -2.0406  0.5648
  154MOL0     H21251   7.739   8.749  11.142 -0.1708 -2.5012 -0.3919
  154MOL0     H21252   7.758   8.627  11.251 -2.1203  0.0345 -3.5241
  155MOL0     O21253   5.996   4.262   9.603 -0.7049 -0.1884 -0.0456
  155MOL0     C21254   5.878   4.227   9.578 -0.5683 -1.5978 -0.0274
  155MOL0     O21255   5.851   4.105   9.530 -0.2762 -0.3222  0.6165
  155MOL0     C21256   5.932   4.010   9.560  0.5024  0.7886  0.0308
  155MOL0     C21257   5.985   3.939   9.448  0.5949  0.2927 -0.3966
  155MOL0     C21258   6.079   3.841   9.482 -1.2600  0.7938 -1.0574
  155MOL0     C21259   6.122   3.814   9.610 -0.2414  0.3025 -1.3026
  155MOL0     O21260   6.224   3.725   9.633  0.7479 -0.0289 -0.2995
  155MOL0     C21261   6.298   3.737   9.749  0.2482 -0.7765 -0.1559
  155MOL0     C21262   6.397   3.628   9.769 -0.2176 -0.7975 -0.2912
  155MOL0     C21263   6.331   3.484   9.773 -0.2871 -0.6116  0.5507
  155MOL0     C21264   6.442   3.382   9.767  0.6387  0.5741  0.0661
  155MOL0     C21265   6.525   3.372   9.635  0.3085  0.4035  0.1219
  155MOL0     C21266   6.624   3.248   9.650  0.4129 -0.5483 -0.5932
  155MOL0     C21267   6.763   3.264   9.579 -1.1060  0.0106 -0.6783
  155MOL0     C21268   6.863   3.368   9.653  0.4818 -0.1592  0.8319
  155MOL0     N21269   6.979   3.394   9.568  0.1022  0.9060 -0.4042
  155MOL0     C21270   6.998   3.518   9.516 -0.2795 -0.7977 -0.8173
  155MOL0     C21271   7.111   3.502   9.444  0.1282 -0.0605  0.7183
  155MOL0     C21272   7.170   3.615   9.357 -0.7623  0.3869  0.0694
  155MOL0     C21273   7.211   3.576   9.212  0.2268 -0.3544 -0.0983
  155MOL0     C21274   7.349   3.495   9.214  1.2631  0.8540 -1.3465
  155MOL0     C21275   7.407   3.496   9.075 -0.2268  0.5379  0.7540
  155MOL0     O21276   7.349   3.394   8.993  0.3599  0.1370  0.0431
  155MOL0     C21277   7.353   3.413   8.861  0.0782  0.2789 -0.2045
  155MOL0     C21278   7.465   3.472   8.797  0.2738 -0.2479 -1.6656
  155MOL0     C21279   7.482   3.477   8.661 -0.1296  0.2580 -0.4248
  155MOL0     C21280   7.615   3.488   8.602  0.0361 -0.1705  0.2453
  155MOL0     C21281   7.369   3.428   8.581 -0.1532  0.6382 -0.5359
  155MOL0     C21282   7.374   3.386   8.435 -0.7683 -0.0276 -0.4726
  155MOL0     O21283   7.461   3.469   8.358  0.0248 -0.0784 -0.5812
  155MOL0     C21284   7.478   3.435   8.228 -0.3189  0.3972  0.4692
  155MOL0     C21285   7.374   3.456   8.135 -0.7066 -0.2970  0.1768
  155MOL0     C21286   7.397   3.433   7.996  0.4162 -0.3316  0.7695
  155MOL0     C21287   7.524   3.380   7.953  0.5775  0.4544  0.4039
  155MOL0     O21288   7.523   3.348   7.823 -0.6895 -0.0520  0.5202
  155MOL0     C21289   7.610   3.238   7.773  0.7125 -1.3188  0.6320
  155MOL0     C21290   7.645   3.273   7.633  0.4264 -0.2517  0.6308
  155MOL0     C21291   7.761   3.374   7.638  0.3497  0.2613 -0.1512
  155MOL0     C21292   7.804   3.407   7.500 -0.5015  0.0238 -0.6397
  155MOL0     C21293   7.912   3.513   7.516 -0.9074  0.5882  0.7038
  155MOL0     C21294   7.844   3.640   7.556  0.2074  0.0530 -0.4791
  155MOL0     C21295   7.892   3.763   7.471  0.3680  0.3616  0.4531
  155MOL0     C21296   7.849   3.897   7.530 -0.5922  0.0668 -0.4127
  155MOL0    Cl21297   7.674   3.936   7.503  0.1618  0.7025 -0.2906
  155MOL0     C21298   7.632   3.372   8.050  1.2454  0.2159  0.8601
  155MOL0     C21299   7.599   3.409   8.184  0.1875  0.3709  0.0664
  155MOL0     O21300   7.299   3.302   8.386 -0.0021 -0.6746  0.3042
  155MOL0     C21301   7.253   3.389   8.646  0.1796  0.0720  0.5270
  155MOL0     C21302   7.241   3.389   8.785 -0.3161  0.3452  0.0696
  155MOL0     N21303   7.169   3.381   9.475 -0.3309  0.7605 -0.5608
  155MOL0     N21304   7.085   3.314   9.550 -0.4656 -0.5090 -0.5278
  155MOL0     C21305   6.058   3.885   9.714 -0.1551  0.2676  0.2817
  155MOL0     C21306   5.959   3.976   9.689 -0.4804  1.2009  0.1536
  155MOL0     C21307   5.766   4.317   9.590  0.0953 -0.1966  0.2339
  155MOL0     C21308   5.645   4.266   9.543  0.7532 -0.7464 -0.3625
  155MOL0     C21309   5.528   4.331   9.565 -0.1100 -0.2755  0.9289
  155MOL0     C21310   5.532   4.467   9.600  0.7018 -0.1817 -0.2578
  155MOL0     O21311   5.409   4.536   9.628  0.3053 -0.5046  0.2557
  155MOL0     C21312   5.306   4.539   9.520  0.4716 -0.0851 -0.4215
  155MOL0     C21313   5.329   4.666   9.431 -0.8520  0.7920 -0.6198
  155MOL0     C21314   5.328   4.797   9.505 -1.1113  0.0410  0.2024
  155MOL0     C21315   5.221   4.821   9.608 -0.5749 -0.8589 -0.1920
  155MOL0     C21316   5.224   4.954   9.667 -0.8461  0.1453  0.7058
  155MOL0     C21317   5.237   5.066   9.719  0.0828  0.0481  0.0074
  155MOL0     C21318   5.653   4.528   9.634 -0.2835  0.8215 -0.1894
  155MOL0     C21319   5.765   4.452   9.630 -0.6325  0.1551 -1.0887
  155MOL0     C21320   5.891   4.530   9.685 -0.7533 -1.2733  0.1073
  155MOL0     H21321   5.957   3.963   9.345  1.6747 -0.0134 -0.7759
  155MOL0     H21322   6.120   3.784   9.399 -0.5613 -1.6623  0.8144
  155MOL0     H21323   6.227   3.717   9.830 -1.0329  0.9423 -0.7930
  155MOL0     H21324   6.351   3.832   9.758  0.1137 -0.7032 -0.1334
  155MOL0     H21325   6.464   3.631   9.682  1.8900  0.0445  1.2638
  155MOL0     H21326   6.456   3.638   9.860 -2.4331  2.4886  0.9544
  155MOL0     H21327   6.266   3.477   9.861 -1.5492  2.0608 -0.0365
  155MOL0     H21328   6.274   3.474   9.680  0.8206 -1.0703 -0.0954
  155MOL0     H21329   6.496   3.396   9.862 -1.7335  1.4212  1.3717
  155MOL0     H21330   6.385   3.289   9.777  2.0446 -0.2664  0.6939
  155MOL0     H21331   6.595   3.455   9.621  1.1458 -0.0526  1.4703
  155MOL0     H21332   6.461   3.359   9.547  0.8773 -0.1666 -0.2132
  155MOL0     H21333   6.641   3.247   9.758  0.4873  0.4935 -0.5856
  155MOL0     H21334   6.562   3.163   9.620 -1.2903  0.0417  0.9973
  155MOL0     H21335   6.749   3.294   9.475 -2.5164  2.5312  0.1556
  155MOL0     H21336   6.809   3.165   9.590 -1.2387 -0.2628 -2.2902
  155MOL0     H21337   6.811   3.464   9.640  0.5075 -0.4950 -2.7541
  155MOL0     H21338   6.887   3.340   9.756  0.7781  0.9912  1.0943
  155MOL0     H21339   6.935   3.606   9.531  1.0236 -0.2256  1.8879
  155MOL0     H21340   7.260   3.650   9.408 -1.4254 -0.6939  2.0626
  155MOL0     H21341   7.088   3.688   9.354 -0.6631  0.4675 -1.3298
  155MOL0     H21342   7.132   3.515   9.167 -2.4201  1.9963  1.0345
  155MOL0     H21343   7.236   3.662   9.149  4.6344 -1.8977 -0.7887
  155MOL0     H21344   7.409   3.543   9.292  4.3534 -3.3335 -0.8212
  155MOL0     H21345   7.323   3.400   9.261 -1.1370  1.4630 -1.3193
  155MOL0     H21346   7.401   3.600   9.040  0.7097  0.6276  0.8212
  155MOL0     H21347   7.514   3.487   9.096  0.2011  3.9549  0.7261
  155MOL0     H21348   7.550   3.513   8.851  1.8921 -2.0522 -2.6736
  155MOL0     H21349   7.609   3.577   8.538  0.7953  0.8859  1.5980
  155MOL0     H21350   7.652   3.397   8.555  0.0334 -0.9366  1.6830
  155MOL0     H21351   7.687   3.520   8.678  0.5881 -3.4498  1.2452
  155MOL0     H21352   7.279   3.488   8.178  1.0455 -0.0119  4.3275
  155MOL0     H21353   7.312   3.439   7.929 -1.6219  1.5611  3.2999
  155MOL0     H21354   7.700   3.223   7.832  2.6338  0.7731 -1.5716
  155MOL0     H21355   7.567   3.137   7.775  0.7655 -1.4723 -1.9046
  155MOL0     H21356   7.682   3.179   7.591 -1.1129 -2.2126  3.3334
  155MOL0     H21357   7.564   3.324   7.580  1.5275  0.6539 -0.2304
  155MOL0     H21358   7.833   3.316   7.695  0.1683  0.2782  0.0972
  155MOL0     H21359   7.722   3.463   7.689 -0.1904 -0.1161  0.1084
  155MOL0     H21360   7.720   3.451   7.445  1.8153  2.3232 -2.6148
  155MOL0     H21361   7.847   3.315   7.459 -0.9314  1.1141 -3.8537
  155MOL0     H21362   7.986   3.485   7.592  1.1588  4.2289  0.2843
  155MOL0     H21363   7.961   3.537   7.421 -2.7885  0.6949 -0.2899
  155MOL0     H21364   7.839   3.677   7.659 -0.8678  0.2892 -0.6038
  155MOL0     H21365   7.739   3.644   7.527 -0.2658  2.0447  1.2682
  155MOL0     H21366   7.856   3.758   7.368  1.4772  0.7378  0.0316
  155MOL0     H21367   8.002   3.762   7.469  0.3798 -0.5822  0.7870
  155MOL0     H21368   7.905   3.975   7.478  0.3142 -0.3389 -0.0647
  155MOL0     H21369   7.871   3.919   7.635 -0.1574  0.0027 -0.4902
  155MOL0     H21370   7.724   3.331   8.009  1.5618  0.7319  1.0499
  155MOL0     H21371   7.673   3.390   8.262 -2.9509 -0.2104  3.1550
  155MOL0     H21372   7.174   3.346   8.586  0.3332  2.8437 -1.9049
  155MOL0     H21373   7.151   3.339   8.818 -0.6598 -0.1952 -1.5786
  155MOL0     H21374   6.082   3.867   9.818  0.0561  0.7162  0.3123
  155MOL0     H21375   5.894   4.017   9.767 -0.0200  2.2337  0.0117
  155MOL0     H21376   5.630   4.168   9.498 -0.8274 -0.5821 -0.2489
  155MOL0     H21377   5.430   4.284   9.558  0.1261 -0.7121  0.5284
  155MOL0     H21378   5.307   4.445   9.465  0.7628 -0.1597 -0.2913
  155MOL0     H21379   5.204   4.544   9.561 -1.1423 -2.7669 -3.6404
  155MOL0     H21380   5.252   4.676   9.353  0.0664  1.4040 -1.4803
  155MOL0     H21381   5.423   4.649   9.378 -2.2886 -1.0714 -2.7642
  155MOL0     H21382   5.420   4.823   9.558 -1.7418  4.1315 -0.4100
  155MOL0     H21383   5.311   4.874   9.429  0.4529  2.9518  2.6079
  155MOL0     H21384   5.221   4.749   9.690  0.2997 -0.8790 -0.2008
  155MOL0     H21385   5.126   4.810   9.554  0.1404  0.1882 -1.7551
  155MOL0     H21386   5.254   5.161   9.766  0.9396 -0.7897  1.4627
  155MOL0     H21387   5.650   4.624   9.684  2.0274  0.9810 -0.2704
  155MOL0     H21388   5.873   4.636   9.668 -1.3107 -0.9553  2.3115
  155MOL0     H21389   5.905   4.517   9.793  0.8418 -0.5507  0.0174
  155MOL0     H21390   5.983   4.500   9.633  0.4526  1.6733  0.3331
  156MOL0     O21391   3.824   7.480  10.811 -0.0222  0.9566  0.3779
  156MOL0     C21392   3.882   7.375  10.813 -0.7181  0.3708  0.1769
  156MOL0     O21393   3.915   7.299  10.706 -0.6678  0.3937  0.4470
  156MOL0     C21394   3.878   7.340  10.580  0.8261 -1.0079  0.2860
  156MOL0     C21395   3.788   7.271  10.498  0.4352  0.1254 -0.4186
  156MOL0     C21396   3.747   7.321  10.379 -0.4556 -0.3669 -0.6274
  156MOL0     C21397   3.795   7.446  10.333  0.2832 -0.7078 -0.5339
  156MOL0     O21398   3.747   7.514  10.228 -0.8507 -0.3395  0.2211
  156MOL0     C21399   3.763   7.436  10.105  0.1132 -0.0800 -0.7731
  156MOL0     C21400   3.642   7.452  10.019  0.6888  0.5078  0.5090
  156MOL0     C21401   3.518   7.412  10.105 -0.0903 -0.0545  0.3610
  156MOL0     C21402   3.387   7.451  10.034 -0.0581  1.1389  0.0388
  156MOL0     C21403   3.272   7.456  10.136 -0.1841  0.3645  0.1826
  156MOL0     C21404   3.130   7.456  10.079  0.2226 -0.6472 -0.0709
  156MOL0     C21405   3.093   7.333  10.005 -0.2603  0.1478 -0.6762
  156MOL0     C21406   3.079   7.218  10.104 -0.2594 -0.4323  0.4612
  156MOL0     N21407   3.032   7.090  10.033 -0.3073  0.1798 -0.7217
  156MOL0     C21408   2.913   7.025  10.047 -0.4488  0.1494 -0.2441
  156MOL0     C21409   2.891   6.947   9.938  0.6416  0.4713 -0.0526
  156MOL0     C21410   2.749   6.885   9.929 -0.1954  0.2363 -0.0344
  156MOL0     C21411   2.651   6.998   9.889 -0.1473 -0.4908  0.3777
  156MOL0     C21412   2.590   6.976   9.752  0.1854  0.2130  0.9261
  156MOL0     C21413   2.480   7.070   9.731 -0.8623 -0.1415 -0.0898
  156MOL0     O21414   2.365   7.040   9.802 -0.2166 -0.4730 -0.4772
  156MOL0     C21415   2.294   7.153   9.836  0.0306  0.3717  0.8057
  156MOL0     C21416   2.328   7.212   9.958 -0.0245 -0.3148  0.1773
  156MOL0     C21417   2.248   7.326   9.995 -0.2752  0.0907  0.0399
  156MOL0     C21418   2.300   7.394  10.122 -0.2247 -0.5039  0.0238
  156MOL0     C21419   2.143   7.379   9.910 -0.1008  0.1716  0.1978
  156MOL0     C21420   2.060   7.500   9.926 -0.8832  0.2817  0.4038
  156MOL0     O21421   1.956   7.536   9.832 -0.5638  0.9727  0.3370
  156MOL0     C21422   1.879   7.646   9.843 -0.0496  0.2691 -0.3043
  156MOL0     C21423   1.824   7.687   9.725  0.0753 -0.3224  0.7713
  156MOL0     C21424   1.745   7.806   9.723  0.8800 -0.0767 -0.3815
  156MOL0     C21425   1.699   7.864   9.844  0.2876  0.6939  0.8983
  156MOL0     O21426   1.625   7.979   9.838 -0.3138 -0.4696  0.4811
  156MOL0     C21427   1.517   8.006   9.930  0.3772  0.4086 -0.4815
  156MOL0     C21428   1.381   8.008   9.854  0.0758 -0.0649  0.2674
  156MOL0     C21429   1.376   7.899   9.742 -0.0732  1.0880  0.0899
  156MOL0     C21430   1.232   7.885   9.696 -0.6450  0.7195 -0.0199
  156MOL0     C21431   1.210   7.759   9.621 -0.9369 -0.5852 -0.3846
  156MOL0     C21432   1.286   7.754   9.486 -0.4268  1.0635  1.4995
  156MOL0     C21433   1.233   7.643   9.391 -0.3123  0.0141 -0.0329
  156MOL0     C21434   1.175   7.702   9.260 -0.2139  0.4497  1.0358
  156MOL0    Cl21435   1.298   7.802   9.171  0.2490 -0.6442  0.2042
  156MOL0     C21436   1.749   7.814   9.958 -0.2207  0.5938 -0.8041
  156MOL0     C21437   1.840   7.703   9.961  1.3416  0.7840 -0.3602
  156MOL0     O21438   2.105   7.564  10.015  0.1853  0.5446  0.6232
  156MOL0     C21439   2.114   7.301   9.794  0.2931  0.0194  0.6099
  156MOL0     C21440   2.188   7.195   9.752 -0.8157  0.0080 -0.4200
  156MOL0     N21441   2.994   6.977   9.848 -0.9278 -0.2878  0.1459
  156MOL0     N21442   3.086   7.049   9.908 -0.1337 -0.3368 -0.7967
  156MOL0     C21443   3.883   7.519  10.418 -0.7824  0.1991  0.8750
  156MOL0     C21444   3.930   7.461  10.532 -1.1112 -0.0437 -0.9261
  156MOL0     C21445   3.944   7.342  10.939  0.6636  0.0017  0.0823
  156MOL0     C21446   4.027   7.227  10.947 -0.3358  0.2019  0.9020
  156MOL0     C21447   4.105   7.192  11.059  0.0486  0.7437  0.4744
  156MOL0     C21448   4.100   7.270  11.168  0.1248 -1.0853  0.2409
  156MOL0     O21449   4.181   7.259  11.275  0.6458  0.6016 -0.0128
  156MOL0     C21450   4.145   7.156  11.371 -0.2202  0.0855  0.0319
  156MOL0     C21451   4.028   7.204  11.451  0.2417  0.4311 -0.0714
  156MOL0     C21452   4.071   7.312  11.552 -1.0738 -0.2052 -0.9455
  156MOL0     C21453   3.958   7.380  11.623 -0.1754  0.2031  0.1525
  156MOL0     C21454   4.009   7.458  11.742 -0.4653  0.9353  0.5516
  156MOL0     C21455   4.074   7.509  11.829  0.3472 -0.9172 -0.6473
  156MOL0     C21456   4.017   7.385  11.168  0.8716  0.3584 -0.5407
  156MOL0     C21457   3.934   7.429  11.059  0.2394 -0.5806  0.6763
  156MOL0     C21458   3.848   7.547  11.074  0.2034 -0.4564  0.0742
  156MOL0     H21459   3.750   7.179  10.540  2.4195  0.4842  2.4895
  156MOL0     H21460   3.662   7.269  10.338 -1.0344 -0.4247  0.5869
  156MOL0     H21461   3.795   7.334  10.126 -0.6650  0.4516  4.5122
  156MOL0     H21462   3.848   7.489  10.061  0.2899  1.5398  1.3710
  156MOL0     H21463   3.635   7.558   9.991  2.9975  1.7404  4.0037
  156MOL0     H21464   3.647   7.386   9.932  2.7661 -1.1686  1.8170
  156MOL0     H21465   3.517   7.312  10.150  0.6342  0.3222  1.2415
  156MOL0     H21466   3.529   7.485  10.186  2.5118 -1.9613  1.8930
  156MOL0     H21467   3.390   7.548   9.983  0.7154  0.1822 -1.8188
  156MOL0     H21468   3.370   7.366   9.968  1.5255  0.0358  0.9929
  156MOL0     H21469   3.281   7.556  10.180  0.8390  1.6390 -2.6983
  156MOL0     H21470   3.287   7.382  10.215 -0.6674 -1.8449 -1.6703
  156MOL0     H21471   3.049   7.473  10.151  0.3493  0.2791 -0.1404
  156MOL0     H21472   3.129   7.542  10.012 -0.9561 -1.2002 -0.7873
  156MOL0     H21473   3.166   7.306   9.928  1.9322  1.8852  0.6526
  156MOL0     H21474   2.999   7.352   9.953 -1.2458 -3.1591 -0.3569
  156MOL0     H21475   3.179   7.200  10.144 -0.5107 -0.8811  0.8835
  156MOL0     H21476   3.015   7.242  10.189 -1.1728 -0.7182 -0.1286
  156MOL0     H21477   2.849   7.015  10.134  0.6539 -1.4539  0.4145
  156MOL0     H21478   2.727   6.834  10.023  2.1544 -1.0765 -0.1136
  156MOL0     H21479   2.755   6.822   9.840  3.3333  0.3099  0.0129
  156MOL0     H21480   2.565   6.995   9.955 -0.6085 -2.3078 -0.2624
  156MOL0     H21481   2.696   7.098   9.891 -1.0068 -0.0365 -1.2060
  156MOL0     H21482   2.666   6.998   9.677 -2.4182  1.7839 -1.4718
  156MOL0     H21483   2.562   6.873   9.730  0.2704  0.8082 -2.6459
  156MOL0     H21484   2.511   7.174   9.744  0.6645 -0.6173  0.2444
  156MOL0     H21485   2.450   7.062   9.626  0.1140 -0.2910 -0.3610
  156MOL0     H21486   2.408   7.173  10.020 -1.7780 -3.8008  0.5054
  156MOL0     H21487   2.354   7.330  10.193 -0.7753 -0.4990  0.4514
  156MOL0     H21488   2.218   7.447  10.171 -0.3923  1.3365 -2.0970
  156MOL0     H21489   2.377   7.466  10.091  1.7090 -2.7190 -0.6696
  156MOL0     H21490   1.862   7.648   9.631 -0.0068  0.1724  0.5320
  156MOL0     H21491   1.704   7.850   9.633 -0.6436  0.7834  0.7026
  156MOL0     H21492   1.521   7.943  10.019  3.0555  4.0601  2.3272
  156MOL0     H21493   1.532   8.102   9.981  1.3198 -0.4500  0.9363
  156MOL0     H21494   1.304   7.988   9.929 -1.7783  2.2223 -0.8860
  156MOL0     H21495   1.359   8.109   9.819  1.3731 -0.2562 -1.2288
  156MOL0     H21496   1.419   7.807   9.781  0.4340  0.6037 -1.5421
  156MOL0     H21497   1.442   7.920   9.657 -0.8569 -0.2407 -0.8934
  156MOL0     H21498   1.212   7.974   9.635  2.6795  0.5580 -1.6204
  156MOL0     H21499   1.164   7.873   9.780 -0.5667 -1.9105 -0.2463
  156MOL0     H21500   1.243   7.680   9.689  0.8429  0.8933  0.5430
  156MOL0     H21501   1.101   7.753   9.609 -1.1271 -0.2135  1.0281
  156MOL0     H21502   1.388   7.725   9.513  0.0684  0.6306 -0.6114
  156MOL0     H21503   1.276   7.842   9.421 -3.4610  0.0856  0.4626
  156MOL0     H21504   1.169   7.565   9.434 -0.6406 -1.0771 -2.3629
  156MOL0     H21505   1.324   7.590   9.362 -0.4185  0.4075 -1.1513
  156MOL0     H21506   1.091   7.764   9.293 -0.7769 -0.0127  0.5135
  156MOL0     H21507   1.140   7.618   9.198 -0.7274 -1.2447  3.4723
  156MOL0     H21508   1.732   7.850  10.059 -1.0894 -0.6445 -0.4826
  156MOL0     H21509   1.869   7.665  10.059 -0.5074  2.1217  0.7488
  156MOL0     H21510   2.037   7.332   9.724 -0.3271 -1.8503  0.4012
  156MOL0     H21511   2.173   7.131   9.666 -0.9931 -1.0609  0.3796
  156MOL0     H21512   3.921   7.613  10.378  3.3390 -1.5232  0.2122
  156MOL0     H21513   3.986   7.529  10.596  2.3753 -0.1446 -3.5882
  156MOL0     H21514   4.027   7.149  10.872 -0.8100 -1.6326  2.7327
  156MOL0     H21515   4.160   7.099  11.067 -1.7708 -0.2943  1.7359
  156MOL0     H21516   4.126   7.065  11.312  2.3355  0.8540 -2.1610
  156MOL0     H21517   4.225   7.136  11.443 -2.1681 -2.4647  1.6571
  156MOL0     H21518   3.999   7.122  11.517  4.5306 -2.8700 -1.8779
  156MOL0     H21519   3.947   7.237  11.385 -1.1787 -1.0676  0.8525
  156MOL0     H21520   4.132   7.267  11.631 -2.0229  1.2246  0.6705
  156MOL0     H21521   4.127   7.391  11.501  2.0101 -0.5635  1.5704
  156MOL0     H21522   3.902   7.301  11.673 -0.5073  2.0520  2.9189
  156MOL0     H21523   3.894   7.430  11.550  2.1479  2.9104 -0.2134
  156MOL0     H21524   4.141   7.550  11.902 -0.3613  1.5118 -1.3024
  156MOL0     H21525   4.011   7.434  11.264  0.0085 -1.2863  0.2683
  156MOL0     H21526   3.823   7.578  11.176 -2.4809  2.8333 -1.3834
  156MOL0     H21527   3.896   7.637  11.034  0.7286  0.0760  1.8289
  156MOL0     H21528   3.751   7.532  11.026  1.6384 -1.1683 -2.8316
  157MOL0     O21529  11.201   6.747   3.272  0.1565 -0.6171  0.2752
  157MOL0     C21530  11.243   6.635   3.285 -0.0126 -0.0102 -0.1267
  157MOL0     O21531  11.283   6.571   3.403  0.4030  0.1581 -0.6293
  157MOL0     C21532  11.275   6.641   3.523 -0.8680 -0.3682  1.1189
  157MOL0     C21533  11.393   6.698   3.567 -0.4984  0.6372  0.4458
  157MOL0     C21534  11.393   6.789   3.674 -1.6028  0.4726  0.6853
  157MOL0     C21535  11.278   6.820   3.743  0.9691 -0.2374 -0.0003
  157MOL0     O21536  11.293   6.907   3.850  0.7356 -0.4633 -0.6440
  157MOL0     C21537  11.193   6.906   3.954 -0.3252 -0.5040  0.5783
  157MOL0     C21538  11.239   7.010   4.055  0.8452 -0.0377  0.3531
  157MOL0     C21539  11.363   6.972   4.137 -0.0386  0.9027 -0.6316
  157MOL0     C21540  11.431   7.079   4.224  0.0684  0.4949  0.0071
  157MOL0     C21541  11.483   7.039   4.370  0.2905  0.0964  0.4576
  157MOL0     C21542  11.366   6.988   4.462 -0.5870 -0.1951 -0.0226
  157MOL0     C21543  11.247   7.080   4.480  0.7951 -0.4753 -0.2198
  157MOL0     C21544  11.259   7.156   4.615 -0.4332 -0.1434 -0.7743
  157MOL0     N21545  11.129   7.216   4.651  0.2907 -0.3825  0.0729
  157MOL0     C21546  11.012   7.160   4.693 -0.9999 -0.0487  0.4635
  157MOL0     C21547  10.928   7.267   4.725 -0.6625 -0.8265  1.0002
  157MOL0     C21548  10.789   7.242   4.774 -0.0903 -0.3341 -0.0663
  157MOL0     C21549  10.684   7.353   4.797  0.0967 -0.1216  0.1758
  157MOL0     C21550  10.650   7.422   4.672 -0.3371 -0.0486  0.8667
  157MOL0     C21551  10.617   7.572   4.702 -0.1381 -0.1192  0.3528
  157MOL0     O21552  10.507   7.587   4.787  0.7870 -0.2935  0.3813
  157MOL0     C21553  10.445   7.711   4.791  0.2395  0.2968  0.7487
  157MOL0     C21554  10.360   7.724   4.897 -1.3054 -0.4993 -0.6880
  157MOL0     C21555  10.293   7.842   4.932  0.5814 -0.7083  0.9551
  157MOL0     C21556  10.190   7.835   5.040 -0.1753 -0.3229 -0.4309
  157MOL0     C21557  10.333   7.958   4.847  0.3649 -0.4575  0.0557
  157MOL0     C21558  10.260   8.090   4.858 -0.1089 -0.0567 -0.8572
  157MOL0     O21559  10.168   8.115   4.963  0.9913 -1.0364 -0.1429
  157MOL0     C21560  10.090   8.221   4.939 -0.5636  0.1142  0.0588
  157MOL0     C21561  10.098   8.332   5.026 -0.2932  0.5643  0.3777
  157MOL0     C21562  10.033   8.454   5.003  0.3128 -0.2844 -0.1126
  157MOL0     C21563   9.933   8.461   4.905  0.6083  0.0909  0.1478
  157MOL0     O21564   9.856   8.571   4.896  0.4414 -0.1531  0.0438
  157MOL0     C21565   9.729   8.555   4.961  0.1529 -0.3155  0.0820
  157MOL0     C21566   9.686   8.689   5.016  0.7664 -0.0919  0.0951
  157MOL0     C21567   9.649   8.799   4.906 -0.2986  0.0483 -0.3630
  157MOL0     C21568   9.599   8.929   4.974 -0.1159 -0.1691 -0.1792
  157MOL0     C21569   9.720   8.985   5.055  0.3635 -0.4276  0.7911
  157MOL0     C21570   9.675   9.120   5.113  0.7636  1.1035  0.1445
  157MOL0     C21571   9.789   9.162   5.206  0.6304  0.8493 -0.3800
  157MOL0     C21572   9.780   9.313   5.232 -1.1886  0.1140  0.0047
  157MOL0    Cl21573   9.904   9.357   5.348 -0.4021  0.4139 -0.3200
  157MOL0     C21574   9.909   8.345   4.830  0.2910 -0.4854 -0.3515
  157MOL0     C21575   9.995   8.227   4.838  0.0511 -0.5508 -0.8564
  157MOL0     O21576  10.278   8.159   4.769 -0.1156  0.1844  0.4880
  157MOL0     C21577  10.439   7.955   4.753 -0.3638 -0.1631  0.2627
  157MOL0     C21578  10.489   7.830   4.722  0.0234  1.1458 -0.2396
  157MOL0     N21579  10.993   7.377   4.690 -0.4009 -0.7102  0.7847
  157MOL0     N21580  11.110   7.352   4.641 -1.2123 -0.4473 -0.1327
  157MOL0     C21581  11.155   6.771   3.703  0.8634  0.4608 -0.1995
  157MOL0     C21582  11.158   6.684   3.590  0.5542 -0.7664 -0.0332
  157MOL0     C21583  11.238   6.559   3.158  0.5333  0.1589 -0.1292
  157MOL0     C21584  11.213   6.422   3.167 -0.0795  0.0637 -0.6207
  157MOL0     C21585  11.193   6.352   3.049 -0.5815  0.2599  0.0387
  157MOL0     C21586  11.199   6.400   2.924 -0.4752 -0.3316  0.1796
  157MOL0     O21587  11.174   6.327   2.806 -0.4528  0.2306 -0.4858
  157MOL0     C21588  11.149   6.183   2.823 -0.6644 -0.9022 -0.4527
  157MOL0     C21589  11.275   6.107   2.860  0.5613 -0.6185  0.7831
  157MOL0     C21590  11.386   6.146   2.748  0.2219  0.2480 -0.1825
  157MOL0     C21591  11.490   6.037   2.754 -0.8060 -0.1448  0.7196
  157MOL0     C21592  11.452   5.911   2.687 -0.6703 -0.4783 -1.2410
  157MOL0     C21593  11.405   5.805   2.661 -0.0488 -1.0217 -0.8955
  157MOL0     C21594  11.229   6.535   2.915  0.0367  0.5686 -0.5885
  157MOL0     C21595  11.249   6.615   3.024 -0.1873  0.7511 -1.1745
  157MOL0     C21596  11.269   6.767   3.001  0.9401  0.3157  0.0027
  157MOL0     H21597  11.484   6.669   3.516 -1.4870 -0.8032 -0.6018
  157MOL0     H21598  11.481   6.847   3.701 -1.9084  1.5489 -0.5326
  157MOL0     H21599  11.189   6.803   3.991  3.4840 -0.7702  0.6590
  157MOL0     H21600  11.098   6.934   3.908 -0.8826  1.7611  2.8654
  157MOL0     H21601  11.261   7.107   4.010  2.7542  0.0074  1.2618
  157MOL0     H21602  11.152   7.018   4.120  0.6845 -1.8884  0.4136
  157MOL0     H21603  11.330   6.896   4.209  1.9955  1.1442  0.6405
  157MOL0     H21604  11.437   6.929   4.069  0.1262 -1.0605  0.7043
  157MOL0     H21605  11.515   7.128   4.174  2.2727 -1.2203  1.8266
  157MOL0     H21606  11.352   7.153   4.242 -2.2761 -1.8472 -0.0956
  157MOL0     H21607  11.522   7.130   4.415  2.8722 -0.9110  0.4282
  157MOL0     H21608  11.560   6.962   4.361  1.7704  1.7493 -2.4755
  157MOL0     H21609  11.333   6.892   4.421  0.4371 -1.8520  2.7443
  157MOL0     H21610  11.407   6.956   4.558 -2.6487 -1.8131  0.3966
  157MOL0     H21611  11.171   7.001   4.487 -1.3865  1.3309 -1.8338
  157MOL0     H21612  11.221   7.153   4.403  2.3334  1.2725  0.8588
  157MOL0     H21613  11.298   7.086   4.690 -1.1676 -0.8521 -1.0447
  157MOL0     H21614  11.327   7.241   4.600 -0.3447 -0.3954 -1.8544
  157MOL0     H21615  10.989   7.057   4.718 -1.1616  0.3605  2.0674
  157MOL0     H21616  10.798   7.198   4.874 -1.8673  0.0045  0.2661
  157MOL0     H21617  10.741   7.172   4.706 -1.2310  3.7028 -3.8421
  157MOL0     H21618  10.596   7.301   4.836  0.5620  0.3882  2.0071
  157MOL0     H21619  10.723   7.423   4.871 -1.8695  1.8749 -0.5618
  157MOL0     H21620  10.735   7.429   4.604 -1.0581 -1.1142 -0.2030
  157MOL0     H21621  10.568   7.369   4.623  0.6882 -1.0995  0.2516
  157MOL0     H21622  10.710   7.612   4.742  0.2444 -1.8451  1.2771
  157MOL0     H21623  10.613   7.623   4.605 -1.1389 -2.1123 -0.7253
  157MOL0     H21624  10.347   7.641   4.966  0.0696  2.0946  2.9599
  157MOL0     H21625  10.090   7.848   4.999 -0.8878  0.0481  1.3393
  157MOL0     H21626  10.207   7.917   5.110  0.3177 -0.4021 -0.4537
  157MOL0     H21627  10.206   7.746   5.102  1.3344  0.1521 -0.0974
  157MOL0     H21628  10.174   8.324   5.103  1.3113 -0.7875 -1.2407
  157MOL0     H21629  10.064   8.542   5.057 -3.0283 -1.6546  4.6091
  157MOL0     H21630   9.651   8.526   4.891  0.4085 -0.5312 -0.1135
  157MOL0     H21631   9.722   8.472   5.032 -1.1551  0.0643  0.4249
  157MOL0     H21632   9.601   8.673   5.083  0.3414 -1.3591 -0.7157
  157MOL0     H21633   9.768   8.720   5.081  0.4968  0.6983  0.0634
  157MOL0     H21634   9.582   8.762   4.828  1.3895 -1.9428 -0.9584
  157MOL0     H21635   9.734   8.817   4.839 -2.4691 -2.3606 -4.1194
  157MOL0     H21636   9.517   8.919   5.045 -0.8384  2.5397 -0.5453
  157MOL0     H21637   9.579   9.005   4.897  1.0576 -0.2287 -0.5621
  157MOL0     H21638   9.739   8.919   5.140  0.4720 -0.9134  0.3968
  157MOL0     H21639   9.804   9.006   4.988  1.1095  1.8303  2.3134
  157MOL0     H21640   9.580   9.107   5.165  1.1552  1.9944  1.1163
  157MOL0     H21641   9.666   9.183   5.025 -0.2577 -1.4462 -1.6924
  157MOL0     H21642   9.882   9.144   5.151 -1.3073 -3.3006 -2.7726
  157MOL0     H21643   9.794   9.108   5.301  4.0371  1.9782  0.2063
  157MOL0     H21644   9.687   9.326   5.288  0.2645 -0.8727  2.8956
  157MOL0     H21645   9.787   9.376   5.144  1.3757  1.1474  0.8429
  157MOL0     H21646   9.821   8.358   4.769  2.2500  2.7621 -2.8382
  157MOL0     H21647   9.985   8.149   4.763  1.8568 -0.8090 -0.8612
  157MOL0     H21648  10.492   8.043   4.718  2.9886 -1.2753  2.0494
  157MOL0     H21649  10.577   7.821   4.660 -0.6007 -2.1116 -0.8497
  157MOL0     H21650  11.055   6.794   3.739 -0.1650  1.5733 -3.3579
  157MOL0     H21651  11.068   6.634   3.557  0.8989 -1.4268  0.0124
  157MOL0     H21652  11.199   6.375   3.264  0.1189 -0.9541 -1.0755
  157MOL0     H21653  11.189   6.244   3.061  1.1113  0.2600  0.9025
  157MOL0     H21654  11.071   6.163   2.896  0.1318 -1.4475  0.2652
  157MOL0     H21655  11.118   6.139   2.728  2.8712 -1.6677 -1.3867
  157MOL0     H21656  11.238   6.004   2.866 -3.5265  0.5933 -0.5689
  157MOL0     H21657  11.303   6.131   2.963 -2.9658  0.2632  1.6651
  157MOL0     H21658  11.345   6.147   2.646 -0.1337 -0.3840 -0.0473
  157MOL0     H21659  11.424   6.243   2.781  1.4005 -1.5609  4.5389
  157MOL0     H21660  11.500   6.021   2.861 -0.0817  1.5494  0.9221
  157MOL0     H21661  11.578   6.075   2.702  0.9300 -3.0465  1.2853
  157MOL0     H21662  11.352   5.722   2.619 -3.0817  0.6559 -0.6591
  157MOL0     H21663  11.237   6.584   2.818  1.5397  1.7541  0.0882
  157MOL0     H21664  11.355   6.808   3.054  0.5765  0.9660  0.1003
  157MOL0     H21665  11.300   6.781   2.897  0.9575 -2.7573 -0.4801
  157MOL0     H21666  11.184   6.822   3.043  0.0117 -0.2028 -1.1336
  158MOL0     O21667   5.467   0.087   7.078  0.6638 -0.7475  0.2970
  158MOL0     C21668   5.497   0.204   7.101  0.0968  0.7593  0.5421
  158MOL0     O21669   5.618   0.251   7.102  0.6653  0.1877 -0.6751
  158MOL0     C21670   5.715   0.157   7.109 -0.4219 -0.1633 -0.9705
  158MOL0     C21671   5.766   0.099   6.990  0.5570  0.5508 -0.2620
  158MOL0     C21672   5.870   0.002   6.999 -0.7564 -0.8388  0.9738
  158MOL0     C21673   5.933  -0.020   7.123 -1.6331  0.6230  0.6686
  158MOL0     O21674   6.040  -0.108   7.121 -0.6712  0.2555  0.1426
  158MOL0     C21675   6.010  -0.249   7.136 -0.1552 -0.3112 -0.4674
  158MOL0     C21676   6.116  -0.341   7.096  0.3932  0.0903 -0.7761
  158MOL0     C21677   6.201  -0.316   6.967  0.4831  0.5269 -0.3902
  158MOL0     C21678   6.110  -0.361   6.837  0.5276  0.3478 -0.0523
  158MOL0     C21679   6.207  -0.373   6.717  0.9130  0.1028  0.3602
  158MOL0     C21680   6.265  -0.234   6.681 -0.4334 -0.2997  0.3987
  158MOL0     C21681   6.347  -0.235   6.546  0.2957 -0.2047 -0.3469
  158MOL0     C21682   6.450  -0.349   6.529  0.4237 -0.8662  1.1626
  158MOL0     N21683   6.581  -0.312   6.576  0.5995 -0.4118  0.3162
  158MOL0     C21684   6.611  -0.310   6.709 -0.4722  0.5799 -0.0345
  158MOL0     C21685   6.747  -0.316   6.707  0.0863  0.3889  0.6966
  158MOL0     C21686   6.828  -0.315   6.835  0.6966  0.0250  0.1915
  158MOL0     C21687   6.816  -0.186   6.909 -0.3438  0.1128  0.0625
  158MOL0     C21688   6.874  -0.065   6.823 -0.7901  0.5458  0.5323
  158MOL0     C21689   6.772   0.029   6.760  0.7638  0.2303  0.1054
  158MOL0     O21690   6.738   0.108   6.876 -0.2018 -0.2043 -0.5654
  158MOL0     C21691   6.630   0.187   6.855  0.2735  0.4122 -0.5733
  158MOL0     C21692   6.637   0.285   6.755  0.5227 -0.8435  0.9634
  158MOL0     C21693   6.529   0.366   6.710 -0.2624 -0.3382 -0.5831
  158MOL0     C21694   6.560   0.460   6.598 -0.0962 -0.1271  0.0211
  158MOL0     C21695   6.411   0.355   6.781 -1.1322 -1.0944  0.6287
  158MOL0     C21696   6.302   0.450   6.783  0.2586 -0.0692 -0.8043
  158MOL0     O21697   6.188   0.400   6.847  0.1167  0.4051  0.8755
  158MOL0     C21698   6.107   0.473   6.928 -0.0963 -0.2917  0.5902
  158MOL0     C21699   5.985   0.414   6.958 -0.0574 -0.4230 -0.3157
  158MOL0     C21700   5.895   0.489   7.043 -0.0566  0.4895  0.3754
  158MOL0     C21701   5.927   0.611   7.098 -0.5244 -1.0798  0.4167
  158MOL0     O21702   5.830   0.679   7.167  0.0617  0.5098 -0.1411
  158MOL0     C21703   5.873   0.774   7.263  0.1067  0.0505  0.2893
  158MOL0     C21704   5.755   0.780   7.367  0.3922  0.6958  0.4276
  158MOL0     C21705   5.757   0.905   7.457 -0.6531 -0.4101 -0.4006
  158MOL0     C21706   5.617   0.926   7.521 -0.5183 -0.0284  0.1105
  158MOL0     C21707   5.607   1.061   7.591  0.2009  0.1890  1.4417
  158MOL0     C21708   5.475   1.072   7.659 -0.3009 -0.1979 -0.0385
  158MOL0     C21709   5.452   1.215   7.712  0.2247 -0.5159 -0.2147
  158MOL0     C21710   5.323   1.231   7.796  0.2755  0.8044  0.2996
  158MOL0    Cl21711   5.308   1.383   7.889 -0.1036  0.0836  0.8125
  158MOL0     C21712   6.059   0.661   7.078 -0.0286 -0.4457  0.1654
  158MOL0     C21713   6.142   0.599   6.982  0.7600 -0.0367 -0.3343
  158MOL0     O21714   6.312   0.565   6.736 -0.1451 -0.1462  0.1840
  158MOL0     C21715   6.403   0.250   6.884  0.1232 -0.0213  0.3187
  158MOL0     C21716   6.510   0.168   6.914 -0.5569 -0.8385  0.6199
  158MOL0     N21717   6.790  -0.309   6.576 -0.4920  0.2885 -0.4107
  158MOL0     N21718   6.693  -0.307   6.493  0.3268 -0.1218  0.0277
  158MOL0     C21719   5.889   0.037   7.242  0.3792  0.1676  0.6399
  158MOL0     C21720   5.775   0.129   7.238  0.1204 -0.5707 -0.1226
  158MOL0     C21721   5.382   0.297   7.120 -0.9821  0.8279  0.7268
  158MOL0     C21722   5.273   0.275   7.039  0.5702  0.7472  0.0140
  158MOL0     C21723   5.162   0.361   7.048 -0.6369  0.2288 -0.2596
  158MOL0     C21724   5.152   0.460   7.155  0.2091  0.1589  0.6473
  158MOL0     O21725   5.035   0.546   7.163 -0.2082 -0.2922  0.1223
  158MOL0     C21726   4.914   0.506   7.088 -0.7686  0.6299  0.3467
  158MOL0     C21727   4.787   0.565   7.143  0.3508  0.7329  0.8195
  158MOL0     C21728   4.779   0.718   7.142 -0.7194  0.3753 -0.2193
  158MOL0     C21729   4.814   0.759   7.288  0.5051  0.6490  1.0573
  158MOL0     C21730   4.834   0.903   7.290 -0.3993 -0.0098  0.2931
  158MOL0     C21731   4.864   1.024   7.304  0.6097  0.7726  0.1446
  158MOL0     C21732   5.275   0.487   7.222  0.2916  0.1558 -0.3066
  158MOL0     C21733   5.388   0.408   7.208  0.0111 -0.5790 -0.5961
  158MOL0     C21734   5.505   0.458   7.290 -0.0474  0.1954  0.2602
  158MOL0     H21735   5.725   0.123   6.893  1.7859 -2.3727 -1.6231
  158MOL0     H21736   5.916  -0.051   6.917 -3.8290 -0.8273 -0.9300
  158MOL0     H21737   5.932  -0.271   7.062 -0.2600 -2.5168  0.2326
  158MOL0     H21738   5.972  -0.279   7.234  2.6824 -3.3227 -0.1517
  158MOL0     H21739   6.192  -0.349   7.174 -0.2111 -1.9533 -0.3490
  158MOL0     H21740   6.077  -0.443   7.093  0.0867  0.1445  0.5738
  158MOL0     H21741   6.231  -0.210   6.963 -0.9563  0.9209 -1.3973
  158MOL0     H21742   6.298  -0.365   6.981  1.7506  3.2982  1.5983
  158MOL0     H21743   6.058  -0.455   6.861 -1.8234  1.9028  1.4099
  158MOL0     H21744   6.034  -0.285   6.815 -1.1343 -0.8504  1.2296
  158MOL0     H21745   6.152  -0.404   6.628 -1.2181  2.3096  0.8287
  158MOL0     H21746   6.291  -0.439   6.741 -0.1137 -0.3354  3.1701
  158MOL0     H21747   6.193  -0.153   6.667  3.8456  3.9795  0.5486
  158MOL0     H21748   6.333  -0.207   6.763  2.1449 -0.8014 -1.4719
  158MOL0     H21749   6.389  -0.136   6.527  1.6645 -0.9428 -1.3982
  158MOL0     H21750   6.277  -0.255   6.464 -1.6789  0.0508  1.2107
  158MOL0     H21751   6.423  -0.444   6.577  0.2735 -1.2069  0.4108
  158MOL0     H21752   6.446  -0.376   6.423  1.8186 -0.1806  0.9208
  158MOL0     H21753   6.543  -0.293   6.792  1.0265  0.9676  1.1647
  158MOL0     H21754   6.933  -0.346   6.827  0.9746  0.4208  1.9159
  158MOL0     H21755   6.775  -0.393   6.891 -2.4949  1.3358 -0.7326
  158MOL0     H21756   6.713  -0.162   6.939 -0.7018 -1.5442  0.2269
  158MOL0     H21757   6.876  -0.191   7.000  0.1220  1.5384 -0.1391
  158MOL0     H21758   6.937  -0.016   6.898  3.3439 -3.2111 -0.0929
  158MOL0     H21759   6.947  -0.106   6.752 -0.0146 -3.8079  3.4600
  158MOL0     H21760   6.823   0.089   6.684  3.6328 -1.7369  0.3037
  158MOL0     H21761   6.695  -0.037   6.718  1.3636  1.6176 -3.5328
  158MOL0     H21762   6.735   0.302   6.711  0.8378 -1.8220  1.2542
  158MOL0     H21763   6.551   0.560   6.642  0.0035  0.9610 -2.2619
  158MOL0     H21764   6.483   0.457   6.519  0.8597  0.5177 -0.9601
  158MOL0     H21765   6.657   0.434   6.555 -0.0740  0.2472 -0.1639
  158MOL0     H21766   5.974   0.312   6.922  2.1009 -1.2965  1.2978
  158MOL0     H21767   5.802   0.443   7.075  0.9335 -1.4717  0.5877
  158MOL0     H21768   5.965   0.739   7.311  0.8402 -1.3119 -1.9552
  158MOL0     H21769   5.888   0.874   7.221  2.0643  0.5758  2.0393
  158MOL0     H21770   5.660   0.769   7.314 -1.0620 -0.3207  3.0771
  158MOL0     H21771   5.772   0.692   7.430  1.8199  0.6149 -0.0180
  158MOL0     H21772   5.774   0.993   7.394  0.0175  1.4103  2.1660
  158MOL0     H21773   5.843   0.904   7.525 -4.5808 -0.8406  5.2715
  158MOL0     H21774   5.586   0.850   7.594 -4.7110 -0.1452 -1.5199
  158MOL0     H21775   5.541   0.915   7.444 -1.6773  0.4288  1.1484
  158MOL0     H21776   5.688   1.071   7.665  1.3842 -1.1868  0.3805
  158MOL0     H21777   5.622   1.142   7.519 -0.2417 -0.8431  0.1518
  158MOL0     H21778   5.480   1.008   7.748  3.4487 -1.1514 -0.7823
  158MOL0     H21779   5.399   1.024   7.596 -1.3295  0.6348  0.5272
  158MOL0     H21780   5.459   1.274   7.621  1.0997 -1.2649 -0.6450
  158MOL0     H21781   5.530   1.252   7.780  1.1515  0.1473 -1.6067
  158MOL0     H21782   5.326   1.148   7.868  0.7354  1.4082  0.9988
  158MOL0     H21783   5.237   1.225   7.729  2.4528  0.8103 -2.7165
  158MOL0     H21784   6.084   0.763   7.109  1.6404 -0.4856 -0.8942
  158MOL0     H21785   6.244   0.637   6.981  1.3133 -1.4105 -2.3772
  158MOL0     H21786   6.313   0.221   6.938  0.9573 -0.3401  1.5767
  158MOL0     H21787   6.499   0.094   6.992  1.5698 -2.6392 -0.6687
  158MOL0     H21788   5.930   0.009   7.338  1.8736 -3.4813 -0.8885
  158MOL0     H21789   5.735   0.182   7.323 -0.9690  0.6216 -1.3422
  158MOL0     H21790   5.272   0.193   6.967  0.2846 -2.8941  3.7447
  158MOL0     H21791   5.085   0.349   6.972 -2.1934  2.6581  0.8029
  158MOL0     H21792   4.920   0.535   6.983 -2.7012  0.9976  0.2964
  158MOL0     H21793   4.901   0.397   7.087 -1.9309  0.7566  0.1549
  158MOL0     H21794   4.766   0.517   7.239 -2.3354 -0.1101 -0.0862
  158MOL0     H21795   4.708   0.509   7.092  1.7005 -1.1203  0.6617
  158MOL0     H21796   4.842   0.747   7.058  1.6903 -2.4326  0.4454
  158MOL0     H21797   4.676   0.753   7.126  0.0291  3.0226  0.3805
  158MOL0     H21798   4.912   0.721   7.315  1.5142  2.8384  0.7341
  158MOL0     H21799   4.737   0.728   7.359  2.3792 -1.8527  2.1018
  158MOL0     H21800   4.873   1.130   7.319  0.6589  0.7833  0.0449
  158MOL0     H21801   5.291   0.576   7.281 -0.2000  1.1872 -1.6821
  158MOL0     H21802   5.575   0.525   7.239  1.1384 -2.4436 -1.8060
  158MOL0     H21803   5.471   0.512   7.379 -1.7038 -0.8942  0.3338
  158MOL0     H21804   5.558   0.378   7.343  1.1800  1.0319  0.3303
  159MOL0     O21805  10.130   4.771   2.232  0.1709  0.4159 -0.6471
  159MOL0     C21806  10.119   4.814   2.117 -0.0559 -0.0183  0.1405
  159MOL0     O21807  10.047   4.764   2.023  0.3755 -0.2163 -1.1104
  159MOL0     C21808  10.022   4.634   2.037  0.2404 -0.0867  0.1238
  159MOL0     C21809  10.118   4.538   2.025 -0.2029 -0.5894 -0.2396
  159MOL0     C21810  10.085   4.402   2.010 -0.0889 -0.3816  0.0462
  159MOL0     C21811   9.951   4.371   2.012 -0.9715  0.3387 -0.7220
  159MOL0     O21812   9.912   4.239   2.004  0.7593 -1.0424 -0.1297
  159MOL0     C21813   9.862   4.190   2.133  0.1759 -0.0370 -0.0799
  159MOL0     C21814   9.706   4.178   2.146 -0.0681  0.1534  0.4640
  159MOL0     C21815   9.674   4.068   2.244  0.0100  0.3500  0.0904
  159MOL0     C21816   9.531   4.043   2.262 -0.0270 -0.4198 -0.6766
  159MOL0     C21817   9.504   3.937   2.359 -0.5299  1.1201 -0.8917
  159MOL0     C21818   9.360   3.891   2.405  0.0205  0.3155  0.1686
  159MOL0     C21819   9.275   3.859   2.282  0.7902 -0.0284 -1.1531
  159MOL0     C21820   9.144   3.784   2.328 -0.2262 -0.8230  0.2129
  159MOL0     N21821   9.157   3.647   2.366  0.1135 -0.8297 -0.0437
  159MOL0     C21822   9.067   3.577   2.443  0.8573 -0.0900  0.2216
  159MOL0     C21823   9.096   3.446   2.428 -0.3718  0.1247 -0.0566
  159MOL0     C21824   9.010   3.328   2.477 -0.8945  0.6489  0.2971
  159MOL0     C21825   9.052   3.269   2.617 -0.2966 -0.1935  1.1591
  159MOL0     C21826   8.934   3.215   2.685  0.0494  0.3653 -0.1645
  159MOL0     C21827   8.951   3.188   2.831  0.0071  0.1322  1.0110
  159MOL0     O21828   8.823   3.151   2.878 -0.3581 -0.7821 -1.3643
  159MOL0     C21829   8.822   3.129   3.015 -1.1275 -0.3916 -0.6264
  159MOL0     C21830   8.936   3.135   3.100  0.0474  0.3569  1.3692
  159MOL0     C21831   8.929   3.099   3.231 -0.0515  0.7801  0.1925
  159MOL0     C21832   9.071   3.091   3.298  0.3608  0.0589 -0.2686
  159MOL0     C21833   8.796   3.078   3.287 -0.1102  0.3088 -0.5247
  159MOL0     C21834   8.772   3.061   3.438  0.3665  0.6660 -0.1971
  159MOL0     O21835   8.641   3.032   3.479 -0.8283 -0.1707 -0.1599
  159MOL0     C21836   8.611   3.009   3.606 -0.0977  0.0241 -0.7433
  159MOL0     C21837   8.664   3.092   3.714  0.0439  0.2149  0.6102
  159MOL0     C21838   8.622   3.056   3.846 -0.1620 -1.0814 -0.2978
  159MOL0     C21839   8.524   2.960   3.869  0.8344  0.7573  0.4042
  159MOL0     O21840   8.478   2.947   3.997  0.5650 -0.1429 -0.9803
  159MOL0     C21841   8.475   2.812   4.050 -0.3678 -0.8252 -0.8031
  159MOL0     C21842   8.532   2.802   4.194  0.0767  0.4302 -1.2467
  159MOL0     C21843   8.485   2.673   4.257  0.6269 -0.4656  0.5099
  159MOL0     C21844   8.524   2.675   4.408 -0.1453  0.3739  0.9680
  159MOL0     C21845   8.549   2.529   4.453  1.3589  0.1020  0.5287
  159MOL0     C21846   8.429   2.433   4.425 -0.3400 -0.6744  0.1509
  159MOL0     C21847   8.448   2.288   4.471 -0.5829  0.1366 -0.8870
  159MOL0     C21848   8.489   2.208   4.341  0.1760 -0.1971  0.2653
  159MOL0    Cl21849   8.473   2.030   4.352 -0.2254 -0.1827  0.0025
  159MOL0     C21850   8.464   2.892   3.761 -0.0432 -0.0745 -0.1783
  159MOL0     C21851   8.504   2.919   3.634 -0.1437  0.5596 -0.0141
  159MOL0     O21852   8.864   3.074   3.513  0.9388  0.4728  0.6625
  159MOL0     C21853   8.683   3.072   3.202 -0.4585 -1.0239  0.0968
  159MOL0     C21854   8.697   3.114   3.062 -0.0953  0.0666 -0.5392
  159MOL0     N21855   9.205   3.441   2.340  0.9701 -0.1993 -0.4230
  159MOL0     N21856   9.241   3.562   2.311 -0.5136 -0.9938  0.3493
  159MOL0     C21857   9.855   4.466   2.035  0.6957  0.0597  0.0386
  159MOL0     C21858   9.886   4.602   2.039  0.7832  0.4486 -0.6473
  159MOL0     C21859  10.189   4.939   2.082 -0.1227  0.0906  0.3332
  159MOL0     C21860  10.120   5.026   1.993 -0.9059 -0.3911 -0.4843
  159MOL0     C21861  10.181   5.150   1.955 -0.2799  1.0194  0.9411
  159MOL0     C21862  10.317   5.178   1.989  0.0333 -0.4195 -0.9439
  159MOL0     O21863  10.399   5.275   1.948  0.2782 -0.0755 -0.5341
  159MOL0     C21864  10.345   5.359   1.847 -0.4059  0.3502  0.1885
  159MOL0     C21865  10.447   5.466   1.796  0.1657  0.7156 -0.2561
  159MOL0     C21866  10.467   5.563   1.913  0.0115  0.5420  0.3591
  159MOL0     C21867  10.598   5.643   1.911  0.6101 -1.2990 -0.6431
  159MOL0     C21868  10.614   5.728   1.793 -1.2658 -0.0267 -0.2554
  159MOL0     C21869  10.626   5.804   1.699 -0.1580  0.4109 -0.1725
  159MOL0     C21870  10.378   5.098   2.083  0.2111 -0.0287 -0.8729
  159MOL0     C21871  10.319   4.973   2.129 -0.5429  0.2019  0.4634
  159MOL0     C21872  10.413   4.886   2.206 -0.5165 -0.3403 -0.2165
  159MOL0     H21873  10.220   4.577   2.022 -1.3437  2.6776 -2.8639
  159MOL0     H21874  10.156   4.319   2.000 -0.4236 -0.7359  0.5455
  159MOL0     H21875   9.901   4.247   2.217 -1.1988  1.0706 -0.1550
  159MOL0     H21876   9.914   4.095   2.147  1.5221  0.8938  1.5219
  159MOL0     H21877   9.658   4.269   2.182 -0.2279 -0.2380  1.2721
  159MOL0     H21878   9.664   4.158   2.047 -1.1735 -0.5192  1.0464
  159MOL0     H21879   9.719   3.972   2.216  0.0253  0.6446 -0.9326
  159MOL0     H21880   9.713   4.096   2.342 -2.4066  0.5871  1.0493
  159MOL0     H21881   9.493   4.138   2.299 -3.4351 -0.4957 -3.5401
  159MOL0     H21882   9.480   4.017   2.169  0.7856 -3.5616 -0.3629
  159MOL0     H21883   9.546   3.959   2.458  0.2241 -0.7276 -0.7659
  159MOL0     H21884   9.556   3.851   2.317 -1.9586  0.3343 -1.1088
  159MOL0     H21885   9.352   3.799   2.463 -0.3501 -0.2932 -0.8205
  159MOL0     H21886   9.308   3.964   2.468 -0.6171 -2.0992  2.6476
  159MOL0     H21887   9.327   3.796   2.209  1.0451  1.0905 -1.9614
  159MOL0     H21888   9.246   3.955   2.237  2.1570  1.9154  1.8155
  159MOL0     H21889   9.099   3.830   2.416 -4.0372 -1.3952 -1.2376
  159MOL0     H21890   9.064   3.782   2.254 -0.4809 -3.4868  0.4350
  159MOL0     H21891   8.990   3.613   2.511 -0.4251 -1.4386 -0.4681
  159MOL0     H21892   9.011   3.248   2.403 -2.7574 -1.1588  2.1144
  159MOL0     H21893   8.906   3.361   2.484 -1.7607 -1.6780 -0.5924
  159MOL0     H21894   9.136   3.200   2.611  1.4434  1.9332 -0.2898
  159MOL0     H21895   9.078   3.352   2.683 -0.3718  0.6296  0.1761
  159MOL0     H21896   8.856   3.291   2.676  1.0576  1.8394  2.4276
  159MOL0     H21897   8.894   3.123   2.642 -0.4612 -0.5347  2.0942
  159MOL0     H21898   9.026   3.109   2.842 -0.6239 -0.3331  2.1224
  159MOL0     H21899   8.992   3.280   2.873 -2.6229  1.2163  1.3929
  159MOL0     H21900   9.030   3.160   3.053 -0.5355 -2.0905 -1.4038
  159MOL0     H21901   9.151   3.084   3.224  0.0671 -0.6087 -0.5332
  159MOL0     H21902   9.086   3.004   3.363  0.6134 -2.7308 -3.7530
  159MOL0     H21903   9.092   3.175   3.364  1.0627 -0.7552  0.5767
  159MOL0     H21904   8.724   3.180   3.695 -1.8626  1.2313 -1.3079
  159MOL0     H21905   8.661   3.105   3.934 -0.8931 -1.9963  0.5556
  159MOL0     H21906   8.369   2.787   4.061 -1.0164  0.3753 -3.4031
  159MOL0     H21907   8.513   2.729   3.989  1.7541 -1.5079  1.3118
  159MOL0     H21908   8.641   2.803   4.186  0.3887 -2.3178  0.8947
  159MOL0     H21909   8.486   2.887   4.246  4.0745  4.5209 -3.6803
  159MOL0     H21910   8.530   2.592   4.200  0.5000  1.9561 -3.4068
  159MOL0     H21911   8.376   2.662   4.257  0.1678  2.5425  2.4940
  159MOL0     H21912   8.461   2.740   4.468 -2.0130  0.5694 -1.0780
  159MOL0     H21913   8.622   2.724   4.417 -0.3896  0.8761  0.8764
  159MOL0     H21914   8.629   2.491   4.389  0.8334 -0.2818  0.0916
  159MOL0     H21915   8.575   2.522   4.559 -1.4875  0.6872  1.3454
  159MOL0     H21916   8.403   2.445   4.320 -0.1492  0.3646  0.2026
  159MOL0     H21917   8.337   2.463   4.477 -1.2317 -3.1471  0.1061
  159MOL0     H21918   8.358   2.248   4.519  0.4088 -0.2105  0.7394
  159MOL0     H21919   8.519   2.287   4.553 -0.8811  1.6070 -0.5719
  159MOL0     H21920   8.587   2.218   4.292 -0.2192  0.8862 -0.3213
  159MOL0     H21921   8.410   2.252   4.279 -0.7853  0.5155  1.9390
  159MOL0     H21922   8.395   2.811   3.784  1.1167 -1.2798 -0.8766
  159MOL0     H21923   8.446   2.866   3.558 -2.3792  0.9499  1.3376
  159MOL0     H21924   8.588   3.037   3.240  0.0218 -2.3608  0.1377
  159MOL0     H21925   8.611   3.104   2.996 -0.3161 -1.8806 -0.0252
  159MOL0     H21926   9.756   4.424   2.049  0.3849  0.0260 -1.8871
  159MOL0     H21927   9.806   4.668   2.069  1.6789 -0.5821  5.3893
  159MOL0     H21928  10.027   4.994   1.946 -1.5143 -0.9724  1.0507
  159MOL0     H21929  10.142   5.212   1.875  0.3768  2.0481  1.4052
  159MOL0     H21930  10.297   5.302   1.766 -0.0999 -2.7912  2.0798
  159MOL0     H21931  10.255   5.406   1.887 -0.4706  0.1897  0.2309
  159MOL0     H21932  10.408   5.528   1.715  0.4224 -2.4156 -2.9796
  159MOL0     H21933  10.542   5.420   1.767  0.2677  0.1863  0.8648
  159MOL0     H21934  10.387   5.636   1.899  1.2129  1.7411 -0.3917
  159MOL0     H21935  10.455   5.519   2.013 -0.6722  1.1348  0.5466
  159MOL0     H21936  10.691   5.586   1.924  2.0576  1.2104  0.9903
  159MOL0     H21937  10.588   5.714   1.994  1.5683 -1.0715 -0.7114
  159MOL0     H21938  10.637   5.875   1.619  0.1319 -1.5755 -1.9862
  159MOL0     H21939  10.483   5.115   2.104  0.0042  0.7832 -0.4317
  159MOL0     H21940  10.358   4.856   2.296 -3.3986 -0.1920 -1.8268
  159MOL0     H21941  10.453   4.803   2.147 -0.0124 -0.9981  1.0122
  159MOL0     H21942  10.495   4.942   2.253 -1.5222  1.3257 -0.3461
  160MOL0     O21943   2.838  11.299   2.861 -0.1285 -0.0473 -0.2743
  160MOL0     C21944   2.932  11.256   2.799 -1.2342  0.7705 -0.5476
  160MOL0     O21945   2.990  11.302   2.687  0.3192 -0.8084  1.3327
  160MOL0     C21946   2.951  11.434   2.652  0.1961  0.2998  0.7692
  160MOL0     C21947   2.896  11.453   2.521  0.1845 -0.3419 -0.6763
  160MOL0     C21948   2.875  11.582   2.471  0.6506  0.0659  0.0149
  160MOL0     C21949   2.878  11.693   2.562 -0.1599  0.6668 -0.0805
  160MOL0     O21950   2.815  11.808   2.512 -0.7161  0.2546  0.3345
  160MOL0     C21951   2.779  11.916   2.606  0.6216 -0.5409 -0.1156
  160MOL0     C21952   2.656  11.981   2.561 -0.7428 -0.3200 -0.2296
  160MOL0     C21953   2.579  11.996   2.690  0.5354  0.2414  0.3106
  160MOL0     C21954   2.476  12.113   2.691  0.1023  0.1010  0.6547
  160MOL0     C21955   2.417  12.122   2.833  0.9185 -0.6702  0.2037
  160MOL0     C21956   2.506  12.173   2.943  0.7566 -1.0372  0.6768
  160MOL0     C21957   2.429  12.197   3.070 -0.1230 -0.3246  0.0015
  160MOL0     C21958   2.442  12.085   3.175 -0.4168  1.9542  0.3043
  160MOL0     N21959   2.350  12.109   3.279 -0.1203  0.1950 -0.7242
  160MOL0     C21960   2.218  12.060   3.294 -0.6798  0.5921  1.4141
  160MOL0     C21961   2.171  12.112   3.411  0.3342  0.9785 -0.3572
  160MOL0     C21962   2.032  12.088   3.466 -0.3342  0.3740  0.3853
  160MOL0     C21963   1.986  12.185   3.577 -0.4189  0.2855 -0.0856
  160MOL0     C21964   2.066  12.171   3.708  0.4776 -0.8274 -0.0489
  160MOL0     C21965   1.986  12.235   3.821 -0.5429  0.3916 -0.4778
  160MOL0     O21966   1.974  12.375   3.791  0.5956  0.4750 -0.0757
  160MOL0     C21967   2.079  12.461   3.815  0.8119  0.5958 -0.4957
  160MOL0     C21968   2.144  12.458   3.935  0.2287 -0.2883 -0.8894
  160MOL0     C21969   2.239  12.555   3.968 -0.9296 -0.5098 -0.2774
  160MOL0     C21970   2.331  12.507   4.078  0.6718 -0.6254 -0.1659
  160MOL0     C21971   2.274  12.662   3.872  0.1055 -0.3060 -0.4294
  160MOL0     C21972   2.382  12.755   3.891 -0.2641 -0.1079 -0.1069
  160MOL0     O21973   2.437  12.807   3.780 -0.2457  0.0628 -0.7222
  160MOL0     C21974   2.551  12.870   3.785 -0.1263  0.6732  0.6373
  160MOL0     C21975   2.544  13.007   3.780 -0.9238 -0.3611 -0.6392
  160MOL0     C21976   2.658  13.077   3.751  0.2468  0.5117  0.9908
  160MOL0     C21977   2.778  13.006   3.735  0.0562 -0.2311 -0.5160
  160MOL0     O21978   2.901  13.072   3.719  0.2366  0.5813 -0.0270
  160MOL0     C21979   2.905  13.147   3.600 -0.4003 -0.8407  0.4999
  160MOL0     C21980   2.925  13.062   3.480 -0.4830  0.4569  0.7891
  160MOL0     C21981   3.064  12.990   3.478 -0.7540 -0.3912 -0.7992
  160MOL0     C21982   3.089  12.910   3.350  0.3538  0.8408 -0.2340
  160MOL0     C21983   3.194  12.799   3.374  0.2545  0.7628 -0.0651
  160MOL0     C21984   3.261  12.766   3.245  0.3948 -0.9461  0.1512
  160MOL0     C21985   3.376  12.669   3.262  0.3962 -0.0105 -0.2006
  160MOL0     C21986   3.331  12.525   3.279  0.0894 -1.0581 -1.0315
  160MOL0    Cl21987   3.478  12.427   3.298  0.3032 -0.1642 -0.0344
  160MOL0     C21988   2.785  12.867   3.763 -0.3643 -0.8961  0.3681
  160MOL0     C21989   2.672  12.795   3.778  0.1865  1.3244 -0.6139
  160MOL0     O21990   2.425  12.780   4.003  0.0750 -0.2270  0.4334
  160MOL0     C21991   2.193  12.671   3.758 -0.0797 -0.1732  0.5911
  160MOL0     C21992   2.095  12.574   3.736  0.9145  0.7217 -0.4205
  160MOL0     N21993   2.273  12.174   3.475  0.5931  0.3348  0.0839
  160MOL0     N21994   2.375  12.172   3.399 -0.2489  1.2648  1.0978
  160MOL0     C21995   2.930  11.675   2.688 -0.7011 -0.7758 -1.5829
  160MOL0     C21996   2.969  11.545   2.734 -0.0434 -0.3027 -0.7222
  160MOL0     C21997   3.006  11.128   2.834  1.4319 -0.2058 -0.1183
  160MOL0     C21998   3.053  11.040   2.731  0.7737 -0.3489 -0.6049
  160MOL0     C21999   3.118  10.922   2.764 -0.5835  0.8883  1.1653
  160MOL0     C22000   3.136  10.879   2.894 -0.1477  0.0072 -0.8268
  160MOL0     O22001   3.175  10.751   2.934  0.6881 -0.3286  0.0412
  160MOL0     C22002   3.299  10.708   2.873  0.0232 -0.2895  0.3823
  160MOL0     C22003   3.416  10.745   2.962 -0.1390  0.8354 -0.4356
  160MOL0     C22004   3.393  10.714   3.122  0.2595 -0.3478  0.3381
  160MOL0     C22005   3.379  10.564   3.137 -0.9750 -0.0444  0.4461
  160MOL0     C22006   3.483  10.484   3.064  0.1999  0.2342  0.1894
  160MOL0     C22007   3.559  10.418   2.989  0.2815 -0.1241  0.4964
  160MOL0     C22008   3.094  10.970   2.995 -0.8153  0.5599  0.4656
  160MOL0     C22009   3.030  11.092   2.966 -0.8552 -0.3695  0.0028
  160MOL0     C22010   3.010  11.184   3.093  0.2259 -0.2941  0.5571
  160MOL0     H22011   2.877  11.368   2.456 -1.7966  1.7662 -3.0651
  160MOL0     H22012   2.840  11.593   2.369  1.0504 -0.4773 -0.1850
  160MOL0     H22013   2.854  11.995   2.613  0.2205 -0.2909  2.8565
  160MOL0     H22014   2.771  11.864   2.703  0.3114 -0.5299 -0.1336
  160MOL0     H22015   2.669  12.079   2.513  1.4101 -0.6747 -0.4753
  160MOL0     H22016   2.607  11.923   2.483 -3.4624 -1.1427  1.9341
  160MOL0     H22017   2.522  11.906   2.717 -2.3138  2.3470  1.8098
  160MOL0     H22018   2.644  12.022   2.774  0.3134  0.3460  0.4503
  160MOL0     H22019   2.528  12.203   2.655  0.8796 -0.5321  0.1727
  160MOL0     H22020   2.399  12.107   2.612 -0.3397  0.3261  1.0610
  160MOL0     H22021   2.380  12.026   2.870  0.2337 -0.6557 -0.4250
  160MOL0     H22022   2.331  12.189   2.841 -0.0268 -1.6942 -0.8641
  160MOL0     H22023   2.587  12.105   2.972  1.4708  0.9675  3.8541
  160MOL0     H22024   2.551  12.271   2.924 -4.9621  1.6542 -1.3251
  160MOL0     H22025   2.319  12.199   3.066 -0.1920 -0.9252  1.0131
  160MOL0     H22026   2.466  12.284   3.125 -1.5235 -0.1185  0.6794
  160MOL0     H22027   2.419  11.986   3.135  0.6742  1.1823  1.5033
  160MOL0     H22028   2.542  12.079   3.219 -0.4119  0.3444  0.1268
  160MOL0     H22029   2.163  12.006   3.217  0.0732  0.9735  0.5918
  160MOL0     H22030   2.029  11.987   3.508  1.8361  0.3532  0.6346
  160MOL0     H22031   1.954  12.088   3.389 -0.9897 -4.1921  0.7623
  160MOL0     H22032   1.989  12.286   3.534  2.5225 -0.3182 -1.5505
  160MOL0     H22033   1.888  12.148   3.608  1.6295 -2.0806  4.5330
  160MOL0     H22034   2.072  12.065   3.735 -0.6504 -1.2786 -1.4477
  160MOL0     H22035   2.169  12.207   3.714  0.8497 -1.7346 -0.7285
  160MOL0     H22036   1.888  12.186   3.824  0.2426 -1.2413 -0.4284
  160MOL0     H22037   2.013  12.208   3.923 -1.9713  0.4695 -0.0469
  160MOL0     H22038   2.112  12.381   4.004  2.8591 -0.5830  0.1150
  160MOL0     H22039   2.366  12.586   4.145  4.2546 -0.2744 -2.1916
  160MOL0     H22040   2.417  12.460   4.029  0.9315  0.6793 -1.0263
  160MOL0     H22041   2.277  12.441   4.146 -1.7896  0.3676 -1.0520
  160MOL0     H22042   2.452  13.065   3.781 -1.0389 -0.5077  1.2673
  160MOL0     H22043   2.657  13.184   3.730  1.0372  0.2962 -0.2676
  160MOL0     H22044   2.814  13.202   3.574  1.2358  0.8546 -2.1795
  160MOL0     H22045   2.982  13.225   3.600  0.4253 -1.5876 -1.4878
  160MOL0     H22046   2.847  12.986   3.470  0.0306 -0.5044  3.3739
  160MOL0     H22047   2.933  13.122   3.389  2.0055  1.3758  1.5220
  160MOL0     H22048   3.068  12.919   3.560  0.0204  0.0389 -0.4576
  160MOL0     H22049   3.139  13.069   3.492  0.7257 -2.1219  1.8549
  160MOL0     H22050   3.119  12.984   3.275 -0.8138  1.6967  0.1137
  160MOL0     H22051   3.004  12.849   3.318  1.1143  1.2496 -3.3699
  160MOL0     H22052   3.270  12.825   3.448  2.5476 -0.9071 -1.7030
  160MOL0     H22053   3.144  12.713   3.420  3.3553 -2.3407 -2.0048
  160MOL0     H22054   3.303  12.857   3.201 -1.2341 -0.8221 -1.2134
  160MOL0     H22055   3.186  12.729   3.175 -0.8429 -0.1720  1.0325
  160MOL0     H22056   3.432  12.701   3.351  1.0804  3.3298 -1.6964
  160MOL0     H22057   3.448  12.675   3.179  2.1274 -2.4839  0.9612
  160MOL0     H22058   3.284  12.486   3.188 -0.2225 -1.0419 -0.8761
  160MOL0     H22059   3.267  12.508   3.365  2.3374 -0.3150  0.8937
  160MOL0     H22060   2.885  12.826   3.775  1.9297  3.9635  0.2409
  160MOL0     H22061   2.675  12.691   3.811  0.8921  1.4402 -0.2823
  160MOL0     H22062   2.194  12.757   3.691 -1.2628  0.9907  1.9995
  160MOL0     H22063   2.024  12.584   3.654 -1.0550  2.0768  1.3339
  160MOL0     H22064   2.943  11.761   2.753 -0.0808  0.0280 -2.7154
  160MOL0     H22065   2.994  11.532   2.839 -3.4390  0.0891  0.2620
  160MOL0     H22066   3.039  11.073   2.628 -4.1930  0.2679  0.0258
  160MOL0     H22067   3.148  10.856   2.683 -3.0420  3.1078 -1.8228
  160MOL0     H22068   3.295  10.599   2.860  1.1802 -0.0689 -2.6807
  160MOL0     H22069   3.309  10.748   2.772 -1.8837  1.6379  0.8975
  160MOL0     H22070   3.431  10.852   2.949  3.5476  0.5607  0.4458
  160MOL0     H22071   3.512  10.706   2.927  1.9457  1.6340  3.7368
  160MOL0     H22072   3.480  10.758   3.171  0.9029  0.0436 -1.1107
  160MOL0     H22073   3.295  10.754   3.151  0.0680 -1.3051  1.0552
  160MOL0     H22074   3.283  10.531   3.095  0.1804 -0.5762 -1.9843
  160MOL0     H22075   3.402  10.550   3.243  0.0280  0.4917  0.3087
  160MOL0     H22076   3.619  10.371   2.915 -1.0610 -0.1597 -0.6095
  160MOL0     H22077   3.114  10.944   3.099  0.6947 -2.2795 -0.4286
  160MOL0     H22078   3.071  11.142   3.174 -0.5949 -2.5972  0.0574
  160MOL0     H22079   3.032  11.291   3.081  1.4381 -0.4385  1.3409
  160MOL0     H22080   2.906  11.173   3.125 -0.6679 -0.0178 -1.9673
  161MOL0     O22081   9.800  11.110   7.371 -0.3131 -0.0033  0.0756
  161MOL0     C22082   9.824  11.206   7.439 -0.9918  0.6089  0.9149
  161MOL0     O22083   9.823  11.330   7.383  0.3841 -0.0694  1.0462
  161MOL0     C22084   9.797  11.362   7.250  0.3877  0.3883  0.1053
  161MOL0     C22085   9.880  11.456   7.185  0.3957 -0.1748  0.6768
  161MOL0     C22086   9.843  11.488   7.056 -0.3991  0.6819 -0.3265
  161MOL0     C22087   9.736  11.434   6.986 -0.6397  0.4031  0.5162
  161MOL0     O22088   9.708  11.485   6.863  0.0888 -0.0562 -0.3777
  161MOL0     C22089   9.766  11.404   6.762 -0.8537  0.1950  0.5893
  161MOL0     C22090   9.902  11.469   6.723 -0.7887 -0.3636 -0.3188
  161MOL0     C22091   9.954  11.408   6.591  0.8927 -0.6918  0.8805
  161MOL0     C22092  10.106  11.449   6.552  0.3663 -0.2399 -0.8120
  161MOL0     C22093  10.132  11.609   6.558 -0.2128 -0.4909 -0.7296
  161MOL0     C22094  10.264  11.633   6.477 -0.0947  0.0233  0.9279
  161MOL0     C22095  10.249  11.662   6.327  0.4928 -0.0897 -0.1919
  161MOL0     C22096  10.377  11.707   6.251  0.2475  0.8294 -0.0854
  161MOL0     N22097  10.481  11.612   6.250  0.4254  0.6230  0.8688
  161MOL0     C22098  10.599  11.621   6.310 -0.5506  0.4221  0.4182
  161MOL0     C22099  10.681  11.516   6.262 -0.6157 -0.4193  0.4087
  161MOL0     C22100  10.828  11.480   6.300  0.5753 -0.7448  0.4647
  161MOL0     C22101  10.899  11.618   6.316 -0.1408 -0.3242 -0.0873
  161MOL0     C22102  11.031  11.589   6.383  0.1520  0.7352  0.8738
  161MOL0     C22103  11.120  11.705   6.388 -1.1177 -0.1312  0.0590
  161MOL0     O22104  11.142  11.740   6.247 -0.9750  0.6111 -0.0637
  161MOL0     C22105  11.215  11.850   6.222 -0.9338 -0.6187 -1.3941
  161MOL0     C22106  11.263  11.950   6.313  0.1717 -0.3463 -0.3962
  161MOL0     C22107  11.338  12.057   6.269  0.5736 -0.5620  0.7454
  161MOL0     C22108  11.379  12.149   6.374  0.4430 -0.5464 -0.8523
  161MOL0     C22109  11.362  12.080   6.132 -0.1518 -0.0982  1.0919
  161MOL0     C22110  11.440  12.194   6.065  0.5660  0.0086 -0.8148
  161MOL0     O22111  11.467  12.300   6.148 -0.3808  0.5983 -0.3839
  161MOL0     C22112  11.550  12.397   6.098  0.8028  1.2198 -0.3398
  161MOL0     C22113  11.636  12.436   6.207 -0.0690 -0.2438  0.1221
  161MOL0     C22114  11.739  12.523   6.165 -0.7017 -0.4332 -0.8319
  161MOL0     C22115  11.759  12.578   6.038 -0.6650 -0.5069  0.0299
  161MOL0     O22116  11.879  12.644   6.029 -0.2018  0.5644  0.4165
  161MOL0     C22117  11.941  12.649   5.894  0.2714 -0.4989  0.0385
  161MOL0     C22118  12.094  12.640   5.914 -0.6260 -0.1573 -0.2035
  161MOL0     C22119  12.133  12.504   5.976 -0.3113  0.1985  0.7588
  161MOL0     C22120  12.283  12.496   5.984  0.5303 -1.6364 -0.1406
  161MOL0     C22121  12.334  12.352   5.966 -0.6718 -0.5210 -0.8011
  161MOL0     C22122  12.490  12.344   5.975 -0.1639  0.0840  0.0023
  161MOL0     C22123  12.511  12.194   5.978  0.3052  0.6377 -0.1772
  161MOL0     C22124  12.659  12.162   5.960  0.2996 -0.1532  0.1108
  161MOL0    Cl22125  12.680  11.995   6.029 -0.4601  0.1965 -0.0088
  161MOL0     C22126  11.676  12.534   5.942  0.0184  0.2015 -0.3486
  161MOL0     C22127  11.570  12.448   5.972  1.0761 -0.6112 -0.8795
  161MOL0     O22128  11.471  12.180   5.947 -0.6497  0.1347 -0.0855
  161MOL0     C22129  11.327  11.976   6.048  0.3889  0.1004  0.3138
  161MOL0     C22130  11.250  11.876   6.089 -0.7025  0.5660  0.6905
  161MOL0     N22131  10.600  11.428   6.188 -0.5252  0.4837  1.0422
  161MOL0     N22132  10.482  11.496   6.177 -0.3126 -1.0714 -0.3001
  161MOL0     C22133   9.649  11.347   7.049 -0.0938  0.3095 -0.6390
  161MOL0     C22134   9.685  11.304   7.181  0.1603  0.7161  0.2496
  161MOL0     C22135   9.848  11.213   7.580 -0.2280 -0.8535 -0.1322
  161MOL0     C22136   9.856  11.343   7.643  0.2546  0.4471  0.4187
  161MOL0     C22137   9.846  11.357   7.776 -0.0447 -0.3987 -0.9158
  161MOL0     C22138   9.850  11.243   7.864 -0.5686  0.4259  0.4447
  161MOL0     O22139   9.873  11.253   7.992  0.1546  0.1322  0.5397
  161MOL0     C22140   9.850  11.376   8.055  0.1179  0.1118 -0.0271
  161MOL0     C22141   9.867  11.357   8.204  0.4288  0.1975  0.0263
  161MOL0     C22142   9.998  11.286   8.251 -0.0264  0.2129  0.2949
  161MOL0     C22143  10.065  11.330   8.390 -0.1416  0.4062 -1.1019
  161MOL0     C22144  10.093  11.476   8.374  0.7896  0.7972  0.2629
  161MOL0     C22145  10.129  11.593   8.375  0.7028 -0.0121  0.2784
  161MOL0     C22146   9.850  11.120   7.809 -0.3499  0.4947  0.3026
  161MOL0     C22147   9.857  11.108   7.669  0.6129  0.9249 -0.1367
  161MOL0     C22148   9.897  10.973   7.616 -0.0994  0.6532 -0.5523
  161MOL0     H22149   9.973  11.499   7.220  0.2526  0.3651  0.3979
  161MOL0     H22150   9.899  11.570   7.013  1.9209 -0.6151  0.0518
  161MOL0     H22151   9.708  11.396   6.669  0.1574 -1.8820  0.0788
  161MOL0     H22152   9.763  11.297   6.780  1.6152 -0.2834 -1.2789
  161MOL0     H22153   9.886  11.575   6.703 -1.6896 -0.7880 -2.0262
  161MOL0     H22154   9.981  11.447   6.796 -2.4249 -0.1789  1.5967
  161MOL0     H22155   9.941  11.299   6.591  1.2402 -0.7678  2.9941
  161MOL0     H22156   9.881  11.453   6.523  1.0488 -1.3754  0.2454
  161MOL0     H22157  10.182  11.392   6.606  2.2581  2.3835 -0.5414
  161MOL0     H22158  10.122  11.401   6.456  1.8394 -1.5454  0.0483
  161MOL0     H22159  10.153  11.644   6.659 -0.4074  0.4770 -1.0205
  161MOL0     H22160  10.039  11.659   6.530 -0.4174  1.6066  3.1325
  161MOL0     H22161  10.316  11.718   6.523  1.1579 -1.1574  1.7729
  161MOL0     H22162  10.331  11.547   6.489  1.3831  1.3047  2.3949
  161MOL0     H22163  10.171  11.738   6.315  0.6828  0.2811  0.8662
  161MOL0     H22164  10.202  11.578   6.275 -1.7129  0.7995  0.2652
  161MOL0     H22165  10.361  11.733   6.146  0.5380  1.2699 -0.0259
  161MOL0     H22166  10.414  11.797   6.301  0.8454  0.8940 -0.6296
  161MOL0     H22167  10.642  11.698   6.373 -1.2509 -1.7870  3.8888
  161MOL0     H22168  10.876  11.427   6.217  2.7079  0.6359  0.7608
  161MOL0     H22169  10.835  11.420   6.391 -0.3017 -0.2045  0.9078
  161MOL0     H22170  10.911  11.651   6.213 -1.4504  0.2922 -0.0617
  161MOL0     H22171  10.841  11.692   6.373  1.3652  1.3831 -0.6983
  161MOL0     H22172  11.015  11.557   6.486 -1.2014  0.0751  0.4797
  161MOL0     H22173  11.087  11.507   6.339 -0.9873  1.3566 -1.9512
  161MOL0     H22174  11.072  11.773   6.459 -1.2658 -1.2896  1.0928
  161MOL0     H22175  11.219  11.688   6.432 -2.1386  2.2287  3.7067
  161MOL0     H22176  11.259  11.946   6.422  2.2799  2.5751 -0.0964
  161MOL0     H22177  11.401  12.092   6.465  2.5936  2.0978  0.4519
  161MOL0     H22178  11.308  12.227   6.404 -0.0667 -0.9581 -0.9805
  161MOL0     H22179  11.470  12.207   6.355  2.3105 -2.6159  1.1820
  161MOL0     H22180  11.637  12.395   6.307  1.2833 -0.9476 -0.1624
  161MOL0     H22181  11.811  12.540   6.244 -0.6080 -2.1370 -0.5119
  161MOL0     H22182  11.907  12.556   5.847 -1.0074 -0.4654  0.8453
  161MOL0     H22183  11.913  12.739   5.839 -0.6154 -0.8998 -0.1822
  161MOL0     H22184  12.141  12.649   5.816  2.7221 -1.4435  1.1308
  161MOL0     H22185  12.116  12.721   5.985 -1.1815 -0.6513  0.5560
  161MOL0     H22186  12.091  12.421   5.919  0.5961 -0.4067  0.9418
  161MOL0     H22187  12.093  12.487   6.077 -0.1150 -4.1962  0.2903
  161MOL0     H22188  12.313  12.542   6.078  0.4907  2.0810 -1.7843
  161MOL0     H22189  12.330  12.556   5.906 -1.8045 -0.1606 -0.5358
  161MOL0     H22190  12.276  12.285   6.030  0.6573 -0.1466  0.8718
  161MOL0     H22191  12.300  12.326   5.865 -1.3419 -2.4504 -0.1278
  161MOL0     H22192  12.536  12.400   6.056  3.3702  0.8263 -2.2752
  161MOL0     H22193  12.534  12.375   5.879  0.1045  0.0556  0.1162
  161MOL0     H22194  12.481  12.143   5.886  1.0159  0.3772 -0.2675
  161MOL0     H22195  12.477  12.138   6.066  3.3421 -1.6742 -0.3161
  161MOL0     H22196  12.725  12.227   6.018  1.2411  1.2492 -2.3678
  161MOL0     H22197  12.689  12.165   5.855 -2.9809 -1.5831 -1.0013
  161MOL0     H22198  11.696  12.563   5.839  0.5032 -3.5774 -1.4723
  161MOL0     H22199  11.508  12.412   5.891 -2.7434  0.3275  1.3661
  161MOL0     H22200  11.353  11.968   5.943  2.8505  0.4627  0.8328
  161MOL0     H22201  11.232  11.795   6.019 -0.6743  1.7882 -0.7743
  161MOL0     H22202   9.553  11.327   7.003 -0.3569  1.6101 -0.6932
  161MOL0     H22203   9.621  11.236   7.235 -0.5985  1.5299  0.3956
  161MOL0     H22204   9.845  11.429   7.577 -1.4755 -0.2295 -0.2447
  161MOL0     H22205   9.844  11.456   7.820  1.6380 -1.2942  1.4131
  161MOL0     H22206   9.927  11.445   8.020 -0.5565  2.4187  2.6011
  161MOL0     H22207   9.748  11.405   8.030  0.4402 -1.5760 -4.0299
  161MOL0     H22208   9.789  11.292   8.245  1.1214 -3.2412 -3.5036
  161MOL0     H22209   9.857  11.457   8.250 -2.5091  0.0194 -0.0376
  161MOL0     H22210   9.974  11.179   8.252  2.2506 -0.3638  0.1467
  161MOL0     H22211  10.077  11.292   8.175 -0.9865 -3.3933 -1.2098
  161MOL0     H22212  10.154  11.271   8.411 -0.9427  0.0291  1.6197
  161MOL0     H22213   9.993  11.328   8.473  1.1750  1.0883  0.0860
  161MOL0     H22214  10.174  11.691   8.375  4.1656 -1.3312  3.8363
  161MOL0     H22215   9.855  11.031   7.871 -0.8663  0.9677  1.0198
  161MOL0     H22216   9.932  10.905   7.694 -3.1516 -1.6222 -0.9808
  161MOL0     H22217   9.807  10.921   7.580 -0.8021  2.3455 -1.3310
  161MOL0     H22218   9.972  10.985   7.537 -1.4276  2.3339 -1.6203
  162MOL0     O22219   0.957   9.723   4.584 -0.0738 -0.2455 -0.1954
  162MOL0     C22220   0.975   9.814   4.669  1.0945  0.0252  0.8396
  162MOL0     O22221   1.017   9.938   4.639 -1.0165  0.1331  0.6271
  162MOL0     C22222   1.007   9.978   4.508 -0.0695  0.2112 -0.0748
  162MOL0     C22223   1.119  10.030   4.445  0.3414  0.2390 -0.3621
  162MOL0     C22224   1.105  10.072   4.313 -0.4838  0.9417 -0.2455
  162MOL0     C22225   0.979  10.077   4.247  0.4042  0.6203 -0.9870
  162MOL0     O22226   0.963  10.126   4.123  0.5989  0.7272 -0.4256
  162MOL0     C22227   1.073  10.148   4.035 -0.3483  0.0552  0.3971
  162MOL0     C22228   1.017  10.183   3.899 -0.0232 -0.2629  0.2365
  162MOL0     C22229   1.120  10.218   3.786 -0.9570  0.0008 -0.1861
  162MOL0     C22230   1.246  10.137   3.792 -0.3507  0.1761 -0.1480
  162MOL0     C22231   1.349  10.158   3.685  0.5434 -0.0449 -0.4977
  162MOL0     C22232   1.490  10.082   3.712  0.1462 -0.2101  0.0544
  162MOL0     C22233   1.587  10.104   3.591  0.1026  0.5532 -0.2733
  162MOL0     C22234   1.725  10.134   3.635 -0.5698  0.4155  0.3234
  162MOL0     N22235   1.747  10.265   3.697 -0.3973 -0.1261 -0.6343
  162MOL0     C22236   1.717  10.386   3.646 -0.6532  0.4997  0.2908
  162MOL0     C22237   1.750  10.470   3.749  1.3279  0.0809  1.2719
  162MOL0     C22238   1.726  10.618   3.760  0.1186  0.5816 -0.1450
  162MOL0     C22239   1.835  10.688   3.663  0.7661 -0.6223 -0.5010
  162MOL0     C22240   1.847  10.836   3.689 -0.1591 -0.3418  0.1794
  162MOL0     C22241   1.726  10.917   3.707  1.1078 -0.8128 -0.9105
  162MOL0     O22242   1.744  11.055   3.657 -0.3480  0.3426 -0.5909
  162MOL0     C22243   1.658  11.147   3.704 -0.0853 -0.0264 -0.6588
  162MOL0     C22244   1.623  11.154   3.839  0.2195 -0.5502 -0.1463
  162MOL0     C22245   1.534  11.253   3.875 -0.8865  0.9632  0.4788
  162MOL0     C22246   1.496  11.240   4.019 -0.1200 -0.5760 -0.6409
  162MOL0     C22247   1.487  11.352   3.774 -0.4446  0.3436 -0.2515
  162MOL0     C22248   1.395  11.462   3.814 -0.0258  0.4856  1.1075
  162MOL0     O22249   1.357  11.473   3.942 -0.4105  0.4355 -0.0663
  162MOL0     C22250   1.240  11.538   3.986 -0.6357  0.0527 -0.1307
  162MOL0     C22251   1.222  11.575   4.119 -0.3686 -0.0883  0.5983
  162MOL0     C22252   1.110  11.633   4.179  0.4647  0.6313  0.0287
  162MOL0     C22253   0.994  11.642   4.104  0.1280  0.3016 -0.0697
  162MOL0     O22254   0.879  11.661   4.180  0.0739 -0.8122  0.2323
  162MOL0     C22255   0.757  11.607   4.123  0.7439 -0.0273 -1.2137
  162MOL0     C22256   0.689  11.530   4.228 -0.2488  0.6515 -0.0711
  162MOL0     C22257   0.714  11.384   4.250  0.4176  0.4651  0.2913
  162MOL0     C22258   0.657  11.330   4.385  0.3988  0.7954  0.7742
  162MOL0     C22259   0.700  11.184   4.408 -0.2230 -0.3703 -0.5462
  162MOL0     C22260   0.647  11.073   4.317  0.1085 -0.2646  0.8181
  162MOL0     C22261   0.648  10.941   4.384 -0.2504  0.3806 -1.0654
  162MOL0     C22262   0.603  10.820   4.306  0.9611 -0.1056 -0.0269
  162MOL0    Cl22263   0.656  10.689   4.398  0.2129  0.4212 -0.0353
  162MOL0     C22264   1.007  11.615   3.967  0.9584  0.1722  0.4597
  162MOL0     C22265   1.125  11.563   3.912  0.0022 -1.2376  0.1603
  162MOL0     O22266   1.369  11.539   3.722 -0.7500  0.4706 -0.1583
  162MOL0     C22267   1.548  11.350   3.653 -0.5366 -0.1621  0.4251
  162MOL0     C22268   1.633  11.247   3.609  0.0772  0.3773  0.5253
  162MOL0     N22269   1.810  10.400   3.854  0.1406 -0.4182  0.7059
  162MOL0     N22270   1.816  10.276   3.823  0.2486 -0.4523  0.2351
  162MOL0     C22271   0.867  10.039   4.319 -0.7497 -0.3400 -0.9032
  162MOL0     C22272   0.886   9.989   4.447  0.5537  0.5761  0.1731
  162MOL0     C22273   0.962   9.782   4.813  0.6074 -0.2131  0.2902
  162MOL0     C22274   1.075   9.775   4.895  0.0471 -0.0264 -1.2686
  162MOL0     C22275   1.063   9.733   5.026 -0.2169 -0.3667  0.3860
  162MOL0     C22276   0.941   9.684   5.074  0.4611 -0.6830 -0.8970
  162MOL0     O22277   0.927   9.648   5.204 -0.0228 -0.1459 -0.5110
  162MOL0     C22278   1.033   9.666   5.296 -0.4060 -0.4692 -0.4121
  162MOL0     C22279   1.058   9.820   5.338  0.9277  0.3206  0.0907
  162MOL0     C22280   0.938   9.897   5.395  0.5235 -0.3939  1.0491
  162MOL0     C22281   0.862   9.823   5.505 -0.0683  0.1436  0.7256
  162MOL0     C22282   0.757   9.907   5.567 -0.7009  0.6166 -0.5035
  162MOL0     C22283   0.679   9.976   5.630  0.1957  0.5591  0.2032
  162MOL0     C22284   0.829   9.690   5.000 -0.1482 -0.0660  0.0761
  162MOL0     C22285   0.839   9.739   4.871  0.4703 -0.2327  0.3321
  162MOL0     C22286   0.713   9.727   4.777 -1.1904  0.2461  0.0111
  162MOL0     H22287   1.216  10.015   4.492 -0.1619 -1.5390  0.1604
  162MOL0     H22288   1.199  10.095   4.265 -0.5458  0.5261 -0.5741
  162MOL0     H22289   1.135  10.058   4.039  1.4318  1.1239 -1.3835
  162MOL0     H22290   1.127  10.238   4.065 -2.3526  0.8732  1.7515
  162MOL0     H22291   0.963  10.099   3.854  1.9323 -3.6700  3.5825
  162MOL0     H22292   0.949  10.268   3.897  3.0384  2.3770 -1.8143
  162MOL0     H22293   1.065  10.216   3.691 -2.5284  2.5813  0.5533
  162MOL0     H22294   1.141  10.326   3.787 -0.6242  0.0060 -2.3035
  162MOL0     H22295   1.283  10.155   3.893  0.0075  2.8516 -0.6895
  162MOL0     H22296   1.230  10.030   3.776  1.9886 -0.3638  0.8359
  162MOL0     H22297   1.368  10.266   3.681  1.3337 -0.1855 -0.6298
  162MOL0     H22298   1.314  10.123   3.587  0.0680  1.2255 -0.8094
  162MOL0     H22299   1.543  10.127   3.797  0.3183 -2.4184  1.1913
  162MOL0     H22300   1.481   9.982   3.754  2.3623  1.3043  4.9504
  162MOL0     H22301   1.557  10.197   3.542  1.0370  2.4848  2.6192
  162MOL0     H22302   1.572  10.017   3.525 -1.1975 -0.7380  1.6208
  162MOL0     H22303   1.764  10.063   3.709 -0.0002 -2.1996 -2.2998
  162MOL0     H22304   1.784  10.124   3.544 -1.5177 -1.9992 -0.1092
  162MOL0     H22305   1.673  10.402   3.548  2.4532  0.0860 -1.2910
  162MOL0     H22306   1.750  10.639   3.865  3.2179  0.7752 -0.7984
  162MOL0     H22307   1.626  10.657   3.738 -0.9111 -2.2905 -0.9820
  162MOL0     H22308   1.934  10.644   3.676  0.3682 -1.3276  0.2225
  162MOL0     H22309   1.793  10.675   3.563 -2.8480  1.0806  0.5965
  162MOL0     H22310   1.920  10.848   3.770 -1.3728 -1.2086  1.4502
  162MOL0     H22311   1.895  10.884   3.603 -0.4521  1.1785  0.8399
  162MOL0     H22312   1.631  10.875   3.674 -0.7947  0.7095  2.1964
  162MOL0     H22313   1.717  10.924   3.816  0.6251 -1.3628 -0.9112
  162MOL0     H22314   1.636  11.068   3.903 -2.3842 -2.8542 -2.4922
  162MOL0     H22315   1.387  11.229   4.017 -0.2609  0.6471 -3.1823
  162MOL0     H22316   1.506  11.327   4.085 -1.8796 -0.4109 -0.5504
  162MOL0     H22317   1.529  11.154   4.080  0.5620 -1.6358 -2.4369
  162MOL0     H22318   1.304  11.545   4.184  1.4792 -0.8458 -1.8959
  162MOL0     H22319   1.119  11.650   4.286 -1.4555  0.6277  0.2165
  162MOL0     H22320   0.691  11.684   4.081 -0.0359 -0.9212 -1.6563
  162MOL0     H22321   0.788  11.546   4.038  0.7246 -1.9808  0.1198
  162MOL0     H22322   0.707  11.588   4.319 -1.4548 -2.9495  2.7233
  162MOL0     H22323   0.582  11.527   4.201  0.6437 -2.5433 -4.3837
  162MOL0     H22324   0.823  11.382   4.256  0.3911  1.8304  3.3479
  162MOL0     H22325   0.689  11.325   4.162  0.8096  1.0504 -0.2287
  162MOL0     H22326   0.548  11.336   4.389  0.3506 -0.0025  0.7722
  162MOL0     H22327   0.696  11.398   4.462  0.1507  0.8740  0.8294
  162MOL0     H22328   0.808  11.164   4.406 -0.4331 -1.5334 -2.7435
  162MOL0     H22329   0.658  11.175   4.509 -2.4740  2.6234 -1.0849
  162MOL0     H22330   0.710  11.063   4.228 -2.4988 -1.8653 -0.9889
  162MOL0     H22331   0.543  11.091   4.288  0.4796  2.2208  0.7880
  162MOL0     H22332   0.602  10.937   4.483  3.7721 -5.0502  1.0912
  162MOL0     H22333   0.750  10.914   4.414 -1.2968 -3.7303 -0.6155
  162MOL0     H22334   0.658  10.827   4.211  1.6873 -2.6970  0.1402
  162MOL0     H22335   0.494  10.818   4.295  0.8988 -2.0773  0.5431
  162MOL0     H22336   0.920  11.634   3.905 -0.7904 -3.2269  1.6106
  162MOL0     H22337   1.120  11.541   3.806  0.7669 -0.7683  0.0251
  162MOL0     H22338   1.534  11.421   3.572  2.8568  0.1268 -0.0638
  162MOL0     H22339   1.678  11.236   3.511  1.1010  3.0003  0.6181
  162MOL0     H22340   0.767  10.048   4.278 -1.3360 -1.2166  0.2629
  162MOL0     H22341   0.796   9.942   4.486  1.7167 -1.9657 -0.0014
  162MOL0     H22342   1.171   9.780   4.844  0.4615 -2.6026 -0.8784
  162MOL0     H22343   1.154   9.731   5.086 -2.3773 -0.9780  3.8845
  162MOL0     H22344   1.005   9.615   5.389 -1.7873  1.8541  0.5318
  162MOL0     H22345   1.125   9.616   5.263 -1.7180 -3.4439  0.1505
  162MOL0     H22346   1.093   9.870   5.247 -3.9534  3.2058 -0.5379
  162MOL0     H22347   1.127   9.819   5.424 -0.4692 -1.9098  1.2666
  162MOL0     H22348   0.988   9.985   5.436  3.3951 -1.5478  0.2967
  162MOL0     H22349   0.870   9.909   5.311  3.4433  1.2744 -1.2448
  162MOL0     H22350   0.935   9.788   5.579  1.6175 -0.3712 -1.0911
  162MOL0     H22351   0.822   9.729   5.468  4.3222 -1.6764 -0.0239
  162MOL0     H22352   0.611  10.045   5.676 -2.2801  0.6115 -3.1563
  162MOL0     H22353   0.733   9.647   5.027 -1.7194  0.8504 -3.4956
  162MOL0     H22354   0.627   9.693   4.835 -0.7931 -2.1978 -0.7239
  162MOL0     H22355   0.689   9.819   4.723 -0.9466 -0.7234 -1.8369
  162MOL0     H22356   0.738   9.651   4.702  1.5708 -1.0558  2.0607
  163MOL0     O22357   1.530   3.530   4.270  0.0254  0.2527  0.4426
  163MOL0     C22358   1.468   3.541   4.375  0.4454  0.2069  0.0450
  163MOL0     O22359   1.471   3.653   4.452 -0.2212 -0.4402 -0.8730
  163MOL0     C22360   1.565   3.749   4.424  0.4608  0.2934  1.2481
  163MOL0     C22361   1.534   3.847   4.323 -0.1294  0.0773  0.5027
  163MOL0     C22362   1.631   3.944   4.292  0.4494 -0.2102  0.3058
  163MOL0     C22363   1.753   3.955   4.357 -0.7211 -0.3899  0.0659
  163MOL0     O22364   1.824   4.066   4.324 -0.5564  0.5822 -0.1659
  163MOL0     C22365   1.954   4.083   4.373  0.0210  1.5479  0.1171
  163MOL0     C22366   2.030   4.196   4.311  0.1102  0.2772  0.7511
  163MOL0     C22367   1.953   4.326   4.295  0.0619  0.4378 -1.0406
  163MOL0     C22368   2.057   4.432   4.247  0.1571  0.3222  0.6360
  163MOL0     C22369   2.075   4.426   4.095  0.1110  0.7596 -0.5933
  163MOL0     C22370   2.171   4.534   4.028  0.0465 -0.4279 -0.1652
  163MOL0     C22371   2.172   4.540   3.877 -1.0294  0.0608  0.5416
  163MOL0     C22372   2.286   4.469   3.811 -0.0954  0.3254  0.9688
  163MOL0     N22373   2.271   4.484   3.664  0.4725 -0.6883 -0.0689
  163MOL0     C22374   2.300   4.400   3.565 -0.8189 -0.1342  0.4835
  163MOL0     C22375   2.281   4.465   3.442  0.5152  0.5256 -0.9220
  163MOL0     C22376   2.287   4.406   3.298 -0.8201 -0.1204  0.3903
  163MOL0     C22377   2.142   4.368   3.254 -1.4637  0.2327 -0.5872
  163MOL0     C22378   2.152   4.304   3.120 -0.3824  0.5833  1.1910
  163MOL0     C22379   2.196   4.383   2.997  0.4089 -0.8519 -0.6713
  163MOL0     O22380   2.332   4.394   2.965 -0.5345  0.2739  0.1646
  163MOL0     C22381   2.371   4.498   2.879 -0.4271 -0.5531 -0.5139
  163MOL0     C22382   2.292   4.558   2.787  0.1136 -0.7694  0.5242
  163MOL0     C22383   2.335   4.663   2.707  0.7579 -0.4613  0.2422
  163MOL0     C22384   2.256   4.691   2.584 -0.6255 -0.3196  0.3559
  163MOL0     C22385   2.467   4.718   2.725 -0.0653  0.0055  0.1038
  163MOL0     C22386   2.524   4.826   2.649  0.2746 -0.3799 -0.3216
  163MOL0     O22387   2.649   4.856   2.678  0.4866 -0.2388  0.4340
  163MOL0     C22388   2.704   4.965   2.618 -0.0446 -0.6916 -0.2952
  163MOL0     C22389   2.723   5.078   2.702  0.8647 -0.4211  0.6451
  163MOL0     C22390   2.771   5.200   2.644 -0.3427 -0.7484 -0.2438
  163MOL0     C22391   2.818   5.209   2.517  0.1351 -0.4070  0.4596
  163MOL0     O22392   2.864   5.322   2.446 -0.3947 -0.4318 -0.0969
  163MOL0     C22393   2.815   5.448   2.485  0.0485  0.3310  0.7081
  163MOL0     C22394   2.841   5.561   2.387  0.4095 -0.7428  0.1692
  163MOL0     C22395   2.784   5.541   2.241  0.1370  0.3863  0.1001
  163MOL0     C22396   2.818   5.665   2.159  0.2454  0.1057  0.2021
  163MOL0     C22397   2.752   5.787   2.214  0.1927  1.0353  0.4504
  163MOL0     C22398   2.804   5.912   2.134 -0.1734  0.3998 -0.0836
  163MOL0     C22399   2.724   6.039   2.166 -0.9716 -0.0010 -1.3155
  163MOL0     C22400   2.802   6.166   2.100  0.6996 -0.3953 -0.1078
  163MOL0    Cl22401   2.795   6.178   1.925  0.1249  0.4839  0.6558
  163MOL0     C22402   2.800   5.099   2.442  0.1519  0.2786 -0.7499
  163MOL0     C22403   2.746   4.976   2.488 -0.0670  0.7008  0.7184
  163MOL0     O22404   2.462   4.892   2.559 -0.1735 -0.3371 -0.5350
  163MOL0     C22405   2.546   4.662   2.829  0.5894 -0.0504  0.0507
  163MOL0     C22406   2.496   4.556   2.901 -0.5566  0.4626 -0.0385
  163MOL0     N22407   2.243   4.589   3.483  0.1623 -0.4436 -0.1866
  163MOL0     N22408   2.237   4.604   3.602  0.1059  0.0049 -0.7579
  163MOL0     C22409   1.781   3.860   4.463 -0.3624 -0.0907  0.4493
  163MOL0     C22410   1.690   3.759   4.489 -0.2209 -0.1105  0.5045
  163MOL0     C22411   1.358   3.440   4.407  0.0753  0.1477  0.0750
  163MOL0     C22412   1.307   3.460   4.539  0.4295 -0.1059  0.2323
  163MOL0     C22413   1.210   3.372   4.585 -0.4841 -0.3781 -0.5892
  163MOL0     C22414   1.165   3.264   4.508  0.7342 -0.2017 -0.2577
  163MOL0     O22415   1.065   3.184   4.556 -0.2284 -0.0558 -0.2555
  163MOL0     C22416   1.079   3.041   4.540  1.2252  0.4390 -0.6989
  163MOL0     C22417   1.194   2.987   4.625 -0.1431 -0.4530 -1.1494
  163MOL0     C22418   1.200   2.841   4.603 -0.2433 -0.5017  0.3241
  163MOL0     C22419   1.320   2.776   4.672 -0.3520 -0.1996  0.5443
  163MOL0     C22420   1.352   2.633   4.633  0.0440  0.3952  0.5404
  163MOL0     C22421   1.373   2.522   4.585  0.0780  0.3800 -0.6754
  163MOL0     C22422   1.227   3.247   4.380 -0.9034  1.0748 -0.0259
  163MOL0     C22423   1.324   3.331   4.324  0.5658  0.0408 -0.5899
  163MOL0     C22424   1.366   3.310   4.185  0.3099  0.3269 -0.4915
  163MOL0     H22425   1.439   3.846   4.271 -0.0180  1.9713  0.2236
  163MOL0     H22426   1.612   4.016   4.213  4.1376  0.0906 -0.4477
  163MOL0     H22427   2.012   3.991   4.366 -2.6586 -0.2727  0.3947
  163MOL0     H22428   1.952   4.112   4.478 -0.8476 -0.9507  0.8453
  163MOL0     H22429   2.116   4.220   4.375  0.1350  2.6558 -0.0612
  163MOL0     H22430   2.068   4.158   4.216 -3.4250 -0.8693 -0.3687
  163MOL0     H22431   1.871   4.316   4.223  0.3805 -3.1564 -1.0888
  163MOL0     H22432   1.912   4.341   4.395 -2.5326 -0.6026 -1.8563
  163MOL0     H22433   2.018   4.525   4.291 -0.2055  0.5473 -0.1417
  163MOL0     H22434   2.155   4.418   4.294  0.1640  1.6001  1.0482
  163MOL0     H22435   1.972   4.428   4.058  0.2586 -1.9876 -1.3553
  163MOL0     H22436   2.127   4.332   4.078 -0.6656  0.1774  0.1694
  163MOL0     H22437   2.138   4.632   4.065 -1.6367 -1.0854  0.1364
  163MOL0     H22438   2.274   4.512   4.059  0.2279 -1.6341 -1.5385
  163MOL0     H22439   2.183   4.647   3.857 -1.6160  0.1708  0.7835
  163MOL0     H22440   2.074   4.507   3.841 -0.3368  0.6665 -2.1233
  163MOL0     H22441   2.383   4.514   3.838 -0.2673  0.5411  1.2359
  163MOL0     H22442   2.295   4.363   3.833  0.6914 -0.3555 -2.1638
  163MOL0     H22443   2.327   4.296   3.580  3.1013  0.8398  1.4091
  163MOL0     H22444   2.344   4.314   3.313  2.0967  1.6020  0.6044
  163MOL0     H22445   2.340   4.468   3.225 -0.2440 -0.1646  0.7699
  163MOL0     H22446   2.107   4.287   3.319  1.5634 -1.7221 -1.2047
  163MOL0     H22447   2.080   4.458   3.254  1.9058  2.7995  1.2186
  163MOL0     H22448   2.221   4.223   3.145  1.0828  1.4099 -0.0293
  163MOL0     H22449   2.053   4.263   3.096  0.4306 -0.7991  0.0908
  163MOL0     H22450   2.156   4.332   2.909 -0.6465 -3.3140  1.1275
  163MOL0     H22451   2.148   4.481   3.010  1.9042 -0.2470  0.4995
  163MOL0     H22452   2.188   4.528   2.791 -0.5598  1.3174  0.0352
  163MOL0     H22453   2.305   4.682   2.486  0.7649 -0.7930  1.0757
  163MOL0     H22454   2.214   4.792   2.581  0.8894  0.5442  3.7633
  163MOL0     H22455   2.186   4.607   2.579 -0.7055 -0.2211 -2.8918
  163MOL0     H22456   2.693   5.057   2.804 -3.0141 -4.0472 -0.9352
  163MOL0     H22457   2.790   5.281   2.714 -2.0967 -3.3310  3.5827
  163MOL0     H22458   2.707   5.442   2.506  0.1480  0.5135  1.2878
  163MOL0     H22459   2.868   5.475   2.577 -0.5998  2.2878  0.5634
  163MOL0     H22460   2.787   5.641   2.438 -1.9414 -1.7963 -0.4993
  163MOL0     H22461   2.948   5.580   2.383 -0.0840  2.4211 -0.7515
  163MOL0     H22462   2.676   5.527   2.248  0.1202 -0.2695 -1.3111
  163MOL0     H22463   2.837   5.460   2.191 -1.3079  1.3700 -3.3064
  163MOL0     H22464   2.807   5.662   2.050  1.8804  0.1762  0.0103
  163MOL0     H22465   2.927   5.677   2.152  0.1987 -0.1951 -1.5683
  163MOL0     H22466   2.643   5.776   2.203  0.3738 -0.9105  0.2408
  163MOL0     H22467   2.790   5.798   2.316  3.3369 -1.7489 -0.2416
  163MOL0     H22468   2.781   5.884   2.030  1.4730 -1.4951 -0.0029
  163MOL0     H22469   2.910   5.921   2.158 -0.5049 -1.2509  2.4131
  163MOL0     H22470   2.718   6.044   2.275 -3.0615 -4.6734 -0.9787
  163MOL0     H22471   2.623   6.033   2.126 -1.8785 -0.7720  0.9460
  163MOL0     H22472   2.904   6.167   2.139  0.6708 -2.0077  0.0816
  163MOL0     H22473   2.755   6.259   2.134 -0.5299 -1.4901  1.3019
  163MOL0     H22474   2.838   5.105   2.340  0.4131  0.8255 -0.6223
  163MOL0     H22475   2.720   4.889   2.428 -0.0710  1.5591 -0.5850
  163MOL0     H22476   2.639   4.702   2.868 -0.3489  0.0568  2.3032
  163MOL0     H22477   2.559   4.529   2.985  3.6266  2.0333 -2.3595
  163MOL0     H22478   1.882   3.860   4.503 -1.7470 -2.2181  4.5083
  163MOL0     H22479   1.717   3.680   4.559  0.4372  0.5052  0.9668
  163MOL0     H22480   1.328   3.535   4.614 -1.0121 -2.5805  3.3745
  163MOL0     H22481   1.168   3.395   4.682  1.6466  1.9709 -0.1062
  163MOL0     H22482   0.998   2.992   4.596  1.7816  0.9100  0.5402
  163MOL0     H22483   1.075   3.014   4.434  1.0217 -1.2540 -0.2924
  163MOL0     H22484   1.190   3.031   4.725  1.6346  0.5023 -1.4437
  163MOL0     H22485   1.283   3.034   4.581 -1.1815  1.4489 -1.3231
  163MOL0     H22486   1.104   2.797   4.635 -2.0547  0.7407 -2.9145
  163MOL0     H22487   1.216   2.809   4.500  1.7465 -0.3573  0.5555
  163MOL0     H22488   1.303   2.770   4.779 -3.4160  2.3837  0.3470
  163MOL0     H22489   1.403   2.846   4.656 -0.5666 -0.4843 -2.3179
  163MOL0     H22490   1.375   2.427   4.536 -2.5155  0.4949 -1.1297
  163MOL0     H22491   1.206   3.157   4.324 -1.6016  0.2005  1.5652
  163MOL0     H22492   1.455   3.247   4.178 -2.1345 -3.5882  0.9131
  163MOL0     H22493   1.286   3.252   4.137 -1.0624  2.1374 -0.5269
  163MOL0     H22494   1.388   3.405   4.133  1.8551  0.1346 -0.2312
  164MOL0     O22495   6.243   1.955   1.991  0.1056 -0.5135 -0.6011
  164MOL0     C22496   6.286   2.072   1.983  0.9774 -0.1431 -0.4181
  164MOL0     O22497   6.412   2.113   1.992  0.1974 -0.2878  0.3307
  164MOL0     C22498   6.496   2.020   2.047  0.3094 -0.3541 -0.8957
  164MOL0     C22499   6.582   1.953   1.966  0.0645  0.6471  0.8706
  164MOL0     C22500   6.667   1.857   2.022  1.0028  0.6017  0.4638
  164MOL0     C22501   6.679   1.836   2.158  0.9928  0.0595  0.1621
  164MOL0     O22502   6.764   1.739   2.202 -0.3872  0.5133 -0.4040
  164MOL0     C22503   6.837   1.758   2.321 -0.2412 -0.6121 -0.9633
  164MOL0     C22504   6.928   1.888   2.324  0.4415 -0.7695  0.5208
  164MOL0     C22505   6.959   1.923   2.471 -0.1596  0.2761  0.0463
  164MOL0     C22506   7.090   1.999   2.486 -0.0498 -0.4227  0.2492
  164MOL0     C22507   7.137   2.006   2.621 -0.5229 -0.0161 -0.3240
  164MOL0     C22508   7.237   2.119   2.619  0.5192  0.6932 -0.1318
  164MOL0     C22509   7.365   2.082   2.549  0.1784 -0.7603  0.5347
  164MOL0     C22510   7.472   2.186   2.591 -0.2109  0.3306 -0.2540
  164MOL0     N22511   7.495   2.192   2.739  0.2990  0.3162 -0.5251
  164MOL0     C22512   7.587   2.115   2.818 -0.4474 -0.5969 -0.5524
  164MOL0     C22513   7.601   2.183   2.934  0.8065  0.2406 -0.6043
  164MOL0     C22514   7.688   2.159   3.043 -0.4568  1.4224  0.1143
  164MOL0     C22515   7.791   2.267   3.034  0.6233 -0.5343 -0.0921
  164MOL0     C22516   7.869   2.271   2.908 -0.1565  0.2866  0.3921
  164MOL0     C22517   7.997   2.357   2.922  0.2222  0.4583 -0.9755
  164MOL0     O22518   8.089   2.360   2.813  0.8662  0.7393 -0.0889
  164MOL0     C22519   8.218   2.334   2.831 -0.0344 -1.4931 -0.1511
  164MOL0     C22520   8.281   2.256   2.738 -0.4925  0.6305  0.0719
  164MOL0     C22521   8.416   2.234   2.743 -0.8781  0.9047 -0.0127
  164MOL0     C22522   8.460   2.139   2.647 -0.1018 -0.9668  1.3756
  164MOL0     C22523   8.500   2.288   2.841  0.0274 -0.7902 -0.0820
  164MOL0     C22524   8.644   2.258   2.866 -0.0485  0.1424 -0.3418
  164MOL0     O22525   8.723   2.213   2.765 -0.3848 -0.0735  0.2193
  164MOL0     C22526   8.859   2.233   2.765  1.2849  0.2675 -0.0586
  164MOL0     C22527   8.918   2.172   2.653  0.5613 -0.9807  0.6702
  164MOL0     C22528   9.058   2.187   2.631 -0.1537 -1.0154 -0.5292
  164MOL0     C22529   9.132   2.254   2.733 -0.5122 -0.4060 -0.5707
  164MOL0     O22530   9.271   2.247   2.740  0.4488 -0.3792  0.6575
  164MOL0     C22531   9.347   2.317   2.845 -0.8563 -0.0861 -0.0284
  164MOL0     C22532   9.495   2.278   2.834  0.1720  0.6729 -0.4922
  164MOL0     C22533   9.555   2.357   2.711  0.2067 -0.2562 -0.7685
  164MOL0     C22534   9.713   2.380   2.727  0.4397  0.9486 -0.4024
  164MOL0     C22535   9.761   2.458   2.601  0.3950  1.0676 -1.3235
  164MOL0     C22536   9.912   2.470   2.616  0.0898 -0.2263  0.3655
  164MOL0     C22537   9.967   2.509   2.481 -0.4608 -0.3043  0.8920
  164MOL0     C22538   9.955   2.655   2.461  0.4122  1.0200  0.4511
  164MOL0    Cl22539   9.976   2.706   2.292 -0.1213 -0.4513 -0.1193
  164MOL0     C22540   9.063   2.317   2.835  0.1583 -0.8356  0.0800
  164MOL0     C22541   8.930   2.311   2.855 -0.6396 -1.1126  0.1390
  164MOL0     O22542   8.666   2.256   2.986  0.3570 -0.1080 -0.8832
  164MOL0     C22543   8.436   2.366   2.942  0.8331  0.9869 -0.0697
  164MOL0     C22544   8.300   2.392   2.933  0.0309  0.0872 -0.4836
  164MOL0     N22545   7.502   2.281   2.933  0.5562  0.3064  0.2791
  164MOL0     N22546   7.437   2.285   2.821  0.4528 -0.1903 -1.0655
  164MOL0     C22547   6.588   1.907   2.238  1.0286  0.3470  0.4696
  164MOL0     C22548   6.490   1.992   2.191  0.0324 -0.7493 -0.7356
  164MOL0     C22549   6.185   2.176   1.941  0.3995  0.6404  0.4990
  164MOL0     C22550   6.247   2.300   1.894  0.3050  0.3960  0.2061
  164MOL0     C22551   6.161   2.394   1.833 -0.7137 -0.2832 -0.1325
  164MOL0     C22552   6.024   2.376   1.832  0.4575  0.0907 -0.7504
  164MOL0     O22553   5.930   2.456   1.774 -0.2896 -0.1874 -0.0332
  164MOL0     C22554   5.964   2.592   1.736 -0.1688  0.0336  0.2794
  164MOL0     C22555   5.840   2.665   1.687 -0.4342 -0.1824  0.0579
  164MOL0     C22556   5.735   2.677   1.797 -0.3342 -0.1827 -0.9722
  164MOL0     C22557   5.630   2.780   1.772 -0.4192 -0.2606  0.7295
  164MOL0     C22558   5.566   2.749   1.644  0.9355  0.4531  0.2684
  164MOL0     C22559   5.529   2.707   1.535 -0.6080 -0.3635 -0.0551
  164MOL0     C22560   5.966   2.259   1.899  0.4790 -0.9285 -0.1921
  164MOL0     C22561   6.042   2.155   1.953 -0.4682  0.1074 -0.0389
  164MOL0     C22562   5.971   2.033   1.992  0.2333  0.2172  0.0191
  164MOL0     H22563   6.589   1.980   1.861 -1.1048 -0.6448  0.4272
  164MOL0     H22564   6.735   1.791   1.969 -0.5971  0.7441 -1.9691
  164MOL0     H22565   6.911   1.678   2.327 -0.5379 -0.8569 -0.4488
  164MOL0     H22566   6.775   1.744   2.410 -2.0575  0.1877 -2.0416
  164MOL0     H22567   7.021   1.876   2.268  2.2030  0.5735  2.9458
  164MOL0     H22568   6.870   1.969   2.281  0.2386  0.5345  3.0816
  164MOL0     H22569   6.879   1.990   2.505  0.2564  0.1578  1.3100
  164MOL0     H22570   6.972   1.838   2.538  0.9385 -0.0897 -0.5998
  164MOL0     H22571   7.162   1.952   2.417  0.1104  1.5637 -1.0098
  164MOL0     H22572   7.080   2.095   2.434 -1.6905 -1.7333 -2.0856
  164MOL0     H22573   7.182   1.916   2.663  1.2377  0.1804 -1.6614
  164MOL0     H22574   7.049   2.027   2.683 -0.8870 -2.2247 -0.0049
  164MOL0     H22575   7.198   2.213   2.580 -1.0255 -1.1654 -3.5372
  164MOL0     H22576   7.255   2.134   2.725 -0.5294 -1.5786  0.4312
  164MOL0     H22577   7.359   2.077   2.440  1.8801  3.1785  0.0619
  164MOL0     H22578   7.412   1.995   2.596  0.2891 -1.2937 -0.5545
  164MOL0     H22579   7.568   2.149   2.553 -0.9864 -3.2554  0.8555
  164MOL0     H22580   7.452   2.287   2.553  2.1096  1.0948  0.3463
  164MOL0     H22581   7.642   2.028   2.784  0.3729  0.0469 -0.9163
  164MOL0     H22582   7.736   2.060   3.049  2.0852  2.5304 -0.4499
  164MOL0     H22583   7.627   2.183   3.130 -1.2095  0.9673 -0.2738
  164MOL0     H22584   7.746   2.366   3.047 -3.2242 -1.5161 -3.8739
  164MOL0     H22585   7.858   2.264   3.121  1.0574  1.5802 -0.2876
  164MOL0     H22586   7.896   2.168   2.887 -0.8679 -0.2582  1.9638
  164MOL0     H22587   7.805   2.309   2.828 -2.3313  0.7948  2.2372
  164MOL0     H22588   7.975   2.461   2.949  0.5966 -0.0772  1.6202
  164MOL0     H22589   8.041   2.332   3.019 -0.1479  0.6073 -0.7677
  164MOL0     H22590   8.220   2.224   2.655  0.9257  1.4107 -1.3177
  164MOL0     H22591   8.504   2.050   2.693 -1.4575 -0.9451  2.8037
  164MOL0     H22592   8.540   2.180   2.586  0.0983 -1.5724  1.2241
  164MOL0     H22593   8.386   2.107   2.572 -1.3768 -0.0451  2.1912
  164MOL0     H22594   8.860   2.112   2.583  3.9540 -1.0207 -2.4247
  164MOL0     H22595   9.107   2.136   2.548  0.2229 -2.8940  0.7911
  164MOL0     H22596   9.333   2.424   2.828  0.7889  0.2194  0.3417
  164MOL0     H22597   9.318   2.295   2.948 -0.1885  1.3463  0.4987
  164MOL0     H22598   9.550   2.295   2.927 -0.6194  1.4525 -0.1482
  164MOL0     H22599   9.504   2.171   2.815  4.1091  1.2072 -2.7255
  164MOL0     H22600   9.523   2.459   2.690  3.1555  1.1537  0.9252
  164MOL0     H22601   9.545   2.293   2.623  4.1791 -2.1472 -0.0704
  164MOL0     H22602   9.748   2.277   2.729 -1.6202  0.2094  1.7981
  164MOL0     H22603   9.732   2.430   2.823 -0.3247 -0.4584  0.5025
  164MOL0     H22604   9.743   2.393   2.515 -1.9524  1.3068 -1.0805
  164MOL0     H22605   9.710   2.555   2.590 -0.3505  0.6818 -1.3392
  164MOL0     H22606   9.944   2.366   2.631  0.0197 -0.1499  1.0585
  164MOL0     H22607   9.947   2.521   2.705  0.0071 -2.1219  1.5331
  164MOL0     H22608   9.918   2.464   2.395  1.4897 -2.0583  0.6136
  164MOL0     H22609  10.072   2.486   2.462 -0.7544 -2.2530  1.3691
  164MOL0     H22610  10.030   2.696   2.530 -0.4743  1.1348  1.3771
  164MOL0     H22611   9.857   2.699   2.483  1.3390  3.4787  0.0406
  164MOL0     H22612   9.120   2.370   2.911 -0.2287 -1.7946  1.0590
  164MOL0     H22613   8.876   2.359   2.936 -0.4854 -2.3936  1.0347
  164MOL0     H22614   8.504   2.421   3.006  1.0787  2.4664 -1.5191
  164MOL0     H22615   8.261   2.453   3.014  1.2680 -0.0644  0.2684
  164MOL0     H22616   6.607   1.905   2.345  1.6080 -1.4785  0.3530
  164MOL0     H22617   6.417   2.033   2.260  1.6785 -2.1578  2.0064
  164MOL0     H22618   6.355   2.306   1.887  0.3313  0.4652  0.6570
  164MOL0     H22619   6.211   2.475   1.781 -0.3665  0.1296  0.8216
  164MOL0     H22620   5.984   2.653   1.824 -6.4017  0.5547  1.7921
  164MOL0     H22621   6.042   2.602   1.660 -0.7687  4.5953  0.0169
  164MOL0     H22622   5.793   2.619   1.600 -1.4499  3.6313 -1.5975
  164MOL0     H22623   5.875   2.754   1.633 -2.0015 -0.0590 -0.8105
  164MOL0     H22624   5.679   2.584   1.812  0.2281 -0.4163 -0.2576
  164MOL0     H22625   5.779   2.713   1.891 -1.0593 -1.1069 -0.2570
  164MOL0     H22626   5.681   2.877   1.779 -1.3261  0.1302  2.4170
  164MOL0     H22627   5.549   2.772   1.845 -0.6425  1.3749  0.7078
  164MOL0     H22628   5.506   2.677   1.435  3.1946  1.0061 -1.5401
  164MOL0     H22629   5.862   2.255   1.928  0.9504 -0.0740  1.7425
  164MOL0     H22630   5.972   1.955   1.915 -3.5553 -2.0113  1.9740
  164MOL0     H22631   6.011   1.989   2.084 -1.3378 -2.9642 -0.6935
  164MOL0     H22632   5.867   2.049   2.018  0.6026 -0.0121  1.7206
  165MOL0     O22633   5.652   5.095   6.718 -0.0343  0.3701  0.6483
  165MOL0     C22634   5.662   5.203   6.771  0.2009  0.7111 -0.0370
  165MOL0     O22635   5.562   5.267   6.844  0.1452  0.0501  0.0869
  165MOL0     C22636   5.434   5.222   6.852  0.5663  0.8786  0.4999
  165MOL0     C22637   5.342   5.315   6.907  0.0481 -0.1249  0.1328
  165MOL0     C22638   5.207   5.274   6.925 -0.3856  0.0001 -0.0715
  165MOL0     C22639   5.159   5.145   6.899 -0.6621  0.3685 -0.1032
  165MOL0     O22640   5.031   5.117   6.927  0.7201 -0.9349  0.4539
  165MOL0     C22641   4.965   5.011   6.852 -0.5786 -0.4255  0.5882
  165MOL0     C22642   4.813   5.023   6.869 -1.0848 -0.7729  1.1414
  165MOL0     C22643   4.750   5.159   6.811  0.0976  0.8238 -0.0762
  165MOL0     C22644   4.596   5.138   6.826  0.1859 -0.9700 -0.2237
  165MOL0     C22645   4.544   5.043   6.721  1.2907  0.8995 -0.6521
  165MOL0     C22646   4.506   5.126   6.601  0.1884 -0.4742  0.1090
  165MOL0     C22647   4.424   5.042   6.497  0.7190 -0.5851 -0.0539
  165MOL0     C22648   4.329   5.139   6.425  0.4121 -0.1113  0.8630
  165MOL0     N22649   4.218   5.064   6.372 -0.5388 -0.2179 -0.3860
  165MOL0     C22650   4.234   4.954   6.285 -0.1518 -1.1920 -1.2808
  165MOL0     C22651   4.105   4.925   6.271  0.9999  0.7010 -0.4895
  165MOL0     C22652   4.046   4.811   6.191  0.0804  0.2538  0.8188
  165MOL0     C22653   4.056   4.836   6.036 -0.8725 -0.5301  0.6790
  165MOL0     C22654   3.941   4.916   5.962 -0.1064 -0.1026  0.0382
  165MOL0     C22655   3.803   4.860   5.995 -0.5406 -0.5654  0.3654
  165MOL0     O22656   3.797   4.718   5.954 -0.5600  1.0382 -0.4726
  165MOL0     C22657   3.731   4.691   5.837 -0.6385  0.1347  0.2807
  165MOL0     C22658   3.717   4.561   5.801  0.0660  1.0251  0.9173
  165MOL0     C22659   3.632   4.524   5.694 -0.4257  0.1571 -0.0239
  165MOL0     C22660   3.633   4.374   5.661  0.6291  0.0568 -0.5332
  165MOL0     C22661   3.576   4.622   5.606 -0.0465 -0.6888  0.0162
  165MOL0     C22662   3.485   4.584   5.492  0.1751 -0.6456  0.0619
  165MOL0     O22663   3.489   4.455   5.446  0.5115 -0.1390  0.1352
  165MOL0     C22664   3.388   4.406   5.368 -0.4859  0.0404 -0.7671
  165MOL0     C22665   3.415   4.286   5.297 -0.7696 -0.4591  0.0246
  165MOL0     C22666   3.327   4.239   5.209  0.0156  0.5468 -0.4884
  165MOL0     C22667   3.198   4.295   5.197  0.0683 -0.3097  0.1727
  165MOL0     O22668   3.112   4.266   5.095 -0.5270  0.4684  0.6388
  165MOL0     C22669   3.158   4.178   5.000  0.5222  0.0144  0.9346
  165MOL0     C22670   3.053   4.155   4.889  0.0007  0.3429 -0.0333
  165MOL0     C22671   3.033   4.264   4.797  1.1584  0.2642  0.0956
  165MOL0     C22672   2.959   4.217   4.669  1.1499 -0.2476  0.0550
  165MOL0     C22673   2.985   4.318   4.553  0.6819  0.1345  0.4167
  165MOL0     C22674   2.919   4.262   4.429  0.6006  0.8196  0.0926
  165MOL0     C22675   2.922   4.360   4.318  0.4523  0.8445  0.3284
  165MOL0     C22676   2.876   4.291   4.185  0.4930 -0.0564  0.7028
  165MOL0    Cl22677   3.004   4.189   4.118  0.4838  0.4697 -0.2048
  165MOL0     C22678   3.162   4.401   5.276  0.1884 -0.5024  0.1447
  165MOL0     C22679   3.261   4.452   5.364 -0.3633 -0.9534 -0.3686
  165MOL0     O22680   3.419   4.681   5.444 -0.6458  0.1215 -0.4065
  165MOL0     C22681   3.607   4.753   5.636 -0.5125 -0.2425  0.1485
  165MOL0     C22682   3.679   4.789   5.750  0.2953 -0.3045  1.3280
  165MOL0     N22683   4.011   5.015   6.326 -0.4752  1.3175  0.5214
  165MOL0     N22684   4.080   5.093   6.391  0.5465 -0.4870 -0.0241
  165MOL0     C22685   5.252   5.051   6.854  0.2403 -0.1748 -0.2355
  165MOL0     C22686   5.388   5.086   6.830  0.6416  0.2265  0.0944
  165MOL0     C22687   5.799   5.266   6.772 -0.3440 -0.8211 -0.6351
  165MOL0     C22688   5.820   5.410   6.787  0.3623 -0.3397 -0.2013
  165MOL0     C22689   5.944   5.471   6.779  1.5613 -0.0803  0.0944
  165MOL0     C22690   6.057   5.393   6.763 -0.5792  0.1365  0.8826
  165MOL0     O22691   6.185   5.440   6.767 -0.9953  0.2042 -0.4590
  165MOL0     C22692   6.207   5.581   6.753 -1.3754 -0.6684 -0.1842
  165MOL0     C22693   6.364   5.601   6.778  0.6922 -0.2219  0.1596
  165MOL0     C22694   6.449   5.529   6.674 -0.8410  0.0650 -0.8387
  165MOL0     C22695   6.602   5.569   6.693  0.2271 -0.9818  0.6530
  165MOL0     C22696   6.671   5.485   6.593  0.1462  0.0835 -0.1586
  165MOL0     C22697   6.726   5.426   6.503 -0.0832  0.3739 -0.2806
  165MOL0     C22698   6.042   5.260   6.746  1.1157  0.2350 -0.2920
  165MOL0     C22699   5.924   5.191   6.759  0.3469  0.3132 -0.2214
  165MOL0     C22700   5.934   5.038   6.751 -0.5987 -0.4319  0.4080
  165MOL0     H22701   5.383   5.411   6.936 -0.9564  0.0706  0.9639
  165MOL0     H22702   5.133   5.346   6.958 -1.6175  0.3678 -3.3307
  165MOL0     H22703   4.999   4.912   6.885  0.4213 -0.1251  0.4832
  165MOL0     H22704   4.997   5.024   6.748  0.3178  1.5298  1.0809
  165MOL0     H22705   4.784   4.934   6.811  0.7754 -0.4910 -0.3251
  165MOL0     H22706   4.787   5.023   6.975 -3.7731  4.3707  0.8047
  165MOL0     H22707   4.773   5.244   6.874  0.2575  0.5477  0.2413
  165MOL0     H22708   4.789   5.177   6.710  0.8852 -1.5024 -0.2661
  165MOL0     H22709   4.570   5.094   6.923 -3.2009  2.7957  0.8623
  165MOL0     H22710   4.545   5.235   6.823  0.3856 -0.8883 -1.3829
  165MOL0     H22711   4.452   5.000   6.762  2.0117  1.2052  1.3970
  165MOL0     H22712   4.610   4.959   6.697 -1.9112 -1.8906 -0.5488
  165MOL0     H22713   4.435   5.196   6.646  0.4473 -0.1201 -0.0233
  165MOL0     H22714   4.586   5.189   6.562 -0.9679  2.0261  1.5182
  165MOL0     H22715   4.360   4.973   6.552  0.1576 -0.5581 -0.6593
  165MOL0     H22716   4.494   4.996   6.426  1.9592  1.5404 -0.3369
  165MOL0     H22717   4.289   5.214   6.493 -1.2420 -1.4781  1.4794
  165MOL0     H22718   4.377   5.195   6.345 -2.6030  0.8955 -0.3970
  165MOL0     H22719   4.324   4.900   6.257  1.8490 -2.0228  4.9853
  165MOL0     H22720   3.938   4.799   6.200  0.2530 -1.3809  1.0887
  165MOL0     H22721   4.102   4.721   6.217 -1.6435 -1.8426 -2.0782
  165MOL0     H22722   4.152   4.885   6.016 -1.2780  0.5590  1.3294
  165MOL0     H22723   4.069   4.737   5.992  0.4460  0.6107 -1.6878
  165MOL0     H22724   3.955   5.019   5.995  1.5861  0.3217 -1.8570
  165MOL0     H22725   3.957   4.922   5.855  0.6360 -2.8487 -0.0959
  165MOL0     H22726   3.767   4.878   6.097 -0.9422  3.1925 -0.3000
  165MOL0     H22727   3.726   4.924   5.953  2.5046  1.5627 -2.4183
  165MOL0     H22728   3.762   4.493   5.873 -1.9840 -1.5383 -0.0562
  165MOL0     H22729   3.647   4.348   5.556  2.4738  0.1437 -0.3542
  165MOL0     H22730   3.542   4.325   5.696 -0.2265  0.3847 -2.2304
  165MOL0     H22731   3.707   4.317   5.719 -1.2996 -0.7663  1.2729
  165MOL0     H22732   3.510   4.242   5.326  0.2510  1.3928 -0.3779
  165MOL0     H22733   3.338   4.145   5.156  2.2325 -0.2610  1.2454
  165MOL0     H22734   3.258   4.195   4.958  0.1216  1.2491  0.4346
  165MOL0     H22735   3.167   4.086   5.059  0.7025  1.0506  2.6065
  165MOL0     H22736   3.065   4.058   4.838 -4.1280 -0.8306  0.8360
  165MOL0     H22737   2.958   4.142   4.943  0.6696 -1.0997  0.8672
  165MOL0     H22738   3.128   4.315   4.774  0.5169  1.6381  0.3623
  165MOL0     H22739   2.986   4.347   4.851 -1.6029  0.3347 -2.1968
  165MOL0     H22740   2.852   4.205   4.685  1.0448  0.2011 -0.3030
  165MOL0     H22741   2.980   4.113   4.644 -2.6875 -0.5582 -2.8390
  165MOL0     H22742   2.941   4.413   4.584  0.4222  0.3369 -0.5396
  165MOL0     H22743   3.092   4.329   4.534  0.4825 -0.3021 -1.0553
  165MOL0     H22744   2.816   4.238   4.454  0.3618  3.6131  2.3078
  165MOL0     H22745   2.972   4.171   4.398  0.3729  0.5821  0.4032
  165MOL0     H22746   3.019   4.408   4.302 -0.6618  2.6759 -1.3254
  165MOL0     H22747   2.854   4.440   4.350 -1.5699 -1.6197  2.6013
  165MOL0     H22748   2.864   4.368   4.107  1.3908 -1.2127 -0.6279
  165MOL0     H22749   2.777   4.247   4.197 -0.5818  1.8208 -0.5881
  165MOL0     H22750   3.065   4.449   5.266  0.6644  0.9777  2.0264
  165MOL0     H22751   3.224   4.533   5.426 -0.6788 -0.4945 -1.1305
  165MOL0     H22752   3.584   4.831   5.565  1.0441 -0.6869 -0.9240
  165MOL0     H22753   3.700   4.895   5.753  2.1060 -0.6329  1.4479
  165MOL0     H22754   5.227   4.949   6.827  2.1390 -1.2392  1.7118
  165MOL0     H22755   5.451   5.003   6.801 -0.9031 -0.2776 -2.0563
  165MOL0     H22756   5.731   5.473   6.785 -1.9051 -3.2941  0.1065
  165MOL0     H22757   5.951   5.579   6.776  0.9436 -0.0532 -0.9161
  165MOL0     H22758   6.179   5.633   6.661 -0.5293  2.1263  1.0321
  165MOL0     H22759   6.152   5.634   6.831  1.0353 -0.2160  1.2809
  165MOL0     H22760   6.394   5.568   6.878 -1.2137 -0.0015  0.8408
  165MOL0     H22761   6.388   5.708   6.774  0.0032 -0.0310  0.9908
  165MOL0     H22762   6.444   5.420   6.680 -0.5199 -0.0185 -1.9251
  165MOL0     H22763   6.416   5.563   6.575  0.9481  3.7759 -0.3349
  165MOL0     H22764   6.633   5.547   6.795 -0.9052 -1.8862  0.8273
  165MOL0     H22765   6.626   5.671   6.663 -1.5768 -0.9694 -0.9382
  165MOL0     H22766   6.765   5.387   6.411 -1.7519  1.5138 -1.5246
  165MOL0     H22767   6.137   5.209   6.746  0.2819 -1.3708 -0.4985
  165MOL0     H22768   5.890   4.999   6.659 -0.0830 -2.5143  1.0074
  165MOL0     H22769   6.037   5.007   6.773 -0.6999 -0.1730  1.2955
  165MOL0     H22770   5.869   4.994   6.826  1.5054 -0.5939  2.2210
  166MOL0     O22771  11.522  11.184   7.118  1.0836 -0.2523 -0.0044
  166MOL0     C22772  11.587  11.267   7.056 -0.6099 -0.3592  0.3681
  166MOL0     O22773  11.584  11.400   7.083  0.3473  0.3049 -0.8488
  166MOL0     C22774  11.505  11.427   7.193  0.6163  0.4992 -0.4116
  166MOL0     C22775  11.550  11.429   7.324 -0.0385  0.5639 -0.6211
  166MOL0     C22776  11.472  11.456   7.445  0.0773 -0.0848  0.6638
  166MOL0     C22777  11.339  11.507   7.417  0.2084 -0.8315  0.1384
  166MOL0     O22778  11.255  11.568   7.509 -0.0487  0.4275  0.7873
  166MOL0     C22779  11.294  11.553   7.649  0.9997  0.2019 -0.2553
  166MOL0     C22780  11.178  11.617   7.728  0.0693 -0.0562 -0.0313
  166MOL0     C22781  11.045  11.549   7.760  0.1039  0.3690  0.9923
  166MOL0     C22782  10.973  11.624   7.871  0.5657  0.1267  0.2232
  166MOL0     C22783  10.842  11.554   7.913 -0.1482  0.8975 -0.0692
  166MOL0     C22784  10.847  11.408   7.943 -0.6096  0.4727  0.1369
  166MOL0     C22785  10.707  11.347   7.972 -0.8669 -0.5836 -0.5808
  166MOL0     C22786  10.677  11.250   7.872 -0.0990  0.8052 -0.3601
  166MOL0     N22787  10.632  11.314   7.747 -0.2168  0.5202 -0.3438
  166MOL0     C22788  10.532  11.414   7.736 -0.4108  1.0016  0.1772
  166MOL0     C22789  10.549  11.447   7.607  0.7203 -0.1100  0.1247
  166MOL0     C22790  10.472  11.551   7.548  0.1827 -1.1169  0.4673
  166MOL0     C22791  10.333  11.514   7.500 -0.0622 -0.0459  0.0205
  166MOL0     C22792  10.327  11.474   7.354  0.1630  0.4540  1.1520
  166MOL0     C22793  10.232  11.353   7.337 -0.4214 -0.5473  0.6707
  166MOL0     O22794  10.186  11.357   7.195  0.4327  0.4808 -0.7163
  166MOL0     C22795  10.154  11.238   7.126 -0.5976  0.1245 -0.2767
  166MOL0     C22796  10.181  11.234   6.991  0.0446 -0.0999  0.4861
  166MOL0     C22797  10.148  11.117   6.913  0.6238 -0.2968  0.3141
  166MOL0     C22798  10.189  11.132   6.755  0.6332 -0.3503 -0.1060
  166MOL0     C22799  10.084  11.011   6.978  0.8045 -0.5563 -0.3556
  166MOL0     C22800  10.007  10.910   6.899  0.7794  0.2456 -0.1216
  166MOL0     O22801  10.015  10.781   6.939  0.5049 -0.6832  0.6074
  166MOL0     C22802   9.993  10.682   6.849 -0.1666  0.0731  0.7039
  166MOL0     C22803  10.003  10.552   6.907  1.1051 -0.5166 -0.4149
  166MOL0     C22804   9.969  10.439   6.834 -0.4541  0.4019  0.4401
  166MOL0     C22805   9.948  10.452   6.694 -0.9662  0.9109 -1.2987
  166MOL0     O22806   9.915  10.349   6.614 -0.8388  0.3808  0.2188
  166MOL0     C22807   9.916  10.216   6.666 -0.5629 -0.0324 -0.7324
  166MOL0     C22808   9.828  10.127   6.587  0.7465  0.7252 -0.4297
  166MOL0     C22809   9.871  10.110   6.448  1.5015  0.6159 -0.4263
  166MOL0     C22810   9.781  10.010   6.377 -0.8018  0.5626  0.3110
  166MOL0     C22811   9.823  10.004   6.232 -0.4693 -0.3923  0.4841
  166MOL0     C22812   9.719   9.926   6.144  0.2947 -0.4980  0.3349
  166MOL0     C22813   9.755   9.949   6.000 -1.0001  0.7596 -0.5378
  166MOL0     C22814   9.692   9.836   5.922 -0.5794 -0.0301  1.2044
  166MOL0    Cl22815   9.780   9.679   5.937 -0.2819  0.1156  0.0015
  166MOL0     C22816   9.954  10.575   6.631 -0.0626 -0.6935 -0.6006
  166MOL0     C22817   9.978  10.688   6.712 -0.0352  1.1041  0.5483
  166MOL0     O22818   9.949  10.958   6.798 -0.6118 -0.2258  0.8427
  166MOL0     C22819  10.076  11.009   7.120 -0.5572 -0.5224 -0.2093
  166MOL0     C22820  10.102  11.130   7.189  0.0794  0.6989  0.6204
  166MOL0     N22821  10.659  11.380   7.549  0.0241  0.2922  0.1239
  166MOL0     N22822  10.714  11.309   7.640  0.3953 -0.2819 -0.3905
  166MOL0     C22823  11.302  11.519   7.282  0.2691 -0.2636  1.0445
  166MOL0     C22824  11.384  11.479   7.175 -0.0468  0.0390  0.4839
  166MOL0     C22825  11.704  11.219   6.981 -0.3864 -0.5640  0.7241
  166MOL0     C22826  11.771  11.314   6.903  0.7910  0.4863 -0.3065
  166MOL0     C22827  11.865  11.272   6.813  0.2764  1.1293  0.5931
  166MOL0     C22828  11.906  11.131   6.814 -0.0144 -0.4844 -0.3596
  166MOL0     O22829  12.001  11.075   6.745  0.5323 -0.3314 -0.1165
  166MOL0     C22830  12.077  11.144   6.640  0.5004  1.2668  0.6292
  166MOL0     C22831  11.994  11.183   6.515  0.7162  0.3549  0.3652
  166MOL0     C22832  12.077  11.261   6.417 -0.1867  0.8172 -1.2103
  166MOL0     C22833  12.112  11.402   6.469  0.0496 -0.3497 -0.7214
  166MOL0     C22834  12.000  11.498   6.504 -1.3033 -0.3920  0.1025
  166MOL0     C22835  11.917  11.581   6.534 -0.0576  0.0934  0.1218
  166MOL0     C22836  11.844  11.047   6.901  0.0624  0.1803 -0.9435
  166MOL0     C22837  11.742  11.085   6.990 -0.2957  0.5216  0.4491
  166MOL0     C22838  11.676  10.972   7.074  0.0373  0.8527  0.0761
  166MOL0     H22839  11.653  11.404   7.347  0.8004  3.8599 -0.2665
  166MOL0     H22840  11.520  11.462   7.542  2.1745  0.9861 -0.3678
  166MOL0     H22841  11.382  11.614   7.673  0.3178  0.6652  1.1579
  166MOL0     H22842  11.300  11.447   7.673  2.8206  0.0908 -1.0266
  166MOL0     H22843  11.223  11.630   7.827 -3.8215  1.1237  1.7991
  166MOL0     H22844  11.158  11.711   7.676  1.2998  1.5185  2.1557
  166MOL0     H22845  10.986  11.525   7.671 -0.0847 -3.9224  2.0534
  166MOL0     H22846  11.069  11.449   7.797 -0.6239 -0.8019 -1.4919
  166MOL0     H22847  11.032  11.638   7.962 -0.1989 -0.4352  0.8161
  166MOL0     H22848  10.950  11.723   7.832  2.1339  1.0522  1.5044
  166MOL0     H22849  10.770  11.567   7.831  1.0430  2.0950 -0.9632
  166MOL0     H22850  10.808  11.607   8.002 -1.3871  2.1361 -1.2205
  166MOL0     H22851  10.884  11.362   7.851 -2.0122 -0.2034 -0.1241
  166MOL0     H22852  10.913  11.378   8.025  1.3669 -1.6371 -2.0936
  166MOL0     H22853  10.633  11.424   7.998 -0.1804  0.7230 -2.3446
  166MOL0     H22854  10.712  11.291   8.066 -1.8201 -0.4805 -0.4597
  166MOL0     H22855  10.761  11.183   7.848 -0.6144  0.1979 -0.4770
  166MOL0     H22856  10.596  11.183   7.903  0.3380  0.0549 -0.7809
  166MOL0     H22857  10.453  11.439   7.807  3.0986  2.4775  3.9735
  166MOL0     H22858  10.521  11.605   7.466  0.5672  0.4891  1.6979
  166MOL0     H22859  10.447  11.623   7.627 -3.0741  0.3497 -1.6754
  166MOL0     H22860  10.301  11.431   7.563  0.3282 -1.1395 -1.1727
  166MOL0     H22861  10.265  11.599   7.512 -0.4026 -0.5976  2.6209
  166MOL0     H22862  10.292  11.564   7.303  0.9130 -1.1821 -2.6087
  166MOL0     H22863  10.423  11.450   7.308 -0.0674 -1.2372  1.4570
  166MOL0     H22864  10.281  11.261   7.368 -0.1939 -1.4479 -2.1519
  166MOL0     H22865  10.146  11.368   7.404 -0.7605  1.0873 -0.0791
  166MOL0     H22866  10.234  11.320   6.953  3.4151 -3.0853 -2.2534
  166MOL0     H22867  10.186  11.041   6.693  3.8807  1.1302 -2.8005
  166MOL0     H22868  10.295  11.158   6.748  0.6101 -0.4954 -1.3276
  166MOL0     H22869  10.122  11.199   6.701  1.1808 -1.1981 -1.9579
  166MOL0     H22870  10.026  10.544   7.013 -3.4260  5.1773  1.5610
  166MOL0     H22871   9.963  10.342   6.882 -0.7177  2.0705  4.1385
  166MOL0     H22872  10.019  10.178   6.678 -0.1311  1.4545  0.5248
  166MOL0     H22873   9.871  10.206   6.765 -0.3246  0.1667 -0.6032
  166MOL0     H22874   9.826  10.027   6.632  0.8293  0.9490  0.0797
  166MOL0     H22875   9.724  10.158   6.587 -0.3566 -2.4423  1.5058
  166MOL0     H22876   9.972  10.070   6.430  1.1159  0.6590 -3.1072
  166MOL0     H22877   9.861  10.207   6.399 -4.1257  0.3293 -0.4536
  166MOL0     H22878   9.674  10.028   6.388 -1.5891 -3.4151  0.6692
  166MOL0     H22879   9.795   9.914   6.427  0.4495  0.0359 -0.9687
  166MOL0     H22880   9.840  10.106   6.197  2.4012 -0.6295  0.9346
  166MOL0     H22881   9.921   9.957   6.218 -1.5910 -3.1339  1.2431
  166MOL0     H22882   9.618   9.970   6.149  0.1519 -0.1001 -3.2644
  166MOL0     H22883   9.719   9.818   6.165 -1.1878 -1.3240 -3.1628
  166MOL0     H22884   9.864   9.949   5.992 -0.5721 -2.8342  2.4680
  166MOL0     H22885   9.718  10.041   5.953 -3.3613  0.8038  1.2123
  166MOL0     H22886   9.698   9.864   5.816 -2.7923 -1.4770  0.6160
  166MOL0     H22887   9.584   9.837   5.943 -0.8752  3.8731  0.2938
  166MOL0     H22888   9.935  10.584   6.524  1.5532  0.1724 -0.8506
  166MOL0     H22889   9.970  10.784   6.660  1.4063  0.0053 -1.9045
  166MOL0     H22890  10.036  10.923   7.172 -1.3898 -0.4709 -0.7569
  166MOL0     H22891  10.092  11.128   7.297  1.6248 -1.9007  0.8069
  166MOL0     H22892  11.214  11.580   7.265  0.4976  0.0428  0.9643
  166MOL0     H22893  11.360  11.490   7.070 -0.8336  0.6645  0.7245
  166MOL0     H22894  11.756  11.421   6.915 -0.9231  0.8157 -4.1125
  166MOL0     H22895  11.934  11.339   6.762  0.9334 -1.3161 -1.9727
  166MOL0     H22896  12.126  11.230   6.686  2.8965  1.7374 -2.4890
  166MOL0     H22897  12.158  11.081   6.604 -1.4136 -0.0252 -1.7806
  166MOL0     H22898  11.911  11.250   6.540 -1.2344 -0.7449 -2.6852
  166MOL0     H22899  11.946  11.096   6.470 -3.1259  1.1682  2.4271
  166MOL0     H22900  12.159  11.209   6.366  0.2652 -1.3781  1.5408
  166MOL0     H22901  12.002  11.291   6.343 -0.9699  1.8725 -0.0375
  166MOL0     H22902  12.163  11.460   6.391  0.6941  0.9452  0.6093
  166MOL0     H22903  12.178  11.393   6.556  1.2302 -1.6774 -1.7115
  166MOL0     H22904  11.836  11.642   6.568  0.3519  1.0465 -0.5676
  166MOL0     H22905  11.868  10.941   6.905  1.1152  0.4289 -0.1218
  166MOL0     H22906  11.731  10.878   7.084  0.1495  0.6044 -2.2686
  166MOL0     H22907  11.672  11.013   7.175  3.8129  0.1529  0.6763
  166MOL0     H22908  11.575  10.945   7.044 -0.2233  3.1392 -1.3444
  167MOL0     O22909   6.541   8.368   7.906 -0.8101  1.3987 -0.1545
  167MOL0     C22910   6.598   8.259   7.884  0.5300  0.5339  0.0169
  167MOL0     O22911   6.709   8.212   7.959 -0.7528 -0.0760  0.7027
  167MOL0     C22912   6.759   8.298   8.045  0.9311 -0.4469  0.4503
  167MOL0     C22913   6.848   8.399   8.000 -0.0948 -0.5775 -0.2123
  167MOL0     C22914   6.883   8.509   8.084  0.1566  0.3031  0.8290
  167MOL0     C22915   6.825   8.515   8.216 -0.6160 -0.3314  0.0457
  167MOL0     O22916   6.845   8.616   8.300  0.5302  0.4622  0.3095
  167MOL0     C22917   6.982   8.635   8.333 -0.1184 -0.5311  0.1826
  167MOL0     C22918   6.988   8.734   8.452 -0.0325 -0.4353 -0.0345
  167MOL0     C22919   6.953   8.663   8.582  0.2456  0.1465  0.8380
  167MOL0     C22920   7.018   8.724   8.714  0.4113  0.4867  0.3623
  167MOL0     C22921   6.980   8.643   8.845 -0.0831 -0.4136 -0.8001
  167MOL0     C22922   7.038   8.719   8.965 -0.2076  0.1748  0.1375
  167MOL0     C22923   6.994   8.648   9.100 -0.8943  0.0625  0.1922
  167MOL0     C22924   7.062   8.678   9.227 -1.0678 -0.2475 -0.8978
  167MOL0     N22925   7.050   8.816   9.272  0.0294  0.0115  0.3654
  167MOL0     C22926   6.937   8.878   9.338 -0.1172  0.7474 -0.1444
  167MOL0     C22927   6.969   9.013   9.340  0.0156  0.7961  0.6202
  167MOL0     C22928   6.893   9.126   9.407 -0.0973  0.1299 -0.3108
  167MOL0     C22929   6.808   9.189   9.290  0.1197 -0.6699  0.4707
  167MOL0     C22930   6.669   9.230   9.344 -0.1492 -0.0466 -0.8323
  167MOL0     C22931   6.585   9.113   9.383  0.0746  0.4748 -0.4357
  167MOL0     O22932   6.447   9.148   9.350 -0.3849 -0.9833  0.6809
  167MOL0     C22933   6.341   9.073   9.399  0.0735 -0.1517 -0.1392
  167MOL0     C22934   6.213   9.128   9.389 -0.8914  0.1413  0.0165
  167MOL0     C22935   6.101   9.084   9.452  0.7664  0.2338 -0.4784
  167MOL0     C22936   5.970   9.161   9.424  0.5444  0.5327 -0.8757
  167MOL0     C22937   6.119   8.961   9.535  0.5707 -0.6765  0.4692
  167MOL0     C22938   6.013   8.905   9.618 -0.4346  0.2980 -0.7376
  167MOL0     O22939   6.041   8.786   9.694  0.0308  0.1517 -0.3247
  167MOL0     C22940   5.977   8.764   9.815 -0.4244 -0.2461 -0.5058
  167MOL0     C22941   5.969   8.629   9.861 -0.7056  0.2874  0.5597
  167MOL0     C22942   5.913   8.597   9.983  0.0053  0.4639 -0.2696
  167MOL0     C22943   5.850   8.695  10.061  0.5405  0.3452  0.5010
  167MOL0     O22944   5.791   8.674  10.184 -0.1167  1.6186  0.2382
  167MOL0     C22945   5.850   8.569  10.263  0.1179 -0.0247  0.1282
  167MOL0     C22946   5.833   8.604  10.407  0.2696  0.2872  0.1077
  167MOL0     C22947   5.913   8.731  10.418 -0.3637 -0.5844  0.2859
  167MOL0     C22948   5.952   8.759  10.566 -0.1132  0.1309 -0.0889
  167MOL0     C22949   5.999   8.900  10.585  0.3015 -1.0983 -0.4683
  167MOL0     C22950   6.105   8.958  10.490 -0.1064 -0.7490  0.0348
  167MOL0     C22951   6.242   8.876  10.493 -1.0410 -0.8776 -1.1138
  167MOL0     C22952   6.337   8.897  10.380 -1.0898  0.2939  0.3985
  167MOL0    Cl22953   6.398   9.065  10.361  0.3856  0.1857 -0.8586
  167MOL0     C22954   5.853   8.828  10.013 -0.3208  1.5756 -0.3816
  167MOL0     C22955   5.913   8.865   9.893 -0.3967 -0.0501  0.1135
  167MOL0     O22956   5.903   8.951   9.605 -0.1573 -0.7620 -0.3466
  167MOL0     C22957   6.250   8.909   9.550 -0.0008 -0.0061 -0.3389
  167MOL0     C22958   6.356   8.961   9.479  0.0133  0.2693  0.2344
  167MOL0     N22959   7.093   9.028   9.272  0.3420 -1.0593 -0.1256
  167MOL0     N22960   7.139   8.914   9.240  0.3083 -0.3232  0.3112
  167MOL0     C22961   6.740   8.419   8.258 -0.1974  0.1851  0.1826
  167MOL0     C22962   6.712   8.309   8.178 -0.4347  0.3967  0.2075
  167MOL0     C22963   6.548   8.185   7.763  1.1644 -0.0824  0.7853
  167MOL0     C22964   6.462   8.254   7.678 -0.1755 -0.6489 -0.9728
  167MOL0     C22965   6.395   8.195   7.577  0.1541  0.5738 -0.2465
  167MOL0     C22966   6.407   8.065   7.540 -0.2432  0.6500 -0.6130
  167MOL0     O22967   6.368   8.000   7.428 -0.5326 -0.3682 -0.5069
  167MOL0     C22968   6.298   8.076   7.328 -0.2372  0.6253  0.8829
  167MOL0     C22969   6.238   7.990   7.217  0.4776 -0.2750 -0.1028
  167MOL0     C22970   6.352   7.920   7.133  0.1346 -0.4948  0.0901
  167MOL0     C22971   6.300   7.854   7.010  0.3807  0.3797 -0.1260
  167MOL0     C22972   6.393   7.761   6.954 -0.2725 -0.0668 -0.7415
  167MOL0     C22973   6.468   7.688   6.900  0.5906  0.2321 -0.2583
  167MOL0     C22974   6.492   7.992   7.617 -0.0075 -0.4679 -1.3136
  167MOL0     C22975   6.562   8.044   7.732 -0.3896 -0.3777  0.7038
  167MOL0     C22976   6.631   7.944   7.821  0.0267  0.6906 -0.0134
  167MOL0     H22977   6.882   8.400   7.897 -0.2889  0.0096 -0.2761
  167MOL0     H22978   6.961   8.575   8.048  1.1793 -1.0799  0.4199
  167MOL0     H22979   7.020   8.687   8.245 -0.2228  1.8331  1.4454
  167MOL0     H22980   7.043   8.544   8.342  1.7049  0.0470 -4.1039
  167MOL0     H22981   7.088   8.779   8.453 -0.8640  1.5767  2.0964
  167MOL0     H22982   6.919   8.814   8.425  1.4204  0.9757  0.2633
  167MOL0     H22983   6.845   8.675   8.601 -0.7069 -4.2913 -0.5996
  167MOL0     H22984   6.979   8.557   8.578  0.7197  0.3041 -0.6446
  167MOL0     H22985   7.126   8.710   8.702  0.0531 -0.5869 -2.4059
  167MOL0     H22986   6.984   8.827   8.724 -2.3531 -0.3950  0.8723
  167MOL0     H22987   7.018   8.541   8.836 -0.0512 -0.5229  0.4187
  167MOL0     H22988   6.872   8.632   8.852 -0.0368 -0.7871 -0.6445
  167MOL0     H22989   7.147   8.726   8.958 -0.0811 -1.6875 -0.1878
  167MOL0     H22990   6.993   8.818   8.980  0.4534  0.4364  0.4033
  167MOL0     H22991   7.016   8.545   9.068  0.1161  0.0977  0.7519
  167MOL0     H22992   6.889   8.662   9.130 -0.0643  0.1802  3.3417
  167MOL0     H22993   7.029   8.607   9.303  0.2669  2.0069  1.9883
  167MOL0     H22994   7.170   8.669   9.214 -1.1490 -3.1686 -0.0766
  167MOL0     H22995   6.851   8.835   9.388  1.6552 -2.6517  0.2492
  167MOL0     H22996   6.960   9.193   9.463  1.0960 -1.4431  0.2369
  167MOL0     H22997   6.827   9.078   9.480 -0.6924  0.9458 -0.3110
  167MOL0     H22998   6.855   9.283   9.259 -4.9133  1.1503 -2.9486
  167MOL0     H22999   6.785   9.123   9.206 -2.6238 -1.3839  1.6672
  167MOL0     H23000   6.677   9.288   9.437 -1.9654  0.4521 -0.9469
  167MOL0     H23001   6.620   9.301   9.276  0.8429  3.0808  1.4839
  167MOL0     H23002   6.623   9.037   9.314 -1.0408  0.4503 -1.0475
  167MOL0     H23003   6.583   9.071   9.484  0.6757  0.9473 -0.2238
  167MOL0     H23004   6.207   9.211   9.319  4.8287 -0.1814 -1.3693
  167MOL0     H23005   5.987   9.242   9.352 -0.4530  0.1556 -1.5497
  167MOL0     H23006   5.929   9.213   9.511  0.7357 -0.4354 -0.1897
  167MOL0     H23007   5.902   9.088   9.382 -0.1397  2.3743 -3.1981
  167MOL0     H23008   6.011   8.557   9.792  1.6376  2.3469 -0.3604
  167MOL0     H23009   5.906   8.492  10.011  1.3875  0.4499  0.1333
  167MOL0     H23010   5.800   8.472  10.253 -1.3272  0.3999  2.5481
  167MOL0     H23011   5.955   8.553  10.235  0.0038 -0.7550  0.0916
  167MOL0     H23012   5.732   8.612  10.446 -0.5418 -0.0473 -1.8179
  167MOL0     H23013   5.890   8.534  10.470  1.1861  1.6091  0.7805
  167MOL0     H23014   5.862   8.815  10.368 -0.7922 -1.2623 -0.4448
  167MOL0     H23015   6.009   8.730  10.364  0.5601 -1.6808  1.8709
  167MOL0     H23016   6.031   8.696  10.609 -0.2299  0.8655  1.2561
  167MOL0     H23017   5.862   8.735  10.623 -0.1350  0.6677  0.1023
  167MOL0     H23018   5.912   8.961  10.558  1.2780  0.7500  0.3235
  167MOL0     H23019   6.027   8.929  10.687 -3.0868 -0.1044  0.3162
  167MOL0     H23020   6.105   9.067  10.498  1.5517 -0.6098 -1.3203
  167MOL0     H23021   6.069   8.944  10.388  2.1717  1.5085 -1.1842
  167MOL0     H23022   6.218   8.770  10.501  0.5072 -1.1706  0.1386
  167MOL0     H23023   6.286   8.904  10.589 -2.6854 -0.2603 -0.4921
  167MOL0     H23024   6.269   8.872  10.298  0.6466 -3.9548  0.0013
  167MOL0     H23025   6.422   8.828  10.380 -1.7372 -0.5502 -0.7493
  167MOL0     H23026   5.782   8.895  10.060 -3.8465 -0.9595 -1.7009
  167MOL0     H23027   5.899   8.965   9.854 -0.2467  0.9635  2.4934
  167MOL0     H23028   6.277   8.824   9.612  0.4269 -0.8910 -1.6853
  167MOL0     H23029   6.454   8.918   9.496 -0.2004 -0.2739  0.1224
  167MOL0     H23030   6.690   8.431   8.354  0.7761 -0.5651  0.8026
  167MOL0     H23031   6.643   8.241   8.226 -1.0324  2.3792  2.3480
  167MOL0     H23032   6.446   8.361   7.692  1.0566 -0.4878 -0.7204
  167MOL0     H23033   6.342   8.261   7.509  0.0285  2.2389  1.3724
  167MOL0     H23034   6.210   8.120   7.376 -1.0564 -0.8364  0.7826
  167MOL0     H23035   6.353   8.159   7.284 -2.6187  1.3610 -0.9525
  167MOL0     H23036   6.173   8.046   7.148  0.7734 -3.0571 -2.9141
  167MOL0     H23037   6.179   7.905   7.254  0.5134 -0.7241 -1.0329
  167MOL0     H23038   6.432   7.983   7.094 -1.8041  0.7955 -2.0419
  167MOL0     H23039   6.397   7.847   7.201  0.0966 -2.3153 -1.7713
  167MOL0     H23040   6.278   7.927   6.931  0.9916 -0.5165 -1.1552
  167MOL0     H23041   6.206   7.806   7.038  0.4924  0.5383  0.5332
  167MOL0     H23042   6.516   7.601   6.859  0.9507  1.1466 -1.8843
  167MOL0     H23043   6.494   7.886   7.593  1.9688 -1.9074  3.9025
  167MOL0     H23044   6.590   7.927   7.921  2.1860 -4.9060  0.2752
  167MOL0     H23045   6.621   7.846   7.774 -4.1960  1.0493 -0.2555
  167MOL0     H23046   6.737   7.962   7.842  1.0094 -1.6485 -2.4385
  168MOL0     O23047   4.868   5.368   8.593 -0.0410 -0.5195 -0.6223
  168MOL0     C23048   4.755   5.323   8.621 -0.3406  1.3124  1.0638
  168MOL0     O23049   4.635   5.357   8.554  0.4453  0.6071  0.2526
  168MOL0     C23050   4.646   5.473   8.478 -0.6529  0.7613 -0.5061
  168MOL0     C23051   4.616   5.594   8.541 -0.1614 -0.8980  0.4366
  168MOL0     C23052   4.610   5.709   8.464 -0.3664 -0.5942 -0.3833
  168MOL0     C23053   4.647   5.710   8.327  0.7577 -0.5882  0.7221
  168MOL0     O23054   4.661   5.833   8.274 -0.3323 -0.1399  0.5541
  168MOL0     C23055   4.761   5.845   8.171 -0.5613 -1.2193  0.2218
  168MOL0     C23056   4.776   5.994   8.119  0.8576 -0.1161  0.0962
  168MOL0     C23057   4.832   6.071   8.234  0.1012  0.6356 -0.6457
  168MOL0     C23058   4.800   6.220   8.221 -0.4000 -0.9113 -0.5742
  168MOL0     C23059   4.852   6.292   8.095  0.4343 -0.5015 -0.0114
  168MOL0     C23060   4.824   6.448   8.107 -0.4335 -0.0704  0.2081
  168MOL0     C23061   4.890   6.524   7.993 -0.8387 -0.3746 -0.5352
  168MOL0     C23062   4.867   6.676   8.024  0.2685  0.2145 -0.5617
  168MOL0     N23063   4.939   6.765   7.928  0.5337  0.4598 -0.4885
  168MOL0     C23064   4.924   6.905   7.924  0.3309  0.7290  0.2273
  168MOL0     C23065   5.011   6.943   7.830 -0.8822 -0.2334 -0.8249
  168MOL0     C23066   5.031   7.085   7.789  0.2573 -0.4395 -0.4906
  168MOL0     C23067   5.122   7.098   7.667  0.4999  0.0644 -0.2501
  168MOL0     C23068   5.273   7.062   7.694 -0.2465 -0.4021 -0.6632
  168MOL0     C23069   5.347   7.178   7.751  0.6382  0.6304  0.1688
  168MOL0     O23070   5.485   7.147   7.744  0.0379  0.4975  0.4256
  168MOL0     C23071   5.574   7.219   7.815 -0.1100 -0.6379  0.0878
  168MOL0     C23072   5.710   7.187   7.803 -0.4226 -0.6474  0.6991
  168MOL0     C23073   5.809   7.255   7.868 -1.2817 -0.0128  0.8566
  168MOL0     C23074   5.953   7.201   7.846 -0.3035  1.1471  0.4897
  168MOL0     C23075   5.776   7.356   7.956 -1.0695 -0.0267  0.7962
  168MOL0     C23076   5.880   7.428   8.029  0.8363  0.1181 -1.0306
  168MOL0     O23077   5.850   7.441   8.160  0.2891  1.3351 -0.3254
  168MOL0     C23078   5.949   7.488   8.246 -0.4198  0.2986 -0.2165
  168MOL0     C23079   5.975   7.400   8.349 -0.8653 -0.6221 -1.3401
  168MOL0     C23080   6.075   7.435   8.439 -0.1614  0.2232  0.1331
  168MOL0     C23081   6.145   7.554   8.431 -0.7457  0.3929  0.3938
  168MOL0     O23082   6.250   7.566   8.524  0.6214  0.7385 -0.0679
  168MOL0     C23083   6.225   7.663   8.631 -0.4341  0.0612 -0.0572
  168MOL0     C23084   6.372   7.688   8.674  0.2070  0.9146  0.3001
  168MOL0     C23085   6.371   7.733   8.822 -0.7540 -0.0650 -0.1885
  168MOL0     C23086   6.505   7.747   8.884  0.2479 -0.5589  0.0075
  168MOL0     C23087   6.495   7.792   9.029 -0.1059  0.2123 -0.1249
  168MOL0     C23088   6.625   7.812   9.087 -1.6113  0.9209 -0.6473
  168MOL0     C23089   6.631   7.855   9.233  0.4930  0.8847 -1.1922
  168MOL0     C23090   6.767   7.912   9.280 -0.7660  0.7841 -0.0597
  168MOL0    Cl23091   6.889   7.780   9.320  0.2998 -0.1554 -0.0035
  168MOL0     C23092   6.114   7.651   8.334  0.8820  0.2073 -0.5617
  168MOL0     C23093   6.015   7.614   8.230 -0.1401  0.4987 -0.0899
  168MOL0     O23094   5.987   7.460   7.978 -0.9643  0.0919  0.1390
  168MOL0     C23095   5.644   7.384   7.971  0.4476  0.4885 -0.6357
  168MOL0     C23096   5.548   7.325   7.907 -0.2527  0.4463  0.0396
  168MOL0     N23097   5.071   6.830   7.768  0.8354 -0.9953 -0.0099
  168MOL0     N23098   5.035   6.725   7.828 -0.4342 -0.4890 -0.4164
  168MOL0     C23099   4.685   5.591   8.264  0.7336 -0.6413 -0.0458
  168MOL0     C23100   4.673   5.468   8.341  0.0556 -0.3363  0.7497
  168MOL0     C23101   4.765   5.190   8.695 -0.1806  0.0161  0.8641
  168MOL0     C23102   4.679   5.093   8.654  0.4193 -0.3768  0.2015
  168MOL0     C23103   4.680   4.971   8.721 -0.2986 -0.2314 -0.2339
  168MOL0     C23104   4.758   4.954   8.834  0.6333  0.1952 -0.8741
  168MOL0     O23105   4.742   4.838   8.919 -0.0115  0.0972 -0.3980
  168MOL0     C23106   4.637   4.748   8.897 -0.1179  0.3580 -0.0115
  168MOL0     C23107   4.673   4.656   8.778 -0.0541  1.0020 -0.3461
  168MOL0     C23108   4.814   4.592   8.782 -0.6420 -0.3573  0.6358
  168MOL0     C23109   4.828   4.446   8.739  0.1251  0.1909  0.2088
  168MOL0     C23110   4.976   4.427   8.703 -0.0257 -0.5936 -1.0467
  168MOL0     C23111   5.095   4.398   8.677  0.0365  0.7195 -0.8452
  168MOL0     C23112   4.858   5.037   8.874  0.2611  0.0728  1.5461
  168MOL0     C23113   4.867   5.156   8.796  0.9665  0.4152 -0.2610
  168MOL0     C23114   4.972   5.244   8.859 -0.3208 -0.5603  0.9090
  168MOL0     H23115   4.584   5.604   8.644 -0.3249  0.7031  0.2589
  168MOL0     H23116   4.598   5.805   8.513 -1.2817 -0.3868 -0.9804
  168MOL0     H23117   4.723   5.780   8.092  0.4472 -1.5233 -0.0283
  168MOL0     H23118   4.861   5.808   8.196  1.0657  1.1934 -2.0665
  168MOL0     H23119   4.841   5.994   8.031  2.5338 -2.8060  1.2135
  168MOL0     H23120   4.676   6.035   8.101 -0.2188 -1.3164  2.8171
  168MOL0     H23121   4.806   6.028   8.331 -0.4142  0.7880 -0.7111
  168MOL0     H23122   4.939   6.069   8.214 -0.2370 -0.0584 -2.6410
  168MOL0     H23123   4.698   6.257   8.235  0.0610  1.1069 -2.0423
  168MOL0     H23124   4.845   6.269   8.308 -0.2385  1.8425 -2.0968
  168MOL0     H23125   4.805   6.256   8.003 -0.2227 -1.0424  0.5221
  168MOL0     H23126   4.957   6.273   8.075  0.3197 -1.6343  0.4312
  168MOL0     H23127   4.717   6.463   8.095  0.2326  3.5682 -2.6987
  168MOL0     H23128   4.868   6.490   8.198  2.7309  1.4765 -1.8647
  168MOL0     H23129   4.845   6.489   7.900  1.4785  1.0469 -2.3084
  168MOL0     H23130   4.998   6.506   7.986 -0.0939  3.5856 -1.8170
  168MOL0     H23131   4.761   6.691   8.001  0.3353 -0.4649 -1.3467
  168MOL0     H23132   4.888   6.712   8.125  2.9469 -1.4611 -0.4211
  168MOL0     H23133   4.859   6.973   7.978 -0.9858  0.9163 -1.4975
  168MOL0     H23134   5.084   7.137   7.869  0.4036 -1.2095 -0.0832
  168MOL0     H23135   4.930   7.128   7.781 -1.2318 -2.1042  4.9166
  168MOL0     H23136   5.086   7.024   7.595 -1.0251 -2.0459  2.4665
  168MOL0     H23137   5.120   7.194   7.615  0.6995 -1.0362 -2.3980
  168MOL0     H23138   5.287   6.972   7.753  0.2111 -0.6950 -1.2105
  168MOL0     H23139   5.318   7.052   7.595 -3.3646  1.7795 -2.4759
  168MOL0     H23140   5.333   7.264   7.686  2.1630  0.5451 -0.3034
  168MOL0     H23141   5.322   7.196   7.856  0.7389 -0.0371  0.3077
  168MOL0     H23142   5.721   7.095   7.746  0.3494  0.0300 -0.2644
  168MOL0     H23143   6.013   7.276   7.793 -0.6468  3.2703  2.8860
  168MOL0     H23144   5.947   7.103   7.798 -1.9862  1.3408  0.2681
  168MOL0     H23145   6.002   7.191   7.944 -1.1244 -2.0959  0.6611
  168MOL0     H23146   5.926   7.303   8.354  0.4423 -1.3352  3.4306
  168MOL0     H23147   6.103   7.355   8.508  1.0587  1.4409  1.1166
  168MOL0     H23148   6.182   7.761   8.608  1.6136  1.0451  0.0889
  168MOL0     H23149   6.169   7.610   8.709 -1.1343 -1.4895 -1.5569
  168MOL0     H23150   6.428   7.594   8.666 -0.7031  0.2123  1.7817
  168MOL0     H23151   6.416   7.768   8.614 -1.0416  1.9920  0.7795
  168MOL0     H23152   6.313   7.654   8.870  0.5266 -1.7084 -1.2741
  168MOL0     H23153   6.332   7.834   8.840  0.7394  0.0840  2.9651
  168MOL0     H23154   6.552   7.833   8.835 -0.7309 -1.4446 -2.6454
  168MOL0     H23155   6.570   7.659   8.880  1.9868  0.6286  0.9138
  168MOL0     H23156   6.440   7.887   9.034 -0.5011  0.0215 -0.7430
  168MOL0     H23157   6.438   7.721   9.091  0.6149 -1.9590 -1.8457
  168MOL0     H23158   6.673   7.894   9.033 -3.4726  2.2514 -0.4004
  168MOL0     H23159   6.690   7.728   9.063 -0.7416  1.5081 -0.3720
  168MOL0     H23160   6.605   7.769   9.295 -1.0383  1.7541 -0.5642
  168MOL0     H23161   6.558   7.935   9.249  1.1292  1.3622 -0.6165
  168MOL0     H23162   6.754   7.982   9.363 -1.6446  0.3637  0.1772
  168MOL0     H23163   6.801   7.984   9.206 -1.0547  1.5580  0.5415
  168MOL0     H23164   6.167   7.745   8.325  2.4941 -0.6372 -0.1508
  168MOL0     H23165   5.984   7.679   8.148  0.1136 -0.5468 -1.0457
  168MOL0     H23166   5.624   7.457   8.049  1.6144 -0.3774  0.5237
  168MOL0     H23167   5.449   7.365   7.924 -0.2219 -0.1203  1.7810
  168MOL0     H23168   4.708   5.586   8.158  2.5044  1.0958  0.1927
  168MOL0     H23169   4.666   5.378   8.280  0.6194 -1.0977  1.7803
  168MOL0     H23170   4.609   5.113   8.575 -0.2772 -1.2936  0.5642
  168MOL0     H23171   4.596   4.908   8.693  0.2379 -0.8688 -0.4394
  168MOL0     H23172   4.620   4.683   8.984  2.0929 -0.5386 -0.1810
  168MOL0     H23173   4.543   4.799   8.878 -2.1300 -2.7278  0.9041
  168MOL0     H23174   4.663   4.703   8.680  2.4960  0.5737 -0.8982
  168MOL0     H23175   4.589   4.586   8.776  0.3726  0.4129  0.7530
  168MOL0     H23176   4.879   4.654   8.720 -3.3751  1.6874 -0.3719
  168MOL0     H23177   4.865   4.610   8.878  2.9681 -2.0928 -0.7600
  168MOL0     H23178   4.761   4.436   8.653  0.2175  1.1251  0.0202
  168MOL0     H23179   4.796   4.378   8.818  1.0049 -0.2710  0.1844
  168MOL0     H23180   5.194   4.370   8.647  0.7899  4.1547 -2.0795
  168MOL0     H23181   4.925   5.018   8.957  1.5380 -1.0621  0.3247
  168MOL0     H23182   4.924   5.315   8.927 -0.8524 -2.2186  2.3331
  168MOL0     H23183   5.042   5.188   8.922 -1.3420  1.4577  4.0746
  168MOL0     H23184   5.021   5.300   8.778  1.2631 -1.1922  1.4119
  169MOL0     O23185   7.755   2.842   8.631  0.3698 -0.3203  0.0408
  169MOL0     C23186   7.720   2.939   8.567  0.1490 -0.4835 -0.0194
  169MOL0     O23187   7.706   3.067   8.620  0.5123  0.7073  0.6175
  169MOL0     C23188   7.734   3.099   8.749 -0.3310  1.1668 -0.2795
  169MOL0     C23189   7.840   3.047   8.821 -0.2753 -1.3195  1.1494
  169MOL0     C23190   7.858   3.079   8.949 -0.2339 -0.2439 -0.6553
  169MOL0     C23191   7.763   3.156   9.009 -0.0434 -1.2229 -0.5272
  169MOL0     O23192   7.805   3.190   9.138  0.7696 -0.5775  0.6397
  169MOL0     C23193   7.761   3.318   9.194  0.0474  0.3207  0.1296
  169MOL0     C23194   7.852   3.389   9.282 -0.8610 -0.3319  0.0264
  169MOL0     C23195   7.782   3.499   9.376  0.2278 -0.0508 -0.5443
  169MOL0     C23196   7.660   3.444   9.452  0.1097 -0.1859 -0.2207
  169MOL0     C23197   7.607   3.553   9.551  0.3027  0.2898  0.0060
  169MOL0     C23198   7.472   3.511   9.609  0.9637 -0.5905 -0.5698
  169MOL0     C23199   7.422   3.574   9.735  1.1491 -0.0770 -0.2153
  169MOL0     C23200   7.387   3.724   9.722 -0.0747  0.0820  0.4298
  169MOL0     N23201   7.298   3.770   9.828  0.4354  0.4660 -0.6818
  169MOL0     C23202   7.348   3.786   9.958  0.4176 -0.0786 -0.2199
  169MOL0     C23203   7.241   3.828  10.029  0.0247 -0.0333  0.4560
  169MOL0     C23204   7.225   3.878  10.168  1.0160  0.3903 -0.0902
  169MOL0     C23205   7.146   4.006  10.193  0.3875 -0.2337 -0.1045
  169MOL0     C23206   7.137   4.040  10.342  0.8651  0.5277  0.6314
  169MOL0     C23207   7.070   4.178  10.362 -0.0578 -0.8074 -0.8421
  169MOL0     O23208   6.936   4.167  10.318  0.3200  0.3903  0.6473
  169MOL0     C23209   6.857   4.277  10.346  0.6009 -0.3135  0.1308
  169MOL0     C23210   6.727   4.269  10.299 -0.7820 -0.4492 -0.0096
  169MOL0     C23211   6.626   4.370  10.324  0.2561  0.9758 -0.5151
  169MOL0     C23212   6.487   4.348  10.271  0.1401  0.3082 -0.3364
  169MOL0     C23213   6.661   4.488  10.388 -0.6269  0.1374 -0.1058
  169MOL0     C23214   6.569   4.603  10.422 -0.6314 -0.0034 -0.1750
  169MOL0     O23215   6.435   4.569  10.454  1.1138  0.3101 -0.1841
  169MOL0     C23216   6.342   4.672  10.463 -0.5937 -0.5123  0.6434
  169MOL0     C23217   6.232   4.644  10.382  0.2027  0.2879 -0.8458
  169MOL0     C23218   6.116   4.717  10.391 -0.9315 -0.4331 -0.8399
  169MOL0     C23219   6.108   4.832  10.481 -0.2947  0.0342 -0.2978
  169MOL0     O23220   6.004   4.914  10.502  0.4143  0.0586  0.5470
  169MOL0     C23221   5.874   4.872  10.453  0.1329 -0.5439  0.1397
  169MOL0     C23222   5.768   4.975  10.505  0.6856  0.2175 -0.2803
  169MOL0     C23223   5.730   4.957  10.658 -1.0921 -0.1205 -0.1540
  169MOL0     C23224   5.854   5.001  10.742  0.4367  0.0001  0.6143
  169MOL0     C23225   5.828   5.038  10.888 -0.1476 -0.3716 -0.3670
  169MOL0     C23226   5.711   5.142  10.924 -0.4215 -0.1443  0.0629
  169MOL0     C23227   5.590   5.061  10.976  0.6954  0.3009  0.5599
  169MOL0     C23228   5.466   5.151  10.997 -0.7404  0.1571  0.0891
  169MOL0    Cl23229   5.331   5.067  11.070 -0.2591 -0.1720  0.2744
  169MOL0     C23230   6.227   4.857  10.560 -0.5605 -1.2183  0.0530
  169MOL0     C23231   6.346   4.784  10.541  0.3136  0.2255  0.3235
  169MOL0     O23232   6.613   4.718  10.429  0.0295  0.1180 -0.6618
  169MOL0     C23233   6.796   4.497  10.424  0.1660  0.8164  0.0301
  169MOL0     C23234   6.891   4.394  10.415 -0.6184  0.6715 -0.1736
  169MOL0     N23235   7.131   3.819   9.944  0.0303 -0.1023 -0.3607
  169MOL0     N23236   7.165   3.770   9.828 -0.7573  0.4604  0.8604
  169MOL0     C23237   7.650   3.212   8.947 -0.0030  0.1271  0.3575
  169MOL0     C23238   7.642   3.185   8.810  0.6020 -0.6102  0.2863
  169MOL0     C23239   7.719   2.932   8.422  0.0995 -1.0336 -0.7044
  169MOL0     C23240   7.695   3.058   8.353  0.4520  1.4909  0.7787
  169MOL0     C23241   7.670   3.058   8.218 -0.7391  0.2519  0.2940
  169MOL0     C23242   7.689   2.939   8.139 -0.0048 -0.7447  0.3510
  169MOL0     O23243   7.698   2.948   8.009  0.5579 -0.2947  0.0332
  169MOL0     C23244   7.827   2.937   7.948  0.4145  0.3948  1.2789
  169MOL0     C23245   7.824   2.805   7.868 -1.0779 -1.0066  0.4975
  169MOL0     C23246   7.981   2.767   7.831 -0.4764 -0.2961 -0.0893
  169MOL0     C23247   8.010   2.626   7.757  0.3980  0.1185  0.6709
  169MOL0     C23248   7.997   2.635   7.610  0.2612 -0.0643 -0.6480
  169MOL0     C23249   7.945   2.639   7.505 -0.2752 -0.2931 -0.1850
  169MOL0     C23250   7.704   2.822   8.207  0.5469 -0.7010 -0.4203
  169MOL0     C23251   7.719   2.813   8.348  0.6301  0.0870 -0.4794
  169MOL0     C23252   7.731   2.674   8.394  0.2395 -0.2759  0.3359
  169MOL0     H23253   7.912   2.986   8.767 -1.4739 -0.1617 -1.9044
  169MOL0     H23254   7.944   3.071   9.015  0.2972 -1.5192 -1.4770
  169MOL0     H23255   7.668   3.309   9.250 -0.2802  1.3400 -0.2280
  169MOL0     H23256   7.742   3.381   9.107  1.0457  0.6404  0.1210
  169MOL0     H23257   7.906   3.320   9.348 -1.2542 -1.1581 -0.5080
  169MOL0     H23258   7.925   3.441   9.219 -3.2857 -1.2711 -3.8799
  169MOL0     H23259   7.856   3.526   9.452  0.6585 -1.8836 -0.2609
  169MOL0     H23260   7.744   3.578   9.311 -0.7572 -0.2476 -0.2250
  169MOL0     H23261   7.580   3.421   9.381  2.2448  0.8085 -3.1609
  169MOL0     H23262   7.689   3.359   9.516  2.1885  1.0798  0.6531
  169MOL0     H23263   7.583   3.643   9.494 -2.4975 -0.2090  0.2653
  169MOL0     H23264   7.681   3.582   9.625 -0.4913  0.7582  0.6226
  169MOL0     H23265   7.396   3.515   9.531  1.2014 -2.0013 -0.9077
  169MOL0     H23266   7.466   3.405   9.637 -0.1764 -0.8556 -1.7065
  169MOL0     H23267   7.504   3.540   9.801  1.1161 -1.2697 -0.7543
  169MOL0     H23268   7.327   3.531   9.767 -0.1503  2.7285 -0.0787
  169MOL0     H23269   7.483   3.774   9.708  0.9419 -2.4052 -2.7647
  169MOL0     H23270   7.325   3.747   9.635 -0.0197 -1.6754 -0.1143
  169MOL0     H23271   7.451   3.777   9.989  0.5487 -1.1178 -0.9264
  169MOL0     H23272   7.323   3.906  10.208  1.8957 -2.1412 -0.2902
  169MOL0     H23273   7.186   3.798  10.232 -0.9715 -0.1701 -1.8748
  169MOL0     H23274   7.196   4.093  10.150  0.0500  1.9917  3.6206
  169MOL0     H23275   7.048   3.987  10.148  0.7252 -0.4416 -0.7645
  169MOL0     H23276   7.079   3.963  10.395 -0.4976  0.9937 -0.1263
  169MOL0     H23277   7.230   4.052  10.398  0.0453  2.5235  1.6701
  169MOL0     H23278   7.065   4.202  10.469 -2.6414  0.9219 -1.2605
  169MOL0     H23279   7.121   4.253  10.301  0.1619  1.0626  1.4735
  169MOL0     H23280   6.701   4.186  10.234 -0.7217 -0.6263  0.1888
  169MOL0     H23281   6.441   4.293  10.354 -0.4046 -0.1381 -0.9276
  169MOL0     H23282   6.487   4.303  10.171  0.1756 -0.7205  0.1090
  169MOL0     H23283   6.436   4.444  10.264  0.5642  0.6826  1.3009
  169MOL0     H23284   6.235   4.556  10.319 -0.9447 -0.2128 -0.2374
  169MOL0     H23285   6.022   4.689  10.345 -2.0330 -0.3997  1.2514
  169MOL0     H23286   5.862   4.872  10.345  0.6830 -1.9119  0.0609
  169MOL0     H23287   5.833   4.778  10.493 -1.7917  0.1710 -0.0224
  169MOL0     H23288   5.809   5.074  10.486 -0.1428  1.0145  1.7732
  169MOL0     H23289   5.675   4.964  10.449 -0.6554 -0.4047  1.9548
  169MOL0     H23290   5.708   4.852  10.680 -0.5220  0.2619  2.6168
  169MOL0     H23291   5.642   5.017  10.682  1.2703  3.5298  0.2364
  169MOL0     H23292   5.898   5.091  10.698  0.8024 -0.9304 -1.0002
  169MOL0     H23293   5.940   4.935  10.736  1.6890  1.6741 -0.7917
  169MOL0     H23294   5.807   4.945  10.941 -1.0605 -0.8502 -1.5157
  169MOL0     H23295   5.918   5.070  10.942 -1.4640  0.2590  1.5603
  169MOL0     H23296   5.673   5.182  10.829  3.2037 -2.3369 -2.5908
  169MOL0     H23297   5.747   5.218  10.994 -0.9006 -0.5319  0.7421
  169MOL0     H23298   5.621   5.015  11.071 -0.5250  1.6686  1.6758
  169MOL0     H23299   5.553   4.994  10.898 -1.2844  2.1934 -0.2156
  169MOL0     H23300   5.436   5.206  10.908 -0.8449  1.4781  0.9159
  169MOL0     H23301   5.499   5.228  11.067 -0.0757  0.1987 -0.2619
  169MOL0     H23302   6.227   4.939  10.632  0.2560 -0.8947 -0.3066
  169MOL0     H23303   6.431   4.823  10.595 -0.3930  1.2950  0.6972
  169MOL0     H23304   6.842   4.577  10.481  0.0138 -0.1856  1.6262
  169MOL0     H23305   6.987   4.420  10.459  0.4689  4.0756 -3.9239
  169MOL0     H23306   7.571   3.261   9.003 -0.3844  1.2408 -1.1092
  169MOL0     H23307   7.554   3.211   8.751  0.5138 -1.3832  0.0764
  169MOL0     H23308   7.699   3.159   8.394  1.1991  1.7940 -0.0026
  169MOL0     H23309   7.639   3.153   8.174  2.5809  1.0414 -0.6136
  169MOL0     H23310   7.829   3.020   7.875  0.3460  0.1713  1.0208
  169MOL0     H23311   7.911   2.954   8.016 -0.0761  0.6657  1.8274
  169MOL0     H23312   7.763   2.815   7.778 -4.0121 -4.3289  1.8887
  169MOL0     H23313   7.794   2.722   7.932  1.2872 -0.7696  2.0395
  169MOL0     H23314   8.014   2.856   7.778  1.2409 -2.8533 -3.6729
  169MOL0     H23315   8.050   2.767   7.916 -0.0110 -0.1038 -0.4705
  169MOL0     H23316   7.951   2.543   7.798 -0.3792  0.7801  0.9030
  169MOL0     H23317   8.116   2.612   7.781  0.9151 -0.0825 -1.5262
  169MOL0     H23318   7.891   2.638   7.413 -0.3411 -2.3147 -0.1604
  169MOL0     H23319   7.706   2.736   8.140 -1.6102 -0.6017 -0.6803
  169MOL0     H23320   7.823   2.627   8.359 -0.3980 -0.6096 -0.9616
  169MOL0     H23321   7.715   2.671   8.502 -1.3632  0.2496  0.1316
  169MOL0     H23322   7.650   2.616   8.349  0.4308  0.3050 -0.7810
  170MOL0     O23323   4.123   2.563   0.887  0.0047  0.3423  0.5077
  170MOL0     C23324   4.192   2.550   0.985 -0.6518 -0.8824  0.1995
  170MOL0     O23325   4.299   2.466   0.993  0.6545  0.0288 -0.3801
  170MOL0     C23326   4.330   2.371   0.895 -0.8654  0.1961 -0.0564
  170MOL0     C23327   4.451   2.302   0.913  0.2065 -0.3730 -0.0562
  170MOL0     C23328   4.502   2.211   0.824  0.2056  0.7358  0.0544
  170MOL0     C23329   4.433   2.191   0.704 -0.3508 -0.0588  0.4230
  170MOL0     O23330   4.492   2.107   0.608 -0.7343 -0.0494 -0.0211
  170MOL0     C23331   4.416   2.022   0.524  0.2625  0.7488  0.5493
  170MOL0     C23332   4.390   2.084   0.388  0.0828  1.4690 -0.2479
  170MOL0     C23333   4.306   1.977   0.316  0.5396 -0.7000  0.4997
  170MOL0     C23334   4.154   2.026   0.309  0.2871 -0.2501 -0.1326
  170MOL0     C23335   4.075   1.905   0.263 -0.4299  0.7716 -0.9948
  170MOL0     C23336   3.927   1.932   0.228  0.2365  0.4324 -0.5480
  170MOL0     C23337   3.846   1.810   0.177 -1.2563 -0.4760  0.3476
  170MOL0     C23338   3.698   1.853   0.131 -0.3431  0.5880 -0.6671
  170MOL0     N23339   3.627   1.731   0.106  0.2550  0.2587  0.7449
  170MOL0     C23340   3.580   1.649   0.204  0.4779  0.1275 -0.5011
  170MOL0     C23341   3.536   1.539   0.135  0.4095  0.2329  0.6817
  170MOL0     C23342   3.483   1.417   0.199 -0.1031 -0.2555 -0.2924
  170MOL0     C23343   3.333   1.443   0.251 -0.9276  0.5112  0.5084
  170MOL0     C23344   3.265   1.319   0.302  0.4430 -0.1707 -0.2801
  170MOL0     C23345   3.279   1.194   0.210 -0.3449 -0.0475  0.1536
  170MOL0     O23346   3.196   1.092   0.244 -0.1810  0.1974 -0.3406
  170MOL0     C23347   3.076   1.085   0.170  0.2746  0.4099 -0.3591
  170MOL0     C23348   3.031   1.167   0.066  0.4049 -0.2695  0.1312
  170MOL0     C23349   2.918   1.142  -0.008 -0.3416  0.0490 -0.0317
  170MOL0     C23350   2.888   1.240  -0.124  0.1651 -0.4923  0.5549
  170MOL0     C23351   2.822   1.033   0.034  0.1154  0.3407 -0.2018
  170MOL0     C23352   2.689   0.993  -0.031  0.5141  0.0741  0.3782
  170MOL0     O23353   2.596   0.927   0.053  0.0681 -0.4175 -0.2260
  170MOL0     C23354   2.463   0.938   0.020  0.3386 -0.1078 -0.5094
  170MOL0     C23355   2.377   0.834   0.061 -0.8171  0.4932 -0.1373
  170MOL0     C23356   2.243   0.836   0.041  0.2135  1.1292 -0.0733
  170MOL0     C23357   2.169   0.946   0.004 -0.0191  0.1710 -0.4592
  170MOL0     O23358   2.035   0.943  -0.009  0.3778 -0.7475  0.1471
  170MOL0     C23359   1.959   0.839   0.050  0.1133 -0.4857 -0.3220
  170MOL0     C23360   1.931   0.723  -0.047  0.1996  0.7710  0.2182
  170MOL0     C23361   1.803   0.638  -0.007  0.1817 -0.5227 -0.4200
  170MOL0     C23362   1.831   0.494   0.014 -0.3929 -0.0405  0.0892
  170MOL0     C23363   1.947   0.457   0.115  0.8959 -0.0173  0.1613
  170MOL0     C23364   1.885   0.397   0.244  0.2624  0.3270  0.7338
  170MOL0     C23365   1.804   0.271   0.232 -0.7550  0.3633  0.1060
  170MOL0     C23366   1.766   0.208   0.367 -0.3563 -0.3068 -0.6289
  170MOL0    Cl23367   1.888   0.121   0.450 -0.3568  0.3543  0.3657
  170MOL0     C23368   2.251   1.054  -0.028  0.7144 -0.2877  1.2493
  170MOL0     C23369   2.393   1.050  -0.031 -0.2038  0.9143 -0.3633
  170MOL0     O23370   2.682   0.998  -0.155 -0.8538  0.3031 -0.2163
  170MOL0     C23371   2.868   0.950   0.136  0.2948  0.7190  0.0626
  170MOL0     C23372   2.997   0.974   0.198  0.2479  0.3317 -1.0382
  170MOL0     N23373   3.563   1.556   0.002 -0.1080  0.4615  0.6074
  170MOL0     N23374   3.603   1.680  -0.015 -0.3902  0.3289  0.1448
  170MOL0     C23375   4.309   2.249   0.684 -0.9422 -0.7121  0.1733
  170MOL0     C23376   4.255   2.339   0.775  0.1987 -0.7092 -0.9369
  170MOL0     C23377   4.179   2.645   1.099  0.8656  0.4323  0.6872
  170MOL0     C23378   4.264   2.632   1.205  0.0607  0.1628 -0.2961
  170MOL0     C23379   4.253   2.713   1.316 -0.2775  0.4852 -0.5559
  170MOL0     C23380   4.154   2.800   1.334  1.1226  0.5233  0.1055
  170MOL0     O23381   4.133   2.853   1.458 -0.2022  0.5573 -0.2288
  170MOL0     C23382   4.249   2.894   1.536  0.0838 -0.8819  0.2604
  170MOL0     C23383   4.199   2.977   1.649  0.0087 -0.5730  1.2060
  170MOL0     C23384   4.301   2.967   1.761 -0.0510 -0.3189 -1.0561
  170MOL0     C23385   4.251   3.048   1.887 -0.4493  0.0589 -0.4637
  170MOL0     C23386   4.137   2.989   1.960 -0.1444  0.6300  0.5352
  170MOL0     C23387   4.047   2.931   2.019 -0.1737 -0.5520 -0.2258
  170MOL0     C23388   4.074   2.822   1.223  0.3532  0.2615 -0.0151
  170MOL0     C23389   4.078   2.747   1.109  0.4582 -0.0928  0.8142
  170MOL0     C23390   3.962   2.764   1.017  0.0103 -0.9153 -0.2607
  170MOL0     H23391   4.510   2.323   1.002  0.0200 -0.8529  0.1816
  170MOL0     H23392   4.592   2.152   0.832  1.0589  2.0188  0.3330
  170MOL0     H23393   4.317   2.008   0.569 -1.4844  2.7228 -2.3764
  170MOL0     H23394   4.467   1.929   0.498 -1.4292  0.3715 -1.7399
  170MOL0     H23395   4.335   2.178   0.387 -0.4923  1.1621 -2.5089
  170MOL0     H23396   4.487   2.093   0.337 -0.2914 -0.4612 -1.4005
  170MOL0     H23397   4.339   1.951   0.215 -0.5696  2.0995 -0.7035
  170MOL0     H23398   4.304   1.881   0.369 -3.2393  0.0268  1.9870
  170MOL0     H23399   4.132   2.057   0.412  3.9040  0.5122  0.5504
  170MOL0     H23400   4.131   2.109   0.241 -3.9183 -0.6564  0.5653
  170MOL0     H23401   4.074   1.832   0.345  0.4677  1.4314 -0.3616
  170MOL0     H23402   4.129   1.869   0.175  0.2299  0.8430 -0.6231
  170MOL0     H23403   3.874   1.971   0.315 -0.3493 -3.9429  1.3217
  170MOL0     H23404   3.916   2.012   0.153  1.0860  1.4169  0.3369
  170MOL0     H23405   3.841   1.729   0.250 -0.0813  0.0919  1.0933
  170MOL0     H23406   3.907   1.786   0.090  0.4063  2.9624  0.3687
  170MOL0     H23407   3.653   1.916   0.209 -0.3840 -0.1787 -0.0576
  170MOL0     H23408   3.711   1.918   0.044  1.6422 -0.1905 -0.9937
  170MOL0     H23409   3.586   1.656   0.312  1.0905  0.3259 -0.5426
  170MOL0     H23410   3.543   1.382   0.283  1.4977  0.5868 -1.0336
  170MOL0     H23411   3.477   1.335   0.127 -0.4196 -2.0893  1.7256
  170MOL0     H23412   3.349   1.514   0.333 -0.0949  0.5660  0.3084
  170MOL0     H23413   3.281   1.489   0.166 -0.8170 -0.4358 -0.0901
  170MOL0     H23414   3.311   1.289   0.397  1.1315  2.0927  0.1490
  170MOL0     H23415   3.159   1.341   0.315 -0.1193 -2.0852 -1.2732
  170MOL0     H23416   3.276   1.213   0.103 -0.7692 -1.6614 -0.1518
  170MOL0     H23417   3.379   1.153   0.231 -0.5995 -0.6536  0.1976
  170MOL0     H23418   3.084   1.256   0.032 -1.2772  1.3821  1.6060
  170MOL0     H23419   2.962   1.320  -0.116 -2.4767  2.1358  0.4339
  170MOL0     H23420   2.793   1.292  -0.108 -0.3074 -1.8494  2.3789
  170MOL0     H23421   2.904   1.194  -0.222  2.0703 -0.5962  0.8867
  170MOL0     H23422   2.421   0.758   0.125  0.6456  0.5780 -1.0062
  170MOL0     H23423   2.207   0.736   0.060  0.6369  1.2668  1.6474
  170MOL0     H23424   2.014   0.796   0.134 -2.6589 -0.1995  1.7977
  170MOL0     H23425   1.863   0.877   0.087  1.1688  1.0503  0.9423
  170MOL0     H23426   1.893   0.758  -0.144 -1.9391 -0.9022  0.3709
  170MOL0     H23427   2.018   0.660  -0.066  1.4606  1.8423  2.1255
  170MOL0     H23428   1.724   0.636  -0.084 -0.8709  0.3084  0.5992
  170MOL0     H23429   1.763   0.685   0.083 -1.4193  0.8927 -1.7885
  170MOL0     H23430   1.855   0.441  -0.079 -2.9595 -1.2895  0.0521
  170MOL0     H23431   1.738   0.440   0.036 -0.2141 -0.1769  0.5312
  170MOL0     H23432   2.013   0.380   0.074  0.7055  1.8516 -4.1178
  170MOL0     H23433   2.001   0.549   0.140  2.9538 -1.8510  3.1517
  170MOL0     H23434   1.816   0.472   0.283 -1.2750 -0.6744  0.0312
  170MOL0     H23435   1.959   0.372   0.321 -0.4258 -1.1613  0.9515
  170MOL0     H23436   1.859   0.192   0.181  0.2852  1.5618 -0.6771
  170MOL0     H23437   1.715   0.277   0.169  0.5373 -1.5129 -2.0452
  170MOL0     H23438   1.685   0.137   0.352 -2.7562  1.6151  2.0356
  170MOL0     H23439   1.720   0.277   0.439 -0.4670 -1.9850  0.9831
  170MOL0     H23440   2.213   1.151  -0.060  1.1560  0.5847  3.2096
  170MOL0     H23441   2.452   1.140  -0.045  0.0713  0.6521 -0.9290
  170MOL0     H23442   2.812   0.859   0.155  1.3405 -0.2091 -1.1077
  170MOL0     H23443   3.040   0.903   0.268  1.7000  0.9140 -1.2882
  170MOL0     H23444   4.270   2.243   0.583 -1.7998  2.1405  0.2258
  170MOL0     H23445   4.160   2.382   0.747 -0.0110  0.2256  1.0162
  170MOL0     H23446   4.338   2.552   1.209 -2.7563 -2.6622 -0.3911
  170MOL0     H23447   4.316   2.684   1.399 -2.3921  1.8977  1.6590
  170MOL0     H23448   4.307   2.804   1.561  1.0166  0.0552  1.5608
  170MOL0     H23449   4.311   2.961   1.476 -2.5925  2.4704  0.9154
  170MOL0     H23450   4.100   2.944   1.682 -1.2875 -1.4670 -2.9781
  170MOL0     H23451   4.185   3.077   1.608 -1.4380 -1.3981 -0.4593
  170MOL0     H23452   4.314   2.866   1.798 -3.4059 -0.0754  1.1827
  170MOL0     H23453   4.400   3.001   1.726 -0.3766  0.9487 -0.8004
  170MOL0     H23454   4.227   3.151   1.859  2.3586  0.8560 -0.3055
  170MOL0     H23455   4.334   3.050   1.958 -1.9201 -1.8979  1.4555
  170MOL0     H23456   3.962   2.898   2.074 -0.7732  2.0338  0.5327
  170MOL0     H23457   3.991   2.889   1.243  0.8486 -0.0217  3.5982
  170MOL0     H23458   3.999   2.812   0.926 -0.7693  0.2321  0.0166
  170MOL0     H23459   3.919   2.668   0.986 -2.3631 -0.2977  0.8650
  170MOL0     H23460   3.872   2.817   1.050 -1.0788 -3.1721  0.6640
  171MOL0     O23461  11.222   1.880   1.031 -0.5612  0.0506 -1.0886
  171MOL0     C23462  11.125   1.824   1.082 -0.1557  0.4923  1.2547
  171MOL0     O23463  11.117   1.684   1.084 -0.1060  0.0350  0.3290
  171MOL0     C23464  11.216   1.618   1.023 -0.0571  0.7809 -0.0150
  171MOL0     C23465  11.273   1.506   1.086 -0.2785  0.0620 -0.3727
  171MOL0     C23466  11.395   1.447   1.029  0.1099 -0.9092 -0.2928
  171MOL0     C23467  11.432   1.487   0.903 -0.3219  0.1897  0.6239
  171MOL0     O23468  11.530   1.402   0.861 -0.3634 -0.1382 -0.1438
  171MOL0     C23469  11.567   1.410   0.719 -0.2369  0.3901 -0.5751
  171MOL0     C23470  11.707   1.341   0.703 -1.5884 -0.1472  0.2453
  171MOL0     C23471  11.818   1.401   0.798 -0.3368  0.5200  0.4287
  171MOL0     C23472  11.962   1.346   0.760  1.4610  0.2533  0.8840
  171MOL0     C23473  12.053   1.439   0.833 -0.1729 -0.0222 -0.0563
  171MOL0     C23474  12.036   1.422   0.985  1.0402  0.6297  0.2146
  171MOL0     C23475  12.154   1.483   1.065  0.6634  0.0117  0.7069
  171MOL0     C23476  12.137   1.475   1.222  0.0135 -0.4152  0.7121
  171MOL0     N23477  12.239   1.535   1.299  1.1659  0.1282  0.3314
  171MOL0     C23478  12.352   1.465   1.349  0.8455  0.5977  0.7585
  171MOL0     C23479  12.396   1.541   1.447 -0.3590  0.0084 -0.0294
  171MOL0     C23480  12.523   1.541   1.531 -0.5646  0.9036  0.1626
  171MOL0     C23481  12.588   1.400   1.545  0.0128  0.9344 -0.2285
  171MOL0     C23482  12.503   1.318   1.635  1.2664 -0.1852  0.6767
  171MOL0     C23483  12.565   1.179   1.659  0.4661  0.0923  1.0338
  171MOL0     O23484  12.517   1.124   1.780  0.5232  0.0303 -0.4008
  171MOL0     C23485  12.602   1.124   1.888  0.0248 -0.3482 -0.8206
  171MOL0     C23486  12.569   1.028   1.984 -0.4390 -0.8202  0.4346
  171MOL0     C23487  12.655   0.997   2.089  0.3565 -0.4167  0.4407
  171MOL0     C23488  12.602   0.877   2.171 -0.3320  0.5941 -0.7270
  171MOL0     C23489  12.773   1.064   2.110 -0.3971  0.0582  0.0156
  171MOL0     C23490  12.857   1.048   2.231  0.3024  0.2903  1.1425
  171MOL0     O23491  12.892   1.160   2.300 -0.1456 -0.0094  0.1298
  171MOL0     C23492  12.935   1.155   2.427 -0.2651 -0.0761 -0.0509
  171MOL0     C23493  13.034   1.243   2.461 -0.8336 -0.1923  0.7311
  171MOL0     C23494  13.081   1.260   2.594 -0.2459  0.5690  0.8378
  171MOL0     C23495  13.031   1.180   2.692 -1.0876  0.8104 -0.4402
  171MOL0     O23496  13.068   1.209   2.819 -0.3055  0.4684 -0.7257
  171MOL0     C23497  13.018   1.126   2.933 -0.4057 -0.5294  0.3272
  171MOL0     C23498  13.086   1.172   3.064  0.7127 -0.7517  0.3352
  171MOL0     C23499  13.235   1.157   3.034  0.1133 -0.8072  0.7893
  171MOL0     C23500  13.308   1.191   3.170  0.0096  0.4023  1.2068
  171MOL0     C23501  13.457   1.182   3.176 -0.9770 -0.1160  0.0640
  171MOL0     C23502  13.495   1.032   3.185  0.8938 -0.3043 -0.2305
  171MOL0     C23503  13.644   1.024   3.213 -0.3502  0.6725 -0.0467
  171MOL0     C23504  13.698   0.891   3.240  0.5690  0.2287 -0.3862
  171MOL0    Cl23505  13.656   0.775   3.108  0.3272 -0.0233  0.1244
  171MOL0     C23506  12.924   1.093   2.655  0.3717 -0.2816  0.6848
  171MOL0     C23507  12.877   1.081   2.523  0.4372 -1.0308 -0.0524
  171MOL0     O23508  12.888   0.933   2.258 -0.2134  0.3111 -0.3819
  171MOL0     C23509  12.808   1.161   2.006 -0.0836  0.6907 -0.3581
  171MOL0     C23510  12.732   1.188   1.903  0.7902  0.1702  0.1105
  171MOL0     N23511  12.333   1.658   1.443 -0.4814  1.0560  0.8921
  171MOL0     N23512  12.241   1.662   1.352  0.3144  0.4601  0.2784
  171MOL0     C23513  11.353   1.580   0.831  0.5173 -0.3337  0.0347
  171MOL0     C23514  11.242   1.645   0.886 -0.1144  0.1275 -0.0716
  171MOL0     C23515  11.013   1.903   1.137 -0.9324 -0.8146  0.3395
  171MOL0     C23516  10.929   1.845   1.229 -0.3415  0.5290  0.6840
  171MOL0     C23517  10.807   1.903   1.270  0.5347  0.7521  0.3292
  171MOL0     C23518  10.789   2.041   1.251 -0.2748  0.4826 -0.2321
  171MOL0     O23519  10.688   2.124   1.291 -0.4761  0.5063  0.4732
  171MOL0     C23520  10.620   2.093   1.417  0.1067 -0.5457 -0.5786
  171MOL0     C23521  10.483   2.164   1.431  0.0783  0.0803 -0.4762
  171MOL0     C23522  10.366   2.100   1.369 -0.5573  0.2332 -1.0167
  171MOL0     C23523  10.225   2.158   1.407  0.3637  0.6964  0.3791
  171MOL0     C23524  10.197   2.145   1.547 -0.6260  0.4418  0.7934
  171MOL0     C23525  10.179   2.124   1.661 -0.1748  0.3372 -0.5576
  171MOL0     C23526  10.882   2.098   1.156 -0.0387  0.7898 -0.9475
  171MOL0     C23527  10.974   2.027   1.080  0.5478 -0.1552 -0.1253
  171MOL0     C23528  11.045   2.099   0.965 -0.2102 -0.1265 -0.3852
  171MOL0     H23529  11.233   1.460   1.176 -1.0373  1.8715  0.2773
  171MOL0     H23530  11.453   1.377   1.088  0.0528 -0.7274 -0.0203
  171MOL0     H23531  11.578   1.515   0.690  2.3209  0.8286  1.5674
  171MOL0     H23532  11.491   1.373   0.649  0.6476  2.0646 -2.5146
  171MOL0     H23533  11.694   1.239   0.742  2.3297  0.5606  4.2221
  171MOL0     H23534  11.750   1.346   0.602 -0.1206  0.0735  0.8440
  171MOL0     H23535  11.816   1.510   0.795 -0.4979  0.5194  0.4776
  171MOL0     H23536  11.798   1.370   0.901  1.2381  0.0965  0.6245
  171MOL0     H23537  11.960   1.239   0.785 -1.7911  0.7576  3.4982
  171MOL0     H23538  11.994   1.359   0.656  1.6793  2.8215  1.2274
  171MOL0     H23539  12.029   1.539   0.797 -1.3560 -0.5122 -0.6744
  171MOL0     H23540  12.154   1.418   0.795  0.6096  4.0921 -0.7209
  171MOL0     H23541  11.943   1.476   1.006 -0.1780 -1.1128 -0.4381
  171MOL0     H23542  12.013   1.316   1.001 -0.0545  0.2335 -3.2648
  171MOL0     H23543  12.192   1.584   1.046  1.1449 -0.4260 -0.7884
  171MOL0     H23544  12.230   1.409   1.037 -0.7911 -1.6989  1.0769
  171MOL0     H23545  12.037   1.509   1.251 -1.1351 -3.3788  0.5961
  171MOL0     H23546  12.129   1.368   1.243 -0.3072 -0.4233  0.5590
  171MOL0     H23547  12.380   1.364   1.322  1.4144  0.2837  2.3991
  171MOL0     H23548  12.489   1.585   1.625 -0.6062 -3.7970  2.6500
  171MOL0     H23549  12.598   1.606   1.484 -0.5328 -1.0474 -2.7485
  171MOL0     H23550  12.594   1.348   1.449  0.3156 -0.7253  0.6621
  171MOL0     H23551  12.685   1.410   1.595  0.4281 -1.8692 -0.3199
  171MOL0     H23552  12.483   1.371   1.729 -3.9324 -0.1575 -0.1781
  171MOL0     H23553  12.405   1.303   1.589  1.6376  4.2252 -2.1543
  171MOL0     H23554  12.527   1.113   1.581 -2.1779  2.5745  0.0306
  171MOL0     H23555  12.674   1.178   1.648  0.2462  0.1937 -1.7968
  171MOL0     H23556  12.473   0.980   1.967 -0.0402 -0.9381 -1.8154
  171MOL0     H23557  12.571   0.791   2.112  1.0513 -1.9830  1.9969
  171MOL0     H23558  12.513   0.913   2.223  1.6012 -0.0645  3.4515
  171MOL0     H23559  12.673   0.834   2.243  0.1805 -0.4329 -1.7938
  171MOL0     H23560  13.086   1.294   2.381 -3.3530 -0.1651 -0.9761
  171MOL0     H23561  13.156   1.336   2.616 -0.0839  2.0525 -3.6525
  171MOL0     H23562  12.912   1.151   2.948  0.4807  3.0719  1.5894
  171MOL0     H23563  13.029   1.019   2.915  0.5469 -0.3898  0.0209
  171MOL0     H23564  13.065   1.273   3.099  0.5295 -0.9724  0.8828
  171MOL0     H23565  13.052   1.113   3.149  1.2361  0.1695  1.2031
  171MOL0     H23566  13.268   1.216   2.949 -1.2887 -1.9335 -0.5828
  171MOL0     H23567  13.246   1.054   3.001 -1.1165 -2.0591  3.8993
  171MOL0     H23568  13.256   1.126   3.241  0.2347 -0.5279  0.5493
  171MOL0     H23569  13.293   1.297   3.190 -1.1794  1.2256 -3.0791
  171MOL0     H23570  13.483   1.228   3.081 -4.0647  0.4805 -0.5940
  171MOL0     H23571  13.491   1.246   3.258 -0.4006 -0.6239  0.2295
  171MOL0     H23572  13.474   0.990   3.086 -1.7729  0.3574 -0.0183
  171MOL0     H23573  13.433   0.967   3.247 -1.1899  0.1553 -1.7254
  171MOL0     H23574  13.675   1.084   3.299 -1.1858 -0.1140  0.8247
  171MOL0     H23575  13.692   1.065   3.124 -1.9445 -0.4126 -1.4650
  171MOL0     H23576  13.670   0.857   3.340  3.8885 -0.2868  0.4739
  171MOL0     H23577  13.805   0.904   3.258  0.2853  0.7216  1.0798
  171MOL0     H23578  12.890   1.027   2.734  2.1697  0.1002  1.8307
  171MOL0     H23579  12.805   1.004   2.496  2.9350 -3.2471 -0.8160
  171MOL0     H23580  12.901   1.214   2.019 -0.4433  0.7940  2.1619
  171MOL0     H23581  12.776   1.256   1.831  1.4397 -1.8088 -1.4518
  171MOL0     H23582  11.374   1.615   0.730 -2.1550  0.4607 -0.3183
  171MOL0     H23583  11.197   1.726   0.828  1.4512  0.0470 -1.4781
  171MOL0     H23584  10.970   1.753   1.269  2.3746 -2.0267 -6.3481
  171MOL0     H23585  10.738   1.852   1.336  2.3556 -0.8197  1.1151
  171MOL0     H23586  10.601   1.985   1.417 -0.3536 -0.4932  1.1106
  171MOL0     H23587  10.686   2.123   1.498  0.3361 -0.2068 -0.8901
  171MOL0     H23588  10.480   2.273   1.422  0.9182  0.2097  0.6068
  171MOL0     H23589  10.450   2.139   1.532 -0.7619 -0.0187 -0.7736
  171MOL0     H23590  10.367   2.102   1.260 -1.0589  0.8386 -1.0198
  171MOL0     H23591  10.375   1.995   1.396  4.1087  0.0606 -2.3388
  171MOL0     H23592  10.139   2.119   1.352  0.3428  3.4281 -1.7537
  171MOL0     H23593  10.224   2.266   1.385 -0.7139  0.4523 -0.8824
  171MOL0     H23594  10.156   2.102   1.763  0.6123 -0.3600 -0.5247
  171MOL0     H23595  10.865   2.204   1.138 -0.6768  0.9400  0.4468
  171MOL0     H23596  11.036   2.049   0.868  2.6264  1.1848 -1.4650
  171MOL0     H23597  11.008   2.201   0.954  1.7574  0.4923 -2.0054
  171MOL0     H23598  11.154   2.099   0.976 -0.2762 -2.5920  1.0768
  172MOL0     O23599   6.649   5.265  11.288 -0.1216  0.1974  0.8621
  172MOL0     C23600   6.717   5.216  11.199  0.2144 -0.2110  0.1554
  172MOL0     O23601   6.743   5.283  11.087 -0.2073  0.3770 -0.0057
  172MOL0     C23602   6.686   5.408  11.074 -0.0608 -0.4114 -0.0150
  172MOL0     C23603   6.706   5.509  11.171  1.6117 -0.3325 -1.3356
  172MOL0     C23604   6.622   5.614  11.175 -0.8557 -0.3478  0.0272
  172MOL0     C23605   6.539   5.643  11.069 -0.2803 -0.0621  0.4465
  172MOL0     O23606   6.466   5.757  11.042 -0.0118 -0.3132  0.1920
  172MOL0     C23607   6.454   5.861  11.136 -0.2841  0.1332 -0.3965
  172MOL0     C23608   6.407   5.985  11.058  0.5473  0.4564 -0.1416
  172MOL0     C23609   6.353   6.092  11.156 -0.2022  0.2088  0.3764
  172MOL0     C23610   6.465   6.163  11.243  0.0209  1.1865 -0.2032
  172MOL0     C23611   6.543   6.284  11.168 -0.1728  0.2790  0.0382
  172MOL0     C23612   6.457   6.418  11.170  0.6105 -0.3949  0.4751
  172MOL0     C23613   6.541   6.544  11.156  0.1329  0.5669 -0.1119
  172MOL0     C23614   6.607   6.550  11.013  0.1763  0.3482  1.1225
  172MOL0     N23615   6.669   6.670  10.967  0.4422 -0.4254 -0.7311
  172MOL0     C23616   6.764   6.724  11.052 -0.5296  0.7635 -1.2782
  172MOL0     C23617   6.822   6.817  10.978  0.3586 -0.7233  0.1915
  172MOL0     C23618   6.933   6.902  11.022 -0.0995 -0.1858 -0.0728
  172MOL0     C23619   6.987   6.875  11.160 -0.5310 -0.2254 -1.0948
  172MOL0     C23620   7.113   6.958  11.197  0.2486  0.3714  0.7980
  172MOL0     C23621   7.235   6.943  11.108  0.1955 -0.9771 -0.4800
  172MOL0     O23622   7.244   7.054  11.008  0.6379  0.2581 -0.4766
  172MOL0     C23623   7.316   7.171  11.036  0.4980  0.3898 -0.2704
  172MOL0     C23624   7.394   7.200  11.146  0.4287  0.1472  0.6572
  172MOL0     C23625   7.442   7.329  11.173  0.6569 -0.6045 -0.3995
  172MOL0     C23626   7.521   7.357  11.298 -0.5492 -0.8372  0.1779
  172MOL0     C23627   7.425   7.431  11.073 -0.4413 -0.1172  0.5376
  172MOL0     C23628   7.479   7.574  11.089 -0.4546 -0.6442 -0.3141
  172MOL0     O23629   7.449   7.637  11.202 -0.2819  0.4003  0.2205
  172MOL0     C23630   7.478   7.773  11.213 -0.7184  0.2950 -0.0157
  172MOL0     C23631   7.382   7.871  11.216 -0.5168 -0.1525  0.6775
  172MOL0     C23632   7.433   8.007  11.229 -0.0498 -0.8080 -0.1330
  172MOL0     C23633   7.571   8.030  11.255 -0.3908 -0.6792 -0.1728
  172MOL0     O23634   7.616   8.160  11.265  0.1186 -0.8298 -0.1159
  172MOL0     C23635   7.740   8.177  11.341  0.3355 -0.6870 -0.5800
  172MOL0     C23636   7.765   8.327  11.359  0.5114  0.8906 -0.1117
  172MOL0     C23637   7.737   8.368  11.502  0.2091  0.2378  0.0261
  172MOL0     C23638   7.783   8.518  11.523 -1.1931 -0.2293 -1.7359
  172MOL0     C23639   7.767   8.561  11.676 -0.7697 -1.0576  0.2560
  172MOL0     C23640   7.853   8.677  11.733 -1.2446 -0.1919  0.1375
  172MOL0     C23641   7.845   8.808  11.643 -0.8215 -0.0447 -1.2669
  172MOL0     C23642   7.928   8.932  11.703 -0.1343 -0.3322  0.3152
  172MOL0    Cl23643   7.909   9.071  11.583  0.0847  0.4804 -0.0631
  172MOL0     C23644   7.662   7.924  11.265  0.6816  0.3839 -0.2876
  172MOL0     C23645   7.613   7.786  11.234  0.5719  0.1436 -0.5950
  172MOL0     O23646   7.562   7.612  11.002  0.5212 -0.3062  0.3768
  172MOL0     C23647   7.357   7.403  10.956  0.2174  0.0458  0.6589
  172MOL0     C23648   7.303   7.272  10.939 -0.3638 -0.0827 -0.4614
  172MOL0     N23649   6.762   6.813  10.850 -0.1703 -0.1004  0.2031
  172MOL0     N23650   6.658   6.734  10.849  0.1332 -0.1448  0.3060
  172MOL0     C23651   6.541   5.552  10.959 -0.1235 -0.0661  0.0710
  172MOL0     C23652   6.607   5.435  10.963 -0.3792 -0.3946  0.1103
  172MOL0     C23653   6.760   5.075  11.210 -0.2876  0.3328  0.0546
  172MOL0     C23654   6.872   5.044  11.125  0.4863  0.3577 -0.8163
  172MOL0     C23655   6.925   4.919  11.129  0.4965 -0.1066 -0.3243
  172MOL0     C23656   6.875   4.813  11.213  0.2227 -0.4904  0.5394
  172MOL0     O23657   6.935   4.693  11.202  0.3440  0.6158 -0.2719
  172MOL0     C23658   6.900   4.594  11.300 -0.0263  0.6424  0.1834
  172MOL0     C23659   6.991   4.474  11.293 -0.7630  0.5514 -0.3782
  172MOL0     C23660   7.133   4.510  11.356  1.1109  0.6739 -0.2661
  172MOL0     C23661   7.231   4.406  11.383 -0.5095 -0.4142 -0.6703
  172MOL0     C23662   7.279   4.369  11.249 -0.0039  0.5324  0.0667
  172MOL0     C23663   7.319   4.321  11.142  0.3907 -0.0920 -0.3295
  172MOL0     C23664   6.760   4.839  11.284 -0.3275 -0.7908  0.4727
  172MOL0     C23665   6.703   4.970  11.282 -0.4032  0.6621 -0.0803
  172MOL0     C23666   6.581   4.983  11.354  0.2569  0.0140  0.1044
  172MOL0     H23667   6.781   5.505  11.250 -0.7355  3.1857  1.3864
  172MOL0     H23668   6.633   5.675  11.264 -0.1325 -0.8356  0.2790
  172MOL0     H23669   6.552   5.875  11.184  0.0038 -0.6720 -0.7230
  172MOL0     H23670   6.387   5.830  11.217  0.8571  0.6280  0.7780
  172MOL0     H23671   6.500   6.028  11.021  1.2107  0.2917  1.2480
  172MOL0     H23672   6.322   5.970  10.991 -0.3652  1.9908  0.6153
  172MOL0     H23673   6.298   6.167  11.099  1.7151  1.0287 -0.5112
  172MOL0     H23674   6.287   6.031  11.218 -0.0989 -2.1132 -1.6609
  172MOL0     H23675   6.425   6.204  11.335 -0.8716 -1.3323  0.6174
  172MOL0     H23676   6.538   6.085  11.267 -2.3573 -0.7693  1.1361
  172MOL0     H23677   6.576   6.256  11.067 -1.4589  0.2333 -0.3852
  172MOL0     H23678   6.633   6.301  11.228  0.4858 -2.9795  0.1667
  172MOL0     H23679   6.382   6.421  11.090  0.0307  2.1417  1.0493
  172MOL0     H23680   6.414   6.420  11.271 -1.0650 -1.1462 -0.1921
  172MOL0     H23681   6.619   6.541  11.233  1.3498 -1.8997 -1.3263
  172MOL0     H23682   6.461   6.617  11.173 -1.6325 -1.3339  0.1363
  172MOL0     H23683   6.694   6.484  11.005 -0.0464  0.1546  0.2405
  172MOL0     H23684   6.535   6.520  10.936  2.2783  0.1516 -0.8730
  172MOL0     H23685   6.786   6.676  11.147 -0.9459  2.3465 -0.3324
  172MOL0     H23686   6.900   7.006  11.023 -1.9047 -0.6921  2.3756
  172MOL0     H23687   7.017   6.898  10.952  0.8764  2.4375  0.8220
  172MOL0     H23688   6.906   6.893  11.232  0.6651 -0.2337  0.2851
  172MOL0     H23689   7.010   6.770  11.175 -0.3035 -0.0639 -0.2636
  172MOL0     H23690   7.081   7.062  11.207  1.9548  0.8043  2.1484
  172MOL0     H23691   7.137   6.926  11.299 -1.3914 -2.0819  0.5023
  172MOL0     H23692   7.320   6.925  11.175 -0.1474 -0.4687  0.1169
  172MOL0     H23693   7.213   6.860  11.041 -2.8117 -0.8840  0.2376
  172MOL0     H23694   7.402   7.136  11.234  1.8929  2.0534  2.0060
  172MOL0     H23695   7.465   7.430  11.358 -0.1939  0.1814 -0.6947
  172MOL0     H23696   7.616   7.401  11.266 -0.4319 -0.8757  0.4703
  172MOL0     H23697   7.538   7.274  11.367 -0.8728 -0.0279  1.2710
  172MOL0     H23698   7.282   7.848  11.182  0.6896 -2.3692 -1.7761
  172MOL0     H23699   7.367   8.093  11.221 -2.3891 -2.6126 -1.5664
  172MOL0     H23700   7.728   8.125  11.437 -0.6498 -0.7810 -0.7402
  172MOL0     H23701   7.830   8.137  11.293  1.1757  0.7224 -0.2130
  172MOL0     H23702   7.871   8.346  11.340  0.7295 -0.9368 -1.0093
  172MOL0     H23703   7.705   8.386  11.290  0.7080  0.4799 -0.6404
  172MOL0     H23704   7.790   8.304  11.573 -0.4371  1.8436  2.0789
  172MOL0     H23705   7.631   8.372  11.530 -0.3194 -0.1542 -1.7975
  172MOL0     H23706   7.725   8.576  11.450 -0.6207  3.2234  0.3178
  172MOL0     H23707   7.889   8.540  11.509 -1.4923  2.1232 -0.8664
  172MOL0     H23708   7.661   8.577  11.698 -1.0488 -2.4096  0.0015
  172MOL0     H23709   7.809   8.479  11.734 -1.4341 -1.3573  0.3211
  172MOL0     H23710   7.953   8.635  11.720 -1.9037 -0.9582 -3.3596
  172MOL0     H23711   7.818   8.692  11.835 -0.6731  2.0671  0.0614
  172MOL0     H23712   7.737   8.820  11.639 -0.9467 -0.3433  0.3175
  172MOL0     H23713   7.888   8.792  11.544  0.0347  0.7865 -1.0445
  172MOL0     H23714   8.033   8.903  11.695 -0.5896 -2.3214  0.9383
  172MOL0     H23715   7.896   8.958  11.804  1.3003  2.3387  0.1427
  172MOL0     H23716   7.763   7.930  11.302 -0.0261  1.2701  1.6229
  172MOL0     H23717   7.676   7.698  11.245  0.1034 -0.3076 -1.4239
  172MOL0     H23718   7.352   7.476  10.876  0.6560  0.2591  0.8222
  172MOL0     H23719   7.265   7.259  10.838 -0.2838  0.5854 -0.5821
  172MOL0     H23720   6.481   5.566  10.869 -1.1587  4.3753  1.1983
  172MOL0     H23721   6.588   5.368  10.880 -0.4413  0.9827 -1.0168
  172MOL0     H23722   6.916   5.123  11.064 -1.6321  0.8415 -1.8363
  172MOL0     H23723   7.005   4.886  11.064  1.0448 -3.3362  1.7476
  172MOL0     H23724   6.898   4.626  11.404  2.5442 -2.8129  1.5018
  172MOL0     H23725   6.805   4.564  11.255  0.8898  1.2044 -2.3108
  172MOL0     H23726   6.998   4.439  11.190  2.3249  1.0304 -0.4310
  172MOL0     H23727   6.950   4.398  11.360  0.1026 -1.1067 -1.6604
  172MOL0     H23728   7.175   4.587  11.291  0.6475  0.8504 -0.3633
  172MOL0     H23729   7.100   4.570  11.442 -1.5622  3.5526 -3.0537
  172MOL0     H23730   7.181   4.321  11.431 -4.3081 -0.2621 -3.8287
  172MOL0     H23731   7.319   4.436  11.440 -0.7594  2.7162 -1.7569
  172MOL0     H23732   7.369   4.277  11.058  0.3563  0.1389 -0.4715
  172MOL0     H23733   6.703   4.759  11.331 -3.3503  0.4514 -0.8119
  172MOL0     H23734   6.504   5.037  11.298  1.7324  1.9155 -0.2083
  172MOL0     H23735   6.540   4.885  11.378  1.8353 -0.2144  2.1479
  172MOL0     H23736   6.600   5.027  11.453 -3.2107 -1.4560  1.5808
  173MOL0     O23737   9.871   6.259  10.613 -0.6845 -0.3683 -0.1307
  173MOL0     C23738   9.926   6.176  10.532  0.6450  0.2380 -0.3544
  173MOL0     O23739  10.028   6.089  10.567  0.3126  0.7823 -0.1719
  173MOL0     C23740  10.095   6.098  10.687 -0.2321  0.4170  0.4027
  173MOL0     C23741  10.033   6.127  10.804  0.1504 -0.0434 -0.6240
  173MOL0     C23742  10.110   6.155  10.921  0.7011 -0.4162 -0.7367
  173MOL0     C23743  10.247   6.119  10.918  0.1188 -0.1410 -0.0052
  173MOL0     O23744  10.336   6.147  11.023  0.8856 -0.6756 -0.6404
  173MOL0     C23745  10.287   6.208  11.146 -0.2734 -0.4541  0.0223
  173MOL0     C23746  10.411   6.267  11.227  0.6326  0.2537 -0.0325
  173MOL0     C23747  10.356   6.297  11.363  0.6879 -0.1683  0.0361
  173MOL0     C23748  10.474   6.307  11.466  0.2433  0.4007  0.3033
  173MOL0     C23749  10.457   6.389  11.589 -0.9674  0.0121  0.1833
  173MOL0     C23750  10.593   6.415  11.659 -0.3188  0.1462  0.9615
  173MOL0     C23751  10.567   6.513  11.778 -0.4115 -0.3625  0.6686
  173MOL0     C23752  10.480   6.470  11.888  0.8509 -0.9045 -1.1512
  173MOL0     N23753  10.487   6.576  11.989 -0.3059  0.6406  0.1397
  173MOL0     C23754  10.412   6.693  11.993 -0.0261  0.9390  0.0236
  173MOL0     C23755  10.409   6.730  12.117  0.2735 -0.2909  0.0024
  173MOL0     C23756  10.327   6.846  12.176  0.0572  1.4952  0.4729
  173MOL0     C23757  10.208   6.874  12.097  0.1931 -0.6124  0.1407
  173MOL0     C23758  10.121   6.994  12.145  0.1175  1.1654 -0.2518
  173MOL0     C23759   9.998   7.023  12.066  0.8591  0.1000 -0.3318
  173MOL0     O23760   9.927   6.903  12.021  0.0847  0.1544 -0.4690
  173MOL0     C23761   9.860   6.898  11.907  0.9266  0.1705  0.4123
  173MOL0     C23762   9.751   6.806  11.889  0.0418  0.9589 -0.7047
  173MOL0     C23763   9.690   6.783  11.768 -0.3277  0.3900  0.0935
  173MOL0     C23764   9.565   6.685  11.769  0.4699  0.3664  0.5570
  173MOL0     C23765   9.725   6.861  11.655 -0.2111 -0.5765  1.1782
  173MOL0     C23766   9.671   6.843  11.515 -0.3589  1.0681 -0.0199
  173MOL0     O23767   9.731   6.921  11.422  0.7257  0.2436  0.6894
  173MOL0     C23768   9.678   6.906  11.293 -0.6105 -0.3852  0.0905
  173MOL0     C23769   9.552   6.960  11.254  0.6116 -0.6068  0.7821
  173MOL0     C23770   9.509   6.945  11.122  0.3805 -0.3100  0.1873
  173MOL0     C23771   9.580   6.864  11.033 -0.9150  0.2163 -0.0159
  173MOL0     O23772   9.516   6.820  10.913 -0.0224 -0.1270  0.4112
  173MOL0     C23773   9.594   6.754  10.809  0.7361 -0.2714 -0.0586
  173MOL0     C23774   9.517   6.765  10.675 -0.5152 -0.7299 -0.6164
  173MOL0     C23775   9.612   6.732  10.562  0.2389 -0.0241 -0.2692
  173MOL0     C23776   9.547   6.672  10.443  0.2734  0.6585 -1.3826
  173MOL0     C23777   9.430   6.757  10.374 -0.0838  1.2465  0.1878
  173MOL0     C23778   9.484   6.888  10.311 -0.2775 -0.7719 -0.5564
  173MOL0     C23779   9.378   6.964  10.233 -0.0464 -0.3262 -0.6067
  173MOL0     C23780   9.295   7.055  10.317 -0.3550  0.4100 -0.0584
  173MOL0    Cl23781   9.155   6.957  10.373 -0.1280  0.5458  0.0050
  173MOL0     C23782   9.712   6.811  11.082 -0.4032  0.0131  0.6249
  173MOL0     C23783   9.754   6.831  11.209  0.3541 -0.7528 -0.3330
  173MOL0     O23784   9.575   6.767  11.495  0.0842  0.1015 -0.0066
  173MOL0     C23785   9.829   6.952  11.676  0.7570 -0.2673  0.0422
  173MOL0     C23786   9.889   6.973  11.798 -0.6119 -0.0447 -0.4293
  173MOL0     N23787  10.482   6.637  12.190  0.6231 -0.7857  0.4777
  173MOL0     N23788  10.520   6.541  12.117 -0.2039  0.3691  0.3912
  173MOL0     C23789  10.303   6.066  10.803 -0.3701 -0.2211 -0.2541
  173MOL0     C23790  10.223   6.057  10.685 -0.3005 -1.7789 -0.5829
  173MOL0     C23791   9.885   6.182  10.389 -0.3682  0.9353 -0.0720
  173MOL0     C23792   9.942   6.094  10.285  1.1737 -0.5537 -1.3492
  173MOL0     C23793   9.917   6.107  10.151  0.8677 -0.8289 -0.5235
  173MOL0     C23794   9.819   6.197  10.112  0.9743 -0.5866  0.4197
  173MOL0     O23795   9.794   6.220   9.978  0.6065  0.2373 -0.9943
  173MOL0     C23796   9.856   6.142   9.884 -0.5217 -0.3447 -1.2126
  173MOL0     C23797   9.786   6.166   9.752  0.4655 -0.5243 -0.1631
  173MOL0     C23798   9.642   6.114   9.762  0.9821 -0.8743 -0.5485
  173MOL0     C23799   9.563   6.138   9.636  0.7966  0.4473  0.4837
  173MOL0     C23800   9.525   6.283   9.601  0.6042  0.2760 -0.8502
  173MOL0     C23801   9.502   6.402   9.567 -0.2331 -0.3905 -0.0829
  173MOL0     C23802   9.747   6.269  10.207  0.4251  0.2781  0.0877
  173MOL0     C23803   9.777   6.272  10.343  0.2008 -0.8326  1.0653
  173MOL0     C23804   9.714   6.390  10.418 -0.0625  0.3525  0.5381
  173MOL0     H23805   9.925   6.121  10.813 -0.0572  2.0967 -1.1481
  173MOL0     H23806  10.060   6.195  11.008  0.7715 -2.5122  0.3244
  173MOL0     H23807  10.226   6.139  11.204 -2.6913  1.9488  0.5277
  173MOL0     H23808  10.226   6.291  11.109 -0.5527 -1.0873 -0.9815
  173MOL0     H23809  10.492   6.193  11.227 -1.2986 -2.1652 -3.3428
  173MOL0     H23810  10.438   6.363  11.182 -2.2000 -0.3620 -3.4935
  173MOL0     H23811  10.298   6.388  11.381 -0.8931 -1.3870  1.4092
  173MOL0     H23812  10.287   6.218  11.391 -1.6507  1.1167 -1.7829
  173MOL0     H23813  10.499   6.204  11.495 -1.5837 -0.7773 -1.9362
  173MOL0     H23814  10.560   6.336  11.405  1.7718 -3.7179  0.1684
  173MOL0     H23815  10.387   6.341  11.658 -0.0651 -1.3712  0.1765
  173MOL0     H23816  10.405   6.480  11.559 -2.9203 -1.3814 -0.9015
  173MOL0     H23817  10.637   6.319  11.688 -0.4943  0.2358  1.5226
  173MOL0     H23818  10.662   6.459  11.587  0.7905 -0.7362  1.4500
  173MOL0     H23819  10.527   6.600  11.725  0.3555 -0.1901  0.3646
  173MOL0     H23820  10.665   6.541  11.817 -1.3323  3.1709  0.8323
  173MOL0     H23821  10.377   6.469  11.850  0.1387  3.1790  0.2032
  173MOL0     H23822  10.510   6.367  11.911 -1.6611 -1.5392 -0.4304
  173MOL0     H23823  10.360   6.738  11.908 -3.2634 -1.3936  0.5855
  173MOL0     H23824  10.388   6.937  12.190  1.5006  0.5883  0.3046
  173MOL0     H23825  10.305   6.820  12.280  0.8338  0.1566  0.3285
  173MOL0     H23826  10.222   6.894  11.991  1.0031 -0.4737  0.2701
  173MOL0     H23827  10.152   6.781  12.107 -5.2178  2.3803  2.5073
  173MOL0     H23828  10.102   6.985  12.252  2.5853  4.2359  0.5949
  173MOL0     H23829  10.166   7.093  12.132 -0.7623  1.5789 -0.1779
  173MOL0     H23830   9.926   7.076  12.129 -1.2516  0.2994 -2.7075
  173MOL0     H23831  10.038   7.089  11.988  1.2554  1.3311  0.8944
  173MOL0     H23832   9.730   6.746  11.977  0.1641  3.0261  0.8018
  173MOL0     H23833   9.531   6.668  11.871 -0.9809  0.2888  0.0757
  173MOL0     H23834   9.586   6.586  11.727  0.6365 -0.3094  2.1707
  173MOL0     H23835   9.485   6.736  11.715  0.1701  1.1066  1.6747
  173MOL0     H23836   9.489   7.007  11.328 -0.0331  0.5650 -0.4762
  173MOL0     H23837   9.414   6.983  11.087  1.9767  0.0870 -4.3781
  173MOL0     H23838   9.689   6.808  10.794 -0.5898  1.7904 -1.5851
  173MOL0     H23839   9.626   6.661  10.857  2.0309 -0.0617 -0.4641
  173MOL0     H23840   9.426   6.705  10.671 -0.3692 -1.0218  0.2181
  173MOL0     H23841   9.493   6.870  10.659  3.0110  0.5242  1.3330
  173MOL0     H23842   9.695   6.667  10.592  1.3257  0.7141 -1.5707
  173MOL0     H23843   9.644   6.829  10.523  1.8366 -0.9758 -1.4475
  173MOL0     H23844   9.501   6.576  10.469  0.4177  0.9877  0.2202
  173MOL0     H23845   9.631   6.647  10.377  1.8431  0.3456  0.5882
  173MOL0     H23846   9.377   6.686  10.309 -0.3725  0.4796  1.2229
  173MOL0     H23847   9.364   6.780  10.459  1.7582 -1.0321  2.3913
  173MOL0     H23848   9.555   6.851  10.236 -2.7092 -0.2293 -3.2685
  173MOL0     H23849   9.541   6.952  10.380 -4.7072  0.2093  2.6630
  173MOL0     H23850   9.309   6.897  10.181  0.4144  0.9293 -2.9803
  173MOL0     H23851   9.426   7.018  10.151  2.8416 -0.7832  0.6698
  173MOL0     H23852   9.252   7.138  10.260  0.5595  1.6079  0.9278
  173MOL0     H23853   9.353   7.098  10.400 -2.0163 -1.3657  2.1705
  173MOL0     H23854   9.775   6.771  11.003 -0.7525  1.0722 -0.2200
  173MOL0     H23855   9.845   6.787  11.247  1.0215  0.2531 -0.7274
  173MOL0     H23856   9.871   7.005  11.591  2.3104 -0.7827  0.4461
  173MOL0     H23857   9.966   7.049  11.804 -0.4670 -0.3052  1.5206
  173MOL0     H23858  10.404   6.028  10.793 -0.1397  0.1419  0.6227
  173MOL0     H23859  10.272   6.025  10.593  0.1981  0.7320 -1.2747
  173MOL0     H23860  10.009   6.018  10.324  0.3918  0.4385  2.3715
  173MOL0     H23861   9.970   6.043  10.081  2.3621 -1.7182  1.3406
  173MOL0     H23862   9.958   6.180   9.874 -0.9405  0.4963 -2.6668
  173MOL0     H23863   9.840   6.041   9.923 -0.3694  0.7744  2.0010
  173MOL0     H23864   9.832   6.117   9.667 -1.3276 -0.7186 -1.0692
  173MOL0     H23865   9.787   6.273   9.730 -1.4760 -0.8903 -2.4564
  173MOL0     H23866   9.638   6.006   9.779 -2.5228 -1.0377 -1.6377
  173MOL0     H23867   9.590   6.167   9.842 -2.5250 -2.4442 -1.5931
  173MOL0     H23868   9.488   6.058   9.639 -1.5419  2.5189  4.5413
  173MOL0     H23869   9.624   6.101   9.552 -3.1689  1.7337 -3.3323
  173MOL0     H23870   9.485   6.502   9.532 -0.8819  0.4258  2.3919
  173MOL0     H23871   9.673   6.336  10.162  1.1147  1.2177  0.3099
  173MOL0     H23872   9.645   6.428  10.341 -0.7241 -3.9905 -1.3358
  173MOL0     H23873   9.650   6.361  10.502  3.0979 -0.3477  2.8817
  173MOL0     H23874   9.788   6.462  10.452  0.5978 -0.4175  0.7529
  174MOL0     O23875  11.006   0.524   3.271 -0.3920 -0.1143  0.6080
  174MOL0     C23876  11.053   0.511   3.160 -0.8845  0.2873  0.4172
  174MOL0     O23877  11.002   0.433   3.055 -0.3891 -0.3275 -0.6923
  174MOL0     C23878  10.885   0.371   3.065  0.5928 -0.5542 -0.3383
  174MOL0     C23879  10.767   0.435   3.114  0.0913  0.1263  0.2752
  174MOL0     C23880  10.647   0.366   3.123 -0.5028  0.3533  0.8831
  174MOL0     C23881  10.633   0.236   3.080 -0.4086  0.2241 -0.6298
  174MOL0     O23882  10.507   0.185   3.084 -0.5314 -0.1752  0.4676
  174MOL0     C23883  10.466   0.098   2.980 -0.3793  0.6729 -0.7312
  174MOL0     C23884  10.458   0.178   2.845  1.3639 -0.2801  0.2743
  174MOL0     C23885  10.341   0.269   2.863 -0.3853 -0.1920  0.0382
  174MOL0     C23886  10.273   0.279   2.726  0.7154  0.0539 -0.1265
  174MOL0     C23887  10.358   0.354   2.616 -0.0263  0.2271  0.2292
  174MOL0     C23888  10.286   0.352   2.467  0.3317  0.3248  0.0428
  174MOL0     C23889  10.383   0.386   2.359  0.4254  0.6461 -0.1600
  174MOL0     C23890  10.408   0.538   2.347 -0.7884  0.0910 -0.3215
  174MOL0     N23891  10.502   0.587   2.237  1.0595 -0.4417  0.0442
  174MOL0     C23892  10.617   0.525   2.223  0.0179 -0.3503 -0.2435
  174MOL0     C23893  10.675   0.586   2.109 -0.2384  0.7324  0.1245
  174MOL0     C23894  10.816   0.571   2.051  0.1092  0.3992 -0.1198
  174MOL0     C23895  10.826   0.630   1.911  0.4719 -0.2650  0.0560
  174MOL0     C23896  10.965   0.610   1.850  0.3387 -0.0145  0.5643
  174MOL0     C23897  11.063   0.672   1.936  0.7802 -0.7669  0.3197
  174MOL0     O23898  11.184   0.678   1.865 -0.3297 -0.3414 -0.5522
  174MOL0     C23899  11.275   0.765   1.925 -0.0091 -0.6171  0.2740
  174MOL0     C23900  11.384   0.798   1.851 -0.3226 -0.4063  0.7799
  174MOL0     C23901  11.481   0.887   1.894 -0.0351 -0.2734  1.4290
  174MOL0     C23902  11.601   0.890   1.803 -0.6582 -0.1777 -0.1585
  174MOL0     C23903  11.465   0.955   2.020  1.0108  0.0648  0.3468
  174MOL0     C23904  11.564   1.042   2.068  0.0001 -0.9005 -0.1988
  174MOL0     O23905  11.626   1.124   1.973 -0.5974  0.1916  0.4777
  174MOL0     C23906  11.713   1.219   2.025 -0.3600  0.8810 -0.8715
  174MOL0     C23907  11.845   1.176   2.055  0.6954 -0.0823 -0.1942
  174MOL0     C23908  11.927   1.266   2.111 -0.7228  0.8658  0.1258
  174MOL0     C23909  11.884   1.401   2.144  0.2111 -0.3928 -0.5723
  174MOL0     O23910  11.961   1.486   2.219 -0.0587 -0.1193  0.2818
  174MOL0     C23911  11.904   1.613   2.268 -0.4067  0.2604  0.5518
  174MOL0     C23912  12.015   1.688   2.349  0.5948 -0.4741  0.5100
  174MOL0     C23913  12.057   1.609   2.470 -0.2018  1.3786 -0.2734
  174MOL0     C23914  12.155   1.688   2.549 -0.2029 -0.5919 -0.3726
  174MOL0     C23915  12.206   1.617   2.666  0.7524  0.5715 -0.2257
  174MOL0     C23916  12.272   1.706   2.767 -0.0622 -0.1040 -0.0910
  174MOL0     C23917  12.397   1.778   2.710 -0.2697  0.3161  0.1114
  174MOL0     C23918  12.509   1.827   2.814  0.7613  0.5223  0.4705
  174MOL0    Cl23919  12.614   1.939   2.726 -0.1066  0.2590  0.3793
  174MOL0     C23920  11.754   1.439   2.115  0.7267 -0.6240 -0.2357
  174MOL0     C23921  11.676   1.350   2.040 -0.4820  0.7775 -0.0616
  174MOL0     O23922  11.583   1.053   2.190 -0.1449 -0.6510  0.4430
  174MOL0     C23923  11.359   0.920   2.096  0.2099  0.7439  0.0293
  174MOL0     C23924  11.260   0.827   2.048 -0.2483 -0.0931  0.1914
  174MOL0     N23925  10.588   0.691   2.067 -0.0039  0.3472 -0.3251
  174MOL0     N23926  10.489   0.684   2.147 -0.0401  0.6434  0.4719
  174MOL0     C23927  10.748   0.177   3.034 -0.3665 -0.3450 -0.3429
  174MOL0     C23928  10.875   0.241   3.024  0.8866  0.3012 -0.7632
  174MOL0     C23929  11.195   0.571   3.146 -0.4949  0.5715  0.7728
  174MOL0     C23930  11.233   0.688   3.220  0.4065  0.7202  0.2953
  174MOL0     C23931  11.349   0.767   3.205 -1.4622 -0.3787  0.4402
  174MOL0     C23932  11.448   0.711   3.120  0.5426 -0.7447  0.3663
  174MOL0     O23933  11.569   0.780   3.107 -1.3900  0.0201  0.3329
  174MOL0     C23934  11.676   0.692   3.061  0.0264 -0.0623  0.2465
  174MOL0     C23935  11.807   0.780   3.056 -0.6845  0.8755  0.7401
  174MOL0     C23936  11.844   0.827   3.193  0.0099  0.2504 -0.4862
  174MOL0     C23937  11.977   0.907   3.194  0.5068  0.8944  0.5944
  174MOL0     C23938  11.979   0.992   3.314 -0.4166  0.4621  0.0202
  174MOL0     C23939  11.996   1.048   3.424  0.3655 -0.0495  0.8347
  174MOL0     C23940  11.407   0.602   3.042  0.0654 -0.3994 -0.3889
  174MOL0     C23941  11.282   0.545   3.036  0.0667  0.0780  0.5553
  174MOL0     C23942  11.253   0.451   2.930 -0.1850 -0.0261  0.1199
  174MOL0     H23943  10.762   0.539   3.142 -2.1158  0.4694 -1.2030
  174MOL0     H23944  10.562   0.414   3.171  0.0446  2.4576 -0.1457
  174MOL0     H23945  10.382   0.033   3.003  1.5329 -1.9047 -0.5438
  174MOL0     H23946  10.539   0.017   2.971  1.1864  1.6938  1.7621
  174MOL0     H23947  10.555   0.226   2.829  0.5892  0.9657 -0.8177
  174MOL0     H23948  10.440   0.116   2.757  0.1835 -0.5976  0.7190
  174MOL0     H23949  10.264   0.221   2.924 -0.1976 -0.8565 -0.2396
  174MOL0     H23950  10.380   0.361   2.909  0.7423 -0.2277 -0.7838
  174MOL0     H23951  10.242   0.182   2.686  1.6898 -0.7356  0.9879
  174MOL0     H23952  10.181   0.338   2.737  0.6304 -0.1656  0.3583
  174MOL0     H23953  10.457   0.307   2.620 -0.4214 -0.6581 -0.2150
  174MOL0     H23954  10.363   0.462   2.633 -2.1624  0.8883 -2.6295
  174MOL0     H23955  10.254   0.249   2.447  2.2765 -0.3647  0.1908
  174MOL0     H23956  10.198   0.416   2.460  1.0085  1.3988  1.0113
  174MOL0     H23957  10.350   0.341   2.265 -1.4437  2.6733 -0.5543
  174MOL0     H23958  10.478   0.351   2.401  0.3226  1.7937  1.0913
  174MOL0     H23959  10.312   0.591   2.341 -2.4209 -2.5449  0.5353
  174MOL0     H23960  10.444   0.575   2.443  0.1464  2.2240 -1.4359
  174MOL0     H23961  10.652   0.447   2.289  0.2243  0.8314  1.0898
  174MOL0     H23962  10.854   0.468   2.050 -0.8120 -0.0817 -4.3034
  174MOL0     H23963  10.888   0.618   2.119  0.0147 -0.2794  0.4625
  174MOL0     H23964  10.757   0.581   1.842 -0.3294 -0.8127  1.2116
  174MOL0     H23965  10.799   0.735   1.927 -1.6149 -1.0052  1.9208
  174MOL0     H23966  10.976   0.501   1.844 -3.4399 -0.6877  2.6212
  174MOL0     H23967  10.975   0.658   1.752 -0.4057  0.3291  0.6457
  174MOL0     H23968  11.035   0.776   1.954 -0.0524 -0.0690 -3.8092
  174MOL0     H23969  11.067   0.617   2.030  0.0962  0.7839  1.2922
  174MOL0     H23970  11.378   0.755   1.751  2.9252 -1.5928  0.9662
  174MOL0     H23971  11.688   0.858   1.860  0.7301  1.7269 -1.0813
  174MOL0     H23972  11.624   0.994   1.777  1.9590 -0.5685  0.3929
  174MOL0     H23973  11.580   0.825   1.717 -0.4238 -1.6345  0.8549
  174MOL0     H23974  11.877   1.080   2.015 -1.1983 -0.9382  0.2527
  174MOL0     H23975  12.032   1.240   2.125 -1.4592 -3.4629 -1.0873
  174MOL0     H23976  11.875   1.682   2.189  2.9149 -0.3795 -1.4191
  174MOL0     H23977  11.826   1.598   2.343  0.9745 -2.1731  1.6311
  174MOL0     H23978  12.094   1.716   2.278 -1.8942 -0.9687 -2.7069
  174MOL0     H23979  11.966   1.784   2.370 -1.2001 -1.6219  1.7912
  174MOL0     H23980  12.093   1.510   2.440  0.4325  1.2163  0.9460
  174MOL0     H23981  11.967   1.604   2.532  0.0888  2.7369  0.2983
  174MOL0     H23982  12.106   1.776   2.592  0.5235 -0.3044 -0.1260
  174MOL0     H23983  12.233   1.723   2.480  0.8604 -4.6260 -1.4888
  174MOL0     H23984  12.131   1.559   2.721  2.3714 -1.9257 -0.4791
  174MOL0     H23985  12.261   1.529   2.632 -2.7283 -1.8655 -0.0203
  174MOL0     H23986  12.297   1.651   2.858 -1.2917  2.8512  2.2138
  174MOL0     H23987  12.200   1.785   2.790 -0.1687 -0.2790  0.1822
  174MOL0     H23988  12.365   1.867   2.655 -0.9976  0.6398  1.0445
  174MOL0     H23989  12.444   1.715   2.634  0.8412  0.7678  0.4125
  174MOL0     H23990  12.558   1.735   2.846  0.5075 -0.6216 -2.2037
  174MOL0     H23991  12.469   1.859   2.911 -0.4084  2.5091 -0.6067
  174MOL0     H23992  11.714   1.538   2.129 -1.2073 -0.9767 -2.5988
  174MOL0     H23993  11.577   1.365   1.998 -0.3161 -2.7680 -2.1298
  174MOL0     H23994  11.353   0.965   2.194  1.4443  2.3344 -0.5656
  174MOL0     H23995  11.186   0.817   2.126  1.2178  2.8368  2.1625
  174MOL0     H23996  10.760   0.071   3.012 -0.0376 -0.3207 -0.2815
  174MOL0     H23997  10.964   0.188   2.991 -0.1484 -1.5466 -0.7688
  174MOL0     H23998  11.168   0.724   3.300 -0.4166  1.1975 -0.5692
  174MOL0     H23999  11.366   0.855   3.265  0.1270 -0.4435  0.1360
  174MOL0     H24000  11.687   0.599   3.117  0.5504 -0.8340 -1.0838
  174MOL0     H24001  11.661   0.676   2.954  4.5980 -2.3331 -0.3134
  174MOL0     H24002  11.796   0.860   2.982 -1.9257 -1.4727 -1.7701
  174MOL0     H24003  11.892   0.724   3.016  2.4426  2.4975  4.3909
  174MOL0     H24004  11.766   0.895   3.229 -0.5094 -0.7929  0.3783
  174MOL0     H24005  11.852   0.739   3.257  1.9298 -0.6060 -1.8078
  174MOL0     H24006  11.984   0.974   3.108 -0.2838 -2.3896 -2.2139
  174MOL0     H24007  12.069   0.847   3.193 -0.8792 -1.3171 -0.3499
  174MOL0     H24008  12.016   1.086   3.522  1.8512 -0.6504  0.7878
  174MOL0     H24009  11.483   0.561   2.976  1.7576 -2.5786  2.6795
  174MOL0     H24010  11.338   0.448   2.862  0.5087  1.3945  0.8879
  174MOL0     H24011  11.228   0.350   2.964 -0.1869  0.2449  0.9477
  174MOL0     H24012  11.160   0.489   2.885 -1.4457 -0.3431  2.3034
  175MOL0     O24013   1.008   2.358   8.419  0.2624 -0.0852 -0.1832
  175MOL0     C24014   0.894   2.355   8.456  0.9329  0.0408 -0.4742
  175MOL0     O24015   0.832   2.445   8.538 -0.3935 -0.2967  0.5408
  175MOL0     C24016   0.923   2.544   8.585 -0.4263 -0.2089 -0.0775
  175MOL0     C24017   0.965   2.550   8.711 -0.5237 -0.0653 -0.5382
  175MOL0     C24018   1.043   2.655   8.750  0.3239  1.2977  0.7212
  175MOL0     C24019   1.080   2.753   8.663 -1.1769  0.1023  0.9278
  175MOL0     O24020   1.163   2.846   8.716  0.0148 -0.3462  0.2333
  175MOL0     C24021   1.264   2.914   8.637  0.5848 -0.2149  0.2677
  175MOL0     C24022   1.334   3.027   8.714  0.9096 -0.5886 -0.2736
  175MOL0     C24023   1.395   2.970   8.845  0.1589  0.3209 -0.8574
  175MOL0     C24024   1.496   3.057   8.906  0.1435 -0.9576 -0.2465
  175MOL0     C24025   1.575   3.010   9.023  0.6136 -0.5512 -0.0680
  175MOL0     C24026   1.647   3.124   9.099 -0.4493  0.0493 -0.5637
  175MOL0     C24027   1.717   3.071   9.219 -0.7070 -0.0722 -0.0743
  175MOL0     C24028   1.620   3.024   9.333 -0.2777 -0.1961 -0.3308
  175MOL0     N24029   1.577   3.131   9.423 -0.1380 -0.2709  0.4797
  175MOL0     C24030   1.585   3.133   9.561 -0.6150  0.3871 -0.2063
  175MOL0     C24031   1.534   3.252   9.597 -0.4989  0.1310 -0.0096
  175MOL0     C24032   1.518   3.299   9.737  0.3339 -0.1972 -1.1228
  175MOL0     C24033   1.622   3.403   9.784 -0.3499  0.3138 -0.0590
  175MOL0     C24034   1.606   3.543   9.720  0.4692 -0.1134 -0.3020
  175MOL0     C24035   1.733   3.621   9.724  0.0415  0.5595 -0.7054
  175MOL0     O24036   1.819   3.556   9.625  0.2567  0.4825  0.0076
  175MOL0     C24037   1.839   3.624   9.510 -0.0217 -0.3602  0.9025
  175MOL0     C24038   1.796   3.558   9.402 -0.3636 -0.3982  0.2216
  175MOL0     C24039   1.813   3.605   9.273  0.2753  0.0207 -0.2777
  175MOL0     C24040   1.774   3.511   9.168  1.0704 -0.0354 -0.2281
  175MOL0     C24041   1.871   3.732   9.255 -0.5860 -0.0664  0.1307
  175MOL0     C24042   1.893   3.796   9.128 -0.7183 -0.3073  1.5047
  175MOL0     O24043   1.911   3.711   9.021 -0.1890 -0.5254 -0.1743
  175MOL0     C24044   1.914   3.749   8.887  0.4272  0.1780 -0.5637
  175MOL0     C24045   1.901   3.651   8.787 -0.4468 -0.3311 -0.8691
  175MOL0     C24046   1.890   3.688   8.656 -0.2623 -0.2968 -0.3488
  175MOL0     C24047   1.915   3.823   8.618  1.2952  0.0612 -0.4653
  175MOL0     O24048   1.921   3.858   8.491  0.7388 -0.1253 -0.2333
  175MOL0     C24049   1.856   3.977   8.466 -0.4406 -0.2928  0.1340
  175MOL0     C24050   1.815   3.986   8.313 -1.1929 -0.8099 -0.6182
  175MOL0     C24051   1.730   3.874   8.246  0.0654 -0.2588 -0.7389
  175MOL0     C24052   1.596   3.842   8.321 -0.1521  0.2632  0.7661
  175MOL0     C24053   1.510   3.749   8.234  0.3563 -0.2860 -0.2678
  175MOL0     C24054   1.540   3.602   8.240  0.2964 -0.7692  0.0292
  175MOL0     C24055   1.446   3.527   8.141 -0.2576  1.4486  0.0935
  175MOL0     C24056   1.299   3.533   8.179  0.6790  1.1638 -0.9797
  175MOL0    Cl24057   1.208   3.420   8.102 -0.0226 -0.1609  0.2670
  175MOL0     C24058   1.952   3.918   8.717  0.1262 -0.8008  0.3897
  175MOL0     C24059   1.942   3.887   8.853 -0.2578 -0.0062 -0.8859
  175MOL0     O24060   1.861   3.915   9.123  0.2576 -0.2195 -0.4222
  175MOL0     C24061   1.912   3.802   9.362  0.9330 -0.3406 -0.2948
  175MOL0     C24062   1.895   3.750   9.495  0.2437  0.1525 -0.3440
  175MOL0     N24063   1.485   3.321   9.486  0.4456 -0.3239  0.4301
  175MOL0     N24064   1.521   3.252   9.383 -0.6368  0.6832 -0.0357
  175MOL0     C24065   1.031   2.749   8.531  0.8038  0.4224  0.2738
  175MOL0     C24066   0.954   2.642   8.492 -0.3379  0.4980  0.0081
  175MOL0     C24067   0.794   2.253   8.413 -0.0826  0.7247 -0.0164
  175MOL0     C24068   0.661   2.278   8.390  0.9041  0.4691  0.4438
  175MOL0     C24069   0.571   2.182   8.346 -0.0093 -0.3045  0.2643
  175MOL0     C24070   0.614   2.060   8.301 -0.0174  0.0894 -0.0028
  175MOL0     O24071   0.521   1.974   8.249  0.0342  0.3950 -0.4599
  175MOL0     C24072   0.526   1.839   8.271  0.3627  0.4255  0.8223
  175MOL0     C24073   0.402   1.801   8.350 -0.0132  0.3142 -0.4480
  175MOL0     C24074   0.268   1.833   8.290 -0.5890 -0.1986  0.3699
  175MOL0     C24075   0.154   1.782   8.372  0.1934  0.1806  0.7757
  175MOL0     C24076   0.107   1.660   8.318  0.0505  0.0517  0.3877
  175MOL0     C24077   0.083   1.556   8.265  0.8890 -0.9189 -1.0259
  175MOL0     C24078   0.752   2.023   8.317  0.1190 -0.1397  0.4572
  175MOL0     C24079   0.840   2.118   8.380 -0.7526 -0.3867  0.1738
  175MOL0     C24080   0.982   2.067   8.406 -0.5820 -0.6862  0.2537
  175MOL0     H24081   0.934   2.487   8.794  0.8867  1.1102  0.9378
  175MOL0     H24082   1.052   2.662   8.858  0.0832  1.1941  0.7497
  175MOL0     H24083   1.215   2.940   8.543 -1.0394 -2.2549  0.4799
  175MOL0     H24084   1.340   2.839   8.614 -1.8135 -1.6348 -4.0337
  175MOL0     H24085   1.410   3.077   8.653 -1.6449 -0.1474 -3.3483
  175MOL0     H24086   1.266   3.104   8.751  0.8430  0.0156 -1.5843
  175MOL0     H24087   1.314   2.954   8.917  1.4823 -0.8200  0.4607
  175MOL0     H24088   1.437   2.872   8.821  0.0816 -0.7415  2.6786
  175MOL0     H24089   1.568   3.081   8.828 -0.4774  0.3647 -0.4411
  175MOL0     H24090   1.448   3.152   8.932  0.3349 -0.6420 -1.0111
  175MOL0     H24091   1.650   2.937   8.992 -0.1526 -1.4798  0.2281
  175MOL0     H24092   1.512   2.963   9.099 -0.4111  1.6251  0.5033
  175MOL0     H24093   1.730   3.167   9.043  0.9120  3.7470  3.6474
  175MOL0     H24094   1.586   3.204   9.143 -1.2160 -1.0516  0.4583
  175MOL0     H24095   1.789   3.140   9.265 -0.6257 -1.6068  2.2381
  175MOL0     H24096   1.777   2.987   9.182  2.1438  2.0179 -0.5734
  175MOL0     H24097   1.538   2.964   9.293 -0.3768 -0.0333 -0.3750
  175MOL0     H24098   1.682   2.956   9.392 -1.6500 -2.5599 -1.4619
  175MOL0     H24099   1.626   3.059   9.629 -2.5613 -0.2977  0.2870
  175MOL0     H24100   1.510   3.215   9.807 -0.8265  0.8767  0.0857
  175MOL0     H24101   1.419   3.344   9.738  0.3904 -0.0487  0.9104
  175MOL0     H24102   1.637   3.421   9.891  3.8301  1.6572 -0.6744
  175MOL0     H24103   1.720   3.366   9.750 -0.0864  2.0024 -1.2596
  175MOL0     H24104   1.567   3.541   9.617 -2.0886 -1.8527  0.6168
  175MOL0     H24105   1.529   3.604   9.767  0.1209  0.4104 -1.5051
  175MOL0     H24106   1.712   3.728   9.721  0.0212  0.7554  2.6333
  175MOL0     H24107   1.788   3.610   9.818  0.6065 -1.2097 -1.2099
  175MOL0     H24108   1.754   3.460   9.424 -0.9140 -0.2905 -0.3202
  175MOL0     H24109   1.865   3.469   9.124  1.2010 -0.0520  0.0531
  175MOL0     H24110   1.716   3.556   9.087 -1.3733 -0.0605  1.4043
  175MOL0     H24111   1.714   3.431   9.212  0.6030  1.9057  3.0070
  175MOL0     H24112   1.889   3.546   8.809  0.0201 -0.4137 -1.0026
  175MOL0     H24113   1.883   3.625   8.568 -0.9007  1.4429 -1.6144
  175MOL0     H24114   1.765   3.985   8.526 -1.9555 -1.1774 -1.9356
  175MOL0     H24115   1.922   4.063   8.481  1.3607 -1.7088  0.7319
  175MOL0     H24116   1.781   4.086   8.286 -1.3722 -0.9258 -0.8231
  175MOL0     H24117   1.916   3.989   8.272 -1.4896 -0.5171 -1.3398
  175MOL0     H24118   1.800   3.791   8.237 -0.9243 -1.4497  1.5337
  175MOL0     H24119   1.710   3.910   8.145 -0.4222 -0.4289 -0.7105
  175MOL0     H24120   1.550   3.939   8.341  2.1756  2.2702 -2.6608
  175MOL0     H24121   1.609   3.789   8.416  0.0967  2.1560  1.8258
  175MOL0     H24122   1.409   3.772   8.269 -0.4859 -0.3940 -2.4827
  175MOL0     H24123   1.524   3.787   8.133  0.9497  1.0983  0.3087
  175MOL0     H24124   1.519   3.576   8.344  1.6278 -1.0641  0.2498
  175MOL0     H24125   1.647   3.583   8.230  0.5540 -0.8149  2.2739
  175MOL0     H24126   1.484   3.426   8.126 -1.2212  1.0797  0.0319
  175MOL0     H24127   1.455   3.587   8.051 -0.9232  3.0165  1.0298
  175MOL0     H24128   1.247   3.627   8.165  0.9036  1.4249 -0.1075
  175MOL0     H24129   1.290   3.498   8.283 -2.2380  0.6717 -1.3165
  175MOL0     H24130   1.961   4.024   8.695 -1.1139 -0.9009 -0.7271
  175MOL0     H24131   1.959   3.967   8.924 -0.7334 -0.4236 -0.2906
  175MOL0     H24132   1.941   3.905   9.349 -2.8713  1.2462  1.9192
  175MOL0     H24133   1.922   3.812   9.580  0.0282  0.8455 -0.7730
  175MOL0     H24134   1.055   2.830   8.463 -1.1357  1.9830  1.3291
  175MOL0     H24135   0.914   2.641   8.391  1.2863  1.9238 -0.6994
  175MOL0     H24136   0.632   2.378   8.421 -1.1589  0.3277 -0.8049
  175MOL0     H24137   0.465   2.203   8.342 -0.0669 -0.6918 -0.5197
  175MOL0     H24138   0.532   1.775   8.182  2.6872  0.6436  0.7631
  175MOL0     H24139   0.618   1.802   8.317  1.8315  1.2953 -1.2301
  175MOL0     H24140   0.411   1.851   8.447 -0.8351 -0.7189  0.1873
  175MOL0     H24141   0.403   1.695   8.375  0.9342  0.8249  1.9547
  175MOL0     H24142   0.265   1.942   8.286 -0.4167 -0.2275 -0.7059
  175MOL0     H24143   0.270   1.801   8.186  2.1433 -0.5293  0.4432
  175MOL0     H24144   0.068   1.846   8.351 -1.0053 -1.5322  0.2464
  175MOL0     H24145   0.189   1.772   8.475  1.7363  3.2171  0.6747
  175MOL0     H24146   0.052   1.463   8.222  0.1798 -1.2312  0.1011
  175MOL0     H24147   0.805   1.931   8.295  1.2212  0.3040  1.1287
  175MOL0     H24148   1.049   2.095   8.325 -0.8335 -0.2380  0.1969
  175MOL0     H24149   1.015   2.112   8.501 -1.6940  0.9536 -0.0821
  175MOL0     H24150   0.995   1.960   8.420 -0.3516 -0.7587 -0.4904
  176MOL0     O24151   9.046   4.848   6.803  0.0861 -0.5487  0.7785
  176MOL0     C24152   9.113   4.857   6.901 -0.8921  0.4998 -0.9770
  176MOL0     O24153   9.253   4.838   6.905  0.0364  0.4786  0.0770
  176MOL0     C24154   9.307   4.726   6.838 -0.2027  0.9572  0.9238
  176MOL0     C24155   9.233   4.609   6.832  0.6925  1.0579  0.0839
  176MOL0     C24156   9.268   4.510   6.744  0.4656 -0.1858  0.2882
  176MOL0     C24157   9.386   4.515   6.671  0.2021 -0.6361 -0.0103
  176MOL0     O24158   9.427   4.418   6.594  0.7896  0.2924 -0.4563
  176MOL0     C24159   9.547   4.345   6.639  0.0950 -0.5608  0.5559
  176MOL0     C24160   9.504   4.239   6.741 -0.0560  0.5824 -0.3858
  176MOL0     C24161   9.446   4.127   6.666  0.0679  0.6227  0.7230
  176MOL0     C24162   9.398   4.015   6.752 -0.6730 -1.0635 -0.3852
  176MOL0     C24163   9.285   4.060   6.842 -0.0242 -0.0703  0.3619
  176MOL0     C24164   9.219   3.938   6.913 -0.0446 -0.2691  0.3856
  176MOL0     C24165   9.118   3.982   7.004 -0.6654 -0.3141  0.4509
  176MOL0     C24166   9.052   3.862   7.078 -0.4015 -1.2718 -0.7350
  176MOL0     N24167   8.982   3.908   7.198 -0.1787 -0.3997 -0.1146
  176MOL0     C24168   8.860   3.989   7.200  0.1066 -0.0201 -0.0698
  176MOL0     C24169   8.826   3.999   7.324  0.5776  0.0837 -0.3414
  176MOL0     C24170   8.696   4.068   7.379  1.2370 -0.0503  0.2875
  176MOL0     C24171   8.713   4.088   7.524 -1.2784 -1.2486 -1.1190
  176MOL0     C24172   8.598   4.144   7.594  0.0359  0.4391 -0.7715
  176MOL0     C24173   8.488   4.037   7.620  0.1504  0.4452  0.6466
  176MOL0     O24174   8.375   4.100   7.683  0.2920  0.0337  0.3242
  176MOL0     C24175   8.369   4.112   7.820 -1.0545  0.4313  0.6275
  176MOL0     C24176   8.472   4.092   7.912  0.6883  1.7689 -0.3297
  176MOL0     C24177   8.454   4.089   8.055 -0.4761  0.3915 -0.2129
  176MOL0     C24178   8.571   4.064   8.152 -0.5844 -0.6561  0.4901
  176MOL0     C24179   8.315   4.094   8.101 -1.0638  0.5860  0.9067
  176MOL0     C24180   8.279   4.081   8.244  0.5994 -0.5183  0.1057
  176MOL0     O24181   8.320   3.973   8.305 -0.3109  0.7392 -1.0158
  176MOL0     C24182   8.315   3.957   8.444 -0.1463  0.0646  0.9053
  176MOL0     C24183   8.198   3.992   8.516  0.0793  0.6920  0.1699
  176MOL0     C24184   8.195   3.974   8.657 -0.5539  0.4005  0.7098
  176MOL0     C24185   8.313   3.913   8.726 -0.3703 -0.8591 -0.7441
  176MOL0     O24186   8.326   3.896   8.863 -0.5612  0.2252  0.3163
  176MOL0     C24187   8.265   3.992   8.957 -0.6995 -0.2156 -0.7683
  176MOL0     C24188   8.356   4.042   9.058 -0.2689 -0.3461  0.5870
  176MOL0     C24189   8.463   4.144   8.993  0.4237 -0.6230 -0.4748
  176MOL0     C24190   8.541   4.253   9.081  0.1410 -0.5266  0.1495
  176MOL0     C24191   8.603   4.371   9.000 -0.2425 -0.0563  0.4953
  176MOL0     C24192   8.615   4.482   9.103  0.0579 -0.3676  0.3151
  176MOL0     C24193   8.665   4.621   9.043 -0.6035  0.2522 -0.9669
  176MOL0     C24194   8.735   4.713   9.150  0.1515  0.9279 -0.2104
  176MOL0    Cl24195   8.754   4.868   9.084  0.4550  0.3747  0.2202
  176MOL0     C24196   8.424   3.880   8.646  0.3590 -0.4759  0.0430
  176MOL0     C24197   8.424   3.903   8.510 -0.5164 -0.1923 -0.3035
  176MOL0     O24198   8.229   4.180   8.302 -0.1363 -0.3250  0.0675
  176MOL0     C24199   8.210   4.099   8.010  0.3050 -0.1417 -0.6546
  176MOL0     C24200   8.240   4.105   7.872  0.4031 -0.3670 -0.1776
  176MOL0     N24201   8.927   3.951   7.393  0.4253  0.1211 -0.3769
  176MOL0     N24202   9.030   3.901   7.328  0.3177  0.0864  0.2870
  176MOL0     C24203   9.449   4.640   6.664 -0.0966 -0.6975  0.4064
  176MOL0     C24204   9.428   4.738   6.752  0.4206 -0.3808 -0.4422
  176MOL0     C24205   9.059   4.905   7.023  0.2472  0.5184 -0.4123
  176MOL0     C24206   8.926   4.861   7.058 -0.1502  0.3125  0.0415
  176MOL0     C24207   8.862   4.915   7.167  0.0550 -0.5389  0.1006
  176MOL0     C24208   8.925   5.006   7.244 -0.0530 -0.3306  0.1062
  176MOL0     O24209   8.864   5.057   7.353  0.0900 -0.2549  0.2163
  176MOL0     C24210   8.907   4.996   7.475  0.1941 -0.0209  0.1387
  176MOL0     C24211   8.818   4.883   7.542  0.4773 -0.0388 -0.4615
  176MOL0     C24212   8.683   4.920   7.603  0.6730 -0.1456 -0.9249
  176MOL0     C24213   8.711   5.010   7.727  0.9745 -0.6022 -0.2179
  176MOL0     C24214   8.772   4.933   7.837 -0.4034  0.1316 -0.0506
  176MOL0     C24215   8.828   4.853   7.911  0.4578 -0.3498  0.0701
  176MOL0     C24216   9.053   5.048   7.208 -0.1850 -0.2572 -0.7853
  176MOL0     C24217   9.120   5.008   7.094  0.3935  0.3611 -0.5007
  176MOL0     C24218   9.242   5.086   7.057 -0.6460  0.5239  0.6663
  176MOL0     H24219   9.139   4.598   6.886  0.4801  2.1341 -0.0448
  176MOL0     H24220   9.220   4.414   6.727  0.2732  0.2518 -1.8789
  176MOL0     H24221   9.626   4.411   6.676  1.1065 -0.9874 -0.7763
  176MOL0     H24222   9.591   4.310   6.546  0.7951  1.3397  0.1233
  176MOL0     H24223   9.586   4.201   6.802 -0.7677  0.9564  0.8471
  176MOL0     H24224   9.427   4.287   6.803  0.1654 -0.8434  1.0573
  176MOL0     H24225   9.365   4.151   6.597 -0.4035 -1.0363  0.6621
  176MOL0     H24226   9.520   4.086   6.597 -1.6392  0.0633 -0.8275
  176MOL0     H24227   9.351   3.940   6.688 -2.9711  0.3141 -0.4277
  176MOL0     H24228   9.481   3.972   6.810 -0.1040  1.1074  0.5146
  176MOL0     H24229   9.203   4.109   6.789 -0.7679 -1.7604 -0.1092
  176MOL0     H24230   9.324   4.141   6.905 -1.5838 -0.4072  1.8196
  176MOL0     H24231   9.155   3.891   6.838  1.4145  1.9216 -2.4232
  176MOL0     H24232   9.297   3.870   6.948 -1.8534 -3.8466 -1.9273
  176MOL0     H24233   9.039   4.041   6.956 -1.8636  0.0970  2.7929
  176MOL0     H24234   9.168   4.039   7.083 -0.3871 -2.1481  1.6392
  176MOL0     H24235   8.984   3.813   7.009 -0.4296 -0.8618 -1.0027
  176MOL0     H24236   9.134   3.802   7.120  1.2941  1.9574  0.9951
  176MOL0     H24237   8.793   4.020   7.121 -1.4577 -1.4867  0.6071
  176MOL0     H24238   8.601   4.015   7.365  1.6907 -1.5704  2.5228
  176MOL0     H24239   8.686   4.162   7.323  2.3802  0.1843  0.4581
  176MOL0     H24240   8.740   3.992   7.569  0.5914  0.5073  1.8506
  176MOL0     H24241   8.796   4.158   7.538 -1.2304 -1.3043 -1.1252
  176MOL0     H24242   8.614   4.207   7.683 -2.0679  0.0839 -0.0881
  176MOL0     H24243   8.539   4.210   7.530  1.1894  0.7663 -1.5340
  176MOL0     H24244   8.452   3.996   7.526  0.1909  3.7390 -0.9549
  176MOL0     H24245   8.537   3.957   7.677  2.0083  0.5553 -0.7137
  176MOL0     H24246   8.573   4.078   7.875  1.2663 -0.0354  1.7255
  176MOL0     H24247   8.647   4.010   8.094 -3.2089 -3.1070 -0.8575
  176MOL0     H24248   8.546   3.995   8.233  3.4628 -3.4500 -0.3271
  176MOL0     H24249   8.609   4.152   8.207 -0.6723  0.1003 -0.6237
  176MOL0     H24250   8.111   4.031   8.464 -0.7181  1.0744  1.7107
  176MOL0     H24251   8.101   3.996   8.705 -1.0704  0.1123 -0.1571
  176MOL0     H24252   8.213   4.073   8.905 -0.6080 -0.5785 -1.4313
  176MOL0     H24253   8.192   3.931   9.010  1.6884 -1.2570  1.5465
  176MOL0     H24254   8.309   4.109   9.131  1.6136  3.1519 -1.1410
  176MOL0     H24255   8.403   3.959   9.111  1.6395  0.5244  0.3875
  176MOL0     H24256   8.405   4.209   8.927  0.0667 -0.9082 -0.4436
  176MOL0     H24257   8.543   4.084   8.948  0.1916 -0.8855 -0.5424
  176MOL0     H24258   8.624   4.208   9.137  2.6075  2.9223 -0.3260
  176MOL0     H24259   8.469   4.290   9.154 -2.1835 -0.4951 -2.0411
  176MOL0     H24260   8.700   4.347   8.956 -1.5649 -0.4884 -2.3941
  176MOL0     H24261   8.532   4.402   8.922 -1.1843  1.9105  2.0320
  176MOL0     H24262   8.690   4.442   9.171  0.5019 -1.1942 -0.6270
  176MOL0     H24263   8.520   4.504   9.154  0.1805  0.4843  0.1896
  176MOL0     H24264   8.583   4.680   9.001 -1.6776  0.1085  0.8561
  176MOL0     H24265   8.747   4.597   8.974 -0.2605 -1.8669  0.0978
  176MOL0     H24266   8.832   4.676   9.183 -0.4098 -1.6902 -1.2517
  176MOL0     H24267   8.670   4.714   9.238 -1.1829 -3.8389 -0.8552
  176MOL0     H24268   8.519   3.849   8.688 -0.5100 -2.8620  0.4074
  176MOL0     H24269   8.510   3.876   8.449  0.5824  1.6041  0.3571
  176MOL0     H24270   8.108   4.096   8.048  1.1076 -4.0617  1.7265
  176MOL0     H24271   8.145   4.118   7.820 -0.5526  1.6331  1.8722
  176MOL0     H24272   9.529   4.649   6.591  0.9856 -3.9723  0.9861
  176MOL0     H24273   9.496   4.823   6.745  0.5416  0.0603  3.5398
  176MOL0     H24274   8.873   4.792   6.994  0.8526 -0.2793 -0.1767
  176MOL0     H24275   8.760   4.886   7.189 -0.6114  1.2417 -0.4319
  176MOL0     H24276   9.007   4.960   7.448  2.6084  3.1227  3.8167
  176MOL0     H24277   8.919   5.076   7.549 -0.7543 -0.1331  0.4280
  176MOL0     H24278   8.874   4.834   7.621  0.4731  0.2584 -0.2741
  176MOL0     H24279   8.814   4.814   7.457 -0.8419  3.1496 -3.1974
  176MOL0     H24280   8.613   4.978   7.541 -2.1806 -0.6846  1.5254
  176MOL0     H24281   8.627   4.838   7.650 -1.2569  0.6008 -1.7924
  176MOL0     H24282   8.616   5.052   7.762  2.0864  0.3989  1.7443
  176MOL0     H24283   8.773   5.088   7.682  2.6175 -1.8534 -0.2163
  176MOL0     H24284   8.873   4.773   7.967 -4.1470 -1.5826  2.5084
  176MOL0     H24285   9.094   5.127   7.269 -2.1802 -1.4511  2.3474
  176MOL0     H24286   9.213   5.134   6.963 -1.5099 -1.6016 -0.2056
  176MOL0     H24287   9.259   5.168   7.128 -1.9519  0.4547  1.0880
  176MOL0     H24288   9.339   5.038   7.043 -0.3105  1.9297 -2.7434
  177MOL0     O24289   9.905   6.944   7.743 -0.2523 -1.0543 -0.4489
  177MOL0     C24290   9.973   6.907   7.844  0.3819 -0.1581  0.2793
  177MOL0     O24291   9.911   6.863   7.962 -0.5591  0.2238 -0.4824
  177MOL0     C24292   9.776   6.835   7.963  0.2867  0.8283  0.8087
  177MOL0     C24293   9.694   6.945   7.978 -0.9392 -0.9780  0.0784
  177MOL0     C24294   9.556   6.940   7.955  0.5267 -0.2306  0.2877
  177MOL0     C24295   9.498   6.812   7.940 -0.4168  0.5714 -0.6058
  177MOL0     O24296   9.362   6.816   7.927  0.0001  0.4881  0.2209
  177MOL0     C24297   9.313   6.701   7.854  0.7257 -0.9351  0.3344
  177MOL0     C24298   9.158   6.705   7.842 -0.0731  0.1119  0.1576
  177MOL0     C24299   9.099   6.844   7.790 -0.5828 -0.4338  0.3578
  177MOL0     C24300   9.125   6.866   7.635 -0.3157 -0.0339  0.2196
  177MOL0     C24301   9.020   6.958   7.577 -0.5128  0.8048  0.6062
  177MOL0     C24302   9.026   6.956   7.425 -0.1897  0.3171 -0.3217
  177MOL0     C24303   9.155   7.008   7.357  0.3104 -0.4945  0.0029
  177MOL0     C24304   9.111   7.020   7.203 -0.5676  1.0247 -0.0806
  177MOL0     N24305   9.225   7.052   7.118  0.6651  0.3177 -0.9735
  177MOL0     C24306   9.245   7.004   6.993  1.1654 -0.4153 -0.3421
  177MOL0     C24307   9.354   7.070   6.945 -0.0842 -0.4320 -0.0700
  177MOL0     C24308   9.414   7.058   6.803 -0.0231 -0.1005 -0.2278
  177MOL0     C24309   9.525   6.960   6.791 -0.7056  0.4105  0.5924
  177MOL0     C24310   9.639   7.024   6.702 -0.0584 -0.8601 -0.0982
  177MOL0     C24311   9.618   7.022   6.549  0.2103 -0.9944  0.3478
  177MOL0     O24312   9.580   6.897   6.487 -0.4326 -0.3476  0.6234
  177MOL0     C24313   9.676   6.793   6.478  0.1217  0.5518  0.2777
  177MOL0     C24314   9.618   6.672   6.450 -0.6773  0.4314  1.1481
  177MOL0     C24315   9.695   6.555   6.436 -0.2663  0.9557 -0.3599
  177MOL0     C24316   9.628   6.420   6.430 -0.1158 -0.3281  0.5094
  177MOL0     C24317   9.830   6.564   6.461 -0.2562 -0.1977  0.6591
  177MOL0     C24318   9.915   6.448   6.457 -0.5870 -0.3736 -0.9764
  177MOL0     O24319  10.022   6.446   6.545  0.5868 -0.3180 -1.2233
  177MOL0     C24320  10.120   6.355   6.553 -0.2033  0.4536  0.6157
  177MOL0     C24321  10.226   6.398   6.640 -1.0403  1.1247 -0.3329
  177MOL0     C24322  10.345   6.323   6.651  0.4018 -0.4286 -0.4119
  177MOL0     C24323  10.363   6.208   6.578 -1.4203  0.4451 -0.6742
  177MOL0     O24324  10.472   6.125   6.585  0.2910  0.5818  0.5277
  177MOL0     C24325  10.600   6.194   6.591 -0.3181 -0.2873  0.3258
  177MOL0     C24326  10.710   6.083   6.594  0.5421  0.0528 -0.3739
  177MOL0     C24327  10.844   6.143   6.554  0.8107 -0.0783  1.2590
  177MOL0     C24328  10.950   6.040   6.497  0.7202 -0.3229 -0.4571
  177MOL0     C24329  11.059   6.112   6.422 -0.8136 -0.3693  0.9479
  177MOL0     C24330  11.194   6.031   6.412  0.8217 -0.5516 -0.0022
  177MOL0     C24331  11.269   6.028   6.547 -0.3101  0.3203 -0.0549
  177MOL0     C24332  11.423   5.989   6.518 -0.2675  0.4580 -0.1825
  177MOL0    Cl24333  11.437   5.817   6.444 -0.2989  0.3511  0.4744
  177MOL0     C24334  10.259   6.169   6.496 -0.5743  0.3670 -0.3711
  177MOL0     C24335  10.137   6.233   6.485  1.0140 -0.5558  0.0053
  177MOL0     O24336   9.897   6.370   6.359  0.6696 -0.4073  0.0522
  177MOL0     C24337   9.896   6.682   6.488 -0.3852 -0.0004  0.4420
  177MOL0     C24338   9.819   6.801   6.486 -0.3016  0.5711 -0.2597
  177MOL0     N24339   9.397   7.153   7.051  0.6564  0.2782 -0.0192
  177MOL0     N24340   9.319   7.141   7.148  0.6661  0.2487 -0.8914
  177MOL0     C24341   9.585   6.699   7.912 -0.4450 -0.7870 -0.4603
  177MOL0     C24342   9.718   6.710   7.936  0.4108 -0.6211 -0.2816
  177MOL0     C24343  10.113   6.914   7.851  0.0256 -0.2336  0.7694
  177MOL0     C24344  10.179   7.034   7.895  0.4891  0.0812 -0.3529
  177MOL0     C24345  10.312   7.044   7.915 -0.9399  0.0966  0.3473
  177MOL0     C24346  10.386   6.933   7.905 -0.0776  0.5531 -0.0082
  177MOL0     O24347  10.518   6.919   7.936  0.3239 -0.3210 -0.7754
  177MOL0     C24348  10.595   6.945   7.822 -0.1713  0.2398  0.2508
  177MOL0     C24349  10.701   6.833   7.841 -0.2613  0.1462 -0.0196
  177MOL0     C24350  10.779   6.834   7.971  0.1322  0.2393 -0.3354
  177MOL0     C24351  10.945   6.841   7.955  0.2676  0.7907 -0.6642
  177MOL0     C24352  11.009   6.800   8.079 -0.2462 -0.3365  0.5156
  177MOL0     C24353  11.068   6.743   8.169  0.3926 -0.1403 -0.1477
  177MOL0     C24354  10.327   6.810   7.867 -0.7353  0.0127 -0.0323
  177MOL0     C24355  10.193   6.796   7.848  1.5904  0.5205  0.3498
  177MOL0     C24356  10.129   6.661   7.814 -0.4341 -0.3501 -0.2685
  177MOL0     H24357   9.744   7.034   8.015 -1.3413 -0.7809  0.1499
  177MOL0     H24358   9.491   7.026   7.968  1.2763  0.5041 -0.6952
  177MOL0     H24359   9.329   6.604   7.903  0.9793 -2.9093 -3.3289
  177MOL0     H24360   9.357   6.697   7.754 -0.0039  1.1778 -0.1225
  177MOL0     H24361   9.125   6.627   7.772  1.3870  0.7439 -1.3095
  177MOL0     H24362   9.120   6.681   7.941 -0.2445 -0.5619 -0.0654
  177MOL0     H24363   8.994   6.834   7.816 -1.0299 -0.1625 -1.2397
  177MOL0     H24364   9.127   6.928   7.855 -1.8532  0.4297 -0.1603
  177MOL0     H24365   9.215   6.926   7.621 -1.0473  0.6410 -1.9865
  177MOL0     H24366   9.117   6.767   7.589 -3.2782 -0.9949  2.4726
  177MOL0     H24367   9.036   7.061   7.612 -0.0378  0.7657  0.5193
  177MOL0     H24368   8.921   6.929   7.612 -0.0533 -0.0962  1.1965
  177MOL0     H24369   9.024   6.852   7.393 -0.8679  0.4786 -0.8303
  177MOL0     H24370   8.936   7.007   7.386  0.9106  1.3936 -1.5704
  177MOL0     H24371   9.243   6.942   7.358  1.2073  0.5987 -1.8119
  177MOL0     H24372   9.191   7.104   7.394 -0.4109 -0.0895 -0.3500
  177MOL0     H24373   9.053   6.939   7.159  1.4604 -0.6538  0.1769
  177MOL0     H24374   9.043   7.106   7.199 -1.4962  0.2708 -1.6669
  177MOL0     H24375   9.188   6.932   6.934 -1.2549  0.8980  0.2519
  177MOL0     H24376   9.445   7.160   6.781  0.4018 -0.3481 -0.7762
  177MOL0     H24377   9.346   7.029   6.722 -0.3287 -2.6604  0.8439
  177MOL0     H24378   9.563   6.927   6.888 -1.3136  0.7738  0.9648
  177MOL0     H24379   9.490   6.866   6.747 -0.2686  0.6891 -0.3806
  177MOL0     H24380   9.663   7.122   6.744 -0.2442 -1.2903  1.0333
  177MOL0     H24381   9.732   6.967   6.710  0.8008  0.1444 -2.2062
  177MOL0     H24382   9.537   7.091   6.526  2.6287  2.6263  1.6649
  177MOL0     H24383   9.708   7.059   6.498 -1.3170 -0.0255 -1.7868
  177MOL0     H24384   9.513   6.658   6.428 -0.8718 -0.0402  2.3311
  177MOL0     H24385   9.519   6.436   6.434 -0.0947  0.0878 -0.3279
  177MOL0     H24386   9.641   6.358   6.518  1.7377  0.0823  0.5697
  177MOL0     H24387   9.655   6.363   6.341 -0.0544  1.0702 -0.4060
  177MOL0     H24388  10.200   6.487   6.697  0.5039  0.7795  0.9753
  177MOL0     H24389  10.422   6.358   6.720  1.9269 -0.9090 -1.7972
  177MOL0     H24390  10.612   6.266   6.510 -0.4887 -3.0462 -2.3357
  177MOL0     H24391  10.601   6.239   6.691  1.5759 -0.7463  0.5636
  177MOL0     H24392  10.708   6.016   6.680 -0.3979  0.5517  0.0168
  177MOL0     H24393  10.694   6.020   6.506 -0.5384 -0.2106 -0.0073
  177MOL0     H24394  10.882   6.199   6.640  3.1303  1.2388 -0.4856
  177MOL0     H24395  10.820   6.217   6.477  0.4236 -2.3854 -0.9405
  177MOL0     H24396  10.902   5.978   6.421 -0.0419 -1.0525  0.5942
  177MOL0     H24397  10.996   5.978   6.575 -0.0471 -0.4637 -0.1036
  177MOL0     H24398  11.029   6.113   6.317  1.7322 -1.0640  0.1261
  177MOL0     H24399  11.096   6.209   6.459  1.0231 -1.1230  1.2269
  177MOL0     H24400  11.251   6.078   6.332  1.2044 -1.8886 -0.5438
  177MOL0     H24401  11.179   5.933   6.366  2.1819  0.8140 -3.6847
  177MOL0     H24402  11.222   5.961   6.620  0.1165  0.2178  0.1325
  177MOL0     H24403  11.261   6.126   6.595  2.0158  2.7085 -3.9979
  177MOL0     H24404  11.489   5.999   6.605 -0.9415  1.6528  0.2145
  177MOL0     H24405  11.460   6.054   6.438  1.0136  4.0223  2.9906
  177MOL0     H24406  10.273   6.075   6.444 -0.2680  0.6581 -0.8256
  177MOL0     H24407  10.058   6.197   6.421 -1.2808  0.3055  2.1930
  177MOL0     H24408  10.005   6.683   6.495 -0.3312 -3.4186  2.9128
  177MOL0     H24409   9.870   6.893   6.510 -0.4852 -0.0137  2.6799
  177MOL0     H24410   9.551   6.601   7.877 -2.1175  0.1021 -1.4667
  177MOL0     H24411   9.781   6.621   7.936 -1.4207 -1.9746 -0.0369
  177MOL0     H24412  10.128   7.129   7.911  0.0961 -0.1880  0.0413
  177MOL0     H24413  10.364   7.129   7.958  2.4277 -1.3431 -0.5699
  177MOL0     H24414  10.536   6.939   7.730 -0.4085 -0.9648  0.4733
  177MOL0     H24415  10.635   7.046   7.837 -3.3759  1.3379  2.7243
  177MOL0     H24416  10.776   6.838   7.761  1.1160 -0.3953  1.1991
  177MOL0     H24417  10.667   6.729   7.833  0.0847  0.0876 -0.8070
  177MOL0     H24418  10.749   6.920   8.032 -3.8302  0.2896 -2.0705
  177MOL0     H24419  10.754   6.743   8.026 -0.8938  0.3798 -0.5498
  177MOL0     H24420  10.974   6.946   7.943  2.4544  0.5723  1.7651
  177MOL0     H24421  10.968   6.787   7.863  1.7007 -2.4233  1.4219
  177MOL0     H24422  11.142   6.692   8.228  0.2794 -1.5356 -1.1656
  177MOL0     H24423  10.381   6.719   7.843  0.9294  0.9340  0.0921
  177MOL0     H24424  10.044   6.660   7.745 -1.3533  2.7016  0.6286
  177MOL0     H24425  10.200   6.588   7.776 -0.3767  0.3035 -1.4723
  177MOL0     H24426  10.098   6.610   7.906 -0.8832  1.6203  0.7320
  178MOL0     O24427   1.024  10.921   0.997  0.0563 -0.9322  0.4266
  178MOL0     C24428   1.005  10.814   0.945  0.5868  0.0652  0.2953
  178MOL0     O24429   1.013  10.696   1.017  0.7328 -0.3795  0.1235
  178MOL0     C24430   1.069  10.679   1.132  0.6238  0.1906 -0.0962
  178MOL0     C24431   1.052  10.757   1.245  1.1344  0.1305  0.1854
  178MOL0     C24432   1.100  10.728   1.374 -0.2764  0.9982 -0.0324
  178MOL0     C24433   1.168  10.609   1.390 -1.3277  0.1687  0.2692
  178MOL0     O24434   1.218  10.553   1.506 -0.5310 -0.1472 -0.2714
  178MOL0     C24435   1.134  10.486   1.600 -0.8936  1.1307 -0.2497
  178MOL0     C24436   1.232  10.418   1.701 -0.1846  1.0380  0.6266
  178MOL0     C24437   1.159  10.301   1.774 -0.4154  0.1783 -0.2240
  178MOL0     C24438   1.215  10.161   1.758 -0.2423 -0.2801  0.6586
  178MOL0     C24439   1.116  10.057   1.807  0.3637  0.0121  0.4866
  178MOL0     C24440   1.162   9.916   1.791  0.4706 -0.5236  0.6929
  178MOL0     C24441   1.085   9.820   1.884 -0.1066 -0.0326 -0.2761
  178MOL0     C24442   1.136   9.675   1.879  0.5210 -0.2195 -0.4469
  178MOL0     N24443   1.072   9.617   1.760 -0.4106  0.3719  0.3968
  178MOL0     C24444   1.137   9.588   1.638  0.7701  0.2059  0.3795
  178MOL0     C24445   1.063   9.495   1.579  0.0082 -0.3735  0.6651
  178MOL0     C24446   1.077   9.433   1.440  0.2354 -0.3521 -0.2266
  178MOL0     C24447   1.046   9.545   1.341 -0.1467 -0.1372 -0.5029
  178MOL0     C24448   0.908   9.600   1.369  0.1977  0.2538 -0.8184
  178MOL0     C24449   0.791   9.507   1.345 -0.7703  0.4913 -0.3154
  178MOL0     O24450   0.672   9.589   1.336 -0.3099  0.3319  0.4864
  178MOL0     C24451   0.636   9.687   1.426 -0.5426 -0.0091  0.0837
  178MOL0     C24452   0.571   9.804   1.374 -0.4503  0.4531  1.2707
  178MOL0     C24453   0.567   9.927   1.447  1.8669  1.0993  0.3352
  178MOL0     C24454   0.516  10.054   1.385  0.4008  0.2073 -0.2383
  178MOL0     C24455   0.613   9.927   1.578 -0.5989 -1.0646 -0.3412
  178MOL0     C24456   0.608  10.046   1.669  1.0795  0.4584  0.5042
  178MOL0     O24457   0.706  10.077   1.756 -0.1929  0.0429 -0.5145
  178MOL0     C24458   0.713  10.212   1.797  0.6306  0.7045  0.4365
  178MOL0     C24459   0.667  10.329   1.727  0.1223  0.9179 -0.7007
  178MOL0     C24460   0.709  10.459   1.757  0.1804  0.2198 -0.0863
  178MOL0     C24461   0.790  10.474   1.865  0.5310  0.0293 -0.3219
  178MOL0     O24462   0.819  10.601   1.918 -0.3246 -0.1231  0.2470
  178MOL0     C24463   0.834  10.707   1.826 -0.0607 -0.3758  0.2305
  178MOL0     C24464   0.713  10.802   1.844  0.4396 -1.3202  1.0516
  178MOL0     C24465   0.720  10.929   1.739  0.1720 -0.3163 -0.0265
  178MOL0     C24466   0.838  11.029   1.753 -0.0947  0.1317 -0.5190
  178MOL0     C24467   0.800  11.170   1.690  0.3422 -0.5503  0.2305
  178MOL0     C24468   0.787  11.173   1.541  0.8807 -0.5792 -0.0013
  178MOL0     C24469   0.907  11.107   1.459 -0.1604 -0.5140 -0.0287
  178MOL0     C24470   0.898  11.125   1.312 -0.7791  0.2757  0.5930
  178MOL0    Cl24471   0.740  11.063   1.275 -0.0524 -0.1034 -0.2576
  178MOL0     C24472   0.834  10.362   1.940  0.3085  0.2056 -0.1914
  178MOL0     C24473   0.797  10.228   1.911  0.4615  0.5361  0.5917
  178MOL0     O24474   0.497  10.102   1.671 -0.1569  0.3783  0.2694
  178MOL0     C24475   0.657   9.801   1.640  0.0974 -0.1070  0.0859
  178MOL0     C24476   0.681   9.685   1.563 -0.4602 -0.4697  0.2827
  178MOL0     N24477   0.950   9.463   1.663 -0.4606  0.6365 -0.7160
  178MOL0     N24478   0.959   9.544   1.763 -0.4794  0.1938 -0.7909
  178MOL0     C24479   1.201  10.536   1.277  0.0787  0.3570  0.5301
  178MOL0     C24480   1.143  10.565   1.151  0.1357 -0.1079  0.3472
  178MOL0     C24481   0.976  10.821   0.793 -0.0506 -0.4534  0.6070
  178MOL0     C24482   0.898  10.714   0.752 -0.1337 -0.3251 -0.3095
  178MOL0     C24483   0.867  10.707   0.620 -0.1159 -0.6077 -0.4646
  178MOL0     C24484   0.899  10.808   0.523  0.0308 -0.2618  0.4340
  178MOL0     O24485   0.876  10.803   0.391  0.2185  0.1254  0.0207
  178MOL0     C24486   0.730  10.805   0.367  0.9577 -0.1525 -0.6206
  178MOL0     C24487   0.682  10.700   0.261  0.7127 -0.4778  0.0823
  178MOL0     C24488   0.714  10.558   0.306  0.6067 -0.1804  0.6409
  178MOL0     C24489   0.633  10.451   0.229 -0.5734 -0.9294 -0.0042
  178MOL0     C24490   0.658  10.450   0.087  0.9657 -1.1093  0.0349
  178MOL0     C24491   0.663  10.472  -0.029 -0.4087  0.2136  0.6123
  178MOL0     C24492   0.991  10.900   0.567  0.5543 -0.4618 -0.0966
  178MOL0     C24493   1.028  10.912   0.705  0.3414 -0.7736  0.3510
  178MOL0     C24494   1.133  11.013   0.740 -0.1606 -0.4516 -0.1470
  178MOL0     H24495   0.982  10.840   1.232 -2.2522 -2.3149  1.2864
  178MOL0     H24496   1.086  10.774   1.471  1.0173 -1.8412  1.6270
  178MOL0     H24497   1.075  10.412   1.546  0.9513 -1.4867  1.0891
  178MOL0     H24498   1.082  10.565   1.655  2.2072  0.6870  3.8068
  178MOL0     H24499   1.320  10.373   1.653  0.7713  0.7817  2.5097
  178MOL0     H24500   1.259  10.484   1.784  1.0381  0.7082  0.5106
  178MOL0     H24501   1.172  10.326   1.880  3.4183 -0.5867 -0.3462
  178MOL0     H24502   1.053  10.306   1.750 -0.9436 -3.0583  1.0371
  178MOL0     H24503   1.246  10.142   1.655 -1.0526 -2.0467  0.6880
  178MOL0     H24504   1.309  10.148   1.813  0.4595  2.1320  0.1501
  178MOL0     H24505   1.024  10.088   1.755  0.7968 -0.5911 -0.6708
  178MOL0     H24506   1.104  10.079   1.914  2.4781  4.3161  0.0393
  178MOL0     H24507   1.135   9.893   1.687 -1.5398  1.3354  0.7358
  178MOL0     H24508   1.268   9.900   1.811  0.5642  1.1923  1.7085
  178MOL0     H24509   0.980   9.821   1.853  0.1271 -1.8248 -1.2740
  178MOL0     H24510   1.101   9.855   1.987  0.0079 -2.4395  0.5834
  178MOL0     H24511   1.245   9.670   1.885  0.7156  2.1857 -0.7086
  178MOL0     H24512   1.098   9.622   1.966  1.2736  0.4257  0.2874
  178MOL0     H24513   1.221   9.636   1.589  0.4951  0.6519  0.3350
  178MOL0     H24514   1.020   9.340   1.427  2.9784 -2.3518  1.0236
  178MOL0     H24515   1.181   9.403   1.429  0.0502 -0.6738 -1.1840
  178MOL0     H24516   1.115   9.624   1.371 -0.4786 -0.3875  1.0066
  178MOL0     H24517   1.072   9.523   1.238 -1.7330 -0.7452 -0.8095
  178MOL0     H24518   0.913   9.646   1.468 -0.5946 -3.3661  1.0709
  178MOL0     H24519   0.895   9.682   1.297  0.2985  1.4919  0.5240
  178MOL0     H24520   0.803   9.453   1.251 -1.5623 -3.2612  1.5221
  178MOL0     H24521   0.768   9.429   1.420 -2.4930 -1.8839 -3.0906
  178MOL0     H24522   0.539   9.805   1.271  0.3088  1.2173  1.0381
  178MOL0     H24523   0.590  10.134   1.401  0.9914 -0.2682 -0.5725
  178MOL0     H24524   0.416  10.089   1.415 -0.5132  1.3925 -4.0509
  178MOL0     H24525   0.500  10.039   1.278  2.9903 -0.0739 -0.6316
  178MOL0     H24526   0.617  10.323   1.631  0.8780 -0.7715 -1.0341
  178MOL0     H24527   0.676  10.541   1.693 -0.4366  0.5005  0.5730
  178MOL0     H24528   0.929  10.754   1.853  0.0340 -0.9467  0.9300
  178MOL0     H24529   0.844  10.676   1.722 -0.0667 -1.0071  0.4119
  178MOL0     H24530   0.628  10.735   1.826  1.1515 -2.2401  1.1063
  178MOL0     H24531   0.713  10.851   1.941 -1.0117  0.5737  0.1763
  178MOL0     H24532   0.632  10.992   1.758  0.2846  0.1033 -0.8465
  178MOL0     H24533   0.723  10.893   1.636 -1.9625 -0.0431 -0.2246
  178MOL0     H24534   0.931  10.998   1.705  0.5063 -2.2904  1.9769
  178MOL0     H24535   0.859  11.051   1.858 -0.6696 -0.5284 -0.2562
  178MOL0     H24536   0.708  11.210   1.734  0.1532 -1.7083  0.9303
  178MOL0     H24537   0.888  11.231   1.714  1.3688 -2.6034  1.9864
  178MOL0     H24538   0.773  11.278   1.512  0.4050 -0.9576 -1.2256
  178MOL0     H24539   0.695  11.127   1.503  1.0780 -0.6836 -0.3599
  178MOL0     H24540   0.910  10.999   1.478  0.9488 -0.2539  1.4747
  178MOL0     H24541   0.997  11.156   1.497 -1.0198  1.0315  0.1224
  178MOL0     H24542   0.973  11.064   1.262  1.1716  1.1411  2.2906
  178MOL0     H24543   0.912  11.229   1.280  0.1544 -0.0021  0.0607
  178MOL0     H24544   0.908  10.372   2.019  0.0449 -0.2481  0.1231
  178MOL0     H24545   0.856  10.154   1.964  2.0366  1.3091 -0.0153
  178MOL0     H24546   0.688   9.799   1.744  1.7906  1.5366 -0.3357
  178MOL0     H24547   0.718   9.594   1.610  0.1545 -0.4987 -0.2394
  178MOL0     H24548   1.252  10.440   1.282  0.8833  0.8201  1.6314
  178MOL0     H24549   1.142  10.490   1.071 -1.3831 -0.2130  0.4290
  178MOL0     H24550   0.880  10.630   0.818  0.6037 -0.6964 -0.5712
  178MOL0     H24551   0.818  10.615   0.589 -2.8032  0.4404  0.4320
  178MOL0     H24552   0.668  10.796   0.457  0.4401  2.7620 -0.5819
  178MOL0     H24553   0.701  10.903   0.328  0.0738 -0.0264  0.3206
  178MOL0     H24554   0.712  10.728   0.160 -1.3922  1.5341 -0.0536
  178MOL0     H24555   0.574  10.711   0.262  0.9632  2.9155  1.7859
  178MOL0     H24556   0.820  10.550   0.279  1.7904  0.2939  4.6004
  178MOL0     H24557   0.702  10.541   0.413 -0.6949 -1.3001  0.3474
  178MOL0     H24558   0.527  10.475   0.243 -0.3060  0.9200 -0.7783
  178MOL0     H24559   0.661  10.356   0.274  0.8535 -0.1940  0.7087
  178MOL0     H24560   0.648  10.479  -0.135 -4.8238 -3.0956  0.7377
  178MOL0     H24561   1.033  10.972   0.497  4.8020 -3.1654 -0.7232
  178MOL0     H24562   1.075  11.099   0.774  1.8431  1.7006 -1.8457
  178MOL0     H24563   1.202  10.979   0.817 -0.3475  1.9660  1.1805
  178MOL0     H24564   1.195  11.056   0.661  1.7751  2.9888  2.9151
  179MOL0     O24565   9.962   1.946   8.565  0.1218 -0.3580  0.1083
  179MOL0     C24566   9.853   1.898   8.609 -0.6092  0.5670 -0.1749
  179MOL0     O24567   9.772   1.810   8.529  0.1731 -0.6479 -0.6030
  179MOL0     C24568   9.789   1.820   8.400  0.0043 -0.4296 -0.2804
  179MOL0     C24569   9.782   1.943   8.323 -0.0665  0.2269 -0.0837
  179MOL0     C24570   9.816   1.937   8.182  0.0058 -0.2868 -0.0907
  179MOL0     C24571   9.876   1.828   8.124  0.7709  0.6909 -0.1982
  179MOL0     O24572   9.908   1.833   7.984 -1.1458  0.1108 -0.9159
  179MOL0     C24573   9.980   1.720   7.928  0.5075  0.0682 -0.3262
  179MOL0     C24574  10.002   1.731   7.779  0.2374 -0.4637  0.5606
  179MOL0     C24575  10.109   1.832   7.740  0.1320  0.6838  1.6840
  179MOL0     C24576  10.101   1.853   7.584  0.4176 -0.0242 -1.1312
  179MOL0     C24577  10.214   1.954   7.555  0.3601  0.1129  0.3547
  179MOL0     C24578  10.209   2.007   7.413 -0.6530  0.1792 -0.1039
  179MOL0     C24579  10.327   2.090   7.380  0.2890  0.8151 -0.0814
  179MOL0     C24580  10.321   2.153   7.239 -0.5952  0.0461  0.0997
  179MOL0     N24581  10.195   2.211   7.194 -0.7394  0.6923  0.3115
  179MOL0     C24582  10.157   2.343   7.225  0.5590  0.3661 -1.2339
  179MOL0     C24583  10.078   2.371   7.124  0.3914  0.3337  0.3638
  179MOL0     C24584  10.017   2.497   7.092  0.2470  0.1378 -0.8881
  179MOL0     C24585  10.123   2.585   7.016 -0.0775 -0.3067 -0.4369
  179MOL0     C24586  10.146   2.535   6.878 -0.8940  0.0462  0.2858
  179MOL0     C24587  10.293   2.530   6.850 -0.6271 -0.9650 -0.0770
  179MOL0     O24588  10.357   2.660   6.881 -0.4694 -0.6568 -0.1597
  179MOL0     C24589  10.484   2.657   6.820  0.6531  0.2046  0.8216
  179MOL0     C24590  10.500   2.751   6.719  0.4907  1.1257 -0.0522
  179MOL0     C24591  10.620   2.749   6.644  0.5338  0.3504  0.5455
  179MOL0     C24592  10.618   2.853   6.529  0.6482 -0.4737 -0.7430
  179MOL0     C24593  10.722   2.651   6.665 -0.6838  0.5667  0.0357
  179MOL0     C24594  10.851   2.646   6.584 -0.3436  0.2687 -1.0823
  179MOL0     O24595  10.902   2.770   6.551  0.9355 -0.0963  0.4686
  179MOL0     C24596  11.024   2.785   6.491 -0.8189 -0.0281 -0.5163
  179MOL0     C24597  11.114   2.878   6.543 -0.0102 -0.0427  0.0551
  179MOL0     C24598  11.239   2.904   6.479 -0.0026 -0.5638  0.0062
  179MOL0     C24599  11.285   2.806   6.384  0.0018 -0.4565  0.4719
  179MOL0     O24600  11.404   2.825   6.324  0.1074 -0.2675 -0.2475
  179MOL0     C24601  11.494   2.712   6.305  0.9706 -0.3683 -0.5730
  179MOL0     C24602  11.636   2.768   6.266 -0.2682 -0.1125  0.1434
  179MOL0     C24603  11.633   2.854   6.135  0.7854 -0.2792  0.5293
  179MOL0     C24604  11.692   2.987   6.150  0.0541  1.4986 -0.7742
  179MOL0     C24605  11.724   3.066   6.018 -0.4933 -0.3790  1.2176
  179MOL0     C24606  11.605   3.113   5.945  0.4649 -0.4661  0.5074
  179MOL0     C24607  11.639   3.158   5.795  0.8294 -0.7021 -0.3104
  179MOL0     C24608  11.537   3.259   5.744  0.3125 -0.4379 -0.1653
  179MOL0    Cl24609  11.558   3.314   5.579  0.5221  0.0924  0.1020
  179MOL0     C24610  11.209   2.701   6.340  0.2065  0.0810 -0.2106
  179MOL0     C24611  11.074   2.696   6.387  0.2083 -0.3018  0.4575
  179MOL0     O24612  10.907   2.542   6.564 -1.1775  0.5305 -0.4379
  179MOL0     C24613  10.705   2.572   6.787  0.2506 -0.5169  0.2601
  179MOL0     C24614  10.587   2.577   6.859  0.5828  0.2624 -1.1638
  179MOL0     N24615  10.056   2.262   7.041  0.5491 -1.0202 -0.3238
  179MOL0     N24616  10.134   2.171   7.084  0.8949 -0.1046  0.4996
  179MOL0     C24617   9.885   1.703   8.206  0.3312 -0.7454 -0.2466
  179MOL0     C24618   9.843   1.709   8.336  0.5304  0.4079  0.8403
  179MOL0     C24619   9.799   1.930   8.748  0.2440 -0.4240  0.0082
  179MOL0     C24620   9.658   1.904   8.765  0.2511 -0.1440  0.3483
  179MOL0     C24621   9.600   1.905   8.893 -0.1246 -0.3352  0.5066
  179MOL0     C24622   9.672   1.929   9.001  0.8551  0.3307 -0.4849
  179MOL0     O24623   9.597   1.957   9.120  0.0965 -0.0051 -0.5424
  179MOL0     C24624   9.659   1.977   9.242  0.3716 -0.2110 -0.2280
  179MOL0     C24625   9.681   2.129   9.262 -0.3514  0.1916  0.1250
  179MOL0     C24626   9.576   2.226   9.324 -0.5358 -0.3477  0.2262
  179MOL0     C24627   9.429   2.203   9.272  0.0782 -0.3555 -0.2990
  179MOL0     C24628   9.329   2.219   9.376  0.0869 -0.3019 -0.4270
  179MOL0     C24629   9.235   2.223   9.453 -0.3087 -0.0800 -0.8328
  179MOL0     C24630   9.809   1.962   8.982 -0.2681 -0.5309  0.0557
  179MOL0     C24631   9.874   1.962   8.861 -0.1863  0.9200 -1.2484
  179MOL0     C24632  10.023   1.997   8.868  0.3383 -0.6537  0.4431
  179MOL0     H24633   9.737   2.034   8.362  0.5303  1.7899 -2.7862
  179MOL0     H24634   9.807   2.028   8.123  2.2664 -0.1368 -0.3061
  179MOL0     H24635   9.919   1.630   7.940 -2.2567  1.3014 -3.6585
  179MOL0     H24636  10.080   1.702   7.968  0.9530  1.7317 -0.6199
  179MOL0     H24637  10.034   1.631   7.751  1.3485  0.2476 -0.8092
  179MOL0     H24638   9.911   1.761   7.726  1.0354 -0.8871 -1.1251
  179MOL0     H24639  10.096   1.930   7.787 -0.2807  2.2627 -1.4512
  179MOL0     H24640  10.207   1.803   7.780  0.5290  0.3312  0.5114
  179MOL0     H24641  10.128   1.763   7.527  1.5279  0.9441 -2.1832
  179MOL0     H24642  10.011   1.902   7.546  0.9064  0.9729 -1.0165
  179MOL0     H24643  10.313   1.911   7.572  0.4777  0.4159  0.4578
  179MOL0     H24644  10.191   2.037   7.622 -1.3838  0.3590 -0.4834
  179MOL0     H24645  10.212   1.920   7.347  3.5390 -1.9372  2.4872
  179MOL0     H24646  10.116   2.064   7.397 -0.6780 -0.0881 -0.9905
  179MOL0     H24647  10.426   2.043   7.381 -0.9566 -1.9872  1.1761
  179MOL0     H24648  10.336   2.174   7.450  0.4784 -0.3798  1.4012
  179MOL0     H24649  10.399   2.228   7.226 -1.1986  0.5379 -0.7756
  179MOL0     H24650  10.355   2.070   7.176  0.4848  1.8160 -1.8006
  179MOL0     H24651  10.197   2.403   7.307  1.0188 -1.4357 -0.0926
  179MOL0     H24652   9.978   2.556   7.175  0.6802  2.3917 -2.1778
  179MOL0     H24653   9.928   2.477   7.031 -0.0376 -2.4874  0.2597
  179MOL0     H24654  10.086   2.688   7.009  1.8832  0.4578 -0.1583
  179MOL0     H24655  10.210   2.592   7.082 -0.3964 -1.3369  0.1141
  179MOL0     H24656  10.109   2.432   6.868 -0.4283  0.0253 -1.6893
  179MOL0     H24657  10.080   2.598   6.818  0.2901  1.7941  0.7292
  179MOL0     H24658  10.340   2.452   6.911  0.0675  1.8491  3.2965
  179MOL0     H24659  10.290   2.501   6.745 -0.3953  1.0913 -0.6905
  179MOL0     H24660  10.419   2.820   6.695 -2.5467 -2.6196 -1.7658
  179MOL0     H24661  10.690   2.823   6.452  0.0432  0.4495 -1.6811
  179MOL0     H24662  10.639   2.950   6.575  1.3472 -1.2601  0.6767
  179MOL0     H24663  10.520   2.855   6.480  1.7108 -2.8377 -3.2087
  179MOL0     H24664  11.078   2.941   6.623  0.5636  2.2185 -1.3890
  179MOL0     H24665  11.304   2.982   6.517 -1.2244 -0.2069  1.4312
  179MOL0     H24666  11.498   2.658   6.400 -2.1676  0.4070  0.1182
  179MOL0     H24667  11.459   2.646   6.226 -0.1913  0.6287 -0.9372
  179MOL0     H24668  11.682   2.828   6.346 -1.9807  1.5703 -0.0703
  179MOL0     H24669  11.699   2.679   6.255  2.0244  1.6997 -2.8936
  179MOL0     H24670  11.528   2.879   6.114  0.9057 -1.0741 -1.2770
  179MOL0     H24671  11.684   2.794   6.059 -0.6772  0.6751 -1.2908
  179MOL0     H24672  11.791   2.976   6.196  0.3073  0.3069 -1.5595
  179MOL0     H24673  11.628   3.038   6.223  0.0081 -0.1429  0.3709
  179MOL0     H24674  11.792   3.150   6.036 -2.5237  1.4481  0.9169
  179MOL0     H24675  11.767   2.992   5.950 -0.2513 -1.9222  2.9600
  179MOL0     H24676  11.576   3.207   5.994  0.4795  1.0434 -2.1818
  179MOL0     H24677  11.526   3.038   5.937  0.6093 -0.4978 -0.7064
  179MOL0     H24678  11.626   3.072   5.729 -0.4279 -0.5905 -0.2401
  179MOL0     H24679  11.738   3.204   5.798 -0.2422  1.7560  0.4893
  179MOL0     H24680  11.527   3.339   5.817 -1.0589 -0.7436  0.0243
  179MOL0     H24681  11.442   3.205   5.740  0.7593 -1.1998 -0.8170
  179MOL0     H24682  11.228   2.641   6.252  0.4893  0.0131 -0.1060
  179MOL0     H24683  11.002   2.625   6.348 -1.5426  1.8698 -0.4488
  179MOL0     H24684  10.793   2.514   6.814  1.6617  1.9176  1.2690
  179MOL0     H24685  10.571   2.490   6.922 -4.2644  1.0994 -0.8755
  179MOL0     H24686   9.933   1.613   8.167  1.1260 -1.8814  3.0401
  179MOL0     H24687   9.821   1.618   8.391  0.0057  0.6769  1.0804
  179MOL0     H24688   9.592   1.883   8.681  0.4674 -0.1258  0.1706
  179MOL0     H24689   9.498   1.869   8.906 -2.2104  4.6904  0.3684
  179MOL0     H24690   9.598   1.954   9.330  3.2152 -1.4157  1.5741
  179MOL0     H24691   9.750   1.918   9.257 -0.4380 -1.5292 -0.3477
  179MOL0     H24692   9.712   2.182   9.171  1.9505  1.4613  1.5598
  179MOL0     H24693   9.763   2.134   9.335  0.0804  1.8868 -0.4220
  179MOL0     H24694   9.568   2.208   9.431  0.9487  1.7343  0.7411
  179MOL0     H24695   9.604   2.331   9.315  0.8116 -0.5563  1.6403
  179MOL0     H24696   9.410   2.108   9.223 -4.1399  1.0257 -1.7594
  179MOL0     H24697   9.411   2.284   9.201 -1.4830 -1.2971 -1.0286
  179MOL0     H24698   9.156   2.220   9.526  1.9678 -0.6653  1.7910
  179MOL0     H24699   9.880   1.964   9.063 -1.6688 -2.5211  1.4014
  179MOL0     H24700  10.084   1.911   8.896  0.8025 -0.2740  0.6056
  179MOL0     H24701  10.056   2.041   8.773 -0.9665  1.3235  0.8392
  179MOL0     H24702  10.024   2.080   8.939  0.4950 -0.9337  0.7662
  180MOL0     O24703   9.823   7.478   2.918  0.6107 -0.8014  0.5010
  180MOL0     C24704   9.948   7.466   2.945  0.9144 -0.5923  0.4238
  180MOL0     O24705  10.007   7.360   3.010  0.0105  0.7387  0.8667
  180MOL0     C24706   9.923   7.265   3.058 -0.7693 -0.1569 -0.1809
  180MOL0     C24707   9.987   7.137   3.087  0.4602  0.6794 -0.4780
  180MOL0     C24708   9.905   7.025   3.113  0.0121  0.7098 -0.2382
  180MOL0     C24709   9.767   7.022   3.135 -0.4472 -0.0180 -0.1926
  180MOL0     O24710   9.707   6.907   3.192 -0.5179 -0.7351  0.7523
  180MOL0     C24711   9.579   6.919   3.251  0.1048  0.1439  0.1713
  180MOL0     C24712   9.526   6.779   3.298 -0.2824 -0.4576 -0.3761
  180MOL0     C24713   9.497   6.684   3.185 -0.1320  0.0369 -0.5069
  180MOL0     C24714   9.382   6.717   3.089 -0.7890  0.3719  0.5316
  180MOL0     C24715   9.362   6.624   2.966 -0.6497 -0.2270 -0.1067
  180MOL0     C24716   9.314   6.483   3.013 -0.8785 -0.5929 -0.3207
  180MOL0     C24717   9.305   6.386   2.902 -0.8703 -1.1663  0.2481
  180MOL0     C24718   9.242   6.257   2.960  0.1725 -0.3261  0.5056
  180MOL0     N24719   9.210   6.156   2.863  0.2434 -0.2675  0.1257
  180MOL0     C24720   9.084   6.106   2.851  0.1401 -0.4736 -0.2962
  180MOL0     C24721   9.088   6.023   2.743 -0.0289 -0.3611 -0.9438
  180MOL0     C24722   8.979   5.940   2.690  0.3885 -0.9228 -0.0837
  180MOL0     C24723   8.897   6.013   2.578  0.0879 -0.3223  0.6368
  180MOL0     C24724   8.965   6.007   2.441 -0.0726  0.0334 -0.3837
  180MOL0     C24725   8.860   6.066   2.341 -0.4345 -0.7961  0.6522
  180MOL0     O24726   8.898   6.077   2.199  0.0382 -0.0550 -0.3239
  180MOL0     C24727   8.942   5.951   2.147 -0.2425 -0.0872 -0.3970
  180MOL0     C24728   8.841   5.871   2.093  0.9640 -0.1679 -0.6724
  180MOL0     C24729   8.863   5.753   2.036 -0.0673 -0.6934 -0.4027
  180MOL0     C24730   8.731   5.686   1.971 -0.4098 -0.7329 -0.8929
  180MOL0     C24731   8.995   5.717   2.013  0.1499 -0.6558 -0.2981
  180MOL0     C24732   9.038   5.593   1.942  0.7076 -0.4225  0.2932
  180MOL0     O24733   9.172   5.570   1.932  0.2872 -0.1905 -0.1488
  180MOL0     C24734   9.225   5.478   1.851  1.0533 -0.2477 -0.2324
  180MOL0     C24735   9.302   5.534   1.749 -0.1181  0.0297  0.0333
  180MOL0     C24736   9.367   5.445   1.663 -0.0151  0.2068 -0.0404
  180MOL0     C24737   9.359   5.312   1.680 -0.0399  0.0812  0.4622
  180MOL0     O24738   9.414   5.222   1.581  0.2122 -0.8450  0.6454
  180MOL0     C24739   9.529   5.267   1.508  0.0242 -0.6188  0.0276
  180MOL0     C24740   9.594   5.155   1.422 -0.1502  0.1605  0.4477
  180MOL0     C24741   9.676   5.231   1.310 -0.8287 -0.8816  0.7671
  180MOL0     C24742   9.710   5.134   1.197 -1.0279 -0.0764  0.0324
  180MOL0     C24743   9.857   5.153   1.144  0.2507  0.6250  0.3061
  180MOL0     C24744   9.945   5.140   1.274  0.0951 -0.7380  0.8730
  180MOL0     C24745  10.061   5.051   1.256 -0.8205  1.1253  1.1694
  180MOL0     C24746  10.030   4.902   1.249 -0.3334  0.4607  1.0669
  180MOL0    Cl24747  10.187   4.823   1.219 -0.4776  0.2888  0.2693
  180MOL0     C24748   9.286   5.257   1.779  0.2232  0.4449  0.3702
  180MOL0     C24749   9.218   5.341   1.869  0.3420  0.2633  0.4204
  180MOL0     O24750   8.957   5.509   1.908  0.7989  0.8440 -0.3115
  180MOL0     C24751   9.093   5.802   2.068  0.1867  0.6973  0.4656
  180MOL0     C24752   9.071   5.914   2.140  1.2140  0.1897 -0.5579
  180MOL0     N24753   9.212   6.025   2.691  0.7362 -0.5041 -0.5190
  180MOL0     N24754   9.284   6.108   2.756  0.1083 -0.3974 -0.0956
  180MOL0     C24755   9.710   7.152   3.119 -0.5171  0.4047 -0.1468
  180MOL0     C24756   9.786   7.268   3.089  0.6797  0.3393 -0.9869
  180MOL0     C24757  10.017   7.591   2.906 -0.6000 -0.3312  0.3657
  180MOL0     C24758   9.963   7.678   2.818  0.6828  0.0324 -0.1398
  180MOL0     C24759  10.021   7.797   2.775 -1.0275  0.6940 -0.5702
  180MOL0     C24760  10.149   7.821   2.813 -0.3350 -0.3507 -0.3019
  180MOL0     O24761  10.213   7.915   2.741  0.6719  0.0960  0.2466
  180MOL0     C24762  10.236   8.035   2.819 -0.1286 -0.0572 -0.3409
  180MOL0     C24763  10.101   8.101   2.858 -0.6416  0.9352 -0.9303
  180MOL0     C24764  10.111   8.243   2.919 -0.8803  0.2874 -0.2339
  180MOL0     C24765   9.974   8.272   2.978  0.0495  0.7650 -0.1256
  180MOL0     C24766   9.862   8.274   2.882 -0.3787  0.2023  1.3042
  180MOL0     C24767   9.770   8.267   2.808 -0.2411 -0.1915  0.4955
  180MOL0     C24768  10.209   7.741   2.913 -0.5256  0.5277  0.7133
  180MOL0     C24769  10.143   7.630   2.961  0.0793  0.4126 -0.2584
  180MOL0     C24770  10.229   7.536   3.059 -0.0556 -0.8199  0.7829
  180MOL0     H24771  10.093   7.121   3.069  0.3889  1.7467 -2.0345
  180MOL0     H24772   9.957   6.932   3.134  2.2260  1.4993 -1.8725
  180MOL0     H24773   9.511   6.969   3.182 -2.4375 -0.6476  1.9532
  180MOL0     H24774   9.592   6.978   3.342  0.8601 -1.1283  0.9209
  180MOL0     H24775   9.600   6.739   3.368 -1.1761 -0.3453  0.6598
  180MOL0     H24776   9.441   6.796   3.365  1.5314  0.7003  1.7490
  180MOL0     H24777   9.594   6.668   3.136 -1.0042 -2.9488 -1.5075
  180MOL0     H24778   9.470   6.591   3.236  0.2982  0.0583 -0.2318
  180MOL0     H24779   9.291   6.722   3.150 -0.5634 -5.0036  1.7851
  180MOL0     H24780   9.398   6.820   3.056 -0.8026 -0.1036 -1.0581
  180MOL0     H24781   9.451   6.618   2.903  0.9384  2.7767  1.6729
  180MOL0     H24782   9.279   6.665   2.909 -1.6082  3.2137  3.3399
  180MOL0     H24783   9.386   6.441   3.085 -1.7717  0.2672  1.0972
  180MOL0     H24784   9.218   6.510   3.057 -0.6397  0.9455 -0.7049
  180MOL0     H24785   9.400   6.361   2.854 -0.7238  0.8981 -0.6586
  180MOL0     H24786   9.251   6.436   2.820  5.2606  1.4425 -2.9262
  180MOL0     H24787   9.309   6.215   3.035  1.2404 -0.2681 -0.3829
  180MOL0     H24788   9.151   6.287   3.013  0.0658  1.7417 -0.7222
  180MOL0     H24789   8.999   6.113   2.918  0.4069 -2.9274  0.4130
  180MOL0     H24790   8.923   5.915   2.780  2.4508  1.0600  1.8939
  180MOL0     H24791   9.027   5.846   2.659 -2.0059 -2.0714 -0.5137
  180MOL0     H24792   8.802   5.964   2.557 -0.0837  0.4581 -0.5500
  180MOL0     H24793   8.861   6.112   2.607 -0.4379 -1.2014  3.1947
  180MOL0     H24794   9.058   6.065   2.438  0.6184 -1.0651 -0.7895
  180MOL0     H24795   8.991   5.903   2.418 -0.3173  0.1966 -1.4586
  180MOL0     H24796   8.768   6.009   2.353 -1.6798  1.5362  3.2334
  180MOL0     H24797   8.844   6.167   2.381  2.9763 -0.4554  1.5181
  180MOL0     H24798   8.742   5.916   2.088  0.3466 -1.1757  1.4715
  180MOL0     H24799   8.714   5.696   1.864  1.6902 -1.4820 -1.3437
  180MOL0     H24800   8.642   5.735   2.012  0.9491  1.3633 -0.2388
  180MOL0     H24801   8.731   5.579   1.994  1.9424 -1.3078 -3.0786
  180MOL0     H24802   9.336   5.637   1.739 -0.2206 -0.0633 -1.5890
  180MOL0     H24803   9.419   5.492   1.580  0.0635  1.9281  0.9474
  180MOL0     H24804   9.490   5.342   1.437 -1.8841 -0.7176  0.9247
  180MOL0     H24805   9.596   5.325   1.573 -1.9503  2.6443 -0.6182
  180MOL0     H24806   9.650   5.085   1.484  0.4363  0.9787  0.8634
  180MOL0     H24807   9.517   5.107   1.361 -0.7081  2.6733 -0.9714
  180MOL0     H24808   9.766   5.273   1.357  2.7448 -1.6936 -4.5090
  180MOL0     H24809   9.619   5.313   1.265 -0.7104 -1.6778 -0.9042
  180MOL0     H24810   9.642   5.151   1.113  0.8834  4.0201 -0.9439
  180MOL0     H24811   9.694   5.030   1.226 -0.8060  0.4139  2.0164
  180MOL0     H24812   9.865   5.065   1.079  0.6402  0.7120  0.2371
  180MOL0     H24813   9.888   5.240   1.086 -0.2921 -1.3503 -3.2535
  180MOL0     H24814   9.890   5.097   1.358 -0.5611 -3.3467 -0.7670
  180MOL0     H24815   9.971   5.244   1.294 -1.7488  0.2230 -1.2378
  180MOL0     H24816  10.125   5.078   1.341  0.6670  2.1228 -0.2033
  180MOL0     H24817  10.117   5.079   1.166  2.9002 -0.9421  2.5874
  180MOL0     H24818   9.969   4.880   1.161  1.1510 -1.1132  0.3853
  180MOL0     H24819   9.993   4.863   1.344 -0.1661  0.6587  1.2164
  180MOL0     H24820   9.283   5.149   1.788 -2.5029  0.3271 -0.9468
  180MOL0     H24821   9.145   5.304   1.941 -0.3691  0.8102 -0.0072
  180MOL0     H24822   9.195   5.768   2.052 -0.7145 -1.5607 -0.9887
  180MOL0     H24823   9.148   5.983   2.174  2.7535 -1.5681 -0.2716
  180MOL0     H24824   9.605   7.160   3.145 -0.2019 -0.3370  1.4697
  180MOL0     H24825   9.713   7.349   3.090 -0.2158 -0.4401 -0.4041
  180MOL0     H24826   9.861   7.657   2.787  0.4022 -1.6111  1.6917
  180MOL0     H24827   9.979   7.849   2.689 -3.5200 -2.9160 -1.7628
  180MOL0     H24828  10.284   8.017   2.915 -1.4682  0.2967  0.4183
  180MOL0     H24829  10.297   8.108   2.764 -2.9261  3.2114  0.5358
  180MOL0     H24830  10.050   8.024   2.915  0.5604 -0.4559 -1.6665
  180MOL0     H24831  10.048   8.099   2.762  1.5705 -0.1543 -2.2187
  180MOL0     H24832  10.188   8.245   2.997 -2.2471 -2.2798  1.3359
  180MOL0     H24833  10.141   8.314   2.842 -1.5353  1.6076  0.6891
  180MOL0     H24834   9.995   8.375   3.009 -3.5901  1.1921  1.4275
  180MOL0     H24835   9.950   8.225   3.074  0.2343  0.2637 -0.3238
  180MOL0     H24836   9.691   8.257   2.736  0.7235 -0.5102 -0.5606
  180MOL0     H24837  10.309   7.763   2.947 -0.8903  2.9754  0.3706
  180MOL0     H24838  10.290   7.467   3.000  1.3806  1.5663 -0.7471
  180MOL0     H24839  10.307   7.602   3.100 -0.2178  0.2900 -0.5984
  180MOL0     H24840  10.168   7.500   3.142 -2.8487  1.0166 -0.3303
  181MOL0     O24841   8.653   7.668   5.502 -0.1036 -0.4776 -0.5448
  181MOL0     C24842   8.749   7.608   5.542  0.0627 -0.1065 -0.0843
  181MOL0     O24843   8.749   7.505   5.632  0.1898 -0.1499 -0.0245
  181MOL0     C24844   8.638   7.421   5.637 -0.8202 -0.4892 -0.7045
  181MOL0     C24845   8.519   7.462   5.706  0.3915 -0.1411  0.1460
  181MOL0     C24846   8.425   7.362   5.733 -0.4391 -0.1989 -0.1497
  181MOL0     C24847   8.456   7.227   5.700 -0.8654 -0.1582  0.5796
  181MOL0     O24848   8.363   7.133   5.738  0.2362  0.1350  0.1216
  181MOL0     C24849   8.328   7.053   5.630 -0.5810 -0.9222  0.3092
  181MOL0     C24850   8.199   6.973   5.648  0.3244  0.4036  0.1093
  181MOL0     C24851   8.077   7.070   5.640  0.0371 -0.1325  0.6995
  181MOL0     C24852   7.962   7.023   5.728 -0.1738 -0.8957  0.0790
  181MOL0     C24853   7.833   7.113   5.726  0.3690  0.1315 -0.7058
  181MOL0     C24854   7.705   7.035   5.768  0.2252  0.1471  0.4490
  181MOL0     C24855   7.593   7.137   5.741 -0.1233 -0.1831  0.5391
  181MOL0     C24856   7.457   7.068   5.777  0.0301 -0.4950 -0.3108
  181MOL0     N24857   7.339   7.147   5.722  0.5286 -0.8299  0.1626
  181MOL0     C24858   7.257   7.090   5.629  1.1965  0.4218 -0.0957
  181MOL0     C24859   7.161   7.185   5.607 -0.4278  0.5732  0.4408
  181MOL0     C24860   7.044   7.164   5.517 -0.5217 -0.7081 -0.3842
  181MOL0     C24861   6.940   7.283   5.517  0.7690  1.0660  0.7970
  181MOL0     C24862   6.793   7.251   5.474  0.2073  0.2867  0.3136
  181MOL0     C24863   6.780   7.151   5.348 -0.8688  0.6210  0.1038
  181MOL0     O24864   6.645   7.127   5.312 -0.1802 -0.2698  0.6046
  181MOL0     C24865   6.618   7.037   5.209 -0.6091  0.1511  0.0149
  181MOL0     C24866   6.718   7.007   5.114  1.1390  0.2904 -0.5005
  181MOL0     C24867   6.707   6.904   5.029  0.1392  0.9872  0.8322
  181MOL0     C24868   6.820   6.881   4.932 -0.6027  0.1154 -0.0033
  181MOL0     C24869   6.589   6.821   5.028 -0.3336 -0.7455  0.6564
  181MOL0     C24870   6.573   6.714   4.929  0.0973  0.5830  0.0467
  181MOL0     O24871   6.678   6.654   4.867 -0.0855  0.4528  0.1146
  181MOL0     C24872   6.649   6.553   4.779  0.5252 -0.6299  1.1092
  181MOL0     C24873   6.665   6.421   4.825  0.1549 -0.1593  0.2687
  181MOL0     C24874   6.628   6.307   4.759  0.4054 -0.2985 -1.0438
  181MOL0     C24875   6.568   6.329   4.634  0.7007 -0.4595 -0.0535
  181MOL0     O24876   6.546   6.213   4.561 -0.3759  0.0379 -0.0995
  181MOL0     C24877   6.515   6.218   4.418 -0.0516 -0.3657  0.1296
  181MOL0     C24878   6.518   6.069   4.365 -0.2937 -0.5743  0.2211
  181MOL0     C24879   6.424   5.969   4.434  0.3965  0.8866 -0.1684
  181MOL0     C24880   6.274   6.009   4.427  0.0654 -0.7490  0.3637
  181MOL0     C24881   6.213   5.966   4.287 -0.0464 -0.4423 -0.0750
  181MOL0     C24882   6.060   5.969   4.292 -0.1210 -0.8055  0.3713
  181MOL0     C24883   6.020   6.119   4.317 -0.6310 -0.5525 -0.7630
  181MOL0     C24884   5.872   6.120   4.294  0.1033 -0.6577 -0.0420
  181MOL0    Cl24885   5.830   6.298   4.290 -0.4800 -0.0705 -0.1385
  181MOL0     C24886   6.551   6.465   4.584 -0.6461  1.1258  0.4358
  181MOL0     C24887   6.586   6.575   4.656 -0.5337  0.2886 -0.4215
  181MOL0     O24888   6.456   6.680   4.910  0.5285 -0.3228 -0.1843
  181MOL0     C24889   6.477   6.847   5.113  0.2768 -0.0888  0.0604
  181MOL0     C24890   6.499   6.958   5.192  0.0468 -0.4012 -0.4553
  181MOL0     N24891   7.191   7.292   5.690  0.0352  0.8297 -0.0906
  181MOL0     N24892   7.295   7.268   5.750 -0.0974 -0.4432  0.1702
  181MOL0     C24893   8.569   7.198   5.630  0.3533  0.2399  0.1014
  181MOL0     C24894   8.656   7.298   5.587  0.8028 -0.9603 -0.2339
  181MOL0     C24895   8.878   7.663   5.509 -0.4611 -1.5701  0.0809
  181MOL0     C24896   8.892   7.738   5.393  0.2588 -0.2476 -0.0080
  181MOL0     C24897   9.011   7.796   5.351 -0.0966 -0.9158  0.6108
  181MOL0     C24898   9.125   7.741   5.406  0.1759 -0.9626 -0.2404
  181MOL0     O24899   9.233   7.792   5.344  0.7141 -0.1339 -0.2807
  181MOL0     C24900   9.358   7.733   5.357 -1.3169 -0.4033  0.7324
  181MOL0     C24901   9.453   7.792   5.256 -0.0283 -1.1746  0.1841
  181MOL0     C24902   9.463   7.714   5.119  0.3686  0.3655  0.2041
  181MOL0     C24903   9.324   7.651   5.074 -0.5606 -0.3620 -0.8775
  181MOL0     C24904   9.319   7.624   4.929  0.0151 -0.1602 -0.0605
  181MOL0     C24905   9.313   7.597   4.812  0.3117  0.6395 -0.9543
  181MOL0     C24906   9.124   7.638   5.507 -0.0216  0.4146 -0.6632
  181MOL0     C24907   9.000   7.614   5.561  0.5426 -0.7186 -0.5294
  181MOL0     C24908   9.003   7.542   5.700  0.4830  0.7428 -0.0087
  181MOL0     H24909   8.506   7.554   5.762  2.9288  1.4276 -1.6334
  181MOL0     H24910   8.335   7.385   5.789  2.0375  0.8376  3.8117
  181MOL0     H24911   8.417   6.991   5.618  1.0791  1.1060  1.4927
  181MOL0     H24912   8.310   7.120   5.545  0.4285 -0.0675  0.7385
  181MOL0     H24913   8.187   6.908   5.561  0.9721  0.0612  0.2702
  181MOL0     H24914   8.195   6.906   5.735 -0.9470 -0.7429 -0.7808
  181MOL0     H24915   8.111   7.166   5.681  0.6169  1.5173 -3.1748
  181MOL0     H24916   8.049   7.104   5.540  3.9691  1.0524 -0.1923
  181MOL0     H24917   7.920   6.929   5.691 -1.1996 -0.6467  0.5468
  181MOL0     H24918   7.981   6.998   5.833 -0.3871 -2.2279 -0.1828
  181MOL0     H24919   7.818   7.141   5.622 -1.4200  1.1675 -0.2262
  181MOL0     H24920   7.847   7.202   5.789 -0.1372 -1.0547  1.1603
  181MOL0     H24921   7.698   6.945   5.708 -1.5594  1.6409 -1.7458
  181MOL0     H24922   7.710   7.000   5.871  1.9957  1.6152  0.9310
  181MOL0     H24923   7.576   7.163   5.636  1.1633  0.8209  0.5539
  181MOL0     H24924   7.604   7.227   5.803 -4.3338 -1.0808  3.0280
  181MOL0     H24925   7.449   6.976   5.719  2.0921 -2.0436  1.6610
  181MOL0     H24926   7.454   7.056   5.886 -2.0020 -0.2834 -0.3095
  181MOL0     H24927   7.256   6.985   5.601 -3.4872 -0.6614  3.0433
  181MOL0     H24928   6.992   7.074   5.552 -0.6279 -0.0066  1.3906
  181MOL0     H24929   7.081   7.157   5.415 -1.0093  0.9605 -0.7100
  181MOL0     H24930   6.929   7.319   5.620  2.6346 -0.3350  1.5582
  181MOL0     H24931   6.963   7.361   5.444 -0.6562  1.1676  0.4376
  181MOL0     H24932   6.758   7.186   5.555 -1.6193 -1.2274 -1.5810
  181MOL0     H24933   6.733   7.341   5.460 -0.2330 -0.0075  0.2931
  181MOL0     H24934   6.833   7.205   5.269  1.0251 -1.6812 -0.3390
  181MOL0     H24935   6.826   7.057   5.381  1.0397  1.1676 -0.8089
  181MOL0     H24936   6.802   7.074   5.104  1.2626  0.1083 -0.6963
  181MOL0     H24937   6.880   6.794   4.962 -1.6018 -0.0553  1.6096
  181MOL0     H24938   6.894   6.961   4.945 -0.7568  0.6975 -2.1754
  181MOL0     H24939   6.791   6.882   4.826 -0.7316  0.7535  0.0346
  181MOL0     H24940   6.724   6.423   4.915  0.9960 -0.0674 -0.2726
  181MOL0     H24941   6.628   6.206   4.800  0.5656  0.4281  0.8121
  181MOL0     H24942   6.416   6.264   4.408  0.3294  0.0579 -2.0520
  181MOL0     H24943   6.586   6.274   4.356  1.0822 -3.3531 -1.4354
  181MOL0     H24944   6.498   6.061   4.257  1.4174 -0.6415 -0.1214
  181MOL0     H24945   6.620   6.037   4.387 -0.4340  0.9903  3.7068
  181MOL0     H24946   6.436   5.961   4.542  0.5744  0.3111 -0.2239
  181MOL0     H24947   6.448   5.875   4.382  2.0075  1.9762 -1.5077
  181MOL0     H24948   6.269   6.118   4.439 -4.3932 -0.9169  1.9546
  181MOL0     H24949   6.209   5.962   4.502 -2.7106 -0.3523 -1.6301
  181MOL0     H24950   6.248   6.046   4.221  0.1513 -1.4527 -1.2236
  181MOL0     H24951   6.257   5.873   4.250  0.9535  0.1289 -0.3767
  181MOL0     H24952   6.010   5.904   4.365 -0.8827 -0.0968  0.4897
  181MOL0     H24953   6.036   5.943   4.189  0.3495 -2.8255  0.7247
  181MOL0     H24954   6.068   6.182   4.241  0.0158 -0.6204 -0.4130
  181MOL0     H24955   6.052   6.143   4.419  1.4845 -1.9742 -1.0358
  181MOL0     H24956   5.818   6.065   4.372  1.6199 -0.4538  1.2159
  181MOL0     H24957   5.846   6.084   4.194  0.4977  1.0518 -0.7926
  181MOL0     H24958   6.503   6.475   4.487  2.0233 -0.6820 -1.2180
  181MOL0     H24959   6.568   6.675   4.618 -0.4964  0.6728  0.5185
  181MOL0     H24960   6.379   6.802   5.118  0.8636 -1.4268 -0.0389
  181MOL0     H24961   6.416   7.001   5.248  0.3332  3.1469 -2.4432
  181MOL0     H24962   8.596   7.094   5.613  3.4330  1.2289 -1.8197
  181MOL0     H24963   8.735   7.263   5.522 -0.2162 -1.0244 -1.4740
  181MOL0     H24964   8.805   7.754   5.330  1.5058 -0.1165 -1.7808
  181MOL0     H24965   9.010   7.865   5.267  0.4431 -0.2297  1.1473
  181MOL0     H24966   9.410   7.749   5.452  1.2899  0.5254 -0.7525
  181MOL0     H24967   9.374   7.625   5.351  3.2901  0.0966 -0.1807
  181MOL0     H24968   9.553   7.785   5.300 -0.1199  1.0394  0.8183
  181MOL0     H24969   9.430   7.898   5.242  0.2341 -1.0799  0.4784
  181MOL0     H24970   9.510   7.783   5.048 -1.5116  1.6300  0.1310
  181MOL0     H24971   9.528   7.627   5.134 -0.9494 -0.6013  0.4304
  181MOL0     H24972   9.249   7.731   5.077 -0.6592 -0.4595 -0.7446
  181MOL0     H24973   9.278   7.572   5.134 -1.7083  0.0534 -1.1855
  181MOL0     H24974   9.303   7.559   4.712  2.6624 -2.7883 -0.0945
  181MOL0     H24975   9.218   7.600   5.547  0.7704  2.4047 -0.5292
  181MOL0     H24976   8.985   7.437   5.675 -2.4194  1.1907 -0.1577
  181MOL0     H24977   9.090   7.560   5.764 -0.6083 -0.0629  1.7913
  181MOL0     H24978   8.918   7.579   5.759 -0.8835 -1.8476 -0.2029
  182MOL0     O24979   1.304   0.823   8.225  0.5112 -0.3539 -0.4153
  182MOL0     C24980   1.378   0.899   8.290  1.1416  0.4044  0.5625
  182MOL0     O24981   1.356   1.035   8.302 -0.1705  0.4805 -0.1178
  182MOL0     C24982   1.238   1.084   8.254 -0.8044  0.5924  0.0424
  182MOL0     C24983   1.241   1.160   8.134  0.4298  0.4163 -0.9284
  182MOL0     C24984   1.120   1.217   8.090  0.1129 -0.1900 -0.5227
  182MOL0     C24985   1.001   1.183   8.142 -0.0747  0.4883  0.7708
  182MOL0     O24986   0.881   1.222   8.088  0.1646  0.4005 -0.1121
  182MOL0     C24987   0.770   1.127   8.070  0.3633  0.3718 -0.4477
  182MOL0     C24988   0.693   1.162   7.950  0.0714 -0.0558 -0.8457
  182MOL0     C24989   0.578   1.256   7.990  0.5031 -0.7008 -1.1549
  182MOL0     C24990   0.447   1.182   8.024  0.5457 -0.5679 -0.7460
  182MOL0     C24991   0.338   1.280   8.062  1.3608  0.6557  0.3345
  182MOL0     C24992   0.205   1.216   8.101  0.0964  0.0596  0.7672
  182MOL0     C24993   0.149   1.125   7.984 -0.6675 -0.1801  0.2974
  182MOL0     C24994  -0.001   1.087   8.009 -0.5302 -0.4851 -0.5191
  182MOL0     N24995  -0.011   0.992   8.123  0.1507 -0.3029  1.3183
  182MOL0     C24996  -0.065   0.866   8.111 -0.3877  0.4088 -0.5555
  182MOL0     C24997  -0.101   0.829   8.243  0.0459  0.3260  0.2858
  182MOL0     C24998  -0.151   0.697   8.290 -0.4501 -0.1076 -0.3344
  182MOL0     C24999  -0.060   0.585   8.248  0.6866  0.3454  0.2004
  182MOL0     C25000   0.064   0.589   8.335 -0.4533  1.0692  0.6002
  182MOL0     C25001   0.180   0.520   8.264  0.1972  0.4803 -0.4674
  182MOL0     O25002   0.144   0.385   8.227 -1.0781 -0.3237 -0.5860
  182MOL0     C25003   0.248   0.300   8.198 -0.2205 -0.8540 -0.8163
  182MOL0     C25004   0.375   0.348   8.176 -0.1564 -0.3782 -0.1211
  182MOL0     C25005   0.490   0.269   8.137  0.0317  0.4870 -0.7231
  182MOL0     C25006   0.631   0.330   8.114 -0.6993 -0.4108  0.1357
  182MOL0     C25007   0.480   0.128   8.146  0.5700 -0.6118  0.9796
  182MOL0     C25008   0.593   0.033   8.120  0.1408 -1.0725  0.1064
  182MOL0     O25009   0.595  -0.072   8.202 -0.5071  0.3782  0.4125
  182MOL0     C25010   0.704  -0.165   8.194 -0.5220  1.1530  0.0646
  182MOL0     C25011   0.735  -0.232   8.077  1.2628 -1.1533 -0.2018
  182MOL0     C25012   0.817  -0.339   8.071 -0.4896 -0.5750  0.2044
  182MOL0     C25013   0.875  -0.380   8.186 -0.0923  0.4175 -0.9141
  182MOL0     O25014   0.977  -0.473   8.196 -0.1006  0.2498 -0.6756
  182MOL0     C25015   0.982  -0.585   8.101  0.3368  0.7903 -0.9191
  182MOL0     C25016   1.093  -0.679   8.151  0.3928 -0.5118 -1.0713
  182MOL0     C25017   1.229  -0.609   8.179 -0.1187 -0.2876  0.1755
  182MOL0     C25018   1.339  -0.707   8.215 -1.5234  0.3917  0.1746
  182MOL0     C25019   1.474  -0.634   8.237  0.2967  0.8679 -0.1572
  182MOL0     C25020   1.588  -0.746   8.223 -0.3741  0.0527 -0.4994
  182MOL0     C25021   1.587  -0.848   8.340 -0.7169  0.2263  0.4086
  182MOL0     C25022   1.694  -0.951   8.337  0.3882  0.2077  0.5794
  182MOL0    Cl25023   1.855  -0.909   8.266 -0.1379 -0.1449 -0.2186
  182MOL0     C25024   0.868  -0.294   8.300 -0.6160  0.6671  0.0259
  182MOL0     C25025   0.786  -0.181   8.311 -0.1762  0.1743  0.2284
  182MOL0     O25026   0.674   0.049   8.026  0.6321 -0.4483  0.6159
  182MOL0     C25027   0.348   0.080   8.170 -1.4618  0.4323  0.4055
  182MOL0     C25028   0.238   0.164   8.198  0.0007  0.6593 -0.0711
  182MOL0     N25029  -0.076   0.946   8.314  0.3628  0.5275  0.2540
  182MOL0     N25030  -0.011   1.040   8.250 -0.4684  0.8024  0.5186
  182MOL0     C25031   1.001   1.103   8.257 -0.3713  0.7239 -0.3045
  182MOL0     C25032   1.118   1.057   8.320  0.3136 -1.1344  0.6932
  182MOL0     C25033   1.515   0.851   8.325 -0.3897  0.3414 -0.6708
  182MOL0     C25034   1.607   0.942   8.397 -0.5099 -0.7066 -0.2030
  182MOL0     C25035   1.735   0.899   8.449  0.0330  0.0385 -0.5341
  182MOL0     C25036   1.783   0.763   8.422  0.6030 -0.2082 -0.5823
  182MOL0     O25037   1.912   0.743   8.460 -0.3101 -0.8271 -0.3902
  182MOL0     C25038   1.955   0.614   8.462 -0.0606  0.1781 -0.8903
  182MOL0     C25039   1.995   0.560   8.322 -0.1796  0.3544 -0.4192
  182MOL0     C25040   2.029   0.410   8.326  1.2323 -1.2211 -0.8879
  182MOL0     C25041   2.123   0.360   8.438  0.8851 -0.3502  0.2432
  182MOL0     C25042   2.253   0.415   8.408  0.0315 -0.8520  0.5194
  182MOL0     C25043   2.370   0.448   8.387  0.1929  0.9473 -0.0166
  182MOL0     C25044   1.690   0.677   8.360  0.2965 -1.1993  0.0702
  182MOL0     C25045   1.563   0.717   8.308 -0.2662  0.0522  1.1068
  182MOL0     C25046   1.491   0.595   8.252 -0.1195 -0.2637 -0.4342
  182MOL0     H25047   1.336   1.203   8.103  1.6923 -1.2271  0.4047
  182MOL0     H25048   1.138   1.299   8.022  0.1021  2.2922  2.2458
  182MOL0     H25049   0.707   1.123   8.159 -0.1807  0.3620 -0.8277
  182MOL0     H25050   0.811   1.026   8.057 -0.4075 -0.4901  2.8090
  182MOL0     H25051   0.746   1.217   7.872 -0.5981  0.9228 -0.6289
  182MOL0     H25052   0.660   1.068   7.903 -0.0665 -0.7942  0.6622
  182MOL0     H25053   0.603   1.325   8.071 -2.0068  0.4897 -1.3018
  182MOL0     H25054   0.557   1.321   7.904 -0.7469 -0.8582 -0.9813
  182MOL0     H25055   0.418   1.132   7.932  1.6423  0.7319 -1.8435
  182MOL0     H25056   0.466   1.121   8.113  2.3516  0.6341 -0.2408
  182MOL0     H25057   0.308   1.349   7.982 -1.4891 -1.8907 -0.9955
  182MOL0     H25058   0.379   1.350   8.136  0.3676  0.1995  1.3401
  182MOL0     H25059   0.205   1.160   8.195  2.3891 -1.6582 -0.1672
  182MOL0     H25060   0.130   1.295   8.114 -1.6633 -0.7725 -2.8765
  182MOL0     H25061   0.211   1.034   7.980  4.0901  2.7566 -1.1761
  182MOL0     H25062   0.150   1.176   7.887 -0.9403 -0.0206  0.3804
  182MOL0     H25063  -0.062   1.175   8.032  2.6748  1.8045 -0.1252
  182MOL0     H25064  -0.046   1.031   7.926 -0.5232 -2.0931  0.5158
  182MOL0     H25065  -0.063   0.797   8.027  1.1824  0.3744 -0.5182
  182MOL0     H25066  -0.254   0.688   8.252 -1.4317  0.2932  2.0639
  182MOL0     H25067  -0.176   0.700   8.396 -1.5568  1.2223 -0.5944
  182MOL0     H25068  -0.103   0.484   8.252  3.7426 -1.2109 -1.8826
  182MOL0     H25069  -0.033   0.612   8.146 -0.4335  0.2810 -0.1278
  182MOL0     H25070   0.091   0.693   8.357  1.0319  1.7541 -3.5441
  182MOL0     H25071   0.051   0.524   8.421 -2.3863  1.7002  0.8379
  182MOL0     H25072   0.208   0.569   8.170  0.4936 -1.0730 -1.2131
  182MOL0     H25073   0.260   0.511   8.339 -1.2753 -1.0930  0.9786
  182MOL0     H25074   0.406   0.451   8.159  0.1155  0.0046  2.3705
  182MOL0     H25075   0.720   0.270   8.130  0.7593  1.5013 -0.4677
  182MOL0     H25076   0.642   0.417   8.179 -1.7783  0.6157 -0.9882
  182MOL0     H25077   0.644   0.370   8.013 -3.3653 -3.3134 -1.5819
  182MOL0     H25078   0.671  -0.200   7.994  0.7110 -0.7004  0.3870
  182MOL0     H25079   0.844  -0.402   7.987  2.8985 -2.8133  2.7280
  182MOL0     H25080   0.884  -0.631   8.114  0.8756 -0.0782  0.2806
  182MOL0     H25081   0.998  -0.544   8.001  0.8881  2.1366 -0.3113
  182MOL0     H25082   1.065  -0.729   8.244 -2.6173 -1.4887 -2.3708
  182MOL0     H25083   1.100  -0.773   8.095 -0.4636 -1.7899  0.8310
  182MOL0     H25084   1.230  -0.538   8.261  2.0477  0.1642 -0.1875
  182MOL0     H25085   1.241  -0.544   8.092  0.3633  0.5903  0.8848
  182MOL0     H25086   1.343  -0.781   8.135 -0.3632  0.9138 -0.2703
  182MOL0     H25087   1.317  -0.761   8.307  0.6960 -1.1045 -0.1047
  182MOL0     H25088   1.484  -0.562   8.156  0.5681 -0.8434 -1.7088
  182MOL0     H25089   1.465  -0.585   8.335 -2.6108  1.6511 -0.7166
  182MOL0     H25090   1.687  -0.703   8.241 -1.4515  2.2252  0.6283
  182MOL0     H25091   1.585  -0.793   8.125  0.8450  1.4483 -1.2506
  182MOL0     H25092   1.491  -0.900   8.334 -1.4550  1.5265  0.6180
  182MOL0     H25093   1.585  -0.796   8.437  0.3054 -0.3791  0.7670
  182MOL0     H25094   1.652  -1.036   8.282 -1.0882  0.0322  1.8851
  182MOL0     H25095   1.710  -0.975   8.442 -1.0099  0.4922  0.8830
  182MOL0     H25096   0.917  -0.323   8.393 -1.6534 -2.4286 -0.2740
  182MOL0     H25097   0.764  -0.130   8.404 -0.6515 -1.1697  0.8789
  182MOL0     H25098   0.343  -0.028   8.155  2.2648 -0.0649  1.6775
  182MOL0     H25099   0.136   0.128   8.202 -0.6450  2.4830  1.1711
  182MOL0     H25100   0.902   1.087   8.297  0.5505  1.4824  2.4915
  182MOL0     H25101   1.102   0.996   8.408 -0.8388  1.9129  2.7591
  182MOL0     H25102   1.580   1.046   8.412  0.2407 -0.5172 -0.1443
  182MOL0     H25103   1.799   0.976   8.492 -0.7635  0.3434  0.1315
  182MOL0     H25104   2.048   0.621   8.520  0.6819  0.2714 -2.0434
  182MOL0     H25105   1.892   0.546   8.520  1.2427  1.0137  1.6661
  182MOL0     H25106   2.079   0.623   8.291 -0.4317  1.4252  0.9579
  182MOL0     H25107   1.914   0.558   8.249  0.2929 -1.0904 -0.9396
  182MOL0     H25108   1.934   0.356   8.332 -0.2782  1.2704 -0.6310
  182MOL0     H25109   2.082   0.372   8.239  2.1505 -2.0937  0.0172
  182MOL0     H25110   2.141   0.252   8.434  0.4084 -0.4068 -2.6083
  182MOL0     H25111   2.103   0.380   8.543  1.7323  1.2057  0.1382
  182MOL0     H25112   2.473   0.463   8.364 -0.0515  1.9930 -0.4942
  182MOL0     H25113   1.718   0.572   8.355  2.0548 -0.7482 -0.1710
  182MOL0     H25114   1.444   0.635   8.162  2.1344 -0.0390 -1.5975
  182MOL0     H25115   1.563   0.524   8.208 -1.0609  1.4983 -5.5537
  182MOL0     H25116   1.411   0.552   8.313 -1.3164  1.4833 -0.7231
  183MOL0     O25117   4.404   2.502  10.734 -0.1398  0.3101 -1.1864
  183MOL0     C25118   4.304   2.547  10.787 -0.2316  0.6211  0.2249
  183MOL0     O25119   4.200   2.466  10.822  0.5945 -0.1127  0.0659
  183MOL0     C25120   4.223   2.333  10.812  0.3023  0.8138  0.5594
  183MOL0     C25121   4.253   2.256  10.928 -0.9780 -0.5287 -0.1594
  183MOL0     C25122   4.268   2.119  10.917 -0.7651  0.9324  0.2311
  183MOL0     C25123   4.229   2.050  10.802 -0.6359  0.3602  0.0582
  183MOL0     O25124   4.241   1.914  10.797 -0.2526  0.1148 -0.0440
  183MOL0     C25125   4.379   1.878  10.787  0.9545  0.1251  0.2809
  183MOL0     C25126   4.383   1.725  10.773 -0.4498 -1.0550  0.3350
  183MOL0     C25127   4.374   1.663  10.913 -1.1184 -0.2268 -0.8203
  183MOL0     C25128   4.409   1.519  10.908  1.2156 -0.5209 -0.7089
  183MOL0     C25129   4.447   1.452  11.038 -0.2688  0.2877  0.1536
  183MOL0     C25130   4.579   1.495  11.103 -0.0896  0.1913 -0.1419
  183MOL0     C25131   4.635   1.398  11.212  0.0694  0.0631  0.6669
  183MOL0     C25132   4.531   1.381  11.320  0.3251  0.2190 -0.7000
  183MOL0     N25133   4.583   1.278  11.413  0.3799 -0.1440 -0.5211
  183MOL0     C25134   4.509   1.227  11.512 -0.9802 -0.9751 -0.5882
  183MOL0     C25135   4.592   1.178  11.603 -0.1955 -1.2574 -0.0340
  183MOL0     C25136   4.538   1.121  11.732 -0.2295  0.3852 -0.1252
  183MOL0     C25137   4.441   1.007  11.719  0.1923  0.5075  0.6530
  183MOL0     C25138   4.518   0.875  11.681  0.2152 -1.4076 -0.0419
  183MOL0     C25139   4.411   0.772  11.649 -0.6543  0.5881  0.5348
  183MOL0     O25140   4.482   0.647  11.667  0.3344  0.2709  0.7042
  183MOL0     C25141   4.471   0.545  11.570  0.2741 -0.4293 -0.3444
  183MOL0     C25142   4.344   0.489  11.525  0.8094  0.4324  0.3109
  183MOL0     C25143   4.342   0.393  11.423 -0.0536 -0.4026 -0.5328
  183MOL0     C25144   4.206   0.362  11.368 -0.1214 -0.4680  0.4621
  183MOL0     C25145   4.467   0.331  11.385  0.0409 -0.3662  0.1196
  183MOL0     C25146   4.474   0.230  11.265 -0.7765  0.0748 -0.0648
  183MOL0     O25147   4.366   0.164  11.228  0.4028  0.0681  0.9842
  183MOL0     C25148   4.368   0.100  11.104 -0.8951 -0.2695  0.1531
  183MOL0     C25149   4.326   0.157  10.989 -0.2411 -0.4892 -0.7857
  183MOL0     C25150   4.317   0.083  10.866 -0.7580 -0.6382  0.2191
  183MOL0     C25151   4.362  -0.051  10.861  0.0313 -0.6227  0.4683
  183MOL0     O25152   4.367  -0.116  10.746  0.0118 -0.2251  0.6153
  183MOL0     C25153   4.261  -0.091  10.649 -0.1781  0.7410  0.9892
  183MOL0     C25154   4.310  -0.133  10.504 -0.2018  1.3171 -0.4182
  183MOL0     C25155   4.191  -0.154  10.413 -0.1286 -0.0139 -0.6286
  183MOL0     C25156   4.119  -0.024  10.370  0.0602  0.0654 -0.2894
  183MOL0     C25157   3.970  -0.033  10.416 -1.3110 -0.0036 -0.5538
  183MOL0     C25158   3.919   0.113  10.402 -0.7631 -0.6738  0.5339
  183MOL0     C25159   3.767   0.123  10.410 -0.3830 -1.3744  0.7978
  183MOL0     C25160   3.695   0.255  10.395 -1.3754 -0.1805  0.0793
  183MOL0    Cl25161   3.677   0.306  10.233 -0.2726  0.2323  0.2260
  183MOL0     C25162   4.405  -0.111  10.982 -0.2907 -0.0990  0.1381
  183MOL0     C25163   4.402  -0.036  11.103  0.0397 -0.0148 -1.1917
  183MOL0     O25164   4.586   0.204  11.222 -0.2314  0.2772  0.3784
  183MOL0     C25165   4.579   0.375  11.450  0.0726  0.0826  0.5892
  183MOL0     C25166   4.587   0.490  11.527 -0.6357  1.0153 -0.4534
  183MOL0     N25167   4.718   1.208  11.572  0.2233 -0.1722  0.3250
  183MOL0     N25168   4.712   1.266  11.454  0.6099  0.7433  0.2250
  183MOL0     C25169   4.213   2.127  10.682  0.1881  0.9713  0.3063
  183MOL0     C25170   4.204   2.270  10.694 -0.0632 -0.1407  0.5656
  183MOL0     C25171   4.288   2.695  10.810  0.8899  0.0463  0.0719
  183MOL0     C25172   4.162   2.746  10.858 -0.7917  0.1736  1.3241
  183MOL0     C25173   4.140   2.877  10.873 -0.5471 -0.0886 -0.1938
  183MOL0     C25174   4.236   2.976  10.852 -0.1940 -0.0784 -0.1483
  183MOL0     O25175   4.195   3.106  10.888  0.2631  0.5872  0.5037
  183MOL0     C25176   4.267   3.219  10.831 -0.7996 -0.3968 -0.4530
  183MOL0     C25177   4.235   3.334  10.912 -0.2482 -0.1139 -0.1110
  183MOL0     C25178   4.297   3.465  10.858  0.6712 -0.0200 -0.2472
  183MOL0     C25179   4.218   3.543  10.753 -0.4331  0.1964 -0.1272
  183MOL0     C25180   4.293   3.666  10.719  0.0965  0.6490 -0.1638
  183MOL0     C25181   4.368   3.758  10.721 -0.5641 -0.2991  0.4299
  183MOL0     C25182   4.352   2.935  10.786  0.1810 -0.1110  0.4385
  183MOL0     C25183   4.379   2.796  10.766  0.7124  0.3115  0.0346
  183MOL0     C25184   4.520   2.766  10.712  0.0517  0.4962  0.2413
  183MOL0     H25185   4.271   2.304  11.023 -0.2212 -0.4325 -0.3479
  183MOL0     H25186   4.303   2.067  11.006 -3.9426  1.0834  1.7055
  183MOL0     H25187   4.430   1.908  10.879 -0.3485 -0.8667  1.3736
  183MOL0     H25188   4.421   1.919  10.695 -2.3547  0.5283 -1.1694
  183MOL0     H25189   4.304   1.709  10.699 -2.2616  2.4710  1.2704
  183MOL0     H25190   4.478   1.706  10.721 -0.8294  1.2296 -1.3737
  183MOL0     H25191   4.440   1.710  10.987 -0.3443  1.3734 -2.4524
  183MOL0     H25192   4.276   1.697  10.945 -0.6446  1.3107 -0.9344
  183MOL0     H25193   4.316   1.471  10.875 -0.3590  1.7234  0.2299
  183MOL0     H25194   4.486   1.494  10.834  0.9938  0.7806 -1.3940
  183MOL0     H25195   4.460   1.348  11.008  0.1512  0.1450  0.8081
  183MOL0     H25196   4.363   1.451  11.108  0.3637  0.6779  0.9342
  183MOL0     H25197   4.656   1.490  11.026  1.5303 -1.6154  1.4900
  183MOL0     H25198   4.563   1.594  11.145  1.7714  0.3881  0.1843
  183MOL0     H25199   4.733   1.438  11.239  1.9092  1.4958 -6.1374
  183MOL0     H25200   4.657   1.299  11.171 -2.6201 -2.1593  4.0419
  183MOL0     H25201   4.521   1.477  11.370  0.6730  0.0965 -0.3986
  183MOL0     H25202   4.436   1.355  11.271 -1.2966  1.6285  1.5113
  183MOL0     H25203   4.402   1.231  11.535 -0.2925  1.3640  3.0224
  183MOL0     H25204   4.496   1.206  11.785  0.9101 -1.1793  3.5923
  183MOL0     H25205   4.623   1.094  11.795 -3.3446 -5.0348  2.5381
  183MOL0     H25206   4.389   0.985  11.813 -2.4073 -0.6809 -0.9485
  183MOL0     H25207   4.365   1.024  11.642 -0.7744  1.6719  1.8256
  183MOL0     H25208   4.571   0.895  11.587 -1.5565  3.9779 -0.2273
  183MOL0     H25209   4.585   0.851  11.763 -0.5921  1.4942  1.6045
  183MOL0     H25210   4.337   0.776  11.730  2.1641 -4.1263  3.8103
  183MOL0     H25211   4.371   0.791  11.549 -2.8322 -1.2413  0.9840
  183MOL0     H25212   4.244   0.514  11.558  0.7238  0.2296  0.2115
  183MOL0     H25213   4.126   0.427  11.404 -0.3310 -1.0018  0.9745
  183MOL0     H25214   4.176   0.261  11.400  0.0221 -0.0160  2.1311
  183MOL0     H25215   4.202   0.359  11.259 -0.6992  4.0497  0.1821
  183MOL0     H25216   4.285   0.257  11.000 -0.8869 -1.0874  4.1497
  183MOL0     H25217   4.284   0.139  10.779 -1.2812  1.8386  1.9188
  183MOL0     H25218   4.179  -0.160  10.671 -0.5063  1.2339  1.3277
  183MOL0     H25219   4.213   0.008  10.649  1.4146  1.5498  1.9915
  183MOL0     H25220   4.369  -0.049  10.467 -1.4969  4.4164  3.7160
  183MOL0     H25221   4.361  -0.229  10.519 -0.8961  0.9191 -0.5240
  183MOL0     H25222   4.124  -0.233  10.450 -1.2709  0.7528 -1.0230
  183MOL0     H25223   4.234  -0.182  10.317 -0.4319  1.1067 -1.1013
  183MOL0     H25224   4.132  -0.003  10.263 -0.8945  2.7787  0.0670
  183MOL0     H25225   4.153   0.063  10.426 -0.2143  0.0619 -0.1162
  183MOL0     H25226   3.906  -0.100  10.358 -3.0483  1.9929 -1.0817
  183MOL0     H25227   3.958  -0.064  10.521 -0.0055  1.3765  0.0389
  183MOL0     H25228   3.960   0.152  10.309  0.1060  2.4491  2.0749
  183MOL0     H25229   3.956   0.173  10.486 -2.5248  1.2603 -0.0194
  183MOL0     H25230   3.744   0.073  10.505  1.7261 -1.5291  1.2812
  183MOL0     H25231   3.731   0.043  10.345 -2.9727 -1.1416  1.8458
  183MOL0     H25232   3.741   0.343  10.441  0.1569  0.3904 -2.3992
  183MOL0     H25233   3.601   0.238  10.449 -1.4196 -0.2917 -0.0325
  183MOL0     H25234   4.428  -0.217  10.993  0.6113  0.3023  3.2088
  183MOL0     H25235   4.433  -0.068  11.202  1.3914  2.5310 -0.7017
  183MOL0     H25236   4.678   0.345  11.417 -0.1597 -0.0595  0.0157
  183MOL0     H25237   4.688   0.512  11.560  0.1584  0.4851 -2.4334
  183MOL0     H25238   4.206   2.074  10.587  1.1220 -0.0725  0.7863
  183MOL0     H25239   4.186   2.335  10.609  0.6808 -0.9799 -0.2572
  183MOL0     H25240   4.087   2.672  10.883 -1.0016  0.5596  1.8571
  183MOL0     H25241   4.050   2.907  10.927 -0.0421 -0.1958  0.7294
  183MOL0     H25242   4.375   3.199  10.832 -0.7614 -0.2241 -1.0498
  183MOL0     H25243   4.242   3.244  10.728  1.4238  3.4717 -0.2430
  183MOL0     H25244   4.274   3.311  11.011 -1.0975 -3.3602 -0.4235
  183MOL0     H25245   4.128   3.342  10.934  0.3938  0.2732  3.3880
  183MOL0     H25246   4.311   3.532  10.943  2.8089  0.5586 -1.0027
  183MOL0     H25247   4.395   3.436  10.820 -0.0260 -1.9596 -0.6873
  183MOL0     H25248   4.118   3.569  10.790  0.0248 -0.1604  1.4396
  183MOL0     H25249   4.202   3.481  10.665 -2.2112 -0.1805  0.4319
  183MOL0     H25250   4.422   3.851  10.714 -0.8110 -0.2046 -0.3203
  183MOL0     H25251   4.429   3.011  10.773 -0.7873  0.5425 -2.4266
  183MOL0     H25252   4.591   2.849  10.718 -2.5580  2.9362 -0.4207
  183MOL0     H25253   4.560   2.681  10.767  0.3946 -0.0467 -0.8167
  183MOL0     H25254   4.504   2.737  10.607  1.1875 -0.9995  0.4596
  184MOL0     O25255   9.525   4.361   3.749 -0.1764 -0.0801 -0.2907
  184MOL0     C25256   9.480   4.476   3.750  0.3661  0.3826  0.2138
  184MOL0     O25257   9.495   4.565   3.654  0.6795 -0.4782  0.0407
  184MOL0     C25258   9.594   4.544   3.561 -0.3918  0.1090  1.1720
  184MOL0     C25259   9.729   4.597   3.577  0.3544  0.8136 -0.5416
  184MOL0     C25260   9.823   4.563   3.478 -0.2302 -0.8592  0.2449
  184MOL0     C25261   9.801   4.469   3.373  0.5173 -0.2212  0.1025
  184MOL0     O25262   9.899   4.446   3.280  0.2718  0.2736 -0.4366
  184MOL0     C25263   9.863   4.407   3.144 -0.8659 -1.0122 -0.6548
  184MOL0     C25264   9.802   4.537   3.075 -0.2845  0.5753  0.5365
  184MOL0     C25265   9.906   4.640   3.072 -0.4684 -0.7158  0.5583
  184MOL0     C25266   9.856   4.776   3.011  0.1152  0.7330 -0.0545
  184MOL0     C25267   9.765   4.859   3.100  0.3985  0.0115  0.3714
  184MOL0     C25268   9.707   4.978   3.020  0.2860 -0.1542  0.1033
  184MOL0     C25269   9.821   5.082   2.993 -0.4045 -0.7084 -0.4399
  184MOL0     C25270   9.765   5.214   2.929 -0.4262 -0.0048 -0.2833
  184MOL0     N25271   9.862   5.320   2.939 -0.5173 -0.2400  0.2120
  184MOL0     C25272   9.840   5.458   2.923 -0.5729  0.1088  0.5009
  184MOL0     C25273   9.966   5.512   2.909  0.9668 -0.6378 -0.5047
  184MOL0     C25274  10.004   5.655   2.881  0.4483  0.3103  0.2932
  184MOL0     C25275   9.966   5.699   2.737  0.0205  0.3601  0.3690
  184MOL0     C25276   9.995   5.851   2.720  0.1724  0.9416 -0.3325
  184MOL0     C25277   9.954   5.895   2.577  0.3588 -0.3499 -0.3463
  184MOL0     O25278  10.032   5.820   2.483  0.0128  0.4156  0.3191
  184MOL0     C25279  10.144   5.879   2.432 -0.4160 -0.5485  0.7220
  184MOL0     C25280  10.198   5.999   2.484  0.4194 -0.0265  0.2106
  184MOL0     C25281  10.310   6.059   2.421  0.4606  0.2152 -1.0965
  184MOL0     C25282  10.361   6.181   2.482 -0.2491 -0.2258 -0.2695
  184MOL0     C25283  10.361   6.006   2.303  0.1567 -0.6419 -0.2584
  184MOL0     C25284  10.467   6.075   2.226  0.5352  0.5011  0.2173
  184MOL0     O25285  10.554   5.994   2.155  0.7488 -0.1632 -0.0934
  184MOL0     C25286  10.653   6.048   2.075  0.7643  0.2059 -0.4339
  184MOL0     C25287  10.637   6.166   1.997 -0.1154  1.0523  0.1028
  184MOL0     C25288  10.738   6.210   1.912  0.8104  0.2272 -1.2710
  184MOL0     C25289  10.855   6.127   1.895  0.4616  0.1071  0.0549
  184MOL0     O25290  10.959   6.168   1.818 -0.0682 -0.1564  0.4694
  184MOL0     C25291  10.945   6.113   1.689  0.6192  0.1175 -0.3060
  184MOL0     C25292  10.869   6.216   1.613  0.7235  0.2765 -0.4321
  184MOL0     C25293  10.921   6.362   1.617  1.0870 -0.6066 -0.3192
  184MOL0     C25294  10.818   6.448   1.538 -0.2109 -1.5659 -0.2915
  184MOL0     C25295  10.876   6.601   1.523  0.3634  0.5795  0.1127
  184MOL0     C25296  10.852   6.652   1.378  0.1722 -0.7693 -0.2626
  184MOL0     C25297  10.925   6.787   1.370 -0.7012 -0.4634 -0.1510
  184MOL0     C25298  10.846   6.894   1.286  0.3452 -0.1091 -0.5195
  184MOL0    Cl25299  10.695   6.923   1.383  0.3017  0.0634  0.1534
  184MOL0     C25300  10.850   6.004   1.959 -0.8668  0.0560 -0.4931
  184MOL0     C25301  10.762   5.969   2.057  0.6515 -0.4930  0.3425
  184MOL0     O25302  10.480   6.195   2.231 -0.2992 -0.5468  0.0376
  184MOL0     C25303  10.307   5.890   2.255  0.2529 -0.1260 -0.3896
  184MOL0     C25304  10.200   5.829   2.320 -0.1407  0.1004  0.4821
  184MOL0     N25305  10.053   5.403   2.930 -0.3540 -0.3961  0.2781
  184MOL0     N25306   9.995   5.292   2.945  1.0168  0.7698  0.3886
  184MOL0     C25307   9.671   4.427   3.361 -0.7991  0.5957  0.1937
  184MOL0     C25308   9.568   4.458   3.455  0.8002 -0.5180  0.1215
  184MOL0     C25309   9.414   4.534   3.869 -0.0308 -0.0426  0.5479
  184MOL0     C25310   9.389   4.670   3.883 -0.2333  0.1763 -0.0077
  184MOL0     C25311   9.307   4.723   3.985 -0.3753 -0.2591  0.0162
  184MOL0     C25312   9.248   4.637   4.072  0.2294 -0.0013  0.3886
  184MOL0     O25313   9.167   4.680   4.175 -0.3297  0.6228 -0.2130
  184MOL0     C25314   9.057   4.767   4.143  0.7228 -0.3348 -0.5384
  184MOL0     C25315   8.982   4.790   4.270 -0.6964  0.0382  0.3857
  184MOL0     C25316   8.836   4.844   4.266  0.1426  1.0102  1.1463
  184MOL0     C25317   8.795   4.898   4.402  0.3554 -0.3643 -0.3804
  184MOL0     C25318   8.666   4.951   4.393 -0.3086  0.3150  0.5303
  184MOL0     C25319   8.549   4.984   4.385 -0.5336 -0.7362  0.4391
  184MOL0     C25320   9.288   4.500   4.066 -1.3162 -0.1056  0.0895
  184MOL0     C25321   9.364   4.449   3.961 -0.6308 -0.9103 -1.4254
  184MOL0     C25322   9.354   4.292   3.953 -0.0548 -0.3507  0.3467
  184MOL0     H25323   9.754   4.667   3.656  1.2084  0.5096 -0.5340
  184MOL0     H25324   9.923   4.600   3.496 -1.1309  2.3623 -0.7141
  184MOL0     H25325   9.799   4.319   3.135 -1.7215 -0.3610 -1.0661
  184MOL0     H25326   9.960   4.391   3.095 -0.4167  0.8340 -0.4349
  184MOL0     H25327   9.771   4.503   2.976 -0.7320  0.4841  0.7050
  184MOL0     H25328   9.713   4.550   3.137  1.2853  0.2583  2.9987
  184MOL0     H25329   9.955   4.651   3.169  0.4290 -0.0288  0.0498
  184MOL0     H25330   9.981   4.597   3.004  3.6622  1.4039  3.3603
  184MOL0     H25331   9.939   4.839   2.979 -0.1706  1.2552  0.2095
  184MOL0     H25332   9.805   4.755   2.916  0.0062 -3.0385  0.7054
  184MOL0     H25333   9.813   4.888   3.194  0.1915 -1.7289  1.0501
  184MOL0     H25334   9.690   4.786   3.129 -1.6999  2.3940  1.3294
  184MOL0     H25335   9.645   4.951   2.934  0.9745  1.9964 -1.1523
  184MOL0     H25336   9.630   5.025   3.083  0.7887  0.7955  0.0275
  184MOL0     H25337   9.899   5.042   2.927  0.5598 -1.5498  1.1505
  184MOL0     H25338   9.866   5.111   3.088 -0.7943  1.6723 -0.9138
  184MOL0     H25339   9.741   5.216   2.822  0.5389 -0.8598 -0.5378
  184MOL0     H25340   9.677   5.252   2.982  0.5496  0.0094  1.3963
  184MOL0     H25341   9.749   5.507   2.891 -1.1413 -0.6435  0.9227
  184MOL0     H25342  10.112   5.675   2.881  0.5464 -0.1750 -0.2379
  184MOL0     H25343   9.955   5.717   2.957 -1.4088  1.0819 -1.4473
  184MOL0     H25344  10.023   5.638   2.667  0.1337 -2.3580  2.6360
  184MOL0     H25345   9.860   5.681   2.716  0.4897 -0.2196 -1.6486
  184MOL0     H25346   9.937   5.907   2.794  0.8496  1.3070 -0.0766
  184MOL0     H25347  10.101   5.876   2.715  0.0868  1.2108 -0.9641
  184MOL0     H25348   9.846   5.880   2.565 -0.1488  1.7570  0.9882
  184MOL0     H25349   9.972   6.003   2.569 -0.2036 -0.2339 -0.0596
  184MOL0     H25350  10.160   6.050   2.572  0.6477 -0.2919  0.4658
  184MOL0     H25351  10.310   6.260   2.425 -2.6788 -1.2013  0.3944
  184MOL0     H25352  10.470   6.188   2.481 -0.1553 -1.5001 -0.4199
  184MOL0     H25353  10.319   6.201   2.581  0.0896 -1.4086  0.1221
  184MOL0     H25354  10.538   6.211   1.998 -0.9883 -0.7766 -0.3904
  184MOL0     H25355  10.725   6.308   1.868  2.1245  1.2650  0.5117
  184MOL0     H25356  11.033   6.093   1.628  3.4524  3.8210  2.1156
  184MOL0     H25357  10.886   6.020   1.692 -1.4980  1.3719 -1.2456
  184MOL0     H25358  10.871   6.175   1.512  2.4000 -1.2181  0.1605
  184MOL0     H25359  10.767   6.215   1.654  1.3283 -0.7602  1.1572
  184MOL0     H25360  11.022   6.367   1.576  1.0582 -1.1584 -0.4670
  184MOL0     H25361  10.922   6.390   1.722 -0.1723  0.2200 -0.5031
  184MOL0     H25362  10.728   6.456   1.601  0.8905  0.5424  1.1692
  184MOL0     H25363  10.796   6.411   1.438 -1.2041 -2.6055  0.2868
  184MOL0     H25364  10.820   6.661   1.595 -0.3755 -1.3626  1.2190
  184MOL0     H25365  10.984   6.595   1.540  0.2770 -1.3957  0.1854
  184MOL0     H25366  10.743   6.660   1.364  0.2378 -1.6303 -1.4786
  184MOL0     H25367  10.898   6.580   1.310  0.5595 -1.1686  0.4101
  184MOL0     H25368  11.020   6.761   1.322  0.2015  1.1041  0.6918
  184MOL0     H25369  10.939   6.820   1.474 -1.7776 -1.9254  0.4918
  184MOL0     H25370  10.808   6.849   1.193 -0.8540 -1.3058  0.5010
  184MOL0     H25371  10.899   6.987   1.264  0.8968 -0.0491  0.9905
  184MOL0     H25372  10.924   5.930   1.931 -1.6039 -1.0855  0.4891
  184MOL0     H25373  10.768   5.876   2.112  0.4251  0.3135  1.7777
  184MOL0     H25374  10.348   5.841   2.167  0.4362  0.6082 -0.7217
  184MOL0     H25375  10.185   5.728   2.283  0.0604 -0.7895  2.7140
  184MOL0     H25376   9.640   4.350   3.291 -2.8924 -0.3302  2.0415
  184MOL0     H25377   9.466   4.421   3.443 -0.8221  3.4106  0.4585
  184MOL0     H25378   9.424   4.732   3.802 -1.2780  0.2336 -0.4278
  184MOL0     H25379   9.299   4.831   3.994  3.1550  0.0322  1.8453
  184MOL0     H25380   9.088   4.866   4.106 -1.9389  1.3128  1.2710
  184MOL0     H25381   8.996   4.732   4.059  1.4738  0.4762 -1.4569
  184MOL0     H25382   9.031   4.870   4.326 -0.8242 -0.5306  1.3435
  184MOL0     H25383   8.983   4.706   4.340  1.8744  1.0311  1.6865
  184MOL0     H25384   8.826   4.930   4.199  0.7134 -0.2966 -0.6486
  184MOL0     H25385   8.771   4.768   4.221  0.0687  2.0425 -0.5712
  184MOL0     H25386   8.871   4.972   4.428 -0.6311 -0.0084  1.6681
  184MOL0     H25387   8.797   4.817   4.476  3.0087 -0.2882 -0.2471
  184MOL0     H25388   8.448   5.015   4.367  0.0304  0.8183 -0.3002
  184MOL0     H25389   9.255   4.430   4.141  3.3148 -2.1558  0.4952
  184MOL0     H25390   9.279   4.258   4.024 -0.0770 -0.2239  0.3845
  184MOL0     H25391   9.320   4.272   3.851 -2.4493  0.7371  0.8515
  184MOL0     H25392   9.452   4.252   3.983 -1.2142 -3.2307  0.5982
  185MOL0     O25393  11.316   6.156   2.369  0.0203 -0.4042 -0.1902
  185MOL0     C25394  11.339   6.060   2.303  0.0181 -0.3959 -0.6069
  185MOL0     O25395  11.236   5.978   2.260 -0.6314  0.0666  0.1794
  185MOL0     C25396  11.125   5.978   2.340 -0.3282  0.0604  0.8936
  185MOL0     C25397  11.128   5.888   2.447  0.5939  0.3930  0.3353
  185MOL0     C25398  11.022   5.871   2.532  0.2760 -0.7181  0.5576
  185MOL0     C25399  10.906   5.946   2.519 -0.0661 -0.0895 -0.0615
  185MOL0     O25400  10.795   5.902   2.587 -0.0035  0.3259 -0.5128
  185MOL0     C25401  10.688   5.847   2.506 -1.5435  0.0601  0.6287
  185MOL0     C25402  10.582   5.829   2.611 -0.3751 -0.1110 -0.9332
  185MOL0     C25403  10.462   5.755   2.575 -0.4114  1.2632 -1.2929
  185MOL0     C25404  10.474   5.600   2.624  0.0303 -0.1023 -0.1291
  185MOL0     C25405  10.350   5.528   2.565  0.2823 -0.2185  0.1092
  185MOL0     C25406  10.337   5.391   2.631 -0.0413  0.3011  0.4210
  185MOL0     C25407  10.247   5.290   2.553 -0.5955 -0.6483 -0.3357
  185MOL0     C25408  10.308   5.250   2.423 -1.1065  0.1181 -0.2380
  185MOL0     N25409  10.411   5.149   2.456 -0.0716  0.0109 -0.3713
  185MOL0     C25410  10.378   5.023   2.511  0.5228 -0.9613  0.2742
  185MOL0     C25411  10.486   4.972   2.568 -0.3282 -0.3335 -0.4283
  185MOL0     C25412  10.497   4.836   2.635  0.2125 -0.6961 -0.0372
  185MOL0     C25413  10.603   4.743   2.575 -0.2578  0.2061 -0.4740
  185MOL0     C25414  10.589   4.607   2.630  0.3909  0.3449 -1.4285
  185MOL0     C25415  10.674   4.494   2.565  0.6909  0.4137 -0.0992
  185MOL0     O25416  10.648   4.489   2.425  0.3487 -0.0561  0.7429
  185MOL0     C25417  10.748   4.420   2.353 -0.3311 -0.5799  0.2306
  185MOL0     C25418  10.729   4.281   2.312  0.1523  0.1849  0.6650
  185MOL0     C25419  10.825   4.210   2.232  0.1961  0.0619  0.0145
  185MOL0     C25420  10.797   4.055   2.229  0.3874  0.3631  0.1306
  185MOL0     C25421  10.936   4.281   2.179 -0.6092 -0.1006  0.5031
  185MOL0     C25422  11.046   4.216   2.104  0.5439 -0.0263 -0.5745
  185MOL0     O25423  11.119   4.296   2.021 -0.2950  0.0434  0.2253
  185MOL0     C25424  11.214   4.240   1.942 -0.3013  0.1938 -0.2234
  185MOL0     C25425  11.192   4.227   1.807  0.0359  0.6330  1.0325
  185MOL0     C25426  11.287   4.179   1.721  0.4855 -0.1386  0.1479
  185MOL0     C25427  11.404   4.133   1.775 -0.2833  0.3708  0.6889
  185MOL0     O25428  11.494   4.069   1.692 -0.1942 -0.5914 -0.4972
  185MOL0     C25429  11.585   4.167   1.654 -0.9073  0.3411 -0.6182
  185MOL0     C25430  11.651   4.114   1.527  0.0310  1.1571  0.5843
  185MOL0     C25431  11.549   4.106   1.409 -0.2660  0.6376 -0.5090
  185MOL0     C25432  11.544   4.245   1.350  0.5716 -0.3856 -0.4013
  185MOL0     C25433  11.470   4.243   1.209 -0.1139 -0.8349  0.8951
  185MOL0     C25434  11.359   4.146   1.185  0.0827 -0.3344  0.2280
  185MOL0     C25435  11.291   4.179   1.048 -0.6296  0.3272  0.2474
  185MOL0     C25436  11.180   4.093   0.997 -0.6481 -0.3458 -0.2394
  185MOL0    Cl25437  11.137   4.127   0.823  0.1678  0.7723 -0.7077
  185MOL0     C25438  11.436   4.154   1.904 -0.5390  0.4878 -0.4378
  185MOL0     C25439  11.343   4.206   1.995 -1.2262  0.4868 -0.2919
  185MOL0     O25440  11.067   4.094   2.118  0.6685  0.6648  0.1093
  185MOL0     C25441  10.962   4.415   2.227 -0.0612 -0.7124  0.0796
  185MOL0     C25442  10.861   4.484   2.297 -0.4095  0.0226 -0.8328
  185MOL0     N25443  10.590   5.059   2.553 -0.4363 -0.1909  0.1123
  185MOL0     N25444  10.540   5.166   2.493 -0.1501 -0.0115 -0.5161
  185MOL0     C25445  10.899   6.030   2.409 -0.1734 -0.1003  0.0844
  185MOL0     C25446  11.005   6.055   2.316 -0.3528  0.6936  0.1154
  185MOL0     C25447  11.472   6.037   2.238 -0.1684  0.4031  0.2950
  185MOL0     C25448  11.529   6.142   2.178 -0.1674 -0.0530 -0.0740
  185MOL0     C25449  11.653   6.129   2.109  0.0837 -0.2126 -0.4313
  185MOL0     C25450  11.721   6.010   2.111 -1.1943  0.5575 -0.3594
  185MOL0     O25451  11.838   5.987   2.040  0.2194 -0.4119  0.0626
  185MOL0     C25452  11.911   6.096   1.971  0.9505  0.2494 -0.1659
  185MOL0     C25453  11.969   6.192   2.085  0.7119  0.2122 -0.0590
  185MOL0     C25454  12.086   6.120   2.151 -0.3329  0.5795  1.1349
  185MOL0     C25455  12.210   6.098   2.053 -0.5691 -0.5404  0.3115
  185MOL0     C25456  12.248   6.212   1.970 -0.1991  0.3858 -0.6043
  185MOL0     C25457  12.277   6.319   1.908  1.5253  0.6572 -0.9524
  185MOL0     C25458  11.660   5.897   2.162 -0.1088  0.5841  0.6760
  185MOL0     C25459  11.537   5.907   2.224  1.5812  0.7304  0.2141
  185MOL0     C25460  11.482   5.773   2.263  0.9330 -0.0715 -1.1247
  185MOL0     H25461  11.216   5.833   2.479 -0.4467  0.1293  2.9337
  185MOL0     H25462  11.027   5.800   2.614  1.6739 -0.2373  0.9154
  185MOL0     H25463  10.716   5.754   2.457 -2.5635  1.7701 -3.6384
  185MOL0     H25464  10.667   5.911   2.420  0.1336 -2.4823 -1.8002
  185MOL0     H25465  10.628   5.783   2.699  1.3486  2.4443 -0.3651
  185MOL0     H25466  10.548   5.932   2.629 -1.0766 -0.6208  0.8454
  185MOL0     H25467  10.372   5.795   2.622  0.8210  0.6776  1.7652
  185MOL0     H25468  10.456   5.763   2.466 -6.1321 -2.6538 -1.6819
  185MOL0     H25469  10.567   5.562   2.582  0.5959  2.2710 -1.2047
  185MOL0     H25470  10.475   5.590   2.733 -1.1321  3.1259  0.2852
  185MOL0     H25471  10.348   5.514   2.457 -0.3516 -1.0747  0.2228
  185MOL0     H25472  10.270   5.599   2.590 -1.1425 -1.6913 -0.0766
  185MOL0     H25473  10.436   5.349   2.652  0.1484  1.5137  2.1282
  185MOL0     H25474  10.293   5.402   2.731  1.3081  2.9778  0.8053
  185MOL0     H25475  10.155   5.344   2.531 -0.7858 -0.4628  0.8805
  185MOL0     H25476  10.211   5.204   2.609 -0.3069 -0.4207  0.2125
  185MOL0     H25477  10.228   5.197   2.369  0.8476 -1.1039 -2.0933
  185MOL0     H25478  10.349   5.327   2.357  0.0342  1.5816  2.0772
  185MOL0     H25479  10.282   4.973   2.504  0.1827 -0.1225 -1.5364
  185MOL0     H25480  10.400   4.787   2.624  1.2655 -2.7175 -1.0182
  185MOL0     H25481  10.519   4.857   2.740  2.5464  0.1413 -0.6357
  185MOL0     H25482  10.609   4.747   2.466  0.3785 -2.5126 -0.6250
  185MOL0     H25483  10.699   4.777   2.615  1.4386 -0.1380 -3.9033
  185MOL0     H25484  10.612   4.620   2.736  3.4408  0.6581 -2.0547
  185MOL0     H25485  10.487   4.568   2.628  0.7586 -0.6202 -2.7247
  185MOL0     H25486  10.781   4.500   2.584  1.0189  0.3114 -1.7257
  185MOL0     H25487  10.628   4.402   2.604  0.2892  0.6637  0.0264
  185MOL0     H25488  10.643   4.222   2.342 -0.4239  0.5969 -0.1516
  185MOL0     H25489  10.696   4.026   2.259 -0.3481  0.3733 -2.1412
  185MOL0     H25490  10.875   4.011   2.292  3.1219 -0.5928 -3.5719
  185MOL0     H25491  10.806   4.010   2.130  0.3868  0.5895  0.0264
  185MOL0     H25492  11.103   4.271   1.763 -0.3542  0.3778  1.5507
  185MOL0     H25493  11.266   4.167   1.615  0.8045 -2.8471  0.3289
  185MOL0     H25494  11.537   4.264   1.645 -2.1018 -0.1600  0.2002
  185MOL0     H25495  11.662   4.164   1.731 -1.4429  0.4839 -0.0736
  185MOL0     H25496  11.733   4.180   1.498  1.0810 -1.4198 -3.0896
  185MOL0     H25497  11.703   4.019   1.539 -0.5283  0.0673 -3.9197
  185MOL0     H25498  11.447   4.074   1.430  0.5039 -0.2967  2.3027
  185MOL0     H25499  11.603   4.038   1.343  1.1317 -1.0549  2.2154
  185MOL0     H25500  11.644   4.290   1.345 -1.3931  4.5045 -3.5383
  185MOL0     H25501  11.480   4.299   1.421 -1.3048 -0.5156 -1.9058
  185MOL0     H25502  11.433   4.345   1.197  0.5105 -0.8313 -1.3971
  185MOL0     H25503  11.551   4.236   1.136  2.4464  4.6114  2.5968
  185MOL0     H25504  11.282   4.168   1.260 -1.6347 -1.7601 -1.0386
  185MOL0     H25505  11.385   4.040   1.190  2.6114  0.2526  0.8535
  185MOL0     H25506  11.372   4.161   0.976 -1.0454 -1.7226  0.2411
  185MOL0     H25507  11.257   4.283   1.043  0.6301  0.7089 -2.7300
  185MOL0     H25508  11.097   4.110   1.066 -0.7312 -0.1522 -0.3848
  185MOL0     H25509  11.219   3.991   1.003 -1.8600 -0.7593  1.2450
  185MOL0     H25510  11.529   4.124   1.952 -1.8380  1.8485  3.2277
  185MOL0     H25511  11.357   4.226   2.101 -0.3808 -2.3259  0.1896
  185MOL0     H25512  11.052   4.474   2.215  0.8854 -1.3916  2.9926
  185MOL0     H25513  10.863   4.591   2.314  0.7466  0.0537 -1.0858
  185MOL0     H25514  10.812   6.091   2.391 -0.6257  0.0946  2.5107
  185MOL0     H25515  11.008   6.135   2.243 -0.0162  0.3232 -0.2842
  185MOL0     H25516  11.470   6.234   2.171  0.8932  0.6104 -0.4634
  185MOL0     H25517  11.693   6.213   2.054  2.4212 -1.8564 -1.4048
  185MOL0     H25518  11.987   6.047   1.910 -0.2221 -0.8541 -0.7864
  185MOL0     H25519  11.834   6.153   1.918 -0.0250  1.1746  2.1044
  185MOL0     H25520  11.890   6.211   2.159 -0.8588  2.2857 -2.1448
  185MOL0     H25521  11.998   6.291   2.049  3.1059  0.3919  2.0052
  185MOL0     H25522  12.126   6.196   2.218 -1.2091  0.1796  2.1374
  185MOL0     H25523  12.062   6.038   2.219 -3.1996  0.1825 -0.1826
  185MOL0     H25524  12.187   6.021   1.978 -4.3662  3.8935 -3.7119
  185MOL0     H25525  12.297   6.058   2.107 -0.1557  0.5276  0.4624
  185MOL0     H25526  12.279   6.418   1.868 -0.1081  1.6642  1.2614
  185MOL0     H25527  11.714   5.804   2.154  0.0206  0.6864  0.3559
  185MOL0     H25528  11.560   5.709   2.303 -0.0577  0.5273  2.0576
  185MOL0     H25529  11.421   5.785   2.353  1.5755 -2.5989 -0.2776
  185MOL0     H25530  11.429   5.730   2.178 -0.1814  1.2741 -1.1489
  186MOL0     O25531   9.894   6.889   7.272 -0.2955  0.5095 -0.4420
  186MOL0     C25532   9.831   6.860   7.374 -0.2056  0.2194 -0.6401
  186MOL0     O25533   9.854   6.752   7.455 -0.6720 -0.1088 -0.5762
  186MOL0     C25534   9.988   6.703   7.462 -0.6267  0.7017 -0.8242
  186MOL0     C25535  10.015   6.564   7.438 -0.5262  0.6679  0.4162
  186MOL0     C25536  10.153   6.510   7.425  0.5277  0.3229 -0.5666
  186MOL0     C25537  10.255   6.601   7.424  0.2119  0.0730  0.1964
  186MOL0     O25538  10.386   6.568   7.401  0.3151  0.9375  0.3068
  186MOL0     C25539  10.451   6.548   7.530 -0.3040  0.2926  0.8780
  186MOL0     C25540  10.578   6.472   7.523  0.3095 -0.2917  0.6107
  186MOL0     C25541  10.710   6.548   7.489  0.1991 -0.2521  0.1453
  186MOL0     C25542  10.706   6.642   7.363  0.4346  0.0609 -0.2171
  186MOL0     C25543  10.831   6.717   7.369 -0.4944  0.5361 -0.7222
  186MOL0     C25544  10.868   6.798   7.243  1.0829  0.8456 -0.4724
  186MOL0     C25545  10.966   6.912   7.270  0.3723 -0.2075 -0.5284
  186MOL0     C25546  11.107   6.891   7.326 -0.0126 -0.4605  0.1605
  186MOL0     N25547  11.103   6.874   7.468 -0.1546 -0.5274  0.5409
  186MOL0     C25548  11.192   6.790   7.528 -0.1176  0.0692  0.1133
  186MOL0     C25549  11.201   6.841   7.653 -0.2021 -1.5299  0.3832
  186MOL0     C25550  11.277   6.771   7.771  0.3977  0.1203  0.1340
  186MOL0     C25551  11.240   6.625   7.784 -0.1282 -0.1947 -1.0105
  186MOL0     C25552  11.242   6.573   7.929  1.5042  1.2731  1.5421
  186MOL0     C25553  11.226   6.415   7.936 -0.0832 -0.4758  0.3556
  186MOL0     O25554  11.126   6.351   7.858  0.4852  0.3915 -0.1695
  186MOL0     C25555  10.993   6.346   7.903  0.0190 -0.6406 -1.0883
  186MOL0     C25556  10.954   6.404   8.027  0.1697  0.1467 -0.2764
  186MOL0     C25557  10.819   6.401   8.060 -0.2533 -0.4151  0.2862
  186MOL0     C25558  10.798   6.450   8.196  0.0129  0.1998 -0.8432
  186MOL0     C25559  10.723   6.372   7.970 -0.8242 -0.3394 -0.9367
  186MOL0     C25560  10.589   6.387   8.005  0.0739  0.4138 -0.1913
  186MOL0     O25561  10.548   6.503   8.070 -0.9320  0.3540  0.1678
  186MOL0     C25562  10.420   6.510   8.116  0.5028 -0.4422  0.6674
  186MOL0     C25563  10.332   6.403   8.138 -0.3948  0.3507 -0.3608
  186MOL0     C25564  10.202   6.419   8.168  0.1572 -0.5795  0.1240
  186MOL0     C25565  10.148   6.538   8.194 -0.3141 -0.2316  0.1750
  186MOL0     O25566  10.020   6.537   8.237 -0.5886 -0.0999  0.4636
  186MOL0     C25567   9.963   6.663   8.271 -0.2516 -0.4769 -0.3168
  186MOL0     C25568   9.845   6.661   8.359 -0.8975 -0.1326  0.3790
  186MOL0     C25569   9.722   6.606   8.293 -0.0972 -0.1989 -0.2188
  186MOL0     C25570   9.637   6.524   8.395  1.3627  0.4409 -1.1463
  186MOL0     C25571   9.513   6.467   8.345 -1.2545  0.2874 -0.6181
  186MOL0     C25572   9.404   6.578   8.321  1.6017 -0.4473  0.2279
  186MOL0     C25573   9.280   6.520   8.255  0.7326 -0.4424  0.7235
  186MOL0     C25574   9.170   6.622   8.224  0.2905 -0.7060  0.2507
  186MOL0    Cl25575   9.088   6.654   8.379  0.4457 -0.1465  0.0122
  186MOL0     C25576  10.221   6.659   8.161 -0.2994  0.2526  1.0165
  186MOL0     C25577  10.358   6.637   8.124 -0.2686  0.0337 -0.1677
  186MOL0     O25578  10.514   6.314   7.943  0.3204 -0.8091 -0.0950
  186MOL0     C25579  10.762   6.315   7.848  0.7229 -0.3255  0.1145
  186MOL0     C25580  10.893   6.285   7.820  0.7713 -0.7599 -1.5207
  186MOL0     N25581  11.118   6.960   7.656  1.0550 -0.0079  0.0373
  186MOL0     N25582  11.055   6.971   7.550  0.4902  0.6353  0.2548
  186MOL0     C25583  10.222   6.736   7.452  0.8903  0.0209 -0.1247
  186MOL0     C25584  10.095   6.785   7.473  0.0400  0.4821  0.3015
  186MOL0     C25585   9.706   6.944   7.407 -0.1890  0.2280 -0.0303
  186MOL0     C25586   9.636   6.912   7.526 -0.0310  0.1542 -0.6185
  186MOL0     C25587   9.524   6.976   7.579  0.3828  0.1077  0.7220
  186MOL0     C25588   9.487   7.094   7.515 -1.2297  0.1994  0.5670
  186MOL0     O25589   9.382   7.178   7.554  0.0115  0.3011 -0.1784
  186MOL0     C25590   9.348   7.170   7.696  0.6635 -0.7013  0.1936
  186MOL0     C25591   9.313   7.318   7.736  0.5553 -0.1268  0.4680
  186MOL0     C25592   9.170   7.347   7.669  0.8335 -0.4204 -0.7391
  186MOL0     C25593   9.108   7.462   7.759 -0.3597  0.4380 -1.0098
  186MOL0     C25594   8.990   7.508   7.685 -0.0102 -0.3558  1.3102
  186MOL0     C25595   8.899   7.549   7.618  0.1675  0.3470 -0.4497
  186MOL0     C25596   9.548   7.130   7.393 -0.4104  0.6862 -0.1322
  186MOL0     C25597   9.658   7.053   7.333 -0.1320 -1.4835  0.0803
  186MOL0     C25598   9.711   7.102   7.206 -0.9721 -0.4137 -0.3020
  186MOL0     H25599   9.930   6.497   7.429 -1.2423  0.4639  5.5214
  186MOL0     H25600  10.174   6.405   7.404 -2.5878 -0.7074  0.9811
  186MOL0     H25601  10.391   6.504   7.610 -0.3356  0.6787  1.0709
  186MOL0     H25602  10.481   6.649   7.559  1.8361  1.4512 -4.1763
  186MOL0     H25603  10.584   6.418   7.617 -2.6995 -2.0399 -0.0727
  186MOL0     H25604  10.558   6.392   7.451 -0.2989  0.9781 -0.6945
  186MOL0     H25605  10.732   6.604   7.581 -1.9872  0.2705  0.4050
  186MOL0     H25606  10.778   6.465   7.465 -0.4366 -1.3334  1.8838
  186MOL0     H25607  10.697   6.594   7.266  0.2828  0.8755 -0.6110
  186MOL0     H25608  10.628   6.718   7.363  1.2739  1.0938 -3.7246
  186MOL0     H25609  10.913   6.647   7.386  1.7941  3.3288  0.4789
  186MOL0     H25610  10.813   6.781   7.455  1.7831  1.7173 -1.0798
  186MOL0     H25611  10.904   6.732   7.164 -0.3010 -0.4781 -0.0615
  186MOL0     H25612  10.779   6.847   7.201  0.5501 -0.3034 -0.7348
  186MOL0     H25613  10.913   6.983   7.335  0.9650  0.2845 -0.5683
  186MOL0     H25614  10.975   6.955   7.170  1.9338 -2.1521 -1.2839
  186MOL0     H25615  11.154   6.804   7.280 -0.0459 -0.4917  0.1843
  186MOL0     H25616  11.160   6.985   7.307  0.5434 -0.6584  0.7225
  186MOL0     H25617  11.245   6.703   7.492 -1.6338 -0.0971 -1.9098
  186MOL0     H25618  11.224   6.826   7.849 -1.6748  0.0527 -1.1737
  186MOL0     H25619  11.384   6.790   7.784  0.9868 -2.9938  0.6253
  186MOL0     H25620  11.135   6.602   7.765 -0.9489  1.1674  1.5626
  186MOL0     H25621  11.304   6.563   7.721  0.5875  0.2207 -0.7010
  186MOL0     H25622  11.324   6.612   7.990  2.3476  0.2424  1.1110
  186MOL0     H25623  11.156   6.619   7.979  0.7715  1.3447  0.2453
  186MOL0     H25624  11.323   6.386   7.893 -0.9145 -1.6277 -0.8413
  186MOL0     H25625  11.220   6.384   8.041 -2.9675  1.0393  0.7391
  186MOL0     H25626  11.025   6.430   8.105 -1.9782  3.5262  0.7702
  186MOL0     H25627  10.748   6.548   8.198 -2.5991 -1.0429 -1.4386
  186MOL0     H25628  10.882   6.452   8.266 -4.2957  0.8373  5.1186
  186MOL0     H25629  10.733   6.371   8.235 -0.3565 -1.1940 -3.9955
  186MOL0     H25630  10.357   6.297   8.136 -2.7668 -0.2922  0.6124
  186MOL0     H25631  10.137   6.336   8.191  0.1692 -1.2180 -1.8876
  186MOL0     H25632  10.036   6.720   8.329  1.4708 -0.8043 -2.0452
  186MOL0     H25633   9.948   6.717   8.178  0.3085 -1.1934 -0.8415
  186MOL0     H25634   9.870   6.606   8.450 -0.6372  0.3849  0.6277
  186MOL0     H25635   9.827   6.765   8.388  1.4556 -0.0567  1.8252
  186MOL0     H25636   9.747   6.534   8.215 -0.3685  2.3510 -2.8557
  186MOL0     H25637   9.670   6.689   8.243  0.7260  1.9855  2.3062
  186MOL0     H25638   9.607   6.588   8.479 -1.3639  0.7990 -2.2886
  186MOL0     H25639   9.705   6.449   8.436  0.7189  0.7681  0.6529
  186MOL0     H25640   9.541   6.415   8.253 -3.5363  0.7752 -1.6765
  186MOL0     H25641   9.467   6.401   8.420  1.2626  2.9599  3.6738
  186MOL0     H25642   9.445   6.660   8.262 -0.5023  2.8850  2.9731
  186MOL0     H25643   9.375   6.617   8.419  0.8436 -0.4179  0.0037
  186MOL0     H25644   9.222   6.442   8.304 -0.7417  0.3673  0.3466
  186MOL0     H25645   9.312   6.475   8.160  0.8896 -0.0129  0.5686
  186MOL0     H25646   9.089   6.582   8.163 -0.6296 -1.6767  2.0119
  186MOL0     H25647   9.216   6.705   8.170  1.0162 -1.9812 -1.1553
  186MOL0     H25648  10.168   6.753   8.165 -0.3379  0.5036 -2.5002
  186MOL0     H25649  10.417   6.726   8.106 -0.4335  0.5662  1.7241
  186MOL0     H25650  10.683   6.300   7.775  0.8641 -0.1294 -0.0813
  186MOL0     H25651  10.916   6.254   7.719  0.9454 -1.7009 -1.1967
  186MOL0     H25652  10.303   6.809   7.450 -0.0348  1.1930 -3.8647
  186MOL0     H25653  10.087   6.893   7.480  1.3783  0.7581 -1.5271
  186MOL0     H25654   9.662   6.830   7.591  1.8479  1.8831  0.9700
  186MOL0     H25655   9.483   6.946   7.675 -0.0765 -0.6990  0.2775
  186MOL0     H25656   9.263   7.104   7.721  0.3606  0.0857  1.3209
  186MOL0     H25657   9.436   7.157   7.759  0.9620  1.9360  0.4202
  186MOL0     H25658   9.392   7.377   7.688 -0.4990  0.6986 -0.2919
  186MOL0     H25659   9.299   7.320   7.844 -1.6030 -0.8973  0.2496
  186MOL0     H25660   9.182   7.381   7.566 -0.8171 -0.3259 -0.9134
  186MOL0     H25661   9.121   7.250   7.669  1.0210 -0.6048  1.8380
  186MOL0     H25662   9.183   7.539   7.777 -1.8563  1.4996  1.1596
  186MOL0     H25663   9.081   7.419   7.856  1.7295  1.7682  0.2362
  186MOL0     H25664   8.826   7.593   7.553 -0.4139 -2.2305 -1.6743
  186MOL0     H25665   9.513   7.212   7.331  1.2402  0.3160 -1.6381
  186MOL0     H25666   9.641   7.175   7.164  0.2710  2.2572  1.9319
  186MOL0     H25667   9.802   7.152   7.242 -2.6863  1.1019  2.2387
  186MOL0     H25668   9.726   7.030   7.125 -0.5178 -1.9053  1.0631
  187MOL0     O25669   5.577   2.961  11.304 -0.3911  0.3320  0.0481
  187MOL0     C25670   5.612   2.909  11.200  0.4038 -0.2158 -0.0390
  187MOL0     O25671   5.532   2.883  11.088  0.4486 -0.7446 -0.4323
  187MOL0     C25672   5.397   2.904  11.093 -0.1848 -0.9485  0.1725
  187MOL0     C25673   5.325   3.000  11.172 -0.3776  0.3463  0.3132
  187MOL0     C25674   5.186   2.998  11.184  1.0522 -0.0940 -0.4262
  187MOL0     C25675   5.118   2.916  11.103  0.8806  0.7166  0.3079
  187MOL0     O25676   4.980   2.909  11.089  0.5886 -0.9115 -0.2049
  187MOL0     C25677   4.901   2.922  11.209  0.4334 -0.2285  0.3056
  187MOL0     C25678   4.749   2.883  11.180 -0.3545  0.9205 -0.8119
  187MOL0     C25679   4.752   2.749  11.112  0.3478  0.5262  0.2173
  187MOL0     C25680   4.607   2.678  11.105 -0.5955  0.7703 -1.4455
  187MOL0     C25681   4.564   2.591  11.229  0.7840  0.5257 -0.2620
  187MOL0     C25682   4.425   2.511  11.212  0.1149 -0.3353 -0.0770
  187MOL0     C25683   4.305   2.604  11.243  0.2742  0.4948  0.2864
  187MOL0     C25684   4.171   2.539  11.191 -0.0664  0.4477  0.3631
  187MOL0     N25685   4.057   2.627  11.223 -0.7623  0.1957  0.4946
  187MOL0     C25686   3.962   2.597  11.317 -0.9226 -0.1210  0.0318
  187MOL0     C25687   3.891   2.718  11.338 -0.5739  0.6894 -0.1235
  187MOL0     C25688   3.764   2.737  11.420 -0.9430 -0.2538  0.1169
  187MOL0     C25689   3.658   2.640  11.372  0.4717 -0.8027  0.7535
  187MOL0     C25690   3.597   2.683  11.237 -0.2278 -0.2915  0.9170
  187MOL0     C25691   3.511   2.569  11.185  0.5339  0.2651  0.1923
  187MOL0     O25692   3.421   2.513  11.279  0.0434 -0.6128  0.5763
  187MOL0     C25693   3.292   2.553  11.283 -0.6589 -0.1430  1.4436
  187MOL0     C25694   3.236   2.663  11.209 -0.3137 -0.0726 -1.3387
  187MOL0     C25695   3.093   2.688  11.212  0.0075 -0.9958  0.7014
  187MOL0     C25696   3.054   2.808  11.131  0.6255 -0.1266  0.4348
  187MOL0     C25697   3.010   2.610  11.306 -0.2613 -0.2225  0.4138
  187MOL0     C25698   2.864   2.639  11.321  0.6490 -0.7066 -0.3090
  187MOL0     O25699   2.790   2.546  11.390 -0.1747 -0.2370 -0.4277
  187MOL0     C25700   2.665   2.574  11.393  0.7254  0.3582  0.8717
  187MOL0     C25701   2.589   2.528  11.284 -0.2798  1.4309 -0.7293
  187MOL0     C25702   2.455   2.557  11.281  0.5125 -0.6892 -0.8056
  187MOL0     C25703   2.383   2.641  11.367  0.3748  0.2466  0.3755
  187MOL0     O25704   2.249   2.652  11.339  0.8780  0.2797  0.2567
  187MOL0     C25705   2.179   2.721  11.455  0.0802  1.0095  0.5381
  187MOL0     C25706   2.026   2.689  11.440 -0.4852 -1.3143  0.2220
  187MOL0     C25707   1.934   2.754  11.549 -1.1293  0.6618  0.1247
  187MOL0     C25708   1.793   2.700  11.538 -0.1371 -0.5958  0.2450
  187MOL0     C25709   1.685   2.772  11.624  0.4849  0.2717  0.4067
  187MOL0     C25710   1.553   2.700  11.613  0.0864 -0.5020 -0.3091
  187MOL0     C25711   1.451   2.731  11.732 -0.4771  0.5601  0.3107
  187MOL0     C25712   1.358   2.605  11.729  0.0713  0.4077  0.0052
  187MOL0    Cl25713   1.261   2.614  11.588 -0.4197 -0.5230 -0.9170
  187MOL0     C25714   2.464   2.694  11.467  0.1022  0.5208 -0.3129
  187MOL0     C25715   2.602   2.662  11.483  0.3194 -0.5713 -0.5550
  187MOL0     O25716   2.824   2.754  11.278  0.3887  0.5994 -0.3524
  187MOL0     C25717   3.082   2.526  11.395  0.5030  0.4475 -0.0766
  187MOL0     C25718   3.215   2.486  11.371  0.8754 -1.2011  0.0516
  187MOL0     N25719   3.944   2.811  11.251 -0.6565 -0.1443  0.3655
  187MOL0     N25720   4.049   2.760  11.186  0.5903 -0.2530  0.3319
  187MOL0     C25721   5.185   2.823  11.016 -0.6445 -0.0820  0.5595
  187MOL0     C25722   5.319   2.810  11.007 -0.4727  0.2254  0.5095
  187MOL0     C25723   5.753   2.870  11.189  0.3314  0.1662  0.2916
  187MOL0     C25724   5.824   2.923  11.086  0.1011 -0.3209 -0.0967
  187MOL0     C25725   5.966   2.919  11.072 -0.3010 -0.2248 -0.3757
  187MOL0     C25726   6.045   2.851  11.173  0.2364  0.7714 -0.6192
  187MOL0     O25727   6.177   2.833  11.174  0.1898 -0.0032 -0.0380
  187MOL0     C25728   6.260   2.892  11.070 -0.5054 -0.1116  0.6131
  187MOL0     C25729   6.408   2.871  11.104  0.0424  0.2935  0.2987
  187MOL0     C25730   6.453   2.984  11.191 -0.9508  0.6494 -0.6193
  187MOL0     C25731   6.605   2.966  11.230 -0.5007 -0.1550  0.0214
  187MOL0     C25732   6.657   3.081  11.302  0.1872  0.9691 -0.6055
  187MOL0     C25733   6.696   3.170  11.372 -0.3437 -0.1823  0.2898
  187MOL0     C25734   5.966   2.795  11.275  0.2540  1.1867  0.3681
  187MOL0     C25735   5.826   2.797  11.288 -0.8921  0.1609  1.1979
  187MOL0     C25736   5.761   2.740  11.405  0.3829  0.3391 -0.2579
  187MOL0     H25737   5.371   3.069  11.241  1.8781 -0.6244 -0.1334
  187MOL0     H25738   5.141   3.066  11.256  2.5266 -0.6968  1.1420
  187MOL0     H25739   4.901   3.025  11.246 -0.5932  0.4435 -1.4317
  187MOL0     H25740   4.945   2.870  11.294 -1.0422  0.7448  1.7172
  187MOL0     H25741   4.680   2.900  11.263  0.6641 -0.7725  0.4390
  187MOL0     H25742   4.722   2.946  11.094  0.0942 -0.0559 -1.6930
  187MOL0     H25743   4.784   2.774  11.010 -3.7528  3.1631 -0.6631
  187MOL0     H25744   4.829   2.682  11.150 -0.0935  0.1465  0.4546
  187MOL0     H25745   4.540   2.765  11.097  0.5211  2.2801  2.9371
  187MOL0     H25746   4.607   2.611  11.019  3.5724 -1.4449  0.0097
  187MOL0     H25747   4.562   2.644  11.325 -0.7956 -2.3293  1.4398
  187MOL0     H25748   4.645   2.518  11.231 -1.2583 -1.8758 -0.0017
  187MOL0     H25749   4.421   2.452  11.121  1.7340 -1.1005  0.3180
  187MOL0     H25750   4.414   2.433  11.288  0.0390  0.2242  0.5083
  187MOL0     H25751   4.317   2.703  11.199 -0.9454  0.7897  0.5772
  187MOL0     H25752   4.300   2.626  11.351  2.8405  2.3601  0.1021
  187MOL0     H25753   4.174   2.538  11.081  2.7455  1.1950  0.3499
  187MOL0     H25754   4.157   2.437  11.228  0.6017  0.5549  0.9139
  187MOL0     H25755   3.953   2.509  11.380  0.9782 -0.3762 -0.0116
  187MOL0     H25756   3.728   2.839  11.409  1.7245  0.8430  0.8133
  187MOL0     H25757   3.793   2.723  11.524  0.1573  0.6383 -0.0536
  187MOL0     H25758   3.704   2.541  11.362  0.8380 -0.6099  0.5134
  187MOL0     H25759   3.584   2.638  11.453  0.1899 -2.7480  0.4943
  187MOL0     H25760   3.534   2.772  11.253  1.5470  1.3254 -0.6258
  187MOL0     H25761   3.672   2.713  11.163 -0.8735 -3.4285 -1.2312
  187MOL0     H25762   3.449   2.610  11.105 -2.2977  0.7236  2.4553
  187MOL0     H25763   3.584   2.496  11.151  2.3667  2.1089 -0.0751
  187MOL0     H25764   3.297   2.739  11.162 -1.9171  1.5744 -0.8765
  187MOL0     H25765   3.051   2.901  11.189  6.2379  1.2345 -0.8206
  187MOL0     H25766   2.958   2.796  11.081  0.1749 -1.9579  1.6515
  187MOL0     H25767   3.126   2.807  11.048  0.0095  0.2558 -0.1210
  187MOL0     H25768   2.645   2.461  11.219  2.7279  1.7471  1.3268
  187MOL0     H25769   2.389   2.529  11.199  0.5260 -1.2080 -0.6427
  187MOL0     H25770   2.216   2.681  11.550  0.0829 -0.9072 -0.2088
  187MOL0     H25771   2.203   2.827  11.454  1.2026  0.7784  1.0345
  187MOL0     H25772   1.995   2.735  11.346  1.8430  0.3935  0.1995
  187MOL0     H25773   2.010   2.581  11.429 -2.1134 -1.1744  1.0081
  187MOL0     H25774   1.928   2.863  11.550 -3.1174  0.6374 -1.8987
  187MOL0     H25775   1.984   2.724  11.642  0.1767  2.6554  0.1229
  187MOL0     H25776   1.802   2.596  11.571  2.3444 -0.5810 -0.1695
  187MOL0     H25777   1.756   2.708  11.436  0.5105  1.1550  0.1217
  187MOL0     H25778   1.701   2.764  11.732 -2.9569  0.1801  1.0286
  187MOL0     H25779   1.668   2.877  11.598 -0.9902  0.0944  0.5546
  187MOL0     H25780   1.584   2.596  11.605  1.8543 -0.3598  2.8408
  187MOL0     H25781   1.508   2.753  11.529 -1.1677  3.6370  2.6558
  187MOL0     H25782   1.399   2.823  11.702 -0.0445 -0.0215 -2.5642
  187MOL0     H25783   1.493   2.752  11.830  2.4274  1.7980 -1.0862
  187MOL0     H25784   1.281   2.614  11.805 -2.2416 -1.7823 -1.9084
  187MOL0     H25785   1.402   2.506  11.738 -0.2946  0.1048 -1.3310
  187MOL0     H25786   2.422   2.761  11.541  0.7246 -1.3164  1.7936
  187MOL0     H25787   2.661   2.700  11.566  0.5073 -2.8716  0.4458
  187MOL0     H25788   3.018   2.468  11.459  0.5001  0.1244 -0.3698
  187MOL0     H25789   3.265   2.403  11.420  2.7515  0.6428  1.4327
  187MOL0     H25790   5.127   2.755  10.954 -0.6191  0.7160 -0.3762
  187MOL0     H25791   5.368   2.739  10.941 -1.0201 -2.1277  2.4911
  187MOL0     H25792   5.766   2.988  11.020 -1.7027 -0.7529  1.0044
  187MOL0     H25793   6.017   2.969  10.990  3.1504 -1.4870  0.8217
  187MOL0     H25794   6.243   2.842  10.975 -0.1997  2.3207 -0.8011
  187MOL0     H25795   6.229   2.993  11.040  3.3014  2.2219  3.4682
  187MOL0     H25796   6.457   2.868  11.006  0.6302 -0.5843  0.6012
  187MOL0     H25797   6.421   2.773  11.152 -2.4683 -0.5448 -0.5299
  187MOL0     H25798   6.453   3.076  11.133  1.2451  0.4892 -0.9449
  187MOL0     H25799   6.396   2.997  11.284  1.2714  2.5043  0.5758
  187MOL0     H25800   6.658   2.961  11.135  0.8781 -0.2375  0.7677
  187MOL0     H25801   6.624   2.880  11.294 -0.8084  0.4655  0.9823
  187MOL0     H25802   6.719   3.233  11.456 -1.7358 -1.9127  2.0329
  187MOL0     H25803   6.023   2.736  11.347 -0.4116 -1.4849 -1.1341
  187MOL0     H25804   5.675   2.684  11.367  1.2153 -0.4497 -1.0278
  187MOL0     H25805   5.826   2.672  11.461 -0.6875  0.9176  1.7797
  187MOL0     H25806   5.726   2.816  11.475 -1.7354 -0.7498 -0.0595
  188MOL0     O25807   8.277   2.596   0.712 -0.2367 -1.1175  0.2747
  188MOL0     C25808   8.389   2.646   0.696  0.2522 -0.0802  0.1378
  188MOL0     O25809   8.503   2.600   0.757 -0.0623 -0.7578 -0.4862
  188MOL0     C25810   8.479   2.501   0.848 -0.2650  0.3304 -0.3213
  188MOL0     C25811   8.502   2.369   0.808 -0.1040  0.6772  1.2090
  188MOL0     C25812   8.474   2.257   0.887  0.3381 -0.9698 -0.1197
  188MOL0     C25813   8.423   2.281   1.023 -0.0745 -0.6151  0.3943
  188MOL0     O25814   8.396   2.181   1.106 -0.2214  0.1103 -0.2234
  188MOL0     C25815   8.317   2.076   1.053 -0.0138  0.6802 -0.1921
  188MOL0     C25816   8.260   1.978   1.152  0.0004  0.8415 -0.5090
  188MOL0     C25817   8.347   1.938   1.264  0.2937 -0.0330 -0.5057
  188MOL0     C25818   8.478   1.866   1.235 -1.2898  0.2080 -0.7008
  188MOL0     C25819   8.552   1.824   1.364 -0.9168  0.6948 -0.1894
  188MOL0     C25820   8.702   1.790   1.345 -0.1771 -0.4849  0.0703
  188MOL0     C25821   8.776   1.750   1.469  0.4411 -0.1071 -0.0490
  188MOL0     C25822   8.792   1.598   1.490  0.0225  0.6503  0.2779
  188MOL0     N25823   8.858   1.591   1.616  0.1966 -0.4285  0.4689
  188MOL0     C25824   8.806   1.604   1.744 -0.3331 -0.5863 -0.0973
  188MOL0     C25825   8.911   1.592   1.835 -0.1378 -0.4747 -0.6379
  188MOL0     C25826   8.902   1.612   1.988 -0.2295 -0.2898 -0.5468
  188MOL0     C25827   8.905   1.754   2.051 -0.5340  0.0278 -0.1960
  188MOL0     C25828   8.810   1.855   1.990  0.7804  0.2020  0.6962
  188MOL0     C25829   8.835   1.999   2.028  0.3593  0.1488 -1.3075
  188MOL0     O25830   8.796   2.019   2.173  0.3254 -0.2653  0.4028
  188MOL0     C25831   8.662   2.056   2.189  0.4477 -0.3978  0.3010
  188MOL0     C25832   8.628   2.188   2.175  0.3950 -0.5074  0.7906
  188MOL0     C25833   8.502   2.237   2.192 -0.3874  1.5011  0.1390
  188MOL0     C25834   8.479   2.369   2.157  1.1721 -0.8482  0.4901
  188MOL0     C25835   8.419   2.153   2.267 -0.2057 -0.1249  0.1371
  188MOL0     C25836   8.278   2.196   2.312  0.0084  0.1743 -0.0517
  188MOL0     O25837   8.256   2.330   2.319 -0.2215 -0.3079 -0.7887
  188MOL0     C25838   8.122   2.357   2.321 -0.2161 -0.5263  0.4960
  188MOL0     C25839   8.044   2.363   2.436  0.5113 -0.2415 -0.9755
  188MOL0     C25840   7.907   2.379   2.436  1.0010 -0.7366 -0.2196
  188MOL0     C25841   7.834   2.398   2.323  0.0616  0.1743 -0.3910
  188MOL0     O25842   7.698   2.404   2.339 -0.1028 -0.0737 -0.1264
  188MOL0     C25843   7.630   2.378   2.219  0.3194 -1.1973 -0.8147
  188MOL0     C25844   7.472   2.388   2.245 -0.9352  0.9086 -0.0508
  188MOL0     C25845   7.391   2.329   2.122 -0.5871  0.4353 -0.4709
  188MOL0     C25846   7.248   2.404   2.139  0.4961 -0.3939 -0.6985
  188MOL0     C25847   7.149   2.372   2.024  0.3445 -0.9300 -0.0261
  188MOL0     C25848   7.075   2.237   2.058 -0.2344 -0.8262  0.3830
  188MOL0     C25849   7.043   2.159   1.929  0.7280 -0.3488 -0.2660
  188MOL0     C25850   6.940   2.045   1.957  0.3426  0.2567 -0.4611
  188MOL0    Cl25851   6.910   1.951   1.806  0.2254  0.2731  0.3346
  188MOL0     C25852   7.907   2.406   2.199 -0.6913  0.4064 -0.1543
  188MOL0     C25853   8.052   2.396   2.203  0.0267 -0.3488  0.9923
  188MOL0     O25854   8.199   2.112   2.352  0.2156  0.1194 -0.2830
  188MOL0     C25855   8.449   2.014   2.280 -0.7685  0.9257  0.4927
  188MOL0     C25856   8.568   1.964   2.230 -0.5176 -0.3404  0.4431
  188MOL0     N25857   9.023   1.557   1.749 -0.1450 -0.0639 -0.4000
  188MOL0     N25858   8.983   1.565   1.623 -0.8553  1.5395 -0.1442
  188MOL0     C25859   8.422   2.416   1.073 -0.6326  0.3234 -0.1186
  188MOL0     C25860   8.436   2.521   0.984 -0.8244 -0.0096  0.0560
  188MOL0     C25861   8.396   2.757   0.598  0.2041  0.4255  0.8768
  188MOL0     C25862   8.279   2.795   0.534  1.0875  0.7395  0.4053
  188MOL0     C25863   8.266   2.894   0.433 -1.0642  0.4727 -0.0039
  188MOL0     C25864   8.381   2.953   0.387 -0.6481 -0.1650 -0.5361
  188MOL0     O25865   8.371   3.031   0.273  0.0457  0.1243 -0.5106
  188MOL0     C25866   8.475   3.124   0.237 -0.0202  0.5330  0.4260
  188MOL0     C25867   8.408   3.226   0.145  0.1093  1.4821  0.3258
  188MOL0     C25868   8.343   3.171   0.022 -0.0103 -0.5234 -0.7061
  188MOL0     C25869   8.460   3.112  -0.067 -0.6731  0.3711 -0.5364
  188MOL0     C25870   8.402   3.076  -0.200 -0.5896  0.2717 -0.3252
  188MOL0     C25871   8.355   3.034  -0.301 -0.3277  0.2549  0.8097
  188MOL0     C25872   8.494   2.926   0.469 -0.0156  0.1866  0.6452
  188MOL0     C25873   8.511   2.834   0.560 -0.5472  0.6982  0.0232
  188MOL0     C25874   8.648   2.821   0.621  0.4211 -0.3656 -0.0612
  188MOL0     H25875   8.523   2.350   0.703 -0.4223 -0.3197  1.3115
  188MOL0     H25876   8.498   2.162   0.840  0.4239 -0.7320 -0.5632
  188MOL0     H25877   8.390   2.015   1.000 -0.6039 -1.6576  1.5329
  188MOL0     H25878   8.241   2.114   0.984 -1.8812 -0.6267  1.0452
  188MOL0     H25879   8.159   2.010   1.181 -1.2137 -2.2086 -0.9099
  188MOL0     H25880   8.233   1.892   1.089 -1.7171  2.4716 -2.1371
  188MOL0     H25881   8.367   2.020   1.333  0.4801  0.6969 -1.3995
  188MOL0     H25882   8.275   1.867   1.306 -1.8459  1.8721 -0.7320
  188MOL0     H25883   8.469   1.790   1.157 -0.1211  1.3155 -1.9784
  188MOL0     H25884   8.533   1.950   1.192 -1.9635 -0.1785 -2.3779
  188MOL0     H25885   8.494   1.740   1.402 -1.0403  0.2039 -1.4029
  188MOL0     H25886   8.544   1.912   1.428  1.4739  1.7532 -1.2244
  188MOL0     H25887   8.715   1.719   1.263 -3.3582  0.4479 -1.3738
  188MOL0     H25888   8.746   1.883   1.305 -0.4023 -0.2587  0.3489
  188MOL0     H25889   8.727   1.797   1.554  2.3818  0.0681  1.0281
  188MOL0     H25890   8.875   1.796   1.455 -0.2927  2.8044  3.0159
  188MOL0     H25891   8.699   1.541   1.500  0.7387 -1.2459 -2.6352
  188MOL0     H25892   8.850   1.552   1.410  1.4224  2.0165  0.4687
  188MOL0     H25893   8.705   1.624   1.778  0.5656  1.3631  1.6731
  188MOL0     H25894   8.996   1.565   2.018  1.9427  2.6880 -2.1333
  188MOL0     H25895   8.815   1.559   2.028 -0.6343 -1.5230 -2.8791
  188MOL0     H25896   8.874   1.740   2.155 -1.5224  1.9971 -0.1749
  188MOL0     H25897   9.007   1.791   2.059 -0.2131 -0.8946  0.1093
  188MOL0     H25898   8.827   1.859   1.882  0.7971  1.5299  0.7319
  188MOL0     H25899   8.708   1.817   1.998  0.6728  0.3513  0.0286
  188MOL0     H25900   8.936   2.038   2.008  0.8546  0.6860  1.7348
  188MOL0     H25901   8.767   2.054   1.963  1.1091  1.3336 -1.1267
  188MOL0     H25902   8.713   2.252   2.155  1.2721 -1.4371  1.4783
  188MOL0     H25903   8.462   2.437   2.241 -2.0958  0.3834 -0.9809
  188MOL0     H25904   8.397   2.363   2.084  3.0981 -2.9014 -1.6324
  188MOL0     H25905   8.564   2.405   2.099 -1.4470 -1.5990 -4.3370
  188MOL0     H25906   8.101   2.343   2.526  0.8398  1.1800 -0.8461
  188MOL0     H25907   7.868   2.390   2.536 -0.3881 -0.7746 -0.7387
  188MOL0     H25908   7.651   2.452   2.142  0.7098  1.1173  1.4056
  188MOL0     H25909   7.651   2.272   2.198 -3.8719 -2.1222 -1.2454
  188MOL0     H25910   7.453   2.325   2.333  1.4937  0.6767  0.3699
  188MOL0     H25911   7.454   2.495   2.260  1.4459  1.0947  2.2176
  188MOL0     H25912   7.383   2.220   2.127  0.0656  0.2942 -1.8557
  188MOL0     H25913   7.437   2.359   2.027  0.5754  3.5180  0.9710
  188MOL0     H25914   7.268   2.511   2.129  1.8391 -0.6738 -1.1453
  188MOL0     H25915   7.198   2.386   2.235  0.2430 -1.1185 -0.9553
  188MOL0     H25916   7.082   2.457   2.012  1.1729 -0.2159  0.2810
  188MOL0     H25917   7.212   2.367   1.935 -0.8479  2.0658 -1.1768
  188MOL0     H25918   6.984   2.270   2.110 -1.0192 -2.1822 -0.0624
  188MOL0     H25919   7.138   2.180   2.127  1.6197  1.7457  0.9298
  188MOL0     H25920   7.135   2.107   1.897  2.1541  1.8252  0.0646
  188MOL0     H25921   7.003   2.208   1.840  0.5725 -2.0305 -1.1709
  188MOL0     H25922   6.856   2.104   1.995  1.2365 -0.8787  3.9177
  188MOL0     H25923   6.967   1.977   2.039 -0.4871  0.4121 -0.0541
  188MOL0     H25924   7.852   2.413   2.106  2.1119 -0.0828 -1.9411
  188MOL0     H25925   8.105   2.409   2.108  2.3996 -0.4835  2.2140
  188MOL0     H25926   8.385   1.951   2.341 -0.2615 -0.3967 -0.2899
  188MOL0     H25927   8.594   1.859   2.231  1.7392  0.1621  1.0940
  188MOL0     H25928   8.381   2.431   1.173 -0.9368  0.9760 -0.3352
  188MOL0     H25929   8.423   2.624   1.015 -1.6746 -0.3666  0.9473
  188MOL0     H25930   8.183   2.754   0.566  1.5996  0.8750  2.2258
  188MOL0     H25931   8.170   2.908   0.385 -2.2225 -1.3412  1.6206
  188MOL0     H25932   8.509   3.160   0.335 -2.1515  1.6439  0.8197
  188MOL0     H25933   8.564   3.092   0.182 -2.1164 -0.7489 -2.4084
  188MOL0     H25934   8.486   3.300   0.123  0.4938  1.0841  0.3259
  188MOL0     H25935   8.326   3.278   0.195  0.6416  1.3564  1.3602
  188MOL0     H25936   8.271   3.099   0.061  1.1762 -0.9164  0.8929
  188MOL0     H25937   8.296   3.258  -0.025 -0.1089  0.0473  0.4270
  188MOL0     H25938   8.501   3.021  -0.023 -0.1807 -1.2237 -4.0115
  188MOL0     H25939   8.549   3.175  -0.078  0.0183 -0.2761  1.0265
  188MOL0     H25940   8.315   3.012  -0.398  0.7812 -0.5372  0.5113
  188MOL0     H25941   8.577   2.994   0.452  0.8981 -1.3744 -1.7182
  188MOL0     H25942   8.686   2.720   0.603 -0.0893 -0.0103 -3.9521
  188MOL0     H25943   8.719   2.884   0.568 -0.7528  2.2657  1.3130
  188MOL0     H25944   8.653   2.848   0.727 -2.0039  0.3754 -0.0733
  189MOL0     O25945  10.624   0.917   0.034  0.1907  0.1294  0.4911
  189MOL0     C25946  10.546   0.841   0.089  0.0780 -0.1361  0.1059
  189MOL0     O25947  10.430   0.871   0.160  0.4873  0.2112  0.0764
  189MOL0     C25948  10.387   0.998   0.151 -0.5912 -0.2754 -0.7004
  189MOL0     C25949  10.403   1.079   0.265 -0.4419 -1.0582 -0.2995
  189MOL0     C25950  10.346   1.208   0.268 -0.3664 -0.5150 -0.4227
  189MOL0     C25951  10.289   1.261   0.147 -0.3297  0.4608  1.5844
  189MOL0     O25952  10.248   1.390   0.136 -0.2597 -0.3634  0.0147
  189MOL0     C25953  10.237   1.473   0.253 -0.1777  0.6148  0.6529
  189MOL0     C25954  10.166   1.605   0.228  0.6609  0.5062  0.5847
  189MOL0     C25955  10.035   1.582   0.156  0.1077  0.0342 -0.2098
  189MOL0     C25956   9.926   1.524   0.245 -1.2280 -0.4055  0.0745
  189MOL0     C25957   9.783   1.506   0.201 -0.2479 -1.1249 -0.2444
  189MOL0     C25958   9.758   1.482   0.050  0.1525 -0.3758 -0.4745
  189MOL0     C25959   9.762   1.341   0.007 -0.2397  0.5884 -1.4634
  189MOL0     C25960   9.900   1.286  -0.010 -0.4037 -0.1442  1.0667
  189MOL0     N25961   9.899   1.141  -0.015 -0.2656 -1.2972  0.1994
  189MOL0     C25962   9.970   1.067  -0.100 -0.3591  0.0695  0.1259
  189MOL0     C25963   9.914   0.952  -0.119  0.3187  0.1074 -0.5228
  189MOL0     C25964   9.938   0.851  -0.228  0.6556  0.0372  0.8694
  189MOL0     C25965   9.999   0.922  -0.358 -0.3119 -0.3148 -0.1549
  189MOL0     C25966   9.990   0.828  -0.476 -0.6230  0.4178  0.1823
  189MOL0     C25967   9.861   0.754  -0.500 -0.6633 -0.3164  1.2671
  189MOL0     O25968   9.760   0.843  -0.509  0.7391 -1.0042  0.1665
  189MOL0     C25969   9.635   0.810  -0.451  0.0639  0.5520  0.2741
  189MOL0     C25970   9.587   0.881  -0.345 -0.9915  0.4737 -0.1372
  189MOL0     C25971   9.485   0.834  -0.266  0.3307 -1.4688 -0.6468
  189MOL0     C25972   9.456   0.911  -0.140  0.2077  0.1756 -0.0613
  189MOL0     C25973   9.420   0.720  -0.298 -0.7086 -1.2866  0.3528
  189MOL0     C25974   9.300   0.666  -0.223  1.7339  0.6246 -0.4903
  189MOL0     O25975   9.213   0.765  -0.169 -0.2122 -0.2969  0.9557
  189MOL0     C25976   9.112   0.718  -0.087  0.2648 -0.3883 -0.5777
  189MOL0     C25977   9.126   0.671   0.043 -0.8335  1.1482  1.3025
  189MOL0     C25978   9.027   0.620   0.124 -0.1895 -0.1914 -0.5993
  189MOL0     C25979   8.904   0.629   0.078  0.3656  0.4373 -1.2385
  189MOL0     O25980   8.782   0.586   0.136 -0.2627 -0.0846  0.1575
  189MOL0     C25981   8.799   0.536   0.268 -0.3201  0.3860  0.3194
  189MOL0     C25982   8.667   0.493   0.332  1.2706 -0.7093  0.7129
  189MOL0     C25983   8.557   0.613   0.356  0.0821  0.1267 -0.4402
  189MOL0     C25984   8.433   0.558   0.426  0.5907  0.0582 -0.1152
  189MOL0     C25985   8.333   0.664   0.455 -0.5730 -0.6209 -0.4516
  189MOL0     C25986   8.197   0.603   0.498  0.0824 -0.5555  0.7734
  189MOL0     C25987   8.088   0.707   0.516  0.5418  0.3478 -0.8682
  189MOL0     C25988   7.958   0.654   0.588  0.0668  1.8153  0.5401
  189MOL0    Cl25989   8.004   0.577   0.739  0.0676 -0.3761 -0.0897
  189MOL0     C25990   8.883   0.678  -0.051  0.5777  1.1966 -0.4940
  189MOL0     C25991   8.986   0.719  -0.142  0.0950 -0.2950  0.4146
  189MOL0     O25992   9.284   0.544  -0.219 -0.0012  0.8349  0.1559
  189MOL0     C25993   9.470   0.638  -0.406  0.3813  0.3144  0.2116
  189MOL0     C25994   9.573   0.691  -0.481  0.3140  0.0267 -0.6143
  189MOL0     N25995   9.802   0.953  -0.026  0.2614 -0.5795  0.7222
  189MOL0     N25996   9.798   1.067   0.035  0.8322 -0.7294 -0.7951
  189MOL0     C25997  10.281   1.182   0.029 -0.8637  0.0702 -0.3133
  189MOL0     C25998  10.321   1.045   0.036 -1.2109 -0.0643 -0.0888
  189MOL0     C25999  10.572   0.692   0.061 -0.5305  1.0929 -0.9621
  189MOL0     C26000  10.463   0.601   0.083  0.6289 -0.1427 -0.4382
  189MOL0     C26001  10.480   0.460   0.054 -0.0187 -0.1607  0.3174
  189MOL0     C26002  10.601   0.417  -0.003 -0.0089  0.0190 -0.5394
  189MOL0     O26003  10.611   0.282  -0.027 -0.1790 -0.1165 -0.3740
  189MOL0     C26004  10.724   0.226  -0.098  0.4278 -0.6811  0.8182
  189MOL0     C26005  10.665   0.087  -0.120 -0.0539 -0.1950 -0.3733
  189MOL0     C26006  10.764   0.006  -0.190  0.9037  0.0179 -0.1445
  189MOL0     C26007  10.686  -0.126  -0.246  0.4882  0.0167  1.1174
  189MOL0     C26008  10.768  -0.181  -0.353  0.2690  0.3163  0.7601
  189MOL0     C26009  10.833  -0.197  -0.449 -0.1456 -0.3774 -0.2814
  189MOL0     C26010  10.700   0.509  -0.039  0.1125 -1.5554 -0.1863
  189MOL0     C26011  10.690   0.640  -0.001  0.4594  0.7390  0.4806
  189MOL0     C26012  10.815   0.722  -0.028 -0.0006  0.0616 -0.6845
  189MOL0     H26013  10.452   1.044   0.355  0.5649 -0.8242 -0.7452
  189MOL0     H26014  10.379   1.276   0.346  2.4080 -2.0979 -0.1119
  189MOL0     H26015  10.337   1.489   0.295 -0.2289  0.6909  0.7464
  189MOL0     H26016  10.181   1.413   0.325  1.0135 -0.8507  0.3896
  189MOL0     H26017  10.148   1.661   0.319 -4.6743  0.0518  0.1210
  189MOL0     H26018  10.238   1.667   0.173  1.5223 -0.5730  0.4399
  189MOL0     H26019  10.003   1.674   0.105  2.9348  0.1163 -2.0909
  189MOL0     H26020  10.043   1.519   0.067 -1.7174 -0.2339 -0.2214
  189MOL0     H26021   9.963   1.424   0.267 -2.0177 -0.4878  1.1463
  189MOL0     H26022   9.923   1.570   0.345 -0.9917 -2.4826  1.0863
  189MOL0     H26023   9.739   1.605   0.219  1.2130 -0.8443  2.3495
  189MOL0     H26024   9.720   1.437   0.257 -0.4280  0.5011  1.6800
  189MOL0     H26025   9.653   1.507   0.031  0.0478 -1.0911 -0.8784
  189MOL0     H26026   9.814   1.549  -0.015 -0.6063 -0.0163 -0.7755
  189MOL0     H26027   9.709   1.332  -0.089 -2.3356  1.1255 -0.4197
  189MOL0     H26028   9.696   1.279   0.068 -2.1056 -0.7947 -4.6217
  189MOL0     H26029   9.938   1.337  -0.099 -3.6136 -0.5769 -0.6805
  189MOL0     H26030   9.974   1.304   0.069  2.3454 -2.7214 -0.7073
  189MOL0     H26031  10.055   1.106  -0.154 -0.0631  0.5573  0.9284
  189MOL0     H26032   9.842   0.801  -0.243  1.4620 -0.6051 -3.1632
  189MOL0     H26033  10.009   0.772  -0.201  0.9645 -0.3620 -1.0029
  189MOL0     H26034   9.949   1.015  -0.385  4.3627  3.0868  1.4698
  189MOL0     H26035  10.105   0.942  -0.341 -0.5395 -0.3669  1.5322
  189MOL0     H26036   9.999   0.897  -0.560 -2.8201 -0.9465 -1.3057
  189MOL0     H26037  10.070   0.754  -0.478  0.4696  1.5751 -2.1432
  189MOL0     H26038   9.864   0.691  -0.590  0.2679  1.2535  0.1458
  189MOL0     H26039   9.855   0.681  -0.419 -0.3474  0.1885  1.7591
  189MOL0     H26040   9.634   0.978  -0.335 -5.0653  2.5910  0.5025
  189MOL0     H26041   9.550   0.963  -0.118  0.1216  0.7567 -1.0140
  189MOL0     H26042   9.440   0.837  -0.061 -0.0247 -0.9522 -1.1271
  189MOL0     H26043   9.374   0.981  -0.157  0.4326  0.4103 -0.1765
  189MOL0     H26044   9.227   0.662   0.081 -1.1197  4.0875  3.0718
  189MOL0     H26045   9.048   0.594   0.227 -1.2439 -0.6802 -0.4969
  189MOL0     H26046   8.868   0.451   0.267 -1.0604 -0.2515  1.3030
  189MOL0     H26047   8.849   0.609   0.332 -2.6875  0.0602  2.7482
  189MOL0     H26048   8.623   0.426   0.258  1.0029 -2.8120  2.6874
  189MOL0     H26049   8.686   0.442   0.427 -0.0076  2.1354  2.6510
  189MOL0     H26050   8.538   0.656   0.258  1.4896 -0.1966 -0.8775
  189MOL0     H26051   8.602   0.690   0.419  1.2163  0.8139 -2.0233
  189MOL0     H26052   8.464   0.512   0.521 -1.6613 -1.2382  0.0877
  189MOL0     H26053   8.384   0.481   0.365 -1.0682  0.0423  1.1595
  189MOL0     H26054   8.387   0.721   0.530  0.1726 -0.0418 -1.4101
  189MOL0     H26055   8.310   0.728   0.369 -2.2039 -0.2102  0.2524
  189MOL0     H26056   8.215   0.545   0.589  3.5030  1.1702  1.3294
  189MOL0     H26057   8.164   0.535   0.418 -1.1773  1.2584 -0.3287
  189MOL0     H26058   8.055   0.745   0.418 -0.5863  1.8471  0.0490
  189MOL0     H26059   8.119   0.794   0.575 -2.6607 -0.7856  2.9193
  189MOL0     H26060   7.894   0.587   0.530 -0.3190  2.4085  0.2685
  189MOL0     H26061   7.896   0.743   0.602 -2.8551 -0.1483  0.9239
  189MOL0     H26062   8.783   0.687  -0.092 -1.1780 -2.2872  2.3911
  189MOL0     H26063   8.962   0.746  -0.244  0.1008  0.9214  0.7184
  189MOL0     H26064   9.425   0.540  -0.419  0.0407  0.6535 -1.2933
  189MOL0     H26065   9.611   0.640  -0.569  2.2171  3.6092 -2.0887
  189MOL0     H26066  10.250   1.232  -0.062 -0.6893 -1.4616 -1.2480
  189MOL0     H26067  10.304   0.993  -0.058 -3.5230 -1.9396  1.2348
  189MOL0     H26068  10.368   0.636   0.121  0.7433 -2.0390  1.7956
  189MOL0     H26069  10.402   0.385   0.065 -0.4432  0.3296  0.6880
  189MOL0     H26070  10.742   0.261  -0.200  5.1942 -4.3285  0.0397
  189MOL0     H26071  10.817   0.232  -0.040  0.9980 -1.8038  0.0790
  189MOL0     H26072  10.573   0.099  -0.178 -0.6605 -0.5247  0.4869
  189MOL0     H26073  10.638   0.051  -0.020 -0.0224  1.1401  0.1262
  189MOL0     H26074  10.800   0.056  -0.280 -3.4185 -1.1402 -2.8597
  189MOL0     H26075  10.843  -0.034  -0.126  1.1806  0.3952 -0.2472
  189MOL0     H26076  10.591  -0.090  -0.285  0.1848 -2.6258 -0.9504
  189MOL0     H26077  10.663  -0.205  -0.174  0.6068  1.0746  2.3482
  189MOL0     H26078  10.863  -0.191  -0.552 -1.2631  0.2619 -0.5890
  189MOL0     H26079  10.794   0.478  -0.082  0.7286 -0.0710  0.0387
  189MOL0     H26080  10.843   0.763   0.070  2.7926 -0.9689 -0.9625
  189MOL0     H26081  10.899   0.668  -0.072  0.5378  1.0541 -0.9150
  189MOL0     H26082  10.792   0.800  -0.101  0.2676 -0.8527 -1.7665
  190MOL0     O26083   6.115   7.017   4.629  0.5144  0.5291  0.1280
  190MOL0     C26084   6.235   7.030   4.627  0.2461 -0.8055  0.4197
  190MOL0     O26085   6.302   7.112   4.708 -0.0814  0.1473 -0.5599
  190MOL0     C26086   6.252   7.172   4.823  0.3239 -0.3916 -0.8169
  190MOL0     C26087   6.339   7.157   4.928  0.9439  0.0701 -0.0633
  190MOL0     C26088   6.298   7.204   5.047  0.0397 -0.4771 -0.1229
  190MOL0     C26089   6.179   7.271   5.069  0.1049 -0.1898  0.0407
  190MOL0     O26090   6.152   7.324   5.194 -1.0113 -0.4406  0.1000
  190MOL0     C26091   6.053   7.428   5.205 -0.2242  0.0586 -0.0406
  190MOL0     C26092   5.916   7.363   5.234 -0.0419 -0.2621 -0.0173
  190MOL0     C26093   5.905   7.334   5.387 -0.2832 -0.3892  0.3306
  190MOL0     C26094   5.771   7.286   5.421  0.7415 -0.4388  0.5241
  190MOL0     C26095   5.768   7.201   5.554 -0.5094  0.4662 -0.1472
  190MOL0     C26096   5.624   7.194   5.612 -1.0132 -0.2155 -0.1626
  190MOL0     C26097   5.650   7.154   5.755  0.4119  0.8829  0.0760
  190MOL0     C26098   5.537   7.089   5.824  0.4570  0.0591 -0.5892
  190MOL0     N26099   5.438   7.191   5.873  0.5957 -0.6263 -0.0061
  190MOL0     C26100   5.475   7.258   5.986  0.5449  0.0841  0.2395
  190MOL0     C26101   5.362   7.303   6.045 -0.5765  0.5258  0.4566
  190MOL0     C26102   5.362   7.353   6.187 -1.0782 -0.2169  0.6292
  190MOL0     C26103   5.234   7.330   6.266  0.7583 -0.6419 -0.2538
  190MOL0     C26104   5.183   7.188   6.262 -0.6783 -0.2271  0.7555
  190MOL0     C26105   5.104   7.141   6.376 -0.0161  1.4762  0.4812
  190MOL0     O26106   5.146   7.160   6.509 -0.3804 -0.5494 -0.0719
  190MOL0     C26107   5.150   7.060   6.599  0.2802  1.4499 -0.8626
  190MOL0     C26108   5.269   7.043   6.677  0.5944 -0.6859  0.5422
  190MOL0     C26109   5.299   6.937   6.764 -0.0445 -1.3376 -0.1403
  190MOL0     C26110   5.436   6.936   6.829 -0.1260 -0.1586  0.6751
  190MOL0     C26111   5.194   6.851   6.789 -0.5020  0.6710 -0.6005
  190MOL0     C26112   5.203   6.742   6.890  0.8694 -0.2174  0.9186
  190MOL0     O26113   5.087   6.671   6.901 -0.6027  0.4008  0.4127
  190MOL0     C26114   5.066   6.567   6.984 -1.2846  0.2355 -0.1303
  190MOL0     C26115   5.098   6.438   6.945 -0.3526  0.4834 -0.2466
  190MOL0     C26116   5.089   6.329   7.032  0.7112 -0.0227  0.4262
  190MOL0     C26117   5.036   6.355   7.159  0.2657 -0.3520  0.5561
  190MOL0     O26118   5.000   6.257   7.243  0.0749  0.1887  0.2512
  190MOL0     C26119   5.056   6.278   7.375  0.2031  0.7230 -0.4373
  190MOL0     C26120   4.978   6.192   7.475  0.1776 -0.5112 -0.0456
  190MOL0     C26121   4.996   6.048   7.437  0.2777 -0.5699 -0.9954
  190MOL0     C26122   4.932   5.953   7.543  0.1595 -0.5028 -0.4420
  190MOL0     C26123   4.985   5.809   7.547 -0.0476 -0.0766 -0.4601
  190MOL0     C26124   5.137   5.788   7.558  0.2357 -0.2315  0.0186
  190MOL0     C26125   5.197   5.875   7.670  0.2566 -0.9403  0.4588
  190MOL0     C26126   5.346   5.883   7.685 -0.3135  0.5518  0.0723
  190MOL0    Cl26127   5.378   5.981   7.825  0.0499 -0.0671 -0.2987
  190MOL0     C26128   4.996   6.492   7.195  0.7554  0.4425  0.4085
  190MOL0     C26129   5.017   6.597   7.111  0.2421 -0.1913 -0.5566
  190MOL0     O26130   5.305   6.702   6.937  0.7203  0.1410  0.4412
  190MOL0     C26131   5.078   6.852   6.706  0.4786 -0.1396  1.0040
  190MOL0     C26132   5.055   6.950   6.614 -0.5739  0.2261  1.3117
  190MOL0     N26133   5.259   7.266   5.961  0.4276  0.4316 -0.1901
  190MOL0     N26134   5.302   7.199   5.870 -0.2624  0.1332 -0.1264
  190MOL0     C26135   6.093   7.287   4.956 -0.2413 -0.3264  0.0076
  190MOL0     C26136   6.127   7.236   4.838  0.3568 -0.1174  0.0491
  190MOL0     C26137   6.312   6.975   4.520  0.9558  0.1644  1.0457
  190MOL0     C26138   6.405   7.053   4.450  0.7006  0.3051  0.2247
  190MOL0     C26139   6.462   7.005   4.333  0.2972  0.6837  0.3308
  190MOL0     C26140   6.450   6.872   4.296  0.7495 -0.1599  0.7664
  190MOL0     O26141   6.489   6.845   4.165  0.5757  0.5068 -0.3743
  190MOL0     C26142   6.436   6.735   4.091  0.3517 -0.2341 -0.7084
  190MOL0     C26143   6.555   6.670   4.020 -0.5610 -0.2324  0.7183
  190MOL0     C26144   6.630   6.567   4.103 -0.3700 -0.1321  0.4338
  190MOL0     C26145   6.590   6.416   4.081 -0.0454  0.0903  0.8550
  190MOL0     C26146   6.458   6.373   4.114  0.2349 -0.1612 -1.0697
  190MOL0     C26147   6.341   6.362   4.159  0.1171 -0.5654  1.1563
  190MOL0     C26148   6.384   6.794   4.381 -0.2854 -0.5518  0.1790
  190MOL0     C26149   6.302   6.836   4.479 -0.3572  0.5383 -0.3708
  190MOL0     C26150   6.214   6.732   4.544 -0.5556 -0.1039 -0.7649
  190MOL0     H26151   6.434   7.108   4.913  0.6606 -0.7304  0.7077
  190MOL0     H26152   6.361   7.186   5.134 -2.5629 -1.6172  1.6549
  190MOL0     H26153   6.057   7.492   5.116  1.8130  0.4592  0.3084
  190MOL0     H26154   6.075   7.496   5.288  0.2391  2.2519 -1.8449
  190MOL0     H26155   5.840   7.436   5.204  0.9575  0.4658 -0.8417
  190MOL0     H26156   5.893   7.273   5.176  0.0800  0.0881 -0.6189
  190MOL0     H26157   5.960   7.243   5.410 -2.7268 -2.4376 -1.4069
  190MOL0     H26158   5.923   7.423   5.448  0.3221 -0.2644 -0.0226
  190MOL0     H26159   5.704   7.372   5.424 -1.2703 -1.8424 -1.1191
  190MOL0     H26160   5.741   7.216   5.342 -1.5342  2.4962 -1.4308
  190MOL0     H26161   5.832   7.255   5.624  1.5976 -1.5651 -0.3646
  190MOL0     H26162   5.807   7.099   5.553 -1.9439 -0.1518 -2.4923
  190MOL0     H26163   5.582   7.294   5.615 -1.1754 -0.2070  4.2141
  190MOL0     H26164   5.558   7.125   5.558 -1.5441 -0.0015  0.2027
  190MOL0     H26165   5.695   7.238   5.810  2.9204 -1.2367  1.4681
  190MOL0     H26166   5.724   7.076   5.771  1.9843  2.4125  0.6573
  190MOL0     H26167   5.480   7.016   5.766  1.1160  0.1895 -1.4104
  190MOL0     H26168   5.585   7.045   5.912  1.9430 -1.7901 -2.2450
  190MOL0     H26169   5.573   7.263   6.032  0.0423  0.0195  1.3569
  190MOL0     H26170   5.397   7.457   6.188  1.8240 -1.0784 -0.4853
  190MOL0     H26171   5.438   7.298   6.244 -0.9151 -1.7677 -0.9956
  190MOL0     H26172   5.251   7.354   6.372  1.4389  0.5205 -0.6101
  190MOL0     H26173   5.167   7.411   6.235 -0.2547  0.0036  3.0989
  190MOL0     H26174   5.120   7.171   6.174 -1.3114  0.5185  1.0493
  190MOL0     H26175   5.273   7.126   6.255 -0.0724  0.7969 -1.1517
  190MOL0     H26176   5.004   7.182   6.357  0.0098  1.1706 -0.3328
  190MOL0     H26177   5.085   7.034   6.362 -3.3964  2.0359  0.0097
  190MOL0     H26178   5.345   7.121   6.669  0.6316 -0.1333  4.4232
  190MOL0     H26179   5.490   7.008   6.768  2.1300 -3.4040 -1.5263
  190MOL0     H26180   5.491   6.842   6.815 -2.1914 -1.1216 -1.8320
  190MOL0     H26181   5.431   6.965   6.934  4.1318 -0.0030  1.0164
  190MOL0     H26182   5.119   6.423   6.840  0.0919  0.1358 -0.1110
  190MOL0     H26183   5.126   6.231   7.004  1.3036  1.0712 -3.0929
  190MOL0     H26184   5.158   6.238   7.366 -0.5582 -0.8636 -3.5880
  190MOL0     H26185   5.053   6.384   7.400 -1.8756  1.3181 -2.8200
  190MOL0     H26186   5.019   6.211   7.575 -1.6077 -0.9330  0.8109
  190MOL0     H26187   4.871   6.213   7.462 -0.1943 -2.2083  0.1444
  190MOL0     H26188   5.104   6.031   7.441  0.8920  2.7423 -0.8771
  190MOL0     H26189   4.957   6.029   7.337  0.1052  0.3892 -1.1148
  190MOL0     H26190   4.828   5.944   7.509  0.6565  0.8362 -2.4830
  190MOL0     H26191   4.935   6.005   7.639  1.3394  0.5695 -1.0201
  190MOL0     H26192   4.930   5.756   7.625  0.2788 -2.4448 -1.7471
  190MOL0     H26193   4.943   5.765   7.456  0.1958  2.0435 -1.6706
  190MOL0     H26194   5.187   5.811   7.464 -0.2364 -0.2186 -0.2314
  190MOL0     H26195   5.149   5.681   7.580  0.2606  0.2135  2.4438
  190MOL0     H26196   5.164   5.838   7.767 -1.2049 -1.3510 -0.1718
  190MOL0     H26197   5.158   5.976   7.655 -1.5462 -1.5970  0.4933
  190MOL0     H26198   5.400   5.932   7.604  0.3644 -2.3493 -1.3675
  190MOL0     H26199   5.388   5.784   7.703 -0.1802  0.6049  0.0542
  190MOL0     H26200   4.944   6.506   7.290 -3.2189  0.0754 -1.5236
  190MOL0     H26201   5.005   6.700   7.143  2.8267 -0.4758  1.7576
  190MOL0     H26202   5.004   6.776   6.725 -1.1685  1.2018  0.2141
  190MOL0     H26203   4.968   6.971   6.554  1.9432  1.5545 -2.2283
  190MOL0     H26204   6.000   7.342   4.949 -0.1613 -0.4124 -4.2896
  190MOL0     H26205   6.065   7.243   4.749 -2.5408 -1.1263  1.8433
  190MOL0     H26206   6.416   7.156   4.483 -2.6073  0.0449  2.6267
  190MOL0     H26207   6.517   7.081   4.277 -0.9786  1.8812  0.6281
  190MOL0     H26208   6.388   6.650   4.141 -2.1397  0.3329 -2.0020
  190MOL0     H26209   6.365   6.780   4.022 -2.0144  0.3217  1.9116
  190MOL0     H26210   6.619   6.752   3.988 -1.0168  0.1366  0.7340
  190MOL0     H26211   6.521   6.629   3.925 -2.4543  3.7683 -0.5470
  190MOL0     H26212   6.737   6.588   4.090 -0.6659  0.7072 -0.8571
  190MOL0     H26213   6.607   6.572   4.210 -0.0824  1.9160  0.4224
  190MOL0     H26214   6.648   6.344   4.138  1.4845 -0.8868 -1.7631
  190MOL0     H26215   6.608   6.376   3.981  0.9016 -1.5393  1.6399
  190MOL0     H26216   6.240   6.337   4.187 -1.3134  1.7874 -1.3175
  190MOL0     H26217   6.371   6.690   4.352  2.4704 -1.2395  1.0656
  190MOL0     H26218   6.154   6.674   4.473 -3.7863  2.0564  0.0036
  190MOL0     H26219   6.268   6.665   4.611  0.2414  0.6338 -0.6564
  190MOL0     H26220   6.148   6.787   4.612 -1.3969  1.5902 -2.8518
  191MOL0     O26221   3.731   8.013   1.390 -0.4024 -0.0210 -0.0730
  191MOL0     C26222   3.630   8.047   1.332  0.4732 -0.4376  0.4085
  191MOL0     O26223   3.575   8.165   1.340  0.6688  0.0068  0.1085
  191MOL0     C26224   3.645   8.279   1.368 -1.5250  0.5073  0.2496
  191MOL0     C26225   3.659   8.371   1.269  0.4238  0.7046 -0.8887
  191MOL0     C26226   3.749   8.474   1.299  0.5042  0.1358  0.6616
  191MOL0     C26227   3.806   8.492   1.426  0.7749 -0.9814  0.5683
  191MOL0     O26228   3.863   8.617   1.460  0.9372 -0.1746  1.0366
  191MOL0     C26229   3.810   8.676   1.574 -0.5206  0.4434 -0.2973
  191MOL0     C26230   3.858   8.818   1.597  0.5958 -0.1927 -0.5176
  191MOL0     C26231   3.791   8.900   1.494  0.4240  0.1955  0.8583
  191MOL0     C26232   3.822   9.048   1.508  0.0477 -0.0912  0.0639
  191MOL0     C26233   3.733   9.149   1.420  1.1476  0.5144 -0.3181
  191MOL0     C26234   3.737   9.132   1.270 -0.3070 -0.5764  0.3337
  191MOL0     C26235   3.879   9.118   1.205 -0.0779  0.2708 -0.9430
  191MOL0     C26236   3.870   9.119   1.052  1.5469 -0.8821  0.4048
  191MOL0     N26237   3.992   9.064   0.988 -0.2515  0.2421  0.6392
  191MOL0     C26238   3.984   8.941   0.923  0.7589 -0.3585 -0.5499
  191MOL0     C26239   4.107   8.914   0.876  0.0151  0.2963 -0.3498
  191MOL0     C26240   4.137   8.796   0.795  0.6660  0.4072  0.3621
  191MOL0     C26241   4.274   8.800   0.730 -0.1221 -0.3456  0.3677
  191MOL0     C26242   4.284   8.864   0.591  0.1953  0.0305 -0.5597
  191MOL0     C26243   4.420   8.839   0.537  0.2897 -1.1154 -0.3598
  191MOL0     O26244   4.449   8.902   0.405 -0.1877 -0.7150 -0.6022
  191MOL0     C26245   4.511   8.821   0.312 -0.2767  0.5260  0.0662
  191MOL0     C26246   4.650   8.814   0.287 -0.3368 -1.7296 -0.1062
  191MOL0     C26247   4.707   8.734   0.192  0.6368 -0.4331  0.7812
  191MOL0     C26248   4.851   8.753   0.153  0.4549 -0.4912 -0.2791
  191MOL0     C26249   4.613   8.639   0.119  0.0026  0.0526 -0.0847
  191MOL0     C26250   4.642   8.549   0.009  0.1006  0.1079 -0.0744
  191MOL0     O26251   4.568   8.423   0.016 -0.1204  0.1713 -0.5228
  191MOL0     C26252   4.576   8.338  -0.082 -0.9320  0.3963 -1.0819
  191MOL0     C26253   4.475   8.326  -0.170 -0.4718 -0.4394  0.0019
  191MOL0     C26254   4.479   8.229  -0.271 -0.2371 -0.5965  0.4834
  191MOL0     C26255   4.587   8.137  -0.281 -0.1035 -0.4161  0.3359
  191MOL0     O26256   4.592   8.018  -0.354 -0.0734 -0.4296  0.9667
  191MOL0     C26257   4.501   7.974  -0.441 -0.1656  0.1928 -0.4756
  191MOL0     C26258   4.564   7.933  -0.571 -0.2025 -0.8079  0.1677
  191MOL0     C26259   4.650   7.801  -0.567  0.2327  0.6535  0.0242
  191MOL0     C26260   4.771   7.820  -0.647  0.4324  0.2767  0.3521
  191MOL0     C26261   4.835   7.686  -0.691  0.7370  0.1616  1.0292
  191MOL0     C26262   4.753   7.610  -0.796 -0.3781  0.4581 -0.9061
  191MOL0     C26263   4.789   7.465  -0.776 -0.1610 -0.4185 -0.4317
  191MOL0     C26264   4.733   7.381  -0.890 -0.7375  0.5306 -0.4954
  191MOL0    Cl26265   4.826   7.219  -0.880 -0.3746 -0.2721  0.0096
  191MOL0     C26266   4.688   8.155  -0.183  0.4916  0.2024  0.4388
  191MOL0     C26267   4.684   8.254  -0.088  0.2242  0.5155 -0.8179
  191MOL0     O26268   4.744   8.571  -0.060  0.3581  0.2606  0.7932
  191MOL0     C26269   4.477   8.635   0.156 -0.3781  0.0644 -0.3222
  191MOL0     C26270   4.436   8.723   0.251 -0.1143 -0.1512 -0.0181
  191MOL0     N26271   4.184   9.018   0.923 -0.4656 -0.2147 -0.8857
  191MOL0     N26272   4.117   9.105   0.996 -0.3132  0.6377  0.5004
  191MOL0     C26273   3.783   8.395   1.523 -0.1066 -0.3355  0.3060
  191MOL0     C26274   3.696   8.287   1.497 -0.6083 -0.6273  0.4514
  191MOL0     C26275   3.554   7.948   1.240  0.1205  0.4080  1.1771
  191MOL0     C26276   3.490   7.996   1.128 -0.0172  0.4106  0.1733
  191MOL0     C26277   3.416   7.909   1.041 -0.3300 -1.1639 -0.8227
  191MOL0     C26278   3.424   7.771   1.064  0.3149  0.0900  0.4404
  191MOL0     O26279   3.381   7.685   0.960  1.1712  0.0410 -0.5173
  191MOL0     C26280   3.292   7.727   0.861 -0.1349 -0.2543 -0.0805
  191MOL0     C26281   3.224   7.607   0.800  0.6857 -0.4520  0.0765
  191MOL0     C26282   3.153   7.620   0.663  0.1632  0.5379  1.0659
  191MOL0     C26283   3.054   7.501   0.642 -0.6933  0.7473 -0.1487
  191MOL0     C26284   2.921   7.543   0.689  0.0205  0.8766 -0.9768
  191MOL0     C26285   2.815   7.553   0.747 -0.3793  0.2358  0.2454
  191MOL0     C26286   3.504   7.724   1.165  0.3622 -0.7405 -0.7546
  191MOL0     C26287   3.569   7.803   1.253 -0.4345 -0.2364 -0.5725
  191MOL0     C26288   3.675   7.741   1.343 -0.3689 -0.1335  0.4856
  191MOL0     H26289   3.581   8.384   1.194 -2.6282  3.8751  2.4158
  191MOL0     H26290   3.764   8.544   1.218  0.2648  0.1112  0.5971
  191MOL0     H26291   3.847   8.626   1.664  1.6450 -0.3166 -1.5373
  191MOL0     H26292   3.702   8.691   1.565 -0.1512  2.1529 -2.7105
  191MOL0     H26293   3.833   8.831   1.703  2.0171  1.1611 -0.3131
  191MOL0     H26294   3.967   8.834   1.595  0.5713 -0.1170 -2.0436
  191MOL0     H26295   3.808   8.866   1.392 -3.6877  1.9673 -0.6584
  191MOL0     H26296   3.683   8.890   1.510  0.3223  0.7139  0.5241
  191MOL0     H26297   3.806   9.080   1.611  0.5766 -2.4479  0.9496
  191MOL0     H26298   3.924   9.062   1.471 -1.2782  2.7435 -3.0975
  191MOL0     H26299   3.752   9.252   1.451  0.2139  0.6217 -0.0540
  191MOL0     H26300   3.626   9.133   1.436  1.4777 -0.4223  1.2690
  191MOL0     H26301   3.690   9.036   1.245  1.2334 -1.1162 -0.6719
  191MOL0     H26302   3.679   9.202   1.209  3.2332  1.5005 -0.9647
  191MOL0     H26303   3.935   9.027   1.228  2.6315  1.8675 -0.8294
  191MOL0     H26304   3.939   9.199   1.249  0.0144  0.5877 -1.6382
  191MOL0     H26305   3.786   9.063   1.009  2.3906 -0.9070 -1.2680
  191MOL0     H26306   3.849   9.222   1.022  0.2358 -0.8774  1.2561
  191MOL0     H26307   3.888   8.891   0.909  0.4312  0.2262 -0.4087
  191MOL0     H26308   4.061   8.788   0.717  1.2843 -0.4376 -0.1728
  191MOL0     H26309   4.133   8.704   0.854  4.2649 -0.6640 -0.7912
  191MOL0     H26310   4.358   8.831   0.793  1.5624  0.6338 -2.1589
  191MOL0     H26311   4.310   8.699   0.710  2.9007  0.5984  0.4713
  191MOL0     H26312   4.201   8.836   0.526 -0.3925 -0.0776  0.2241
  191MOL0     H26313   4.276   8.968   0.624  1.5593  0.8339 -2.5574
  191MOL0     H26314   4.504   8.884   0.592 -1.3069 -0.2451  1.4606
  191MOL0     H26315   4.445   8.732   0.533  1.0083 -1.1747  2.7774
  191MOL0     H26316   4.711   8.878   0.348  0.0287  0.0321 -2.2023
  191MOL0     H26317   4.891   8.655   0.125  3.0633  0.2301  0.5747
  191MOL0     H26318   4.909   8.807   0.228 -0.2212 -0.6549  0.3696
  191MOL0     H26319   4.865   8.821   0.068  1.5947 -1.1229 -0.6235
  191MOL0     H26320   4.388   8.390  -0.157 -0.4638  0.1093 -2.2252
  191MOL0     H26321   4.394   8.231  -0.340 -0.6335 -2.0664  0.8951
  191MOL0     H26322   4.459   7.877  -0.412 -0.5926  0.6996  0.6459
  191MOL0     H26323   4.433   8.054  -0.473 -1.0762 -1.9318 -4.6418
  191MOL0     H26324   4.490   7.919  -0.650  1.7678  2.8305 -2.6682
  191MOL0     H26325   4.623   8.016  -0.612 -2.5672 -0.0730 -2.0010
  191MOL0     H26326   4.586   7.721  -0.606  3.0025 -0.9079 -1.6311
  191MOL0     H26327   4.682   7.784  -0.464  3.0447 -0.5195 -0.9489
  191MOL0     H26328   4.843   7.864  -0.577 -0.6163  0.9751  1.0219
  191MOL0     H26329   4.764   7.887  -0.733 -2.6923 -1.7286 -1.1311
  191MOL0     H26330   4.930   7.716  -0.736 -0.0544  2.0989  0.5640
  191MOL0     H26331   4.839   7.621  -0.603  2.5980 -1.5820 -0.2438
  191MOL0     H26332   4.767   7.651  -0.896 -1.8692 -0.0125 -1.3410
  191MOL0     H26333   4.647   7.606  -0.768 -0.5771 -0.3997 -1.7431
  191MOL0     H26334   4.739   7.428  -0.686 -2.1752 -0.9160 -1.6890
  191MOL0     H26335   4.897   7.451  -0.765 -0.0092  1.2127  0.4359
  191MOL0     H26336   4.757   7.429  -0.986 -4.4222  0.0245 -1.8312
  191MOL0     H26337   4.624   7.368  -0.888 -0.5289 -1.3437  0.4217
  191MOL0     H26338   4.773   8.088  -0.192  1.4245  1.4594 -0.5297
  191MOL0     H26339   4.753   8.269  -0.005 -0.5440 -2.3713  0.4834
  191MOL0     H26340   4.400   8.567   0.120 -0.2307  0.2383 -0.9634
  191MOL0     H26341   4.332   8.702   0.270 -0.0640  0.2207  0.7433
  191MOL0     H26342   3.832   8.405   1.620 -0.7052  0.6618  0.5114
  191MOL0     H26343   3.681   8.211   1.572 -4.6994  1.0182  1.5386
  191MOL0     H26344   3.487   8.103   1.109 -0.5539  0.3018 -0.4108
  191MOL0     H26345   3.359   7.947   0.957  0.2888  0.1428 -0.6814
  191MOL0     H26346   3.222   7.801   0.900  1.8173  0.8426  1.5062
  191MOL0     H26347   3.362   7.776   0.792  1.0343  1.8044  2.4149
  191MOL0     H26348   3.148   7.564   0.867 -0.4960  0.0584 -0.8975
  191MOL0     H26349   3.305   7.533   0.791 -0.6489 -1.9606 -0.0587
  191MOL0     H26350   3.112   7.721   0.649  3.4947  2.3453  3.1507
  191MOL0     H26351   3.235   7.620   0.591 -0.7239  2.6227 -0.0445
  191MOL0     H26352   3.087   7.409   0.692 -1.6355  0.9344  0.8472
  191MOL0     H26353   3.070   7.470   0.538 -2.2722  1.7619 -0.7371
  191MOL0     H26354   2.724   7.563   0.804 -2.0982 -1.3570 -2.0766
  191MOL0     H26355   3.510   7.615   1.164  3.6742 -0.7200 -3.9584
  191MOL0     H26356   3.772   7.752   1.293  0.3966  0.5474  2.0573
  191MOL0     H26357   3.700   7.776   1.443  1.4293 -0.1080  0.0781
  191MOL0     H26358   3.642   7.637   1.344  3.1650 -1.4865 -1.7252
  192MOL0     O26359   0.977   6.168   2.653 -0.0610 -0.2827  0.1641
  192MOL0     C26360   0.897   6.077   2.646 -0.0970 -1.9576 -0.8281
  192MOL0     O26361   0.852   6.011   2.531  0.7054  0.0492  0.2635
  192MOL0     C26362   0.906   6.050   2.410  0.0174 -0.9213 -0.4357
  192MOL0     C26363   0.920   6.177   2.364 -0.4176 -0.5104 -0.6564
  192MOL0     C26364   0.971   6.198   2.236  0.6089  0.1864 -0.3062
  192MOL0     C26365   1.000   6.090   2.147 -0.7105  0.5148 -0.3290
  192MOL0     O26366   1.043   6.105   2.013 -0.4223 -0.0938 -0.1231
  192MOL0     C26367   1.068   6.228   1.966 -0.2616  0.1118 -0.1467
  192MOL0     C26368   1.132   6.219   1.824 -0.4837  0.0760 -0.7687
  192MOL0     C26369   1.074   6.324   1.729  0.8691  0.7545  0.9913
  192MOL0     C26370   1.160   6.323   1.597  0.6104 -0.4132 -0.6838
  192MOL0     C26371   1.106   6.406   1.483 -0.2945 -0.7404  0.5078
  192MOL0     C26372   1.111   6.548   1.525 -0.6710 -0.5816  0.6664
  192MOL0     C26373   1.059   6.624   1.401 -0.0327 -1.4759  0.6248
  192MOL0     C26374   1.083   6.775   1.420 -0.3112  1.0102  0.5319
  192MOL0     N26375   0.984   6.864   1.489 -0.7094  0.7235 -0.4147
  192MOL0     C26376   0.940   6.856   1.620  0.4769 -0.4105  0.0694
  192MOL0     C26377   0.882   6.971   1.648 -0.8678 -1.3098  0.1535
  192MOL0     C26378   0.813   7.018   1.771  0.7935  0.2532  0.6308
  192MOL0     C26379   0.681   7.080   1.728 -0.1428 -0.2157 -0.3933
  192MOL0     C26380   0.582   6.991   1.673  0.8828  0.0980 -1.0513
  192MOL0     C26381   0.462   7.070   1.624 -0.4359  0.7372  0.4614
  192MOL0     O26382   0.376   6.981   1.547  0.5310  0.3790  0.5404
  192MOL0     C26383   0.417   6.953   1.416  0.0080 -0.2111 -0.8621
  192MOL0     C26384   0.532   7.013   1.356 -0.2470 -0.1971  0.2377
  192MOL0     C26385   0.555   6.992   1.220 -0.6305  0.4089  0.5968
  192MOL0     C26386   0.693   7.048   1.173 -0.5135  1.8525 -0.4278
  192MOL0     C26387   0.467   6.905   1.153 -0.5584 -0.0932  0.9430
  192MOL0     C26388   0.504   6.847   1.016 -0.1482 -0.8200  0.1398
  192MOL0     O26389   0.399   6.835   0.931  0.2195 -0.2153 -0.6071
  192MOL0     C26390   0.432   6.806   0.803 -0.9869 -0.5193 -0.0668
  192MOL0     C26391   0.445   6.907   0.716 -0.2523 -1.1545 -0.7488
  192MOL0     C26392   0.490   6.893   0.586  0.7894  0.6383 -0.2774
  192MOL0     C26393   0.557   6.773   0.555 -0.6078 -0.4362 -0.0674
  192MOL0     O26394   0.610   6.749   0.426  0.2723  0.4189 -0.3497
  192MOL0     C26395   0.656   6.861   0.352  0.3800  0.4064  0.3897
  192MOL0     C26396   0.597   6.874   0.217  0.2004  0.0291 -0.4445
  192MOL0     C26397   0.449   6.930   0.223  0.9948 -0.1859 -0.4659
  192MOL0     C26398   0.442   7.086   0.248 -0.0212  0.1278  0.1157
  192MOL0     C26399   0.307   7.149   0.278  0.5512  1.0094 -0.7929
  192MOL0     C26400   0.203   7.134   0.154 -0.6657  0.2894 -0.6435
  192MOL0     C26401   0.072   7.206   0.174  0.4775  0.5284 -0.2896
  192MOL0     C26402   0.004   7.176   0.314  0.0135 -0.1063 -0.5936
  192MOL0    Cl26403  -0.165   7.131   0.306  0.6605 -0.0930  0.2632
  192MOL0     C26404   0.553   6.661   0.647  0.5967 -0.7444 -0.8982
  192MOL0     C26405   0.488   6.686   0.767 -0.6725 -0.4505 -0.3578
  192MOL0     O26406   0.618   6.826   0.987 -0.2233  0.2235  0.0263
  192MOL0     C26407   0.360   6.851   1.220  0.5646 -1.0692 -0.2253
  192MOL0     C26408   0.330   6.881   1.348 -0.7189  0.8042  0.6185
  192MOL0     N26409   0.888   7.045   1.536  0.2877 -0.5725  0.1541
  192MOL0     N26410   0.961   6.992   1.446 -0.2123 -0.2785  0.7724
  192MOL0     C26411   0.975   5.955   2.192 -0.4141  0.2004  0.0932
  192MOL0     C26412   0.920   5.941   2.323  0.0215 -0.8445 -0.1567
  192MOL0     C26413   0.847   6.033   2.781 -0.5331  1.2179 -0.9071
  192MOL0     C26414   0.775   5.915   2.788  1.0857 -0.5223  0.3279
  192MOL0     C26415   0.723   5.865   2.912 -0.4429  0.0374 -0.0213
  192MOL0     C26416   0.744   5.933   3.021 -0.2618  1.2452 -0.2806
  192MOL0     O26417   0.684   5.887   3.140  0.2034  0.0893  0.2374
  192MOL0     C26418   0.723   5.755   3.175 -0.6035  0.8615  0.0594
  192MOL0     C26419   0.861   5.759   3.243  0.3610  0.4392  0.7202
  192MOL0     C26420   0.854   5.845   3.368  0.7060  0.3577 -0.6502
  192MOL0     C26421   0.750   5.782   3.461  0.2566  0.9485 -1.1390
  192MOL0     C26422   0.787   5.796   3.605  0.6244 -0.0572  0.0457
  192MOL0     C26423   0.817   5.811   3.717  0.1803 -0.1340  0.4989
  192MOL0     C26424   0.824   6.040   3.026  0.2403  0.5112 -0.1086
  192MOL0     C26425   0.875   6.099   2.903  0.2383  0.4178  0.0304
  192MOL0     C26426   0.974   6.211   2.927  0.8625 -0.6564  0.9435
  192MOL0     H26427   0.890   6.264   2.421 -1.5753 -1.1666 -0.2342
  192MOL0     H26428   0.968   6.300   2.200 -1.7188  0.4177  0.3412
  192MOL0     H26429   1.121   6.287   2.041 -3.1863  0.0331  2.1638
  192MOL0     H26430   0.971   6.279   1.957 -3.0498 -4.4476  0.7342
  192MOL0     H26431   1.239   6.225   1.842 -0.1822  1.4099 -2.6654
  192MOL0     H26432   1.108   6.125   1.773  1.7847 -0.9750  0.0037
  192MOL0     H26433   0.972   6.296   1.703  0.6214  2.7953 -0.4614
  192MOL0     H26434   1.072   6.425   1.770  2.3122  0.5297  1.6660
  192MOL0     H26435   1.258   6.354   1.634 -0.5691 -0.2232  2.5816
  192MOL0     H26436   1.172   6.223   1.553  1.0510  0.2671 -2.1801
  192MOL0     H26437   1.002   6.388   1.455 -1.0209  3.0467  0.2839
  192MOL0     H26438   1.164   6.392   1.392 -0.9620 -0.7640  0.0822
  192MOL0     H26439   1.046   6.568   1.611 -1.1730  0.1428  0.1214
  192MOL0     H26440   1.207   6.592   1.556 -1.8144  1.4736  1.4834
  192MOL0     H26441   0.951   6.607   1.388 -0.7611  0.4905  3.2242
  192MOL0     H26442   1.110   6.602   1.307  1.4647  1.6488  0.5780
  192MOL0     H26443   1.175   6.792   1.477  0.1285 -0.5315  0.3101
  192MOL0     H26444   1.108   6.822   1.324 -0.4272  1.5844  0.7748
  192MOL0     H26445   0.942   6.773   1.691  0.1934 -1.5046 -1.1613
  192MOL0     H26446   0.883   7.078   1.830  1.9010  1.3189 -1.6317
  192MOL0     H26447   0.783   6.936   1.837  1.9073  0.1060  0.9714
  192MOL0     H26448   0.637   7.113   1.823 -2.0324  0.0206 -1.3076
  192MOL0     H26449   0.691   7.173   1.672 -1.3161 -1.3096 -2.5610
  192MOL0     H26450   0.629   6.931   1.595 -2.0035 -3.0968 -0.5749
  192MOL0     H26451   0.547   6.924   1.751 -1.5023  1.7858 -0.5426
  192MOL0     H26452   0.402   7.110   1.706 -2.7950 -0.7004 -0.4490
  192MOL0     H26453   0.494   7.160   1.571 -1.0200  0.4356 -0.4270
  192MOL0     H26454   0.611   7.055   1.418  0.9294 -2.2987  0.2613
  192MOL0     H26455   0.774   7.035   1.245 -1.0049 -0.2260 -0.1865
  192MOL0     H26456   0.678   7.156   1.167 -4.2278  1.6550  2.0390
  192MOL0     H26457   0.733   7.018   1.076  0.0055  0.2336  0.2494
  192MOL0     H26458   0.415   7.006   0.748  0.1773  0.0346 -3.7360
  192MOL0     H26459   0.492   6.974   0.515 -0.4337 -0.5862 -1.7721
  192MOL0     H26460   0.679   6.959   0.395  2.7536 -1.2173  3.2347
  192MOL0     H26461   0.759   6.830   0.332  1.4982  3.3812  1.0423
  192MOL0     H26462   0.648   6.942   0.149 -0.6543 -0.7846 -1.9542
  192MOL0     H26463   0.588   6.780   0.161  2.1993  1.0034 -2.5632
  192MOL0     H26464   0.401   6.886   0.311  1.5715  0.5604  0.2317
  192MOL0     H26465   0.399   6.899   0.130 -0.4302 -1.8318  0.7773
  192MOL0     H26466   0.474   7.143   0.160 -2.4914  1.4333 -0.0170
  192MOL0     H26467   0.507   7.120   0.329  0.0788 -1.0140  0.5358
  192MOL0     H26468   0.265   7.105   0.368  1.1810 -0.9781 -1.4029
  192MOL0     H26469   0.322   7.255   0.300 -1.2148  0.6058  3.1474
  192MOL0     H26470   0.192   7.028   0.131  1.1696  0.2050 -1.3253
  192MOL0     H26471   0.263   7.175   0.072  3.5426 -1.8655  1.0535
  192MOL0     H26472  -0.001   7.189   0.093  1.2359 -0.1925 -0.8367
  192MOL0     H26473   0.089   7.312   0.157 -0.2647  0.4969 -1.3457
  192MOL0     H26474   0.005   7.268   0.372  1.4729 -0.3721 -0.1416
  192MOL0     H26475   0.054   7.098   0.373 -2.3396 -0.8414  0.5410
  192MOL0     H26476   0.596   6.565   0.621  1.4755 -1.7404  3.3853
  192MOL0     H26477   0.468   6.603   0.834  0.0377  0.5908  1.2008
  192MOL0     H26478   0.304   6.787   1.152  0.0126 -1.5224  0.6404
  192MOL0     H26479   0.254   6.830   1.407  1.2027 -1.5118  1.2699
  192MOL0     H26480   1.001   5.864   2.138  2.3665 -0.9350  3.0348
  192MOL0     H26481   0.916   5.839   2.360 -0.0461 -0.1375  1.9298
  192MOL0     H26482   0.764   5.863   2.693  0.3984 -1.0513  0.6797
  192MOL0     H26483   0.671   5.770   2.914  0.2933 -0.4364 -1.7782
  192MOL0     H26484   0.654   5.706   3.245 -0.3486  1.2331  0.5801
  192MOL0     H26485   0.719   5.681   3.094 -2.5755  0.0608  0.8046
  192MOL0     H26486   0.935   5.791   3.169 -1.1306  0.4730 -0.8441
  192MOL0     H26487   0.898   5.658   3.263 -0.0241 -0.2012 -1.5057
  192MOL0     H26488   0.949   5.836   3.422  0.3165 -0.6140 -0.1159
  192MOL0     H26489   0.815   5.944   3.341 -1.4475 -0.1226  0.5493
  192MOL0     H26490   0.733   5.675   3.449 -2.8087  1.1617  0.3394
  192MOL0     H26491   0.655   5.836   3.455 -0.7551 -0.6312 -0.1269
  192MOL0     H26492   0.846   5.798   3.819 -1.5258 -3.1839  0.7123
  192MOL0     H26493   0.827   6.080   3.127  0.7373  2.5266 -0.8694
  192MOL0     H26494   1.075   6.182   2.898  0.8812 -3.0595  3.0716
  192MOL0     H26495   0.941   6.307   2.885  1.3704 -0.9234 -0.0887
  192MOL0     H26496   0.981   6.233   3.033 -2.6061 -0.4197  1.2633
  193MOL0     O26497   8.642   3.818  10.539  0.4939 -0.2088  0.7872
  193MOL0     C26498   8.742   3.878  10.571 -0.1261 -0.1436 -0.2456
  193MOL0     O26499   8.815   3.863  10.681 -0.9793 -0.1820  0.3912
  193MOL0     C26500   8.797   3.759  10.774 -0.6278  0.0776  0.7384
  193MOL0     C26501   8.830   3.787  10.898  1.2147  0.2600  0.2578
  193MOL0     C26502   8.828   3.693  11.000 -0.2167  0.1026  0.3622
  193MOL0     C26503   8.805   3.564  10.965 -0.1541  0.1080  0.0338
  193MOL0     O26504   8.817   3.482  11.072  0.9415  0.6471  0.2032
  193MOL0     C26505   8.748   3.351  11.065 -0.1702 -0.2959  0.6050
  193MOL0     C26506   8.784   3.252  11.176  0.4939 -0.1857 -0.4552
  193MOL0     C26507   8.703   3.123  11.147  0.3932 -0.2504 -0.5981
  193MOL0     C26508   8.807   3.010  11.114  0.2299  0.3273 -0.5765
  193MOL0     C26509   8.728   2.882  11.085  0.4895  0.2076  0.5349
  193MOL0     C26510   8.823   2.773  11.071 -0.8547 -0.9787 -0.0524
  193MOL0     C26511   8.755   2.642  11.049  0.0060  0.0599  0.7072
  193MOL0     C26512   8.853   2.530  11.014  0.2734 -0.0650 -1.0249
  193MOL0     N26513   8.930   2.481  11.127  0.4931 -0.0043  0.4429
  193MOL0     C26514   9.038   2.535  11.193 -0.1841  0.7371  0.4088
  193MOL0     C26515   9.039   2.466  11.311  0.3549 -0.2879 -0.6509
  193MOL0     C26516   9.126   2.492  11.428  0.5125 -0.4444  0.8603
  193MOL0     C26517   9.053   2.589  11.530 -0.4541  0.4567 -0.4463
  193MOL0     C26518   9.141   2.584  11.659  0.7495  0.2260  0.2565
  193MOL0     C26519   9.162   2.724  11.723 -0.4713 -0.0250 -0.6812
  193MOL0     O26520   9.236   2.811  11.644 -1.5133 -0.6029  0.0390
  193MOL0     C26521   9.358   2.759  11.606  0.0839 -0.3354  0.4034
  193MOL0     C26522   9.390   2.780  11.467 -1.0393 -0.5020 -0.3973
  193MOL0     C26523   9.517   2.749  11.416  0.0093  0.1977  0.1130
  193MOL0     C26524   9.551   2.777  11.268 -0.3761 -0.2961  0.9514
  193MOL0     C26525   9.608   2.687  11.512 -0.6797 -0.4335 -0.4221
  193MOL0     C26526   9.748   2.634  11.470  0.1493 -0.5978  0.4305
  193MOL0     O26527   9.806   2.536  11.549  0.7586 -0.1952 -0.1524
  193MOL0     C26528   9.924   2.472  11.519  0.5677 -0.4809  0.1736
  193MOL0     C26529   9.973   2.415  11.405 -0.6562  0.3953 -0.2311
  193MOL0     C26530  10.109   2.374  11.386 -0.0179 -0.2800  0.0980
  193MOL0     C26531  10.191   2.396  11.492 -0.6894  0.1349 -0.9635
  193MOL0     O26532  10.328   2.369  11.468  0.7227  0.5678 -0.1564
  193MOL0     C26533  10.434   2.410  11.552  0.1653  0.5689 -0.6194
  193MOL0     C26534  10.559   2.360  11.486 -0.5496 -0.2300  0.4659
  193MOL0     C26535  10.578   2.404  11.338  0.5711 -0.8791  0.3199
  193MOL0     C26536  10.570   2.283  11.248 -0.2899 -1.0052  0.0611
  193MOL0     C26537  10.566   2.324  11.098  0.6287 -0.0381 -0.4329
  193MOL0     C26538  10.682   2.265  11.017  0.2123  0.0581  0.5420
  193MOL0     C26539  10.822   2.329  11.025 -0.3068  0.4664  0.1609
  193MOL0     C26540  10.911   2.266  10.919 -0.2713 -0.4733  0.1934
  193MOL0    Cl26541  11.083   2.342  10.932 -0.0027  0.7704 -0.4090
  193MOL0     C26542  10.152   2.452  11.616 -0.4239  0.4715  0.9928
  193MOL0     C26543  10.017   2.492  11.622 -0.4793  0.0509  0.0503
  193MOL0     O26544   9.802   2.686  11.371 -0.6872  0.1038 -0.3165
  193MOL0     C26545   9.575   2.650  11.641 -0.1645  0.5051  0.0575
  193MOL0     C26546   9.450   2.683  11.687 -0.1013 -0.5173 -0.5292
  193MOL0     N26547   8.960   2.356  11.308  0.1679 -0.6007 -0.6093
  193MOL0     N26548   8.900   2.369  11.193  0.1423  0.3397 -0.3017
  193MOL0     C26549   8.769   3.533  10.826 -0.6978 -0.1835 -0.2907
  193MOL0     C26550   8.770   3.629  10.732 -1.4317 -0.2330 -0.1552
  193MOL0     C26551   8.790   3.986  10.486  0.2966 -0.9445  0.2268
  193MOL0     C26552   8.928   4.022  10.493 -0.8402  0.5908  0.7022
  193MOL0     C26553   8.986   4.107  10.407 -0.0912 -0.3331  0.8198
  193MOL0     C26554   8.913   4.165  10.301  0.2720 -0.3938  0.1555
  193MOL0     O26555   8.962   4.251  10.206  0.0520  0.0791 -0.1262
  193MOL0     C26556   9.101   4.260  10.198 -0.0428 -0.2564 -0.0585
  193MOL0     C26557   9.153   4.357  10.088 -0.8131  0.0124  0.5787
  193MOL0     C26558   9.139   4.499  10.129  0.0072 -0.2962  0.0240
  193MOL0     C26559   9.246   4.582  10.059  0.2964  0.1581  0.2745
  193MOL0     C26560   9.207   4.592   9.912 -0.1444  0.5663  0.0572
  193MOL0     C26561   9.166   4.598   9.797  0.8071  0.6216  0.7995
  193MOL0     C26562   8.773   4.147  10.305  0.5374 -0.3850 -0.7509
  193MOL0     C26563   8.709   4.064  10.397  0.4044  0.0667  0.2868
  193MOL0     C26564   8.551   4.061  10.402 -0.5794 -0.1641 -0.1831
  193MOL0     H26565   8.847   3.892  10.922 -3.2265  1.0623  0.7331
  193MOL0     H26566   8.858   3.728  11.099  3.1573 -0.9228 -0.1721
  193MOL0     H26567   8.769   3.302  10.970  0.8893 -1.4055  1.3873
  193MOL0     H26568   8.643   3.381  11.073  0.5596  3.8832 -2.4067
  193MOL0     H26569   8.891   3.233  11.161 -0.0989 -2.5213 -2.2200
  193MOL0     H26570   8.756   3.295  11.273  1.8332 -2.4833  1.0456
  193MOL0     H26571   8.639   3.108  11.235  1.5744 -1.1564  0.1324
  193MOL0     H26572   8.635   3.129  11.061  0.4978 -0.4770 -0.6975
  193MOL0     H26573   8.872   3.049  11.035  0.4939  0.6634 -0.1981
  193MOL0     H26574   8.875   2.994  11.199 -1.2797  0.9586  0.7932
  193MOL0     H26575   8.682   2.901  10.987  0.8727 -3.8208 -0.6217
  193MOL0     H26576   8.653   2.861  11.162  0.8677 -1.6786  0.4343
  193MOL0     H26577   8.903   2.799  11.001  2.2151  2.8699  4.2874
  193MOL0     H26578   8.871   2.764  11.169 -4.3350 -0.8381  1.8171
  193MOL0     H26579   8.687   2.643  10.963  3.1625 -0.6476 -2.0533
  193MOL0     H26580   8.702   2.612  11.139  1.6252  2.8046  2.7726
  193MOL0     H26581   8.797   2.449  10.967 -0.9073  0.8461 -1.2140
  193MOL0     H26582   8.924   2.569  10.940  0.9539  1.1476  0.2148
  193MOL0     H26583   9.082   2.633  11.175 -2.9369  1.5553 -2.7390
  193MOL0     H26584   9.222   2.537  11.400 -0.0699  1.6111  1.9272
  193MOL0     H26585   9.145   2.392  11.469 -0.9125 -1.4018 -0.6819
  193MOL0     H26586   9.060   2.691  11.492  1.4098  0.2538 -0.7395
  193MOL0     H26587   8.951   2.553  11.551 -0.3591  0.1623 -0.4826
  193MOL0     H26588   9.086   2.523  11.731  1.3788 -1.8662 -0.9438
  193MOL0     H26589   9.236   2.533  11.642 -0.7294 -2.4525 -0.5813
  193MOL0     H26590   9.067   2.772  11.747 -0.5454 -1.5977  2.9318
  193MOL0     H26591   9.202   2.706  11.823  0.8105  0.0548 -1.1592
  193MOL0     H26592   9.308   2.832  11.419 -1.4029  2.8300  3.3583
  193MOL0     H26593   9.470   2.833  11.220 -0.4932 -0.7201  0.6423
  193MOL0     H26594   9.564   2.681  11.217  1.2309  1.3180 -1.9061
  193MOL0     H26595   9.642   2.838  11.274 -0.3227 -0.5225  3.0399
  193MOL0     H26596   9.908   2.387  11.322  1.0809 -0.5590 -1.3345
  193MOL0     H26597  10.137   2.330  11.291  0.1877  0.9460 -0.4311
  193MOL0     H26598  10.436   2.518  11.565  2.7804  0.7701 -2.1261
  193MOL0     H26599  10.429   2.377  11.657 -1.3561 -0.7552 -1.0645
  193MOL0     H26600  10.648   2.398  11.537  0.6863  1.2892 -2.5222
  193MOL0     H26601  10.550   2.251  11.494 -2.1082 -0.0882  0.8449
  193MOL0     H26602  10.676   2.453  11.332  0.2053  0.0668  1.6618
  193MOL0     H26603  10.501   2.477  11.311  1.3958  0.2717  0.9475
  193MOL0     H26604  10.475   2.234  11.271 -1.9440  2.3957  1.0892
  193MOL0     H26605  10.644   2.208  11.280  0.6135  0.2540  1.0209
  193MOL0     H26606  10.470   2.283  11.062  0.5064 -1.1607  1.0797
  193MOL0     H26607  10.562   2.433  11.087  0.4156 -0.0082 -0.0756
  193MOL0     H26608  10.652   2.286  10.914  2.2755 -3.0784 -0.8296
  193MOL0     H26609  10.681   2.156  11.020  1.9860  0.0014  0.0921
  193MOL0     H26610  10.869   2.329  11.124  0.9039 -1.4448 -0.3336
  193MOL0     H26611  10.812   2.436  11.005  0.5738  0.1083 -2.6693
  193MOL0     H26612  10.856   2.289  10.828 -1.8917  1.7077  1.6192
  193MOL0     H26613  10.913   2.157  10.927 -0.0987 -0.5924 -1.2836
  193MOL0     H26614  10.216   2.462  11.704  1.9955 -1.0553 -0.4803
  193MOL0     H26615   9.994   2.541  11.715  3.2293  1.1519  0.5421
  193MOL0     H26616   9.644   2.601  11.708  2.2713  1.5853 -1.5104
  193MOL0     H26617   9.420   2.655  11.788 -0.8617  0.4515 -0.4633
  193MOL0     H26618   8.764   3.427  10.804  2.5125 -1.0152  2.1740
  193MOL0     H26619   8.763   3.600  10.628  0.7657  2.3198 -1.1171
  193MOL0     H26620   8.996   3.975  10.563  1.2168  2.0086 -0.2355
  193MOL0     H26621   9.091   4.131  10.422 -0.1389  1.1961 -0.9306
  193MOL0     H26622   9.139   4.293  10.295  1.6247  0.0029 -0.7703
  193MOL0     H26623   9.133   4.159  10.172 -1.9168 -1.2079  1.1270
  193MOL0     H26624   9.104   4.328   9.995  1.1366 -2.0830  0.1548
  193MOL0     H26625   9.257   4.326  10.094 -1.0808 -1.2151 -0.7242
  193MOL0     H26626   9.039   4.542  10.127 -0.3787 -0.9454  2.3650
  193MOL0     H26627   9.162   4.509  10.236 -1.2545 -0.5516  0.3384
  193MOL0     H26628   9.345   4.535  10.063 -0.8764 -2.5762 -0.4405
  193MOL0     H26629   9.257   4.679  10.108 -0.8499 -0.4987  1.9030
  193MOL0     H26630   9.128   4.602   9.697  0.2111 -1.3223  0.9156
  193MOL0     H26631   8.721   4.206  10.230  0.8515  3.2668  1.6721
  193MOL0     H26632   8.512   4.062  10.300  1.0539  1.1960 -0.8451
  193MOL0     H26633   8.498   3.974  10.443  0.5927 -1.6801 -1.7150
  193MOL0     H26634   8.527   4.155  10.451  2.8422  1.0554 -0.5344
  194MOL0     O26635   4.834   0.699   3.362  0.1806 -0.2978  0.2355
  194MOL0     C26636   4.795   0.606   3.289 -0.0938 -0.2863  0.2082
  194MOL0     O26637   4.839   0.475   3.295 -0.1304  0.5569 -0.5165
  194MOL0     C26638   4.900   0.416   3.401  0.1395 -0.0396  0.1232
  194MOL0     C26639   4.854   0.284   3.425 -0.0241  0.5362 -0.2081
  194MOL0     C26640   4.923   0.199   3.511 -0.0374 -0.2249 -0.0546
  194MOL0     C26641   5.039   0.252   3.567  0.5450  0.3496 -0.3244
  194MOL0     O26642   5.113   0.170   3.647  0.8739  0.2617  0.2927
  194MOL0     C26643   5.205   0.088   3.567  0.2063 -0.0270 -0.0198
  194MOL0     C26644   5.257  -0.048   3.630  0.7515 -0.0011  0.8362
  194MOL0     C26645   5.163  -0.170   3.632 -0.6434 -0.5508  0.1462
  194MOL0     C26646   5.241  -0.301   3.599  0.7379 -0.3316 -1.0574
  194MOL0     C26647   5.139  -0.425   3.606 -0.2054  0.5914 -0.8950
  194MOL0     C26648   5.118  -0.463   3.750 -0.5070 -0.3027  0.8916
  194MOL0     C26649   5.052  -0.602   3.751 -0.6036  0.2243 -0.3373
  194MOL0     C26650   4.923  -0.621   3.674 -0.3844 -0.2097 -0.1662
  194MOL0     N26651   4.804  -0.546   3.710 -0.2759  0.2738  1.1791
  194MOL0     C26652   4.778  -0.503   3.833  0.1518  0.5429 -0.2068
  194MOL0     C26653   4.656  -0.443   3.832  0.0328  0.2573  0.0951
  194MOL0     C26654   4.586  -0.371   3.939 -0.1869  0.9889  0.0132
  194MOL0     C26655   4.439  -0.431   3.966  0.0681  0.2909 -0.3076
  194MOL0     C26656   4.338  -0.319   4.024  0.2576  0.2670  0.2617
  194MOL0     C26657   4.377  -0.256   4.158 -0.0145 -0.7677 -0.3295
  194MOL0     O26658   4.293  -0.136   4.166  0.1524  0.1342  0.0010
  194MOL0     C26659   4.249  -0.106   4.296  0.1468 -0.3777 -0.0976
  194MOL0     C26660   4.112  -0.091   4.325  0.3167  0.6021  0.5443
  194MOL0     C26661   4.069  -0.058   4.457 -0.0142  0.1850  0.6211
  194MOL0     C26662   3.918  -0.055   4.486  0.3869 -0.2434 -0.5036
  194MOL0     C26663   4.160  -0.018   4.553  0.4809  0.5627 -0.9998
  194MOL0     C26664   4.132   0.038   4.680  0.2994  0.0521  0.4142
  194MOL0     O26665   4.044   0.132   4.683 -0.7795  0.2734 -0.4066
  194MOL0     C26666   3.980   0.174   4.798  0.0032 -0.5419  0.9533
  194MOL0     C26667   3.943   0.305   4.794 -0.4200 -0.5196  0.4762
  194MOL0     C26668   3.879   0.357   4.913 -0.2106 -0.9398 -0.0967
  194MOL0     C26669   3.846   0.281   5.019  0.7320 -0.2773 -0.3441
  194MOL0     O26670   3.770   0.344   5.114 -0.6011  0.1348 -0.2647
  194MOL0     C26671   3.781   0.297   5.251 -0.6638  0.2687  0.6182
  194MOL0     C26672   3.698   0.401   5.326  0.4204  0.4948  0.6239
  194MOL0     C26673   3.757   0.540   5.342 -0.0841 -0.1790 -0.2410
  194MOL0     C26674   3.665   0.615   5.439  0.9914 -0.4912 -0.4545
  194MOL0     C26675   3.704   0.758   5.413 -0.6752  0.2220  0.0939
  194MOL0     C26676   3.643   0.847   5.291 -0.6981 -0.7602 -0.8142
  194MOL0     C26677   3.500   0.834   5.264  0.6432 -1.2394  0.0308
  194MOL0     C26678   3.469   0.726   5.150  0.0115  0.4182 -0.2935
  194MOL0    Cl26679   3.290   0.708   5.135 -0.1410  0.2188  0.4456
  194MOL0     C26680   3.894   0.146   5.018 -0.4965  0.5428  0.3824
  194MOL0     C26681   3.950   0.089   4.907  0.7240 -0.3939  0.5735
  194MOL0     O26682   4.202   0.006   4.777  0.1832 -0.0422  0.5326
  194MOL0     C26683   4.300  -0.021   4.513 -0.1007  1.0924  0.3664
  194MOL0     C26684   4.346  -0.073   4.392  0.6438  0.6644 -0.6617
  194MOL0     N26685   4.607  -0.444   3.702 -0.0450  0.4002 -0.0080
  194MOL0     N26686   4.700  -0.502   3.631  0.4979 -0.2443 -0.4184
  194MOL0     C26687   5.081   0.379   3.552 -0.5154  0.5435 -0.3248
  194MOL0     C26688   5.011   0.467   3.464  0.1417 -0.1950 -1.0926
  194MOL0     C26689   4.673   0.637   3.203  0.0219 -0.4524 -0.5680
  194MOL0     C26690   4.583   0.535   3.184 -0.0617  0.9204 -1.5817
  194MOL0     C26691   4.454   0.553   3.133 -0.0764 -0.3178  0.3052
  194MOL0     C26692   4.425   0.679   3.084 -0.3819  0.0848 -0.0614
  194MOL0     O26693   4.295   0.710   3.048 -0.3375 -0.1278 -0.5180
  194MOL0     C26694   4.247   0.842   3.049  0.0794 -0.5656 -0.0702
  194MOL0     C26695   4.222   0.900   2.902  0.2659 -0.0281  1.1450
  194MOL0     C26696   4.158   0.795   2.803  0.0009  0.8997  0.7042
  194MOL0     C26697   4.218   0.827   2.652  0.5794  0.6781 -0.3591
  194MOL0     C26698   4.179   0.708   2.566  0.3836  0.0583  0.1553
  194MOL0     C26699   4.151   0.601   2.510  0.2293 -0.0404 -0.3912
  194MOL0     C26700   4.531   0.770   3.075  0.1597 -0.1555 -0.0377
  194MOL0     C26701   4.658   0.758   3.137  0.6771  0.5157  0.1320
  194MOL0     C26702   4.760   0.869   3.139  0.9006  0.5915  0.0187
  194MOL0     H26703   4.771   0.245   3.366 -0.2667  0.7898 -0.0349
  194MOL0     H26704   4.894   0.096   3.527  0.4042 -0.0391  2.3371
  194MOL0     H26705   5.297   0.145   3.546  0.2601 -0.7421 -1.8859
  194MOL0     H26706   5.159   0.072   3.469  1.4282  0.3941 -0.6905
  194MOL0     H26707   5.348  -0.082   3.580  1.4913  2.3757  0.4516
  194MOL0     H26708   5.285  -0.026   3.734 -3.0606  1.0140  1.7774
  194MOL0     H26709   5.108  -0.173   3.726  1.4925 -1.6675  1.4385
  194MOL0     H26710   5.094  -0.157   3.548  0.3330  1.4190 -0.4162
  194MOL0     H26711   5.276  -0.294   3.495 -5.0788  1.5798 -3.3039
  194MOL0     H26712   5.327  -0.306   3.667  0.5491  0.5903 -0.7279
  194MOL0     H26713   5.170  -0.508   3.542 -0.3089 -1.8091  1.9691
  194MOL0     H26714   5.046  -0.393   3.557  1.2420  3.2001 -2.1334
  194MOL0     H26715   5.210  -0.466   3.808  0.7556 -0.8183 -1.0458
  194MOL0     H26716   5.046  -0.395   3.797 -2.0594 -0.2084 -1.4622
  194MOL0     H26717   5.043  -0.623   3.858 -0.9511 -0.2256 -0.4499
  194MOL0     H26718   5.118  -0.674   3.703 -2.0883 -0.3053 -1.6812
  194MOL0     H26719   4.947  -0.606   3.568 -2.5634  1.2937 -0.5243
  194MOL0     H26720   4.896  -0.727   3.688 -2.3436  0.2546 -0.1064
  194MOL0     H26721   4.846  -0.516   3.917  0.9288  1.8876 -0.6003
  194MOL0     H26722   4.576  -0.263   3.923  1.0411  1.0682 -0.3536
  194MOL0     H26723   4.660  -0.385   4.018 -1.9499  2.0981  1.9328
  194MOL0     H26724   4.402  -0.470   3.870  1.9051 -0.7296 -0.6539
  194MOL0     H26725   4.460  -0.506   4.042 -0.4773  0.2098 -0.2340
  194MOL0     H26726   4.329  -0.240   3.948  2.6912  1.2755  0.9162
  194MOL0     H26727   4.243  -0.372   4.029 -0.7875  1.7153 -2.0568
  194MOL0     H26728   4.362  -0.324   4.243 -0.8660 -2.2699 -1.6343
  194MOL0     H26729   4.483  -0.229   4.154  0.0558 -1.0760 -0.5442
  194MOL0     H26730   4.036  -0.129   4.258 -0.2274  1.4908  0.6384
  194MOL0     H26731   3.880   0.047   4.500  1.0010 -0.1120  0.2854
  194MOL0     H26732   3.895  -0.099   4.583  0.3365 -1.7777 -1.1931
  194MOL0     H26733   3.866  -0.098   4.400  2.9676 -1.5797 -1.4786
  194MOL0     H26734   3.983   0.358   4.707  0.2081 -1.2549  0.3055
  194MOL0     H26735   3.846   0.460   4.924 -2.3939 -1.7688  1.6285
  194MOL0     H26736   3.743   0.197   5.274 -0.0162  0.2628  1.7988
  194MOL0     H26737   3.883   0.293   5.292 -1.0083  1.5554  1.6932
  194MOL0     H26738   3.593   0.400   5.294  0.7635  0.8844 -0.5546
  194MOL0     H26739   3.702   0.361   5.427  1.0346  0.4397  0.5792
  194MOL0     H26740   3.753   0.576   5.239  2.3540  0.4161 -0.1912
  194MOL0     H26741   3.864   0.540   5.368 -0.1386 -0.1580 -0.0190
  194MOL0     H26742   3.695   0.576   5.537 -0.9514 -2.1751 -0.4457
  194MOL0     H26743   3.557   0.602   5.424  0.4662  1.8683  0.7476
  194MOL0     H26744   3.657   0.796   5.505  0.8874 -0.1627  1.0879
  194MOL0     H26745   3.811   0.780   5.414 -0.8872  1.7151 -2.3056
  194MOL0     H26746   3.706   0.847   5.201  3.1696  0.2439  1.6111
  194MOL0     H26747   3.663   0.948   5.327  1.2125 -1.1374 -0.6755
  194MOL0     H26748   3.468   0.932   5.228  0.1820 -2.4218 -3.1681
  194MOL0     H26749   3.449   0.803   5.356  0.6956  0.7472  0.7838
  194MOL0     H26750   3.519   0.636   5.187  0.6066  1.1480  0.7364
  194MOL0     H26751   3.503   0.761   5.052  0.2574  2.1975  0.3895
  194MOL0     H26752   3.882   0.081   5.104  2.8657 -0.7995 -0.0231
  194MOL0     H26753   3.988  -0.013   4.906 -0.5875 -0.9014  0.9242
  194MOL0     H26754   4.373   0.020   4.582 -0.6731  2.1360  0.3811
  194MOL0     H26755   4.452  -0.082   4.369  1.0054  0.7574  0.8856
  194MOL0     H26756   5.166   0.408   3.612  0.6972 -2.4946 -0.3792
  194MOL0     H26757   5.054   0.564   3.443 -2.3338  0.5932 -2.9918
  194MOL0     H26758   4.612   0.434   3.212 -0.4283  1.4287  0.8227
  194MOL0     H26759   4.392   0.465   3.119 -1.3685  0.6947 -0.5503
  194MOL0     H26760   4.154   0.841   3.108  0.1701  0.6878  0.1280
  194MOL0     H26761   4.315   0.911   3.100  2.6173 -4.0865  1.7159
  194MOL0     H26762   4.321   0.938   2.878 -1.0711  1.8596 -1.9302
  194MOL0     H26763   4.159   0.990   2.903 -0.7116 -0.5401 -2.3909
  194MOL0     H26764   4.177   0.691   2.831  1.8591  1.8069  3.2379
  194MOL0     H26765   4.049   0.805   2.804 -0.3653 -1.6328 -1.5844
  194MOL0     H26766   4.327   0.819   2.651  0.6911  1.9271 -1.7892
  194MOL0     H26767   4.195   0.925   2.610  0.4225  0.3384 -1.0999
  194MOL0     H26768   4.162   0.512   2.450  0.8068 -0.7562  0.7454
  194MOL0     H26769   4.510   0.861   3.019 -0.2575  0.1958  0.6771
  194MOL0     H26770   4.779   0.906   3.240  0.1213 -3.1138  1.6843
  194MOL0     H26771   4.849   0.830   3.089 -0.9245 -5.1190  0.4423
  194MOL0     H26772   4.717   0.943   3.070  0.7999  1.1098  0.6307
  195MOL0     O26773   5.698   3.868   8.460  0.4539 -0.6956  0.2733
  195MOL0     C26774   5.721   3.982   8.419 -0.7298  0.1972  0.3336
  195MOL0     O26775   5.797   4.069   8.487  0.0326 -0.7224 -0.2321
  195MOL0     C26776   5.870   4.039   8.608 -0.1099 -0.2970  0.2127
  195MOL0     C26777   5.964   3.933   8.625 -0.4959 -1.0859  0.3580
  195MOL0     C26778   6.049   3.924   8.739 -0.2966  0.2979 -0.0474
  195MOL0     C26779   6.041   4.013   8.844 -0.2335 -0.4033 -0.4004
  195MOL0     O26780   6.103   4.014   8.966 -0.9092 -0.7735  0.8026
  195MOL0     C26781   6.210   3.922   8.986 -0.1174 -0.6701  1.0563
  195MOL0     C26782   6.250   3.918   9.136  0.2739  0.0903  0.1540
  195MOL0     C26783   6.303   4.056   9.181 -0.0234 -0.4502 -0.0163
  195MOL0     C26784   6.447   4.094   9.139  0.3644  1.2375  1.1144
  195MOL0     C26785   6.484   4.236   9.183  0.2611  0.3766 -0.1301
  195MOL0     C26786   6.633   4.259   9.169 -0.9408 -0.0037 -0.6204
  195MOL0     C26787   6.679   4.365   9.268  0.2818 -0.6820 -1.3409
  195MOL0     C26788   6.815   4.411   9.228  0.5175  0.1283 -0.7006
  195MOL0     N26789   6.871   4.506   9.321 -0.4856 -0.1299  0.1601
  195MOL0     C26790   6.829   4.633   9.317 -0.2802  0.1922  0.2370
  195MOL0     C26791   6.915   4.691   9.408  0.7043  0.9813  0.4995
  195MOL0     C26792   6.909   4.833   9.451  0.2206  0.4225 -0.3296
  195MOL0     C26793   6.899   4.838   9.603  0.0180  0.0812  0.6807
  195MOL0     C26794   6.751   4.810   9.638  0.0289 -0.8034  0.0597
  195MOL0     C26795   6.649   4.924   9.656 -0.4102 -0.2528  0.2197
  195MOL0     O26796   6.614   4.995   9.538  0.6533 -0.8159 -0.0849
  195MOL0     C26797   6.502   5.069   9.543  0.3703 -0.4688  1.0477
  195MOL0     C26798   6.415   5.101   9.658 -0.1492  0.0451  0.4446
  195MOL0     C26799   6.307   5.192   9.649 -0.7470  0.6032 -0.6917
  195MOL0     C26800   6.228   5.220   9.774 -0.5071 -0.0935  0.3732
  195MOL0     C26801   6.265   5.255   9.527 -0.4610  1.1043 -0.4883
  195MOL0     C26802   6.167   5.368   9.519  0.7556 -0.0403  0.6132
  195MOL0     O26803   6.181   5.457   9.421 -0.7634 -0.6491  0.0818
  195MOL0     C26804   6.092   5.546   9.382 -0.3292 -0.3650 -0.5097
  195MOL0     C26805   6.110   5.682   9.381  0.0733 -0.6771 -0.8902
  195MOL0     C26806   6.009   5.772   9.338  0.8629  0.5523 -0.0338
  195MOL0     C26807   5.888   5.723   9.286 -0.3071  0.6816 -0.1845
  195MOL0     O26808   5.792   5.813   9.247  0.8850 -0.2804  0.1655
  195MOL0     C26809   5.736   5.886   9.357  0.6352 -0.2726  0.4414
  195MOL0     C26810   5.627   5.994   9.314 -0.0637  0.2095 -0.8892
  195MOL0     C26811   5.697   6.075   9.200 -0.9715 -0.8224 -0.4594
  195MOL0     C26812   5.619   6.215   9.173  0.0146  0.3376 -0.3638
  195MOL0     C26813   5.666   6.330   9.264 -0.8563 -0.7924 -0.4320
  195MOL0     C26814   5.621   6.475   9.236 -0.4736  0.7561  0.6571
  195MOL0     C26815   5.657   6.582   9.345 -1.3630 -0.5756 -0.0652
  195MOL0     C26816   5.809   6.577   9.373  1.3796 -0.0094  0.0704
  195MOL0    Cl26817   5.839   6.706   9.489  0.4067 -0.4214  0.0469
  195MOL0     C26818   5.869   5.585   9.288 -0.1852  0.3644  0.0041
  195MOL0     C26819   5.972   5.498   9.326 -0.0977  0.8835 -0.1949
  195MOL0     O26820   6.072   5.372   9.596  0.5583  0.0899  0.0258
  195MOL0     C26821   6.353   5.230   9.417 -0.3086 -0.3253  0.5316
  195MOL0     C26822   6.468   5.137   9.423 -0.3054  0.2035 -0.5998
  195MOL0     N26823   7.008   4.593   9.456  0.5992 -0.1247  0.2159
  195MOL0     N26824   6.973   4.480   9.408  0.3188 -0.2641  0.2693
  195MOL0     C26825   5.948   4.119   8.829 -0.5311  0.5803 -0.4204
  195MOL0     C26826   5.876   4.137   8.707  0.3194 -0.7908 -0.8146
  195MOL0     C26827   5.656   4.023   8.289  0.0166 -0.0369  0.8100
  195MOL0     C26828   5.661   4.158   8.242 -0.5393  0.2267 -0.0241
  195MOL0     C26829   5.606   4.204   8.121  0.0983  1.3570 -0.0358
  195MOL0     C26830   5.540   4.107   8.036  1.3183 -1.1603  0.1575
  195MOL0     O26831   5.482   4.131   7.916  0.0728  0.1049 -0.0265
  195MOL0     C26832   5.450   4.261   7.872 -0.1669  0.4397  0.5121
  195MOL0     C26833   5.428   4.256   7.719 -0.3344  0.3330  0.0803
  195MOL0     C26834   5.565   4.222   7.651 -0.6021 -0.2241 -0.6226
  195MOL0     C26835   5.567   4.240   7.502  0.8801  0.6484 -0.5521
  195MOL0     C26836   5.567   4.387   7.461 -0.5110  0.4235 -0.8606
  195MOL0     C26837   5.570   4.489   7.405 -0.2411 -0.6218 -0.2507
  195MOL0     C26838   5.517   3.983   8.099 -0.1739 -0.2236 -0.4281
  195MOL0     C26839   5.580   3.930   8.211 -1.2081  0.5588  0.5902
  195MOL0     C26840   5.555   3.781   8.232 -0.2310 -0.0406  0.4422
  195MOL0     H26841   5.958   3.868   8.538 -5.7381 -0.2611 -0.1766
  195MOL0     H26842   6.125   3.847   8.744  0.9343  1.5011  0.2456
  195MOL0     H26843   6.295   3.944   8.922  0.7941  0.9997  2.7383
  195MOL0     H26844   6.168   3.822   8.967 -3.3541  0.2277  2.7406
  195MOL0     H26845   6.165   3.891   9.199  1.7437 -0.7843  1.8468
  195MOL0     H26846   6.325   3.842   9.158 -0.2166  0.0555  1.8414
  195MOL0     H26847   6.229   4.125   9.138 -2.1804 -2.3520  0.4308
  195MOL0     H26848   6.293   4.073   9.288  0.1678  1.3775 -0.2555
  195MOL0     H26849   6.516   4.017   9.174 -2.3989 -3.3171 -2.2624
  195MOL0     H26850   6.470   4.099   9.032  2.6711  3.6623  1.6457
  195MOL0     H26851   6.464   4.247   9.290  1.8423  0.1087  0.2198
  195MOL0     H26852   6.435   4.319   9.132 -0.3845 -0.6218 -1.1810
  195MOL0     H26853   6.680   4.165   9.201 -0.1531  1.0137  1.3800
  195MOL0     H26854   6.665   4.284   9.067 -1.1652 -1.3127 -1.0302
  195MOL0     H26855   6.682   4.344   9.375  1.4662  0.6218 -1.0828
  195MOL0     H26856   6.608   4.448   9.254  0.1284 -0.3588  0.9558
  195MOL0     H26857   6.881   4.324   9.238 -2.9358 -2.4619  2.6223
  195MOL0     H26858   6.803   4.453   9.128 -2.8880 -0.0368 -0.4686
  195MOL0     H26859   6.746   4.678   9.263 -0.0929 -1.9474 -2.0327
  195MOL0     H26860   6.818   4.880   9.413  0.1090  0.0584 -0.5191
  195MOL0     H26861   6.993   4.899   9.429 -0.3747  0.9123 -1.2030
  195MOL0     H26862   6.965   4.766   9.653 -2.1694 -3.8192 -1.5471
  195MOL0     H26863   6.914   4.943   9.631 -0.3962  0.4424 -0.3894
  195MOL0     H26864   6.697   4.736   9.578 -1.3667 -0.4033  0.7745
  195MOL0     H26865   6.754   4.776   9.742 -0.0417 -0.4732  0.1713
  195MOL0     H26866   6.561   4.895   9.715  1.5732 -1.2688  2.9619
  195MOL0     H26867   6.705   4.996   9.716  0.8140 -0.1588 -1.0022
  195MOL0     H26868   6.436   5.064   9.758  0.2201  1.2308  0.8229
  195MOL0     H26869   6.231   5.329   9.781  3.4789 -0.1068  0.9261
  195MOL0     H26870   6.268   5.175   9.865  2.3644 -0.6997 -1.0588
  195MOL0     H26871   6.127   5.178   9.764 -0.6012 -0.0599  1.1312
  195MOL0     H26872   6.197   5.730   9.425 -1.8299 -0.2353  2.7840
  195MOL0     H26873   6.025   5.879   9.348 -3.1969  1.6040 -2.3402
  195MOL0     H26874   5.697   5.815   9.430 -0.8159 -0.1647 -0.1894
  195MOL0     H26875   5.808   5.950   9.408 -2.7277  1.1309  3.8346
  195MOL0     H26876   5.533   5.953   9.276 -0.3070  1.3679 -1.5938
  195MOL0     H26877   5.603   6.049   9.406 -2.0237  0.9861 -1.8096
  195MOL0     H26878   5.689   6.013   9.110  0.0248  1.4272 -2.1925
  195MOL0     H26879   5.802   6.091   9.228 -0.9167 -1.3318 -0.3501
  195MOL0     H26880   5.513   6.192   9.189 -0.5935 -0.3222 -4.2663
  195MOL0     H26881   5.627   6.248   9.069  0.8621 -1.2835 -0.8352
  195MOL0     H26882   5.639   6.306   9.367 -3.6127  3.2138  0.0383
  195MOL0     H26883   5.775   6.337   9.263 -0.8231  2.7463  2.9896
  195MOL0     H26884   5.512   6.483   9.223 -0.0179  5.8576 -2.5845
  195MOL0     H26885   5.661   6.499   9.137 -3.8281  5.3839  0.0641
  195MOL0     H26886   5.621   6.537   9.438  4.2729 -0.1162  2.7389
  195MOL0     H26887   5.624   6.683   9.319 -1.6114 -0.8957 -1.0467
  195MOL0     H26888   5.881   6.605   9.295  0.2147  0.6036 -0.8219
  195MOL0     H26889   5.837   6.485   9.424  2.0727  1.1444  1.8705
  195MOL0     H26890   5.771   5.551   9.255 -1.8309  3.7901  0.9734
  195MOL0     H26891   5.970   5.390   9.334  2.8378  0.7355 -0.4664
  195MOL0     H26892   6.348   5.270   9.317 -0.7668 -0.9719  0.2885
  195MOL0     H26893   6.552   5.139   9.354  1.1821 -1.6025  1.0394
  195MOL0     H26894   5.944   4.202   8.898 -0.8464 -0.5306  0.9385
  195MOL0     H26895   5.822   4.230   8.692  2.5324  0.2358 -2.9383
  195MOL0     H26896   5.709   4.225   8.313  0.1916 -1.6040  1.2705
  195MOL0     H26897   5.618   4.308   8.092  1.3183  1.2019 -0.1324
  195MOL0     H26898   5.362   4.300   7.923  1.4418  1.0400  2.9958
  195MOL0     H26899   5.538   4.324   7.888  0.5332 -0.7150  1.4075
  195MOL0     H26900   5.392   4.356   7.692 -2.4858  1.2483  5.0117
  195MOL0     H26901   5.346   4.190   7.689  0.2132  0.9906 -3.2704
  195MOL0     H26902   5.649   4.275   7.696  0.1145 -0.0071 -2.1452
  195MOL0     H26903   5.589   4.117   7.668  0.9912  0.1718 -0.2713
  195MOL0     H26904   5.480   4.189   7.460 -0.7044 -0.6787  3.8109
  195MOL0     H26905   5.659   4.192   7.466  3.0299  1.4621  3.3409
  195MOL0     H26906   5.565   4.572   7.337 -3.5262 -0.0910  0.4299
  195MOL0     H26907   5.474   3.904   8.037 -1.4340 -0.5588  0.8174
  195MOL0     H26908   5.531   3.750   8.334  1.1461  2.5142  1.6546
  195MOL0     H26909   5.473   3.749   8.168 -1.7096  4.2061 -0.1081
  195MOL0     H26910   5.646   3.727   8.207 -1.1248 -0.4282 -2.2013
  196MOL0     O26911   3.665   0.920   6.414  0.3511  0.3246 -1.0751
  196MOL0     C26912   3.609   0.810   6.393  0.3856 -0.5321  0.1747
  196MOL0     O26913   3.500   0.777   6.465  0.4350 -0.2851  0.2140
  196MOL0     C26914   3.439   0.872   6.546 -1.0457  0.1620  0.1879
  196MOL0     C26915   3.497   0.907   6.672  0.0387 -0.0627  0.2030
  196MOL0     C26916   3.428   0.985   6.764 -0.1344 -0.1705 -0.8694
  196MOL0     C26917   3.302   1.039   6.734 -0.9466 -0.2972 -1.0472
  196MOL0     O26918   3.241   1.103   6.840 -0.1074 -0.4797 -0.0255
  196MOL0     C26919   3.114   1.160   6.815  0.1005 -0.1925  0.5277
  196MOL0     C26920   3.088   1.234   6.946  0.1428 -0.8320  0.7875
  196MOL0     C26921   2.941   1.291   6.945 -1.2932 -0.2721  0.1839
  196MOL0     C26922   2.890   1.349   7.080 -0.4758  0.3354 -0.0029
  196MOL0     C26923   2.736   1.370   7.067  0.0482  0.4968  0.1120
  196MOL0     C26924   2.680   1.440   7.191 -0.2596  0.3416 -0.9125
  196MOL0     C26925   2.528   1.410   7.198 -0.0149 -0.1189 -0.5145
  196MOL0     C26926   2.454   1.464   7.319 -1.0282  0.2694  0.0155
  196MOL0     N26927   2.320   1.412   7.333 -0.0410 -0.6024 -0.3488
  196MOL0     C26928   2.229   1.367   7.240  0.1104 -0.3826 -0.6641
  196MOL0     C26929   2.124   1.327   7.319 -0.4959  1.5288 -0.1942
  196MOL0     C26930   2.002   1.250   7.265 -0.5365 -1.2881 -0.1070
  196MOL0     C26931   2.019   1.196   7.125 -0.8929 -0.5477  0.0665
  196MOL0     C26932   1.895   1.119   7.077 -0.8320  0.3992  0.4297
  196MOL0     C26933   1.933   1.059   6.930 -0.1531 -0.2576  0.0924
  196MOL0     O26934   2.024   0.946   6.927 -0.0579  0.4498 -0.0774
  196MOL0     C26935   1.975   0.826   6.978 -0.0430  0.5094  0.1823
  196MOL0     C26936   2.063   0.715   6.977 -0.0919 -0.1570  1.0036
  196MOL0     C26937   2.034   0.597   7.044 -0.2689 -0.8287 -0.0135
  196MOL0     C26938   2.149   0.507   7.051 -0.1635 -0.4774  0.2218
  196MOL0     C26939   1.902   0.572   7.098 -0.7000 -0.3911  0.7195
  196MOL0     C26940   1.859   0.447   7.154 -0.1316  0.1207  0.0551
  196MOL0     O26941   1.729   0.444   7.178 -0.0132 -0.5008  0.1945
  196MOL0     C26942   1.694   0.333   7.251  0.8058 -0.3061  0.2493
  196MOL0     C26943   1.634   0.227   7.184 -0.2179 -0.4466 -0.4029
  196MOL0     C26944   1.586   0.114   7.246  0.9275 -0.8408 -0.2386
  196MOL0     C26945   1.564   0.120   7.388 -0.1344  0.5833  0.0307
  196MOL0     O26946   1.511   0.009   7.453  0.1187 -0.3000  0.5926
  196MOL0     C26947   1.492  -0.125   7.385 -0.0970 -0.4210  0.3556
  196MOL0     C26948   1.460  -0.228   7.489 -0.3090 -0.3415  0.1646
  196MOL0     C26949   1.430  -0.362   7.423 -0.9826  0.9226 -0.9275
  196MOL0     C26950   1.288  -0.386   7.359 -0.3575 -0.4769  0.2383
  196MOL0     C26951   1.285  -0.532   7.319 -0.5884  0.8038 -0.4825
  196MOL0     C26952   1.145  -0.563   7.261  1.0084  1.1920 -1.0501
  196MOL0     C26953   1.124  -0.706   7.211  0.7872  0.0377 -0.1808
  196MOL0     C26954   0.982  -0.731   7.154  0.6898  0.3369  0.6081
  196MOL0    Cl26955   0.997  -0.875   7.057  0.4399 -0.4978 -0.0105
  196MOL0     C26956   1.612   0.237   7.463  0.1111  0.7984 -0.4144
  196MOL0     C26957   1.685   0.338   7.394  0.0213  0.6700 -0.5030
  196MOL0     O26958   1.938   0.349   7.167 -0.1812 -0.3635 -0.3734
  196MOL0     C26959   1.816   0.687   7.085 -1.0744 -0.3099 -0.9019
  196MOL0     C26960   1.852   0.805   7.032 -0.7063 -1.0936  0.4586
  196MOL0     N26961   2.146   1.348   7.447 -0.2232 -0.2570 -0.5001
  196MOL0     N26962   2.260   1.404   7.457 -0.3208  0.0736 -0.0854
  196MOL0     C26963   3.244   1.000   6.612  0.7649 -0.1644  0.3057
  196MOL0     C26964   3.308   0.925   6.521  0.0040 -0.4026  0.4967
  196MOL0     C26965   3.645   0.739   6.275  0.1406 -0.0754  0.2348
  196MOL0     C26966   3.777   0.715   6.261  0.1833 -0.0475 -0.7151
  196MOL0     C26967   3.833   0.631   6.169 -0.6025  0.7501 -0.5963
  196MOL0     C26968   3.748   0.570   6.081 -0.1247 -0.3943  0.6506
  196MOL0     O26969   3.784   0.478   5.985  0.3799  0.3075 -0.1206
  196MOL0     C26970   3.925   0.438   5.977  0.4807  0.8185 -0.7564
  196MOL0     C26971   3.952   0.345   5.850  0.1491 -0.2214 -0.4266
  196MOL0     C26972   3.905   0.400   5.716  0.8318 -0.1110 -1.2731
  196MOL0     C26973   4.017   0.468   5.637 -0.2647 -0.8737 -0.1979
  196MOL0     C26974   4.095   0.570   5.712 -0.7402  0.8390 -0.3494
  196MOL0     C26975   4.146   0.662   5.770  0.1059  0.4982 -0.2250
  196MOL0     C26976   3.609   0.580   6.085 -0.4874 -0.5725 -0.0247
  196MOL0     C26977   3.556   0.664   6.185  0.5844 -0.1289  0.1714
  196MOL0     C26978   3.408   0.662   6.208 -0.6266  0.9910 -0.3744
  196MOL0     H26979   3.590   0.861   6.703 -0.3350 -0.0825  1.3455
  196MOL0     H26980   3.476   1.002   6.860 -0.4639 -0.8471 -0.5807
  196MOL0     H26981   3.045   1.078   6.797  0.3512 -0.1072 -0.9389
  196MOL0     H26982   3.111   1.237   6.737 -1.6509  1.0794  1.7737
  196MOL0     H26983   3.106   1.174   7.036 -3.7678  0.2675  2.5076
  196MOL0     H26984   3.159   1.317   6.941  0.3657 -0.9884  1.3069
  196MOL0     H26985   2.940   1.370   6.869  0.2899 -2.3574 -2.1750
  196MOL0     H26986   2.885   1.205   6.908  1.6484 -2.7762  1.1678
  196MOL0     H26987   2.913   1.281   7.163  0.4666 -3.5242 -3.0987
  196MOL0     H26988   2.940   1.444   7.104  2.5449 -1.2333  0.4461
  196MOL0     H26989   2.684   1.275   7.049 -0.9855  1.0745 -0.0300
  196MOL0     H26990   2.708   1.431   6.981 -0.7707  0.5498  0.4016
  196MOL0     H26991   2.731   1.398   7.277 -1.1185 -0.1029 -0.6100
  196MOL0     H26992   2.691   1.549   7.183 -1.3150  0.4633 -0.8231
  196MOL0     H26993   2.524   1.300   7.199  0.2252 -0.1923  2.5991
  196MOL0     H26994   2.485   1.454   7.107  2.1317  2.0041 -0.6028
  196MOL0     H26995   2.517   1.447   7.407  1.6472 -0.3349 -1.8633
  196MOL0     H26996   2.439   1.571   7.303 -3.2171 -0.2463 -1.8556
  196MOL0     H26997   2.232   1.357   7.132  1.8923  0.9641 -0.7843
  196MOL0     H26998   1.909   1.306   7.279 -0.1507 -0.5829 -0.2971
  196MOL0     H26999   1.998   1.165   7.334  0.2564 -2.7931 -1.8194
  196MOL0     H27000   2.020   1.288   7.065 -0.2571  0.7068  1.9017
  196MOL0     H27001   2.114   1.143   7.114 -0.5283  0.1953 -0.4548
  196MOL0     H27002   1.870   1.041   7.150  0.9234  0.0543  0.7175
  196MOL0     H27003   1.810   1.186   7.063  0.4384  1.4859 -3.1942
  196MOL0     H27004   1.843   1.037   6.870  1.1511 -1.6901 -1.4334
  196MOL0     H27005   1.974   1.145   6.877 -0.3353  1.5734  2.7303
  196MOL0     H27006   2.159   0.738   6.933 -1.0846  2.5403  0.0073
  196MOL0     H27007   2.176   0.497   7.157 -2.7175 -2.4408  0.7675
  196MOL0     H27008   2.234   0.563   7.011 -0.9819  3.8013  3.7975
  196MOL0     H27009   2.132   0.408   7.006  2.1439 -1.0992  0.5696
  196MOL0     H27010   1.634   0.247   7.077 -4.6434  0.1887 -0.4745
  196MOL0     H27011   1.552   0.031   7.185 -2.2901 -0.3333  0.6507
  196MOL0     H27012   1.424  -0.117   7.300  1.7509 -0.3405 -1.1981
  196MOL0     H27013   1.583  -0.163   7.337  0.5734 -0.6274  1.7490
  196MOL0     H27014   1.553  -0.238   7.546 -0.4653  2.2543  0.9985
  196MOL0     H27015   1.373  -0.201   7.549 -0.5246 -0.6600 -0.0062
  196MOL0     H27016   1.443  -0.436   7.502 -0.3632 -1.7451 -3.3561
  196MOL0     H27017   1.516  -0.380   7.358  0.6492 -3.6154  1.9812
  196MOL0     H27018   1.268  -0.314   7.280 -0.0762  2.5949  2.7606
  196MOL0     H27019   1.211  -0.372   7.436 -0.0446  4.3683 -0.0588
  196MOL0     H27020   1.365  -0.549   7.247 -1.2964 -2.4745 -0.6326
  196MOL0     H27021   1.300  -0.601   7.403  2.2434  0.4876 -1.1543
  196MOL0     H27022   1.121  -0.496   7.179 -2.1471  0.8021 -0.5690
  196MOL0     H27023   1.082  -0.542   7.348  0.4672 -0.1516 -1.0914
  196MOL0     H27024   1.127  -0.766   7.302  2.1136  2.5281  1.5418
  196MOL0     H27025   1.196  -0.736   7.135  0.7847 -6.8690  1.8970
  196MOL0     H27026   0.970  -0.655   7.077  1.5354 -5.2962 -6.0562
  196MOL0     H27027   0.890  -0.728   7.214  1.0291  0.7047  1.1200
  196MOL0     H27028   1.603   0.242   7.571  0.0776 -1.4251 -0.2812
  196MOL0     H27029   1.720   0.427   7.445  1.4176 -0.5261  0.7157
  196MOL0     H27030   1.715   0.687   7.126 -0.0267  1.3650  1.9614
  196MOL0     H27031   1.781   0.886   7.017  1.7938  1.1627  0.1204
  196MOL0     H27032   3.142   1.024   6.582  1.3000  0.5237 -1.1069
  196MOL0     H27033   3.261   0.915   6.424  1.6949  6.0443 -1.4759
  196MOL0     H27034   3.854   0.754   6.328 -1.1727 -0.0226  0.8842
  196MOL0     H27035   3.939   0.618   6.187 -0.8013  2.0265  1.9408
  196MOL0     H27036   3.984   0.527   5.957  1.2093  0.2356 -1.2662
  196MOL0     H27037   3.961   0.384   6.065 -0.0938  0.3580 -0.7912
  196MOL0     H27038   3.879   0.265   5.865  3.2598 -3.8653 -2.6344
  196MOL0     H27039   4.057   0.312   5.847 -0.4934 -2.3363 -2.8961
  196MOL0     H27040   3.845   0.326   5.662 -0.5129 -1.5169  1.8964
  196MOL0     H27041   3.835   0.477   5.750  2.0970 -0.8878  4.0282
  196MOL0     H27042   3.973   0.529   5.558 -2.9355  1.2858  2.7347
  196MOL0     H27043   4.076   0.392   5.584  1.5506  0.6513 -0.4429
  196MOL0     H27044   4.188   0.752   5.811 -0.5972 -0.3245  2.5556
  196MOL0     H27045   3.539   0.525   6.023 -1.0468  0.0671  0.0167
  196MOL0     H27046   3.351   0.605   6.134 -1.0726  0.0742  0.6629
  196MOL0     H27047   3.391   0.611   6.303 -0.2995  1.2555 -0.1725
  196MOL0     H27048   3.375   0.765   6.220  0.9943  1.5653 -0.5164
  197MOL0     O27049   3.192  10.232   5.506 -0.0106 -0.7693 -0.6205
  197MOL0     C27050   3.153  10.129   5.552  0.3477  0.1844 -0.8526
  197MOL0     O27051   3.207  10.004   5.530  0.2989  0.1394 -0.3975
  197MOL0     C27052   3.339   9.993   5.501 -0.0888 -0.1862 -0.6407
  197MOL0     C27053   3.440  10.036   5.584 -0.1057  0.0932 -0.2169
  197MOL0     C27054   3.578  10.018   5.557 -0.3801  1.5066 -1.1515
  197MOL0     C27055   3.615   9.956   5.441 -0.2006 -0.8089  0.2442
  197MOL0     O27056   3.747   9.964   5.415 -0.0033 -0.4799 -0.0763
  197MOL0     C27057   3.807   9.891   5.306 -0.2903  1.1035  0.3777
  197MOL0     C27058   3.956   9.947   5.293  0.6133 -0.6321  0.3530
  197MOL0     C27059   3.955  10.089   5.243  0.5740 -0.4214 -0.0356
  197MOL0     C27060   4.091  10.151   5.253  0.6656  0.5008 -0.7194
  197MOL0     C27061   4.078  10.300   5.238  0.3614 -0.5440 -0.3304
  197MOL0     C27062   4.208  10.380   5.277  0.0416 -0.8118  0.0251
  197MOL0     C27063   4.175  10.522   5.265  0.4611 -0.5821  0.1497
  197MOL0     C27064   4.281  10.602   5.200  0.2735 -0.5485 -0.3703
  197MOL0     N27065   4.275  10.749   5.221  0.4841  0.2581  0.0940
  197MOL0     C27066   4.158  10.813   5.276 -0.5622  0.6449  0.5208
  197MOL0     C27067   4.193  10.942   5.277  0.1001  0.2526  0.1673
  197MOL0     C27068   4.100  11.044   5.321  0.2655 -0.3480 -1.0033
  197MOL0     C27069   4.117  11.097   5.464  0.4783  0.1755 -0.4921
  197MOL0     C27070   4.106  10.979   5.566 -0.1956 -0.2904  0.5558
  197MOL0     C27071   4.126  11.034   5.711  0.3025  0.6275  0.3603
  197MOL0     O27072   3.993  11.062   5.740  0.4374  0.1968 -0.2105
  197MOL0     C27073   3.956  11.129   5.850 -1.4950 -0.7638  0.5879
  197MOL0     C27074   4.028  11.235   5.895 -0.6837  0.2667  0.2021
  197MOL0     C27075   3.986  11.311   6.007 -0.2650 -0.2246 -0.4057
  197MOL0     C27076   4.093  11.406   6.076  0.2184  0.5118  0.0871
  197MOL0     C27077   3.851  11.285   6.066 -0.0160  0.5450  0.7305
  197MOL0     C27078   3.783  11.369   6.164  0.6932 -0.1885  0.2823
  197MOL0     O27079   3.651  11.340   6.177 -0.0472 -0.7469  0.4513
  197MOL0     C27080   3.593  11.363   6.299  0.7325  0.2326 -0.4138
  197MOL0     C27081   3.516  11.476   6.318 -0.1177 -0.2980 -0.0777
  197MOL0     C27082   3.454  11.506   6.438  0.9943  0.7290 -0.4288
  197MOL0     C27083   3.462  11.406   6.533  0.1717 -0.8147  0.2099
  197MOL0     O27084   3.406  11.447   6.656 -0.3240  0.9683 -0.6116
  197MOL0     C27085   3.500  11.451   6.766 -0.4766  0.1552  0.6903
  197MOL0     C27086   3.569  11.592   6.770  0.4702 -0.3870  0.2869
  197MOL0     C27087   3.475  11.712   6.803  0.0388  0.1154  1.1386
  197MOL0     C27088   3.404  11.674   6.937 -0.3326  0.4562  0.0900
  197MOL0     C27089   3.345  11.794   7.007  0.3632 -0.0841  0.3785
  197MOL0     C27090   3.219  11.851   6.948  0.0738 -0.4612  0.0016
  197MOL0     C27091   3.086  11.767   6.958  0.7700 -0.1413  0.1397
  197MOL0     C27092   3.026  11.815   7.084 -1.0220  0.2477 -0.4840
  197MOL0    Cl27093   2.880  11.723   7.121  0.2078 -0.0725 -0.4136
  197MOL0     C27094   3.531  11.285   6.524  0.1336 -0.3713 -0.6934
  197MOL0     C27095   3.591  11.260   6.399  0.3606 -0.3030 -0.7925
  197MOL0     O27096   3.841  11.473   6.203  0.5600 -0.5890 -0.1786
  197MOL0     C27097   3.788  11.170   6.013 -0.0866 -0.5436  0.1475
  197MOL0     C27098   3.838  11.107   5.905 -0.8518  0.7418  0.4999
  197MOL0     N27099   4.327  10.957   5.238  0.3978 -0.1080  0.0998
  197MOL0     N27100   4.379  10.841   5.212  0.1196  0.2573  0.3085
  197MOL0     C27101   3.509   9.916   5.359  0.0203 -0.8105  0.8191
  197MOL0     C27102   3.371   9.935   5.383 -0.3940  0.2691  0.1890
  197MOL0     C27103   3.045  10.135   5.661 -1.0183  0.5526  0.4924
  197MOL0     C27104   3.045  10.031   5.752 -0.9799 -0.6294 -0.2044
  197MOL0     C27105   2.946  10.013   5.851 -0.3392  0.4559 -0.0974
  197MOL0     C27106   2.839  10.098   5.861 -0.4924 -0.3516 -0.9932
  197MOL0     O27107   2.737  10.087   5.956  0.9731  0.2597 -0.0557
  197MOL0     C27108   2.746  10.029   6.088 -0.1659  0.2036 -0.7474
  197MOL0     C27109   2.804  10.135   6.172  0.1977 -1.0132 -0.9739
  197MOL0     C27110   2.693  10.229   6.219  0.6131 -0.1552  0.1122
  197MOL0     C27111   2.655  10.215   6.361  0.6099 -0.8691 -0.0136
  197MOL0     C27112   2.582  10.094   6.393  0.6296  0.8732 -0.1335
  197MOL0     C27113   2.527   9.989   6.410  0.0117 -0.5698 -0.2616
  197MOL0     C27114   2.834  10.205   5.775  0.7880  0.9679 -0.4202
  197MOL0     C27115   2.932  10.225   5.671  1.0942 -0.6586  0.2292
  197MOL0     C27116   2.907  10.345   5.568  0.2327  0.5157 -0.3364
  197MOL0     H27117   3.411  10.076   5.680 -4.3163  2.0625 -2.0480
  197MOL0     H27118   3.641  10.054   5.638 -2.1986  0.4490  0.8393
  197MOL0     H27119   3.756   9.895   5.209  0.9804  2.2489 -0.2838
  197MOL0     H27120   3.809   9.783   5.323  2.4078  1.4312  2.9626
  197MOL0     H27121   4.010   9.941   5.388  0.2402  0.4898  0.6497
  197MOL0     H27122   4.013   9.880   5.227 -3.9890 -3.6851 -1.0359
  197MOL0     H27123   3.932  10.106   5.138  0.8503  3.6407  0.3827
  197MOL0     H27124   3.881  10.153   5.292 -2.8157 -1.8334 -2.9231
  197MOL0     H27125   4.139  10.126   5.348  1.3320 -0.7403 -1.3678
  197MOL0     H27126   4.155  10.105   5.178  0.5815 -4.7474  1.9698
  197MOL0     H27127   3.997  10.335   5.302  1.7278 -0.2715  1.3214
  197MOL0     H27128   4.051  10.322   5.134  1.4950 -1.3272 -0.8145
  197MOL0     H27129   4.231  10.375   5.384 -0.0683  2.3012  0.2872
  197MOL0     H27130   4.293  10.338   5.224  1.3668  0.0330  1.4039
  197MOL0     H27131   4.164  10.560   5.367 -1.5317  0.5107 -0.4192
  197MOL0     H27132   4.077  10.531   5.218 -0.4254 -1.5868  1.6981
  197MOL0     H27133   4.381  10.569   5.229  0.1325 -0.7150 -0.0743
  197MOL0     H27134   4.268  10.590   5.092  0.2073  1.0470 -0.5649
  197MOL0     H27135   4.064  10.768   5.306 -0.7226 -0.0540 -0.9214
  197MOL0     H27136   4.003  10.995   5.311 -0.3395  0.7240 -0.4874
  197MOL0     H27137   4.099  11.141   5.269  2.8624 -0.4281 -1.3652
  197MOL0     H27138   4.211  11.153   5.475 -0.2436  1.2022  0.7055
  197MOL0     H27139   4.038  11.171   5.481  0.7687  0.2074  0.8022
  197MOL0     H27140   4.013  10.922   5.555  0.9735 -1.8783 -2.4110
  197MOL0     H27141   4.191  10.912   5.553 -0.7377 -1.0510  0.8569
  197MOL0     H27142   4.185  10.963   5.770  2.5088  3.3563  1.6388
  197MOL0     H27143   4.195  11.119   5.715 -0.4999  1.3350 -0.3341
  197MOL0     H27144   4.121  11.274   5.853 -0.2959  0.6514  1.3773
  197MOL0     H27145   4.074  11.404   6.184 -4.7639 -2.3748 -0.5346
  197MOL0     H27146   4.075  11.506   6.034 -3.2364  0.6439  1.5250
  197MOL0     H27147   4.195  11.374   6.055  1.2573  1.2192  3.4611
  197MOL0     H27148   3.516  11.542   6.232  1.1695 -1.9511 -1.4269
  197MOL0     H27149   3.386  11.588   6.457 -0.8003 -1.0779  1.5126
  197MOL0     H27150   3.437  11.432   6.852 -2.2535 -2.5285 -1.0489
  197MOL0     H27151   3.574  11.370   6.763  0.9526  1.4147 -1.2824
  197MOL0     H27152   3.643  11.584   6.851  0.7306  0.7077  0.1729
  197MOL0     H27153   3.624  11.615   6.678 -0.3706 -0.0048 -0.1273
  197MOL0     H27154   3.407  11.739   6.721 -0.5435 -1.1843  1.1759
  197MOL0     H27155   3.532  11.805   6.812 -2.5364  1.8649  0.4200
  197MOL0     H27156   3.472  11.616   6.999 -0.5733 -3.5559 -2.9679
  197MOL0     H27157   3.316  11.611   6.920 -1.4040  1.4358  1.7475
  197MOL0     H27158   3.325  11.760   7.109  0.8102  1.1756  0.9151
  197MOL0     H27159   3.424  11.870   7.019 -1.0849  1.3655  1.1176
  197MOL0     H27160   3.243  11.852   6.842  3.1417 -3.5569  0.4915
  197MOL0     H27161   3.205  11.955   6.979  1.5777 -1.2326  3.7838
  197MOL0     H27162   3.108  11.660   6.956  0.6719 -0.1880  1.0047
  197MOL0     H27163   3.022  11.791   6.872  1.6104 -0.3426 -0.5570
  197MOL0     H27164   3.002  11.921   7.074  0.0539  0.6653  0.9610
  197MOL0     H27165   3.093  11.797   7.168 -1.2648 -3.4097 -0.9290
  197MOL0     H27166   3.529  11.219   6.609 -1.5495  1.2881  0.6559
  197MOL0     H27167   3.656  11.173   6.401 -0.6380 -1.0770  1.4313
  197MOL0     H27168   3.691  11.140   6.053 -0.4233 -0.9684 -0.9383
  197MOL0     H27169   3.778  11.031   5.856  0.0076  2.5999 -3.8595
  197MOL0     H27170   3.527   9.882   5.257  1.0112  2.9019 -0.3872
  197MOL0     H27171   3.295   9.901   5.314  1.5977 -0.7999 -1.5885
  197MOL0     H27172   3.130   9.964   5.754 -1.6625 -1.5558 -1.0528
  197MOL0     H27173   2.956   9.925   5.914 -2.1240  0.6943  0.5837
  197MOL0     H27174   2.647   9.997   6.120  0.0871  1.1610  1.1306
  197MOL0     H27175   2.817   9.946   6.087  1.8882  1.8156 -3.0581
  197MOL0     H27176   2.878  10.181   6.107 -1.0313 -1.1662 -2.5250
  197MOL0     H27177   2.840  10.093   6.267 -0.3414 -0.8291 -0.6826
  197MOL0     H27178   2.720  10.329   6.184  0.0351  0.1278  0.4571
  197MOL0     H27179   2.605  10.226   6.154  0.0701 -0.5128  0.8473
  197MOL0     H27180   2.594  10.297   6.401 -1.0652 -2.3382  0.6181
  197MOL0     H27181   2.740  10.218   6.429 -0.8511  4.7020  2.1786
  197MOL0     H27182   2.481   9.897   6.443 -1.9513  0.4470 -0.0009
  197MOL0     H27183   2.749  10.272   5.772 -0.7880 -0.9616 -2.5290
  197MOL0     H27184   2.888  10.295   5.473 -3.2676  0.1800  0.3931
  197MOL0     H27185   2.817  10.400   5.595 -0.9992 -1.1208 -0.9064
  197MOL0     H27186   2.992  10.413   5.561 -0.2198  1.0288 -0.9681
  198MOL0     O27187  10.046  10.984   8.884 -1.2550  0.0908 -0.9419
  198MOL0     C27188  10.143  11.059   8.859  0.1235 -0.2694  0.5963
  198MOL0     O27189  10.215  11.057   8.740 -0.1594  0.5557 -0.3404
  198MOL0     C27190  10.180  10.995   8.621  0.3039 -0.1621 -0.0140
  198MOL0     C27191  10.270  11.008   8.515 -0.3896  0.3624 -0.2463
  198MOL0     C27192  10.232  10.962   8.385 -0.0183 -0.4130  0.2087
  198MOL0     C27193  10.106  10.911   8.358  0.4140 -0.6951 -0.3681
  198MOL0     O27194  10.094  10.888   8.220  1.1507  0.6257 -0.4987
  198MOL0     C27195   9.993  10.793   8.191  0.0040  0.2971  0.6578
  198MOL0     C27196   9.981  10.775   8.042 -0.3162 -0.4752  0.3866
  198MOL0     C27197  10.097  10.682   7.991 -0.1645  0.0240 -1.1241
  198MOL0     C27198  10.073  10.654   7.847 -0.0412  0.1925  0.4862
  198MOL0     C27199  10.207  10.611   7.773 -0.3078 -0.6832  0.3836
  198MOL0     C27200  10.175  10.599   7.620  0.2407 -0.2829 -0.2790
  198MOL0     C27201  10.295  10.602   7.527 -0.0443  0.9799  0.7971
  198MOL0     C27202  10.250  10.609   7.384  0.2872 -0.0703  0.4634
  198MOL0     N27203  10.151  10.506   7.346 -0.4005 -0.1842 -1.4767
  198MOL0     C27204  10.014  10.527   7.324 -1.0743 -0.6436 -0.9429
  198MOL0     C27205   9.966  10.411   7.286 -0.3880  1.5697 -0.4534
  198MOL0     C27206   9.826  10.389   7.213 -0.5893 -0.3896  0.1082
  198MOL0     C27207   9.724  10.321   7.305 -0.2570  0.3164 -0.8134
  198MOL0     C27208   9.695  10.175   7.261  1.0335  0.3018 -1.1131
  198MOL0     C27209   9.820  10.088   7.287  0.9352  0.6178 -1.5041
  198MOL0     O27210   9.784   9.948   7.277 -0.3556 -0.3162  0.4821
  198MOL0     C27211   9.891   9.863   7.293  0.4131  0.4158  0.1339
  198MOL0     C27212  10.013   9.889   7.357  0.7777 -0.3395  0.0197
  198MOL0     C27213  10.115   9.794   7.384  0.5468 -0.9550  0.1470
  198MOL0     C27214  10.232   9.835   7.468  0.6692 -0.0239  0.0168
  198MOL0     C27215  10.100   9.659   7.345 -0.3048 -0.1484  0.3379
  198MOL0     C27216  10.179   9.549   7.406  0.3686 -0.3968  0.1292
  198MOL0     O27217  10.104   9.437   7.442 -0.5353  0.1064  0.0437
  198MOL0     C27218  10.165   9.332   7.514 -0.1802 -0.4490 -1.1166
  198MOL0     C27219  10.124   9.202   7.494  0.1793  0.2200  0.3732
  198MOL0     C27220  10.170   9.086   7.568 -0.9587  0.1135  0.1143
  198MOL0     C27221  10.271   9.108   7.661  0.7982  0.4888  0.0801
  198MOL0     O27222  10.304   8.992   7.725  0.2137  0.3135  0.6284
  198MOL0     C27223  10.445   8.972   7.747  0.1854 -0.1436  0.0655
  198MOL0     C27224  10.488   8.843   7.691  0.3724 -0.2372 -0.1728
  198MOL0     C27225  10.475   8.829   7.538 -0.0763 -0.2988 -0.6584
  198MOL0     C27226  10.596   8.751   7.487 -0.4367 -0.5432 -0.5178
  198MOL0     C27227  10.596   8.758   7.335 -0.4265 -0.1346  0.0996
  198MOL0     C27228  10.710   8.681   7.273  0.4939  0.3872 -0.5305
  198MOL0     C27229  10.750   8.712   7.136 -0.1736 -0.3978  0.4181
  198MOL0     C27230  10.905   8.713   7.131  0.4694 -0.5008 -0.2392
  198MOL0    Cl27231  10.961   8.554   7.181 -0.2388 -0.4924 -0.4837
  198MOL0     C27232  10.315   9.238   7.687  1.1845 -0.7398 -0.0472
  198MOL0     C27233  10.258   9.346   7.616 -0.5746 -0.1323 -0.3000
  198MOL0     O27234  10.305   9.549   7.402 -0.3982 -0.5128  0.2148
  198MOL0     C27235   9.983   9.632   7.263  0.0876  0.8020  0.1029
  198MOL0     C27236   9.885   9.730   7.241 -0.0628 -1.1483 -0.1089
  198MOL0     N27237  10.058  10.312   7.302 -0.5467 -0.9260  0.6746
  198MOL0     N27238  10.170  10.364   7.331  0.3688 -0.5342  0.8384
  198MOL0     C27239  10.024  10.893   8.463  0.2701 -0.6900  0.8441
  198MOL0     C27240  10.059  10.938   8.592  0.2685  0.4829  0.4300
  198MOL0     C27241  10.186  11.153   8.956 -0.3968 -0.1915  0.4144
  198MOL0     C27242  10.316  11.214   8.937 -0.3140  0.8438 -0.0003
  198MOL0     C27243  10.366  11.314   9.022 -1.1254 -0.1282 -0.3268
  198MOL0     C27244  10.288  11.362   9.125 -0.5184 -0.5276 -0.2772
  198MOL0     O27245  10.323  11.464   9.215  0.3124 -0.0003 -0.0017
  198MOL0     C27246  10.232  11.505   9.318  0.2561  0.8131 -0.4548
  198MOL0     C27247  10.106  11.573   9.263  0.1954  0.8841  0.7549
  198MOL0     C27248  10.148  11.688   9.173 -0.4873 -0.3322  0.2061
  198MOL0     C27249  10.198  11.814   9.249  0.0637 -0.5913 -0.7065
  198MOL0     C27250  10.223  11.929   9.161  0.6137  1.1909 -0.3181
  198MOL0     C27251  10.270  12.012   9.092 -1.1035  1.2478  0.5524
  198MOL0     C27252  10.168  11.299   9.148 -0.4304  0.6080 -0.8336
  198MOL0     C27253  10.114  11.192   9.071 -0.4802 -0.4222 -0.3845
  198MOL0     C27254   9.978  11.143   9.125 -0.8115 -0.1804  0.8629
  198MOL0     H27255  10.362  11.056   8.544 -0.6661 -1.2066  3.7926
  198MOL0     H27256  10.310  10.963   8.309 -0.5121 -0.7968 -0.3081
  198MOL0     H27257   9.896  10.826   8.231  0.1756  0.8161  0.6423
  198MOL0     H27258  10.012  10.691   8.227 -2.4211 -0.0524  1.1624
  198MOL0     H27259   9.880  10.745   8.014 -1.1066 -0.7351  3.1678
  198MOL0     H27260   9.977  10.873   7.995  1.8879 -1.5670 -2.3849
  198MOL0     H27261  10.196  10.721   8.014 -0.5131  1.0752 -1.3633
  198MOL0     H27262  10.084  10.581   8.033 -5.4807 -1.9364 -6.0737
  198MOL0     H27263  10.000  10.576   7.822  0.5580  0.6448 -3.3041
  198MOL0     H27264  10.040  10.747   7.799  0.1435  0.7218  1.3730
  198MOL0     H27265  10.256  10.529   7.826  0.4710  0.5784  1.7102
  198MOL0     H27266  10.277  10.694   7.787 -1.0919  0.0154  0.2397
  198MOL0     H27267  10.107  10.515   7.599 -0.2665 -0.2946  1.3020
  198MOL0     H27268  10.116  10.684   7.586  1.3221 -0.3323 -2.4530
  198MOL0     H27269  10.348  10.506   7.536 -1.6194  0.1552  1.6602
  198MOL0     H27270  10.378  10.671   7.545  0.0549  0.7020  1.4467
  198MOL0     H27271  10.219  10.713   7.366  2.6105  0.4577 -1.1107
  198MOL0     H27272  10.342  10.598   7.325 -1.6898  0.9303 -3.0864
  198MOL0     H27273   9.969  10.621   7.295 -0.5539 -0.6003 -1.6460
  198MOL0     H27274   9.854  10.335   7.122  0.7550 -1.1332  0.9202
  198MOL0     H27275   9.789  10.486   7.177  1.9882  0.5034 -0.4003
  198MOL0     H27276   9.760  10.302   7.406 -0.2737 -0.7438 -0.9944
  198MOL0     H27277   9.633  10.381   7.298 -0.3333  0.1623 -1.1895
  198MOL0     H27278   9.618  10.128   7.323 -1.3664  2.7396 -2.0368
  198MOL0     H27279   9.649  10.163   7.162 -1.4051 -0.1466  0.0168
  198MOL0     H27280   9.905  10.120   7.226  0.4000  2.1481 -1.5089
  198MOL0     H27281   9.856  10.120   7.386 -1.1015 -0.3885 -0.3725
  198MOL0     H27282  10.032   9.991   7.390  0.9783  1.2003 -4.2305
  198MOL0     H27283  10.250   9.942   7.476 -1.5851  0.2414  3.0175
  198MOL0     H27284  10.314   9.788   7.412  0.0745 -1.8754  0.6246
  198MOL0     H27285  10.225   9.781   7.562  0.7089 -1.2320 -0.6533
  198MOL0     H27286  10.039   9.187   7.428 -0.0277 -0.6193  0.8191
  198MOL0     H27287  10.120   8.991   7.551  0.9760 -1.0105  0.4890
  198MOL0     H27288  10.517   9.049   7.718  1.1562 -0.8533  0.5236
  198MOL0     H27289  10.441   8.960   7.856  1.8484  0.8165  0.2596
  198MOL0     H27290  10.586   8.811   7.727  0.3399 -0.1835 -0.0318
  198MOL0     H27291  10.421   8.772   7.743  1.8647 -0.8784  0.9561
  198MOL0     H27292  10.452   8.923   7.486 -3.6743 -1.4118 -1.3903
  198MOL0     H27293  10.387   8.769   7.513 -0.5897  1.1406 -2.4795
  198MOL0     H27294  10.583   8.646   7.515 -1.0856 -0.4383 -0.4053
  198MOL0     H27295  10.687   8.789   7.534 -0.7126 -0.4851 -0.0173
  198MOL0     H27296  10.503   8.728   7.286  0.3414 -1.9173 -0.3567
  198MOL0     H27297  10.604   8.865   7.315 -1.8522  0.8172  3.8105
  198MOL0     H27298  10.684   8.575   7.281  1.5929  0.2356  1.9538
  198MOL0     H27299  10.797   8.694   7.338  2.0976 -2.5253 -1.8960
  198MOL0     H27300  10.707   8.810   7.114  0.5953 -0.2492 -0.5191
  198MOL0     H27301  10.705   8.644   7.064  3.3334 -0.3675 -2.0726
  198MOL0     H27302  10.949   8.792   7.192 -0.3621  0.3901 -0.7824
  198MOL0     H27303  10.930   8.734   7.027 -1.5626  3.0488 -0.1656
  198MOL0     H27304  10.383   9.237   7.771 -2.2044 -1.8285  2.9491
  198MOL0     H27305  10.297   9.445   7.640  0.2262 -1.0444  2.5518
  198MOL0     H27306   9.977   9.528   7.231  0.0365  1.0956 -0.8833
  198MOL0     H27307   9.792   9.723   7.187  0.5951  3.6629 -2.4951
  198MOL0     H27308   9.928  10.845   8.473 -0.7368  1.3760  1.8402
  198MOL0     H27309   9.983  10.930   8.669 -0.5693 -0.8729 -0.4912
  198MOL0     H27310  10.373  11.192   8.847 -2.5321 -0.2088 -1.2567
  198MOL0     H27311  10.458  11.368   9.000 -0.2291 -0.6191  1.9060
  198MOL0     H27312  10.194  11.426   9.384  0.7812  0.8216 -0.1389
  198MOL0     H27313  10.288  11.576   9.379 -1.8625  0.9326  1.4909
  198MOL0     H27314  10.038  11.597   9.346 -0.0702  0.4019  0.6838
  198MOL0     H27315  10.049  11.506   9.197  1.5263 -1.5512  1.9576
  198MOL0     H27316  10.224  11.640   9.110 -0.6087  0.1815 -0.3474
  198MOL0     H27317  10.071  11.726   9.105 -1.1808 -0.2826  1.0065
  198MOL0     H27318  10.290  11.796   9.306 -1.8782 -2.1103  2.2285
  198MOL0     H27319  10.132  11.853   9.327  0.7372  3.2582 -1.8601
  198MOL0     H27320  10.309  12.090   9.028  2.0531 -0.1515  0.6019
  198MOL0     H27321  10.115  11.318   9.241 -0.9190  0.0483 -0.9914
  198MOL0     H27322   9.979  11.149   9.234  2.4318 -3.5616  1.2213
  198MOL0     H27323   9.901  11.191   9.063 -2.2584 -1.0823  1.8999
  198MOL0     H27324   9.968  11.036   9.105 -0.7077 -0.1902  0.8665
  199MOL0     O27325   6.120   3.492   8.984 -1.0909  0.0899 -0.2049
  199MOL0     C27326   6.053   3.478   9.081  0.6847 -0.0129  0.2675
  199MOL0     O27327   6.038   3.366   9.159 -0.1284 -0.1944  0.1201
  199MOL0     C27328   6.076   3.240   9.123  0.7513  0.0859 -0.1772
  199MOL0     C27329   6.042   3.144   9.214  0.1730  0.1426 -0.0661
  199MOL0     C27330   6.064   3.008   9.190  0.0934 -0.6805 -0.9811
  199MOL0     C27331   6.096   2.964   9.068  0.3136 -0.0861 -0.4875
  199MOL0     O27332   6.107   2.831   9.052  0.3811  0.2625 -0.5128
  199MOL0     C27333   6.121   2.778   8.923  0.0611 -0.4073  0.9139
  199MOL0     C27334   6.051   2.635   8.935 -1.1629 -0.5707 -0.6816
  199MOL0     C27335   6.028   2.549   8.810 -0.0197 -0.0945  0.8214
  199MOL0     C27336   6.158   2.522   8.736  0.4328 -0.2946 -0.0090
  199MOL0     C27337   6.149   2.410   8.632  1.5865  0.8556 -0.5683
  199MOL0     C27338   6.068   2.448   8.500 -0.6282 -0.0114 -0.8165
  199MOL0     C27339   6.066   2.343   8.383  0.3580  0.2380 -0.2963
  199MOL0     C27340   5.944   2.381   8.296  0.8187 -0.7628 -1.0200
  199MOL0     N27341   5.824   2.303   8.334  0.4885 -0.1832 -0.8655
  199MOL0     C27342   5.762   2.224   8.240 -0.2602 -0.3527  0.2096
  199MOL0     C27343   5.651   2.185   8.305 -0.0544  0.1735  0.2786
  199MOL0     C27344   5.563   2.084   8.237 -0.4635  0.4208  0.5960
  199MOL0     C27345   5.461   2.133   8.139  0.5848  0.4573 -1.2713
  199MOL0     C27346   5.314   2.128   8.193  0.4845  0.5940 -0.5996
  199MOL0     C27347   5.211   2.205   8.115 -0.9402  0.1894  0.3149
  199MOL0     O27348   5.093   2.200   8.194  0.0169  0.9134 -0.3152
  199MOL0     C27349   4.977   2.194   8.120 -0.2459 -0.4274 -0.3800
  199MOL0     C27350   4.898   2.076   8.099  0.1896  0.8541 -0.1804
  199MOL0     C27351   4.793   2.073   8.003  0.8845 -0.3426 -0.1665
  199MOL0     C27352   4.724   1.943   8.003 -0.0792  0.0341  0.6186
  199MOL0     C27353   4.749   2.193   7.936 -0.2214 -0.2196  0.0179
  199MOL0     C27354   4.617   2.201   7.862 -0.6816 -0.5307  1.1674
  199MOL0     O27355   4.617   2.321   7.786  0.4242 -0.8294 -0.1940
  199MOL0     C27356   4.541   2.340   7.672 -0.7600 -0.0370 -0.4521
  199MOL0     C27357   4.479   2.247   7.597  0.0694 -0.2159 -1.0808
  199MOL0     C27358   4.402   2.268   7.481  0.1909 -0.5218 -0.2435
  199MOL0     C27359   4.387   2.405   7.444 -0.1783 -0.2052 -0.2976
  199MOL0     O27360   4.317   2.456   7.337  0.1670 -0.2743  0.5646
  199MOL0     C27361   4.235   2.367   7.258  0.3902 -0.5737  0.0753
  199MOL0     C27362   4.151   2.446   7.163 -0.6538 -0.3383  0.4154
  199MOL0     C27363   4.233   2.550   7.083 -0.3181 -0.4563  0.5710
  199MOL0     C27364   4.341   2.502   6.990 -0.5418  0.4575  0.2470
  199MOL0     C27365   4.419   2.619   6.935  0.0329 -0.9017 -0.3906
  199MOL0     C27366   4.506   2.569   6.818 -1.1133  0.4626 -0.7272
  199MOL0     C27367   4.605   2.680   6.771  0.2559 -0.7094 -0.7019
  199MOL0     C27368   4.721   2.725   6.862 -0.1499  0.0113 -0.7471
  199MOL0    Cl27369   4.858   2.601   6.857  0.1605 -0.3617  0.0365
  199MOL0     C27370   4.445   2.499   7.529  0.0023 -0.3212 -1.0414
  199MOL0     C27371   4.532   2.475   7.629  0.0729 -0.1444  0.1216
  199MOL0     O27372   4.541   2.109   7.859  0.0068  0.7499  0.6432
  199MOL0     C27373   4.824   2.304   7.963 -0.0195 -0.9865 -0.4635
  199MOL0     C27374   4.941   2.307   8.050  0.1413  0.0734 -0.0915
  199MOL0     N27375   5.640   2.247   8.426 -0.5491 -0.2171 -0.7891
  199MOL0     N27376   5.734   2.325   8.439 -0.3982  0.5340 -0.0971
  199MOL0     C27377   6.111   3.055   8.960 -0.6109  0.8904 -0.0757
  199MOL0     C27378   6.101   3.190   8.995 -0.2717  0.8313  1.1134
  199MOL0     C27379   5.972   3.597   9.114 -0.1971  0.3360 -0.7102
  199MOL0     C27380   5.924   3.675   9.016  0.2193 -1.1807  0.2048
  199MOL0     C27381   5.832   3.776   9.049  0.0156 -0.0733 -0.7976
  199MOL0     C27382   5.782   3.796   9.178  1.0281  0.5898 -0.3054
  199MOL0     O27383   5.677   3.878   9.205 -0.3323 -0.3666 -0.5418
  199MOL0     C27384   5.620   3.971   9.104  0.3193 -0.7790  0.5838
  199MOL0     C27385   5.718   4.089   9.082 -0.1765  0.0384 -0.2289
  199MOL0     C27386   5.695   4.187   9.189  0.5210  0.0715 -0.2182
  199MOL0     C27387   5.792   4.312   9.208 -0.0736 -0.1338  0.3669
  199MOL0     C27388   5.932   4.281   9.232  0.4443  0.1635 -0.0192
  199MOL0     C27389   6.045   4.261   9.270  0.2907 -1.0440  0.3596
  199MOL0     C27390   5.830   3.713   9.277 -0.5621  0.2143 -0.4720
  199MOL0     C27391   5.924   3.614   9.248 -0.8907 -0.2809  0.6577
  199MOL0     C27392   5.975   3.541   9.366  0.5246  0.3193  0.3721
  199MOL0     H27393   5.994   3.180   9.304 -0.3160  1.0674 -0.6780
  199MOL0     H27394   6.054   2.929   9.263 -1.2062  0.7434  0.4504
  199MOL0     H27395   6.228   2.763   8.909 -0.1095 -0.1761 -0.7349
  199MOL0     H27396   6.082   2.832   8.837  1.0171 -0.5618  0.3712
  199MOL0     H27397   6.116   2.572   8.996  2.0145  0.9931 -2.1958
  199MOL0     H27398   5.955   2.645   8.987 -1.7227 -3.5987 -0.9270
  199MOL0     H27399   5.988   2.456   8.850 -1.5640 -0.7280 -1.9226
  199MOL0     H27400   5.949   2.598   8.752 -0.3436  2.1958  3.0013
  199MOL0     H27401   6.190   2.605   8.673 -1.5457  2.6008  2.5200
  199MOL0     H27402   6.236   2.500   8.810  1.8971 -0.2894 -1.4859
  199MOL0     H27403   6.104   2.321   8.676  0.6458 -0.0347 -3.1035
  199MOL0     H27404   6.254   2.389   8.610  1.8107  0.5904  0.7148
  199MOL0     H27405   5.969   2.472   8.538 -0.7221 -0.8822 -0.4697
  199MOL0     H27406   6.119   2.536   8.462  0.3532 -1.1532 -2.2663
  199MOL0     H27407   6.045   2.238   8.407  0.8525 -0.1110 -1.3399
  199MOL0     H27408   6.161   2.342   8.329  0.7802  0.9513  0.4100
  199MOL0     H27409   5.925   2.485   8.321 -2.5044 -1.6668  0.7874
  199MOL0     H27410   5.975   2.377   8.191 -0.4091  1.8255 -1.5443
  199MOL0     H27411   5.807   2.191   8.148  2.1887 -3.1996  2.2596
  199MOL0     H27412   5.513   2.022   8.312  0.2258 -0.3837  0.4039
  199MOL0     H27413   5.627   2.006   8.196  1.2915  0.8250  2.3941
  199MOL0     H27414   5.499   2.232   8.115  3.0450  0.3546  1.6158
  199MOL0     H27415   5.463   2.077   8.045  3.1115 -1.8697  0.0203
  199MOL0     H27416   5.281   2.024   8.199 -1.9210  1.3301 -0.1174
  199MOL0     H27417   5.308   2.170   8.294  0.0183  1.7902 -1.1078
  199MOL0     H27418   5.246   2.305   8.092  0.8731 -0.4803 -0.0253
  199MOL0     H27419   5.203   2.154   8.019 -1.6802  2.7613 -1.0512
  199MOL0     H27420   4.909   1.992   8.166 -3.1616  3.5138  4.2447
  199MOL0     H27421   4.786   1.854   8.006  2.3241  1.6029  0.3526
  199MOL0     H27422   4.673   1.932   7.907  0.2791 -2.5253  0.6746
  199MOL0     H27423   4.654   1.940   8.087  3.2949  3.3045  3.9504
  199MOL0     H27424   4.504   2.142   7.609  1.1190  0.3428  3.9732
  199MOL0     H27425   4.349   2.196   7.420  2.7226 -2.2196 -0.6273
  199MOL0     H27426   4.299   2.300   7.199  0.8844  1.4932 -1.8480
  199MOL0     H27427   4.168   2.312   7.325 -0.6181  3.1300  2.4282
  199MOL0     H27428   4.082   2.375   7.115  0.3783 -3.6763  3.3780
  199MOL0     H27429   4.085   2.497   7.234 -2.3003  0.1092 -1.3546
  199MOL0     H27430   4.283   2.624   7.147 -0.1178 -0.2498  0.1770
  199MOL0     H27431   4.169   2.607   7.016  3.3851  3.2568 -0.2265
  199MOL0     H27432   4.291   2.445   6.912 -0.5364 -1.1688  1.3880
  199MOL0     H27433   4.402   2.430   7.045 -1.9081  0.4604  1.8562
  199MOL0     H27434   4.352   2.700   6.905 -2.5128 -2.1985  1.4886
  199MOL0     H27435   4.496   2.654   7.005  2.9721  0.7315 -4.1070
  199MOL0     H27436   4.447   2.547   6.728  0.6076  2.4656 -2.4758
  199MOL0     H27437   4.551   2.473   6.845 -2.8081 -0.2789 -0.4212
  199MOL0     H27438   4.536   2.763   6.755  2.1964  0.9728 -0.7028
  199MOL0     H27439   4.647   2.641   6.678  0.1238 -0.2006 -0.9773
  199MOL0     H27440   4.687   2.731   6.966  3.4271  1.3987  0.5181
  199MOL0     H27441   4.754   2.824   6.829  1.4682  0.1813  1.1477
  199MOL0     H27442   4.438   2.601   7.491 -1.9955 -0.7231 -1.8777
  199MOL0     H27443   4.585   2.554   7.680 -0.0203 -2.2787  3.8524
  199MOL0     H27444   4.800   2.400   7.918  2.5044  0.0311  0.1448
  199MOL0     H27445   5.004   2.394   8.040  0.7262 -0.3521 -0.1434
  199MOL0     H27446   6.143   3.034   8.859 -0.3066  1.0926 -0.0228
  199MOL0     H27447   6.109   3.271   8.923 -0.6223  3.2742  3.6513
  199MOL0     H27448   5.966   3.665   8.917  0.6858  2.3103 -0.1049
  199MOL0     H27449   5.801   3.848   8.973  0.3900  2.9503  1.7360
  199MOL0     H27450   5.600   3.914   9.012 -3.5870 -1.4068  1.6599
  199MOL0     H27451   5.520   4.011   9.121 -0.6507 -0.7690 -3.8709
  199MOL0     H27452   5.679   4.133   8.989 -0.8225 -1.7774 -0.8456
  199MOL0     H27453   5.822   4.056   9.086 -0.7581 -1.8539  2.6581
  199MOL0     H27454   5.593   4.227   9.183  0.5946  0.6485  1.6827
  199MOL0     H27455   5.697   4.137   9.287 -2.0648  0.2853  0.0226
  199MOL0     H27456   5.753   4.367   9.294 -1.4536 -2.2584  1.2036
  199MOL0     H27457   5.777   4.378   9.122 -4.0686 -0.2712  0.7654
  199MOL0     H27458   6.151   4.252   9.285  0.7338  1.5853 -0.6468
  199MOL0     H27459   5.810   3.715   9.384  4.2967  0.0027  0.6782
  199MOL0     H27460   5.958   3.594   9.460 -0.5291 -1.2326  1.0994
  199MOL0     H27461   5.915   3.450   9.377  0.4084  0.4680  0.9997
  199MOL0     H27462   6.082   3.520   9.360  0.3613 -1.8088  2.9486
  200MOL0     O27463   7.489   6.801   3.679 -0.0451 -0.3898  0.5647
  200MOL0     C27464   7.507   6.874   3.582 -0.1278 -0.2735 -0.2765
  200MOL0     O27465   7.620   6.936   3.557  0.3479  0.1405 -0.0390
  200MOL0     C27466   7.722   6.930   3.639  0.5699  0.1368  0.1814
  200MOL0     C27467   7.723   7.014   3.759  0.9317  0.4015  0.0183
  200MOL0     C27468   7.837   7.009   3.845 -0.4941  0.3805 -0.0125
  200MOL0     C27469   7.949   6.926   3.815 -0.3375  0.2545 -0.0695
  200MOL0     O27470   8.064   6.918   3.888  0.8142 -0.3337 -0.8890
  200MOL0     C27471   8.070   6.967   4.024 -0.0725  0.1523  0.0546
  200MOL0     C27472   8.217   6.944   4.067  0.5730  0.1984  0.4327
  200MOL0     C27473   8.260   7.000   4.207 -0.0326  0.6986  0.3500
  200MOL0     C27474   8.408   7.003   4.207 -0.1773 -1.0481 -0.2418
  200MOL0     C27475   8.465   7.011   4.347  0.7440  0.4870  0.4464
  200MOL0     C27476   8.616   7.017   4.360 -0.3097 -0.1967 -0.7826
  200MOL0     C27477   8.688   7.029   4.500 -0.7320 -0.7457 -0.0499
  200MOL0     C27478   8.637   7.150   4.594 -0.1059  0.1357  0.5865
  200MOL0     N27479   8.753   7.195   4.676 -0.5074  0.1565 -0.7707
  200MOL0     C27480   8.826   7.315   4.659  1.2827 -0.0009  0.1449
  200MOL0     C27481   8.926   7.303   4.754 -0.1933 -0.0411  0.0659
  200MOL0     C27482   9.017   7.410   4.795 -0.0419  0.0621 -0.7719
  200MOL0     C27483   8.960   7.552   4.831  0.8947  0.4129  0.2502
  200MOL0     C27484   8.838   7.556   4.925  0.3182  0.7421 -0.7888
  200MOL0     C27485   8.889   7.517   5.067  0.2594  0.5195  0.4453
  200MOL0     O27486   8.790   7.541   5.159 -0.3208 -0.2909  0.2862
  200MOL0     C27487   8.693   7.448   5.182  0.5379 -0.1678  0.4537
  200MOL0     C27488   8.696   7.313   5.136 -0.3593 -0.6362 -0.4412
  200MOL0     C27489   8.594   7.221   5.152 -1.0078 -0.6754 -0.4070
  200MOL0     C27490   8.621   7.090   5.080 -0.1178 -0.4119 -0.2395
  200MOL0     C27491   8.488   7.261   5.230  0.1390 -0.7115 -0.3367
  200MOL0     C27492   8.379   7.164   5.273  0.0149  0.0741 -0.4763
  200MOL0     O27493   8.404   7.032   5.265  0.3450  0.6420  0.4921
  200MOL0     C27494   8.296   6.961   5.224  0.0434 -0.0520 -0.0104
  200MOL0     C27495   8.299   6.839   5.284 -0.3015  1.0352  0.0416
  200MOL0     C27496   8.206   6.739   5.248  0.5384  0.3690 -0.1474
  200MOL0     C27497   8.103   6.767   5.160  0.6623 -0.0838 -0.3466
  200MOL0     O27498   8.016   6.665   5.144  0.3418  0.6232 -0.2913
  200MOL0     C27499   7.894   6.699   5.080 -0.8997  0.3073 -0.6006
  200MOL0     C27500   7.806   6.573   5.055 -0.1588 -0.3457 -0.1349
  200MOL0     C27501   7.715   6.549   5.178 -0.5258 -0.5107  0.6837
  200MOL0     C27502   7.697   6.398   5.203 -0.0549  0.1068 -0.4502
  200MOL0     C27503   7.640   6.359   5.343 -0.5612 -0.7060  0.9263
  200MOL0     C27504   7.507   6.420   5.382  0.1306  0.4415  0.1043
  200MOL0     C27505   7.450   6.348   5.513 -0.4121  0.4386 -0.4188
  200MOL0     C27506   7.439   6.446   5.629  1.0024 -0.5843  0.1132
  200MOL0    Cl27507   7.354   6.385   5.783  0.0755  0.6309  0.1513
  200MOL0     C27508   8.098   6.895   5.092 -0.5420  0.4539 -0.5487
  200MOL0     C27509   8.200   6.991   5.122  0.4837  0.3248  0.1743
  200MOL0     O27510   8.277   7.207   5.316 -0.5578 -0.2833  0.3053
  200MOL0     C27511   8.483   7.393   5.282  0.3639 -0.2230  0.5085
  200MOL0     C27512   8.581   7.485   5.256 -0.3402  0.0271 -0.8633
  200MOL0     N27513   8.920   7.177   4.811  0.2678 -0.9131 -0.4298
  200MOL0     N27514   8.816   7.120   4.768 -0.7326  0.5651  0.1666
  200MOL0     C27515   7.937   6.833   3.707 -1.1470  0.4238  0.2752
  200MOL0     C27516   7.831   6.848   3.615  0.7484  0.5787  0.9658
  200MOL0     C27517   7.393   6.913   3.498 -0.0499 -0.0467 -0.7804
  200MOL0     C27518   7.314   6.813   3.433  1.1552 -0.0648  0.2829
  200MOL0     C27519   7.202   6.844   3.361  0.4717  0.4990 -0.7583
  200MOL0     C27520   7.165   6.982   3.344  0.7745  0.4030 -0.1491
  200MOL0     O27521   7.058   7.027   3.262 -0.7501  0.2699  0.3785
  200MOL0     C27522   7.087   6.988   3.127  0.4757  0.4893  0.0141
  200MOL0     C27523   7.044   7.090   3.025 -0.1281  0.0978  1.0672
  200MOL0     C27524   7.120   7.224   3.028  0.1430  0.5227  0.1434
  200MOL0     C27525   7.269   7.207   3.038  1.3020 -0.4118 -0.1490
  200MOL0     C27526   7.350   7.315   2.984  0.2748 -1.0873  0.1779
  200MOL0     C27527   7.411   7.399   2.923 -0.2684  1.1240  0.0275
  200MOL0     C27528   7.237   7.076   3.412 -0.6318 -0.2811  0.1625
  200MOL0     C27529   7.348   7.043   3.491  0.1057  0.3683  0.9028
  200MOL0     C27530   7.414   7.153   3.573 -0.4161 -1.3378 -0.3635
  200MOL0     H27531   7.653   7.097   3.773  1.7205  0.7738  2.1427
  200MOL0     H27532   7.822   7.074   3.930 -2.7444  0.1036 -0.1427
  200MOL0     H27533   8.006   6.916   4.096  0.9856 -0.7664  0.3739
  200MOL0     H27534   8.046   7.073   4.032  5.0925  1.5932 -0.0814
  200MOL0     H27535   8.232   6.836   4.061 -3.4386 -0.4781  0.2996
  200MOL0     H27536   8.286   6.997   4.000  0.5848  0.9038  0.9825
  200MOL0     H27537   8.212   7.098   4.209 -1.8159 -0.0710 -1.5324
  200MOL0     H27538   8.217   6.943   4.290 -4.8919  2.0313 -0.9499
  200MOL0     H27539   8.440   6.910   4.160  1.5500  0.1878 -1.6482
  200MOL0     H27540   8.441   7.089   4.148  2.3883 -2.3539 -0.8512
  200MOL0     H27541   8.428   6.918   4.389 -1.8169  0.8114 -0.9223
  200MOL0     H27542   8.426   7.089   4.413  1.5866 -0.6845  2.4360
  200MOL0     H27543   8.670   6.931   4.318 -0.2185 -1.0492  0.9617
  200MOL0     H27544   8.643   7.108   4.306  1.8942 -0.6822 -0.5950
  200MOL0     H27545   8.795   7.044   4.482 -0.9647  0.7469 -0.2929
  200MOL0     H27546   8.665   6.938   4.556 -0.0695  1.9603  5.2469
  200MOL0     H27547   8.603   7.230   4.528  0.7870  0.2728  0.2725
  200MOL0     H27548   8.553   7.118   4.657 -0.0919 -0.2130  0.4352
  200MOL0     H27549   8.812   7.402   4.596  1.5739 -0.3030 -0.3447
  200MOL0     H27550   9.095   7.426   4.720  1.8912 -0.6899  0.9930
  200MOL0     H27551   9.064   7.368   4.884 -1.3930 -0.1568 -0.1336
  200MOL0     H27552   9.043   7.607   4.877  0.8739 -0.2461  1.0975
  200MOL0     H27553   8.932   7.593   4.734  1.7979 -1.8381 -1.0528
  200MOL0     H27554   8.791   7.654   4.922  1.8500  1.5168 -0.6430
  200MOL0     H27555   8.774   7.479   4.880  2.6027  0.7548 -4.4880
  200MOL0     H27556   8.928   7.415   5.071  0.5247  0.6098  0.1996
  200MOL0     H27557   8.970   7.588   5.085 -0.0190  1.2304 -0.9659
  200MOL0     H27558   8.774   7.280   5.068  0.2799 -2.2720  1.0063
  200MOL0     H27559   8.687   7.019   5.131 -1.6778 -2.8487 -1.3952
  200MOL0     H27560   8.654   7.101   4.976 -0.9660  0.6922 -0.4139
  200MOL0     H27561   8.524   7.039   5.079  0.2579 -1.1510 -1.6812
  200MOL0     H27562   8.379   6.819   5.355 -0.1425  2.4324  0.2922
  200MOL0     H27563   8.212   6.635   5.279  2.5629  0.0733 -1.3804
  200MOL0     H27564   7.849   6.784   5.132 -0.2671 -0.0014  0.4818
  200MOL0     H27565   7.916   6.738   4.980 -2.5651  2.2408 -0.2945
  200MOL0     H27566   7.743   6.581   4.965  0.4224 -1.6748 -0.6859
  200MOL0     H27567   7.871   6.489   5.027 -0.6760 -1.1161  0.8820
  200MOL0     H27568   7.619   6.600   5.176 -1.3528 -2.0020 -1.6224
  200MOL0     H27569   7.773   6.584   5.264  2.9768  0.8475 -1.9630
  200MOL0     H27570   7.797   6.352   5.200  0.1678  0.1660  2.8461
  200MOL0     H27571   7.638   6.360   5.119 -1.3055  3.5614 -1.3029
  200MOL0     H27572   7.634   6.250   5.336  4.6313 -1.2671  1.0137
  200MOL0     H27573   7.717   6.376   5.419  2.3613  1.9319 -2.2773
  200MOL0     H27574   7.427   6.396   5.311  1.1080 -3.0441  0.0034
  200MOL0     H27575   7.504   6.527   5.405 -2.2970  0.3452  0.5701
  200MOL0     H27576   7.512   6.260   5.535 -2.2775 -1.3874 -1.9898
  200MOL0     H27577   7.351   6.309   5.486 -0.9979  1.2146  0.5207
  200MOL0     H27578   7.395   6.541   5.596  0.3051 -1.2319 -0.8733
  200MOL0     H27579   7.544   6.455   5.659  1.9004  3.3057 -3.3001
  200MOL0     H27580   8.027   6.919   5.013 -0.9864 -2.1510 -1.0123
  200MOL0     H27581   8.196   7.088   5.075  0.4171 -0.7105 -2.1127
  200MOL0     H27582   8.406   7.439   5.343  1.0675 -0.3136  1.4871
  200MOL0     H27583   8.580   7.591   5.277 -0.7259 -0.1064 -0.1710
  200MOL0     H27584   8.020   6.769   3.679 -1.6369  0.6385 -1.8084
  200MOL0     H27585   7.835   6.786   3.526 -0.5060  1.7037  0.0907
  200MOL0     H27586   7.341   6.711   3.462 -1.3324 -0.5804  1.1117
  200MOL0     H27587   7.147   6.771   3.302 -1.1776  2.0726 -1.2691
  200MOL0     H27588   7.192   6.961   3.120  0.3716  0.0296  0.2330
  200MOL0     H27589   7.045   6.889   3.107 -0.2454  1.0179 -1.2149
  200MOL0     H27590   6.936   7.105   3.027 -0.5749 -2.3300 -0.6408
  200MOL0     H27591   7.056   7.042   2.928  3.0165  3.1316 -0.2768
  200MOL0     H27592   7.097   7.285   2.941  1.4240 -2.2993 -2.3589
  200MOL0     H27593   7.077   7.266   3.120 -1.2130 -0.4821  0.0012
  200MOL0     H27594   7.292   7.119   2.978 -2.1070  0.5231 -3.1948
  200MOL0     H27595   7.291   7.181   3.142 -2.1144 -2.6711  0.1752
  200MOL0     H27596   7.462   7.471   2.863 -3.6893  3.7856 -0.0422
  200MOL0     H27597   7.206   7.179   3.399 -1.8266 -0.4656  1.2902
  200MOL0     H27598   7.457   7.115   3.666 -1.1597 -3.1599 -0.7193
  200MOL0     H27599   7.492   7.188   3.504  1.0746 -0.3693  1.7093
  200MOL0     H27600   7.345   7.234   3.597  0.9537 -0.1841 -0.1620
  201MOL0     O27601   0.247   6.195  11.516 -0.1465 -1.0934 -0.3591
  201MOL0     C27602   0.149   6.233  11.456 -0.2059 -0.2631 -0.7798
  201MOL0     O27603   0.026   6.249  11.515  0.0224 -0.2113 -0.4790
  201MOL0     C27604  -0.007   6.217  11.642  0.1304  0.9466 -0.1277
  201MOL0     C27605  -0.060   6.087  11.667  0.6435  0.9640  0.5893
  201MOL0     C27606  -0.093   6.043  11.798  0.1645  0.2932  0.0509
  201MOL0     C27607  -0.072   6.129  11.906 -0.5738 -0.0532 -0.3030
  201MOL0     O27608  -0.092   6.101  12.042 -0.3044  0.0851 -0.3647
  201MOL0     C27609  -0.141   5.970  12.079 -0.1056  0.0916  0.2907
  201MOL0     C27610  -0.021   5.874  12.068 -1.1564 -0.6879  0.4423
  201MOL0     C27611  -0.036   5.739  12.138  0.0432 -1.3583 -0.3773
  201MOL0     C27612   0.094   5.664  12.163  0.5064  0.1817 -0.1816
  201MOL0     C27613   0.111   5.546  12.067 -0.6250 -0.2350  0.5465
  201MOL0     C27614   0.142   5.578  11.913  1.2578 -0.1754 -0.3626
  201MOL0     C27615   0.262   5.678  11.893  0.1305 -0.3866  0.0668
  201MOL0     C27616   0.329   5.663  11.752  0.8112 -0.2433  0.7282
  201MOL0     N27617   0.225   5.671  11.649 -0.5117 -0.3991 -0.4867
  201MOL0     C27618   0.186   5.779  11.579 -0.5758 -1.0940  0.1439
  201MOL0     C27619   0.120   5.743  11.470 -1.2367 -0.8151  0.3460
  201MOL0     C27620   0.066   5.857  11.379  0.2177 -0.0187  0.1612
  201MOL0     C27621   0.064   5.800  11.235  0.3026 -0.2184  0.0941
  201MOL0     C27622  -0.034   5.882  11.142 -0.6651  0.6273  0.2506
  201MOL0     C27623  -0.173   5.905  11.200  0.6873 -0.3123 -0.0645
  201MOL0     O27624  -0.234   5.795  11.268 -0.1972  0.5575  0.0169
  201MOL0     C27625  -0.283   5.815  11.389 -0.2850 -0.1788  0.3148
  201MOL0     C27626  -0.262   5.715  11.484 -0.1252  0.4571 -0.3794
  201MOL0     C27627  -0.301   5.725  11.619  0.0469 -0.5021  0.8022
  201MOL0     C27628  -0.259   5.615  11.715  0.6017  0.6345  0.0305
  201MOL0     C27629  -0.376   5.839  11.656  0.1397  0.8046  0.0491
  201MOL0     C27630  -0.438   5.859  11.793 -0.3146  0.2873  0.0337
  201MOL0     O27631  -0.512   5.972  11.806 -0.2247 -0.1095  0.2030
  201MOL0     C27632  -0.567   6.014  11.923 -0.6174 -0.2854 -0.4129
  201MOL0     C27633  -0.484   6.064  12.020 -1.1475 -0.0794  0.0726
  201MOL0     C27634  -0.533   6.121  12.134 -0.3855  0.0038  0.3055
  201MOL0     C27635  -0.672   6.138  12.143 -1.2234 -1.3325 -0.0471
  201MOL0     O27636  -0.713   6.189  12.262  0.1218 -0.3311 -1.3500
  201MOL0     C27637  -0.858   6.193  12.294  0.1766  0.5756  0.1697
  201MOL0     C27638  -0.862   6.247  12.445  0.5476 -0.2480  0.0528
  201MOL0     C27639  -0.791   6.156  12.552 -0.0965  0.0660 -0.3253
  201MOL0     C27640  -0.838   6.015  12.548 -0.1707  0.9052 -0.6338
  201MOL0     C27641  -0.982   5.981  12.599 -1.0502 -0.0362 -0.1369
  201MOL0     C27642  -0.987   5.825  12.594  0.9461  0.3653  0.4130
  201MOL0     C27643  -1.123   5.780  12.630 -0.2352  0.1803  0.3934
  201MOL0     C27644  -1.121   5.689  12.760  0.6111  0.5001  0.1525
  201MOL0    Cl27645  -1.288   5.669  12.824  0.1697 -0.1019  0.3346
  201MOL0     C27646  -0.753   6.096  12.044  0.5908  0.2347  0.3503
  201MOL0     C27647  -0.706   6.016  11.935 -0.6437 -0.7511 -0.2410
  201MOL0     O27648  -0.418   5.780  11.888  0.1187 -0.4257  0.4942
  201MOL0     C27649  -0.393   5.944  11.567 -0.0379  0.1391 -0.1787
  201MOL0     C27650  -0.352   5.925  11.431  0.2513 -0.4922 -0.5935
  201MOL0     N27651   0.106   5.605  11.476  0.5667 -0.5818  0.0999
  201MOL0     N27652   0.166   5.567  11.587 -1.2009 -0.1871  0.3646
  201MOL0     C27653  -0.032   6.257  11.883  0.1096 -0.6723  0.4547
  201MOL0     C27654  -0.001   6.299  11.753 -0.9299  0.2296 -0.3880
  201MOL0     C27655   0.152   6.254  11.313  0.1698 -0.4702 -0.3690
  201MOL0     C27656   0.030   6.280  11.241 -0.0809  0.3671 -0.7698
  201MOL0     C27657   0.023   6.286  11.103 -0.4587 -0.1105  0.0436
  201MOL0     C27658   0.141   6.274  11.029 -0.4506 -0.4673 -0.2333
  201MOL0     O27659   0.159   6.266  10.894 -0.1031  0.1009 -0.1134
  201MOL0     C27660   0.053   6.225  10.815  0.8595  0.4022  0.0596
  201MOL0     C27661  -0.028   6.352  10.787  0.7275 -0.2053  1.7510
  201MOL0     C27662  -0.147   6.310  10.702  0.1364 -0.7329  0.4346
  201MOL0     C27663  -0.280   6.356  10.757 -0.9846 -0.0987  0.0432
  201MOL0     C27664  -0.315   6.290  10.883  0.1479  0.5782 -0.4029
  201MOL0     C27665  -0.346   6.210  10.974  0.3404 -0.4297 -0.1486
  201MOL0     C27666   0.257   6.264  11.098 -0.3899 -0.6716  0.1369
  201MOL0     C27667   0.273   6.251  11.236  0.3133 -0.7518 -0.3477
  201MOL0     C27668   0.405   6.228  11.288 -0.0002 -0.3023 -0.9206
  201MOL0     H27669  -0.091   6.021  11.586 -0.4115  1.6457  0.4228
  201MOL0     H27670  -0.132   5.946  11.826 -0.6032  0.5591 -0.0610
  201MOL0     H27671  -0.222   5.943  12.010 -1.5829  0.7665  1.6947
  201MOL0     H27672  -0.179   5.969  12.182 -1.0867 -0.9844 -0.0616
  201MOL0     H27673  -0.000   5.863  11.961  2.4881  3.4045  0.4180
  201MOL0     H27674   0.069   5.930  12.095  1.8324 -2.2303 -4.9996
  201MOL0     H27675  -0.091   5.752  12.232  3.6004 -0.5615  1.8076
  201MOL0     H27676  -0.100   5.678  12.074 -0.8043 -1.5279  0.6023
  201MOL0     H27677   0.182   5.730  12.167  0.4469  0.2901 -0.6150
  201MOL0     H27678   0.097   5.609  12.257  0.5504 -0.4656 -0.5514
  201MOL0     H27679   0.021   5.483  12.070 -1.8162  1.3683  4.0289
  201MOL0     H27680   0.196   5.487  12.103  0.5637  1.6230  0.8626
  201MOL0     H27681   0.170   5.489  11.856  6.2137 -0.6667  2.2808
  201MOL0     H27682   0.054   5.625  11.868  2.0386 -2.1381 -4.3451
  201MOL0     H27683   0.338   5.659  11.969 -1.5155 -0.4553  1.7933
  201MOL0     H27684   0.223   5.780  11.903  0.6925 -0.3159  1.9372
  201MOL0     H27685   0.397   5.748  11.739  0.1520  0.6602  2.7300
  201MOL0     H27686   0.398   5.578  11.748  2.0430  0.7056  1.2050
  201MOL0     H27687   0.199   5.884  11.604  0.6466 -1.2153  0.0759
  201MOL0     H27688   0.123   5.950  11.387  0.4848 -0.0038 -1.6591
  201MOL0     H27689  -0.030   5.878  11.428  1.4589  1.1927  2.2068
  201MOL0     H27690   0.167   5.807  11.201  0.0474  1.1304 -0.4527
  201MOL0     H27691   0.026   5.698  11.245 -1.3858  0.2845 -0.7030
  201MOL0     H27692   0.014   5.977  11.117 -2.0058  1.1697 -0.3720
  201MOL0     H27693  -0.037   5.827  11.047  2.8282  4.2541 -2.2752
  201MOL0     H27694  -0.175   5.999  11.257  0.6308  1.0164 -2.1582
  201MOL0     H27695  -0.246   5.929  11.122  2.2352  0.8653 -1.2205
  201MOL0     H27696  -0.215   5.622  11.453 -4.0681 -1.7922 -0.2956
  201MOL0     H27697  -0.217   5.530  11.660  1.5041  1.0216  0.1080
  201MOL0     H27698  -0.345   5.583  11.775  3.4128 -2.6382  2.7126
  201MOL0     H27699  -0.178   5.645  11.781 -0.1660  2.1069  0.3443
  201MOL0     H27700  -0.379   6.065  11.992 -1.5288 -0.3340 -1.4481
  201MOL0     H27701  -0.464   6.159  12.209  2.2803  2.8626 -3.2021
  201MOL0     H27702  -0.916   6.263  12.233 -0.5780 -0.2436 -0.0826
  201MOL0     H27703  -0.903   6.094  12.278  3.6175 -0.7236 -3.0661
  201MOL0     H27704  -0.807   6.342  12.445  0.2653 -0.0518  1.8067
  201MOL0     H27705  -0.963   6.255  12.485  0.9434  0.8556  0.8824
  201MOL0     H27706  -0.802   6.196  12.654 -1.9258 -0.2515 -0.3696
  201MOL0     H27707  -0.684   6.165  12.532 -0.2890  0.7825 -1.0648
  201MOL0     H27708  -0.771   5.975  12.624 -2.5044  0.6470  1.4290
  201MOL0     H27709  -0.828   5.980  12.445 -1.2443  2.8919 -1.4747
  201MOL0     H27710  -0.990   6.020  12.701 -0.3561 -1.4961  0.5138
  201MOL0     H27711  -1.054   6.032  12.535 -0.2630  1.3008  0.0214
  201MOL0     H27712  -0.924   5.776  12.668 -1.0499 -2.6755  0.2981
  201MOL0     H27713  -0.976   5.798  12.488 -2.3076 -3.1902  0.7519
  201MOL0     H27714  -1.180   5.721  12.557  1.4853 -1.6931  0.4713
  201MOL0     H27715  -1.165   5.876  12.662  0.9627  1.6332 -2.0606
  201MOL0     H27716  -1.072   5.729  12.849  1.3707 -0.9822  0.4335
  201MOL0     H27717  -1.072   5.594  12.738  0.7816  0.4884  0.5882
  201MOL0     H27718  -0.861   6.107  12.051  0.4354 -1.2684  0.6670
  201MOL0     H27719  -0.779   5.987  11.860 -1.3797  2.6065 -0.9948
  201MOL0     H27720  -0.442   6.034  11.604 -0.2592 -0.0349 -0.0526
  201MOL0     H27721  -0.366   6.009  11.364  0.0670  1.7386  2.0713
  201MOL0     H27722  -0.017   6.327  11.964 -2.2707  0.9951 -0.4391
  201MOL0     H27723   0.050   6.394  11.743  2.2749 -0.9276  2.9212
  201MOL0     H27724  -0.064   6.290  11.294  0.7016  0.5498  0.6335
  201MOL0     H27725  -0.074   6.302  11.058 -0.5502  1.9163  0.8603
  201MOL0     H27726   0.091   6.174  10.726  2.1685  0.5787  0.5018
  201MOL0     H27727  -0.007   6.152  10.870 -0.6642  1.2789 -0.3858
  201MOL0     H27728   0.031   6.414  10.718  0.5494 -0.3710  1.4538
  201MOL0     H27729  -0.072   6.410  10.869 -3.2593 -1.3751  0.6420
  201MOL0     H27730  -0.137   6.360  10.605  1.3794  0.3904  1.1202
  201MOL0     H27731  -0.149   6.204  10.673  1.4332 -0.6514  0.0109
  201MOL0     H27732  -0.344   6.323  10.674 -0.1934 -0.3526 -0.4747
  201MOL0     H27733  -0.289   6.463  10.777 -1.7155 -0.3605  1.2565
  201MOL0     H27734  -0.388   6.167  11.063 -0.8613  0.9952  0.0071
  201MOL0     H27735   0.347   6.245  11.040 -1.4055 -3.8159 -0.5526
  201MOL0     H27736   0.393   6.132  11.340  3.4378  0.5161  1.7275
  201MOL0     H27737   0.481   6.210  11.211 -1.5079 -1.4762 -2.1991
  201MOL0     H27738   0.435   6.310  11.353  3.5157  0.1195 -2.8405
  202MOL0     O27739   3.299   3.321   8.795 -0.4000  0.4490 -0.7516
  202MOL0     C27740   3.310   3.330   8.916 -0.7977  0.5598 -0.5912
  202MOL0     O27741   3.395   3.425   8.979 -0.3120  0.3524  0.3443
  202MOL0     C27742   3.415   3.552   8.932 -0.7451  0.0259  0.2823
  202MOL0     C27743   3.526   3.619   8.988 -0.2085  0.2514  0.6129
  202MOL0     C27744   3.544   3.746   8.965 -1.3637 -0.9048  1.2206
  202MOL0     C27745   3.470   3.816   8.872  0.0920 -0.1647  0.1238
  202MOL0     O27746   3.503   3.945   8.843 -0.6338 -0.4395 -0.4823
  202MOL0     C27747   3.397   4.034   8.821  0.4928 -0.4243 -0.9642
  202MOL0     C27748   3.449   4.181   8.830 -0.0256  0.3844 -0.3299
  202MOL0     C27749   3.331   4.264   8.904 -0.3931  0.6078  0.3495
  202MOL0     C27750   3.316   4.393   8.821  0.3934  0.4017 -0.6962
  202MOL0     C27751   3.230   4.494   8.892  1.1890 -1.0965  0.1033
  202MOL0     C27752   3.212   4.629   8.814 -0.3940  0.8676 -1.0576
  202MOL0     C27753   3.084   4.704   8.860 -0.4242 -0.5742  0.0346
  202MOL0     C27754   3.059   4.827   8.772 -0.4642 -0.0412 -0.2585
  202MOL0     N27755   2.968   4.927   8.827  0.2286 -0.3956  0.0817
  202MOL0     C27756   2.993   4.978   8.954  0.1902  0.1958  0.1007
  202MOL0     C27757   2.881   5.063   8.973  0.2222  0.3301 -0.2623
  202MOL0     C27758   2.872   5.172   9.082  0.1779  0.8611 -0.1662
  202MOL0     C27759   2.866   5.122   9.234  0.7294  0.1790  0.1754
  202MOL0     C27760   2.745   5.041   9.260 -0.4905 -0.6276  0.2496
  202MOL0     C27761   2.622   5.121   9.276 -0.5460 -0.4483  0.2065
  202MOL0     O27762   2.589   5.128   9.415 -1.0482 -0.0522 -0.0156
  202MOL0     C27763   2.463   5.170   9.449 -0.1656  0.6132  0.9172
  202MOL0     C27764   2.448   5.287   9.503  0.3334 -0.4490 -0.1581
  202MOL0     C27765   2.322   5.339   9.547  0.0238 -0.2431 -0.4783
  202MOL0     C27766   2.313   5.471   9.618  1.0400 -0.5216  0.3373
  202MOL0     C27767   2.206   5.270   9.507  0.5772  0.2311  0.2381
  202MOL0     C27768   2.065   5.317   9.539  0.1668  0.1915  0.0982
  202MOL0     O27769   1.969   5.309   9.436 -0.1200  0.1352  0.2585
  202MOL0     C27770   1.844   5.364   9.454 -0.6207 -0.9924 -0.0053
  202MOL0     C27771   1.729   5.285   9.430  0.3107 -0.4229  0.4207
  202MOL0     C27772   1.599   5.339   9.438 -0.9895 -0.0857  0.5011
  202MOL0     C27773   1.576   5.468   9.473 -0.0192 -0.7570 -0.1593
  202MOL0     O27774   1.443   5.508   9.469  0.7203 -0.6229 -0.1629
  202MOL0     C27775   1.399   5.608   9.558  0.3369 -1.1769 -0.0788
  202MOL0     C27776   1.255   5.635   9.554  0.4522  0.5799  1.4049
  202MOL0     C27777   1.209   5.710   9.678 -0.2219 -0.1563  0.5909
  202MOL0     C27778   1.063   5.703   9.679  0.0073 -0.5568 -0.0834
  202MOL0     C27779   1.017   5.745   9.818  0.6203  0.2926  0.1656
  202MOL0     C27780   1.021   5.889   9.848 -0.7014 -0.4621 -0.8908
  202MOL0     C27781   0.956   5.912   9.988 -0.4336 -0.3470  0.1335
  202MOL0     C27782   0.804   5.886   9.979  0.0677 -0.5807 -0.1133
  202MOL0    Cl27783   0.724   6.018   9.892 -0.1913 -0.4639 -0.0760
  202MOL0     C27784   1.685   5.551   9.497  0.2561 -0.2248 -0.0549
  202MOL0     C27785   1.823   5.496   9.490  0.3396 -0.5415  0.3878
  202MOL0     O27786   2.038   5.357   9.650  0.3548  0.0282 -0.0593
  202MOL0     C27787   2.226   5.152   9.429  0.5772  0.9717 -0.3354
  202MOL0     C27788   2.351   5.093   9.415  0.2255 -0.2906 -1.0918
  202MOL0     N27789   2.803   5.059   8.863 -0.7097  0.5260  0.9323
  202MOL0     N27790   2.842   4.966   8.780  0.0748  0.1234 -0.7411
  202MOL0     C27791   3.370   3.753   8.801  0.2396 -0.6990 -0.3952
  202MOL0     C27792   3.341   3.618   8.829  0.6461 -0.1440  0.1459
  202MOL0     C27793   3.244   3.232   9.006 -0.2195 -0.0160  0.4195
  202MOL0     C27794   3.269   3.235   9.145  0.5568 -0.4847 -0.2790
  202MOL0     C27795   3.208   3.143   9.231  1.0492  0.3765  0.0755
  202MOL0     C27796   3.128   3.038   9.178  0.7287 -0.5640  0.4183
  202MOL0     O27797   3.069   2.953   9.274  0.0384 -0.9203  1.1010
  202MOL0     C27798   3.027   2.827   9.225  0.6688  0.0578 -0.4436
  202MOL0     C27799   3.003   2.723   9.338 -0.5837  0.4167  1.2346
  202MOL0     C27800   2.896   2.765   9.432  0.0529 -1.0866  0.1207
  202MOL0     C27801   2.892   2.675   9.555  0.0555  0.5338  0.5543
  202MOL0     C27802   2.788   2.716   9.651 -0.5119  0.8279 -0.0079
  202MOL0     C27803   2.712   2.742   9.739  0.5207  0.4285 -0.4666
  202MOL0     C27804   3.115   3.037   9.042  0.1844  0.5654  1.1043
  202MOL0     C27805   3.157   3.128   8.951 -1.4332  0.7722  0.9958
  202MOL0     C27806   3.109   3.112   8.804  0.1459 -1.1712 -0.1429
  202MOL0     H27807   3.601   3.570   9.050  2.0800 -0.9543 -2.8192
  202MOL0     H27808   3.622   3.806   9.011 -1.2088  0.4934 -0.7842
  202MOL0     H27809   3.317   4.033   8.895  2.2877  1.1209  1.1310
  202MOL0     H27810   3.362   4.019   8.719  2.0265 -0.5191 -1.4987
  202MOL0     H27811   3.539   4.177   8.892 -0.9732 -2.3386  1.0590
  202MOL0     H27812   3.472   4.219   8.731 -3.3781  0.1092 -1.3416
  202MOL0     H27813   3.235   4.212   8.907  0.6390 -1.3841  0.6637
  202MOL0     H27814   3.361   4.282   9.008  0.2317 -0.2083  0.3164
  202MOL0     H27815   3.416   4.436   8.817  1.4755 -1.3280  3.0202
  202MOL0     H27816   3.276   4.375   8.721 -0.2033  0.8126 -0.5424
  202MOL0     H27817   3.275   4.510   8.990 -0.2138 -0.7946  0.7135
  202MOL0     H27818   3.128   4.459   8.908 -0.0333  2.0794  0.0696
  202MOL0     H27819   3.296   4.698   8.827  0.1351  0.6756 -3.0449
  202MOL0     H27820   3.206   4.608   8.706 -0.8080 -0.6265 -0.7747
  202MOL0     H27821   3.120   4.742   8.956  0.8890  2.3032 -1.4847
  202MOL0     H27822   2.987   4.653   8.867 -0.9755  0.5759  1.4893
  202MOL0     H27823   3.154   4.882   8.776  1.7481 -3.6700  2.4437
  202MOL0     H27824   3.031   4.799   8.670  1.4194 -2.5433 -0.1562
  202MOL0     H27825   3.085   4.972   9.011  0.8905 -1.3468 -1.1354
  202MOL0     H27826   2.786   5.236   9.057 -0.7730 -0.5570 -0.6102
  202MOL0     H27827   2.961   5.236   9.077 -0.4088  1.7642  0.5842
  202MOL0     H27828   2.949   5.053   9.254  0.8780 -0.0552 -1.2075
  202MOL0     H27829   2.865   5.196   9.315  0.1688 -0.7955  1.0826
  202MOL0     H27830   2.724   4.981   9.172 -1.4863  0.9714 -0.6425
  202MOL0     H27831   2.759   4.969   9.342  2.2993  1.3559  1.7019
  202MOL0     H27832   2.629   5.224   9.241  0.1397 -0.9054 -1.1062
  202MOL0     H27833   2.538   5.078   9.219 -0.2164  0.6236 -1.1329
  202MOL0     H27834   2.533   5.353   9.494 -0.3543  0.1583 -3.2748
  202MOL0     H27835   2.264   5.559   9.575 -1.7394  0.3505  4.6394
  202MOL0     H27836   2.410   5.499   9.660  1.2530  1.8398 -1.5237
  202MOL0     H27837   2.242   5.458   9.700 -3.6978 -0.5219 -3.3067
  202MOL0     H27838   1.742   5.181   9.401 -1.4759 -0.3237 -0.8987
  202MOL0     H27839   1.517   5.269   9.421 -1.7258  0.5158  1.4511
  202MOL0     H27840   1.419   5.580   9.662 -1.9611  0.4182  0.8897
  202MOL0     H27841   1.443   5.707   9.540 -2.2217 -0.5890 -4.2719
  202MOL0     H27842   1.224   5.691   9.466 -0.3961 -3.2260 -0.9616
  202MOL0     H27843   1.210   5.536   9.536  1.3626  0.6186 -1.4344
  202MOL0     H27844   1.237   5.816   9.677 -0.1367 -0.1518  2.0495
  202MOL0     H27845   1.268   5.674   9.763  0.3208  0.5124  0.5052
  202MOL0     H27846   1.043   5.596   9.673  1.6893 -0.8282 -1.4134
  202MOL0     H27847   1.021   5.763   9.597 -1.3652 -3.7991 -1.9488
  202MOL0     H27848   0.914   5.708   9.819 -1.2422  4.3314  5.5211
  202MOL0     H27849   1.062   5.685   9.897 -2.0865 -1.1756  0.7122
  202MOL0     H27850   0.966   5.937   9.766  0.3776  2.0250 -0.2655
  202MOL0     H27851   1.122   5.930   9.859  0.0266 -1.8750 -2.0361
  202MOL0     H27852   0.958   6.015  10.025 -1.8175 -0.6413  1.1178
  202MOL0     H27853   1.005   5.850  10.064 -3.3306 -1.7208  1.0503
  202MOL0     H27854   0.754   5.903  10.074 -0.4337  1.9174 -0.7476
  202MOL0     H27855   0.777   5.788   9.939 -0.2659  0.1943 -1.8812
  202MOL0     H27856   1.661   5.646   9.543 -2.9356 -0.7364 -0.4850
  202MOL0     H27857   1.902   5.556   9.532 -0.6929  2.4858 -1.6457
  202MOL0     H27858   2.135   5.099   9.405  1.3722 -0.8270  0.4297
  202MOL0     H27859   2.376   5.002   9.362  0.5309 -1.5639  1.0974
  202MOL0     H27860   3.306   3.810   8.734  2.0678  2.9972  0.7397
  202MOL0     H27861   3.253   3.565   8.793  1.3349 -0.5106 -1.0482
  202MOL0     H27862   3.333   3.310   9.191  0.7985 -2.0992  2.2182
  202MOL0     H27863   3.207   3.138   9.340 -0.5841 -0.0965  0.0596
  202MOL0     H27864   2.930   2.839   9.176 -0.6958  0.9886  2.2773
  202MOL0     H27865   3.096   2.782   9.153 -0.3358 -0.2346 -1.2549
  202MOL0     H27866   3.098   2.707   9.389  0.7793 -1.5180 -1.5938
  202MOL0     H27867   2.980   2.631   9.282  0.4311  1.1776 -0.5386
  202MOL0     H27868   2.897   2.874   9.440 -3.4924 -0.6570 -2.6696
  202MOL0     H27869   2.790   2.751   9.406  0.1101 -1.1005 -0.1094
  202MOL0     H27870   2.991   2.663   9.600  1.6004 -1.5097 -2.8876
  202MOL0     H27871   2.866   2.573   9.523  0.9984  0.3935  0.1965
  202MOL0     H27872   2.633   2.769   9.807  0.1618  0.8011 -1.0176
  202MOL0     H27873   3.054   2.959   8.998  2.4883 -0.2171 -0.9424
  202MOL0     H27874   3.190   3.074   8.741  1.2730  1.6606 -0.5398
  202MOL0     H27875   3.029   3.038   8.808 -0.5782 -1.0765 -5.5450
  202MOL0     H27876   3.063   3.203   8.765  0.1593 -1.0477  0.1270
  203MOL0     O27877   4.820   3.925   4.765 -0.1306 -0.2626  0.0141
  203MOL0     C27878   4.793   3.820   4.715  0.4425  0.4493  0.3436
  203MOL0     O27879   4.668   3.778   4.691 -0.2248  0.0977  0.3594
  203MOL0     C27880   4.562   3.864   4.719  0.5420  0.0765  0.9273
  203MOL0     C27881   4.502   3.941   4.616  0.0052 -0.5526 -0.3520
  203MOL0     C27882   4.392   4.029   4.639  1.0537 -0.0570 -0.2857
  203MOL0     C27883   4.329   4.024   4.760  0.8192 -0.7548  0.2046
  203MOL0     O27884   4.210   4.098   4.780 -0.0662  0.7947  0.3899
  203MOL0     C27885   4.220   4.240   4.771  0.1643  0.3787 -0.2621
  203MOL0     C27886   4.171   4.275   4.624  0.5673  0.9177  0.7974
  203MOL0     C27887   4.137   4.428   4.626 -1.4682  0.4755  0.1083
  203MOL0     C27888   4.028   4.471   4.728 -1.2243  0.2002  1.0762
  203MOL0     C27889   4.006   4.620   4.697 -0.0069 -0.2535  0.4338
  203MOL0     C27890   3.893   4.680   4.777  0.6048 -0.0542 -0.0932
  203MOL0     C27891   3.887   4.834   4.770 -0.0843  0.5598 -0.0597
  203MOL0     C27892   3.788   4.865   4.654 -0.0018  0.3961  0.7722
  203MOL0     N27893   3.651   4.879   4.687  0.9072 -0.5013  0.5652
  203MOL0     C27894   3.563   4.956   4.618 -0.2556  0.2664 -0.8483
  203MOL0     C27895   3.452   4.969   4.696  0.1822  0.0336 -0.1150
  203MOL0     C27896   3.317   5.012   4.655  0.3003  0.7867  1.1409
  203MOL0     C27897   3.312   5.174   4.640  0.3095 -0.1519  0.3200
  203MOL0     C27898   3.165   5.220   4.615  0.5407  0.3833  0.2896
  203MOL0     C27899   3.157   5.339   4.520  0.0444 -0.4772  0.2649
  203MOL0     O27900   3.221   5.457   4.580 -0.1952  0.0810 -0.3817
  203MOL0     C27901   3.168   5.570   4.534  0.0575 -0.7773 -0.2865
  203MOL0     C27902   3.236   5.641   4.441  0.9956  0.2768  0.7135
  203MOL0     C27903   3.190   5.759   4.392 -0.3594 -0.8351  0.5458
  203MOL0     C27904   3.257   5.811   4.270 -0.2098  0.0191 -0.1177
  203MOL0     C27905   3.083   5.830   4.456  0.7041  0.3704  0.4376
  203MOL0     C27906   3.027   5.963   4.418 -0.0764  0.0698 -0.1728
  203MOL0     O27907   2.893   5.989   4.396 -0.3429 -0.4763 -1.0488
  203MOL0     C27908   2.844   6.120   4.368  0.4740 -0.0604  0.7519
  203MOL0     C27909   2.898   6.205   4.267  0.7025  0.0808 -0.1365
  203MOL0     C27910   2.845   6.337   4.247  0.8635  0.2814  0.6042
  203MOL0     C27911   2.748   6.371   4.340  0.6505 -0.2538  1.0378
  203MOL0     O27912   2.700   6.502   4.336 -0.3014  0.6110 -0.0401
  203MOL0     C27913   2.795   6.612   4.290  0.1678  0.0662 -0.8165
  203MOL0     C27914   2.728   6.747   4.320  0.3495 -0.0951 -0.5365
  203MOL0     C27915   2.613   6.771   4.236 -0.1685  0.3801 -0.5493
  203MOL0     C27916   2.544   6.900   4.276 -0.1499 -1.0491  0.3417
  203MOL0     C27917   2.493   6.969   4.146  0.1034 -0.5935  1.0701
  203MOL0     C27918   2.440   7.114   4.178 -0.9395 -0.1275  0.3306
  203MOL0     C27919   2.358   7.162   4.051 -0.3307 -0.2123  0.6919
  203MOL0     C27920   2.414   7.286   3.977 -0.2587  1.2042 -0.6706
  203MOL0    Cl27921   2.390   7.445   4.060  0.3342 -0.1495 -0.1481
  203MOL0     C27922   2.690   6.292   4.435 -0.6306  0.2238 -0.9163
  203MOL0     C27923   2.737   6.161   4.447 -1.4780 -1.2276 -0.1605
  203MOL0     O27924   3.112   6.049   4.432 -0.8101  0.3470 -0.1155
  203MOL0     C27925   3.029   5.760   4.563 -1.1092 -0.2522 -0.2942
  203MOL0     C27926   3.061   5.632   4.599 -0.7316 -0.6467  0.2726
  203MOL0     N27927   3.477   4.908   4.815  0.2648  0.2056 -0.5752
  203MOL0     N27928   3.584   4.845   4.799  0.3073  0.7537 -0.1537
  203MOL0     C27929   4.382   3.949   4.864 -0.6958  0.2067 -0.6067
  203MOL0     C27930   4.502   3.867   4.845 -0.6781  0.0315  0.1198
  203MOL0     C27931   4.889   3.720   4.673 -0.6909  0.7990 -0.0706
  203MOL0     C27932   4.838   3.613   4.587  0.0104  0.0213  0.0879
  203MOL0     C27933   4.918   3.512   4.541  0.1713  1.0465 -1.3310
  203MOL0     C27934   5.062   3.518   4.561  0.3912  0.1456  0.2514
  203MOL0     O27935   5.149   3.421   4.528  0.0856 -0.3324 -0.2559
  203MOL0     C27936   5.131   3.320   4.422 -0.1168 -0.4537 -0.5126
  203MOL0     C27937   5.145   3.374   4.273 -0.6720  0.2764 -1.4487
  203MOL0     C27938   5.268   3.471   4.261 -0.1659  0.2326  0.8511
  203MOL0     C27939   5.292   3.526   4.120  0.1067  0.2730  0.2629
  203MOL0     C27940   5.186   3.611   4.055 -0.2591 -0.8666  0.5315
  203MOL0     C27941   5.120   3.703   4.012  0.1983 -0.3100  0.2240
  203MOL0     C27942   5.109   3.620   4.638  0.8512  0.3984  1.1414
  203MOL0     C27943   5.028   3.728   4.692 -0.1303  0.5320  1.1209
  203MOL0     C27944   5.113   3.826   4.761 -0.4928  0.5226  0.1354
  203MOL0     H27945   4.567   3.943   4.529  1.3814  0.6969  0.6447
  203MOL0     H27946   4.368   4.096   4.558  1.4724 -0.4568 -0.7515
  203MOL0     H27947   4.324   4.262   4.797  0.4138 -1.8911  0.9144
  203MOL0     H27948   4.148   4.289   4.837 -2.5161 -0.7679 -2.1923
  203MOL0     H27949   4.248   4.266   4.548 -1.4799  3.4028 -1.8075
  203MOL0     H27950   4.079   4.228   4.590  1.2962  1.7268 -2.6223
  203MOL0     H27951   4.228   4.480   4.658 -0.8701 -0.5885  0.1950
  203MOL0     H27952   4.118   4.450   4.521  3.8741  1.6434 -0.8956
  203MOL0     H27953   3.940   4.411   4.702 -1.2001  0.2922  0.7803
  203MOL0     H27954   4.069   4.464   4.829  3.7593  2.3242 -0.5199
  203MOL0     H27955   3.999   4.651   4.593  3.1400  1.1879  0.5120
  203MOL0     H27956   4.098   4.666   4.734 -0.2779  0.4740  0.2194
  203MOL0     H27957   3.799   4.633   4.745 -0.2182  1.4610  0.0007
  203MOL0     H27958   3.909   4.656   4.883 -1.5353 -1.6856 -0.0708
  203MOL0     H27959   3.987   4.878   4.764 -0.9218  3.0050  2.0322
  203MOL0     H27960   3.850   4.887   4.858  0.6583  0.6293  0.2190
  203MOL0     H27961   3.831   4.961   4.623  3.7888 -1.1711  0.5457
  203MOL0     H27962   3.795   4.794   4.571  2.2703  1.1716  0.2282
  203MOL0     H27963   3.576   4.982   4.513  0.1816  1.0385 -0.6091
  203MOL0     H27964   3.243   4.976   4.727 -0.1803  0.5115  0.5218
  203MOL0     H27965   3.312   4.965   4.556 -0.8583  1.4736  0.8432
  203MOL0     H27966   3.348   5.210   4.737 -0.5071  0.1817  0.5050
  203MOL0     H27967   3.371   5.223   4.562  0.4369  2.2242  1.7957
  203MOL0     H27968   3.107   5.139   4.570 -0.8273  2.2149 -1.4142
  203MOL0     H27969   3.115   5.247   4.709 -1.0695  1.1600 -0.7408
  203MOL0     H27970   3.207   5.312   4.426  2.1549 -0.3951  1.3301
  203MOL0     H27971   3.053   5.364   4.496 -0.2550 -2.1649 -0.3583
  203MOL0     H27972   3.327   5.590   4.410  0.7332  0.3256 -0.1913
  203MOL0     H27973   3.302   5.731   4.211  1.2803 -1.9302  3.3067
  203MOL0     H27974   3.338   5.880   4.295 -0.6574  0.1582  1.0359
  203MOL0     H27975   3.182   5.865   4.212 -1.0187  1.9634  2.5349
  203MOL0     H27976   2.986   6.171   4.212  2.1058 -4.0733  3.9336
  203MOL0     H27977   2.890   6.390   4.164  2.0668 -1.4451  0.1016
  203MOL0     H27978   2.883   6.619   4.354  0.7465  0.5245 -1.6488
  203MOL0     H27979   2.811   6.608   4.182  1.5122  2.0544 -0.7429
  203MOL0     H27980   2.712   6.769   4.426 -0.3385  0.4190 -0.7338
  203MOL0     H27981   2.791   6.832   4.291 -2.2623  1.4083 -2.2584
  203MOL0     H27982   2.542   6.688   4.237 -0.2085  0.4154  1.3356
  203MOL0     H27983   2.648   6.770   4.132 -0.0977 -0.0460 -0.5228
  203MOL0     H27984   2.623   6.961   4.321  0.5558 -1.8005  0.1490
  203MOL0     H27985   2.471   6.863   4.348 -0.9794 -3.3310 -1.5635
  203MOL0     H27986   2.569   6.966   4.068 -0.2932 -5.2812  0.5719
  203MOL0     H27987   2.411   6.904   4.112 -0.2532  2.2070 -4.4988
  203MOL0     H27988   2.529   7.175   4.198  0.8901 -1.7915 -2.1615
  203MOL0     H27989   2.378   7.113   4.268 -2.1954  0.9428 -0.4920
  203MOL0     H27990   2.264   7.202   4.089  0.6785  3.2303 -0.0587
  203MOL0     H27991   2.343   7.073   3.989  2.1038 -0.2509  0.0587
  203MOL0     H27992   2.359   7.296   3.883 -0.2201  2.9071 -0.5469
  203MOL0     H27993   2.519   7.272   3.953 -0.6087  1.2935 -2.3311
  203MOL0     H27994   2.618   6.315   4.514  2.3569 -1.7366  2.7329
  203MOL0     H27995   2.693   6.093   4.520  1.1602 -1.3902  1.3878
  203MOL0     H27996   2.940   5.800   4.610 -0.2648  2.1405 -0.6290
  203MOL0     H27997   3.016   5.582   4.684  0.9014 -1.6503  0.5948
  203MOL0     H27998   4.316   3.938   4.949  0.3221  0.9819  0.3097
  203MOL0     H27999   4.546   3.814   4.929  0.5567  0.6283 -0.1337
  203MOL0     H28000   4.734   3.609   4.557  0.4501 -1.2453 -1.4282
  203MOL0     H28001   4.866   3.426   4.501  0.2782  0.3709 -0.0406
  203MOL0     H28002   5.206   3.244   4.444  2.4116  1.6945 -1.1494
  203MOL0     H28003   5.030   3.284   4.440 -0.4463  0.2476 -0.9130
  203MOL0     H28004   5.059   3.441   4.262  1.1568  3.4105  1.4211
  203MOL0     H28005   5.154   3.286   4.208  1.5292  0.3810 -1.3837
  203MOL0     H28006   5.258   3.553   4.333  0.7961 -0.5015  1.8510
  203MOL0     H28007   5.365   3.424   4.280  0.2367 -0.4193 -2.2676
  203MOL0     H28008   5.309   3.435   4.061  0.6746  0.9437 -0.6353
  203MOL0     H28009   5.385   3.583   4.130 -0.8466  1.6385  1.8396
  203MOL0     H28010   5.058   3.773   3.960  2.2031  1.2280 -0.1924
  203MOL0     H28011   5.217   3.625   4.647  1.3739 -2.7840 -1.3778
  203MOL0     H28012   5.072   3.927   4.752  3.3076  2.1303 -1.8822
  203MOL0     H28013   5.135   3.810   4.866 -2.7880  5.3291  1.6497
  203MOL0     H28014   5.211   3.836   4.711  0.0206 -2.6968  0.2943
  204MOL0     O28015   9.725   6.822   9.072  0.1044 -0.6021 -0.0345
  204MOL0     C28016   9.684   6.711   9.062 -1.2204 -0.3103  0.4166
  204MOL0     O28017   9.722   6.624   8.959 -0.5701 -0.2874  0.5081
  204MOL0     C28018   9.819   6.667   8.869 -0.9235  0.1832 -0.7642
  204MOL0     C28019   9.949   6.609   8.881  1.2684 -0.4813 -0.9768
  204MOL0     C28020  10.054   6.646   8.797 -0.0664  0.4384 -0.6506
  204MOL0     C28021  10.036   6.755   8.722 -0.1485  0.6919 -0.0718
  204MOL0     O28022  10.121   6.790   8.624  0.0129  0.3597  0.1292
  204MOL0     C28023  10.261   6.787   8.653  0.2497 -0.2475 -0.1794
  204MOL0     C28024  10.338   6.915   8.610 -0.0119 -0.3364  0.2052
  204MOL0     C28025  10.355   6.926   8.459 -0.1248 -0.3913  0.9194
  204MOL0     C28026  10.428   7.049   8.408  0.5726  0.3730 -0.4182
  204MOL0     C28027  10.456   7.032   8.259 -0.3392 -0.7833 -0.3645
  204MOL0     C28028  10.573   7.132   8.211  0.1073 -0.7752  0.2413
  204MOL0     C28029  10.531   7.271   8.189  0.6939  0.5141 -0.2465
  204MOL0     C28030  10.521   7.349   8.317  0.4203 -0.9549 -0.7358
  204MOL0     N28031  10.644   7.412   8.350  0.0132 -0.5998 -0.3990
  204MOL0     C28032  10.722   7.353   8.438 -0.1404 -0.1667  0.0401
  204MOL0     C28033  10.810   7.447   8.482  0.1017 -0.0340 -0.1430
  204MOL0     C28034  10.916   7.438   8.595 -0.5251 -0.4013  0.9113
  204MOL0     C28035  10.855   7.396   8.729  0.0472 -0.2633 -0.6401
  204MOL0     C28036  10.821   7.516   8.822 -0.6898 -0.1752 -0.3469
  204MOL0     C28037  10.762   7.470   8.954  0.2166  0.2852 -0.3639
  204MOL0     O28038  10.780   7.582   9.044 -0.0453  0.2902  0.3115
  204MOL0     C28039  10.684   7.676   9.023 -0.0864 -0.0443 -0.9548
  204MOL0     C28040  10.540   7.670   9.052  0.9709  0.0723  0.2239
  204MOL0     C28041  10.449   7.781   9.017  0.1914 -0.9884 -0.0616
  204MOL0     C28042  10.308   7.770   9.058  0.8187 -0.5864  0.1130
  204MOL0     C28043  10.506   7.901   8.954 -0.1164 -0.2855  0.0594
  204MOL0     C28044  10.427   8.021   8.915 -0.0873  0.0529 -0.7725
  204MOL0     O28045  10.496   8.139   8.895 -0.3432 -0.5625  0.6662
  204MOL0     C28046  10.427   8.253   8.857  0.0576  0.3785 -0.4487
  204MOL0     C28047  10.354   8.309   8.959  0.2956 -0.0316 -1.0701
  204MOL0     C28048  10.279   8.421   8.940 -0.4152 -0.3290 -0.9799
  204MOL0     C28049  10.290   8.495   8.820 -0.4104  0.8882  0.9594
  204MOL0     O28050  10.210   8.603   8.795 -0.0124  0.8746 -0.2596
  204MOL0     C28051  10.094   8.594   8.718 -0.8075  0.1201  0.4104
  204MOL0     C28052  10.113   8.602   8.571  0.9227  0.0252  0.6573
  204MOL0     C28053   9.977   8.634   8.496  0.9416 -0.5132  0.7746
  204MOL0     C28054   9.948   8.524   8.386  0.3129  0.5557  0.8279
  204MOL0     C28055   9.820   8.541   8.303  0.6462 -0.1813  0.3304
  204MOL0     C28056   9.686   8.523   8.382 -0.8726  0.9733 -0.3984
  204MOL0     C28057   9.574   8.497   8.282 -0.1997  0.2896  0.0542
  204MOL0     C28058   9.441   8.458   8.346 -0.1377 -0.3239  0.0878
  204MOL0    Cl28059   9.461   8.295   8.411 -0.7415 -0.4802  0.3668
  204MOL0     C28060  10.373   8.438   8.718  0.3496 -1.1343 -0.1008
  204MOL0     C28061  10.436   8.315   8.733  0.0211  0.4000 -0.0429
  204MOL0     O28062  10.298   8.011   8.909  0.1498  0.2966 -0.1928
  204MOL0     C28063  10.644   7.906   8.935 -0.7935  1.1499 -0.2670
  204MOL0     C28064  10.722   7.804   8.970  0.0659  0.8816  0.7168
  204MOL0     N28065  10.795   7.559   8.400  0.6803 -0.3797 -0.1792
  204MOL0     N28066  10.688   7.538   8.325  0.4837  0.2415 -0.0819
  204MOL0     C28067   9.906   6.819   8.712 -0.5715 -0.2835 -0.1977
  204MOL0     C28068   9.801   6.771   8.782 -0.6185  0.5771  0.1454
  204MOL0     C28069   9.568   6.675   9.133  0.7493 -0.1923  0.6437
  204MOL0     C28070   9.481   6.581   9.073 -0.7477  0.5517 -0.5442
  204MOL0     C28071   9.371   6.531   9.145  0.5189  0.3496 -0.7258
  204MOL0     C28072   9.339   6.574   9.270 -0.2782  0.4134 -0.2052
  204MOL0     O28073   9.219   6.529   9.316  0.0808 -0.8461 -0.1695
  204MOL0     C28074   9.169   6.574   9.437  0.0774  0.1391  0.3568
  204MOL0     C28075   9.032   6.505   9.461  0.5930  0.4795  0.1113
  204MOL0     C28076   9.026   6.348   9.422  0.1793 -0.2931 -0.8153
  204MOL0     C28077   9.004   6.312   9.272  0.5676  0.1080  0.4568
  204MOL0     C28078   8.857   6.306   9.248 -0.0900 -0.1266  0.2912
  204MOL0     C28079   8.737   6.310   9.219 -0.3427  0.1289 -0.3756
  204MOL0     C28080   9.419   6.672   9.328 -0.0738 -0.7164 -0.0658
  204MOL0     C28081   9.533   6.726   9.263 -0.5822  0.2788 -1.5777
  204MOL0     C28082   9.624   6.817   9.354  0.3750 -1.3380  0.3527
  204MOL0     H28083   9.945   6.519   8.941  0.1320  0.1073 -0.1275
  204MOL0     H28084  10.145   6.587   8.800  1.3827  2.5441 -1.0409
  204MOL0     H28085  10.307   6.698   8.609 -0.3474 -1.7523  2.0869
  204MOL0     H28086  10.283   6.774   8.759  1.6477 -4.6654 -0.8345
  204MOL0     H28087  10.291   7.003   8.656  0.4677  0.9642 -1.6558
  204MOL0     H28088  10.439   6.920   8.651 -0.4164  1.3671  1.0866
  204MOL0     H28089  10.411   6.838   8.427  0.4059  0.7037 -1.3493
  204MOL0     H28090  10.256   6.909   8.417 -0.2573  1.1811  0.5379
  204MOL0     H28091  10.357   7.130   8.430 -0.2596 -0.0067 -1.5763
  204MOL0     H28092  10.520   7.067   8.465 -0.7379  1.1443  1.5794
  204MOL0     H28093  10.365   7.053   8.202 -0.3907 -1.3867 -0.5107
  204MOL0     H28094  10.474   6.927   8.233  3.9255  0.6420 -4.8607
  204MOL0     H28095  10.661   7.121   8.275 -1.4402  1.1519  2.9235
  204MOL0     H28096  10.605   7.083   8.118 -1.5828 -3.2137  0.8561
  204MOL0     H28097  10.433   7.270   8.140  0.8830  0.6348 -0.6293
  204MOL0     H28098  10.601   7.322   8.122 -0.3108  1.5612 -0.5273
  204MOL0     H28099  10.442   7.425   8.314  2.6668  1.6648  0.9171
  204MOL0     H28100  10.500   7.283   8.402  3.2017  0.4060  1.1605
  204MOL0     H28101  10.710   7.251   8.475  0.2765 -0.1245  0.2898
  204MOL0     H28102  10.955   7.540   8.602 -2.9357  0.5894  0.6616
  204MOL0     H28103  11.000   7.373   8.567  0.2571  1.3547 -1.1129
  204MOL0     H28104  10.761   7.342   8.712 -0.2028 -0.5142  1.2554
  204MOL0     H28105  10.923   7.324   8.775 -0.9388 -0.5232  0.4582
  204MOL0     H28106  10.913   7.572   8.843 -0.9814 -0.7797  3.1945
  204MOL0     H28107  10.760   7.593   8.775  0.1187  1.8715  1.7542
  204MOL0     H28108  10.659   7.435   8.940  1.6069 -3.3907 -2.9592
  204MOL0     H28109  10.821   7.389   8.998 -3.4950 -1.2157  2.4255
  204MOL0     H28110  10.503   7.591   9.117 -3.5967  1.2427 -0.6148
  204MOL0     H28111  10.252   7.764   8.964  1.9222 -2.4030 -0.4624
  204MOL0     H28112  10.277   7.854   9.121 -2.0440  1.2349 -3.2984
  204MOL0     H28113  10.288   7.672   9.101  0.3662  0.1546  1.6661
  204MOL0     H28114  10.339   8.263   9.056  0.6795  0.9156 -0.5447
  204MOL0     H28115  10.215   8.447   9.024 -1.6555 -2.6443 -1.1303
  204MOL0     H28116  10.047   8.498   8.742 -1.3793 -0.0103 -1.1068
  204MOL0     H28117  10.026   8.676   8.746 -0.9512 -0.1808  0.9567
  204MOL0     H28118  10.183   8.683   8.546  0.2045 -0.1426 -2.2754
  204MOL0     H28119  10.146   8.509   8.524 -1.7784  0.2677 -2.0216
  204MOL0     H28120   9.979   8.731   8.446 -0.4593 -0.9441 -0.1935
  204MOL0     H28121   9.893   8.636   8.567 -0.1535  0.5617 -0.4810
  204MOL0     H28122   9.933   8.426   8.430 -0.4389  0.9479  1.4669
  204MOL0     H28123  10.033   8.516   8.317 -0.1205 -1.5200  0.4688
  204MOL0     H28124   9.833   8.637   8.252  2.8262  0.2865  1.6564
  204MOL0     H28125   9.817   8.468   8.222 -5.2199  0.2126 -0.2343
  204MOL0     H28126   9.663   8.617   8.434 -0.2992  1.3117 -0.7377
  204MOL0     H28127   9.703   8.444   8.456  0.5083  0.7995 -0.8644
  204MOL0     H28128   9.600   8.411   8.220  1.6967  0.6127  0.3391
  204MOL0     H28129   9.545   8.587   8.225  1.0166  2.0072  1.9898
  204MOL0     H28130   9.370   8.469   8.263  0.4812  0.7810 -0.3026
  204MOL0     H28131   9.406   8.528   8.423 -0.3590 -0.0199 -0.2864
  204MOL0     H28132  10.389   8.491   8.624 -0.3053 -1.2518 -0.2840
  204MOL0     H28133  10.497   8.277   8.652  1.3284 -0.2167  1.1864
  204MOL0     H28134  10.690   7.993   8.890 -1.7879 -0.5656 -5.2036
  204MOL0     H28135  10.829   7.794   8.954 -0.0662 -1.6766  1.1289
  204MOL0     H28136   9.883   6.901   8.645  5.1576  2.0254  0.0519
  204MOL0     H28137   9.702   6.815   8.776 -0.6786  0.2633 -1.9788
  204MOL0     H28138   9.493   6.525   8.980  1.5103 -1.0966  0.6513
  204MOL0     H28139   9.301   6.459   9.103  0.7239 -0.6385  0.5398
  204MOL0     H28140   9.232   6.556   9.525 -1.7405  2.4834  2.2707
  204MOL0     H28141   9.149   6.681   9.432  0.6276  0.1944 -1.5174
  204MOL0     H28142   8.956   6.543   9.393  0.4716 -1.6665 -1.0408
  204MOL0     H28143   8.999   6.536   9.560 -0.8487  0.6899 -0.4085
  204MOL0     H28144   9.114   6.295   9.459 -0.3230 -1.5086 -1.2890
  204MOL0     H28145   8.942   6.322   9.487 -2.2648  1.3442 -3.1146
  204MOL0     H28146   9.053   6.216   9.259  2.7817  1.1515  0.6499
  204MOL0     H28147   9.051   6.380   9.200  1.2573 -1.0081 -0.1664
  204MOL0     H28148   8.633   6.310   9.190  0.3134 -2.8019 -3.4231
  204MOL0     H28149   9.387   6.717   9.422  0.4266  1.6716 -0.9729
  204MOL0     H28150   9.628   6.920   9.317  1.4787 -2.2910 -2.3834
  204MOL0     H28151   9.582   6.806   9.455  0.6701  0.1810  0.6686
  204MOL0     H28152   9.725   6.776   9.349  0.7292 -0.3811 -3.3388
  205MOL0     O28153   2.054   9.789  10.869 -0.4252  0.2958  0.0551
  205MOL0     C28154   2.058   9.910  10.861 -0.0543  0.1708  0.6272
  205MOL0     O28155   1.947   9.988  10.846 -0.3264  0.5112 -0.5161
  205MOL0     C28156   1.836   9.928  10.790 -1.2859 -0.0517 -0.4846
  205MOL0     C28157   1.712   9.966  10.844 -0.2119 -1.4039 -0.6329
  205MOL0     C28158   1.595   9.910  10.798 -0.0055 -0.4302  0.1486
  205MOL0     C28159   1.593   9.830  10.690  0.4840  0.4489  0.1216
  205MOL0     O28160   1.461   9.786  10.654  0.6372 -0.1139  0.2310
  205MOL0     C28161   1.431   9.700  10.548 -0.5649 -0.1875  0.4647
  205MOL0     C28162   1.442   9.764  10.413  0.0321 -0.3730 -0.1012
  205MOL0     C28163   1.407   9.657  10.304 -0.9066 -0.0597 -0.4164
  205MOL0     C28164   1.366   9.735  10.175  0.1421 -0.4286  0.1405
  205MOL0     C28165   1.372   9.654  10.045  0.1213  0.0824 -0.1923
  205MOL0     C28166   1.500   9.681   9.965  0.1652 -0.3357 -0.1734
  205MOL0     C28167   1.635   9.631  10.038 -0.6643 -0.1760 -0.3367
  205MOL0     C28168   1.759   9.713  10.005  0.0688  0.5889  0.7659
  205MOL0     N28169   1.802   9.665   9.877  0.4359  0.0437 -0.1294
  205MOL0     C28170   1.922   9.611   9.852 -0.3312 -0.6004  0.4369
  205MOL0     C28171   1.934   9.610   9.716 -0.6464  0.5628  0.0242
  205MOL0     C28172   2.061   9.561   9.646  1.0521 -0.0271  1.2843
  205MOL0     C28173   2.087   9.409   9.661  0.6778  0.2676  0.5129
  205MOL0     C28174   2.170   9.352   9.549 -0.2474  0.5693  0.1303
  205MOL0     C28175   2.323   9.395   9.567  0.5079  1.2921  0.2269
  205MOL0     O28176   2.403   9.323   9.477 -0.2389  0.6891  0.3201
  205MOL0     C28177   2.407   9.366   9.340  0.3028  0.2362  0.7456
  205MOL0     C28178   2.491   9.301   9.252 -0.2747 -0.8250 -0.3886
  205MOL0     C28179   2.509   9.341   9.122  0.3790  0.7434  0.7315
  205MOL0     C28180   2.611   9.280   9.032 -1.5680  0.3551  0.8917
  205MOL0     C28181   2.419   9.437   9.067  0.7740  0.2275  1.0126
  205MOL0     C28182   2.415   9.476   8.917  0.2112 -0.1916 -0.6645
  205MOL0     O28183   2.293   9.541   8.887 -0.0316  0.7691 -0.0445
  205MOL0     C28184   2.283   9.603   8.767  0.7387 -0.3619  0.5344
  205MOL0     C28185   2.296   9.537   8.643  0.1892  0.8392 -0.8860
  205MOL0     C28186   2.268   9.610   8.528  0.0512  0.7563 -0.2475
  205MOL0     C28187   2.221   9.739   8.525  0.1285 -0.9739 -0.0676
  205MOL0     O28188   2.193   9.808   8.412  0.1851 -0.4103  0.4555
  205MOL0     C28189   2.223   9.760   8.276  0.1817 -0.2635 -0.0768
  205MOL0     C28190   2.104   9.701   8.196  0.8588 -0.7101  0.2525
  205MOL0     C28191   2.127   9.668   8.045  0.0922  0.0629  0.5028
  205MOL0     C28192   2.248   9.578   8.015  0.5525  0.2059 -0.2273
  205MOL0     C28193   2.227   9.497   7.888  0.2783 -0.5402 -0.1720
  205MOL0     C28194   2.360   9.433   7.846 -0.0736  0.4920  0.0819
  205MOL0     C28195   2.350   9.343   7.719 -0.3494  0.0603 -1.0304
  205MOL0     C28196   2.492   9.295   7.680 -0.1371 -0.4509 -0.4495
  205MOL0    Cl28197   2.608   9.427   7.634 -0.1013 -0.4258  0.2810
  205MOL0     C28198   2.208   9.802   8.652  0.6025 -0.1338  0.1658
  205MOL0     C28199   2.243   9.737   8.769  0.3733  1.1414  0.3139
  205MOL0     O28200   2.515   9.474   8.846  0.4614  0.1345  0.5078
  205MOL0     C28201   2.325   9.492   9.150 -0.7949 -0.5711 -0.0155
  205MOL0     C28202   2.318   9.460   9.285  0.4599 -0.3391 -0.3116
  205MOL0     N28203   1.811   9.654   9.660  0.1097  0.1426  0.2479
  205MOL0     N28204   1.735   9.695   9.756 -0.0013  0.0895  0.6286
  205MOL0     C28205   1.713   9.796  10.622  0.6204 -0.1891  0.2387
  205MOL0     C28206   1.830   9.847  10.672 -1.2740 -0.1836 -0.9706
  205MOL0     C28207   2.189   9.978  10.851  0.4660 -0.0795 -0.5853
  205MOL0     C28208   2.188  10.117  10.825  0.0569  0.5119 -0.2269
  205MOL0     C28209   2.301  10.190  10.823 -1.2786  0.0502  0.1128
  205MOL0     C28210   2.422  10.138  10.842  0.2668 -0.5451  0.6075
  205MOL0     O28211   2.527  10.216  10.865  0.0912  0.5603  0.4078
  205MOL0     C28212   2.528  10.298  10.984  0.1897  0.1853  0.3442
  205MOL0     C28213   2.658  10.286  11.048 -1.1307 -0.6949  0.4657
  205MOL0     C28214   2.673  10.136  11.114  0.1575 -0.0948 -0.1559
  205MOL0     C28215   2.572  10.095  11.223 -0.0113  0.6575 -0.4372
  205MOL0     C28216   2.638  10.014  11.327  0.1779 -1.0002 -0.0934
  205MOL0     C28217   2.696   9.954  11.411 -0.3754 -0.0105  0.1182
  205MOL0     C28218   2.432   9.999  10.865 -0.3165 -1.8301 -0.0199
  205MOL0     C28219   2.319   9.920  10.868  0.7569 -0.3374 -0.6352
  205MOL0     C28220   2.339   9.770  10.879  0.2844 -0.6872  0.0459
  205MOL0     H28221   1.701  10.037  10.926  0.5647 -1.5694 -0.3747
  205MOL0     H28222   1.497   9.928  10.841 -1.1495 -0.9210 -2.1005
  205MOL0     H28223   1.332   9.658  10.563 -0.1880 -0.7590  1.3876
  205MOL0     H28224   1.496   9.613  10.553  1.8842  1.4817 -0.1006
  205MOL0     H28225   1.381   9.854  10.412 -1.0401 -1.0035  2.1456
  205MOL0     H28226   1.550   9.781  10.400  0.6337 -4.5517 -2.4007
  205MOL0     H28227   1.495   9.595  10.284 -0.5925 -0.2110  1.3092
  205MOL0     H28228   1.314   9.610  10.339 -1.1570  1.3570  0.9254
  205MOL0     H28229   1.270   9.783  10.198  1.7020  1.2185  4.3888
  205MOL0     H28230   1.440   9.813  10.155  0.5222 -1.4223 -2.6829
  205MOL0     H28231   1.275   9.672   9.998 -1.9870 -0.4797  3.5038
  205MOL0     H28232   1.368   9.550  10.081 -3.3274  0.5938  1.3173
  205MOL0     H28233   1.496   9.635   9.866  3.1162  2.2909 -1.6857
  205MOL0     H28234   1.503   9.789   9.945  1.5478 -0.4146 -0.4800
  205MOL0     H28235   1.641   9.523  10.021  0.3130 -0.6537  2.5678
  205MOL0     H28236   1.639   9.630  10.147  2.5186  1.9240 -0.2873
  205MOL0     H28237   1.736   9.819  10.003 -1.7497  0.3167 -3.3337
  205MOL0     H28238   1.845   9.702  10.072 -1.0365 -1.2166  1.9693
  205MOL0     H28239   2.003   9.601   9.924 -1.2495 -4.0158  1.2149
  205MOL0     H28240   2.154   9.600   9.689  2.2489  0.1057 -1.2306
  205MOL0     H28241   2.059   9.592   9.541  0.0292 -3.5986  0.1353
  205MOL0     H28242   2.129   9.396   9.761  0.0847  2.2065  1.0723
  205MOL0     H28243   1.994   9.353   9.666  0.2610  0.9359  0.3785
  205MOL0     H28244   2.170   9.243   9.555  1.3821  0.6200  2.2679
  205MOL0     H28245   2.123   9.378   9.453  0.7336  0.7417 -0.3143
  205MOL0     H28246   2.329   9.501   9.544 -1.4537  1.2944 -0.5004
  205MOL0     H28247   2.352   9.362   9.667 -0.6423  0.5932  0.3545
  205MOL0     H28248   2.537   9.208   9.287  1.3822 -0.7860 -2.2863
  205MOL0     H28249   2.572   9.252   8.933 -2.5261 -1.6218  1.7761
  205MOL0     H28250   2.646   9.182   9.066  0.3097  0.3214 -0.9220
  205MOL0     H28251   2.692   9.351   9.015 -1.9144  1.0969  2.2175
  205MOL0     H28252   2.329   9.433   8.639 -0.9384  0.4589 -0.4968
  205MOL0     H28253   2.274   9.559   8.433  2.7626  0.1528  0.1692
  205MOL0     H28254   2.265   9.843   8.218 -1.4259  0.1896 -0.6391
  205MOL0     H28255   2.310   9.695   8.289 -0.0129 -0.1073  2.6534
  205MOL0     H28256   2.062   9.618   8.253  0.2585 -0.8699 -0.3975
  205MOL0     H28257   2.034   9.782   8.173  1.6564 -0.6178 -2.1258
  205MOL0     H28258   2.142   9.760   7.987  2.4530  0.0601  0.9964
  205MOL0     H28259   2.027   9.633   8.017  0.0435 -0.1314  0.9181
  205MOL0     H28260   2.256   9.505   8.096  0.5750 -3.7210 -3.4319
  205MOL0     H28261   2.341   9.634   8.001  2.1934 -2.6743 -1.7617
  205MOL0     H28262   2.152   9.419   7.909  0.2571 -1.0816 -2.1142
  205MOL0     H28263   2.183   9.560   7.811 -4.8113 -0.7948  2.0582
  205MOL0     H28264   2.403   9.374   7.927  0.5402  1.6163  0.5893
  205MOL0     H28265   2.429   9.515   7.825 -2.8740  2.6365 -1.4466
  205MOL0     H28266   2.314   9.403   7.634 -0.1378 -0.8971 -1.8070
  205MOL0     H28267   2.279   9.262   7.738 -1.9500  1.6337  0.1012
  205MOL0     H28268   2.470   9.218   7.606  1.2942 -0.6467 -0.6923
  205MOL0     H28269   2.522   9.249   7.775 -0.4879  2.1506  1.0054
  205MOL0     H28270   2.163   9.901   8.652 -0.7953 -0.7401 -0.8444
  205MOL0     H28271   2.212   9.762   8.869 -3.0493  1.0520 -0.5994
  205MOL0     H28272   2.246   9.553   9.107 -0.5185 -2.1292 -2.9548
  205MOL0     H28273   2.249   9.509   9.353  0.3493 -1.1798  0.2081
  205MOL0     H28274   1.709   9.736  10.532  1.1008 -0.2670  0.2702
  205MOL0     H28275   1.923   9.813  10.628  0.2273 -0.7188  2.3776
  205MOL0     H28276   2.090  10.163  10.819 -1.1536 -1.2751  3.1393
  205MOL0     H28277   2.292  10.298  10.816 -0.2723  0.1218 -0.1287
  205MOL0     H28278   2.520  10.400  10.945  1.0998 -0.4353 -1.5768
  205MOL0     H28279   2.455  10.285  11.064 -0.2939  1.2697  0.1013
  205MOL0     H28280   2.661  10.349  11.137 -1.7649 -1.6437  1.1807
  205MOL0     H28281   2.740  10.312  10.981 -1.2172 -1.1904  0.1572
  205MOL0     H28282   2.657  10.070  11.029 -2.1480  0.5388 -0.2596
  205MOL0     H28283   2.772  10.138  11.162 -0.9944  0.7782  2.3850
  205MOL0     H28284   2.494  10.036  11.173 -1.3014 -0.2926  2.5161
  205MOL0     H28285   2.531  10.188  11.265 -2.7231 -0.8503  0.5092
  205MOL0     H28286   2.763   9.900  11.474  1.0284 -0.2120 -1.4741
  205MOL0     H28287   2.532   9.958  10.859  0.2658 -0.4428 -5.7287
  205MOL0     H28288   2.287   9.726  10.965  0.8972  0.5784  1.1122
  205MOL0     H28289   2.300   9.725  10.787 -1.3485 -0.2817  0.5045
  205MOL0     H28290   2.444   9.739  10.881  0.5551  0.0616 -1.3178
  206MOL0     O28291   1.928   8.011   5.716 -0.2624  0.2274 -0.5911
  206MOL0     C28292   1.967   8.001   5.602 -0.6765  0.5861  0.0840
  206MOL0     O28293   1.914   7.913   5.516 -0.4508 -1.1284  0.2955
  206MOL0     C28294   1.881   7.792   5.567  0.6986 -0.2530  0.3708
  206MOL0     C28295   1.975   7.690   5.591  0.2685  0.7048  0.4091
  206MOL0     C28296   1.935   7.562   5.631  0.3112  0.2466  0.3666
  206MOL0     C28297   1.794   7.539   5.645  0.3108  0.2191  0.2004
  206MOL0     O28298   1.742   7.423   5.695  0.0333 -0.1267  0.4106
  206MOL0     C28299   1.814   7.303   5.662  0.2200  0.3769 -0.3245
  206MOL0     C28300   1.730   7.189   5.621  0.3204 -0.5199  0.2685
  206MOL0     C28301   1.653   7.138   5.743 -0.1549 -0.0612  0.3942
  206MOL0     C28302   1.527   7.055   5.728 -0.3320 -0.8522 -0.9523
  206MOL0     C28303   1.407   7.113   5.646 -0.1248 -1.0449  0.0437
  206MOL0     C28304   1.361   7.264   5.679 -0.4517  0.6278 -0.4788
  206MOL0     C28305   1.298   7.258   5.812  0.0158 -0.1545  0.6768
  206MOL0     C28306   1.180   7.352   5.837  1.3633  0.3510  0.9924
  206MOL0     N28307   1.062   7.287   5.772 -0.2538  0.0623 -0.2134
  206MOL0     C28308   1.040   7.302   5.640 -1.3356  0.3311 -0.6087
  206MOL0     C28309   0.943   7.213   5.609 -0.4327 -0.3089 -1.1186
  206MOL0     C28310   0.875   7.190   5.479  0.1151  1.0254 -0.4508
  206MOL0     C28311   0.957   7.108   5.370  0.4487 -1.0455 -0.1751
  206MOL0     C28312   1.012   6.972   5.421 -0.3444  0.4167  0.6237
  206MOL0     C28313   0.902   6.877   5.469  0.9707  0.0066  0.3627
  206MOL0     O28314   0.948   6.740   5.491  0.4674  0.7889  0.2215
  206MOL0     C28315   0.995   6.692   5.616 -0.0727 -0.2856  0.3431
  206MOL0     C28316   1.023   6.785   5.720 -0.1419 -0.2419  0.4462
  206MOL0     C28317   1.073   6.739   5.844  0.7197 -0.0044  0.0107
  206MOL0     C28318   1.114   6.839   5.952  0.0766 -0.2254  0.2790
  206MOL0     C28319   1.080   6.604   5.876  0.1662  0.2517  0.6439
  206MOL0     C28320   1.120   6.543   6.008 -0.2922  0.1795 -0.0108
  206MOL0     O28321   1.091   6.610   6.120 -0.1754  0.3854 -0.1473
  206MOL0     C28322   1.114   6.565   6.249  0.2579 -0.6485 -0.3182
  206MOL0     C28323   1.166   6.649   6.344  0.3724 -1.4873  0.0543
  206MOL0     C28324   1.196   6.611   6.472 -0.8822 -1.0326  0.4588
  206MOL0     C28325   1.171   6.479   6.505  0.2519  0.1159 -0.0724
  206MOL0     O28326   1.181   6.445   6.639 -0.3585 -0.6408 -0.2160
  206MOL0     C28327   1.082   6.377   6.703 -0.0235  0.4135 -0.9274
  206MOL0     C28328   0.957   6.456   6.708 -0.1464  0.1915 -0.6555
  206MOL0     C28329   0.985   6.584   6.801 -0.1901 -0.3443  0.5086
  206MOL0     C28330   0.860   6.672   6.800  0.0122 -0.2707 -0.3066
  206MOL0     C28331   0.871   6.779   6.910 -0.8458  0.5281 -0.8092
  206MOL0     C28332   0.982   6.883   6.882  0.9129  0.0962 -0.0913
  206MOL0     C28333   0.953   7.004   6.970  0.9590  0.4763  0.2460
  206MOL0     C28334   0.977   6.962   7.117 -0.0803 -0.0097 -0.2221
  206MOL0    Cl28335   1.133   6.911   7.147  0.3607 -0.4243 -0.0960
  206MOL0     C28336   1.115   6.387   6.413  0.9024 -0.6861 -0.3460
  206MOL0     C28337   1.080   6.437   6.284 -0.1600  0.4510 -0.0408
  206MOL0     O28338   1.173   6.432   6.010  0.2197  0.4739  0.1162
  206MOL0     C28339   1.058   6.515   5.760  0.3736 -0.2193  0.0172
  206MOL0     C28340   1.016   6.563   5.633 -0.8982  0.5014 -0.3111
  206MOL0     N28341   0.922   7.139   5.717 -0.0034 -0.2389  0.0435
  206MOL0     N28342   0.983   7.193   5.815 -1.4612  0.5199 -0.3481
  206MOL0     C28343   1.704   7.646   5.627  0.7111 -0.0596 -0.7891
  206MOL0     C28344   1.747   7.774   5.587 -0.0717 -0.1533 -0.0803
  206MOL0     C28345   2.080   8.088   5.564 -1.0951 -0.9622 -0.5484
  206MOL0     C28346   2.161   8.040   5.457 -0.6822  0.0257  0.8865
  206MOL0     C28347   2.264   8.120   5.396  0.8988  0.3393  1.2473
  206MOL0     C28348   2.294   8.243   5.455 -0.5352 -0.8059  0.4126
  206MOL0     O28349   2.406   8.294   5.379  0.7287  0.1177 -0.2800
  206MOL0     C28350   2.451   8.425   5.406 -0.2051  0.4150  0.3780
  206MOL0     C28351   2.350   8.538   5.370  0.1443  1.3666 -0.0014
  206MOL0     C28352   2.311   8.553   5.215  0.1069  0.4889 -0.4890
  206MOL0     C28353   2.165   8.542   5.193 -0.3579  0.4481 -0.1532
  206MOL0     C28354   2.097   8.666   5.239  0.3304 -0.2929  0.8153
  206MOL0     C28355   2.035   8.760   5.289 -0.4041 -0.0343 -0.6578
  206MOL0     C28356   2.230   8.286   5.572 -0.5189  0.1826  0.0544
  206MOL0     C28357   2.123   8.214   5.628 -0.9890  0.3946 -0.6591
  206MOL0     C28358   2.051   8.270   5.751  0.2097 -0.2081  0.0079
  206MOL0     H28359   2.081   7.708   5.579  0.5179 -1.3595 -1.1131
  206MOL0     H28360   2.007   7.490   5.668 -0.5968  0.1782  2.0720
  206MOL0     H28361   1.879   7.280   5.747 -0.9823  2.0608  1.1228
  206MOL0     H28362   1.880   7.328   5.578  2.3670 -1.4532  0.7063
  206MOL0     H28363   1.662   7.217   5.540  1.0045 -1.9686 -0.8580
  206MOL0     H28364   1.793   7.105   5.588  3.9173  1.4005  1.7269
  206MOL0     H28365   1.724   7.081   5.802 -0.2304  0.3304  0.8769
  206MOL0     H28366   1.620   7.216   5.813 -1.5622  0.4773 -0.8043
  206MOL0     H28367   1.558   6.958   5.689 -0.9359 -1.1225 -0.7840
  206MOL0     H28368   1.484   7.027   5.825  2.1566 -1.4145  0.0608
  206MOL0     H28369   1.326   7.040   5.648  2.0823 -3.6324  1.0576
  206MOL0     H28370   1.436   7.112   5.541  0.1030 -1.5070  0.1058
  206MOL0     H28371   1.457   7.314   5.668  2.0047 -3.7321 -1.3890
  206MOL0     H28372   1.297   7.307   5.601  0.8167  2.0563 -0.7734
  206MOL0     H28373   1.379   7.272   5.884  0.2378  1.4340  0.1594
  206MOL0     H28374   1.270   7.155   5.837  1.3242 -0.0981  2.5473
  206MOL0     H28375   1.155   7.380   5.940 -2.8140  1.3752 -0.1255
  206MOL0     H28376   1.200   7.446   5.785  1.4816  0.4974  1.2952
  206MOL0     H28377   1.092   7.369   5.572  0.5409  0.1480  0.5736
  206MOL0     H28378   0.843   7.285   5.437 -1.8292 -0.6096 -2.9945
  206MOL0     H28379   0.787   7.129   5.500  0.5284  0.3393 -0.6418
  206MOL0     H28380   0.901   7.104   5.277  1.9884 -3.7682 -1.0992
  206MOL0     H28381   1.041   7.166   5.331  1.4090 -0.4375  2.5819
  206MOL0     H28382   1.069   6.930   5.337  2.0948  5.1454 -0.4619
  206MOL0     H28383   1.086   6.988   5.500  1.1723  0.2964 -0.7088
  206MOL0     H28384   0.862   6.922   5.560  2.4081 -0.0086  1.0270
  206MOL0     H28385   0.818   6.876   5.399 -0.2750 -0.8056  1.8175
  206MOL0     H28386   1.017   6.892   5.701 -1.6905 -0.1312  1.4079
  206MOL0     H28387   1.199   6.808   6.013  1.4535 -0.4676 -1.6709
  206MOL0     H28388   1.030   6.847   6.022  0.8525  0.6523  1.1429
  206MOL0     H28389   1.149   6.934   5.911 -0.8353  1.0406  2.2684
  206MOL0     H28390   1.188   6.751   6.312 -1.9723 -1.0305 -0.2818
  206MOL0     H28391   1.228   6.692   6.538  0.8536 -0.1386 -1.3679
  206MOL0     H28392   1.069   6.281   6.652  2.5635 -1.1452  1.0845
  206MOL0     H28393   1.112   6.343   6.802  0.2940  0.3692 -1.0388
  206MOL0     H28394   0.931   6.493   6.608  1.9624 -0.6675 -1.5674
  206MOL0     H28395   0.871   6.402   6.748 -0.1775  0.3307 -0.5342
  206MOL0     H28396   1.076   6.638   6.773 -0.9885  0.2989 -0.9449
  206MOL0     H28397   1.003   6.540   6.900 -1.8971 -1.6424  0.2902
  206MOL0     H28398   0.769   6.610   6.796 -0.6766  0.7645 -3.1734
  206MOL0     H28399   0.836   6.725   6.708 -3.0417 -1.6045 -0.4167
  206MOL0     H28400   0.779   6.834   6.932 -0.0860  1.2670  0.6203
  206MOL0     H28401   0.904   6.727   7.000  0.4624 -1.8422 -2.5444
  206MOL0     H28402   0.967   6.909   6.777  0.8888 -0.3093 -0.1888
  206MOL0     H28403   1.087   6.851   6.885  0.3527 -1.7851  1.2342
  206MOL0     H28404   0.852   7.041   6.950  1.6282  2.8598  0.9224
  206MOL0     H28405   1.031   7.081   6.966  0.7528  0.7372  1.2251
  206MOL0     H28406   0.905   6.889   7.157 -0.2556  1.0106  1.4492
  206MOL0     H28407   0.962   7.060   7.164  2.3433 -1.0801  3.1572
  206MOL0     H28408   1.094   6.283   6.435  1.2094 -0.8052 -0.6012
  206MOL0     H28409   1.017   6.384   6.214  0.3977 -2.8305  1.7459
  206MOL0     H28410   1.078   6.409   5.765 -0.5495 -0.3556  2.1692
  206MOL0     H28411   1.018   6.486   5.556 -2.8256 -2.2701  2.1700
  206MOL0     H28412   1.598   7.625   5.644  0.1213  0.4956 -3.2631
  206MOL0     H28413   1.673   7.854   5.582  2.0248  1.8596 -0.3363
  206MOL0     H28414   2.149   7.941   5.414  3.1111 -0.0198 -0.4985
  206MOL0     H28415   2.329   8.090   5.315  2.0534  2.1236  1.4671
  206MOL0     H28416   2.494   8.423   5.507  1.3597  0.9213 -0.2477
  206MOL0     H28417   2.535   8.433   5.336  1.0121 -0.2095  1.7214
  206MOL0     H28418   2.397   8.634   5.392  3.2379  0.2974 -1.4428
  206MOL0     H28419   2.261   8.521   5.431  0.7409  0.5023  0.6511
  206MOL0     H28420   2.329   8.653   5.173 -0.0486  0.6417 -0.1953
  206MOL0     H28421   2.367   8.472   5.168  0.9689  0.0292  1.2669
  206MOL0     H28422   2.145   8.453   5.253  1.5355  0.5845  0.7626
  206MOL0     H28423   2.149   8.514   5.088  4.0350  0.5526 -1.0337
  206MOL0     H28424   2.007   8.853   5.335  0.3428 -0.6327  1.0737
  206MOL0     H28425   2.260   8.384   5.609 -0.1424  0.7840 -1.7526
  206MOL0     H28426   2.035   8.190   5.824 -0.2551 -1.0664 -1.0090
  206MOL0     H28427   2.096   8.356   5.802 -0.6912 -0.1081  0.6617
  206MOL0     H28428   1.947   8.300   5.732 -0.2396  0.8837  3.4484
  207MOL0     O28429   0.396   6.488   4.188 -0.5811  0.8314  0.0217
  207MOL0     C28430   0.342   6.373   4.178 -0.1404 -0.6041  0.7047
  207MOL0     O28431   0.329   6.287   4.277 -0.2131  0.3257  0.6820
  207MOL0     C28432   0.363   6.318   4.402  1.0726 -0.2453  0.0933
  207MOL0     C28433   0.271   6.392   4.481  0.4578 -0.1628  1.6272
  207MOL0     C28434   0.280   6.400   4.612  0.7738  0.1212 -0.4002
  207MOL0     C28435   0.387   6.347   4.687  0.9240 -0.5721 -0.2126
  207MOL0     O28436   0.403   6.357   4.822 -0.3735 -0.1966  0.8672
  207MOL0     C28437   0.330   6.463   4.897  0.8446  0.6150 -0.3228
  207MOL0     C28438   0.388   6.600   4.886 -0.3418  0.3733  0.5719
  207MOL0     C28439   0.538   6.607   4.913  1.1748 -0.6860 -0.1249
  207MOL0     C28440   0.584   6.584   5.060  0.4476 -0.6361  0.1068
  207MOL0     C28441   0.735   6.555   5.058  0.2769 -0.8175  0.4068
  207MOL0     C28442   0.831   6.655   4.997 -1.9175 -0.6473  0.5092
  207MOL0     C28443   0.811   6.789   5.069  0.6870 -0.1398 -0.0193
  207MOL0     C28444   0.917   6.896   5.042 -0.0102 -0.7595 -0.5244
  207MOL0     N28445   0.884   6.973   4.917 -0.6990 -0.3212  0.4891
  207MOL0     C28446   0.901   6.923   4.791 -0.2332 -0.5178  0.0946
  207MOL0     C28447   0.848   7.012   4.703  0.5125  0.3410  1.2607
  207MOL0     C28448   0.833   7.010   4.548 -0.6845  0.4489 -0.1667
  207MOL0     C28449   0.958   7.023   4.460  0.7433 -0.4757  0.5621
  207MOL0     C28450   1.039   7.141   4.501  0.4278  0.2245 -0.2377
  207MOL0     C28451   1.165   7.150   4.412 -0.5848  0.4426 -0.2627
  207MOL0     O28452   1.237   7.024   4.403 -0.1235  0.2614  0.1694
  207MOL0     C28453   1.362   7.017   4.336  0.8929 -0.2030  0.3649
  207MOL0     C28454   1.442   7.132   4.327  0.7280  0.1491  1.0351
  207MOL0     C28455   1.556   7.151   4.240  0.1889  0.9755 -0.0920
  207MOL0     C28456   1.630   7.285   4.243  0.2281  0.3893 -0.2612
  207MOL0     C28457   1.586   7.043   4.155  0.4732  0.0018  0.4079
  207MOL0     C28458   1.705   7.042   4.065 -0.7024 -0.3715 -0.6479
  207MOL0     O28459   1.751   6.925   4.029 -0.4336  0.3246 -0.0381
  207MOL0     C28460   1.851   6.909   3.932 -0.2283  0.0018 -0.3421
  207MOL0     C28461   1.815   6.900   3.798 -0.7871 -0.2186 -0.8259
  207MOL0     C28462   1.913   6.879   3.707  0.4138  0.1045 -0.1590
  207MOL0     C28463   2.044   6.864   3.738  0.3268  0.1247 -0.0394
  207MOL0     O28464   2.148   6.842   3.653 -0.3837 -0.1526 -0.5531
  207MOL0     C28465   2.129   6.858   3.511  0.4154 -0.4082 -0.6621
  207MOL0     C28466   2.267   6.805   3.459  0.3336 -1.3697  0.2934
  207MOL0     C28467   2.371   6.914   3.484 -2.0417 -0.7686  0.4733
  207MOL0     C28468   2.440   6.938   3.621 -0.1195 -0.0332 -0.1382
  207MOL0     C28469   2.578   7.000   3.600  0.2626 -0.6609 -0.0731
  207MOL0     C28470   2.626   7.067   3.729  0.0619  0.4201  0.6686
  207MOL0     C28471   2.767   7.118   3.719  0.2199  0.1091 -0.2582
  207MOL0     C28472   2.794   7.178   3.857 -0.0964  0.8303 -0.4024
  207MOL0    Cl28473   2.833   7.041   3.964 -0.2283 -0.3381 -0.2969
  207MOL0     C28474   2.086   6.880   3.872 -0.8529  0.3104  0.4866
  207MOL0     C28475   1.986   6.905   3.964 -0.0758  0.5394 -0.7547
  207MOL0     O28476   1.750   7.147   4.017 -0.1878 -0.5276 -0.5916
  207MOL0     C28477   1.503   6.925   4.165  1.2188 -0.3812  0.5098
  207MOL0     C28478   1.394   6.910   4.258 -0.3497 -0.6801  0.5047
  207MOL0     N28479   0.770   7.094   4.786 -0.1946 -0.4382 -0.0839
  207MOL0     N28480   0.807   7.086   4.907  0.3551  0.6614 -0.0523
  207MOL0     C28481   0.477   6.272   4.613  0.1089  1.3066  0.0318
  207MOL0     C28482   0.470   6.263   4.476 -0.1080 -0.3843  0.1947
  207MOL0     C28483   0.315   6.323   4.037 -1.1758 -0.5550  0.2882
  207MOL0     C28484   0.303   6.178   4.021  0.7063  0.1490 -0.0494
  207MOL0     C28485   0.261   6.128   3.896 -0.7206 -0.6157 -0.7856
  207MOL0     C28486   0.266   6.217   3.781  0.1182  0.2413 -0.2658
  207MOL0     O28487   0.253   6.174   3.654 -0.4410  0.7159  0.3988
  207MOL0     C28488   0.242   6.032   3.628  0.1027  0.0995 -0.8224
  207MOL0     C28489   0.381   5.954   3.650 -0.5299  0.1383 -0.1155
  207MOL0     C28490   0.366   5.814   3.607  0.1994  0.1329  0.1633
  207MOL0     C28491   0.263   5.745   3.706 -0.3775  0.2389  0.4506
  207MOL0     C28492   0.279   5.598   3.715 -1.0977 -0.1241 -0.2014
  207MOL0     C28493   0.282   5.478   3.733  0.0460 -0.6970  0.3359
  207MOL0     C28494   0.278   6.346   3.804 -0.0361  0.2912  1.0694
  207MOL0     C28495   0.304   6.404   3.916 -0.6561 -0.8694 -0.2652
  207MOL0     C28496   0.311   6.557   3.912  0.6636  0.3630  0.3649
  207MOL0     H28497   0.193   6.448   4.431  0.5940  0.2105  1.8307
  207MOL0     H28498   0.196   6.452   4.656 -0.8513 -2.3088 -0.4270
  207MOL0     H28499   0.330   6.438   5.003 -1.8272 -0.7048 -0.5450
  207MOL0     H28500   0.225   6.450   4.871  1.5684  1.0689 -4.1043
  207MOL0     H28501   0.365   6.641   4.788  1.4494  0.2474  0.0537
  207MOL0     H28502   0.334   6.670   4.951 -2.3961  1.4041 -2.0778
  207MOL0     H28503   0.590   6.537   4.848  0.9770  0.1272 -1.2011
  207MOL0     H28504   0.576   6.703   4.878  1.5735 -1.3969 -1.7081
  207MOL0     H28505   0.560   6.666   5.129  1.9337  1.0184 -1.2413
  207MOL0     H28506   0.542   6.490   5.095 -0.5303  0.1322  1.0520
  207MOL0     H28507   0.752   6.462   5.003 -0.6730 -0.3087 -0.7965
  207MOL0     H28508   0.752   6.536   5.164 -0.5475 -1.8616  0.3647
  207MOL0     H28509   0.937   6.626   4.997 -1.2825  1.5144  0.8511
  207MOL0     H28510   0.806   6.656   4.890  1.9557 -1.3049 -0.5623
  207MOL0     H28511   0.808   6.770   5.177  0.6983 -3.0580 -0.4563
  207MOL0     H28512   0.716   6.837   5.043  0.2666  0.2710  2.1048
  207MOL0     H28513   0.924   6.965   5.127  1.5074  0.1641 -1.3524
  207MOL0     H28514   1.013   6.847   5.023  0.2458 -0.1476 -0.8327
  207MOL0     H28515   0.950   6.829   4.769  1.9512 -0.4683  3.8818
  207MOL0     H28516   0.765   7.095   4.536 -2.1639  0.0140  3.8042
  207MOL0     H28517   0.786   6.914   4.525  0.5584 -0.0763 -0.5851
  207MOL0     H28518   1.018   6.932   4.467 -0.9297 -1.8837 -1.7656
  207MOL0     H28519   0.925   7.034   4.356 -1.5018 -0.7887  1.1922
  207MOL0     H28520   0.976   7.229   4.488 -1.3857 -1.3684 -3.7704
  207MOL0     H28521   1.071   7.123   4.604 -0.6259 -0.4171 -0.0115
  207MOL0     H28522   1.142   7.180   4.309  1.7131  0.8851 -0.6922
  207MOL0     H28523   1.220   7.240   4.442  0.7165 -0.2767 -0.4261
  207MOL0     H28524   1.428   7.227   4.378  4.0865  1.3987 -0.1249
  207MOL0     H28525   1.728   7.254   4.280 -1.8874 -3.3675  3.1598
  207MOL0     H28526   1.593   7.364   4.309  2.0883  0.7364  0.4165
  207MOL0     H28527   1.625   7.322   4.141 -3.2972 -1.9220 -1.1306
  207MOL0     H28528   1.712   6.896   3.765 -0.4275 -2.7912 -1.8879
  207MOL0     H28529   1.899   6.870   3.599  2.1226  1.6201 -0.5437
  207MOL0     H28530   2.042   6.801   3.476 -0.2114  0.3529 -0.3660
  207MOL0     H28531   2.114   6.965   3.493  0.5455 -0.6838 -2.6872
  207MOL0     H28532   2.287   6.703   3.495  0.9132 -0.5086  2.5802
  207MOL0     H28533   2.264   6.795   3.351 -2.5777  0.1542  0.1120
  207MOL0     H28534   2.333   7.011   3.451 -3.9363 -1.4909  0.3816
  207MOL0     H28535   2.437   6.865   3.412 -4.3238  1.1812 -3.2944
  207MOL0     H28536   2.455   6.844   3.676  0.4401  1.2327  2.0097
  207MOL0     H28537   2.380   7.008   3.680  2.4033  0.8188  1.6133
  207MOL0     H28538   2.643   6.927   3.551 -0.9203 -0.5283 -1.9565
  207MOL0     H28539   2.570   7.089   3.537  0.8207  0.0536  0.8437
  207MOL0     H28540   2.617   6.984   3.799 -2.6681 -2.9829 -3.2454
  207MOL0     H28541   2.560   7.148   3.763  0.3921  2.1013 -2.2986
  207MOL0     H28542   2.769   7.190   3.637  2.8132  1.2758  0.7402
  207MOL0     H28543   2.842   7.040   3.706 -0.6271 -0.7852  0.0567
  207MOL0     H28544   2.714   7.248   3.882 -2.6801 -2.3322  0.8427
  207MOL0     H28545   2.888   7.235   3.856 -0.2602  1.1509  0.8433
  207MOL0     H28546   2.187   6.870   3.910 -0.5260 -1.4655 -0.6995
  207MOL0     H28547   2.007   6.914   4.071 -0.6785 -1.0781 -0.4780
  207MOL0     H28548   1.527   6.837   4.106 -0.0651 -0.3898 -0.0340
  207MOL0     H28549   1.333   6.821   4.272 -0.7312 -0.6768 -0.9617
  207MOL0     H28550   0.566   6.244   4.669 -0.6329  2.2409  1.7486
  207MOL0     H28551   0.558   6.220   4.428  0.9993 -2.5143  3.7433
  207MOL0     H28552   0.296   6.123   4.114  4.3910 -0.1214  0.2177
  207MOL0     H28553   0.234   6.023   3.892 -0.0882 -0.8096 -0.1360
  207MOL0     H28554   0.161   5.996   3.692 -0.3024  2.8073  0.3170
  207MOL0     H28555   0.205   6.018   3.525 -4.4493 -0.3674  0.6344
  207MOL0     H28556   0.426   5.959   3.750  1.1653  2.5645 -0.9144
  207MOL0     H28557   0.456   6.002   3.586  0.2751  0.1787  0.8315
  207MOL0     H28558   0.321   5.816   3.507 -0.9168  0.6521  0.6509
  207MOL0     H28559   0.460   5.758   3.610  0.5150  0.6442  3.8515
  207MOL0     H28560   0.167   5.775   3.662 -0.7393  0.4488  1.3564
  207MOL0     H28561   0.271   5.786   3.807  2.4305 -0.5360  0.6127
  207MOL0     H28562   0.278   5.373   3.753 -1.9259 -0.8028 -0.3545
  207MOL0     H28563   0.279   6.405   3.713  0.2818 -1.4195 -0.0837
  207MOL0     H28564   0.274   6.597   4.007  3.3094  1.1153  1.1630
  207MOL0     H28565   0.415   6.588   3.902  0.5507  0.2721 -1.3986
  207MOL0     H28566   0.254   6.598   3.828  1.0253  2.9595  1.2879
  208MOL0     O28567  10.610   7.297  11.549  0.8026  0.7218 -0.2406
  208MOL0     C28568  10.529   7.389  11.521  0.1614  0.0439 -0.5279
  208MOL0     O28569  10.531   7.524  11.566 -0.3506  0.7883  0.4601
  208MOL0     C28570  10.651   7.558  11.621 -0.4776 -0.2018  0.9259
  208MOL0     C28571  10.762   7.575  11.549  0.6408 -0.6422  0.4781
  208MOL0     C28572  10.881   7.611  11.610  0.4015  0.7205 -0.0793
  208MOL0     C28573  10.888   7.626  11.747 -0.1163  0.7754 -0.7603
  208MOL0     O28574  11.007   7.675  11.805 -0.4755  0.2883 -0.0742
  208MOL0     C28575  10.998   7.766  11.917  0.8146 -0.1499  0.2477
  208MOL0     C28576  11.143   7.840  11.926 -0.2412 -0.3488 -0.3471
  208MOL0     C28577  11.260   7.738  11.915  0.0280 -0.4151 -0.3955
  208MOL0     C28578  11.401   7.793  11.935  1.2863  0.0967 -0.7708
  208MOL0     C28579  11.508   7.692  11.906 -0.8554  0.0914  0.5627
  208MOL0     C28580  11.515   7.579  12.004  0.3267 -0.0841  0.0910
  208MOL0     C28581  11.659   7.520  12.026  0.0623 -0.5769  0.2449
  208MOL0     C28582  11.687   7.430  12.152 -0.6755  0.7301  0.2252
  208MOL0     N28583  11.826   7.398  12.162  0.2256  0.9265  0.8589
  208MOL0     C28584  11.934   7.479  12.158 -0.6377 -0.6997 -0.2264
  208MOL0     C28585  12.039   7.393  12.155 -0.3074 -0.9745 -0.2439
  208MOL0     C28586  12.186   7.411  12.163 -0.4768 -0.4009 -0.0065
  208MOL0     C28587  12.230   7.416  12.312 -0.4952 -0.4233 -0.7704
  208MOL0     C28588  12.208   7.289  12.396  0.1380  0.7303 -0.7196
  208MOL0     C28589  12.276   7.160  12.345 -0.0229  0.6772 -0.5203
  208MOL0     O28590  12.403   7.181  12.293 -0.2704 -0.5916  0.6975
  208MOL0     C28591  12.461   7.088  12.207  0.2142  0.3915  0.3317
  208MOL0     C28592  12.421   6.949  12.197 -0.3175  1.2543 -0.1338
  208MOL0     C28593  12.502   6.854  12.141 -0.0394  0.6351 -0.7840
  208MOL0     C28594  12.457   6.706  12.162  0.0060  0.2087  0.1548
  208MOL0     C28595  12.615   6.897  12.076 -0.3528  0.9003  0.4236
  208MOL0     C28596  12.727   6.808  12.020 -0.5718  1.5013 -0.0932
  208MOL0     O28597  12.703   6.671  12.004  0.3693 -0.7372 -0.2595
  208MOL0     C28598  12.792   6.577  11.970 -0.9334 -0.3182 -0.6425
  208MOL0     C28599  12.895   6.580  11.865  0.7820 -0.5578 -0.3028
  208MOL0     C28600  12.990   6.480  11.838  0.1977  0.0523 -0.2697
  208MOL0     C28601  12.985   6.372  11.928  0.3231  0.1811 -0.1862
  208MOL0     O28602  13.093   6.292  11.915  0.0448  0.1176  0.1728
  208MOL0     C28603  13.142   6.198  12.015 -0.4510 -0.2303  0.3864
  208MOL0     C28604  13.285   6.162  11.988  0.1485  0.4052 -0.7551
  208MOL0     C28605  13.377   6.275  11.942  1.3391 -0.4248 -0.3589
  208MOL0     C28606  13.525   6.210  11.938 -0.1940  0.5641 -0.0764
  208MOL0     C28607  13.620   6.316  11.889  0.3862  0.8543 -0.4001
  208MOL0     C28608  13.754   6.265  11.843 -0.5505 -0.4435 -0.2992
  208MOL0     C28609  13.833   6.353  11.741 -0.6959 -0.1161 -0.3644
  208MOL0     C28610  13.819   6.508  11.769 -0.2178  0.7585 -0.3345
  208MOL0    Cl28611  13.955   6.603  11.711 -0.1586 -0.0155 -0.1801
  208MOL0     C28612  12.888   6.371  12.035  0.3070  1.8870 -0.6308
  208MOL0     C28613  12.791   6.471  12.057  0.0562 -0.0179  0.0031
  208MOL0     O28614  12.836   6.857  11.989  0.7912  0.3085 -0.3807
  208MOL0     C28615  12.649   7.035  12.073 -0.0011 -0.4888 -0.4588
  208MOL0     C28616  12.579   7.123  12.144  0.2707 -0.2795  0.3819
  208MOL0     N28617  11.983   7.269  12.162 -0.1336 -0.0291 -0.6654
  208MOL0     N28618  11.864   7.266  12.174 -0.3894 -0.6936 -0.0225
  208MOL0     C28619  10.758   7.630  11.817  0.4333  0.3101 -0.0140
  208MOL0     C28620  10.648   7.589  11.754 -0.2789  0.6093 -0.2692
  208MOL0     C28621  10.432   7.371  11.407 -0.3729  0.9791  0.1064
  208MOL0     C28622  10.344   7.471  11.371 -0.3631 -0.6285  0.1365
  208MOL0     C28623  10.235   7.448  11.288 -0.2956 -0.0645  0.2172
  208MOL0     C28624  10.216   7.327  11.229  0.1479  0.4028  0.6382
  208MOL0     O28625  10.102   7.287  11.150  0.1680 -0.2767  0.6054
  208MOL0     C28626   9.990   7.375  11.152  0.1625 -0.1609  0.4741
  208MOL0     C28627   9.899   7.369  11.281  0.0938  0.0667  0.1404
  208MOL0     C28628   9.876   7.241  11.363  0.7432 -1.1293 -0.4407
  208MOL0     C28629   9.753   7.249  11.449  0.1402  0.0536 -0.3869
  208MOL0     C28630   9.753   7.375  11.534  1.1234 -0.0088  0.2062
  208MOL0     C28631   9.745   7.479  11.596  0.8441 -0.2809 -0.4212
  208MOL0     C28632  10.309   7.228  11.246 -0.1481 -0.6614  0.1083
  208MOL0     C28633  10.416   7.253  11.328  0.0475 -0.6899  0.9640
  208MOL0     C28634  10.512   7.136  11.341 -0.6653  0.0339 -0.1139
  208MOL0     H28635  10.764   7.553  11.443  0.0805 -1.7876  0.6869
  208MOL0     H28636  10.971   7.632  11.554  1.7509 -0.7894  1.4333
  208MOL0     H28637  10.972   7.717  12.011  0.6457 -0.7555 -0.1057
  208MOL0     H28638  10.928   7.848  11.899 -0.1141 -0.5185  1.9565
  208MOL0     H28639  11.156   7.908  11.842  0.4791 -0.7573 -0.5824
  208MOL0     H28640  11.149   7.904  12.014  1.2634 -0.5426 -0.2872
  208MOL0     H28641  11.250   7.670  12.000 -0.4683  0.5258  0.3268
  208MOL0     H28642  11.257   7.679  11.823 -0.2476 -1.5188  0.3061
  208MOL0     H28643  11.425   7.874  11.865  1.1811  1.0816  0.2927
  208MOL0     H28644  11.402   7.842  12.033  1.0338  0.8998 -1.1600
  208MOL0     H28645  11.609   7.731  11.924 -0.8297  0.1452  0.3059
  208MOL0     H28646  11.508   7.656  11.803 -1.6482 -0.3246  0.6987
  208MOL0     H28647  11.482   7.605  12.105 -1.2030 -0.1521 -0.3668
  208MOL0     H28648  11.458   7.498  11.958 -2.2110  1.9665 -0.6481
  208MOL0     H28649  11.738   7.596  12.015 -1.9851  1.3348 -2.7118
  208MOL0     H28650  11.683   7.460  11.938 -0.6945  0.4708 -0.7015
  208MOL0     H28651  11.653   7.493  12.235  1.1779  2.0463  0.0648
  208MOL0     H28652  11.623   7.342  12.153 -2.7507  2.1605 -0.0534
  208MOL0     H28653  11.940   7.588  12.158  3.1296 -0.7763 -1.5303
  208MOL0     H28654  12.209   7.511  12.127  2.8895 -1.1326 -0.2467
  208MOL0     H28655  12.248   7.347  12.099  2.3380  3.2353 -1.3136
  208MOL0     H28656  12.337   7.439  12.306 -0.2897 -0.8630  0.9154
  208MOL0     H28657  12.173   7.493  12.364 -1.2289 -1.3793 -0.1352
  208MOL0     H28658  12.247   7.313  12.496 -0.4376  1.1535 -0.5984
  208MOL0     H28659  12.102   7.266  12.382 -0.0700  1.5470 -0.5381
  208MOL0     H28660  12.278   7.078  12.417  0.0900  1.0064 -0.1450
  208MOL0     H28661  12.219   7.116  12.263 -3.1699 -0.3610  2.0164
  208MOL0     H28662  12.327   6.914  12.238 -0.1346 -0.1857 -0.8612
  208MOL0     H28663  12.543   6.642  12.184 -1.6642 -1.5852  1.8846
  208MOL0     H28664  12.416   6.673  12.066  0.8306 -0.4898  0.0297
  208MOL0     H28665  12.384   6.691  12.242  2.5444  0.2100  2.6170
  208MOL0     H28666  12.900   6.672  11.808  2.1985  0.7649  1.8182
  208MOL0     H28667  13.060   6.495  11.756  1.4125  0.3527  0.7814
  208MOL0     H28668  13.131   6.264  12.102 -2.4676  0.1411 -0.0883
  208MOL0     H28669  13.076   6.111  12.017 -0.0436 -0.5504 -0.0162
  208MOL0     H28670  13.325   6.136  12.087  1.7408  0.4222 -1.3605
  208MOL0     H28671  13.288   6.075  11.922 -1.5759  0.9574 -1.6059
  208MOL0     H28672  13.372   6.360  12.011 -0.6309 -0.5557 -0.2811
  208MOL0     H28673  13.344   6.319  11.848 -0.9391 -2.8442 -0.8309
  208MOL0     H28674  13.522   6.130  11.863  1.1373  0.1499  0.2834
  208MOL0     H28675  13.561   6.167  12.032  1.8535  1.0976 -0.5796
  208MOL0     H28676  13.579   6.364  11.799 -0.8222 -1.8079 -1.4030
  208MOL0     H28677  13.632   6.384  11.973 -0.7723 -0.2392  0.6876
  208MOL0     H28678  13.744   6.172  11.786  2.1867 -0.5382 -0.7197
  208MOL0     H28679  13.817   6.245  11.930  1.8906  2.9352 -1.1132
  208MOL0     H28680  13.801   6.339  11.637  0.5064 -1.7058 -0.5663
  208MOL0     H28681  13.938   6.325  11.733 -0.4205  0.8587 -0.2016
  208MOL0     H28682  13.828   6.518  11.878 -1.8177  1.5042 -0.2360
  208MOL0     H28683  13.726   6.548  11.727 -1.3855  0.6015  1.8940
  208MOL0     H28684  12.883   6.289  12.105  1.2706  0.9423 -1.6403
  208MOL0     H28685  12.719   6.487  12.137 -0.2649 -0.3768 -0.2158
  208MOL0     H28686  12.732   7.080  12.019  0.7491 -1.8929 -0.5248
  208MOL0     H28687  12.610   7.227  12.145  1.4461 -0.6069  2.1928
  208MOL0     H28688  10.745   7.659  11.921 -0.9208 -0.6065  0.0988
  208MOL0     H28689  10.560   7.580  11.817 -0.7388 -4.0825 -1.1661
  208MOL0     H28690  10.377   7.571  11.398 -0.8534 -0.3344 -0.3252
  208MOL0     H28691  10.190   7.543  11.261 -1.5834 -0.5362  0.6205
  208MOL0     H28692  10.028   7.477  11.138 -0.7928  0.5305  2.5666
  208MOL0     H28693   9.949   7.356  11.053  2.3926 -1.2600 -0.3102
  208MOL0     H28694   9.802   7.411  11.252  0.9074  3.1703  1.4354
  208MOL0     H28695   9.950   7.437  11.351  2.0835 -0.4600 -0.7223
  208MOL0     H28696   9.876   7.160  11.290 -0.0597 -0.7387 -0.9035
  208MOL0     H28697   9.962   7.229  11.428  1.7412 -1.2708 -1.7421
  208MOL0     H28698   9.759   7.161  11.514  2.6172 -1.9285 -3.0578
  208MOL0     H28699   9.662   7.242  11.390  0.1878  0.2381 -0.4840
  208MOL0     H28700   9.732   7.578  11.635  1.2747  0.3239 -1.7781
  208MOL0     H28701  10.313   7.124  11.215  4.5139 -0.5819 -0.3178
  208MOL0     H28702  10.618   7.165  11.349 -1.0274  0.9975  1.6210
  208MOL0     H28703  10.478   7.073  11.424 -0.7848 -1.5674 -1.3270
  208MOL0     H28704  10.514   7.074  11.250  1.3308  1.1715 -0.9214
  209MOL0     O28705   7.655   2.995  10.026 -0.6997  0.6543  0.7741
  209MOL0     C28706   7.544   2.947  10.024 -0.1460 -0.2167 -0.1733
  209MOL0     O28707   7.486   2.895   9.911  0.1414 -0.4666  0.4706
  209MOL0     C28708   7.557   2.888   9.793 -0.4275  0.1431 -0.2175
  209MOL0     C28709   7.534   2.969   9.679 -0.1986 -0.0866 -0.5100
  209MOL0     C28710   7.620   2.960   9.568  0.0303  0.1355  0.7678
  209MOL0     C28711   7.732   2.878   9.559 -0.1878  0.1353 -0.6236
  209MOL0     O28712   7.831   2.874   9.461  0.3385  0.5396  0.2440
  209MOL0     C28713   7.804   2.918   9.326  0.0438 -1.0414  0.3385
  209MOL0     C28714   7.743   2.786   9.259  0.2623 -0.7747 -0.3543
  209MOL0     C28715   7.672   2.797   9.125  0.0302  0.6902  0.6032
  209MOL0     C28716   7.618   2.663   9.076  0.0846 -0.4060  0.0275
  209MOL0     C28717   7.532   2.675   8.949  0.6747 -0.9751  0.0950
  209MOL0     C28718   7.515   2.537   8.878 -0.3801  0.4544 -0.2561
  209MOL0     C28719   7.438   2.562   8.751  0.3295 -0.1255  0.4846
  209MOL0     C28720   7.398   2.439   8.676 -0.8801  0.1919  0.1163
  209MOL0     N28721   7.502   2.380   8.587 -0.3667  0.1434 -0.2223
  209MOL0     C28722   7.621   2.317   8.624  0.0455  0.1216  0.9287
  209MOL0     C28723   7.687   2.277   8.509 -0.5335  0.6667 -0.3627
  209MOL0     C28724   7.821   2.210   8.494  0.0595 -0.7664  0.7888
  209MOL0     C28725   7.810   2.075   8.570 -0.6592 -1.0556 -0.0473
  209MOL0     C28726   7.851   2.088   8.716 -0.6536 -0.9119  0.6914
  209MOL0     C28727   7.898   1.965   8.796  0.1256 -0.8976 -0.6992
  209MOL0     O28728   8.021   1.932   8.728 -0.8132 -0.3508  0.5687
  209MOL0     C28729   8.090   1.816   8.753 -0.3272 -0.8318 -0.3792
  209MOL0     C28730   8.036   1.706   8.817 -0.1347  0.6078  0.4002
  209MOL0     C28731   8.098   1.571   8.821  1.2708 -0.5650 -0.2418
  209MOL0     C28732   8.027   1.460   8.899 -0.3692 -0.3423  0.8959
  209MOL0     C28733   8.216   1.566   8.753 -0.8050 -0.4415 -0.0553
  209MOL0     C28734   8.282   1.432   8.719 -0.0709 -0.3545  0.5053
  209MOL0     O28735   8.404   1.443   8.651  0.1194 -0.1215  0.2008
  209MOL0     C28736   8.482   1.342   8.591  0.7569  0.2996  0.0744
  209MOL0     C28737   8.587   1.384   8.509  0.1224 -0.3784 -0.1124
  209MOL0     C28738   8.670   1.301   8.444  0.5321  0.1577 -0.2874
  209MOL0     C28739   8.641   1.166   8.446 -0.5482  0.1004 -0.7243
  209MOL0     O28740   8.724   1.070   8.396 -0.2807  0.1288  0.0001
  209MOL0     C28741   8.821   1.107   8.294  0.6891 -0.4551  0.2644
  209MOL0     C28742   8.936   1.001   8.280 -0.6585  0.5823 -0.3476
  209MOL0     C28743   9.001   1.013   8.152  0.8019 -0.8051  0.9057
  209MOL0     C28744   9.122   1.119   8.163  0.2642  0.5358  0.2611
  209MOL0     C28745   9.164   1.147   8.016  0.4348  0.6122  0.1442
  209MOL0     C28746   9.285   1.244   8.019 -0.8378  0.0636  0.3384
  209MOL0     C28747   9.279   1.360   7.916  0.4165  0.7624 -0.2016
  209MOL0     C28748   9.413   1.447   7.931  0.5044 -0.3974 -0.7942
  209MOL0    Cl28749   9.552   1.349   7.869 -0.0482  0.1866 -0.5309
  209MOL0     C28750   8.521   1.120   8.519 -0.6784  0.2366  0.8359
  209MOL0     C28751   8.448   1.211   8.590  0.9426  0.1308  0.1926
  209MOL0     O28752   8.242   1.335   8.776 -0.8034  0.0970  0.0201
  209MOL0     C28753   8.275   1.684   8.693 -0.7099 -0.3468  0.4502
  209MOL0     C28754   8.218   1.810   8.697 -0.2625 -0.1560 -0.2081
  209MOL0     N28755   7.608   2.332   8.409  0.2884  1.0279  0.7606
  209MOL0     N28756   7.494   2.382   8.454  0.3379 -1.7318 -0.6449
  209MOL0     C28757   7.746   2.794   9.676  0.4104 -0.0107 -0.0368
  209MOL0     C28758   7.661   2.793   9.789  0.9904  0.2486 -0.8079
  209MOL0     C28759   7.466   2.926  10.154  0.2192 -0.1916  0.0426
  209MOL0     C28760   7.378   2.826  10.161 -0.3346  0.2069  0.0132
  209MOL0     C28761   7.310   2.788  10.281 -0.8884  0.0830 -0.0893
  209MOL0     C28762   7.312   2.873  10.395 -0.1699 -0.3668  0.4542
  209MOL0     O28763   7.240   2.853  10.514 -0.0897 -0.1226  0.2582
  209MOL0     C28764   7.172   2.958  10.569 -0.5132  0.4266 -0.5432
  209MOL0     C28765   7.213   2.968  10.714 -0.2914  0.8254  0.4409
  209MOL0     C28766   7.148   2.863  10.800 -0.1240  0.0065 -0.2135
  209MOL0     C28767   7.119   2.922  10.937  0.3672  0.3988 -0.2344
  209MOL0     C28768   7.074   2.804  11.016 -0.2042  0.0438  0.4567
  209MOL0     C28769   7.036   2.694  11.054 -0.0773  0.1801 -0.2280
  209MOL0     C28770   7.404   2.978  10.383  0.9407  0.1620  0.1588
  209MOL0     C28771   7.478   3.006  10.270  0.8319  0.0344  0.4271
  209MOL0     C28772   7.563   3.139  10.273 -0.2277  0.3425  0.1823
  209MOL0     H28773   7.449   3.034   9.691  0.5148  0.7204  0.3064
  209MOL0     H28774   7.578   3.023   9.489  1.5684  0.1157 -0.1161
  209MOL0     H28775   7.894   2.942   9.269  1.1777 -0.4719  2.3084
  209MOL0     H28776   7.732   3.000   9.315  0.9664 -0.4549 -1.7656
  209MOL0     H28777   7.825   2.718   9.234  1.0384  0.8018 -2.4091
  209MOL0     H28778   7.678   2.738   9.333 -0.9004  0.3139 -0.6314
  209MOL0     H28779   7.583   2.860   9.130 -2.1216 -2.1993  1.1127
  209MOL0     H28780   7.742   2.823   9.045  0.8681 -1.6410  0.5124
  209MOL0     H28781   7.707   2.599   9.069  1.8029  1.8832 -0.1951
  209MOL0     H28782   7.560   2.622   9.159 -2.0557  0.4555 -0.9581
  209MOL0     H28783   7.585   2.741   8.879  0.5918 -0.8652  0.1373
  209MOL0     H28784   7.439   2.730   8.958  2.7385  2.5460  1.7983
  209MOL0     H28785   7.610   2.496   8.843  0.0466 -1.4892  2.7985
  209MOL0     H28786   7.462   2.466   8.942 -1.3229 -2.8369 -4.2715
  209MOL0     H28787   7.484   2.639   8.688 -1.3579 -1.0000 -1.9725
  209MOL0     H28788   7.343   2.609   8.778  0.5198  0.6209 -0.0902
  209MOL0     H28789   7.380   2.356   8.745 -1.8583  0.3605  0.0750
  209MOL0     H28790   7.311   2.457   8.612 -1.8374  0.1298  1.3657
  209MOL0     H28791   7.649   2.306   8.728  1.7659 -0.9138  0.3953
  209MOL0     H28792   7.895   2.266   8.553 -2.3556  2.3287  1.1372
  209MOL0     H28793   7.845   2.204   8.388 -2.1466  2.3842 -0.0183
  209MOL0     H28794   7.710   2.032   8.564 -0.4355 -1.4142 -1.4051
  209MOL0     H28795   7.885   2.022   8.512 -0.2074  0.2447 -0.6889
  209MOL0     H28796   7.945   2.143   8.708 -1.0905 -0.1166  0.8870
  209MOL0     H28797   7.787   2.142   8.787 -0.2519  0.3829  0.1066
  209MOL0     H28798   7.909   1.989   8.902 -1.2239 -1.2198 -0.4626
  209MOL0     H28799   7.822   1.886   8.798 -2.0068  1.0507  1.2462
  209MOL0     H28800   7.944   1.723   8.872 -0.1033 -0.9792  1.0049
  209MOL0     H28801   8.105   1.389   8.928  1.5723  0.8659 -1.0087
  209MOL0     H28802   7.954   1.406   8.837 -2.0881  3.4899 -0.7434
  209MOL0     H28803   7.998   1.505   8.994  0.7341  0.5513  0.8373
  209MOL0     H28804   8.619   1.487   8.520 -2.6218  0.6042 -0.4964
  209MOL0     H28805   8.760   1.341   8.400  0.9897 -1.2126 -0.6264
  209MOL0     H28806   8.775   1.118   8.196  1.4072  0.1939 -0.0093
  209MOL0     H28807   8.879   1.197   8.316  1.1920 -0.7886  0.3338
  209MOL0     H28808   9.013   0.997   8.358  0.5239 -1.4919 -1.5481
  209MOL0     H28809   8.888   0.903   8.272  0.8355 -0.2349  0.2480
  209MOL0     H28810   8.924   1.041   8.080  0.9268  0.8193  1.3663
  209MOL0     H28811   9.043   0.921   8.109 -0.1712 -0.2597 -1.4083
  209MOL0     H28812   9.201   1.083   8.230 -1.0707 -0.3296  1.4258
  209MOL0     H28813   9.083   1.212   8.207  3.0480  0.7180  2.6781
  209MOL0     H28814   9.198   1.057   7.966 -2.1051 -1.0052  1.1076
  209MOL0     H28815   9.076   1.188   7.965  1.6664  2.6265 -0.4752
  209MOL0     H28816   9.374   1.190   7.985 -0.9597  0.6057 -0.8891
  209MOL0     H28817   9.296   1.276   8.123 -0.0545  1.6006 -0.1903
  209MOL0     H28818   9.194   1.429   7.920  0.5032  0.8572  0.0170
  209MOL0     H28819   9.270   1.315   7.817 -2.7899 -1.3229  0.8692
  209MOL0     H28820   9.409   1.496   8.029  0.0691 -0.6853 -0.6654
  209MOL0     H28821   9.414   1.535   7.865 -3.2164  0.0946 -0.4058
  209MOL0     H28822   8.496   1.015   8.529  0.2790  0.1843  3.2168
  209MOL0     H28823   8.373   1.170   8.657  0.1304  1.8210  0.3686
  209MOL0     H28824   8.376   1.682   8.653 -1.2413  3.0687 -1.4377
  209MOL0     H28825   8.276   1.894   8.659  0.5894 -0.2467  0.8102
  209MOL0     H28826   7.838   2.736   9.678 -0.9359 -2.3832 -1.6428
  209MOL0     H28827   7.674   2.751   9.889 -4.9217 -0.6399 -0.0314
  209MOL0     H28828   7.378   2.755  10.079 -0.0729  0.6755 -0.3923
  209MOL0     H28829   7.262   2.693  10.306 -1.7545  0.5066 -0.0989
  209MOL0     H28830   7.196   3.056  10.527  2.9462  1.0763  2.4532
  209MOL0     H28831   7.066   2.938  10.555 -0.9855  0.8898  1.8787
  209MOL0     H28832   7.192   3.071  10.744  1.8147  2.4725 -3.1340
  209MOL0     H28833   7.321   2.951  10.717  0.5461  4.8936 -1.0890
  209MOL0     H28834   7.050   2.835  10.761 -1.5070  3.7035  0.2060
  209MOL0     H28835   7.218   2.780  10.814  2.3117  2.0414  0.4242
  209MOL0     H28836   7.043   3.002  10.940  1.7024  1.7345  2.6094
  209MOL0     H28837   7.216   2.957  10.973 -0.3059  0.8747  1.2030
  209MOL0     H28838   7.007   2.593  11.075  1.7785 -0.7053 -1.6410
  209MOL0     H28839   7.404   3.047  10.466 -2.5930  0.7741 -0.1664
  209MOL0     H28840   7.614   3.142  10.369 -3.6622 -1.4923  2.2728
  209MOL0     H28841   7.641   3.142  10.197 -1.3991  0.6074 -1.0509
  209MOL0     H28842   7.500   3.227  10.257 -1.0586 -0.1743  0.5492
  210MOL0     O28843   4.662   9.855   4.353  0.1067  0.3352  0.7280
  210MOL0     C28844   4.697   9.739   4.370 -0.6833  0.7766  0.7899
  210MOL0     O28845   4.678   9.671   4.485  0.0689  0.1850 -0.0753
  210MOL0     C28846   4.584   9.736   4.558  0.1516  0.1526 -0.1849
  210MOL0     C28847   4.447   9.707   4.540 -0.2770 -0.2156  0.0181
  210MOL0     C28848   4.344   9.751   4.620  0.2023 -0.2440  0.4879
  210MOL0     C28849   4.374   9.829   4.736 -0.6550  0.1778 -0.8369
  210MOL0     O28850   4.279   9.890   4.805  1.4813  0.4916 -0.4865
  210MOL0     C28851   4.147   9.895   4.743 -1.3344  0.1951  0.0159
  210MOL0     C28852   4.042   9.976   4.813  0.3453  0.1141  1.1989
  210MOL0     C28853   3.895   9.916   4.802  0.0975 -1.0228  1.2438
  210MOL0     C28854   3.786  10.023   4.846 -0.5113 -0.4806  0.5193
  210MOL0     C28855   3.647   9.953   4.814  0.6998 -0.5621 -0.9903
  210MOL0     C28856   3.536  10.057   4.818 -0.1555  0.4866 -0.1385
  210MOL0     C28857   3.408   9.999   4.760  0.4183  1.2607 -0.1392
  210MOL0     C28858   3.371   9.856   4.792  0.4237  0.1676 -1.0883
  210MOL0     N28859   3.301   9.845   4.919  0.3700 -0.5577 -0.0334
  210MOL0     C28860   3.165   9.854   4.927 -0.0004 -0.6062 -0.4509
  210MOL0     C28861   3.128   9.771   5.028 -0.6268  0.7152 -0.5517
  210MOL0     C28862   2.989   9.727   5.072  0.1682  1.6388 -0.1448
  210MOL0     C28863   2.891   9.844   5.088 -0.0607 -0.4757 -0.5361
  210MOL0     C28864   2.921   9.896   5.236  0.1449 -0.7289  0.1984
  210MOL0     C28865   2.848  10.030   5.266  0.3799  0.3600 -0.5260
  210MOL0     O28866   2.691  10.024   5.258 -0.2226  0.3976 -0.6239
  210MOL0     C28867   2.631  10.111   5.350 -0.3902  1.2499 -0.2954
  210MOL0     C28868   2.620  10.247   5.320 -0.4672 -0.4184 -0.3150
  210MOL0     C28869   2.565  10.338   5.415  0.1734  0.0943 -0.3567
  210MOL0     C28870   2.559  10.482   5.375  0.3817  0.4091  0.1799
  210MOL0     C28871   2.516  10.290   5.539 -0.5651 -0.3350  0.2473
  210MOL0     C28872   2.449  10.369   5.640  0.1741  1.0827  0.8108
  210MOL0     O28873   2.462  10.319   5.769 -0.3847  0.2092  0.9412
  210MOL0     C28874   2.390  10.388   5.866 -0.2472 -0.0122 -0.7049
  210MOL0     C28875   2.458  10.447   5.977 -0.1330  0.5711  0.1315
  210MOL0     C28876   2.387  10.527   6.064  0.6512  0.6464  0.8114
  210MOL0     C28877   2.246  10.526   6.063 -0.7346 -0.3732  0.1552
  210MOL0     O28878   2.202  10.598   6.161  0.1516 -0.1846  0.3243
  210MOL0     C28879   2.077  10.565   6.226 -0.5022 -0.0873 -0.9546
  210MOL0     C28880   2.081  10.605   6.371 -0.4602 -0.0553  0.5766
  210MOL0     C28881   2.033  10.745   6.396 -0.5534 -0.4661  1.0536
  210MOL0     C28882   2.090  10.802   6.529 -0.2629 -0.7487 -0.0965
  210MOL0     C28883   2.141  10.940   6.507 -0.2080 -0.4884  1.1707
  210MOL0     C28884   2.165  11.012   6.640 -0.1669  0.5356  0.0207
  210MOL0     C28885   2.225  11.154   6.622 -0.6012  0.1170 -0.5494
  210MOL0     C28886   2.149  11.246   6.533 -0.1922 -0.5712 -0.0647
  210MOL0    Cl28887   2.260  11.386   6.493  0.2801  0.0681 -0.0275
  210MOL0     C28888   2.182  10.435   5.978  0.5497 -0.0733 -0.5284
  210MOL0     C28889   2.254  10.374   5.876  0.5747  0.1417  0.2172
  210MOL0     O28890   2.399  10.476   5.611  0.0297 -0.1991  0.1591
  210MOL0     C28891   2.526  10.154   5.565  0.4998 -0.0638  0.1677
  210MOL0     C28892   2.583  10.065   5.471  0.8773 -0.1005 -0.3111
  210MOL0     N28893   3.237   9.722   5.089  0.1739  0.1810 -0.3346
  210MOL0     N28894   3.340   9.760   5.017  0.7423  0.3192 -0.0185
  210MOL0     C28895   4.515   9.875   4.745 -0.3636  0.2354 -0.7666
  210MOL0     C28896   4.617   9.823   4.660 -0.5501  0.2999 -0.6280
  210MOL0     C28897   4.787   9.685   4.265 -0.1849  0.4903  0.4860
  210MOL0     C28898   4.771   9.735   4.137  0.7474 -0.0467 -0.6651
  210MOL0     C28899   4.851   9.696   4.037 -0.3970  0.3655  0.6571
  210MOL0     C28900   4.960   9.616   4.064 -0.8450  0.0541  1.3222
  210MOL0     O28901   5.050   9.596   3.962 -0.4131  0.4890  0.6219
  210MOL0     C28902   5.084   9.449   3.950  0.0920 -0.0267  0.7047
  210MOL0     C28903   5.241   9.441   3.925  0.0415 -0.2199  0.1575
  210MOL0     C28904   5.265   9.323   3.830  0.4198  0.5089 -0.5359
  210MOL0     C28905   5.412   9.336   3.771 -1.0580 -0.4457  0.8374
  210MOL0     C28906   5.505   9.290   3.862  0.4271  0.6198  0.0702
  210MOL0     C28907   5.599   9.253   3.933  0.1987  1.0403  0.5680
  210MOL0     C28908   4.977   9.563   4.189  0.8085 -1.0132  0.2218
  210MOL0     C28909   4.892   9.591   4.296  0.3146  0.1895 -0.6451
  210MOL0     C28910   4.921   9.524   4.424  0.1081 -0.5751  0.1273
  210MOL0     H28911   4.424   9.641   4.457 -0.3131 -0.8398  0.5097
  210MOL0     H28912   4.248   9.728   4.576  2.4716 -1.8010 -4.3738
  210MOL0     H28913   4.112   9.791   4.746 -0.6996 -0.0162  0.1535
  210MOL0     H28914   4.161   9.941   4.645  0.5009 -0.4915 -0.0755
  210MOL0     H28915   4.056   9.961   4.920 -0.2053 -2.6186  0.9545
  210MOL0     H28916   4.059  10.082   4.791  2.6423 -0.4318 -0.0566
  210MOL0     H28917   3.878   9.892   4.696 -2.6666  1.9204  0.8626
  210MOL0     H28918   3.873   9.823   4.856 -1.6289 -2.1425 -1.1875
  210MOL0     H28919   3.813  10.033   4.952  2.4847 -3.6781  0.2390
  210MOL0     H28920   3.798  10.122   4.802  0.6702 -0.8391 -0.0134
  210MOL0     H28921   3.631   9.874   4.887  2.4377  2.3651  2.9136
  210MOL0     H28922   3.650   9.910   4.713 -1.8864 -0.9758 -0.9717
  210MOL0     H28923   3.525  10.086   4.923 -1.3983 -0.2433 -0.0439
  210MOL0     H28924   3.571  10.145   4.765  0.9031  2.2417  3.1978
  210MOL0     H28925   3.419  10.000   4.651  2.8688 -1.8106 -0.0664
  210MOL0     H28926   3.327  10.063   4.798  0.0272  1.1070 -0.7023
  210MOL0     H28927   3.312   9.816   4.710 -0.1715  2.0480 -1.6236
  210MOL0     H28928   3.460   9.792   4.798  1.1921  1.3206  0.9070
  210MOL0     H28929   3.100   9.903   4.855  0.0858 -0.2342 -0.2817
  210MOL0     H28930   2.985   9.664   5.161 -3.0619  1.0837 -0.5472
  210MOL0     H28931   2.947   9.659   4.997 -0.3831 -0.1854  1.7241
  210MOL0     H28932   2.894   9.917   5.007  1.1148 -2.4044 -2.3695
  210MOL0     H28933   2.789   9.807   5.081 -0.9294  1.7984 -0.6655
  210MOL0     H28934   2.887   9.811   5.296  2.1167 -2.4290 -0.9460
  210MOL0     H28935   3.029   9.894   5.250  0.1153 -1.4198  0.3435
  210MOL0     H28936   2.885  10.061   5.364 -1.3577  2.4915 -0.4816
  210MOL0     H28937   2.884  10.113   5.203 -0.7948  1.0644 -0.2983
  210MOL0     H28938   2.661  10.292   5.231 -0.3586  0.0060 -0.0497
  210MOL0     H28939   2.460  10.519   5.349  0.8525  0.1421 -2.2558
  210MOL0     H28940   2.626  10.493   5.288  1.0393  1.0378  0.7531
  210MOL0     H28941   2.592  10.552   5.453  1.4008  0.0745  0.0716
  210MOL0     H28942   2.564  10.422   5.976 -0.6450 -2.1845  2.0614
  210MOL0     H28943   2.449  10.587   6.131  1.6909  2.4912 -1.6295
  210MOL0     H28944   1.996  10.613   6.170  0.2927  0.7090 -1.4630
  210MOL0     H28945   2.060  10.458   6.210 -0.0745 -0.0326 -1.8473
  210MOL0     H28946   2.012  10.543   6.429  0.1245 -2.0184 -0.7461
  210MOL0     H28947   2.185  10.591   6.404 -1.0594  0.5535  2.9393
  210MOL0     H28948   1.924  10.749   6.395 -0.5273  0.5489  0.2672
  210MOL0     H28949   2.063  10.810   6.313 -0.1808 -0.7786  0.9363
  210MOL0     H28950   2.173  10.738   6.561 -1.1981 -3.8250 -3.1599
  210MOL0     H28951   2.010  10.812   6.603  0.0611  1.8166 -0.0041
  210MOL0     H28952   2.236  10.941   6.454  0.4426  0.4045  2.3005
  210MOL0     H28953   2.056  10.986   6.456  0.7057  1.6475  1.4803
  210MOL0     H28954   2.233  10.950   6.699 -3.0073 -2.9266  0.0210
  210MOL0     H28955   2.076  11.024   6.703  1.3220 -1.3717  2.7312
  210MOL0     H28956   2.330  11.149   6.592 -0.2090 -0.7735  0.8460
  210MOL0     H28957   2.224  11.201   6.721 -0.5183 -3.0251  1.0700
  210MOL0     H28958   2.062  11.283   6.589  0.7444  2.6843 -0.5764
  210MOL0     H28959   2.122  11.200   6.437  3.0686 -0.2388 -1.2626
  210MOL0     H28960   2.074  10.427   5.981  0.3963  0.3187 -2.7264
  210MOL0     H28961   2.210  10.313   5.798  2.3267 -0.3519 -0.4449
  210MOL0     H28962   2.481  10.112   5.654 -0.0235 -0.4365 -0.2664
  210MOL0     H28963   2.586   9.959   5.490 -0.0898  0.2333  2.1357
  210MOL0     H28964   4.552   9.942   4.821 -0.3871 -1.5333  0.8689
  210MOL0     H28965   4.720   9.854   4.675 -0.5100 -0.7660  1.7389
  210MOL0     H28966   4.693   9.805   4.112 -1.8935 -2.7048 -0.4739
  210MOL0     H28967   4.853   9.730   3.934 -0.4904 -0.7219  0.2822
  210MOL0     H28968   5.052   9.385   4.032 -0.4333 -1.4950 -0.5946
  210MOL0     H28969   5.033   9.411   3.861  1.1201  1.1904 -0.4389
  210MOL0     H28970   5.304   9.426   4.014  1.5912 -2.1679 -1.1847
  210MOL0     H28971   5.267   9.533   3.872 -1.4812  0.6531  0.8781
  210MOL0     H28972   5.266   9.235   3.895  2.4492  0.9037  0.0287
  210MOL0     H28973   5.193   9.311   3.749  1.8721  0.7359 -1.9194
  210MOL0     H28974   5.435   9.439   3.741  4.7428 -1.5500  0.3935
  210MOL0     H28975   5.420   9.270   3.684 -1.4504 -2.7710  2.4594
  210MOL0     H28976   5.683   9.235   3.997  0.3388  3.1526  1.0459
  210MOL0     H28977   5.066   9.502   4.200  1.8941  0.5498  0.4625
  210MOL0     H28978   4.956   9.598   4.496  1.0016 -0.3009 -0.5825
  210MOL0     H28979   4.832   9.467   4.453 -1.7687  0.8517 -2.4404
  210MOL0     H28980   5.003   9.452   4.418 -0.2152 -0.8207 -1.9511
  211MOL0     O28981   1.430   0.120   6.846  0.2930 -0.2807  0.1164
  211MOL0     C28982   1.425   0.004   6.890 -1.0459 -0.2843  0.0649
  211MOL0     O28983   1.512  -0.100   6.849  0.1330  0.3265 -0.6158
  211MOL0     C28984   1.577  -0.108   6.729 -0.6175  0.2934  0.8416
  211MOL0     C28985   1.582  -0.012   6.630 -0.1410  0.0925  0.9414
  211MOL0     C28986   1.661  -0.037   6.512  0.3616  0.3904 -0.0006
  211MOL0     C28987   1.737  -0.157   6.500  0.1654 -0.0274 -0.3794
  211MOL0     O28988   1.804  -0.185   6.388  0.2410  0.3596 -0.2141
  211MOL0     C28989   1.766  -0.122   6.264 -0.8115 -0.6315 -0.3836
  211MOL0     C28990   1.861  -0.184   6.156 -0.0259 -0.0006 -0.7139
  211MOL0     C28991   1.811  -0.318   6.099 -0.1200  0.2746 -0.5608
  211MOL0     C28992   1.896  -0.428   6.170  0.9839  1.5435  0.2355
  211MOL0     C28993   2.027  -0.434   6.092 -0.7759  0.2800 -0.0054
  211MOL0     C28994   2.011  -0.507   5.967 -0.2346  0.2125 -0.0694
  211MOL0     C28995   2.153  -0.547   5.912  0.5921  0.4928 -0.5115
  211MOL0     C28996   2.189  -0.493   5.770  0.5238 -1.8226  0.5856
  211MOL0     N28997   2.319  -0.526   5.731  0.4454  0.7336  0.5772
  211MOL0     C28998   2.356  -0.661   5.729  0.7111  0.9671  0.0669
  211MOL0     C28999   2.482  -0.662   5.669 -0.5350 -0.4649 -0.5999
  211MOL0     C29000   2.571  -0.780   5.645 -0.6091 -0.4582  0.3213
  211MOL0     C29001   2.693  -0.761   5.725  0.3554  0.0423 -0.3442
  211MOL0     C29002   2.760  -0.888   5.754  0.4153  0.2999 -0.1975
  211MOL0     C29003   2.884  -0.867   5.846 -0.8640 -0.2122 -0.3950
  211MOL0     O29004   2.931  -0.991   5.885  0.3473 -0.3829  0.3288
  211MOL0     C29005   3.023  -1.006   5.994 -0.2321  0.2541  0.2488
  211MOL0     C29006   3.078  -1.127   6.000 -0.2429 -0.0858  0.8142
  211MOL0     C29007   3.172  -1.175   6.091 -0.4405  1.1244  0.2892
  211MOL0     C29008   3.209  -1.323   6.065  0.2778 -0.5347 -0.2004
  211MOL0     C29009   3.212  -1.094   6.200 -0.4935  0.0079 -0.3198
  211MOL0     C29010   3.308  -1.135   6.304 -0.1325  0.0397  0.7287
  211MOL0     O29011   3.315  -1.043   6.403  0.0354  0.0733 -0.0042
  211MOL0     C29012   3.430  -1.049   6.480 -0.1072  0.0569 -0.5130
  211MOL0     C29013   3.419  -1.033   6.619 -0.4342  0.4834 -1.0467
  211MOL0     C29014   3.533  -1.043   6.699 -0.6396  0.9683  0.2581
  211MOL0     C29015   3.661  -1.064   6.645  0.3534 -0.5241 -0.5656
  211MOL0     O29016   3.763  -1.090   6.731 -0.2903  0.0397 -0.2649
  211MOL0     C29017   3.843  -0.969   6.753 -0.2114 -0.1972 -0.0661
  211MOL0     C29018   3.978  -0.999   6.699 -0.0304  0.7403 -0.7179
  211MOL0     C29019   4.039  -0.881   6.629  0.4754  0.1195 -0.1003
  211MOL0     C29020   4.179  -0.912   6.567  0.4736 -0.1967  0.2972
  211MOL0     C29021   4.271  -0.988   6.659 -0.2061  0.4722  1.1476
  211MOL0     C29022   4.404  -1.021   6.573  0.8008  0.0349 -0.2538
  211MOL0     C29023   4.448  -1.167   6.616 -0.6552 -0.3681  1.1989
  211MOL0     C29024   4.591  -1.201   6.571 -0.7429  0.7822 -0.3049
  211MOL0    Cl29025   4.585  -1.203   6.393 -0.0318  0.4599 -0.3703
  211MOL0     C29026   3.682  -1.081   6.506 -0.8283 -0.1751  1.2273
  211MOL0     C29027   3.564  -1.076   6.426 -0.0687  0.3061  0.3306
  211MOL0     O29028   3.376  -1.238   6.287  0.5863 -0.7533  0.2640
  211MOL0     C29029   3.152  -0.968   6.192 -0.4405 -0.1465  0.7651
  211MOL0     C29030   3.073  -0.913   6.084  0.5967 -0.0865 -0.2729
  211MOL0     N29031   2.520  -0.530   5.651  0.7786  0.2122  0.6794
  211MOL0     N29032   2.429  -0.453   5.700  1.0871 -0.3089  0.1853
  211MOL0     C29033   1.723  -0.257   6.601 -0.0576 -0.6956  0.1719
  211MOL0     C29034   1.654  -0.227   6.718 -0.3723  0.1787  0.9899
  211MOL0     C29035   1.319  -0.028   6.982  0.5356 -0.1199 -0.0329
  211MOL0     C29036   1.280  -0.155   6.990  0.5133  1.1325  0.1723
  211MOL0     C29037   1.164  -0.187   7.070 -0.4549  0.0793 -0.1981
  211MOL0     C29038   1.082  -0.090   7.130 -0.4983  0.3657 -0.8713
  211MOL0     O29039   0.967  -0.104   7.190 -0.8764 -0.0424 -0.4797
  211MOL0     C29040   0.948  -0.238   7.239  0.6792  0.0497 -0.3229
  211MOL0     C29041   0.819  -0.254   7.316 -0.2993 -0.0543  0.1034
  211MOL0     C29042   0.845  -0.218   7.462  0.5351 -0.3984 -0.5430
  211MOL0     C29043   0.859  -0.070   7.508  0.0655  0.0859 -0.0411
  211MOL0     C29044   0.854  -0.074   7.649  1.1699 -0.2985 -0.6044
  211MOL0     C29045   0.851  -0.065   7.766 -0.6084 -0.3063 -0.2870
  211MOL0     C29046   1.134   0.038   7.124  0.5138 -0.9447  0.0581
  211MOL0     C29047   1.247   0.076   7.057  0.0783 -0.5752 -0.9780
  211MOL0     C29048   1.288   0.222   7.058 -0.4633  0.1376 -0.4001
  211MOL0     H29049   1.542   0.089   6.641 -1.7622 -0.4299  0.2107
  211MOL0     H29050   1.672   0.049   6.445  1.1197  1.2472  1.1816
  211MOL0     H29051   1.793  -0.016   6.269  2.0356 -1.3036  0.5072
  211MOL0     H29052   1.660  -0.142   6.247 -0.4586 -0.8003 -2.7109
  211MOL0     H29053   1.868  -0.114   6.072 -0.8659  2.8584  1.4366
  211MOL0     H29054   1.964  -0.199   6.189  0.3200 -1.8037 -2.4347
  211MOL0     H29055   1.703  -0.327   6.113 -0.1220  0.9157 -0.1298
  211MOL0     H29056   1.814  -0.320   5.990 -0.4511  0.7012 -0.5823
  211MOL0     H29057   1.906  -0.420   6.279  0.1987 -2.3373  0.7540
  211MOL0     H29058   1.854  -0.529   6.157  0.5453  1.6420  0.8545
  211MOL0     H29059   2.099  -0.487   6.154  2.1413  3.4849 -0.3203
  211MOL0     H29060   2.074  -0.338   6.070  2.1063 -1.0391  0.0207
  211MOL0     H29061   1.945  -0.593   5.982 -1.4595  0.9382 -1.0951
  211MOL0     H29062   1.970  -0.434   5.897  0.3415 -0.0672 -0.7118
  211MOL0     H29063   2.152  -0.657   5.908 -0.3267  0.2627  2.8685
  211MOL0     H29064   2.228  -0.518   5.986 -0.6098 -0.5774  1.2231
  211MOL0     H29065   2.128  -0.541   5.694  1.0920  0.0613 -1.1380
  211MOL0     H29066   2.171  -0.385   5.775  2.6727 -1.3175 -1.2435
  211MOL0     H29067   2.307  -0.748   5.771  3.1330 -0.4359  0.1778
  211MOL0     H29068   2.596  -0.784   5.539  1.4763 -1.9342  0.7911
  211MOL0     H29069   2.523  -0.876   5.668  3.2738 -3.2452 -2.1358
  211MOL0     H29070   2.765  -0.708   5.661  1.3771 -1.7630 -0.7828
  211MOL0     H29071   2.678  -0.711   5.821  3.5521  0.3552  0.1067
  211MOL0     H29072   2.693  -0.960   5.803 -0.3867  0.5150 -0.9580
  211MOL0     H29073   2.794  -0.932   5.660 -0.7336 -1.7680  0.2805
  211MOL0     H29074   2.963  -0.830   5.780 -0.9081 -0.2219 -0.4547
  211MOL0     H29075   2.870  -0.794   5.926  1.1746 -1.8092  1.5170
  211MOL0     H29076   3.037  -1.198   5.929  2.3088 -0.4410 -0.4431
  211MOL0     H29077   3.130  -1.376   6.012 -3.2953  0.2418  3.8183
  211MOL0     H29078   3.208  -1.368   6.164  2.0920 -3.4595 -1.3729
  211MOL0     H29079   3.307  -1.330   6.015  0.2926 -0.6779 -0.1517
  211MOL0     H29080   3.325  -1.002   6.666  0.6790  5.5763 -1.6094
  211MOL0     H29081   3.527  -1.025   6.806 -0.6107  0.6476  0.3153
  211MOL0     H29082   3.809  -0.879   6.701 -0.0472 -0.8977 -1.4222
  211MOL0     H29083   3.853  -0.958   6.861  1.9034  1.3457 -0.3583
  211MOL0     H29084   4.047  -1.025   6.780  0.9116 -3.5796 -2.6425
  211MOL0     H29085   3.981  -1.086   6.633 -0.0189  0.1345  0.0576
  211MOL0     H29086   4.045  -0.800   6.701  2.4686 -0.2968  0.2409
  211MOL0     H29087   3.977  -0.860   6.541 -1.2943 -1.1080  0.7816
  211MOL0     H29088   4.225  -0.813   6.556 -2.5351  1.9205  3.9932
  211MOL0     H29089   4.163  -0.967   6.474  0.6809 -2.1748  1.3822
  211MOL0     H29090   4.287  -0.936   6.754 -0.3871  0.5798  1.1206
  211MOL0     H29091   4.230  -1.084   6.690 -2.0692  1.0429  0.6252
  211MOL0     H29092   4.483  -0.951   6.598  2.8668 -1.6516 -1.6842
  211MOL0     H29093   4.380  -1.013   6.466 -1.7772  2.3402  0.3698
  211MOL0     H29094   4.376  -1.244   6.588  0.9024 -2.0849  1.7281
  211MOL0     H29095   4.454  -1.178   6.725 -3.7600  0.0179  1.4815
  211MOL0     H29096   4.623  -1.300   6.606  0.5434  0.6039 -1.8196
  211MOL0     H29097   4.664  -1.125   6.601 -0.5706  1.1835 -1.6851
  211MOL0     H29098   3.788  -1.084   6.482 -1.0063  0.6086  0.2771
  211MOL0     H29099   3.570  -1.091   6.319 -1.5661 -0.0089  0.2645
  211MOL0     H29100   3.178  -0.903   6.275  0.9203  1.5225 -0.8913
  211MOL0     H29101   3.030  -0.813   6.089 -2.8593 -1.4863  2.7648
  211MOL0     H29102   1.775  -0.352   6.600 -3.1043 -2.5349  1.3376
  211MOL0     H29103   1.647  -0.302   6.796 -2.3508  0.8726  1.5258
  211MOL0     H29104   1.338  -0.223   6.928 -0.5518 -0.5992  1.0027
  211MOL0     H29105   1.137  -0.292   7.070 -1.5573  0.3414 -0.4472
  211MOL0     H29106   0.940  -0.300   7.149  0.5974 -0.5870  0.1126
  211MOL0     H29107   1.033  -0.269   7.301  0.6698  1.5824  0.4920
  211MOL0     H29108   0.784  -0.357   7.312 -2.6666  0.7236 -2.1109
  211MOL0     H29109   0.744  -0.198   7.259 -3.6595 -2.0608  2.1714
  211MOL0     H29110   0.753  -0.259   7.503 -0.8639  2.6438 -0.4105
  211MOL0     H29111   0.935  -0.271   7.497 -0.6689 -2.0811  0.1066
  211MOL0     H29112   0.792   0.002   7.459  2.3903  1.2427 -1.7257
  211MOL0     H29113   0.957  -0.025   7.487  1.2820 -2.1387  0.5471
  211MOL0     H29114   0.846  -0.046   7.871  1.1897 -1.9746  0.1692
  211MOL0     H29115   1.079   0.120   7.169 -0.6094 -1.2412 -0.7067
  211MOL0     H29116   1.283   0.272   6.961  0.0758  0.1042 -0.4509
  211MOL0     H29117   1.228   0.275   7.132 -0.1638 -1.6300  1.1755
  211MOL0     H29118   1.392   0.225   7.092 -0.8249  3.9895  0.8779
  212MOL0     O29119   5.998   4.459   4.098  0.4013  0.0701 -0.0191
  212MOL0     C29120   5.922   4.377   4.051 -0.2980 -0.1997  0.2092
  212MOL0     O29121   5.870   4.271   4.113 -0.2322 -0.5437 -0.2175
  212MOL0     C29122   5.918   4.248   4.242  1.2596 -0.6964  0.5463
  212MOL0     C29123   6.011   4.150   4.270  0.0454 -0.0804 -0.7107
  212MOL0     C29124   6.040   4.124   4.408  0.1603  0.9115 -0.3683
  212MOL0     C29125   5.982   4.195   4.511  0.8802  0.3646 -0.7524
  212MOL0     O29126   6.037   4.187   4.637  0.3923  0.0860 -0.0352
  212MOL0     C29127   5.953   4.105   4.721  0.3677  1.1008  0.2028
  212MOL0     C29128   6.030   4.072   4.855 -0.7748  0.1616 -0.1604
  212MOL0     C29129   5.945   4.016   4.971 -0.0418  0.0277 -0.3100
  212MOL0     C29130   5.990   3.867   5.006 -0.6621  0.4260  0.0388
  212MOL0     C29131   5.891   3.802   5.110 -0.6038 -0.2563 -0.3519
  212MOL0     C29132   5.920   3.862   5.250  0.1972  0.0927  0.1292
  212MOL0     C29133   5.841   3.792   5.367  0.1723 -1.1628 -0.5466
  212MOL0     C29134   5.926   3.743   5.489 -0.4319  0.1008  0.3444
  212MOL0     N29135   6.004   3.613   5.467 -0.1084  0.0313 -0.3189
  212MOL0     C29136   6.034   3.528   5.568 -0.9224 -1.0705  0.5149
  212MOL0     C29137   6.095   3.423   5.512  0.2960  0.2712 -0.8958
  212MOL0     C29138   6.158   3.308   5.594 -0.2914  0.3041 -0.0570
  212MOL0     C29139   6.055   3.251   5.701 -0.3051 -0.2680  0.3639
  212MOL0     C29140   6.127   3.131   5.772 -0.3919 -0.3594 -0.0118
  212MOL0     C29141   6.048   3.070   5.890  0.2784  0.9980 -0.4750
  212MOL0     O29142   6.021   3.168   5.988  0.3466 -0.2188 -0.3946
  212MOL0     C29143   5.963   3.136   6.104 -0.3948 -0.8211 -1.4919
  212MOL0     C29144   5.910   3.251   6.164 -0.0648 -0.9129  0.4486
  212MOL0     C29145   5.845   3.245   6.292  0.3358 -0.2649  1.0548
  212MOL0     C29146   5.806   3.381   6.342  0.3511  0.0759  0.7649
  212MOL0     C29147   5.838   3.125   6.358  0.5894  0.4636 -1.3480
  212MOL0     C29148   5.779   3.105   6.495  1.1252 -1.4633  0.4460
  212MOL0     O29149   5.769   2.977   6.547  0.3544  0.0766  0.3493
  212MOL0     C29150   5.711   2.958   6.669 -0.9557  0.2049 -0.5363
  212MOL0     C29151   5.586   2.995   6.721  0.0159 -0.7079 -0.6849
  212MOL0     C29152   5.548   2.955   6.848 -1.3068 -0.4574 -0.2986
  212MOL0     C29153   5.630   2.875   6.922  0.3972 -0.8162 -0.5456
  212MOL0     O29154   5.587   2.856   7.055 -0.2852 -0.0458  0.1181
  212MOL0     C29155   5.679   2.886   7.165  0.3062  0.4518  0.3781
  212MOL0     C29156   5.599   2.854   7.289  0.0777 -0.3754  0.5302
  212MOL0     C29157   5.549   2.707   7.291 -0.3480  0.5862 -0.0214
  212MOL0     C29158   5.656   2.607   7.324 -0.0857  0.2200  0.4084
  212MOL0     C29159   5.596   2.466   7.317 -0.7885  0.1482  0.8538
  212MOL0     C29160   5.579   2.426   7.168 -0.5695 -0.0528  1.0180
  212MOL0     C29161   5.716   2.392   7.093 -0.5106 -0.4765 -0.1639
  212MOL0     C29162   5.694   2.382   6.936  0.6704  0.6721 -0.4533
  212MOL0    Cl29163   5.852   2.298   6.881  0.0021 -0.5136  0.0859
  212MOL0     C29164   5.748   2.832   6.877  0.0656 -0.3155 -0.1869
  212MOL0     C29165   5.788   2.870   6.746  0.1187 -0.2234 -0.1737
  212MOL0     O29166   5.752   3.208   6.559 -0.1197  0.9209 -0.3215
  212MOL0     C29167   5.884   3.003   6.290 -0.2959 -0.5730 -0.4742
  212MOL0     C29168   5.947   3.015   6.163 -0.0502 -0.2923 -0.1834
  212MOL0     N29169   6.092   3.438   5.377 -0.4346 -0.1486  0.1220
  212MOL0     N29170   6.045   3.562   5.351 -0.1363  0.2928  0.1041
  212MOL0     C29171   5.879   4.280   4.478 -0.2027 -0.3301 -0.8292
  212MOL0     C29172   5.845   4.315   4.345  0.1417  0.6457  0.3831
  212MOL0     C29173   5.876   4.389   3.914  0.2383 -0.3002 -0.1584
  212MOL0     C29174   5.850   4.271   3.845 -0.5805 -0.0720  0.2878
  212MOL0     C29175   5.800   4.266   3.709 -0.5279 -0.8908  0.6608
  212MOL0     C29176   5.787   4.377   3.640  0.5271 -0.5911  0.5899
  212MOL0     O29177   5.745   4.386   3.510 -0.1491 -0.1334  0.3448
  212MOL0     C29178   5.618   4.316   3.490 -0.0806  0.7443 -0.0942
  212MOL0     C29179   5.640   4.232   3.357 -0.6295  0.2169  0.6147
  212MOL0     C29180   5.667   4.318   3.232  0.3392 -0.0346 -0.2646
  212MOL0     C29181   5.704   4.237   3.099  0.1535  0.0700 -0.3449
  212MOL0     C29182   5.679   4.319   2.975 -0.8751 -0.2126 -0.0327
  212MOL0     C29183   5.653   4.380   2.875 -0.0854 -0.1169  0.3815
  212MOL0     C29184   5.817   4.499   3.698  0.2105  0.3580  0.2711
  212MOL0     C29185   5.852   4.507   3.835  0.4405 -0.5289  0.3523
  212MOL0     C29186   5.871   4.637   3.903  0.1305 -0.3541  0.2650
  212MOL0     H29187   6.065   4.110   4.185 -1.0609 -0.3554 -1.3114
  212MOL0     H29188   6.117   4.050   4.426 -1.3581 -0.4084  1.0119
  212MOL0     H29189   5.920   4.014   4.670  0.3396 -0.3597  2.6580
  212MOL0     H29190   5.860   4.152   4.754 -1.6029 -1.2604 -1.6460
  212MOL0     H29191   6.104   3.995   4.831 -1.2670 -0.4153  0.1535
  212MOL0     H29192   6.068   4.172   4.880  0.7650 -0.6763  1.0046
  212MOL0     H29193   5.959   4.065   5.067 -3.1094 -4.0674  2.6419
  212MOL0     H29194   5.838   4.024   4.948 -0.2745 -0.2092  0.6681
  212MOL0     H29195   5.979   3.808   4.915 -3.6813  2.9338 -1.4184
  212MOL0     H29196   6.091   3.851   5.044 -0.1933 -0.9680 -1.6764
  212MOL0     H29197   5.904   3.694   5.108 -0.6082 -0.2772  0.5241
  212MOL0     H29198   5.789   3.830   5.084 -0.4765 -0.0659 -0.6475
  212MOL0     H29199   6.025   3.841   5.269  0.5030  0.5212 -0.9882
  212MOL0     H29200   5.910   3.971   5.258 -0.4592  0.1434 -1.1138
  212MOL0     H29201   5.784   3.705   5.334 -0.6528 -0.6588 -0.4660
  212MOL0     H29202   5.777   3.868   5.412  2.9278 -0.1522  1.9803
  212MOL0     H29203   5.999   3.820   5.518 -1.9727  1.6916  0.1742
  212MOL0     H29204   5.855   3.713   5.566 -1.3488  2.0331  0.3172
  212MOL0     H29205   6.025   3.554   5.672 -3.4226  0.4736  0.0047
  212MOL0     H29206   6.247   3.352   5.640 -0.7459  2.0006 -0.7180
  212MOL0     H29207   6.198   3.225   5.535 -1.2125 -1.8632  2.1886
  212MOL0     H29208   6.049   3.327   5.779  2.3145  0.7337 -0.3292
  212MOL0     H29209   5.953   3.227   5.667 -1.0909  0.4508  2.0987
  212MOL0     H29210   6.146   3.057   5.695  0.0094 -0.4226  0.1428
  212MOL0     H29211   6.224   3.166   5.810 -0.9917 -0.7197  1.9481
  212MOL0     H29212   5.951   3.034   5.854  0.6216 -0.5020  0.0312
  212MOL0     H29213   6.097   2.981   5.929 -1.5036  0.6585  1.1049
  212MOL0     H29214   5.932   3.341   6.108  3.0566 -1.5516  0.5135
  212MOL0     H29215   5.885   3.413   6.411  0.9522 -1.1764  0.6827
  212MOL0     H29216   5.714   3.366   6.399 -0.4297 -0.8545 -0.6859
  212MOL0     H29217   5.791   3.462   6.270  2.2703 -0.0826  0.1300
  212MOL0     H29218   5.521   3.057   6.661  0.5379  0.7849  0.2364
  212MOL0     H29219   5.458   2.988   6.899 -0.4873  2.1364 -0.3746
  212MOL0     H29220   5.773   2.832   7.151 -0.5073 -0.5663 -1.4959
  212MOL0     H29221   5.712   2.990   7.171  1.7612  0.2155 -2.3061
  212MOL0     H29222   5.654   2.877   7.381 -0.4768  2.5023  0.2194
  212MOL0     H29223   5.510   2.917   7.291  2.8803  4.0637  2.2713
  212MOL0     H29224   5.499   2.684   7.196  0.8189  0.6578 -0.6753
  212MOL0     H29225   5.473   2.695   7.368  0.5048 -1.1279  0.6107
  212MOL0     H29226   5.701   2.634   7.420 -0.3643  4.1490 -0.3988
  212MOL0     H29227   5.733   2.625   7.248 -1.7327  1.6083 -1.0129
  212MOL0     H29228   5.659   2.394   7.370 -1.3828 -0.9466  0.0878
  212MOL0     H29229   5.497   2.467   7.364 -0.4643 -1.2406  1.6094
  212MOL0     H29230   5.533   2.502   7.105  1.8227 -0.6964 -1.7024
  212MOL0     H29231   5.519   2.336   7.152  0.0520 -0.2444 -0.3500
  212MOL0     H29232   5.741   2.292   7.130 -1.5579 -0.3182  1.0323
  212MOL0     H29233   5.801   2.458   7.109  0.6507 -1.8085 -0.6649
  212MOL0     H29234   5.669   2.479   6.894 -3.8835 -0.5821 -1.1462
  212MOL0     H29235   5.603   2.324   6.916  1.2990 -1.2374  1.7975
  212MOL0     H29236   5.824   2.775   6.930 -0.1915  0.6745  1.2986
  212MOL0     H29237   5.886   2.836   6.715 -0.4079 -0.7104 -1.3760
  212MOL0     H29238   5.874   2.909   6.343 -2.3161  0.0592  0.3640
  212MOL0     H29239   5.979   2.922   6.118 -1.4142 -0.0971 -1.6991
  212MOL0     H29240   5.830   4.330   4.562  2.0519 -0.4557  0.6579
  212MOL0     H29241   5.754   4.372   4.328  1.1984  1.5398 -3.1529
  212MOL0     H29242   5.886   4.181   3.895  1.9041  1.4604  1.4795
  212MOL0     H29243   5.791   4.180   3.643  0.2855 -0.9498  0.6203
  212MOL0     H29244   5.574   4.261   3.573  0.5409 -0.7111 -0.6909
  212MOL0     H29245   5.539   4.388   3.467 -0.1252  1.0331  0.9423
  212MOL0     H29246   5.556   4.163   3.349 -0.2860 -0.2558  1.0397
  212MOL0     H29247   5.733   4.174   3.362 -0.2796  0.5963 -0.9229
  212MOL0     H29248   5.574   4.375   3.222 -0.2230 -0.3601  2.3472
  212MOL0     H29249   5.749   4.387   3.254  0.9821 -0.4431 -1.3068
  212MOL0     H29250   5.642   4.147   3.088  0.1970  0.1640 -1.4624
  212MOL0     H29251   5.809   4.207   3.100 -0.4428 -2.1466  0.7258
  212MOL0     H29252   5.630   4.453   2.799  0.0441  0.9575  1.3447
  212MOL0     H29253   5.816   4.594   3.645  1.1222  0.0824 -0.2698
  212MOL0     H29254   5.852   4.716   3.830  2.2911 -1.0982 -1.2234
  212MOL0     H29255   5.799   4.640   3.985  0.3682  0.5358  0.4504
  212MOL0     H29256   5.977   4.649   3.929  0.0276  3.3470 -0.5129
  213MOL0     O29257   9.172   4.457   4.508  0.4031 -0.3652  0.0337
  213MOL0     C29258   9.210   4.493   4.616  0.1481 -0.7015  0.1133
  213MOL0     O29259   9.332   4.545   4.645  0.0981  0.5286  0.7659
  213MOL0     C29260   9.454   4.505   4.595  0.6277  1.1160  0.4440
  213MOL0     C29261   9.568   4.585   4.618 -0.1405 -0.2963 -0.4246
  213MOL0     C29262   9.701   4.545   4.587 -0.2561  1.0148 -0.1653
  213MOL0     C29263   9.716   4.434   4.509  0.4752  0.7747  0.1607
  213MOL0     O29264   9.836   4.403   4.448 -0.0978  0.6793 -0.3835
  213MOL0     C29265   9.887   4.270   4.442 -0.9505 -0.2657 -0.1877
  213MOL0     C29266   9.972   4.246   4.571  0.4191 -0.0403  0.0356
  213MOL0     C29267  10.081   4.133   4.550 -0.5308  0.1402  0.2810
  213MOL0     C29268  10.151   4.109   4.677 -0.5868  0.2020  0.3248
  213MOL0     C29269  10.268   4.013   4.690 -0.6268 -0.5015 -0.4494
  213MOL0     C29270  10.294   3.977   4.837  0.5008  0.7194 -0.5079
  213MOL0     C29271  10.397   3.866   4.857  0.0151 -0.3299  0.0489
  213MOL0     C29272  10.528   3.896   4.794 -0.7696 -0.4870 -0.3672
  213MOL0     N29273  10.606   4.005   4.862  0.7053 -0.0130 -0.1549
  213MOL0     C29274  10.612   4.134   4.829 -0.7396  0.1846 -0.6405
  213MOL0     C29275  10.677   4.190   4.934  0.8291 -0.2168 -0.2011
  213MOL0     C29276  10.679   4.338   4.961 -0.0854  0.7201 -0.2049
  213MOL0     C29277  10.815   4.393   5.004 -0.5566  0.0038  0.4486
  213MOL0     C29278  10.832   4.546   5.005  0.6932 -0.3735  0.0115
  213MOL0     C29279  10.716   4.628   5.071 -0.1579 -0.3156  0.1811
  213MOL0     O29280  10.765   4.761   5.124  0.1796 -0.2199  0.3550
  213MOL0     C29281  10.669   4.829   5.192  0.8507  0.2589 -0.6570
  213MOL0     C29282  10.714   4.930   5.277 -0.7189 -0.5390  0.3677
  213MOL0     C29283  10.628   4.998   5.366  0.3209  0.1680  0.2837
  213MOL0     C29284  10.678   5.115   5.453  0.1971 -0.5311 -0.1406
  213MOL0     C29285  10.495   4.940   5.386 -0.2973  0.2890  0.3565
  213MOL0     C29286  10.411   4.997   5.495 -0.3078 -0.1763 -0.7265
  213MOL0     O29287  10.348   4.902   5.576 -0.2302 -0.2628 -0.0212
  213MOL0     C29288  10.292   4.945   5.693 -1.0877 -0.1337  0.1812
  213MOL0     C29289  10.379   4.993   5.797 -0.1479  0.3087  0.8756
  213MOL0     C29290  10.321   5.029   5.920  0.1292  0.1556  0.3263
  213MOL0     C29291  10.184   5.033   5.933  0.7174  0.5403  0.7293
  213MOL0     O29292  10.118   5.046   6.048  0.3001 -0.6154 -0.7616
  213MOL0     C29293  10.196   5.098   6.154 -0.3760  0.0070 -0.4637
  213MOL0     C29294  10.107   5.153   6.269 -0.5599 -0.6224 -0.2594
  213MOL0     C29295  10.190   5.206   6.383  0.1264  0.2482 -0.8962
  213MOL0     C29296  10.263   5.340   6.349  0.0566  0.0187 -0.1010
  213MOL0     C29297  10.290   5.443   6.465 -0.3998  0.0857 -0.6880
  213MOL0     C29298  10.374   5.383   6.579 -1.0723 -0.2583 -0.4790
  213MOL0     C29299  10.505   5.321   6.549 -0.5741 -0.1673 -0.3221
  213MOL0     C29300  10.603   5.400   6.456  0.6204 -0.2215 -0.5279
  213MOL0    Cl29301  10.634   5.544   6.536 -0.2532 -0.1692  0.0620
  213MOL0     C29302  10.104   4.994   5.826  0.3290  0.2463 -0.4581
  213MOL0     C29303  10.158   4.938   5.709  0.9325 -0.2623  0.0165
  213MOL0     O29304  10.393   5.118   5.508 -0.0702 -0.0675  0.2038
  213MOL0     C29305  10.448   4.844   5.294  0.6880 -0.3291 -0.7339
  213MOL0     C29306  10.529   4.792   5.197  0.1182  0.6075 -0.4857
  213MOL0     N29307  10.713   4.092   5.027  0.2503 -0.2039  0.0607
  213MOL0     N29308  10.673   3.977   4.978  1.1945 -0.8509  1.3002
  213MOL0     C29309   9.608   4.367   4.462 -0.4475  0.4196 -0.3214
  213MOL0     C29310   9.473   4.401   4.505 -0.4074 -0.3200 -0.0232
  213MOL0     C29311   9.113   4.492   4.716 -0.0485  0.1830 -0.3044
  213MOL0     C29312   9.151   4.407   4.828  0.1473  0.7084  0.0335
  213MOL0     C29313   9.079   4.404   4.940  0.6038  0.5745  0.4344
  213MOL0     C29314   8.955   4.467   4.955  1.2179 -0.1515 -0.4776
  213MOL0     O29315   8.890   4.474   5.080  0.6568  0.3431 -0.0068
  213MOL0     C29316   8.800   4.583   5.108 -0.3000 -0.2551 -0.5541
  213MOL0     C29317   8.832   4.630   5.254 -0.7100  0.9848  1.2799
  213MOL0     C29318   8.710   4.641   5.353  0.8128 -0.5134 -0.1378
  213MOL0     C29319   8.698   4.787   5.415 -0.5655  0.1902  0.1308
  213MOL0     C29320   8.613   4.855   5.313  0.3768  0.5106  0.6803
  213MOL0     C29321   8.549   4.908   5.232 -0.0089 -0.2805 -0.1839
  213MOL0     C29322   8.908   4.539   4.842 -0.5048 -0.0992 -0.2985
  213MOL0     C29323   8.990   4.550   4.722  0.0450 -0.1131 -0.0639
  213MOL0     C29324   8.937   4.635   4.610  0.2547  0.1569  0.6633
  213MOL0     H29325   9.548   4.674   4.677 -0.7929 -0.5436 -0.2618
  213MOL0     H29326   9.787   4.603   4.619  1.6727  0.2369 -3.4605
  213MOL0     H29327   9.945   4.271   4.349 -1.4322 -1.9097 -0.5284
  213MOL0     H29328   9.815   4.189   4.437  1.8220 -2.8926 -0.4399
  213MOL0     H29329  10.017   4.341   4.601  0.4628  0.1682 -0.6590
  213MOL0     H29330   9.906   4.206   4.648 -1.6746  1.0961 -1.1008
  213MOL0     H29331  10.036   4.039   4.515  1.0993 -0.1608 -1.1419
  213MOL0     H29332  10.154   4.165   4.475  3.3500 -2.9640  2.3221
  213MOL0     H29333  10.195   4.205   4.706  0.0752  0.6883 -2.0808
  213MOL0     H29334  10.075   4.079   4.750  0.2973 -4.2691 -0.2591
  213MOL0     H29335  10.359   4.064   4.656  0.5990 -0.5010  2.5337
  213MOL0     H29336  10.245   3.923   4.631 -1.5152 -0.9520  0.5518
  213MOL0     H29337  10.339   4.064   4.884 -0.0811  0.4951  0.4894
  213MOL0     H29338  10.206   3.940   4.891  1.8646 -1.2898  0.4625
  213MOL0     H29339  10.358   3.770   4.823 -1.8730  0.2382  0.4798
  213MOL0     H29340  10.406   3.847   4.964 -3.3160 -0.2400  0.4449
  213MOL0     H29341  10.579   3.801   4.807 -1.4614 -0.5518  2.4640
  213MOL0     H29342  10.535   3.906   4.685  1.4159 -2.0771 -0.4348
  213MOL0     H29343  10.565   4.187   4.747 -2.8885  2.4884  1.8619
  213MOL0     H29344  10.610   4.353   5.045 -2.3202 -1.5541 -1.5174
  213MOL0     H29345  10.643   4.398   4.877  0.3634  0.8687 -0.2915
  213MOL0     H29346  10.838   4.359   5.105  3.3469 -2.0155 -0.8970
  213MOL0     H29347  10.891   4.350   4.938 -1.8813 -2.6444  0.5357
  213MOL0     H29348  10.924   4.564   5.062  2.7507 -4.0496 -1.7707
  213MOL0     H29349  10.832   4.578   4.901 -2.7458 -0.2948 -0.0721
  213MOL0     H29350  10.631   4.617   5.004  1.5657 -3.8033 -1.7328
  213MOL0     H29351  10.686   4.565   5.156  0.7704 -1.1159 -0.0601
  213MOL0     H29352  10.818   4.958   5.276 -1.2502  1.6122  0.9679
  213MOL0     H29353  10.657   5.104   5.560  1.8308  1.4383  0.4352
  213MOL0     H29354  10.639   5.207   5.406 -2.3769 -0.4781  1.8656
  213MOL0     H29355  10.787   5.122   5.451  0.1619  0.9979  1.3200
  213MOL0     H29356  10.481   5.019   5.770 -0.8476 -0.6897 -3.4736
  213MOL0     H29357  10.394   5.044   5.999 -0.7527  1.2952  0.9567
  213MOL0     H29358  10.238   5.006   6.195 -1.8812 -0.9383 -0.9605
  213MOL0     H29359  10.263   5.177   6.119 -1.4710  1.2055  0.0515
  213MOL0     H29360  10.036   5.228   6.234 -1.6644 -1.6254 -0.2266
  213MOL0     H29361  10.054   5.071   6.318 -1.3626  0.2042  0.2763
  213MOL0     H29362  10.256   5.123   6.412 -2.6383 -2.2735 -1.4009
  213MOL0     H29363  10.122   5.223   6.467  0.0077  0.9916 -1.1334
  213MOL0     H29364  10.205   5.376   6.264  0.1955 -0.7035 -0.5193
  213MOL0     H29365  10.360   5.306   6.310 -0.0498 -0.5408  0.1109
  213MOL0     H29366  10.347   5.532   6.436 -0.1980  1.3369  3.0403
  213MOL0     H29367  10.197   5.475   6.513  0.4963  3.5470 -0.9652
  213MOL0     H29368  10.316   5.300   6.621  1.9613 -2.5012 -0.3820
  213MOL0     H29369  10.396   5.448   6.664  3.1786 -2.5003  0.4178
  213MOL0     H29370  10.504   5.221   6.503  3.7248 -0.0983 -1.0472
  213MOL0     H29371  10.555   5.315   6.646  1.2314  2.0054 -1.0198
  213MOL0     H29372  10.563   5.419   6.356  0.3141 -0.1009 -0.3816
  213MOL0     H29373  10.699   5.348   6.458 -0.8132 -3.1789  2.8990
  213MOL0     H29374   9.998   4.988   5.847  0.4718  0.6180  0.4584
  213MOL0     H29375  10.081   4.917   5.636 -1.9993 -1.4080  3.1481
  213MOL0     H29376  10.348   4.803   5.303  1.7731 -3.3296 -1.2512
  213MOL0     H29377  10.500   4.710   5.131  0.2595 -0.6998  1.0076
  213MOL0     H29378   9.613   4.293   4.383 -0.4584 -0.4524  0.4744
  213MOL0     H29379   9.387   4.338   4.483 -0.2542 -0.6764  0.3864
  213MOL0     H29380   9.246   4.355   4.826  0.9256  2.1036 -0.2712
  213MOL0     H29381   9.123   4.349   5.023 -0.1813  0.9161  1.0926
  213MOL0     H29382   8.806   4.672   5.045  3.4122  1.5567  1.9781
  213MOL0     H29383   8.695   4.552   5.105  0.3266 -2.6787  0.4430
  213MOL0     H29384   8.882   4.726   5.245  1.3049  0.1006  2.4115
  213MOL0     H29385   8.907   4.562   5.295 -1.8638 -1.2189 -0.0812
  213MOL0     H29386   8.618   4.596   5.315  0.7698 -1.4542  0.9952
  213MOL0     H29387   8.736   4.576   5.438  2.3250 -1.2507 -1.1079
  213MOL0     H29388   8.795   4.836   5.425 -1.5080  1.6687  3.5598
  213MOL0     H29389   8.650   4.797   5.513 -1.3982 -1.2720 -0.1010
  213MOL0     H29390   8.483   4.955   5.162 -1.3628 -1.0770  0.5311
  213MOL0     H29391   8.806   4.576   4.839 -0.7816 -0.8244 -0.0256
  213MOL0     H29392   9.006   4.711   4.574  2.1395 -1.8197 -0.0998
  213MOL0     H29393   8.914   4.564   4.530  0.6019 -0.3616  1.0126
  213MOL0     H29394   8.841   4.682   4.633 -1.0479 -1.1500 -1.6834
  214MOL0     O29395   3.668   5.706  10.089  0.3892 -0.0916 -0.0804
  214MOL0     C29396   3.665   5.756  10.205 -0.3722  0.1955 -0.0269
  214MOL0     O29397   3.775   5.759  10.287 -0.4133  0.8251 -0.2549
  214MOL0     C29398   3.895   5.730  10.218  0.9512  0.6961 -0.0203
  214MOL0     C29399   3.951   5.601  10.232  0.6276  0.1057  0.8225
  214MOL0     C29400   4.085   5.573  10.199 -0.1506 -0.1914  0.5834
  214MOL0     C29401   4.160   5.672  10.129  0.4140  0.8598 -0.3302
  214MOL0     O29402   4.290   5.666  10.090 -0.1630 -0.1948  0.3839
  214MOL0     C29403   4.347   5.542  10.049 -0.2512  0.6934 -0.5090
  214MOL0     C29404   4.449   5.497  10.139  0.9111  0.1620 -0.7195
  214MOL0     C29405   4.545   5.404  10.060  0.0072  0.2787 -0.5130
  214MOL0     C29406   4.632   5.324  10.167 -0.7317  0.2098  0.2858
  214MOL0     C29407   4.734   5.409  10.251 -0.1545  0.8910  0.7839
  214MOL0     C29408   4.869   5.398  10.185  0.3556 -0.2296 -0.8657
  214MOL0     C29409   4.977   5.506  10.232  0.3940  0.1417  0.0547
  214MOL0     C29410   5.108   5.469  10.152  0.1695  0.8521  0.3321
  214MOL0     N29411   5.088   5.459  10.007 -0.3912 -0.0867  1.1719
  214MOL0     C29412   5.080   5.569   9.925 -0.2001 -0.2895  0.6265
  214MOL0     C29413   5.095   5.529   9.799 -0.2220 -0.1750  0.1153
  214MOL0     C29414   5.117   5.617   9.673 -0.2171 -0.2734  0.0650
  214MOL0     C29415   5.066   5.762   9.698  0.3869  0.2316  0.5987
  214MOL0     C29416   5.105   5.859   9.579 -0.3721  0.6140  0.3103
  214MOL0     C29417   5.240   5.929   9.605 -0.2477  0.3037  0.1157
  214MOL0     O29418   5.275   5.979   9.484  0.4008 -0.3396 -0.7264
  214MOL0     C29419   5.253   6.116   9.450 -0.1396  0.6664 -0.7820
  214MOL0     C29420   5.270   6.151   9.316 -0.9037  1.0657 -0.1360
  214MOL0     C29421   5.255   6.278   9.274  1.3446  0.7780  0.2981
  214MOL0     C29422   5.266   6.303   9.126  0.1642 -0.9940 -0.1035
  214MOL0     C29423   5.220   6.383   9.362  0.6626  0.0662 -0.1028
  214MOL0     C29424   5.202   6.526   9.319  0.2067  0.1219  1.1706
  214MOL0     O29425   5.193   6.622   9.420  0.1395 -0.3973 -0.6919
  214MOL0     C29426   5.135   6.743   9.391 -0.7097  0.8911 -0.9517
  214MOL0     C29427   5.074   6.802   9.499 -0.4365  0.6162  0.3761
  214MOL0     C29428   5.031   6.930   9.506  0.3345  0.0904  0.2576
  214MOL0     C29429   5.033   7.012   9.389 -0.1713  0.5235 -0.5106
  214MOL0     O29430   4.994   7.147   9.391 -0.0617  0.5680  0.5050
  214MOL0     C29431   4.886   7.186   9.478 -1.1456  0.2273 -0.7194
  214MOL0     C29432   4.790   7.296   9.420  0.4504 -0.8314 -0.1546
  214MOL0     C29433   4.699   7.253   9.302 -0.5758  0.3796 -0.2055
  214MOL0     C29434   4.624   7.367   9.247 -0.1120 -0.4175 -0.5343
  214MOL0     C29435   4.575   7.338   9.104 -0.4517  0.3570  0.3782
  214MOL0     C29436   4.451   7.423   9.066  0.0507 -0.2893 -0.2038
  214MOL0     C29437   4.450   7.480   8.924  0.2638  0.7393 -0.0840
  214MOL0     C29438   4.302   7.513   8.884  0.0074  0.4062  0.3661
  214MOL0    Cl29439   4.306   7.544   8.708  0.1386 -0.5248 -0.5763
  214MOL0     C29440   5.086   6.948   9.276 -0.2264  0.5611  0.1245
  214MOL0     C29441   5.132   6.818   9.275  0.6002  0.7559 -1.1957
  214MOL0     O29442   5.173   6.542   9.201 -0.3112 -0.2916  0.5826
  214MOL0     C29443   5.182   6.340   9.498  0.0528  0.2240 -0.5323
  214MOL0     C29444   5.197   6.206   9.536  0.6154 -0.2966  0.0815
  214MOL0     N29445   5.109   5.392   9.805  0.9507  0.7744 -0.3700
  214MOL0     N29446   5.076   5.351   9.926 -1.2208  0.2638  0.9686
  214MOL0     C29447   4.100   5.799  10.110  0.0934  0.1763 -0.5713
  214MOL0     C29448   3.970   5.830  10.151  0.5690  0.0736  0.2671
  214MOL0     C29449   3.539   5.808  10.257  1.0821  1.0317 -0.1225
  214MOL0     C29450   3.433   5.843  10.173  0.6495 -0.6662 -0.7435
  214MOL0     C29451   3.322   5.921  10.210  0.6436 -0.0673 -0.1152
  214MOL0     C29452   3.308   5.955  10.347  0.0379  0.9335 -0.0283
  214MOL0     O29453   3.205   6.041  10.382 -0.4191  0.2567  0.6434
  214MOL0     C29454   3.110   5.969  10.463 -0.3607 -0.0383  0.5920
  214MOL0     C29455   3.030   6.066  10.551  0.2754 -0.2974 -0.1735
  214MOL0     C29456   3.114   6.143  10.651 -0.9840 -0.2081 -0.0943
  214MOL0     C29457   3.130   6.069  10.779  0.9896  0.3937 -0.3179
  214MOL0     C29458   3.236   5.963  10.788  1.2677 -0.3441  0.0541
  214MOL0     C29459   3.306   5.867  10.790  1.7094 -0.4161 -0.3296
  214MOL0     C29460   3.402   5.908  10.438 -0.5925 -0.1581 -0.2558
  214MOL0     C29461   3.516   5.832  10.392  0.3189  1.0924 -0.6176
  214MOL0     C29462   3.604   5.788  10.511 -1.0915 -0.8783 -0.1990
  214MOL0     H29463   3.899   5.523  10.288 -0.8306 -0.6483 -1.4608
  214MOL0     H29464   4.121   5.473  10.223  0.7836  0.3173  1.4117
  214MOL0     H29465   4.398   5.557   9.953 -2.0769  0.1602 -1.6113
  214MOL0     H29466   4.277   5.458  10.041 -0.5542  0.6005  2.1827
  214MOL0     H29467   4.495   5.592  10.168  1.5044 -0.3849  0.1873
  214MOL0     H29468   4.397   5.445  10.221  0.2916  0.1445 -1.1222
  214MOL0     H29469   4.494   5.329   9.999  2.5063 -2.3674  0.4370
  214MOL0     H29470   4.620   5.461  10.004  0.6846  0.4825  0.5814
  214MOL0     H29471   4.569   5.282  10.246  0.9027  2.6357  3.1192
  214MOL0     H29472   4.692   5.249  10.115  3.6147  4.1567 -1.1547
  214MOL0     H29473   4.752   5.378  10.354  1.2156  2.6955  1.1602
  214MOL0     H29474   4.692   5.510  10.243 -2.8430 -0.2008  0.3056
  214MOL0     H29475   4.909   5.300  10.214  1.3031  0.1768 -0.7686
  214MOL0     H29476   4.857   5.415  10.078 -0.7356  4.3315 -0.2211
  214MOL0     H29477   4.995   5.508  10.340 -1.9281  1.9472  0.4809
  214MOL0     H29478   4.942   5.607  10.211 -0.0075 -0.3445 -1.7372
  214MOL0     H29479   5.181   5.548  10.172  2.4352 -1.6813  2.9366
  214MOL0     H29480   5.153   5.376  10.186  0.2847  0.2012 -1.5270
  214MOL0     H29481   5.080   5.668   9.970  3.1066  0.6377 -1.0011
  214MOL0     H29482   5.064   5.570   9.590  3.4898  0.3877 -2.9292
  214MOL0     H29483   5.225   5.607   9.657 -0.4167 -1.3496 -0.6739
  214MOL0     H29484   4.957   5.751   9.692  0.7103 -3.9574 -1.7674
  214MOL0     H29485   5.103   5.802   9.793  3.0707 -0.0833 -0.2493
  214MOL0     H29486   5.097   5.794   9.491 -1.1377 -0.4792  1.1588
  214MOL0     H29487   5.033   5.940   9.566 -1.1145 -0.0807 -0.0091
  214MOL0     H29488   5.232   6.006   9.683 -0.1953  0.9566 -0.5118
  214MOL0     H29489   5.309   5.862   9.657 -2.0163  2.4821  6.1333
  214MOL0     H29490   5.292   6.076   9.240 -3.0231  0.3180 -0.0824
  214MOL0     H29491   5.323   6.393   9.102 -0.7980 -0.4451 -0.3817
  214MOL0     H29492   5.166   6.292   9.083 -0.8799  0.4356  1.8115
  214MOL0     H29493   5.331   6.228   9.079 -1.8434 -3.5750  1.0474
  214MOL0     H29494   5.079   6.761   9.600  0.6018 -1.5502 -0.4833
  214MOL0     H29495   4.998   6.974   9.600 -0.0189  1.4183 -0.4585
  214MOL0     H29496   4.834   7.101   9.523  0.6892  1.2837  3.9146
  214MOL0     H29497   4.947   7.226   9.559  0.5177  2.6713 -2.9990
  214MOL0     H29498   4.724   7.335   9.497  1.3942  1.0916 -0.2687
  214MOL0     H29499   4.851   7.383   9.395  0.2173 -0.8398 -0.7553
  214MOL0     H29500   4.616   7.195   9.343 -1.2508  0.4986 -1.3408
  214MOL0     H29501   4.756   7.192   9.230  0.9657  0.0008  1.2925
  214MOL0     H29502   4.687   7.456   9.257 -2.0491  0.9078  0.4038
  214MOL0     H29503   4.534   7.386   9.306  0.8162  2.0081  0.2046
  214MOL0     H29504   4.669   7.345   9.048  2.2913 -0.2103  4.4862
  214MOL0     H29505   4.542   7.234   9.100  0.6279  0.0405 -1.2916
  214MOL0     H29506   4.452   7.505   9.139  3.7149 -0.2064 -0.1621
  214MOL0     H29507   4.368   7.354   9.079 -0.6674  0.8673  2.0052
  214MOL0     H29508   4.490   7.402   8.858 -0.9591  0.9478 -1.1173
  214MOL0     H29509   4.522   7.561   8.915  0.3544  0.5754 -0.9427
  214MOL0     H29510   4.250   7.591   8.941 -0.0244  0.3040  0.4788
  214MOL0     H29511   4.241   7.422   8.891  0.7098 -0.4369 -2.7034
  214MOL0     H29512   5.102   7.003   9.184 -2.0655  2.7322  0.9818
  214MOL0     H29513   5.176   6.783   9.182 -0.4134 -2.7078 -0.5296
  214MOL0     H29514   5.139   6.403   9.575  0.4728  0.1659 -0.2490
  214MOL0     H29515   5.151   6.175   9.630 -0.4500 -0.6561 -0.5424
  214MOL0     H29516   4.159   5.874  10.059  2.4166  1.0768  3.0692
  214MOL0     H29517   3.931   5.928  10.123 -3.1349 -1.6599 -1.2710
  214MOL0     H29518   3.449   5.822  10.068  0.4848 -0.6745 -0.7674
  214MOL0     H29519   3.246   5.956  10.141  0.9101  3.4323  1.1284
  214MOL0     H29520   3.030   5.919  10.408  0.5113 -1.2236  0.3843
  214MOL0     H29521   3.153   5.890  10.525 -0.9413 -0.6678  0.2060
  214MOL0     H29522   2.944   6.021  10.602 -1.1156 -0.1349 -2.2256
  214MOL0     H29523   2.971   6.127  10.481  0.1707 -0.4399 -0.2096
  214MOL0     H29524   3.217   6.165  10.620 -0.4651 -0.2734  1.4811
  214MOL0     H29525   3.061   6.238  10.663  0.0022  0.5020 -1.0992
  214MOL0     H29526   3.035   6.021  10.803  0.7044  0.6816 -0.8624
  214MOL0     H29527   3.142   6.142  10.859 -3.5144  2.8098 -1.5265
  214MOL0     H29528   3.384   5.794  10.792  3.0733  0.9797  2.4938
  214MOL0     H29529   3.399   5.931  10.544 -0.9745 -0.5790 -0.1747
  214MOL0     H29530   3.626   5.681  10.510  0.3255 -0.6147 -0.2040
  214MOL0     H29531   3.698   5.844  10.502 -0.9674 -1.0607 -0.0525
  214MOL0     H29532   3.552   5.799  10.607  0.0083 -2.2968  0.6075
  215MOL0     O29533   5.148   5.332   5.114 -0.1888  0.1790  0.1594
  215MOL0     C29534   5.248   5.370   5.170 -0.4115 -1.5430 -0.1815
  215MOL0     O29535   5.287   5.337   5.307 -0.2648 -0.0854 -0.0258
  215MOL0     C29536   5.195   5.273   5.386  0.0599  0.3384 -0.6579
  215MOL0     C29537   5.155   5.335   5.509 -0.5878 -0.1033 -1.1545
  215MOL0     C29538   5.048   5.284   5.581  0.7117  1.0709 -0.1901
  215MOL0     C29539   5.005   5.159   5.553  1.1250  0.3067 -0.1596
  215MOL0     O29540   4.910   5.094   5.628  0.1683 -0.1486  0.4365
  215MOL0     C29541   4.828   5.162   5.717  0.0663  0.4616  0.6601
  215MOL0     C29542   4.722   5.075   5.780  0.4634  0.1340  0.9942
  215MOL0     C29543   4.605   5.037   5.686 -0.1322  0.6688 -0.2421
  215MOL0     C29544   4.481   4.967   5.741  1.0348  1.1061  0.0575
  215MOL0     C29545   4.423   4.877   5.628 -0.4853  0.6119 -0.1412
  215MOL0     C29546   4.269   4.845   5.620  0.5301 -0.2136 -0.2006
  215MOL0     C29547   4.230   4.726   5.712 -0.6988  0.1268 -0.4511
  215MOL0     C29548   4.195   4.610   5.619 -0.9442  0.0207 -0.6689
  215MOL0     N29549   4.171   4.486   5.693 -0.2668  0.5139 -0.0581
  215MOL0     C29550   4.083   4.483   5.800 -0.0823  0.6105  0.5180
  215MOL0     C29551   4.073   4.350   5.823 -1.6367  0.7546  0.6654
  215MOL0     C29552   3.992   4.292   5.926 -0.1581 -0.7108  0.3594
  215MOL0     C29553   4.025   4.337   6.066 -0.4475  0.3767 -0.4312
  215MOL0     C29554   3.907   4.308   6.159  1.0439 -0.2217 -0.0561
  215MOL0     C29555   3.923   4.358   6.301  0.1510 -0.6138 -0.0910
  215MOL0     O29556   3.849   4.269   6.386 -0.0789  0.4777  0.5944
  215MOL0     C29557   3.835   4.298   6.519  0.5621 -0.2629  0.5189
  215MOL0     C29558   3.757   4.210   6.593 -1.0828  0.6276 -0.6167
  215MOL0     C29559   3.734   4.231   6.734 -0.8126  0.1564  0.3172
  215MOL0     C29560   3.649   4.125   6.801 -0.5014 -0.4535  0.5016
  215MOL0     C29561   3.802   4.343   6.795 -0.5080  0.7409  0.3283
  215MOL0     C29562   3.799   4.367   6.942 -0.1045  0.4888  0.0115
  215MOL0     O29563   3.895   4.457   6.991 -0.2480  0.0360  0.4269
  215MOL0     C29564   3.904   4.473   7.129 -0.8386 -0.4184  0.3151
  215MOL0     C29565   4.025   4.460   7.197 -0.0605 -0.1641 -0.5066
  215MOL0     C29566   4.034   4.487   7.333 -0.5980 -0.4551  0.3055
  215MOL0     C29567   3.936   4.547   7.403  0.7469  0.5734 -0.0429
  215MOL0     O29568   3.938   4.576   7.533 -0.8827  0.4737  0.0263
  215MOL0     C29569   4.068   4.579   7.599  0.0417 -0.2780 -0.4326
  215MOL0     C29570   4.046   4.623   7.743  0.6629  0.2492 -0.6078
  215MOL0     C29571   4.176   4.641   7.823  1.0959 -0.0586  0.2731
  215MOL0     C29572   4.150   4.675   7.977 -0.4721  0.4924  0.3135
  215MOL0     C29573   4.095   4.822   7.983 -0.0099 -1.4994 -0.4708
  215MOL0     C29574   4.040   4.861   8.128 -0.3366 -0.4360  0.5048
  215MOL0     C29575   4.031   5.022   8.144 -0.7416  0.2833  0.1379
  215MOL0     C29576   3.939   5.060   8.256 -0.4074 -0.8299 -0.5007
  215MOL0    Cl29577   4.020   5.055   8.419  0.0538 -0.2728 -0.2355
  215MOL0     C29578   3.816   4.573   7.334  0.4839 -0.4057  0.0999
  215MOL0     C29579   3.803   4.543   7.194  0.7346 -1.5077  0.0768
  215MOL0     O29580   3.723   4.305   7.019  0.0654 -0.1578 -0.4065
  215MOL0     C29581   3.881   4.427   6.720  0.2346 -0.1623  1.3261
  215MOL0     C29582   3.884   4.420   6.579  0.1252  0.2631  0.0043
  215MOL0     N29583   4.181   4.280   5.753  0.2885  0.4586 -0.3679
  215MOL0     N29584   4.230   4.364   5.670 -0.0084  0.1383 -0.3549
  215MOL0     C29585   5.043   5.096   5.442  1.1058 -0.9370  0.0566
  215MOL0     C29586   5.136   5.144   5.358 -0.1574 -1.0073 -0.6560
  215MOL0     C29587   5.324   5.475   5.095  0.9793 -0.6122 -0.5825
  215MOL0     C29588   5.251   5.561   5.016  0.5411 -0.1473  0.4054
  215MOL0     C29589   5.305   5.670   4.949  0.6399 -0.0698  0.6072
  215MOL0     C29590   5.441   5.701   4.963  0.4645 -0.4190 -0.1720
  215MOL0     O29591   5.479   5.798   4.880 -0.4793 -0.4730 -0.1969
  215MOL0     C29592   5.523   5.761   4.747 -0.5620  0.7639  0.0979
  215MOL0     C29593   5.573   5.889   4.686 -0.7844  0.2139  0.6423
  215MOL0     C29594   5.732   5.896   4.675  0.1071 -0.0980  0.2990
  215MOL0     C29595   5.790   5.903   4.818  0.5643  0.2838  0.3404
  215MOL0     C29596   5.928   5.853   4.810 -0.3344 -1.2499 -1.1219
  215MOL0     C29597   6.033   5.801   4.821  0.3425  0.3486 -0.6006
  215MOL0     C29598   5.525   5.615   5.044  1.5150 -0.3530  0.2678
  215MOL0     C29599   5.464   5.497   5.099 -0.3573  0.1266  0.2809
  215MOL0     C29600   5.560   5.417   5.182  0.1639  0.0090 -0.2044
  215MOL0     H29601   5.199   5.431   5.532 -3.1298  2.0720 -4.3785
  215MOL0     H29602   5.012   5.328   5.674 -2.3747 -1.7125  0.0981
  215MOL0     H29603   4.771   5.237   5.662  1.1818  0.5431 -0.4041
  215MOL0     H29604   4.879   5.200   5.805 -3.0861  1.5451  2.1929
  215MOL0     H29605   4.767   4.976   5.791  0.3185  0.1125  1.3956
  215MOL0     H29606   4.698   5.118   5.878 -1.5473 -1.6159  1.3361
  215MOL0     H29607   4.569   5.125   5.633  1.2142  1.4997  0.1820
  215MOL0     H29608   4.650   4.969   5.613 -0.2829  1.3595 -0.9860
  215MOL0     H29609   4.510   4.903   5.825  3.2500  0.0208 -1.4262
  215MOL0     H29610   4.399   5.029   5.777  0.6222  0.7183 -0.2107
  215MOL0     H29611   4.477   4.782   5.630  0.8753  1.3466 -0.4662
  215MOL0     H29612   4.449   4.925   5.533  1.0025 -0.9239 -0.5519
  215MOL0     H29613   4.212   4.935   5.647  2.8441  1.1703  0.3024
  215MOL0     H29614   4.231   4.823   5.520  2.4283 -0.7883 -0.8232
  215MOL0     H29615   4.153   4.744   5.787  2.2203  2.2589  2.3532
  215MOL0     H29616   4.309   4.701   5.783  0.2456 -3.5048 -2.5582
  215MOL0     H29617   4.114   4.636   5.551  0.0676 -2.5305 -3.0548
  215MOL0     H29618   4.277   4.595   5.548 -1.0224 -2.7214 -0.2637
  215MOL0     H29619   4.012   4.556   5.837 -1.6310 -0.6778  0.1961
  215MOL0     H29620   3.999   4.184   5.913  1.1703 -0.5278 -0.5844
  215MOL0     H29621   3.891   4.328   5.904  0.5052  2.4787  2.0001
  215MOL0     H29622   4.113   4.296   6.115 -0.3856  1.0493  0.0309
  215MOL0     H29623   4.038   4.446   6.064  0.7984  0.2365 -1.6603
  215MOL0     H29624   3.824   4.368   6.121  0.6279  0.4806  1.8837
  215MOL0     H29625   3.885   4.201   6.152  0.9074 -0.1053 -2.0771
  215MOL0     H29626   4.029   4.346   6.327 -0.5472 -0.2418  3.5528
  215MOL0     H29627   3.910   4.465   6.319 -1.4183 -1.1540  2.5102
  215MOL0     H29628   3.704   4.137   6.532 -1.6408  2.6129 -2.6297
  215MOL0     H29629   3.573   4.175   6.863  3.3283  1.6060  4.0465
  215MOL0     H29630   3.708   4.059   6.866  0.4516  0.2353  0.3499
  215MOL0     H29631   3.605   4.062   6.723 -3.4612 -1.0144  2.4510
  215MOL0     H29632   4.108   4.410   7.148  0.8744  1.4024 -0.5795
  215MOL0     H29633   4.133   4.476   7.375 -0.3779  3.0823  1.0569
  215MOL0     H29634   4.101   4.475   7.592 -0.8964 -0.4629 -3.3399
  215MOL0     H29635   4.142   4.640   7.546  0.8170 -0.9865 -0.1756
  215MOL0     H29636   3.982   4.711   7.756  0.4743 -0.1793  1.8106
  215MOL0     H29637   3.978   4.543   7.773  3.3782 -1.8598  0.3498
  215MOL0     H29638   4.221   4.729   7.775 -2.4194  1.1009 -1.2168
  215MOL0     H29639   4.249   4.559   7.816  0.3165 -0.6872 -0.9707
  215MOL0     H29640   4.244   4.675   8.032 -0.3730 -1.8252  0.2600
  215MOL0     H29641   4.090   4.597   8.026  0.7915 -0.1495  0.8812
  215MOL0     H29642   4.174   4.890   7.948 -0.8723 -1.4278 -2.4147
  215MOL0     H29643   4.016   4.852   7.914  0.7685  1.1081 -0.3491
  215MOL0     H29644   4.105   4.823   8.209  0.5229  4.0495  2.2338
  215MOL0     H29645   3.941   4.821   8.150 -2.9257  3.3667 -2.8995
  215MOL0     H29646   3.978   5.069   8.060 -0.4146  0.2831 -0.0722
  215MOL0     H29647   4.133   5.061   8.143 -0.4216 -0.5524 -0.3951
  215MOL0     H29648   3.854   4.992   8.263 -2.5358  1.7619  1.2994
  215MOL0     H29649   3.899   5.159   8.234  2.6762 -0.0001 -3.2350
  215MOL0     H29650   3.735   4.606   7.397  1.5144 -1.2488  1.9444
  215MOL0     H29651   3.708   4.565   7.146  1.3579 -0.0759 -0.5637
  215MOL0     H29652   3.923   4.514   6.769  0.3347  1.8990 -2.1031
  215MOL0     H29653   3.927   4.493   6.511  0.3857 -0.7371 -0.9343
  215MOL0     H29654   4.996   4.999   5.433  0.1298 -0.5829  1.1884
  215MOL0     H29655   5.174   5.096   5.268  1.2604  2.1984 -1.9406
  215MOL0     H29656   5.145   5.543   5.001  0.7918 -0.3874 -1.2304
  215MOL0     H29657   5.237   5.725   4.885 -0.9261  1.5009  3.4111
  215MOL0     H29658   5.601   5.684   4.752 -0.0215  1.3583  0.9185
  215MOL0     H29659   5.437   5.709   4.704 -0.2869 -0.2738  0.7789
  215MOL0     H29660   5.534   5.980   4.732  1.2886  3.1966 -2.9289
  215MOL0     H29661   5.532   5.892   4.585 -2.0556  0.2871  1.1401
  215MOL0     H29662   5.759   5.807   4.616  0.0542  0.9148 -1.2935
  215MOL0     H29663   5.769   5.985   4.624 -2.3318  0.5768 -0.4057
  215MOL0     H29664   5.731   5.851   4.894  0.2978  0.8726  0.5406
  215MOL0     H29665   5.789   6.005   4.856  1.1130  1.3520 -2.2955
  215MOL0     H29666   6.131   5.758   4.834  1.2820  2.2266 -1.1012
  215MOL0     H29667   5.628   5.646   5.042  0.9256  1.7699 -1.3237
  215MOL0     H29668   5.557   5.431   5.290 -1.3705  2.6673 -0.4948
  215MOL0     H29669   5.532   5.313   5.162  0.3105 -0.3324  1.2758
  215MOL0     H29670   5.661   5.434   5.144 -0.2903  1.2252 -0.9202
  216MOL0     O29671   1.998   3.434   0.953 -0.1920 -0.2427 -0.0538
  216MOL0     C29672   1.884   3.432   1.007 -0.8307 -0.6385  0.0867
  216MOL0     O29673   1.862   3.463   1.135 -0.2787  0.2194 -0.5926
  216MOL0     C29674   1.960   3.488   1.222 -0.9839 -0.4295  0.2398
  216MOL0     C29675   1.997   3.377   1.302 -0.1876  0.2209  0.7056
  216MOL0     C29676   2.082   3.387   1.410 -0.4343 -0.4488 -0.2063
  216MOL0     C29677   2.118   3.518   1.446  0.1275  0.5638 -0.7108
  216MOL0     O29678   2.190   3.542   1.562 -0.2306  0.5016  0.2152
  216MOL0     C29679   2.159   3.464   1.682 -0.0543  0.6732  0.9229
  216MOL0     C29680   2.224   3.531   1.794 -1.1179  0.6517 -0.2203
  216MOL0     C29681   2.181   3.668   1.840  0.7736 -0.5502  0.9174
  216MOL0     C29682   2.030   3.668   1.867 -0.0042 -0.4680  0.7179
  216MOL0     C29683   1.972   3.788   1.941 -0.2002  0.3020 -0.4596
  216MOL0     C29684   1.814   3.760   1.968 -0.4286 -1.1855  0.8031
  216MOL0     C29685   1.767   3.881   2.046 -0.3165 -0.0072  0.5049
  216MOL0     C29686   1.625   3.880   2.082  0.6840 -0.5223  1.1605
  216MOL0     N29687   1.534   3.911   1.971  0.5376  0.2007  0.4328
  216MOL0     C29688   1.478   3.816   1.893 -1.4224  0.0173 -0.4862
  216MOL0     C29689   1.446   3.880   1.782 -0.3655 -0.5082 -0.7822
  216MOL0     C29690   1.406   3.810   1.651  0.2576 -0.2452 -0.1867
  216MOL0     C29691   1.503   3.821   1.538 -0.2923  0.1602 -1.0268
  216MOL0     C29692   1.640   3.764   1.577 -1.2450  0.2496 -0.0255
  216MOL0     C29693   1.712   3.720   1.445  0.6693  0.8977  0.3347
  216MOL0     O29694   1.718   3.839   1.361  0.5022  0.1129  0.1251
  216MOL0     C29695   1.809   3.933   1.380 -1.2101  0.1582 -0.5440
  216MOL0     C29696   1.920   3.929   1.472  0.2556  0.0869  0.7841
  216MOL0     C29697   2.008   4.027   1.493 -0.4048 -0.9166 -0.8115
  216MOL0     C29698   2.114   4.005   1.587 -0.1112  0.5488  0.1871
  216MOL0     C29699   1.983   4.147   1.422 -0.4584  0.4004  0.3721
  216MOL0     C29700   2.065   4.263   1.441 -0.4071  0.1443 -0.5846
  216MOL0     O29701   2.102   4.312   1.561 -0.6897 -0.1471 -0.1597
  216MOL0     C29702   2.192   4.422   1.558 -1.0245  0.3951  0.9531
  216MOL0     C29703   2.157   4.549   1.607 -0.4519  0.5792 -0.2920
  216MOL0     C29704   2.241   4.658   1.579  0.4872 -0.5006 -1.0026
  216MOL0     C29705   2.367   4.641   1.524  1.0883 -0.6664  0.0017
  216MOL0     O29706   2.458   4.745   1.515 -0.1756 -0.3028 -0.3260
  216MOL0     C29707   2.439   4.858   1.599 -0.7871  0.3524  0.5570
  216MOL0     C29708   2.359   4.968   1.528  0.2536 -0.6595  0.0995
  216MOL0     C29709   2.365   5.103   1.593  0.1343  0.1646  0.9194
  216MOL0     C29710   2.308   5.099   1.741 -0.1617  0.5283  0.5545
  216MOL0     C29711   2.336   5.223   1.815 -0.1525  0.2687 -0.7229
  216MOL0     C29712   2.247   5.335   1.768  0.1369  0.0475  0.4622
  216MOL0     C29713   2.251   5.446   1.874  0.2339  0.2520  1.2429
  216MOL0     C29714   2.389   5.510   1.898 -0.2977  0.4770 -0.6673
  216MOL0    Cl29715   2.361   5.658   1.994 -0.2379  0.4521  0.4131
  216MOL0     C29716   2.400   4.513   1.474 -0.4687  0.5919  0.0788
  216MOL0     C29717   2.315   4.404   1.496 -0.6126 -0.3636 -0.1131
  216MOL0     O29718   2.080   4.330   1.338 -0.7581  0.4507  0.1849
  216MOL0     C29719   1.870   4.160   1.335  0.4871 -0.2514 -0.2119
  216MOL0     C29720   1.792   4.051   1.310  0.1165 -0.2522  0.6504
  216MOL0     N29721   1.478   4.012   1.792  0.8776  0.1877  0.1200
  216MOL0     N29722   1.537   4.033   1.905 -0.7889  0.5486 -0.5169
  216MOL0     C29723   2.094   3.622   1.360  1.2576  0.0528  0.2327
  216MOL0     C29724   2.011   3.613   1.250  0.1621  1.2496 -0.3245
  216MOL0     C29725   1.774   3.415   0.916  0.7595 -0.5572  0.8150
  216MOL0     C29726   1.786   3.327   0.802  0.3411  0.3465  0.1801
  216MOL0     C29727   1.686   3.314   0.708 -0.1552  0.1405 -0.8793
  216MOL0     C29728   1.573   3.380   0.719  0.1772  0.1048 -0.0954
  216MOL0     O29729   1.486   3.387   0.615 -0.7878  0.0001  0.1638
  216MOL0     C29730   1.352   3.356   0.641 -0.0593 -0.8024 -0.0503
  216MOL0     C29731   1.293   3.283   0.524  0.0499 -0.4432  0.2535
  216MOL0     C29732   1.368   3.158   0.474 -0.1321 -1.1974  0.9026
  216MOL0     C29733   1.276   3.072   0.392  0.9923  0.7048  0.4463
  216MOL0     C29734   1.174   3.013   0.482  0.1873 -1.1166  0.5726
  216MOL0     C29735   1.094   2.962   0.547 -0.0668 -0.5467  0.5082
  216MOL0     C29736   1.564   3.479   0.821  0.3267  0.5238 -0.9075
  216MOL0     C29737   1.659   3.501   0.920  1.1464  0.3594  0.3492
  216MOL0     C29738   1.626   3.594   1.041 -0.3633  0.1175  0.7704
  216MOL0     H29739   1.963   3.278   1.275 -0.7719  0.4778  0.4894
  216MOL0     H29740   2.112   3.303   1.471  3.3637  2.2290  2.0787
  216MOL0     H29741   2.209   3.367   1.675  2.3969  1.5792  3.8378
  216MOL0     H29742   2.052   3.443   1.692  0.0790 -3.1614 -2.8060
  216MOL0     H29743   2.216   3.459   1.877  0.5248  2.2997  1.4759
  216MOL0     H29744   2.331   3.537   1.770 -0.2007 -1.3779  2.7478
  216MOL0     H29745   2.232   3.684   1.935  0.2064 -3.4237  1.7982
  216MOL0     H29746   2.216   3.741   1.766 -0.7750 -0.3985  0.2799
  216MOL0     H29747   1.982   3.662   1.769  2.2690  0.1706 -0.5131
  216MOL0     H29748   2.027   3.578   1.929  2.1802 -0.3772  1.0266
  216MOL0     H29749   1.983   3.881   1.886  0.8962  0.6737  0.3504
  216MOL0     H29750   2.019   3.785   2.040 -2.9456  0.0711  0.9364
  216MOL0     H29751   1.785   3.752   1.863 -0.9827 -0.4076  0.8920
  216MOL0     H29752   1.800   3.668   2.026 -0.7059 -0.7546  1.4200
  216MOL0     H29753   1.784   3.965   1.979  0.0648 -1.9523 -2.0130
  216MOL0     H29754   1.827   3.886   2.137  1.5511  1.5367 -0.7426
  216MOL0     H29755   1.599   3.777   2.105  1.9347 -2.3867 -4.3681
  216MOL0     H29756   1.604   3.965   2.149 -1.3564  1.9450 -2.2330
  216MOL0     H29757   1.494   3.709   1.907 -1.4985  0.1992  1.1786
  216MOL0     H29758   1.308   3.839   1.613 -0.8611 -1.8647  1.2651
  216MOL0     H29759   1.384   3.705   1.675 -3.2248  0.7533  1.7476
  216MOL0     H29760   1.455   3.769   1.455 -1.9777  2.9561 -1.9676
  216MOL0     H29761   1.513   3.925   1.504  2.1414  0.1121 -0.6638
  216MOL0     H29762   1.703   3.837   1.628  1.5970 -0.4713 -2.2083
  216MOL0     H29763   1.641   3.683   1.650  0.3494 -0.4126 -0.7284
  216MOL0     H29764   1.816   3.694   1.464  2.3183  3.4263 -3.8945
  216MOL0     H29765   1.654   3.638   1.403  0.0992  1.3710  0.1834
  216MOL0     H29766   1.934   3.852   1.548 -0.1182  0.4291  1.2065
  216MOL0     H29767   2.207   4.049   1.550  1.7228 -2.8935  0.3019
  216MOL0     H29768   2.125   3.900   1.612  0.8636  0.9003  1.3535
  216MOL0     H29769   2.102   4.053   1.685  0.4932  2.6061 -0.6770
  216MOL0     H29770   2.065   4.568   1.660  1.0645  0.8786  2.4087
  216MOL0     H29771   2.209   4.752   1.622  0.4597 -1.2345  0.6561
  216MOL0     H29772   2.390   4.835   1.694 -1.4291 -1.6603 -0.2073
  216MOL0     H29773   2.533   4.906   1.630 -1.3112  0.3266  2.2776
  216MOL0     H29774   2.393   4.986   1.425  4.7443 -1.8614  1.1455
  216MOL0     H29775   2.253   4.944   1.515 -0.3447  0.8535  1.8446
  216MOL0     H29776   2.305   5.171   1.532  1.3700  1.4814  1.1080
  216MOL0     H29777   2.463   5.148   1.578 -0.3798  1.3983  1.0953
  216MOL0     H29778   2.351   5.017   1.798 -0.8697  0.1876  0.6103
  216MOL0     H29779   2.202   5.082   1.722 -0.4813  3.2998 -0.7203
  216MOL0     H29780   2.319   5.220   1.923  0.4439  0.5089 -0.6203
  216MOL0     H29781   2.440   5.252   1.797  1.2534 -2.5048  2.0011
  216MOL0     H29782   2.144   5.299   1.762 -0.1531  1.0582 -3.3121
  216MOL0     H29783   2.258   5.372   1.665 -1.4578 -0.0151  0.2366
  216MOL0     H29784   2.200   5.410   1.964  0.9285  0.9671  1.9510
  216MOL0     H29785   2.186   5.521   1.828  0.2768 -0.7106 -0.4611
  216MOL0     H29786   2.453   5.534   1.813  2.1121  2.1816  1.4827
  216MOL0     H29787   2.447   5.436   1.954  1.8863  1.5339 -1.4355
  216MOL0     H29788   2.502   4.499   1.439 -0.3862 -0.5378  0.7283
  216MOL0     H29789   2.336   4.302   1.462  0.7719 -0.1004 -0.1023
  216MOL0     H29790   1.831   4.253   1.294 -0.5323 -0.1867  0.8675
  216MOL0     H29791   1.704   4.064   1.248 -1.4588 -2.3061  2.3118
  216MOL0     H29792   2.138   3.721   1.371 -0.0320  0.8470 -1.3612
  216MOL0     H29793   1.985   3.700   1.192  0.3056  2.6908  1.6560
  216MOL0     H29794   1.880   3.274   0.796  1.1824  1.6212  1.4416
  216MOL0     H29795   1.699   3.251   0.620  0.4404 -1.8011  0.5298
  216MOL0     H29796   1.336   3.289   0.726 -2.4907  1.3383  1.2992
  216MOL0     H29797   1.301   3.449   0.664  2.5132  1.1297 -1.5506
  216MOL0     H29798   1.296   3.355   0.441  2.8261 -0.6024  0.1185
  216MOL0     H29799   1.187   3.264   0.539  0.1919 -1.1892  0.3356
  216MOL0     H29800   1.447   3.183   0.403  1.2435  1.3020  3.1397
  216MOL0     H29801   1.405   3.102   0.559 -0.7280 -0.8263  1.4137
  216MOL0     H29802   1.321   2.991   0.334 -0.0836  0.8605 -0.6528
  216MOL0     H29803   1.217   3.121   0.315  0.7296 -0.6597 -0.2529
  216MOL0     H29804   1.012   2.912   0.594 -0.3981 -0.3827  0.1160
  216MOL0     H29805   1.481   3.548   0.809 -0.9232 -0.9673 -1.1988
  216MOL0     H29806   1.716   3.634   1.090 -0.0449  0.6059 -0.1757
  216MOL0     H29807   1.554   3.667   1.004  0.3815 -0.1126 -1.2703
  216MOL0     H29808   1.572   3.532   1.113 -0.7160 -1.1944 -0.5648
  217MOL0     O29809  10.641   0.708   7.938  0.4061 -0.0834  0.3176
  217MOL0     C29810  10.634   0.655   8.048 -0.1195 -0.0999 -0.2911
  217MOL0     O29811  10.643   0.523   8.061 -0.1255 -0.5322  0.5988
  217MOL0     C29812  10.673   0.458   7.944  0.7211  1.2356  0.0100
  217MOL0     C29813  10.573   0.391   7.875  0.4268 -0.3139  0.3493
  217MOL0     C29814  10.603   0.325   7.754  0.1662  0.0013 -0.2801
  217MOL0     C29815  10.724   0.330   7.704  0.7970  0.2473 -0.4209
  217MOL0     O29816  10.740   0.271   7.585  0.1615  0.4952  0.4054
  217MOL0     C29817  10.775   0.354   7.472 -0.3206 -0.9148  0.4782
  217MOL0     C29818  10.893   0.298   7.391  0.0123 -0.0226 -1.3409
  217MOL0     C29819  10.932   0.401   7.278 -0.0222  0.1109  0.4306
  217MOL0     C29820  10.828   0.376   7.166 -0.7187 -0.4947 -0.6179
  217MOL0     C29821  10.844   0.481   7.058 -0.2397 -0.5168 -0.2816
  217MOL0     C29822  10.747   0.454   6.946  0.4188  0.4863 -0.3458
  217MOL0     C29823  10.758   0.535   6.818 -0.6396 -0.4487  0.5291
  217MOL0     C29824  10.781   0.691   6.826 -0.4020  0.3564 -1.7460
  217MOL0     N29825  10.671   0.770   6.891  0.1667  0.6797 -0.4382
  217MOL0     C29826  10.540   0.746   6.846 -0.4945 -0.0547  0.3528
  217MOL0     C29827  10.463   0.812   6.934 -0.3002  0.0891  0.5308
  217MOL0     C29828  10.316   0.806   6.952 -0.2171 -0.6920  0.3003
  217MOL0     C29829  10.253   0.757   7.095 -0.0730  0.2143  0.2391
  217MOL0     C29830  10.258   0.850   7.224  0.4514 -0.0847  0.8252
  217MOL0     C29831  10.141   0.823   7.329  0.3835  0.2179 -0.0402
  217MOL0     O29832  10.025   0.899   7.315  0.3722  0.2143 -0.1313
  217MOL0     C29833   9.904   0.851   7.367 -0.7538  0.1236  0.5333
  217MOL0     C29834   9.795   0.894   7.298  1.2021  0.7725  0.6009
  217MOL0     C29835   9.667   0.837   7.307  0.4079 -0.3897  0.4032
  217MOL0     C29836   9.561   0.887   7.206 -0.2626 -0.2216 -0.3603
  217MOL0     C29837   9.644   0.729   7.391 -0.8086  0.7399  0.1960
  217MOL0     C29838   9.515   0.648   7.403 -0.1315 -0.0236  0.2825
  217MOL0     O29839   9.421   0.648   7.296 -0.4840 -0.4866  0.3051
  217MOL0     C29840   9.309   0.567   7.305 -0.5912 -0.9591  0.3880
  217MOL0     C29841   9.209   0.608   7.402 -0.9861 -0.8247  0.9005
  217MOL0     C29842   9.098   0.522   7.411 -0.0574 -0.3362 -0.2300
  217MOL0     C29843   9.075   0.405   7.340 -0.7610  0.0541 -0.1842
  217MOL0     O29844   8.991   0.299   7.355 -0.2565  0.5329 -1.0163
  217MOL0     C29845   8.922   0.256   7.478  0.0108  1.1623 -0.3473
  217MOL0     C29846   8.800   0.174   7.459  1.2852  0.1159  0.4635
  217MOL0     C29847   8.842   0.037   7.403 -0.8647  1.0123  0.1463
  217MOL0     C29848   8.738  -0.076   7.409  0.8685 -0.7004 -0.4930
  217MOL0     C29849   8.634  -0.066   7.292 -0.0029 -0.2674 -0.2150
  217MOL0     C29850   8.495  -0.118   7.344 -0.4313  0.1631 -0.1035
  217MOL0     C29851   8.409  -0.118   7.218  0.2078 -0.2797  0.6503
  217MOL0     C29852   8.275  -0.091   7.281  0.2370 -1.5873 -0.7867
  217MOL0    Cl29853   8.155  -0.103   7.160 -0.2385  0.1154  0.0875
  217MOL0     C29854   9.166   0.387   7.228  0.0471 -0.6450  0.0978
  217MOL0     C29855   9.276   0.476   7.210 -0.1911 -0.1888  0.0251
  217MOL0     O29856   9.504   0.578   7.500  0.8731 -0.2491 -0.1464
  217MOL0     C29857   9.749   0.689   7.472  0.1339  0.1896  0.2206
  217MOL0     C29858   9.875   0.752   7.460  0.3168  0.1432  0.3833
  217MOL0     N29859  10.545   0.862   7.028 -0.1905  0.2316 -0.1868
  217MOL0     N29860  10.673   0.837   7.008 -0.6514  0.5648  0.2194
  217MOL0     C29861  10.830   0.393   7.777  0.0789  1.1992 -0.5438
  217MOL0     C29862  10.800   0.453   7.895  0.0101  0.4362  0.5022
  217MOL0     C29863  10.607   0.756   8.152 -0.5604 -0.1843  0.1563
  217MOL0     C29864  10.664   0.886   8.120  0.6676  1.5144  0.4402
  217MOL0     C29865  10.639   0.978   8.223 -0.0204 -0.0163 -0.4112
  217MOL0     C29866  10.586   0.960   8.347  1.0810  0.1333  1.0370
  217MOL0     O29867  10.555   1.071   8.416 -0.4225  0.0271 -0.3819
  217MOL0     C29868  10.513   1.063   8.548 -0.5977 -1.3850 -0.9367
  217MOL0     C29869  10.455   1.205   8.604 -0.1898  0.2346 -0.5767
  217MOL0     C29870  10.576   1.303   8.622  0.7785  0.7258  0.4723
  217MOL0     C29871  10.637   1.377   8.503  0.3105 -0.0918 -0.0221
  217MOL0     C29872  10.765   1.438   8.537 -0.3067 -0.6527  0.2062
  217MOL0     C29873  10.871   1.483   8.586  0.6318  0.6646  0.3087
  217MOL0     C29874  10.523   0.836   8.364  0.1128  0.2807  0.4803
  217MOL0     C29875  10.548   0.730   8.284 -0.6503  0.0027 -0.8463
  217MOL0     C29876  10.495   0.594   8.321 -0.1029  1.3642  0.4244
  217MOL0     H29877  10.472   0.381   7.915  0.3027  0.1899  0.1763
  217MOL0     H29878  10.526   0.275   7.697  1.4196 -1.2847 -0.8936
  217MOL0     H29879  10.801   0.453   7.512 -2.5854 -1.4139  3.4560
  217MOL0     H29880  10.689   0.358   7.405 -1.6531 -2.3139  2.0392
  217MOL0     H29881  10.973   0.280   7.464  0.9332  1.6577 -1.8844
  217MOL0     H29882  10.863   0.200   7.353 -2.2068 -0.8351  2.0566
  217MOL0     H29883  10.946   0.506   7.308 -0.5008  0.2916  0.0317
  217MOL0     H29884  11.030   0.374   7.239 -0.2971 -3.1664  1.6840
  217MOL0     H29885  10.815   0.274   7.130 -0.7620 -0.2086 -1.4390
  217MOL0     H29886  10.732   0.403   7.211 -1.1811  0.4493 -2.1030
  217MOL0     H29887  10.948   0.467   7.026 -0.3919 -0.1196 -0.9591
  217MOL0     H29888  10.836   0.584   7.094 -1.0634 -0.9460  0.8250
  217MOL0     H29889  10.743   0.347   6.926 -0.8704  0.4821 -0.1264
  217MOL0     H29890  10.646   0.490   6.970  1.0409  1.6635  0.6458
  217MOL0     H29891  10.669   0.518   6.757 -0.0101  1.2422 -0.9763
  217MOL0     H29892  10.830   0.476   6.761  1.1552  0.9321  1.2798
  217MOL0     H29893  10.876   0.692   6.881 -0.1982 -1.4945 -1.9884
  217MOL0     H29894  10.808   0.744   6.734  1.0462  3.2198  0.1875
  217MOL0     H29895  10.499   0.690   6.762 -2.7753  1.8471  0.0964
  217MOL0     H29896  10.286   0.736   6.873  0.2718  1.6021 -2.0460
  217MOL0     H29897  10.256   0.887   6.910 -3.3568 -3.9966 -2.2552
  217MOL0     H29898  10.148   0.728   7.085  0.2398 -1.1463  0.6729
  217MOL0     H29899  10.302   0.660   7.112 -1.0397 -0.2295  0.5843
  217MOL0     H29900  10.354   0.843   7.276  2.1483  2.8515 -1.5956
  217MOL0     H29901  10.235   0.953   7.195 -1.3307 -1.1618 -2.1362
  217MOL0     H29902  10.112   0.718   7.324 -3.2883  1.1081 -0.1591
  217MOL0     H29903  10.171   0.836   7.433 -2.0543 -2.3667  1.1293
  217MOL0     H29904   9.797   0.978   7.229 -4.0187  1.4535  0.9156
  217MOL0     H29905   9.470   0.909   7.262 -0.5717  0.8052 -1.2221
  217MOL0     H29906   9.552   0.807   7.132 -0.6105 -2.1930  1.6822
  217MOL0     H29907   9.576   0.980   7.150 -4.5608 -0.5189 -2.4097
  217MOL0     H29908   9.241   0.690   7.466  0.4706  0.2789 -1.1200
  217MOL0     H29909   9.035   0.527   7.500  2.7475 -0.2977  1.8852
  217MOL0     H29910   8.998   0.202   7.535 -1.8802  1.4972  2.7089
  217MOL0     H29911   8.914   0.347   7.537  2.4200  1.3646 -0.2497
  217MOL0     H29912   8.750   0.164   7.556 -0.7104 -2.2112 -0.6765
  217MOL0     H29913   8.725   0.222   7.395  1.0100  3.7080  3.2106
  217MOL0     H29914   8.930   0.004   7.460 -0.6518 -0.7518 -1.1319
  217MOL0     H29915   8.865   0.050   7.297 -0.9721 -1.1471 -0.1984
  217MOL0     H29916   8.687  -0.066   7.505  2.4824  2.1014  0.1975
  217MOL0     H29917   8.793  -0.170   7.408  1.0776 -0.5808 -1.0633
  217MOL0     H29918   8.631   0.034   7.248 -2.1163 -0.7470 -1.3021
  217MOL0     H29919   8.661  -0.127   7.206  1.9802  0.4779 -0.1838
  217MOL0     H29920   8.465  -0.045   7.419  2.3048 -0.3871  1.6533
  217MOL0     H29921   8.507  -0.219   7.383  3.6712 -0.1650 -1.6442
  217MOL0     H29922   8.405  -0.216   7.172  0.6053 -1.2402  2.5482
  217MOL0     H29923   8.442  -0.044   7.144  0.2856 -1.5364 -0.6081
  217MOL0     H29924   8.274   0.010   7.324 -1.4357 -2.8066  2.3776
  217MOL0     H29925   8.235  -0.157   7.359 -4.6824 -0.5162 -2.1073
  217MOL0     H29926   9.141   0.317   7.149  3.4863  0.0616 -1.8021
  217MOL0     H29927   9.349   0.462   7.131  1.9773  1.9595  1.4871
  217MOL0     H29928   9.749   0.596   7.528  0.7555  0.4146  0.6107
  217MOL0     H29929   9.953   0.713   7.525 -0.1455  1.1544  1.5800
  217MOL0     H29930  10.927   0.381   7.729  1.3011  0.4228  1.9071
  217MOL0     H29931  10.876   0.476   7.969 -0.4542  2.7694  0.3380
  217MOL0     H29932  10.710   0.898   8.023 -2.5846 -1.0837 -1.6311
  217MOL0     H29933  10.675   1.080   8.218  1.4342 -0.4725  0.2581
  217MOL0     H29934  10.427   0.996   8.542 -2.0540  0.2263  0.8521
  217MOL0     H29935  10.591   1.012   8.606 -0.5556 -0.2272  0.0481
  217MOL0     H29936  10.403   1.189   8.699 -0.5081 -1.2232 -0.9709
  217MOL0     H29937  10.384   1.253   8.536  1.8935  3.4691 -0.7268
  217MOL0     H29938  10.524   1.382   8.677  0.5298  0.5245  0.5249
  217MOL0     H29939  10.659   1.254   8.674  1.3811 -0.4541 -1.4787
  217MOL0     H29940  10.566   1.454   8.473  1.1532  1.5393  1.9169
  217MOL0     H29941  10.644   1.310   8.417 -0.1109 -0.8384  0.5102
  217MOL0     H29942  10.959   1.525   8.629 -0.2811  1.2678  1.6544
  217MOL0     H29943  10.466   0.817   8.454  1.3394 -0.9173  1.0483
  217MOL0     H29944  10.456   0.567   8.223  1.5805  0.7177 -0.0982
  217MOL0     H29945  10.574   0.525   8.349  1.5575  1.9546 -2.4079
  217MOL0     H29946  10.411   0.588   8.391  0.5082  1.1935  1.1577
  218MOL0     O29947   6.419   7.223  10.782 -0.1292  0.2921 -0.0619
  218MOL0     C29948   6.504   7.317  10.816  0.9835  1.0826  0.6104
  218MOL0     O29949   6.474   7.429  10.882 -0.1036  0.2037 -0.7574
  218MOL0     C29950   6.348   7.424  10.932  0.4663  0.6577  0.8476
  218MOL0     C29951   6.327   7.412  11.072 -0.4983 -0.2896 -0.1175
  218MOL0     C29952   6.199   7.384  11.118 -0.2253  0.0175  0.2786
  218MOL0     C29953   6.092   7.387  11.041  0.0769  0.1989  0.1037
  218MOL0     O29954   5.976   7.363  11.099  1.1243  0.2915 -0.1820
  218MOL0     C29955   5.846   7.367  11.035  0.5104 -0.5471 -0.3446
  218MOL0     C29956   5.745   7.313  11.141 -0.1381 -0.1145 -0.3441
  218MOL0     C29957   5.751   7.387  11.272 -0.4870 -1.2634  0.0628
  218MOL0     C29958   5.643   7.353  11.361 -0.2161 -0.1363  0.4309
  218MOL0     C29959   5.612   7.456  11.474 -0.7597 -1.1237  0.1998
  218MOL0     C29960   5.720   7.495  11.572  0.1688 -0.2833  0.6868
  218MOL0     C29961   5.712   7.633  11.646 -0.2276 -0.0011  0.6004
  218MOL0     C29962   5.797   7.642  11.770 -0.3225 -0.3233 -0.6615
  218MOL0     N29963   5.759   7.541  11.864  0.8371 -0.2760 -0.0883
  218MOL0     C29964   5.675   7.561  11.972 -0.4697 -0.4361  0.2258
  218MOL0     C29965   5.690   7.449  12.047 -0.9912  0.9094 -0.5693
  218MOL0     C29966   5.639   7.426  12.186  0.5638 -0.7697 -0.5515
  218MOL0     C29967   5.543   7.305  12.199  0.0308  0.4218  0.5226
  218MOL0     C29968   5.500   7.263  12.337  1.0337 -0.3134 -0.1300
  218MOL0     C29969   5.385   7.359  12.388 -0.4089 -0.1262 -0.8944
  218MOL0     O29970   5.454   7.471  12.446 -0.5651  0.3746  0.8160
  218MOL0     C29971   5.393   7.582  12.488 -0.0605  0.2188  1.4572
  218MOL0     C29972   5.249   7.604  12.495 -0.3230  0.9548 -0.0066
  218MOL0     C29973   5.199   7.728  12.531 -0.0525 -0.2552 -0.1068
  218MOL0     C29974   5.056   7.734  12.547 -0.0798 -0.5306  0.0974
  218MOL0     C29975   5.278   7.835  12.563 -0.8551  0.0798 -0.3979
  218MOL0     C29976   5.236   7.974  12.607  1.1805 -0.5530 -0.2501
  218MOL0     O29977   5.123   8.023  12.558 -0.1747  0.2599  0.0667
  218MOL0     C29978   5.102   8.158  12.585 -0.1751 -0.1788 -0.3586
  218MOL0     C29979   5.127   8.254  12.491 -1.0286  0.0621 -0.2059
  218MOL0     C29980   5.096   8.386  12.525 -0.7174  0.4131 -0.1438
  218MOL0     C29981   5.039   8.425  12.640 -0.1325 -1.6085 -0.3675
  218MOL0     O29982   5.000   8.554  12.660 -0.5799 -0.2826 -0.0446
  218MOL0     C29983   5.003   8.610  12.792  0.2970 -0.2961 -0.1973
  218MOL0     C29984   4.964   8.752  12.790  0.0909  0.4773  0.2931
  218MOL0     C29985   4.950   8.797  12.937  0.6362  0.3518 -0.3820
  218MOL0     C29986   4.863   8.919  12.948 -0.3576 -0.1621 -0.3961
  218MOL0     C29987   4.858   8.979  13.093 -0.4341  0.0901 -1.1044
  218MOL0     C29988   4.807   9.122  13.090 -0.2005 -0.8605 -0.9964
  218MOL0     C29989   4.925   9.220  13.060 -0.8479  0.1995 -0.0370
  218MOL0     C29990   4.883   9.352  13.003  0.5273 -0.2319  0.2210
  218MOL0    Cl29991   4.803   9.448  13.126  0.0661 -0.1161 -0.2978
  218MOL0     C29992   5.012   8.324  12.738 -0.0998  0.1940  0.7297
  218MOL0     C29993   5.047   8.194  12.702  1.0620 -0.3522 -0.4992
  218MOL0     O29994   5.303   8.025  12.693 -0.4814  0.1974  0.0643
  218MOL0     C29995   5.422   7.811  12.554 -0.1033 -0.3018  0.3647
  218MOL0     C29996   5.475   7.687  12.532 -0.2524  1.2778  0.5126
  218MOL0     N29997   5.770   7.354  11.979  0.6075  0.2170  0.5197
  218MOL0     N29998   5.799   7.418  11.863  0.0644 -0.0582 -0.5182
  218MOL0     C29999   6.106   7.416  10.902  0.4239  0.4356  0.2837
  218MOL0     C30000   6.234   7.428  10.846  0.7030 -0.3052  0.5345
  218MOL0     C30001   6.641   7.293  10.780  0.4136 -0.2463 -0.1415
  218MOL0     C30002   6.736   7.382  10.816 -0.5277  0.3339  0.2737
  218MOL0     C30003   6.875   7.366  10.786 -0.3576 -0.4725 -0.1998
  218MOL0     C30004   6.915   7.250  10.725  0.1911  0.0667  0.2638
  218MOL0     O30005   7.053   7.246  10.704 -0.7369 -0.7236  0.6081
  218MOL0     C30006   7.113   7.118  10.662  0.8647 -0.4883  0.0594
  218MOL0     C30007   7.135   7.113  10.511 -0.5791 -0.1030  0.9339
  218MOL0     C30008   7.255   7.200  10.459 -0.0185 -0.6368 -0.4801
  218MOL0     C30009   7.266   7.193  10.306  0.1187 -0.3217 -0.1440
  218MOL0     C30010   7.371   7.291  10.267  0.4780 -0.4040  1.6954
  218MOL0     C30011   7.449   7.378  10.234 -0.1614 -0.2350 -0.0159
  218MOL0     C30012   6.826   7.151  10.697 -1.1560  1.2278 -1.4074
  218MOL0     C30013   6.695   7.171  10.720 -0.0776  0.2110 -0.5137
  218MOL0     C30014   6.607   7.050  10.672  0.7699 -0.0276 -0.8037
  218MOL0     H30015   6.406   7.413  11.146  1.1602  0.4815 -1.8060
  218MOL0     H30016   6.188   7.356  11.222 -0.0082 -1.4304 -0.0745
  218MOL0     H30017   5.826   7.299  10.950 -2.8627 -0.9227  0.5770
  218MOL0     H30018   5.833   7.471  11.006  3.7781  0.4695  1.4503
  218MOL0     H30019   5.647   7.331  11.096 -0.1416 -0.2833 -0.4049
  218MOL0     H30020   5.763   7.206  11.153  0.9395  0.0113 -0.7715
  218MOL0     H30021   5.850   7.371  11.315 -1.1852 -2.2806  1.3329
  218MOL0     H30022   5.743   7.495  11.255  0.1026 -0.8579  2.1496
  218MOL0     H30023   5.556   7.340  11.296  1.8749  1.5687 -3.0157
  218MOL0     H30024   5.663   7.251  11.396 -1.6235 -1.7071 -2.9581
  218MOL0     H30025   5.520   7.429  11.527 -0.8877  0.7035  0.9727
  218MOL0     H30026   5.598   7.549  11.420  1.0085 -1.7445 -1.4315
  218MOL0     H30027   5.720   7.409  11.639 -1.3367 -1.5128 -0.8201
  218MOL0     H30028   5.816   7.503  11.520 -0.1413 -0.9163 -0.0016
  218MOL0     H30029   5.606   7.653  11.668 -0.6135  0.4299 -1.5040
  218MOL0     H30030   5.742   7.713  11.578 -3.7509 -0.2550 -1.5111
  218MOL0     H30031   5.895   7.630  11.724  0.2110 -2.2982  0.8315
  218MOL0     H30032   5.777   7.736  11.823 -0.1669 -1.3110  1.2539
  218MOL0     H30033   5.629   7.652  12.010 -2.8297 -2.1349  1.7106
  218MOL0     H30034   5.591   7.520  12.217 -1.2783 -1.6132 -0.6956
  218MOL0     H30035   5.723   7.415  12.255  1.2705 -2.2606 -1.5866
  218MOL0     H30036   5.462   7.338  12.134  2.4598  2.1997 -1.8449
  218MOL0     H30037   5.589   7.221  12.145 -0.8335 -0.0306  0.4786
  218MOL0     H30038   5.461   7.162  12.322 -1.7990  0.6546  0.0062
  218MOL0     H30039   5.589   7.253  12.399  1.2926 -2.4052 -0.7623
  218MOL0     H30040   5.307   7.391  12.318 -0.9796 -0.1297 -0.2816
  218MOL0     H30041   5.340   7.306  12.472  2.4047 -0.4692  0.5019
  218MOL0     H30042   5.194   7.516  12.463 -1.6403  1.8358 -0.2497
  218MOL0     H30043   4.994   7.661  12.494 -2.4890  1.4792 -0.0471
  218MOL0     H30044   5.018   7.825  12.500 -1.3118 -1.5417 -0.9802
  218MOL0     H30045   5.032   7.731  12.654  1.1802 -2.4339  0.3711
  218MOL0     H30046   5.173   8.237  12.395  0.3848  0.5165  0.3672
  218MOL0     H30047   5.120   8.459  12.447  3.3144  0.7676  1.1925
  218MOL0     H30048   4.919   8.556  12.838 -2.5095  2.1683 -2.0067
  218MOL0     H30049   5.089   8.596  12.858 -0.9456  2.8382  2.3288
  218MOL0     H30050   5.045   8.808  12.743  0.7917 -1.3906 -0.8075
  218MOL0     H30051   4.868   8.763  12.739 -0.1198  2.3016  1.0017
  218MOL0     H30052   5.053   8.803  12.973  0.4702 -1.6145  0.5356
  218MOL0     H30053   4.901   8.718  12.995 -0.3242  1.7731  0.7981
  218MOL0     H30054   4.763   8.889  12.914 -1.1136  2.8878 -1.1780
  218MOL0     H30055   4.906   8.992  12.878  0.4094 -0.8689 -0.6808
  218MOL0     H30056   4.791   8.914  13.150 -0.3528  0.7071 -0.2817
  218MOL0     H30057   4.954   8.975  13.145 -1.9493  1.0711  2.0222
  218MOL0     H30058   4.784   9.161  13.190 -0.8436 -1.0081 -1.0852
  218MOL0     H30059   4.724   9.132  13.019 -0.0013  3.3200 -0.8633
  218MOL0     H30060   4.991   9.183  12.981  0.2848  2.3087 -0.1505
  218MOL0     H30061   4.987   9.224  13.150  2.5736 -0.3993 -2.1744
  218MOL0     H30062   4.806   9.340  12.926 -1.9330  2.3460  2.0606
  218MOL0     H30063   4.971   9.410  12.972 -1.2017  2.3211 -0.2195
  218MOL0     H30064   4.970   8.339  12.837 -1.5780  1.0656  0.0170
  218MOL0     H30065   5.033   8.112  12.771 -0.3039  0.8800  0.7627
  218MOL0     H30066   5.487   7.896  12.572 -3.5300  2.2478  1.6443
  218MOL0     H30067   5.583   7.683  12.541 -0.2185  0.6199 -0.0609
  218MOL0     H30068   6.019   7.414  10.837  1.1681  0.7666 -0.7352
  218MOL0     H30069   6.243   7.439  10.738 -2.3547  2.7177  0.4002
  218MOL0     H30070   6.703   7.481  10.845  0.7126  1.1091 -0.8124
  218MOL0     H30071   6.944   7.450  10.794  1.3838 -1.6751 -1.6970
  218MOL0     H30072   7.202   7.101  10.723 -1.1880  0.3050  3.6014
  218MOL0     H30073   7.047   7.033  10.684  1.0174 -0.0262  2.6105
  218MOL0     H30074   7.046   7.145  10.457 -0.0063  0.6663  0.4222
  218MOL0     H30075   7.151   7.008  10.485 -0.2122  0.2139 -0.1739
  218MOL0     H30076   7.254   7.304  10.495 -0.7414 -0.5015 -0.8776
  218MOL0     H30077   7.340   7.160  10.516 -0.2814 -0.6074 -0.0678
  218MOL0     H30078   7.172   7.219  10.257 -2.6593 -5.2360  1.8772
  218MOL0     H30079   7.280   7.097  10.256 -1.5260  0.2931 -1.9163
  218MOL0     H30080   7.519   7.454  10.207 -2.3073  1.6242 -0.6047
  218MOL0     H30081   6.848   7.064  10.636  0.3446  0.2979  0.3735
  218MOL0     H30082   6.664   6.969  10.626  0.0342 -0.9193 -0.1865
  218MOL0     H30083   6.559   7.011  10.763  1.5098 -0.2734 -0.5109
  218MOL0     H30084   6.523   7.075  10.606 -1.3426 -0.8193  1.4128
  219MOL0     O30085   1.205   8.103   0.222  0.1119  0.5998 -0.1784
  219MOL0     C30086   1.300   8.045   0.163 -0.9139 -0.0908 -0.6284
  219MOL0     O30087   1.342   7.916   0.190 -0.0630  0.0229 -0.0468
  219MOL0     C30088   1.293   7.856   0.301  0.2660  0.7568 -0.1851
  219MOL0     C30089   1.210   7.748   0.291  0.3816  0.6131  0.2457
  219MOL0     C30090   1.167   7.684   0.404 -0.3042  0.4876 -0.5243
  219MOL0     C30091   1.209   7.723   0.526 -0.2744 -0.0158  0.3059
  219MOL0     O30092   1.148   7.657   0.628 -0.4045 -1.1328  0.6822
  219MOL0     C30093   1.195   7.683   0.757 -0.0391 -0.3208  0.4151
  219MOL0     C30094   1.107   7.604   0.857 -0.2142 -0.4434  0.5502
  219MOL0     C30095   1.115   7.448   0.866  0.2409 -0.2850 -0.0290
  219MOL0     C30096   1.237   7.395   0.942 -0.3491 -0.3347 -0.7153
  219MOL0     C30097   1.230   7.275   1.040  0.4768  1.0561 -0.0822
  219MOL0     C30098   1.163   7.158   0.959 -0.5750 -0.2431 -0.0984
  219MOL0     C30099   1.201   7.025   1.023  0.3340  0.2031  0.5746
  219MOL0     C30100   1.099   6.932   0.958  0.3154  0.0909  0.2240
  219MOL0     N30101   1.151   6.801   0.983 -0.1170  0.8259  0.2798
  219MOL0     C30102   1.240   6.744   0.891 -0.4085 -0.2381  0.1584
  219MOL0     C30103   1.258   6.616   0.924  0.8276  1.0126  0.6649
  219MOL0     C30104   1.356   6.508   0.859  0.7681  0.6941  0.2417
  219MOL0     C30105   1.471   6.577   0.789  0.0745 -0.3883  0.2842
  219MOL0     C30106   1.565   6.667   0.883 -0.0126  0.4937 -0.5915
  219MOL0     C30107   1.700   6.713   0.836  0.2283 -0.1730  0.6427
  219MOL0     O30108   1.771   6.613   0.765 -0.2067 -0.7730 -0.2276
  219MOL0     C30109   1.810   6.660   0.642 -0.0842  0.0506 -0.3616
  219MOL0     C30110   1.946   6.647   0.619 -0.4820  0.1369 -0.0704
  219MOL0     C30111   2.000   6.705   0.502 -0.4701  0.0740  0.5456
  219MOL0     C30112   2.152   6.703   0.486  0.7944  0.2565 -0.0937
  219MOL0     C30113   1.920   6.772   0.404  0.2323 -0.5964  0.2844
  219MOL0     C30114   1.943   6.821   0.260  1.0797 -1.1745 -0.4047
  219MOL0     O30115   1.847   6.903   0.192  0.5886  0.1077 -0.1672
  219MOL0     C30116   1.880   6.952   0.069 -0.1072  0.3222  0.1431
  219MOL0     C30117   1.893   6.864  -0.041 -0.1254  0.0731  0.1219
  219MOL0     C30118   1.926   6.916  -0.170  1.1815  0.4893 -0.1021
  219MOL0     C30119   1.939   7.050  -0.183  0.4888 -1.0764  0.1235
  219MOL0     O30120   1.988   7.115  -0.293  0.6654  0.2921 -0.3540
  219MOL0     C30121   1.985   7.038  -0.410 -0.4863  0.9442  0.2316
  219MOL0     C30122   2.031   7.130  -0.513  0.0175  0.4249 -0.1275
  219MOL0     C30123   1.920   7.177  -0.597 -0.8275 -0.1455 -0.8752
  219MOL0     C30124   1.971   7.299  -0.678 -1.1120  0.1345 -0.7861
  219MOL0     C30125   1.888   7.342  -0.797 -0.0725  0.6774 -0.8769
  219MOL0     C30126   1.747   7.399  -0.766 -0.1314  0.0407  0.5129
  219MOL0     C30127   1.676   7.437  -0.890 -0.4307  0.2894  0.7958
  219MOL0     C30128   1.529   7.458  -0.873 -0.1601  0.6148 -0.4777
  219MOL0    Cl30129   1.462   7.540  -1.012 -0.1370  0.0170  0.2445
  219MOL0     C30130   1.912   7.137  -0.079  0.5081 -0.0633  0.4242
  219MOL0     C30131   1.880   7.086   0.045  0.3167 -0.0028 -0.7871
  219MOL0     O30132   2.057   6.803   0.216  0.1108  0.0234 -0.6537
  219MOL0     C30133   1.780   6.781   0.432 -0.1955 -0.1175 -0.6847
  219MOL0     C30134   1.727   6.728   0.540  0.2507  0.3405 -0.1139
  219MOL0     N30135   1.173   6.593   1.041  0.0436  0.2895  0.2059
  219MOL0     N30136   1.117   6.700   1.071  0.2761  0.2982  0.5292
  219MOL0     C30137   1.304   7.828   0.541 -0.1512  0.1183 -0.2212
  219MOL0     C30138   1.343   7.891   0.424 -0.0734  0.4014  0.0859
  219MOL0     C30139   1.377   8.117   0.064 -0.0694 -0.2723 -0.0045
  219MOL0     C30140   1.488   8.056   0.001 -0.2270  0.3308 -0.6404
  219MOL0     C30141   1.571   8.119  -0.083 -0.3718 -0.4950  0.4606
  219MOL0     C30142   1.554   8.257  -0.117 -0.4169  0.4043 -0.4259
  219MOL0     O30143   1.626   8.326  -0.207 -0.3710 -0.0915  0.6835
  219MOL0     C30144   1.758   8.272  -0.260  0.2171  0.8952 -0.0144
  219MOL0     C30145   1.823   8.374  -0.354 -0.6436  0.3202 -0.0693
  219MOL0     C30146   1.823   8.511  -0.291 -0.1186 -0.4897 -0.0211
  219MOL0     C30147   1.872   8.610  -0.400 -0.9846 -0.3755  0.5739
  219MOL0     C30148   1.916   8.747  -0.345  0.0260 -0.4342  0.3141
  219MOL0     C30149   1.949   8.857  -0.329 -0.7396  0.6141 -0.5122
  219MOL0     C30150   1.445   8.319  -0.061 -0.6304 -0.2690  0.0552
  219MOL0     C30151   1.364   8.264   0.041 -0.2663  0.3586  0.1894
  219MOL0     C30152   1.257   8.356   0.105  0.3214  1.1536 -0.7759
  219MOL0     H30153   1.153   7.730   0.200  0.2490  2.0729  0.0133
  219MOL0     H30154   1.095   7.604   0.405  0.1386  0.0686  1.4862
  219MOL0     H30155   1.191   7.792   0.770 -2.2596 -0.1514 -1.0938
  219MOL0     H30156   1.301   7.656   0.761  0.5177  1.3416 -1.5197
  219MOL0     H30157   1.132   7.643   0.956  2.6757 -0.5786 -0.0556
  219MOL0     H30158   1.000   7.625   0.842  0.0891  1.1482  0.4326
  219MOL0     H30159   1.030   7.397   0.913 -0.0561  0.4177  0.2148
  219MOL0     H30160   1.114   7.409   0.764 -0.0928 -0.1243 -0.0903
  219MOL0     H30161   1.322   7.383   0.875 -0.2202 -0.7336 -0.4826
  219MOL0     H30162   1.267   7.480   1.003  0.0483 -1.5985  0.9038
  219MOL0     H30163   1.165   7.286   1.127 -2.4122  1.5626 -2.1691
  219MOL0     H30164   1.333   7.253   1.070  0.0021 -0.8172  0.3066
  219MOL0     H30165   1.055   7.175   0.969 -0.7400  2.6565 -4.4070
  219MOL0     H30166   1.199   7.153   0.856 -0.1101  0.6262  0.0129
  219MOL0     H30167   1.196   7.019   1.132 -0.1773  0.1615  0.5472
  219MOL0     H30168   1.306   6.998   1.004  0.5606 -1.1639  3.3637
  219MOL0     H30169   1.004   6.942   1.010 -0.9055  0.7008 -1.9968
  219MOL0     H30170   1.101   6.951   0.850  1.1107 -3.3104 -0.4950
  219MOL0     H30171   1.291   6.799   0.812  0.1539  1.8274  1.8698
  219MOL0     H30172   1.313   6.427   0.800  4.4082 -1.9634  0.8821
  219MOL0     H30173   1.407   6.457   0.942  1.9621 -2.6876 -2.3480
  219MOL0     H30174   1.541   6.504   0.748  0.9715  1.3727 -1.5064
  219MOL0     H30175   1.450   6.640   0.702 -1.7305 -0.4597  0.6325
  219MOL0     H30176   1.519   6.765   0.897  2.2452  1.3616  1.8751
  219MOL0     H30177   1.576   6.615   0.979 -0.8038 -0.2664 -0.8972
  219MOL0     H30178   1.675   6.802   0.778  0.6745 -1.0734 -1.0092
  219MOL0     H30179   1.762   6.743   0.921  0.5586  1.5461 -0.1649
  219MOL0     H30180   2.006   6.578   0.677 -0.9194  0.2941  0.5838
  219MOL0     H30181   2.180   6.702   0.381 -0.2798 -1.8238 -0.4136
  219MOL0     H30182   2.184   6.603   0.516 -0.2921 -0.6836 -1.8943
  219MOL0     H30183   2.207   6.774   0.549  0.8792 -1.6122  2.0732
  219MOL0     H30184   1.888   6.757  -0.023  1.2229  0.0038  0.2151
  219MOL0     H30185   1.939   6.846  -0.252 -0.3841 -0.8784  0.7499
  219MOL0     H30186   2.058   6.957  -0.411 -1.8730 -0.3533 -1.1845
  219MOL0     H30187   1.890   6.985  -0.419 -1.1297  1.1175  4.1049
  219MOL0     H30188   2.078   7.213  -0.460 -4.9370  2.5410  1.5266
  219MOL0     H30189   2.096   7.060  -0.567  0.9316 -1.0031  2.6099
  219MOL0     H30190   1.844   7.211  -0.526  0.5937  5.0505 -1.4058
  219MOL0     H30191   1.880   7.096  -0.658  1.7025 -0.0195 -2.8765
  219MOL0     H30192   2.073   7.292  -0.718 -0.9087 -0.5472 -0.1596
  219MOL0     H30193   1.989   7.383  -0.610  3.1259 -0.1609 -1.2600
  219MOL0     H30194   1.957   7.408  -0.853  1.0700  3.2645  3.1657
  219MOL0     H30195   1.876   7.250  -0.855 -0.5065 -0.7922  1.4232
  219MOL0     H30196   1.751   7.481  -0.694  0.2112  0.6874 -0.2292
  219MOL0     H30197   1.697   7.319  -0.710 -2.0069  0.8999  0.1216
  219MOL0     H30198   1.698   7.382  -0.982 -0.7448 -1.2112  1.5745
  219MOL0     H30199   1.714   7.538  -0.907  2.3963 -0.9479 -0.8223
  219MOL0     H30200   1.509   7.521  -0.785  0.4190  0.6583 -0.3786
  219MOL0     H30201   1.484   7.360  -0.854  3.9622 -0.8294  3.7201
  219MOL0     H30202   1.911   7.245  -0.089 -1.7891  0.0573  1.3123
  219MOL0     H30203   1.856   7.144   0.134  1.0639  0.2829 -0.7606
  219MOL0     H30204   1.711   6.826   0.361  1.4312  1.9318 -1.0430
  219MOL0     H30205   1.620   6.733   0.559 -0.5653 -3.1300 -2.8576
  219MOL0     H30206   1.343   7.849   0.640 -0.4748 -3.2270  0.7382
  219MOL0     H30207   1.410   7.976   0.413 -1.3438  1.0811 -4.2001
  219MOL0     H30208   1.492   7.949   0.019 -1.3065  0.4617  0.5708
  219MOL0     H30209   1.652   8.056  -0.118 -1.5921 -1.8924  0.0814
  219MOL0     H30210   1.821   8.261  -0.171 -0.3533  2.5230  0.6356
  219MOL0     H30211   1.756   8.176  -0.312 -0.3135  0.3618  0.9704
  219MOL0     H30212   1.758   8.377  -0.442 -1.7458  2.1893  0.7599
  219MOL0     H30213   1.924   8.345  -0.384 -1.3091  0.3507 -2.6014
  219MOL0     H30214   1.727   8.546  -0.252  0.5623  0.4462  0.8713
  219MOL0     H30215   1.896   8.515  -0.210  1.0753  2.2352 -1.0979
  219MOL0     H30216   1.800   8.635  -0.479  0.4533  2.3969 -0.0060
  219MOL0     H30217   1.961   8.571  -0.450 -0.2340  2.3295 -0.4090
  219MOL0     H30218   1.978   8.956  -0.299 -2.2237  0.3469  2.1515
  219MOL0     H30219   1.444   8.426  -0.078 -0.6676 -0.4346 -1.0648
  219MOL0     H30220   1.243   8.354   0.214  3.8460  0.2163 -0.2326
  219MOL0     H30221   1.281   8.457   0.072 -1.5277  1.2068 -2.1183
  219MOL0     H30222   1.162   8.325   0.060 -1.2635  1.6289  2.0398
  220MOL0     O30223   5.469   9.792   2.748 -0.6139  0.7504  0.5719
  220MOL0     C30224   5.514   9.709   2.829  0.7099  0.3028 -0.2619
  220MOL0     O30225   5.619   9.746   2.917 -0.2039 -0.0839  0.6236
  220MOL0     C30226   5.701   9.856   2.894 -0.2120 -0.6355 -0.4461
  220MOL0     C30227   5.788   9.848   2.784  0.7919 -0.3469  0.0079
  220MOL0     C30228   5.889   9.933   2.758  0.4166 -1.2844 -0.5387
  220MOL0     C30229   5.910  10.045   2.844  0.7157 -0.7845 -0.2865
  220MOL0     O30230   6.008  10.141   2.827 -0.1017  0.6125  0.1241
  220MOL0     C30231   6.032  10.191   2.693 -0.0264  0.4629 -0.0915
  220MOL0     C30232   6.175  10.174   2.664  0.3238 -0.2231  0.1952
  220MOL0     C30233   6.266  10.275   2.739 -0.1871  0.1214 -0.4725
  220MOL0     C30234   6.227  10.421   2.721  0.0973 -0.3549 -0.4504
  220MOL0     C30235   6.346  10.512   2.755 -0.8276 -0.5518 -0.7993
  220MOL0     C30236   6.303  10.653   2.763  0.0218  0.1247  0.6121
  220MOL0     C30237   6.407  10.736   2.843 -0.1744  0.4204  0.8583
  220MOL0     C30238   6.420  10.867   2.778 -0.2062  0.8433 -0.0277
  220MOL0     N30239   6.305  10.947   2.737 -0.9337  0.5741  0.1907
  220MOL0     C30240   6.303  10.996   2.607  0.3298  0.7570 -0.1221
  220MOL0     C30241   6.208  11.093   2.615  0.0787  0.9619  0.3185
  220MOL0     C30242   6.171  11.176   2.497  0.8140  0.5165  0.6561
  220MOL0     C30243   6.181  11.319   2.549  1.1191 -0.7473 -0.2668
  220MOL0     C30244   6.138  11.414   2.438 -0.3788  0.6915  0.0033
  220MOL0     C30245   5.980  11.450   2.444 -0.4308  0.6475  0.2977
  220MOL0     O30246   5.938  11.500   2.573 -0.0933 -0.3115 -0.0658
  220MOL0     C30247   5.808  11.549   2.574  0.9625 -0.9817  0.2520
  220MOL0     C30248   5.771  11.618   2.684 -0.2530 -0.0018  0.4618
  220MOL0     C30249   5.644  11.678   2.718  0.6623  0.1244 -0.7417
  220MOL0     C30250   5.639  11.743   2.851 -0.1523  0.9236 -0.0572
  220MOL0     C30251   5.541  11.661   2.617 -0.0803 -0.0803 -0.5539
  220MOL0     C30252   5.406  11.714   2.638 -0.0724  0.0401  0.4949
  220MOL0     O30253   5.333  11.726   2.520 -0.8226 -0.7189 -0.2638
  220MOL0     C30254   5.195  11.742   2.510  0.1365 -0.8213  0.8991
  220MOL0     C30255   5.100  11.762   2.605 -0.3984 -0.1516 -0.1714
  220MOL0     C30256   4.970  11.784   2.573 -0.2521 -0.3781 -0.4667
  220MOL0     C30257   4.922  11.781   2.444 -0.9809 -0.1975  0.1931
  220MOL0     O30258   4.792  11.797   2.394  0.6505  0.1927 -0.1475
  220MOL0     C30259   4.682  11.853   2.471  0.4758 -0.0819  0.4095
  220MOL0     C30260   4.542  11.834   2.401 -0.4388 -0.7617 -0.3224
  220MOL0     C30261   4.507  11.682   2.385  0.2559 -0.3587 -0.0248
  220MOL0     C30262   4.484  11.629   2.244  0.0578 -0.7154  0.4170
  220MOL0     C30263   4.450  11.479   2.220  0.3115  0.1845  0.0486
  220MOL0     C30264   4.452  11.433   2.071  0.5406  0.0045  0.2288
  220MOL0     C30265   4.390  11.296   2.035 -0.4152  0.8558  0.4707
  220MOL0     C30266   4.493  11.184   2.089 -0.0668  0.2354  0.3718
  220MOL0    Cl30267   4.654  11.195   2.001 -0.1601 -0.3580  0.3126
  220MOL0     C30268   5.021  11.764   2.341 -0.7519 -0.5488  0.0419
  220MOL0     C30269   5.159  11.753   2.377 -0.5381 -0.5128 -0.5080
  220MOL0     O30270   5.370  11.750   2.750 -1.4961 -0.3974 -0.6921
  220MOL0     C30271   5.578  11.604   2.494  0.3874  0.8642 -0.6814
  220MOL0     C30272   5.706  11.542   2.477 -0.0897 -1.1934 -0.4287
  220MOL0     N30273   6.155  11.092   2.739  0.4379 -0.2054 -0.5340
  220MOL0     N30274   6.210  11.008   2.818  0.2545 -0.5063 -0.7372
  220MOL0     C30275   5.823  10.053   2.962  0.1983 -0.0440  0.0160
  220MOL0     C30276   5.732   9.952   2.993  0.7283 -0.3438  0.1779
  220MOL0     C30277   5.455   9.579   2.836  0.3741 -0.1313 -0.1558
  220MOL0     C30278   5.479   9.509   2.957  0.3527 -0.0327 -0.5307
  220MOL0     C30279   5.440   9.377   2.972  0.5971 -0.6760 -0.8077
  220MOL0     C30280   5.343   9.322   2.885  0.5562 -0.4535 -0.0667
  220MOL0     O30281   5.273   9.213   2.918 -0.0354 -0.1810  0.2373
  220MOL0     C30282   5.150   9.185   2.848  0.1820  0.6078  0.0260
  220MOL0     C30283   5.092   9.060   2.913  0.0775  0.4647 -0.2369
  220MOL0     C30284   4.978   8.986   2.837 -0.1526  0.2073 -0.8062
  220MOL0     C30285   4.834   9.025   2.880 -0.1100 -1.0364  1.5961
  220MOL0     C30286   4.731   8.954   2.803 -0.1452  0.9164 -0.2227
  220MOL0     C30287   4.639   8.905   2.743 -0.0738  0.6534  0.0894
  220MOL0     C30288   5.333   9.388   2.758 -0.2386  0.2949 -0.3784
  220MOL0     C30289   5.383   9.511   2.735 -1.1784  0.1874  0.3349
  220MOL0     C30290   5.382   9.562   2.589 -0.8464  0.5085  0.6055
  220MOL0     H30291   5.775   9.760   2.722 -2.7042  0.8628 -1.2171
  220MOL0     H30292   5.952   9.902   2.676 -0.5741 -2.8755 -0.7411
  220MOL0     H30293   5.994  10.294   2.690 -1.0424  0.1341  0.6434
  220MOL0     H30294   5.975  10.136   2.618  0.5346 -0.2665  0.0102
  220MOL0     H30295   6.198  10.069   2.682  0.7753  0.1796  2.1559
  220MOL0     H30296   6.179  10.198   2.557 -2.8797 -1.8922 -0.4232
  220MOL0     H30297   6.279  10.255   2.846  1.1960  0.0760 -0.6381
  220MOL0     H30298   6.364  10.254   2.695  1.0957  1.2314  1.6907
  220MOL0     H30299   6.180  10.431   2.623 -1.7162  1.2912  0.5215
  220MOL0     H30300   6.152  10.442   2.798 -1.8157  0.1252 -2.3682
  220MOL0     H30301   6.436  10.501   2.694 -0.7202 -0.1008 -0.7219
  220MOL0     H30302   6.386  10.480   2.852 -0.2930  0.5447 -0.6473
  220MOL0     H30303   6.308  10.698   2.663 -0.1588  2.5753  1.6347
  220MOL0     H30304   6.204  10.667   2.809  0.5962  0.3157  1.8186
  220MOL0     H30305   6.505  10.690   2.829 -0.1008  0.9937 -0.7583
  220MOL0     H30306   6.375  10.735   2.947  1.0922  1.2811  1.2753
  220MOL0     H30307   6.463  10.938   2.848 -1.1010  0.6648  0.7204
  220MOL0     H30308   6.486  10.855   2.691  0.3474 -0.2649  0.5215
  220MOL0     H30309   6.372  10.970   2.527  2.7577  1.1528  1.7091
  220MOL0     H30310   6.064  11.163   2.480  1.1260 -0.6491 -0.6007
  220MOL0     H30311   6.233  11.158   2.409 -1.1621  1.1337 -0.9561
  220MOL0     H30312   6.099  11.326   2.622 -0.6370 -4.6807 -1.6276
  220MOL0     H30313   6.275  11.348   2.598  1.2838  0.4002 -1.2205
  220MOL0     H30314   6.213  11.493   2.450  3.4929 -2.8114  1.2646
  220MOL0     H30315   6.171  11.381   2.339  3.1165 -1.2837  1.6437
  220MOL0     H30316   5.960  11.524   2.366  0.5957 -1.2756 -1.9039
  220MOL0     H30317   5.924  11.361   2.414 -0.6411  0.8667  0.0323
  220MOL0     H30318   5.846  11.631   2.762  0.1408  0.7993 -0.0418
  220MOL0     H30319   5.743  11.774   2.862  1.2221 -1.9344 -3.1127
  220MOL0     H30320   5.609  11.669   2.926 -0.4543 -3.9290 -4.3723
  220MOL0     H30321   5.591  11.841   2.856  1.8617  1.9064  1.1965
  220MOL0     H30322   5.129  11.751   2.709 -1.3079 -2.4971 -0.0861
  220MOL0     H30323   4.910  11.798   2.663 -1.1301  1.4895 -1.2971
  220MOL0     H30324   4.681  11.798   2.566 -1.0635  1.9466  1.6416
  220MOL0     H30325   4.699  11.960   2.468 -2.8168  0.5332 -1.0650
  220MOL0     H30326   4.468  11.887   2.461  0.3702 -1.0191  0.9333
  220MOL0     H30327   4.542  11.877   2.300  1.8058 -1.7242 -0.7887
  220MOL0     H30328   4.415  11.665   2.443  0.9068 -0.2757  1.0585
  220MOL0     H30329   4.579  11.621   2.441 -0.0346 -0.2023  0.5326
  220MOL0     H30330   4.576  11.641   2.186 -0.0134 -1.9984  0.0195
  220MOL0     H30331   4.412  11.695   2.194 -0.1557 -1.6778 -0.5619
  220MOL0     H30332   4.510  11.413   2.283  0.5577 -0.8423 -1.2223
  220MOL0     H30333   4.351  11.451   2.257  0.2773 -3.2910 -2.1835
  220MOL0     H30334   4.557  11.421   2.040  1.3738  2.2086  1.9785
  220MOL0     H30335   4.402  11.512   2.015 -1.1898 -1.2801 -0.1254
  220MOL0     H30336   4.390  11.292   1.926  1.3457  2.8503  0.3221
  220MOL0     H30337   4.288  11.288   2.074 -1.3821  0.7056 -1.9276
  220MOL0     H30338   4.451  11.087   2.061  0.9124  0.1188 -0.7773
  220MOL0     H30339   4.498  11.190   2.198 -1.3993 -0.9620  0.5357
  220MOL0     H30340   5.000  11.766   2.234 -1.7257  3.0962  0.1807
  220MOL0     H30341   5.234  11.734   2.301  0.4658  3.6129 -0.8331
  220MOL0     H30342   5.500  11.585   2.421 -0.5477  2.5988 -0.1829
  220MOL0     H30343   5.720  11.495   2.380 -1.1805  1.6455 -2.0937
  220MOL0     H30344   5.828  10.143   3.024  1.1156  1.3791 -1.9985
  220MOL0     H30345   5.663   9.965   3.076 -0.7589  2.8325 -1.3765
  220MOL0     H30346   5.546   9.547   3.034  1.0153  0.0978 -1.1565
  220MOL0     H30347   5.467   9.334   3.068  1.9142 -0.4207 -1.0451
  220MOL0     H30348   5.087   9.274   2.860  2.1648  2.0958 -0.1526
  220MOL0     H30349   5.170   9.160   2.744 -2.3486  1.2040 -0.6910
  220MOL0     H30350   5.041   9.105   2.998  0.2873  2.0310 -0.9054
  220MOL0     H30351   5.170   8.990   2.947 -2.5474 -1.5706  2.0431
  220MOL0     H30352   4.989   8.999   2.728 -2.3854 -0.0838 -1.1094
  220MOL0     H30353   4.988   8.879   2.857 -1.2071  0.3253  0.4533
  220MOL0     H30354   4.815   9.130   2.859 -2.3434 -1.2982  2.0398
  220MOL0     H30355   4.827   9.008   2.988  0.2787 -0.7061  1.6765
  220MOL0     H30356   4.548   8.852   2.723 -0.1322 -1.1056  4.0049
  220MOL0     H30357   5.280   9.339   2.677  1.7022  1.4580 -2.4875
  220MOL0     H30358   5.327   9.654   2.566 -2.3763 -1.0113 -2.2487
  220MOL0     H30359   5.487   9.566   2.557 -0.3843 -1.0010  1.8084
  220MOL0     H30360   5.329   9.486   2.532 -0.8403  3.3606 -3.6287
  221MOL0     O30361   6.924   6.906   3.657  0.3856 -0.2345 -0.1505
  221MOL0     C30362   7.024   6.871   3.720  0.3155 -0.1210 -0.3550
  221MOL0     O30363   7.105   6.957   3.790  0.0571 -0.5611  0.1809
  221MOL0     C30364   7.043   7.067   3.846 -0.2514  0.0065 -0.0525
  221MOL0     C30365   6.948   7.046   3.946  0.1290 -0.0877 -0.5253
  221MOL0     C30366   6.878   7.146   4.008  0.1546 -0.3920 -0.4202
  221MOL0     C30367   6.919   7.281   3.990  1.4145  1.0663 -0.5640
  221MOL0     O30368   6.856   7.374   4.067 -0.3698 -0.0745 -0.2811
  221MOL0     C30369   6.832   7.504   4.004 -0.3821 -0.2024  0.1937
  221MOL0     C30370   6.713   7.506   3.906  1.2022  0.0124  1.2162
  221MOL0     C30371   6.649   7.644   3.872  0.5222 -1.5345  0.5544
  221MOL0     C30372   6.535   7.615   3.776 -1.1874 -0.1990  0.5195
  221MOL0     C30373   6.467   7.746   3.752  0.8476 -0.1248 -0.3794
  221MOL0     C30374   6.331   7.732   3.689 -0.3802  0.5983  0.2326
  221MOL0     C30375   6.276   7.873   3.657  0.0906  0.1340  0.7498
  221MOL0     C30376   6.337   7.956   3.544 -0.2891 -0.3346 -1.0991
  221MOL0     N30377   6.345   7.866   3.428 -0.4790 -0.3753  0.4468
  221MOL0     C30378   6.280   7.890   3.307  0.3245  0.5999  0.2739
  221MOL0     C30379   6.346   7.824   3.215 -0.6837  0.6844 -0.4643
  221MOL0     C30380   6.307   7.828   3.068  0.3774  0.0733 -0.6461
  221MOL0     C30381   6.391   7.747   2.965  0.4089 -0.6961 -0.4696
  221MOL0     C30382   6.519   7.821   2.932  0.9787  0.5321 -0.3738
  221MOL0     C30383   6.627   7.727   2.882  0.1241 -0.8311 -0.5318
  221MOL0     O30384   6.595   7.665   2.762  0.1352 -0.5551  0.8741
  221MOL0     C30385   6.677   7.572   2.713  0.1922  0.6776 -0.1119
  221MOL0     C30386   6.625   7.441   2.680  0.0298 -0.1991 -0.5205
  221MOL0     C30387   6.707   7.345   2.622  0.1629  0.4999 -0.3705
  221MOL0     C30388   6.649   7.210   2.587  0.8189  0.6049  0.4054
  221MOL0     C30389   6.846   7.372   2.604  0.8125  0.6523 -0.0063
  221MOL0     C30390   6.941   7.267   2.560 -0.4716 -0.1744  0.1898
  221MOL0     O30391   7.020   7.229   2.659 -0.6453 -0.3336  0.1212
  221MOL0     C30392   7.121   7.145   2.641  0.2422  0.1518 -0.0948
  221MOL0     C30393   7.253   7.184   2.671  1.1630  0.1573  0.6047
  221MOL0     C30394   7.360   7.096   2.666 -0.7904 -0.1969 -0.4396
  221MOL0     C30395   7.352   6.963   2.630  0.5032 -0.2584 -0.0998
  221MOL0     O30396   7.465   6.893   2.601 -0.1835 -0.0466 -0.0033
  221MOL0     C30397   7.466   6.790   2.503  0.4976  0.4661  0.5816
  221MOL0     C30398   7.503   6.656   2.571  0.0201  0.8255  0.2247
  221MOL0     C30399   7.644   6.637   2.646 -0.0576  0.5677  0.0287
  221MOL0     C30400   7.643   6.510   2.737 -0.1742 -0.2383  0.2017
  221MOL0     C30401   7.735   6.516   2.861 -0.0662 -0.3376 -0.8183
  221MOL0     C30402   7.877   6.545   2.816  0.0016 -0.3557 -0.1367
  221MOL0     C30403   7.981   6.518   2.929  1.0176 -0.3380 -0.6537
  221MOL0     C30404   7.981   6.634   3.031  0.7245  0.6250 -0.1752
  221MOL0    Cl30405   7.988   6.799   2.940  0.4110  0.1279 -0.3360
  221MOL0     C30406   7.221   6.922   2.596  0.1825  0.2421 -0.2791
  221MOL0     C30407   7.102   7.012   2.615  0.1448  0.3543  0.0218
  221MOL0     O30408   6.932   7.208   2.451 -0.0090 -0.2121  0.2106
  221MOL0     C30409   6.899   7.495   2.650 -0.7022 -0.2541 -0.0142
  221MOL0     C30410   6.817   7.589   2.714  0.1260 -0.5381  0.6606
  221MOL0     N30411   6.465   7.778   3.267 -0.0923 -0.7972 -0.6587
  221MOL0     N30412   6.462   7.801   3.393 -0.1162  0.6685 -0.8102
  221MOL0     C30413   7.027   7.305   3.904  0.5995  0.8029  0.0778
  221MOL0     C30414   7.088   7.200   3.829  0.8930 -0.9946 -0.6862
  221MOL0     C30415   7.071   6.729   3.701 -0.1977 -0.2744 -0.3882
  221MOL0     C30416   7.207   6.703   3.713 -0.2315 -0.3124  0.8258
  221MOL0     C30417   7.260   6.570   3.709  0.2132 -0.9712 -0.2383
  221MOL0     C30418   7.174   6.465   3.686  1.2042  0.2301 -0.3681
  221MOL0     O30419   7.223   6.335   3.678  0.1550  0.0985  0.8812
  221MOL0     C30420   7.369   6.315   3.690 -0.2102 -0.7744 -0.3458
  221MOL0     C30421   7.412   6.172   3.651 -1.2543  0.8934 -0.4879
  221MOL0     C30422   7.380   6.073   3.762 -0.2153 -0.7690 -0.2909
  221MOL0     C30423   7.418   5.928   3.725  0.2747 -0.5207 -0.4259
  221MOL0     C30424   7.347   5.874   3.614  0.3348 -1.3558  0.1532
  221MOL0     C30425   7.329   5.828   3.502  0.0124  0.4030 -0.4837
  221MOL0     C30426   7.042   6.485   3.679 -0.5733 -0.3584 -0.3256
  221MOL0     C30427   6.986   6.611   3.692 -0.8536  0.4842  0.7084
  221MOL0     C30428   6.835   6.633   3.692  0.0070  0.4380 -0.1472
  221MOL0     H30429   6.912   6.946   3.967  2.2406 -0.8853 -0.3820
  221MOL0     H30430   6.790   7.117   4.063  0.0671 -0.5477 -0.6416
  221MOL0     H30431   6.919   7.558   3.965 -0.3946 -1.1090 -1.1426
  221MOL0     H30432   6.783   7.562   4.084  0.6866  0.8877  0.0891
  221MOL0     H30433   6.737   7.453   3.814 -0.4617  1.6797 -0.2701
  221MOL0     H30434   6.636   7.447   3.957 -0.1978  0.2569 -0.4972
  221MOL0     H30435   6.611   7.686   3.965 -1.7768 -0.1872 -0.8951
  221MOL0     H30436   6.728   7.707   3.829 -1.2003 -1.9414 -3.6470
  221MOL0     H30437   6.585   7.570   3.689  3.0604 -1.0351  3.1137
  221MOL0     H30438   6.465   7.539   3.811  1.3351 -3.2452 -0.4712
  221MOL0     H30439   6.530   7.800   3.682  1.8788 -2.6041 -1.4829
  221MOL0     H30440   6.466   7.802   3.846 -1.7477 -0.6596 -0.0122
  221MOL0     H30441   6.330   7.680   3.593 -2.0064 -0.4514  0.7838
  221MOL0     H30442   6.262   7.679   3.755  0.2553 -0.2314  0.2414
  221MOL0     H30443   6.267   7.936   3.746 -0.0524 -0.8706  1.4686
  221MOL0     H30444   6.169   7.863   3.635 -0.3594  1.8100  1.9700
  221MOL0     H30445   6.277   8.045   3.521 -2.7072 -1.1366  1.5812
  221MOL0     H30446   6.437   7.982   3.580 -1.5129 -1.1038  3.4363
  221MOL0     H30447   6.185   7.940   3.290  0.8803  2.5528  2.5456
  221MOL0     H30448   6.318   7.934   3.041 -2.6387  0.1022 -2.1867
  221MOL0     H30449   6.199   7.817   3.056  0.0669  3.7112 -2.7405
  221MOL0     H30450   6.427   7.657   3.016  0.1271 -0.2778  0.4846
  221MOL0     H30451   6.342   7.725   2.870 -1.1081 -0.4220  0.2229
  221MOL0     H30452   6.493   7.889   2.851 -0.4199  0.0342 -0.3717
  221MOL0     H30453   6.561   7.867   3.022  3.2335  1.1702 -1.6903
  221MOL0     H30454   6.723   7.778   2.869  0.4157 -2.0658 -5.1550
  221MOL0     H30455   6.648   7.649   2.956  3.8268 -2.2747 -2.8182
  221MOL0     H30456   6.527   7.414   2.718  0.5743 -0.1754  0.9757
  221MOL0     H30457   6.544   7.197   2.615  0.2502 -0.1170 -1.8363
  221MOL0     H30458   6.705   7.128   2.632  2.3288  0.4663 -1.5968
  221MOL0     H30459   6.663   7.208   2.479  0.4126  2.7804  0.2621
  221MOL0     H30460   7.271   7.287   2.701 -0.6524  0.4670  0.7232
  221MOL0     H30461   7.460   7.137   2.679 -0.0040 -0.9684 -3.3263
  221MOL0     H30462   7.371   6.775   2.453  0.8468 -3.4288  0.7778
  221MOL0     H30463   7.545   6.816   2.432 -0.2517  0.2440 -0.3432
  221MOL0     H30464   7.433   6.631   2.651  1.0221 -1.9928  0.3264
  221MOL0     H30465   7.485   6.580   2.494 -0.3891  0.8560  0.2894
  221MOL0     H30466   7.652   6.727   2.708 -1.0653  0.4523  0.3625
  221MOL0     H30467   7.729   6.642   2.579  0.2788  0.5912  0.4542
  221MOL0     H30468   7.668   6.420   2.680 -1.1845 -0.8452  0.6815
  221MOL0     H30469   7.540   6.496   2.773 -0.9717 -2.7947 -2.6491
  221MOL0     H30470   7.713   6.597   2.930  2.0434  2.1787 -2.8907
  221MOL0     H30471   7.732   6.422   2.918 -2.3954  0.3853  0.3551
  221MOL0     H30472   7.880   6.649   2.781 -0.2550  0.2741  1.5623
  221MOL0     H30473   7.905   6.475   2.737 -1.5132 -1.4210  0.2386
  221MOL0     H30474   8.083   6.502   2.892  2.0947 -0.0642  2.0008
  221MOL0     H30475   7.953   6.419   2.966 -0.1552 -1.2926 -3.7103
  221MOL0     H30476   8.065   6.619   3.100 -1.0173 -3.0235  1.4416
  221MOL0     H30477   7.889   6.628   3.090  1.1634 -2.3168  0.3753
  221MOL0     H30478   7.202   6.825   2.551  0.9148  0.3689 -0.8840
  221MOL0     H30479   7.005   6.971   2.592  1.6464 -3.5390 -0.1369
  221MOL0     H30480   7.007   7.501   2.647 -0.4947 -2.7001  0.4229
  221MOL0     H30481   6.863   7.677   2.759 -3.1478  0.0901  3.1097
  221MOL0     H30482   7.076   7.402   3.896  2.1523  0.3360  2.7781
  221MOL0     H30483   7.162   7.227   3.754 -0.8082  2.0752 -1.4548
  221MOL0     H30484   7.261   6.795   3.734 -2.4181  0.2642  4.8981
  221MOL0     H30485   7.365   6.574   3.736 -0.1898 -2.2412  1.6373
  221MOL0     H30486   7.401   6.385   3.613 -1.4787  1.2009  0.8254
  221MOL0     H30487   7.397   6.345   3.792  0.1289 -1.8884 -0.0993
  221MOL0     H30488   7.520   6.170   3.663 -1.1023  0.7714 -1.6902
  221MOL0     H30489   7.403   6.134   3.548 -1.3449  0.3563 -0.2870
  221MOL0     H30490   7.437   6.100   3.851 -0.7106  1.1000 -0.5109
  221MOL0     H30491   7.272   6.081   3.779 -0.1110 -1.7640  1.0205
  221MOL0     H30492   7.414   5.859   3.809 -3.3959  0.4578  0.3644
  221MOL0     H30493   7.525   5.921   3.701  0.1540  0.1087 -1.2055
  221MOL0     H30494   7.296   5.798   3.405  0.0464  1.0085 -0.6856
  221MOL0     H30495   6.960   6.418   3.653 -1.6447 -0.3813  2.6880
  221MOL0     H30496   6.814   6.719   3.757 -0.6508 -1.3566  2.1790
  221MOL0     H30497   6.799   6.654   3.591  1.1745  0.2548 -0.6203
  221MOL0     H30498   6.779   6.546   3.728  0.8184  0.4770  1.2770
  222MOL0     O30499   7.619   5.039   7.113 -0.5493 -0.0088  0.2078
  222MOL0     C30500   7.557   4.949   7.171 -0.9690 -0.3717  0.4187
  222MOL0     O30501   7.458   4.964   7.264  0.4874  0.2321  0.4777
  222MOL0     C30502   7.402   5.085   7.279  1.1789  0.4849  0.0671
  222MOL0     C30503   7.260   5.082   7.293  0.1258  0.5159  0.2118
  222MOL0     C30504   7.198   5.206   7.320 -0.2720 -0.1455  0.6332
  222MOL0     C30505   7.256   5.329   7.324 -0.4924  0.6699 -0.9850
  222MOL0     O30506   7.190   5.447   7.334  0.1499  0.7024  0.0599
  222MOL0     C30507   7.271   5.566   7.360  0.0835  0.3123  0.1901
  222MOL0     C30508   7.171   5.672   7.403  0.4694 -0.0484 -0.1043
  222MOL0     C30509   7.109   5.727   7.273 -0.1774 -0.4312 -0.0956
  222MOL0     C30510   7.013   5.832   7.320 -0.1562 -0.4107  0.4608
  222MOL0     C30511   6.924   5.891   7.217 -0.7071 -0.1316  0.2880
  222MOL0     C30512   6.853   6.024   7.276 -0.0391 -0.1982 -0.7493
  222MOL0     C30513   6.776   6.094   7.161  0.3857 -0.4140  0.2005
  222MOL0     C30514   6.754   6.235   7.192  0.7338 -0.5397  0.4834
  222MOL0     N30515   6.679   6.305   7.089  1.0797  0.3498 -0.3572
  222MOL0     C30516   6.628   6.429   7.114  0.5065  0.1030 -1.4187
  222MOL0     C30517   6.535   6.448   7.020  1.3191 -1.7885 -0.4609
  222MOL0     C30518   6.464   6.582   6.978  0.1666  0.5610 -0.4712
  222MOL0     C30519   6.503   6.635   6.835  0.9950  0.2702 -1.0817
  222MOL0     C30520   6.647   6.610   6.789 -0.1932  0.1595  0.6610
  222MOL0     C30521   6.691   6.692   6.665 -0.7875  0.5205 -0.2436
  222MOL0     O30522   6.594   6.694   6.556  0.4161 -0.4904 -0.3161
  222MOL0     C30523   6.611   6.774   6.446  0.5939  0.3715  0.5967
  222MOL0     C30524   6.736   6.825   6.418  1.4603 -0.0083  0.5313
  222MOL0     C30525   6.749   6.906   6.304 -0.2679 -0.0826 -0.7001
  222MOL0     C30526   6.886   6.968   6.282 -0.2903  0.0377 -0.1113
  222MOL0     C30527   6.641   6.926   6.217 -0.2103  0.6622  0.0196
  222MOL0     C30528   6.663   7.005   6.097  0.5224 -0.1591  0.4325
  222MOL0     O30529   6.573   7.093   6.071  0.1969  0.2296 -0.4129
  222MOL0     C30530   6.600   7.196   5.987 -0.3763  0.1914 -0.3568
  222MOL0     C30531   6.729   7.251   5.973 -1.0179 -0.3861 -0.3995
  222MOL0     C30532   6.748   7.356   5.876 -0.3059 -0.8602  0.0108
  222MOL0     C30533   6.648   7.406   5.796 -0.5405 -0.3876 -0.2006
  222MOL0     O30534   6.655   7.507   5.697 -0.1024 -0.6499 -0.0391
  222MOL0     C30535   6.754   7.604   5.705  0.3581  0.1697  0.2683
  222MOL0     C30536   6.690   7.738   5.656  1.1762 -0.0330  0.1079
  222MOL0     C30537   6.581   7.792   5.757  0.1094  0.6283 -0.4063
  222MOL0     C30538   6.519   7.919   5.697  0.2130 -0.4457  0.1945
  222MOL0     C30539   6.415   7.997   5.788  0.5109  0.3666  0.1930
  222MOL0     C30540   6.325   8.101   5.715  0.5615  0.1825  0.2120
  222MOL0     C30541   6.404   8.213   5.652  0.9679  0.1326 -0.2428
  222MOL0     C30542   6.312   8.300   5.559 -0.5221 -0.3455  0.1272
  222MOL0    Cl30543   6.279   8.213   5.397 -0.1890  0.1632 -0.2360
  222MOL0     C30544   6.519   7.349   5.820 -0.9119  0.7967  0.6320
  222MOL0     C30545   6.497   7.243   5.906  0.3320 -0.0401 -0.7122
  222MOL0     O30546   6.756   6.969   6.019 -0.2582  0.1765 -0.0370
  222MOL0     C30547   6.510   6.880   6.245  0.2682  0.3976 -0.5437
  222MOL0     C30548   6.501   6.805   6.357  0.9009  0.8368 -0.9623
  222MOL0     N30549   6.527   6.332   6.949  0.1542  0.0437 -0.0317
  222MOL0     N30550   6.609   6.251   6.988 -0.8903 -0.3222  1.0367
  222MOL0     C30551   7.396   5.321   7.309 -0.0673  0.1317  0.0166
  222MOL0     C30552   7.469   5.199   7.284  0.0792 -0.1502  0.3016
  222MOL0     C30553   7.613   4.810   7.149 -0.1968  0.7400  0.0057
  222MOL0     C30554   7.556   4.704   7.223  0.7006 -0.1938  0.4987
  222MOL0     C30555   7.587   4.576   7.183 -0.4354 -0.2720  0.7802
  222MOL0     C30556   7.685   4.551   7.086  0.5068  0.2048  0.0596
  222MOL0     O30557   7.739   4.431   7.050  1.0622  0.4177  0.4890
  222MOL0     C30558   7.687   4.309   7.112 -0.5180  1.1035 -0.3762
  222MOL0     C30559   7.554   4.265   7.044 -0.9960 -0.4075 -0.3579
  222MOL0     C30560   7.581   4.223   6.900 -0.4057 -0.2383  0.3495
  222MOL0     C30561   7.463   4.127   6.850  0.1828  0.0009  0.8953
  222MOL0     C30562   7.450   4.100   6.704 -0.0832  0.2595 -0.4199
  222MOL0     C30563   7.431   4.062   6.589  0.0080 -0.3227  0.1044
  222MOL0     C30564   7.728   4.656   7.007 -0.6002 -0.6233 -0.3212
  222MOL0     C30565   7.690   4.783   7.032 -0.1153  0.1551  0.1215
  222MOL0     C30566   7.746   4.882   6.932 -0.2523  0.5938 -0.7540
  222MOL0     H30567   7.215   4.984   7.306  0.8196  0.1721  0.0326
  222MOL0     H30568   7.089   5.212   7.326 -0.2111  0.2492  1.4583
  222MOL0     H30569   7.321   5.605   7.271 -0.7565 -1.1338 -0.9693
  222MOL0     H30570   7.339   5.545   7.443  0.5107 -0.5327 -0.3513
  222MOL0     H30571   7.093   5.632   7.468  1.1003  1.3452  1.5865
  222MOL0     H30572   7.216   5.756   7.457 -1.9097 -0.0007  1.9799
  222MOL0     H30573   7.181   5.782   7.211  1.0549  0.6296  2.1648
  222MOL0     H30574   7.068   5.643   7.216 -1.2880 -0.8679  1.3043
  222MOL0     H30575   6.936   5.789   7.386 -2.2715 -3.2590 -3.4316
  222MOL0     H30576   7.067   5.905   7.382  1.7114  0.1076 -1.6463
  222MOL0     H30577   6.845   5.822   7.186 -0.3948 -1.7684  2.8135
  222MOL0     H30578   6.990   5.903   7.131 -1.4601 -0.7945 -0.3910
  222MOL0     H30579   6.775   6.002   7.348 -1.0839  3.4940 -0.5364
  222MOL0     H30580   6.930   6.091   7.316 -0.6869 -1.5991  3.2256
  222MOL0     H30581   6.683   6.040   7.143 -0.2989  0.3035  1.4873
  222MOL0     H30582   6.822   6.089   7.062 -0.6084 -0.1202 -0.2816
  222MOL0     H30583   6.706   6.231   7.290 -3.5158  2.4742 -1.1291
  222MOL0     H30584   6.850   6.287   7.193 -0.8008  2.5363  0.5867
  222MOL0     H30585   6.664   6.505   7.181 -1.6459  0.9721 -1.1734
  222MOL0     H30586   6.495   6.662   7.046  0.8642  0.5625 -0.7869
  222MOL0     H30587   6.356   6.576   6.997  0.6449  0.6521  3.0128
  222MOL0     H30588   6.445   6.578   6.761 -0.0006  1.9354 -1.6601
  222MOL0     H30589   6.477   6.741   6.831 -3.2273 -0.5482 -0.6721
  222MOL0     H30590   6.718   6.622   6.872 -2.6001  0.4024  2.7933
  222MOL0     H30591   6.649   6.507   6.755 -1.8399  0.9837 -2.2673
  222MOL0     H30592   6.704   6.794   6.703  2.2046  0.5715 -1.1541
  222MOL0     H30593   6.790   6.655   6.636 -0.8309  0.7658 -0.7164
  222MOL0     H30594   6.825   6.809   6.478  1.2781 -0.2143  0.7478
  222MOL0     H30595   6.954   6.898   6.233 -1.3253 -1.5856  0.6621
  222MOL0     H30596   6.935   6.987   6.378  1.5669 -3.4962 -0.2186
  222MOL0     H30597   6.867   7.059   6.224 -1.9965  0.4293  0.9815
  222MOL0     H30598   6.813   7.212   6.030  0.0252  1.0095 -0.9394
  222MOL0     H30599   6.851   7.389   5.873 -0.4092 -0.2546  1.6328
  222MOL0     H30600   6.802   7.626   5.800  4.0138  0.0761 -1.3694
  222MOL0     H30601   6.836   7.577   5.638  2.0148  1.7743  1.5538
  222MOL0     H30602   6.763   7.819   5.657  2.5217 -1.2145  0.0375
  222MOL0     H30603   6.654   7.728   5.554 -1.0587  2.1653  0.5848
  222MOL0     H30604   6.633   7.812   5.851  0.7345 -3.1251  0.2096
  222MOL0     H30605   6.506   7.716   5.780  2.3186 -1.0536  1.7137
  222MOL0     H30606   6.479   7.897   5.598  1.4504 -0.5103 -0.3057
  222MOL0     H30607   6.595   7.987   5.658  0.1990 -2.0593 -2.9366
  222MOL0     H30608   6.358   7.932   5.855  0.8149  1.6261  1.7466
  222MOL0     H30609   6.473   8.045   5.867 -0.2052 -2.5564  2.6950
  222MOL0     H30610   6.254   8.148   5.783 -2.1868 -1.5608 -1.2868
  222MOL0     H30611   6.263   8.038   5.652  1.4742  0.7334 -1.2794
  222MOL0     H30612   6.491   8.176   5.596  2.0012 -0.0308  1.4004
  222MOL0     H30613   6.444   8.287   5.722  1.0099  1.2886 -1.4456
  222MOL0     H30614   6.360   8.394   5.528 -1.1124 -0.3410 -0.8333
  222MOL0     H30615   6.225   8.319   5.623 -0.7298  2.0614 -0.7425
  222MOL0     H30616   6.438   7.373   5.752 -0.4386 -1.6178 -0.9156
  222MOL0     H30617   6.396   7.202   5.901 -0.1702  1.2368 -1.9339
  222MOL0     H30618   6.425   6.906   6.182  0.7450  1.1272 -0.9071
  222MOL0     H30619   6.402   6.763   6.375  1.5640  0.0823  1.2288
  222MOL0     H30620   7.459   5.409   7.317  1.2858 -0.7285 -0.7989
  222MOL0     H30621   7.577   5.208   7.277 -0.1422  1.2170 -3.2497
  222MOL0     H30622   7.490   4.727   7.306  1.1043 -1.6624  1.2749
  222MOL0     H30623   7.523   4.502   7.231 -3.4146  0.8334 -1.2186
  222MOL0     H30624   7.768   4.236   7.100 -2.5993 -1.6575  1.1756
  222MOL0     H30625   7.681   4.314   7.222 -1.5076 -1.0311 -0.2700
  222MOL0     H30626   7.466   4.331   7.047 -2.4607 -2.1338 -2.1711
  222MOL0     H30627   7.528   4.173   7.098 -0.7928  0.4491  1.2498
  222MOL0     H30628   7.586   4.315   6.841 -0.0456 -0.4791 -0.0032
  222MOL0     H30629   7.674   4.165   6.895 -0.9871 -1.3310  1.6529
  222MOL0     H30630   7.371   4.170   6.890 -0.4605  0.7888 -1.2547
  222MOL0     H30631   7.479   4.031   6.900 -0.1850 -1.0756 -0.9463
  222MOL0     H30632   7.410   4.004   6.501  1.3829  1.4681 -1.4955
  222MOL0     H30633   7.802   4.638   6.930  0.9310  1.8278  0.4938
  222MOL0     H30634   7.810   4.956   6.982 -2.5977  2.0151  0.3142
  222MOL0     H30635   7.793   4.834   6.846 -2.3722 -1.0705 -1.0450
  222MOL0     H30636   7.671   4.949   6.890 -1.1384 -0.6307 -1.1771
  223MOL0     O30637   2.198  11.026   7.691 -0.1413  0.0036 -0.1542
  223MOL0     C30638   2.306  10.983   7.646  0.4829  0.1001 -0.0039
  223MOL0     O30639   2.400  10.914   7.712  0.6654  0.1820  0.1840
  223MOL0     C30640   2.372  10.880   7.847 -0.6815 -0.2055 -0.4328
  223MOL0     C30641   2.356  10.978   7.948 -0.3712  0.2666  0.0640
  223MOL0     C30642   2.323  10.933   8.071 -0.1642 -0.1912  0.4609
  223MOL0     C30643   2.312  10.794   8.110  0.9159 -0.7078  0.3996
  223MOL0     O30644   2.268  10.772   8.233  0.0807 -0.6747 -0.4109
  223MOL0     C30645   2.238  10.636   8.284  0.0629 -0.0220 -0.3684
  223MOL0     C30646   2.341  10.606   8.395  0.6642  0.0740  0.7339
  223MOL0     C30647   2.467  10.542   8.327 -0.7673  0.0430  0.8973
  223MOL0     C30648   2.584  10.519   8.417 -0.2442 -0.6769  0.4447
  223MOL0     C30649   2.689  10.433   8.342  0.2257  0.2118 -0.1284
  223MOL0     C30650   2.822  10.449   8.420  0.4086 -0.1557 -0.3860
  223MOL0     C30651   2.942  10.402   8.349  0.3920  0.2251  0.2306
  223MOL0     C30652   2.930  10.254   8.300  0.6595  0.1416 -0.4590
  223MOL0     N30653   2.918  10.167   8.423  0.0628  1.0508  0.5481
  223MOL0     C30654   3.034  10.130   8.485 -0.4289 -0.0520  0.2762
  223MOL0     C30655   3.000  10.054   8.581 -1.1704  1.0405 -0.0915
  223MOL0     C30656   3.111   9.991   8.667 -0.6280 -0.6230  0.8065
  223MOL0     C30657   3.139  10.082   8.790  0.6268  0.5321 -0.2093
  223MOL0     C30658   3.219  10.203   8.748  0.0011 -0.0591 -0.0421
  223MOL0     C30659   3.259  10.273   8.878  0.3149 -0.2861 -0.7269
  223MOL0     O30660   3.349  10.197   8.965 -0.0146  0.4019  0.3163
  223MOL0     C30661   3.439  10.276   9.027  0.6396 -0.5417  0.0580
  223MOL0     C30662   3.513  10.376   8.965  0.5364  0.6405 -0.6104
  223MOL0     C30663   3.596  10.460   9.035  0.4863 -1.0644  0.4885
  223MOL0     C30664   3.662  10.573   8.951  0.1130  0.1267  0.3341
  223MOL0     C30665   3.618  10.444   9.178 -0.3620 -0.8313 -0.3357
  223MOL0     C30666   3.712  10.529   9.254 -0.1852 -0.0763 -0.0310
  223MOL0     O30667   3.766  10.469   9.365 -0.2480 -0.2011  0.3449
  223MOL0     C30668   3.871  10.528   9.433  0.7924 -0.4544  0.0589
  223MOL0     C30669   3.995  10.553   9.368 -1.1049 -0.9250 -1.1732
  223MOL0     C30670   4.099  10.608   9.436  0.3606  0.8750 -0.6476
  223MOL0     C30671   4.084  10.628   9.570  0.0082 -0.0124 -0.0074
  223MOL0     O30672   4.186  10.682   9.652  0.5511  0.6439  0.3936
  223MOL0     C30673   4.303  10.719   9.592 -0.5557 -0.2696  0.0386
  223MOL0     C30674   4.415  10.751   9.691  0.5216 -0.2127  0.3550
  223MOL0     C30675   4.385  10.886   9.759 -0.2692 -0.0684 -0.5816
  223MOL0     C30676   4.373  10.872   9.912 -0.3972  0.1548  0.7638
  223MOL0     C30677   4.356  11.015   9.976  0.1397 -0.6695  0.4861
  223MOL0     C30678   4.373  11.026  10.131  0.5323 -0.4299  0.6624
  223MOL0     C30679   4.251  10.971  10.208 -0.4182  0.2373  0.2141
  223MOL0     C30680   4.177  11.084  10.283  0.5163 -0.0120  0.3263
  223MOL0    Cl30681   4.022  11.030  10.342  0.5419 -0.4240 -0.3899
  223MOL0     C30682   3.965  10.598   9.634  0.6572  0.2375 -1.2017
  223MOL0     C30683   3.860  10.546   9.568  1.0001 -0.1536  0.5455
  223MOL0     O30684   3.747  10.641   9.216 -0.9231 -0.4144  0.4542
  223MOL0     C30685   3.563  10.325   9.233 -0.5091  0.4954 -1.2272
  223MOL0     C30686   3.472  10.247   9.157  0.2575  0.8953  1.5626
  223MOL0     N30687   2.865  10.043   8.591  0.4264 -0.3620  0.4809
  223MOL0     N30688   2.816  10.115   8.498 -0.7617 -1.3147 -0.1631
  223MOL0     C30689   2.338  10.699   8.011 -0.9318  0.1787  1.5248
  223MOL0     C30690   2.365  10.746   7.881  0.5282  0.2827 -0.3389
  223MOL0     C30691   2.332  11.006   7.500 -0.1373 -0.9411  0.4683
  223MOL0     C30692   2.333  10.892   7.417  0.4496 -0.6323 -0.1010
  223MOL0     C30693   2.331  10.898   7.283  0.1733  1.1046 -0.6904
  223MOL0     C30694   2.336  11.027   7.220  0.0769  0.0914 -0.6008
  223MOL0     O30695   2.343  11.006   7.086 -0.1374  0.1838 -0.3127
  223MOL0     C30696   2.369  11.122   7.003 -0.3869  0.4950  0.0645
  223MOL0     C30697   2.441  11.072   6.882  0.9227  0.1464  0.2751
  223MOL0     C30698   2.588  11.042   6.910  0.4445 -0.2884 -0.9796
  223MOL0     C30699   2.655  11.014   6.767 -0.0211  0.1412  0.7267
  223MOL0     C30700   2.600  10.897   6.698 -0.0230 -0.2221 -0.2952
  223MOL0     C30701   2.533  10.814   6.633  0.0895  0.2365  0.2982
  223MOL0     C30702   2.348  11.150   7.290 -0.5098 -0.7840 -1.1300
  223MOL0     C30703   2.344  11.135   7.436 -0.1087 -0.0753  0.3397
  223MOL0     C30704   2.350  11.266   7.517  1.3131  0.2059 -0.1355
  223MOL0     H30705   2.357  11.085   7.926  0.8281 -0.0250 -1.4440
  223MOL0     H30706   2.296  11.011   8.141  0.6280 -0.6172  1.2652
  223MOL0     H30707   2.245  10.559   8.207 -0.9589 -0.1684 -0.3219
  223MOL0     H30708   2.139  10.621   8.328  0.8017  0.4134  1.5392
  223MOL0     H30709   2.368  10.697   8.449 -0.8633  1.3301 -0.5026
  223MOL0     H30710   2.294  10.535   8.464  1.0432  2.3643  3.5017
  223MOL0     H30711   2.437  10.447   8.282  1.7719  0.6604 -2.4699
  223MOL0     H30712   2.504  10.612   8.252 -1.0642  2.3037  2.7466
  223MOL0     H30713   2.626  10.618   8.438 -0.5516 -1.0788  3.3635
  223MOL0     H30714   2.547  10.466   8.505 -3.3636 -0.9904 -0.9367
  223MOL0     H30715   2.692  10.451   8.234 -2.0156 -2.8360 -0.8323
  223MOL0     H30716   2.651  10.331   8.343  0.7658 -0.1584 -4.1081
  223MOL0     H30717   2.833  10.551   8.459 -2.7943  0.1083  0.1410
  223MOL0     H30718   2.800  10.387   8.507 -0.5474 -1.3687 -1.4490
  223MOL0     H30719   3.024  10.423   8.417  1.9289  0.3441 -1.5688
  223MOL0     H30720   2.965  10.460   8.258  1.3696 -2.3852 -1.2783
  223MOL0     H30721   2.841  10.256   8.236  2.1022  2.2265 -2.5708
  223MOL0     H30722   3.023  10.233   8.247  0.9637 -0.5214  0.3099
  223MOL0     H30723   3.138  10.143   8.455 -0.1142  2.1398  2.0401
  223MOL0     H30724   3.200   9.968   8.608 -0.1940  0.8739  0.8486
  223MOL0     H30725   3.069   9.894   8.696 -0.5091 -1.3492 -1.3037
  223MOL0     H30726   3.047  10.122   8.834 -0.6787  0.1803 -2.4713
  223MOL0     H30727   3.192  10.019   8.862  2.5083  0.7444 -1.3543
  223MOL0     H30728   3.304  10.168   8.688 -2.5231 -5.7430 -0.9105
  223MOL0     H30729   3.159  10.277   8.694 -0.5170 -0.8243 -0.5462
  223MOL0     H30730   3.274  10.377   8.846 -0.7297 -0.5503 -2.1739
  223MOL0     H30731   3.163  10.274   8.931 -1.9477  1.9268 -4.4413
  223MOL0     H30732   3.495  10.394   8.859  1.4277 -2.5147 -1.4044
  223MOL0     H30733   3.623  10.673   8.971 -3.5437 -1.3826  1.6863
  223MOL0     H30734   3.657  10.554   8.844  0.5061  1.1373  0.1322
  223MOL0     H30735   3.766  10.567   8.986  0.1745  0.2192  0.1646
  223MOL0     H30736   4.004  10.512   9.268  2.5235 -2.3526 -0.4142
  223MOL0     H30737   4.190  10.633   9.383 -0.5294  1.8081 -1.8043
  223MOL0     H30738   4.336  10.641   9.523 -3.1177 -1.0701 -0.3606
  223MOL0     H30739   4.302  10.809   9.531 -2.4992 -0.0580  0.3248
  223MOL0     H30740   4.451  10.666   9.749  1.0082  0.5033  1.1313
  223MOL0     H30741   4.495  10.788   9.625  0.9395  2.0650  2.0242
  223MOL0     H30742   4.306  10.940   9.705 -0.4097  2.1949  1.6684
  223MOL0     H30743   4.474  10.950   9.749 -0.4364 -0.0826 -2.6224
  223MOL0     H30744   4.452  10.810   9.955 -2.3827 -2.5057  0.9239
  223MOL0     H30745   4.279  10.816   9.925 -0.7197  0.4340 -0.2618
  223MOL0     H30746   4.444  11.071   9.944 -0.0101 -0.6575  0.0911
  223MOL0     H30747   4.272  11.066   9.929 -0.0882 -0.1246  1.4606
  223MOL0     H30748   4.386  11.126  10.172  1.2473 -0.7714  1.2892
  223MOL0     H30749   4.469  10.977  10.147 -0.4378 -2.0162  1.9529
  223MOL0     H30750   4.287  10.892  10.275 -3.2479  0.1337  1.7618
  223MOL0     H30751   4.190  10.916  10.135  0.0913 -0.1281  0.0538
  223MOL0     H30752   4.166  11.163  10.209 -4.2639 -0.6082  0.0623
  223MOL0     H30753   4.229  11.136  10.364 -1.8916  1.6099  0.9313
  223MOL0     H30754   3.963  10.626   9.739  0.5345 -4.3771  0.2517
  223MOL0     H30755   3.764  10.534   9.618  1.6419 -2.1437  1.4035
  223MOL0     H30756   3.572  10.291   9.336 -1.2130  1.7347 -0.7250
  223MOL0     H30757   3.429  10.153   9.190 -1.5037  0.6477 -1.1304
  223MOL0     H30758   2.338  10.594   8.039  0.5655  0.5315  3.0456
  223MOL0     H30759   2.373  10.670   7.804  2.7155 -1.7819  1.7551
  223MOL0     H30760   2.313  10.790   7.447  4.0622 -1.5527 -0.4357
  223MOL0     H30761   2.317  10.803   7.233 -0.6793  2.0602 -2.3633
  223MOL0     H30762   2.280  11.185   6.990 -0.6447  0.1624  0.2287
  223MOL0     H30763   2.448  11.184   7.047 -0.6636  1.0383 -0.1934
  223MOL0     H30764   2.438  11.152   6.807  3.1672 -0.3070 -0.3842
  223MOL0     H30765   2.389  10.981   6.853  1.0013 -0.5026  2.0698
  223MOL0     H30766   2.633  11.132   6.952 -2.2001 -0.6711  3.2134
  223MOL0     H30767   2.603  10.960   6.980  0.7279 -0.7073 -1.5292
  223MOL0     H30768   2.765  11.011   6.764  0.1769  1.8953  3.1406
  223MOL0     H30769   2.635  11.096   6.698 -0.9274 -1.6770 -1.2684
  223MOL0     H30770   2.475  10.740   6.582  5.2779 -3.5649 -0.8519
  223MOL0     H30771   2.347  11.247   7.242 -1.6877  2.2039  4.0932
  223MOL0     H30772   2.441  11.326   7.506  0.5527  1.4467  0.0212
  223MOL0     H30773   2.261  11.326   7.493 -0.1003 -0.3525  3.1919
  223MOL0     H30774   2.342  11.232   7.620 -1.3787 -0.3654 -0.4575
  224MOL0     O30775   4.999   1.456   8.394 -0.0722 -0.7405 -0.4421
  224MOL0     C30776   4.973   1.571   8.380 -0.6017  0.0646  0.0301
  224MOL0     O30777   4.928   1.621   8.265 -0.9595  1.1068  0.9395
  224MOL0     C30778   4.874   1.533   8.184  0.3283 -0.2672 -0.2201
  224MOL0     C30779   4.956   1.478   8.090  0.4117 -1.0462  0.5241
  224MOL0     C30780   4.895   1.389   7.989  0.2042 -0.6827 -0.1168
  224MOL0     C30781   4.762   1.337   8.012 -0.0322 -0.6887  0.1787
  224MOL0     O30782   4.712   1.236   7.938  0.2598 -0.2176  0.7283
  224MOL0     C30783   4.788   1.170   7.843 -0.8918 -0.7943 -0.0045
  224MOL0     C30784   4.711   1.067   7.760  0.3300 -0.1186 -0.6295
  224MOL0     C30785   4.586   1.127   7.690  1.1091 -0.1574 -0.5294
  224MOL0     C30786   4.624   1.173   7.549 -0.3037  0.0521 -0.4228
  224MOL0     C30787   4.500   1.245   7.502  0.4978 -0.7184 -0.1973
  224MOL0     C30788   4.503   1.311   7.360  0.2286  1.1209 -0.6188
  224MOL0     C30789   4.386   1.403   7.350 -0.0217 -0.8341 -0.7433
  224MOL0     C30790   4.253   1.340   7.389  0.2862 -0.3223  0.7337
  224MOL0     N30791   4.146   1.435   7.372  0.1803 -0.3625 -0.6244
  224MOL0     C30792   4.043   1.435   7.285  0.0293 -0.1663 -0.6770
  224MOL0     C30793   3.985   1.555   7.297 -0.4894  0.2197 -0.4242
  224MOL0     C30794   3.862   1.601   7.221 -0.6865  0.2825  0.5135
  224MOL0     C30795   3.747   1.504   7.230  0.3614 -0.5264  0.3816
  224MOL0     C30796   3.691   1.463   7.374 -0.6744  0.1926  0.7165
  224MOL0     C30797   3.579   1.549   7.420 -0.7622 -0.5013  0.0897
  224MOL0     O30798   3.515   1.531   7.544 -0.6327  0.0036  0.0867
  224MOL0     C30799   3.464   1.646   7.603  0.4621  0.1389  0.1195
  224MOL0     C30800   3.396   1.743   7.532  0.2335 -0.3037 -0.3743
  224MOL0     C30801   3.343   1.862   7.587 -0.4465 -0.5617  0.3217
  224MOL0     C30802   3.290   1.956   7.487 -0.2456 -0.2117 -0.3328
  224MOL0     C30803   3.343   1.881   7.729 -0.5415 -0.2440  0.4351
  224MOL0     C30804   3.288   1.995   7.802  0.5023 -0.4410 -0.4213
  224MOL0     O30805   3.244   1.965   7.933  0.7955 -0.2396  0.0245
  224MOL0     C30806   3.182   2.051   8.014  0.3546 -0.3701 -0.0534
  224MOL0     C30807   3.210   2.193   8.007 -0.2289 -0.3520 -0.5018
  224MOL0     C30808   3.139   2.275   8.091  0.7752 -0.7535  0.1919
  224MOL0     C30809   3.043   2.234   8.181 -0.6052  0.9216 -0.4629
  224MOL0     O30810   2.991   2.335   8.255  0.9369 -0.2587  0.1176
  224MOL0     C30811   2.902   2.305   8.362  0.3117 -0.2331 -0.5742
  224MOL0     C30812   2.820   2.437   8.383  0.0952 -0.0505 -0.0977
  224MOL0     C30813   2.760   2.449   8.519  0.8786  0.4784  0.6076
  224MOL0     C30814   2.669   2.577   8.540  0.9421  0.0652  0.5545
  224MOL0     C30815   2.713   2.705   8.463  0.2017  0.1081 -0.4537
  224MOL0     C30816   2.644   2.832   8.529 -0.1759  0.3737  0.0174
  224MOL0     C30817   2.639   2.948   8.428 -0.2466  0.5403  0.3764
  224MOL0     C30818   2.772   3.026   8.432 -0.0585 -0.0292  0.1737
  224MOL0    Cl30819   2.758   3.155   8.553 -0.0610 -0.2208  0.2003
  224MOL0     C30820   3.027   2.097   8.198 -0.6501  0.4432  0.1656
  224MOL0     C30821   3.091   2.004   8.114 -0.7379 -0.0119  1.1546
  224MOL0     O30822   3.273   2.101   7.740 -0.1698  0.4530 -0.2872
  224MOL0     C30823   3.399   1.768   7.804 -0.9435 -1.0173 -1.5741
  224MOL0     C30824   3.460   1.667   7.737 -0.6488 -0.8069 -0.2144
  224MOL0     N30825   4.050   1.628   7.397 -0.2910  0.0418 -0.8315
  224MOL0     N30826   4.139   1.555   7.442 -0.1610  0.6484 -0.6393
  224MOL0     C30827   4.686   1.401   8.116 -0.8531  1.3709 -0.6650
  224MOL0     C30828   4.744   1.501   8.192 -0.1154  0.4179  0.0900
  224MOL0     C30829   4.996   1.650   8.508 -0.4466  0.7434 -0.3500
  224MOL0     C30830   5.032   1.577   8.622  0.3253 -0.5846 -0.4559
  224MOL0     C30831   5.058   1.643   8.741 -1.0562 -0.3962 -0.8227
  224MOL0     C30832   5.031   1.783   8.754  0.1182 -0.1022 -0.1146
  224MOL0     O30833   5.049   1.853   8.868 -0.2266 -0.1373 -0.5995
  224MOL0     C30834   5.112   1.790   8.982 -0.0913 -0.3980 -0.5109
  224MOL0     C30835   5.140   1.882   9.100 -0.8408 -0.2600 -0.3910
  224MOL0     C30836   5.231   2.000   9.057 -0.8024  0.6584  0.5820
  224MOL0     C30837   5.285   2.062   9.187 -0.2464  0.0809  0.2365
  224MOL0     C30838   5.394   2.152   9.162 -0.1241  0.4065 -0.0067
  224MOL0     C30839   5.480   2.245   9.156  0.0258 -1.5167 -0.4407
  224MOL0     C30840   5.002   1.854   8.636  0.0031  0.4204  0.2439
  224MOL0     C30841   4.991   1.790   8.512 -0.3452 -0.0015  0.2478
  224MOL0     C30842   4.966   1.886   8.386 -0.8351 -0.0616 -0.7436
  224MOL0     H30843   5.063   1.491   8.085  0.5775 -2.6625 -2.8287
  224MOL0     H30844   4.968   1.342   7.924  1.1777 -0.2856  0.6651
  224MOL0     H30845   4.869   1.114   7.891 -1.1216 -0.1680  1.1384
  224MOL0     H30846   4.838   1.244   7.779  1.9991 -2.6166 -0.0368
  224MOL0     H30847   4.774   1.007   7.694  1.0089 -1.9098  1.5331
  224MOL0     H30848   4.666   0.994   7.829  0.6761 -0.5673 -0.8719
  224MOL0     H30849   4.503   1.057   7.692  1.5276 -0.7843 -2.5649
  224MOL0     H30850   4.548   1.213   7.746 -2.1068 -1.9616  0.2766
  224MOL0     H30851   4.713   1.236   7.545  1.3035 -2.1758 -1.5827
  224MOL0     H30852   4.643   1.083   7.490  1.6651 -0.5170  0.9920
  224MOL0     H30853   4.478   1.327   7.571 -0.3328  0.0937 -1.3904
  224MOL0     H30854   4.419   1.171   7.508  0.3178 -0.4133  4.0527
  224MOL0     H30855   4.591   1.371   7.338  0.7204  0.4601 -0.4828
  224MOL0     H30856   4.496   1.224   7.294 -1.1580  1.1322 -0.5195
  224MOL0     H30857   4.383   1.443   7.249  0.4139 -1.5057 -1.0237
  224MOL0     H30858   4.412   1.491   7.410 -0.8127 -0.3667 -1.0554
  224MOL0     H30859   4.234   1.263   7.314 -0.2145  2.0015 -1.6789
  224MOL0     H30860   4.256   1.311   7.494 -0.3508 -0.9059  0.6039
  224MOL0     H30861   4.013   1.344   7.235 -1.7834 -0.9172  1.5840
  224MOL0     H30862   3.887   1.622   7.117  0.4523 -0.3270  0.6465
  224MOL0     H30863   3.832   1.692   7.275  1.4121 -2.1032  6.5566
  224MOL0     H30864   3.669   1.558   7.175  0.5182  0.0749  0.7413
  224MOL0     H30865   3.775   1.411   7.180 -0.6377  1.1365 -3.7404
  224MOL0     H30866   3.651   1.363   7.393  0.2563 -0.1209  1.0552
  224MOL0     H30867   3.784   1.465   7.431  1.1482  1.8607 -2.0751
  224MOL0     H30868   3.610   1.653   7.405 -0.3865 -0.6282 -0.0216
  224MOL0     H30869   3.495   1.532   7.352 -1.6362  1.0416  0.7227
  224MOL0     H30870   3.382   1.723   7.426 -2.4193 -0.8591  0.0034
  224MOL0     H30871   3.187   1.978   7.519  0.4985  0.4173  1.8143
  224MOL0     H30872   3.299   1.919   7.385 -0.9199  0.9638 -0.8311
  224MOL0     H30873   3.346   2.049   7.503  1.2020 -1.0145 -0.5498
  224MOL0     H30874   3.294   2.232   7.951  2.6720 -2.3509  2.1317
  224MOL0     H30875   3.163   2.381   8.085  0.9229 -0.6943  1.5661
  224MOL0     H30876   2.826   2.227   8.350 -1.1287  1.2241 -1.3099
  224MOL0     H30877   2.958   2.285   8.454 -1.6935 -0.3605  0.6720
  224MOL0     H30878   2.880   2.526   8.366 -0.1636  0.3817  1.1372
  224MOL0     H30879   2.746   2.436   8.302  1.3367 -0.6853 -1.2647
  224MOL0     H30880   2.845   2.462   8.587  0.5237  0.9717  0.9564
  224MOL0     H30881   2.717   2.353   8.547 -1.2075  1.0456 -0.4708
  224MOL0     H30882   2.656   2.610   8.644  3.1317  0.2667  0.8201
  224MOL0     H30883   2.578   2.543   8.490  2.8920  0.3347 -3.5511
  224MOL0     H30884   2.821   2.707   8.477  0.1760  0.5884 -0.3270
  224MOL0     H30885   2.674   2.703   8.361 -1.4588 -1.9252  0.1265
  224MOL0     H30886   2.697   2.868   8.618 -2.2383  3.5600  0.1316
  224MOL0     H30887   2.549   2.790   8.563  0.3170 -0.1018  0.8259
  224MOL0     H30888   2.553   3.006   8.464 -0.7457 -0.8753  1.5909
  224MOL0     H30889   2.624   2.916   8.324  0.9819 -0.9935  0.6277
  224MOL0     H30890   2.803   3.058   8.332  1.2351 -2.6683 -0.3686
  224MOL0     H30891   2.854   2.967   8.474 -1.3776 -1.5702  0.7111
  224MOL0     H30892   2.966   2.055   8.277  2.3745 -1.7924  1.5342
  224MOL0     H30893   3.070   1.897   8.120  0.9260 -0.4251  0.2897
  224MOL0     H30894   3.397   1.766   7.912 -3.9850  0.5509 -1.4826
  224MOL0     H30895   3.511   1.589   7.793  2.3850  1.2488  0.1061
  224MOL0     H30896   4.584   1.374   8.141 -0.3442 -0.3196 -0.2864
  224MOL0     H30897   4.678   1.564   8.251 -0.0727  1.2500 -0.7417
  224MOL0     H30898   5.061   1.473   8.622 -0.4345 -0.8144 -2.0728
  224MOL0     H30899   5.095   1.587   8.827  0.2839 -2.2430 -2.5244
  224MOL0     H30900   5.060   1.699   9.012  0.0568 -0.3838 -0.2015
  224MOL0     H30901   5.206   1.750   8.942  0.5974  2.8390 -2.5758
  224MOL0     H30902   5.181   1.835   9.190 -4.0144  0.1227  1.3928
  224MOL0     H30903   5.041   1.913   9.133  0.7936  1.9717  2.9846
  224MOL0     H30904   5.315   1.968   8.995 -3.0496 -1.7639 -1.4981
  224MOL0     H30905   5.166   2.061   8.993 -2.1020 -0.2842  0.9625
  224MOL0     H30906   5.321   1.987   9.258  0.6662  1.8639  1.7707
  224MOL0     H30907   5.203   2.125   9.224 -2.0524 -0.9337 -1.8175
  224MOL0     H30908   5.557   2.319   9.160  0.0107 -1.5431  0.4186
  224MOL0     H30909   5.018   1.960   8.649  1.5239  0.2151  0.2393
  224MOL0     H30910   5.037   1.856   8.308 -2.2314  1.0128 -2.4744
  224MOL0     H30911   4.862   1.867   8.359 -1.6498  0.3700  1.8349
  224MOL0     H30912   4.982   1.986   8.428 -0.0488 -1.3744  2.4102
  225MOL0     O30913   2.787   5.806  10.952 -0.8436  0.5501 -0.3957
  225MOL0     C30914   2.750   5.707  11.015  0.3487 -0.9879  0.0997
  225MOL0     O30915   2.622   5.660  11.027 -0.4606 -0.9211  0.4388
  225MOL0     C30916   2.522   5.693  10.936 -0.9844 -0.2257  0.3208
  225MOL0     C30917   2.446   5.809  10.951  1.1861 -0.0715  1.2428
  225MOL0     C30918   2.340   5.840  10.864  0.6085 -0.3456  0.5071
  225MOL0     C30919   2.297   5.743  10.775  0.1220  0.3767 -0.3344
  225MOL0     O30920   2.185   5.762  10.710  0.3048  0.3379 -0.3095
  225MOL0     C30921   2.094   5.658  10.708 -0.1659  0.1896 -0.4482
  225MOL0     C30922   1.969   5.691  10.623 -0.0472 -0.3867 -0.0696
  225MOL0     C30923   1.860   5.594  10.641  0.3437  0.5501 -0.0414
  225MOL0     C30924   1.779   5.603  10.764  0.1057 -0.5153 -0.4338
  225MOL0     C30925   1.681   5.490  10.789  0.2118 -0.3890  0.0387
  225MOL0     C30926   1.605   5.523  10.916  0.1344  0.6763 -0.3643
  225MOL0     C30927   1.701   5.499  11.042  1.1451  0.3399  0.1175
  225MOL0     C30928   1.708   5.359  11.090 -0.2134  0.5033 -0.0134
  225MOL0     N30929   1.739   5.341  11.237  0.4102 -0.3731  0.3486
  225MOL0     C30930   1.860   5.318  11.296 -0.0559 -0.0796 -0.0796
  225MOL0     C30931   1.831   5.308  11.423  0.1450 -0.5618 -0.0383
  225MOL0     C30932   1.913   5.233  11.523  0.6036  0.8805  0.0955
  225MOL0     C30933   1.868   5.079  11.532  0.7358 -0.7055 -0.7761
  225MOL0     C30934   1.964   4.994  11.437 -0.7896 -0.5981 -1.0393
  225MOL0     C30935   1.930   4.856  11.441  1.1808  0.4780 -0.3249
  225MOL0     O30936   2.007   4.758  11.372 -0.1078  0.3946  0.2292
  225MOL0     C30937   2.116   4.690  11.446  0.3303 -0.9206 -0.4086
  225MOL0     C30938   2.187   4.587  11.389  0.5539  0.5266  0.5890
  225MOL0     C30939   2.299   4.524  11.450 -0.9425  1.0120  0.2538
  225MOL0     C30940   2.359   4.402  11.373 -0.1037  0.1399  0.4740
  225MOL0     C30941   2.352   4.587  11.561  0.2021  0.6824  0.8324
  225MOL0     C30942   2.478   4.542  11.626 -0.6828 -0.2161 -0.1273
  225MOL0     O30943   2.560   4.461  11.550  0.4792  0.3647  0.8909
  225MOL0     C30944   2.691   4.436  11.588 -0.3957  0.5311  0.0845
  225MOL0     C30945   2.712   4.309  11.624 -0.1736 -0.5005 -1.0995
  225MOL0     C30946   2.833   4.269  11.682  0.2828  0.3234 -0.2075
  225MOL0     C30947   2.945   4.360  11.694  0.2605  1.3532  0.5562
  225MOL0     O30948   3.076   4.335  11.742 -0.1538 -0.0596 -0.0261
  225MOL0     C30949   3.106   4.192  11.759  0.1345 -1.0742 -0.4375
  225MOL0     C30950   3.249   4.159  11.783  0.1642 -0.3679 -0.9655
  225MOL0     C30951   3.311   4.196  11.917  0.8991  0.1820  0.0763
  225MOL0     C30952   3.456   4.163  11.930 -0.1568 -0.1929  0.6809
  225MOL0     C30953   3.509   4.210  12.067 -1.0464  0.5476 -0.9151
  225MOL0     C30954   3.655   4.239  12.069 -0.7886  0.3264 -0.1100
  225MOL0     C30955   3.699   4.307  12.202  0.3231 -0.3041  0.0452
  225MOL0     C30956   3.843   4.312  12.219  0.2056  0.1202  0.0459
  225MOL0    Cl30957   3.937   4.163  12.267 -0.5032 -0.0575 -0.2789
  225MOL0     C30958   2.925   4.485  11.638 -0.1230  0.6883 -1.0047
  225MOL0     C30959   2.801   4.523  11.591  0.6802  0.0643 -1.2391
  225MOL0     O30960   2.512   4.593  11.730 -0.4227 -0.0281 -0.5187
  225MOL0     C30961   2.286   4.694  11.627 -0.1616  0.1144  0.2394
  225MOL0     C30962   2.163   4.732  11.571 -0.1061 -0.9898  0.3576
  225MOL0     N30963   1.700   5.331  11.444  1.1583 -0.3753  0.0427
  225MOL0     N30964   1.647   5.372  11.328 -0.0059  0.2033  0.8977
  225MOL0     C30965   2.369   5.614  10.760 -0.7166 -0.1328  0.1696
  225MOL0     C30966   2.479   5.596  10.845  0.3638  0.4857 -0.4359
  225MOL0     C30967   2.855   5.638  11.103  0.6570  0.1671 -0.9621
  225MOL0     C30968   2.802   5.595  11.233  0.3359  0.0361 -0.3455
  225MOL0     C30969   2.897   5.561  11.333  0.2477  0.7948  0.3157
  225MOL0     C30970   3.032   5.549  11.310  0.0513 -0.2690 -0.3049
  225MOL0     O30971   3.108   5.517  11.415  0.1187  0.5225 -0.5037
  225MOL0     C30972   3.253   5.531  11.412  0.5890  0.2567  0.0162
  225MOL0     C30973   3.327   5.535  11.549 -0.0067  0.4388 -0.0596
  225MOL0     C30974   3.326   5.398  11.629  0.1794  1.0602 -0.4881
  225MOL0     C30975   3.339   5.431  11.774  0.2786 -0.3887  0.2259
  225MOL0     C30976   3.469   5.484  11.806  0.9149 -0.2285 -0.7707
  225MOL0     C30977   3.578   5.531  11.844  0.1161 -0.1841  0.0457
  225MOL0     C30978   3.082   5.582  11.185  0.0683 -0.3637  0.6767
  225MOL0     C30979   2.994   5.623  11.076 -0.0366 -0.7173 -1.3486
  225MOL0     C30980   3.053   5.664  10.942 -0.2088 -1.3141 -1.3019
  225MOL0     H30981   2.477   5.879  11.027  1.1967 -0.5655  1.7010
  225MOL0     H30982   2.283   5.931  10.879  0.5837 -0.4655  1.1834
  225MOL0     H30983   2.064   5.645  10.813  2.6657  0.6105  0.5098
  225MOL0     H30984   2.127   5.557  10.681  3.0800  1.3794 -1.4434
  225MOL0     H30985   1.920   5.786  10.647 -3.6556 -2.1949  0.3310
  225MOL0     H30986   1.996   5.688  10.517  0.1450 -1.0116 -0.0038
  225MOL0     H30987   1.790   5.589  10.558 -0.1682  0.0691  0.4037
  225MOL0     H30988   1.907   5.497  10.663  0.2701  0.7168  0.9150
  225MOL0     H30989   1.848   5.617  10.848 -0.2347 -2.4174  0.2132
  225MOL0     H30990   1.720   5.693  10.744 -0.9421 -1.0146  0.2851
  225MOL0     H30991   1.740   5.398  10.794  0.4928 -0.1538  1.5191
  225MOL0     H30992   1.620   5.497  10.698  0.5836 -2.0281 -0.3742
  225MOL0     H30993   1.563   5.624  10.908 -3.7716 -0.3774  2.9397
  225MOL0     H30994   1.515   5.461  10.921  0.2556  0.5453  0.3115
  225MOL0     H30995   1.660   5.552  11.129  1.8220 -2.0119  1.9591
  225MOL0     H30996   1.799   5.541  11.022  0.7470  1.2712  0.0617
  225MOL0     H30997   1.614   5.315  11.054 -0.2731  1.6912 -1.4246
  225MOL0     H30998   1.797   5.328  11.035 -0.4901 -0.6376  0.1626
  225MOL0     H30999   1.955   5.306  11.245 -1.3247 -0.7188 -2.4118
  225MOL0     H31000   1.892   5.270  11.624  0.9291  4.5280 -1.0174
  225MOL0     H31001   2.020   5.239  11.501  0.9134 -1.3522  0.6861
  225MOL0     H31002   1.869   5.045  11.636  0.6434  1.0764 -0.1596
  225MOL0     H31003   1.762   5.057  11.514  0.7000 -0.0827 -1.3696
  225MOL0     H31004   1.957   5.037  11.337 -2.6377 -0.9450 -1.0991
  225MOL0     H31005   2.063   5.004  11.482 -1.9194 -1.4676  1.9353
  225MOL0     H31006   1.927   4.829  11.547  0.4929  3.2212  0.4377
  225MOL0     H31007   1.830   4.845  11.400  0.6244 -0.7180  1.2301
  225MOL0     H31008   2.158   4.554  11.290  0.1381  1.9865  0.2002
  225MOL0     H31009   2.426   4.435  11.294 -1.1248 -0.6902 -0.7881
  225MOL0     H31010   2.273   4.354  11.325  0.9551  0.9697 -2.4436
  225MOL0     H31011   2.407   4.331  11.441 -1.0639 -2.4945 -1.4098
  225MOL0     H31012   2.631   4.239  11.606  2.1850 -2.8192 -3.7884
  225MOL0     H31013   2.862   4.175  11.727  0.7410  1.8001  2.8212
  225MOL0     H31014   3.053   4.153  11.847 -2.5049  0.3976 -1.2542
  225MOL0     H31015   3.058   4.137  11.677 -2.2092 -2.5763  1.7722
  225MOL0     H31016   3.267   4.058  11.746 -3.9030 -0.5210 -3.1421
  225MOL0     H31017   3.299   4.224  11.710 -2.3429  1.7022 -1.0073
  225MOL0     H31018   3.251   4.144  11.993 -1.9581 -1.8774 -3.2759
  225MOL0     H31019   3.307   4.304  11.934  2.8157  0.4978 -1.2248
  225MOL0     H31020   3.504   4.210  11.844 -0.7076 -1.6103 -0.4339
  225MOL0     H31021   3.478   4.056  11.925  0.6750 -0.0109 -3.7711
  225MOL0     H31022   3.461   4.308  12.073 -2.7079  0.2228 -5.2821
  225MOL0     H31023   3.476   4.149  12.151  1.5214  2.0164  1.3281
  225MOL0     H31024   3.674   4.304  11.983 -1.7256 -0.1880 -0.7136
  225MOL0     H31025   3.701   4.143  12.046 -0.3607  1.3897 -4.5438
  225MOL0     H31026   3.647   4.255  12.283 -0.9146  0.5249 -0.1933
  225MOL0     H31027   3.662   4.410  12.202  1.8997  0.3167 -1.3546
  225MOL0     H31028   3.855   4.374  12.309 -2.2403 -0.1444  0.6294
  225MOL0     H31029   3.888   4.359  12.132  1.2584  0.8571  0.9580
  225MOL0     H31030   2.989   4.572  11.646 -0.3568  1.2443 -3.9815
  225MOL0     H31031   2.792   4.630  11.573  2.0551  0.6286  0.8952
  225MOL0     H31032   2.326   4.755  11.706 -1.5665  2.4916 -0.7773
  225MOL0     H31033   2.106   4.811  11.619 -1.2591 -2.2125  1.0757
  225MOL0     H31034   2.335   5.533  10.696 -1.0071 -3.4094  4.0162
  225MOL0     H31035   2.520   5.495  10.847 -0.6956  0.0568  1.2379
  225MOL0     H31036   2.695   5.588  11.252  0.3690 -0.4597 -0.3205
  225MOL0     H31037   2.854   5.501  11.412 -2.2792  1.7660 -0.2453
  225MOL0     H31038   3.298   5.450  11.354  2.3791 -0.6254  2.4625
  225MOL0     H31039   3.263   5.628  11.363 -0.6195 -0.2553 -1.3182
  225MOL0     H31040   3.281   5.610  11.614  2.0662  1.6963  0.0213
  225MOL0     H31041   3.431   5.556  11.524  0.2886  0.3726  1.0687
  225MOL0     H31042   3.229   5.353  11.608 -0.0999  0.9586  0.9496
  225MOL0     H31043   3.398   5.328  11.586 -0.5039 -1.1354  1.6797
  225MOL0     H31044   3.309   5.338  11.822  1.6685 -1.6730 -1.2721
  225MOL0     H31045   3.274   5.514  11.803 -0.5551 -1.7085  2.3044
  225MOL0     H31046   3.667   5.581  11.874  0.6385  0.5913 -2.5775
  225MOL0     H31047   3.187   5.572  11.158 -0.4460  0.5791 -2.0882
  225MOL0     H31048   3.151   5.616  10.929  1.3109  1.7187 -1.9039
  225MOL0     H31049   2.990   5.631  10.858  0.3961 -0.3154 -2.1815
  225MOL0     H31050   3.068   5.771  10.930 -0.4289 -1.4087 -2.6168
  226MOL0     O31051   5.957   2.309   2.595  0.1310 -0.6338  0.7590
  226MOL0     C31052   6.026   2.266   2.507  0.2791 -0.0800 -0.3237
  226MOL0     O31053   6.005   2.265   2.373 -0.0571 -0.0846 -0.3113
  226MOL0     C31054   5.903   2.341   2.316 -0.8372  0.0027 -0.5496
  226MOL0     C31055   5.925   2.467   2.270  0.7934 -0.6924  0.6205
  226MOL0     C31056   5.827   2.535   2.196 -0.1568  0.6113 -0.8413
  226MOL0     C31057   5.704   2.472   2.171 -0.1819 -0.6455  0.3323
  226MOL0     O31058   5.610   2.547   2.097  0.2643  0.9369 -0.5653
  226MOL0     C31059   5.570   2.667   2.176 -0.5836  0.2888 -0.3746
  226MOL0     C31060   5.429   2.720   2.141 -0.0501  0.7429  0.6329
  226MOL0     C31061   5.395   2.851   2.224  0.1567 -1.2119  1.1164
  226MOL0     C31062   5.461   2.972   2.154  0.1919  0.1426  0.2699
  226MOL0     C31063   5.425   3.095   2.222 -0.0776 -0.6601  0.9253
  226MOL0     C31064   5.496   3.226   2.168 -0.2985 -0.1670 -0.8841
  226MOL0     C31065   5.444   3.288   2.038 -0.5526 -1.0328 -0.2817
  226MOL0     C31066   5.459   3.441   2.033  0.5552  0.3372  0.4607
  226MOL0     N31067   5.600   3.482   2.010  0.6958  0.7008  0.1263
  226MOL0     C31068   5.689   3.498   2.123 -0.5580  0.7972  0.0212
  226MOL0     C31069   5.800   3.533   2.061 -0.5446  0.0727 -0.3321
  226MOL0     C31070   5.935   3.553   2.133 -0.5026  0.7523 -0.7998
  226MOL0     C31071   6.043   3.448   2.101  0.4698 -0.0114 -0.7664
  226MOL0     C31072   6.168   3.452   2.195  0.6189 -0.1332 -0.4915
  226MOL0     C31073   6.262   3.343   2.161 -0.2459  0.5125  0.4341
  226MOL0     O31074   6.322   3.375   2.037 -0.1950 -0.1161  0.2103
  226MOL0     C31075   6.427   3.302   1.982  0.2478 -0.0900  0.7044
  226MOL0     C31076   6.508   3.366   1.883  0.7126  0.0983  0.2043
  226MOL0     C31077   6.611   3.304   1.811  0.2675 -0.6633  0.4127
  226MOL0     C31078   6.687   3.385   1.711  0.4068  0.2017  0.0627
  226MOL0     C31079   6.653   3.172   1.853 -0.1337  0.1164  0.1966
  226MOL0     C31080   6.767   3.103   1.791 -0.4517 -0.5762  0.7283
  226MOL0     O31081   6.831   3.018   1.867 -0.1544  1.2684  0.6546
  226MOL0     C31082   6.964   2.983   1.819 -0.2080  0.6015  0.3603
  226MOL0     C31083   7.074   3.072   1.829  0.1867  0.6616  0.2843
  226MOL0     C31084   7.195   3.040   1.771 -0.8287 -0.4511 -0.7307
  226MOL0     C31085   7.218   2.925   1.709 -0.1896  0.3198  0.9900
  226MOL0     O31086   7.348   2.894   1.659 -0.1197 -0.2338  0.0208
  226MOL0     C31087   7.456   2.916   1.752  0.0798  0.7939  0.8019
  226MOL0     C31088   7.550   2.791   1.767  0.1443 -0.6559  0.7224
  226MOL0     C31089   7.471   2.655   1.796 -0.5109 -0.7088  0.5281
  226MOL0     C31090   7.453   2.568   1.669  0.5284 -0.9543  0.0221
  226MOL0     C31091   7.373   2.445   1.696 -0.8079  0.2194 -0.3241
  226MOL0     C31092   7.310   2.385   1.571 -1.6151 -0.2834 -0.4287
  226MOL0     C31093   7.168   2.428   1.548  0.6123  0.0325 -1.2155
  226MOL0     C31094   7.138   2.438   1.402 -0.3634 -0.1196 -0.3864
  226MOL0    Cl31095   6.980   2.507   1.377  0.1087 -0.1262 -0.4596
  226MOL0     C31096   7.117   2.828   1.701 -0.8677  0.8545 -1.3211
  226MOL0     C31097   6.995   2.861   1.764 -0.8106 -0.5900  0.1315
  226MOL0     O31098   6.806   3.140   1.682  0.6799  0.4755  0.7626
  226MOL0     C31099   6.582   3.116   1.964  0.4949 -0.0053  0.4075
  226MOL0     C31100   6.473   3.178   2.025 -0.0335 -0.1269 -0.0327
  226MOL0     N31101   5.786   3.549   1.926  0.2975 -0.0864  0.0784
  226MOL0     N31102   5.667   3.515   1.896  0.4330 -0.1919  0.6719
  226MOL0     C31103   5.676   2.348   2.228 -0.8897 -0.2603  0.0444
  226MOL0     C31104   5.776   2.276   2.295 -0.4200 -0.3348 -0.0964
  226MOL0     C31105   6.161   2.221   2.539  0.2031  0.0186 -0.0427
  226MOL0     C31106   6.162   2.155   2.672  0.6455  0.2961 -0.5009
  226MOL0     C31107   6.291   2.087   2.707  0.5722 -0.7705 -0.0275
  226MOL0     C31108   6.402   2.090   2.621 -0.1815 -0.3722 -0.1268
  226MOL0     O31109   6.526   2.024   2.643  0.2716  0.1870 -0.0838
  226MOL0     C31110   6.542   1.933   2.757 -0.4000 -0.0541  0.0480
  226MOL0     C31111   6.692   1.877   2.758  0.3582 -0.1008 -0.3223
  226MOL0     C31112   6.719   1.769   2.856 -0.6282 -0.5896 -0.0140
  226MOL0     C31113   6.858   1.707   2.841 -1.4671 -0.4538  0.5275
  226MOL0     C31114   6.898   1.628   2.960 -0.2373 -0.1264  0.5171
  226MOL0     C31115   6.964   1.560   3.040 -0.1992 -0.6729  0.2249
  226MOL0     C31116   6.394   2.160   2.501 -0.8003  0.3443  0.6602
  226MOL0     C31117   6.279   2.228   2.459 -0.3715  0.3733  0.7152
  226MOL0     C31118   6.288   2.314   2.333  0.9822  1.4460 -0.1056
  226MOL0     H31119   6.021   2.514   2.290  1.2460 -2.3174  2.4205
  226MOL0     H31120   5.848   2.631   2.150  1.9705  1.4000  1.5248
  226MOL0     H31121   5.637   2.745   2.137 -2.2220  0.9483 -2.0239
  226MOL0     H31122   5.592   2.645   2.281  1.0519  1.4994 -0.4202
  226MOL0     H31123   5.417   2.730   2.033 -0.5323 -0.8547  0.5138
  226MOL0     H31124   5.358   2.643   2.173  1.3362 -0.5273  0.7613
  226MOL0     H31125   5.286   2.856   2.220  0.2367  0.3508 -0.6780
  226MOL0     H31126   5.428   2.855   2.328  1.6672 -1.2433  0.6713
  226MOL0     H31127   5.569   2.958   2.162 -0.0495 -1.4269  1.1057
  226MOL0     H31128   5.430   2.982   2.050 -3.2487  0.9244  1.2589
  226MOL0     H31129   5.458   3.072   2.323  0.4923 -2.1233  0.4252
  226MOL0     H31130   5.317   3.102   2.209 -0.2395 -2.9983  0.6135
  226MOL0     H31131   5.478   3.299   2.248  0.6990  1.0875 -1.7621
  226MOL0     H31132   5.603   3.211   2.155 -0.2235 -0.7435  0.2847
  226MOL0     H31133   5.336   3.270   2.029 -0.4324 -1.8496 -0.1681
  226MOL0     H31134   5.497   3.240   1.956 -0.8991  0.5705 -1.4838
  226MOL0     H31135   5.395   3.468   1.949  0.8806 -2.2507 -0.6955
  226MOL0     H31136   5.414   3.480   2.125 -0.6048  2.2296 -0.8372
  226MOL0     H31137   5.671   3.473   2.227  2.1382 -0.0878  0.3345
  226MOL0     H31138   5.923   3.537   2.240  2.6846  0.5560 -0.3748
  226MOL0     H31139   5.988   3.648   2.118  2.7140 -0.8049 -0.1299
  226MOL0     H31140   6.002   3.347   2.105 -0.0566  0.2477  1.4098
  226MOL0     H31141   6.071   3.456   1.995  1.4218 -0.6741 -0.5749
  226MOL0     H31142   6.213   3.551   2.204 -3.4679  1.7716  1.2336
  226MOL0     H31143   6.125   3.444   2.295  2.2074  1.0322  0.3277
  226MOL0     H31144   6.335   3.336   2.243  1.3840 -2.6097 -1.0793
  226MOL0     H31145   6.214   3.245   2.168  2.4209 -0.8649  1.1342
  226MOL0     H31146   6.479   3.466   1.851 -0.8915 -0.9206 -1.8166
  226MOL0     H31147   6.675   3.346   1.610 -0.9179 -0.1562  0.3293
  226MOL0     H31148   6.793   3.385   1.738  1.3122  1.3742 -3.1084
  226MOL0     H31149   6.661   3.491   1.705  0.7083  0.1696 -2.7770
  226MOL0     H31150   7.050   3.161   1.887  0.4954  1.6944 -1.1182
  226MOL0     H31151   7.272   3.111   1.801  1.3220 -2.0738 -2.1115
  226MOL0     H31152   7.508   3.008   1.723  0.6483  1.5732  3.8853
  226MOL0     H31153   7.413   2.915   1.853 -0.5625  0.9377  0.5359
  226MOL0     H31154   7.615   2.774   1.681  2.5051 -0.4792  2.3864
  226MOL0     H31155   7.609   2.823   1.853  0.4886 -1.1610  0.6737
  226MOL0     H31156   7.380   2.671   1.853 -0.6604 -2.3585  0.8041
  226MOL0     H31157   7.526   2.593   1.867 -0.8055 -0.1449  1.2628
  226MOL0     H31158   7.556   2.538   1.643  1.3357 -2.7583  4.4719
  226MOL0     H31159   7.400   2.621   1.589  0.0199 -2.4106 -0.6354
  226MOL0     H31160   7.426   2.368   1.752 -3.0612  0.8022  2.9432
  226MOL0     H31161   7.291   2.467   1.766  0.6540 -0.9726  1.8927
  226MOL0     H31162   7.315   2.277   1.587  0.5978  0.2770  4.2252
  226MOL0     H31163   7.377   2.397   1.485 -0.2625 -1.9880  0.3338
  226MOL0     H31164   7.163   2.521   1.607 -1.1532 -0.7792  0.0275
  226MOL0     H31165   7.101   2.351   1.588  1.0265 -0.2101 -0.9899
  226MOL0     H31166   7.138   2.343   1.348 -0.0323  0.9676 -2.4237
  226MOL0     H31167   7.215   2.494   1.347 -0.9542 -2.1318 -3.5492
  226MOL0     H31168   7.134   2.732   1.654 -3.8798  0.2889 -1.4658
  226MOL0     H31169   6.915   2.794   1.732  0.2786 -1.5920 -0.5580
  226MOL0     H31170   6.605   3.017   2.001 -0.9603 -0.5048  0.0350
  226MOL0     H31171   6.426   3.125   2.107  2.4712 -0.3397  1.3639
  226MOL0     H31172   5.574   2.312   2.216 -1.1854  0.9322 -1.2767
  226MOL0     H31173   5.766   2.171   2.321  0.2655  0.0781  2.0548
  226MOL0     H31174   6.081   2.160   2.744  2.6539  2.1091  1.7953
  226MOL0     H31175   6.291   2.032   2.800 -0.6585  0.1272  0.5275
  226MOL0     H31176   6.522   1.993   2.846 -0.2446  0.2486 -0.1190
  226MOL0     H31177   6.463   1.857   2.753  0.8896 -1.4747  0.7250
  226MOL0     H31178   6.768   1.953   2.781  1.4780 -0.8021 -1.5479
  226MOL0     H31179   6.704   1.838   2.657 -0.7386  0.3462 -0.6400
  226MOL0     H31180   6.717   1.816   2.955 -0.7720 -3.1820  1.2954
  226MOL0     H31181   6.641   1.693   2.857 -2.5700  1.2809  1.3713
  226MOL0     H31182   6.933   1.786   2.830 -1.4577 -0.7222 -1.8258
  226MOL0     H31183   6.858   1.644   2.751  1.2244  2.3304 -1.6400
  226MOL0     H31184   7.026   1.493   3.096 -0.3606 -3.3622 -2.5377
  226MOL0     H31185   6.485   2.157   2.442 -1.5185 -0.8676 -0.4467
  226MOL0     H31186   6.216   2.396   2.339 -1.0003 -0.2529  0.9359
  226MOL0     H31187   6.385   2.361   2.317  2.3435 -1.9984 -3.3284
  226MOL0     H31188   6.255   2.252   2.250 -0.3048  2.2606 -0.2261
  227MOL0     O31189   3.293   7.949  10.197 -0.0955 -0.4755 -0.1692
  227MOL0     C31190   3.229   7.856  10.242  1.0446 -0.4431  0.9875
  227MOL0     O31191   3.262   7.779  10.354 -0.8510  0.1414  0.5557
  227MOL0     C31192   3.394   7.803  10.384  0.4324  1.1262 -1.3143
  227MOL0     C31193   3.433   7.897  10.479  0.7306  0.0389  0.4932
  227MOL0     C31194   3.570   7.913  10.517 -0.0495  0.6023  0.4808
  227MOL0     C31195   3.664   7.849  10.444 -0.1335 -0.0005  0.5490
  227MOL0     O31196   3.788   7.877  10.464  0.4906  0.6730 -0.8430
  227MOL0     C31197   3.834   7.861  10.603  0.3128  0.7739 -0.0786
  227MOL0     C31198   3.986   7.828  10.595  1.2671  0.5239  0.4537
  227MOL0     C31199   4.053   7.788  10.730  0.1979 -0.4308 -0.4432
  227MOL0     C31200   4.012   7.883  10.848 -0.5467 -0.0285 -0.0884
  227MOL0     C31201   4.112   7.878  10.967  0.4056  0.6096  0.0837
  227MOL0     C31202   4.074   7.971  11.082 -0.8671 -0.6414 -0.1512
  227MOL0     C31203   4.131   7.917  11.214  0.0091  0.2109  1.0064
  227MOL0     C31204   4.072   7.970  11.334 -0.4631  0.3081 -0.8579
  227MOL0     N31205   4.069   8.117  11.346 -0.3534  0.4753 -1.4362
  227MOL0     C31206   4.074   8.183  11.474 -0.4983  0.3123  0.7730
  227MOL0     C31207   4.081   8.311  11.434 -0.4889 -0.6684  0.1558
  227MOL0     C31208   4.101   8.430  11.525  0.6961 -0.7037  0.2062
  227MOL0     C31209   4.000   8.444  11.642  0.0643  1.4799 -0.3552
  227MOL0     C31210   4.031   8.576  11.712 -0.3137  0.3914 -0.0328
  227MOL0     C31211   3.934   8.608  11.825 -0.2381 -0.4693  0.4862
  227MOL0     O31212   3.900   8.497  11.902 -0.4377 -0.1612 -0.7285
  227MOL0     C31213   3.780   8.503  11.966  0.6337 -0.4578 -0.3011
  227MOL0     C31214   3.660   8.466  11.908  1.1984  0.6309  0.0108
  227MOL0     C31215   3.538   8.456  11.986 -0.5737 -0.3367  0.2752
  227MOL0     C31216   3.411   8.438  11.905 -0.5832 -0.9777 -0.8406
  227MOL0     C31217   3.537   8.472  12.129 -1.2288  0.2678  0.1401
  227MOL0     C31218   3.426   8.478  12.225  0.4122 -0.3375 -0.2151
  227MOL0     O31219   3.458   8.437  12.355 -0.0552 -0.3612 -0.2046
  227MOL0     C31220   3.357   8.439  12.444 -0.0958 -0.6431  0.0567
  227MOL0     C31221   3.340   8.325  12.521  0.9067  0.4133 -0.5152
  227MOL0     C31222   3.245   8.319  12.613  1.3383 -0.5001  0.3207
  227MOL0     C31223   3.174   8.436  12.653  0.6195  0.2278  0.0227
  227MOL0     O31224   3.080   8.448  12.745  0.9005  0.2495  0.4014
  227MOL0     C31225   3.053   8.334  12.835  0.3633 -0.5276 -0.6741
  227MOL0     C31226   2.956   8.400  12.941  0.4441 -0.3634  0.5655
  227MOL0     C31227   3.037   8.507  13.016 -0.3104 -0.6339 -0.0334
  227MOL0     C31228   3.131   8.439  13.123  0.6760 -0.7314 -0.3733
  227MOL0     C31229   3.275   8.494  13.120  0.1352 -0.0383 -0.6620
  227MOL0     C31230   3.277   8.637  13.175  0.0316 -0.0286 -0.4257
  227MOL0     C31231   3.416   8.680  13.221 -0.4731  0.9267 -0.6540
  227MOL0     C31232   3.411   8.820  13.277 -0.5537  0.6206 -0.3417
  227MOL0    Cl31233   3.578   8.865  13.336 -0.0618 -0.0477  0.0276
  227MOL0     C31234   3.193   8.557  12.574 -0.3111 -0.4869 -0.4515
  227MOL0     C31235   3.290   8.557  12.471  0.6894 -0.9084 -0.1362
  227MOL0     O31236   3.314   8.497  12.185 -0.0153  0.4806  0.3756
  227MOL0     C31237   3.658   8.515  12.185 -0.2151 -0.2688  1.0614
  227MOL0     C31238   3.778   8.522  12.105  0.0095 -0.0880  0.1828
  227MOL0     N31239   4.063   8.323  11.300  0.7456  0.0825  0.3032
  227MOL0     N31240   4.051   8.210  11.250 -1.0935  0.3149  0.0769
  227MOL0     C31241   3.628   7.769  10.331  0.0951 -0.7594 -0.7835
  227MOL0     C31242   3.494   7.739  10.311 -0.2989  0.0550 -0.1874
  227MOL0     C31243   3.104   7.817  10.171 -0.3820  0.3563  0.1500
  227MOL0     C31244   2.985   7.795  10.247 -0.8587  0.0096  0.7398
  227MOL0     C31245   2.864   7.786  10.181  0.0394  0.2433 -0.2464
  227MOL0     C31246   2.856   7.802  10.042  0.5197 -0.8620 -0.6248
  227MOL0     O31247   2.735   7.783   9.979  0.4194  0.0366 -0.0196
  227MOL0     C31248   2.605   7.796  10.050 -0.1866  0.7409 -0.2276
  227MOL0     C31249   2.505   7.816   9.942  0.2162 -0.3934 -0.5945
  227MOL0     C31250   2.486   7.685   9.853  0.1739  0.1857 -1.0980
  227MOL0     C31251   2.378   7.693   9.749  0.9484  0.0002 -0.7642
  227MOL0     C31252   2.390   7.569   9.674 -0.5059  0.5167 -0.3631
  227MOL0     C31253   2.380   7.472   9.599  0.1724 -1.0213  0.3258
  227MOL0     C31254   2.975   7.806   9.971  0.5371  0.2987 -1.3167
  227MOL0     C31255   3.100   7.819  10.029 -0.6341 -0.6832 -0.5942
  227MOL0     C31256   3.227   7.818   9.951 -0.1295 -0.6144 -0.1231
  227MOL0     H31257   3.353   7.951  10.527 -1.2821  0.5092 -2.9975
  227MOL0     H31258   3.604   7.991  10.584 -1.8818  1.4685  0.4689
  227MOL0     H31259   3.773   7.793  10.663  1.5437 -0.7435 -0.4882
  227MOL0     H31260   3.832   7.959  10.650  2.7638 -0.0799  2.0392
  227MOL0     H31261   3.989   7.739  10.532 -0.1994 -0.2735  1.4554
  227MOL0     H31262   4.035   7.916  10.553 -2.9325  3.4065  0.9654
  227MOL0     H31263   4.028   7.683  10.749 -0.0670 -0.4115 -0.6736
  227MOL0     H31264   4.163   7.785  10.724  0.2804  0.2687  0.5924
  227MOL0     H31265   4.002   7.986  10.814  2.0580  0.8513  1.5679
  227MOL0     H31266   3.915   7.848  10.884 -0.4780 -0.8670 -0.6673
  227MOL0     H31267   4.219   7.891  10.946  0.7931  0.5567  1.8902
  227MOL0     H31268   4.095   7.779  11.010 -1.2003  1.4235  1.4108
  227MOL0     H31269   4.104   8.072  11.052  0.9450 -1.3955 -1.0032
  227MOL0     H31270   3.965   7.970  11.091 -0.9574 -0.4947 -1.1460
  227MOL0     H31271   4.240   7.926  11.217  0.0176  2.1905 -1.3501
  227MOL0     H31272   4.110   7.810  11.224 -0.8715  0.4493  1.8150
  227MOL0     H31273   3.973   7.929  11.356 -0.2590  1.8879  4.3579
  227MOL0     H31274   4.132   7.938  11.420 -1.5439 -2.4032 -1.0017
  227MOL0     H31275   4.075   8.132  11.569  2.3621  1.1507  1.2759
  227MOL0     H31276   4.088   8.515  11.457 -4.7688 -0.8998  0.5799
  227MOL0     H31277   4.196   8.435  11.579 -0.5491  0.2217  2.4348
  227MOL0     H31278   3.902   8.448  11.594  0.4726  1.1135 -1.2522
  227MOL0     H31279   3.997   8.355  11.705 -1.7055  0.6685 -1.4915
  227MOL0     H31280   4.136   8.585  11.741 -0.5701  0.1869  0.9914
  227MOL0     H31281   4.026   8.658  11.640  0.0313  3.6987  3.4047
  227MOL0     H31282   3.968   8.691  11.887  0.5800 -1.2052  1.0505
  227MOL0     H31283   3.849   8.653  11.772 -1.1148  0.4275  2.5573
  227MOL0     H31284   3.650   8.468  11.800 -2.5944  1.4049  0.2437
  227MOL0     H31285   3.339   8.520  11.916 -0.1345 -0.8205  1.2789
  227MOL0     H31286   3.358   8.347  11.933 -0.4606 -0.7900  0.0070
  227MOL0     H31287   3.433   8.432  11.798 -1.2116  0.3558 -1.0601
  227MOL0     H31288   3.403   8.243  12.488  2.9964  0.5717  2.6261
  227MOL0     H31289   3.230   8.227  12.668 -1.0326  0.1374  0.8743
  227MOL0     H31290   3.003   8.251  12.785 -2.6469  0.9859 -0.3545
  227MOL0     H31291   3.148   8.298  12.878  0.5996 -0.1848 -0.8988
  227MOL0     H31292   2.883   8.455  12.880 -2.8453 -0.8767  3.7397
  227MOL0     H31293   2.899   8.331  13.003 -2.2507  1.7850  0.6347
  227MOL0     H31294   2.969   8.570  13.075 -2.2101  0.0743 -2.7886
  227MOL0     H31295   3.097   8.570  12.950 -1.8422  0.9095 -0.0411
  227MOL0     H31296   3.130   8.330  13.135  1.5758 -0.4661  3.6066
  227MOL0     H31297   3.099   8.473  13.221  2.2760  0.8244 -0.3347
  227MOL0     H31298   3.345   8.429  13.172 -0.5888 -0.1276  0.2251
  227MOL0     H31299   3.313   8.493  13.017  1.6036  2.5978 -0.2384
  227MOL0     H31300   3.214   8.650  13.264  0.6188 -2.4632  0.4238
  227MOL0     H31301   3.241   8.708  13.100 -1.0000  1.1283  1.1080
  227MOL0     H31302   3.492   8.667  13.143  1.5686 -3.2651  1.7262
  227MOL0     H31303   3.447   8.611  13.300  3.0235  2.1358 -0.8084
  227MOL0     H31304   3.333   8.824  13.353 -2.9997 -0.8588 -2.6178
  227MOL0     H31305   3.397   8.891  13.194 -3.0444 -1.4744 -1.8584
  227MOL0     H31306   3.138   8.649  12.594  1.7132  1.2009 -2.1219
  227MOL0     H31307   3.306   8.654  12.424 -2.8901 -0.2785 -0.3712
  227MOL0     H31308   3.662   8.542  12.290 -0.8882 -0.1604  1.0619
  227MOL0     H31309   3.876   8.546  12.144  0.1861  0.1978 -0.4201
  227MOL0     H31310   3.702   7.733  10.259 -0.7704 -0.8069 -1.6692
  227MOL0     H31311   3.458   7.671  10.234 -0.6871 -0.0834  0.1147
  227MOL0     H31312   2.980   7.788  10.355 -0.5483 -0.7293  0.7144
  227MOL0     H31313   2.777   7.786  10.247 -0.2152  2.9814 -0.4491
  227MOL0     H31314   2.593   7.699  10.098  3.0097 -0.0864 -0.8622
  227MOL0     H31315   2.607   7.882  10.118  0.1681 -0.1408  0.9036
  227MOL0     H31316   2.532   7.908   9.890 -1.5312  1.8252  2.1496
  227MOL0     H31317   2.413   7.848   9.992  1.1611 -2.8459  3.1377
  227MOL0     H31318   2.587   7.658   9.820  1.0001  0.6123  0.9359
  227MOL0     H31319   2.449   7.618   9.931  1.3218  1.4795  0.6422
  227MOL0     H31320   2.408   7.773   9.680  1.3679  1.8797  1.4839
  227MOL0     H31321   2.276   7.713   9.785  1.5536  2.0251 -0.0387
  227MOL0     H31322   2.376   7.392   9.528 -0.8102  1.9223 -3.2348
  227MOL0     H31323   2.980   7.802   9.863 -0.1646  1.4779 -1.4150
  227MOL0     H31324   3.262   7.921   9.952  2.1346 -1.2589  3.1108
  227MOL0     H31325   3.302   7.749   9.992  0.2468 -0.5579 -0.7188
  227MOL0     H31326   3.204   7.794   9.847  0.5217 -3.7508  0.3286
  228MOL0     O31327   8.933   6.025   7.337  0.6198  0.3987  0.2956
  228MOL0     C31328   8.846   6.042   7.251 -0.3738  0.3125 -0.3224
  228MOL0     O31329   8.729   6.100   7.283 -0.0831 -0.2930  0.4380
  228MOL0     C31330   8.660   6.071   7.398 -0.4985 -0.9420 -0.1560
  228MOL0     C31331   8.698   5.975   7.493 -0.4598 -0.7663  0.0587
  228MOL0     C31332   8.616   5.938   7.604  0.3127  0.6906 -1.0652
  228MOL0     C31333   8.497   6.007   7.625  0.2560  0.4716  0.2609
  228MOL0     O31334   8.422   5.982   7.727 -0.8326  0.6887 -0.1215
  228MOL0     C31335   8.287   6.020   7.738  0.1253  0.1821 -0.2210
  228MOL0     C31336   8.211   5.971   7.870  0.4160  0.4127  0.5450
  228MOL0     C31337   8.070   6.032   7.881 -0.5978 -0.2820  0.4943
  228MOL0     C31338   7.988   5.970   7.990  0.2981 -0.4512 -0.5467
  228MOL0     C31339   7.849   6.035   7.996  0.5105 -0.3664  0.1216
  228MOL0     C31340   7.766   6.013   7.863  0.3273 -0.1106 -0.4310
  228MOL0     C31341   7.750   5.867   7.831  0.8834  0.9075  0.5188
  228MOL0     C31342   7.656   5.843   7.710 -0.1569 -0.4927 -0.5866
  228MOL0     N31343   7.516   5.835   7.754  0.8061 -0.0194 -0.2340
  228MOL0     C31344   7.440   5.942   7.778 -0.7426  0.2933  0.4070
  228MOL0     C31345   7.344   5.889   7.842 -0.5217  0.3192 -0.3192
  228MOL0     C31346   7.248   5.977   7.919  0.0649 -0.5929 -0.4217
  228MOL0     C31347   7.316   6.094   7.994  0.3786  0.0294  0.0984
  228MOL0     C31348   7.356   6.057   8.137  0.2029  0.7500 -0.0861
  228MOL0     C31349   7.453   5.929   8.140  0.9554 -0.3301 -0.0517
  228MOL0     O31350   7.514   5.904   8.262  0.5776 -0.7615 -0.6031
  228MOL0     C31351   7.608   5.805   8.284 -0.3026 -0.3306  0.5545
  228MOL0     C31352   7.641   5.707   8.189  0.9508  0.3996 -1.6838
  228MOL0     C31353   7.749   5.618   8.206  0.1966 -0.9405  0.5270
  228MOL0     C31354   7.770   5.528   8.089 -0.5649 -0.9142 -0.4745
  228MOL0     C31355   7.802   5.613   8.331  0.4384  0.6070  0.2010
  228MOL0     C31356   7.895   5.500   8.376 -0.2501  0.0530 -0.7134
  228MOL0     O31357   7.928   5.483   8.508  0.0310  0.1815 -0.1773
  228MOL0     C31358   7.984   5.361   8.546  0.0934  0.1357 -0.3915
  228MOL0     C31359   8.113   5.358   8.598  0.0932 -0.4900  0.0722
  228MOL0     C31360   8.164   5.228   8.632 -0.3884 -0.6345  0.0200
  228MOL0     C31361   8.092   5.106   8.605 -0.6882  1.0933 -0.0877
  228MOL0     O31362   8.142   4.979   8.623 -0.1946 -0.9523 -0.2993
  228MOL0     C31363   8.262   4.957   8.701  0.0919  0.0351  0.4912
  228MOL0     C31364   8.365   4.906   8.601  0.7010  0.2341 -0.0062
  228MOL0     C31365   8.501   4.877   8.673  0.9777  0.6278 -0.2873
  228MOL0     C31366   8.581   4.754   8.622  0.5483 -0.0223 -0.5148
  228MOL0     C31367   8.718   4.737   8.693 -0.2809 -0.1131  0.1738
  228MOL0     C31368   8.804   4.650   8.616 -0.1986  0.1199 -0.0651
  228MOL0     C31369   8.946   4.673   8.629  0.4601  0.4244  0.4955
  228MOL0     C31370   8.978   4.639   8.784 -0.3174 -0.2795  1.0232
  228MOL0    Cl31371   8.969   4.463   8.807 -0.0466  0.6062  0.5360
  228MOL0     C31372   7.962   5.121   8.551 -0.1202 -0.1675  1.0604
  228MOL0     C31373   7.918   5.247   8.520  1.0896  0.4414  0.2469
  228MOL0     O31374   7.946   5.430   8.291 -0.1178 -0.5873 -0.2568
  228MOL0     C31375   7.768   5.706   8.430 -0.1113  0.5726  0.4887
  228MOL0     C31376   7.670   5.801   8.404 -1.4115  0.6847 -0.4385
  228MOL0     N31377   7.351   5.750   7.859 -0.3403  0.3460 -0.0491
  228MOL0     N31378   7.465   5.723   7.804  0.0156 -0.0338 -1.2422
  228MOL0     C31379   8.447   6.101   7.524  0.7201 -0.1051 -0.1790
  228MOL0     C31380   8.532   6.133   7.419  0.1303  0.7498 -0.4283
  228MOL0     C31381   8.878   6.030   7.102 -0.8488 -0.6159  0.7858
  228MOL0     C31382   8.815   6.108   7.006 -0.0461 -0.2764  0.3141
  228MOL0     C31383   8.846   6.091   6.868  0.0392 -0.2262  0.4352
  228MOL0     C31384   8.957   6.029   6.825 -1.1495 -0.1381  0.2015
  228MOL0     O31385   8.986   6.052   6.696 -0.2976  0.4873  0.4526
  228MOL0     C31386   9.087   5.965   6.635  0.4355 -0.3817  0.0992
  228MOL0     C31387   9.240   6.022   6.637  0.4553  0.5649  1.4314
  228MOL0     C31388   9.228   6.173   6.623 -0.1976  0.3570  0.4030
  228MOL0     C31389   9.359   6.240   6.598  0.4745  0.3754  0.0830
  228MOL0     C31390   9.451   6.202   6.703  0.1845  0.4350  0.3004
  228MOL0     C31391   9.537   6.158   6.789  0.9091  0.1554 -0.1737
  228MOL0     C31392   9.017   5.946   6.916 -0.5233 -0.1462  0.0058
  228MOL0     C31393   8.981   5.939   7.054 -0.2559  0.5052 -0.8517
  228MOL0     C31394   9.051   5.837   7.134 -0.8147  0.3059  0.4888
  228MOL0     H31395   8.794   5.924   7.501 -0.6454 -1.3570 -1.3165
  228MOL0     H31396   8.653   5.870   7.679 -2.7872  1.5671  1.4658
  228MOL0     H31397   8.225   5.982   7.656 -1.9005 -0.4953  1.5605
  228MOL0     H31398   8.287   6.128   7.753  0.2049 -0.1741  3.0090
  228MOL0     H31399   8.204   5.862   7.858  2.9696  0.4743 -3.3517
  228MOL0     H31400   8.263   5.985   7.966 -0.5738  1.4816  0.9498
  228MOL0     H31401   8.081   6.141   7.887  0.8944 -0.0724 -3.1045
  228MOL0     H31402   8.020   6.015   7.785  0.4201  0.0540 -0.1083
  228MOL0     H31403   7.986   5.861   7.992 -1.5173 -0.4371  0.4667
  228MOL0     H31404   8.045   6.006   8.076 -1.4959 -0.0957  0.5444
  228MOL0     H31405   7.841   6.143   8.004 -1.6660 -0.3175 -1.7524
  228MOL0     H31406   7.796   5.986   8.079  0.6880 -0.5447  0.1307
  228MOL0     H31407   7.672   6.063   7.887  1.5012  0.7255  3.0051
  228MOL0     H31408   7.812   6.078   7.788 -0.5422  2.2721  0.9771
  228MOL0     H31409   7.702   5.811   7.912  1.0079  1.4582  0.9765
  228MOL0     H31410   7.848   5.820   7.828  0.7207  0.3726  2.2482
  228MOL0     H31411   7.664   5.932   7.647 -2.2335  1.1346  1.2640
  228MOL0     H31412   7.681   5.755   7.651  4.4843 -0.0691  0.3637
  228MOL0     H31413   7.443   6.046   7.747 -4.8831  1.0942  2.0820
  228MOL0     H31414   7.176   5.924   7.983 -1.6094  2.3298  0.2698
  228MOL0     H31415   7.190   6.022   7.838 -1.5450 -0.7460  0.5837
  228MOL0     H31416   7.398   6.127   7.929  0.8313 -0.0183  0.6270
  228MOL0     H31417   7.261   6.186   8.016  0.6435 -0.3255  2.6678
  228MOL0     H31418   7.412   6.134   8.192 -0.7220 -0.2113  2.3534
  228MOL0     H31419   7.264   6.032   8.190  1.4457 -2.1093  0.9758
  228MOL0     H31420   7.395   5.841   8.110 -0.5501  0.3486  0.7640
  228MOL0     H31421   7.534   5.943   8.067  3.2641 -1.7374  2.0648
  228MOL0     H31422   7.568   5.697   8.110 -2.5382  1.9999  1.0564
  228MOL0     H31423   7.874   5.550   8.064 -1.1709  1.2791 -1.2871
  228MOL0     H31424   7.721   5.566   7.998  0.5902  1.6506 -0.1051
  228MOL0     H31425   7.765   5.419   8.100  0.2090 -1.0281 -1.1571
  228MOL0     H31426   8.182   5.440   8.612  0.9321 -1.4382  1.9200
  228MOL0     H31427   8.266   5.220   8.667  0.1042 -0.9510 -1.4437
  228MOL0     H31428   8.308   5.037   8.759  0.7451 -1.2349  1.7982
  228MOL0     H31429   8.241   4.873   8.768 -1.5936  1.7824  2.2917
  228MOL0     H31430   8.319   4.814   8.566  0.8012 -0.2189  0.9991
  228MOL0     H31431   8.377   4.978   8.520 -2.1564  0.8587  0.0299
  228MOL0     H31432   8.475   4.848   8.775 -2.6708 -0.0540 -1.2801
  228MOL0     H31433   8.558   4.969   8.664 -1.6826  2.4001 -0.0934
  228MOL0     H31434   8.589   4.748   8.513 -0.6548 -2.8808 -0.5067
  228MOL0     H31435   8.517   4.670   8.649 -4.0136  3.9264  2.5820
  228MOL0     H31436   8.767   4.833   8.679  1.5842 -0.7830  1.5427
  228MOL0     H31437   8.702   4.708   8.798 -0.9131 -3.9622 -0.8301
  228MOL0     H31438   8.799   4.676   8.510 -1.2700  2.8023  0.5730
  228MOL0     H31439   8.777   4.546   8.637 -0.3020  0.0775 -0.3960
  228MOL0     H31440   8.980   4.767   8.585  3.8971 -1.4400 -1.3068
  228MOL0     H31441   9.011   4.602   8.576 -0.9074  0.4966 -1.3739
  228MOL0     H31442   8.924   4.698   8.857  1.3801  1.8859  0.6353
  228MOL0     H31443   9.079   4.664   8.818 -0.7657 -0.0162  2.2032
  228MOL0     H31444   7.893   5.041   8.528 -0.0908 -0.2931  1.3973
  228MOL0     H31445   7.815   5.245   8.487  1.3084  0.3759 -0.4348
  228MOL0     H31446   7.804   5.705   8.533  0.4616  0.7911  0.2926
  228MOL0     H31447   7.653   5.876   8.480  1.4174  4.1174 -2.8822
  228MOL0     H31448   8.344   6.133   7.516  0.5583 -0.4797  0.4136
  228MOL0     H31449   8.488   6.184   7.334  2.0247 -0.1271 -1.9956
  228MOL0     H31450   8.739   6.175   7.044  0.1513 -0.2275  0.6248
  228MOL0     H31451   8.798   6.155   6.795  3.6676  1.0049 -1.0882
  228MOL0     H31452   9.077   5.862   6.670 -1.0865  0.3289  1.8847
  228MOL0     H31453   9.069   5.975   6.528 -0.1172 -0.4358  0.1861
  228MOL0     H31454   9.298   5.974   6.557 -1.0468  2.0696 -0.6459
  228MOL0     H31455   9.278   5.989   6.735 -0.2280 -0.1433  1.4672
  228MOL0     H31456   9.161   6.203   6.542 -0.7413  0.5650  0.9204
  228MOL0     H31457   9.177   6.230   6.702 -1.8600  0.7292 -0.8853
  228MOL0     H31458   9.350   6.349   6.596  0.3483  0.4340  2.0644
  228MOL0     H31459   9.409   6.217   6.504  2.4700 -1.0269  1.4181
  228MOL0     H31460   9.609   6.115   6.856 -1.5488 -2.6300  0.9022
  228MOL0     H31461   9.101   5.887   6.879 -0.3070  1.9507 -3.2021
  228MOL0     H31462   9.152   5.833   7.091  0.4857  1.0017  3.2706
  228MOL0     H31463   9.062   5.856   7.241 -1.8182  2.8475  0.2138
  228MOL0     H31464   8.996   5.742   7.135  0.2725 -0.3429  1.7927
  229MOL0     O31465   8.533   0.991   9.552 -0.2432  0.4066 -0.0293
  229MOL0     C31466   8.623   0.915   9.583  0.5910  0.7181 -0.3640
  229MOL0     O31467   8.704   0.859   9.497 -0.1137 -0.0787  0.0260
  229MOL0     C31468   8.668   0.865   9.367  0.4075 -0.6830 -0.4068
  229MOL0     C31469   8.694   0.969   9.283 -0.6263 -0.0457  0.5562
  229MOL0     C31470   8.666   0.969   9.150 -0.0461  0.5064 -0.1046
  229MOL0     C31471   8.595   0.863   9.091 -0.9431  0.6014  0.3814
  229MOL0     O31472   8.572   0.867   8.955 -0.3169  0.8289 -0.1431
  229MOL0     C31473   8.437   0.816   8.910 -0.7305 -0.2147 -0.6981
  229MOL0     C31474   8.314   0.893   8.958 -0.4074  1.1238 -0.0097
  229MOL0     C31475   8.322   1.051   8.936 -0.3129  0.5914  0.6920
  229MOL0     C31476   8.226   1.138   9.029 -0.0667 -0.5044  0.1514
  229MOL0     C31477   8.078   1.094   9.006  1.0175 -1.0853  0.3400
  229MOL0     C31478   7.992   1.174   9.108  0.4464  0.9964 -0.5915
  229MOL0     C31479   7.848   1.120   9.129  0.1783 -0.0883  0.2524
  229MOL0     C31480   7.854   0.979   9.184 -0.0429 -0.5021  0.6269
  229MOL0     N31481   7.727   0.911   9.192  0.3773  0.0826  0.1443
  229MOL0     C31482   7.658   0.892   9.309 -0.7901  0.4412 -0.6286
  229MOL0     C31483   7.536   0.852   9.272  0.0281  0.2433  0.2845
  229MOL0     C31484   7.402   0.811   9.340 -0.6668  0.3224  0.0643
  229MOL0     C31485   7.377   0.858   9.482 -0.6182  0.0375 -0.5843
  229MOL0     C31486   7.352   1.013   9.482  0.4938  0.4263  0.2545
  229MOL0     C31487   7.207   1.056   9.449 -0.4141 -0.1333 -0.1238
  229MOL0     O31488   7.117   1.041   9.563  0.4398  0.6712 -0.1594
  229MOL0     C31489   7.120   1.128   9.668  0.4624  0.2953  0.2182
  229MOL0     C31490   7.062   1.096   9.792  0.3816  0.3807  0.2073
  229MOL0     C31491   7.063   1.179   9.899 -1.2358  0.3777 -1.0230
  229MOL0     C31492   6.999   1.122  10.023 -0.6283 -0.5700  0.5413
  229MOL0     C31493   7.125   1.296   9.894 -0.6544 -1.5290 -0.2453
  229MOL0     C31494   7.106   1.402   9.996  0.1077 -0.0548  0.6137
  229MOL0     O31495   6.981   1.398  10.065 -0.8629 -0.4156 -0.3349
  229MOL0     C31496   6.925   1.496  10.145 -0.1994 -0.1784 -0.2003
  229MOL0     C31497   6.834   1.444  10.233 -0.6321  0.6314  0.6950
  229MOL0     C31498   6.750   1.520  10.310  0.9498 -0.5131  0.0004
  229MOL0     C31499   6.770   1.657  10.323  0.5860 -0.5140  0.7739
  229MOL0     O31500   6.694   1.724  10.409 -0.2072 -0.8683  0.2785
  229MOL0     C31501   6.756   1.832  10.482  0.0723  1.1328  0.4321
  229MOL0     C31502   6.692   1.831  10.623 -0.0989 -0.9620  0.3903
  229MOL0     C31503   6.709   1.695  10.695  0.2492  0.1348 -1.0580
  229MOL0     C31504   6.667   1.726  10.843  0.4797  0.4726  0.1686
  229MOL0     C31505   6.762   1.681  10.950  0.4540 -0.1405  0.2680
  229MOL0     C31506   6.906   1.754  10.950  0.1747  0.2540 -0.1538
  229MOL0     C31507   7.010   1.638  10.992 -0.4924 -0.4976 -0.7719
  229MOL0     C31508   7.151   1.700  11.032 -0.1575 -1.1252  0.3212
  229MOL0    Cl31509   7.228   1.755  10.878 -0.8262  0.2535 -0.5181
  229MOL0     C31510   6.872   1.713  10.239 -0.5364  1.3125 -0.6256
  229MOL0     C31511   6.951   1.630  10.157  0.9231 -0.7559 -0.1059
  229MOL0     O31512   7.182   1.495  10.000  0.2629 -0.2171  0.0572
  229MOL0     C31513   7.193   1.331   9.777  0.0805  0.0114  0.2433
  229MOL0     C31514   7.194   1.248   9.668 -0.3176 -0.2507 -0.2978
  229MOL0     N31515   7.543   0.837   9.133 -0.2641 -0.2187  0.8465
  229MOL0     N31516   7.654   0.869   9.085 -0.3044 -0.4317 -0.2055
  229MOL0     C31517   8.558   0.756   9.168 -0.0555 -0.5361  0.4124
  229MOL0     C31518   8.596   0.760   9.305  1.0083  0.5682  0.5446
  229MOL0     C31519   8.635   0.876   9.727 -0.4756 -0.1731  0.6344
  229MOL0     C31520   8.708   0.955   9.818  0.2741 -1.0874  0.2381
  229MOL0     C31521   8.707   0.914   9.951  0.4325 -0.5190  1.1104
  229MOL0     C31522   8.642   0.804  10.004 -0.2438  0.3465 -0.4563
  229MOL0     O31523   8.644   0.787  10.141 -0.7417  0.2157 -0.8637
  229MOL0     C31524   8.637   0.646  10.181  0.2278  0.6261 -0.4321
  229MOL0     C31525   8.656   0.630  10.334  0.3805  0.6972 -0.1605
  229MOL0     C31526   8.804   0.645  10.363  1.0254  0.1667  0.3961
  229MOL0     C31527   8.829   0.605  10.512  0.1134 -0.0529  0.4106
  229MOL0     C31528   8.967   0.633  10.548  0.3246 -0.5265  0.4835
  229MOL0     C31529   9.090   0.650  10.574  0.5912 -0.9571  0.8026
  229MOL0     C31530   8.577   0.721   9.914 -0.0691  0.2085  0.0769
  229MOL0     C31531   8.585   0.751   9.776  0.1636  0.0691 -0.3446
  229MOL0     C31532   8.521   0.646   9.694 -0.2071  0.2056 -0.6977
  229MOL0     H31533   8.739   1.058   9.326  2.1863 -0.9250 -0.3378
  229MOL0     H31534   8.707   1.048   9.088  1.2257 -1.1111 -1.3686
  229MOL0     H31535   8.419   0.713   8.942 -0.3777 -0.3713 -1.0024
  229MOL0     H31536   8.436   0.827   8.801  0.1218  3.1617 -0.4805
  229MOL0     H31537   8.228   0.850   8.905  2.2359 -1.9194 -2.2131
  229MOL0     H31538   8.300   0.868   9.064  1.3097 -0.7135 -0.1452
  229MOL0     H31539   8.423   1.079   8.968  0.7389 -0.7374 -1.2921
  229MOL0     H31540   8.302   1.076   8.832 -1.0284  1.2447  0.9759
  229MOL0     H31541   8.244   1.118   9.135 -1.1102  1.6407  0.8016
  229MOL0     H31542   8.230   1.243   8.998 -2.2388 -0.2431  0.6269
  229MOL0     H31543   8.058   0.987   9.015  1.5089 -1.5263 -2.6470
  229MOL0     H31544   8.053   1.115   8.901 -0.9082  0.2424  1.0009
  229MOL0     H31545   8.034   1.170   9.209 -1.6935 -1.6451  0.3041
  229MOL0     H31546   7.985   1.281   9.088  1.2946  1.5477  1.7555
  229MOL0     H31547   7.795   1.111   9.033  1.2522  2.3910 -0.6585
  229MOL0     H31548   7.790   1.183   9.197 -2.3523  1.4243 -2.9937
  229MOL0     H31549   7.917   0.918   9.119  1.1537  0.7900  0.5087
  229MOL0     H31550   7.894   0.980   9.286 -0.0583  1.1295  0.6550
  229MOL0     H31551   7.681   0.904   9.415 -1.1166 -0.2994 -0.4638
  229MOL0     H31552   7.386   0.703   9.334 -0.5543  0.2786  0.5190
  229MOL0     H31553   7.320   0.856   9.282 -0.0285  2.0642  0.4510
  229MOL0     H31554   7.286   0.802   9.507 -0.6638 -0.8945 -2.5949
  229MOL0     H31555   7.458   0.829   9.550  1.1931  0.5069 -2.4253
  229MOL0     H31556   7.379   1.049   9.581  1.4630 -0.6580  0.4100
  229MOL0     H31557   7.408   1.061   9.401 -0.2399 -1.2082 -1.2922
  229MOL0     H31558   7.199   1.161   9.419 -1.9269 -0.3045 -0.4418
  229MOL0     H31559   7.177   0.998   9.362  1.0725 -0.4424 -0.4519
  229MOL0     H31560   7.007   1.002   9.795 -1.4631  1.3178 -1.4945
  229MOL0     H31561   6.899   1.167  10.014  0.6583  2.2955 -0.5511
  229MOL0     H31562   7.046   1.161  10.114  1.0666 -0.8474 -0.1827
  229MOL0     H31563   7.002   1.013  10.029  0.1580 -0.7073 -1.7019
  229MOL0     H31564   6.814   1.337  10.231 -1.1513  0.6946  1.7934
  229MOL0     H31565   6.669   1.478  10.369  1.1797 -2.4700 -0.9831
  229MOL0     H31566   6.862   1.816  10.501 -0.4721 -1.8559  1.5854
  229MOL0     H31567   6.746   1.927  10.428 -0.7116  0.1530 -1.2100
  229MOL0     H31568   6.744   1.904  10.686 -3.4352 -0.8631  3.4311
  229MOL0     H31569   6.587   1.863  10.620 -0.8645 -3.3364 -0.5661
  229MOL0     H31570   6.809   1.651  10.691  0.4906  0.4470  0.8473
  229MOL0     H31571   6.648   1.626  10.635  0.8712 -1.9684  0.6116
  229MOL0     H31572   6.582   1.657  10.844  0.3453  0.6380  0.6706
  229MOL0     H31573   6.631   1.828  10.861 -0.5553  0.0420  0.6291
  229MOL0     H31574   6.714   1.677  11.049  1.0495 -7.7745  0.8924
  229MOL0     H31575   6.776   1.573  10.938 -1.9644 -0.7448  1.9920
  229MOL0     H31576   6.888   1.840  11.016  0.7058  1.4119 -1.4680
  229MOL0     H31577   6.946   1.789  10.854 -2.5262 -2.1916 -2.3496
  229MOL0     H31578   7.021   1.568  10.909 -0.8010 -3.1936  1.3342
  229MOL0     H31579   6.977   1.593  11.086 -0.9482  0.7259 -0.3186
  229MOL0     H31580   7.204   1.629  11.096  3.2264  2.8052  2.3742
  229MOL0     H31581   7.141   1.781  11.105  1.4150 -3.5141  3.4511
  229MOL0     H31582   6.899   1.818  10.236  3.6557  0.4235 -0.6528
  229MOL0     H31583   7.036   1.672  10.105 -0.6350  1.2707 -1.2005
  229MOL0     H31584   7.244   1.426   9.759  1.4315 -0.5391  1.0131
  229MOL0     H31585   7.260   1.272   9.585 -2.1704  1.5437 -1.3556
  229MOL0     H31586   8.501   0.673   9.127  1.4449 -1.4798  0.1349
  229MOL0     H31587   8.583   0.670   9.364 -1.9544 -0.0216 -0.8489
  229MOL0     H31588   8.759   1.044   9.782  1.8714 -0.9263  2.6505
  229MOL0     H31589   8.759   0.976  10.024 -2.0989  0.5306  2.1380
  229MOL0     H31590   8.542   0.601  10.152  1.2292 -0.5221 -2.0740
  229MOL0     H31591   8.713   0.592  10.124 -1.1235 -1.1664 -0.6219
  229MOL0     H31592   8.615   0.532  10.360 -1.2323  1.5504  0.6974
  229MOL0     H31593   8.595   0.696  10.398  1.1519 -0.8376  2.3022
  229MOL0     H31594   8.850   0.570  10.299  1.4403  0.3943  0.4232
  229MOL0     H31595   8.841   0.743  10.332  0.0291  0.4320  0.0151
  229MOL0     H31596   8.798   0.502  10.531  0.0485 -0.6082 -2.2792
  229MOL0     H31597   8.770   0.666  10.582 -1.9056 -1.2681 -0.1410
  229MOL0     H31598   9.192   0.672  10.597  0.9016  2.4016 -2.6634
  229MOL0     H31599   8.522   0.637   9.955  2.7029 -0.8537  1.8970
  229MOL0     H31600   8.430   0.679   9.643  0.3416  0.5215 -1.4851
  229MOL0     H31601   8.598   0.608   9.626  1.7933 -1.6832  2.3424
  229MOL0     H31602   8.488   0.561   9.754  1.5694 -0.8419 -1.1203
  230MOL0     O31603   1.340   0.699   4.583  0.0211  0.9996 -0.5291
  230MOL0     C31604   1.382   0.698   4.465 -0.0837  0.1535 -0.5224
  230MOL0     O31605   1.418   0.585   4.398 -0.1799 -0.0168  0.4335
  230MOL0     C31606   1.424   0.466   4.463 -0.2154  0.1601  0.5924
  230MOL0     C31607   1.318   0.379   4.461 -0.0024 -0.1123  0.0679
  230MOL0     C31608   1.335   0.258   4.522 -0.0036 -0.0193 -0.4267
  230MOL0     C31609   1.454   0.217   4.579 -0.5276 -0.2415 -0.1428
  230MOL0     O31610   1.467   0.097   4.645  0.4768  0.6291 -0.1467
  230MOL0     C31611   1.363   0.047   4.726  0.6180 -0.1581  0.1839
  230MOL0     C31612   1.285  -0.060   4.643  0.0487  0.7919 -0.9290
  230MOL0     C31613   1.164  -0.120   4.720  0.1929 -0.7572 -0.0657
  230MOL0     C31614   1.049  -0.157   4.629 -0.4850  0.2196  0.1774
  230MOL0     C31615   0.928  -0.240   4.687  0.1197 -0.4073  0.2424
  230MOL0     C31616   0.850  -0.180   4.795 -0.0342 -0.2674 -1.0787
  230MOL0     C31617   0.761  -0.068   4.751 -0.5231 -0.3069  0.1340
  230MOL0     C31618   0.722   0.004   4.881  0.2443  0.2192 -0.4740
  230MOL0     N31619   0.587   0.063   4.868  0.1089 -0.4177 -0.0056
  230MOL0     C31620   0.468  -0.015   4.867 -0.5001 -0.5775 -1.4775
  230MOL0     C31621   0.378   0.071   4.920  0.5767 -0.3591 -0.1725
  230MOL0     C31622   0.231   0.050   4.935  0.0279  0.3837  0.6227
  230MOL0     C31623   0.167   0.030   4.799  0.2988 -0.5885  0.7031
  230MOL0     C31624   0.015   0.016   4.797 -0.0857  0.1134  0.2235
  230MOL0     C31625  -0.041  -0.032   4.667  0.0603  1.4346  0.9255
  230MOL0     O31626  -0.007  -0.172   4.666  0.6918  0.4663  0.3847
  230MOL0     C31627  -0.045  -0.239   4.552 -0.1186 -0.2585  0.7673
  230MOL0     C31628   0.015  -0.371   4.538  0.8801 -0.4940 -0.4478
  230MOL0     C31629   0.003  -0.456   4.428 -0.4157 -0.8404  0.7615
  230MOL0     C31630   0.085  -0.581   4.407 -0.0658 -0.6271  0.6593
  230MOL0     C31631  -0.094  -0.413   4.323  0.1136 -0.2965 -1.2360
  230MOL0     C31632  -0.145  -0.492   4.207 -0.8942  0.0801  0.4892
  230MOL0     O31633  -0.178  -0.416   4.097 -0.4068 -0.0115 -0.2787
  230MOL0     C31634  -0.233  -0.481   3.992 -0.4340  0.4212  0.2384
  230MOL0     C31635  -0.156  -0.495   3.873  0.1399 -0.2445  0.1245
  230MOL0     C31636  -0.219  -0.551   3.769 -0.4742  0.6716  0.4289
  230MOL0     C31637  -0.341  -0.622   3.780  0.8673 -0.2132 -0.9732
  230MOL0     O31638  -0.382  -0.688   3.670 -0.0220 -0.4567 -0.0726
  230MOL0     C31639  -0.519  -0.661   3.628  0.3511 -0.4165 -0.2683
  230MOL0     C31640  -0.602  -0.779   3.654 -0.2538  0.0368 -0.6585
  230MOL0     C31641  -0.753  -0.749   3.611 -0.4239  0.7392  0.3528
  230MOL0     C31642  -0.861  -0.822   3.684 -0.0265  0.2916  0.6604
  230MOL0     C31643  -1.007  -0.781   3.649  0.9487  0.0476 -0.9397
  230MOL0     C31644  -1.127  -0.893   3.632  0.0469 -0.0453 -0.5083
  230MOL0     C31645  -1.088  -1.003   3.528 -1.4637  0.3162 -0.1945
  230MOL0     C31646  -1.214  -1.061   3.471 -1.1560  0.1892 -1.0010
  230MOL0    Cl31647  -1.169  -1.209   3.391  0.3847  0.1274  0.0259
  230MOL0     C31648  -0.405  -0.618   3.908 -0.1981  0.8010 -1.1970
  230MOL0     C31649  -0.360  -0.536   4.012 -0.3119 -0.4574  1.0459
  230MOL0     O31650  -0.159  -0.619   4.209 -0.2468 -0.2302 -0.3075
  230MOL0     C31651  -0.149  -0.285   4.337  0.3705 -1.0184 -0.0377
  230MOL0     C31652  -0.131  -0.192   4.444  0.4386  0.2834  0.2503
  230MOL0     N31653   0.445   0.193   4.943 -0.2951 -0.8584 -0.0952
  230MOL0     N31654   0.566   0.196   4.903 -1.2778  0.6907  0.1235
  230MOL0     C31655   1.563   0.299   4.570 -0.7219  0.2002  0.4455
  230MOL0     C31656   1.556   0.423   4.511  0.8077 -0.5605  0.3812
  230MOL0     C31657   1.376   0.825   4.389  0.0230  0.2401  0.4573
  230MOL0     C31658   1.339   0.812   4.251  0.2367  1.3018 -0.0527
  230MOL0     C31659   1.337   0.927   4.169 -0.5883  0.2328 -0.1996
  230MOL0     C31660   1.368   1.059   4.218 -0.0472  0.0710 -0.5631
  230MOL0     O31661   1.369   1.180   4.155 -0.0262  0.1581 -0.5519
  230MOL0     C31662   1.341   1.177   4.012  0.2144  0.4670  0.5720
  230MOL0     C31663   1.192   1.183   3.980 -0.4441 -0.2189  0.7061
  230MOL0     C31664   1.177   1.201   3.824 -0.7541  0.0418 -0.2398
  230MOL0     C31665   1.033   1.268   3.788 -0.2088  1.0959 -0.0726
  230MOL0     C31666   1.020   1.406   3.841  0.0702  0.5765 -0.7816
  230MOL0     C31667   1.021   1.524   3.880 -0.5646 -1.0282  0.2074
  230MOL0     C31668   1.414   1.072   4.344  0.8060 -0.4391 -0.2479
  230MOL0     C31669   1.407   0.950   4.435  0.9365 -0.1549 -0.1526
  230MOL0     C31670   1.476   0.972   4.567  1.0149  0.4297  0.3123
  230MOL0     H31671   1.224   0.410   4.417  0.1174 -0.3822 -0.3801
  230MOL0     H31672   1.248   0.193   4.528 -0.3231  0.4668  0.4186
  230MOL0     H31673   1.293   0.124   4.758  0.5231 -0.7448  1.4522
  230MOL0     H31674   1.406   0.006   4.818 -2.0300  1.5290  2.3286
  230MOL0     H31675   1.251  -0.028   4.544 -0.4207 -1.1090 -1.4276
  230MOL0     H31676   1.349  -0.146   4.620 -0.8061 -0.2159  0.2915
  230MOL0     H31677   1.198  -0.210   4.772  2.1506 -0.4467 -0.7276
  230MOL0     H31678   1.141  -0.054   4.804 -1.3002  1.1256 -1.8535
  230MOL0     H31679   1.017  -0.067   4.577  1.7544  1.2902  0.5276
  230MOL0     H31680   1.086  -0.222   4.549 -1.7530  3.2848 -3.1685
  230MOL0     H31681   0.962  -0.334   4.731 -2.3917 -2.1971 -1.4037
  230MOL0     H31682   0.867  -0.271   4.602  1.1728  0.1711 -0.7555
  230MOL0     H31683   0.781  -0.249   4.845  1.9229 -0.8569  0.9794
  230MOL0     H31684   0.924  -0.144   4.867  1.3645 -1.8699 -1.6466
  230MOL0     H31685   0.671  -0.119   4.717 -2.2724 -1.8226  5.9386
  230MOL0     H31686   0.789  -0.008   4.664 -3.7260 -2.2682 -2.4770
  230MOL0     H31687   0.729  -0.059   4.970  1.9900 -0.2458 -0.9075
  230MOL0     H31688   0.788   0.089   4.897 -0.9748  1.6684 -2.5286
  230MOL0     H31689   0.456  -0.114   4.823 -1.4950 -0.7066 -0.9578
  230MOL0     H31690   0.192   0.138   4.986 -0.2854  1.9978 -2.2392
  230MOL0     H31691   0.204  -0.039   4.993 -2.2770 -1.6106 -3.1037
  230MOL0     H31692   0.200   0.120   4.746  2.5279 -0.8902  1.4510
  230MOL0     H31693   0.212  -0.052   4.742  1.0498 -1.4182  2.4082
  230MOL0     H31694  -0.029  -0.041   4.879 -2.1393  1.6796  0.2756
  230MOL0     H31695  -0.037   0.110   4.817 -1.0176 -0.4209  0.3091
  230MOL0     H31696  -0.151  -0.027   4.667 -0.0101  1.4843 -1.7273
  230MOL0     H31697  -0.003   0.018   4.577  1.2175  3.2487  2.3499
  230MOL0     H31698   0.094  -0.386   4.611  1.8999  1.1975 -1.1616
  230MOL0     H31699   0.018  -0.660   4.374 -1.4807  0.3800  1.0428
  230MOL0     H31700   0.137  -0.603   4.501 -1.3885 -2.6021  0.9793
  230MOL0     H31701   0.149  -0.576   4.319  0.1392 -2.1836  0.6976
  230MOL0     H31702  -0.057  -0.450   3.872 -0.7713  1.9820  2.0040
  230MOL0     H31703  -0.193  -0.554   3.663 -0.3146 -0.0630  0.4820
  230MOL0     H31704  -0.561  -0.567   3.666  1.6533 -0.1200  0.4903
  230MOL0     H31705  -0.508  -0.647   3.520 -0.8801 -2.1936 -0.6634
  230MOL0     H31706  -0.564  -0.872   3.610  2.3463 -0.1026  1.6485
  230MOL0     H31707  -0.592  -0.799   3.761  0.9765 -3.2559 -1.2824
  230MOL0     H31708  -0.750  -0.757   3.502  1.6763  0.9310  0.3648
  230MOL0     H31709  -0.784  -0.645   3.628 -3.4247  0.3054 -1.6091
  230MOL0     H31710  -0.830  -0.828   3.789  1.3092 -1.0696  0.2257
  230MOL0     H31711  -0.864  -0.926   3.651  0.4730 -0.3026  2.3845
  230MOL0     H31712  -1.037  -0.717   3.733  0.8521  1.4503 -2.0125
  230MOL0     H31713  -1.007  -0.729   3.553  1.3383  1.1921 -0.3372
  230MOL0     H31714  -1.222  -0.848   3.602  0.5960  0.4936 -1.5099
  230MOL0     H31715  -1.145  -0.929   3.733 -2.1368 -1.3547 -1.2870
  230MOL0     H31716  -1.030  -1.087   3.568 -0.8763 -0.2276 -2.0767
  230MOL0     H31717  -1.022  -0.955   3.455  2.9017 -0.2404  2.9960
  230MOL0     H31718  -1.276  -0.987   3.420  1.6251  1.4298 -2.8219
  230MOL0     H31719  -1.272  -1.096   3.557  1.1497 -0.4236  0.4014
  230MOL0     H31720  -0.494  -0.676   3.932 -0.0258  0.5602 -1.1328
  230MOL0     H31721  -0.410  -0.511   4.105 -0.4598  0.9343  0.6123
  230MOL0     H31722  -0.217  -0.256   4.258  3.3365  1.8962 -1.7845
  230MOL0     H31723  -0.197  -0.106   4.449 -1.0608 -0.8795  2.9359
  230MOL0     H31724   1.659   0.253   4.590  0.0425  0.8652 -1.4440
  230MOL0     H31725   1.650   0.476   4.499 -0.5779  1.3539 -4.4944
  230MOL0     H31726   1.311   0.717   4.206  1.1643 -0.4556  2.7718
  230MOL0     H31727   1.319   0.915   4.063 -2.4039 -0.2633  0.1371
  230MOL0     H31728   1.387   1.268   3.974  1.4605 -0.2277  0.3657
  230MOL0     H31729   1.389   1.090   3.967 -1.2112 -0.0861  0.0709
  230MOL0     H31730   1.147   1.270   4.028  0.8142  1.9618 -1.8112
  230MOL0     H31731   1.144   1.093   4.021  0.8569  0.4615  4.0242
  230MOL0     H31732   1.254   1.270   3.789  0.8422 -1.6119 -0.1636
  230MOL0     H31733   1.183   1.104   3.774 -0.8808 -1.1994  2.0166
  230MOL0     H31734   0.953   1.199   3.817  0.1517  1.1411  1.0696
  230MOL0     H31735   1.028   1.273   3.678  2.6491  1.1683 -0.2658
  230MOL0     H31736   1.024   1.625   3.917 -2.4932  0.0737 -2.2967
  230MOL0     H31737   1.464   1.159   4.384  1.6340 -2.2576  3.0904
  230MOL0     H31738   1.546   1.055   4.553  0.2560  0.8498 -1.3533
  230MOL0     H31739   1.403   1.010   4.639 -0.4858  1.6012 -1.6901
  230MOL0     H31740   1.540   0.888   4.594  1.8502  0.9883  0.1343
  231MOL0     O31741   1.099   7.784  10.024 -0.1904 -0.9908  0.2767
  231MOL0     C31742   1.159   7.715  10.106 -0.2044 -0.7658 -0.0535
  231MOL0     O31743   1.136   7.582  10.134  0.0372  0.2643  0.0037
  231MOL0     C31744   1.052   7.503  10.051 -0.0661  0.1520 -0.5471
  231MOL0     C31745   0.951   7.412  10.091 -0.6018 -0.2837  0.4679
  231MOL0     C31746   0.890   7.332   9.993 -0.9507  0.0470  0.2535
  231MOL0     C31747   0.921   7.335   9.855 -0.1080  0.2809  0.4265
  231MOL0     O31748   0.859   7.257   9.766 -0.4227 -0.5054 -0.7658
  231MOL0     C31749   0.918   7.217   9.640 -0.2178 -0.3345 -1.0391
  231MOL0     C31750   0.810   7.184   9.544 -0.3816 -0.5781 -0.4884
  231MOL0     C31751   0.694   7.276   9.541  0.4073 -0.5985 -0.0732
  231MOL0     C31752   0.574   7.199   9.512  0.8687 -0.4323  0.6862
  231MOL0     C31753   0.448   7.279   9.564  0.6209 -0.3240 -0.3719
  231MOL0     C31754   0.324   7.234   9.481 -0.7327  0.7299 -0.0891
  231MOL0     C31755   0.189   7.314   9.495 -0.3003  0.3082 -0.9804
  231MOL0     C31756   0.074   7.230   9.467  0.6764 -0.6405 -0.3580
  231MOL0     N31757  -0.041   7.317   9.447  0.7349  0.1446 -0.0417
  231MOL0     C31758  -0.175   7.280   9.445  0.5674 -0.4790 -0.3333
  231MOL0     C31759  -0.253   7.393   9.455 -1.2842  0.8505  0.8208
  231MOL0     C31760  -0.400   7.405   9.461  0.0079 -1.0210  0.6414
  231MOL0     C31761  -0.465   7.480   9.344 -0.2528  0.9021 -0.4851
  231MOL0     C31762  -0.423   7.450   9.202 -0.0615 -0.6248 -0.4143
  231MOL0     C31763  -0.449   7.300   9.165 -0.6913 -0.7215  0.7027
  231MOL0     O31764  -0.438   7.280   9.022  0.2705 -0.3107 -0.5309
  231MOL0     C31765  -0.449   7.151   8.977 -0.7297 -0.4917  0.0841
  231MOL0     C31766  -0.469   7.036   9.057 -0.5159 -0.7403  0.1985
  231MOL0     C31767  -0.463   6.906   9.000 -0.2132  0.1085  0.4343
  231MOL0     C31768  -0.509   6.791   9.083 -0.4592 -0.9469  0.2955
  231MOL0     C31769  -0.425   6.893   8.864  0.6422  0.5797  0.2384
  231MOL0     C31770  -0.411   6.766   8.788  0.2428  0.5588  0.7260
  231MOL0     O31771  -0.348   6.766   8.665  0.2931 -0.8210 -0.2688
  231MOL0     C31772  -0.292   6.664   8.592 -0.5741  0.2307  0.1484
  231MOL0     C31773  -0.269   6.529   8.642 -0.3169 -0.6203 -0.0464
  231MOL0     C31774  -0.197   6.435   8.573  0.5068 -0.3392 -1.4578
  231MOL0     C31775  -0.147   6.467   8.448 -0.5373 -0.0865 -1.0563
  231MOL0     O31776  -0.076   6.382   8.363 -0.2903 -0.5200  0.0400
  231MOL0     C31777  -0.019   6.271   8.417  0.5927 -0.0243  0.4100
  231MOL0     C31778   0.069   6.221   8.296  0.2467 -0.2885  0.3566
  231MOL0     C31779  -0.010   6.165   8.170  0.3844 -1.3460 -0.3504
  231MOL0     C31780  -0.033   6.249   8.050  0.8156  0.3323 -0.6051
  231MOL0     C31781  -0.113   6.165   7.945 -1.1737 -0.2972 -0.0511
  231MOL0     C31782  -0.046   6.022   7.916  1.2305  0.4381  0.2631
  231MOL0     C31783  -0.113   5.941   7.799  0.1215  0.3079  1.0646
  231MOL0     C31784  -0.114   5.789   7.809 -1.2924 -0.7936  0.0035
  231MOL0    Cl31785   0.045   5.717   7.839  0.1826 -0.4892 -0.2610
  231MOL0     C31786  -0.181   6.590   8.391 -0.5780  0.4545  0.5543
  231MOL0     C31787  -0.255   6.686   8.459 -0.0891 -0.3995  0.5236
  231MOL0     O31788  -0.450   6.670   8.846  0.1136 -0.7145  0.3321
  231MOL0     C31789  -0.417   7.005   8.784  0.0078  0.3634  0.3271
  231MOL0     C31790  -0.424   7.131   8.836  0.7988  0.4765  0.1982
  231MOL0     N31791  -0.167   7.495   9.452  0.6018  0.5467 -0.2163
  231MOL0     N31792  -0.045   7.453   9.454 -0.1020  1.1812  0.0450
  231MOL0     C31793   1.040   7.405   9.823 -0.0473 -0.6057 -0.2413
  231MOL0     C31794   1.090   7.495   9.911 -0.5158  0.0281 -0.1315
  231MOL0     C31795   1.269   7.794  10.182 -0.1239  0.3104  0.8843
  231MOL0     C31796   1.222   7.893  10.269 -0.2961  0.0611  0.3154
  231MOL0     C31797   1.307   7.953  10.357 -0.8240 -0.5620 -0.1647
  231MOL0     C31798   1.443   7.916  10.358  0.3289 -0.3849 -0.2663
  231MOL0     O31799   1.523   7.980  10.447  0.3546 -0.4597  0.2978
  231MOL0     C31800   1.539   7.902  10.559  0.1934  0.1930 -0.5174
  231MOL0     C31801   1.418   7.901  10.650  1.0600  0.4835 -0.4955
  231MOL0     C31802   1.445   7.844  10.787 -0.6087 -0.5659 -0.2923
  231MOL0     C31803   1.467   7.962  10.885  0.3111 -0.1899  0.8501
  231MOL0     C31804   1.512   7.922  11.026 -0.1385 -0.8243  0.2533
  231MOL0     C31805   1.543   7.881  11.138  0.6570 -0.0793  0.7011
  231MOL0     C31806   1.493   7.805  10.279  0.3695 -0.0047  0.1792
  231MOL0     C31807   1.410   7.749  10.181 -0.0504  0.6392  0.6574
  231MOL0     C31808   1.461   7.630  10.095 -0.5324  1.0175  0.0232
  231MOL0     H31809   0.909   7.426  10.190 -0.8091  1.4321  0.1724
  231MOL0     H31810   0.805   7.270  10.019 -0.5069 -0.0971  1.4319
  231MOL0     H31811   0.993   7.138   9.649 -1.3056 -1.4418 -1.4014
  231MOL0     H31812   0.972   7.300   9.594 -1.6327  0.2635 -1.6881
  231MOL0     H31813   0.855   7.179   9.445 -1.1914 -2.4750 -0.8071
  231MOL0     H31814   0.773   7.085   9.572 -0.5133 -0.5159 -0.4409
  231MOL0     H31815   0.681   7.332   9.634  1.0517 -2.8017  1.4293
  231MOL0     H31816   0.703   7.345   9.457 -4.9223  0.7197  0.1133
  231MOL0     H31817   0.578   7.177   9.405 -1.6892  3.7020 -0.4952
  231MOL0     H31818   0.571   7.099   9.555  0.4355 -0.5719  0.3439
  231MOL0     H31819   0.461   7.387   9.560 -1.2823  0.0547  1.7891
  231MOL0     H31820   0.443   7.257   9.671  0.5711  3.5255  0.5483
  231MOL0     H31821   0.357   7.225   9.377  1.9835 -1.7365  0.8742
  231MOL0     H31822   0.306   7.127   9.496  0.4049  0.1888 -2.2979
  231MOL0     H31823   0.210   7.389   9.418  2.0252  1.3363  0.5349
  231MOL0     H31824   0.188   7.363   9.593  0.4574  0.3104 -0.9689
  231MOL0     H31825   0.082   7.167   9.379 -2.5183 -2.7850  0.7013
  231MOL0     H31826   0.054   7.161   9.550  0.9222  1.0814  1.1996
  231MOL0     H31827  -0.206   7.176   9.439  0.4074 -0.5547  1.3312
  231MOL0     H31828  -0.440   7.471   9.538 -1.2391 -0.0177 -0.8291
  231MOL0     H31829  -0.433   7.301   9.456  0.8256 -1.3230 -5.0383
  231MOL0     H31830  -0.574   7.480   9.353 -0.2266 -0.5732  0.0252
  231MOL0     H31831  -0.440   7.584   9.368  2.5011 -0.4745  3.8798
  231MOL0     H31832  -0.485   7.514   9.138 -2.4114  0.5561  2.7677
  231MOL0     H31833  -0.317   7.473   9.206  0.4208 -2.7333  2.9175
  231MOL0     H31834  -0.376   7.238   9.218 -0.4842 -0.4061  0.7886
  231MOL0     H31835  -0.550   7.273   9.197 -2.2507 -0.4902 -3.4963
  231MOL0     H31836  -0.494   7.050   9.161  3.0968  0.7667  1.0330
  231MOL0     H31837  -0.427   6.720   9.092  2.1857  1.8753 -0.1814
  231MOL0     H31838  -0.600   6.750   9.038 -0.4138  0.6197 -1.3342
  231MOL0     H31839  -0.535   6.822   9.185 -0.2673 -2.1716  0.7316
  231MOL0     H31840  -0.305   6.508   8.743  0.2533  2.5117  0.9208
  231MOL0     H31841  -0.183   6.342   8.626  1.1837  0.6241  0.1394
  231MOL0     H31842   0.050   6.306   8.495  2.3484 -2.1647 -0.0866
  231MOL0     H31843  -0.081   6.190   8.457  0.3666 -0.0057  0.0940
  231MOL0     H31844   0.137   6.303   8.273 -0.6733  0.0639 -1.2936
  231MOL0     H31845   0.131   6.142   8.338 -0.2595 -1.7176 -1.4285
  231MOL0     H31846  -0.111   6.142   8.205  0.0327  1.3569  0.7245
  231MOL0     H31847   0.050   6.079   8.140  0.5617 -1.6495  0.8387
  231MOL0     H31848   0.065   6.274   8.008  2.6645 -3.3647  1.0190
  231MOL0     H31849  -0.095   6.335   8.078 -2.0438 -1.6991 -0.3354
  231MOL0     H31850  -0.212   6.148   7.986 -0.2516  2.0027  3.5103
  231MOL0     H31851  -0.119   6.215   7.848  0.0500 -1.3836 -0.7254
  231MOL0     H31852  -0.050   5.958   8.005 -2.7606 -1.5988 -1.1120
  231MOL0     H31853   0.057   6.031   7.881  1.3078 -0.0071  0.3712
  231MOL0     H31854  -0.061   5.961   7.705  1.8511  0.3936  2.0032
  231MOL0     H31855  -0.216   5.977   7.793  0.6126  1.6401  0.2090
  231MOL0     H31856  -0.159   5.740   7.722 -0.7154 -1.7487  0.2397
  231MOL0     H31857  -0.175   5.758   7.895 -0.5147  1.1372  1.3213
  231MOL0     H31858  -0.162   6.614   8.287 -0.6941 -1.2727  0.1035
  231MOL0     H31859  -0.279   6.777   8.404  2.2007 -0.6510 -0.9963
  231MOL0     H31860  -0.395   6.992   8.679  0.9870 -3.7613  0.8709
  231MOL0     H31861  -0.413   7.225   8.782  0.4477  0.6982  0.5053
  231MOL0     H31862   1.091   7.398   9.728  1.0456 -0.3759  0.3040
  231MOL0     H31863   1.179   7.546   9.876  1.8478 -4.2308 -1.0701
  231MOL0     H31864   1.115   7.912  10.265 -0.0033  2.8706  2.6174
  231MOL0     H31865   1.268   8.029  10.424 -2.8693 -3.1191  1.8212
  231MOL0     H31866   1.558   7.799  10.527  0.0018  0.6098 -2.0498
  231MOL0     H31867   1.614   7.945  10.626  0.8615 -2.6294  0.7097
  231MOL0     H31868   1.341   7.836  10.608 -1.6569  1.2590  2.8260
  231MOL0     H31869   1.372   8.000  10.647  0.5432  0.3387  1.3055
  231MOL0     H31870   1.361   7.781  10.816 -0.6424 -0.4886 -0.2220
  231MOL0     H31871   1.536   7.783  10.782  0.8164  1.2294  1.7793
  231MOL0     H31872   1.364   8.000  10.878 -0.1772 -1.7400 -1.6571
  231MOL0     H31873   1.541   8.034  10.850 -0.2003 -0.0692 -0.0012
  231MOL0     H31874   1.567   7.844  11.236  1.7250 -0.3746  0.3311
  231MOL0     H31875   1.597   7.775  10.274 -0.1620 -1.7654 -1.9278
  231MOL0     H31876   1.567   7.637  10.067  0.0231  1.7276  2.1272
  231MOL0     H31877   1.463   7.547  10.165  2.2361  0.2836 -0.7882
  231MOL0     H31878   1.402   7.610  10.005  0.2563  0.3241 -0.3491
  232MOL0     O31879   4.644   4.428   5.853  0.6623  0.1077 -0.2126
  232MOL0     C31880   4.606   4.544   5.847 -0.4759  0.4706  0.0816
  232MOL0     O31881   4.622   4.620   5.739 -0.5644  0.4741  0.2217
  232MOL0     C31882   4.666   4.564   5.627 -0.3431 -0.8186  1.1356
  232MOL0     C31883   4.600   4.471   5.546 -0.3820  0.0229 -0.6946
  232MOL0     C31884   4.640   4.448   5.414  0.0028 -0.0296  0.8608
  232MOL0     C31885   4.756   4.499   5.369  0.0548  0.4989  0.1913
  232MOL0     O31886   4.795   4.482   5.238  0.3743  0.0056 -0.1171
  232MOL0     C31887   4.842   4.351   5.194 -0.1121 -0.2123 -0.5135
  232MOL0     C31888   4.967   4.370   5.107  0.3764  0.0378  0.6875
  232MOL0     C31889   5.057   4.246   5.091 -0.4063  0.1886 -0.1634
  232MOL0     C31890   5.079   4.181   5.222 -0.5315  0.7204 -0.0280
  232MOL0     C31891   5.196   4.073   5.219  0.3802 -0.0305  0.3384
  232MOL0     C31892   5.173   3.975   5.098  0.1073  0.4126 -1.1758
  232MOL0     C31893   5.259   3.854   5.123  0.3784 -0.0306 -0.2590
  232MOL0     C31894   5.406   3.889   5.165  0.3370  1.0651 -0.6267
  232MOL0     N31895   5.480   3.937   5.047  0.6146  0.3813 -0.3652
  232MOL0     C31896   5.514   4.060   5.014  0.3402 -0.8989  0.7244
  232MOL0     C31897   5.553   4.059   4.884 -0.5695 -0.1963  0.4890
  232MOL0     C31898   5.561   4.177   4.790  1.0751  0.1118  0.2265
  232MOL0     C31899   5.431   4.254   4.792 -0.2213 -1.1871  0.9507
  232MOL0     C31900   5.419   4.349   4.681  0.6394 -0.8814  0.6139
  232MOL0     C31901   5.310   4.450   4.710  1.3852  0.5706  0.1787
  232MOL0     O31902   5.182   4.393   4.670  0.4466  0.1770 -0.1165
  232MOL0     C31903   5.062   4.447   4.714 -0.7731  1.0001 -0.1114
  232MOL0     C31904   4.953   4.357   4.690  0.3304 -0.8047  0.4923
  232MOL0     C31905   4.821   4.371   4.734 -0.0934  0.2259  0.0557
  232MOL0     C31906   4.726   4.262   4.695  0.1220 -0.3359 -0.4037
  232MOL0     C31907   4.798   4.488   4.811  0.7167 -0.0498 -0.3838
  232MOL0     C31908   4.667   4.528   4.875 -0.0757 -0.5048 -0.2030
  232MOL0     O31909   4.637   4.666   4.892  0.6482  0.5919  0.2238
  232MOL0     C31910   4.511   4.694   4.953 -0.6352  0.0569 -0.1448
  232MOL0     C31911   4.408   4.720   4.875 -0.0561 -0.4865 -0.1605
  232MOL0     C31912   4.291   4.778   4.928 -1.0250  0.4112  0.4608
  232MOL0     C31913   4.283   4.793   5.069  0.8845 -0.5439 -0.0987
  232MOL0     O31914   4.174   4.856   5.128 -0.3454 -0.0784  0.1580
  232MOL0     C31915   4.041   4.828   5.085  0.0794  0.3234  0.1028
  232MOL0     C31916   3.943   4.891   5.180  0.8144 -0.2589 -0.2060
  232MOL0     C31917   3.972   4.865   5.334  0.2755  0.2750  1.0643
  232MOL0     C31918   3.878   4.918   5.442  0.5476  0.7488 -0.1877
  232MOL0     C31919   3.912   5.069   5.470 -0.0960  0.6594 -0.5794
  232MOL0     C31920   3.841   5.121   5.594 -0.2314  0.4271 -0.7611
  232MOL0     C31921   3.883   5.273   5.619  0.7648  0.0464 -0.5673
  232MOL0     C31922   3.803   5.376   5.536 -0.0636 -0.1006 -0.9852
  232MOL0    Cl31923   3.625   5.380   5.595  0.2853  0.2553  0.1552
  232MOL0     C31924   4.385   4.743   5.150  0.3793  0.0290  0.5388
  232MOL0     C31925   4.499   4.702   5.089 -0.4188 -0.2531 -0.9724
  232MOL0     O31926   4.594   4.434   4.906 -0.7352  0.7775 -0.4617
  232MOL0     C31927   4.904   4.581   4.829 -0.2412  0.3030 -0.4976
  232MOL0     C31928   5.039   4.562   4.783  0.2437  1.2604 -0.2355
  232MOL0     N31929   5.541   3.928   4.841  0.0899 -0.0033  0.1380
  232MOL0     N31930   5.489   3.853   4.937 -0.0154  0.1514  1.7821
  232MOL0     C31931   4.839   4.574   5.455 -0.3554  0.3756 -0.5201
  232MOL0     C31932   4.786   4.617   5.576 -0.3421 -0.0812  0.4520
  232MOL0     C31933   4.541   4.588   5.964  0.1736  0.0244 -0.1552
  232MOL0     C31934   4.579   4.708   6.023 -0.0857 -0.4341 -0.4894
  232MOL0     C31935   4.539   4.746   6.147  0.8109  0.0880  0.8200
  232MOL0     C31936   4.445   4.660   6.217 -0.3341 -0.1449  0.3264
  232MOL0     O31937   4.387   4.705   6.333  0.7330  0.2729 -0.3862
  232MOL0     C31938   4.465   4.688   6.447 -0.0620  0.3640  0.7087
  232MOL0     C31939   4.463   4.543   6.496 -0.7504 -1.2960 -0.0026
  232MOL0     C31940   4.326   4.486   6.535  0.8653  0.7006 -0.5010
  232MOL0     C31941   4.344   4.349   6.602  0.1253  0.3237  0.7883
  232MOL0     C31942   4.380   4.362   6.739  0.1104 -0.2870 -0.4706
  232MOL0     C31943   4.393   4.379   6.864 -0.6569  0.4363  0.2694
  232MOL0     C31944   4.403   4.553   6.163  0.1921 -0.2432  0.1632
  232MOL0     C31945   4.455   4.506   6.040  0.4272  0.8538 -1.5517
  232MOL0     C31946   4.425   4.358   6.009 -0.0908 -0.0986  0.4972
  232MOL0     H31947   4.503   4.431   5.574  1.2850 -3.0327  1.2266
  232MOL0     H31948   4.577   4.407   5.336 -2.1350  0.6291  2.1534
  232MOL0     H31949   4.766   4.311   5.125  0.9907  0.1919 -2.0230
  232MOL0     H31950   4.854   4.283   5.278 -2.3761  0.4818  0.4507
  232MOL0     H31951   4.935   4.390   5.004 -0.9174 -0.4789  0.9730
  232MOL0     H31952   5.032   4.455   5.130 -0.1516  0.3504  1.0707
  232MOL0     H31953   5.008   4.176   5.023  3.1041  0.6580 -3.5517
  232MOL0     H31954   5.154   4.276   5.049 -0.2753  1.6535  1.1123
  232MOL0     H31955   5.102   4.264   5.290  1.8556  0.1291 -0.0290
  232MOL0     H31956   4.988   4.132   5.257 -1.6778 -0.0392 -3.6181
  232MOL0     H31957   5.197   4.014   5.311 -1.1855  0.8349  0.9589
  232MOL0     H31958   5.288   4.131   5.214 -0.0656  0.6003 -1.9753
  232MOL0     H31959   5.067   3.949   5.102  0.3344 -0.5182 -1.0408
  232MOL0     H31960   5.176   4.011   4.994 -0.1454 -0.3607 -1.4612
  232MOL0     H31961   5.273   3.785   5.039  1.5363 -1.5176  1.0984
  232MOL0     H31962   5.209   3.800   5.203  4.7045 -1.3585  1.8623
  232MOL0     H31963   5.420   3.964   5.243 -1.5956  0.7200  0.1168
  232MOL0     H31964   5.455   3.796   5.194 -1.3897  0.2248 -0.2349
  232MOL0     H31965   5.482   4.152   5.063  2.2880  0.7557 -0.9277
  232MOL0     H31966   5.574   4.144   4.686  5.1151  0.0127  0.6035
  232MOL0     H31967   5.649   4.241   4.800 -0.4938  2.2687  0.9720
  232MOL0     H31968   5.348   4.183   4.782 -1.1862  0.1631 -1.5027
  232MOL0     H31969   5.426   4.314   4.883 -0.3953  2.4734 -1.2493
  232MOL0     H31970   5.503   4.417   4.666 -0.5166  1.0102  2.1818
  232MOL0     H31971   5.405   4.302   4.583  1.6866  0.5045 -0.2470
  232MOL0     H31972   5.304   4.481   4.815 -2.5281 -2.2005  1.0231
  232MOL0     H31973   5.315   4.541   4.650  2.5434  0.2590 -0.2329
  232MOL0     H31974   4.967   4.267   4.631 -1.1206 -2.1310  2.0533
  232MOL0     H31975   4.727   4.189   4.776 -0.6138  1.4029  1.2567
  232MOL0     H31976   4.749   4.206   4.604 -1.0488 -2.3374  0.4514
  232MOL0     H31977   4.627   4.308   4.686 -0.0485 -0.7253 -0.5502
  232MOL0     H31978   4.419   4.699   4.769  0.3115  0.8436 -0.4040
  232MOL0     H31979   4.213   4.795   4.854  0.8105 -3.3876 -2.7631
  232MOL0     H31980   4.027   4.871   4.986  2.1254 -0.8156 -0.7291
  232MOL0     H31981   4.025   4.720   5.080  0.9413  0.2356 -1.1188
  232MOL0     H31982   3.939   5.000   5.171 -0.5038  0.4758  5.4695
  232MOL0     H31983   3.844   4.847   5.166  1.6806 -3.4979  2.3903
  232MOL0     H31984   4.074   4.902   5.345  0.6151 -0.7004  1.2814
  232MOL0     H31985   3.975   4.755   5.337 -2.1285  0.1352  0.9350
  232MOL0     H31986   3.910   4.859   5.529 -0.0560  0.2548 -0.2921
  232MOL0     H31987   3.773   4.893   5.430  0.4954 -0.0141  1.5263
  232MOL0     H31988   4.015   5.068   5.509 -1.2633  3.6914  3.1307
  232MOL0     H31989   3.893   5.141   5.391 -2.2414  3.4915  2.2734
  232MOL0     H31990   3.861   5.062   5.684 -1.5388  2.3680  0.9116
  232MOL0     H31991   3.732   5.113   5.589 -0.7085  2.8879  2.2160
  232MOL0     H31992   3.988   5.283   5.591  0.7183 -1.1566 -1.2343
  232MOL0     H31993   3.883   5.290   5.727  2.0324 -3.6504  0.1460
  232MOL0     H31994   3.815   5.340   5.433 -0.0853 -0.8349 -0.7362
  232MOL0     H31995   3.855   5.471   5.552  2.4932 -1.1401 -2.3985
  232MOL0     H31996   4.371   4.746   5.257 -3.6769 -0.7339  0.1917
  232MOL0     H31997   4.582   4.678   5.153  0.4874 -0.0155 -2.0228
  232MOL0     H31998   4.881   4.669   4.889  2.0703 -2.0238  4.3717
  232MOL0     H31999   5.117   4.637   4.779  2.0170 -0.5033 -0.0624
  232MOL0     H32000   4.937   4.608   5.424  0.4849 -1.7875 -0.4090
  232MOL0     H32001   4.839   4.699   5.625  2.0766 -0.1185 -1.8389
  232MOL0     H32002   4.652   4.769   5.970 -2.6405  2.5096 -0.8950
  232MOL0     H32003   4.574   4.841   6.185  1.6684  0.3672 -0.6203
  232MOL0     H32004   4.564   4.729   6.427  1.2274 -1.0515  3.6159
  232MOL0     H32005   4.416   4.744   6.526 -1.7257 -0.7149  0.5010
  232MOL0     H32006   4.535   4.544   6.578 -0.3893  0.9753 -0.2709
  232MOL0     H32007   4.513   4.484   6.419 -1.5822 -1.0026 -0.7842
  232MOL0     H32008   4.264   4.547   6.600  1.6506  0.6586  0.3056
  232MOL0     H32009   4.262   4.480   6.446 -0.1311 -0.7204  0.2706
  232MOL0     H32010   4.409   4.282   6.544  3.4291 -0.5689  5.0414
  232MOL0     H32011   4.243   4.307   6.607  0.7188 -1.0175  2.5863
  232MOL0     H32012   4.405   4.379   6.970  0.1295  1.2373  0.1896
  232MOL0     H32013   4.331   4.485   6.209 -1.0885  0.9751  0.0318
  232MOL0     H32014   4.339   4.314   6.061  0.8645 -3.6800 -0.6407
  232MOL0     H32015   4.398   4.347   5.903  1.4780 -4.6340  0.3559
  232MOL0     H32016   4.511   4.291   6.019  0.5407  0.3447 -1.4121
  233MOL0     O32017   6.146   1.747   4.984  0.8274  0.2089  1.2735
  233MOL0     C32018   6.141   1.693   4.872  0.1527 -0.4576 -0.9128
  233MOL0     O32019   6.200   1.742   4.756  0.4589  0.3105  0.1472
  233MOL0     C32020   6.247   1.869   4.768 -0.1612 -0.5398 -0.0355
  233MOL0     C32021   6.162   1.979   4.764 -0.3788 -0.1565 -0.3696
  233MOL0     C32022   6.216   2.110   4.772 -0.0402 -0.5518  0.0873
  233MOL0     C32023   6.355   2.125   4.763  0.9039  0.0877  0.5826
  233MOL0     O32024   6.395   2.251   4.763  0.1434  0.1293 -0.5640
  233MOL0     C32025   6.535   2.278   4.754 -0.6808 -0.8082 -0.0633
  233MOL0     C32026   6.580   2.429   4.777  0.0515  0.8169 -0.0922
  233MOL0     C32027   6.513   2.531   4.677  0.3290 -0.0306  0.1416
  233MOL0     C32028   6.587   2.539   4.537 -0.3513  0.7498 -0.2468
  233MOL0     C32029   6.505   2.607   4.433 -0.0471  0.3821 -0.4188
  233MOL0     C32030   6.474   2.754   4.458 -0.1350  1.1066  0.5334
  233MOL0     C32031   6.385   2.805   4.333 -0.6645  0.5099 -0.5184
  233MOL0     C32032   6.291   2.915   4.373  0.3112  0.6646  0.8451
  233MOL0     N32033   6.342   3.023   4.451  0.5211  0.7190 -0.6934
  233MOL0     C32034   6.453   3.095   4.436 -0.5568 -0.2432  0.4191
  233MOL0     C32035   6.432   3.206   4.502  0.0213  0.8826  0.0122
  233MOL0     C32036   6.547   3.301   4.517  0.4147 -0.0903  0.0672
  233MOL0     C32037   6.528   3.401   4.635  1.0794 -0.4178  0.4199
  233MOL0     C32038   6.651   3.493   4.644 -0.3897  0.6487 -0.0388
  233MOL0     C32039   6.655   3.574   4.770 -0.5992 -0.7380 -0.0903
  233MOL0     O32040   6.735   3.696   4.755 -0.0131 -0.9590  0.6641
  233MOL0     C32041   6.682   3.812   4.708  0.0787 -0.1441  0.0170
  233MOL0     C32042   6.774   3.904   4.657  0.0415  0.4362  0.7915
  233MOL0     C32043   6.741   4.032   4.613 -0.8157 -0.0386  1.5258
  233MOL0     C32044   6.864   4.123   4.575 -0.3034 -1.0256  0.6178
  233MOL0     C32045   6.609   4.073   4.611  0.1930 -0.3904  0.2810
  233MOL0     C32046   6.558   4.199   4.555  0.0624  0.5333  0.5762
  233MOL0     O32047   6.423   4.225   4.577  0.0324 -0.6763  0.2470
  233MOL0     C32048   6.375   4.350   4.540 -0.5142 -0.5856  0.1496
  233MOL0     C32049   6.305   4.347   4.418  0.5675 -0.3663 -0.7532
  233MOL0     C32050   6.240   4.463   4.365 -1.2208  0.1610 -0.0556
  233MOL0     C32051   6.251   4.588   4.436 -0.2712 -0.9766 -0.5353
  233MOL0     O32052   6.197   4.704   4.393 -0.8281  0.0746 -0.6302
  233MOL0     C32053   6.098   4.696   4.289  0.5263  0.3625  0.2370
  233MOL0     C32054   6.028   4.831   4.292 -0.3966  0.7203 -0.3435
  233MOL0     C32055   5.933   4.850   4.177 -0.1381  0.4928  0.1094
  233MOL0     C32056   5.880   4.989   4.180  0.1188 -0.3177  0.1810
  233MOL0     C32057   5.829   5.042   4.050 -0.3034 -0.2452 -0.5556
  233MOL0     C32058   5.813   5.197   4.066 -0.1414 -0.6847 -0.4858
  233MOL0     C32059   5.719   5.253   3.959 -0.2175 -0.5300 -0.7684
  233MOL0     C32060   5.736   5.397   3.907 -0.3807 -0.0003 -0.2646
  233MOL0    Cl32061   5.630   5.412   3.776 -0.0898  0.0268  0.5434
  233MOL0     C32062   6.316   4.586   4.565  0.3334  0.5130 -0.6053
  233MOL0     C32063   6.383   4.470   4.613  0.3831  0.5449  0.1083
  233MOL0     O32064   6.638   4.273   4.500 -0.3922 -0.7604  1.5699
  233MOL0     C32065   6.510   3.982   4.665 -0.2664  0.8240  0.1549
  233MOL0     C32066   6.553   3.858   4.715  1.0770 -0.0313 -1.0986
  233MOL0     N32067   6.313   3.207   4.570 -0.1740 -0.0641 -0.5773
  233MOL0     N32068   6.251   3.106   4.517 -0.2167  0.4074 -0.3107
  233MOL0     C32069   6.437   2.014   4.769  0.1729  0.4765  0.5223
  233MOL0     C32070   6.386   1.889   4.768 -0.3598  0.7631  0.6000
  233MOL0     C32071   6.045   1.575   4.855 -0.0453  0.0823 -0.1498
  233MOL0     C32072   6.086   1.492   4.755 -0.0361 -0.1985 -0.9221
  233MOL0     C32073   6.011   1.372   4.714  0.7035 -0.6453 -0.7345
  233MOL0     C32074   5.895   1.347   4.781  0.3379 -0.1784  0.0484
  233MOL0     O32075   5.828   1.231   4.731  0.5226 -0.1784 -0.3017
  233MOL0     C32076   5.762   1.150   4.830  0.6407  0.8766  0.0569
  233MOL0     C32077   5.661   1.062   4.752 -0.3453 -1.2753 -0.1273
  233MOL0     C32078   5.749   0.961   4.669  1.0710 -0.5475  0.1108
  233MOL0     C32079   5.668   0.845   4.611  0.4647 -0.0540  0.0599
  233MOL0     C32080   5.760   0.740   4.566 -0.2396 -1.0511  0.4113
  233MOL0     C32081   5.835   0.645   4.561  0.5671 -0.5387  0.2741
  233MOL0     C32082   5.848   1.435   4.869  0.4482  0.3270  0.3794
  233MOL0     C32083   5.922   1.551   4.909  0.6427  0.3260  0.3741
  233MOL0     C32084   5.857   1.645   5.009  0.3403 -0.2725 -0.3925
  233MOL0     H32085   6.055   1.968   4.772 -0.8107  4.0080  3.0636
  233MOL0     H32086   6.151   2.197   4.766 -0.1422 -0.6792 -0.7489
  233MOL0     H32087   6.569   2.243   4.656 -1.2409 -1.1200 -0.1500
  233MOL0     H32088   6.592   2.234   4.836  0.1932  0.9838  0.3521
  233MOL0     H32089   6.537   2.446   4.876 -1.5059  2.3352 -0.9589
  233MOL0     H32090   6.688   2.441   4.767  0.2918  0.9056  2.1767
  233MOL0     H32091   6.408   2.510   4.656  0.2385  1.3798 -0.9667
  233MOL0     H32092   6.524   2.619   4.740  0.4774 -0.5627  0.8718
  233MOL0     H32093   6.684   2.588   4.551  0.9580 -1.6099 -0.4481
  233MOL0     H32094   6.599   2.435   4.505 -1.3563  0.8515 -0.9905
  233MOL0     H32095   6.406   2.560   4.425  0.9421 -1.5063 -3.4468
  233MOL0     H32096   6.556   2.597   4.336 -1.2217  3.6496 -1.5334
  233MOL0     H32097   6.413   2.766   4.548  0.5446  1.8698  0.9067
  233MOL0     H32098   6.570   2.804   4.470  0.7960 -0.4566 -0.1045
  233MOL0     H32099   6.322   2.729   4.286 -0.7511 -0.4156  1.0356
  233MOL0     H32100   6.454   2.850   4.260  3.1510 -3.0131  0.5543
  233MOL0     H32101   6.240   2.962   4.289 -2.0076 -0.7005  1.3866
  233MOL0     H32102   6.205   2.861   4.413  0.0077  0.8893  0.5053
  233MOL0     H32103   6.538   3.079   4.371  0.6126  4.0349  0.6279
  233MOL0     H32104   6.565   3.354   4.423 -0.6776  0.7933  0.3305
  233MOL0     H32105   6.623   3.232   4.553  1.4291  0.8417 -0.2292
  233MOL0     H32106   6.441   3.459   4.604  1.3852 -0.0888  0.1632
  233MOL0     H32107   6.492   3.348   4.724 -5.2913  0.4952 -1.1182
  233MOL0     H32108   6.751   3.449   4.639 -0.0506  1.3626  0.3300
  233MOL0     H32109   6.648   3.566   4.564  2.3436  0.4460 -0.4357
  233MOL0     H32110   6.555   3.593   4.810 -1.0704  1.3690 -2.0317
  233MOL0     H32111   6.706   3.506   4.839  2.1994 -1.9409 -3.1074
  233MOL0     H32112   6.872   3.859   4.655 -0.7754 -1.4318  0.7225
  233MOL0     H32113   6.958   4.083   4.613  0.1812 -0.1187  0.4158
  233MOL0     H32114   6.848   4.219   4.625 -0.9826 -0.7125 -0.1714
  233MOL0     H32115   6.877   4.149   4.469 -1.6715  3.0685  1.2756
  233MOL0     H32116   6.298   4.254   4.363 -1.2686 -1.0898  0.6082
  233MOL0     H32117   6.194   4.456   4.267 -2.0093 -0.9114  0.3774
  233MOL0     H32118   6.147   4.678   4.193  1.5334 -0.3182  0.8585
  233MOL0     H32119   6.023   4.619   4.310  2.8979 -1.7875  1.3709
  233MOL0     H32120   5.988   4.868   4.387  0.7143 -0.3338  0.5619
  233MOL0     H32121   6.108   4.900   4.266  2.0233 -2.0452 -0.7973
  233MOL0     H32122   5.863   4.765   4.177  2.3694 -1.7207 -1.9808
  233MOL0     H32123   5.994   4.836   4.088  0.8011  0.4740  0.7378
  233MOL0     H32124   5.960   5.055   4.214 -1.8412  1.4610  1.5793
  233MOL0     H32125   5.805   5.006   4.258 -1.1842 -1.2366 -0.8184
  233MOL0     H32126   5.898   5.023   3.968  1.8637  0.8221  0.9250
  233MOL0     H32127   5.737   4.985   4.034  0.9846 -3.4352  2.1353
  233MOL0     H32128   5.913   5.242   4.058 -1.2210  1.9511 -0.2473
  233MOL0     H32129   5.787   5.213   4.171  3.9372 -0.1041  0.6116
  233MOL0     H32130   5.617   5.246   3.998 -0.1970  2.1175 -0.0925
  233MOL0     H32131   5.719   5.187   3.871 -0.9946 -0.7242 -0.6280
  233MOL0     H32132   5.841   5.414   3.880 -1.1042  1.9779 -2.0587
  233MOL0     H32133   5.710   5.462   3.991  1.6799  0.8361 -0.2183
  233MOL0     H32134   6.323   4.677   4.624  1.7529 -0.4632  0.8267
  233MOL0     H32135   6.433   4.471   4.709 -0.9821 -0.5460  0.8621
  233MOL0     H32136   6.404   4.002   4.654 -0.1137  0.4574 -2.8807
  233MOL0     H32137   6.481   3.802   4.774  0.4235 -0.3112 -2.1517
  233MOL0     H32138   6.545   2.022   4.768  0.1591  1.6664  2.1032
  233MOL0     H32139   6.445   1.799   4.754 -2.1975 -0.7267  1.9635
  233MOL0     H32140   6.183   1.501   4.706  0.2961 -0.4476 -0.3311
  233MOL0     H32141   6.048   1.301   4.641  2.9327 -0.0572 -0.2730
  233MOL0     H32142   5.840   1.095   4.883 -1.4172 -2.8346 -0.4496
  233MOL0     H32143   5.715   1.211   4.908 -0.4909 -2.3645  2.1026
  233MOL0     H32144   5.582   1.122   4.705  1.3685  0.3828 -1.0412
  233MOL0     H32145   5.600   1.005   4.822 -1.7372  0.7714  0.4333
  233MOL0     H32146   5.788   1.018   4.584  0.1118 -0.6768 -0.4357
  233MOL0     H32147   5.836   0.920   4.720  2.4419  1.7579 -0.2255
  233MOL0     H32148   5.606   0.881   4.529 -0.3396 -2.6156 -0.5227
  233MOL0     H32149   5.607   0.806   4.694  3.4332 -0.6505  2.1343
  233MOL0     H32150   5.889   0.553   4.562 -2.5138 -2.4904  0.1817
  233MOL0     H32151   5.743   1.421   4.893  1.4979 -2.7438  4.2722
  233MOL0     H32152   5.871   1.748   4.977  0.5261 -0.6059 -1.4230
  233MOL0     H32153   5.749   1.635   5.014  0.0852  2.1386  0.2773
  233MOL0     H32154   5.902   1.635   5.109  1.8604  2.2972 -0.7141
  234MOL0     O32155   2.629   9.262   9.738  0.3681 -0.0274 -1.1792
  234MOL0     C32156   2.653   9.159   9.682 -0.2133  0.6959 -0.9505
  234MOL0     O32157   2.573   9.046   9.679  0.1704  0.6965 -0.0265
  234MOL0     C32158   2.464   9.040   9.761  0.2257 -0.9365 -0.6393
  234MOL0     C32159   2.332   9.015   9.724  0.4096 -0.2934  0.2350
  234MOL0     C32160   2.236   8.985   9.819 -0.5272  1.4307 -0.4366
  234MOL0     C32161   2.262   8.964   9.956 -0.2086  0.0832  0.0912
  234MOL0     O32162   2.171   8.920  10.055 -0.2228  0.3415 -0.7117
  234MOL0     C32163   2.115   8.793  10.005  0.8863  0.6573 -0.0554
  234MOL0     C32164   2.051   8.718  10.126  0.2075 -0.6795 -0.1042
  234MOL0     C32165   2.159   8.674  10.226 -0.4076  0.3239  0.3776
  234MOL0     C32166   2.245   8.561  10.162 -0.9337 -0.1497  0.1291
  234MOL0     C32167   2.305   8.486  10.288 -0.6297 -0.6854  0.5067
  234MOL0     C32168   2.419   8.387  10.266  0.5461 -1.1093 -0.3415
  234MOL0     C32169   2.398   8.282  10.158 -0.4046  0.1334 -0.3144
  234MOL0     C32170   2.526   8.209  10.104  0.5465 -0.0273 -0.0719
  234MOL0     N32171   2.607   8.183  10.217  0.0666 -0.1253 -0.0751
  234MOL0     C32172   2.728   8.237  10.256 -0.2736  0.2313 -0.3735
  234MOL0     C32173   2.786   8.159  10.351  0.2092 -0.2338  0.1730
  234MOL0     C32174   2.904   8.191  10.446  0.1248  0.1753  0.1221
  234MOL0     C32175   2.875   8.318  10.540  0.9839 -0.8055 -0.7821
  234MOL0     C32176   2.799   8.277  10.659  0.1706 -0.3250 -0.2546
  234MOL0     C32177   2.805   8.375  10.771  0.0986 -0.5531 -0.1230
  234MOL0     O32178   2.934   8.373  10.833  0.1985  0.1837  0.1194
  234MOL0     C32179   2.961   8.306  10.950  0.2095  0.1435  0.1567
  234MOL0     C32180   2.874   8.218  11.018 -0.3688  0.4087  0.4927
  234MOL0     C32181   2.901   8.154  11.145 -0.6634 -0.0596 -0.3862
  234MOL0     C32182   2.791   8.067  11.198  0.0435  0.8434  0.0635
  234MOL0     C32183   3.017   8.192  11.214 -0.0978  0.0493 -0.0999
  234MOL0     C32184   3.046   8.143  11.350 -0.1817 -0.2874  0.0295
  234MOL0     O32185   3.122   8.225  11.428 -0.4222  0.0533  0.2378
  234MOL0     C32186   3.145   8.202  11.564  0.6108  0.3024 -0.1110
  234MOL0     C32187   3.217   8.099  11.612  0.1184  1.2434 -0.1993
  234MOL0     C32188   3.227   8.092  11.758  0.2105  0.5717 -0.2788
  234MOL0     C32189   3.171   8.187  11.848 -0.4199  0.1456  0.0726
  234MOL0     O32190   3.160   8.167  11.993 -0.1720  0.1613  0.6831
  234MOL0     C32191   3.200   8.047  12.046 -0.8988  0.3300 -0.5264
  234MOL0     C32192   3.191   8.059  12.204 -0.0796  0.7943  1.3004
  234MOL0     C32193   3.046   8.029  12.242 -0.6490  0.0067 -0.9502
  234MOL0     C32194   3.007   8.028  12.391  0.1412  0.3063 -0.1563
  234MOL0     C32195   2.869   7.968  12.420 -0.0396 -0.6571  0.5672
  234MOL0     C32196   2.861   7.919  12.565  0.7684 -0.6678  0.7903
  234MOL0     C32197   2.737   7.845  12.586 -0.7700 -0.3920  0.6496
  234MOL0     C32198   2.708   7.822  12.733  0.2102 -0.0184 -0.3991
  234MOL0    Cl32199   2.564   7.721  12.768  0.2645 -1.1734  0.2642
  234MOL0     C32200   3.104   8.294  11.788  0.5829  0.2841  0.0868
  234MOL0     C32201   3.094   8.304  11.647 -0.9164  0.6260 -1.0649
  234MOL0     O32202   3.001   8.033  11.382 -0.3015 -0.1450 -0.0765
  234MOL0     C32203   3.113   8.276  11.147 -0.1423 -0.0565  0.6734
  234MOL0     C32204   3.085   8.341  11.015 -0.1414  0.2915 -0.7705
  234MOL0     N32205   2.688   8.068  10.387 -0.0661  0.4549  0.0985
  234MOL0     N32206   2.583   8.078  10.305 -0.3684 -0.2239 -0.4494
  234MOL0     C32207   2.389   9.010   9.990  0.2835  0.2048  0.2181
  234MOL0     C32208   2.493   9.029   9.896 -0.0185 -0.4077  0.4014
  234MOL0     C32209   2.793   9.152   9.631  0.2664  0.3538  0.1379
  234MOL0     C32210   2.870   9.039   9.663  0.5170  0.0456 -1.3981
  234MOL0     C32211   3.005   9.019   9.613  1.2998 -0.1320 -0.4884
  234MOL0     C32212   3.063   9.123   9.537  0.5479 -0.5805 -0.0282
  234MOL0     O32213   3.189   9.095   9.503 -0.1801  0.5736 -0.2831
  234MOL0     C32214   3.291   9.199   9.530  0.1262  0.1291  0.1119
  234MOL0     C32215   3.413   9.187   9.435  1.0645 -0.4790 -0.3895
  234MOL0     C32216   3.481   9.045   9.426 -0.5573  0.2375 -0.2890
  234MOL0     C32217   3.605   9.051   9.326  0.6997 -0.1437 -0.8084
  234MOL0     C32218   3.700   9.157   9.368 -0.1825  1.2924 -0.3520
  234MOL0     C32219   3.765   9.247   9.412 -0.5786  0.9384  0.1060
  234MOL0     C32220   2.982   9.228   9.492  0.1802 -0.1774 -0.5626
  234MOL0     C32221   2.853   9.244   9.545 -0.1864  0.1364 -0.0119
  234MOL0     C32222   2.771   9.368   9.488 -0.8836  0.7568  0.1735
  234MOL0     H32223   2.297   9.029   9.622  0.7809 -1.2636 -0.0390
  234MOL0     H32224   2.132   8.975   9.791 -1.1156  4.4971  0.2884
  234MOL0     H32225   2.185   8.730   9.950  1.5381 -0.2203  1.7055
  234MOL0     H32226   2.027   8.819   9.946 -2.2730 -3.1169  2.4857
  234MOL0     H32227   1.965   8.768  10.172 -1.2163 -2.0727 -1.1696
  234MOL0     H32228   1.991   8.633  10.094  1.0436 -1.8479  1.3433
  234MOL0     H32229   2.219   8.760  10.258 -0.8328  0.4150  0.9416
  234MOL0     H32230   2.117   8.636  10.319 -0.2816 -0.7618  0.0075
  234MOL0     H32231   2.190   8.491  10.099 -0.7167  1.1837 -1.6301
  234MOL0     H32232   2.322   8.590  10.089 -1.1511 -0.1159 -0.0872
  234MOL0     H32233   2.221   8.428  10.327 -3.0900  1.6397 -0.9446
  234MOL0     H32234   2.332   8.561  10.362 -1.9323  1.0117 -0.6337
  234MOL0     H32235   2.494   8.455  10.225  1.0756 -2.0788 -1.0100
  234MOL0     H32236   2.444   8.350  10.366  1.8323  1.3296  0.3129
  234MOL0     H32237   2.331   8.315  10.078  1.5368 -0.7358 -2.3772
  234MOL0     H32238   2.346   8.200  10.209 -3.2786  1.8292 -0.2784
  234MOL0     H32239   2.503   8.110  10.064  1.3148 -0.5878  0.8378
  234MOL0     H32240   2.578   8.276  10.035 -0.0696  1.0105  0.4575
  234MOL0     H32241   2.771   8.331  10.224 -1.3278  1.2550  1.0988
  234MOL0     H32242   2.992   8.213  10.385  1.4387 -0.1572  1.7967
  234MOL0     H32243   2.921   8.106  10.513  0.4551 -0.1368 -0.3587
  234MOL0     H32244   2.968   8.375  10.555 -1.9497  3.9655  1.4837
  234MOL0     H32245   2.820   8.385  10.474  0.4764 -1.5548 -1.1343
  234MOL0     H32246   2.698   8.242  10.637  0.8438 -2.7038  0.1836
  234MOL0     H32247   2.840   8.185  10.703 -1.5231 -0.0119  2.2072
  234MOL0     H32248   2.796   8.472  10.721  2.5498 -0.4584 -0.4630
  234MOL0     H32249   2.716   8.361  10.834 -1.6048  0.0125 -2.2812
  234MOL0     H32250   2.777   8.223  10.970 -1.2478  3.1584  2.3382
  234MOL0     H32251   2.769   8.084  11.304  0.0755 -2.8550  0.8224
  234MOL0     H32252   2.807   7.958  11.196  0.1198  0.8566 -0.0598
  234MOL0     H32253   2.702   8.082  11.136 -0.6895 -0.0884  0.8478
  234MOL0     H32254   3.258   8.011  11.563 -0.1719 -0.0976  1.8189
  234MOL0     H32255   3.283   8.004  11.789  0.2595  0.0776 -1.6927
  234MOL0     H32256   3.142   7.959  12.017 -1.3152 -0.9770  3.5763
  234MOL0     H32257   3.305   8.030  12.020 -1.5218 -3.0946 -1.4176
  234MOL0     H32258   3.259   7.982  12.242 -1.8609 -0.5973  1.7847
  234MOL0     H32259   3.222   8.156  12.243 -1.8802  2.3751 -0.9525
  234MOL0     H32260   3.031   7.923  12.219  0.7424 -0.6666  0.9881
  234MOL0     H32261   2.971   8.096  12.199 -0.7377  1.8174  1.7564
  234MOL0     H32262   3.021   8.132  12.425  1.3501 -0.2287  1.0780
  234MOL0     H32263   3.086   7.979  12.448 -0.2007  2.1313  2.0499
  234MOL0     H32264   2.795   8.048  12.409  1.8850  1.4863  2.1369
  234MOL0     H32265   2.840   7.884  12.356  3.5377 -2.6873  1.3467
  234MOL0     H32266   2.875   8.007  12.628  1.6150  1.7933 -2.5545
  234MOL0     H32267   2.939   7.845  12.586  0.3167 -1.2412  0.4746
  234MOL0     H32268   2.760   7.745  12.547  0.7693 -0.3381  1.3330
  234MOL0     H32269   2.651   7.897  12.543  0.4140  0.6383 -0.5390
  234MOL0     H32270   2.698   7.922  12.775  1.3004 -0.2697  0.5243
  234MOL0     H32271   2.792   7.769  12.780 -0.0837 -0.5568 -0.4700
  234MOL0     H32272   3.049   8.370  11.842 -4.1865 -1.3047 -2.0344
  234MOL0     H32273   3.041   8.389  11.604 -2.7119  1.2647  2.1375
  234MOL0     H32274   3.189   8.313  11.215  0.2099 -0.8151  0.6969
  234MOL0     H32275   3.150   8.419  10.977 -1.8301  1.7831 -0.7207
  234MOL0     H32276   2.395   9.010  10.098  0.7903  1.5626  0.2082
  234MOL0     H32277   2.598   9.050   9.916  0.1352 -0.4634 -0.3409
  234MOL0     H32278   2.821   8.970   9.731  1.5153 -3.1014 -3.6656
  234MOL0     H32279   3.063   8.933   9.644  2.4305  1.3815  1.9051
  234MOL0     H32280   3.256   9.303   9.538 -2.7071 -0.7768  0.6647
  234MOL0     H32281   3.322   9.173   9.632  1.4493  1.3074  0.0429
  234MOL0     H32282   3.487   9.265   9.459  0.1377  0.1565  0.4613
  234MOL0     H32283   3.373   9.207   9.335  1.5347 -1.4462 -0.7906
  234MOL0     H32284   3.515   9.017   9.526 -0.0823  3.4055  0.5523
  234MOL0     H32285   3.416   8.970   9.380 -1.1860 -0.4168  1.5755
  234MOL0     H32286   3.582   9.079   9.223 -0.9071  0.0036 -0.4261
  234MOL0     H32287   3.649   8.951   9.330  0.5054 -0.1985  1.0738
  234MOL0     H32288   3.841   9.317   9.442  1.6299 -1.8087  1.4161
  234MOL0     H32289   3.027   9.294   9.419  0.2826  0.3381 -0.0496
  234MOL0     H32290   2.665   9.340   9.479 -0.7644  0.4898 -0.4616
  234MOL0     H32291   2.783   9.456   9.551 -1.6395  2.4916 -1.9758
  234MOL0     H32292   2.817   9.397   9.393  0.5431 -3.2286 -0.5652
  235MOL0     O32293   2.161   3.226   7.130 -0.0506 -0.6948  0.3886
  235MOL0     C32294   2.230   3.273   7.221 -0.4053  0.0785  0.5235
  235MOL0     O32295   2.361   3.299   7.198 -0.1032 -0.7310 -0.0920
  235MOL0     C32296   2.428   3.239   7.097  0.0186  0.5456 -0.6404
  235MOL0     C32297   2.504   3.125   7.129 -0.1302  1.0752  1.0837
  235MOL0     C32298   2.584   3.071   7.025 -0.7451  0.4794 -0.4580
  235MOL0     C32299   2.576   3.130   6.903 -1.2909 -0.1695 -0.6142
  235MOL0     O32300   2.663   3.117   6.794 -0.0575  0.3537 -0.1049
  235MOL0     C32301   2.788   3.047   6.814 -0.1034  0.2977 -0.1040
  235MOL0     C32302   2.873   3.057   6.684  0.0663 -0.7419  0.0993
  235MOL0     C32303   2.888   3.207   6.640 -0.1191  0.2453 -0.0625
  235MOL0     C32304   2.949   3.228   6.500 -0.2720 -0.0759  0.5034
  235MOL0     C32305   3.092   3.187   6.495  0.1525 -0.1308 -0.3790
  235MOL0     C32306   3.156   3.222   6.356  0.8013  0.8292  0.4961
  235MOL0     C32307   3.296   3.159   6.334  0.1030 -0.4788  0.9202
  235MOL0     C32308   3.378   3.210   6.202  0.0785  0.3159  0.8811
  235MOL0     N32309   3.323   3.162   6.080  0.3318  0.0219  0.0385
  235MOL0     C32310   3.366   3.046   6.003  1.0102 -0.4341 -0.1995
  235MOL0     C32311   3.267   3.045   5.910  0.3346  0.0493  1.2731
  235MOL0     C32312   3.253   2.926   5.822 -0.0003 -0.3235  0.2115
  235MOL0     C32313   3.192   2.965   5.681  0.7418  0.1141 -0.1349
  235MOL0     C32314   3.171   2.838   5.592 -0.6015  0.4379 -0.2229
  235MOL0     C32315   3.104   2.873   5.459 -1.3919 -0.6740 -0.6880
  235MOL0     O32316   2.997   2.963   5.481 -0.2599  0.1955  0.6185
  235MOL0     C32317   2.911   2.981   5.379 -0.1004  0.4305  0.5407
  235MOL0     C32318   2.953   2.978   5.238  0.5294 -0.6313 -1.2023
  235MOL0     C32319   2.862   2.996   5.135 -0.9944 -1.1535 -0.7881
  235MOL0     C32320   2.925   2.970   5.000  0.0862  0.1076 -0.0655
  235MOL0     C32321   2.728   3.021   5.161 -0.0849  0.9307  0.6563
  235MOL0     C32322   2.631   3.037   5.053 -1.2364 -0.2797 -0.0923
  235MOL0     O32323   2.672   3.080   4.930 -0.2167 -0.0101 -0.2791
  235MOL0     C32324   2.578   3.098   4.842  1.4521  0.7852  0.4739
  235MOL0     C32325   2.532   2.995   4.763 -0.4753  0.1903  0.0208
  235MOL0     C32326   2.423   3.014   4.678  1.4985 -0.1720  0.3598
  235MOL0     C32327   2.349   3.133   4.682 -0.6682 -0.4004 -0.7422
  235MOL0     O32328   2.245   3.175   4.611 -0.0286 -0.3084  0.1663
  235MOL0     C32329   2.177   3.079   4.521  0.2002  0.3714  0.0636
  235MOL0     C32330   2.049   3.135   4.455 -0.5740  0.0120 -0.3448
  235MOL0     C32331   2.084   3.247   4.355 -0.6283  0.3328  0.1094
  235MOL0     C32332   1.961   3.301   4.285  0.5317 -0.5121 -0.1406
  235MOL0     C32333   1.855   3.211   4.214  0.4233 -0.3137  0.7053
  235MOL0     C32334   1.923   3.162   4.081 -0.0669  0.7819 -0.0645
  235MOL0     C32335   1.823   3.085   4.003 -0.1055  0.8359  0.1880
  235MOL0     C32336   1.809   2.950   4.064 -0.6803  0.1624  0.7039
  235MOL0    Cl32337   1.956   2.856   4.063 -0.3418  0.0818 -0.2556
  235MOL0     C32338   2.395   3.238   4.763 -0.0855 -0.6499 -0.3714
  235MOL0     C32339   2.503   3.216   4.844  0.4683 -0.2373 -0.7241
  235MOL0     O32340   2.520   3.008   5.083  0.7834  0.5189  0.8524
  235MOL0     C32341   2.692   3.046   5.288 -0.0687 -1.7349 -0.1430
  235MOL0     C32342   2.776   3.019   5.397 -0.0337  0.2867 -0.2634
  235MOL0     N32343   3.169   3.144   5.929 -0.4010 -0.7739 -0.7898
  235MOL0     N32344   3.210   3.208   6.030  0.4114 -0.4779  0.8033
  235MOL0     C32345   2.512   3.251   6.880  0.3299  0.4413 -0.3990
  235MOL0     C32346   2.424   3.301   6.975 -1.4570  0.3431  0.0747
  235MOL0     C32347   2.163   3.308   7.348 -0.3729  0.1786 -0.4151
  235MOL0     C32348   2.257   3.352   7.444  0.0744 -0.4002  0.4609
  235MOL0     C32349   2.213   3.367   7.569 -0.0668  0.8542  0.0939
  235MOL0     C32350   2.080   3.355   7.605  0.3024  0.0676  0.7147
  235MOL0     O32351   2.047   3.373   7.745  0.1788  0.1524  0.5903
  235MOL0     C32352   1.903   3.403   7.775  0.1485  0.6752 -0.2826
  235MOL0     C32353   1.895   3.515   7.884 -0.2445  0.3715  0.9548
  235MOL0     C32354   1.973   3.642   7.849 -0.9128 -0.0603 -0.3836
  235MOL0     C32355   1.984   3.742   7.962  0.7242  0.2576 -0.7759
  235MOL0     C32356   1.910   3.868   7.932 -0.5757 -0.0889 -0.4249
  235MOL0     C32357   1.836   3.959   7.901  0.6136  0.1012 -0.2987
  235MOL0     C32358   1.989   3.326   7.501 -0.7753  0.6409 -0.5736
  235MOL0     C32359   2.030   3.291   7.371  1.7738 -0.0476 -0.7764
  235MOL0     C32360   1.919   3.237   7.282  0.4284 -0.5491  0.7164
  235MOL0     H32361   2.514   3.065   7.219 -2.2804 -0.0153  0.6519
  235MOL0     H32362   2.641   2.981   7.043 -1.3662  0.6507  3.1192
  235MOL0     H32363   2.760   2.941   6.820  1.1287 -0.0147  0.3933
  235MOL0     H32364   2.849   3.088   6.895  1.5897  0.8797 -1.6190
  235MOL0     H32365   2.966   3.001   6.693 -0.7469 -1.8806  2.1189
  235MOL0     H32366   2.824   3.014   6.595  1.9251 -0.6449 -1.0125
  235MOL0     H32367   2.786   3.248   6.639  0.0408  0.6459  0.0182
  235MOL0     H32368   2.959   3.246   6.713 -0.0861 -2.7320  1.6309
  235MOL0     H32369   2.896   3.180   6.417  0.6334 -1.9017  0.9135
  235MOL0     H32370   2.937   3.333   6.472  1.7319 -0.2467 -1.1796
  235MOL0     H32371   3.097   3.079   6.513 -0.0115  0.3865  3.5386
  235MOL0     H32372   3.144   3.237   6.577 -3.3850  0.8961  1.4502
  235MOL0     H32373   3.096   3.174   6.278 -2.0328 -0.4476  3.2553
  235MOL0     H32374   3.150   3.330   6.335  0.1122  0.6978 -0.0287
  235MOL0     H32375   3.308   3.052   6.354  0.7860 -0.4696  0.5984
  235MOL0     H32376   3.346   3.217   6.413  0.4816 -0.0693  0.3887
  235MOL0     H32377   3.372   3.319   6.199 -0.7515  0.3373 -3.3580
  235MOL0     H32378   3.480   3.172   6.212  0.1144  0.1218 -0.1045
  235MOL0     H32379   3.446   2.976   6.023  3.6563  2.2797 -0.5239
  235MOL0     H32380   3.205   2.841   5.871 -0.8660  1.8078  3.3465
  235MOL0     H32381   3.352   2.879   5.811  1.1680  1.0207  3.6850
  235MOL0     H32382   3.093   3.005   5.705 -0.7161 -2.7068 -1.0815
  235MOL0     H32383   3.253   3.038   5.627  2.3553 -2.7616 -2.4630
  235MOL0     H32384   3.259   2.778   5.569  2.2217  2.6885  3.5008
  235MOL0     H32385   3.109   2.768   5.649 -0.6712 -0.0625 -0.8994
  235MOL0     H32386   3.183   2.915   5.397  0.6685 -0.3310  1.9908
  235MOL0     H32387   3.068   2.785   5.405 -1.7232  0.5499 -2.5581
  235MOL0     H32388   3.056   2.971   5.206  0.6931 -0.6805 -0.6825
  235MOL0     H32389   3.017   2.913   5.011  0.0310 -0.0635 -0.4495
  235MOL0     H32390   2.969   3.062   4.959 -1.0071  0.0913 -1.3531
  235MOL0     H32391   2.867   2.907   4.932 -0.0143 -1.1758  1.1687
  235MOL0     H32392   2.579   2.897   4.753  0.4110  0.6132 -0.0533
  235MOL0     H32393   2.397   2.936   4.607 -0.6353  0.9573 -0.1969
  235MOL0     H32394   2.252   3.041   4.452  1.5506 -0.3864  1.8881
  235MOL0     H32395   2.151   2.999   4.590  0.8176  0.7482  0.7356
  235MOL0     H32396   1.987   3.055   4.413  0.1030 -1.3048  1.0571
  235MOL0     H32397   1.982   3.175   4.532 -0.8835 -1.0744 -0.0228
  235MOL0     H32398   2.156   3.209   4.282  0.1454  2.4791 -0.3155
  235MOL0     H32399   2.128   3.334   4.404  0.2751  0.1038 -0.2871
  235MOL0     H32400   1.999   3.370   4.209 -0.2965  1.4861  1.2014
  235MOL0     H32401   1.903   3.361   4.355 -0.1766 -3.2235  1.7402
  235MOL0     H32402   1.827   3.121   4.269  0.0241 -2.3043 -2.4838
  235MOL0     H32403   1.759   3.259   4.194 -1.7398 -3.4524  2.6865
  235MOL0     H32404   2.010   3.105   4.113 -1.4387 -1.5820 -0.3733
  235MOL0     H32405   1.960   3.240   4.014 -1.7130  0.8606 -0.9252
  235MOL0     H32406   1.846   3.082   3.896 -2.1927  3.3518 -0.4584
  235MOL0     H32407   1.730   3.143   4.004  1.1351  3.0629  3.2977
  235MOL0     H32408   1.743   2.886   4.005  1.1918 -1.8163  0.6042
  235MOL0     H32409   1.772   2.965   4.166  1.4843  5.3010  1.0414
  235MOL0     H32410   2.349   3.336   4.762  4.3256  1.6621 -0.9480
  235MOL0     H32411   2.538   3.299   4.905 -1.2809 -1.7817  2.5881
  235MOL0     H32412   2.588   3.069   5.309  1.0933  2.9163  1.6544
  235MOL0     H32413   2.748   3.010   5.502  0.8097  1.6051  0.1043
  235MOL0     H32414   2.508   3.295   6.780  0.9356 -0.7824 -0.9768
  235MOL0     H32415   2.370   3.391   6.946  3.7285  3.9920  0.4687
  235MOL0     H32416   2.364   3.365   7.431 -0.0995 -0.3560 -1.1480
  235MOL0     H32417   2.283   3.389   7.649 -3.4090  1.1734  3.1717
  235MOL0     H32418   1.846   3.433   7.687  1.0317  1.3700 -0.6287
  235MOL0     H32419   1.853   3.320   7.827 -0.5102  0.7544 -0.7841
  235MOL0     H32420   1.947   3.477   7.972 -0.7719 -0.4617  0.9164
  235MOL0     H32421   1.789   3.522   7.912 -1.2557 -0.9667 -2.0414
  235MOL0     H32422   2.076   3.611   7.828 -1.0699  0.5733 -2.3871
  235MOL0     H32423   1.943   3.686   7.753 -0.4741 -2.6753 -1.8196
  235MOL0     H32424   2.087   3.777   7.973  1.2830 -1.9437  2.4496
  235MOL0     H32425   1.944   3.705   8.057  2.1230  0.9136  0.1108
  235MOL0     H32426   1.770   4.037   7.867  0.4369  0.3019  0.4897
  235MOL0     H32427   1.882   3.328   7.516 -0.5160  1.0442  1.5182
  235MOL0     H32428   1.913   3.295   7.190  0.6062 -0.1794  0.9316
  235MOL0     H32429   1.947   3.138   7.246  1.2349 -0.2473  0.4934
  235MOL0     H32430   1.819   3.244   7.326 -0.6410  1.2691 -1.7477
  236MOL0     O32431   1.786   3.004   3.411 -0.4419  0.8002  0.5228
  236MOL0     C32432   1.847   2.943   3.319 -0.2665 -0.9345 -0.6086
  236MOL0     O32433   1.788   2.898   3.201 -0.5446  0.2035 -0.2255
  236MOL0     C32434   1.652   2.926   3.173  0.1304 -0.2679 -0.4706
  236MOL0     C32435   1.569   2.825   3.122 -0.3577  0.1511 -0.8043
  236MOL0     C32436   1.432   2.861   3.082 -0.4990 -0.5985  0.5692
  236MOL0     C32437   1.382   2.990   3.101  1.5510 -0.4511 -0.0090
  236MOL0     O32438   1.251   3.013   3.062 -0.4674 -0.5367 -0.0091
  236MOL0     C32439   1.215   3.157   3.046  0.1825 -0.7354 -1.2971
  236MOL0     C32440   1.069   3.157   2.988 -0.1318  0.5680 -0.0997
  236MOL0     C32441   0.962   3.107   3.086  0.3542  0.0195  0.3902
  236MOL0     C32442   0.822   3.122   3.037 -0.7438 -0.0198 -0.6475
  236MOL0     C32443   0.724   3.077   3.142  0.7570  0.7319  0.5367
  236MOL0     C32444   0.582   3.089   3.088 -0.0898 -0.2472  0.0367
  236MOL0     C32445   0.565   2.967   2.987  0.5866  0.1483 -0.0098
  236MOL0     C32446   0.462   3.010   2.875 -0.4953 -0.4804  0.6363
  236MOL0     N32447   0.526   3.109   2.786  0.2231  0.0554  0.6969
  236MOL0     C32448   0.641   3.093   2.719  0.5846  0.8173  0.7467
  236MOL0     C32449   0.661   3.216   2.657 -0.7086  0.5593  0.1257
  236MOL0     C32450   0.782   3.266   2.581  0.1904  0.7196  0.1785
  236MOL0     C32451   0.916   3.272   2.640  0.3571  0.4716 -0.8115
  236MOL0     C32452   0.988   3.376   2.556  0.1496 -0.7175 -0.3492
  236MOL0     C32453   1.141   3.399   2.607 -0.0462  0.1871  0.0775
  236MOL0     O32454   1.208   3.282   2.664  0.5898  0.4461  0.4500
  236MOL0     C32455   1.341   3.290   2.697 -0.5112 -0.3335 -0.0237
  236MOL0     C32456   1.393   3.172   2.727 -1.0404  0.6176 -0.1410
  236MOL0     C32457   1.525   3.164   2.772 -0.2093  0.1797  0.5929
  236MOL0     C32458   1.582   3.025   2.801  0.5849  0.2613  0.6655
  236MOL0     C32459   1.605   3.286   2.800  0.3353  0.3584  0.5782
  236MOL0     C32460   1.741   3.283   2.869  0.2588  0.5059  0.4182
  236MOL0     O32461   1.822   3.173   2.844  0.1803  0.4245 -0.5217
  236MOL0     C32462   1.952   3.173   2.897 -0.5701  0.1045 -0.2114
  236MOL0     C32463   2.055   3.124   2.811 -0.4738 -1.2416  0.5694
  236MOL0     C32464   2.182   3.096   2.854 -0.4087  0.8533 -0.0388
  236MOL0     C32465   2.209   3.093   2.991  1.2181  0.0022 -0.3753
  236MOL0     O32466   2.322   3.043   3.046  0.7645  0.4744 -1.1447
  236MOL0     C32467   2.428   2.989   2.967 -0.3924 -0.6811  0.1842
  236MOL0     C32468   2.548   2.929   3.037  0.0859  0.2228 -0.3807
  236MOL0     C32469   2.604   3.038   3.124 -0.5592 -0.9715 -0.2797
  236MOL0     C32470   2.740   2.999   3.180  0.4745  0.1966  0.1621
  236MOL0     C32471   2.816   3.120   3.234 -0.6500  0.3503 -0.4075
  236MOL0     C32472   2.890   3.200   3.128 -0.8514  0.5778  1.2739
  236MOL0     C32473   3.011   3.130   3.064 -0.6932 -0.3443  1.1885
  236MOL0     C32474   3.097   3.062   3.164 -0.1643  0.0133  0.8458
  236MOL0    Cl32475   3.230   2.983   3.092  0.1616 -0.2329  0.5091
  236MOL0     C32476   2.110   3.141   3.081  0.1998  0.1806 -0.1806
  236MOL0     C32477   1.983   3.187   3.035  0.4842  1.0055  1.0401
  236MOL0     O32478   1.764   3.385   2.941 -0.0361 -0.2427 -0.0748
  236MOL0     C32479   1.552   3.397   2.755  0.3539  0.6279 -0.5889
  236MOL0     C32480   1.423   3.409   2.711 -0.2931  0.1483  0.2488
  236MOL0     N32481   0.550   3.295   2.680 -0.1737 -0.6807 -0.0948
  236MOL0     N32482   0.473   3.231   2.768 -0.9541  0.3729  0.2542
  236MOL0     C32483   1.463   3.081   3.164 -0.7730  0.2839  0.8850
  236MOL0     C32484   1.596   3.053   3.193 -0.2415 -0.5309 -0.0386
  236MOL0     C32485   1.992   2.911   3.342 -0.3534 -0.4320 -1.1022
  236MOL0     C32486   2.073   2.858   3.235 -0.7113 -0.3971 -0.7267
  236MOL0     C32487   2.200   2.813   3.255 -0.2270  1.0249 -0.4716
  236MOL0     C32488   2.259   2.812   3.384 -0.3903 -0.5248  0.3331
  236MOL0     O32489   2.387   2.765   3.389 -0.1487 -0.2814 -0.2926
  236MOL0     C32490   2.455   2.755   3.514  0.7402  0.0373 -0.4189
  236MOL0     C32491   2.525   2.878   3.558 -0.1477  0.0294 -0.6539
  236MOL0     C32492   2.600   2.875   3.693  0.3382  0.3325 -0.8825
  236MOL0     C32493   2.510   2.825   3.810  0.2758  0.1371 -1.0475
  236MOL0     C32494   2.586   2.814   3.938 -0.2169 -0.0186 -0.2005
  236MOL0     C32495   2.622   2.800   4.058 -0.1517  0.6707  0.9424
  236MOL0     C32496   2.185   2.860   3.498 -1.1277  1.0991 -0.1258
  236MOL0     C32497   2.053   2.922   3.479 -0.3798 -0.4734  0.3031
  236MOL0     C32498   1.993   2.963   3.616 -0.0091  0.2573 -0.4021
  236MOL0     H32499   1.616   2.728   3.110  0.2971 -0.1307  2.8687
  236MOL0     H32500   1.363   2.801   3.024  2.8410 -2.6266 -1.6419
  236MOL0     H32501   1.282   3.214   2.981  0.9812  0.4348  0.4386
  236MOL0     H32502   1.216   3.209   3.143  1.7688  1.8949 -2.6105
  236MOL0     H32503   1.035   3.252   2.946 -1.7886 -0.8234 -2.1708
  236MOL0     H32504   1.069   3.086   2.904  0.9167  0.7270 -0.2395
  236MOL0     H32505   0.982   3.008   3.129 -0.4674  0.5105  1.9461
  236MOL0     H32506   0.982   3.175   3.170  2.3650  0.1676 -0.1456
  236MOL0     H32507   0.812   3.229   3.016  1.6638  0.2434 -0.7013
  236MOL0     H32508   0.814   3.076   2.938 -0.1828 -0.7737 -0.3512
  236MOL0     H32509   0.741   3.117   3.242  5.3475  0.4810  0.0688
  236MOL0     H32510   0.742   2.972   3.168 -4.1761 -0.4254  0.4271
  236MOL0     H32511   0.516   3.076   3.175 -1.0927 -0.8116 -0.7871
  236MOL0     H32512   0.544   3.178   3.038 -0.9302 -2.0296 -2.6936
  236MOL0     H32513   0.512   2.890   3.044 -1.0612  0.4078 -1.1157
  236MOL0     H32514   0.657   2.937   2.937 -0.2677  1.1854 -2.3376
  236MOL0     H32515   0.443   2.918   2.819  1.8928 -0.3303 -0.5436
  236MOL0     H32516   0.361   3.042   2.902 -1.5459 -1.3320 -1.9362
  236MOL0     H32517   0.707   3.009   2.732  1.4675  1.5062  0.8327
  236MOL0     H32518   0.749   3.363   2.545 -1.5275 -0.0613 -0.5085
  236MOL0     H32519   0.795   3.206   2.491  1.3372 -0.5554  1.1428
  236MOL0     H32520   0.911   3.312   2.742 -0.3816 -0.7534 -0.3473
  236MOL0     H32521   0.971   3.178   2.636  0.4569  0.0659  4.0086
  236MOL0     H32522   0.996   3.342   2.453  3.0819  2.7344 -1.4748
  236MOL0     H32523   0.932   3.469   2.545 -0.6486 -1.2786 -1.0719
  236MOL0     H32524   1.202   3.437   2.525 -0.0814  1.9321  0.8104
  236MOL0     H32525   1.125   3.471   2.689 -4.0248 -0.1910 -0.1491
  236MOL0     H32526   1.336   3.083   2.701 -0.4959 -0.2728  1.5498
  236MOL0     H32527   1.511   2.947   2.770  0.1715  1.3501 -1.2450
  236MOL0     H32528   1.597   3.007   2.908  2.4481 -0.5849  0.2911
  236MOL0     H32529   1.677   3.019   2.749  0.7255 -0.0322  0.9490
  236MOL0     H32530   2.041   3.094   2.707 -1.1941 -1.5115  0.7400
  236MOL0     H32531   2.257   3.064   2.782 -0.2280  0.8621  0.1454
  236MOL0     H32532   2.390   2.914   2.898  2.4118  1.1809 -3.7902
  236MOL0     H32533   2.461   3.077   2.910  0.1878 -0.9926  0.0303
  236MOL0     H32534   2.523   2.832   3.081 -0.6763 -1.2599 -3.7547
  236MOL0     H32535   2.615   2.903   2.954  0.0540  1.1994 -0.7170
  236MOL0     H32536   2.544   3.044   3.215 -0.0320 -3.7708  0.3746
  236MOL0     H32537   2.603   3.139   3.082 -1.7545  0.5518  3.0505
  236MOL0     H32538   2.799   2.943   3.107 -2.5014 -1.7003 -0.9775
  236MOL0     H32539   2.714   2.937   3.267  0.0231 -0.2633 -0.2899
  236MOL0     H32540   2.740   3.190   3.271  0.2348  2.3923 -2.2080
  236MOL0     H32541   2.880   3.098   3.320 -1.3143  1.7101  0.4749
  236MOL0     H32542   2.918   3.287   3.188 -0.6692 -0.8031  3.2920
  236MOL0     H32543   2.821   3.237   3.052 -0.9799 -1.2472  0.4404
  236MOL0     H32544   3.072   3.208   3.018  3.4358 -2.4011  2.6718
  236MOL0     H32545   2.988   3.049   2.993  0.5584  0.5195 -0.2661
  236MOL0     H32546   3.041   2.994   3.230 -0.2084  0.0422  0.8383
  236MOL0     H32547   3.126   3.146   3.227 -1.3757 -1.6035  3.7957
  236MOL0     H32548   2.140   3.142   3.186  0.1229  2.4701 -0.1202
  236MOL0     H32549   1.896   3.209   3.096 -0.9475 -4.0946  1.3448
  236MOL0     H32550   1.611   3.488   2.762  0.4774  0.4234  1.4218
  236MOL0     H32551   1.392   3.512   2.696 -1.1975 -0.0220  0.8899
  236MOL0     H32552   1.434   3.184   3.185  0.7265  1.3295 -1.6981
  236MOL0     H32553   1.670   3.125   3.227  1.5489 -1.2154 -2.2727
  236MOL0     H32554   2.043   2.842   3.132  0.8863 -1.1823 -1.0925
  236MOL0     H32555   2.271   2.772   3.183  0.1199 -2.8852  1.7965
  236MOL0     H32556   2.386   2.725   3.593  0.4071  1.1282 -0.2770
  236MOL0     H32557   2.521   2.671   3.490  0.1918 -1.6754  3.3705
  236MOL0     H32558   2.460   2.966   3.556  0.7473  0.6998 -1.0276
  236MOL0     H32559   2.593   2.908   3.478 -1.4447  1.7190 -1.1799
  236MOL0     H32560   2.680   2.802   3.677  0.1275 -0.6096  1.8313
  236MOL0     H32561   2.640   2.974   3.717 -1.0560  1.3610 -2.5495
  236MOL0     H32562   2.476   2.727   3.775  2.3067  0.0469 -2.9626
  236MOL0     H32563   2.424   2.890   3.829  0.9905  1.1957 -1.3643
  236MOL0     H32564   2.659   2.803   4.159  0.3549  1.6957  0.7431
  236MOL0     H32565   2.226   2.857   3.598 -3.4116  0.2539  0.8572
  236MOL0     H32566   1.897   2.915   3.639 -0.4748 -0.2969 -3.2343
  236MOL0     H32567   2.055   2.931   3.701  0.2395  0.9160 -0.3347
  236MOL0     H32568   1.993   3.072   3.623 -1.0405  0.2807 -0.6264
  237MOL0     O32569   0.212   5.817   4.654 -0.0698  1.3418  0.3733
  237MOL0     C32570   0.316   5.850   4.724  0.1265 -0.0524 -0.4360
  237MOL0     O32571   0.441   5.832   4.679  0.2613 -0.0851  0.2418
  237MOL0     C32572   0.479   5.793   4.549  0.1340  0.1499 -0.8390
  237MOL0     C32573   0.595   5.713   4.535 -0.6565  0.3510  0.2506
  237MOL0     C32574   0.634   5.671   4.405  0.5566 -0.5277  0.7760
  237MOL0     C32575   0.569   5.722   4.295 -0.7616  0.0639 -0.3376
  237MOL0     O32576   0.620   5.677   4.179 -0.3178 -0.8611  0.3830
  237MOL0     C32577   0.544   5.708   4.057  0.1862 -0.5049  0.2816
  237MOL0     C32578   0.603   5.633   3.934  0.0073 -0.5735 -0.3651
  237MOL0     C32579   0.617   5.484   3.947  0.7340 -0.0006  0.2833
  237MOL0     C32580   0.678   5.418   3.827  0.9032 -0.5755 -0.7080
  237MOL0     C32581   0.741   5.283   3.868 -0.6444 -0.6911 -0.6735
  237MOL0     C32582   0.830   5.250   3.745  0.2780  0.2390 -0.0770
  237MOL0     C32583   0.881   5.101   3.733  0.3323 -0.4235  0.5424
  237MOL0     C32584   0.974   5.058   3.849  0.1196 -0.1342 -0.3825
  237MOL0     N32585   1.045   4.929   3.806  0.1296 -0.0419 -0.2901
  237MOL0     C32586   0.971   4.824   3.765 -0.4689  0.0702 -0.3486
  237MOL0     C32587   1.064   4.739   3.719 -0.8711  0.7106 -0.0443
  237MOL0     C32588   1.043   4.599   3.665 -0.1966 -1.1856 -0.3293
  237MOL0     C32589   0.970   4.606   3.536 -0.5179  0.0216  0.7789
  237MOL0     C32590   0.984   4.475   3.460  0.9397 -0.5556  0.5023
  237MOL0     C32591   0.935   4.492   3.309 -0.7321  0.9556  0.3413
  237MOL0     O32592   1.029   4.584   3.249  0.4041  0.0626  0.3904
  237MOL0     C32593   0.994   4.630   3.124  0.3579  0.5519 -0.5392
  237MOL0     C32594   0.879   4.694   3.094  0.4995 -0.6041 -0.3737
  237MOL0     C32595   0.839   4.714   2.965 -0.5288 -0.5217  0.3191
  237MOL0     C32596   0.715   4.794   2.948  0.2448 -0.2289 -0.1169
  237MOL0     C32597   0.926   4.684   2.858  0.1812  0.0476 -0.0965
  237MOL0     C32598   0.892   4.691   2.709 -0.6455 -0.4705 -0.2446
  237MOL0     O32599   0.782   4.761   2.679 -0.4627  0.0919  0.8950
  237MOL0     C32600   0.743   4.740   2.547  0.0313 -0.4209 -0.4082
  237MOL0     C32601   0.662   4.631   2.522  0.6150  0.4237 -0.3274
  237MOL0     C32602   0.626   4.611   2.388  0.5936  0.0091  0.1066
  237MOL0     C32603   0.653   4.708   2.285  0.2436  0.8274  0.5094
  237MOL0     O32604   0.624   4.683   2.156  0.3043  0.8700  0.4601
  237MOL0     C32605   0.509   4.594   2.126 -0.4567  0.2601  0.2183
  237MOL0     C32606   0.478   4.562   1.975  0.2178 -0.9279 -0.3203
  237MOL0     C32607   0.598   4.509   1.889  0.2272  0.4124  1.2403
  237MOL0     C32608   0.718   4.607   1.880  1.0988 -0.6469  0.2307
  237MOL0     C32609   0.806   4.584   1.758 -0.7741 -0.5501 -0.3979
  237MOL0     C32610   0.878   4.711   1.711 -0.8602 -0.3886  0.9190
  237MOL0     C32611   0.942   4.707   1.567 -0.5564 -0.6807 -0.0703
  237MOL0     C32612   1.047   4.596   1.538 -0.6125 -0.1084 -0.2844
  237MOL0    Cl32613   1.128   4.628   1.385  0.1965 -0.2166 -0.4145
  237MOL0     C32614   0.734   4.816   2.326  0.5712 -0.4876 -0.7936
  237MOL0     C32615   0.786   4.831   2.451  0.4160  0.6914  0.0978
  237MOL0     O32616   0.979   4.657   2.628 -0.3039  0.3303  0.1360
  237MOL0     C32617   1.058   4.631   2.889  0.5557 -1.4202  0.1181
  237MOL0     C32618   1.075   4.595   3.022  1.0357  0.8164  0.6794
  237MOL0     N32619   1.193   4.804   3.716  0.3118 -0.4527  0.1266
  237MOL0     N32620   1.178   4.918   3.773 -0.0142 -0.9922 -0.1899
  237MOL0     C32621   0.453   5.795   4.308 -0.5994 -0.4612 -0.6067
  237MOL0     C32622   0.404   5.828   4.433  0.2626  0.1071 -0.0277
  237MOL0     C32623   0.300   5.938   4.843 -0.2941  0.5166  0.7024
  237MOL0     C32624   0.410   6.005   4.899  0.2254 -0.4514  0.8704
  237MOL0     C32625   0.404   6.075   5.024  0.3866 -0.4019  0.8726
  237MOL0     C32626   0.285   6.080   5.095  0.7002 -0.8570  0.5857
  237MOL0     O32627   0.300   6.131   5.225  0.4807 -0.9487 -0.4729
  237MOL0     C32628   0.187   6.129   5.316 -0.5533 -0.2679 -0.8033
  237MOL0     C32629   0.186   6.238   5.422  0.0496 -0.5672  0.5878
  237MOL0     C32630   0.213   6.375   5.355  0.2369 -0.3272 -0.3609
  237MOL0     C32631   0.167   6.503   5.432  1.2383  0.4736 -0.1757
  237MOL0     C32632   0.197   6.609   5.341  0.5184 -0.3592 -0.2352
  237MOL0     C32633   0.228   6.688   5.263 -0.2471 -0.4544 -0.6350
  237MOL0     C32634   0.176   6.018   5.039  0.1551 -0.0449  0.6095
  237MOL0     C32635   0.182   5.952   4.920 -0.3217  0.1373  1.0408
  237MOL0     C32636   0.053   5.885   4.874  0.5574  0.2091  0.1465
  237MOL0     H32637   0.658   5.686   4.619  2.1716 -1.9493 -2.3729
  237MOL0     H32638   0.722   5.608   4.398  2.2058  1.8425 -1.5965
  237MOL0     H32639   0.548   5.816   4.044  4.0485 -0.5479  0.0313
  237MOL0     H32640   0.438   5.686   4.072 -0.7961  1.1622 -3.2217
  237MOL0     H32641   0.532   5.643   3.851  0.4059 -0.3224 -0.6807
  237MOL0     H32642   0.702   5.677   3.917 -0.4065  0.4304 -0.2034
  237MOL0     H32643   0.690   5.473   4.028  0.2173  0.5808  0.8386
  237MOL0     H32644   0.526   5.434   3.980  2.0462 -2.8027 -0.0599
  237MOL0     H32645   0.594   5.382   3.766 -1.9015  0.0122  2.4820
  237MOL0     H32646   0.751   5.482   3.778  1.6303 -1.5370 -0.9016
  237MOL0     H32647   0.660   5.213   3.892 -1.5270 -0.3916 -2.6481
  237MOL0     H32648   0.801   5.299   3.959  0.7499  2.1231 -1.9713
  237MOL0     H32649   0.765   5.272   3.660  0.7619  0.8080 -0.3138
  237MOL0     H32650   0.924   5.305   3.754  0.0556  0.6944 -0.4933
  237MOL0     H32651   0.949   5.106   3.647  0.1572 -0.3106  0.4106
  237MOL0     H32652   0.802   5.026   3.723  0.6151 -0.5483 -1.1474
  237MOL0     H32653   1.052   5.128   3.878 -0.5610  0.2951  0.4770
  237MOL0     H32654   0.910   5.034   3.935 -1.8269  1.2055 -1.3624
  237MOL0     H32655   0.870   4.794   3.789  0.2905 -2.3154  0.1863
  237MOL0     H32656   0.985   4.534   3.731  0.0401 -2.1819 -1.0721
  237MOL0     H32657   1.139   4.549   3.646  0.7533 -0.3460  1.9458
  237MOL0     H32658   0.870   4.622   3.578 -0.7004 -0.1833  0.4272
  237MOL0     H32659   1.010   4.691   3.480  1.0369 -2.1948 -1.7125
  237MOL0     H32660   1.087   4.438   3.458  1.7513  1.6043 -1.0373
  237MOL0     H32661   0.912   4.409   3.510 -0.2205 -2.0714 -2.8760
  237MOL0     H32662   0.940   4.400   3.251 -0.5692  0.7764  0.6369
  237MOL0     H32663   0.830   4.517   3.296 -1.3055 -0.8016  1.2752
  237MOL0     H32664   0.819   4.737   3.173  1.5534 -0.9839  0.6646
  237MOL0     H32665   0.656   4.723   2.888  1.1744 -2.1896  1.1826
  237MOL0     H32666   0.723   4.895   2.907 -0.9224 -0.3437 -0.6843
  237MOL0     H32667   0.669   4.815   3.045  1.4944 -0.5485  0.5580
  237MOL0     H32668   0.625   4.563   2.598 -1.4351 -2.1621 -3.3822
  237MOL0     H32669   0.566   4.525   2.360 -0.3741 -0.1166  2.3666
  237MOL0     H32670   0.537   4.493   2.157 -0.8714  0.1187  0.1412
  237MOL0     H32671   0.418   4.613   2.184  1.0230  0.7963  2.4955
  237MOL0     H32672   0.398   4.488   1.981 -0.5500 -0.2339 -1.6108
  237MOL0     H32673   0.439   4.650   1.924 -1.6588 -1.0092  0.9063
  237MOL0     H32674   0.556   4.492   1.790 -0.0451  0.7121  1.3016
  237MOL0     H32675   0.633   4.412   1.926  0.4386 -0.0268 -0.0686
  237MOL0     H32676   0.771   4.598   1.975  0.0094  0.1490  0.9477
  237MOL0     H32677   0.672   4.707   1.875  0.5743 -0.7704  2.0314
  237MOL0     H32678   0.881   4.510   1.788 -3.1623 -2.1915  2.0575
  237MOL0     H32679   0.740   4.546   1.679  1.2075 -1.9406 -1.4854
  237MOL0     H32680   0.951   4.753   1.781  2.5583  0.2355 -2.6848
  237MOL0     H32681   0.806   4.793   1.705  0.7717  1.0026 -0.6739
  237MOL0     H32682   0.986   4.807   1.557 -1.2398 -0.2308  1.1154
  237MOL0     H32683   0.862   4.703   1.493 -1.0520  3.0676  0.0749
  237MOL0     H32684   1.017   4.491   1.539 -0.5804 -0.1561 -1.9673
  237MOL0     H32685   1.121   4.609   1.618  1.1493 -0.6903 -1.7456
  237MOL0     H32686   0.741   4.900   2.257 -3.7799  2.9614  2.3247
  237MOL0     H32687   0.836   4.924   2.477 -0.3821  2.0201 -2.7384
  237MOL0     H32688   1.131   4.614   2.811 -0.3865  3.1710 -2.0945
  237MOL0     H32689   1.161   4.537   3.055 -0.1054 -1.1287  0.4458
  237MOL0     H32690   0.398   5.831   4.221  1.4265  0.1424 -1.6946
  237MOL0     H32691   0.312   5.884   4.434  0.5275  0.5629 -0.5326
  237MOL0     H32692   0.509   5.995   4.857  0.9528  2.3916  1.7120
  237MOL0     H32693   0.497   6.114   5.062  0.5638 -1.4299  1.5255
  237MOL0     H32694   0.103   6.143   5.248 -0.2833  0.2446 -1.0401
  237MOL0     H32695   0.182   6.037   5.375  3.8682  0.3806  0.9448
  237MOL0     H32696   0.260   6.215   5.500  1.8879 -0.8436 -1.1637
  237MOL0     H32697   0.086   6.237   5.465  0.3024  0.1532  1.2195
  237MOL0     H32698   0.321   6.382   5.339  0.0902 -0.2222 -1.3497
  237MOL0     H32699   0.173   6.372   5.253  2.0506  1.1520 -1.1893
  237MOL0     H32700   0.224   6.510   5.525  0.2124 -1.9712  0.7141
  237MOL0     H32701   0.059   6.510   5.452  0.9685 -2.2283 -0.3394
  237MOL0     H32702   0.256   6.754   5.183  1.7045  0.3158  0.5975
  237MOL0     H32703   0.083   6.024   5.096 -0.3518  0.7285 -0.2629
  237MOL0     H32704   0.016   5.925   4.779  3.5028  3.1918  0.0786
  237MOL0     H32705   0.062   5.777   4.856  1.0488  0.4750 -1.4431
  237MOL0     H32706  -0.014   5.905   4.958  0.9923  1.2560  0.2578
  238MOL0     O32707   9.040   6.270   8.075  0.0017 -0.5497 -0.3057
  238MOL0     C32708   8.992   6.279   8.188  1.6102 -0.4135 -0.0787
  238MOL0     O32709   9.012   6.194   8.297  0.2452  0.6396  0.9080
  238MOL0     C32710   9.110   6.096   8.286  0.2362  0.1580 -0.3839
  238MOL0     C32711   9.090   5.995   8.188 -0.0488 -0.3301 -0.3272
  238MOL0     C32712   9.190   5.897   8.169  0.0265  0.8592  0.5435
  238MOL0     C32713   9.304   5.894   8.243 -0.4311 -0.6821 -0.3288
  238MOL0     O32714   9.398   5.796   8.242 -0.1808 -0.5616 -0.9910
  238MOL0     C32715   9.381   5.684   8.157 -0.0425  0.3883 -0.2818
  238MOL0     C32716   9.489   5.576   8.189 -1.2626 -0.1174 -0.0650
  238MOL0     C32717   9.485   5.435   8.106 -0.7128 -0.4492  0.1910
  238MOL0     C32718   9.596   5.344   8.156 -0.3444 -0.4994 -0.1166
  238MOL0     C32719   9.581   5.220   8.076  0.7432  0.0475 -0.0787
  238MOL0     C32720   9.655   5.097   8.148 -0.3253 -0.3492  0.3292
  238MOL0     C32721   9.799   5.133   8.174  0.0624  0.2762 -1.4397
  238MOL0     C32722   9.886   5.016   8.225 -0.1529 -0.6702  0.2469
  238MOL0     N32723   9.909   4.909   8.123 -0.3729  0.0686 -0.6548
  238MOL0     C32724  10.003   4.899   8.021 -0.2775 -0.4385 -0.3058
  238MOL0     C32725   9.978   4.783   7.957  0.7329 -0.0877 -0.2814
  238MOL0     C32726  10.058   4.708   7.845  0.5324  0.6457 -0.3262
  238MOL0     C32727   9.995   4.706   7.703  0.7565  0.4385 -0.0095
  238MOL0     C32728   9.947   4.842   7.655  0.7514 -0.2287  0.2514
  238MOL0     C32729   9.804   4.855   7.601 -0.8373 -0.1189  0.6763
  238MOL0     O32730   9.780   4.740   7.514 -0.1635 -0.2725  0.1983
  238MOL0     C32731   9.648   4.728   7.471 -0.4954  0.4435 -0.8423
  238MOL0     C32732   9.548   4.823   7.490  0.4393  0.2258 -0.4885
  238MOL0     C32733   9.418   4.808   7.441  0.3141  0.6815 -0.0295
  238MOL0     C32734   9.323   4.927   7.467 -0.2808 -0.1531  0.0897
  238MOL0     C32735   9.379   4.687   7.373 -0.5343 -0.5461 -0.1571
  238MOL0     C32736   9.242   4.649   7.331  0.2818 -0.2692 -0.6637
  238MOL0     O32737   9.231   4.525   7.278  0.3297 -0.1389  0.1749
  238MOL0     C32738   9.114   4.479   7.216 -0.2897 -0.2843  0.4527
  238MOL0     C32739   9.139   4.402   7.098 -0.7345 -0.6251 -0.2709
  238MOL0     C32740   9.033   4.346   7.040  0.2566  0.7299 -0.6428
  238MOL0     C32741   8.900   4.361   7.080 -0.0989 -1.0570 -0.5395
  238MOL0     O32742   8.801   4.297   7.008  0.4041 -0.0118 -0.5720
  238MOL0     C32743   8.676   4.366   7.007 -0.1759  0.0924 -0.6659
  238MOL0     C32744   8.686   4.514   6.948 -0.3473  0.0954 -0.8024
  238MOL0     C32745   8.771   4.527   6.814 -0.3703 -0.5414  0.2041
  238MOL0     C32746   8.744   4.660   6.741 -0.2262 -0.1897  0.5922
  238MOL0     C32747   8.835   4.685   6.618 -0.0160  0.8011  0.2869
  238MOL0     C32748   8.812   4.818   6.542  0.6838 -0.4731 -0.1098
  238MOL0     C32749   8.755   4.783   6.404  0.0290 -0.4001  0.0429
  238MOL0     C32750   8.740   4.898   6.306 -0.0336 -0.6089  0.3520
  238MOL0    Cl32751   8.607   4.993   6.374 -0.5930 -0.0060 -0.0628
  238MOL0     C32752   8.887   4.438   7.203 -0.9683  0.3196  0.1531
  238MOL0     C32753   8.996   4.485   7.268  0.2466 -0.6041 -0.3680
  238MOL0     O32754   9.154   4.733   7.356 -0.4490  0.4106 -0.2928
  238MOL0     C32755   9.488   4.594   7.346  0.7575 -0.4243  0.1134
  238MOL0     C32756   9.617   4.608   7.399  0.1094 -1.1380 -0.0597
  238MOL0     N32757   9.861   4.728   8.020  1.1218 -0.1183 -0.1246
  238MOL0     N32758   9.822   4.808   8.118  0.5201  0.5750  0.3482
  238MOL0     C32759   9.324   5.991   8.341  0.0658 -0.3157 -0.3014
  238MOL0     C32760   9.231   6.095   8.361  0.3357  0.0645 -1.3247
  238MOL0     C32761   8.894   6.393   8.210 -0.3479 -0.3654  0.8002
  238MOL0     C32762   8.845   6.409   8.344 -0.5120  0.9648 -0.3660
  238MOL0     C32763   8.745   6.497   8.380 -0.2201 -0.0653 -0.8744
  238MOL0     C32764   8.666   6.578   8.294 -0.1896  0.3011 -0.7974
  238MOL0     O32765   8.574   6.676   8.325  0.6077  0.2528  1.1443
  238MOL0     C32766   8.520   6.685   8.459 -0.0528  1.1575  0.6409
  238MOL0     C32767   8.615   6.770   8.550  0.2831  0.0484 -0.1181
  238MOL0     C32768   8.687   6.880   8.479 -0.2634  0.0639  0.0671
  238MOL0     C32769   8.595   6.988   8.430 -0.4207  0.0012  0.0641
  238MOL0     C32770   8.668   7.114   8.409  0.2595 -0.0805  0.2852
  238MOL0     C32771   8.738   7.214   8.414  0.0524  0.4488  0.5271
  238MOL0     C32772   8.722   6.563   8.163  0.1498  0.7901 -0.6519
  238MOL0     C32773   8.831   6.481   8.119 -0.5483 -0.5041 -0.2945
  238MOL0     C32774   8.874   6.491   7.978  0.3106  0.2073  0.2789
  238MOL0     H32775   9.009   6.011   8.118  1.5428  1.5947 -1.8539
  238MOL0     H32776   9.172   5.831   8.085  0.8589  0.5996  0.5669
  238MOL0     H32777   9.384   5.713   8.051 -0.2612  1.3018 -0.0439
  238MOL0     H32778   9.285   5.632   8.165 -0.3289  0.7990 -0.9341
  238MOL0     H32779   9.578   5.635   8.163 -0.2363 -1.4894  0.2053
  238MOL0     H32780   9.495   5.560   8.297 -0.3871  1.3721  0.1340
  238MOL0     H32781   9.387   5.391   8.126 -1.2122  1.2769  1.9097
  238MOL0     H32782   9.494   5.457   7.999  0.6874  0.3069  0.4317
  238MOL0     H32783   9.700   5.376   8.145 -0.7729  0.3719 -2.1564
  238MOL0     H32784   9.557   5.329   8.257 -1.8011  2.0341 -0.2226
  238MOL0     H32785   9.616   5.230   7.973  0.7275  0.1444 -0.0746
  238MOL0     H32786   9.473   5.208   8.064  0.9401 -0.0618 -2.0305
  238MOL0     H32787   9.619   5.070   8.248  1.7932  0.5655  1.3897
  238MOL0     H32788   9.638   5.017   8.076 -0.3117  2.4038 -2.9598
  238MOL0     H32789   9.802   5.209   8.252 -1.5358 -2.5105  1.6250
  238MOL0     H32790   9.856   5.165   8.086  1.7200  1.6891  0.0797
  238MOL0     H32791   9.980   5.058   8.264  0.7805 -1.1580 -1.3666
  238MOL0     H32792   9.826   4.987   8.311 -2.6749  2.4799 -0.2540
  238MOL0     H32793  10.069   4.978   7.987  1.1370 -1.8964 -1.0700
  238MOL0     H32794  10.083   4.608   7.880 -2.9690 -0.2443 -0.0057
  238MOL0     H32795  10.149   4.768   7.835  1.1049  0.3428  2.2348
  238MOL0     H32796  10.064   4.672   7.626 -1.4536 -0.9441 -1.5061
  238MOL0     H32797   9.908   4.639   7.709  1.2485 -0.3210 -1.1427
  238MOL0     H32798   9.967   4.926   7.722  0.5285  3.3664 -3.7525
  238MOL0     H32799  10.004   4.859   7.564 -0.2020 -4.1026 -1.3001
  238MOL0     H32800   9.740   4.855   7.690 -1.3508  0.3058  0.3113
  238MOL0     H32801   9.794   4.953   7.554 -0.1888 -0.3459  0.0367
  238MOL0     H32802   9.577   4.915   7.539 -0.7583 -0.6041  1.9205
  238MOL0     H32803   9.237   4.896   7.526  0.9974  1.6322  3.1447
  238MOL0     H32804   9.305   4.991   7.380 -2.6681  0.0777  0.6944
  238MOL0     H32805   9.381   4.994   7.530  1.7066  1.4191 -3.1154
  238MOL0     H32806   9.226   4.371   7.042 -0.8166  0.1314 -0.8445
  238MOL0     H32807   9.058   4.282   6.955 -1.5805  1.3897 -1.7545
  238MOL0     H32808   8.602   4.311   6.948  0.8477  0.3669 -2.2702
  238MOL0     H32809   8.634   4.387   7.106 -2.1198  0.3304 -1.4990
  238MOL0     H32810   8.584   4.551   6.934 -1.0181 -1.5073 -0.3888
  238MOL0     H32811   8.729   4.579   7.024 -0.2533  1.6547 -2.1273
  238MOL0     H32812   8.743   4.445   6.747 -2.9085 -1.1914  1.9028
  238MOL0     H32813   8.875   4.536   6.847  0.3769  0.4026 -2.1914
  238MOL0     H32814   8.763   4.743   6.810  4.1466 -0.7523  0.3221
  238MOL0     H32815   8.640   4.665   6.707 -0.1520 -1.6173  0.0842
  238MOL0     H32816   8.933   4.685   6.666 -0.1515  1.9479  0.5842
  238MOL0     H32817   8.828   4.594   6.557 -1.6398 -0.0755  1.6681
  238MOL0     H32818   8.913   4.861   6.544 -0.5865  2.8198 -0.8047
  238MOL0     H32819   8.752   4.890   6.599 -1.1337 -3.2446  1.7112
  238MOL0     H32820   8.655   4.739   6.412 -0.4555  0.7141  0.4088
  238MOL0     H32821   8.814   4.700   6.366 -0.3748 -1.8135  2.2917
  238MOL0     H32822   8.709   4.860   6.208  1.8870  0.3633 -0.6905
  238MOL0     H32823   8.832   4.955   6.291 -1.7813  2.7784  1.3732
  238MOL0     H32824   8.791   4.454   7.251 -1.2504 -0.9154  0.0304
  238MOL0     H32825   8.984   4.536   7.363  0.3899  0.3947 -0.8687
  238MOL0     H32826   9.479   4.509   7.280 -0.3379 -0.0314 -0.2656
  238MOL0     H32827   9.688   4.529   7.379 -0.6632 -1.1885 -3.1241
  238MOL0     H32828   9.410   5.991   8.408 -0.4740  0.3098  0.4147
  238MOL0     H32829   9.236   6.160   8.448  1.4601 -0.7162 -0.7798
  238MOL0     H32830   8.891   6.344   8.418  2.7068  1.2896 -1.9108
  238MOL0     H32831   8.723   6.498   8.486  2.3473  1.5778 -0.2881
  238MOL0     H32832   8.415   6.712   8.447 -0.3648 -0.7659 -1.9682
  238MOL0     H32833   8.506   6.583   8.497  1.4820  0.5654 -0.2981
  238MOL0     H32834   8.685   6.696   8.590 -3.1414 -2.9709  0.8552
  238MOL0     H32835   8.566   6.816   8.636 -0.2340  0.0667 -0.4201
  238MOL0     H32836   8.765   6.916   8.546  1.5715 -0.5729 -1.6114
  238MOL0     H32837   8.729   6.848   8.383 -2.4161  0.8299 -1.2075
  238MOL0     H32838   8.524   6.991   8.513  0.4200  0.6326  0.7828
  238MOL0     H32839   8.531   6.963   8.345  0.5368  2.4040 -1.4994
  238MOL0     H32840   8.797   7.304   8.410  0.6546  0.0314 -0.9245
  238MOL0     H32841   8.670   6.616   8.084 -4.3025  2.0260  2.7100
  238MOL0     H32842   8.836   6.408   7.917  1.7893 -0.0868 -0.2805
  238MOL0     H32843   8.844   6.585   7.930  3.4655 -0.2298 -3.0121
  238MOL0     H32844   8.981   6.480   7.962  0.3523 -0.4948  0.9968
  239MOL0     O32845   3.682   8.923   9.785  0.0428 -0.3028  0.7411
  239MOL0     C32846   3.697   9.027   9.845  0.1664 -0.0251 -0.5676
  239MOL0     O32847   3.605   9.076   9.940 -0.0875  0.0460  0.5684
  239MOL0     C32848   3.485   9.009   9.932 -0.8301  0.8554  0.3019
  239MOL0     C32849   3.424   8.978   9.810  0.5872 -0.5768 -1.1698
  239MOL0     C32850   3.296   8.921   9.823 -0.0647  0.3185  0.2821
  239MOL0     C32851   3.225   8.896   9.949 -0.5895 -0.2619 -0.0357
  239MOL0     O32852   3.103   8.845   9.953  0.0925 -0.1726  0.1307
  239MOL0     C32853   2.991   8.938   9.968  0.6600  0.5514 -1.1615
  239MOL0     C32854   3.000   9.044  10.089 -0.6667 -0.1811  0.1289
  239MOL0     C32855   2.854   9.101  10.117  0.0373 -0.4597 -1.6210
  239MOL0     C32856   2.858   9.239  10.185  0.3902  0.1155  0.2384
  239MOL0     C32857   2.716   9.266  10.235  0.3165  0.3574 -0.2775
  239MOL0     C32858   2.616   9.276  10.124  0.0528  0.5406  0.5728
  239MOL0     C32859   2.535   9.404  10.146  0.2303 -0.8685  0.2333
  239MOL0     C32860   2.441   9.427  10.027  0.1187 -0.3119  0.3555
  239MOL0     N32861   2.359   9.557  10.038 -0.0590 -0.4550  0.1211
  239MOL0     C32862   2.400   9.675  10.096 -0.0688  0.1747  1.4343
  239MOL0     C32863   2.324   9.772  10.036  0.2791  0.3209 -0.7802
  239MOL0     C32864   2.331   9.917  10.062 -0.6288 -0.6732 -0.5906
  239MOL0     C32865   2.234  10.016   9.996 -0.5324 -1.0955 -0.7064
  239MOL0     C32866   2.090   9.992  10.049 -0.3753 -1.1822  0.1599
  239MOL0     C32867   1.983  10.111  10.069 -0.8590  0.1910  0.0800
  239MOL0     O32868   1.867  10.033  10.107  0.2811 -0.0329 -0.6441
  239MOL0     C32869   1.769  10.095  10.193 -0.2275 -0.4645 -0.3190
  239MOL0     C32870   1.718  10.223  10.166  0.4229  0.5210  0.4303
  239MOL0     C32871   1.624  10.289  10.248  0.0276  0.8753  0.1391
  239MOL0     C32872   1.587  10.427  10.204  0.3868  0.2086  1.1403
  239MOL0     C32873   1.575  10.219  10.360 -0.0913 -0.0024  0.2144
  239MOL0     C32874   1.472  10.264  10.452 -0.5112 -0.6340 -0.5764
  239MOL0     O32875   1.451  10.198  10.570  0.4650 -0.4591  0.4458
  239MOL0     C32876   1.347  10.229  10.642  0.4601  0.2011  0.4943
  239MOL0     C32877   1.319  10.352  10.702  1.5902  0.2814 -0.3527
  239MOL0     C32878   1.198  10.372  10.771 -0.1147 -0.1991 -1.0370
  239MOL0     C32879   1.109  10.273  10.796  0.4990 -0.1642 -0.0563
  239MOL0     O32880   0.986  10.315  10.842 -0.3295  0.3306 -0.5357
  239MOL0     C32881   0.873  10.229  10.839 -0.4706  0.5161 -0.5869
  239MOL0     C32882   0.764  10.286  10.925  0.0952  0.8055 -0.0734
  239MOL0     C32883   0.633  10.215  10.919 -0.3093 -0.0278  0.2123
  239MOL0     C32884   0.547  10.262  10.799  0.4227 -0.6435  0.0685
  239MOL0     C32885   0.450  10.154  10.753 -0.2369  0.1726 -0.0606
  239MOL0     C32886   0.318  10.172  10.832  0.0441 -0.3898 -0.1404
  239MOL0     C32887   0.204  10.078  10.799 -0.0881 -0.7532  0.1108
  239MOL0     C32888   0.136  10.106  10.663  0.7401 -0.0081  0.3969
  239MOL0    Cl32889  -0.007   9.986  10.665  0.4903  0.1169 -0.4325
  239MOL0     C32890   1.139  10.145  10.753  0.3550 -0.4163 -0.4519
  239MOL0     C32891   1.255  10.123  10.677 -1.0201 -0.1598 -0.9721
  239MOL0     O32892   1.412  10.367  10.417 -0.1508  0.2718  0.6051
  239MOL0     C32893   1.632  10.094  10.390 -0.1044  0.0812 -0.4632
  239MOL0     C32894   1.718  10.026  10.301  0.3852 -0.3833 -0.3843
  239MOL0     N32895   2.235   9.708   9.946  0.3842 -0.0919  1.2485
  239MOL0     N32896   2.260   9.583   9.945 -1.1241  0.6778  0.1014
  239MOL0     C32897   3.296   8.932  10.060  0.4468  1.2403  0.3856
  239MOL0     C32898   3.418   8.985  10.049  0.3032 -0.6977  0.0949
  239MOL0     C32899   3.827   9.103   9.844 -1.3927 -0.7238 -0.7271
  239MOL0     C32900   3.845   9.213   9.926  1.2758 -0.1631 -0.4835
  239MOL0     C32901   3.959   9.282   9.940 -0.7330  0.4143  0.1865
  239MOL0     C32902   4.066   9.246   9.870  0.5484  0.7256 -0.9836
  239MOL0     O32903   4.184   9.305   9.898 -0.1928 -1.0121 -0.3348
  239MOL0     C32904   4.265   9.338   9.790 -0.6112  0.0823 -0.0985
  239MOL0     C32905   4.394   9.401   9.848  0.3459 -0.5325  1.0031
  239MOL0     C32906   4.358   9.540   9.895 -0.7267 -0.2046  0.1851
  239MOL0     C32907   4.483   9.620   9.946 -0.2603 -0.7824  0.6995
  239MOL0     C32908   4.530   9.691   9.829 -0.5757 -0.0070 -0.3584
  239MOL0     C32909   4.563   9.737   9.723 -0.2590  0.4556  0.2495
  239MOL0     C32910   4.066   9.124   9.803  1.1694 -0.9591  0.1839
  239MOL0     C32911   3.944   9.053   9.786 -0.6095 -0.7955  0.1838
  239MOL0     C32912   3.954   8.928   9.702 -0.5088 -1.0364 -0.0228
  239MOL0     H32913   3.452   8.998   9.707 -2.5558 -2.3389 -2.5025
  239MOL0     H32914   3.246   8.909   9.727  2.1689 -0.2124 -0.8703
  239MOL0     H32915   2.901   8.880   9.993  1.9407  0.2217  3.8942
  239MOL0     H32916   2.980   8.997   9.877  1.5955  2.8988  0.1644
  239MOL0     H32917   3.043   9.004  10.180 -0.4763  1.8052  0.9730
  239MOL0     H32918   3.059   9.129  10.054 -0.5085  0.5884  2.1382
  239MOL0     H32919   2.801   9.117  10.023 -1.3478  2.4620 -0.4515
  239MOL0     H32920   2.797   9.029  10.176  0.4758 -1.9465 -2.9176
  239MOL0     H32921   2.933   9.226  10.264  1.3333  1.5157 -0.3728
  239MOL0     H32922   2.898   9.322  10.126  1.1222  0.5069  1.2527
  239MOL0     H32923   2.733   9.363  10.284 -0.2573  1.5916 -2.4127
  239MOL0     H32924   2.683   9.199  10.315  0.0754  1.2946  0.4326
  239MOL0     H32925   2.676   9.302  10.036  1.5857 -2.7932  0.4817
  239MOL0     H32926   2.559   9.183  10.117 -3.3044  2.5122 -0.5085
  239MOL0     H32927   2.612   9.482  10.140  0.5296 -1.2327 -0.8450
  239MOL0     H32928   2.481   9.413  10.241  0.2756  0.9594  0.1333
  239MOL0     H32929   2.501   9.436   9.936 -0.2648  1.1360  0.2216
  239MOL0     H32930   2.381   9.336  10.017 -1.1265  0.7021 -2.5277
  239MOL0     H32931   2.482   9.682  10.167  1.7576  0.5809 -0.6135
  239MOL0     H32932   2.435   9.941  10.038 -1.8428  4.0599 -2.0869
  239MOL0     H32933   2.310   9.930  10.169 -0.6038  0.2991 -0.6978
  239MOL0     H32934   2.261  10.115  10.034 -2.4778 -0.9680  0.4966
  239MOL0     H32935   2.246  10.006   9.888 -1.0298  0.0315 -0.8771
  239MOL0     H32936   2.050   9.922   9.975  0.0412 -0.0588 -1.1710
  239MOL0     H32937   2.111   9.938  10.142  0.7323  1.4146  1.5326
  239MOL0     H32938   2.021  10.171  10.152 -1.0056  0.9829 -0.4154
  239MOL0     H32939   1.967  10.162   9.974  0.5312 -2.1079 -1.5029
  239MOL0     H32940   1.756  10.280  10.082 -1.6443  0.8399 -0.3514
  239MOL0     H32941   1.586  10.498  10.287  0.9073  1.9392 -0.2775
  239MOL0     H32942   1.483  10.425  10.168  0.1520  2.5167  1.5612
  239MOL0     H32943   1.654  10.467  10.127 -1.4694  2.3303  0.5049
  239MOL0     H32944   1.385  10.427  10.659  0.8013 -0.7573 -3.6551
  239MOL0     H32945   1.159  10.465  10.812 -1.6808 -0.8678 -0.9223
  239MOL0     H32946   0.838  10.231  10.735 -0.5062  0.1974 -0.5806
  239MOL0     H32947   0.902  10.129  10.873 -1.9285 -1.6285 -4.9064
  239MOL0     H32948   0.794  10.286  11.030 -0.0473 -0.5769 -0.0234
  239MOL0     H32949   0.755  10.394  10.909  0.9504  0.7602 -0.9950
  239MOL0     H32950   0.591  10.242  11.016  1.1149  2.6005  0.1750
  239MOL0     H32951   0.639  10.105  10.922  0.4058  0.0108  0.2599
  239MOL0     H32952   0.610  10.288  10.713  0.7897 -0.3809  0.4134
  239MOL0     H32953   0.501  10.358  10.826 -0.5800 -1.5754  1.8113
  239MOL0     H32954   0.424  10.163  10.647 -0.1902 -0.8716 -0.1759
  239MOL0     H32955   0.501  10.057  10.761  0.1832  0.2174 -1.7536
  239MOL0     H32956   0.280  10.273  10.821 -3.1684 -1.5149 -0.2660
  239MOL0     H32957   0.348  10.162  10.937  2.2300  1.2523 -0.5362
  239MOL0     H32958   0.135  10.105  10.879  3.9883  2.0785  3.0677
  239MOL0     H32959   0.238   9.975  10.808  1.7177 -0.3585 -1.3113
  239MOL0     H32960   0.206  10.081  10.582 -1.1228 -2.2433 -0.6344
  239MOL0     H32961   0.095  10.207  10.654 -0.1414 -0.1579  2.3065
  239MOL0     H32962   1.073  10.059  10.760  1.1439 -1.0237 -0.2980
  239MOL0     H32963   1.252  10.023  10.635  0.2927 -0.7408  0.2444
  239MOL0     H32964   1.610  10.046  10.485 -3.0317  2.1738  0.0831
  239MOL0     H32965   1.749   9.922  10.310  2.0052  0.1911  1.5348
  239MOL0     H32966   3.250   8.909  10.156 -3.3847  3.1940 -0.7501
  239MOL0     H32967   3.484   9.008  10.132 -0.2348  2.1032 -0.1574
  239MOL0     H32968   3.758   9.247   9.981 -0.2800 -1.4359 -2.0074
  239MOL0     H32969   3.978   9.365  10.007  2.0626 -0.8855  1.1595
  239MOL0     H32970   4.301   9.250   9.737  2.4102  1.1668 -0.0256
  239MOL0     H32971   4.212   9.406   9.722 -0.1974 -0.3113 -0.8253
  239MOL0     H32972   4.466   9.414   9.767 -0.5524 -0.8536  0.1390
  239MOL0     H32973   4.439   9.350   9.933  1.8111 -1.5321 -0.3130
  239MOL0     H32974   4.311   9.583   9.806 -0.3913  0.8215  0.4902
  239MOL0     H32975   4.292   9.537   9.982  0.6673 -1.5870  1.2434
  239MOL0     H32976   4.571   9.563   9.976  1.2692 -0.3665 -2.5624
  239MOL0     H32977   4.450   9.693  10.021 -2.9262  0.2634 -1.3139
  239MOL0     H32978   4.601   9.761   9.626 -1.8377 -0.3432 -0.6002
  239MOL0     H32979   4.159   9.080   9.770  1.7282  1.2002 -1.3115
  239MOL0     H32980   3.889   8.955   9.618 -0.2269  3.5069  0.9695
  239MOL0     H32981   4.058   8.908   9.673  0.3715  3.2491 -0.4536
  239MOL0     H32982   3.910   8.842   9.754 -0.6185 -0.8432  0.2043
  240MOL0     O32983   3.901   7.934   7.246  0.0798  0.0223 -0.3844
  240MOL0     C32984   3.970   7.872   7.328  0.7550  0.3013  0.5758
  240MOL0     O32985   4.100   7.898   7.358 -0.9718  0.5844 -1.5522
  240MOL0     C32986   4.156   7.995   7.290  0.0004  0.4143  0.3262
  240MOL0     C32987   4.168   8.122   7.349  0.5845 -0.0990 -0.4873
  240MOL0     C32988   4.225   8.228   7.273  0.2050  0.4904  0.2829
  240MOL0     C32989   4.269   8.206   7.144 -0.3175  0.2688  0.2749
  240MOL0     O32990   4.295   8.320   7.070 -0.0453 -0.2092 -0.8653
  240MOL0     C32991   4.305   8.314   6.929 -0.5560  0.2129 -0.4198
  240MOL0     C32992   4.351   8.448   6.880 -0.0626 -0.1251  1.1251
  240MOL0     C32993   4.235   8.553   6.873  0.6650  0.2602  0.0687
  240MOL0     C32994   4.267   8.669   6.781  0.0718 -0.0417  0.4838
  240MOL0     C32995   4.160   8.773   6.802  1.1045 -0.2442 -0.7982
  240MOL0     C32996   4.200   8.901   6.714 -0.0181  0.1212  0.3911
  240MOL0     C32997   4.085   8.992   6.669 -0.2807  0.0352 -0.0178
  240MOL0     C32998   4.012   9.047   6.781  1.2013  0.1634 -0.3862
  240MOL0     N32999   4.063   9.181   6.809  0.3003  0.1855  0.5127
  240MOL0     C33000   4.196   9.218   6.812  0.8285  0.2042  0.1687
  240MOL0     C33001   4.194   9.359   6.826 -0.3218  0.8798 -0.3776
  240MOL0     C33002   4.318   9.441   6.850  0.1839 -0.9506 -0.8408
  240MOL0     C33003   4.370   9.510   6.721 -0.0110 -0.0410  0.8382
  240MOL0     C33004   4.494   9.589   6.750  0.4325 -0.0775  0.2624
  240MOL0     C33005   4.544   9.657   6.616 -0.5982 -0.7912  0.9595
  240MOL0     O33006   4.448   9.745   6.565  0.4804 -0.7070 -0.1862
  240MOL0     C33007   4.460   9.799   6.443 -0.1068  0.0758 -0.2386
  240MOL0     C33008   4.548   9.751   6.349 -0.3811  0.0597  0.1341
  240MOL0     C33009   4.551   9.821   6.228 -0.6819  0.5057  0.6217
  240MOL0     C33010   4.650   9.768   6.126  0.1710  0.2378 -0.9539
  240MOL0     C33011   4.470   9.939   6.208 -0.2276  0.4195  0.5458
  240MOL0     C33012   4.468  10.026   6.086  0.0576 -0.4161  0.5725
  240MOL0     O33013   4.428  10.159   6.094  0.6978 -0.1140 -1.5101
  240MOL0     C33014   4.412  10.240   5.994 -1.0588 -1.6308  0.6990
  240MOL0     C33015   4.367  10.368   6.023 -0.2707 -0.5655 -1.4968
  240MOL0     C33016   4.367  10.478   5.943 -0.4694  0.6574 -0.6322
  240MOL0     C33017   4.424  10.469   5.822 -1.0280  0.4622 -0.0472
  240MOL0     O33018   4.417  10.583   5.746 -0.2880  0.2947 -0.5610
  240MOL0     C33019   4.471  10.578   5.616  0.6717  0.0698 -0.0873
  240MOL0     C33020   4.468  10.708   5.539 -0.0502 -0.0917  0.4065
  240MOL0     C33021   4.545  10.807   5.613  0.2800 -0.6915 -0.5364
  240MOL0     C33022   4.514  10.952   5.570  0.3593 -0.1124  0.0372
  240MOL0     C33023   4.569  11.054   5.666  0.4177 -0.0880  0.2093
  240MOL0     C33024   4.518  11.188   5.613 -0.2541  0.0871 -0.1219
  240MOL0     C33025   4.563  11.300   5.713 -0.0630  0.9536  0.3685
  240MOL0     C33026   4.512  11.432   5.666 -0.9421  0.4133 -0.3625
  240MOL0    Cl33027   4.346  11.414   5.715 -0.2252  0.2067  0.4033
  240MOL0     C33028   4.473  10.344   5.775 -0.4403 -0.6520  0.8215
  240MOL0     C33029   4.460  10.229   5.858  0.0865 -0.0973  0.3236
  240MOL0     O33030   4.474   9.961   5.980 -0.0320  0.4590 -0.2259
  240MOL0     C33031   4.392   9.985   6.305 -0.1556  0.7454 -0.1460
  240MOL0     C33032   4.393   9.919   6.426 -0.9120  0.0977  0.1932
  240MOL0     N33033   4.060   9.389   6.847  0.2691  0.2147  0.6322
  240MOL0     N33034   3.982   9.287   6.831 -0.1898  0.4033 -0.8978
  240MOL0     C33035   4.262   8.076   7.094  0.1692  0.8623  0.1163
  240MOL0     C33036   4.207   7.974   7.158 -0.1913 -0.1716 -0.1613
  240MOL0     C33037   3.907   7.771   7.421  0.9733 -0.0887  0.0225
  240MOL0     C33038   3.965   7.754   7.544 -0.1646  0.6380  0.2868
  240MOL0     C33039   3.907   7.672   7.641 -0.1819 -0.1911  0.8800
  240MOL0     C33040   3.790   7.589   7.606 -0.4111 -0.0009 -0.3884
  240MOL0     O33041   3.751   7.503   7.697  0.1592  0.3174 -0.8483
  240MOL0     C33042   3.654   7.406   7.666 -0.2371  0.2984 -0.0439
  240MOL0     C33043   3.520   7.470   7.673  0.0872  0.4248 -0.5794
  240MOL0     C33044   3.393   7.374   7.670 -1.3577 -0.4035 -0.6126
  240MOL0     C33045   3.378   7.317   7.534  1.1386  0.4414  0.6062
  240MOL0     C33046   3.352   7.415   7.426  0.3757 -0.3302  0.9623
  240MOL0     C33047   3.345   7.492   7.327 -0.6599 -0.0648 -0.8391
  240MOL0     C33048   3.735   7.598   7.484 -0.3580  0.2094  0.0092
  240MOL0     C33049   3.800   7.687   7.387  0.1270 -0.1637  0.0683
  240MOL0     C33050   3.729   7.691   7.257 -0.5514 -0.2749  0.8639
  240MOL0     H33051   4.134   8.144   7.450  1.6079  0.5382 -0.2625
  240MOL0     H33052   4.236   8.330   7.308 -3.4220  1.1072 -0.0483
  240MOL0     H33053   4.206   8.297   6.886  0.1231 -0.4682 -1.7588
  240MOL0     H33054   4.363   8.229   6.891  1.2831  1.5576 -0.7416
  240MOL0     H33055   4.431   8.486   6.945 -2.7064  3.3063  2.6911
  240MOL0     H33056   4.406   8.431   6.787 -0.8307 -1.8921  0.9481
  240MOL0     H33057   4.151   8.498   6.830  2.8096 -1.6449 -2.0375
  240MOL0     H33058   4.220   8.597   6.972  1.7218  0.0100  0.3559
  240MOL0     H33059   4.367   8.700   6.810 -0.1236 -0.1847  1.3321
  240MOL0     H33060   4.277   8.641   6.675  1.5682  1.2802  0.2429
  240MOL0     H33061   4.147   8.799   6.907  0.0272 -1.0069 -0.7308
  240MOL0     H33062   4.064   8.734   6.766  2.1968 -1.8235 -2.1266
  240MOL0     H33063   4.261   8.961   6.782  2.0095 -1.4230  0.0559
  240MOL0     H33064   4.267   8.879   6.630  0.8177 -1.0333  1.3061
  240MOL0     H33065   4.011   8.930   6.617  1.0172 -2.4722  0.9850
  240MOL0     H33066   4.116   9.074   6.603 -0.0739 -0.7660 -0.9249
  240MOL0     H33067   3.906   9.052   6.757  1.2303  0.2863 -0.4918
  240MOL0     H33068   4.028   8.979   6.866 -0.3314  0.3833  0.0964
  240MOL0     H33069   4.284   9.162   6.783  1.1850  1.7457 -1.9840
  240MOL0     H33070   4.386   9.381   6.912  1.1398 -0.2240 -1.1689
  240MOL0     H33071   4.280   9.518   6.918  1.3237 -0.2574 -0.9625
  240MOL0     H33072   4.384   9.438   6.640 -0.0008  1.8363 -0.9212
  240MOL0     H33073   4.278   9.564   6.694  0.5504  0.0342 -1.0741
  240MOL0     H33074   4.479   9.657   6.835  3.6483  1.0384  0.0804
  240MOL0     H33075   4.581   9.539   6.793  1.7495  1.7356 -0.2116
  240MOL0     H33076   4.638   9.710   6.631  0.4072 -2.0592 -0.5202
  240MOL0     H33077   4.560   9.578   6.542  2.8988 -0.6537  1.4392
  240MOL0     H33078   4.614   9.665   6.357 -0.7510 -0.5358 -2.4758
  240MOL0     H33079   4.596   9.751   6.033 -0.3536  0.6823 -0.7377
  240MOL0     H33080   4.683   9.667   6.152  1.5266  0.8238 -0.2935
  240MOL0     H33081   4.733   9.833   6.096  1.1027 -0.3512  0.2904
  240MOL0     H33082   4.339  10.376   6.128  0.5900 -1.5069 -1.1825
  240MOL0     H33083   4.321  10.574   5.966 -4.5074 -1.0532 -0.6883
  240MOL0     H33084   4.574  10.544   5.618  0.5604 -0.2725 -0.1537
  240MOL0     H33085   4.390  10.523   5.567 -1.3094  0.2194  2.7849
  240MOL0     H33086   4.503  10.678   5.440 -1.0345 -5.0932  1.3253
  240MOL0     H33087   4.365  10.744   5.532  0.5519  1.4527 -1.8115
  240MOL0     H33088   4.650  10.778   5.622 -0.0982 -1.4484  4.9628
  240MOL0     H33089   4.512  10.808   5.717  0.8719  2.5119 -0.2637
  240MOL0     H33090   4.405  10.963   5.567  0.4075  2.3192  2.5807
  240MOL0     H33091   4.559  10.955   5.471  3.0218  1.2336  1.1859
  240MOL0     H33092   4.529  11.034   5.766 -1.6604  1.3928 -0.2442
  240MOL0     H33093   4.677  11.039   5.655  0.4602  1.0830 -1.3692
  240MOL0     H33094   4.409  11.183   5.603 -0.0097 -2.7256 -3.6032
  240MOL0     H33095   4.571  11.222   5.524  2.4155 -0.2136  1.2561
  240MOL0     H33096   4.672  11.297   5.706 -0.0919  2.2227 -1.0726
  240MOL0     H33097   4.535  11.280   5.817 -1.1383  3.0672  0.5255
  240MOL0     H33098   4.532  11.452   5.560 -4.1956  0.7745 -1.0101
  240MOL0     H33099   4.566  11.504   5.728  0.0186 -0.0172 -0.6741
  240MOL0     H33100   4.518  10.332   5.677 -0.7600  0.0011  0.5867
  240MOL0     H33101   4.501  10.135   5.824 -2.6253 -0.5254 -2.0946
  240MOL0     H33102   4.305  10.048   6.289 -2.6992 -1.6814  2.7288
  240MOL0     H33103   4.325   9.940   6.508 -1.2488 -1.6245  0.4038
  240MOL0     H33104   4.294   8.061   6.991  2.5320  2.3305  0.5687
  240MOL0     H33105   4.187   7.871   7.128 -3.5245 -0.6513  3.0536
  240MOL0     H33106   4.044   7.818   7.581  3.2304 -2.5474 -0.8043
  240MOL0     H33107   3.952   7.670   7.740 -0.5611 -0.6789  1.0482
  240MOL0     H33108   3.670   7.365   7.566  2.7454 -2.4019  1.3112
  240MOL0     H33109   3.648   7.327   7.742 -3.4517  0.1535 -0.3286
  240MOL0     H33110   3.498   7.552   7.605  1.3860 -0.4282 -2.0982
  240MOL0     H33111   3.513   7.524   7.768  0.2343  0.1424 -0.4058
  240MOL0     H33112   3.409   7.305   7.753  0.5257 -0.9857 -1.4094
  240MOL0     H33113   3.308   7.441   7.687  0.2865  2.0958 -1.5719
  240MOL0     H33114   3.290   7.253   7.537 -0.2883  1.3014 -6.0488
  240MOL0     H33115   3.473   7.269   7.509  0.8552 -0.3978  1.1054
  240MOL0     H33116   3.342   7.553   7.239 -0.5257  0.7011 -0.3187
  240MOL0     H33117   3.657   7.534   7.445  1.6377 -1.2322 -1.8317
  240MOL0     H33118   3.698   7.792   7.229  1.2398 -0.0498 -0.5634
  240MOL0     H33119   3.805   7.662   7.183 -0.1006  1.7313  0.4748
  240MOL0     H33120   3.640   7.628   7.259 -0.0664 -1.0589 -0.6195
  241MOL0     O33121  11.479   5.077   8.808 -0.6160 -0.3017  0.3794
  241MOL0     C33122  11.537   4.991   8.742  1.5194 -0.7786  0.3451
  241MOL0     O33123  11.483   4.911   8.643  0.1083  0.3846  0.3607
  241MOL0     C33124  11.352   4.929   8.606 -0.4280 -0.3283  0.2252
  241MOL0     C33125  11.321   4.981   8.481  0.9205 -0.4881  0.9333
  241MOL0     C33126  11.190   4.993   8.434 -0.5544 -0.2946  0.2118
  241MOL0     C33127  11.084   4.960   8.525  0.1681  0.2666  1.2993
  241MOL0     O33128  10.951   4.980   8.475  0.2621  0.6015 -0.1731
  241MOL0     C33129  10.854   5.026   8.572  0.5374  0.0145 -0.3199
  241MOL0     C33130  10.816   5.166   8.524 -0.0923 -0.6920 -0.2836
  241MOL0     C33131  10.767   5.166   8.379 -0.2528  0.1136  0.7115
  241MOL0     C33132  10.620   5.113   8.358 -0.4091 -0.1959  0.2024
  241MOL0     C33133  10.540   5.192   8.253  0.6838 -0.4356 -0.0993
  241MOL0     C33134  10.413   5.114   8.228  0.0001 -0.6142  0.6496
  241MOL0     C33135  10.352   5.150   8.093 -0.7775 -0.7435 -0.0819
  241MOL0     C33136  10.419   5.068   7.977 -0.0072  0.3377 -0.1726
  241MOL0     N33137  10.360   5.097   7.840  0.3433  0.5876 -0.7351
  241MOL0     C33138  10.366   5.218   7.779 -0.6550  0.7033  0.2799
  241MOL0     C33139  10.284   5.197   7.667 -0.8191 -0.4921  0.1938
  241MOL0     C33140  10.262   5.289   7.547 -0.5873 -0.3948  0.1455
  241MOL0     C33141  10.145   5.225   7.466  0.3456  0.7534 -0.3148
  241MOL0     C33142  10.117   5.310   7.333 -0.2090  0.5357  0.1358
  241MOL0     C33143  10.003   5.257   7.240  1.0314 -0.2161 -0.6935
  241MOL0     O33144   9.867   5.258   7.298  0.4104 -0.0480  0.2851
  241MOL0     C33145   9.787   5.367   7.250 -0.6820  1.2724  0.3935
  241MOL0     C33146   9.659   5.344   7.200 -0.0987  0.0538  0.0579
  241MOL0     C33147   9.581   5.449   7.153 -0.0683  0.6477 -0.0435
  241MOL0     C33148   9.451   5.409   7.075  0.6627  0.0868  0.0328
  241MOL0     C33149   9.629   5.583   7.163 -0.1682 -0.1403  0.4765
  241MOL0     C33150   9.544   5.689   7.114  0.2143 -0.4741 -0.4810
  241MOL0     O33151   9.514   5.791   7.199 -0.1213  0.4291 -0.1179
  241MOL0     C33152   9.458   5.770   7.315 -1.1231  0.0913  0.0864
  241MOL0     C33153   9.401   5.648   7.360  0.5689  0.1065 -0.9041
  241MOL0     C33154   9.351   5.635   7.493 -0.4688  0.3299 -0.3721
  241MOL0     C33155   9.359   5.740   7.580 -0.6542  0.7241 -0.5345
  241MOL0     O33156   9.304   5.723   7.706  0.2932  0.3807 -0.2975
  241MOL0     C33157   9.164   5.683   7.692 -0.8833  0.0307  0.1430
  241MOL0     C33158   9.076   5.710   7.808 -0.4336 -0.6988  1.0410
  241MOL0     C33159   9.085   5.873   7.826 -0.8181  1.0907 -0.2273
  241MOL0     C33160   9.017   5.955   7.718 -0.3945 -0.5298  0.9251
  241MOL0     C33161   8.999   6.096   7.756  0.4344 -0.0166 -0.8481
  241MOL0     C33162   8.916   6.178   7.660  0.8671  0.2905  0.6067
  241MOL0     C33163   8.990   6.313   7.632 -0.0894 -0.7764  0.9861
  241MOL0     C33164   8.929   6.368   7.508  0.8211  0.2268 -0.3294
  241MOL0    Cl33165   8.945   6.545   7.493  0.2548 -0.0947  0.2716
  241MOL0     C33166   9.421   5.860   7.546 -0.0952  0.1265  0.8399
  241MOL0     C33167   9.474   5.872   7.416  0.6254  0.3583  0.0336
  241MOL0     O33168   9.512   5.689   6.995 -0.0290 -0.5363 -0.5891
  241MOL0     C33169   9.746   5.611   7.232  0.4666 -0.1868 -0.2461
  241MOL0     C33170   9.823   5.502   7.273  0.0340  0.1943  0.4707
  241MOL0     N33171  10.221   5.076   7.675 -0.2247  0.7575  0.0453
  241MOL0     N33172  10.267   5.022   7.773 -0.1617  0.8704 -0.3097
  241MOL0     C33173  11.122   4.911   8.659 -0.9258  0.4283  0.1620
  241MOL0     C33174  11.255   4.890   8.691 -0.0238 -0.1451 -0.1638
  241MOL0     C33175  11.673   4.966   8.793  0.0808  0.3340  1.2894
  241MOL0     C33176  11.707   4.978   8.928  0.5102  0.2149  0.2266
  241MOL0     C33177  11.832   4.963   8.977 -0.6400  0.3562 -0.0157
  241MOL0     C33178  11.932   4.914   8.887 -0.7624  0.4016 -0.3914
  241MOL0     O33179  12.057   4.902   8.922 -0.7821 -0.8497 -0.2873
  241MOL0     C33180  12.095   4.850   9.049 -0.0329  0.5310 -1.2235
  241MOL0     C33181  12.057   4.704   9.066  0.1782  0.3076 -0.5787
  241MOL0     C33182  12.125   4.595   8.971  0.4298 -0.7110 -0.1716
  241MOL0     C33183  12.058   4.463   9.013  0.2893 -0.2202  0.3763
  241MOL0     C33184  12.114   4.411   9.136  0.0189  0.1436  0.3100
  241MOL0     C33185  12.150   4.361   9.239  1.1209 -0.0991 -0.7949
  241MOL0     C33186  11.904   4.896   8.756  0.1564  0.0510 -0.1655
  241MOL0     C33187  11.771   4.916   8.706 -0.2464  0.0459  0.4059
  241MOL0     C33188  11.767   4.935   8.554 -0.2856  0.2953  0.1411
  241MOL0     H33189  11.406   5.006   8.419 -1.7933 -2.2442 -3.9837
  241MOL0     H33190  11.167   5.026   8.333 -0.8856 -0.0593  0.3599
  241MOL0     H33191  10.903   5.032   8.669  0.2882  1.3739 -0.2533
  241MOL0     H33192  10.777   4.950   8.589 -2.3701  1.4481 -5.1334
  241MOL0     H33193  10.741   5.214   8.588 -1.1559 -1.3698 -0.9799
  241MOL0     H33194  10.908   5.224   8.534 -0.6788  0.7792 -2.6454
  241MOL0     H33195  10.777   5.266   8.335 -0.6920 -0.0834  0.1474
  241MOL0     H33196  10.838   5.101   8.328  0.6815 -0.2942  2.4318
  241MOL0     H33197  10.635   5.011   8.321  0.3976 -0.3037  0.8085
  241MOL0     H33198  10.569   5.116   8.454 -0.8084 -0.4830 -0.0017
  241MOL0     H33199  10.604   5.197   8.164 -0.1491  0.5221 -0.6638
  241MOL0     H33200  10.514   5.290   8.294 -0.0183 -0.5835 -0.1764
  241MOL0     H33201  10.433   5.009   8.205  1.3563  0.2040 -2.4164
  241MOL0     H33202  10.331   5.133   8.298 -0.8184 -1.3129 -0.0892
  241MOL0     H33203  10.363   5.253   8.058  0.3714 -1.0088 -0.5555
  241MOL0     H33204  10.247   5.120   8.096 -1.7865  2.4714  0.8000
  241MOL0     H33205  10.526   5.091   7.971  0.1687 -0.7900 -2.1598
  241MOL0     H33206  10.415   4.960   7.992  1.0662 -0.0112 -2.0296
  241MOL0     H33207  10.435   5.301   7.793  1.4320 -0.8395 -0.2036
  241MOL0     H33208  10.351   5.310   7.486 -0.1092  1.2107  1.3233
  241MOL0     H33209  10.234   5.387   7.587  2.7599  1.2660 -1.1408
  241MOL0     H33210  10.176   5.125   7.433  0.3530  0.5565  0.2737
  241MOL0     H33211  10.057   5.214   7.530  0.8453  0.0809  0.2688
  241MOL0     H33212  10.079   5.408   7.363  1.3286  1.1443  0.1430
  241MOL0     H33213  10.203   5.331   7.269  0.8817  0.5820  1.5753
  241MOL0     H33214  10.002   5.305   7.142 -0.0808 -0.4069 -0.7919
  241MOL0     H33215  10.020   5.153   7.211 -0.0213 -0.0373 -2.0396
  241MOL0     H33216   9.626   5.241   7.197 -0.6872  0.1491  2.0321
  241MOL0     H33217   9.467   5.308   7.037  1.7517 -0.2581  1.3415
  241MOL0     H33218   9.442   5.460   6.979  2.0024 -1.7932 -1.1507
  241MOL0     H33219   9.351   5.418   7.119 -0.7612 -1.7805 -2.5550
  241MOL0     H33220   9.384   5.570   7.286 -1.6690  1.7223 -2.2361
  241MOL0     H33221   9.300   5.542   7.518  1.3147 -0.8564 -0.9064
  241MOL0     H33222   9.125   5.719   7.596  3.0385  0.1056 -1.6128
  241MOL0     H33223   9.162   5.575   7.676  1.8635  0.1805 -2.0352
  241MOL0     H33224   8.970   5.691   7.793 -0.4016 -0.5171  0.5857
  241MOL0     H33225   9.113   5.672   7.904  2.4211 -1.8634 -0.4095
  241MOL0     H33226   9.187   5.909   7.817  0.6208 -1.7243  2.9895
  241MOL0     H33227   9.048   5.895   7.926  0.0774  0.3948  0.2682
  241MOL0     H33228   8.919   5.911   7.695  0.4457 -1.9782 -0.0928
  241MOL0     H33229   9.086   5.953   7.633 -0.2000 -0.4228  1.0812
  241MOL0     H33230   8.940   6.117   7.846  0.3438  2.0708 -1.3337
  241MOL0     H33231   9.100   6.134   7.773  0.5147 -0.7014  0.2782
  241MOL0     H33232   8.815   6.200   7.695  0.0305  2.6144 -2.7377
  241MOL0     H33233   8.913   6.117   7.568  0.5581 -0.3708  1.0479
  241MOL0     H33234   9.095   6.288   7.616 -0.4334 -1.2411 -0.7311
  241MOL0     H33235   8.980   6.382   7.716 -0.4573  1.5029 -0.8348
  241MOL0     H33236   8.821   6.351   7.509  0.1620  3.6127 -1.1209
  241MOL0     H33237   8.970   6.318   7.420 -1.1185 -2.1253 -0.0159
  241MOL0     H33238   9.431   5.941   7.617  0.7199  0.4942  0.3245
  241MOL0     H33239   9.522   5.966   7.390  0.4037 -0.4516 -3.8982
  241MOL0     H33240   9.779   5.710   7.260  1.8010 -0.0587 -2.0683
  241MOL0     H33241   9.910   5.520   7.336  0.8689 -0.1307 -0.5635
  241MOL0     H33242  11.043   4.889   8.730  0.6799 -0.2149  1.8289
  241MOL0     H33243  11.263   4.843   8.789  0.0147 -2.1329 -1.0745
  241MOL0     H33244  11.632   5.028   8.989  2.3811  1.3891  1.6769
  241MOL0     H33245  11.871   4.986   9.075  2.2672  0.9465 -1.2064
  241MOL0     H33246  12.204   4.861   9.059 -0.3609  1.4203  3.5785
  241MOL0     H33247  12.060   4.902   9.138  0.4712  0.8719 -1.2197
  241MOL0     H33248  11.950   4.715   9.050  0.0517  1.0575  0.6732
  241MOL0     H33249  12.084   4.672   9.167 -2.1670 -1.2742 -0.3743
  241MOL0     H33250  12.086   4.635   8.877 -2.9578  0.0962  1.4304
  241MOL0     H33251  12.235   4.600   8.973  0.3638  0.9960  0.6811
  241MOL0     H33252  12.070   4.396   8.927  2.2469  2.0522 -1.2196
  241MOL0     H33253  11.950   4.474   9.024  0.0485 -1.0378 -0.9538
  241MOL0     H33254  12.174   4.317   9.334 -1.2184  1.8130  0.7995
  241MOL0     H33255  11.978   4.852   8.689  0.4533  1.9182 -1.1372
  241MOL0     H33256  11.682   4.999   8.525  0.6323  2.1027  1.2668
  241MOL0     H33257  11.847   5.006   8.532  0.5106 -0.9036 -1.0057
  241MOL0     H33258  11.777   4.844   8.495 -0.2344 -0.1598  0.8525
  242MOL0     O33259   6.370   8.254   9.154  0.0219 -0.0160 -0.0712
  242MOL0     C33260   6.320   8.161   9.225 -0.3442  0.2023  0.3329
  242MOL0     O33261   6.233   8.067   9.177 -0.6563  0.2624  1.0716
  242MOL0     C33262   6.161   8.063   9.058 -0.1690 -0.5962  0.2078
  242MOL0     C33263   6.131   7.935   9.009 -0.6312  0.0372  1.0543
  242MOL0     C33264   6.086   7.917   8.874  0.9988  0.4714 -0.3947
  242MOL0     C33265   6.037   8.025   8.796  0.4788  0.4870  0.2210
  242MOL0     O33266   5.980   7.998   8.675 -0.2824 -0.2320  0.5496
  242MOL0     C33267   5.846   8.041   8.664  0.1592 -0.1744  0.0294
  242MOL0     C33268   5.788   7.955   8.548 -0.3322 -0.6310 -0.7833
  242MOL0     C33269   5.862   7.971   8.418  0.2165 -0.3802 -0.7127
  242MOL0     C33270   5.770   7.937   8.297 -1.0030 -0.2676 -0.0413
  242MOL0     C33271   5.840   7.966   8.159 -0.5937 -0.3181  0.2823
  242MOL0     C33272   5.745   7.958   8.039  0.0776  0.0676 -0.2654
  242MOL0     C33273   5.686   7.832   7.983 -0.4433 -0.6423  0.4834
  242MOL0     C33274   5.579   7.773   8.073  0.9407  0.1735 -0.2431
  242MOL0     N33275   5.450   7.841   8.064 -0.3017  0.6505 -0.6898
  242MOL0     C33276   5.397   7.934   7.976 -0.1659 -1.1278 -0.7946
  242MOL0     C33277   5.285   7.982   8.040 -0.6288 -0.2153  0.9014
  242MOL0     C33278   5.199   8.091   7.990  0.0513 -0.1322 -0.2600
  242MOL0     C33279   5.088   8.039   7.894 -1.2751  0.0630 -0.1960
  242MOL0     C33280   4.955   8.025   7.967 -0.6699 -0.0339  0.1683
  242MOL0     C33281   4.841   7.995   7.884  0.0074  0.2017 -0.7462
  242MOL0     O33282   4.831   7.848   7.865 -0.5531  0.4151 -0.1530
  242MOL0     C33283   4.729   7.787   7.940 -0.0045 -0.2174  0.6881
  242MOL0     C33284   4.719   7.790   8.081  0.3791  0.4931  0.0999
  242MOL0     C33285   4.618   7.726   8.149 -0.3691  0.8512  0.4951
  242MOL0     C33286   4.606   7.749   8.296 -1.2134  1.2137 -1.1582
  242MOL0     C33287   4.544   7.621   8.084  0.6733  0.1791  1.0795
  242MOL0     C33288   4.431   7.550   8.142  0.6847 -0.2770 -0.6987
  242MOL0     O33289   4.417   7.420   8.122 -0.3146  0.0609 -0.6450
  242MOL0     C33290   4.314   7.345   8.177  0.7439  0.8013 -0.2574
  242MOL0     C33291   4.235   7.253   8.102 -0.6482  0.4642 -0.6363
  242MOL0     C33292   4.138   7.187   8.169  0.4046  0.3631 -0.5064
  242MOL0     C33293   4.115   7.189   8.319  0.4106  1.1691  1.0887
  242MOL0     O33294   4.026   7.099   8.379 -0.1775 -0.3281  0.7807
  242MOL0     C33295   4.017   7.099   8.530 -0.1925  0.3701  0.4066
  242MOL0     C33296   3.912   6.998   8.559 -0.4263 -1.1418 -0.2373
  242MOL0     C33297   3.898   6.984   8.711 -0.1013  0.1838 -0.0208
  242MOL0     C33298   3.757   6.924   8.739 -0.6368 -0.3480 -0.1184
  242MOL0     C33299   3.757   6.920   8.899  0.4858  0.4734 -0.2640
  242MOL0     C33300   3.614   6.864   8.930 -0.7325  0.2085  0.0098
  242MOL0     C33301   3.590   6.862   9.075  0.4751  0.0557 -0.5909
  242MOL0     C33302   3.524   6.735   9.112  0.4028  0.2141 -0.7376
  242MOL0    Cl33303   3.634   6.602   9.110  0.0073 -0.2138  0.0153
  242MOL0     C33304   4.209   7.274   8.386 -0.3337  1.4350 -0.0278
  242MOL0     C33305   4.294   7.356   8.314 -0.5575  0.0625  0.1360
  242MOL0     O33306   4.354   7.622   8.206  1.3014  0.2405  0.3662
  242MOL0     C33307   4.573   7.599   7.945  0.0607 -0.2198 -0.0686
  242MOL0     C33308   4.656   7.683   7.873  0.4647 -0.5512 -0.6794
  242MOL0     N33309   5.255   7.899   8.146 -0.7345 -0.1914  0.4288
  242MOL0     N33310   5.353   7.824   8.158  0.1260  0.0623  0.0049
  242MOL0     C33311   6.048   8.151   8.853 -0.7204  0.1720 -0.1357
  242MOL0     C33312   6.112   8.167   8.983 -0.1373  0.3592  1.0298
  242MOL0     C33313   6.373   8.132   9.361  0.3984  0.2937 -0.0071
  242MOL0     C33314   6.294   8.047   9.444  0.8089 -0.1098 -0.1083
  242MOL0     C33315   6.336   8.015   9.573  0.2864  0.4907 -0.0049
  242MOL0     C33316   6.455   8.064   9.619  0.6022  0.3336  0.4887
  242MOL0     O33317   6.488   8.023   9.749 -0.1322  0.9558  0.7271
  242MOL0     C33318   6.628   8.019   9.780 -0.4145 -0.1384 -0.2277
  242MOL0     C33319   6.648   7.924   9.901 -0.9468 -0.0687  0.3552
  242MOL0     C33320   6.580   7.979  10.031  0.2418 -0.2560 -0.1496
  242MOL0     C33321   6.649   7.934  10.160  0.3890  0.0765 -0.3904
  242MOL0     C33322   6.656   7.791  10.170 -0.4141  0.1659  0.2512
  242MOL0     C33323   6.683   7.678  10.172  0.0330 -0.1099  0.6413
  242MOL0     C33324   6.534   8.146   9.541 -0.1101 -0.2583  0.6158
  242MOL0     C33325   6.495   8.182   9.417 -0.2991 -0.0848  1.7097
  242MOL0     C33326   6.594   8.266   9.339 -0.0985  0.0165  0.5643
  242MOL0     H33327   6.164   7.846   9.063 -4.0097 -1.9836  0.0734
  242MOL0     H33328   6.063   7.822   8.828 -0.7976  0.4750  0.4047
  242MOL0     H33329   5.831   8.148   8.647 -1.7049 -0.4349 -0.1488
  242MOL0     H33330   5.789   8.024   8.756 -1.2897  4.6534  0.3231
  242MOL0     H33331   5.779   7.849   8.573  0.4121 -1.0763 -2.2496
  242MOL0     H33332   5.686   7.993   8.533  0.6298  2.2153 -0.5607
  242MOL0     H33333   5.899   8.074   8.418  0.2086 -0.3002  2.3073
  242MOL0     H33334   5.951   7.906   8.413  0.3616 -0.6068  2.7054
  242MOL0     H33335   5.734   7.834   8.290  2.0254 -1.3470 -1.6423
  242MOL0     H33336   5.681   7.999   8.285 -0.9343 -0.4022 -1.4437
  242MOL0     H33337   5.925   7.899   8.149 -0.0564  0.3290  0.4444
  242MOL0     H33338   5.896   8.060   8.156  0.9676 -1.2402 -0.8539
  242MOL0     H33339   5.667   8.030   8.065 -1.3329 -1.6223  0.3218
  242MOL0     H33340   5.788   8.001   7.948  2.9782  0.0071  0.9757
  242MOL0     H33341   5.775   7.770   7.968 -1.3686 -1.9306  0.1389
  242MOL0     H33342   5.638   7.848   7.886 -1.1978  2.0244  1.2108
  242MOL0     H33343   5.558   7.682   8.015 -0.2536  0.6751 -0.6367
  242MOL0     H33344   5.607   7.741   8.174  1.7964  0.2142 -0.4649
  242MOL0     H33345   5.440   7.982   7.889  0.7739  0.2030  0.3656
  242MOL0     H33346   5.274   8.158   7.947  0.6659 -1.9482 -2.1525
  242MOL0     H33347   5.161   8.140   8.080 -0.2140 -2.1729  0.7934
  242MOL0     H33348   5.065   8.104   7.810 -2.2943  1.6040  1.2122
  242MOL0     H33349   5.119   7.951   7.837 -1.7233  0.9106 -1.8015
  242MOL0     H33350   4.962   7.947   8.043 -0.5781  0.3928  0.6005
  242MOL0     H33351   4.941   8.121   8.016 -2.1200 -0.6429  1.0251
  242MOL0     H33352   4.752   8.039   7.930  0.9047 -0.7090  2.1096
  242MOL0     H33353   4.860   8.045   7.789 -3.9753  1.3463 -1.1100
  242MOL0     H33354   4.769   7.866   8.140  2.4569  0.6563 -1.7240
  242MOL0     H33355   4.697   7.706   8.340 -1.9791  0.6282 -0.0634
  242MOL0     H33356   4.527   7.692   8.347  0.5312  1.3349  1.9317
  242MOL0     H33357   4.587   7.855   8.315 -0.9989  1.6246 -3.0601
  242MOL0     H33358   4.273   7.228   8.004 -0.2615  1.9159 -0.8795
  242MOL0     H33359   4.063   7.127   8.118 -2.2683  0.4309  2.9619
  242MOL0     H33360   4.113   7.073   8.574 -0.7606  0.2117  1.6080
  242MOL0     H33361   3.993   7.197   8.573 -0.2877  0.5198  0.0143
  242MOL0     H33362   3.814   7.003   8.511 -0.5390 -0.7667  0.0311
  242MOL0     H33363   3.958   6.906   8.520 -0.8669 -2.1737  1.5394
  242MOL0     H33364   3.900   7.081   8.762 -1.0547  0.7190 -0.9505
  242MOL0     H33365   3.977   6.922   8.753  0.2173 -0.7647 -1.9189
  242MOL0     H33366   3.743   6.832   8.681 -2.9784  1.2980 -2.4146
  242MOL0     H33367   3.695   7.006   8.700  2.3544  1.3300 -1.8175
  242MOL0     H33368   3.823   6.845   8.944  0.5124  1.5010  1.4892
  242MOL0     H33369   3.777   7.015   8.950 -0.7855  1.6292 -1.8207
  242MOL0     H33370   3.609   6.762   8.892  0.8703 -0.3113  1.1003
  242MOL0     H33371   3.541   6.920   8.871  0.0793  0.4769 -0.7638
  242MOL0     H33372   3.510   6.933   9.095 -1.0153 -2.0972  1.8012
  242MOL0     H33373   3.681   6.879   9.135 -0.0073  2.3746 -0.4145
  242MOL0     H33374   3.439   6.712   9.045 -1.3987 -1.2609  1.8652
  242MOL0     H33375   3.481   6.740   9.212  2.6324  2.4153  0.1919
  242MOL0     H33376   4.216   7.293   8.493  2.4422  3.1301 -0.3904
  242MOL0     H33377   4.366   7.416   8.370  3.4611 -2.0352 -2.3287
  242MOL0     H33378   4.519   7.519   7.894  0.0969  0.6919 -1.6194
  242MOL0     H33379   4.671   7.670   7.766  1.7240  2.2544 -0.9270
  242MOL0     H33380   6.012   8.235   8.794 -1.6473  1.4532  2.1355
  242MOL0     H33381   6.100   8.271   9.014 -3.8627  1.6294 -3.4822
  242MOL0     H33382   6.197   8.012   9.411 -0.0799  0.4655  1.7777
  242MOL0     H33383   6.263   7.966   9.637 -3.5615  4.1189 -1.1206
  242MOL0     H33384   6.688   7.968   9.704  0.6381 -1.2917  1.3232
  242MOL0     H33385   6.672   8.117   9.799  1.6467 -1.9442  7.6921
  242MOL0     H33386   6.751   7.897   9.924 -1.5216 -2.7905  0.1172
  242MOL0     H33387   6.593   7.829   9.899 -2.9122  0.9394  1.9857
  242MOL0     H33388   6.583   8.088  10.032 -3.3135  0.0752  3.7506
  242MOL0     H33389   6.477   7.943  10.026  0.0183  0.0611  1.4738
  242MOL0     H33390   6.580   7.962  10.241 -1.0593 -1.2083 -1.1372
  242MOL0     H33391   6.745   7.986  10.162  1.4954 -1.8498 -0.9499
  242MOL0     H33392   6.710   7.578  10.146  0.3881 -0.0238  0.6709
  242MOL0     H33393   6.629   8.187   9.573 -0.8229  1.0535  1.1313
  242MOL0     H33394   6.629   8.220   9.246  0.3558 -0.9409  1.1963
  242MOL0     H33395   6.540   8.349   9.293 -1.1838 -1.1303 -0.3173
  242MOL0     H33396   6.676   8.299   9.403 -0.0922  0.7720  0.1719
  243MOL0     O33397   0.509   0.383   1.760  0.5876 -0.2339  0.0642
  243MOL0     C33398   0.422   0.458   1.809 -0.1581 -0.3770 -0.6866
  243MOL0     O33399   0.329   0.519   1.735 -0.1634  0.0753  0.5638
  243MOL0     C33400   0.366   0.584   1.619  0.4669 -0.1434 -0.5529
  243MOL0     C33401   0.407   0.498   1.515 -0.1347 -0.2199  0.4467
  243MOL0     C33402   0.434   0.552   1.389  0.5664 -1.0148 -0.2542
  243MOL0     C33403   0.440   0.697   1.368  0.4383 -0.1058  0.8031
  243MOL0     O33404   0.466   0.737   1.237  0.6451  0.6245  0.5315
  243MOL0     C33405   0.468   0.877   1.215 -0.8557  0.8283  0.1963
  243MOL0     C33406   0.453   0.900   1.060 -0.8007 -0.3065 -0.6810
  243MOL0     C33407   0.415   1.041   1.035 -0.3220 -0.5511 -0.0859
  243MOL0     C33408   0.270   1.086   1.069 -0.6293 -0.4219 -0.4045
  243MOL0     C33409   0.167   1.023   0.979 -1.0638 -0.2209  0.2448
  243MOL0     C33410   0.021   1.074   1.017  0.3727 -0.0925  0.0477
  243MOL0     C33411  -0.088   1.009   0.930 -0.4735  0.1918 -0.6953
  243MOL0     C33412  -0.083   1.007   0.779  0.1217 -0.3695  0.3885
  243MOL0     N33413  -0.206   0.946   0.708  0.5614 -0.4333 -0.4555
  243MOL0     C33414  -0.343   0.963   0.737  0.2698  0.1476  0.1325
  243MOL0     C33415  -0.405   0.859   0.662  0.6764 -0.4891 -1.2874
  243MOL0     C33416  -0.556   0.836   0.653 -0.3449  0.4910 -0.1060
  243MOL0     C33417  -0.626   0.818   0.780 -0.7616 -0.2775  0.1864
  243MOL0     C33418  -0.644   0.951   0.857  0.4156 -0.2759  0.5310
  243MOL0     C33419  -0.785   0.959   0.923 -0.0095  0.1393 -0.1335
  243MOL0     O33420  -0.785   1.065   1.022  0.6246 -0.9814 -0.1391
  243MOL0     C33421  -0.900   1.090   1.097 -0.2302 -0.1836 -0.2386
  243MOL0     C33422  -0.892   1.067   1.235  0.4228  1.4447  0.5902
  243MOL0     C33423  -1.005   1.089   1.309  0.1454  0.5880 -0.1872
  243MOL0     C33424  -0.993   1.060   1.464  0.9310  0.0901  0.8448
  243MOL0     C33425  -1.121   1.146   1.255  0.0181  0.2469  0.6346
  243MOL0     C33426  -1.243   1.178   1.330 -0.9156  0.7128 -0.0137
  243MOL0     O33427  -1.310   1.294   1.301 -0.0282  0.8075  0.5042
  243MOL0     C33428  -1.441   1.300   1.337 -0.6328 -0.1957  0.1907
  243MOL0     C33429  -1.538   1.194   1.349 -0.7690 -0.1308 -1.1205
  243MOL0     C33430  -1.669   1.230   1.376 -0.7277  1.0772  0.5213
  243MOL0     C33431  -1.711   1.366   1.381  0.0245 -0.5162 -1.2918
  243MOL0     O33432  -1.843   1.403   1.424 -0.3776  0.7584  0.2325
  243MOL0     C33433  -1.953   1.356   1.331  0.0057 -0.0889 -0.7038
  243MOL0     C33434  -2.099   1.388   1.380 -1.6393 -0.3050 -0.1118
  243MOL0     C33435  -2.211   1.322   1.318 -0.0826  0.6041  1.0869
  243MOL0     C33436  -2.341   1.366   1.386 -0.0265  1.5751  1.0672
  243MOL0     C33437  -2.470   1.287   1.360  1.6954 -0.1961  0.5322
  243MOL0     C33438  -2.470   1.132   1.381  0.4280  0.3292 -0.2724
  243MOL0     C33439  -2.572   1.058   1.301 -0.5108 -0.0905 -0.5636
  243MOL0     C33440  -2.555   0.909   1.307 -0.6346 -0.0188  0.9652
  243MOL0    Cl33441  -2.669   0.832   1.195  0.2404  0.2815 -0.1740
  243MOL0     C33442  -1.614   1.470   1.356 -0.4641 -0.5020  0.0429
  243MOL0     C33443  -1.479   1.434   1.338  0.3583  0.7838  0.0561
  243MOL0     O33444  -1.273   1.097   1.422  0.1611  0.0037 -0.1512
  243MOL0     C33445  -1.124   1.153   1.118 -0.9074 -0.2482  0.0772
  243MOL0     C33446  -1.016   1.136   1.032 -0.9575  0.1241 -0.1423
  243MOL0     N33447  -0.311   0.777   0.613  0.0710 -0.0891  0.5455
  243MOL0     N33448  -0.191   0.833   0.637  0.3293 -0.9902  0.2018
  243MOL0     C33449   0.394   0.783   1.469  0.7894  0.5348 -0.1953
  243MOL0     C33450   0.358   0.724   1.590 -0.6752 -0.3004  0.0208
  243MOL0     C33451   0.407   0.452   1.966  0.2973  0.4657  0.1957
  243MOL0     C33452   0.518   0.420   2.045 -0.5083 -0.2937 -1.1490
  243MOL0     C33453   0.519   0.425   2.185  0.3678  0.8314  1.4284
  243MOL0     C33454   0.396   0.456   2.250 -0.7617 -0.0596  0.0951
  243MOL0     O33455   0.382   0.477   2.391 -0.5575 -0.5351  0.1449
  243MOL0     C33456   0.319   0.384   2.467  0.0837 -0.1707 -0.6138
  243MOL0     C33457   0.401   0.254   2.466  0.1438 -0.0157  0.3164
  243MOL0     C33458   0.540   0.278   2.530  0.2635 -0.1610 -0.2109
  243MOL0     C33459   0.627   0.141   2.550 -0.6665  0.0435 -0.0127
  243MOL0     C33460   0.584   0.065   2.661 -0.6851  0.4291 -1.0257
  243MOL0     C33461   0.551  -0.001   2.761 -0.6268 -0.6459  0.2009
  243MOL0     C33462   0.286   0.466   2.175 -0.3305  0.0398  0.6783
  243MOL0     C33463   0.286   0.465   2.033  0.5888  0.4792  0.1044
  243MOL0     C33464   0.160   0.494   1.951 -0.2953  0.5908 -0.4452
  243MOL0     H33465   0.412   0.390   1.526  3.1028 -0.3574 -1.2168
  243MOL0     H33466   0.464   0.497   1.301  1.5618 -1.3406  0.2803
  243MOL0     H33467   0.563   0.923   1.243 -0.3739  0.6153 -1.0324
  243MOL0     H33468   0.394   0.944   1.261  1.6748  3.5917  0.5585
  243MOL0     H33469   0.553   0.880   1.022  0.8878 -1.4580  3.7394
  243MOL0     H33470   0.388   0.827   1.010  0.0097 -1.2515 -0.3938
  243MOL0     H33471   0.484   1.101   1.095 -1.9377 -0.4738  1.7744
  243MOL0     H33472   0.436   1.082   0.936  0.0248  1.7116  0.8594
  243MOL0     H33473   0.247   1.072   1.175  2.6358 -0.3941  0.4100
  243MOL0     H33474   0.262   1.193   1.045 -0.3521 -0.0524  1.0457
  243MOL0     H33475   0.180   0.915   0.986  3.6444  0.1128 -0.0841
  243MOL0     H33476   0.191   1.049   0.876  2.0746 -2.7785  0.1637
  243MOL0     H33477  -0.006   1.045   1.118  1.0687  2.0935  0.9258
  243MOL0     H33478   0.017   1.183   1.015  3.6316  0.1251 -1.9266
  243MOL0     H33479  -0.184   1.055   0.957 -1.6383 -1.0287 -2.5756
  243MOL0     H33480  -0.077   0.905   0.962  5.1274  1.1834  1.8487
  243MOL0     H33481  -0.065   1.108   0.742  2.7661 -1.2084 -0.8892
  243MOL0     H33482  -0.001   0.938   0.756  1.1758  0.4901  1.3863
  243MOL0     H33483  -0.384   1.039   0.803  1.6296  0.7683  0.2896
  243MOL0     H33484  -0.575   0.749   0.590  2.1951  1.0254 -1.7534
  243MOL0     H33485  -0.602   0.919   0.599  2.0349  0.7516 -1.9072
  243MOL0     H33486  -0.720   0.770   0.751 -1.3150 -1.5816  3.6395
  243MOL0     H33487  -0.576   0.745   0.845 -2.9598 -0.7217  1.4736
  243MOL0     H33488  -0.563   0.950   0.930  1.7743  1.4956 -0.8653
  243MOL0     H33489  -0.630   1.044   0.802 -2.0014  0.3198  0.8173
  243MOL0     H33490  -0.866   0.973   0.850 -1.7035  3.5243  2.1364
  243MOL0     H33491  -0.800   0.865   0.975 -2.3121  0.9977  0.9078
  243MOL0     H33492  -0.795   1.033   1.272  0.5930 -0.0129 -1.0313
  243MOL0     H33493  -0.886   1.051   1.487  0.9248  1.9941  1.8792
  243MOL0     H33494  -1.045   0.966   1.486  0.5742 -0.3968 -1.7856
  243MOL0     H33495  -1.036   1.144   1.520 -2.4000 -0.9848  0.1245
  243MOL0     H33496  -1.514   1.088   1.341  0.7926 -0.4490  4.1273
  243MOL0     H33497  -1.735   1.144   1.387  0.8253 -0.1187  0.8143
  243MOL0     H33498  -1.927   1.386   1.229  0.6940  3.6142  0.4338
  243MOL0     H33499  -1.959   1.247   1.339 -0.8359 -0.0775 -1.1066
  243MOL0     H33500  -2.092   1.372   1.488 -2.9199 -0.4616 -0.0325
  243MOL0     H33501  -2.119   1.495   1.364  0.5968 -0.0446 -1.5502
  243MOL0     H33502  -2.196   1.214   1.324  1.1820  0.5352 -1.9408
  243MOL0     H33503  -2.215   1.346   1.212 -0.5196 -2.8563  0.2122
  243MOL0     H33504  -2.357   1.468   1.351 -4.0886  0.3918 -1.1586
  243MOL0     H33505  -2.323   1.371   1.494 -0.7857  1.4422  1.2058
  243MOL0     H33506  -2.549   1.334   1.419  2.8783  0.9900  1.2267
  243MOL0     H33507  -2.504   1.298   1.257  0.8944 -1.2586  0.6577
  243MOL0     H33508  -2.481   1.114   1.488 -1.5441  2.2843 -0.0564
  243MOL0     H33509  -2.380   1.088   1.337 -2.0331 -3.7877 -1.7482
  243MOL0     H33510  -2.558   1.096   1.199 -0.9907  1.3548 -0.1196
  243MOL0     H33511  -2.677   1.081   1.322  0.0861  2.8369 -0.4119
  243MOL0     H33512  -2.583   0.871   1.405  2.0856 -1.1443  1.3758
  243MOL0     H33513  -2.451   0.880   1.294 -0.4288 -0.3302  3.0161
  243MOL0     H33514  -1.649   1.572   1.366  0.7041 -0.1445  0.6774
  243MOL0     H33515  -1.405   1.513   1.327  0.7785  0.9641  3.2164
  243MOL0     H33516  -1.219   1.177   1.071 -1.3616 -1.2836  0.4588
  243MOL0     H33517  -1.016   1.150   0.925 -1.1523 -0.2503 -0.1907
  243MOL0     H33518   0.393   0.889   1.447  1.6659  0.1509 -2.3441
  243MOL0     H33519   0.341   0.799   1.667  2.2014 -1.2106  1.6919
  243MOL0     H33520   0.614   0.425   1.994 -0.0676  2.1701 -0.1990
  243MOL0     H33521   0.617   0.410   2.229  0.3655  1.1649  1.5489
  243MOL0     H33522   0.296   0.425   2.566  1.1157 -0.0382 -0.4189
  243MOL0     H33523   0.222   0.367   2.420 -0.8605  3.7297 -0.4043
  243MOL0     H33524   0.427   0.217   2.367 -1.4595  1.6918 -0.8154
  243MOL0     H33525   0.336   0.186   2.522  0.7664 -2.5936 -1.8554
  243MOL0     H33526   0.605   0.314   2.449 -1.5281 -5.2748 -4.5814
  243MOL0     H33527   0.536   0.342   2.618  4.9482 -0.3216  0.3923
  243MOL0     H33528   0.731   0.170   2.568 -1.1370  2.0115 -0.2293
  243MOL0     H33529   0.619   0.084   2.457  0.1961  2.9769 -2.0142
  243MOL0     H33530   0.507  -0.044   2.849 -2.2239  0.1449 -0.1633
  243MOL0     H33531   0.189   0.484   2.221  0.4735  3.5440  1.2909
  243MOL0     H33532   0.071   0.507   2.014 -0.5750 -1.2426 -0.4096
  243MOL0     H33533   0.186   0.582   1.891  1.6103 -0.2077 -0.8526
  243MOL0     H33534   0.146   0.399   1.899 -1.7320 -0.5050  1.7849
  244MOL0     O33535   9.264   9.683   5.140 -0.4333 -0.0339 -0.3149
  244MOL0     C33536   9.310   9.652   5.248 -0.4622  0.6360  0.7197
  244MOL0     O33537   9.260   9.552   5.328 -0.1061 -0.2268  0.2300
  244MOL0     C33538   9.177   9.462   5.272  0.2454  0.2804  0.2127
  244MOL0     C33539   9.053   9.451   5.320  1.0843  0.3437 -0.2313
  244MOL0     C33540   8.966   9.345   5.272 -0.5593 -0.0049 -0.0284
  244MOL0     C33541   9.001   9.267   5.163  0.2341  0.8295 -0.3475
  244MOL0     O33542   8.917   9.176   5.113 -0.1141  0.2356 -0.0322
  244MOL0     C33543   8.888   9.208   4.976 -0.1695 -0.9105 -0.4357
  244MOL0     C33544   8.796   9.114   4.913 -0.3063  0.1058 -0.3078
  244MOL0     C33545   8.782   9.131   4.757  0.1312 -0.2897 -0.3196
  244MOL0     C33546   8.655   9.057   4.707  0.2141  0.0071  0.4282
  244MOL0     C33547   8.619   9.091   4.571 -0.2926 -0.2281 -0.0918
  244MOL0     C33548   8.743   9.093   4.472  0.5261 -0.6033 -0.0633
  244MOL0     C33549   8.690   9.131   4.327  0.4713 -0.7463 -0.1463
  244MOL0     C33550   8.787   9.114   4.210 -0.5509 -0.0829  0.2643
  244MOL0     N33551   8.797   8.970   4.174  0.0211 -0.0786  0.1276
  244MOL0     C33552   8.746   8.910   4.061  0.9635  0.0974 -0.4229
  244MOL0     C33553   8.818   8.797   4.041  0.3670 -0.1593 -0.0825
  244MOL0     C33554   8.796   8.691   3.940 -0.4986  0.2523 -0.1577
  244MOL0     C33555   8.835   8.751   3.802 -0.0138 -0.9198  0.3142
  244MOL0     C33556   8.713   8.820   3.738  0.1335  0.6593 -0.3731
  244MOL0     C33557   8.733   8.875   3.592  0.3786  1.3300  0.4498
  244MOL0     O33558   8.770   9.002   3.563  0.6477 -0.5624  0.8057
  244MOL0     C33559   8.766   9.043   3.436 -0.2102  0.5297  0.1547
  244MOL0     C33560   8.775   9.182   3.420 -0.1351 -0.5117  0.3719
  244MOL0     C33561   8.783   9.244   3.299  0.5920 -0.5466 -0.5249
  244MOL0     C33562   8.815   9.400   3.284  0.1485 -0.1760 -0.0425
  244MOL0     C33563   8.766   9.165   3.182 -0.4495 -1.0155 -0.8870
  244MOL0     C33564   8.776   9.224   3.048 -0.2820 -0.1080  1.2504
  244MOL0     O33565   8.669   9.209   2.972 -0.2261 -0.6395 -0.5385
  244MOL0     C33566   8.662   9.245   2.837 -0.7061  0.2819 -0.1849
  244MOL0     C33567   8.543   9.281   2.789 -0.4246  0.4630 -0.4795
  244MOL0     C33568   8.521   9.326   2.650 -0.0017  0.2517 -0.4620
  244MOL0     C33569   8.627   9.334   2.561  0.2868  0.9235 -0.3113
  244MOL0     O33570   8.599   9.363   2.427 -0.1641  0.2399  0.2901
  244MOL0     C33571   8.690   9.320   2.324 -0.7412 -0.0143 -0.1223
  244MOL0     C33572   8.642   9.346   2.181  0.2546 -0.5195  0.7385
  244MOL0     C33573   8.727   9.268   2.078 -1.0237 -0.9496 -0.1947
  244MOL0     C33574   8.834   9.355   2.008 -0.1864 -0.4540  0.0970
  244MOL0     C33575   8.849   9.316   1.860 -0.1822 -0.0307 -0.4474
  244MOL0     C33576   8.719   9.355   1.773 -0.1849  0.3435  0.0628
  244MOL0     C33577   8.718   9.292   1.632  0.0138  0.1862 -0.2726
  244MOL0     C33578   8.828   9.341   1.544 -0.9543  0.2382 -0.0817
  244MOL0    Cl33579   8.793   9.289   1.377 -0.3780  0.1517 -0.3354
  244MOL0     C33580   8.752   9.290   2.617  0.5860 -0.8706  0.2110
  244MOL0     C33581   8.766   9.252   2.751 -0.6057  0.3962 -0.4456
  244MOL0     O33582   8.881   9.277   3.012  0.2345  0.6732 -0.0581
  244MOL0     C33583   8.754   9.023   3.202 -0.2170  0.0422  0.1356
  244MOL0     C33584   8.752   8.962   3.321 -0.1192  0.6274 -0.7722
  244MOL0     N33585   8.915   8.795   4.145  0.0189 -0.5909 -1.0058
  244MOL0     N33586   8.897   8.897   4.224 -0.2619 -0.2386 -0.8738
  244MOL0     C33587   9.135   9.280   5.110  0.4253 -0.7464  0.2628
  244MOL0     C33588   9.218   9.384   5.163 -0.5569  0.7026 -0.6797
  244MOL0     C33589   9.415   9.732   5.304 -0.2645 -0.6707  0.6502
  244MOL0     C33590   9.522   9.658   5.372 -0.2486 -0.1070 -0.1141
  244MOL0     C33591   9.603   9.718   5.470  0.8710  0.0130 -0.2117
  244MOL0     C33592   9.595   9.859   5.477 -0.6181  0.1091 -0.9210
  244MOL0     O33593   9.686   9.922   5.566  0.1577  0.0179  1.0605
  244MOL0     C33594   9.738  10.052   5.536  0.1713  0.0646  0.0222
  244MOL0     C33595   9.879  10.073   5.601  0.0724  0.3303  0.3498
  244MOL0     C33596   9.971   9.949   5.590 -0.4478  0.4051 -0.1014
  244MOL0     C33597  10.094   9.926   5.687  0.3680  0.1441 -0.2243
  244MOL0     C33598  10.199  10.016   5.648 -1.3484 -0.0019 -0.6501
  244MOL0     C33599  10.292  10.090   5.628 -0.8948  0.5528  1.1643
  244MOL0     C33600   9.506   9.936   5.400 -0.4376  0.6010  0.3984
  244MOL0     C33601   9.412   9.871   5.318  0.5853  0.3686  0.3207
  244MOL0     C33602   9.304   9.965   5.259 -0.3567  0.0889  0.0665
  244MOL0     H33603   9.014   9.523   5.392  0.6077 -0.2502  0.1159
  244MOL0     H33604   8.870   9.335   5.321 -0.1660  0.2468  0.8263
  244MOL0     H33605   8.983   9.208   4.922 -0.8129 -0.2975 -1.6026
  244MOL0     H33606   8.836   9.304   4.969  1.5395  0.4844  3.3746
  244MOL0     H33607   8.843   9.019   4.940 -1.2257  0.5181  3.3567
  244MOL0     H33608   8.697   9.115   4.960 -0.4157 -1.0403 -0.4817
  244MOL0     H33609   8.775   9.238   4.733  2.3827 -0.5496 -2.5137
  244MOL0     H33610   8.876   9.092   4.717  2.1064  3.8543 -0.2352
  244MOL0     H33611   8.693   8.955   4.713 -2.1621 -0.9340  0.2379
  244MOL0     H33612   8.570   9.076   4.774  0.0778 -0.5307  0.4064
  244MOL0     H33613   8.579   9.193   4.572  1.5782  0.5367  0.1237
  244MOL0     H33614   8.541   9.025   4.531 -0.2217 -0.0927 -0.4561
  244MOL0     H33615   8.822   9.159   4.510 -0.0064  0.1742 -0.2906
  244MOL0     H33616   8.793   8.996   4.460  3.5742  0.9952 -1.5610
  244MOL0     H33617   8.671   9.238   4.335  2.8565 -0.3841  1.7582
  244MOL0     H33618   8.603   9.070   4.301  1.5073 -2.4860  0.2779
  244MOL0     H33619   8.741   9.165   4.125 -1.0466  2.4769  1.9215
  244MOL0     H33620   8.884   9.156   4.240 -1.5138  2.0310  0.6277
  244MOL0     H33621   8.656   8.937   4.007  1.0118  0.0263 -0.5385
  244MOL0     H33622   8.689   8.666   3.940 -1.3157  3.2324 -1.0167
  244MOL0     H33623   8.857   8.606   3.971  1.1468  1.8866  1.3459
  244MOL0     H33624   8.906   8.832   3.819 -2.5017  1.1903  1.2940
  244MOL0     H33625   8.869   8.676   3.730 -1.4640 -2.3185  1.0149
  244MOL0     H33626   8.635   8.744   3.741 -1.2027  1.9974  0.9648
  244MOL0     H33627   8.681   8.908   3.796 -1.3816  0.2224 -0.5170
  244MOL0     H33628   8.804   8.810   3.539  0.3888  2.6320 -1.2092
  244MOL0     H33629   8.634   8.855   3.550  0.7821  0.9640 -0.3582
  244MOL0     H33630   8.802   9.251   3.500  1.8385  1.5814 -1.9305
  244MOL0     H33631   8.731   9.452   3.238 -0.3129 -0.9071 -0.0329
  244MOL0     H33632   8.895   9.433   3.217  0.5947  1.2415  1.1372
  244MOL0     H33633   8.844   9.441   3.381  0.3950  2.1681 -1.0344
  244MOL0     H33634   8.457   9.278   2.855  1.2804 -1.0545  1.8410
  244MOL0     H33635   8.417   9.347   2.628 -0.7356 -0.8868  1.6120
  244MOL0     H33636   8.788   9.367   2.334 -0.2849 -0.9871  0.0937
  244MOL0     H33637   8.709   9.214   2.343  3.0584 -0.1430 -3.3342
  244MOL0     H33638   8.548   9.290   2.181  0.1997 -0.4796 -0.9193
  244MOL0     H33639   8.611   9.447   2.156  1.4551 -0.8137 -2.4168
  244MOL0     H33640   8.656   9.221   2.010 -2.1167 -1.9865  1.5814
  244MOL0     H33641   8.786   9.197   2.137 -1.3784  0.7248  2.3763
  244MOL0     H33642   8.936   9.346   2.048 -0.7534 -4.0425  1.0344
  244MOL0     H33643   8.801   9.460   2.012  0.6228 -0.2026  3.9929
  244MOL0     H33644   8.930   9.379   1.822 -1.0713  2.5075  1.6084
  244MOL0     H33645   8.886   9.213   1.864  0.0206  0.0326 -0.6912
  244MOL0     H33646   8.704   9.463   1.771  1.2562  0.5510 -0.6629
  244MOL0     H33647   8.631   9.308   1.816 -0.4161  0.0886 -0.6759
  244MOL0     H33648   8.619   9.312   1.591  0.3425  0.7996 -0.7975
  244MOL0     H33649   8.726   9.184   1.643 -3.0537  0.0090  1.2865
  244MOL0     H33650   8.923   9.292   1.569 -0.7112  0.5967 -0.2906
  244MOL0     H33651   8.844   9.449   1.545 -3.5423  0.6841  1.2844
  244MOL0     H33652   8.839   9.284   2.552  0.7371 -1.8763  0.4943
  244MOL0     H33653   8.867   9.231   2.786  0.4135  3.5397 -1.1226
  244MOL0     H33654   8.738   8.957   3.118 -3.5164 -0.5898  1.1463
  244MOL0     H33655   8.735   8.855   3.324 -2.2582  0.9262  2.0970
  244MOL0     H33656   9.168   9.217   5.028 -0.2599  1.2632 -1.6793
  244MOL0     H33657   9.316   9.412   5.125  0.5820 -0.2898  1.3549
  244MOL0     H33658   9.539   9.551   5.359  2.8588 -0.0867  2.6014
  244MOL0     H33659   9.666   9.649   5.526 -1.5274 -0.9514  1.4442
  244MOL0     H33660   9.743  10.061   5.427  1.6103 -2.6051 -0.2322
  244MOL0     H33661   9.683  10.130   5.588  0.6450 -0.4498  1.3331
  244MOL0     H33662   9.866  10.074   5.710  0.5960 -1.2761  0.4468
  244MOL0     H33663   9.939  10.161   5.575  2.3238 -1.2042  0.0145
  244MOL0     H33664   9.913   9.857   5.604  1.7553 -1.3748 -1.9241
  244MOL0     H33665   9.997   9.946   5.484 -2.7439  0.8685 -0.7253
  244MOL0     H33666  10.124   9.821   5.688  2.9302  0.8113  0.8653
  244MOL0     H33667  10.062   9.946   5.790  1.3631  0.9412 -0.0492
  244MOL0     H33668  10.381  10.151   5.630  1.3481 -2.2307 -2.0177
  244MOL0     H33669   9.495  10.044   5.402 -1.5259  0.5124 -0.0666
  244MOL0     H33670   9.279  10.053   5.320  0.4792 -0.3048  0.9923
  244MOL0     H33671   9.339  10.001   5.162 -1.7689  0.4352 -0.3316
  244MOL0     H33672   9.216   9.904   5.241  0.0097 -0.1572 -0.9770
  245MOL0     O33673   7.955  11.188   7.463 -0.4135  0.2238  0.8530
  245MOL0     C33674   7.873  11.135   7.386 -0.1006  1.3495  0.5361
  245MOL0     O33675   7.745  11.192   7.364 -0.4474  0.0971 -0.3627
  245MOL0     C33676   7.729  11.323   7.331  0.7653  0.9380  0.1527
  245MOL0     C33677   7.838  11.409   7.310 -0.1156 -0.4690 -0.7127
  245MOL0     C33678   7.820  11.549   7.294 -0.8061  0.0212 -0.3231
  245MOL0     C33679   7.689  11.598   7.288  0.1209  0.0319  0.5134
  245MOL0     O33680   7.680  11.734   7.250  0.5488 -0.0548 -0.0759
  245MOL0     C33681   7.548  11.785   7.205 -0.5043 -0.5996  0.0192
  245MOL0     C33682   7.561  11.942   7.206 -0.1324  0.6225  0.2839
  245MOL0     C33683   7.635  11.996   7.317 -0.3683 -1.2743 -0.0310
  245MOL0     C33684   7.622  12.150   7.324 -0.1449 -0.2902 -0.2531
  245MOL0     C33685   7.734  12.235   7.248  0.2232 -0.1471  0.4301
  245MOL0     C33686   7.711  12.386   7.263 -0.3165 -0.3932  0.0212
  245MOL0     C33687   7.726  12.432   7.409  0.3217 -0.4354 -0.4326
  245MOL0     C33688   7.607  12.525   7.454 -0.2895 -0.9177  0.1141
  245MOL0     N33689   7.592  12.646   7.365 -0.6179 -0.8991  0.2406
  245MOL0     C33690   7.688  12.723   7.297 -0.2512  1.0775 -0.1168
  245MOL0     C33691   7.627  12.802   7.216  0.8484  0.4346 -0.7028
  245MOL0     C33692   7.701  12.912   7.156  0.2534  0.8563  0.0277
  245MOL0     C33693   7.746  13.023   7.256 -0.2765 -0.5761 -0.6979
  245MOL0     C33694   7.840  13.134   7.205 -1.3009  0.4912  0.4161
  245MOL0     C33695   7.982  13.094   7.150  0.2976 -0.7062  0.6978
  245MOL0     O33696   8.037  12.990   7.231 -0.1772  0.8086 -0.6386
  245MOL0     C33697   8.176  12.993   7.256 -0.1749  0.8512 -0.0372
  245MOL0     C33698   8.229  12.940   7.383  0.2055 -0.4242  0.4877
  245MOL0     C33699   8.367  12.939   7.417 -0.0114 -0.7689  0.1513
  245MOL0     C33700   8.395  12.879   7.553 -0.3531 -0.5061 -0.2871
  245MOL0     C33701   8.458  12.977   7.318 -0.6094  0.6022 -0.8862
  245MOL0     C33702   8.602  12.984   7.332  0.4908  0.1918 -1.4178
  245MOL0     O33703   8.680  12.946   7.225  0.4388  0.4854  0.5020
  245MOL0     C33704   8.814  12.947   7.228 -0.2709 -1.1520  0.1063
  245MOL0     C33705   8.891  12.888   7.328 -0.5071 -0.3860 -0.0665
  245MOL0     C33706   9.034  12.908   7.333 -1.0558 -0.1234  0.4356
  245MOL0     C33707   9.093  12.958   7.218 -0.2148 -0.3391 -0.3081
  245MOL0     O33708   9.231  12.956   7.227  0.4071  0.4209 -0.1484
  245MOL0     C33709   9.304  12.929   7.104  0.9099  0.0174  0.7813
  245MOL0     C33710   9.426  12.825   7.109  0.0213 -0.7765  0.1276
  245MOL0     C33711   9.557  12.895   7.148  0.1077 -0.3461  0.5405
  245MOL0     C33712   9.548  12.972   7.280  0.2269  0.4253  1.4859
  245MOL0     C33713   9.680  13.046   7.316  0.2541  0.0687 -0.5811
  245MOL0     C33714   9.661  13.117   7.446  0.0591 -0.2745 -0.1494
  245MOL0     C33715   9.675  13.014   7.571 -0.1051 -0.2059  0.4309
  245MOL0     C33716   9.806  12.932   7.581  0.6453 -0.2444 -0.2457
  245MOL0    Cl33717   9.800  12.771   7.502  0.0099  0.1665  0.2404
  245MOL0     C33718   9.022  13.023   7.109  0.2797  0.7846  0.2257
  245MOL0     C33719   8.885  13.009   7.123  0.3202 -0.6201  0.2079
  245MOL0     O33720   8.645  13.020   7.443  0.0144 -0.0006  0.1059
  245MOL0     C33721   8.404  13.016   7.189 -0.1505 -0.2327 -0.6394
  245MOL0     C33722   8.267  13.032   7.162  0.3981 -0.1552  0.5418
  245MOL0     N33723   7.493  12.783   7.240 -0.1460 -0.3314  1.3978
  245MOL0     N33724   7.471  12.680   7.324 -0.7346  0.7724 -0.2039
  245MOL0     C33725   7.576  11.512   7.303 -0.8909  0.2157 -0.4617
  245MOL0     C33726   7.593  11.376   7.336 -0.7716 -0.2535  0.4423
  245MOL0     C33727   7.897  10.996   7.334 -0.9281  0.2277 -1.4519
  245MOL0     C33728   7.787  10.911   7.305 -0.4241 -0.5090  0.0599
  245MOL0     C33729   7.809  10.782   7.257  0.3297  0.7114 -0.6525
  245MOL0     C33730   7.935  10.734   7.232  0.2131 -0.3812 -0.3217
  245MOL0     O33731   7.979  10.613   7.189  0.2065  0.6597  0.5927
  245MOL0     C33732   7.879  10.512   7.176  0.3963  0.7790 -0.3835
  245MOL0     C33733   7.951  10.383   7.162  0.5815  1.1707  0.0621
  245MOL0     C33734   8.032  10.339   7.282  0.6217  0.4337 -0.0963
  245MOL0     C33735   7.952  10.343   7.413 -0.0426 -0.2255  0.6846
  245MOL0     C33736   8.029  10.257   7.512  0.0511  0.2221  0.6592
  245MOL0     C33737   8.105  10.218   7.597 -0.3437  0.2235  0.9885
  245MOL0     C33738   8.044  10.819   7.262  1.2196  0.0610 -0.0638
  245MOL0     C33739   8.028  10.954   7.311  0.2622 -0.7296  1.1534
  245MOL0     C33740   8.159  11.036   7.325 -0.5227  0.4198 -0.7738
  245MOL0     H33741   7.943  11.383   7.300  0.8724  1.3051  3.1517
  245MOL0     H33742   7.902  11.619   7.285  0.2562 -1.2562 -0.8548
  245MOL0     H33743   7.468  11.759   7.275 -0.0717  0.2711  0.8593
  245MOL0     H33744   7.519  11.751   7.106  3.2604 -1.3456 -0.9873
  245MOL0     H33745   7.610  11.975   7.114  0.0210  0.3858  0.2832
  245MOL0     H33746   7.459  11.982   7.207 -0.9980 -1.1861 -2.9765
  245MOL0     H33747   7.609  11.945   7.410 -0.8467  0.1260  0.6327
  245MOL0     H33748   7.741  11.988   7.291  0.4680  0.0827  2.5587
  245MOL0     H33749   7.524  12.192   7.296 -0.0436 -0.8580 -1.5134
  245MOL0     H33750   7.629  12.171   7.431 -1.2156 -0.4039 -0.1486
  245MOL0     H33751   7.732  12.206   7.143  1.9636 -1.7544  0.7638
  245MOL0     H33752   7.834  12.204   7.282  0.4464  0.4107  0.2780
  245MOL0     H33753   7.789  12.439   7.208 -1.3701  3.6206  1.9803
  245MOL0     H33754   7.618  12.423   7.219 -0.3170  0.5213  0.7471
  245MOL0     H33755   7.820  12.486   7.423  2.2943 -3.1445 -2.3331
  245MOL0     H33756   7.745  12.347   7.475  2.6484 -0.7051 -1.3559
  245MOL0     H33757   7.508  12.481   7.470 -0.3793 -0.6237  0.3697
  245MOL0     H33758   7.628  12.557   7.556 -1.9370  1.2005 -0.1461
  245MOL0     H33759   7.788  12.741   7.336 -0.0049  0.1078 -0.2762
  245MOL0     H33760   7.642  12.954   7.074  0.2130  0.2674 -0.2521
  245MOL0     H33761   7.794  12.872   7.113  0.8241  5.1899 -3.5776
  245MOL0     H33762   7.656  13.069   7.298  0.6442  2.2403 -1.6225
  245MOL0     H33763   7.790  12.975   7.344  1.6604  0.4940 -1.0193
  245MOL0     H33764   7.780  13.183   7.128 -0.6329  1.4402  0.4672
  245MOL0     H33765   7.864  13.198   7.291  1.6000  0.7935 -0.5031
  245MOL0     H33766   7.966  13.055   7.049 -1.9408  0.9106  0.3358
  245MOL0     H33767   8.046  13.183   7.151  1.9090 -1.7968  2.3589
  245MOL0     H33768   8.154  12.908   7.455 -1.3560 -0.5256 -1.1038
  245MOL0     H33769   8.310  12.854   7.617  2.1597 -1.1703  3.1101
  245MOL0     H33770   8.451  12.956   7.607  0.9638 -2.3348  1.0774
  245MOL0     H33771   8.462  12.793   7.552  2.5071  1.5157  0.9840
  245MOL0     H33772   8.841  12.845   7.414 -1.6974 -2.0949 -1.5403
  245MOL0     H33773   9.093  12.870   7.416 -3.3788 -4.0982  0.5058
  245MOL0     H33774   9.240  12.892   7.023  0.7893  1.5548  0.1491
  245MOL0     H33775   9.339  13.020   7.054  0.3425 -0.5620 -0.7432
  245MOL0     H33776   9.399  12.740   7.173  1.0577 -1.6996 -0.6216
  245MOL0     H33777   9.435  12.797   7.004  0.9115  3.8417 -1.2472
  245MOL0     H33778   9.594  12.957   7.066  3.1431  0.1769  2.1723
  245MOL0     H33779   9.641  12.827   7.164  0.2022 -0.2009  0.6681
  245MOL0     H33780   9.521  12.890   7.347  3.4094 -1.4749  0.6907
  245MOL0     H33781   9.466  13.040   7.258 -1.8620 -2.5297 -0.6062
  245MOL0     H33782   9.762  12.974   7.329 -1.3504 -1.4531  2.1543
  245MOL0     H33783   9.696  13.114   7.233  0.5174 -0.5549 -1.0541
  245MOL0     H33784   9.570  13.178   7.444 -0.2984 -0.8216 -1.3571
  245MOL0     H33785   9.744  13.184   7.474 -1.7868  0.4248  4.7669
  245MOL0     H33786   9.594  12.941   7.578 -1.5134  1.4449  2.4587
  245MOL0     H33787   9.664  13.079   7.658  1.0174  0.8142 -0.1489
  245MOL0     H33788   9.827  12.910   7.686 -2.5942 -3.4912 -0.0980
  245MOL0     H33789   9.889  12.990   7.539  0.2796  2.0303  1.9442
  245MOL0     H33790   9.060  13.073   7.021 -2.1192 -1.6910 -2.4521
  245MOL0     H33791   8.829  13.053   7.041 -0.0883  2.1544  1.8508
  245MOL0     H33792   8.462  13.041   7.100  0.7604  2.7395  0.6769
  245MOL0     H33793   8.240  13.056   7.060  1.3661  0.5325  0.4326
  245MOL0     H33794   7.474  11.548   7.309 -1.2071 -0.8616  1.2688
  245MOL0     H33795   7.509  11.309   7.351 -0.3088 -0.6713  1.2650
  245MOL0     H33796   7.689  10.950   7.329 -0.8591 -2.5648  1.9814
  245MOL0     H33797   7.729  10.721   7.216 -0.0696 -0.0896  1.1991
  245MOL0     H33798   7.812  10.503   7.263  1.1814  0.1568  0.1769
  245MOL0     H33799   7.826  10.526   7.082  2.1876 -0.7460 -1.7013
  245MOL0     H33800   8.013  10.398   7.073 -2.6377  0.5305 -2.4541
  245MOL0     H33801   7.871  10.311   7.146 -0.1223  1.7372  0.9667
  245MOL0     H33802   8.052  10.232   7.275 -0.0372  0.2106  1.0753
  245MOL0     H33803   8.129  10.387   7.293  2.0898 -2.5583  1.0835
  245MOL0     H33804   7.854  10.300   7.391  0.5372 -0.8098 -0.9810
  245MOL0     H33805   7.937  10.439   7.462 -2.5783  1.0897 -2.3352
  245MOL0     H33806   8.188  10.190   7.658 -0.4049 -2.9159 -0.1670
  245MOL0     H33807   8.147  10.787   7.249  0.6765 -2.7969  1.7116
  245MOL0     H33808   8.190  11.057   7.428  2.2540  0.6514 -1.5852
  245MOL0     H33809   8.249  10.990   7.284 -0.2293  0.9849 -0.7700
  245MOL0     H33810   8.148  11.131   7.272 -2.2790  1.6072  1.5600
  246MOL0     O33811   3.845   4.402   2.798  0.8253  0.0013 -0.0348
  246MOL0     C33812   3.725   4.432   2.797 -0.4484 -0.2336 -0.1948
  246MOL0     O33813   3.651   4.447   2.681 -0.6772 -0.0703 -0.0583
  246MOL0     C33814   3.522   4.457   2.696  0.3420 -0.0649  0.2337
  246MOL0     C33815   3.461   4.588   2.685  0.6543 -0.2574 -0.4265
  246MOL0     C33816   3.321   4.605   2.695  0.1202  0.3285 -0.1991
  246MOL0     C33817   3.238   4.498   2.729  0.4546 -0.7793  0.2726
  246MOL0     O33818   3.096   4.497   2.740 -0.7480  0.1425 -0.3536
  246MOL0     C33819   3.034   4.630   2.735  0.1343 -0.0000 -0.3667
  246MOL0     C33820   2.979   4.622   2.592  0.6253 -0.6038  0.8019
  246MOL0     C33821   2.856   4.527   2.589  0.3130 -0.2566 -0.4506
  246MOL0     C33822   2.815   4.509   2.442  1.3054 -0.4044 -0.5299
  246MOL0     C33823   2.714   4.398   2.419  0.7961 -0.0422 -0.2911
  246MOL0     C33824   2.568   4.434   2.437  0.3315  0.6713  0.2591
  246MOL0     C33825   2.472   4.318   2.407 -0.3785  0.6663 -0.1880
  246MOL0     C33826   2.377   4.281   2.525  0.5907 -0.2241  0.2222
  246MOL0     N33827   2.289   4.162   2.505 -0.3464  0.3926  0.2041
  246MOL0     C33828   2.341   4.030   2.512 -0.1978  0.0565 -0.6560
  246MOL0     C33829   2.232   3.950   2.519 -1.0468  0.1383  0.3119
  246MOL0     C33830   2.211   3.800   2.540 -0.6352 -0.4232  0.0695
  246MOL0     C33831   2.180   3.730   2.395 -0.1422 -0.4471 -0.9986
  246MOL0     C33832   2.199   3.583   2.385 -0.9601 -0.2102 -0.0977
  246MOL0     C33833   2.153   3.522   2.254 -0.2660  0.0492  0.6467
  246MOL0     O33834   2.148   3.377   2.268 -0.7006 -0.4305  0.5036
  246MOL0     C33835   2.119   3.305   2.153 -0.8985  1.0977  0.1533
  246MOL0     C33836   2.012   3.332   2.070 -1.2890 -1.1134 -0.1198
  246MOL0     C33837   1.986   3.260   1.952 -0.1534  0.3779  0.5733
  246MOL0     C33838   1.864   3.301   1.871  0.6451  0.8259 -0.1638
  246MOL0     C33839   2.094   3.178   1.910 -0.4995 -0.1187  0.8227
  246MOL0     C33840   2.082   3.113   1.782  0.9249  0.1805  0.0257
  246MOL0     O33841   2.114   2.988   1.781 -0.3762  0.1965  0.6728
  246MOL0     C33842   2.096   2.902   1.674  0.9972  1.0980 -0.1990
  246MOL0     C33843   2.118   2.927   1.541  1.1142 -0.0902  0.8204
  246MOL0     C33844   2.087   2.840   1.439  0.4174 -0.0848  0.3762
  246MOL0     C33845   2.023   2.715   1.476 -1.1557 -0.1921  1.6827
  246MOL0     O33846   1.992   2.608   1.394 -0.1053  0.1424  0.3910
  246MOL0     C33847   2.027   2.629   1.255 -0.1500  0.7284 -0.2813
  246MOL0     C33848   1.974   2.506   1.180  0.9825 -0.0654 -0.1914
  246MOL0     C33849   1.993   2.520   1.033  0.4229 -0.1220  0.1180
  246MOL0     C33850   1.897   2.413   0.962 -0.6266  0.1765 -0.0291
  246MOL0     C33851   1.973   2.397   0.827 -0.4052 -0.1955 -0.5952
  246MOL0     C33852   1.886   2.342   0.718 -0.1116 -0.5704  0.0244
  246MOL0     C33853   1.795   2.225   0.759 -0.7511  0.0848  1.0152
  246MOL0     C33854   1.714   2.155   0.646 -0.1704 -0.2796 -0.1826
  246MOL0    Cl33855   1.816   2.116   0.506  0.0499 -0.4379  0.1633
  246MOL0     C33856   1.992   2.696   1.607 -0.4746  0.0366 -0.0740
  246MOL0     C33857   2.032   2.783   1.706 -0.2511  0.0156 -0.9577
  246MOL0     O33858   2.031   3.174   1.689  0.1593  0.0806  0.4032
  246MOL0     C33859   2.203   3.149   1.992 -0.5649  0.2464  0.6388
  246MOL0     C33860   2.213   3.212   2.120 -0.0717 -0.4708  0.1529
  246MOL0     N33861   2.118   4.030   2.531 -0.2058  0.2873  0.2912
  246MOL0     N33862   2.149   4.155   2.513  0.1119 -0.2573 -0.0833
  246MOL0     C33863   3.300   4.370   2.745 -0.1153 -0.0642  0.2129
  246MOL0     C33864   3.437   4.353   2.728 -0.0761  0.4613 -0.3862
  246MOL0     C33865   3.668   4.420   2.925 -0.5214  0.9578 -0.5182
  246MOL0     C33866   3.630   4.297   2.981  0.0064 -0.5689  0.2206
  246MOL0     C33867   3.563   4.290   3.105 -0.4755  0.2019  0.3289
  246MOL0     C33868   3.542   4.416   3.169  0.2366  0.4141 -0.0111
  246MOL0     O33869   3.461   4.404   3.276  0.2796  0.0310  0.4238
  246MOL0     C33870   3.521   4.456   3.399  0.3193  0.0913 -0.2265
  246MOL0     C33871   3.404   4.509   3.478 -0.3414 -1.2964 -0.3550
  246MOL0     C33872   3.442   4.592   3.608  1.5395 -0.0048  0.8934
  246MOL0     C33873   3.447   4.489   3.727  0.2278  0.0049  0.0434
  246MOL0     C33874   3.522   4.557   3.832  0.5518 -0.4239 -0.1912
  246MOL0     C33875   3.583   4.615   3.916 -0.1004 -0.2018  0.0112
  246MOL0     C33876   3.572   4.531   3.113 -0.0969 -0.3825 -0.0995
  246MOL0     C33877   3.633   4.534   2.996 -0.6147 -0.9342  0.0045
  246MOL0     C33878   3.669   4.675   2.953  0.6831 -0.2059 -0.9910
  246MOL0     H33879   3.526   4.675   2.686  0.5566 -0.1619  1.3821
  246MOL0     H33880   3.291   4.709   2.688 -2.1937 -0.2559  0.2101
  246MOL0     H33881   3.101   4.715   2.751  3.5578 -2.4332 -0.5867
  246MOL0     H33882   2.948   4.632   2.803  1.3515 -0.3379  1.2523
  246MOL0     H33883   2.954   4.723   2.558  0.6477 -0.7947  0.2176
  246MOL0     H33884   3.053   4.572   2.530  0.7590 -1.7484  1.8361
  246MOL0     H33885   2.886   4.425   2.614 -3.3435 -2.2357 -3.2209
  246MOL0     H33886   2.779   4.549   2.665  2.1748  0.9917  1.1892
  246MOL0     H33887   2.775   4.602   2.402  1.3782 -0.3159 -0.3974
  246MOL0     H33888   2.907   4.485   2.387  4.0865  0.7453  3.2150
  246MOL0     H33889   2.728   4.318   2.493 -2.1181  0.2108  0.6526
  246MOL0     H33890   2.722   4.358   2.318  1.6046  1.0971 -0.6958
  246MOL0     H33891   2.557   4.478   2.537 -0.9758  0.4369  0.2350
  246MOL0     H33892   2.549   4.512   2.363  0.4751 -1.1293 -1.7426
  246MOL0     H33893   2.525   4.227   2.378 -0.8928  0.6743 -1.2200
  246MOL0     H33894   2.407   4.353   2.326  0.4165  2.3366 -0.1227
  246MOL0     H33895   2.433   4.247   2.612 -1.8267 -0.7832  1.6446
  246MOL0     H33896   2.323   4.372   2.550 -1.3597 -1.2791  0.0155
  246MOL0     H33897   2.446   4.006   2.500  0.2331  2.3206 -1.8761
  246MOL0     H33898   2.120   3.781   2.597 -1.0914 -1.5072 -0.9972
  246MOL0     H33899   2.304   3.756   2.579 -0.0939 -0.4446 -1.2036
  246MOL0     H33900   2.080   3.758   2.362 -0.5877 -3.0097 -2.0625
  246MOL0     H33901   2.245   3.771   2.317  2.1805 -2.2330 -0.1330
  246MOL0     H33902   2.304   3.561   2.402 -0.4983  2.2133  0.4618
  246MOL0     H33903   2.135   3.535   2.460 -1.8991 -1.0124 -1.3550
  246MOL0     H33904   2.055   3.558   2.223  0.2367  0.7462 -0.1910
  246MOL0     H33905   2.218   3.536   2.167  0.5361 -0.7991  1.0885
  246MOL0     H33906   1.938   3.409   2.091 -1.4940 -0.9822 -1.2593
  246MOL0     H33907   1.790   3.351   1.935  1.6070  1.2304  0.6564
  246MOL0     H33908   1.815   3.220   1.816  0.9293  1.4701 -1.3991
  246MOL0     H33909   1.899   3.379   1.804 -1.0695  0.0907 -1.9977
  246MOL0     H33910   2.162   3.021   1.511 -0.9522 -0.1352 -2.9166
  246MOL0     H33911   2.089   2.864   1.333 -2.8381 -2.0974 -0.2834
  246MOL0     H33912   1.971   2.710   1.208 -2.6649 -1.6408 -1.6230
  246MOL0     H33913   2.136   2.629   1.247 -0.2558  0.6046 -2.1451
  246MOL0     H33914   2.019   2.410   1.205 -0.9333 -0.9930 -0.0892
  246MOL0     H33915   1.868   2.499   1.207  1.4448 -0.0954  1.7402
  246MOL0     H33916   2.096   2.488   1.014 -0.2074 -1.0011 -2.1498
  246MOL0     H33917   1.977   2.623   1.002 -0.7794  0.1700  1.5775
  246MOL0     H33918   1.795   2.449   0.950 -0.7537 -0.5053 -1.1433
  246MOL0     H33919   1.889   2.316   1.012  1.7299  1.0481  2.2843
  246MOL0     H33920   2.000   2.496   0.791 -0.2711 -0.9816 -2.8388
  246MOL0     H33921   2.065   2.341   0.845  1.0297  0.2916 -5.2955
  246MOL0     H33922   1.956   2.319   0.637  1.5624  0.2002  1.1922
  246MOL0     H33923   1.829   2.427   0.679 -0.7430 -1.6815 -1.5433
  246MOL0     H33924   1.726   2.270   0.832  1.6493  1.9856  2.2603
  246MOL0     H33925   1.850   2.139   0.797 -2.7931 -1.4054  0.7497
  246MOL0     H33926   1.625   2.209   0.614 -0.1301  0.4288  0.8563
  246MOL0     H33927   1.693   2.058   0.692  3.1944 -0.4699  1.2312
  246MOL0     H33928   1.929   2.616   1.642  0.8725 -0.3568  1.6150
  246MOL0     H33929   2.016   2.747   1.808 -1.9346  1.2604 -0.7369
  246MOL0     H33930   2.255   3.057   1.970 -0.7493  0.3821 -0.4461
  246MOL0     H33931   2.279   3.194   2.204 -0.3213 -1.6219  0.1173
  246MOL0     H33932   3.234   4.283   2.741  0.4249 -0.5037 -3.5411
  246MOL0     H33933   3.478   4.253   2.745 -2.2116 -0.1129  1.9938
  246MOL0     H33934   3.649   4.200   2.937 -1.2517 -2.2792  3.1464
  246MOL0     H33935   3.538   4.193   3.144 -0.7851  1.6970  4.3177
  246MOL0     H33936   3.581   4.377   3.444  0.1207  0.0741  0.0078
  246MOL0     H33937   3.582   4.542   3.371 -2.2926  2.7113  1.5147
  246MOL0     H33938   3.326   4.439   3.510  0.3413 -1.6505  0.5792
  246MOL0     H33939   3.355   4.584   3.417 -1.3999  1.1682  3.2170
  246MOL0     H33940   3.539   4.643   3.609  2.1978 -1.2134  2.4076
  246MOL0     H33941   3.366   4.670   3.618  1.3168 -0.2585  1.2148
  246MOL0     H33942   3.507   4.400   3.709  0.7675  0.7789 -2.2195
  246MOL0     H33943   3.349   4.468   3.770  0.3621  0.9253  0.8447
  246MOL0     H33944   3.632   4.667   3.996 -0.5841 -1.2886  1.0412
  246MOL0     H33945   3.547   4.610   3.182  0.9045  1.6834 -1.9695
  246MOL0     H33946   3.664   4.741   3.040  0.8952 -1.8138  0.3011
  246MOL0     H33947   3.769   4.699   2.915  0.4591 -1.1498 -2.2235
  246MOL0     H33948   3.598   4.703   2.876 -1.4579  0.0137  0.9531
  247MOL0     O33949   9.881   1.545   3.839  0.4483 -0.0295  0.5810
  247MOL0     C33950   9.782   1.498   3.778  0.4119  0.1559 -0.1060
  247MOL0     O33951   9.757   1.367   3.746  0.0980 -0.3087 -1.0515
  247MOL0     C33952   9.858   1.290   3.799  0.1532 -0.3307  0.0625
  247MOL0     C33953   9.958   1.274   3.712 -1.2577 -0.3113 -0.1665
  247MOL0     C33954  10.065   1.178   3.735  0.2046  0.0365 -0.7269
  247MOL0     C33955  10.058   1.109   3.855  0.0962 -0.2607  0.4491
  247MOL0     O33956  10.133   0.998   3.878  0.8272  0.3944  0.0995
  247MOL0     C33957  10.059   0.877   3.911  0.2196 -0.2157  0.6117
  247MOL0     C33958  10.165   0.775   3.878  0.0536  0.0965  1.0783
  247MOL0     C33959  10.161   0.648   3.962  1.0393 -0.1241 -0.5780
  247MOL0     C33960  10.084   0.537   3.877 -0.2393  0.2596 -0.0223
  247MOL0     C33961  10.175   0.465   3.782  0.2580 -0.2392 -0.2278
  247MOL0     C33962  10.138   0.328   3.749  0.3539 -0.3671 -0.4072
  247MOL0     C33963  10.129   0.235   3.873  0.1908  0.5791  0.4489
  247MOL0     C33964  10.136   0.099   3.823  0.5402  0.6420 -0.4746
  247MOL0     N33965  10.137  -0.006   3.930 -0.1891  0.1493 -0.2496
  247MOL0     C33966  10.017  -0.062   3.986 -0.2750  0.5861  0.2778
  247MOL0     C33967  10.046  -0.124   4.104 -0.7356  1.0498 -0.2198
  247MOL0     C33968   9.948  -0.191   4.201  0.6722 -0.5502 -0.3599
  247MOL0     C33969   9.892  -0.107   4.312 -0.0308 -0.1273 -0.0777
  247MOL0     C33970   9.983  -0.025   4.395 -0.1857  0.3135  0.3853
  247MOL0     C33971  10.098  -0.104   4.457 -0.0401  0.2565 -0.0880
  247MOL0     O33972  10.036  -0.188   4.560  1.4425 -0.4763  0.8812
  247MOL0     C33973  10.102  -0.190   4.676  0.6093  0.0999 -0.9142
  247MOL0     C33974  10.024  -0.212   4.795  0.0212 -0.2519  0.5603
  247MOL0     C33975  10.073  -0.199   4.928  0.7043  0.7958  0.8336
  247MOL0     C33976   9.983  -0.214   5.039  0.5584  0.9644 -0.4148
  247MOL0     C33977  10.208  -0.179   4.943 -0.5349  0.0491  0.6369
  247MOL0     C33978  10.283  -0.153   5.067 -0.1965  0.4762 -0.6325
  247MOL0     O33979  10.351  -0.038   5.080 -0.9856 -0.2160  0.3393
  247MOL0     C33980  10.395   0.010   5.204  0.4866  0.4883  0.1675
  247MOL0     C33981  10.346  -0.030   5.331  0.0607 -0.6380 -0.7578
  247MOL0     C33982  10.421   0.002   5.447 -0.9949 -0.1288  1.4772
  247MOL0     C33983  10.538   0.079   5.432 -0.1564  0.7103  1.0134
  247MOL0     O33984  10.624   0.114   5.533 -0.1727 -1.0244  0.1062
  247MOL0     C33985  10.714   0.017   5.596 -0.1436 -0.8254  0.4733
  247MOL0     C33986  10.863   0.031   5.548 -0.0185 -0.1515 -0.7115
  247MOL0     C33987  10.930   0.146   5.629  0.2118 -0.6512 -0.2809
  247MOL0     C33988  11.081   0.168   5.592  1.1677  0.8718 -0.9803
  247MOL0     C33989  11.136   0.267   5.702  0.7211  0.3123 -0.6040
  247MOL0     C33990  11.252   0.355   5.651 -0.5357  0.9198 -0.1272
  247MOL0     C33991  11.385   0.276   5.636 -0.8099 -0.4766 -0.3703
  247MOL0     C33992  11.504   0.382   5.638  0.0453 -0.2726 -0.4018
  247MOL0    Cl33993  11.514   0.482   5.494  0.0324 -0.4775 -0.2897
  247MOL0     C33994  10.566   0.133   5.309  0.5901  0.7523 -1.6653
  247MOL0     C33995  10.504   0.094   5.200 -0.3979 -1.1612 -0.0949
  247MOL0     O33996  10.285  -0.243   5.155 -0.8466 -0.4629  0.2996
  247MOL0     C33997  10.291  -0.164   4.835  0.1944 -1.0340  0.0278
  247MOL0     C33998  10.244  -0.164   4.698  0.8077 -0.1375 -0.9948
  247MOL0     N33999  10.182  -0.096   4.116  0.1373  0.1999 -0.9893
  247MOL0     N34000  10.233  -0.035   4.022  0.5235 -0.3304 -0.4207
  247MOL0     C34001   9.950   1.142   3.951 -0.3636 -1.5443 -0.5339
  247MOL0     C34002   9.859   1.237   3.929  1.3221 -0.4152  0.4565
  247MOL0     C34003   9.682   1.589   3.721 -1.0780 -0.7504 -0.8931
  247MOL0     C34004   9.598   1.548   3.616  1.2509 -0.1278 -0.3689
  247MOL0     C34005   9.490   1.627   3.571 -0.0078  0.0277 -0.2932
  247MOL0     C34006   9.467   1.748   3.630 -0.3188 -0.1148 -0.2474
  247MOL0     O34007   9.362   1.835   3.610 -1.0234  0.0940  0.2443
  247MOL0     C34008   9.258   1.805   3.514 -0.4725 -0.3982 -0.2621
  247MOL0     C34009   9.162   1.924   3.506  0.3964  0.0623 -0.2165
  247MOL0     C34010   9.111   1.966   3.641  0.1402  0.5696  0.4326
  247MOL0     C34011   9.017   2.094   3.641  0.2795  1.2095  0.0066
  247MOL0     C34012   8.883   2.066   3.586 -0.4798  0.1562  0.3133
  247MOL0     C34013   8.778   2.029   3.552 -0.2820 -0.3939  0.9432
  247MOL0     C34014   9.553   1.796   3.723 -0.0205 -0.2185 -0.2642
  247MOL0     C34015   9.666   1.727   3.763  0.1785  0.3022  0.3344
  247MOL0     C34016   9.764   1.808   3.843 -0.5633 -1.0142  0.1305
  247MOL0     H34017   9.959   1.320   3.614  3.2939 -0.6914 -0.5185
  247MOL0     H34018  10.142   1.158   3.661 -0.7575  0.8149 -1.9664
  247MOL0     H34019   9.971   0.849   3.852 -0.7034 -1.6064  2.5514
  247MOL0     H34020  10.036   0.882   4.018 -4.2629  2.7844 -0.2347
  247MOL0     H34021  10.176   0.760   3.770  0.0476 -0.5822  1.1680
  247MOL0     H34022  10.264   0.808   3.912  0.9565 -1.5503  0.1791
  247MOL0     H34023  10.263   0.616   3.986  2.1437  1.7793 -2.3830
  247MOL0     H34024  10.098   0.649   4.051  2.4474 -0.8741  0.4778
  247MOL0     H34025  10.041   0.464   3.945  3.3010 -2.2596 -0.2112
  247MOL0     H34026  10.007   0.579   3.811 -0.0098  3.6154  1.6158
  247MOL0     H34027  10.278   0.465   3.820  1.5818  0.4762 -3.5354
  247MOL0     H34028  10.179   0.514   3.685 -1.1360  0.1493 -0.1179
  247MOL0     H34029  10.038   0.340   3.705  1.6475  2.5503 -2.9206
  247MOL0     H34030  10.210   0.289   3.677  0.6490  0.3601 -0.5044
  247MOL0     H34031  10.028   0.247   3.913 -0.1879 -3.1639  0.9242
  247MOL0     H34032  10.210   0.243   3.945 -1.3978 -0.5126  2.4592
  247MOL0     H34033  10.060   0.088   3.744 -0.3667  0.3358  0.4247
  247MOL0     H34034  10.227   0.070   3.770 -1.4235  0.6022 -4.1834
  247MOL0     H34035   9.922  -0.049   3.933 -1.2910 -0.8346  1.6686
  247MOL0     H34036   9.985  -0.286   4.239  2.5734  0.3166  0.0870
  247MOL0     H34037   9.863  -0.220   4.139  0.1959  3.3543 -1.8745
  247MOL0     H34038   9.824  -0.037   4.262  0.1004  0.8267  1.0548
  247MOL0     H34039   9.826  -0.158   4.383 -0.9401  3.3819  1.8496
  247MOL0     H34040  10.020   0.054   4.329  0.1652  0.3515  0.6197
  247MOL0     H34041   9.930   0.035   4.470  3.0801  1.8360  1.6764
  247MOL0     H34042  10.146  -0.172   4.386 -0.3049  0.5996 -0.6086
  247MOL0     H34043  10.158  -0.018   4.489 -0.5312  0.5114  0.1729
  247MOL0     H34044   9.921  -0.234   4.773  0.5107 -2.1773  0.0684
  247MOL0     H34045   9.983  -0.121   5.097  0.9457  1.7557 -1.6484
  247MOL0     H34046  10.000  -0.302   5.101 -0.6794  2.9072  2.9439
  247MOL0     H34047   9.879  -0.221   5.004  0.3298 -0.0654  0.4144
  247MOL0     H34048  10.259  -0.091   5.352 -0.6995 -0.2119 -2.4083
  247MOL0     H34049  10.402  -0.036   5.547  1.0619 -2.7479  0.9692
  247MOL0     H34050  10.709   0.024   5.705  1.6347 -1.5986  0.6371
  247MOL0     H34051  10.688  -0.085   5.567 -1.5347 -0.2590 -0.4052
  247MOL0     H34052  10.907  -0.064   5.581 -3.6107 -0.8001  3.0425
  247MOL0     H34053  10.871   0.053   5.441 -3.0370  0.5674 -0.8722
  247MOL0     H34054  10.929   0.132   5.738  0.8893  1.6898  0.0814
  247MOL0     H34055  10.884   0.244   5.616  1.4643  0.2081  1.3750
  247MOL0     H34056  11.097   0.186   5.486  1.7531 -0.6620 -1.1694
  247MOL0     H34057  11.133   0.073   5.610 -0.2535 -0.3108 -2.8515
  247MOL0     H34058  11.060   0.344   5.718  0.6717  0.7445 -2.6465
  247MOL0     H34059  11.152   0.221   5.800 -2.4077 -0.9162 -0.5418
  247MOL0     H34060  11.256   0.439   5.721 -3.3073  2.2021 -1.3653
  247MOL0     H34061  11.212   0.397   5.559  0.6131  2.2916 -0.0246
  247MOL0     H34062  11.393   0.215   5.546  0.5321 -0.8036 -0.0587
  247MOL0     H34063  11.392   0.214   5.726  0.2649  0.8648  0.5092
  247MOL0     H34064  11.598   0.329   5.655 -0.0831 -1.0465 -1.9407
  247MOL0     H34065  11.491   0.453   5.720 -1.0127 -2.6316  1.5803
  247MOL0     H34066  10.655   0.195   5.305  0.9208  0.2353 -4.4951
  247MOL0     H34067  10.534   0.133   5.103 -3.2675 -2.0785 -1.4749
  247MOL0     H34068  10.397  -0.145   4.851 -0.2473  0.7215  1.1357
  247MOL0     H34069  10.316  -0.147   4.618  0.1999 -2.7508 -2.2090
  247MOL0     H34070   9.942   1.100   4.050 -1.6249  1.3027  0.6663
  247MOL0     H34071   9.780   1.247   4.004  2.2081 -1.0905  1.5167
  247MOL0     H34072   9.607   1.449   3.572 -0.4266 -0.7148  0.4947
  247MOL0     H34073   9.430   1.598   3.486  0.2585  0.6829 -0.7158
  247MOL0     H34074   9.299   1.778   3.416 -0.2136  0.9849 -0.5713
  247MOL0     H34075   9.201   1.719   3.547 -1.1294  0.5797  1.2616
  247MOL0     H34076   9.079   1.911   3.436  0.7370 -0.7583 -0.4715
  247MOL0     H34077   9.214   2.017   3.479  1.1009 -0.6096 -1.2298
  247MOL0     H34078   9.059   1.885   3.693  0.6842 -1.4143 -1.9121
  247MOL0     H34079   9.196   1.989   3.706 -1.2458  0.1815  2.4926
  247MOL0     H34080   9.053   2.182   3.586  0.8572  1.6405  1.0403
  247MOL0     H34081   9.006   2.121   3.746 -2.3651 -3.6439  1.2490
  247MOL0     H34082   8.684   1.990   3.519  2.1523 -2.0848 -5.4347
  247MOL0     H34083   9.534   1.897   3.758  1.2172  0.4203 -1.3668
  247MOL0     H34084   9.789   1.761   3.939  2.4345 -1.6615 -0.8727
  247MOL0     H34085   9.848   1.821   3.774 -0.1112  1.3029  1.0160
  247MOL0     H34086   9.722   1.902   3.879  0.3309 -1.1755  1.6853
  248MOL0     O34087   4.394  10.892   2.393  1.2732  0.1314 -0.9157
  248MOL0     C34088   4.344  10.844   2.494  0.2633  0.7182 -0.5204
  248MOL0     O34089   4.263  10.907   2.585 -0.8025  0.4506 -0.0283
  248MOL0     C34090   4.232  11.045   2.563  0.0249 -1.0900  0.0288
  248MOL0     C34091   4.106  11.102   2.570  0.6319  0.4813 -0.0578
  248MOL0     C34092   4.076  11.238   2.550 -0.3723 -0.9109  0.7422
  248MOL0     C34093   4.178  11.329   2.539 -0.5607 -1.0163 -1.5024
  248MOL0     O34094   4.156  11.463   2.535 -0.0359  0.0457 -0.2286
  248MOL0     C34095   4.030  11.502   2.579 -0.2020 -0.7733 -0.3565
  248MOL0     C34096   4.048  11.646   2.631  0.2847  0.3821  0.7735
  248MOL0     C34097   4.098  11.669   2.779  1.0324  1.4757 -0.0467
  248MOL0     C34098   4.006  11.629   2.891  0.3100 -0.2573  0.1716
  248MOL0     C34099   3.860  11.700   2.887 -0.1828  0.2645  0.5688
  248MOL0     C34100   3.751  11.627   2.963 -0.3581  0.6691 -0.5906
  248MOL0     C34101   3.618  11.708   2.969  0.4713  0.3893 -1.3573
  248MOL0     C34102   3.546  11.721   2.839 -0.7109 -0.1244 -0.1323
  248MOL0     N34103   3.456  11.605   2.827 -0.5757  0.0773 -0.7941
  248MOL0     C34104   3.492  11.475   2.791 -0.2590 -0.2778 -1.0718
  248MOL0     C34105   3.368  11.409   2.800  0.3586 -0.2794 -0.1769
  248MOL0     C34106   3.338  11.260   2.775  0.3633  0.0893 -0.5112
  248MOL0     C34107   3.437  11.189   2.688 -0.5699  0.3816 -0.0096
  248MOL0     C34108   3.547  11.117   2.769  0.0000  0.6351 -0.5857
  248MOL0     C34109   3.627  11.016   2.692  0.8027  0.5759  0.6432
  248MOL0     O34110   3.576  10.884   2.690  0.3387 -0.0577 -0.0448
  248MOL0     C34111   3.653  10.781   2.647 -0.2061  0.7031  0.1968
  248MOL0     C34112   3.599  10.651   2.657  0.6088 -0.2242 -0.0027
  248MOL0     C34113   3.673  10.538   2.608  0.9160  0.1010  2.0178
  248MOL0     C34114   3.612  10.396   2.609 -0.2230  0.7878  0.2129
  248MOL0     C34115   3.798  10.553   2.545  0.7950 -0.7003  1.7164
  248MOL0     C34116   3.876  10.452   2.463 -0.3285  0.7256 -0.9816
  248MOL0     O34117   3.814  10.335   2.429  0.2753 -0.2302  1.0367
  248MOL0     C34118   3.895  10.228   2.439 -0.4666 -0.3915  0.1172
  248MOL0     C34119   3.885  10.135   2.539 -1.4871  0.4816 -0.0523
  248MOL0     C34120   3.971  10.022   2.546  0.5277 -0.3213  0.6643
  248MOL0     C34121   4.056  10.006   2.437 -1.2546 -0.1465 -0.2619
  248MOL0     O34122   4.127   9.893   2.411  0.1481  0.5313 -0.0667
  248MOL0     C34123   4.125   9.784   2.489 -0.8059 -0.2415  0.7800
  248MOL0     C34124   4.210   9.678   2.427  0.1062  0.8169  0.2958
  248MOL0     C34125   4.206   9.543   2.506  1.3350  0.3784 -0.0997
  248MOL0     C34126   4.061   9.490   2.528 -1.1306  0.9486 -0.2172
  248MOL0     C34127   4.040   9.351   2.557  0.3449  0.2356  1.0845
  248MOL0     C34128   3.894   9.329   2.564  0.5607 -0.8048  0.4623
  248MOL0     C34129   3.827   9.368   2.700 -0.5165 -0.1598  0.4178
  248MOL0     C34130   3.709   9.464   2.695 -0.3471 -0.2614 -0.0447
  248MOL0    Cl34131   3.734   9.622   2.617  0.0737  0.2610 -0.2049
  248MOL0     C34132   4.062  10.095   2.329  0.2423 -0.3676 -1.1703
  248MOL0     C34133   3.981  10.206   2.337 -0.2591  1.5454  0.4301
  248MOL0     O34134   3.995  10.479   2.436  0.3357  0.8624  0.6826
  248MOL0     C34135   3.850  10.689   2.552 -0.1064 -0.2637 -0.0300
  248MOL0     C34136   3.784  10.794   2.600  0.1010 -0.2328 -1.5785
  248MOL0     N34137   3.269  11.502   2.843  0.2559  0.2103  0.6270
  248MOL0     N34138   3.330  11.617   2.861 -0.0186  0.2737  0.3850
  248MOL0     C34139   4.310  11.282   2.549 -0.8218  0.2373 -0.1240
  248MOL0     C34140   4.339  11.144   2.568 -0.1495 -0.4592  0.0710
  248MOL0     C34141   4.363  10.700   2.525 -0.6757 -0.1590  0.4506
  248MOL0     C34142   4.382  10.674   2.659  0.2542  0.0059  0.4014
  248MOL0     C34143   4.410  10.545   2.707 -0.8338  0.0477  0.2820
  248MOL0     C34144   4.437  10.440   2.625  0.1841  0.3535 -0.4232
  248MOL0     O34145   4.472  10.316   2.667  0.5881  0.1646 -0.3251
  248MOL0     C34146   4.597  10.302   2.733  1.2134 -0.4578  0.1154
  248MOL0     C34147   4.706  10.357   2.640  0.1827 -0.4009  0.2072
  248MOL0     C34148   4.844  10.343   2.704  0.2724  0.5705 -0.4308
  248MOL0     C34149   4.937  10.468   2.691  0.1492  0.3733 -0.0762
  248MOL0     C34150   4.878  10.597   2.744  0.2326  1.2906  0.7938
  248MOL0     C34151   4.843  10.692   2.802 -0.0316  0.2147  0.2559
  248MOL0     C34152   4.423  10.464   2.484 -0.1940  0.3529  0.0151
  248MOL0     C34153   4.385  10.595   2.433  0.6379  0.1220  0.1893
  248MOL0     C34154   4.339  10.613   2.283 -0.4665  0.9134 -0.9131
  248MOL0     H34155   4.034  11.021   2.576  0.7920  0.4444  1.6163
  248MOL0     H34156   3.973  11.268   2.536  0.0183 -0.1698 -0.7428
  248MOL0     H34157   3.988  11.445   2.662  2.9829 -0.1599  1.8687
  248MOL0     H34158   3.956  11.517   2.500 -0.9677 -2.3197  0.0294
  248MOL0     H34159   4.130  11.688   2.572 -0.6433 -1.8725 -2.3378
  248MOL0     H34160   3.956  11.702   2.609 -0.9880 -1.4057  1.3373
  248MOL0     H34161   4.183  11.601   2.782 -0.1085 -0.2484 -2.7983
  248MOL0     H34162   4.132  11.772   2.793  0.9260  1.4224  0.6443
  248MOL0     H34163   3.996  11.520   2.886 -2.7636  0.0092 -2.8009
  248MOL0     H34164   4.058  11.657   2.984  3.3988 -0.9952 -1.2036
  248MOL0     H34165   3.828  11.721   2.784  2.8979  0.8925 -0.3515
  248MOL0     H34166   3.871  11.799   2.932  0.0283  0.7084 -0.4260
  248MOL0     H34167   3.731  11.530   2.916  1.4415 -0.2412  0.3939
  248MOL0     H34168   3.791  11.609   3.063 -1.7797  4.1316  0.7750
  248MOL0     H34169   3.641  11.810   3.003  1.6609 -0.4787  0.6161
  248MOL0     H34170   3.553  11.679   3.053  2.1211  1.2715  0.3064
  248MOL0     H34171   3.483  11.810   2.833  2.2699  2.0383 -2.7567
  248MOL0     H34172   3.611  11.733   2.752  0.7655  2.8426  1.2194
  248MOL0     H34173   3.586  11.444   2.745  0.5470  0.2231  0.1643
  248MOL0     H34174   3.239  11.256   2.730 -0.0394  1.0937  0.2564
  248MOL0     H34175   3.324  11.207   2.870  0.7465 -4.1135 -2.5742
  248MOL0     H34176   3.372  11.111   2.648 -0.4541 -0.1658  0.8235
  248MOL0     H34177   3.491  11.249   2.615  1.0002 -1.9305 -0.8592
  248MOL0     H34178   3.613  11.198   2.801  1.0580  0.2578 -1.7137
  248MOL0     H34179   3.506  11.065   2.856 -0.4389  1.2164 -0.4454
  248MOL0     H34180   3.649  11.053   2.591  0.5612  0.2796  0.4795
  248MOL0     H34181   3.732  11.009   2.723  1.7017  3.3349 -1.3407
  248MOL0     H34182   3.503  10.640   2.706  0.0748  0.5413 -0.8364
  248MOL0     H34183   3.687  10.325   2.644 -0.3005 -0.6091 -2.2368
  248MOL0     H34184   3.573  10.365   2.511 -3.4259  2.4428  0.8116
  248MOL0     H34185   3.522  10.402   2.672 -0.8385  1.1844 -0.6769
  248MOL0     H34186   3.806  10.154   2.611  0.1427 -1.4190  2.4083
  248MOL0     H34187   3.966   9.957   2.632 -0.7646  0.4791  1.2295
  248MOL0     H34188   4.163   9.807   2.589  0.5294 -1.4777  0.5899
  248MOL0     H34189   4.022   9.748   2.493 -0.2872 -2.3560 -1.7859
  248MOL0     H34190   4.189   9.661   2.321  3.8251 -3.0736 -0.1083
  248MOL0     H34191   4.313   9.715   2.421  0.4013  0.0355  0.3970
  248MOL0     H34192   4.256   9.553   2.603 -0.6655  2.0794  0.8329
  248MOL0     H34193   4.263   9.467   2.452  0.3837  1.2642 -2.4764
  248MOL0     H34194   4.029   9.503   2.425 -2.9389  4.8158  0.6618
  248MOL0     H34195   3.999   9.550   2.594 -3.8660 -2.3823  0.5434
  248MOL0     H34196   4.069   9.298   2.465 -3.0499  2.1369 -1.2832
  248MOL0     H34197   4.102   9.317   2.641  2.4203  1.7302  0.2387
  248MOL0     H34198   3.865   9.226   2.542 -3.7267 -0.0904  1.8310
  248MOL0     H34199   3.840   9.386   2.488 -0.5249 -1.1796  0.9337
  248MOL0     H34200   3.895   9.418   2.771  0.9765  1.2188 -1.8610
  248MOL0     H34201   3.804   9.271   2.746  0.2559 -0.0039  1.1862
  248MOL0     H34202   3.688   9.483   2.801 -0.4201 -4.9615  1.0151
  248MOL0     H34203   3.624   9.410   2.654  0.1550 -0.8830 -0.2891
  248MOL0     H34204   4.143  10.098   2.257  0.3071  1.9190 -1.0793
  248MOL0     H34205   3.973  10.275   2.253 -1.1580 -0.8536 -1.5844
  248MOL0     H34206   3.947  10.704   2.506 -0.6254  0.9150 -0.7926
  248MOL0     H34207   3.846  10.884   2.599  1.5806 -1.1050  1.0725
  248MOL0     H34208   4.393  11.353   2.553  1.8496 -2.4307 -3.0323
  248MOL0     H34209   4.440  11.111   2.592  1.1548  2.1239 -1.4172
  248MOL0     H34210   4.367  10.755   2.730 -0.1767 -0.1648  0.5087
  248MOL0     H34211   4.422  10.520   2.812  0.8437 -0.2286  0.0455
  248MOL0     H34212   4.585  10.354   2.828 -2.9716  3.1830 -2.0455
  248MOL0     H34213   4.611  10.194   2.749  2.3080 -0.5314 -1.1847
  248MOL0     H34214   4.686  10.461   2.613  0.5068  0.7058  3.7630
  248MOL0     H34215   4.694  10.297   2.549 -0.9023 -0.5465  0.4285
  248MOL0     H34216   4.839  10.314   2.810 -1.6127  2.8229  0.1958
  248MOL0     H34217   4.892  10.260   2.653  1.5019  0.1298  1.3488
  248MOL0     H34218   4.968  10.480   2.587  2.9235  2.4413  0.8753
  248MOL0     H34219   5.033  10.435   2.731  0.1488 -1.4586 -1.4314
  248MOL0     H34220   4.815  10.782   2.853  1.8326 -0.4192  2.5545
  248MOL0     H34221   4.441  10.390   2.407 -1.0833  0.0020  0.1383
  248MOL0     H34222   4.430  10.616   2.221  0.8481  2.9013  0.9889
  248MOL0     H34223   4.280  10.522   2.263 -0.0455 -1.1695  5.2886
  248MOL0     H34224   4.291  10.707   2.255  0.6683  1.9314  0.4041
  249MOL0     O34225   5.146   1.138   5.744  0.0379 -0.1106 -0.4612
  249MOL0     C34226   5.032   1.133   5.689 -0.8141 -0.1750 -0.0168
  249MOL0     O34227   4.984   1.031   5.611  0.8084  0.5514 -0.9608
  249MOL0     C34228   5.063   0.916   5.597  0.5539 -0.2056  0.5419
  249MOL0     C34229   5.129   0.845   5.696  0.6213  0.6801 -0.4201
  249MOL0     C34230   5.186   0.720   5.680  0.3487  0.4850  0.0136
  249MOL0     C34231   5.196   0.662   5.548  0.6268  0.2479 -0.8992
  249MOL0     O34232   5.286   0.555   5.529 -0.4292 -0.5428 -0.2923
  249MOL0     C34233   5.310   0.498   5.399 -0.0877 -0.1322 -0.2549
  249MOL0     C34234   5.180   0.419   5.356  0.1286 -0.1374  0.8720
  249MOL0     C34235   5.195   0.301   5.258  0.0341  0.1479 -0.6454
  249MOL0     C34236   5.228   0.352   5.117  0.4333  0.2438 -0.3029
  249MOL0     C34237   5.229   0.238   5.017 -0.2953  0.1962  0.9185
  249MOL0     C34238   5.095   0.206   4.945 -0.1499  0.3190 -0.4382
  249MOL0     C34239   5.110   0.121   4.814 -0.3353 -0.0171 -0.4568
  249MOL0     C34240   5.142  -0.021   4.853 -0.1937 -0.3854 -0.2654
  249MOL0     N34241   5.205  -0.103   4.753 -0.9341  0.1397  0.1312
  249MOL0     C34242   5.283  -0.069   4.643 -0.7167 -0.7812  0.4427
  249MOL0     C34243   5.324  -0.189   4.582 -0.3585 -1.1302 -0.0288
  249MOL0     C34244   5.426  -0.216   4.472 -0.0515 -0.2407  0.6125
  249MOL0     C34245   5.384  -0.322   4.366 -0.1314  0.8511  0.5985
  249MOL0     C34246   5.274  -0.271   4.270 -0.2086 -0.7098  0.1035
  249MOL0     C34247   5.292  -0.131   4.196  0.7988  0.2524 -0.3707
  249MOL0     O34248   5.259  -0.023   4.281  0.1870 -0.7006 -0.4162
  249MOL0     C34249   5.133   0.017   4.310 -0.0146 -0.2398  0.1195
  249MOL0     C34250   5.016  -0.059   4.286 -0.3549 -0.3250  0.3447
  249MOL0     C34251   4.890   0.000   4.304 -0.1754 -0.8241  0.8861
  249MOL0     C34252   4.774  -0.077   4.263  0.0771  0.4335 -0.4932
  249MOL0     C34253   4.883   0.135   4.355 -0.1327  0.5065  0.1903
  249MOL0     C34254   4.757   0.205   4.364 -0.9996 -0.4823 -0.8269
  249MOL0     O34255   4.770   0.308   4.458 -0.3994  0.4193  0.1252
  249MOL0     C34256   4.665   0.376   4.520  0.2189 -0.4152  0.7986
  249MOL0     C34257   4.708   0.466   4.616 -0.4273  0.3548  0.8652
  249MOL0     C34258   4.620   0.550   4.690  0.7196  1.4325  0.0426
  249MOL0     C34259   4.482   0.533   4.671  0.0957 -0.3047 -1.1994
  249MOL0     O34260   4.384   0.598   4.753  0.2755  0.1521 -0.3855
  249MOL0     C34261   4.405   0.738   4.773  0.3827  0.2541  1.4118
  249MOL0     C34262   4.299   0.793   4.872  0.1664 -0.0454  0.3718
  249MOL0     C34263   4.168   0.811   4.791 -0.1625 -0.2463 -0.2077
  249MOL0     C34264   4.047   0.857   4.872  0.9747 -1.4033 -0.1575
  249MOL0     C34265   3.913   0.775   4.841  0.1031 -1.1842  0.3397
  249MOL0     C34266   3.789   0.844   4.906 -0.9634 -0.0439 -0.8549
  249MOL0     C34267   3.736   0.972   4.840 -0.6094  0.2814 -0.0799
  249MOL0     C34268   3.656   0.944   4.712  0.2067  0.1605  0.1366
  249MOL0    Cl34269   3.738   1.011   4.569  0.1618 -0.0814 -0.0041
  249MOL0     C34270   4.440   0.446   4.567  0.3862 -0.2836 -0.5645
  249MOL0     C34271   4.523   0.364   4.494 -0.7475 -0.0681  0.3105
  249MOL0     O34272   4.669   0.194   4.279  0.9759  0.4545  0.4268
  249MOL0     C34273   5.001   0.204   4.383 -0.8079  0.1342 -0.5768
  249MOL0     C34274   5.120   0.137   4.361  1.1184 -0.7922  0.4310
  249MOL0     N34275   5.277  -0.286   4.664  0.1745  1.0537 -0.1697
  249MOL0     N34276   5.208  -0.235   4.761 -0.3021 -0.4413  0.0153
  249MOL0     C34277   5.136   0.737   5.452  0.3477  0.7249  0.3843
  249MOL0     C34278   5.072   0.858   5.472  0.6238  0.3546 -0.3698
  249MOL0     C34279   4.936   1.236   5.719  0.3238  0.0277 -0.8902
  249MOL0     C34280   4.951   1.297   5.845  0.2426 -0.7310 -0.9813
  249MOL0     C34281   4.858   1.392   5.888 -1.0003 -0.2366 -0.2004
  249MOL0     C34282   4.753   1.431   5.812  0.6465 -1.0854 -0.3211
  249MOL0     O34283   4.650   1.520   5.847  0.4044  0.7293  0.3183
  249MOL0     C34284   4.659   1.616   5.959 -0.8993 -0.5577  1.0798
  249MOL0     C34285   4.570   1.577   6.071 -0.5554 -0.2146 -0.4095
  249MOL0     C34286   4.598   1.456   6.156 -0.2153  0.5810  0.4545
  249MOL0     C34287   4.529   1.476   6.291 -0.0703  0.5140 -0.3999
  249MOL0     C34288   4.391   1.435   6.265  0.8556  0.6037 -0.3947
  249MOL0     C34289   4.271   1.408   6.240 -0.9565 -0.9759  0.1771
  249MOL0     C34290   4.745   1.376   5.688 -0.3470  0.4467 -0.2406
  249MOL0     C34291   4.837   1.277   5.635  0.1407  0.2121  0.1552
  249MOL0     C34292   4.805   1.219   5.497 -0.2537 -0.7723  0.2455
  249MOL0     H34293   5.129   0.874   5.800  0.8896 -0.1852 -0.1649
  249MOL0     H34294   5.243   0.665   5.754  0.3612 -0.6002 -0.7851
  249MOL0     H34295   5.392   0.426   5.407 -0.9413 -1.1211 -0.1875
  249MOL0     H34296   5.339   0.569   5.321 -3.3786  0.9074 -0.6925
  249MOL0     H34297   5.134   0.367   5.441  0.8915 -2.1132  0.1253
  249MOL0     H34298   5.109   0.496   5.322  1.0392 -0.2640 -1.4877
  249MOL0     H34299   5.280   0.241   5.292  0.9191  3.1498  3.1555
  249MOL0     H34300   5.099   0.248   5.257 -0.3044  0.7461 -0.3281
  249MOL0     H34301   5.152   0.418   5.074 -0.7458 -1.3265 -0.7181
  249MOL0     H34302   5.326   0.402   5.113  0.0271  1.0037 -1.2259
  249MOL0     H34303   5.284   0.149   5.050  0.8962 -0.1526 -1.7253
  249MOL0     H34304   5.301   0.271   4.942  0.5731  1.4859  2.2499
  249MOL0     H34305   5.024   0.148   5.005 -0.2174 -1.3780 -2.0925
  249MOL0     H34306   5.054   0.307   4.932 -0.1179  0.7010  1.9358
  249MOL0     H34307   5.183   0.162   4.745  0.6110  0.1566  0.6223
  249MOL0     H34308   5.018   0.115   4.755 -0.5751 -3.1132  0.0509
  249MOL0     H34309   5.205  -0.020   4.943  2.1425  1.2084 -1.8242
  249MOL0     H34310   5.053  -0.077   4.883 -1.2589  0.5896 -1.4737
  249MOL0     H34311   5.306   0.035   4.620  0.3898 -0.6809  1.8643
  249MOL0     H34312   5.519  -0.253   4.515 -1.0146 -2.4479  0.9432
  249MOL0     H34313   5.451  -0.124   4.419 -0.4741 -1.0041 -0.9724
  249MOL0     H34314   5.464  -0.358   4.301 -0.5550 -1.6018  1.3661
  249MOL0     H34315   5.354  -0.414   4.416 -1.4093 -1.0141 -3.2600
  249MOL0     H34316   5.261  -0.345   4.191 -1.9115  2.3275 -2.6859
  249MOL0     H34317   5.180  -0.272   4.327 -0.2217 -2.0326  0.0878
  249MOL0     H34318   5.396  -0.131   4.163  1.5820 -1.7407  1.8045
  249MOL0     H34319   5.224  -0.125   4.111  0.2147 -0.2849  0.0496
  249MOL0     H34320   5.013  -0.160   4.246 -3.6262  0.7152 -2.4817
  249MOL0     H34321   4.708  -0.099   4.348  0.6599 -1.0451 -0.3994
  249MOL0     H34322   4.811  -0.175   4.233  0.0749  0.0916  0.5816
  249MOL0     H34323   4.716  -0.022   4.189  2.3434  2.1805 -1.0969
  249MOL0     H34324   4.813   0.463   4.641 -0.6556 -3.0926  1.9186
  249MOL0     H34325   4.659   0.623   4.760  1.1524  2.7351 -1.5012
  249MOL0     H34326   4.503   0.767   4.811  0.2271  3.4864 -0.3152
  249MOL0     H34327   4.399   0.788   4.676  0.8253  3.2616  2.8183
  249MOL0     H34328   4.274   0.727   4.955 -2.9489 -0.4500 -0.7650
  249MOL0     H34329   4.327   0.892   4.909 -3.6832  0.8116  1.4721
  249MOL0     H34330   4.143   0.720   4.735 -4.1891  0.9534 -0.6669
  249MOL0     H34331   4.170   0.889   4.715  0.8231 -0.2887 -0.2317
  249MOL0     H34332   4.025   0.963   4.857 -0.2991 -1.0962  3.0517
  249MOL0     H34333   4.055   0.841   4.980 -2.6694  3.3605  1.1572
  249MOL0     H34334   3.883   0.757   4.737 -3.6370  2.7056  0.4681
  249MOL0     H34335   3.903   0.677   4.889 -1.0403 -2.0995 -1.5819
  249MOL0     H34336   3.824   0.861   5.009 -0.3104  0.7191 -1.1944
  249MOL0     H34337   3.715   0.767   4.929  2.4715 -3.8000 -1.3145
  249MOL0     H34338   3.821   1.038   4.821  1.2049 -2.3131 -1.6545
  249MOL0     H34339   3.684   1.021   4.923  1.1493 -1.7621  2.4253
  249MOL0     H34340   3.562   1.000   4.704  0.0691 -0.3409 -3.8047
  249MOL0     H34341   3.638   0.837   4.707 -2.4266  0.5917 -3.4541
  249MOL0     H34342   4.334   0.425   4.558  0.1510 -0.6491  2.2575
  249MOL0     H34343   4.480   0.288   4.430 -1.7191  0.7465 -0.0242
  249MOL0     H34344   5.011   0.308   4.414 -2.8038  0.7678 -1.9049
  249MOL0     H34345   5.217   0.186   4.365  2.0287 -2.3464 -1.0523
  249MOL0     H34346   5.134   0.705   5.348 -2.2436  0.9991  0.2822
  249MOL0     H34347   5.026   0.910   5.389 -3.1223 -2.6006 -0.4677
  249MOL0     H34348   5.026   1.285   5.923 -0.2087 -1.2000 -0.6212
  249MOL0     H34349   4.863   1.435   5.988 -0.8843 -2.8296  0.9932
  249MOL0     H34350   4.763   1.634   5.986 -0.3097 -2.5905  0.3840
  249MOL0     H34351   4.614   1.704   5.912  0.4048 -1.4036 -2.0458
  249MOL0     H34352   4.470   1.564   6.030 -0.4869  0.6040 -0.8813
  249MOL0     H34353   4.555   1.669   6.129 -0.9960 -2.3483  3.1685
  249MOL0     H34354   4.586   1.364   6.100  6.9148  0.8091 -2.5365
  249MOL0     H34355   4.707   1.452   6.169 -0.5531 -1.0838  4.1227
  249MOL0     H34356   4.523   1.578   6.330  0.8066  1.2252 -2.0377
  249MOL0     H34357   4.578   1.404   6.357 -3.3521 -2.6423 -1.1104
  249MOL0     H34358   4.171   1.381   6.214 -0.5985  0.0103 -2.4243
  249MOL0     H34359   4.656   1.393   5.629  0.7036 -0.6242 -2.2200
  249MOL0     H34360   4.779   1.115   5.519  0.2748 -0.9129  0.2127
  249MOL0     H34361   4.719   1.278   5.462 -0.2869  0.3718  2.1014
  249MOL0     H34362   4.882   1.231   5.420  1.6324  0.1948  2.1748
  250MOL0     O34363   6.356   3.726   6.693 -0.4130 -0.6897  0.0148
  250MOL0     C34364   6.429   3.707   6.791  0.6401 -0.8417  1.0771
  250MOL0     O34365   6.420   3.780   6.903  0.3103  0.5366 -0.2014
  250MOL0     C34366   6.391   3.913   6.885  0.1217 -0.8514 -0.3851
  250MOL0     C34367   6.501   4.005   6.861 -0.0688  0.3418  0.2105
  250MOL0     C34368   6.473   4.136   6.837 -0.6878 -0.5394 -0.7222
  250MOL0     C34369   6.348   4.193   6.850 -0.0900 -0.0354 -0.7683
  250MOL0     O34370   6.311   4.322   6.855  0.1932 -0.5873  0.1620
  250MOL0     C34371   6.416   4.412   6.879  0.4595 -0.7917  0.5805
  250MOL0     C34372   6.364   4.551   6.854 -1.1395  0.4556 -0.4620
  250MOL0     C34373   6.345   4.587   6.707  0.2637  0.9969 -1.3368
  250MOL0     C34374   6.248   4.708   6.692  0.7374  0.3950 -0.1571
  250MOL0     C34375   6.110   4.678   6.664  0.4684 -0.1477  0.3784
  250MOL0     C34376   6.090   4.647   6.518  0.0524 -0.2729  0.3134
  250MOL0     C34377   5.950   4.606   6.473  0.5247 -0.5866 -0.4190
  250MOL0     C34378   5.898   4.482   6.529  0.0428 -0.1020 -0.1886
  250MOL0     N34379   5.974   4.363   6.496 -0.5520  0.4189  0.1472
  250MOL0     C34380   6.064   4.287   6.570 -0.2271  0.6670 -0.7962
  250MOL0     C34381   6.085   4.174   6.498  0.0056  0.0525 -0.1940
  250MOL0     C34382   6.169   4.047   6.525  0.1305  0.0451 -0.2401
  250MOL0     C34383   6.199   3.963   6.404 -0.5730  0.8620 -0.4851
  250MOL0     C34384   6.087   3.902   6.327 -0.2909  0.1371 -0.2031
  250MOL0     C34385   5.970   3.842   6.419 -0.6655 -0.2361 -0.4183
  250MOL0     O34386   6.030   3.745   6.501 -0.0994  0.0485 -0.0338
  250MOL0     C34387   5.956   3.707   6.608 -0.5238 -0.2284 -0.4382
  250MOL0     C34388   5.822   3.683   6.593  0.1342  0.9288 -1.2156
  250MOL0     C34389   5.739   3.632   6.703  0.0889  0.2222  0.8588
  250MOL0     C34390   5.599   3.588   6.658  0.6363  0.2639  0.2565
  250MOL0     C34391   5.800   3.612   6.825  0.6004  0.2932  0.3857
  250MOL0     C34392   5.726   3.547   6.935  0.3824  0.2846  0.4431
  250MOL0     O34393   5.597   3.513   6.916 -0.4637 -0.1481 -0.0272
  250MOL0     C34394   5.539   3.463   7.030  0.3766 -0.1738  0.3541
  250MOL0     C34395   5.555   3.328   7.080 -0.1133  0.2576  0.1430
  250MOL0     C34396   5.484   3.288   7.194  0.2179  0.5370  0.8344
  250MOL0     C34397   5.373   3.372   7.243 -0.5581 -0.2545  0.7338
  250MOL0     O34398   5.303   3.333   7.350 -0.4597  0.7311  0.4971
  250MOL0     C34399   5.223   3.219   7.333  0.1285 -0.1310  0.1321
  250MOL0     C34400   5.089   3.245   7.412 -0.6606  0.7971 -0.1468
  250MOL0     C34401   4.969   3.289   7.327  0.9299  0.5168 -1.0795
  250MOL0     C34402   4.838   3.312   7.410 -0.5835 -0.4997  0.0013
  250MOL0     C34403   4.716   3.330   7.314 -0.6505  0.4036 -0.9047
  250MOL0     C34404   4.664   3.194   7.267  0.2708 -0.6514  0.4440
  250MOL0     C34405   4.528   3.191   7.193  0.0455  0.3393  0.3695
  250MOL0     C34406   4.495   3.314   7.113 -0.0495 -0.0062  0.1781
  250MOL0    Cl34407   4.608   3.353   6.980  0.2309 -0.1384  0.0796
  250MOL0     C34408   5.348   3.496   7.182  0.3479 -0.9203 -0.3663
  250MOL0     C34409   5.433   3.542   7.079 -0.5010  0.4966 -0.0334
  250MOL0     O34410   5.790   3.530   7.042  0.0009  0.7652  0.3677
  250MOL0     C34411   5.939   3.639   6.847 -0.2274  0.9323  0.1750
  250MOL0     C34412   6.020   3.689   6.740  0.4600 -0.1391  1.2157
  250MOL0     N34413   6.025   4.191   6.381  0.3533  0.6249  0.3610
  250MOL0     N34414   5.940   4.291   6.385  0.7773 -0.3206  0.5262
  250MOL0     C34415   6.243   4.107   6.877 -0.0424 -0.4950 -0.3756
  250MOL0     C34416   6.263   3.970   6.879  0.1838 -0.2472 -0.3765
  250MOL0     C34417   6.545   3.609   6.783 -1.0590  0.9902 -0.5927
  250MOL0     C34418   6.641   3.613   6.882  0.0153 -0.5898  0.3457
  250MOL0     C34419   6.755   3.551   6.873 -0.2507 -0.3492 -0.4139
  250MOL0     C34420   6.787   3.486   6.763 -0.0429  0.0503  0.4094
  250MOL0     O34421   6.915   3.424   6.758  0.1994  0.0486 -0.9768
  250MOL0     C34422   6.990   3.486   6.654 -0.1637 -0.1920  0.3186
  250MOL0     C34423   7.132   3.428   6.640 -0.0488 -0.3643 -0.4318
  250MOL0     C34424   7.220   3.451   6.762 -0.3728 -1.9194 -0.5964
  250MOL0     C34425   7.372   3.466   6.734 -0.2597 -0.5375 -0.5925
  250MOL0     C34426   7.408   3.602   6.724 -0.2627 -0.7278  0.4930
  250MOL0     C34427   7.434   3.722   6.719 -0.4984 -0.5010 -0.1527
  250MOL0     C34428   6.698   3.472   6.655 -0.3529 -0.2063  0.5691
  250MOL0     C34429   6.568   3.525   6.668 -1.0275 -0.2754  0.9826
  250MOL0     C34430   6.477   3.490   6.550  0.5926 -0.8644 -0.3485
  250MOL0     H34431   6.603   3.969   6.867  0.7431  2.2149 -1.3610
  250MOL0     H34432   6.560   4.198   6.821  0.9537 -2.0618  1.6696
  250MOL0     H34433   6.503   4.395   6.815  1.1935  1.8488  0.7491
  250MOL0     H34434   6.448   4.394   6.982 -1.8589 -1.9269  1.1755
  250MOL0     H34435   6.268   4.569   6.902 -0.8938  0.5959 -0.0126
  250MOL0     H34436   6.435   4.622   6.899  0.4526  0.4040 -2.7045
  250MOL0     H34437   6.444   4.600   6.663  0.4393  0.1513 -1.2185
  250MOL0     H34438   6.298   4.502   6.656 -1.9427 -1.5037  4.1176
  250MOL0     H34439   6.230   4.755   6.790  0.6800 -1.6944  0.9025
  250MOL0     H34440   6.291   4.785   6.628  0.7365  2.6519  2.3394
  250MOL0     H34441   6.042   4.756   6.699 -1.0200 -0.8249 -0.8764
  250MOL0     H34442   6.092   4.588   6.724  1.7386 -0.7775 -0.1270
  250MOL0     H34443   6.117   4.738   6.465 -1.5262  0.2897  0.4509
  250MOL0     H34444   6.159   4.569   6.483  0.1560 -0.5508  1.1043
  250MOL0     H34445   5.938   4.601   6.365 -3.1241  3.5010 -0.4996
  250MOL0     H34446   5.875   4.682   6.497 -0.1465 -2.0563  2.6788
  250MOL0     H34447   5.891   4.481   6.638  4.6097  1.3135  0.3261
  250MOL0     H34448   5.798   4.460   6.493  0.2091 -3.2232  0.9449
  250MOL0     H34449   6.103   4.323   6.665 -0.7257  1.1923 -0.7808
  250MOL0     H34450   6.122   3.978   6.595  0.9431  2.0460  2.4485
  250MOL0     H34451   6.267   4.073   6.567  0.1288  1.9604 -1.3224
  250MOL0     H34452   6.258   4.032   6.342  1.7031  2.1415  2.8536
  250MOL0     H34453   6.259   3.885   6.452  0.3169  4.2211  4.5768
  250MOL0     H34454   6.050   3.986   6.266 -0.0789  0.4719  0.1268
  250MOL0     H34455   6.128   3.822   6.265  1.5144  1.7844 -1.2541
  250MOL0     H34456   5.928   3.917   6.487 -0.0968 -0.9001  0.6850
  250MOL0     H34457   5.897   3.788   6.358  0.9343 -3.3101  0.2098
  250MOL0     H34458   5.774   3.686   6.496 -2.0059  2.2174 -0.1942
  250MOL0     H34459   5.597   3.480   6.643 -0.3809  0.3479 -0.2618
  250MOL0     H34460   5.577   3.631   6.560 -1.4650 -0.4382  0.3852
  250MOL0     H34461   5.515   3.611   6.724 -0.9159 -0.5312 -1.3607
  250MOL0     H34462   5.630   3.266   7.032  0.2489 -0.1990  1.2535
  250MOL0     H34463   5.511   3.194   7.241  0.7585  0.8261  1.1127
  250MOL0     H34464   5.207   3.199   7.226  1.2319 -1.5155  0.1958
  250MOL0     H34465   5.283   3.131   7.359  1.7455  1.4174  1.9263
  250MOL0     H34466   5.054   3.164   7.476 -2.5891  1.4342 -0.3205
  250MOL0     H34467   5.113   3.327   7.479  0.7202 -0.1419  0.5426
  250MOL0     H34468   4.947   3.205   7.260  0.7995  1.2992 -2.0511
  250MOL0     H34469   5.000   3.381   7.277  1.8974  0.7452 -0.0781
  250MOL0     H34470   4.849   3.403   7.468 -3.1452 -1.4026  2.1331
  250MOL0     H34471   4.819   3.228   7.478  3.2539 -1.2519  0.3835
  250MOL0     H34472   4.644   3.385   7.376  0.2385  0.6191 -0.0250
  250MOL0     H34473   4.738   3.380   7.219  0.6490  1.6812  0.0113
  250MOL0     H34474   4.642   3.133   7.356 -4.4904  2.0795  1.5068
  250MOL0     H34475   4.737   3.138   7.208  2.2230 -0.0892  2.1923
  250MOL0     H34476   4.451   3.171   7.268 -0.7979 -1.3030 -0.8813
  250MOL0     H34477   4.531   3.110   7.119 -0.7562  1.4384 -0.9175
  250MOL0     H34478   4.492   3.402   7.178 -0.0609  0.9213 -1.0503
  250MOL0     H34479   4.391   3.311   7.077 -0.5272  1.8565  1.2337
  250MOL0     H34480   5.279   3.568   7.224 -0.2055  0.7100 -3.7649
  250MOL0     H34481   5.412   3.637   7.030 -1.8853  0.7073  0.8864
  250MOL0     H34482   5.989   3.640   6.944  1.3581  0.7316 -0.5973
  250MOL0     H34483   6.128   3.690   6.753  0.8282 -0.2256 -1.3508
  250MOL0     H34484   6.140   4.136   6.896 -0.3348 -1.3412 -0.5973
  250MOL0     H34485   6.180   3.901   6.892  1.5347 -1.4215  3.5097
  250MOL0     H34486   6.634   3.682   6.965 -1.7866  0.3529 -0.5213
  250MOL0     H34487   6.829   3.545   6.953  0.7567 -0.1811 -1.3015
  250MOL0     H34488   6.944   3.493   6.555 -2.7629  0.6417  1.5045
  250MOL0     H34489   7.003   3.588   6.694  1.6042 -0.3442  0.2448
  250MOL0     H34490   7.185   3.463   6.551 -1.2203 -2.1216 -1.8938
  250MOL0     H34491   7.121   3.319   6.633  2.1103 -1.2409  4.8971
  250MOL0     H34492   7.187   3.540   6.816 -0.6072 -1.9035 -0.7635
  250MOL0     H34493   7.209   3.361   6.823  3.7413 -2.4162 -0.2859
  250MOL0     H34494   7.374   3.409   6.640 -2.3417  0.0604 -1.0601
  250MOL0     H34495   7.433   3.424   6.814 -1.4500  0.0732  0.6788
  250MOL0     H34496   7.465   3.825   6.720  0.1725 -0.6882  1.1305
  250MOL0     H34497   6.726   3.414   6.568 -1.4748 -1.4383  1.0048
  250MOL0     H34498   6.370   3.501   6.566  0.2539 -3.9507  0.2375
  250MOL0     H34499   6.493   3.550   6.460 -0.0344 -1.8027 -1.1117
  250MOL0     H34500   6.495   3.385   6.524 -2.6452 -1.9846  1.3511
  251MOL0     O34501   9.737   7.602   6.792  0.3694  1.0343  0.1432
  251MOL0     C34502   9.689   7.522   6.872  0.1628  0.1832 -1.1043
  251MOL0     O34503   9.704   7.388   6.863 -0.0571 -0.0368  0.2092
  251MOL0     C34504   9.814   7.348   6.789  0.3169  0.6450  0.5000
  251MOL0     C34505   9.888   7.230   6.843  0.4277  1.2653 -0.4681
  251MOL0     C34506   9.980   7.164   6.764  0.1597  0.4327 -0.0696
  251MOL0     C34507  10.001   7.199   6.637  0.2679 -0.1513  0.7321
  251MOL0     O34508  10.091   7.124   6.564  1.1821 -0.1672 -0.2377
  251MOL0     C34509  10.113   7.155   6.428 -0.8222  0.2911  0.1274
  251MOL0     C34510  10.216   7.055   6.353 -0.6136 -0.0446 -0.2894
  251MOL0     C34511  10.366   7.056   6.397  0.4623  1.1791  0.7274
  251MOL0     C34512  10.386   6.962   6.517 -0.1409 -0.3424 -0.2612
  251MOL0     C34513  10.529   6.971   6.581 -0.3957  0.1098  0.6155
  251MOL0     C34514  10.630   6.933   6.462  0.3529  0.3148 -0.1022
  251MOL0     C34515  10.772   6.904   6.523  0.3138 -0.3242 -0.4196
  251MOL0     C34516  10.872   7.018   6.527  0.0533  0.2788  0.1545
  251MOL0     N34517  10.899   7.057   6.388  0.4602 -0.4171  0.0497
  251MOL0     C34518  10.980   6.997   6.295  0.6229 -0.2662  0.3034
  251MOL0     C34519  10.976   7.074   6.181  0.8179 -0.0788 -0.4233
  251MOL0     C34520  11.045   7.042   6.055  0.1206 -0.7380 -0.0693
  251MOL0     C34521  11.175   6.960   6.072 -0.1785  0.0542 -0.4132
  251MOL0     C34522  11.275   7.025   6.162  0.1686  0.2645 -1.5909
  251MOL0     C34523  11.397   6.951   6.135 -0.2761 -0.3934  0.5485
  251MOL0     O34524  11.378   6.806   6.173 -0.6324  0.0440  0.1578
  251MOL0     C34525  11.475   6.725   6.221  0.3805 -0.5041  0.2847
  251MOL0     C34526  11.608   6.755   6.239  0.9082 -0.5468 -0.8002
  251MOL0     C34527  11.692   6.657   6.284 -1.1464  1.2030 -1.2894
  251MOL0     C34528  11.848   6.680   6.304 -0.7134  0.3393  0.7186
  251MOL0     C34529  11.639   6.521   6.307  0.0101  0.8774  0.9252
  251MOL0     C34530  11.716   6.392   6.339 -0.1283 -0.2297  1.1259
  251MOL0     O34531  11.651   6.291   6.401  0.0321 -0.0747  0.7469
  251MOL0     C34532  11.720   6.178   6.419  0.4172  0.3112 -0.2146
  251MOL0     C34533  11.743   6.153   6.557  0.0180  0.7246  0.1968
  251MOL0     C34534  11.813   6.037   6.596  0.1067  0.6711 -0.1908
  251MOL0     C34535  11.855   5.941   6.498  0.7086  0.5453 -0.4436
  251MOL0     O34536  11.929   5.826   6.514  0.9235 -0.5508  0.2685
  251MOL0     C34537  11.938   5.768   6.648  0.3285  0.2443  0.3196
  251MOL0     C34538  12.029   5.638   6.648 -0.1423  0.0757  0.4759
  251MOL0     C34539  12.175   5.675   6.639 -0.3031  0.5072 -0.1316
  251MOL0     C34540  12.275   5.556   6.655 -0.7212 -0.1206  0.6164
  251MOL0     C34541  12.414   5.596   6.599  0.8615  0.0216 -0.0505
  251MOL0     C34542  12.498   5.674   6.708 -0.0976 -0.0819  0.4364
  251MOL0     C34543  12.518   5.581   6.837  0.0766 -0.0347  0.7978
  251MOL0     C34544  12.660   5.606   6.893 -0.3013  0.4946 -0.3961
  251MOL0    Cl34545  12.792   5.501   6.822  0.0204  0.1595 -0.2989
  251MOL0     C34546  11.822   5.964   6.360  0.3463 -0.2652  0.1579
  251MOL0     C34547  11.753   6.080   6.325 -0.0326  0.7068 -1.1852
  251MOL0     O34548  11.839   6.392   6.309  0.9488  0.1894  0.3305
  251MOL0     C34549  11.502   6.501   6.305 -0.1479 -0.6855  1.2915
  251MOL0     C34550  11.416   6.602   6.259 -0.5661  0.5054 -0.6486
  251MOL0     N34551  10.876   7.164   6.194 -0.6465  0.3969 -0.3719
  251MOL0     N34552  10.831   7.156   6.319  0.3647  0.1762 -0.8770
  251MOL0     C34553   9.928   7.304   6.585 -0.2345 -0.0258  0.2003
  251MOL0     C34554   9.837   7.377   6.658 -0.1696  0.1501  1.1039
  251MOL0     C34555   9.610   7.572   6.985 -0.3527 -0.6507 -0.1163
  251MOL0     C34556   9.535   7.482   7.063  0.1359  0.1459 -0.6228
  251MOL0     C34557   9.448   7.524   7.162 -0.5908  0.1612 -0.5160
  251MOL0     C34558   9.420   7.655   7.185  0.4125  0.3402 -1.4646
  251MOL0     O34559   9.318   7.708   7.263 -0.3484 -0.5373 -1.1139
  251MOL0     C34560   9.252   7.620   7.366 -0.0766  0.4467  0.0362
  251MOL0     C34561   9.132   7.546   7.303 -0.0505 -0.0430  0.0941
  251MOL0     C34562   9.046   7.644   7.216  0.0431 -0.1592  0.3666
  251MOL0     C34563   8.917   7.585   7.151 -0.2659 -0.0584 -0.4128
  251MOL0     C34564   8.824   7.543   7.250  0.3403 -0.0640 -0.6722
  251MOL0     C34565   8.741   7.507   7.337  0.3913 -0.3019  0.2672
  251MOL0     C34566   9.486   7.745   7.116  0.0751  0.6715 -0.0123
  251MOL0     C34567   9.594   7.711   7.026  1.1478 -0.3825  0.2779
  251MOL0     C34568   9.663   7.822   6.972 -0.5511 -0.5052 -0.9382
  251MOL0     H34569   9.866   7.198   6.944  0.5034  4.0218  0.5298
  251MOL0     H34570  10.036   7.080   6.801  1.1185  0.0553 -2.2130
  251MOL0     H34571  10.158   7.255   6.433  3.1451 -1.1977 -1.8749
  251MOL0     H34572  10.028   7.155   6.359  0.1701 -0.7374 -1.1410
  251MOL0     H34573  10.179   6.952   6.350 -1.1320  0.1231  0.0304
  251MOL0     H34574  10.225   7.097   6.253 -3.4669 -1.8351 -1.4151
  251MOL0     H34575  10.427   7.020   6.313  1.7434  1.4072  1.5337
  251MOL0     H34576  10.406   7.155   6.420 -1.3979  1.9116  0.9484
  251MOL0     H34577  10.312   6.995   6.591 -1.0785  1.4675 -1.9139
  251MOL0     H34578  10.369   6.858   6.489  1.5837 -0.7259  0.0078
  251MOL0     H34579  10.528   6.899   6.664 -2.5254 -2.7546 -1.6913
  251MOL0     H34580  10.561   7.062   6.633  4.0114  0.1520 -1.6792
  251MOL0     H34581  10.596   6.840   6.416 -0.8502  0.4997  0.3744
  251MOL0     H34582  10.640   7.016   6.391 -0.1575  0.1839 -0.3286
  251MOL0     H34583  10.809   6.826   6.456 -1.6752 -0.9084 -0.8990
  251MOL0     H34584  10.767   6.855   6.621 -2.4626  2.6392  1.1394
  251MOL0     H34585  10.840   7.106   6.585 -0.0743  1.4829 -1.6576
  251MOL0     H34586  10.967   6.982   6.568  0.4003  0.0461 -0.8342
  251MOL0     H34587  11.030   6.901   6.306 -0.2834 -0.5305  2.8869
  251MOL0     H34588  11.080   7.133   6.005 -0.1475  0.5512  1.9866
  251MOL0     H34589  10.990   6.984   5.981  0.6023 -0.7978 -0.3815
  251MOL0     H34590  11.167   6.856   6.103  1.7170  0.4309  1.4800
  251MOL0     H34591  11.226   6.952   5.975  3.0245 -3.1537  1.3138
  251MOL0     H34592  11.303   7.128   6.138 -0.2434  0.5938 -0.7381
  251MOL0     H34593  11.246   7.013   6.267  0.8625 -1.6165 -1.5760
  251MOL0     H34594  11.425   6.952   6.029 -4.0431 -2.7045 -0.6526
  251MOL0     H34595  11.475   6.982   6.205  0.8849 -0.4642 -0.6909
  251MOL0     H34596  11.662   6.844   6.209  2.3970 -1.3760 -0.7081
  251MOL0     H34597  11.884   6.625   6.391  0.6090 -0.4004 -0.2526
  251MOL0     H34598  11.848   6.788   6.321  3.5728  0.4727  0.9071
  251MOL0     H34599  11.912   6.637   6.226 -2.2739 -0.8167  0.0304
  251MOL0     H34600  11.732   6.230   6.632 -0.0086 -1.8895  3.0857
  251MOL0     H34601  11.849   6.016   6.696  3.1020  1.1451 -1.0698
  251MOL0     H34602  11.984   5.840   6.716  1.7730 -0.8020  0.4920
  251MOL0     H34603  11.839   5.732   6.678 -1.4461  0.8477 -4.0214
  251MOL0     H34604  12.024   5.580   6.741 -0.6295 -0.4034  0.1582
  251MOL0     H34605  11.994   5.583   6.561 -1.2710 -1.1074  1.6258
  251MOL0     H34606  12.200   5.753   6.712  1.3218  0.9573 -1.1200
  251MOL0     H34607  12.194   5.732   6.548 -0.1714 -1.6989 -1.5437
  251MOL0     H34608  12.233   5.490   6.579  2.1653  2.6405 -3.8274
  251MOL0     H34609  12.282   5.505   6.752  1.2984 -2.3797 -0.6218
  251MOL0     H34610  12.472   5.504   6.587  0.3279 -0.5261  1.3150
  251MOL0     H34611  12.410   5.663   6.513 -2.0094  1.3591  1.0003
  251MOL0     H34612  12.456   5.770   6.739 -2.1131 -0.7133 -0.1909
  251MOL0     H34613  12.595   5.695   6.661 -0.8925  1.7551 -0.5265
  251MOL0     H34614  12.522   5.477   6.802  1.2060  1.2598 -3.5329
  251MOL0     H34615  12.455   5.601   6.924 -1.2393 -0.4052 -0.0567
  251MOL0     H34616  12.658   5.587   7.000 -0.8532 -2.3511 -0.8479
  251MOL0     H34617  12.682   5.713   6.880  2.1805 -0.1140 -1.8163
  251MOL0     H34618  11.850   5.891   6.286  3.0791 -1.5944  2.3121
  251MOL0     H34619  11.723   6.115   6.227  0.2753 -0.3216 -1.6552
  251MOL0     H34620  11.459   6.403   6.319  1.2678 -1.3189  1.3953
  251MOL0     H34621  11.314   6.573   6.233  0.1343 -1.1890 -1.6271
  251MOL0     H34622   9.937   7.340   6.483 -4.7064  1.8410  0.2363
  251MOL0     H34623   9.780   7.457   6.613 -1.1595 -0.4132  1.3155
  251MOL0     H34624   9.536   7.374   7.052  0.9963 -0.0462  1.0715
  251MOL0     H34625   9.401   7.440   7.211 -0.0967  0.2020  0.0491
  251MOL0     H34626   9.315   7.543   7.411  0.5137 -0.7298 -2.6449
  251MOL0     H34627   9.222   7.669   7.460 -1.0528  0.0632 -0.0599
  251MOL0     H34628   9.067   7.509   7.384  1.6329 -2.6089  0.3838
  251MOL0     H34629   9.167   7.462   7.242 -3.5377 -1.1063 -0.7157
  251MOL0     H34630   9.016   7.730   7.277 -1.8113 -0.2844 -0.3103
  251MOL0     H34631   9.107   7.676   7.132 -0.0346  0.9026  0.6977
  251MOL0     H34632   8.931   7.502   7.081 -2.8148 -0.4707 -0.5251
  251MOL0     H34633   8.862   7.662   7.096 -1.6228 -0.4906  0.2990
  251MOL0     H34634   8.654   7.491   7.397 -2.3073 -0.0779 -3.2433
  251MOL0     H34635   9.457   7.848   7.128 -2.4016  0.1082 -0.6211
  251MOL0     H34636   9.626   7.842   6.871 -0.7399  2.5191 -0.3817
  251MOL0     H34637   9.665   7.920   7.020  3.4065 -1.3636  1.0585
  251MOL0     H34638   9.770   7.803   6.974 -0.2906  0.6326  1.9290
  252MOL0     O34639  10.087   0.913  10.574  0.9345  0.1023 -0.4460
  252MOL0     C34640  10.159   0.957  10.665  0.2537 -1.1310 -0.4162
  252MOL0     O34641  10.280   0.905  10.703 -0.1746 -0.3532  0.3365
  252MOL0     C34642  10.322   0.779  10.668  0.0108 -0.3159 -0.3714
  252MOL0     C34643  10.456   0.751  10.645  0.5868 -0.9029  0.3392
  252MOL0     C34644  10.493   0.619  10.618 -0.3574 -0.2614 -0.6395
  252MOL0     C34645  10.397   0.507  10.615  0.0340  0.2253 -0.5405
  252MOL0     O34646  10.431   0.382  10.578  0.0301  0.3301  0.3829
  252MOL0     C34647  10.496   0.381  10.453 -0.1720  0.0211  0.4366
  252MOL0     C34648  10.481   0.250  10.371 -0.4155  0.1010 -0.6719
  252MOL0     C34649  10.597   0.215  10.275 -0.0154 -0.6516  0.4190
  252MOL0     C34650  10.583   0.072  10.226 -0.7288 -0.9157 -1.1274
  252MOL0     C34651  10.700   0.037  10.124  1.0518  0.3486 -0.0834
  252MOL0     C34652  10.674  -0.113  10.089 -0.4378  0.3428  0.7256
  252MOL0     C34653  10.795  -0.159  10.007  0.8583 -0.3466 -0.4991
  252MOL0     C34654  10.763  -0.304   9.975  0.3285 -0.1124 -0.0739
  252MOL0     N34655  10.861  -0.361   9.877 -0.4718  0.2787  0.7578
  252MOL0     C34656  10.852  -0.401   9.750 -0.1701 -0.4100  0.0600
  252MOL0     C34657  10.974  -0.450   9.713 -0.8573 -0.9085  0.5426
  252MOL0     C34658  11.028  -0.488   9.581 -0.0797 -0.4782 -0.3488
  252MOL0     C34659  10.982  -0.629   9.535  0.1099 -0.9168 -0.3239
  252MOL0     C34660  11.024  -0.731   9.642  0.8019  0.3058  1.4151
  252MOL0     C34661  11.008  -0.876   9.598  0.4045  0.0834  0.7214
  252MOL0     O34662  11.099  -0.921   9.501  0.5816  0.2197 -0.0423
  252MOL0     C34663  11.232  -0.891   9.512  0.2338  0.0811  0.3271
  252MOL0     C34664  11.305  -0.827   9.413  1.0395 -0.5302  0.2444
  252MOL0     C34665  11.438  -0.808   9.417  0.1147  0.2465  0.5327
  252MOL0     C34666  11.496  -0.752   9.287 -0.4670  0.4558  0.9282
  252MOL0     C34667  11.508  -0.837   9.535 -1.2986  0.5901 -1.1420
  252MOL0     C34668  11.660  -0.811   9.559 -0.1754  0.6240  0.2235
  252MOL0     O34669  11.744  -0.792   9.446  0.9482 -0.7436  0.8542
  252MOL0     C34670  11.834  -0.687   9.451 -0.9741  0.5565  0.7448
  252MOL0     C34671  11.796  -0.558   9.479  0.3486  0.1439  0.3445
  252MOL0     C34672  11.880  -0.452   9.458  0.1582  0.2979 -0.7280
  252MOL0     C34673  12.015  -0.473   9.422  0.3527  0.9606 -1.3728
  252MOL0     O34674  12.089  -0.366   9.437 -0.6127  0.3101  0.2651
  252MOL0     C34675  12.203  -0.370   9.349 -0.4653  0.5003 -1.0759
  252MOL0     C34676  12.267  -0.229   9.349  0.4395  1.5044  0.4600
  252MOL0     C34677  12.179  -0.119   9.286  0.2791  0.0654 -0.1735
  252MOL0     C34678  12.061  -0.169   9.202  0.1454 -0.2842 -0.6410
  252MOL0     C34679  11.976  -0.054   9.147  0.3664  0.2457  0.7674
  252MOL0     C34680  11.853  -0.109   9.070  0.3719  0.1830 -0.7363
  252MOL0     C34681  11.745  -0.004   9.076 -0.5887 -0.3079  0.4096
  252MOL0     C34682  11.655  -0.017   9.199  0.3645  0.4225  0.6944
  252MOL0    Cl34683  11.508   0.074   9.175 -0.0733 -0.6326 -0.5955
  252MOL0     C34684  12.055  -0.601   9.382 -0.4104 -0.4297  0.6516
  252MOL0     C34685  11.967  -0.711   9.403  1.3190 -0.3323 -0.1374
  252MOL0     O34686  11.711  -0.813   9.673 -0.3170 -0.4385  0.2449
  252MOL0     C34687  11.434  -0.899   9.642 -0.7733 -0.6604  0.4893
  252MOL0     C34688  11.298  -0.924   9.636 -0.3538 -0.0356  0.5778
  252MOL0     N34689  11.058  -0.420   9.816 -0.1178 -0.2900 -0.1011
  252MOL0     N34690  10.989  -0.383   9.917  0.4608 -0.7126 -0.3280
  252MOL0     C34691  10.266   0.541  10.647  0.8721  0.1598 -0.0543
  252MOL0     C34692  10.229   0.671  10.675 -0.0227 -0.0633 -0.4692
  252MOL0     C34693  10.127   1.089  10.733 -0.8633 -0.5371 -0.5892
  252MOL0     C34694  10.187   1.125  10.862 -0.0918  0.0738 -0.5610
  252MOL0     C34695  10.154   1.242  10.926 -0.4277 -0.6090 -0.1328
  252MOL0     C34696  10.078   1.340  10.867  0.1105  0.1856 -0.5800
  252MOL0     O34697  10.046   1.462  10.915 -0.2238 -0.0807  0.1580
  252MOL0     C34698  10.161   1.536  10.972  0.7752 -0.1539  0.7275
  252MOL0     C34699  10.109   1.652  11.050  1.1481 -0.6318 -0.4327
  252MOL0     C34700   9.980   1.626  11.133 -0.6429 -0.2425 -0.4123
  252MOL0     C34701   9.988   1.508  11.236 -0.9060  0.2172 -0.0550
  252MOL0     C34702  10.117   1.506  11.314  0.0049 -0.4918  0.4055
  252MOL0     C34703  10.220   1.507  11.382  0.0841 -0.6979 -0.3451
  252MOL0     C34704  10.024   1.312  10.741 -0.3740  0.6350 -0.3117
  252MOL0     C34705  10.048   1.189  10.674  0.3283  0.9414  0.5047
  252MOL0     C34706  10.019   1.196  10.522  0.2306  0.3051 -0.3717
  252MOL0     H34707  10.535   0.825  10.648 -0.5094  0.4391 -1.3744
  252MOL0     H34708  10.596   0.587  10.608 -0.6729 -1.2899 -0.7104
  252MOL0     H34709  10.605   0.393  10.454  0.0620 -1.7989  0.0198
  252MOL0     H34710  10.458   0.467  10.396 -3.3406  1.1869  3.9113
  252MOL0     H34711  10.474   0.167  10.442  0.7672  0.0342 -0.6141
  252MOL0     H34712  10.387   0.262  10.315  0.9407  4.8572 -2.4037
  252MOL0     H34713  10.598   0.278  10.186 -1.8508  0.5914  1.2235
  252MOL0     H34714  10.691   0.223  10.330 -0.3743 -1.7216  1.2297
  252MOL0     H34715  10.587   0.019  10.322 -0.1882  1.8175  0.4663
  252MOL0     H34716  10.488   0.045  10.179 -0.9531 -0.7555 -0.7685
  252MOL0     H34717  10.796   0.049  10.175  1.1060 -0.1472 -0.0639
  252MOL0     H34718  10.695   0.102  10.036  2.2137  1.1153  0.3965
  252MOL0     H34719  10.668  -0.179  10.176  2.5485 -3.1297 -1.3838
  252MOL0     H34720  10.581  -0.124  10.034 -1.2686  2.4313  1.6083
  252MOL0     H34721  10.887  -0.161  10.067 -1.2969 -0.6806  3.0917
  252MOL0     H34722  10.791  -0.100   9.915 -0.9988 -0.8210 -0.7707
  252MOL0     H34723  10.763  -0.370  10.061  0.6991 -1.5366 -1.1287
  252MOL0     H34724  10.669  -0.310   9.920  0.0713 -1.7671  0.5210
  252MOL0     H34725  10.764  -0.401   9.687  1.0901 -0.7394 -1.8184
  252MOL0     H34726  11.137  -0.493   9.579 -0.1399 -3.8370 -1.4300
  252MOL0     H34727  10.996  -0.407   9.514  1.7382 -0.2405 -0.9849
  252MOL0     H34728  10.873  -0.634   9.531  0.1800 -2.1782 -2.2532
  252MOL0     H34729  11.018  -0.647   9.433  0.7597  0.5729 -0.3773
  252MOL0     H34730  11.124  -0.706   9.680  0.3676 -1.2390  3.8329
  252MOL0     H34731  10.954  -0.722   9.726 -2.2440 -0.1325 -0.9533
  252MOL0     H34732  11.024  -0.935   9.689  2.4447 -0.3182  0.1721
  252MOL0     H34733  10.907  -0.889   9.559 -1.2485  4.2384  3.1283
  252MOL0     H34734  11.260  -0.828   9.314 -0.4077 -0.6711  0.8874
  252MOL0     H34735  11.551  -0.664   9.322  0.5544  0.3957 -0.4666
  252MOL0     H34736  11.428  -0.722   9.207  0.0213 -1.8542 -0.4355
  252MOL0     H34737  11.571  -0.823   9.253 -0.3776  0.2516  1.5330
  252MOL0     H34738  11.691  -0.549   9.506  0.1287 -0.0741 -0.4068
  252MOL0     H34739  11.859  -0.351   9.493 -0.4568 -0.3650  0.9266
  252MOL0     H34740  12.281  -0.438   9.383  0.5048  0.8619 -2.5228
  252MOL0     H34741  12.182  -0.390   9.244  0.2525  0.0554 -1.1392
  252MOL0     H34742  12.291  -0.205   9.453 -0.3599 -1.0045  1.2837
  252MOL0     H34743  12.357  -0.214   9.287 -1.3860  2.3099 -2.1703
  252MOL0     H34744  12.252  -0.065   9.225  1.7074  0.5061  1.8090
  252MOL0     H34745  12.135  -0.054   9.362 -1.3268 -0.9794 -0.1419
  252MOL0     H34746  12.003  -0.237   9.266  0.1021 -0.1595 -0.5480
  252MOL0     H34747  12.094  -0.230   9.118  1.1158  0.5889 -0.9153
  252MOL0     H34748  11.946   0.024   9.218 -0.9392  1.3331 -0.8822
  252MOL0     H34749  12.037   0.003   9.075  1.7762 -0.8775  1.0387
  252MOL0     H34750  11.816  -0.203   9.114 -1.1736  1.3236  0.4909
  252MOL0     H34751  11.880  -0.129   8.965 -2.7119 -2.1398 -1.2528
  252MOL0     H34752  11.682  -0.025   8.989 -0.1453  0.1164 -0.0192
  252MOL0     H34753  11.776   0.101   9.076 -0.4219 -0.2455  3.5985
  252MOL0     H34754  11.710   0.023   9.286  1.6171 -1.3937  0.7774
  252MOL0     H34755  11.629  -0.121   9.222 -1.2283  1.1398  2.4554
  252MOL0     H34756  12.160  -0.609   9.356 -0.1611  3.9215 -0.4588
  252MOL0     H34757  11.991  -0.817   9.394  1.7283 -0.1443 -1.3556
  252MOL0     H34758  11.486  -0.932   9.732 -2.6138 -0.5644  1.6424
  252MOL0     H34759  11.244  -0.964   9.722 -3.4558 -0.4485 -1.3820
  252MOL0     H34760  10.187   0.468  10.651 -1.6426  2.7345  0.3769
  252MOL0     H34761  10.126   0.699  10.693  0.2391  1.3441 -1.0826
  252MOL0     H34762  10.256   1.072  10.927 -2.3002 -0.3616  1.6014
  252MOL0     H34763  10.198   1.263  11.023 -2.3909 -0.5240  0.7956
  252MOL0     H34764  10.223   1.477  11.040  0.9094  0.4029  1.0946
  252MOL0     H34765  10.220   1.576  10.889  1.8733  1.0626  2.0510
  252MOL0     H34766  10.098   1.736  10.980  1.8622 -0.9813 -0.9718
  252MOL0     H34767  10.191   1.692  11.111 -0.8204  2.3077  0.5584
  252MOL0     H34768   9.950   1.719  11.183  0.0066 -0.2581  0.0139
  252MOL0     H34769   9.897   1.588  11.072  0.0166 -4.2456  0.8951
  252MOL0     H34770   9.979   1.407  11.196  1.9081  0.0086 -0.4104
  252MOL0     H34771   9.900   1.522  11.299  0.7095  4.9185  1.6314
  252MOL0     H34772  10.303   1.487  11.447 -0.6298  1.8885  1.5344
  252MOL0     H34773   9.974   1.393  10.689  1.0750  0.9992 -1.1875
  252MOL0     H34774   9.934   1.130  10.503  2.0188 -1.5014 -2.6058
  252MOL0     H34775  10.001   1.300  10.494 -1.6056  0.3489  0.7822
  252MOL0     H34776  10.103   1.167  10.458  1.3252 -4.5367  2.7470
  253MOL0     O34777   2.304  10.823  10.818 -1.2742  0.3770  0.4438
  253MOL0     C34778   2.395  10.845  10.729 -0.7813 -0.7650  0.3522
  253MOL0     O34779   2.453  10.965  10.703 -0.2607  0.4320  0.0568
  253MOL0     C34780   2.397  11.079  10.755  0.2735  0.2734 -0.3811
  253MOL0     C34781   2.333  11.166  10.669 -0.8203  0.4925  0.1757
  253MOL0     C34782   2.276  11.279  10.728 -0.1344  0.1497 -0.7595
  253MOL0     C34783   2.276  11.299  10.871  0.9537  0.6586  0.5986
  253MOL0     O34784   2.214  11.404  10.932  0.7295  0.4538  0.6999
  253MOL0     C34785   2.076  11.428  10.879 -0.3159  0.3045 -0.2113
  253MOL0     C34786   1.992  11.504  10.982  0.5966 -0.1548 -0.1813
  253MOL0     C34787   1.849  11.505  10.931 -0.2622 -0.8420 -0.8511
  253MOL0     C34788   1.754  11.591  11.021  0.0490  0.5818  0.1800
  253MOL0     C34789   1.605  11.551  11.028  0.0960  0.0123 -0.3960
  253MOL0     C34790   1.520  11.592  10.910 -0.0866 -0.6259 -0.5010
  253MOL0     C34791   1.507  11.741  10.882 -0.2393 -0.0625 -0.4149
  253MOL0     C34792   1.376  11.790  10.848  0.2309  0.8316 -0.2835
  253MOL0     N34793   1.340  11.733  10.722 -0.6819 -0.6414  0.4286
  253MOL0     C34794   1.276  11.616  10.701 -0.8049  0.0155 -0.4531
  253MOL0     C34795   1.240  11.618  10.578 -0.9254 -0.1002  0.5248
  253MOL0     C34796   1.150  11.527  10.499 -0.8890  1.6271  0.8453
  253MOL0     C34797   1.015  11.599  10.485  0.3070  0.2592  0.2607
  253MOL0     C34798   0.929  11.574  10.604 -0.1709 -0.0509 -0.0567
  253MOL0     C34799   0.818  11.674  10.622  0.1990  0.4399 -0.4143
  253MOL0     O34800   0.745  11.697  10.497 -0.4110  0.1781 -0.2975
  253MOL0     C34801   0.702  11.827  10.471 -0.7846  0.1546  0.0594
  253MOL0     C34802   0.573  11.846  10.417  0.1684 -0.9289  0.4100
  253MOL0     C34803   0.521  11.971  10.388  0.1617 -0.1880  0.1095
  253MOL0     C34804   0.390  11.972  10.313 -0.5021  0.1917  0.5666
  253MOL0     C34805   0.593  12.084  10.415 -0.6146 -0.0409 -0.8438
  253MOL0     C34806   0.547  12.229  10.397  0.8413  0.2256  0.3922
  253MOL0     O34807   0.409  12.247  10.366 -0.1029 -0.4235 -0.0357
  253MOL0     C34808   0.377  12.375  10.328 -1.3403 -0.0226  0.0645
  253MOL0     C34809   0.293  12.388  10.220  0.2394  0.3463  0.3339
  253MOL0     C34810   0.263  12.514  10.176  0.1774  0.8785 -0.9157
  253MOL0     C34811   0.298  12.631  10.247 -0.0155  0.2897  0.4573
  253MOL0     O34812   0.268  12.753  10.187 -0.7919  0.1824 -0.0728
  253MOL0     C34813   0.273  12.870  10.266 -0.0409 -0.3019  0.5777
  253MOL0     C34814   0.208  12.981  10.181 -0.9554 -0.3190  0.8344
  253MOL0     C34815   0.306  13.034  10.067 -0.6813  0.1823  0.3868
  253MOL0     C34816   0.416  13.121  10.121 -0.0936  0.0842 -0.5325
  253MOL0     C34817   0.534  13.139  10.021  0.1020  0.6615  0.6430
  253MOL0     C34818   0.652  13.217  10.087  0.6719  0.6077 -0.2513
  253MOL0     C34819   0.773  13.255   9.998  0.7865 -0.1360 -0.2534
  253MOL0     C34820   0.892  13.150   9.993  0.7458 -0.0380  0.3886
  253MOL0    Cl34821   0.979  13.133  10.140 -0.4219 -0.1065 -0.3228
  253MOL0     C34822   0.363  12.613  10.367  0.2178  0.2492  0.8211
  253MOL0     C34823   0.394  12.482  10.412 -0.5241 -0.0178  0.8510
  253MOL0     O34824   0.630  12.318  10.405  0.7176  0.1557 -0.3445
  253MOL0     C34825   0.718  12.067  10.475 -0.5214 -0.6044 -0.8940
  253MOL0     C34826   0.768  11.941  10.507  0.6086  0.8692 -0.3417
  253MOL0     N34827   1.305  11.728  10.523  0.4758 -0.4666 -0.1524
  253MOL0     N34828   1.369  11.800  10.608  0.0760 -0.3630 -0.7166
  253MOL0     C34829   2.331  11.206  10.959  0.0559  0.4629  0.0867
  253MOL0     C34830   2.390  11.095  10.897  0.3761  0.4444  1.6088
  253MOL0     C34831   2.435  10.731  10.648  0.3913  0.8989 -0.8936
  253MOL0     C34832   2.487  10.622  10.721 -0.2463 -0.8972  0.4556
  253MOL0     C34833   2.531  10.511  10.655 -0.4369  0.7815  0.0143
  253MOL0     C34834   2.509  10.490  10.518 -0.6225  0.2922  0.4973
  253MOL0     O34835   2.543  10.381  10.440 -0.7780 -0.0308 -0.8142
  253MOL0     C34836   2.437  10.307  10.375 -0.1916  0.8639 -0.1632
  253MOL0     C34837   2.356  10.220  10.468  0.0116  0.2155  0.1152
  253MOL0     C34838   2.238  10.166  10.387 -0.0031 -0.2126 -0.0948
  253MOL0     C34839   2.147  10.052  10.437  0.2623 -0.3528 -0.0567
  253MOL0     C34840   2.237   9.944  10.485  0.1237 -0.3787  0.1076
  253MOL0     C34841   2.320   9.864  10.519 -0.3162 -0.2927  0.9160
  253MOL0     C34842   2.450  10.597  10.448  0.3892 -0.2551  0.3284
  253MOL0     C34843   2.413  10.717  10.507  0.4640 -0.4258 -0.2328
  253MOL0     C34844   2.345  10.823  10.418 -0.0717  0.3011 -0.1821
  253MOL0     H34845   2.345  11.151  10.562  0.7279  0.0907  0.3787
  253MOL0     H34846   2.214  11.326  10.652  0.3542  0.8290 -0.7492
  253MOL0     H34847   2.032  11.329  10.866 -0.1243  0.1520  0.2736
  253MOL0     H34848   2.083  11.480  10.784  0.2287  0.9724  0.1851
  253MOL0     H34849   1.995  11.457  11.080 -2.6721 -0.6826 -0.2429
  253MOL0     H34850   2.021  11.607  11.003 -2.7787  1.2246 -1.6344
  253MOL0     H34851   1.835  11.550  10.832 -3.1710  0.2334 -0.0643
  253MOL0     H34852   1.813  11.402  10.935 -0.2789 -0.7909  1.5256
  253MOL0     H34853   1.790  11.576  11.123  2.3485 -1.2828 -0.8174
  253MOL0     H34854   1.773  11.694  10.988 -0.3204  0.8389  0.7462
  253MOL0     H34855   1.556  11.592  11.116 -3.4874 -0.6633 -1.8843
  253MOL0     H34856   1.606  11.441  11.030 -0.6543 -0.0174 -1.0442
  253MOL0     H34857   1.553  11.551  10.814 -0.0699  0.7052 -1.0915
  253MOL0     H34858   1.427  11.551  10.950  1.6585 -2.7721  1.7051
  253MOL0     H34859   1.557  11.759  10.786 -0.6763  2.8111 -0.1802
  253MOL0     H34860   1.550  11.807  10.958  1.1135 -0.9855 -0.3295
  253MOL0     H34861   1.294  11.755  10.911 -0.5507  1.0034 -1.1802
  253MOL0     H34862   1.375  11.899  10.847  0.8277  0.8475  0.0417
  253MOL0     H34863   1.255  11.526  10.758  1.9689 -1.4694 -1.5130
  253MOL0     H34864   1.160  11.429  10.548 -0.9381  0.5370 -1.2197
  253MOL0     H34865   1.196  11.516  10.401  1.2926  0.1992  1.9539
  253MOL0     H34866   1.027  11.707  10.490 -1.8187  0.5002  1.1030
  253MOL0     H34867   0.953  11.578  10.397  0.0079  1.2571  0.2197
  253MOL0     H34868   0.877  11.481  10.580  0.4613  0.2088 -2.7938
  253MOL0     H34869   0.983  11.551  10.696 -0.3686 -2.4952 -0.4845
  253MOL0     H34870   0.744  11.641  10.696 -1.0451  3.2362 -0.3009
  253MOL0     H34871   0.844  11.767  10.673 -1.3782  0.8035 -0.2131
  253MOL0     H34872   0.517  11.761  10.381 -1.3812  0.4216 -0.4811
  253MOL0     H34873   0.356  11.870  10.292  0.7513 -0.1053 -0.1426
  253MOL0     H34874   0.404  12.044  10.232 -1.3574  1.1521  1.2534
  253MOL0     H34875   0.319  12.015  10.383 -0.5522 -2.5812  2.3683
  253MOL0     H34876   0.268  12.304  10.156  1.1178  0.1544  0.2416
  253MOL0     H34877   0.228  12.516  10.074  1.1307 -4.0892 -1.5664
  253MOL0     H34878   0.230  12.864  10.366 -1.4909 -3.6012 -0.1058
  253MOL0     H34879   0.378  12.894  10.286 -0.8767  1.8448  3.0619
  253MOL0     H34880   0.125  12.934  10.126  1.5900 -2.9147 -1.1000
  253MOL0     H34881   0.171  13.069  10.235 -0.8455  0.4674 -0.3243
  253MOL0     H34882   0.237  13.084   9.998 -2.8608 -0.2100  2.1748
  253MOL0     H34883   0.345  12.943  10.018 -2.9527 -1.6842  1.8237
  253MOL0     H34884   0.453  13.103  10.222  0.9778 -1.7907 -1.2094
  253MOL0     H34885   0.366  13.217  10.138 -0.5792 -0.3942  0.8145
  253MOL0     H34886   0.576  13.044   9.987  2.2483  0.9512  2.2322
  253MOL0     H34887   0.490  13.196   9.938 -1.1662 -1.6091 -0.3244
  253MOL0     H34888   0.691  13.153  10.167 -0.1498 -0.3899 -0.6259
  253MOL0     H34889   0.612  13.308  10.131  0.6096 -0.3127  1.6996
  253MOL0     H34890   0.814  13.347  10.041 -0.8912  0.2649  0.5970
  253MOL0     H34891   0.736  13.283   9.898  0.4605 -0.0051 -0.1006
  253MOL0     H34892   0.959  13.173   9.910 -1.8064 -0.6994 -2.0282
  253MOL0     H34893   0.844  13.054   9.971 -0.2904  0.4714  0.3160
  253MOL0     H34894   0.401  12.700  10.419  3.3538  0.0447 -0.9246
  253MOL0     H34895   0.431  12.475  10.513 -0.8311  2.6880  1.2039
  253MOL0     H34896   0.783  12.149  10.504 -2.2121  0.1858  0.8560
  253MOL0     H34897   0.863  11.919  10.554 -0.3459 -1.2756  0.7025
  253MOL0     H34898   2.339  11.219  11.067  1.3332 -0.5392  0.1437
  253MOL0     H34899   2.445  11.030  10.963  2.1034 -0.4473 -0.5754
  253MOL0     H34900   2.497  10.621  10.829  2.7439 -2.2221  0.2434
  253MOL0     H34901   2.584  10.436  10.713  0.0745  0.7165 -0.5272
  253MOL0     H34902   2.368  10.373  10.321 -0.0740  0.2057 -1.1495
  253MOL0     H34903   2.464  10.244  10.290 -3.2641  0.7556 -1.1945
  253MOL0     H34904   2.317  10.269  10.558 -2.3381 -3.4235  1.3551
  253MOL0     H34905   2.420  10.136  10.497 -0.5513  0.1861  1.3626
  253MOL0     H34906   2.176  10.254  10.365 -2.3368 -1.1253  2.2238
  253MOL0     H34907   2.269  10.120  10.293 -0.5648  1.1824 -1.0063
  253MOL0     H34908   2.089  10.016  10.352  0.0781 -2.5063  0.8955
  253MOL0     H34909   2.078  10.085  10.515 -0.0012 -0.0552 -0.4204
  253MOL0     H34910   2.398   9.800  10.556  0.0226 -1.2764 -1.3109
  253MOL0     H34911   2.435  10.594  10.341  1.0281  0.9709  0.1872
  253MOL0     H34912   2.259  10.859  10.474  0.4918 -0.9002  1.5358
  253MOL0     H34913   2.402  10.916  10.407  0.3940 -0.1936 -2.6977
  253MOL0     H34914   2.323  10.782  10.319 -1.7105 -3.4264  1.5288
  254MOL0     O34915   5.510  10.374   6.463 -0.5815 -0.0680  0.4280
  254MOL0     C34916   5.414  10.357   6.388  0.9506 -0.4569 -0.4180
  254MOL0     O34917   5.352  10.238   6.354 -0.3279  0.3754  0.4633
  254MOL0     C34918   5.416  10.122   6.399  1.1199  0.6633 -1.0222
  254MOL0     C34919   5.345  10.035   6.481 -0.0392  1.0572  0.6877
  254MOL0     C34920   5.420   9.931   6.535 -0.1882 -0.0764 -0.8312
  254MOL0     C34921   5.563   9.915   6.522 -0.0508 -0.2293  0.9909
  254MOL0     O34922   5.644   9.824   6.594 -0.4587  0.3258 -0.0547
  254MOL0     C34923   5.594   9.741   6.702 -0.4469  0.5561 -1.9795
  254MOL0     C34924   5.589   9.595   6.668 -0.3964 -0.1941  0.0756
  254MOL0     C34925   5.465   9.551   6.579 -0.0008  1.1966  0.4321
  254MOL0     C34926   5.469   9.405   6.536  0.5471  0.7461 -0.0951
  254MOL0     C34927   5.524   9.368   6.401  0.5431  0.3946  0.6644
  254MOL0     C34928   5.469   9.222   6.385  0.0977 -0.3896  0.4949
  254MOL0     C34929   5.523   9.144   6.256 -0.2212  0.6715 -0.6717
  254MOL0     C34930   5.446   9.015   6.234  0.3889  0.2957 -0.7003
  254MOL0     N34931   5.518   8.933   6.133 -0.3387 -0.9229 -0.4152
  254MOL0     C34932   5.584   8.818   6.166  0.6896 -0.5675 -0.5588
  254MOL0     C34933   5.636   8.770   6.053 -0.3484 -0.1064  0.4300
  254MOL0     C34934   5.725   8.645   6.033 -0.3290  0.5632 -0.0874
  254MOL0     C34935   5.637   8.523   6.009  0.2433 -0.8312  0.2953
  254MOL0     C34936   5.715   8.404   5.948 -0.5188 -0.5233  0.2671
  254MOL0     C34937   5.628   8.303   5.872  0.2461  0.6439  0.1283
  254MOL0     O34938   5.541   8.230   5.965  0.5159 -0.7530 -0.7497
  254MOL0     C34939   5.419   8.196   5.901  0.6209 -0.0343 -0.3122
  254MOL0     C34940   5.424   8.100   5.794 -0.7982  0.4106 -0.5129
  254MOL0     C34941   5.312   8.069   5.722 -1.1500 -0.1655  0.1757
  254MOL0     C34942   5.338   7.993   5.593 -0.1356 -0.0846 -0.7097
  254MOL0     C34943   5.189   8.114   5.763 -0.4188 -0.6119  0.7339
  254MOL0     C34944   5.065   8.099   5.685  0.3342  0.7332 -0.1947
  254MOL0     O34945   5.072   8.056   5.557  0.2591 -0.4933 -0.5684
  254MOL0     C34946   4.961   8.025   5.485  0.2552 -0.2511 -0.0455
  254MOL0     C34947   4.878   7.906   5.496 -0.6074  0.2439 -0.1188
  254MOL0     C34948   4.771   7.884   5.420  0.3943  0.0021 -0.1786
  254MOL0     C34949   4.730   7.983   5.330 -0.4586  0.1274 -0.6627
  254MOL0     O34950   4.641   7.927   5.251  1.1542  0.3821  0.4830
  254MOL0     C34951   4.574   8.018   5.168  0.0725 -0.2574  0.2291
  254MOL0     C34952   4.476   7.922   5.084  0.0247  0.5175  0.9273
  254MOL0     C34953   4.370   7.998   4.999  0.3295 -0.1521  0.5179
  254MOL0     C34954   4.243   7.924   4.958  0.0548  1.3903 -0.9969
  254MOL0     C34955   4.118   8.005   4.915 -0.0236  0.0433 -0.6115
  254MOL0     C34956   4.049   8.074   5.028 -0.6207 -0.5817 -0.1069
  254MOL0     C34957   3.928   8.146   4.962 -0.7476  0.4402 -0.1490
  254MOL0     C34958   3.849   8.210   5.078 -0.6912 -0.8087  0.6635
  254MOL0    Cl34959   3.928   8.358   5.146 -0.2900 -0.0202 -0.0285
  254MOL0     C34960   4.799   8.105   5.322 -0.9544 -0.4881  0.3704
  254MOL0     C34961   4.918   8.127   5.395  0.3481  0.3346  0.1225
  254MOL0     O34962   4.958   8.132   5.735 -0.5012 -0.8277  0.7956
  254MOL0     C34963   5.189   8.188   5.884 -0.7911 -0.3114  0.0362
  254MOL0     C34964   5.303   8.236   5.949  0.1718 -0.1317  0.0687
  254MOL0     N34965   5.596   8.854   5.949  0.2853  0.2950 -0.1698
  254MOL0     N34966   5.524   8.952   5.996 -0.3459  0.2425  0.2817
  254MOL0     C34967   5.628   9.996   6.428 -0.0171 -0.6105  0.0148
  254MOL0     C34968   5.552  10.096   6.369  0.3843 -0.1690 -0.6101
  254MOL0     C34969   5.336  10.473   6.340 -0.3492 -0.3091 -0.0960
  254MOL0     C34970   5.261  10.467   6.221  0.0505  0.4638 -0.5583
  254MOL0     C34971   5.196  10.577   6.176  0.7810 -0.3852 -0.8054
  254MOL0     C34972   5.191  10.691   6.257 -0.3393 -0.1846  0.1325
  254MOL0     O34973   5.111  10.801   6.209  0.2544 -0.0660  0.1582
  254MOL0     C34974   4.964  10.782   6.232 -0.0260  0.3669  1.1549
  254MOL0     C34975   4.881  10.817   6.108  0.1154 -0.2389 -0.2214
  254MOL0     C34976   4.896  10.964   6.057 -0.0712 -0.6177  0.5566
  254MOL0     C34977   4.800  11.015   5.947  0.9151  0.2582  0.0475
  254MOL0     C34978   4.666  11.033   6.007 -0.5863  0.0776  0.2249
  254MOL0     C34979   4.558  11.057   6.062 -0.6808 -0.4759 -0.4843
  254MOL0     C34980   5.261  10.713   6.376 -0.7012  0.0135 -0.1922
  254MOL0     C34981   5.331  10.600   6.418 -0.4881 -0.6080 -0.2082
  254MOL0     C34982   5.404  10.625   6.546  0.9318 -0.3036 -0.2347
  254MOL0     H34983   5.240  10.045   6.506 -2.0777 -0.4047 -5.5890
  254MOL0     H34984   5.374   9.866   6.610 -2.8359 -0.6980 -2.8382
  254MOL0     H34985   5.497   9.769   6.743 -0.3705  0.6558 -1.8675
  254MOL0     H34986   5.663   9.756   6.786 -0.0203  0.5230 -2.3203
  254MOL0     H34987   5.675   9.554   6.615 -0.3073  1.4025 -1.0824
  254MOL0     H34988   5.575   9.536   6.759 -1.6511 -0.0223  0.0147
  254MOL0     H34989   5.366   9.566   6.623  0.0257  1.1280  0.5165
  254MOL0     H34990   5.459   9.614   6.489 -1.1361  1.1478  0.4630
  254MOL0     H34991   5.528   9.361   6.618 -2.4433  0.0355  1.8190
  254MOL0     H34992   5.373   9.357   6.555  1.2093 -2.0534 -2.8386
  254MOL0     H34993   5.632   9.383   6.387  0.5358 -1.1955 -1.5362
  254MOL0     H34994   5.466   9.427   6.329 -1.2777 -0.9830  0.9491
  254MOL0     H34995   5.489   9.166   6.476 -0.5966 -2.8222 -0.7715
  254MOL0     H34996   5.361   9.233   6.374  0.2137  0.3129 -0.0193
  254MOL0     H34997   5.629   9.133   6.280 -0.2390 -2.4745 -1.6604
  254MOL0     H34998   5.510   9.204   6.165 -1.2719 -0.1467 -1.0887
  254MOL0     H34999   5.455   8.960   6.328  2.2755 -0.2271 -1.1500
  254MOL0     H35000   5.341   9.034   6.206 -0.3433 -1.0990  0.9177
  254MOL0     H35001   5.591   8.779   6.267 -0.3049 -0.3029 -0.3776
  254MOL0     H35002   5.787   8.629   6.121 -0.9014 -1.6397 -0.0288
  254MOL0     H35003   5.797   8.648   5.950  0.5965 -1.5077  0.5852
  254MOL0     H35004   5.613   8.497   6.113  2.4639  3.0395  2.0142
  254MOL0     H35005   5.543   8.552   5.960 -0.3108 -0.3553  1.5843
  254MOL0     H35006   5.785   8.437   5.870 -2.5308 -1.5261 -2.1235
  254MOL0     H35007   5.772   8.346   6.021  1.5688 -1.3921 -1.8932
  254MOL0     H35008   5.562   8.348   5.797 -1.3912 -2.9834 -0.8650
  254MOL0     H35009   5.697   8.236   5.821  0.7203 -0.9272  2.6465
  254MOL0     H35010   5.516   8.048   5.769 -2.6712 -3.4180 -0.1279
  254MOL0     H35011   5.382   8.041   5.506  3.8529 -2.2223 -0.1201
  254MOL0     H35012   5.265   7.915   5.571 -0.2987  0.2563 -1.3739
  254MOL0     H35013   5.427   7.939   5.627 -2.6811 -2.4212  3.0212
  254MOL0     H35014   4.914   7.835   5.569 -2.3306 -1.0788 -0.4884
  254MOL0     H35015   4.717   7.790   5.413  0.1868 -0.0169  1.3532
  254MOL0     H35016   4.526   8.094   5.229  0.2068 -0.8800  1.1322
  254MOL0     H35017   4.634   8.073   5.095 -0.6785  1.5342  0.9085
  254MOL0     H35018   4.541   7.856   5.026 -1.3954  0.9448 -1.2660
  254MOL0     H35019   4.433   7.861   5.164 -0.3590 -0.5238 -0.0454
  254MOL0     H35020   4.420   8.045   4.915  0.8941  2.9934  2.4561
  254MOL0     H35021   4.329   8.072   5.069 -0.4254 -1.7886  1.8831
  254MOL0     H35022   4.203   7.854   5.032 -0.4959  2.8092  0.1078
  254MOL0     H35023   4.277   7.861   4.875 -1.0467  1.1330 -1.2778
  254MOL0     H35024   4.135   8.079   4.837 -1.0957  2.4006  1.2513
  254MOL0     H35025   4.055   7.925   4.876  1.7485 -1.0871 -1.3130
  254MOL0     H35026   4.116   8.144   5.078 -2.9054  0.5748  1.5140
  254MOL0     H35027   4.005   8.000   5.096 -0.0803 -1.8058 -1.0594
  254MOL0     H35028   3.869   8.076   4.902  0.5620 -0.4679 -0.4068
  254MOL0     H35029   3.957   8.219   4.886 -2.9946 -0.0797 -1.6053
  254MOL0     H35030   3.835   8.142   5.162  1.6584 -1.9899  0.1764
  254MOL0     H35031   3.751   8.238   5.040 -1.1852  0.7827  2.8616
  254MOL0     H35032   4.772   8.181   5.250  2.6717 -0.2037 -0.9230
  254MOL0     H35033   4.977   8.218   5.388  3.1498 -1.3398  0.4130
  254MOL0     H35034   5.100   8.216   5.940  1.3424  0.6967  3.2236
  254MOL0     H35035   5.292   8.298   6.038  1.1818  1.1556 -0.6737
  254MOL0     H35036   5.736   9.991   6.417  0.1013 -2.5482  1.5228
  254MOL0     H35037   5.607  10.168   6.309  0.4634 -1.5906 -2.3405
  254MOL0     H35038   5.269  10.370   6.173  1.2791 -0.5456  1.5308
  254MOL0     H35039   5.139  10.587   6.084 -2.4512 -0.1888  1.0667
  254MOL0     H35040   4.946  10.686   6.281  0.3638 -0.0896  0.4277
  254MOL0     H35041   4.935  10.851   6.312  0.5883  0.9644  0.8682
  254MOL0     H35042   4.776  10.797   6.131 -2.2298  3.4236 -5.5888
  254MOL0     H35043   4.903  10.746   6.028 -2.2369 -1.0941 -0.2030
  254MOL0     H35044   4.901  11.033   6.141 -0.7759  2.2032 -1.5853
  254MOL0     H35045   4.996  10.948   6.017  0.1161 -1.6051  1.3536
  254MOL0     H35046   4.789  10.945   5.864 -1.8013  0.5628  0.0857
  254MOL0     H35047   4.832  11.108   5.899 -0.1497  0.3235 -0.5551
  254MOL0     H35048   4.466  11.076   6.113 -0.1898  1.8250 -0.3486
  254MOL0     H35049   5.249  10.811   6.422  2.3797  1.4907 -2.1746
  254MOL0     H35050   5.373  10.722   6.588  0.0152  0.2913 -2.1806
  254MOL0     H35051   5.378  10.544   6.614 -1.8432  0.1208 -0.6695
  254MOL0     H35052   5.511  10.631   6.526  0.7110  2.8724 -1.0819
  255MOL0     O35053   4.766   0.251   6.506 -0.9752 -1.1605  0.4266
  255MOL0     C35054   4.666   0.315   6.473 -0.2991 -0.9666  0.2847
  255MOL0     O35055   4.661   0.382   6.354 -0.4161  0.1435 -0.0173
  255MOL0     C35056   4.752   0.386   6.255 -0.3093  0.6646 -0.1758
  255MOL0     C35057   4.851   0.289   6.233 -0.2425 -0.3809  0.9490
  255MOL0     C35058   4.939   0.300   6.127 -1.0872  0.0188 -0.5047
  255MOL0     C35059   4.924   0.422   6.046 -0.1926 -0.3453 -0.7116
  255MOL0     O35060   5.008   0.463   5.939  0.4794 -0.3178 -0.8800
  255MOL0     C35061   5.126   0.378   5.920 -0.4409 -0.3651  1.3147
  255MOL0     C35062   5.084   0.313   5.780 -0.7322 -0.7790 -0.2318
  255MOL0     C35063   5.204   0.257   5.709 -0.0529 -0.2734 -0.5337
  255MOL0     C35064   5.234   0.119   5.757 -0.2022 -0.2168 -0.6559
  255MOL0     C35065   5.366   0.062   5.692  0.2385 -0.3246  0.3335
  255MOL0     C35066   5.380  -0.091   5.708  1.0059 -0.0958 -0.3539
  255MOL0     C35067   5.494  -0.172   5.647 -0.0112  0.0791  0.2419
  255MOL0     C35068   5.527  -0.163   5.500 -0.0736 -0.0064  0.0793
  255MOL0     N35069   5.400  -0.159   5.420  0.6361  0.4053 -0.3093
  255MOL0     C35070   5.320  -0.277   5.405 -0.7839  0.0557  0.6151
  255MOL0     C35071   5.238  -0.237   5.309 -0.4219 -0.7602 -1.1180
  255MOL0     C35072   5.119  -0.319   5.260 -0.4364  0.4235  0.4295
  255MOL0     C35073   5.180  -0.432   5.184  0.3164 -0.0721 -1.2208
  255MOL0     C35074   5.083  -0.547   5.171 -0.7590 -0.0089 -0.0091
  255MOL0     C35075   5.146  -0.636   5.061  0.0743 -0.0634 -0.3273
  255MOL0     O35076   5.121  -0.575   4.928  0.8231  0.1716  0.3148
  255MOL0     C35077   5.173  -0.638   4.818 -0.5082 -0.7251 -1.0157
  255MOL0     C35078   5.257  -0.749   4.809 -0.2256  0.6598 -0.0623
  255MOL0     C35079   5.307  -0.796   4.688 -0.2670 -0.2558 -0.1641
  255MOL0     C35080   5.405  -0.911   4.689 -0.3142  0.3682 -0.6525
  255MOL0     C35081   5.267  -0.736   4.567 -0.7053  0.0197 -0.8757
  255MOL0     C35082   5.326  -0.772   4.431  0.7917  0.1635 -0.0953
  255MOL0     O35083   5.250  -0.730   4.320 -0.2850 -0.9569  0.0688
  255MOL0     C35084   5.268  -0.765   4.194 -0.9487 -0.8194 -0.0570
  255MOL0     C35085   5.390  -0.789   4.137 -0.0323  0.1145  0.0222
  255MOL0     C35086   5.387  -0.830   4.007  0.0080 -0.5820  0.0182
  255MOL0     C35087   5.273  -0.847   3.928  0.5041  0.6482 -0.3363
  255MOL0     O35088   5.274  -0.883   3.797 -0.6263 -0.3661 -0.1861
  255MOL0     C35089   5.260  -1.026   3.787 -0.3274  0.2094 -1.1562
  255MOL0     C35090   5.278  -1.067   3.640  0.5433 -0.1740 -0.9512
  255MOL0     C35091   5.289  -1.215   3.619  0.2715  0.8382  0.6069
  255MOL0     C35092   5.285  -1.243   3.467  0.3283  1.0904  1.0813
  255MOL0     C35093   5.295  -1.402   3.456 -1.1625 -0.1202  0.3270
  255MOL0     C35094   5.324  -1.429   3.311  0.5614 -0.7252 -0.4029
  255MOL0     C35095   5.323  -1.578   3.297  0.4663  0.1790  0.2037
  255MOL0     C35096   5.328  -1.611   3.153  0.3066 -0.7172  0.4831
  255MOL0    Cl35097   5.358  -1.783   3.128  0.1772  0.0506  0.0459
  255MOL0     C35098   5.147  -0.812   3.985 -0.3917  0.3788  1.1334
  255MOL0     C35099   5.150  -0.765   4.113 -0.0575 -0.2764  0.4794
  255MOL0     O35100   5.436  -0.820   4.422  0.1660  0.3574  0.2097
  255MOL0     C35101   5.174  -0.629   4.571  0.1108  0.7338 -0.0471
  255MOL0     C35102   5.137  -0.578   4.699 -0.4991 -0.4246  0.2941
  255MOL0     N35103   5.262  -0.105   5.266 -0.1388 -0.1567  0.1876
  255MOL0     N35104   5.367  -0.058   5.326  0.2021  0.0391 -0.1333
  255MOL0     C35105   4.812   0.503   6.068 -0.2277  0.7662  0.9461
  255MOL0     C35106   4.727   0.488   6.167  1.0937 -0.4863 -0.1215
  255MOL0     C35107   4.541   0.320   6.558 -0.6636  0.0887  0.8627
  255MOL0     C35108   4.419   0.321   6.497  1.4230 -0.0176 -0.6315
  255MOL0     C35109   4.299   0.325   6.572  0.4001  0.5877 -0.0656
  255MOL0     C35110   4.301   0.323   6.710 -1.0921 -0.0819 -0.6284
  255MOL0     O35111   4.181   0.322   6.784 -0.0539 -1.5175  0.0233
  255MOL0     C35112   4.175   0.343   6.925  0.4950  0.2710  0.4723
  255MOL0     C35113   4.050   0.254   6.979 -0.5319  1.0448 -0.0796
  255MOL0     C35114   3.921   0.277   6.902  0.2361  0.2946  0.1990
  255MOL0     C35115   3.842   0.388   6.962  0.1196 -0.1412  0.6769
  255MOL0     C35116   3.752   0.349   7.074 -0.8959 -0.5012 -1.0540
  255MOL0     C35117   3.684   0.316   7.173 -0.0526  0.0567 -0.4582
  255MOL0     C35118   4.428   0.326   6.770 -0.6188  0.1607  0.7172
  255MOL0     C35119   4.547   0.318   6.701 -0.0833  0.0680  0.2768
  255MOL0     C35120   4.683   0.318   6.778 -0.5030  0.1613 -0.3075
  255MOL0     H35121   4.856   0.194   6.286 -0.3268 -1.4204 -0.8321
  255MOL0     H35122   5.020   0.228   6.122  1.4642  2.7126 -0.7113
  255MOL0     H35123   5.140   0.301   5.997  0.3043 -1.9575 -0.3462
  255MOL0     H35124   5.220   0.434   5.914 -0.6660 -0.1190 -0.3710
  255MOL0     H35125   5.002   0.243   5.798 -0.4322 -0.9158  0.6692
  255MOL0     H35126   5.047   0.403   5.729 -0.5674 -0.2858  0.4963
  255MOL0     H35127   5.173   0.250   5.605 -0.6719 -1.2859 -0.2906
  255MOL0     H35128   5.283   0.329   5.729 -0.0682 -0.9060  2.1423
  255MOL0     H35129   5.235   0.115   5.866 -2.0799 -2.9482 -0.6337
  255MOL0     H35130   5.144   0.066   5.724  1.6492 -4.9621  1.1749
  255MOL0     H35131   5.451   0.114   5.738  0.0888 -0.2637  0.5419
  255MOL0     H35132   5.375   0.089   5.586  2.0398 -0.1581  0.4974
  255MOL0     H35133   5.381  -0.109   5.816  0.2405 -1.6264 -0.5711
  255MOL0     H35134   5.291  -0.143   5.671  0.4431 -1.1958  2.2972
  255MOL0     H35135   5.488  -0.275   5.684  3.0544  0.0562  0.9547
  255MOL0     H35136   5.581  -0.130   5.699 -2.2391  2.3483  2.3637
  255MOL0     H35137   5.600  -0.087   5.472  1.3574 -0.9202  1.1863
  255MOL0     H35138   5.575  -0.258   5.474 -2.9014 -0.7398 -3.1642
  255MOL0     H35139   5.332  -0.366   5.467  0.9089  1.1728  1.9863
  255MOL0     H35140   5.065  -0.262   5.184  0.1207 -3.8248 -3.5760
  255MOL0     H35141   5.064  -0.348   5.350 -1.2741 -1.7039 -0.7133
  255MOL0     H35142   5.223  -0.403   5.087  3.6703  0.9062  0.3925
  255MOL0     H35143   5.259  -0.473   5.248 -2.1799 -1.2799  1.3249
  255MOL0     H35144   5.078  -0.603   5.265  0.8859 -0.4004 -0.1304
  255MOL0     H35145   4.981  -0.529   5.135 -0.9205 -1.7051 -0.4891
  255MOL0     H35146   5.252  -0.654   5.078 -0.4337 -2.0939  0.9616
  255MOL0     H35147   5.096  -0.733   5.071  1.2612 -0.5965  0.5503
  255MOL0     H35148   5.288  -0.796   4.902  0.7683  1.2209 -0.0981
  255MOL0     H35149   5.390  -0.966   4.783 -3.6595 -1.2165 -1.9324
  255MOL0     H35150   5.510  -0.883   4.683  0.2463 -1.6526 -1.1120
  255MOL0     H35151   5.389  -0.980   4.606 -0.7489 -1.0647  0.5703
  255MOL0     H35152   5.481  -0.780   4.196  0.1505 -4.9086  1.0165
  255MOL0     H35153   5.483  -0.849   3.960 -0.3585  0.5231 -1.2230
  255MOL0     H35154   5.339  -1.077   3.842 -2.9334 -2.9861 -0.0687
  255MOL0     H35155   5.162  -1.048   3.830 -0.0480  0.9988 -0.0825
  255MOL0     H35156   5.189  -1.030   3.588 -0.2019 -1.0891 -0.3747
  255MOL0     H35157   5.373  -1.024   3.608  0.5991  0.2314 -0.2820
  255MOL0     H35158   5.205  -1.257   3.674 -1.7759  1.4988 -1.8549
  255MOL0     H35159   5.385  -1.249   3.660  0.1494 -3.3228 -2.0238
  255MOL0     H35160   5.366  -1.196   3.410  0.5602 -0.3760  0.1554
  255MOL0     H35161   5.190  -1.209   3.424  0.2521 -0.2112  0.1600
  255MOL0     H35162   5.381  -1.432   3.518 -0.5133  4.1247  1.7773
  255MOL0     H35163   5.200  -1.450   3.481 -0.3018 -1.4027  1.2298
  255MOL0     H35164   5.409  -1.376   3.266 -0.9318  0.8750 -1.4773
  255MOL0     H35165   5.244  -1.384   3.251  1.7087 -0.1068 -1.5396
  255MOL0     H35166   5.235  -1.623   3.344  1.0084 -1.7050 -0.4912
  255MOL0     H35167   5.412  -1.618   3.347  1.1514  0.8392 -0.4616
  255MOL0     H35168   5.407  -1.559   3.098 -2.0251  1.1829 -1.3104
  255MOL0     H35169   5.236  -1.571   3.109  0.6867 -1.0099 -0.6341
  255MOL0     H35170   5.053  -0.815   3.930 -0.5716 -0.0232  1.4564
  255MOL0     H35171   5.057  -0.721   4.149 -1.1898  1.0806 -3.6176
  255MOL0     H35172   5.137  -0.585   4.479 -2.6637 -2.6444 -0.7435
  255MOL0     H35173   5.081  -0.485   4.704  0.9252  0.3863  2.8022
  255MOL0     H35174   4.797   0.582   5.995  3.5109 -0.8406 -1.8974
  255MOL0     H35175   4.643   0.556   6.171 -0.0988 -1.4871 -3.8813
  255MOL0     H35176   4.400   0.325   6.390 -3.9829 -2.7296 -0.1272
  255MOL0     H35177   4.198   0.333   6.533  0.2072  0.1854  0.3395
  255MOL0     H35178   4.253   0.294   6.983 -2.0808 -3.8280  0.8529
  255MOL0     H35179   4.163   0.451   6.941  1.9539  0.7373 -1.1850
  255MOL0     H35180   4.039   0.259   7.088  3.2977  0.4622  0.4513
  255MOL0     H35181   4.083   0.151   6.964  2.5844  1.8253  0.6787
  255MOL0     H35182   3.944   0.308   6.800  1.7242  2.4259  1.0941
  255MOL0     H35183   3.865   0.183   6.902 -1.4853  1.2640 -0.4472
  255MOL0     H35184   3.787   0.441   6.884  0.3322  1.0452  1.2960
  255MOL0     H35185   3.915   0.461   6.998  2.3655 -1.5094 -0.8284
  255MOL0     H35186   3.630   0.284   7.260  0.5729  0.7251  0.1924
  255MOL0     H35187   4.441   0.307   6.876 -0.1587  1.8053  0.9748
  255MOL0     H35188   4.670   0.362   6.878  0.7402  1.3113 -0.6165
  255MOL0     H35189   4.732   0.221   6.773  0.2828  0.4931  0.5742
  255MOL0     H35190   4.746   0.398   6.737 -1.7668  1.2325 -0.2058
  256MOL0     O35191   2.713   9.786  10.455  0.2274  0.0385 -0.2394
  256MOL0     C35192   2.714   9.876  10.536  1.2710 -0.2343 -0.8692
  256MOL0     O35193   2.678  10.002  10.505 -0.1752  0.0464  0.1674
  256MOL0     C35194   2.703  10.047  10.383  0.1842 -0.4223  0.3920
  256MOL0     C35195   2.774  10.163  10.374 -0.4594 -1.2608  0.9983
  256MOL0     C35196   2.806  10.232  10.257 -0.4669  0.3134 -0.1849
  256MOL0     C35197   2.746  10.195  10.141 -0.5602  0.5657  0.1418
  256MOL0     O35198   2.785  10.265  10.030  0.8526 -0.1365  0.3256
  256MOL0     C35199   2.677  10.326   9.958 -0.5282 -0.0686  0.9189
  256MOL0     C35200   2.649  10.473   9.999 -0.4616  0.5660  0.6689
  256MOL0     C35201   2.533  10.529   9.920  0.6888  0.6527 -0.1943
  256MOL0     C35202   2.402  10.468   9.978  0.7005  0.5035  0.5760
  256MOL0     C35203   2.272  10.560   9.979  0.3430  0.4658 -0.3559
  256MOL0     C35204   2.142  10.487  10.007  0.1633  0.1846  0.5020
  256MOL0     C35205   2.020  10.579  10.015 -0.0058  0.0119  1.3804
  256MOL0     C35206   2.025  10.663  10.147 -0.8925  0.3874  0.1417
  256MOL0     N35207   2.012  10.585  10.267  0.4904  0.7037  0.4144
  256MOL0     C35208   1.899  10.533  10.326  0.0011  0.2820  0.0591
  256MOL0     C35209   1.947  10.468  10.439 -0.1765  0.0695  0.4250
  256MOL0     C35210   1.872  10.386  10.545 -0.7602 -0.7163  0.3545
  256MOL0     C35211   1.760  10.475  10.604 -0.2145 -0.2089 -0.2940
  256MOL0     C35212   1.682  10.402  10.719  0.6755  0.0181 -0.4334
  256MOL0     C35213   1.771  10.355  10.834 -0.7502  0.4542  0.0921
  256MOL0     O35214   1.848  10.446  10.907  0.2176 -0.2760  0.3663
  256MOL0     C35215   1.942  10.404  10.992 -0.1379  0.4627 -1.0668
  256MOL0     C35216   2.033  10.503  11.031 -0.9893  0.2354 -0.7214
  256MOL0     C35217   2.129  10.489  11.128 -0.4706 -0.9162  0.4918
  256MOL0     C35218   2.198  10.608  11.171 -0.3183 -0.3811  0.2987
  256MOL0     C35219   2.158  10.358  11.175  1.2522  0.3897 -0.0480
  256MOL0     C35220   2.265  10.320  11.273 -0.9676  0.0216  0.3867
  256MOL0     O35221   2.354  10.421  11.305 -0.2297 -0.5619 -0.6283
  256MOL0     C35222   2.455  10.397  11.382  0.0189  0.6635 -0.2092
  256MOL0     C35223   2.475  10.308  11.489 -0.5639  0.3615 -0.9789
  256MOL0     C35224   2.597  10.311  11.569  0.8988 -0.1453  0.8691
  256MOL0     C35225   2.700  10.390  11.536 -0.3427 -0.6646  0.1917
  256MOL0     O35226   2.818  10.387  11.603 -0.2413 -0.2901 -0.7190
  256MOL0     C35227   2.926  10.476  11.565  0.7734 -0.1536 -0.5952
  256MOL0     C35228   3.009  10.447  11.443  0.1448 -0.6221  0.1020
  256MOL0     C35229   3.015  10.297  11.410  0.6696  0.2824  0.2481
  256MOL0     C35230   3.112  10.295  11.290 -0.3518  1.1492  0.3105
  256MOL0     C35231   3.143  10.149  11.235 -0.3235 -0.0570  0.0024
  256MOL0     C35232   3.215  10.064  11.339 -0.5594 -0.0615 -0.7758
  256MOL0     C35233   3.352  10.113  11.387  1.8496  0.8823 -0.4837
  256MOL0     C35234   3.411  10.010  11.489  0.4019 -0.8058 -0.1290
  256MOL0    Cl35235   3.598  10.038  11.522 -0.4066 -0.1687 -0.1021
  256MOL0     C35236   2.682  10.478  11.421  1.1670  0.2124  0.7747
  256MOL0     C35237   2.558  10.481  11.347  0.2283  0.4504  0.0364
  256MOL0     O35238   2.277  10.210  11.313  0.1196  0.2159  0.6486
  256MOL0     C35239   2.070  10.249  11.135  0.1546 -0.7026  0.0760
  256MOL0     C35240   1.974  10.277  11.043 -0.3809  0.5929  0.2875
  256MOL0     N35241   2.079  10.506  10.459  0.7426  0.1450 -0.6865
  256MOL0     N35242   2.114  10.585  10.359  0.5739  0.8597 -0.1432
  256MOL0     C35243   2.670  10.080  10.144  1.1596  0.1657  0.0738
  256MOL0     C35244   2.652  10.002  10.260  0.1165 -0.2020 -0.3480
  256MOL0     C35245   2.725   9.840  10.688 -0.1929 -0.0455  1.6058
  256MOL0     C35246   2.716   9.703  10.727 -0.4373 -0.5514  0.0204
  256MOL0     C35247   2.762   9.665  10.855 -0.3283  0.0823 -0.0753
  256MOL0     C35248   2.814   9.759  10.945  0.2291  0.2131  0.0988
  256MOL0     O35249   2.877   9.696  11.049  0.1502 -0.4109  0.2560
  256MOL0     C35250   2.964   9.779  11.120 -0.5605 -0.6655 -1.0317
  256MOL0     C35251   3.016   9.718  11.258  0.1698 -1.1394  0.2733
  256MOL0     C35252   3.113   9.605  11.220 -1.1874  0.4598 -0.0378
  256MOL0     C35253   3.186   9.571  11.356 -1.4028 -0.6446  0.2942
  256MOL0     C35254   3.245   9.432  11.354 -0.2733 -1.0798  0.0489
  256MOL0     C35255   3.285   9.321  11.360 -0.7999 -0.0012 -0.4762
  256MOL0     C35256   2.827   9.888  10.905  0.6723 -0.0391 -0.0268
  256MOL0     C35257   2.775   9.936  10.785 -0.2458  0.6533 -0.2813
  256MOL0     C35258   2.794  10.078  10.743  0.0304 -0.1372  0.4650
  256MOL0     H35259   2.808  10.210  10.466 -0.3832  1.9269 -0.5640
  256MOL0     H35260   2.871  10.320  10.255  1.3530 -0.8878  1.8476
  256MOL0     H35261   2.585  10.272   9.980 -2.7567  3.2476  0.3620
  256MOL0     H35262   2.687  10.307   9.851 -2.3689 -0.3118  0.7619
  256MOL0     H35263   2.623  10.482  10.105  2.7815  3.9958  1.3838
  256MOL0     H35264   2.743  10.524   9.974  0.8719 -2.6497 -1.5325
  256MOL0     H35265   2.534  10.637   9.939  0.6916  0.3984  1.3341
  256MOL0     H35266   2.539  10.509   9.812  1.9226 -1.8171  0.2605
  256MOL0     H35267   2.381  10.384   9.912  0.7076 -1.0921  2.5121
  256MOL0     H35268   2.412  10.421  10.076 -3.8747 -3.2861 -0.4376
  256MOL0     H35269   2.250  10.621   9.890 -0.7972 -0.8432 -1.0053
  256MOL0     H35270   2.286  10.637  10.055 -0.2399  2.7762 -2.4582
  256MOL0     H35271   2.122  10.416   9.927 -1.0951  0.6390  0.3794
  256MOL0     H35272   2.139  10.429  10.100 -4.3368 -1.2587 -0.2744
  256MOL0     H35273   1.930  10.516  10.019  1.9253 -3.1646 -0.3894
  256MOL0     H35274   2.013  10.651   9.934 -3.1029 -1.3952  0.2514
  256MOL0     H35275   2.119  10.718  10.159  0.1026 -1.4521  1.4411
  256MOL0     H35276   1.938  10.730  10.143 -2.9893 -2.0262  1.9520
  256MOL0     H35277   1.801  10.517  10.283  0.3776  0.9180 -1.0640
  256MOL0     H35278   1.933  10.335  10.620 -2.2713 -1.2074  1.2847
  256MOL0     H35279   1.815  10.303  10.502 -1.4643 -0.0764  0.0185
  256MOL0     H35280   1.806  10.560  10.657  0.6251 -1.4914  1.1185
  256MOL0     H35281   1.690  10.496  10.523  0.8876 -1.2794 -1.5701
  256MOL0     H35282   1.610  10.474  10.759 -0.3333  0.0585 -2.1975
  256MOL0     H35283   1.625  10.314  10.684  0.6351  0.3042 -1.1114
  256MOL0     H35284   1.710  10.300  10.906  1.4110  0.0655  1.7314
  256MOL0     H35285   1.839  10.275  10.802  0.1531  0.8379  0.9962
  256MOL0     H35286   2.016  10.596  10.978 -0.2775 -0.3327 -1.9954
  256MOL0     H35287   2.302  10.605  11.137 -0.2919 -0.4383  0.3860
  256MOL0     H35288   2.185  10.617  11.279  0.8037  0.8605  0.3577
  256MOL0     H35289   2.155  10.697  11.124  1.8481  0.0104 -1.0956
  256MOL0     H35290   2.399  10.238  11.520 -1.2684  1.6388  0.3133
  256MOL0     H35291   2.595  10.249  11.658 -1.3350  0.4656  1.3136
  256MOL0     H35292   2.882  10.573  11.539  0.9922 -0.0250 -0.4837
  256MOL0     H35293   2.988  10.480  11.655  0.2226  1.3433 -0.2383
  256MOL0     H35294   2.948  10.481  11.358 -1.2304 -2.2538  0.3807
  256MOL0     H35295   3.107  10.496  11.448  0.0678 -0.2837 -1.2382
  256MOL0     H35296   2.920  10.252  11.381  1.4522 -0.9065 -0.5180
  256MOL0     H35297   3.057  10.241  11.494 -0.0790 -1.7336 -0.6673
  256MOL0     H35298   3.200  10.360  11.290 -0.2681  1.0587  1.6147
  256MOL0     H35299   3.054  10.341  11.210  0.4923 -0.6647 -1.4361
  256MOL0     H35300   3.051  10.099  11.200  0.2206 -2.5369  1.8081
  256MOL0     H35301   3.203  10.163  11.145 -3.0009 -3.3846 -2.5923
  256MOL0     H35302   3.246   9.969  11.294 -0.3168 -0.0695 -0.5937
  256MOL0     H35303   3.143  10.043  11.419 -3.3949  0.8515 -2.9182
  256MOL0     H35304   3.350  10.211  11.436  0.0482  0.1615  1.0024
  256MOL0     H35305   3.414  10.129  11.298  0.0409  1.6043 -1.6762
  256MOL0     H35306   3.409   9.909  11.447  1.5373 -0.9583  0.1349
  256MOL0     H35307   3.357  10.012  11.584  1.9041 -0.1293  0.7611
  256MOL0     H35308   2.746  10.559  11.388 -1.3061  0.6763 -3.7175
  256MOL0     H35309   2.542  10.565  11.279 -2.4327  0.6567  0.7957
  256MOL0     H35310   2.077  10.151  11.182  1.0981  0.1615  1.8369
  256MOL0     H35311   1.913  10.190  11.022  3.1150 -2.2162  0.8565
  256MOL0     H35312   2.622  10.061  10.049 -2.9528  2.5253  1.4022
  256MOL0     H35313   2.586   9.918  10.239  0.8258 -0.8531 -0.0304
  256MOL0     H35314   2.696   9.625  10.654  0.3290 -0.5065 -0.2496
  256MOL0     H35315   2.745   9.561  10.883 -0.4047 -0.3308 -1.5414
  256MOL0     H35316   3.051   9.810  11.061  2.4920 -0.9672  2.8707
  256MOL0     H35317   2.906   9.864  11.159 -3.2157 -1.7553 -2.3686
  256MOL0     H35318   2.933   9.690  11.324 -1.0839  3.7903  1.2041
  256MOL0     H35319   3.058   9.796  11.322  1.3838 -4.4135  3.8127
  256MOL0     H35320   3.062   9.524  11.167  1.8090 -1.9629  0.4992
  256MOL0     H35321   3.192   9.649  11.159 -0.9654 -2.0814 -1.7010
  256MOL0     H35322   3.113   9.583  11.436  1.2196  2.3545  2.4568
  256MOL0     H35323   3.268   9.643  11.363  0.8942 -2.9361 -1.2294
  256MOL0     H35324   3.328   9.224  11.378 -0.0410  0.4366  0.1162
  256MOL0     H35325   2.885   9.957  10.966 -0.2865  0.9877 -0.2348
  256MOL0     H35326   2.847  10.140  10.816  4.0781 -1.8318 -0.7737
  256MOL0     H35327   2.862  10.071  10.658 -1.3431  0.2769 -0.7182
  256MOL0     H35328   2.692  10.110  10.717 -0.3126 -0.6035  1.1834
  257MOL0     O35329   2.536   9.732   6.076  0.1871  0.1354  0.1730
  257MOL0     C35330   2.425   9.708   6.025  0.4584 -0.6550 -0.4657
  257MOL0     O35331   2.396   9.686   5.896 -0.5924  0.1363 -0.0427
  257MOL0     C35332   2.500   9.674   5.805 -0.1190 -0.6037 -0.1222
  257MOL0     C35333   2.589   9.782   5.790  0.2422 -0.5277  0.3762
  257MOL0     C35334   2.704   9.775   5.706  1.1852 -0.5760 -0.4804
  257MOL0     C35335   2.724   9.665   5.637  0.2805 -0.0352 -0.3015
  257MOL0     O35336   2.836   9.645   5.549 -0.3533 -0.0990  0.1790
  257MOL0     C35337   2.963   9.691   5.593 -0.3670  0.4872  0.4924
  257MOL0     C35338   3.083   9.653   5.500 -0.1442  0.2282  0.2836
  257MOL0     C35339   3.061   9.512   5.452 -0.5661 -0.5457  0.1083
  257MOL0     C35340   3.160   9.454   5.350 -1.4618 -0.0063 -0.1787
  257MOL0     C35341   3.278   9.389   5.422 -1.1834  0.3115  0.1883
  257MOL0     C35342   3.412   9.425   5.345  0.5422  0.4115 -0.1174
  257MOL0     C35343   3.422   9.402   5.195 -1.5337 -1.0067  0.6897
  257MOL0     C35344   3.531   9.485   5.127  0.1394 -0.3469 -0.0410
  257MOL0     N35345   3.664   9.440   5.170  0.1595 -0.2813 -0.1819
  257MOL0     C35346   3.741   9.456   5.289  0.2050  0.0897  0.5302
  257MOL0     C35347   3.860   9.398   5.266 -0.2209 -0.0594 -0.6165
  257MOL0     C35348   3.976   9.394   5.365 -0.2822  0.4108  1.0305
  257MOL0     C35349   3.957   9.272   5.454  0.0059 -1.5101  0.3372
  257MOL0     C35350   4.070   9.260   5.548  0.1953 -0.2443 -0.7182
  257MOL0     C35351   4.209   9.217   5.503  0.2217 -0.2091  1.1885
  257MOL0     O35352   4.202   9.072   5.510 -0.0738  0.5947  0.0853
  257MOL0     C35353   4.190   9.004   5.387 -0.1726 -0.3508 -0.4654
  257MOL0     C35354   4.102   8.894   5.375  0.1608 -0.6727 -0.0454
  257MOL0     C35355   4.103   8.819   5.255 -0.0401 -0.0935  0.0535
  257MOL0     C35356   4.009   8.696   5.267 -0.0397  0.7134 -0.1698
  257MOL0     C35357   4.191   8.852   5.150  0.7582 -0.2936  0.6245
  257MOL0     C35358   4.170   8.771   5.025  0.0313  0.0249 -0.5023
  257MOL0     O35359   4.278   8.775   4.951  0.8035 -0.1720  0.6649
  257MOL0     C35360   4.270   8.750   4.814  0.8009 -0.5723 -0.1695
  257MOL0     C35361   4.165   8.695   4.735  0.6472  0.6405 -0.3477
  257MOL0     C35362   4.176   8.691   4.594  0.1628  0.7237  0.4112
  257MOL0     C35363   4.276   8.743   4.528 -0.7094  0.4712  0.0119
  257MOL0     O35364   4.271   8.729   4.391  0.0204 -0.0695 -1.1834
  257MOL0     C35365   4.401   8.723   4.334 -0.8228 -0.7679 -0.4864
  257MOL0     C35366   4.380   8.717   4.183 -0.6056 -0.6092  1.3289
  257MOL0     C35367   4.510   8.680   4.107 -0.6131  0.5447 -0.8374
  257MOL0     C35368   4.478   8.659   3.956  0.3846 -0.0091 -0.2178
  257MOL0     C35369   4.606   8.672   3.879  0.4511  0.5761  0.3285
  257MOL0     C35370   4.569   8.640   3.730  0.8082 -0.3342  0.7786
  257MOL0     C35371   4.705   8.614   3.658 -0.4081 -0.1018  0.3913
  257MOL0     C35372   4.676   8.646   3.511  0.2963  0.2053  0.6715
  257MOL0    Cl35373   4.639   8.819   3.486  0.0333 -0.2545  0.0769
  257MOL0     C35374   4.376   8.816   4.602  0.0407  0.6534  0.0172
  257MOL0     C35375   4.371   8.810   4.745  0.0453 -0.3116 -0.4444
  257MOL0     O35376   4.059   8.730   4.994  0.3267 -0.4550  0.3882
  257MOL0     C35377   4.278   8.958   5.166  0.1447  1.0455  0.2730
  257MOL0     C35378   4.280   9.035   5.287  0.5192 -0.0226 -0.0286
  257MOL0     N35379   3.857   9.347   5.145 -0.5006  0.3013 -1.1276
  257MOL0     N35380   3.746   9.378   5.083  0.5834  0.1953  0.6706
  257MOL0     C35381   2.636   9.565   5.650  0.3360  0.6349 -0.1156
  257MOL0     C35382   2.527   9.563   5.722  0.6897  0.1560  0.3560
  257MOL0     C35383   2.317   9.738   6.123  0.7874 -0.8453  0.0854
  257MOL0     C35384   2.272   9.628   6.203  0.5883 -0.1545  0.7246
  257MOL0     C35385   2.173   9.655   6.304 -0.5772 -0.1071 -0.5768
  257MOL0     C35386   2.115   9.781   6.323 -0.3018  0.5576  0.2429
  257MOL0     O35387   2.029   9.797   6.425  0.2490  0.6879  0.0204
  257MOL0     C35388   1.939   9.912   6.427  0.3139  1.3023  0.8201
  257MOL0     C35389   1.837   9.899   6.540  0.8663 -0.4356 -0.1767
  257MOL0     C35390   1.903   9.889   6.680  0.0613 -0.6695 -0.4597
  257MOL0     C35391   1.877   9.763   6.765  0.2153  0.1520  0.1254
  257MOL0     C35392   1.955   9.654   6.712 -0.4597 -0.1917  0.7079
  257MOL0     C35393   2.026   9.570   6.661  0.4188 -0.7139  1.3180
  257MOL0     C35394   2.154   9.886   6.236  0.2898 -0.4715 -0.2807
  257MOL0     C35395   2.261   9.865   6.137  0.7790 -0.0511 -0.1897
  257MOL0     C35396   2.300   9.993   6.067  0.7111 -1.2614 -1.0871
  257MOL0     H35397   2.570   9.875   5.844  2.9618  1.0844 -1.2166
  257MOL0     H35398   2.781   9.851   5.708  0.1234  0.5139  1.3326
  257MOL0     H35399   2.981   9.649   5.693  0.6426  1.4594  0.7545
  257MOL0     H35400   2.966   9.800   5.605  2.1844  0.2597  3.6691
  257MOL0     H35401   3.112   9.731   5.430 -0.4505  0.3604  0.3011
  257MOL0     H35402   3.175   9.650   5.559 -0.0330 -0.4014  0.0806
  257MOL0     H35403   3.051   9.452   5.543 -1.2430 -0.0336  0.3840
  257MOL0     H35404   2.964   9.504   5.402 -1.7364 -2.3589  2.4660
  257MOL0     H35405   3.097   9.383   5.294 -0.0866  1.3396 -3.7598
  257MOL0     H35406   3.184   9.532   5.277  0.3615 -0.2951  0.0668
  257MOL0     H35407   3.257   9.282   5.432 -1.4747  0.5358  2.4739
  257MOL0     H35408   3.270   9.429   5.523 -2.0033 -0.1121  0.3080
  257MOL0     H35409   3.430   9.530   5.370 -0.6997  0.0917  2.5407
  257MOL0     H35410   3.490   9.370   5.399  0.5709  0.4381 -0.1322
  257MOL0     H35411   3.323   9.419   5.152  0.5046  3.3355 -3.0230
  257MOL0     H35412   3.449   9.298   5.174 -0.8979 -0.5588 -0.8396
  257MOL0     H35413   3.524   9.472   5.018  3.2166 -0.1482 -0.3441
  257MOL0     H35414   3.511   9.593   5.137  0.5894 -0.1636 -0.9907
  257MOL0     H35415   3.709   9.502   5.383  0.4453  1.6612 -0.1240
  257MOL0     H35416   3.998   9.487   5.418  2.0518 -1.5374  3.7951
  257MOL0     H35417   4.061   9.368   5.301 -0.8876 -0.1198  0.4318
  257MOL0     H35418   3.858   9.282   5.498 -1.4546 -1.1766 -2.7444
  257MOL0     H35419   3.942   9.182   5.394 -2.6694 -0.5728 -0.5425
  257MOL0     H35420   4.091   9.354   5.601  0.3850 -0.6672 -0.0230
  257MOL0     H35421   4.018   9.189   5.613 -3.0750  1.0657 -1.7281
  257MOL0     H35422   4.241   9.261   5.408  1.5623 -0.2874  1.5908
  257MOL0     H35423   4.273   9.247   5.586  0.2700 -0.4725  1.2480
  257MOL0     H35424   4.032   8.885   5.458  2.6792  0.8832  2.4373
  257MOL0     H35425   3.918   8.721   5.212  0.3363  2.3289 -0.1028
  257MOL0     H35426   3.982   8.662   5.368 -0.4510 -2.7038 -1.2943
  257MOL0     H35427   4.059   8.611   5.219 -1.0555 -1.1093  1.8424
  257MOL0     H35428   4.081   8.645   4.783  1.0340  0.1070 -0.2232
  257MOL0     H35429   4.093   8.643   4.542  0.1412  3.6635 -2.5677
  257MOL0     H35430   4.463   8.808   4.363  0.6435 -2.6440  2.2925
  257MOL0     H35431   4.453   8.632   4.365  3.3095 -0.3429 -4.8820
  257MOL0     H35432   4.300   8.650   4.150 -0.2552  0.4638 -2.0639
  257MOL0     H35433   4.357   8.817   4.147 -0.5713  0.2877  3.6595
  257MOL0     H35434   4.543   8.585   4.150 -2.0900  0.4237  0.0982
  257MOL0     H35435   4.587   8.757   4.119  0.0450  0.0843 -1.8839
  257MOL0     H35436   4.398   8.725   3.921  0.6372  2.6887  3.7195
  257MOL0     H35437   4.435   8.560   3.940 -0.8769  0.4622  0.1307
  257MOL0     H35438   4.644   8.775   3.877  2.4707  0.0357  3.3413
  257MOL0     H35439   4.679   8.602   3.920 -0.7429  1.0528  3.6115
  257MOL0     H35440   4.518   8.732   3.699 -1.6874 -0.8847  2.9166
  257MOL0     H35441   4.495   8.562   3.712 -0.6653  1.5746 -2.2270
  257MOL0     H35442   4.743   8.513   3.673 -1.7267 -0.2581  3.1969
  257MOL0     H35443   4.790   8.682   3.676 -0.5080 -0.1611  1.0867
  257MOL0     H35444   4.594   8.584   3.472 -3.7344  5.6495 -0.7904
  257MOL0     H35445   4.763   8.624   3.448 -0.7981 -2.1293 -0.1570
  257MOL0     H35446   4.446   8.881   4.551  1.4978  1.1932  2.5314
  257MOL0     H35447   4.449   8.858   4.804 -0.7820 -1.2509  1.4778
  257MOL0     H35448   4.343   8.980   5.081  0.7643 -1.4965 -0.0003
  257MOL0     H35449   4.354   9.112   5.304  1.4127 -1.5220  3.8524
  257MOL0     H35450   2.671   9.478   5.596  1.2640  0.6268  0.4774
  257MOL0     H35451   2.457   9.480   5.723  0.2705  0.4516 -1.6489
  257MOL0     H35452   2.310   9.527   6.193  1.0300  0.1620 -1.2531
  257MOL0     H35453   2.157   9.585   6.384 -1.0039 -0.1254 -0.6739
  257MOL0     H35454   2.005   9.997   6.448  3.0895 -0.5262  0.2024
  257MOL0     H35455   1.881   9.926   6.335  1.4767  1.8927  0.1522
  257MOL0     H35456   1.792   9.800   6.526  2.7564 -1.3935  0.1424
  257MOL0     H35457   1.761   9.977   6.536  1.1193 -0.2188 -0.7498
  257MOL0     H35458   2.012   9.891   6.665 -0.1338  0.2802 -2.0209
  257MOL0     H35459   1.874   9.980   6.733  0.9657 -1.2705  1.1404
  257MOL0     H35460   1.770   9.741   6.767 -0.0590  1.3637 -0.2594
  257MOL0     H35461   1.914   9.774   6.867  0.8080  1.5521 -0.2200
  257MOL0     H35462   2.099   9.504   6.618 -0.2424 -0.2899 -0.5276
  257MOL0     H35463   2.119   9.986   6.259  0.0333 -0.0720 -2.2338
  257MOL0     H35464   2.282   9.978   5.960 -1.8614 -2.9544 -0.5155
  257MOL0     H35465   2.248  10.080   6.107 -0.3134 -2.4512  0.2947
  257MOL0     H35466   2.408  10.002   6.078  0.4505  0.1670  0.8481
  258MOL0     O35467   7.380   0.974   3.735  0.5700 -0.2882 -0.2982
  258MOL0     C35468   7.396   0.881   3.817 -0.3223  0.5105  0.8580
  258MOL0     O35469   7.297   0.789   3.851  0.3771  0.0172 -0.4872
  258MOL0     C35470   7.189   0.766   3.770 -0.1180 -0.0827  0.2658
  258MOL0     C35471   7.065   0.803   3.824 -0.1386  0.2433 -0.4107
  258MOL0     C35472   6.954   0.769   3.747  0.3889  0.2767 -0.7059
  258MOL0     C35473   6.967   0.689   3.630  0.5689 -0.1195  0.5858
  258MOL0     O35474   6.852   0.645   3.567 -0.1979 -0.5124 -0.0909
  258MOL0     C35475   6.852   0.658   3.423  0.0487 -0.2182 -0.6890
  258MOL0     C35476   6.708   0.682   3.390 -0.0824 -0.0054  0.1285
  258MOL0     C35477   6.626   0.550   3.392 -0.1145  0.2985  0.5813
  258MOL0     C35478   6.530   0.556   3.282  0.2042 -0.6894  0.7073
  258MOL0     C35479   6.433   0.437   3.277  0.0989  0.6218  0.1291
  258MOL0     C35480   6.513   0.310   3.223  0.1870  0.6531 -0.4592
  258MOL0     C35481   6.398   0.217   3.182 -0.3097 -0.3252 -0.8443
  258MOL0     C35482   6.443   0.094   3.101  0.1803 -0.2458 -0.1282
  258MOL0     N35483   6.460   0.126   2.958  0.0496 -0.4005  0.0100
  258MOL0     C35484   6.390   0.075   2.859 -0.4197 -0.3175  0.5541
  258MOL0     C35485   6.416   0.158   2.755  0.5325  0.3192  0.3056
  258MOL0     C35486   6.358   0.159   2.617  0.6205 -0.4364  0.7808
  258MOL0     C35487   6.454   0.213   2.509  0.4230  0.2988  0.2667
  258MOL0     C35488   6.425   0.186   2.360  0.9270 -0.3569  0.2299
  258MOL0     C35489   6.283   0.204   2.308 -1.1664  0.7018 -0.1535
  258MOL0     O35490   6.219   0.328   2.342  0.4281 -0.2234 -0.3030
  258MOL0     C35491   6.086   0.338   2.340 -0.0916 -0.1611  0.1842
  258MOL0     C35492   6.001   0.251   2.279  0.0433  0.0934 -0.9724
  258MOL0     C35493   5.865   0.288   2.274 -0.4752  0.4728  1.0959
  258MOL0     C35494   5.787   0.205   2.176 -0.2835 -0.3074  0.5430
  258MOL0     C35495   5.813   0.405   2.340 -0.1625 -0.2790 -0.1547
  258MOL0     C35496   5.675   0.457   2.331  0.9101  0.8650  0.4646
  258MOL0     O35497   5.650   0.546   2.430  0.0319  0.2388 -0.4797
  258MOL0     C35498   5.530   0.612   2.418  0.5593  0.0204 -0.4421
  258MOL0     C35499   5.424   0.552   2.467 -0.4797  0.1467 -0.2070
  258MOL0     C35500   5.296   0.612   2.468 -0.7029 -0.4673 -1.2374
  258MOL0     C35501   5.278   0.742   2.427 -0.5396 -0.3309 -0.2540
  258MOL0     O35502   5.162   0.821   2.427  0.2964  0.2532 -0.4718
  258MOL0     C35503   5.055   0.764   2.512  0.6016 -1.0528 -0.3725
  258MOL0     C35504   4.929   0.840   2.530  0.4226 -0.5409  0.3582
  258MOL0     C35505   4.806   0.755   2.583 -0.5315 -0.7568  0.9031
  258MOL0     C35506   4.849   0.663   2.696 -0.2520  0.4360 -0.4183
  258MOL0     C35507   4.739   0.559   2.739 -0.2869 -0.0867 -0.4662
  258MOL0     C35508   4.781   0.475   2.861  0.3031 -0.7463  0.6230
  258MOL0     C35509   4.696   0.347   2.899 -0.0030 -0.7515 -0.6520
  258MOL0     C35510   4.756   0.269   3.017 -0.2426  0.1499 -0.6351
  258MOL0    Cl35511   4.919   0.202   2.980  0.1890  0.0717  0.3995
  258MOL0     C35512   5.392   0.808   2.376  0.0295 -0.4751  0.0349
  258MOL0     C35513   5.520   0.744   2.371 -0.2039  0.8731  1.6779
  258MOL0     O35514   5.602   0.438   2.236 -0.9010  0.4737 -0.4170
  258MOL0     C35515   5.903   0.482   2.414  0.1706  0.6510 -0.1566
  258MOL0     C35516   6.039   0.442   2.423  1.8100 -0.2331 -0.0502
  258MOL0     N35517   6.511   0.248   2.790  0.5886 -0.3444 -0.1631
  258MOL0     N35518   6.538   0.234   2.910  0.5363  0.3157 -0.0990
  258MOL0     C35519   7.090   0.655   3.580 -0.6613 -1.2986  0.7151
  258MOL0     C35520   7.206   0.698   3.645 -0.2093 -0.3345  0.8690
  258MOL0     C35521   7.519   0.877   3.899  1.0770 -0.1177  0.4262
  258MOL0     C35522   7.495   0.870   4.034 -0.9856  0.6107  0.2559
  258MOL0     C35523   7.601   0.875   4.126 -1.0196 -0.0984 -0.0591
  258MOL0     C35524   7.730   0.878   4.090  0.0997  0.3466  0.1069
  258MOL0     O35525   7.827   0.876   4.194  0.3830  0.5636  0.6515
  258MOL0     C35526   7.966   0.889   4.165 -0.0002 -0.2699 -0.8209
  258MOL0     C35527   8.056   0.893   4.298 -0.1840 -0.5507  0.6022
  258MOL0     C35528   7.977   0.976   4.404  0.2161 -0.3236 -0.2024
  258MOL0     C35529   8.070   1.008   4.530 -0.4213  0.4781  0.5045
  258MOL0     C35530   7.990   1.065   4.638  0.2776 -0.3452 -0.1564
  258MOL0     C35531   7.922   1.133   4.710 -0.0551 -0.1245  0.9269
  258MOL0     C35532   7.754   0.880   3.950 -0.5309  1.3085 -0.2510
  258MOL0     C35533   7.650   0.875   3.853 -0.6064 -0.5565 -0.8662
  258MOL0     C35534   7.676   0.879   3.702  0.1729 -0.3046 -0.6074
  258MOL0     H35535   7.067   0.830   3.929  2.4438  0.5453 -0.4747
  258MOL0     H35536   6.851   0.787   3.775 -0.1463 -0.8612 -1.8587
  258MOL0     H35537   6.899   0.570   3.378 -1.4583 -1.1811 -0.4158
  258MOL0     H35538   6.919   0.740   3.393  0.9492  0.2329  2.2534
  258MOL0     H35539   6.664   0.745   3.468 -2.8660 -4.7847  2.9462
  258MOL0     H35540   6.702   0.730   3.292 -2.7166  1.2650  0.8217
  258MOL0     H35541   6.692   0.463   3.389 -1.1289 -0.4519 -0.7343
  258MOL0     H35542   6.577   0.537   3.489 -0.4952  2.2939  0.7053
  258MOL0     H35543   6.462   0.641   3.295 -2.6215 -2.7790  0.4651
  258MOL0     H35544   6.581   0.561   3.184  0.3368  3.0828  0.7957
  258MOL0     H35545   6.352   0.464   3.209 -0.2021 -0.0628  0.2035
  258MOL0     H35546   6.399   0.425   3.380  4.1443  2.2915  1.8629
  258MOL0     H35547   6.584   0.336   3.144 -0.9144  0.0878 -1.6909
  258MOL0     H35548   6.570   0.268   3.306  0.9996 -0.2177 -1.4337
  258MOL0     H35549   6.319   0.267   3.125 -1.1550 -2.1045 -1.3319
  258MOL0     H35550   6.344   0.184   3.271 -3.8086  0.3833 -2.5299
  258MOL0     H35551   6.541   0.078   3.148 -0.1601  0.2229  0.7638
  258MOL0     H35552   6.372   0.012   3.109  1.1617 -1.2790 -1.5291
  258MOL0     H35553   6.343  -0.022   2.865  2.6604 -1.8684  1.5819
  258MOL0     H35554   6.274   0.229   2.623  0.8446 -0.2920  2.8746
  258MOL0     H35555   6.317   0.064   2.582 -1.4829  1.3704 -2.0497
  258MOL0     H35556   6.444   0.322   2.520  2.6818  0.4963  0.9337
  258MOL0     H35557   6.556   0.181   2.534  0.8210 -0.5323 -2.1381
  258MOL0     H35558   6.492   0.252   2.306 -0.8140  0.6055 -0.8556
  258MOL0     H35559   6.456   0.083   2.338  0.0469 -1.0790  2.1228
  258MOL0     H35560   6.271   0.184   2.201 -0.2520 -3.5445  0.3698
  258MOL0     H35561   6.225   0.122   2.351  0.8347 -0.1165  1.1246
  258MOL0     H35562   6.035   0.158   2.234 -0.1928 -0.9350  0.8851
  258MOL0     H35563   5.835   0.112   2.144  1.4081  1.1550 -1.4726
  258MOL0     H35564   5.771   0.263   2.085  0.9090  0.5899  0.8847
  258MOL0     H35565   5.684   0.186   2.209 -0.7694  2.4084  0.8557
  258MOL0     H35566   5.431   0.448   2.498 -1.5744  0.0754 -0.1423
  258MOL0     H35567   5.210   0.559   2.508 -2.5743  2.8133 -0.5397
  258MOL0     H35568   5.035   0.665   2.470  0.0764 -1.8952  1.7397
  258MOL0     H35569   5.091   0.756   2.615 -0.7068 -2.1333  0.0316
  258MOL0     H35570   4.951   0.918   2.603  2.2297  0.8290 -1.5329
  258MOL0     H35571   4.927   0.889   2.432  5.4030  0.9674  0.7618
  258MOL0     H35572   4.761   0.702   2.499 -0.2764 -1.0025  0.9176
  258MOL0     H35573   4.724   0.824   2.603 -1.3404 -1.9309  1.8397
  258MOL0     H35574   4.870   0.725   2.784  0.8752  0.8860 -0.9820
  258MOL0     H35575   4.944   0.613   2.674 -1.0064 -1.1480 -0.2064
  258MOL0     H35576   4.647   0.611   2.769  0.2912  0.3231  0.6418
  258MOL0     H35577   4.724   0.490   2.655  1.7007  0.6317 -1.4796
  258MOL0     H35578   4.790   0.540   2.948  2.2132  0.0281 -0.1032
  258MOL0     H35579   4.879   0.434   2.835 -0.6484 -2.9024  0.2799
  258MOL0     H35580   4.685   0.271   2.821 -1.9610 -3.4561  2.0600
  258MOL0     H35581   4.594   0.370   2.931 -0.1056  0.3871 -1.7199
  258MOL0     H35582   4.689   0.187   3.044  1.2281 -0.3993  1.6047
  258MOL0     H35583   4.756   0.352   3.089  3.5545 -0.1792 -0.0773
  258MOL0     H35584   5.381   0.912   2.347  0.1593 -0.3055  0.5912
  258MOL0     H35585   5.607   0.792   2.326 -0.5734 -0.9758 -1.3207
  258MOL0     H35586   5.856   0.562   2.471 -2.7462 -0.4034 -0.9201
  258MOL0     H35587   6.111   0.496   2.485 -0.2292  1.4023  1.0499
  258MOL0     H35588   7.093   0.596   3.489  2.6842 -0.0763 -0.1351
  258MOL0     H35589   7.301   0.667   3.601 -1.3666  0.9677 -3.0074
  258MOL0     H35590   7.399   0.847   4.079  0.6273 -2.1718  2.6297
  258MOL0     H35591   7.566   0.871   4.229 -4.0267 -1.0872 -1.0175
  258MOL0     H35592   7.999   0.809   4.098 -3.0663 -0.2832 -2.4620
  258MOL0     H35593   7.986   0.980   4.108 -1.3287  2.1327  2.2644
  258MOL0     H35594   8.160   0.924   4.282  0.2422 -0.7889  2.6775
  258MOL0     H35595   8.038   0.791   4.331 -0.9482 -0.4481  0.5088
  258MOL0     H35596   7.938   1.067   4.356 -0.4436 -1.5935 -2.2153
  258MOL0     H35597   7.901   0.915   4.452  2.1428 -2.2788  0.5093
  258MOL0     H35598   8.159   1.065   4.505  1.1523 -2.0506 -0.0854
  258MOL0     H35599   8.102   0.908   4.562  1.7350  0.8591 -0.3401
  258MOL0     H35600   7.857   1.186   4.777  1.7372  1.6627  1.3677
  258MOL0     H35601   7.855   0.892   3.912  0.5232 -0.4760  1.7945
  258MOL0     H35602   7.755   0.952   3.684  0.5863  0.0992  2.2426
  258MOL0     H35603   7.708   0.780   3.672  1.5471  0.3181 -1.2593
  258MOL0     H35604   7.587   0.901   3.642  0.2833  0.9409 -0.3556
  259MOL0     O35605   2.257   8.920   4.335  0.8332  0.4208  0.0133
  259MOL0     C35606   2.268   8.877   4.215  0.6937 -0.0164 -0.0161
  259MOL0     O35607   2.196   8.927   4.102  0.2961  1.2491  0.0437
  259MOL0     C35608   2.125   9.043   4.095  0.0341 -0.4152  0.9544
  259MOL0     C35609   2.179   9.171   4.129  0.2450 -0.0082 -0.2917
  259MOL0     C35610   2.110   9.284   4.100  0.8005 -0.3630 -0.2095
  259MOL0     C35611   1.989   9.281   4.038 -0.5734 -0.2429  0.0610
  259MOL0     O35612   1.925   9.392   3.999 -0.1763 -0.2880  0.2604
  259MOL0     C35613   1.974   9.524   4.038 -0.0024 -0.6543 -0.7403
  259MOL0     C35614   2.038   9.603   3.922 -0.0205 -0.3524 -1.0203
  259MOL0     C35615   2.189   9.560   3.900 -0.7773 -0.2361 -0.1264
  259MOL0     C35616   2.249   9.625   3.779  0.0661 -0.5989 -0.2951
  259MOL0     C35617   2.203   9.561   3.658 -0.7440 -0.4996  0.5759
  259MOL0     C35618   2.302   9.575   3.540 -0.3197  0.1042  0.2377
  259MOL0     C35619   2.256   9.479   3.432 -0.5882  1.0909  0.0042
  259MOL0     C35620   2.322   9.511   3.292 -0.2716  0.1486  0.1156
  259MOL0     N35621   2.467   9.490   3.295  0.3263  1.0557  0.2659
  259MOL0     C35622   2.554   9.587   3.336 -0.3920 -0.3769  0.0852
  259MOL0     C35623   2.676   9.530   3.326 -0.7385 -0.3341  0.1202
  259MOL0     C35624   2.808   9.585   3.341 -1.2390 -0.2476 -0.0738
  259MOL0     C35625   2.881   9.540   3.468 -1.5090  0.1666 -0.1700
  259MOL0     C35626   2.922   9.388   3.479  0.1604 -0.7850 -1.3555
  259MOL0     C35627   2.972   9.373   3.622 -0.0484  0.5415  0.6285
  259MOL0     O35628   3.015   9.240   3.652  0.3938 -0.0357  0.0825
  259MOL0     C35629   3.019   9.221   3.793  0.9064 -0.1951  0.7954
  259MOL0     C35630   3.131   9.247   3.871 -0.5234  0.7650  0.3119
  259MOL0     C35631   3.140   9.216   4.003 -0.4397  1.0810 -0.7935
  259MOL0     C35632   3.273   9.259   4.059  0.3459  0.2257 -0.9013
  259MOL0     C35633   3.024   9.173   4.075 -0.4928 -0.4879  0.4380
  259MOL0     C35634   3.024   9.152   4.226 -0.8362 -0.3058  0.3694
  259MOL0     O35635   2.903   9.141   4.277  0.7500  0.5297 -0.4172
  259MOL0     C35636   2.894   9.159   4.410 -0.0280 -0.3520  0.3056
  259MOL0     C35637   2.803   9.252   4.455 -0.2892 -1.1721 -0.9405
  259MOL0     C35638   2.779   9.270   4.594 -0.5975 -0.8336  0.9530
  259MOL0     C35639   2.866   9.196   4.681 -0.5317 -0.2417 -0.0631
  259MOL0     O35640   2.845   9.224   4.809 -0.7534  0.2130  0.2643
  259MOL0     C35641   2.929   9.163   4.907  1.1000 -0.3447 -0.0222
  259MOL0     C35642   2.909   9.240   5.039  0.7888  0.2656  0.0644
  259MOL0     C35643   2.769   9.283   5.078  0.0552  0.1144 -0.0588
  259MOL0     C35644   2.763   9.382   5.200 -0.7745 -0.0577 -0.0049
  259MOL0     C35645   2.622   9.404   5.261  0.2452 -0.6479  0.5089
  259MOL0     C35646   2.577   9.296   5.354  0.2467  0.2693 -0.9436
  259MOL0     C35647   2.427   9.308   5.393 -0.6520  0.6037 -0.8603
  259MOL0     C35648   2.313   9.312   5.290 -0.5754 -0.1137 -1.0922
  259MOL0    Cl35649   2.347   9.219   5.147  0.0623  0.3121  0.1979
  259MOL0     C35650   2.961   9.106   4.632 -0.2991 -0.0075  0.1150
  259MOL0     C35651   2.971   9.088   4.496 -0.1097  0.4892 -0.0902
  259MOL0     O35652   3.127   9.186   4.285  0.1604 -0.3398 -0.2627
  259MOL0     C35653   2.906   9.159   3.998  0.1554 -0.8649 -0.0751
  259MOL0     C35654   2.913   9.163   3.858  0.0171  0.4203  0.7107
  259MOL0     N35655   2.661   9.405   3.265 -0.1564  0.8719 -0.0972
  259MOL0     N35656   2.541   9.379   3.252  0.3945  0.0283 -0.4256
  259MOL0     C35657   1.940   9.148   4.001  0.3320 -0.0557  0.3527
  259MOL0     C35658   2.005   9.032   4.030  0.4352 -0.6553 -0.6397
  259MOL0     C35659   2.354   8.765   4.183  0.3827  0.0024  0.2063
  259MOL0     C35660   2.393   8.730   4.058  0.3603  0.3365  1.5028
  259MOL0     C35661   2.487   8.625   4.041 -0.0453 -0.1099  0.1416
  259MOL0     C35662   2.529   8.536   4.141  0.3459  0.3698  0.1574
  259MOL0     O35663   2.631   8.457   4.110  0.3765  0.0679 -0.0780
  259MOL0     C35664   2.737   8.455   4.204 -0.1597  0.8592  0.0244
  259MOL0     C35665   2.846   8.382   4.132  0.1564  0.1034  0.4354
  259MOL0     C35666   2.896   8.471   4.017 -0.8549  0.6022  0.7101
  259MOL0     C35667   3.036   8.412   3.976  1.0143 -0.5014 -1.3973
  259MOL0     C35668   3.116   8.480   3.875  0.6357  0.2549 -0.0070
  259MOL0     C35669   3.177   8.548   3.800  0.1131  1.3515  1.8010
  259MOL0     C35670   2.469   8.556   4.262  0.2064  0.2477  0.1787
  259MOL0     C35671   2.391   8.675   4.288  0.0337 -0.4560  1.6568
  259MOL0     C35672   2.358   8.677   4.442 -0.1458 -0.8719 -0.2699
  259MOL0     H35673   2.278   9.167   4.172  0.4989 -3.1106 -0.8883
  259MOL0     H35674   2.153   9.379   4.130  1.2527 -0.2994 -1.0304
  259MOL0     H35675   2.035   9.524   4.128 -1.3467 -0.0124  0.2008
  259MOL0     H35676   1.880   9.571   4.069  1.8050  2.2869  0.6732
  259MOL0     H35677   1.972   9.590   3.835  0.0797 -2.4571 -0.8253
  259MOL0     H35678   2.030   9.711   3.941  0.2209 -0.2058 -1.7271
  259MOL0     H35679   2.246   9.589   3.989  1.1599  1.6436 -1.8574
  259MOL0     H35680   2.208   9.454   3.881  1.1528  0.2115 -0.9002
  259MOL0     H35681   2.228   9.732   3.791  0.1730 -0.5509 -0.5373
  259MOL0     H35682   2.359   9.621   3.774  0.1370  1.2906 -4.1582
  259MOL0     H35683   2.105   9.602   3.632  0.5236  3.7477  1.5348
  259MOL0     H35684   2.206   9.453   3.670 -0.2201 -0.7448 -1.4175
  259MOL0     H35685   2.283   9.673   3.496 -1.0475 -0.6045 -1.0753
  259MOL0     H35686   2.407   9.557   3.565  0.3930  0.2409 -2.3952
  259MOL0     H35687   2.148   9.488   3.420 -0.7254  0.7419  0.9194
  259MOL0     H35688   2.297   9.385   3.470  0.5033  0.7394 -1.9129
  259MOL0     H35689   2.265   9.437   3.234 -0.4875  1.1626 -1.0279
  259MOL0     H35690   2.292   9.604   3.242  0.2917  0.4228  0.2830
  259MOL0     H35691   2.527   9.689   3.361  2.2476  0.8713 -1.6308
  259MOL0     H35692   2.803   9.693   3.358 -1.0682 -0.4919  1.7951
  259MOL0     H35693   2.867   9.572   3.250  1.2072  2.3872  0.9791
  259MOL0     H35694   2.974   9.593   3.489 -2.0346  1.1170 -0.1532
  259MOL0     H35695   2.818   9.563   3.555 -0.4022  1.1785  0.3895
  259MOL0     H35696   2.842   9.313   3.478 -0.6106 -0.0362  0.2418
  259MOL0     H35697   2.998   9.356   3.408  2.1459 -1.3618  0.9038
  259MOL0     H35698   3.059   9.437   3.641 -0.6608  1.4261  0.5202
  259MOL0     H35699   2.891   9.401   3.690 -2.1145  0.0073 -1.4711
  259MOL0     H35700   3.201   9.305   3.812  0.6779  0.5218  1.4587
  259MOL0     H35701   3.262   9.359   4.101  0.0406  0.0213 -0.4860
  259MOL0     H35702   3.341   9.283   3.976 -1.3259  1.2326 -2.0282
  259MOL0     H35703   3.323   9.190   4.128  2.5614 -0.5866 -3.1555
  259MOL0     H35704   2.763   9.317   4.377  0.5394  1.6212  0.7922
  259MOL0     H35705   2.707   9.330   4.648 -1.5603 -1.0477 -0.0674
  259MOL0     H35706   2.893   9.060   4.917 -1.0120  0.3860  0.4660
  259MOL0     H35707   3.036   9.158   4.887  0.8667  2.0787 -2.5085
  259MOL0     H35708   2.936   9.160   5.108 -2.0211  0.0607  1.0713
  259MOL0     H35709   2.981   9.321   5.042  0.9977  0.1332 -0.9565
  259MOL0     H35710   2.701   9.201   5.102  0.5461 -0.3504 -0.2225
  259MOL0     H35711   2.718   9.322   4.989 -0.4345 -0.9288 -0.2562
  259MOL0     H35712   2.798   9.469   5.144 -0.3228 -1.2714 -1.6940
  259MOL0     H35713   2.840   9.358   5.274 -0.0529  0.3253 -0.6203
  259MOL0     H35714   2.611   9.493   5.324 -0.9984  1.1504 -2.0803
  259MOL0     H35715   2.556   9.410   5.175  0.3630  3.5881  0.4946
  259MOL0     H35716   2.648   9.280   5.435  1.4712 -0.6063 -2.1484
  259MOL0     H35717   2.584   9.198   5.307 -2.9060 -2.1545  2.9743
  259MOL0     H35718   2.412   9.372   5.480  2.7978 -2.5130  2.3739
  259MOL0     H35719   2.418   9.216   5.451 -1.4564  1.1380 -0.1213
  259MOL0     H35720   2.312   9.415   5.255 -3.8338  0.7948  1.2395
  259MOL0     H35721   2.214   9.280   5.323 -0.7628 -0.5787 -2.0439
  259MOL0     H35722   3.033   9.059   4.699  2.1734  0.1686 -2.2594
  259MOL0     H35723   3.056   9.027   4.468 -2.3756 -2.2082 -1.5923
  259MOL0     H35724   2.811   9.126   4.040 -1.1030  0.7213 -1.5405
  259MOL0     H35725   2.823   9.152   3.798 -1.1564 -1.8050  2.7208
  259MOL0     H35726   1.845   9.129   3.952  1.6818 -1.3462 -1.9578
  259MOL0     H35727   1.968   8.933   4.004 -2.9129 -0.3279  2.1543
  259MOL0     H35728   2.367   8.784   3.967  1.7233 -4.5109 -2.1675
  259MOL0     H35729   2.534   8.622   3.943  0.5290 -1.6493  0.4374
  259MOL0     H35730   2.759   8.559   4.231 -2.5532  1.5482 -0.4584
  259MOL0     H35731   2.697   8.396   4.287 -3.0295 -0.9088 -2.3951
  259MOL0     H35732   2.808   8.283   4.102 -2.1908  1.0470  0.1088
  259MOL0     H35733   2.934   8.364   4.194  0.2049  2.3829  1.1017
  259MOL0     H35734   2.826   8.462   3.933 -1.1824 -2.9009  1.1734
  259MOL0     H35735   2.916   8.574   4.045 -0.0656  0.7062 -0.2135
  259MOL0     H35736   3.024   8.310   3.938  1.5403 -0.6810 -1.0910
  259MOL0     H35737   3.103   8.401   4.062 -2.3794 -0.3065  1.4878
  259MOL0     H35738   3.207   8.618   3.725 -1.0372 -0.1139 -0.1287
  259MOL0     H35739   2.477   8.491   4.348 -1.1465 -0.0238  0.1231
  259MOL0     H35740   2.262   8.635   4.473 -0.2390  1.2541  2.6990
  259MOL0     H35741   2.427   8.628   4.511  0.0407 -0.8366 -0.4310
  259MOL0     H35742   2.367   8.782   4.471  0.3818 -0.8824 -0.3903
  260MOL0     O35743   7.873   2.278   3.503 -0.1565 -0.7569  0.3833
  260MOL0     C35744   7.918   2.166   3.493  0.0713 -0.3441 -0.7359
  260MOL0     O35745   7.864   2.061   3.422 -0.4121 -0.7177 -0.7744
  260MOL0     C35746   7.739   2.043   3.384 -0.4032 -0.7766  0.0241
  260MOL0     C35747   7.726   1.913   3.342  0.1269 -0.1700 -0.5711
  260MOL0     C35748   7.598   1.855   3.327  0.0690  0.1386  0.0389
  260MOL0     C35749   7.488   1.926   3.361  0.1564  0.2368 -0.0014
  260MOL0     O35750   7.369   1.858   3.380 -0.1119  0.0823 -0.9910
  260MOL0     C35751   7.356   1.771   3.493 -0.2251  0.1498  0.3952
  260MOL0     C35752   7.226   1.693   3.467  0.2468  0.5267 -0.7829
  260MOL0     C35753   7.264   1.555   3.400  0.5951  0.1324 -0.2195
  260MOL0     C35754   7.132   1.481   3.382  0.5546 -0.1220 -0.2258
  260MOL0     C35755   7.093   1.386   3.501 -0.5128 -0.5462  0.2009
  260MOL0     C35756   6.968   1.311   3.465 -0.0326  0.3233  0.7585
  260MOL0     C35757   6.951   1.204   3.574  0.0496  0.1610 -0.3777
  260MOL0     C35758   6.833   1.104   3.551 -0.2557 -0.6151  0.0087
  260MOL0     N35759   6.701   1.166   3.541  0.7083 -0.1028 -0.7479
  260MOL0     C35760   6.586   1.122   3.482  0.4814  0.8507  0.2401
  260MOL0     C35761   6.488   1.203   3.524  0.4927  0.4312  0.7396
  260MOL0     C35762   6.350   1.192   3.484 -0.0062  0.0447  0.4252
  260MOL0     C35763   6.277   1.328   3.483 -0.1834 -0.1266  0.2103
  260MOL0     C35764   6.149   1.314   3.399  0.1771  0.6980 -0.2460
  260MOL0     C35765   6.053   1.432   3.412 -0.6836  0.4302  0.7846
  260MOL0     O35766   6.064   1.524   3.304  0.9196 -0.0622 -0.1955
  260MOL0     C35767   6.124   1.647   3.297  0.3484 -0.4037 -0.4359
  260MOL0     C35768   6.120   1.717   3.180  0.3906  0.4546 -0.4751
  260MOL0     C35769   6.167   1.842   3.156 -0.2829  0.0165 -0.6027
  260MOL0     C35770   6.148   1.919   3.020 -0.4262  0.0720  0.5237
  260MOL0     C35771   6.235   1.898   3.268 -0.5864 -0.3889  0.3736
  260MOL0     C35772   6.295   2.039   3.269 -0.2106 -0.5388  0.7880
  260MOL0     O35773   6.316   2.100   3.395  0.3697  0.1191  0.7083
  260MOL0     C35774   6.421   2.191   3.423  0.1009 -0.3509 -0.7512
  260MOL0     C35775   6.399   2.267   3.548  0.2564  0.8806  0.2447
  260MOL0     C35776   6.472   2.385   3.573  0.2399  0.0627 -0.3714
  260MOL0     C35777   6.573   2.421   3.494 -0.0879 -0.5833 -0.2078
  260MOL0     O35778   6.647   2.531   3.533  1.2108 -0.5460  0.1710
  260MOL0     C35779   6.785   2.515   3.493 -0.6615 -0.6322 -0.4789
  260MOL0     C35780   6.889   2.597   3.564  0.4173 -0.3110  0.7197
  260MOL0     C35781   6.886   2.746   3.512 -0.3536 -0.2061 -0.0573
  260MOL0     C35782   6.997   2.839   3.553 -0.3150 -0.1107  0.2212
  260MOL0     C35783   7.145   2.790   3.509  0.2431  0.6126  0.1879
  260MOL0     C35784   7.247   2.894   3.564 -0.5498 -0.8149 -0.8070
  260MOL0     C35785   7.388   2.847   3.527 -0.3006 -0.0171  0.2285
  260MOL0     C35786   7.504   2.940   3.556  0.4766 -0.0055 -0.2037
  260MOL0    Cl35787   7.476   3.047   3.702 -0.3953 -0.6203 -0.5080
  260MOL0     C35788   6.598   2.343   3.376  0.0070 -0.6359  0.4085
  260MOL0     C35789   6.527   2.232   3.342 -0.5489 -0.2088  0.0917
  260MOL0     O35790   6.322   2.099   3.165  0.0136  0.5758 -0.6160
  260MOL0     C35791   6.249   1.828   3.391 -0.2165 -0.8505  1.1482
  260MOL0     C35792   6.195   1.705   3.407  0.8264 -0.5601  0.7712
  260MOL0     N35793   6.527   1.285   3.618 -0.6482  0.7939 -0.1667
  260MOL0     N35794   6.654   1.271   3.618 -0.5889 -0.1371  0.6520
  260MOL0     C35795   7.503   2.059   3.395  0.4911  0.7227 -0.2610
  260MOL0     C35796   7.627   2.119   3.413 -0.3822 -0.1671 -0.1632
  260MOL0     C35797   8.047   2.137   3.562  0.5572  0.3966  0.2868
  260MOL0     C35798   8.116   2.013   3.536 -0.8933  0.7786  0.9396
  260MOL0     C35799   8.234   1.971   3.589  0.7772  0.1351 -0.3612
  260MOL0     C35800   8.295   2.063   3.680 -0.0276 -0.1349  0.7111
  260MOL0     O35801   8.406   2.025   3.754 -0.0590 -0.1397 -0.7403
  260MOL0     C35802   8.380   1.952   3.868 -0.2467 -1.0823 -1.3133
  260MOL0     C35803   8.509   1.941   3.943  0.9026  0.6516 -0.4603
  260MOL0     C35804   8.564   2.067   4.015 -0.0808  0.0292  0.8581
  260MOL0     C35805   8.699   2.019   4.076  0.3103  0.8777  0.4068
  260MOL0     C35806   8.788   2.134   4.101  0.0194  0.5423 -0.0316
  260MOL0     C35807   8.869   2.214   4.133  0.5986 -0.1774  0.2948
  260MOL0     C35808   8.245   2.188   3.702 -0.2716 -0.0732 -0.6132
  260MOL0     C35809   8.124   2.229   3.649  0.6252 -0.4594 -0.6382
  260MOL0     C35810   8.071   2.361   3.695 -1.4801  1.1280  0.1228
  260MOL0     H35811   7.817   1.860   3.313  0.4612  1.2751 -2.3475
  260MOL0     H35812   7.582   1.751   3.300 -0.0273 -0.3487  1.8631
  260MOL0     H35813   7.341   1.830   3.583 -2.3140  1.1854 -0.5745
  260MOL0     H35814   7.442   1.702   3.495 -1.3790 -1.5178 -1.9954
  260MOL0     H35815   7.160   1.670   3.552 -2.3539  4.0271 -1.5979
  260MOL0     H35816   7.159   1.748   3.400 -0.2960  3.6551  2.0169
  260MOL0     H35817   7.309   1.575   3.302  2.2211  0.4189  0.5391
  260MOL0     H35818   7.338   1.502   3.461  1.0197  1.8847  0.8459
  260MOL0     H35819   7.052   1.555   3.368  0.0890 -0.6954 -0.5924
  260MOL0     H35820   7.132   1.411   3.298 -1.7243 -2.9118  1.9021
  260MOL0     H35821   7.085   1.436   3.598  2.0932  0.4897 -0.0412
  260MOL0     H35822   7.175   1.314   3.513 -1.3030 -1.4696  0.1249
  260MOL0     H35823   6.877   1.372   3.459 -0.7993 -0.8610 -0.1396
  260MOL0     H35824   6.975   1.245   3.378  0.7319  2.9176 -1.2494
  260MOL0     H35825   6.922   1.255   3.667 -1.5623 -0.4252 -0.5399
  260MOL0     H35826   7.034   1.134   3.589  0.0069 -0.0857 -1.2962
  260MOL0     H35827   6.858   1.032   3.473  0.2737  0.7941 -1.1794
  260MOL0     H35828   6.830   1.056   3.649 -3.0791  1.0878  0.8903
  260MOL0     H35829   6.571   1.027   3.432  1.6101  0.7022  0.1582
  260MOL0     H35830   6.293   1.117   3.542  0.2542 -1.5506 -1.2903
  260MOL0     H35831   6.352   1.142   3.387 -0.5107 -0.8061  0.8354
  260MOL0     H35832   6.267   1.359   3.588  0.6272 -1.9592  0.8732
  260MOL0     H35833   6.340   1.397   3.427 -0.9019  0.0537 -0.3918
  260MOL0     H35834   6.178   1.308   3.293  2.6747  0.5525  0.3852
  260MOL0     H35835   6.102   1.222   3.432  2.4017 -1.0989 -1.7286
  260MOL0     H35836   5.956   1.382   3.413 -0.1994 -0.5810 -0.6052
  260MOL0     H35837   6.060   1.483   3.509 -1.8981 -1.8058  2.1296
  260MOL0     H35838   6.067   1.656   3.107 -0.0277 -0.0427  0.2393
  260MOL0     H35839   6.238   1.916   2.959  0.7719  0.1490  2.2173
  260MOL0     H35840   6.116   2.023   3.033 -0.8235  0.0294 -0.0429
  260MOL0     H35841   6.067   1.869   2.965  0.8128  0.5507 -1.8791
  260MOL0     H35842   6.319   2.236   3.614 -0.6283  1.2393 -0.6377
  260MOL0     H35843   6.451   2.453   3.655 -3.8371 -1.6930  0.2591
  260MOL0     H35844   6.814   2.415   3.524  1.0965  0.1669  0.6722
  260MOL0     H35845   6.789   2.522   3.384 -1.1434  3.7277 -0.4108
  260MOL0     H35846   6.881   2.585   3.673  1.4309 -0.4571  0.7878
  260MOL0     H35847   6.983   2.554   3.528 -0.7171 -0.3961 -2.3525
  260MOL0     H35848   6.788   2.792   3.529 -1.3279 -1.3810 -2.0645
  260MOL0     H35849   6.878   2.739   3.403 -1.3058  1.8654 -0.1717
  260MOL0     H35850   7.001   2.840   3.662  1.5272 -1.4005  0.2233
  260MOL0     H35851   6.991   2.935   3.501 -0.3540 -0.6698 -0.8185
  260MOL0     H35852   7.171   2.701   3.567  1.6181  2.2008  2.1484
  260MOL0     H35853   7.163   2.770   3.403  1.8261 -2.2578  0.8996
  260MOL0     H35854   7.246   2.903   3.673 -0.6654 -1.1026 -0.7822
  260MOL0     H35855   7.231   2.995   3.526 -1.5235 -0.8727 -0.5894
  260MOL0     H35856   7.397   2.824   3.421 -0.7244  3.1607 -0.6112
  260MOL0     H35857   7.425   2.759   3.581 -0.0037  0.5315  0.9462
  260MOL0     H35858   7.519   2.992   3.460  0.8418 -2.3174 -1.4579
  260MOL0     H35859   7.601   2.891   3.572 -0.3307 -1.7524 -0.4427
  260MOL0     H35860   6.659   2.383   3.296  1.0484  0.5009  1.7291
  260MOL0     H35861   6.528   2.180   3.247  0.3206 -2.1475  1.1083
  260MOL0     H35862   6.314   1.870   3.467  0.7919  2.9390 -1.4863
  260MOL0     H35863   6.210   1.666   3.508  2.5445  1.7210  1.4688
  260MOL0     H35864   7.417   2.123   3.416 -1.1538 -0.6728 -2.3910
  260MOL0     H35865   7.638   2.225   3.431 -2.6386  0.0225  0.4219
  260MOL0     H35866   8.065   1.939   3.475  1.5743  1.2736 -1.9595
  260MOL0     H35867   8.270   1.869   3.577 -0.8805 -1.1102  3.4913
  260MOL0     H35868   8.311   2.004   3.936  2.5236 -0.3480  1.1143
  260MOL0     H35869   8.355   1.849   3.841 -0.2914 -1.0639 -1.3400
  260MOL0     H35870   8.581   1.907   3.867  2.3466  2.8702 -0.1743
  260MOL0     H35871   8.503   1.857   4.013  1.1442 -0.5555 -1.8214
  260MOL0     H35872   8.571   2.148   3.942 -0.9000 -1.4512 -0.9531
  260MOL0     H35873   8.495   2.106   4.090  0.0162 -0.4525  1.2039
  260MOL0     H35874   8.751   1.939   4.023 -0.5652  0.6803 -0.1937
  260MOL0     H35875   8.674   1.972   4.171  1.4132  0.6900  0.6072
  260MOL0     H35876   8.933   2.292   4.168 -0.4113  0.6884  0.2510
  260MOL0     H35877   8.311   2.254   3.757 -1.3493  1.1240 -0.7314
  260MOL0     H35878   8.064   2.442   3.621  0.2655 -0.8078 -2.3397
  260MOL0     H35879   7.977   2.361   3.750 -0.4910  1.5090  1.8980
  260MOL0     H35880   8.151   2.392   3.762  1.6387 -1.9355 -1.8495
  261MOL0     O35881   5.745   3.829  10.617  0.2817  0.2584  0.3394
  261MOL0     C35882   5.801   3.904  10.541  0.0894  0.0616 -0.6279
  261MOL0     O35883   5.889   3.995  10.572 -0.2719 -0.5462 -0.2353
  261MOL0     C35884   5.898   4.054  10.698  0.1735  0.6584  0.0549
  261MOL0     C35885   6.009   4.035  10.775 -1.1560  0.3499 -0.2856
  261MOL0     C35886   6.033   4.104  10.889 -0.9505 -0.2789 -0.4458
  261MOL0     C35887   5.942   4.194  10.941  0.3960  0.0392  0.1799
  261MOL0     O35888   5.962   4.250  11.062  0.3060  0.0589 -0.8161
  261MOL0     C35889   6.075   4.218  11.153  0.9600  0.7547 -0.6173
  261MOL0     C35890   6.079   4.308  11.282  0.4929  0.3807  0.6983
  261MOL0     C35891   5.996   4.246  11.393  0.3765  0.2736  0.5705
  261MOL0     C35892   5.977   4.343  11.509 -0.0115 -0.0409  0.2688
  261MOL0     C35893   5.873   4.283  11.609 -0.3346 -0.2776  0.2447
  261MOL0     C35894   5.732   4.251  11.561 -0.4711  0.0057 -0.2068
  261MOL0     C35895   5.673   4.365  11.474  0.1368  0.8101  0.4303
  261MOL0     C35896   5.528   4.325  11.431  0.8936 -0.3018  0.8709
  261MOL0     N35897   5.520   4.203  11.354  0.1916  0.1933  0.2435
  261MOL0     C35898   5.597   4.191  11.233 -0.1416 -0.4253 -0.1262
  261MOL0     C35899   5.584   4.058  11.209  0.4846 -0.0989  0.4484
  261MOL0     C35900   5.649   4.002  11.086 -0.5289  0.5429  0.2615
  261MOL0     C35901   5.654   3.846  11.087 -0.1309 -0.5420 -0.1550
  261MOL0     C35902   5.711   3.794  10.958 -0.4453 -0.2498  0.4617
  261MOL0     C35903   5.863   3.784  10.952 -0.5521 -0.3190  0.2973
  261MOL0     O35904   5.926   3.702  11.048 -0.7032  0.4113 -0.1289
  261MOL0     C35905   6.025   3.765  11.121  0.1612 -0.2122  0.1880
  261MOL0     C35906   6.145   3.792  11.057 -0.1683  0.1124  0.0174
  261MOL0     C35907   6.249   3.859  11.133 -0.1532 -0.7959  1.7981
  261MOL0     C35908   6.367   3.905  11.045  0.7833 -0.8873  0.7326
  261MOL0     C35909   6.232   3.898  11.269 -0.0157 -0.7426  1.1627
  261MOL0     C35910   6.338   3.960  11.351  0.2711  0.2029  0.5690
  261MOL0     O35911   6.291   4.041  11.459 -0.6703 -0.2065 -0.2209
  261MOL0     C35912   6.391   4.065  11.552 -0.3323 -0.2660 -1.5132
  261MOL0     C35913   6.412   4.188  11.609 -0.3014 -0.0964 -0.0422
  261MOL0     C35914   6.471   4.217  11.729  0.7583  0.9076  0.1323
  261MOL0     C35915   6.492   4.099  11.809 -0.6786  0.3385  0.0384
  261MOL0     O35916   6.541   4.099  11.941  0.6722 -0.0963 -0.0696
  261MOL0     C35917   6.449   4.103  12.053  0.5633 -0.2687  0.8503
  261MOL0     C35918   6.514   4.012  12.165 -0.2064 -0.2272 -0.6040
  261MOL0     C35919   6.526   3.862  12.105 -0.5097 -0.4314  0.1355
  261MOL0     C35920   6.542   3.761  12.222  0.4055 -0.0262  0.2552
  261MOL0     C35921   6.582   3.620  12.166  0.3161 -0.0264  0.7983
  261MOL0     C35922   6.606   3.507  12.264  0.6795 -1.0993 -0.3214
  261MOL0     C35923   6.704   3.545  12.380  0.4782 -0.5347  0.0036
  261MOL0     C35924   6.716   3.421  12.475 -0.3359  0.1147  0.7457
  261MOL0    Cl35925   6.865   3.327  12.446 -0.2083 -0.4193  0.0571
  261MOL0     C35926   6.478   3.970  11.761  0.0294 -0.3847 -0.0448
  261MOL0     C35927   6.425   3.951  11.631 -0.7508  0.8222 -0.3928
  261MOL0     O35928   6.451   3.944  11.319  0.0916  0.6917  0.3555
  261MOL0     C35929   6.105   3.868  11.318  0.6519  0.5009 -0.0720
  261MOL0     C35930   6.006   3.806  11.246  0.4242  0.5436 -0.8199
  261MOL0     N35931   5.513   3.992  11.303 -0.3899  0.2556  0.9925
  261MOL0     N35932   5.478   4.078  11.384  0.3790  0.0359 -0.1795
  261MOL0     C35933   5.823   4.217  10.863  0.0219  0.0822  0.8570
  261MOL0     C35934   5.803   4.156  10.736 -0.7736 -0.2720 -0.8730
  261MOL0     C35935   5.762   3.907  10.403 -0.3162  0.1236  0.5152
  261MOL0     C35936   5.859   3.925  10.301 -0.6093  0.4275 -0.2125
  261MOL0     C35937   5.828   3.935  10.165 -0.4206  0.1785 -0.0768
  261MOL0     C35938   5.701   3.915  10.121 -0.2930 -0.1597  0.2808
  261MOL0     O35939   5.677   3.916   9.985  0.0746  0.6872 -0.2473
  261MOL0     C35940   5.536   3.928   9.941  0.5773  1.1319  0.6113
  261MOL0     C35941   5.535   3.931   9.790 -0.3484  0.1237  1.1960
  261MOL0     C35942   5.606   3.812   9.727 -1.1987 -0.0811  1.2748
  261MOL0     C35943   5.596   3.812   9.571 -0.7842 -0.0093  0.2074
  261MOL0     C35944   5.501   3.900   9.507 -0.4263  0.5610  0.1599
  261MOL0     C35945   5.441   3.991   9.450  1.3734 -0.4980 -0.6519
  261MOL0     C35946   5.610   3.877  10.222 -0.0613 -0.0325  0.0412
  261MOL0     C35947   5.635   3.876  10.357  0.0909 -0.5979  0.2434
  261MOL0     C35948   5.523   3.845  10.451  0.4852  0.7313  0.1969
  261MOL0     H35949   6.081   3.965  10.735 -1.8247 -0.9233  0.6636
  261MOL0     H35950   6.130   4.079  10.932 -0.9165 -1.4000 -1.1464
  261MOL0     H35951   6.170   4.235  11.101  0.5052 -2.8231 -2.9137
  261MOL0     H35952   6.073   4.111  11.176 -3.2671  1.1791  1.9957
  261MOL0     H35953   6.176   4.299  11.331 -0.1428 -1.7675  1.7115
  261MOL0     H35954   6.053   4.411  11.259 -1.0845 -0.0648  0.3194
  261MOL0     H35955   5.900   4.221  11.346 -1.5164  2.5023  2.9192
  261MOL0     H35956   6.047   4.154  11.424 -0.5536 -0.9495 -1.3178
  261MOL0     H35957   6.075   4.358  11.554  0.1596 -1.2974  0.3629
  261MOL0     H35958   5.946   4.440  11.469 -1.4039 -0.3346  0.5716
  261MOL0     H35959   5.875   4.359  11.687  5.2509  0.9559 -0.6942
  261MOL0     H35960   5.916   4.190  11.646  2.0940 -0.6670 -3.0749
  261MOL0     H35961   5.717   4.155  11.510 -3.5915  0.0688  0.3828
  261MOL0     H35962   5.679   4.257  11.656  0.8070 -1.7777  0.6650
  261MOL0     H35963   5.734   4.379  11.385  0.5302 -3.1416 -0.0990
  261MOL0     H35964   5.659   4.445  11.548  1.0249  0.4938  0.9558
  261MOL0     H35965   5.466   4.306  11.519 -3.8134 -0.7332 -2.1662
  261MOL0     H35966   5.478   4.408  11.382 -0.9959 -0.1797  2.8502
  261MOL0     H35967   5.648   4.263  11.171  3.4049 -0.1185  2.7936
  261MOL0     H35968   5.744   4.050  11.058 -1.1267  0.5924 -1.7730
  261MOL0     H35969   5.584   4.019  11.000  1.6518  0.3162 -1.5039
  261MOL0     H35970   5.715   3.819  11.174  3.0356 -0.6519 -2.2188
  261MOL0     H35971   5.553   3.807  11.100  0.3232 -1.8431 -0.3606
  261MOL0     H35972   5.663   3.697  10.938 -1.6997  1.0344 -3.9657
  261MOL0     H35973   5.680   3.859  10.876 -0.1700 -2.8903 -1.9091
  261MOL0     H35974   5.895   3.754  10.852  1.1066  5.1637 -1.1050
  261MOL0     H35975   5.890   3.889  10.963 -0.7932 -0.3491  1.3281
  261MOL0     H35976   6.151   3.772  10.951 -3.4926  1.8530 -0.6519
  261MOL0     H35977   6.356   3.915  10.936  2.8620  2.8501  0.6913
  261MOL0     H35978   6.458   3.846  11.057  1.1975 -0.6445 -0.9567
  261MOL0     H35979   6.396   4.005  11.077 -0.2576  0.9132 -3.2376
  261MOL0     H35980   6.370   4.262  11.542 -1.5115 -1.4083 -0.7797
  261MOL0     H35981   6.487   4.320  11.761 -1.9724  1.5029 -0.1773
  261MOL0     H35982   6.457   4.208  12.082  1.4188 -0.4723  1.3725
  261MOL0     H35983   6.351   4.071  12.016  1.0000  0.7378 -1.3163
  261MOL0     H35984   6.610   4.053  12.197  0.2528  0.8970 -3.2180
  261MOL0     H35985   6.448   4.026  12.252 -2.7948  0.3060 -2.5252
  261MOL0     H35986   6.620   3.848  12.052  0.0768  1.6006  0.5443
  261MOL0     H35987   6.437   3.830  12.050  0.4680 -1.4019 -0.9324
  261MOL0     H35988   6.444   3.757  12.268  0.4831  2.5417  0.7640
  261MOL0     H35989   6.617   3.804  12.289  1.2913  3.1940 -2.4732
  261MOL0     H35990   6.510   3.577  12.095  2.9451  1.0022 -2.8135
  261MOL0     H35991   6.678   3.636  12.116  0.7922  0.5688  1.8709
  261MOL0     H35992   6.644   3.423  12.205  0.2400 -2.9974  1.9611
  261MOL0     H35993   6.513   3.461  12.298  0.2089 -1.3340 -1.8214
  261MOL0     H35994   6.652   3.625  12.433  2.7409  0.2651  1.1286
  261MOL0     H35995   6.793   3.590  12.335  0.2429 -0.9926 -0.9541
  261MOL0     H35996   6.629   3.355  12.467  0.0789 -0.8488  3.2610
  261MOL0     H35997   6.724   3.457  12.578 -1.4022 -1.6517  1.4837
  261MOL0     H35998   6.506   3.897  11.837  3.1891  1.3216  0.5884
  261MOL0     H35999   6.401   3.850  11.601  1.2892 -0.2903  1.5081
  261MOL0     H36000   6.074   3.903  11.416 -1.2937 -0.3511 -0.3317
  261MOL0     H36001   5.915   3.790  11.303  1.7429  0.1623  1.3321
  261MOL0     H36002   5.745   4.287  10.893 -0.3958  0.2076 -0.4592
  261MOL0     H36003   5.719   4.185  10.675 -0.6543  2.3859  0.0966
  261MOL0     H36004   5.961   3.930  10.339 -1.8916 -0.1689  3.7162
  261MOL0     H36005   5.907   3.941  10.091  2.1427 -3.3954  2.0206
  261MOL0     H36006   5.493   3.832   9.972  3.3067 -0.4990 -0.2832
  261MOL0     H36007   5.478   4.009   9.986 -1.9797  1.5616 -3.0771
  261MOL0     H36008   5.573   4.021   9.741  0.6823 -0.7513  0.3328
  261MOL0     H36009   5.433   3.926   9.752  0.2315 -1.5384 -0.2699
  261MOL0     H36010   5.711   3.810   9.757 -0.6181 -1.5506 -0.6300
  261MOL0     H36011   5.565   3.713   9.751 -1.2269 -0.7650 -1.2984
  261MOL0     H36012   5.584   3.711   9.530 -2.1679  0.9786 -2.0175
  261MOL0     H36013   5.694   3.845   9.533 -0.3135 -3.2637 -1.7613
  261MOL0     H36014   5.388   4.072   9.405  1.0746 -0.6099 -0.5075
  261MOL0     H36015   5.507   3.860  10.192 -1.0437  3.8279  0.7817
  261MOL0     H36016   5.522   3.928  10.523  0.7894 -1.4644  2.8972
  261MOL0     H36017   5.430   3.837  10.393  0.6746  2.0199 -0.3129
  261MOL0     H36018   5.537   3.751  10.505 -2.0472 -0.2603 -0.7360
  262MOL0     O36019   6.579   7.448   9.095  0.5492  0.4427 -0.4471
  262MOL0     C36020   6.638   7.342   9.106  0.2152  0.3991 -0.3981
  262MOL0     O36021   6.580   7.221   9.089 -0.1442  0.3220  0.3822
  262MOL0     C36022   6.481   7.207   9.004  0.5612 -0.6104 -0.4217
  262MOL0     C36023   6.496   7.262   8.883  0.6225  0.3827 -0.0720
  262MOL0     C36024   6.388   7.258   8.794  0.6863  0.7746  0.6581
  262MOL0     C36025   6.275   7.192   8.832  0.8826  0.1566 -0.3502
  262MOL0     O36026   6.174   7.194   8.741 -0.1184 -0.4190 -0.0680
  262MOL0     C36027   6.069   7.096   8.746 -0.5287 -0.3591 -0.3803
  262MOL0     C36028   5.994   7.093   8.613  0.5261 -1.1931  0.8556
  262MOL0     C36029   5.902   6.961   8.616 -0.1106  0.0302 -0.5427
  262MOL0     C36030   5.972   6.832   8.583  0.2648  0.2208 -0.3807
  262MOL0     C36031   5.901   6.704   8.638  0.0568 -0.0748  0.1233
  262MOL0     C36032   5.766   6.681   8.576  0.0739  0.7609  0.4738
  262MOL0     C36033   5.717   6.536   8.598 -0.2662  0.8225 -0.1401
  262MOL0     C36034   5.701   6.487   8.744 -0.7963  0.3358  0.5186
  262MOL0     N36035   5.614   6.375   8.749  0.1302  1.5205  0.3726
  262MOL0     C36036   5.644   6.247   8.734 -0.1279 -0.1267 -0.1379
  262MOL0     C36037   5.539   6.172   8.778 -0.5955 -0.1228 -0.4244
  262MOL0     C36038   5.533   6.016   8.806 -0.0244 -0.3110  0.7289
  262MOL0     C36039   5.655   5.926   8.778  0.3457 -0.1628 -1.0960
  262MOL0     C36040   5.625   5.786   8.841  0.5350  0.9270 -0.4133
  262MOL0     C36041   5.727   5.679   8.783  0.1129 -0.5668 -0.3569
  262MOL0     O36042   5.741   5.549   8.847 -0.1893  0.0884  0.8405
  262MOL0     C36043   5.668   5.448   8.790  0.2044 -0.2048  0.4169
  262MOL0     C36044   5.544   5.425   8.844 -0.8563 -0.3740  0.8183
  262MOL0     C36045   5.454   5.325   8.790 -0.0280 -0.0537 -0.5093
  262MOL0     C36046   5.333   5.295   8.883 -0.3805  0.2187  0.6652
  262MOL0     C36047   5.494   5.247   8.681 -0.2705 -0.7850  0.6144
  262MOL0     C36048   5.410   5.152   8.610 -0.3823 -0.7173 -0.3295
  262MOL0     O36049   5.282   5.130   8.649  0.2169 -0.6546 -0.2363
  262MOL0     C36050   5.209   5.030   8.594 -0.2158 -0.9770 -0.8309
  262MOL0     C36051   5.247   4.896   8.606 -0.0881  1.0034 -0.2913
  262MOL0     C36052   5.163   4.797   8.535 -0.4027  0.2849 -1.0156
  262MOL0     C36053   5.049   4.830   8.466 -0.6613 -0.5590 -0.7257
  262MOL0     O36054   5.003   4.736   8.397 -0.3956 -0.6759  0.7550
  262MOL0     C36055   4.865   4.720   8.395  0.1727  0.3692 -0.0682
  262MOL0     C36056   4.845   4.616   8.283 -1.0688  0.1224  0.5825
  262MOL0     C36057   4.860   4.665   8.137 -0.2451  0.3758 -0.1273
  262MOL0     C36058   4.817   4.563   8.029 -1.2784 -0.1101 -1.2723
  262MOL0     C36059   4.862   4.616   7.885 -0.3272 -0.3319 -0.4093
  262MOL0     C36060   4.780   4.733   7.831  0.4049 -0.4960 -0.8415
  262MOL0     C36061   4.656   4.668   7.773  0.2591 -0.4617 -0.7836
  262MOL0     C36062   4.584   4.762   7.678  0.2757 -0.1458 -0.2698
  262MOL0    Cl36063   4.462   4.652   7.619 -0.2526 -0.2146  0.2184
  262MOL0     C36064   5.001   4.958   8.470  1.3339  0.3999  0.6060
  262MOL0     C36065   5.076   5.052   8.544  0.0598  0.0709  0.9047
  262MOL0     O36066   5.452   5.098   8.504 -0.4188  0.7646 -0.8749
  262MOL0     C36067   5.617   5.275   8.623  0.2911 -0.3169  0.6420
  262MOL0     C36068   5.708   5.382   8.674 -0.4404  0.0372 -0.2515
  262MOL0     N36069   5.444   6.258   8.822  0.4698 -0.4142  0.5222
  262MOL0     N36070   5.483   6.379   8.792 -0.9002  0.1073  0.2792
  262MOL0     C36071   6.257   7.138   8.964  0.1901 -0.5938 -0.3150
  262MOL0     C36072   6.366   7.144   9.046 -0.3513 -0.6598 -1.0177
  262MOL0     C36073   6.770   7.333   9.169 -0.1529 -1.1761 -0.3443
  262MOL0     C36074   6.796   7.443   9.262 -0.1699 -0.3929 -0.2581
  262MOL0     C36075   6.923   7.453   9.320  0.3749  0.0513  0.2202
  262MOL0     C36076   7.020   7.358   9.298  0.4388 -0.5312  0.0763
  262MOL0     O36077   7.144   7.351   9.354  0.2807 -0.3999  0.4871
  262MOL0     C36078   7.188   7.450   9.442  0.1554 -0.4269 -0.0991
  262MOL0     C36079   7.127   7.407   9.572 -0.8371 -0.2013 -0.4140
  262MOL0     C36080   7.215   7.310   9.636  0.3443  0.4492 -0.4852
  262MOL0     C36081   7.157   7.263   9.768  0.4459  0.1502  0.4505
  262MOL0     C36082   7.232   7.158   9.837  0.8429 -0.2140  0.1310
  262MOL0     C36083   7.300   7.065   9.881  0.5212  0.8757  0.0595
  262MOL0     C36084   6.994   7.249   9.207 -0.2670  0.0317  0.0644
  262MOL0     C36085   6.875   7.243   9.138  0.4188 -0.3345  0.4498
  262MOL0     C36086   6.846   7.131   9.044 -0.1027  0.3337  0.0766
  262MOL0     H36087   6.595   7.303   8.863 -0.0539  2.8033  1.2288
  262MOL0     H36088   6.414   7.297   8.696  1.1109  2.3373  1.3625
  262MOL0     H36089   5.994   7.121   8.821 -2.1377 -0.5997 -1.8430
  262MOL0     H36090   6.113   7.000   8.775 -0.4290 -0.1201  0.2716
  262MOL0     H36091   5.942   7.189   8.617  1.2907 -0.7730  1.0339
  262MOL0     H36092   6.058   7.108   8.526  2.1599 -0.5215  2.1179
  262MOL0     H36093   5.855   6.950   8.714  2.5872 -1.6444  0.6830
  262MOL0     H36094   5.814   6.973   8.551 -0.8139  0.7860  0.5164
  262MOL0     H36095   5.989   6.817   8.476  0.1181  1.6783 -0.6303
  262MOL0     H36096   6.069   6.835   8.633  1.1149 -1.2020 -1.8384
  262MOL0     H36097   5.881   6.713   8.746  1.4082  1.5472  0.2694
  262MOL0     H36098   5.967   6.618   8.620 -2.4723 -2.1298 -0.0264
  262MOL0     H36099   5.691   6.743   8.626  3.0769  3.8299  1.4706
  262MOL0     H36100   5.767   6.706   8.470  0.5154 -0.1107  0.2624
  262MOL0     H36101   5.787   6.469   8.547 -0.1962 -0.1055  1.1204
  262MOL0     H36102   5.621   6.531   8.546  0.0090 -0.0677 -0.5865
  262MOL0     H36103   5.795   6.455   8.789 -1.0276 -0.9646  0.1128
  262MOL0     H36104   5.665   6.575   8.800  0.8827  2.0633 -0.9745
  262MOL0     H36105   5.736   6.193   8.712 -0.3282 -0.7922  0.5852
  262MOL0     H36106   5.452   5.969   8.749 -0.7988  2.5032 -0.6446
  262MOL0     H36107   5.512   6.005   8.913 -1.4310  0.8368  0.5996
  262MOL0     H36108   5.669   5.922   8.669 -0.0699 -1.1994 -1.1233
  262MOL0     H36109   5.742   5.972   8.825  0.5091 -1.9760  0.4672
  262MOL0     H36110   5.646   5.793   8.948  3.1438 -3.4623 -0.3846
  262MOL0     H36111   5.523   5.751   8.822  0.0711  2.8653 -1.6994
  262MOL0     H36112   5.712   5.658   8.676 -0.9112 -2.9456  0.1872
  262MOL0     H36113   5.826   5.724   8.796  0.1274  0.5269 -3.3786
  262MOL0     H36114   5.510   5.485   8.928 -1.8748  0.4374 -0.1267
  262MOL0     H36115   5.365   5.320   8.985  0.8894  0.2617  0.2794
  262MOL0     H36116   5.322   5.187   8.896 -1.8650  0.1875 -0.5646
  262MOL0     H36117   5.249   5.355   8.848  0.8852  0.1071 -3.0424
  262MOL0     H36118   5.340   4.872   8.656  0.1222  0.8149 -0.7697
  262MOL0     H36119   5.203   4.698   8.552 -0.7041  0.2661 -0.3856
  262MOL0     H36120   4.835   4.671   8.488  0.0679  1.1069  0.2918
  262MOL0     H36121   4.800   4.805   8.373 -1.1123 -0.9638 -1.7168
  262MOL0     H36122   4.899   4.521   8.295 -2.6724 -0.9866 -0.6532
  262MOL0     H36123   4.738   4.594   8.288 -1.0256 -0.7169 -1.1795
  262MOL0     H36124   4.965   4.692   8.122 -0.1113 -1.7690 -4.8823
  262MOL0     H36125   4.794   4.751   8.125 -1.8648 -0.7113  0.6439
  262MOL0     H36126   4.708   4.562   8.038 -1.2298 -2.8555 -0.2309
  262MOL0     H36127   4.848   4.461   8.052  0.7010  0.4772 -1.1381
  262MOL0     H36128   4.966   4.649   7.891 -1.0549  2.0750  0.0831
  262MOL0     H36129   4.847   4.528   7.822 -0.4558  0.5748 -1.6787
  262MOL0     H36130   4.850   4.779   7.762  1.1775  0.9800  0.8624
  262MOL0     H36131   4.752   4.812   7.901  2.1533  2.9935 -3.7697
  262MOL0     H36132   4.584   4.639   7.850  2.0231 -0.8083  0.8004
  262MOL0     H36133   4.690   4.579   7.720  3.9056  0.8199 -0.8318
  262MOL0     H36134   4.655   4.797   7.603  2.6830 -0.7167  1.6214
  262MOL0     H36135   4.549   4.849   7.736 -1.6321 -1.0221 -0.0128
  262MOL0     H36136   4.916   4.987   8.408  1.4831 -0.7369 -0.1699
  262MOL0     H36137   5.048   5.157   8.545 -1.6359 -0.1810 -2.7961
  262MOL0     H36138   5.649   5.232   8.529 -0.9685  2.6762 -1.3046
  262MOL0     H36139   5.808   5.398   8.635 -1.1090  0.4238 -1.8846
  262MOL0     H36140   6.173   7.096   9.018  1.1943 -1.5992  0.5133
  262MOL0     H36141   6.358   7.105   9.147 -0.1220 -0.8312 -1.0640
  262MOL0     H36142   6.731   7.526   9.289  1.1929  0.9927 -1.0760
  262MOL0     H36143   6.928   7.533   9.393  0.5570  1.3545 -1.1803
  262MOL0     H36144   7.296   7.466   9.444  0.3690 -1.4442 -1.7379
  262MOL0     H36145   7.150   7.550   9.418 -2.2600 -1.5409 -1.2013
  262MOL0     H36146   7.025   7.370   9.561 -2.2252  1.9562  3.2325
  262MOL0     H36147   7.121   7.492   9.641 -0.8311  0.8493 -1.6855
  262MOL0     H36148   7.217   7.219   9.575  1.9047  0.7166 -0.8693
  262MOL0     H36149   7.318   7.344   9.650  0.8411  1.2187 -4.8200
  262MOL0     H36150   7.058   7.221   9.748  0.9750 -0.3022 -1.3802
  262MOL0     H36151   7.148   7.349   9.836  1.9069  2.2588 -1.8447
  262MOL0     H36152   7.351   6.983   9.925  0.8663  0.9850 -0.1305
  262MOL0     H36153   7.074   7.177   9.196  0.6393  1.0509 -0.1328
  262MOL0     H36154   6.765   7.065   9.075 -0.6343  1.6463  1.6356
  262MOL0     H36155   6.820   7.177   8.948 -0.4696  1.3202  0.6321
  262MOL0     H36156   6.933   7.065   9.034  0.0151  0.7550 -2.6434
  263MOL0     O36157   0.610   2.318   8.925  0.3280  0.2958  0.0513
  263MOL0     C36158   0.555   2.424   8.963 -0.9691  1.2054  0.3802
  263MOL0     O36159   0.429   2.434   9.007  0.3601  0.1168  0.3174
  263MOL0     C36160   0.348   2.330   9.060  0.2364 -0.8371  0.6734
  263MOL0     C36161   0.215   2.365   9.059  0.6955 -0.7606 -0.8897
  263MOL0     C36162   0.120   2.268   9.095  0.0174  0.4911 -1.1056
  263MOL0     C36163   0.163   2.143   9.144  0.3303 -0.1122  0.0507
  263MOL0     O36164   0.057   2.068   9.193 -0.3215  0.0890 -0.2006
  263MOL0     C36165   0.069   1.925   9.187  0.4690  0.2535  0.3629
  263MOL0     C36166   0.135   1.879   9.312 -0.0157 -0.1108 -0.1882
  263MOL0     C36167   0.056   1.779   9.399  0.7561 -0.2525  0.0615
  263MOL0     C36168  -0.091   1.819   9.427 -0.7498  0.7573 -0.2008
  263MOL0     C36169  -0.101   1.932   9.524 -0.2699  0.3756  0.7545
  263MOL0     C36170  -0.252   1.975   9.525 -0.4809  0.6484  0.4691
  263MOL0     C36171  -0.285   2.030   9.657  0.4120 -0.1742  0.0559
  263MOL0     C36172  -0.412   2.132   9.657 -0.1352  0.5072  0.4034
  263MOL0     N36173  -0.433   2.188   9.789  0.0006 -0.4622 -0.1756
  263MOL0     C36174  -0.473   2.125   9.903  0.5376  0.1528  0.2939
  263MOL0     C36175  -0.491   2.227   9.994 -0.5976 -0.2103 -0.5440
  263MOL0     C36176  -0.584   2.215  10.120  0.0017  0.2092  0.1458
  263MOL0     C36177  -0.710   2.300  10.095 -0.2569 -0.2258 -0.4946
  263MOL0     C36178  -0.773   2.293   9.963 -0.3629 -0.3559 -0.3540
  263MOL0     C36179  -0.819   2.149   9.941  0.0128  0.1903  0.2360
  263MOL0     O36180  -0.906   2.123  10.052  0.2705 -0.0499  0.3915
  263MOL0     C36181  -0.965   2.000  10.026 -0.4297 -0.0221  1.1409
  263MOL0     C36182  -0.889   1.881  10.016  0.8145  0.2912 -0.3988
  263MOL0     C36183  -0.960   1.754   9.995 -1.2569  1.1516  0.4341
  263MOL0     C36184  -0.871   1.640   9.991  0.5755  0.9487  0.2123
  263MOL0     C36185  -1.101   1.751   9.978  0.1489  1.2119  0.3628
  263MOL0     C36186  -1.191   1.635   9.959 -0.2009 -1.1829  0.2169
  263MOL0     O36187  -1.326   1.660   9.972 -0.0797  0.1273 -0.0117
  263MOL0     C36188  -1.413   1.557   9.947 -0.2997  0.2385  1.0695
  263MOL0     C36189  -1.407   1.492   9.818 -0.1586  0.4239  0.1770
  263MOL0     C36190  -1.511   1.401   9.789 -0.5675 -0.5108 -0.5880
  263MOL0     C36191  -1.615   1.381   9.880  0.1298  0.3518  0.2506
  263MOL0     O36192  -1.707   1.283   9.854  0.1842  0.1788 -0.0571
  263MOL0     C36193  -1.703   1.167   9.936 -0.2853  0.6908 -0.3153
  263MOL0     C36194  -1.818   1.074   9.906 -0.3639 -0.0027  0.2674
  263MOL0     C36195  -1.805   0.990   9.771  0.5242  0.0783 -0.0162
  263MOL0     C36196  -1.857   0.842   9.800 -0.1098  0.2035  0.0237
  263MOL0     C36197  -1.875   0.776   9.662  0.8774  0.5739  0.3739
  263MOL0     C36198  -1.952   0.641   9.677  1.2932 -0.5026 -0.4418
  263MOL0     C36199  -2.096   0.648   9.729 -0.3571  0.1160  0.4467
  263MOL0     C36200  -2.134   0.499   9.746 -0.9976  0.1330 -0.5962
  263MOL0    Cl36201  -2.131   0.396   9.596 -0.1083 -0.0585 -0.2257
  263MOL0     C36202  -1.616   1.443  10.011 -0.6068  0.2563 -0.9725
  263MOL0     C36203  -1.507   1.522  10.048  0.1895 -1.0640  0.5413
  263MOL0     O36204  -1.144   1.526   9.947 -0.9392 -0.2600 -1.3928
  263MOL0     C36205  -1.169   1.870   9.998  0.6714  0.5187  1.2850
  263MOL0     C36206  -1.104   1.991  10.013  1.2147  0.0080 -0.2709
  263MOL0     N36207  -0.442   2.343   9.941 -0.3160 -0.6078 -0.5863
  263MOL0     N36208  -0.408   2.316   9.826  0.0598  0.0767  0.3476
  263MOL0     C36209   0.302   2.109   9.140  0.9432 -0.6032  0.6759
  263MOL0     C36210   0.392   2.205   9.097  0.6482  0.0423  0.5303
  263MOL0     C36211   0.643   2.544   8.957  0.3343  0.2940 -0.2609
  263MOL0     C36212   0.693   2.591   9.081 -0.6118 -0.9080  0.1920
  263MOL0     C36213   0.753   2.717   9.090  0.8947  0.2615 -0.0754
  263MOL0     C36214   0.765   2.789   8.970 -0.0157 -0.6739 -0.7149
  263MOL0     O36215   0.821   2.907   8.980  0.7583  0.7952 -0.4943
  263MOL0     C36216   0.959   2.918   8.957  0.4481  0.7842 -0.7948
  263MOL0     C36217   1.011   3.044   9.031 -0.2846  0.3991  0.8158
  263MOL0     C36218   1.056   3.015   9.182 -0.7129 -0.2592 -0.0388
  263MOL0     C36219   1.158   3.121   9.221  0.1018  0.7713 -0.9426
  263MOL0     C36220   1.166   3.138   9.372  0.4536 -1.0737  0.3596
  263MOL0     C36221   1.183   3.158   9.491 -0.2773 -0.4488  0.4986
  263MOL0     C36222   0.706   2.749   8.850 -0.8517 -1.0243 -0.3305
  263MOL0     C36223   0.655   2.620   8.840  0.7880  0.1671 -0.3599
  263MOL0     C36224   0.600   2.560   8.707 -1.0649 -0.4842 -0.5756
  263MOL0     H36225   0.177   2.466   9.048 -2.2292 -1.6642  0.0519
  263MOL0     H36226   0.018   2.305   9.091  0.6979  2.3792 -3.3570
  263MOL0     H36227   0.135   1.915   9.100  3.7352 -2.7723  2.8927
  263MOL0     H36228  -0.029   1.879   9.172  0.9173 -1.1469  1.4473
  263MOL0     H36229   0.226   1.825   9.284  1.0908 -0.4933  3.6019
  263MOL0     H36230   0.167   1.961   9.378  0.7308 -2.7941  3.0552
  263MOL0     H36231   0.060   1.690   9.335  1.3554  0.0060 -0.2737
  263MOL0     H36232   0.112   1.770   9.493  1.5007  1.7379 -0.1356
  263MOL0     H36233  -0.148   1.844   9.337 -1.0073 -0.1587 -0.3092
  263MOL0     H36234  -0.144   1.733   9.469  0.3683  0.7411  1.2603
  263MOL0     H36235  -0.044   2.022   9.499  2.3243 -1.2791  0.3639
  263MOL0     H36236  -0.061   1.907   9.623  1.7441  0.6726  0.0557
  263MOL0     H36237  -0.261   2.041   9.438 -4.7677 -1.6208 -1.1026
  263MOL0     H36238  -0.309   1.884   9.504  2.5481 -1.4741  0.7594
  263MOL0     H36239  -0.197   2.083   9.691  0.4890  2.1850 -3.3373
  263MOL0     H36240  -0.305   1.943   9.720  1.9410  0.3289  1.2837
  263MOL0     H36241  -0.396   2.219   9.592 -1.7510  1.3008  1.0117
  263MOL0     H36242  -0.501   2.082   9.618  0.3644  0.0848 -0.2242
  263MOL0     H36243  -0.490   2.019   9.919  1.9661 -0.0973  0.2073
  263MOL0     H36244  -0.531   2.250  10.209  1.8844 -0.8621 -0.4868
  263MOL0     H36245  -0.618   2.111  10.120 -0.8596  0.4824  1.2530
  263MOL0     H36246  -0.783   2.274  10.173  1.7708 -1.6449  1.0300
  263MOL0     H36247  -0.680   2.404  10.105  0.5377 -0.2591 -2.2899
  263MOL0     H36248  -0.857   2.363   9.966  0.3190  0.4586  0.7958
  263MOL0     H36249  -0.704   2.336   9.889 -0.6510 -0.0376 -0.4372
  263MOL0     H36250  -0.867   2.143   9.843 -1.0890 -0.7854  0.8049
  263MOL0     H36251  -0.734   2.080   9.939  2.1754  2.7049  0.5643
  263MOL0     H36252  -0.782   1.886  10.028  0.9333 -2.6568  0.4775
  263MOL0     H36253  -0.766   1.668   9.993  0.4792  1.2767  1.2079
  263MOL0     H36254  -0.898   1.587   9.899 -1.9030  3.5572 -0.7254
  263MOL0     H36255  -0.884   1.579  10.080  1.5430  1.3415  0.6348
  263MOL0     H36256  -1.332   1.525   9.747  2.1349 -1.8128  1.3931
  263MOL0     H36257  -1.507   1.348   9.695  2.1749  2.1228 -2.1308
  263MOL0     H36258  -1.608   1.119   9.912  1.0041  2.6302  0.6960
  263MOL0     H36259  -1.707   1.189  10.043  1.0799 -1.0477  0.1339
  263MOL0     H36260  -1.822   0.996   9.982  0.0965  0.3586  0.6701
  263MOL0     H36261  -1.910   1.131   9.892  0.0724  0.7360  0.3577
  263MOL0     H36262  -1.698   0.980   9.753  1.1608 -5.1315  4.1164
  263MOL0     H36263  -1.865   1.040   9.695  1.8742  0.8650 -0.6043
  263MOL0     H36264  -1.952   0.844   9.854  0.5782 -2.3245  1.5242
  263MOL0     H36265  -1.787   0.785   9.863  0.8098  1.3117  0.0357
  263MOL0     H36266  -1.938   0.824   9.586  4.1953 -1.4244 -4.0485
  263MOL0     H36267  -1.780   0.760   9.611 -1.3652 -3.6878 -3.1200
  263MOL0     H36268  -1.897   0.593   9.760 -1.1260  2.9585  3.5620
  263MOL0     H36269  -1.953   0.584   9.583  1.2425  1.0639 -1.4139
  263MOL0     H36270  -2.160   0.693   9.653 -1.1683 -2.9397 -0.8365
  263MOL0     H36271  -2.107   0.705   9.822 -1.8737 -2.2862  1.8799
  263MOL0     H36272  -2.240   0.495   9.774 -0.6179 -3.3709  0.7684
  263MOL0     H36273  -2.080   0.462   9.833 -3.4402 -0.9331  0.5676
  263MOL0     H36274  -1.686   1.412  10.087 -0.2746 -0.1424 -0.8251
  263MOL0     H36275  -1.522   1.569  10.145 -2.6520  2.1619 -1.2687
  263MOL0     H36276  -1.277   1.879  10.000  0.1122 -3.8022 -0.3869
  263MOL0     H36277  -1.175   2.072  10.025 -0.0510 -1.3169  1.5828
  263MOL0     H36278   0.333   2.010   9.171 -0.5042 -0.7092  1.8905
  263MOL0     H36279   0.497   2.179   9.095  1.1660  1.8107  2.2171
  263MOL0     H36280   0.687   2.526   9.167  0.9267  0.5721  1.4714
  263MOL0     H36281   0.805   2.758   9.176 -2.2857 -1.3010  2.8284
  263MOL0     H36282   1.014   2.841   9.011 -0.9041 -0.0856 -0.5994
  263MOL0     H36283   0.986   2.923   8.851  3.8144 -0.2101 -0.1050
  263MOL0     H36284   0.932   3.119   9.024  0.9728  1.6546 -4.1271
  263MOL0     H36285   1.103   3.072   8.979 -0.9038  1.4710  0.2659
  263MOL0     H36286   0.970   2.998   9.248 -0.8735 -0.2890 -0.2532
  263MOL0     H36287   1.097   2.914   9.181 -0.6170 -0.3731  3.1854
  263MOL0     H36288   1.139   3.215   9.168 -2.2135 -0.3765 -2.3394
  263MOL0     H36289   1.255   3.087   9.182 -0.4877 -0.9803 -0.9555
  263MOL0     H36290   1.197   3.182   9.595  2.4448  1.6895 -0.2604
  263MOL0     H36291   0.720   2.815   8.764 -0.4156 -0.8004 -0.0896
  263MOL0     H36292   0.611   2.452   8.721 -0.3834 -0.4093 -0.5372
  263MOL0     H36293   0.499   2.596   8.684 -0.7340  1.1552  0.3896
  263MOL0     H36294   0.665   2.588   8.624 -0.2663 -0.6908 -0.0229
  264MOL0     O36295   3.755  11.209   3.060 -0.2389 -0.7219 -0.1569
  264MOL0     C36296   3.720  11.092   3.081 -0.6946 -0.7590 -0.0229
  264MOL0     O36297   3.628  11.049   3.172  0.1507 -0.8452  0.3550
  264MOL0     C36298   3.516  11.141   3.200  0.2594  0.0138  0.2459
  264MOL0     C36299   3.434  11.121   3.303  0.1557 -0.6405 -0.4511
  264MOL0     C36300   3.314  11.185   3.332 -0.6901 -0.7134  0.3414
  264MOL0     C36301   3.283  11.306   3.275 -0.1098  0.1115  0.4939
  264MOL0     O36302   3.171  11.374   3.317 -0.4782  0.2822  0.7231
  264MOL0     C36303   3.157  11.513   3.285  1.1429 -0.3680 -0.0199
  264MOL0     C36304   3.062  11.604   3.362 -0.3334  1.0213 -0.6438
  264MOL0     C36305   3.040  11.748   3.307  0.8336 -0.2398  0.8110
  264MOL0     C36306   2.913  11.773   3.220 -0.3738  0.1204 -0.6212
  264MOL0     C36307   2.876  11.675   3.099 -0.1970  0.0794 -0.0692
  264MOL0     C36308   2.744  11.684   3.027  0.2392 -0.1744  0.0649
  264MOL0     C36309   2.615  11.621   3.106 -0.6528 -1.0189 -0.0037
  264MOL0     C36310   2.486  11.653   3.039  0.2048  0.3886  0.0775
  264MOL0     N36311   2.426  11.539   2.974  0.3199  0.0712  0.2836
  264MOL0     C36312   2.485  11.463   2.883 -0.2950  0.5027  0.2590
  264MOL0     C36313   2.396  11.370   2.838 -0.2562 -0.0040 -1.0610
  264MOL0     C36314   2.425  11.265   2.734 -0.1145 -0.1288  0.2318
  264MOL0     C36315   2.509  11.150   2.790 -0.4179 -0.7961 -0.4358
  264MOL0     C36316   2.597  11.085   2.678  0.0516  0.1289 -0.7002
  264MOL0     C36317   2.668  10.954   2.727  0.1104 -1.4514 -0.0509
  264MOL0     O36318   2.570  10.856   2.768  0.4723 -0.0457  0.3002
  264MOL0     C36319   2.633  10.742   2.822 -0.3011  0.0503  1.3839
  264MOL0     C36320   2.559  10.641   2.857 -0.1611  0.9479  1.0754
  264MOL0     C36321   2.609  10.525   2.903 -0.6729  0.7189 -0.6113
  264MOL0     C36322   2.503  10.423   2.948  0.2691  0.3530 -0.2515
  264MOL0     C36323   2.747  10.507   2.910  0.0962 -0.0429 -0.4603
  264MOL0     C36324   2.801  10.383   2.971 -0.8240  0.0380  0.0285
  264MOL0     O36325   2.887  10.317   2.891  0.0478  0.3713 -0.6695
  264MOL0     C36326   2.996  10.246   2.939  0.1179 -0.2245  0.0832
  264MOL0     C36327   3.110  10.312   2.963 -0.4602 -0.5830  0.3175
  264MOL0     C36328   3.221  10.233   2.990  0.0066  0.3250 -0.0660
  264MOL0     C36329   3.215  10.097   2.995 -0.5258  0.2223 -0.7609
  264MOL0     O36330   3.330  10.030   3.023  0.4555 -0.7421 -0.4368
  264MOL0     C36331   3.337   9.891   3.041  0.9364 -0.3421  0.3885
  264MOL0     C36332   3.480   9.849   3.085 -0.0488  0.3676  0.5358
  264MOL0     C36333   3.594   9.870   2.985 -0.8138 -0.7894  0.0743
  264MOL0     C36334   3.723   9.813   3.030 -0.4801 -0.0407 -0.0757
  264MOL0     C36335   3.840   9.860   2.939  0.3692  0.3460  0.0209
  264MOL0     C36336   3.978   9.835   2.998  0.2611  0.4478 -0.1538
  264MOL0     C36337   4.083   9.871   2.888  0.1086 -0.6599 -0.1913
  264MOL0     C36338   4.218   9.833   2.945  0.2314  0.6063 -1.4011
  264MOL0    Cl36339   4.349   9.866   2.822  0.1022  0.2828  0.2974
  264MOL0     C36340   3.091  10.027   2.972  0.7253  0.8583  0.6256
  264MOL0     C36341   2.987  10.107   2.928  0.4223 -0.4315 -0.3690
  264MOL0     O36342   2.790  10.365   3.094 -0.3143 -0.5636 -0.2539
  264MOL0     C36343   2.835  10.608   2.869 -0.8317  0.2109 -0.7213
  264MOL0     C36344   2.774  10.728   2.827  0.3917  0.2717 -0.4037
  264MOL0     N36345   2.286  11.379   2.923 -0.2931 -0.0290  0.3957
  264MOL0     N36346   2.298  11.489   2.989  0.0667 -0.7383 -0.5075
  264MOL0     C36347   3.366  11.340   3.167  0.2884  1.3542  0.2688
  264MOL0     C36348   3.477  11.262   3.126 -0.7547 -0.1671  0.7363
  264MOL0     C36349   3.803  10.983   3.016  0.1116 -0.5606  0.2974
  264MOL0     C36350   3.767  10.850   3.037  0.7474 -0.4559  0.4463
  264MOL0     C36351   3.843  10.749   2.960  0.4413 -0.7023 -0.0559
  264MOL0     C36352   3.951  10.780   2.882 -0.4343 -0.5395  0.0884
  264MOL0     O36353   4.029  10.683   2.826 -1.0121 -0.1524 -0.2998
  264MOL0     C36354   4.118  10.620   2.927 -0.2318 -1.7791 -1.1627
  264MOL0     C36355   4.121  10.472   2.913  0.1914 -0.1718  0.6283
  264MOL0     C36356   3.982  10.416   2.938  1.8255 -0.6043  0.7027
  264MOL0     C36357   3.980  10.268   2.957  0.2490 -0.3058  0.6485
  264MOL0     C36358   4.061  10.210   3.067  0.3452 -0.4371  0.5063
  264MOL0     C36359   4.122  10.152   3.150  0.3569 -0.4982 -0.6333
  264MOL0     C36360   3.989  10.914   2.883 -0.3533  0.8549  0.4981
  264MOL0     C36361   3.914  11.014   2.932 -0.5884  1.0348 -0.7143
  264MOL0     C36362   3.990  11.150   2.919  1.1625  0.4006  0.0423
  264MOL0     H36363   3.472  11.035   3.358  2.5914  0.8119  0.3157
  264MOL0     H36364   3.251  11.145   3.411  0.9502 -2.2371  0.9420
  264MOL0     H36365   3.138  11.510   3.177 -0.8980  4.9566 -0.1159
  264MOL0     H36366   3.255  11.561   3.298  1.6347 -0.1307 -3.6062
  264MOL0     H36367   2.965  11.554   3.370  0.8466 -1.2638  0.2358
  264MOL0     H36368   3.104  11.606   3.462  0.3789  0.1893 -0.9140
  264MOL0     H36369   3.032  11.814   3.394 -0.3300  1.1846 -0.3269
  264MOL0     H36370   3.130  11.773   3.251  0.4604 -0.0745  0.2712
  264MOL0     H36371   2.830  11.780   3.291  1.0138 -3.7171  1.7151
  264MOL0     H36372   2.925  11.872   3.177 -1.7683  0.1460 -0.9965
  264MOL0     H36373   2.879  11.573   3.139  4.0035 -1.4554 -3.5031
  264MOL0     H36374   2.951  11.672   3.020 -1.9927 -1.4398 -1.8368
  264MOL0     H36375   2.727  11.787   2.996  1.7076  0.1826  0.3863
  264MOL0     H36376   2.738  11.635   2.929 -3.0226 -1.9093  0.9727
  264MOL0     H36377   2.614  11.667   3.206  1.4865 -2.9302  0.9969
  264MOL0     H36378   2.633  11.514   3.113  0.2930 -0.8860 -0.1689
  264MOL0     H36379   2.431  11.717   3.108  1.3117  2.4414 -0.8610
  264MOL0     H36380   2.502  11.724   2.957 -0.0251 -1.7422 -1.9320
  264MOL0     H36381   2.586  11.454   2.843 -0.3493 -1.3446  0.4542
  264MOL0     H36382   2.486  11.313   2.658  2.0966  0.5246  2.2742
  264MOL0     H36383   2.331  11.220   2.700 -0.0774 -0.9906  1.2010
  264MOL0     H36384   2.570  11.182   2.875  0.7174  3.0057 -2.4656
  264MOL0     H36385   2.438  11.080   2.834 -1.7073  0.7748  0.0884
  264MOL0     H36386   2.538  11.052   2.592  1.7743  0.9586 -2.2701
  264MOL0     H36387   2.675  11.155   2.647  0.3857  0.1404  0.1340
  264MOL0     H36388   2.726  10.918   2.642 -0.1367  0.6848 -1.2114
  264MOL0     H36389   2.732  10.986   2.809 -1.4934  2.3560 -0.0573
  264MOL0     H36390   2.453  10.661   2.846  0.1401  1.8781 -0.4254
  264MOL0     H36391   2.471  10.458   3.047  1.1516  0.3255  0.0545
  264MOL0     H36392   2.542  10.321   2.963 -4.7438 -2.1321 -1.7840
  264MOL0     H36393   2.418  10.414   2.880 -0.3341 -3.0240  0.7287
  264MOL0     H36394   3.109  10.420   2.958 -1.7473 -0.6213 -2.4281
  264MOL0     H36395   3.313  10.286   3.013  0.6130  0.4901 -2.5990
  264MOL0     H36396   3.274   9.864   3.127 -1.3491  0.9794 -0.7902
  264MOL0     H36397   3.292   9.836   2.958 -0.0350  0.4984  0.3457
  264MOL0     H36398   3.485   9.916   3.171 -0.3861  0.0134  0.8376
  264MOL0     H36399   3.482   9.744   3.116  3.4732  0.5832  1.4648
  264MOL0     H36400   3.617   9.976   2.968  1.5582 -1.2534  0.0325
  264MOL0     H36401   3.565   9.839   2.885 -1.1525  0.2805 -0.1640
  264MOL0     H36402   3.711   9.705   3.041 -2.0682  0.3646  3.3872
  264MOL0     H36403   3.744   9.849   3.131  2.1320  0.5827 -0.7701
  264MOL0     H36404   3.835   9.809   2.842  1.3567  0.5800 -0.1711
  264MOL0     H36405   3.819   9.966   2.920 -3.7704 -0.0485  1.4886
  264MOL0     H36406   3.977   9.729   3.026 -3.1196  0.4034 -0.0195
  264MOL0     H36407   3.995   9.878   3.097  1.6988 -1.7116  0.6177
  264MOL0     H36408   4.095   9.979   2.879  3.9267 -0.9744 -0.1816
  264MOL0     H36409   4.058   9.822   2.793  1.3998  0.5994 -1.2202
  264MOL0     H36410   4.209   9.725   2.957  3.1664  0.4868  0.9997
  264MOL0     H36411   4.241   9.882   3.040  2.6912 -2.1454 -0.4378
  264MOL0     H36412   3.081   9.919   2.974  0.7490  0.8499  3.1848
  264MOL0     H36413   2.892  10.066   2.894 -0.6230  4.1542 -3.9613
  264MOL0     H36414   2.941  10.609   2.893 -0.5184  1.7956 -1.9674
  264MOL0     H36415   2.852  10.798   2.798  0.0958  1.4273  1.3910
  264MOL0     H36416   3.350  11.434   3.116  1.1527  1.4435  0.1362
  264MOL0     H36417   3.532  11.287   3.036 -2.9170  0.3025 -0.5421
  264MOL0     H36418   3.695  10.821   3.112 -1.8042  0.9289 -1.3169
  264MOL0     H36419   3.806  10.650   2.985  2.3017 -1.0183  1.7173
  264MOL0     H36420   4.221  10.656   2.922 -0.2547 -1.1343  1.5870
  264MOL0     H36421   4.079  10.648   3.025 -1.4380  3.7283 -2.8379
  264MOL0     H36422   4.196  10.438   2.985  2.9247 -0.9344 -2.3279
  264MOL0     H36423   4.143  10.446   2.809  1.4544  2.2674  0.1921
  264MOL0     H36424   3.939  10.452   3.033  2.9735  1.2980  0.5432
  264MOL0     H36425   3.903  10.440   2.867  0.7217 -3.7651  0.7258
  264MOL0     H36426   4.016  10.237   2.859  0.7151  4.7969 -1.0809
  264MOL0     H36427   3.876  10.233   2.957  0.0748 -1.0099 -5.9330
  264MOL0     H36428   4.172  10.103   3.231 -0.2699  1.2669  0.8881
  264MOL0     H36429   4.076  10.919   2.818 -2.4459 -0.3766 -2.6097
  264MOL0     H36430   3.999  11.194   3.019  0.9786 -0.2455  0.3464
  264MOL0     H36431   4.091  11.142   2.880  1.6684  2.4026  0.8077
  264MOL0     H36432   3.940  11.227   2.858 -0.0969 -0.7474 -0.4231
  265MOL0     O36433  10.326   6.730   4.949  0.4136 -0.6174 -0.2077
  265MOL0     C36434  10.220   6.666   4.923 -0.4508 -0.4768 -0.7666
  265MOL0     O36435  10.211   6.563   4.850 -0.6528 -0.1751 -0.2491
  265MOL0     C36436  10.303   6.533   4.756  0.2636 -0.8964 -0.5430
  265MOL0     C36437  10.369   6.620   4.666 -0.8950 -0.8002  0.3992
  265MOL0     C36438  10.458   6.570   4.571 -0.8337 -0.4408  0.6490
  265MOL0     C36439  10.462   6.431   4.564 -1.1891  0.2735  0.1711
  265MOL0     O36440  10.554   6.389   4.476  0.3128  0.1972 -0.0555
  265MOL0     C36441  10.503   6.314   4.371  0.7461 -0.2453  0.4542
  265MOL0     C36442  10.609   6.274   4.271 -0.7935 -0.4710 -0.4615
  265MOL0     C36443  10.687   6.394   4.222 -0.2899  0.7080  0.4977
  265MOL0     C36444  10.656   6.439   4.078  0.5204 -0.4526  0.0293
  265MOL0     C36445  10.503   6.481   4.054 -1.0303 -0.4265  0.0319
  265MOL0     C36446  10.485   6.567   3.927  0.1766  0.5974  0.7049
  265MOL0     C36447  10.478   6.500   3.794  0.0755 -0.5327  0.3415
  265MOL0     C36448  10.345   6.441   3.761 -0.2840  0.0344  0.7184
  265MOL0     N36449  10.232   6.537   3.764  1.3270  0.8616 -0.1395
  265MOL0     C36450  10.108   6.516   3.820 -0.4120  0.1646 -0.6998
  265MOL0     C36451  10.018   6.604   3.771 -0.0280 -0.5809  0.4810
  265MOL0     C36452   9.873   6.614   3.802 -0.1455  0.2649 -0.0476
  265MOL0     C36453   9.839   6.744   3.853  0.2978 -0.2103  0.1500
  265MOL0     C36454   9.704   6.733   3.939 -0.8956 -0.5504 -0.1322
  265MOL0     C36455   9.581   6.718   3.854  0.1643 -0.3049 -0.4642
  265MOL0     O36456   9.550   6.842   3.787 -0.1219 -0.5945  0.3456
  265MOL0     C36457   9.437   6.858   3.712  0.3644 -0.1043 -0.0496
  265MOL0     C36458   9.342   6.754   3.692 -0.0399 -0.3888  0.2740
  265MOL0     C36459   9.218   6.779   3.615 -0.0357  0.3916 -0.0419
  265MOL0     C36460   9.115   6.668   3.613 -0.2229  0.3029 -0.1314
  265MOL0     C36461   9.197   6.896   3.550 -0.0207 -0.4409 -0.9924
  265MOL0     C36462   9.086   6.921   3.450  0.3188 -0.5612  0.6150
  265MOL0     O36463   9.017   6.814   3.407 -0.7936  0.1775 -1.0964
  265MOL0     C36464   8.942   6.814   3.294 -0.8015 -0.0840 -0.4287
  265MOL0     C36465   8.832   6.896   3.276 -0.2491  0.7519  0.2053
  265MOL0     C36466   8.747   6.884   3.161  0.7749 -0.3394  0.7536
  265MOL0     C36467   8.784   6.788   3.066  0.3379  0.4255  0.1279
  265MOL0     O36468   8.707   6.766   2.949  0.8607 -0.0345 -0.0072
  265MOL0     C36469   8.613   6.667   2.975 -0.0494 -0.1915 -0.2958
  265MOL0     C36470   8.474   6.733   2.998  0.0688  0.8625  0.2505
  265MOL0     C36471   8.368   6.621   3.017 -0.5347  0.0254  0.5423
  265MOL0     C36472   8.362   6.579   3.169 -0.0714 -0.7035  0.0787
  265MOL0     C36473   8.283   6.447   3.203 -0.5405 -0.3368  0.2100
  265MOL0     C36474   8.261   6.426   3.356  1.0661 -1.7273  0.6816
  265MOL0     C36475   8.162   6.537   3.418  1.2679  0.7014 -0.1908
  265MOL0     C36476   8.064   6.461   3.507  0.2077  0.0999 -0.2182
  265MOL0    Cl36477   7.949   6.381   3.404  0.0714 -0.4830 -0.1546
  265MOL0     C36478   8.906   6.725   3.077 -0.6827  1.3111  0.4112
  265MOL0     C36479   8.982   6.735   3.189 -1.3525 -0.2705 -0.4913
  265MOL0     O36480   9.075   7.041   3.407 -0.0979 -0.2157  0.0484
  265MOL0     C36481   9.283   6.999   3.583 -0.0058 -0.7602  0.1370
  265MOL0     C36482   9.405   6.979   3.649  0.1365 -0.4296 -0.0837
  265MOL0     N36483  10.087   6.670   3.672  0.7196 -0.4635 -0.0910
  265MOL0     N36484  10.212   6.636   3.676  0.7492 -0.0811  0.2292
  265MOL0     C36485  10.407   6.343   4.654 -0.6405 -0.2576  0.6785
  265MOL0     C36486  10.331   6.403   4.749 -0.8463  0.0637 -0.7697
  265MOL0     C36487  10.098   6.705   5.006 -0.1757  0.5039 -0.0433
  265MOL0     C36488   9.984   6.619   4.993 -0.0736 -0.1844  0.5157
  265MOL0     C36489   9.860   6.649   5.052  0.4373  0.4288  1.1864
  265MOL0     C36490   9.862   6.750   5.143  0.3335 -0.3724  0.0988
  265MOL0     O36491   9.740   6.779   5.193 -0.7047  0.1726  0.6588
  265MOL0     C36492   9.719   6.851   5.313  0.9212  0.1886 -0.1730
  265MOL0     C36493   9.592   6.797   5.388 -0.8169  0.3133  0.5167
  265MOL0     C36494   9.456   6.853   5.337  0.8905 -0.8920 -0.9424
  265MOL0     C36495   9.392   6.960   5.437 -0.2029  0.6519  0.6719
  265MOL0     C36496   9.369   6.898   5.570 -0.5810  0.2336  0.1258
  265MOL0     C36497   9.342   6.843   5.674 -0.5006  0.1025  0.4001
  265MOL0     C36498   9.963   6.837   5.154  0.1485 -0.1796 -0.1801
  265MOL0     C36499  10.081   6.821   5.083  0.6614 -0.1703 -0.6702
  265MOL0     C36500  10.189   6.927   5.099  0.2034  0.8664  0.5418
  265MOL0     H36501  10.349   6.726   4.659 -0.0127 -0.6259  0.3532
  265MOL0     H36502  10.513   6.630   4.498 -1.8662  0.0834  0.2863
  265MOL0     H36503  10.438   6.377   4.310  2.1097  1.0904  0.3270
  265MOL0     H36504  10.452   6.229   4.417 -0.1020 -1.2211 -2.0703
  265MOL0     H36505  10.671   6.199   4.321 -1.1707 -0.6578 -0.2702
  265MOL0     H36506  10.541   6.237   4.193 -1.1990 -3.4373  1.1499
  265MOL0     H36507  10.693   6.483   4.286  4.2399  1.4236 -0.5543
  265MOL0     H36508  10.794   6.373   4.217 -0.0830  1.2667  1.9184
  265MOL0     H36509  10.726   6.521   4.060  1.3593 -0.6897  1.9130
  265MOL0     H36510  10.671   6.357   4.006  0.3015  0.1103 -0.6759
  265MOL0     H36511  10.467   6.542   4.138  1.1372  0.9526  0.0529
  265MOL0     H36512  10.455   6.384   4.042 -2.7336 -0.2315  3.8259
  265MOL0     H36513  10.400   6.635   3.941  0.6369  1.9502 -2.4479
  265MOL0     H36514  10.568   6.639   3.923 -1.1351  2.1383  0.1931
  265MOL0     H36515  10.555   6.422   3.792  1.3431  0.6787  0.5591
  265MOL0     H36516  10.498   6.562   3.706  0.2445 -3.8660 -2.1436
  265MOL0     H36517  10.359   6.415   3.655 -1.7317  0.6975  0.3337
  265MOL0     H36518  10.322   6.344   3.806 -0.7607 -2.6944 -4.5773
  265MOL0     H36519  10.088   6.440   3.895  0.6671  1.0666  0.5438
  265MOL0     H36520   9.857   6.535   3.877 -0.2051  0.7301  0.4333
  265MOL0     H36521   9.799   6.591   3.725 -1.4576  1.5688  0.7598
  265MOL0     H36522   9.924   6.770   3.917  1.6596 -0.1972 -1.6186
  265MOL0     H36523   9.835   6.818   3.773 -3.3064 -1.5773 -1.1500
  265MOL0     H36524   9.712   6.648   4.007  2.6033 -0.5593 -0.3768
  265MOL0     H36525   9.694   6.823   4.001 -3.9500 -3.7637  4.6720
  265MOL0     H36526   9.618   6.647   3.780  2.0792  1.0454 -0.8941
  265MOL0     H36527   9.505   6.677   3.920  0.5849 -3.6774 -1.8730
  265MOL0     H36528   9.364   6.657   3.736  2.7647  0.7667  1.6768
  265MOL0     H36529   9.023   6.696   3.666  0.1312  1.5441 -0.1449
  265MOL0     H36530   9.150   6.580   3.667 -1.2298 -1.0759 -1.6126
  265MOL0     H36531   9.091   6.630   3.513 -0.5875 -2.4546  0.9241
  265MOL0     H36532   8.801   6.975   3.344 -0.7325  1.4365 -0.7897
  265MOL0     H36533   8.660   6.946   3.142  2.7600  2.1545 -0.7077
  265MOL0     H36534   8.614   6.595   2.893 -0.5932  0.4252 -0.8510
  265MOL0     H36535   8.641   6.615   3.067  2.2668  2.9041  0.9131
  265MOL0     H36536   8.480   6.796   3.087 -3.0782 -2.0214  2.7878
  265MOL0     H36537   8.447   6.790   2.908  0.3985  0.6212 -0.0026
  265MOL0     H36538   8.398   6.532   2.961 -0.6618 -1.4803  2.7491
  265MOL0     H36539   8.270   6.655   2.982 -1.8655 -2.2543  1.8274
  265MOL0     H36540   8.303   6.661   3.209  0.5367  0.6640 -1.6826
  265MOL0     H36541   8.465   6.573   3.207  1.7870 -3.8930 -4.5437
  265MOL0     H36542   8.190   6.451   3.144 -1.4023  2.3123  1.5943
  265MOL0     H36543   8.330   6.360   3.156 -1.7173 -0.0555 -1.5911
  265MOL0     H36544   8.358   6.431   3.407  2.2238  2.3790 -1.4752
  265MOL0     H36545   8.222   6.326   3.376  1.0199 -1.8478 -0.0018
  265MOL0     H36546   8.106   6.592   3.340 -0.6145  0.9439  1.2492
  265MOL0     H36547   8.226   6.610   3.468  0.6732 -0.9603  3.2717
  265MOL0     H36548   8.003   6.524   3.574 -1.4469 -1.0727 -0.5694
  265MOL0     H36549   8.101   6.381   3.572 -0.8333 -2.2032 -2.3053
  265MOL0     H36550   8.934   6.679   2.983 -2.1818 -1.0892  1.0441
  265MOL0     H36551   9.079   6.689   3.201 -0.7178  1.0183 -0.5517
  265MOL0     H36552   9.270   7.093   3.529  1.3227 -0.4961  0.2635
  265MOL0     H36553   9.471   7.065   3.654 -0.0515 -0.3536  2.6181
  265MOL0     H36554  10.424   6.236   4.655  0.8791 -0.0438  2.3321
  265MOL0     H36555  10.277   6.340   4.820  0.9682 -0.0254  0.6123
  265MOL0     H36556   9.970   6.543   4.917 -0.1811  0.5872 -0.2495
  265MOL0     H36557   9.777   6.583   5.031  0.0362  1.0815  0.7021
  265MOL0     H36558   9.802   6.826   5.380  0.2071 -0.2548  0.5676
  265MOL0     H36559   9.723   6.959   5.295  0.0646  0.1334 -0.7464
  265MOL0     H36560   9.599   6.799   5.497  2.3097  2.7599  0.4222
  265MOL0     H36561   9.595   6.691   5.363 -2.7663 -0.0387  1.5225
  265MOL0     H36562   9.475   6.902   5.242  1.4054  2.4221  0.7183
  265MOL0     H36563   9.384   6.775   5.311 -1.2773  0.7965 -0.3074
  265MOL0     H36564   9.292   6.982   5.399 -1.6911 -1.9143  2.7308
  265MOL0     H36565   9.450   7.053   5.435  0.2167  0.3889 -1.4232
  265MOL0     H36566   9.311   6.793   5.764  0.6564 -0.8245  0.3202
  265MOL0     H36567   9.942   6.930   5.206 -0.6302 -0.5867  0.2431
  265MOL0     H36568  10.128   7.011   5.132 -2.3390 -1.1433  1.3069
  265MOL0     H36569  10.273   6.900   5.164  3.1740  4.0225 -1.5878
  265MOL0     H36570  10.249   6.946   5.009  2.1570 -1.1372  1.3258
  266MOL0     O36571   2.018  10.414   7.009  0.4411  0.6344  0.0003
  266MOL0     C36572   1.981  10.510   7.083  0.4979  0.0179  0.4577
  266MOL0     O36573   2.069  10.613   7.121  0.1814  0.0196  0.0712
  266MOL0     C36574   2.198  10.603   7.072  0.0900  0.4748 -0.1541
  266MOL0     C36575   2.261  10.711   7.007 -0.5208 -0.1373  0.4260
  266MOL0     C36576   2.396  10.706   6.965 -0.6575 -0.0529  0.9958
  266MOL0     C36577   2.474  10.590   6.984 -0.6699 -0.1678  0.6402
  266MOL0     O36578   2.606  10.602   6.960 -0.2429  0.4057 -0.9488
  266MOL0     C36579   2.667  10.482   6.910 -0.0265  0.1299  0.6417
  266MOL0     C36580   2.667  10.454   6.756 -0.4476  0.2677  0.0341
  266MOL0     C36581   2.534  10.462   6.684  0.0900 -0.0372  0.3419
  266MOL0     C36582   2.452  10.347   6.717  0.4626 -0.4888  0.5453
  266MOL0     C36583   2.318  10.373   6.672  0.3573  0.4266 -0.5481
  266MOL0     C36584   2.229  10.246   6.685  0.1195  0.4269 -0.5977
  266MOL0     C36585   2.095  10.245   6.611  0.1197  0.1095 -0.3407
  266MOL0     C36586   2.000  10.348   6.666  0.4551 -0.0004  0.0161
  266MOL0     N36587   1.861  10.345   6.610  0.6040 -0.0960  0.3263
  266MOL0     C36588   1.774  10.450   6.635  0.2814 -0.4793 -1.1624
  266MOL0     C36589   1.656  10.405   6.576  0.1127 -0.1750  0.0887
  266MOL0     C36590   1.528  10.477   6.587  1.0615 -0.5111  0.4233
  266MOL0     C36591   1.502  10.587   6.479  0.1290 -0.2311 -0.7447
  266MOL0     C36592   1.620  10.688   6.471  0.4804 -0.1440 -0.5686
  266MOL0     C36593   1.603  10.797   6.362  0.1015 -0.3263  0.3462
  266MOL0     O36594   1.473  10.866   6.345  0.1773  0.2392  0.1774
  266MOL0     C36595   1.401  10.915   6.451 -0.4555  0.0213 -0.5918
  266MOL0     C36596   1.458  10.965   6.572 -0.6375 -0.7385 -0.8020
  266MOL0     C36597   1.385  11.007   6.687 -0.2489 -0.8057  0.3545
  266MOL0     C36598   1.465  11.042   6.813  0.3391  0.8567  0.6686
  266MOL0     C36599   1.244  11.019   6.670  0.3266  1.1218  0.6764
  266MOL0     C36600   1.149  11.071   6.769 -0.2767  0.0730  0.8425
  266MOL0     O36601   1.033  11.115   6.714  0.0332  0.0393 -0.7071
  266MOL0     C36602   0.938  11.158   6.801 -0.3448  1.1386 -1.1937
  266MOL0     C36603   0.837  11.070   6.854 -0.4585  0.7692 -0.4350
  266MOL0     C36604   0.736  11.131   6.926 -0.2256  0.8505 -0.4112
  266MOL0     C36605   0.728  11.267   6.952  0.1981  0.3987  0.4271
  266MOL0     O36606   0.622  11.311   7.029  0.5922 -0.6540  0.1846
  266MOL0     C36607   0.579  11.442   6.999  1.1316 -0.0280 -0.0153
  266MOL0     C36608   0.474  11.479   7.103  0.6612  0.1038  0.0131
  266MOL0     C36609   0.406  11.616   7.062  0.1409  0.5052  0.1208
  266MOL0     C36610   0.335  11.671   7.183 -0.2058 -1.1176  0.1443
  266MOL0     C36611   0.280  11.813   7.152 -1.1508 -0.0217 -0.0795
  266MOL0     C36612   0.234  11.880   7.284 -0.5641  0.6035 -0.9670
  266MOL0     C36613   0.115  11.801   7.351 -0.3489 -0.1431  0.9157
  266MOL0     C36614  -0.003  11.780   7.259  0.7308  0.5720 -0.6793
  266MOL0    Cl36615  -0.048  11.917   7.153 -0.2386  0.0227  0.0431
  266MOL0     C36616   0.817  11.354   6.890 -0.4076 -0.8416 -0.2186
  266MOL0     C36617   0.927  11.286   6.824  0.5179  1.0394 -0.2811
  266MOL0     O36618   1.179  11.067   6.891 -0.3589  0.3024 -0.1528
  266MOL0     C36619   1.185  10.966   6.544 -0.0186  0.8655 -0.0701
  266MOL0     C36620   1.264  10.921   6.438  0.3553  0.6542  0.0088
  266MOL0     N36621   1.679  10.290   6.502  1.1164 -0.8839 -0.8265
  266MOL0     N36622   1.798  10.256   6.524 -0.0370  0.4372 -0.1838
  266MOL0     C36623   2.415  10.482   7.056  0.6067  0.8128  0.3234
  266MOL0     C36624   2.279  10.486   7.095  0.4326  0.4676 -0.0460
  266MOL0     C36625   1.852  10.506   7.166 -0.0766  0.2067  1.2780
  266MOL0     C36626   1.853  10.555   7.292  0.2044 -0.3100 -0.3660
  266MOL0     C36627   1.743  10.537   7.374 -0.1062 -0.1324 -0.7030
  266MOL0     C36628   1.625  10.478   7.323 -0.4591  0.2533  0.8132
  266MOL0     O36629   1.521  10.452   7.409 -0.0221  0.0201 -0.4999
  266MOL0     C36630   1.429  10.561   7.396 -0.6905 -0.5434  0.0612
  266MOL0     C36631   1.292  10.509   7.423  0.6529  0.0569 -0.5282
  266MOL0     C36632   1.234  10.430   7.300 -0.0802 -0.6416 -0.7183
  266MOL0     C36633   1.085  10.384   7.313 -0.2671 -0.1691  0.8033
  266MOL0     C36634   1.043  10.347   7.178  0.3715  0.1057  0.3651
  266MOL0     C36635   1.020  10.306   7.065 -1.6272  0.1207 -0.1209
  266MOL0     C36636   1.623  10.432   7.192 -0.3920  0.2583  0.3641
  266MOL0     C36637   1.738  10.449   7.111  1.2289  0.3602  0.5959
  266MOL0     C36638   1.730  10.389   6.980  0.2215 -0.0880 -0.0764
  266MOL0     H36639   2.198  10.797   6.987 -1.1367 -0.5909  0.3964
  266MOL0     H36640   2.431  10.791   6.906 -2.7109 -0.7963 -1.4848
  266MOL0     H36641   2.624  10.390   6.949  1.8038 -0.6281  0.9850
  266MOL0     H36642   2.774  10.492   6.934  0.1676  3.4344 -0.9534
  266MOL0     H36643   2.739  10.521   6.708  0.4018 -0.4174  0.3135
  266MOL0     H36644   2.703  10.351   6.752 -1.7029 -0.2223  0.7247
  266MOL0     H36645   2.475  10.553   6.702  1.4617  1.0451 -0.3806
  266MOL0     H36646   2.548  10.455   6.575  0.3905 -1.0376  0.4370
  266MOL0     H36647   2.485  10.262   6.657 -1.7838  0.6200 -2.5393
  266MOL0     H36648   2.457  10.330   6.825 -0.3383  0.3608  0.7303
  266MOL0     H36649   2.313  10.407   6.568 -2.8443  0.5738 -0.4494
  266MOL0     H36650   2.292  10.448   6.747  2.6268 -0.4440  1.2188
  266MOL0     H36651   2.288  10.163   6.645  3.5523  1.9654  0.7832
  266MOL0     H36652   2.210  10.211   6.787 -0.7073 -1.8975 -1.4736
  266MOL0     H36653   2.043  10.150   6.626 -0.1679  0.6591  2.6164
  266MOL0     H36654   2.108  10.270   6.505 -1.1179  1.8361 -0.1153
  266MOL0     H36655   1.999  10.328   6.774  0.1674 -2.8542 -0.4452
  266MOL0     H36656   2.034  10.451   6.653 -0.3837  0.0999 -1.6596
  266MOL0     H36657   1.797  10.543   6.686 -0.2253  0.1655 -2.0884
  266MOL0     H36658   1.517  10.515   6.689 -0.1043 -1.2901  0.5975
  266MOL0     H36659   1.449  10.405   6.567  2.1349 -1.1576 -1.8896
  266MOL0     H36660   1.500  10.540   6.381 -6.5759 -0.4773 -0.9069
  266MOL0     H36661   1.414  10.651   6.486  0.7137  0.4667  0.8230
  266MOL0     H36662   1.621  10.743   6.566 -0.9488 -0.4095 -0.3795
  266MOL0     H36663   1.713  10.635   6.449 -1.7802 -4.2524 -1.2104
  266MOL0     H36664   1.671  10.877   6.393 -0.9864  0.7829 -0.0534
  266MOL0     H36665   1.638  10.753   6.268 -1.4753 -2.2645  0.6056
  266MOL0     H36666   1.566  10.954   6.571 -0.5043  0.2259  0.4864
  266MOL0     H36667   1.441  11.145   6.842 -1.1933  0.6379  0.2944
  266MOL0     H36668   1.572  11.037   6.794  0.1657 -1.1201  0.0242
  266MOL0     H36669   1.454  10.969   6.894  1.4845 -1.4820 -1.1712
  266MOL0     H36670   0.854  10.965   6.836 -0.8238  0.8803 -1.5411
  266MOL0     H36671   0.657  11.067   6.965 -1.1919  2.5543  0.5571
  266MOL0     H36672   0.656  11.520   7.004 -0.5011  1.6055  1.5870
  266MOL0     H36673   0.533  11.450   6.900 -1.0775  2.3856  1.0507
  266MOL0     H36674   0.398  11.401   7.104  0.9932 -0.2181  0.2596
  266MOL0     H36675   0.527  11.479   7.199  1.3906  5.7020 -0.0411
  266MOL0     H36676   0.345  11.602   6.972 -0.5974  0.4504  0.6249
  266MOL0     H36677   0.479  11.689   7.026  0.3291  0.6562  0.7898
  266MOL0     H36678   0.397  11.670   7.273 -0.7002  0.7785  0.5590
  266MOL0     H36679   0.245  11.616   7.214 -1.5253  1.9760  2.3605
  266MOL0     H36680   0.358  11.875   7.107 -1.2155  0.5825  0.6165
  266MOL0     H36681   0.198  11.803   7.080 -0.0815  2.5363 -1.8194
  266MOL0     H36682   0.199  11.975   7.243  0.1560 -0.7864 -5.3156
  266MOL0     H36683   0.316  11.891   7.355  1.3947  0.2155 -3.0288
  266MOL0     H36684   0.089  11.855   7.443  1.4663 -2.3538  2.8361
  266MOL0     H36685   0.156  11.711   7.397 -2.2094 -0.6888  1.6130
  266MOL0     H36686  -0.096  11.759   7.312  1.3178 -1.3220 -0.3103
  266MOL0     H36687   0.013  11.702   7.183 -4.5591  1.3092 -2.9961
  266MOL0     H36688   0.830  11.460   6.911  2.2416 -0.7651 -1.8280
  266MOL0     H36689   1.022  11.326   6.790  0.7213  0.8705  0.0809
  266MOL0     H36690   1.078  10.967   6.525 -0.1350  2.3029  0.5576
  266MOL0     H36691   1.221  10.892   6.343 -0.1747 -1.1862  0.7613
  266MOL0     H36692   2.468  10.388   7.070  1.5811  1.4294  0.8688
  266MOL0     H36693   2.226  10.395   7.117 -2.4759  1.7112 -1.3856
  266MOL0     H36694   1.936  10.587   7.354  0.9256 -3.3415  0.4407
  266MOL0     H36695   1.756  10.590   7.468  2.7222  0.6172 -1.4050
  266MOL0     H36696   1.453  10.634   7.474 -0.2980  1.4598 -1.8389
  266MOL0     H36697   1.434  10.607   7.297  2.0438  0.4446  0.5801
  266MOL0     H36698   1.215  10.584   7.443  0.3819  0.4091 -2.6532
  266MOL0     H36699   1.296  10.450   7.515 -0.7309 -0.0418 -0.5103
  266MOL0     H36700   1.242  10.501   7.217 -1.3225  0.0595 -0.2765
  266MOL0     H36701   1.299  10.344   7.281 -1.2793 -1.6526 -0.3460
  266MOL0     H36702   1.013  10.457   7.351  0.4170  2.0893 -1.9001
  266MOL0     H36703   1.076  10.290   7.368 -1.0327 -2.6264 -3.1239
  266MOL0     H36704   1.019  10.286   6.960  1.0746 -0.5263 -0.1021
  266MOL0     H36705   1.534  10.379   7.158 -0.8994  0.3794  1.4510
  266MOL0     H36706   1.761  10.456   6.899 -0.4816  0.3421  0.0082
  266MOL0     H36707   1.790  10.297   6.971 -1.1050 -1.0992  1.0708
  266MOL0     H36708   1.622  10.380   6.969  0.0961  2.8896 -2.9964
  267MOL0     O36709  10.192   6.526  11.169 -0.1068  0.1858  0.1091
  267MOL0     C36710  10.241   6.615  11.091  0.5355  0.9343  0.0357
  267MOL0     O36711  10.308   6.727  11.130 -0.0437  0.1238 -0.9275
  267MOL0     C36712  10.324   6.747  11.268 -0.2565 -0.4475 -0.7672
  267MOL0     C36713  10.240   6.835  11.336 -0.1470 -0.7974 -0.6937
  267MOL0     C36714  10.261   6.874  11.464  0.3780 -0.9655  0.4499
  267MOL0     C36715  10.370   6.823  11.535 -0.6365 -0.2868 -0.2666
  267MOL0     O36716  10.401   6.862  11.666  0.0193 -0.0835 -0.0693
  267MOL0     C36717  10.525   6.922  11.690 -0.6917 -0.1106  1.4702
  267MOL0     C36718  10.508   7.021  11.804 -0.0781 -0.5818 -0.5843
  267MOL0     C36719  10.401   7.133  11.767 -0.4776  1.1978  0.1648
  267MOL0     C36720  10.359   7.237  11.881 -0.7470  0.2164 -0.4641
  267MOL0     C36721  10.227   7.310  11.853  0.1546  0.3496  0.6357
  267MOL0     C36722  10.210   7.363  11.709 -0.4589 -0.1136 -0.3867
  267MOL0     C36723  10.080   7.440  11.680 -0.3601 -0.6704 -0.1328
  267MOL0     C36724  10.059   7.581  11.737 -0.1931 -0.2387 -0.4708
  267MOL0     N36725  10.159   7.679  11.686  0.2895  0.1825 -0.6955
  267MOL0     C36726  10.255   7.740  11.760  0.3484  0.3249  0.3872
  267MOL0     C36727  10.331   7.805  11.676 -0.0453 -0.9816  0.5221
  267MOL0     C36728  10.452   7.893  11.720  0.1092  0.2418 -0.1547
  267MOL0     C36729  10.526   7.925  11.592 -0.1745 -0.2781 -0.4879
  267MOL0     C36730  10.642   8.025  11.622 -0.5148  0.3124 -0.4347
  267MOL0     C36731  10.750   8.035  11.510  0.9693 -0.1911  0.0041
  267MOL0     O36732  10.838   8.144  11.550  0.3451  0.3717  1.0748
  267MOL0     C36733  10.966   8.108  11.578  0.9213 -0.0267  1.6448
  267MOL0     C36734  11.038   7.997  11.527  0.7406 -0.1082  0.1720
  267MOL0     C36735  11.177   7.996  11.549  0.0244 -0.0830  0.4032
  267MOL0     C36736  11.255   7.884  11.472  0.2529 -0.2855 -0.2614
  267MOL0     C36737  11.243   8.092  11.620  1.0535  0.0978  0.4749
  267MOL0     C36738  11.395   8.105  11.626 -0.5081  0.3458 -0.4749
  267MOL0     O36739  11.454   8.093  11.503 -0.4618  0.9766  0.4396
  267MOL0     C36740  11.591   8.096  11.471 -0.0539  0.3987 -0.0753
  267MOL0     C36741  11.678   8.190  11.532  0.4367  0.9208  0.1262
  267MOL0     C36742  11.810   8.186  11.493 -0.0921 -0.4117 -0.0401
  267MOL0     C36743  11.859   8.092  11.396  0.9276 -0.6325  0.1680
  267MOL0     O36744  11.989   8.073  11.381 -0.2202 -0.4269  0.2337
  267MOL0     C36745  12.033   8.123  11.248  0.1787  0.8402 -0.1507
  267MOL0     C36746  12.038   8.272  11.252 -0.2404 -0.7634 -0.7526
  267MOL0     C36747  12.154   8.318  11.155  0.4678 -0.2829 -0.5161
  267MOL0     C36748  12.114   8.447  11.079 -0.2588 -0.4563  0.0290
  267MOL0     C36749  12.218   8.500  10.971  0.1811  0.3075 -0.0925
  267MOL0     C36750  12.215   8.408  10.852  0.7051  0.4752  0.0991
  267MOL0     C36751  12.287   8.462  10.729 -0.4399 -0.3650 -0.3410
  267MOL0     C36752  12.271   8.367  10.610  0.2400 -0.0321  0.8027
  267MOL0    Cl36753  12.108   8.371  10.534  0.3921  0.2424  0.2679
  267MOL0     C36754  11.770   7.995  11.340 -0.7467  0.0542  0.0778
  267MOL0     C36755  11.633   8.004  11.373  0.1566 -0.3270 -0.2794
  267MOL0     O36756  11.451   8.137  11.733  0.7049 -0.1536  0.4292
  267MOL0     C36757  11.166   8.173  11.697 -0.6492 -0.3803 -0.7747
  267MOL0     C36758  11.033   8.197  11.672 -0.1268 -0.1733 -0.3634
  267MOL0     N36759  10.272   7.792  11.552  0.1996  0.1631  0.1518
  267MOL0     N36760  10.169   7.719  11.559 -0.2639  0.6232  0.0120
  267MOL0     C36761  10.458   6.721  11.472  0.4555 -0.8917  0.2319
  267MOL0     C36762  10.432   6.689  11.339  0.0303  0.3856  0.5715
  267MOL0     C36763  10.231   6.572  10.946  0.5414 -0.5430 -0.5428
  267MOL0     C36764  10.102   6.551  10.896  0.8958  0.0355 -0.5266
  267MOL0     C36765  10.087   6.487  10.769  0.2703 -0.0671  0.1025
  267MOL0     C36766  10.197   6.471  10.682 -0.1664 -0.5271  0.0854
  267MOL0     O36767  10.163   6.423  10.561 -0.2527 -0.5003 -0.0202
  267MOL0     C36768  10.273   6.392  10.462  0.7179  0.9509 -0.2347
  267MOL0     C36769  10.199   6.366  10.332  0.6837 -0.0437 -1.1231
  267MOL0     C36770  10.271   6.424  10.214  0.5060  0.7929 -0.3103
  267MOL0     C36771  10.232   6.365  10.080  0.0236 -0.2670 -0.3635
  267MOL0     C36772  10.307   6.243  10.053  0.0213  0.4332 -0.7664
  267MOL0     C36773  10.358   6.137  10.044 -1.0136  0.1677  0.4813
  267MOL0     C36774  10.322   6.504  10.724  0.1204 -0.5001  0.0257
  267MOL0     C36775  10.338   6.560  10.857 -0.9958  0.3520  0.1630
  267MOL0     C36776  10.478   6.591  10.898 -1.2529  0.1803  0.0309
  267MOL0     H36777  10.154   6.885  11.291  0.8563  0.6419 -1.0921
  267MOL0     H36778  10.192   6.946  11.508  0.9578  0.2744 -0.5929
  267MOL0     H36779  10.562   6.977  11.603 -0.1978  2.6945  3.3054
  267MOL0     H36780  10.599   6.847  11.720 -0.3517  0.6753  2.6613
  267MOL0     H36781  10.483   6.979  11.902  2.5804  2.6676  1.7215
  267MOL0     H36782  10.608   7.064  11.817 -0.2891  0.4193 -2.1461
  267MOL0     H36783  10.437   7.194  11.684 -0.3875  1.1041  0.1341
  267MOL0     H36784  10.311   7.087  11.726 -1.0535  1.3161  1.2430
  267MOL0     H36785  10.353   7.191  11.980 -0.5485  0.2434 -0.4378
  267MOL0     H36786  10.443   7.308  11.878  0.2193 -0.7364  1.7244
  267MOL0     H36787  10.210   7.401  11.911 -0.8697  2.6256 -2.9022
  267MOL0     H36788  10.144   7.247  11.889 -0.5401  1.1959  0.5595
  267MOL0     H36789  10.296   7.425  11.681  0.1047 -0.3382  0.7853
  267MOL0     H36790  10.223   7.283  11.636 -0.1968  0.6103 -1.1590
  267MOL0     H36791   9.997   7.374  11.706 -1.6659  1.2487  0.8605
  267MOL0     H36792  10.088   7.452  11.572  0.9773  1.8125  0.1641
  267MOL0     H36793   9.958   7.618  11.714 -0.2860  1.2050  2.0071
  267MOL0     H36794  10.068   7.570  11.845  2.0449 -2.0278 -0.7731
  267MOL0     H36795  10.272   7.728  11.866  3.0483 -1.8888 -0.1874
  267MOL0     H36796  10.512   7.845  11.797  4.0986  0.7205 -2.7035
  267MOL0     H36797  10.407   7.982  11.766 -0.1456  0.6868 -1.2299
  267MOL0     H36798  10.570   7.834  11.550  0.7615 -1.0814  2.0769
  267MOL0     H36799  10.459   7.958  11.512 -2.6051 -1.9741  0.7457
  267MOL0     H36800  10.595   8.123  11.620 -0.4505  0.3739  0.7809
  267MOL0     H36801  10.684   8.010  11.721  0.0749  0.9147 -0.5921
  267MOL0     H36802  10.806   7.942  11.506  3.3951  1.2132 -1.1017
  267MOL0     H36803  10.697   8.052  11.415 -1.4999 -1.1861  1.1239
  267MOL0     H36804  11.009   7.922  11.454  1.3259  2.9384 -3.5432
  267MOL0     H36805  11.314   7.945  11.403  0.7407 -1.8789 -1.3181
  267MOL0     H36806  11.195   7.813  11.414  2.5041 -2.4481 -0.1185
  267MOL0     H36807  11.317   7.839  11.551 -1.4291 -2.2576  0.0134
  267MOL0     H36808  11.654   8.244  11.622  1.5227 -0.5281  1.3291
  267MOL0     H36809  11.884   8.248  11.542 -0.4407 -0.9882  1.2802
  267MOL0     H36810  12.129   8.078  11.221 -2.3789 -3.5739 -3.0155
  267MOL0     H36811  11.966   8.093  11.167  0.9469  2.8821 -1.6409
  267MOL0     H36812  11.941   8.317  11.230 -1.4293 -0.1136  4.5691
  267MOL0     H36813  12.061   8.312  11.351 -2.0610 -1.6560  0.0731
  267MOL0     H36814  12.173   8.244  11.077 -0.1655 -2.8549  1.5779
  267MOL0     H36815  12.237   8.340  11.223 -1.9576  0.8783  2.3326
  267MOL0     H36816  12.108   8.535  11.144  1.3485 -0.1781 -0.1529
  267MOL0     H36817  12.014   8.430  11.038  0.8059 -2.0277 -2.1146
  267MOL0     H36818  12.197   8.603  10.941 -0.9596  0.5711  1.5081
  267MOL0     H36819  12.318   8.513  11.014  0.9750  1.3784 -2.1081
  267MOL0     H36820  12.108   8.391  10.837  0.5171 -0.0821  1.8460
  267MOL0     H36821  12.264   8.314  10.880 -0.2580 -0.2163 -0.4437
  267MOL0     H36822  12.395   8.463  10.746 -0.6132  1.1125  0.9537
  267MOL0     H36823  12.262   8.567  10.706 -0.3171 -0.1045  0.6469
  267MOL0     H36824  12.264   8.263  10.645 -0.9888 -0.2771 -0.0726
  267MOL0     H36825  12.341   8.389  10.530 -0.7980  3.7165  0.7576
  267MOL0     H36826  11.816   7.931  11.266 -0.4100 -0.7355  0.9593
  267MOL0     H36827  11.568   7.945  11.309  2.3710 -1.0352 -2.0242
  267MOL0     H36828  11.216   8.246  11.760 -0.1041  1.4669 -3.1702
  267MOL0     H36829  10.979   8.279  11.717  0.4414 -0.6570  1.3022
  267MOL0     H36830  10.546   6.675  11.516  1.2807 -0.1698 -0.6111
  267MOL0     H36831  10.493   6.618  11.283  1.9849 -0.6647  3.7534
  267MOL0     H36832  10.009   6.559  10.951 -0.4445  1.8197 -2.8599
  267MOL0     H36833   9.991   6.464  10.725  1.6396  1.5800 -4.3153
  267MOL0     H36834  10.341   6.477  10.449  1.2199  0.2029 -3.2092
  267MOL0     H36835  10.329   6.307  10.501 -1.2531  0.3054  1.3562
  267MOL0     H36836  10.096   6.398  10.345 -0.0704 -2.7091  0.1403
  267MOL0     H36837  10.210   6.257  10.321  1.2539  0.0377 -1.4006
  267MOL0     H36838  10.257   6.532  10.215  2.6582  1.1354 -1.6024
  267MOL0     H36839  10.375   6.398  10.235  1.0835  2.4457 -0.9985
  267MOL0     H36840  10.247   6.433   9.996 -1.7235 -2.2395 -2.3802
  267MOL0     H36841  10.128   6.333  10.075 -0.8370  2.3452 -0.4953
  267MOL0     H36842  10.400   6.040  10.028 -0.4922  0.3073  0.9470
  267MOL0     H36843  10.405   6.485  10.657 -0.7693  1.1667 -1.6279
  267MOL0     H36844  10.517   6.669  10.832  3.7846 -1.4342  0.6622
  267MOL0     H36845  10.478   6.616  11.005 -0.0734  1.2252 -0.1844
  267MOL0     H36846  10.549   6.508  10.886  1.0938  1.9038  1.2505
  268MOL0     O36847   0.892   7.501   0.215  0.0769 -0.0307 -1.2256
  268MOL0     C36848   0.775   7.471   0.221 -0.8065  0.1218  0.2364
  268MOL0     O36849   0.729   7.357   0.181  0.6691  1.0205 -0.3852
  268MOL0     C36850   0.803   7.253   0.145  0.3337  1.2983  0.3980
  268MOL0     C36851   0.908   7.211   0.224  0.3212 -0.3885  0.7411
  268MOL0     C36852   0.980   7.100   0.181 -0.3833  0.5291 -0.0555
  268MOL0     C36853   0.959   7.039   0.063 -0.3551  0.3130 -0.0763
  268MOL0     O36854   1.028   6.924   0.055 -0.7245 -1.1941  0.5723
  268MOL0     C36855   0.980   6.808   0.108  0.7876  0.5974  0.0683
  268MOL0     C36856   1.057   6.695   0.041 -0.1364 -0.6119 -0.1948
  268MOL0     C36857   1.033   6.553   0.101  0.4938 -0.0084  0.5458
  268MOL0     C36858   0.881   6.511   0.089  0.4519  0.3888 -0.2913
  268MOL0     C36859   0.839   6.394   0.171  0.9153 -0.0007  1.3074
  268MOL0     C36860   0.682   6.371   0.141  0.8199 -0.4610  0.6038
  268MOL0     C36861   0.592   6.493   0.176  0.0222 -0.1905 -0.1907
  268MOL0     C36862   0.446   6.449   0.185 -0.8831  0.3784 -0.4016
  268MOL0     N36863   0.347   6.544   0.233 -0.7942  0.5015 -0.6263
  268MOL0     C36864   0.345   6.594   0.356  0.5745  0.3264  0.0269
  268MOL0     C36865   0.227   6.650   0.377 -0.2850  0.5613  0.0048
  268MOL0     C36866   0.187   6.726   0.503 -0.2293 -0.7582  0.2177
  268MOL0     C36867   0.038   6.703   0.515  0.5679 -0.3821 -0.2961
  268MOL0     C36868  -0.043   6.823   0.456 -0.0110  0.0232 -0.2674
  268MOL0     C36869  -0.188   6.797   0.415 -0.0354  0.7188  0.1673
  268MOL0     O36870  -0.272   6.755   0.522 -0.2159 -0.3695 -0.2105
  268MOL0     C36871  -0.324   6.840   0.618 -0.8306 -0.4575 -0.0742
  268MOL0     C36872  -0.350   6.773   0.736  0.0697 -0.1236  0.4960
  268MOL0     C36873  -0.425   6.842   0.835 -0.6683  0.5492 -0.5886
  268MOL0     C36874  -0.481   6.759   0.956  0.4034 -0.1181 -0.7266
  268MOL0     C36875  -0.447   6.978   0.827  0.4447  0.0479 -0.4215
  268MOL0     C36876  -0.541   7.052   0.919 -0.4472  0.2056 -0.5706
  268MOL0     O36877  -0.612   7.154   0.867 -0.1631  0.2472 -1.3473
  268MOL0     C36878  -0.705   7.223   0.943  0.8976 -0.1364 -0.7502
  268MOL0     C36879  -0.709   7.363   0.950  0.2618  0.0297  0.7567
  268MOL0     C36880  -0.806   7.439   1.014 -1.0257 -0.5260 -0.3602
  268MOL0     C36881  -0.917   7.374   1.072  1.1196 -0.2858  0.2337
  268MOL0     O36882  -1.018   7.428   1.147 -0.1181 -0.2290  0.8785
  268MOL0     C36883  -1.066   7.550   1.109  0.0016 -0.0220  0.8686
  268MOL0     C36884  -1.174   7.596   1.211  0.0654  0.5326 -0.9425
  268MOL0     C36885  -1.299   7.671   1.157  0.3961 -0.7000  0.8431
  268MOL0     C36886  -1.329   7.800   1.235  0.2441 -0.4898  0.0766
  268MOL0     C36887  -1.454   7.863   1.177 -0.6264 -0.0946  0.5052
  268MOL0     C36888  -1.488   8.006   1.232  0.3180  0.5545 -0.4082
  268MOL0     C36889  -1.381   8.110   1.250  0.4316 -0.3637 -0.0189
  268MOL0     C36890  -1.425   8.232   1.317  0.2140 -0.2719 -0.1859
  268MOL0    Cl36891  -1.488   8.347   1.200  0.4534 -0.0875  0.0662
  268MOL0     C36892  -0.909   7.231   1.081  0.2937 -0.6232  0.0873
  268MOL0     C36893  -0.807   7.158   1.016  1.5081  0.0683  0.3263
  268MOL0     O36894  -0.537   7.021   1.034  0.8195 -0.2372  0.1238
  268MOL0     C36895  -0.410   7.035   0.711  0.6241 -0.5573  0.2621
  268MOL0     C36896  -0.339   6.980   0.608  0.4497 -1.0138 -0.0615
  268MOL0     N36897   0.155   6.640   0.259 -0.4003  0.4717  0.1420
  268MOL0     N36898   0.236   6.574   0.170  1.0011 -0.4060 -0.4782
  268MOL0     C36899   0.848   7.074  -0.021 -0.6020 -1.2283  0.2119
  268MOL0     C36900   0.775   7.191   0.020  0.6769 -0.0518 -0.5965
  268MOL0     C36901   0.668   7.567   0.261 -0.0919 -0.4327  0.2970
  268MOL0     C36902   0.535   7.547   0.219 -0.1986  0.3990  1.3983
  268MOL0     C36903   0.435   7.632   0.256 -0.1167 -0.1195 -1.1278
  268MOL0     C36904   0.456   7.731   0.351 -0.5248  0.6726  0.0479
  268MOL0     O36905   0.346   7.800   0.396  0.0545 -0.0027 -0.4135
  268MOL0     C36906   0.327   7.910   0.316  0.1553  0.4743 -0.6888
  268MOL0     C36907   0.200   7.985   0.358  0.0072 -0.8130  0.3875
  268MOL0     C36908   0.231   8.138   0.388  0.2194 -0.2399 -0.0692
  268MOL0     C36909   0.107   8.217   0.426  0.5688 -0.2375 -1.0024
  268MOL0     C36910   0.118   8.356   0.379  1.1136  0.1114 -0.1840
  268MOL0     C36911   0.112   8.476   0.345  0.3581 -0.3557 -0.3123
  268MOL0     C36912   0.582   7.747   0.407  0.1045 -0.8118 -0.7798
  268MOL0     C36913   0.703   7.677   0.361  0.5312  0.2886  0.6488
  268MOL0     C36914   0.839   7.707   0.419  0.1163  0.5406  0.7601
  268MOL0     H36915   0.942   7.277   0.303 -1.1097  2.3102 -0.7486
  268MOL0     H36916   1.054   7.062   0.251 -2.5561 -0.8970  1.5679
  268MOL0     H36917   0.873   6.805   0.086  1.1393  1.7531 -2.0096
  268MOL0     H36918   1.010   6.792   0.212 -2.8302 -3.3932  0.7608
  268MOL0     H36919   1.034   6.703  -0.066 -1.4411 -0.8884  0.0556
  268MOL0     H36920   1.163   6.720   0.053 -0.2146 -0.8480  1.1977
  268MOL0     H36921   1.081   6.478   0.038 -3.5076 -1.8073 -0.7081
  268MOL0     H36922   1.082   6.549   0.199  0.5053 -2.5880  0.5072
  268MOL0     H36923   0.826   6.594   0.136 -0.8240  0.5156 -1.9402
  268MOL0     H36924   0.855   6.503  -0.016 -0.0394 -2.9775 -0.0267
  268MOL0     H36925   0.865   6.420   0.274 -2.7475  1.6511  2.0080
  268MOL0     H36926   0.895   6.305   0.141  1.6894  0.8646  0.1068
  268MOL0     H36927   0.664   6.339   0.038 -1.0916 -2.6948  1.5571
  268MOL0     H36928   0.652   6.289   0.207 -0.3781  0.9205  1.8490
  268MOL0     H36929   0.593   6.564   0.092  0.3407  2.2762  1.7729
  268MOL0     H36930   0.617   6.530   0.275 -3.2185  0.7604  0.4050
  268MOL0     H36931   0.418   6.413   0.086  0.8109 -1.9737 -0.1260
  268MOL0     H36932   0.439   6.361   0.249 -0.9493  0.3808 -0.4052
  268MOL0     H36933   0.415   6.569   0.436 -2.6922 -1.4695  2.5784
  268MOL0     H36934   0.217   6.831   0.493 -0.4679 -0.7194 -0.1120
  268MOL0     H36935   0.237   6.687   0.592 -0.1184  0.0087  0.5041
  268MOL0     H36936  -0.000   6.607   0.478 -1.0469 -0.3655  1.1723
  268MOL0     H36937   0.021   6.704   0.623  5.2837  1.2215  0.6490
  268MOL0     H36938  -0.045   6.902   0.531 -0.5982 -2.1098  2.0714
  268MOL0     H36939   0.028   6.861   0.381 -0.3074 -1.4941 -1.3578
  268MOL0     H36940  -0.240   6.879   0.363 -0.4464  0.5218  0.2664
  268MOL0     H36941  -0.183   6.719   0.339 -0.2493  0.0475  0.8373
  268MOL0     H36942  -0.318   6.669   0.731 -0.6675 -0.4882  2.2943
  268MOL0     H36943  -0.444   6.804   1.049 -1.8423 -0.5959  0.4859
  268MOL0     H36944  -0.463   6.651   0.951  0.9355 -0.1226  0.7110
  268MOL0     H36945  -0.590   6.771   0.956  0.3952  0.9642  2.8605
  268MOL0     H36946  -0.640   7.416   0.885  0.9278 -3.6962 -1.9243
  268MOL0     H36947  -0.800   7.548   1.009  0.6315 -0.5590  0.2165
  268MOL0     H36948  -0.996   7.633   1.096  2.3845 -1.7838  1.7123
  268MOL0     H36949  -1.125   7.533   1.018  0.6259  2.7897 -0.1749
  268MOL0     H36950  -1.210   7.513   1.272 -2.4286  2.1165 -0.0789
  268MOL0     H36951  -1.133   7.663   1.287 -0.3031  0.4675 -0.6845
  268MOL0     H36952  -1.383   7.601   1.154 -0.4900  0.2537  1.8835
  268MOL0     H36953  -1.293   7.715   1.057 -1.6559  1.7858  1.6867
  268MOL0     H36954  -1.251   7.876   1.229  0.2586 -0.5673 -0.8169
  268MOL0     H36955  -1.341   7.777   1.341 -2.7637  1.1707  0.2038
  268MOL0     H36956  -1.436   7.889   1.072 -2.4952 -0.6447  0.0072
  268MOL0     H36957  -1.537   7.791   1.182 -0.2526 -0.4351  2.2916
  268MOL0     H36958  -1.527   7.987   1.332  1.0473 -2.0958 -0.5499
  268MOL0     H36959  -1.567   8.034   1.162 -0.2511 -4.6238 -2.2798
  268MOL0     H36960  -1.329   8.139   1.158  2.1296  0.3292  1.1193
  268MOL0     H36961  -1.305   8.053   1.304  0.1945  1.0374  1.8901
  268MOL0     H36962  -1.340   8.279   1.368  1.1863  0.3441 -2.2566
  268MOL0     H36963  -1.506   8.206   1.386  2.3147 -5.1981  0.8657
  268MOL0     H36964  -0.995   7.180   1.123  0.1230 -2.8203 -2.6799
  268MOL0     H36965  -0.808   7.052   0.997 -1.7077 -0.2486  1.5878
  268MOL0     H36966  -0.444   7.134   0.684  2.1485  0.4467  1.8677
  268MOL0     H36967  -0.317   7.035   0.517 -2.2416  0.7775  0.2480
  268MOL0     H36968   0.833   7.028  -0.119  0.5280 -0.6681 -0.2440
  268MOL0     H36969   0.698   7.240  -0.038  0.8895  2.4661  1.1122
  268MOL0     H36970   0.524   7.472   0.141  3.6465  1.8311 -0.7986
  268MOL0     H36971   0.351   7.632   0.187 -0.5657  1.5070 -0.6154
  268MOL0     H36972   0.414   7.976   0.321 -0.5499  1.5321 -1.6934
  268MOL0     H36973   0.309   7.882   0.211 -0.5814 -1.2143 -0.1461
  268MOL0     H36974   0.164   7.943   0.452 -0.3284 -0.8691  0.2333
  268MOL0     H36975   0.125   7.982   0.279  3.5680  1.9526 -3.6208
  268MOL0     H36976   0.301   8.148   0.471  0.2887  1.5777 -0.2970
  268MOL0     H36977   0.277   8.174   0.295  3.7770  0.7978  1.8576
  268MOL0     H36978   0.091   8.218   0.534 -2.4362 -1.5651 -1.3512
  268MOL0     H36979   0.021   8.170   0.378 -1.9649  1.1014  1.8671
  268MOL0     H36980   0.086   8.575   0.311 -1.4348  0.5260  3.1865
  268MOL0     H36981   0.593   7.815   0.491  1.9560 -3.1572  1.0031
  268MOL0     H36982   0.911   7.701   0.338 -1.4043 -0.3030 -0.5867
  268MOL0     H36983   0.840   7.808   0.462 -0.1123  0.4381  1.0156
  268MOL0     H36984   0.862   7.630   0.494 -3.5044 -1.4361  0.0850
  269MOL0     O36985   6.582   4.460   6.172  0.0149 -0.0768  0.1909
  269MOL0     C36986   6.506   4.534   6.238 -0.8579 -0.6533  0.2191
  269MOL0     O36987   6.474   4.520   6.370 -0.2689  0.3063 -0.0341
  269MOL0     C36988   6.531   4.410   6.433  0.0676 -0.0455 -0.9585
  269MOL0     C36989   6.459   4.294   6.420  0.4366 -0.0222  1.3748
  269MOL0     C36990   6.521   4.175   6.466 -0.5537 -0.1354 -0.5304
  269MOL0     C36991   6.654   4.180   6.531 -0.4234  0.5651  0.5519
  269MOL0     O36992   6.705   4.060   6.567  0.2970  0.3660 -0.3128
  269MOL0     C36993   6.817   4.059   6.660  0.2043 -0.4030  0.4599
  269MOL0     C36994   6.858   3.912   6.685  0.3100  0.6491  0.1170
  269MOL0     C36995   6.985   3.901   6.779 -0.3776  0.5539  0.6287
  269MOL0     C36996   6.942   3.940   6.923 -0.4010 -0.7606 -0.2562
  269MOL0     C36997   7.034   3.864   7.025 -0.3042  0.3606 -0.2192
  269MOL0     C36998   7.181   3.910   7.014 -0.0421  0.6770  0.2361
  269MOL0     C36999   7.234   3.965   7.151  0.4487 -0.1161 -0.6179
  269MOL0     C37000   7.140   4.079   7.208 -0.2474  0.6953  0.1024
  269MOL0     N37001   7.196   4.168   7.303 -0.1127 -0.4703  0.9384
  269MOL0     C37002   7.312   4.137   7.377  0.7434 -0.0221  0.1572
  269MOL0     C37003   7.377   4.255   7.399  0.8799 -0.1698 -0.0340
  269MOL0     C37004   7.509   4.295   7.462  0.5488 -0.1603  0.4554
  269MOL0     C37005   7.512   4.256   7.620 -0.7357  0.0612 -0.1455
  269MOL0     C37006   7.408   4.312   7.708 -0.8105  0.3600  0.4153
  269MOL0     C37007   7.419   4.464   7.717 -0.9000 -0.6964 -0.0847
  269MOL0     O37008   7.537   4.515   7.777  0.4936  0.5215  0.4188
  269MOL0     C37009   7.563   4.651   7.754 -0.0055  0.0975 -1.2880
  269MOL0     C37010   7.475   4.742   7.686 -0.7219  0.0954  0.8521
  269MOL0     C37011   7.500   4.876   7.667  0.1012  0.4968  0.5911
  269MOL0     C37012   7.397   4.970   7.608 -0.3506 -1.4638 -0.3423
  269MOL0     C37013   7.627   4.918   7.713  1.0083  0.5428 -0.1610
  269MOL0     C37014   7.653   5.054   7.703  0.7430 -1.0488  0.9592
  269MOL0     O37015   7.691   5.100   7.582  0.2772  0.3704 -0.1629
  269MOL0     C37016   7.719   5.237   7.564 -0.1326  0.5128 -0.2530
  269MOL0     C37017   7.631   5.335   7.618  0.6153  0.6470  0.2798
  269MOL0     C37018   7.648   5.469   7.594 -0.0740  0.3609  1.2286
  269MOL0     C37019   7.735   5.498   7.485 -0.0759  0.3092 -0.2102
  269MOL0     O37020   7.731   5.628   7.440 -0.3805  0.0186  0.6569
  269MOL0     C37021   7.824   5.682   7.353 -0.4881 -0.2170  0.1882
  269MOL0     C37022   7.957   5.707   7.414 -0.6700  0.2636 -0.3337
  269MOL0     C37023   8.086   5.707   7.319  0.4404  1.1753 -0.2990
  269MOL0     C37024   8.226   5.719   7.398 -0.2554  0.3773 -0.7922
  269MOL0     C37025   8.348   5.698   7.296  1.6208 -0.2929 -0.0286
  269MOL0     C37026   8.365   5.807   7.189  0.0771  0.6414  1.2163
  269MOL0     C37027   8.493   5.796   7.103 -0.4017  0.5854  0.7459
  269MOL0     C37028   8.528   5.914   7.014  0.3164 -0.0645 -0.5465
  269MOL0    Cl37029   8.427   5.918   6.866 -0.0208  0.0703 -0.1727
  269MOL0     C37030   7.803   5.402   7.423  0.2329  0.3131  0.4653
  269MOL0     C37031   7.803   5.271   7.464  0.2411  1.2360 -0.1915
  269MOL0     O37032   7.663   5.116   7.807  0.9334 -0.1842  1.4474
  269MOL0     C37033   7.719   4.838   7.780  0.3201  0.7288 -0.7604
  269MOL0     C37034   7.692   4.699   7.804 -0.6169 -0.3425  0.6655
  269MOL0     N37035   7.304   4.350   7.333 -0.1472  0.1410  0.5272
  269MOL0     N37036   7.194   4.301   7.287  0.1848 -0.1095 -0.6914
  269MOL0     C37037   6.717   4.298   6.543 -0.3491  0.1860  0.1730
  269MOL0     C37038   6.655   4.420   6.502  0.9819  0.4207 -1.0505
  269MOL0     C37039   6.429   4.637   6.162  0.0439 -0.0628 -0.0772
  269MOL0     C37040   6.295   4.655   6.196  0.0996 -0.3809 -0.7844
  269MOL0     C37041   6.212   4.746   6.129 -0.6066 -0.4728 -0.2546
  269MOL0     C37042   6.269   4.828   6.032  1.4334  0.2023  0.7024
  269MOL0     O37043   6.209   4.934   5.975  0.0652  0.5272 -0.3774
  269MOL0     C37044   6.067   4.929   5.986 -0.2705 -0.4313  0.1752
  269MOL0     C37045   6.009   5.037   5.893  0.5690  0.1155  0.5750
  269MOL0     C37046   6.036   5.183   5.924 -0.2741 -0.3773 -1.2164
  269MOL0     C37047   5.990   5.219   6.071 -0.1579  0.1520  1.4566
  269MOL0     C37048   5.845   5.251   6.087 -0.8226  0.2435  0.0208
  269MOL0     C37049   5.728   5.275   6.096 -1.1358 -0.7811  0.9901
  269MOL0     C37050   6.405   4.814   5.990 -0.2120 -0.6082  0.2946
  269MOL0     C37051   6.479   4.713   6.048 -0.7183 -0.6096  0.4208
  269MOL0     C37052   6.619   4.693   5.996 -1.0413 -0.3228  0.5982
  269MOL0     H37053   6.362   4.298   6.372  1.1818  2.9705 -0.0980
  269MOL0     H37054   6.480   4.077   6.447 -0.9976 -0.3583  1.3728
  269MOL0     H37055   6.802   4.107   6.757  0.0721  1.0678 -0.2547
  269MOL0     H37056   6.900   4.116   6.616 -0.2312 -1.0602 -1.3152
  269MOL0     H37057   6.782   3.854   6.739  2.1922 -2.3576 -0.2058
  269MOL0     H37058   6.879   3.864   6.589  2.6743 -0.4926  1.1113
  269MOL0     H37059   7.019   3.798   6.763  2.1557  1.7232 -2.9688
  269MOL0     H37060   7.066   3.968   6.747  0.7646 -1.9536 -2.2438
  269MOL0     H37061   6.956   4.048   6.937 -0.9805 -0.7455  0.2375
  269MOL0     H37062   6.839   3.907   6.939 -1.2208  0.3670 -2.6876
  269MOL0     H37063   7.028   3.756   7.011 -0.4639  0.2260  0.8341
  269MOL0     H37064   7.005   3.874   7.130  1.6287 -0.3260  0.4155
  269MOL0     H37065   7.251   3.832   6.985  1.0931  1.6123  0.3898
  269MOL0     H37066   7.185   3.984   6.934  1.2536 -0.8717 -1.1911
  269MOL0     H37067   7.324   4.024   7.130 -1.2934  2.7997 -0.5179
  269MOL0     H37068   7.261   3.880   7.213  1.2454 -1.6251 -2.9135
  269MOL0     H37069   7.099   4.138   7.125 -1.2066  1.1908  0.8976
  269MOL0     H37070   7.059   4.047   7.275 -1.6963  2.1943 -0.8490
  269MOL0     H37071   7.341   4.040   7.416 -0.0292 -1.0400 -1.6711
  269MOL0     H37072   7.530   4.400   7.438 -2.7048  0.1428 -1.6857
  269MOL0     H37073   7.588   4.242   7.410  2.6094  1.3982  1.8441
  269MOL0     H37074   7.511   4.147   7.622  2.0430 -0.0453  1.2463
  269MOL0     H37075   7.614   4.269   7.660 -0.6060  2.7289 -1.1146
  269MOL0     H37076   7.304   4.297   7.678 -0.5550 -3.4027  0.8927
  269MOL0     H37077   7.418   4.259   7.804 -0.6353  0.2046  0.3130
  269MOL0     H37078   7.419   4.507   7.616  2.2053  0.2534  0.2178
  269MOL0     H37079   7.329   4.500   7.767 -1.4020  0.3586 -1.6723
  269MOL0     H37080   7.382   4.708   7.641 -0.6931 -0.2292  1.0372
  269MOL0     H37081   7.319   4.908   7.563 -3.2095  2.7711 -1.8053
  269MOL0     H37082   7.454   5.029   7.537 -1.4083  0.4291  0.3222
  269MOL0     H37083   7.358   5.031   7.690  0.0176 -0.2352 -1.0670
  269MOL0     H37084   7.552   5.317   7.690 -0.6961  2.6407 -0.5670
  269MOL0     H37085   7.583   5.543   7.639 -2.1082 -1.3270  1.2049
  269MOL0     H37086   7.830   5.620   7.263 -4.3435  0.3385 -0.6327
  269MOL0     H37087   7.783   5.773   7.307  1.8154  0.3138 -0.9684
  269MOL0     H37088   7.952   5.798   7.474  1.4808  0.2957 -0.1407
  269MOL0     H37089   7.973   5.619   7.477  1.0278 -0.5639 -1.8179
  269MOL0     H37090   8.084   5.797   7.256 -0.9963  0.0725 -1.9140
  269MOL0     H37091   8.090   5.618   7.256 -0.9744 -0.6744  2.0595
  269MOL0     H37092   8.240   5.638   7.470  0.2867  1.8753  0.8698
  269MOL0     H37093   8.240   5.815   7.450  0.5774  1.2769 -2.5992
  269MOL0     H37094   8.445   5.684   7.345  1.9519 -1.5907 -0.9911
  269MOL0     H37095   8.328   5.602   7.247  1.0174 -1.8792  3.0981
  269MOL0     H37096   8.365   5.901   7.245 -1.5030  0.3908  1.6835
  269MOL0     H37097   8.284   5.815   7.116 -0.6790  0.4184  2.0139
  269MOL0     H37098   8.474   5.703   7.048 -3.6893  0.6751  1.5360
  269MOL0     H37099   8.576   5.770   7.169 -1.4975 -1.8668  1.3032
  269MOL0     H37100   8.629   5.906   6.974 -0.0313  0.6522 -1.6266
  269MOL0     H37101   8.522   6.015   7.058 -1.1539 -0.8460  1.1860
  269MOL0     H37102   7.857   5.417   7.330 -0.1411 -0.7055  0.0721
  269MOL0     H37103   7.853   5.197   7.403 -1.2477  1.6833 -2.0317
  269MOL0     H37104   7.807   4.868   7.836  0.0784 -0.8923  0.5973
  269MOL0     H37105   7.756   4.630   7.859 -0.0490 -0.5120 -0.1876
  269MOL0     H37106   6.812   4.305   6.595  0.0072 -0.5619 -0.3572
  269MOL0     H37107   6.694   4.512   6.545  1.0121  0.6639 -1.5899
  269MOL0     H37108   6.245   4.585   6.262 -0.1373 -1.6136 -2.2236
  269MOL0     H37109   6.109   4.748   6.164 -1.0129 -1.5222 -1.3569
  269MOL0     H37110   6.042   4.835   5.936 -0.0061  0.6638 -2.1416
  269MOL0     H37111   6.042   4.934   6.092 -0.7590 -1.5927  0.1337
  269MOL0     H37112   5.902   5.022   5.914  0.1510 -0.9183 -1.9392
  269MOL0     H37113   6.017   5.011   5.787 -0.7048  0.6184  0.3375
  269MOL0     H37114   6.141   5.214   5.922  0.2457 -1.9677 -0.1367
  269MOL0     H37115   5.991   5.251   5.850 -3.1611  1.0443  1.5939
  269MOL0     H37116   6.054   5.305   6.092  3.8036 -1.4981 -2.2706
  269MOL0     H37117   6.018   5.139   6.140  1.6558  0.4968  1.1649
  269MOL0     H37118   5.621   5.282   6.102 -1.1745 -0.8307  0.4185
  269MOL0     H37119   6.455   4.876   5.917  0.8926 -1.1364  0.5755
  269MOL0     H37120   6.613   4.588   5.965  1.0957 -0.0307 -1.0462
  269MOL0     H37121   6.645   4.744   5.903  1.9231  1.4402  2.2096
  269MOL0     H37122   6.700   4.707   6.069  0.7582 -2.7297 -0.7730
  270MOL0     O37123   5.679   5.343   7.146  0.6204 -0.6843 -0.4887
  270MOL0     C37124   5.563   5.320   7.187 -0.3251 -0.2908 -0.4311
  270MOL0     O37125   5.477   5.414   7.242 -0.2540 -0.0411 -0.6944
  270MOL0     C37126   5.472   5.547   7.198  0.8555  0.4168  0.3910
  270MOL0     C37127   5.403   5.652   7.265  0.2292  0.9468 -0.1104
  270MOL0     C37128   5.389   5.775   7.214  1.0213  0.3582  0.1638
  270MOL0     C37129   5.455   5.805   7.093 -0.4862 -0.6141  0.7601
  270MOL0     O37130   5.467   5.926   7.045  0.2427  0.2104  0.7821
  270MOL0     C37131   5.360   6.021   7.065 -0.2270  0.2677 -1.1837
  270MOL0     C37132   5.387   6.139   7.164 -0.3885  0.3072  0.8876
  270MOL0     C37133   5.490   6.246   7.115 -1.2509  1.5992 -0.1237
  270MOL0     C37134   5.439   6.346   7.005  0.4422  0.0284 -0.3569
  270MOL0     C37135   5.553   6.425   6.941 -0.4550 -0.3750  0.1196
  270MOL0     C37136   5.637   6.514   7.044 -0.6590 -0.1169 -0.0637
  270MOL0     C37137   5.755   6.599   6.966  0.5645  1.0603 -0.4068
  270MOL0     C37138   5.788   6.722   7.052  0.2869  0.1113  0.8349
  270MOL0     N37139   5.892   6.697   7.149  0.2888 -0.1700 -0.6763
  270MOL0     C37140   6.026   6.679   7.125 -0.6502 -0.4199  0.3115
  270MOL0     C37141   6.077   6.660   7.254 -0.2701  0.6523  0.4692
  270MOL0     C37142   6.219   6.613   7.282  0.0891  0.8330 -0.3449
  270MOL0     C37143   6.271   6.638   7.419 -0.5993 -0.2287 -0.6529
  270MOL0     C37144   6.427   6.620   7.426  0.2555 -0.3335  0.2933
  270MOL0     C37145   6.459   6.469   7.437  0.3608 -0.0697 -0.5066
  270MOL0     O37146   6.600   6.441   7.438 -0.4129  1.3737  1.4609
  270MOL0     C37147   6.688   6.452   7.543 -0.4258 -1.0070  0.2805
  270MOL0     C37148   6.824   6.436   7.513  0.5713  0.2927 -0.5164
  270MOL0     C37149   6.921   6.426   7.613  0.6794 -0.6662 -0.4878
  270MOL0     C37150   7.057   6.385   7.569 -0.7840  0.1228  0.3506
  270MOL0     C37151   6.885   6.444   7.748 -0.0697 -0.1166 -0.4179
  270MOL0     C37152   6.986   6.444   7.852 -1.5469  0.7368 -1.2691
  270MOL0     O37153   6.970   6.538   7.951  0.1627 -0.0847 -0.0193
  270MOL0     C37154   7.041   6.528   8.066 -0.3897 -1.0862  0.4445
  270MOL0     C37155   6.973   6.585   8.175  0.1123 -0.4553  0.2858
  270MOL0     C37156   7.036   6.600   8.299 -0.1296  0.1683 -0.0703
  270MOL0     C37157   7.170   6.550   8.320  0.0825 -0.3601 -0.4917
  270MOL0     O37158   7.239   6.558   8.437 -0.0040 -0.9572 -0.0770
  270MOL0     C37159   7.258   6.438   8.506 -0.3822  0.0247 -0.0502
  270MOL0     C37160   7.335   6.479   8.631  0.0566 -0.0445 -0.1146
  270MOL0     C37161   7.488   6.483   8.589  0.4801  0.4996 -0.5974
  270MOL0     C37162   7.582   6.568   8.678 -0.1715  0.4591  0.4809
  270MOL0     C37163   7.583   6.502   8.821  0.4513 -1.0829 -0.3485
  270MOL0     C37164   7.667   6.571   8.931 -0.6559  0.1182  0.3793
  270MOL0     C37165   7.633   6.722   8.914 -0.5559 -0.1103 -0.7975
  270MOL0     C37166   7.682   6.787   9.050  1.0829  0.5832  0.0503
  270MOL0    Cl37167   7.849   6.771   9.072 -0.4563 -0.3627  0.1324
  270MOL0     C37168   7.240   6.506   8.202  0.0555 -1.3466  0.1314
  270MOL0     C37169   7.176   6.499   8.079  0.0467 -0.4489  0.6785
  270MOL0     O37170   7.066   6.349   7.864  0.3389 -0.4049 -0.8490
  270MOL0     C37171   6.746   6.472   7.775 -0.1653 -1.0290  0.8721
  270MOL0     C37172   6.654   6.489   7.672 -0.3650 -0.0972 -0.6402
  270MOL0     N37173   5.965   6.662   7.345  0.0037 -0.0921 -0.5074
  270MOL0     N37174   5.851   6.681   7.277  0.1852 -0.2712 -0.0216
  270MOL0     C37175   5.535   5.709   7.026  0.1865  0.1258 -0.4070
  270MOL0     C37176   5.542   5.592   7.083  0.7125  0.0924  0.0340
  270MOL0     C37177   5.514   5.172   7.196 -0.2306 -0.2289 -0.9222
  270MOL0     C37178   5.382   5.142   7.241  0.2110 -0.6134  0.3207
  270MOL0     C37179   5.326   5.011   7.238 -0.2694  0.4562 -0.0189
  270MOL0     C37180   5.405   4.901   7.211 -0.3123  0.1416  0.7065
  270MOL0     O37181   5.343   4.774   7.228 -0.3450  0.3944 -0.4930
  270MOL0     C37182   5.368   4.681   7.134  0.4951 -0.0521  0.1535
  270MOL0     C37183   5.259   4.575   7.103 -0.8613  0.3636  0.0898
  270MOL0     C37184   5.156   4.645   7.019  0.3697  0.3230  0.2707
  270MOL0     C37185   5.023   4.564   7.042  0.7786 -0.8492  0.8651
  270MOL0     C37186   4.907   4.639   6.985 -0.1426  0.8072 -0.7354
  270MOL0     C37187   4.796   4.683   6.967  0.5725 -0.8218  1.4149
  270MOL0     C37188   5.538   4.925   7.176 -0.0690  0.4484  0.5171
  270MOL0     C37189   5.594   5.054   7.159  0.1617  0.7724 -0.7226
  270MOL0     C37190   5.734   5.067   7.109  0.0039  0.0230  0.5493
  270MOL0     H37191   5.350   5.627   7.357 -3.0651  1.0532 -1.8261
  270MOL0     H37192   5.331   5.851   7.265  0.5064  0.7020 -0.9032
  270MOL0     H37193   5.265   5.977   7.098 -0.2457  0.7322 -0.5994
  270MOL0     H37194   5.342   6.067   6.967 -0.4190  1.1126 -0.7677
  270MOL0     H37195   5.285   6.174   7.185 -1.3472 -0.3495 -2.2380
  270MOL0     H37196   5.425   6.083   7.251  0.8516  0.7793  0.6707
  270MOL0     H37197   5.537   6.292   7.203 -2.2208 -0.5967  1.6590
  270MOL0     H37198   5.573   6.196   7.064 -2.5233 -0.7288 -0.0669
  270MOL0     H37199   5.393   6.284   6.927  2.0059 -0.2319 -1.0979
  270MOL0     H37200   5.373   6.415   7.059  0.2272 -0.3382 -0.1500
  270MOL0     H37201   5.506   6.493   6.869 -0.8397 -0.6564  0.1066
  270MOL0     H37202   5.613   6.353   6.885 -0.7098 -0.4682 -0.0357
  270MOL0     H37203   5.571   6.589   7.088  1.0786  0.9949  0.7763
  270MOL0     H37204   5.684   6.450   7.119  0.3034  0.6087 -0.0245
  270MOL0     H37205   5.722   6.634   6.868 -1.4234 -0.2079 -0.2522
  270MOL0     H37206   5.835   6.526   6.950 -0.4791 -0.0858 -0.5735
  270MOL0     H37207   5.847   6.785   6.985  0.2645 -2.3654 -1.6839
  270MOL0     H37208   5.704   6.783   7.086 -0.4266  1.7103 -3.2005
  270MOL0     H37209   6.078   6.676   7.029 -1.7390 -0.2959 -0.2982
  270MOL0     H37210   6.286   6.661   7.210 -1.4721  0.4303 -2.1398
  270MOL0     H37211   6.233   6.507   7.261  3.4236  0.8099  1.3595
  270MOL0     H37212   6.252   6.743   7.445  1.6520  0.4575 -1.5666
  270MOL0     H37213   6.221   6.569   7.488 -0.5826 -1.5951 -1.9644
  270MOL0     H37214   6.480   6.660   7.340  0.8993 -2.7475 -0.5189
  270MOL0     H37215   6.459   6.676   7.515 -1.9550  2.7985 -0.7193
  270MOL0     H37216   6.418   6.436   7.533  2.5145  2.2568  1.3469
  270MOL0     H37217   6.410   6.411   7.359 -1.8824  0.8137  0.1857
  270MOL0     H37218   6.850   6.405   7.412  0.0466  0.1724 -0.6147
  270MOL0     H37219   7.064   6.375   7.461  0.3531 -2.0105  0.5734
  270MOL0     H37220   7.087   6.286   7.605  1.6359  1.3837  2.0927
  270MOL0     H37221   7.135   6.457   7.597  0.9850 -1.3183 -0.6886
  270MOL0     H37222   6.878   6.635   8.158  1.6893  1.9301 -2.4982
  270MOL0     H37223   6.985   6.639   8.388  0.3041 -1.6338  1.0092
  270MOL0     H37224   7.165   6.385   8.532 -1.1636  0.6138 -1.5557
  270MOL0     H37225   7.309   6.359   8.451 -0.6040  0.8370 -1.4595
  270MOL0     H37226   7.304   6.570   8.684  0.1974  0.4525 -0.8627
  270MOL0     H37227   7.325   6.411   8.716  0.9588  1.0042  0.8730
  270MOL0     H37228   7.497   6.511   8.484 -0.0973  2.3708 -0.1817
  270MOL0     H37229   7.527   6.381   8.595 -0.5823  0.1019 -0.3582
  270MOL0     H37230   7.545   6.671   8.686 -0.2282  0.4626  0.2009
  270MOL0     H37231   7.679   6.558   8.628 -0.9501 -4.1727 -0.5224
  270MOL0     H37232   7.482   6.494   8.862  0.7991  1.3174  1.1929
  270MOL0     H37233   7.619   6.401   8.800 -1.5999 -1.6446 -1.4072
  270MOL0     H37234   7.775   6.559   8.915 -0.0413  3.0356  1.6550
  270MOL0     H37235   7.643   6.535   9.031 -0.0689  3.8754  2.0396
  270MOL0     H37236   7.523   6.730   8.911 -0.4703  1.4180 -0.9072
  270MOL0     H37237   7.682   6.764   8.825  1.4842  2.6175  1.4427
  270MOL0     H37238   7.631   6.738   9.134 -0.6710  3.0446  0.5503
  270MOL0     H37239   7.652   6.892   9.045 -1.9180 -0.0659  1.4217
  270MOL0     H37240   7.343   6.481   8.226 -0.1215 -2.9359 -0.6272
  270MOL0     H37241   7.229   6.472   7.988  0.8232  0.1348  0.9515
  270MOL0     H37242   6.693   6.476   7.870 -6.6541  2.4091 -2.2007
  270MOL0     H37243   6.548   6.502   7.689 -0.2263 -0.2646  0.3806
  270MOL0     H37244   5.601   5.732   6.943  0.2994  1.8390  0.1223
  270MOL0     H37245   5.602   5.520   7.029 -1.5769  0.4622 -3.2665
  270MOL0     H37246   5.320   5.227   7.270  0.4935 -0.5703  0.8058
  270MOL0     H37247   5.223   4.997   7.266 -0.3072  0.3407 -0.2108
  270MOL0     H37248   5.380   4.728   7.036 -2.8200 -0.7129 -0.6770
  270MOL0     H37249   5.459   4.622   7.151 -0.5665 -1.8927 -0.2951
  270MOL0     H37250   5.224   4.532   7.197 -2.1412 -1.0136 -0.9736
  270MOL0     H37251   5.307   4.496   7.044  0.4454  0.1618  1.3589
  270MOL0     H37252   5.127   4.742   7.062  0.1719  0.1902  0.4387
  270MOL0     H37253   5.170   4.643   6.911 -2.6152 -1.9281 -0.1927
  270MOL0     H37254   5.004   4.562   7.150 -0.8697 -1.1798  0.5919
  270MOL0     H37255   5.038   4.464   7.001 -1.1365 -0.3078 -1.4023
  270MOL0     H37256   4.701   4.730   6.948  0.2936 -2.0801 -0.5203
  270MOL0     H37257   5.606   4.843   7.156  3.2810  3.2766 -0.6257
  270MOL0     H37258   5.721   5.122   7.015 -5.1935  0.1137  1.0693
  270MOL0     H37259   5.795   5.125   7.179  4.0813 -0.5138 -2.1415
  270MOL0     H37260   5.766   4.968   7.074  0.3588 -0.0794  1.1546
  271MOL0     O37261   3.553   3.852   6.932 -0.2105 -0.2915  0.1804
  271MOL0     C37262   3.484   3.789   7.015 -0.2279 -0.8826 -0.0634
  271MOL0     O37263   3.377   3.711   6.990  0.1238  0.9219 -0.0763
  271MOL0     C37264   3.380   3.665   6.865  0.0329  0.1420  0.0167
  271MOL0     C37265   3.475   3.562   6.824  0.9758 -1.0616  0.2576
  271MOL0     C37266   3.465   3.505   6.703 -0.9196 -0.5174  0.5308
  271MOL0     C37267   3.379   3.555   6.605 -0.6784 -0.0730  0.0317
  271MOL0     O37268   3.376   3.495   6.475 -0.2102  0.3632  0.0999
  271MOL0     C37269   3.398   3.596   6.372 -0.2468  0.8520 -0.5192
  271MOL0     C37270   3.280   3.603   6.271  0.3626 -0.4986  0.0986
  271MOL0     C37271   3.264   3.744   6.204  0.3037  0.1473  0.0952
  271MOL0     C37272   3.123   3.764   6.173 -0.4494  0.6954  0.3639
  271MOL0     C37273   3.108   3.914   6.116  0.4494  0.2987  0.7220
  271MOL0     C37274   2.962   3.951   6.120 -0.2348 -0.5658 -0.4157
  271MOL0     C37275   2.945   4.095   6.102  0.3060 -0.4255  0.6411
  271MOL0     C37276   2.795   4.128   6.119  0.0750  0.5473 -0.3128
  271MOL0     N37277   2.755   4.258   6.084  0.5865 -0.7260 -0.6077
  271MOL0     C37278   2.747   4.308   5.963 -0.1265 -0.1429 -0.3921
  271MOL0     C37279   2.742   4.442   5.971 -0.2563 -0.0635 -0.1508
  271MOL0     C37280   2.723   4.525   5.847  0.2214  0.2603  0.6860
  271MOL0     C37281   2.736   4.674   5.872 -0.0328  0.2234 -0.3128
  271MOL0     C37282   2.690   4.754   5.753  0.8624  0.0395 -0.4282
  271MOL0     C37283   2.801   4.820   5.680 -0.1218  0.0529 -0.0213
  271MOL0     O37284   2.891   4.718   5.633 -0.5028 -0.1732 -0.3255
  271MOL0     C37285   2.864   4.702   5.497 -0.0729 -0.2910  0.1900
  271MOL0     C37286   2.817   4.574   5.452  0.1878 -1.3807  0.6926
  271MOL0     C37287   2.796   4.549   5.317  0.0843 -0.1625  1.2290
  271MOL0     C37288   2.754   4.406   5.287 -0.4876  0.2360  0.0951
  271MOL0     C37289   2.819   4.645   5.220  1.0049 -0.3627  0.0283
  271MOL0     C37290   2.782   4.629   5.070  0.4782 -0.3782  0.4951
  271MOL0     O37291   2.825   4.730   4.992  0.1231 -0.2532  0.0115
  271MOL0     C37292   2.771   4.740   4.861 -0.7030  0.0795  0.1610
  271MOL0     C37293   2.851   4.690   4.754  0.5888 -0.5750  0.1982
  271MOL0     C37294   2.812   4.719   4.621  0.2790  0.4570 -0.5545
  271MOL0     C37295   2.682   4.787   4.598 -0.9395  0.2221 -0.6652
  271MOL0     O37296   2.645   4.837   4.474 -0.1310 -0.6199 -0.5706
  271MOL0     C37297   2.509   4.878   4.439  0.3745 -0.2437 -0.1262
  271MOL0     C37298   2.493   4.857   4.289  0.2754 -0.6066 -0.8463
  271MOL0     C37299   2.579   4.970   4.218 -0.7980 -0.4242  0.3567
  271MOL0     C37300   2.573   4.934   4.067 -0.5109  0.3536  0.2256
  271MOL0     C37301   2.648   5.029   3.970 -0.7035  0.3212 -0.4099
  271MOL0     C37302   2.803   4.969   3.964  0.6689 -0.9549  0.2809
  271MOL0     C37303   2.866   5.062   3.857 -0.3006 -1.0023 -1.0297
  271MOL0     C37304   3.019   5.059   3.889  0.3813  0.4457  0.6793
  271MOL0    Cl37305   3.120   5.142   3.763  0.1198 -0.2590  0.0551
  271MOL0     C37306   2.597   4.820   4.714 -0.7766  0.1905  0.9327
  271MOL0     C37307   2.648   4.804   4.840 -0.0549 -0.0481  0.0092
  271MOL0     O37308   2.708   4.538   5.036  0.5508  0.2542  0.1206
  271MOL0     C37309   2.869   4.766   5.260  0.2824 -0.4489 -0.4168
  271MOL0     C37310   2.888   4.801   5.396 -0.5419  0.0297  0.0876
  271MOL0     N37311   2.726   4.469   6.108  0.0625  0.6423  1.2324
  271MOL0     N37312   2.735   4.361   6.172  0.5345 -0.0911  0.9185
  271MOL0     C37313   3.286   3.648   6.646  0.1802 -0.7935  0.5000
  271MOL0     C37314   3.285   3.707   6.776 -0.8321 -0.7578 -0.5548
  271MOL0     C37315   3.531   3.821   7.159  1.1870  0.9083 -0.4221
  271MOL0     C37316   3.627   3.919   7.188 -0.1259  0.9351 -0.8625
  271MOL0     C37317   3.677   3.938   7.312 -0.0886 -1.0476  1.0460
  271MOL0     C37318   3.612   3.874   7.416  0.3037  0.1460  0.3769
  271MOL0     O37319   3.668   3.912   7.535  1.3286  0.0513 -0.2567
  271MOL0     C37320   3.603   3.880   7.652 -0.2444 -0.0979 -1.0774
  271MOL0     C37321   3.645   3.741   7.703 -0.0317 -0.3355  0.7669
  271MOL0     C37322   3.734   3.749   7.822 -0.4162 -0.3597 -1.0864
  271MOL0     C37323   3.870   3.807   7.791  0.5158 -0.4779  0.2085
  271MOL0     C37324   3.936   3.731   7.681 -0.1277  0.1259 -0.2934
  271MOL0     C37325   3.982   3.670   7.589  0.1403 -0.4684 -0.2465
  271MOL0     C37326   3.507   3.782   7.402 -0.6710  0.2601 -0.8173
  271MOL0     C37327   3.471   3.750   7.273 -0.4071 -0.5096  0.5729
  271MOL0     C37328   3.354   3.663   7.250  0.5126  0.2649 -0.2096
  271MOL0     H37329   3.528   3.508   6.901  4.6445 -1.7855 -2.5050
  271MOL0     H37330   3.535   3.428   6.674  0.3067  1.1956 -1.2790
  271MOL0     H37331   3.494   3.568   6.328 -0.0087 -1.4966  1.3201
  271MOL0     H37332   3.419   3.690   6.424 -2.4400  1.5423 -0.7552
  271MOL0     H37333   3.289   3.519   6.202 -1.5296 -0.5921 -0.0987
  271MOL0     H37334   3.186   3.580   6.322  0.3673 -0.4133  0.1470
  271MOL0     H37335   3.304   3.816   6.276 -2.1604 -1.7435  3.7158
  271MOL0     H37336   3.312   3.749   6.106  1.1160 -0.4125  0.4563
  271MOL0     H37337   3.075   3.684   6.115 -1.9152  0.7909  1.3765
  271MOL0     H37338   3.059   3.754   6.260 -1.5807 -1.4275 -0.6411
  271MOL0     H37339   3.133   3.916   6.010 -0.2128 -4.5743  0.2341
  271MOL0     H37340   3.179   3.976   6.171  1.1572  0.2764 -0.1495
  271MOL0     H37341   2.900   3.889   6.054 -1.4679  0.2875 -0.0932
  271MOL0     H37342   2.921   3.931   6.220 -0.2417  3.5522  0.5670
  271MOL0     H37343   2.976   4.119   5.999  0.1724  0.3177  0.7643
  271MOL0     H37344   3.004   4.145   6.179  1.9607 -3.2993  1.3608
  271MOL0     H37345   2.730   4.050   6.079  0.7553  1.5047 -3.6267
  271MOL0     H37346   2.779   4.114   6.226 -2.4412  0.1907 -0.6821
  271MOL0     H37347   2.743   4.242   5.877  1.7534  0.7403 -1.2070
  271MOL0     H37348   2.626   4.504   5.801  0.8223 -0.5415 -0.2552
  271MOL0     H37349   2.797   4.485   5.777  0.3489 -0.3443  1.1601
  271MOL0     H37350   2.662   4.681   5.953 -0.2569 -0.9511 -0.3925
  271MOL0     H37351   2.834   4.712   5.902  0.7261 -1.7656 -0.1402
  271MOL0     H37352   2.642   4.681   5.688 -1.0181 -0.1468  1.0720
  271MOL0     H37353   2.617   4.831   5.780  1.4598  0.5067 -0.1146
  271MOL0     H37354   2.776   4.882   5.594  3.4105  0.3824 -0.9782
  271MOL0     H37355   2.861   4.876   5.753 -0.5137  1.5291 -0.7901
  271MOL0     H37356   2.811   4.502   5.534 -1.2082  0.3262  2.1685
  271MOL0     H37357   2.779   4.330   5.362 -0.4570  0.0783 -0.0743
  271MOL0     H37358   2.806   4.364   5.201 -0.9162 -1.2649  0.5426
  271MOL0     H37359   2.646   4.394   5.280 -0.5376  0.0480  1.0447
  271MOL0     H37360   2.942   4.638   4.784  0.5485 -0.5430  0.3788
  271MOL0     H37361   2.880   4.694   4.540  0.5461 -2.7494  0.5048
  271MOL0     H37362   2.442   4.812   4.496  3.4566 -0.7066  3.4010
  271MOL0     H37363   2.476   4.981   4.459  0.8761 -0.0427 -0.3097
  271MOL0     H37364   2.530   4.759   4.258 -2.3786 -1.8172 -0.4469
  271MOL0     H37365   2.391   4.870   4.251 -0.6567  1.6942  2.0707
  271MOL0     H37366   2.684   4.960   4.246 -0.4210 -0.4078 -0.9947
  271MOL0     H37367   2.538   5.069   4.242  1.1767  0.6061 -0.2845
  271MOL0     H37368   2.467   4.932   4.039 -0.0043 -1.1346 -1.8176
  271MOL0     H37369   2.613   4.834   4.047  1.4056  1.7852 -4.4213
  271MOL0     H37370   2.592   5.014   3.878 -2.0647 -1.0840  0.5995
  271MOL0     H37371   2.629   5.129   4.011 -2.2036 -0.5478  1.1676
  271MOL0     H37372   2.800   4.876   3.906 -3.8282 -1.0642  0.3225
  271MOL0     H37373   2.862   4.956   4.055  1.8664 -0.2608 -0.3770
  271MOL0     H37374   2.829   5.165   3.860  2.2433 -0.0269 -0.6146
  271MOL0     H37375   2.853   5.022   3.756 -1.0312 -1.3615 -0.7977
  271MOL0     H37376   3.052   4.957   3.908 -0.6726 -0.0526 -0.0973
  271MOL0     H37377   3.018   5.125   3.977 -1.0817  0.9132  0.3303
  271MOL0     H37378   2.500   4.862   4.690  0.9115  2.1742 -3.6455
  271MOL0     H37379   2.588   4.824   4.928  5.0180  2.6188  3.3561
  271MOL0     H37380   2.901   4.828   5.177  0.3464 -2.9619 -2.3776
  271MOL0     H37381   2.925   4.898   5.426 -2.2144  0.7808 -0.1587
  271MOL0     H37382   3.205   3.671   6.578  1.8983  0.3118 -1.2547
  271MOL0     H37383   3.225   3.794   6.800 -2.4010 -2.6913  3.6491
  271MOL0     H37384   3.663   3.972   7.100 -0.0010  0.7907 -0.8998
  271MOL0     H37385   3.752   4.014   7.328  0.3070 -1.3876  0.8481
  271MOL0     H37386   3.632   3.951   7.729  0.8248 -4.0602  2.5341
  271MOL0     H37387   3.494   3.876   7.647 -0.3773 -0.9352  1.3519
  271MOL0     H37388   3.691   3.691   7.618 -0.8824  1.8112 -1.0543
  271MOL0     H37389   3.551   3.696   7.736 -0.5861  2.0348  2.7769
  271MOL0     H37390   3.679   3.813   7.892 -1.7148 -2.8053  0.2437
  271MOL0     H37391   3.751   3.659   7.881 -1.1972  0.3092  0.1787
  271MOL0     H37392   3.927   3.803   7.884 -0.2700 -0.6822  0.6922
  271MOL0     H37393   3.869   3.915   7.776  0.0466 -0.5138 -0.0451
  271MOL0     H37394   4.040   3.621   7.514  3.4255  5.0864 -1.9434
  271MOL0     H37395   3.462   3.732   7.487 -0.6895 -0.6389 -1.3458
  271MOL0     H37396   3.269   3.723   7.218  0.2660 -0.0390 -0.1325
  271MOL0     H37397   3.363   3.580   7.179 -0.5900 -0.0984  0.0563
  271MOL0     H37398   3.331   3.615   7.346  0.3767 -1.7284 -1.1811
  272MOL0     O37399   9.683   1.110  10.277  0.4337  0.1516  0.2980
  272MOL0     C37400   9.575   1.087  10.335 -0.1294  0.1489  0.2344
  272MOL0     O37401   9.515   1.173  10.429  0.0013 -0.7991  0.0531
  272MOL0     C37402   9.598   1.271  10.472  1.0749 -0.0182 -0.5192
  272MOL0     C37403   9.655   1.363  10.386  0.4512  0.0272 -0.3865
  272MOL0     C37404   9.732   1.474  10.434 -0.0905  0.4000  0.1004
  272MOL0     C37405   9.759   1.490  10.573 -0.4435 -0.8323 -0.0531
  272MOL0     O37406   9.830   1.591  10.623 -1.0175 -0.3495 -0.6808
  272MOL0     C37407   9.787   1.725  10.601  0.5013  0.1091  0.1912
  272MOL0     C37408   9.904   1.810  10.644  0.6742 -0.5460 -0.3697
  272MOL0     C37409   9.924   1.815  10.791 -0.7117  0.2387  0.0344
  272MOL0     C37410   9.829   1.894  10.883 -0.0497 -0.2244 -0.0703
  272MOL0     C37411   9.807   2.040  10.828  0.3047  0.6118 -0.5507
  272MOL0     C37412   9.749   2.136  10.935 -0.3292  0.4019  0.1239
  272MOL0     C37413   9.720   2.276  10.882  0.0591  0.8195  0.2666
  272MOL0     C37414   9.658   2.379  10.990  0.1022  0.7134  0.8905
  272MOL0     N37415   9.668   2.521  10.943  0.6767  0.3817  0.2927
  272MOL0     C37416   9.759   2.608  10.991 -0.1755  0.2276 -0.2602
  272MOL0     C37417   9.760   2.718  10.908  0.5648  0.4788 -0.5279
  272MOL0     C37418   9.838   2.839  10.929  1.9399 -0.1831  0.7276
  272MOL0     C37419   9.775   2.965  10.865 -0.1007 -0.8774  0.3570
  272MOL0     C37420   9.646   3.007  10.949 -0.5169 -0.0248 -0.4987
  272MOL0     C37421   9.571   3.116  10.882  0.3348 -0.5808  0.7591
  272MOL0     O37422   9.648   3.235  10.892  0.1850 -0.0897  0.2193
  272MOL0     C37423   9.605   3.334  10.983 -0.6309  0.1906  0.4038
  272MOL0     C37424   9.477   3.354  11.028  0.7366 -0.0157  0.5706
  272MOL0     C37425   9.450   3.446  11.129  0.4016 -0.1186 -0.0599
  272MOL0     C37426   9.306   3.450  11.182 -0.8473 -0.9898 -0.1672
  272MOL0     C37427   9.551   3.541  11.170  0.6193 -0.1389  0.5641
  272MOL0     C37428   9.527   3.657  11.266  0.3227  1.4812  0.0890
  272MOL0     O37429   9.630   3.744  11.292 -0.1072  0.3748 -1.1022
  272MOL0     C37430   9.621   3.812  11.415  0.6331  0.1095  0.1890
  272MOL0     C37431   9.667   3.947  11.439  0.8493  0.3699  0.7784
  272MOL0     C37432   9.654   4.013  11.565  0.0234 -0.8104 -0.2013
  272MOL0     C37433   9.632   3.936  11.679  0.3781 -0.2776  1.5614
  272MOL0     O37434   9.622   4.002  11.799  0.3048 -0.4824 -1.1509
  272MOL0     C37435   9.554   3.927  11.915  0.1977 -0.4638 -0.5783
  272MOL0     C37436   9.474   4.042  11.985  0.2016 -0.8638  0.1806
  272MOL0     C37437   9.462   4.013  12.135  0.5921 -0.1931  0.2834
  272MOL0     C37438   9.349   4.096  12.202  0.6908  0.4439  0.4286
  272MOL0     C37439   9.348   4.062  12.352 -0.6098 -0.1494 -0.3270
  272MOL0     C37440   9.242   4.142  12.437 -0.0576  1.3300  0.1520
  272MOL0     C37441   9.205   4.077  12.580  0.3902 -0.0917 -0.2473
  272MOL0     C37442   9.127   3.948  12.565  0.3067 -0.3447  0.4574
  272MOL0    Cl37443   9.148   3.847  12.711  0.6574 -0.1790 -0.0209
  272MOL0     C37444   9.593   3.799  11.655 -0.5229  0.4454 -0.9689
  272MOL0     C37445   9.597   3.739  11.526 -0.0542 -0.1065 -0.6639
  272MOL0     O37446   9.418   3.650  11.323  0.0850 -0.3226  0.6509
  272MOL0     C37447   9.682   3.522  11.117  0.3256  0.4852  0.9807
  272MOL0     C37448   9.703   3.416  11.031  0.7005 -0.0019  0.1107
  272MOL0     N37449   9.682   2.682  10.800 -0.4373 -0.8670  0.9284
  272MOL0     N37450   9.622   2.569  10.822 -0.0186  0.0049  0.2739
  272MOL0     C37451   9.695   1.395  10.656 -0.4448 -0.5076 -0.4827
  272MOL0     C37452   9.622   1.285  10.603 -0.8845 -0.3729 -0.2587
  272MOL0     C37453   9.512   0.953  10.308 -0.3767  0.3732 -0.1272
  272MOL0     C37454   9.575   0.854  10.225 -0.7529 -0.3832 -0.1602
  272MOL0     C37455   9.515   0.730  10.190  0.1773 -1.3859  0.1429
  272MOL0     C37456   9.381   0.713  10.220 -0.2124 -0.2785 -1.8934
  272MOL0     O37457   9.309   0.615  10.172 -0.5210 -0.3144 -0.5610
  272MOL0     C37458   9.362   0.473  10.151 -0.0114  0.6538 -0.0540
  272MOL0     C37459   9.248   0.373  10.173 -0.3128  0.3024  0.4231
  272MOL0     C37460   9.177   0.410  10.297 -0.7046 -0.9636 -0.0231
  272MOL0     C37461   9.068   0.309  10.331  1.3486 -0.3959 -0.3926
  272MOL0     C37462   9.111   0.170  10.339 -0.4256 -0.1782  0.0307
  272MOL0     C37463   9.141   0.050  10.345  0.4615 -0.4861  0.8659
  272MOL0     C37464   9.319   0.806  10.305 -0.2252  0.0793 -0.0758
  272MOL0     C37465   9.376   0.924  10.354 -0.0978 -0.3418  0.2972
  272MOL0     C37466   9.292   1.018  10.441 -0.9087 -0.2108 -0.9008
  272MOL0     H37467   9.628   1.354  10.281 -1.5812  4.5486 -0.5289
  272MOL0     H37468   9.770   1.542  10.359  1.6541 -0.0217  0.5644
  272MOL0     H37469   9.693   1.743  10.653 -0.9782 -2.5554 -1.3355
  272MOL0     H37470   9.765   1.748  10.496 -0.0536  0.3648  0.3622
  272MOL0     H37471  10.001   1.781  10.603 -0.0999 -1.8045 -1.4017
  272MOL0     H37472   9.885   1.915  10.620  4.9357  1.3953  3.3899
  272MOL0     H37473   9.928   1.721  10.847  1.6397  1.4004  2.0382
  272MOL0     H37474  10.017   1.873  10.798 -2.6260  4.1890 -3.0066
  272MOL0     H37475   9.730   1.852  10.902 -0.0629  0.7189  2.3243
  272MOL0     H37476   9.881   1.895  10.979  2.6057 -2.4835 -1.3493
  272MOL0     H37477   9.733   2.042  10.748 -1.2921  1.5345  0.8730
  272MOL0     H37478   9.902   2.079  10.790 -0.5054  1.5377 -1.7171
  272MOL0     H37479   9.652   2.102  10.974 -0.5897 -1.1421 -1.7188
  272MOL0     H37480   9.826   2.150  11.011 -0.0627 -4.4385  1.0810
  272MOL0     H37481   9.648   2.249  10.804 -0.3687 -2.3133  1.5750
  272MOL0     H37482   9.809   2.311  10.829  0.6121 -2.1357 -0.9779
  272MOL0     H37483   9.559   2.346  11.023  0.5396  1.5689  3.2879
  272MOL0     H37484   9.722   2.379  11.079  1.3957 -0.2877 -0.0068
  272MOL0     H37485   9.824   2.605  11.078  5.2125  2.2833 -3.7302
  272MOL0     H37486   9.930   2.823  10.871  0.1081  1.3033 -2.9283
  272MOL0     H37487   9.859   2.835  11.036 -2.1472 -0.5057  1.6600
  272MOL0     H37488   9.844   3.050  10.859  1.6056 -2.1836  0.8377
  272MOL0     H37489   9.738   2.944  10.764 -4.1042  1.9684  0.9665
  272MOL0     H37490   9.586   2.919  10.974 -0.7676  1.4276  5.7086
  272MOL0     H37491   9.663   3.047  11.049 -2.8072  0.6757 -0.3428
  272MOL0     H37492   9.548   3.082  10.780 -3.2049  2.1609  0.4366
  272MOL0     H37493   9.471   3.120  10.926 -0.1893 -1.6134 -0.2823
  272MOL0     H37494   9.391   3.298  10.993  3.1504 -3.2972 -0.6600
  272MOL0     H37495   9.304   3.448  11.292  0.0441 -0.0373 -0.1209
  272MOL0     H37496   9.240   3.368  11.154 -0.5678 -1.4939  0.6095
  272MOL0     H37497   9.260   3.545  11.152  1.0256  0.3160  0.9074
  272MOL0     H37498   9.709   4.004  11.358  4.2180 -3.0196 -0.1792
  272MOL0     H37499   9.681   4.116  11.583  2.9701 -0.9087 -3.0457
  272MOL0     H37500   9.487   3.845  11.889  1.4471 -0.8368 -2.8777
  272MOL0     H37501   9.631   3.882  11.979  0.5443 -0.2440 -0.8319
  272MOL0     H37502   9.533   4.133  11.990 -0.7860 -0.2712  1.8465
  272MOL0     H37503   9.379   4.066  11.935  1.3676 -3.4911 -3.7972
  272MOL0     H37504   9.551   4.039  12.193  0.2393  0.3104  0.6025
  272MOL0     H37505   9.444   3.907  12.158  0.4519  0.2976  2.7151
  272MOL0     H37506   9.250   4.065  12.168  0.6245 -1.4023  2.1265
  272MOL0     H37507   9.358   4.202  12.176 -0.7676  0.2412 -1.0389
  272MOL0     H37508   9.343   3.954  12.364  1.1858 -0.0607  1.8111
  272MOL0     H37509   9.446   4.090  12.392  0.3738 -5.6735  1.9691
  272MOL0     H37510   9.145   4.136  12.386  0.3470  0.2511 -0.5138
  272MOL0     H37511   9.266   4.248  12.447 -0.6269  1.5761 -0.9138
  272MOL0     H37512   9.145   4.147  12.639  0.1026  0.9050 -1.6687
  272MOL0     H37513   9.296   4.057  12.638  2.0412 -0.6319 -2.8469
  272MOL0     H37514   9.134   3.889  12.473  0.2035 -0.7054  0.6805
  272MOL0     H37515   9.025   3.986  12.567 -0.7356 -2.9153 -0.1394
  272MOL0     H37516   9.569   3.729  11.734  2.3763 -0.7409 -0.9895
  272MOL0     H37517   9.565   3.635  11.531 -0.2062 -0.0327  0.0942
  272MOL0     H37518   9.760   3.594  11.142  1.3441 -0.5583  0.9224
  272MOL0     H37519   9.800   3.403  10.984 -0.8582 -0.4568 -3.2691
  272MOL0     H37520   9.723   1.383  10.760  3.6047 -1.7833 -1.5666
  272MOL0     H37521   9.582   1.214  10.675 -3.2914  1.2814  0.1698
  272MOL0     H37522   9.679   0.854  10.197 -0.0373 -3.6371  1.8941
  272MOL0     H37523   9.579   0.657  10.143  2.6121  1.4479 -1.3015
  272MOL0     H37524   9.403   0.473  10.049  1.5392 -4.4923  0.2977
  272MOL0     H37525   9.443   0.446  10.220 -0.8940 -1.5791  0.1896
  272MOL0     H37526   9.300   0.277  10.184  1.6574  1.1622 -0.8307
  272MOL0     H37527   9.179   0.372  10.088 -1.1056  0.1700  1.0443
  272MOL0     H37528   9.249   0.421  10.379 -1.3943  1.6904  0.3202
  272MOL0     H37529   9.132   0.510  10.294  0.0410 -0.6304 -0.4569
  272MOL0     H37530   8.984   0.306  10.260 -0.0145 -2.8168  1.1836
  272MOL0     H37531   9.019   0.350  10.420  2.6375  0.2473  0.0326
  272MOL0     H37532   9.158  -0.055  10.359  1.6092 -0.3939  0.2905
  272MOL0     H37533   9.220   0.775  10.337  0.6264 -0.2483  2.4258
  272MOL0     H37534   9.203   0.964  10.475  0.6125 -2.4908 -0.2897
  272MOL0     H37535   9.342   1.042  10.535 -1.7193  0.3303 -0.5915
  272MOL0     H37536   9.263   1.112  10.395 -2.7888  0.2332  1.0348
  273MOL0     O37537   4.092   9.536  11.105 -0.3552 -0.1284 -0.6874
  273MOL0     C37538   4.182   9.569  11.176 -0.2500  0.1317 -0.6306
  273MOL0     O37539   4.212   9.516  11.299  0.5600 -0.1248 -0.0666
  273MOL0     C37540   4.135   9.411  11.346  0.2984 -0.0306 -0.0054
  273MOL0     C37541   4.108   9.295  11.272 -1.0892  0.0274  0.6910
  273MOL0     C37542   4.029   9.187  11.320  0.0126  0.9326  0.0603
  273MOL0     C37543   3.977   9.202  11.449  0.2744  0.1919  1.0316
  273MOL0     O37544   3.897   9.107  11.511  0.3812 -0.0215  0.2897
  273MOL0     C37545   3.752   9.124  11.496  1.8030 -0.1345 -0.2935
  273MOL0     C37546   3.697   9.083  11.359  0.8398 -0.8442  0.7662
  273MOL0     C37547   3.728   8.929  11.333  1.1063 -0.6602  0.4769
  273MOL0     C37548   3.698   8.885  11.193  0.9795  0.2226 -0.1070
  273MOL0     C37549   3.805   8.917  11.095 -0.4366 -0.4171 -0.0682
  273MOL0     C37550   3.771   8.872  10.959 -0.6233  0.2173  0.1112
  273MOL0     C37551   3.781   8.719  10.939 -0.2629 -1.1469 -0.4782
  273MOL0     C37552   3.692   8.664  10.825 -0.7780  0.1305 -0.1499
  273MOL0     N37553   3.705   8.736  10.699 -1.0248 -0.3481 -0.6767
  273MOL0     C37554   3.748   8.674  10.587  0.9597  0.0829 -0.5107
  273MOL0     C37555   3.753   8.776  10.496 -0.3194 -0.1330  0.1811
  273MOL0     C37556   3.788   8.775  10.348  1.1812  0.2421  0.2751
  273MOL0     C37557   3.659   8.769  10.262  0.0609 -0.2711  0.6862
  273MOL0     C37558   3.606   8.633  10.239  0.1716 -0.1137  0.0764
  273MOL0     C37559   3.519   8.628  10.106  0.0697 -0.2628  0.5655
  273MOL0     O37560   3.497   8.485  10.086  1.0129 -0.0392 -0.1948
  273MOL0     C37561   3.419   8.423   9.986 -1.0090  0.5521 -0.8591
  273MOL0     C37562   3.346   8.493   9.884 -0.4538 -0.4374 -1.0147
  273MOL0     C37563   3.280   8.425   9.789  0.5482 -0.4417  0.2804
  273MOL0     C37564   3.211   8.509   9.688 -0.7051 -1.0660  0.0476
  273MOL0     C37565   3.280   8.285   9.784  0.0923  0.4055  0.4327
  273MOL0     C37566   3.200   8.204   9.688  0.6908  0.8324  0.1867
  273MOL0     O37567   3.228   8.070   9.697  0.6015 -0.4402 -0.6704
  273MOL0     C37568   3.149   7.990   9.609 -0.5570  0.4151 -0.6139
  273MOL0     C37569   3.021   7.947   9.640  0.2758  0.3658 -0.8813
  273MOL0     C37570   2.959   7.844   9.555 -0.4356 -0.3923 -0.2407
  273MOL0     C37571   3.027   7.800   9.445 -0.3464 -0.1786  0.2310
  273MOL0     O37572   2.963   7.716   9.353  0.0893 -0.2034  0.7544
  273MOL0     C37573   2.906   7.768   9.231 -0.0955 -0.8426 -0.9324
  273MOL0     C37574   2.891   7.678   9.117  0.8492  0.2227 -0.2134
  273MOL0     C37575   2.792   7.562   9.148  0.0099  0.1421  0.6525
  273MOL0     C37576   2.743   7.498   9.013 -0.3383  0.4633 -0.0854
  273MOL0     C37577   2.703   7.347   9.030  0.0542  0.8473 -0.7488
  273MOL0     C37578   2.840   7.273   9.049  0.3726  0.0790 -0.7979
  273MOL0     C37579   2.815   7.119   9.059 -0.5796 -0.3128  0.5901
  273MOL0     C37580   2.884   7.049   8.949  0.7737  0.1090 -0.7766
  273MOL0    Cl37581   3.061   7.050   8.949  0.1140 -0.0785  0.2079
  273MOL0     C37582   3.151   7.853   9.410 -0.5124 -0.2283  0.4019
  273MOL0     C37583   3.220   7.942   9.496  0.4881  1.0055 -0.3702
  273MOL0     O37584   3.121   8.257   9.607 -0.7405  0.2069  0.4328
  273MOL0     C37585   3.348   8.222   9.891  0.6585  0.6986  0.1502
  273MOL0     C37586   3.418   8.287   9.991  0.0627 -0.3627  0.6602
  273MOL0     N37587   3.698   8.888  10.549  0.5563  0.4462  0.6329
  273MOL0     N37588   3.683   8.868  10.670  0.1968 -0.1443  0.6239
  273MOL0     C37589   4.017   9.311  11.533  0.1331  1.4170  0.1000
  273MOL0     C37590   4.098   9.410  11.481 -1.2045  0.2518 -0.0476
  273MOL0     C37591   4.266   9.672  11.123  0.1993 -0.3485 -0.0864
  273MOL0     C37592   4.399   9.636  11.089  0.3398 -0.2262  0.1302
  273MOL0     C37593   4.481   9.732  11.035  0.4966 -0.5350  0.8466
  273MOL0     C37594   4.440   9.870  11.010 -0.0425  0.0912  0.3764
  273MOL0     O37595   4.511   9.965  10.940  0.4170 -1.0119  0.9625
  273MOL0     C37596   4.618   9.919  10.864 -0.4101  0.1617  0.2316
  273MOL0     C37597   4.687  10.038  10.796  0.2453  0.5870 -0.0784
  273MOL0     C37598   4.790  10.108  10.899 -0.5985 -0.0119 -0.3703
  273MOL0     C37599   4.942  10.059  10.888  0.5081  0.1827 -0.2785
  273MOL0     C37600   4.959   9.909  10.906 -0.4048 -0.9027  0.0911
  273MOL0     C37601   4.964   9.792  10.926 -0.4534 -0.0375 -0.4186
  273MOL0     C37602   4.308   9.903  11.050 -0.5888  1.0355  0.2081
  273MOL0     C37603   4.223   9.805  11.110  0.5913 -0.7089 -0.4935
  273MOL0     C37604   4.086   9.843  11.164 -0.6490  0.0470 -0.7809
  273MOL0     H37605   4.158   9.288  11.175 -1.8661 -2.5500  0.4201
  273MOL0     H37606   4.008   9.094  11.268 -2.2312  0.5753  1.4686
  273MOL0     H37607   3.712   9.223  11.517  2.0407  0.0323 -0.6141
  273MOL0     H37608   3.711   9.057  11.573 -2.0584  0.0553 -1.9804
  273MOL0     H37609   3.591   9.110  11.359  1.5275  2.2476 -0.0901
  273MOL0     H37610   3.748   9.135  11.277  1.8309 -0.7568  1.4175
  273MOL0     H37611   3.832   8.901  11.350  0.5649 -3.8716 -0.8965
  273MOL0     H37612   3.667   8.885  11.412  1.5191  2.3892  2.6704
  273MOL0     H37613   3.678   8.778  11.204  0.1636  0.5791  2.5675
  273MOL0     H37614   3.606   8.927  11.152  1.2676  0.7589 -0.2112
  273MOL0     H37615   3.902   8.873  11.122 -0.1201  1.3029  1.9366
  273MOL0     H37616   3.813   9.026  11.106  2.1877 -0.7025  2.0472
  273MOL0     H37617   3.668   8.900  10.935 -0.5496 -0.3825 -0.9635
  273MOL0     H37618   3.842   8.922  10.892 -1.9322  0.3577 -1.2281
  273MOL0     H37619   3.761   8.666  11.032  0.4130  0.2450  0.4853
  273MOL0     H37620   3.886   8.687  10.929  0.9577  1.4010  2.6715
  273MOL0     H37621   3.733   8.566  10.800 -0.4699  0.8309 -2.6580
  273MOL0     H37622   3.587   8.654  10.853 -0.3427 -2.2170  0.9096
  273MOL0     H37623   3.788   8.574  10.579  0.8029 -0.0042 -0.2079
  273MOL0     H37624   3.854   8.690  10.328 -1.0913 -1.2278 -1.6498
  273MOL0     H37625   3.835   8.870  10.323  0.8055  1.0801  2.5834
  273MOL0     H37626   3.587   8.839  10.306  0.8255  0.1222  1.3433
  273MOL0     H37627   3.685   8.805  10.162 -0.1321  1.9598  1.3752
  273MOL0     H37628   3.688   8.561  10.230 -1.4770 -2.4316  2.1365
  273MOL0     H37629   3.550   8.594  10.325  1.0571  0.0100  0.7239
  273MOL0     H37630   3.423   8.679  10.110 -0.1616 -0.3616 -2.1639
  273MOL0     H37631   3.570   8.678  10.023  0.2120  2.0793  1.9574
  273MOL0     H37632   3.343   8.601   9.878 -0.9427 -0.5252 -2.9796
  273MOL0     H37633   3.227   8.473   9.586  1.3382 -3.1211  1.0063
  273MOL0     H37634   3.239   8.615   9.686  2.1770 -1.7491 -0.7196
  273MOL0     H37635   3.104   8.505   9.711 -0.7211  2.0994  0.9716
  273MOL0     H37636   2.970   7.994   9.724 -1.2075 -2.3460 -0.1434
  273MOL0     H37637   2.857   7.813   9.573 -0.6080  0.8998  1.1931
  273MOL0     H37638   2.800   7.790   9.248 -0.3788 -4.0493  2.9422
  273MOL0     H37639   2.957   7.860   9.200  1.3496 -1.8637 -1.7172
  273MOL0     H37640   2.852   7.733   9.031 -0.3400 -0.3870 -0.0791
  273MOL0     H37641   2.985   7.643   9.072  0.6719  2.2821 -2.3635
  273MOL0     H37642   2.707   7.597   9.207  0.4227  0.2483  1.1852
  273MOL0     H37643   2.843   7.493   9.214  1.8873 -1.1811 -1.9937
  273MOL0     H37644   2.828   7.497   8.945  0.1912  1.3427  0.5397
  273MOL0     H37645   2.664   7.565   8.978 -0.8080 -0.4319 -0.7829
  273MOL0     H37646   2.644   7.350   9.123  1.2879  2.0652  0.0349
  273MOL0     H37647   2.651   7.307   8.943  4.0223 -2.0038 -2.1261
  273MOL0     H37648   2.888   7.303   9.142 -0.7960 -1.9196  0.5257
  273MOL0     H37649   2.908   7.300   8.968  2.7395  1.2296  1.4396
  273MOL0     H37650   2.708   7.096   9.063 -1.8140  4.5000  1.9300
  273MOL0     H37651   2.852   7.089   9.157  2.4177 -0.0790 -0.3764
  273MOL0     H37652   2.837   7.080   8.856 -2.4509 -1.7112  0.0716
  273MOL0     H37653   2.864   6.941   8.959 -2.3500  0.4006 -2.5218
  273MOL0     H37654   3.194   7.828   9.314 -0.5996  0.5063  0.1597
  273MOL0     H37655   3.319   7.985   9.484  0.0875  2.1158  0.1529
  273MOL0     H37656   3.346   8.117   9.915  0.1432  0.0343 -2.4523
  273MOL0     H37657   3.457   8.229  10.074 -1.1106 -0.5757  1.0846
  273MOL0     H37658   3.989   9.320  11.637  0.7431  0.4671  0.3593
  273MOL0     H37659   4.131   9.499  11.534 -2.4688  0.8248 -0.1878
  273MOL0     H37660   4.443   9.540  11.113 -1.3842 -1.2924 -0.8024
  273MOL0     H37661   4.586   9.718  11.010  0.4502  1.6926 -0.8892
  273MOL0     H37662   4.691   9.869  10.928 -2.3734 -0.3956  2.1784
  273MOL0     H37663   4.592   9.847  10.786  1.7442 -1.3942  0.8741
  273MOL0     H37664   4.613  10.109  10.758 -0.0478 -0.7769 -2.1885
  273MOL0     H37665   4.737  10.004  10.705 -2.1090 -1.6524 -0.6413
  273MOL0     H37666   4.795  10.213  10.868 -3.0070 -0.3796 -2.3300
  273MOL0     H37667   4.746  10.100  10.999  0.3278  0.5762  0.1072
  273MOL0     H37668   5.011  10.094  10.965 -1.0034 -2.1064  2.3145
  273MOL0     H37669   4.977  10.091  10.789  0.6011  1.2004  0.0734
  273MOL0     H37670   4.968   9.685  10.935  0.2443  0.1139  1.4400
  273MOL0     H37671   4.282  10.007  11.037  2.7597  1.6647 -3.5369
  273MOL0     H37672   4.071   9.805  11.265 -0.7585 -2.4304 -1.6407
  273MOL0     H37673   4.089   9.949  11.187  3.3094 -0.5812  2.6099
  273MOL0     H37674   4.013   9.800  11.094 -2.1986 -0.2052  0.9064
  274MOL0     O37675   9.718   3.457   0.762 -0.5648  0.3063 -0.7366
  274MOL0     C37676   9.744   3.571   0.733  0.3940  0.5948 -1.0636
  274MOL0     O37677   9.699   3.636   0.624  0.1804 -0.3267 -1.0250
  274MOL0     C37678   9.592   3.585   0.549 -0.8210 -1.2327  0.4067
  274MOL0     C37679   9.627   3.512   0.432 -1.0416 -0.0595 -0.1100
  274MOL0     C37680   9.533   3.483   0.336 -0.1578 -0.0744 -0.3978
  274MOL0     C37681   9.403   3.517   0.365 -0.3014  0.0760 -0.9425
  274MOL0     O37682   9.311   3.485   0.269 -0.0960 -0.2971 -0.3869
  274MOL0     C37683   9.176   3.485   0.298 -0.6333 -0.3539 -0.9266
  274MOL0     C37684   9.091   3.463   0.177  0.5720  0.1910 -0.3220
  274MOL0     C37685   9.046   3.586   0.112  0.2537  0.2167  0.3802
  274MOL0     C37686   8.961   3.556  -0.003  0.2368  0.4553 -0.2003
  274MOL0     C37687   8.872   3.675  -0.063  0.2287  0.8696 -1.2412
  274MOL0     C37688   8.748   3.623  -0.132  0.3354 -0.2877  0.2239
  274MOL0     C37689   8.617   3.604  -0.045 -0.1063 -0.2732  0.5819
  274MOL0     C37690   8.502   3.525  -0.122 -0.1922 -0.0631 -0.0357
  274MOL0     N37691   8.362   3.543  -0.069 -1.2976 -0.1675  0.8088
  274MOL0     C37692   8.260   3.605  -0.137 -0.2301 -0.1012 -0.1844
  274MOL0     C37693   8.158   3.633  -0.050  0.4340  0.6546  0.8771
  274MOL0     C37694   8.030   3.699  -0.091 -0.0809  0.2878 -0.1390
  274MOL0     C37695   8.044   3.848  -0.095  0.2795 -0.8813 -0.5003
  274MOL0     C37696   8.010   3.914   0.042 -0.1605 -0.3291  0.2099
  274MOL0     C37697   8.009   4.072   0.041  0.0131  0.6220  0.5614
  274MOL0     O37698   7.889   4.107  -0.026 -0.1367  1.2011 -0.3768
  274MOL0     C37699   7.875   4.227  -0.079 -0.5045 -0.6941 -0.3372
  274MOL0     C37700   7.764   4.248  -0.161 -0.2124 -0.0187  0.5101
  274MOL0     C37701   7.741   4.364  -0.230 -0.6426  0.5561 -0.1987
  274MOL0     C37702   7.609   4.364  -0.305 -0.6902  0.0441 -0.0318
  274MOL0     C37703   7.808   4.482  -0.195  0.2568  0.4363  0.0902
  274MOL0     C37704   7.766   4.614  -0.253 -1.2736 -0.3275  0.7100
  274MOL0     O37705   7.712   4.612  -0.378 -0.0689 -0.5351  0.1365
  274MOL0     C37706   7.629   4.715  -0.402 -0.2782 -0.0716 -0.0903
  274MOL0     C37707   7.675   4.836  -0.458 -1.0129 -0.0567 -0.1668
  274MOL0     C37708   7.591   4.952  -0.469 -0.0230  0.6271 -0.2012
  274MOL0     C37709   7.459   4.940  -0.410 -1.1567 -0.2245 -0.1404
  274MOL0     O37710   7.363   5.032  -0.429 -0.3352 -0.0746  0.3097
  274MOL0     C37711   7.403   5.153  -0.503  0.7119 -0.1109  0.7487
  274MOL0     C37712   7.319   5.261  -0.445 -0.1352  0.5168 -0.2294
  274MOL0     C37713   7.232   5.318  -0.548  0.7657  0.4265  0.0763
  274MOL0     C37714   7.203   5.464  -0.511  1.0133 -0.2282  0.2030
  274MOL0     C37715   7.093   5.533  -0.580  0.4720  1.0345  0.2057
  274MOL0     C37716   7.098   5.531  -0.733 -0.4905  0.8879 -0.1006
  274MOL0     C37717   6.983   5.597  -0.800 -0.1267 -0.1710  0.0407
  274MOL0     C37718   7.012   5.601  -0.952  0.0395  0.2618  0.0406
  274MOL0    Cl37719   7.137   5.725  -0.974 -0.2263  0.0131 -0.4955
  274MOL0     C37720   7.418   4.817  -0.359 -0.3941  0.3960 -0.2947
  274MOL0     C37721   7.504   4.718  -0.350  0.1225  0.4298 -1.1471
  274MOL0     O37722   7.799   4.721  -0.188 -0.1425  0.6495 -0.1429
  274MOL0     C37723   7.920   4.460  -0.115 -0.1525 -0.4615 -0.3691
  274MOL0     C37724   7.950   4.338  -0.056 -1.0147  0.2281 -0.2689
  274MOL0     N37725   8.202   3.593   0.070  0.8817  0.7087  0.4816
  274MOL0     N37726   8.316   3.533   0.062  0.6479 -1.1504  0.4584
  274MOL0     C37727   9.368   3.594   0.477  0.3250 -0.0071 -0.4056
  274MOL0     C37728   9.464   3.633   0.567  0.2695  0.8519 -0.2801
  274MOL0     C37729   9.845   3.642   0.816  0.1544 -0.5130  1.1096
  274MOL0     C37730   9.902   3.760   0.762 -0.8859  0.0448 -0.3490
  274MOL0     C37731   9.981   3.853   0.840  0.1476  0.2619 -0.3617
  274MOL0     C37732  10.001   3.819   0.972 -0.8627  0.0942  0.5654
  274MOL0     O37733  10.077   3.909   1.051 -0.4114  0.3810 -0.6267
  274MOL0     C37734  10.070   3.891   1.198  0.3057 -0.9557  0.0306
  274MOL0     C37735  10.157   4.007   1.253  0.5422 -0.4437  0.2313
  274MOL0     C37736  10.154   4.014   1.409  0.3989  0.7441  0.2096
  274MOL0     C37737  10.012   4.061   1.459 -0.2900 -0.3670 -0.4533
  274MOL0     C37738  10.010   4.077   1.609  0.3520  0.3236 -0.0869
  274MOL0     C37739   9.994   4.090   1.723  0.3708 -0.2448 -0.2561
  274MOL0     C37740   9.946   3.700   1.022 -0.3348  0.0539 -0.4795
  274MOL0     C37741   9.868   3.617   0.948 -0.8921  0.6565 -0.0801
  274MOL0     C37742   9.813   3.495   1.016  1.0753 -1.1407 -0.2880
  274MOL0     H37743   9.728   3.474   0.427 -0.5765  1.0901  0.1677
  274MOL0     H37744   9.563   3.438   0.241  0.3419 -2.9123  0.9846
  274MOL0     H37745   9.133   3.573   0.346 -3.3315 -1.5984 -0.9083
  274MOL0     H37746   9.156   3.397   0.360 -2.9014 -0.0247 -1.1113
  274MOL0     H37747   9.156   3.406   0.109  0.0237 -0.6668 -0.1442
  274MOL0     H37748   9.001   3.410   0.207 -2.2511  3.5923 -2.0896
  274MOL0     H37749   8.992   3.655   0.177  0.1067  0.9779 -0.5263
  274MOL0     H37750   9.137   3.640   0.086  1.8711 -1.9888  1.1118
  274MOL0     H37751   9.022   3.519  -0.086  0.5271  0.1391  0.1484
  274MOL0     H37752   8.891   3.480   0.033 -0.4877  0.4683 -1.5290
  274MOL0     H37753   8.930   3.738  -0.131  1.1965  1.9456  0.4899
  274MOL0     H37754   8.844   3.731   0.026  3.4003  1.5949 -0.5591
  274MOL0     H37755   8.724   3.692  -0.213  0.6639 -1.0107 -0.4970
  274MOL0     H37756   8.783   3.528  -0.174  0.3184 -1.0769  1.9087
  274MOL0     H37757   8.570   3.701  -0.023  0.1938  0.0512 -0.1617
  274MOL0     H37758   8.640   3.549   0.047  1.8227  1.5419  1.2758
  274MOL0     H37759   8.496   3.569  -0.222 -1.2754 -0.4547 -0.1507
  274MOL0     H37760   8.534   3.420  -0.122  1.9360  0.5278  1.4700
  274MOL0     H37761   8.247   3.632  -0.241 -0.9733  1.3475  0.2517
  274MOL0     H37762   7.953   3.672  -0.019  1.0462  1.2041  1.4938
  274MOL0     H37763   8.002   3.652  -0.185  3.4811 -3.6312  0.4862
  274MOL0     H37764   8.140   3.880  -0.137 -0.3876  1.4628 -0.3807
  274MOL0     H37765   7.967   3.887  -0.163  1.5362  3.6143  0.3423
  274MOL0     H37766   7.917   3.884   0.091  0.8144  1.2290  3.3013
  274MOL0     H37767   8.094   3.879   0.103 -0.2115 -2.1025 -0.7025
  274MOL0     H37768   8.014   4.116   0.141  1.4775 -2.0726  1.7819
  274MOL0     H37769   8.098   4.092  -0.021 -0.3912  0.6057 -0.0310
  274MOL0     H37770   7.697   4.163  -0.169 -1.8371  1.3054 -0.5500
  274MOL0     H37771   7.555   4.281  -0.258  0.2977  0.1683  1.3785
  274MOL0     H37772   7.629   4.344  -0.411 -3.0411  0.3593 -0.5911
  274MOL0     H37773   7.551   4.456  -0.293 -0.6138  0.6625 -3.3014
  274MOL0     H37774   7.776   4.855  -0.493 -1.5027  3.0162 -0.2408
  274MOL0     H37775   7.628   5.045  -0.511 -2.1374  0.6059 -2.3231
  274MOL0     H37776   7.505   5.189  -0.488  0.0922  2.5885 -0.7778
  274MOL0     H37777   7.386   5.131  -0.609  0.7205  0.8858  0.5326
  274MOL0     H37778   7.269   5.210  -0.362  1.9800 -0.7544  0.3235
  274MOL0     H37779   7.376   5.337  -0.391 -1.2398  1.6766 -0.6267
  274MOL0     H37780   7.136   5.273  -0.576  1.4468  0.2403 -2.1707
  274MOL0     H37781   7.270   5.302  -0.649 -1.2457 -0.3160 -0.6218
  274MOL0     H37782   7.287   5.533  -0.520 -1.2658  2.5843 -1.2766
  274MOL0     H37783   7.172   5.451  -0.407  0.2040  0.4799  0.0607
  274MOL0     H37784   6.996   5.491  -0.551  0.5979 -0.1695 -1.0301
  274MOL0     H37785   7.094   5.637  -0.545  3.3149  0.4071  2.4157
  274MOL0     H37786   7.110   5.427  -0.764 -0.2574  0.7060  0.5642
  274MOL0     H37787   7.191   5.585  -0.752  2.7788 -4.1634 -0.1084
  274MOL0     H37788   6.968   5.701  -0.769  1.0587 -0.7275  2.8409
  274MOL0     H37789   6.891   5.542  -0.778 -0.7665 -0.2003 -2.4444
  274MOL0     H37790   6.923   5.635  -1.006 -0.2713 -1.1000 -0.3457
  274MOL0     H37791   7.032   5.498  -0.983  2.0843  1.1546 -1.9899
  274MOL0     H37792   7.315   4.798  -0.330 -1.1133 -0.8094 -3.3178
  274MOL0     H37793   7.457   4.629  -0.308 -1.4779  1.9668  0.5062
  274MOL0     H37794   7.987   4.539  -0.080 -2.5347  0.6452  2.0967
  274MOL0     H37795   8.038   4.333   0.007 -1.8503  2.8933  1.2397
  274MOL0     H37796   9.269   3.634   0.497  0.5014  0.1648  0.1438
  274MOL0     H37797   9.436   3.682   0.660 -0.7575  0.3934 -0.3363
  274MOL0     H37798   9.890   3.783   0.657  0.1703  2.5852  0.0206
  274MOL0     H37799  10.028   3.943   0.802  1.3886 -0.7512 -1.3568
  274MOL0     H37800   9.972   3.899   1.247 -0.5919 -2.7101 -1.3509
  274MOL0     H37801  10.115   3.798   1.233  0.8881  0.2053  2.6091
  274MOL0     H37802  10.119   4.099   1.209  2.5032  1.7190  2.7402
  274MOL0     H37803  10.264   4.003   1.229  1.0615 -1.6020  2.4036
  274MOL0     H37804  10.183   3.913   1.438 -1.8082 -0.8431 -2.6050
  274MOL0     H37805  10.221   4.094   1.441  0.3512  0.4372  1.1100
  274MOL0     H37806   9.923   4.009   1.423 -0.3395 -1.0826  0.6478
  274MOL0     H37807  10.001   4.164   1.423 -0.5863  0.2247  1.2424
  274MOL0     H37808   9.988   4.095   1.830  2.7460 -0.4421 -0.0536
  274MOL0     H37809   9.968   3.671   1.125 -0.9169  4.1649  0.9999
  274MOL0     H37810   9.837   3.473   1.120  2.5195  2.1520  0.1982
  274MOL0     H37811   9.704   3.500   1.010  1.1183 -1.3180 -1.4288
  274MOL0     H37812   9.856   3.414   0.957  6.7282  0.0602  1.6060
  275MOL0     O37813   7.119   6.417   0.164  0.2289  0.4243 -0.4628
  275MOL0     C37814   7.165   6.499   0.079 -0.0053  0.5355 -0.0359
  275MOL0     O37815   7.088   6.573  -0.005 -0.1633  0.0824 -0.2748
  275MOL0     C37816   6.953   6.586   0.002 -0.4885 -0.6032  0.6574
  275MOL0     C37817   6.902   6.688  -0.088 -0.3189 -0.4282 -0.3778
  275MOL0     C37818   6.774   6.733  -0.085 -0.4250  0.6504  0.4600
  275MOL0     C37819   6.673   6.668  -0.015  0.5112  0.2880  0.0766
  275MOL0     O37820   6.548   6.710  -0.015  0.2586 -0.2865  0.3805
  275MOL0     C37821   6.458   6.596  -0.022 -0.7742 -0.9047  0.0284
  275MOL0     C37822   6.329   6.656  -0.065 -0.4629  0.9351 -0.5135
  275MOL0     C37823   6.212   6.558  -0.101  0.4790  0.6059 -0.7411
  275MOL0     C37824   6.169   6.458   0.009 -0.8715 -1.3182  0.0791
  275MOL0     C37825   6.058   6.358  -0.043  0.8450 -0.3088 -0.3812
  275MOL0     C37826   6.102   6.237  -0.130 -0.7616  0.6534 -0.4848
  275MOL0     C37827   5.982   6.177  -0.207 -0.5540 -0.2571  0.5123
  275MOL0     C37828   5.905   6.078  -0.125  0.8096  0.1193 -0.0551
  275MOL0     N37829   5.776   6.022  -0.185 -0.1318  0.2062  0.6579
  275MOL0     C37830   5.737   5.898  -0.145  0.3339 -0.0970 -0.7739
  275MOL0     C37831   5.609   5.898  -0.194  0.4821  0.5987  0.6485
  275MOL0     C37832   5.511   5.783  -0.190 -0.2475  0.3912 -0.4286
  275MOL0     C37833   5.475   5.736  -0.331  0.3964 -0.9351  0.7065
  275MOL0     C37834   5.434   5.584  -0.332 -0.2268  0.1801 -1.0956
  275MOL0     C37835   5.372   5.532  -0.453  0.9225 -0.0391  0.1322
  275MOL0     O37836   5.465   5.528  -0.562  0.2190 -0.3416 -0.4204
  275MOL0     C37837   5.411   5.482  -0.677  0.0428  0.5625 -0.4389
  275MOL0     C37838   5.517   5.466  -0.772 -0.7869 -0.1139 -0.5961
  275MOL0     C37839   5.486   5.424  -0.907  0.9200  0.7777  0.2205
  275MOL0     C37840   5.603   5.402  -1.010  0.4896  0.7203 -0.0267
  275MOL0     C37841   5.352   5.394  -0.943  0.0599 -0.3287  0.5326
  275MOL0     C37842   5.313   5.362  -1.082 -0.1950  0.4565  1.2193
  275MOL0     O37843   5.271   5.231  -1.104 -0.5483  0.2484 -0.3190
  275MOL0     C37844   5.229   5.146  -1.007 -0.1593 -0.6673 -0.3218
  275MOL0     C37845   5.330   5.061  -0.960 -0.6933 -0.2295 -0.5082
  275MOL0     C37846   5.293   4.976  -0.852 -0.5724 -0.5463  0.7554
  275MOL0     C37847   5.159   4.968  -0.802 -1.0426  0.4860  0.6081
  275MOL0     O37848   5.135   4.877  -0.700  0.4174 -0.7416 -0.3855
  275MOL0     C37849   5.009   4.863  -0.644 -0.1838  0.5166  0.8253
  275MOL0     C37850   5.007   4.749  -0.542 -0.6560 -0.2319 -0.8911
  275MOL0     C37851   5.112   4.777  -0.430  0.0523  0.3158  0.8270
  275MOL0     C37852   5.133   4.662  -0.333 -0.3881  0.4026 -0.5171
  275MOL0     C37853   5.264   4.672  -0.247 -0.2257 -0.4637 -0.4081
  275MOL0     C37854   5.248   4.742  -0.106  0.6508 -0.8904 -0.8090
  275MOL0     C37855   5.387   4.755  -0.037  0.0446 -0.3156 -0.1455
  275MOL0     C37856   5.392   4.866   0.069 -0.4143 -0.4626  0.3092
  275MOL0    Cl37857   5.517   4.828   0.184 -0.2165  0.0694 -0.0581
  275MOL0     C37858   5.065   5.058  -0.856 -0.4706 -0.1043 -0.0217
  275MOL0     C37859   5.103   5.141  -0.959  1.1598  1.0446 -0.4112
  275MOL0     O37860   5.327   5.445  -1.168 -0.1678  0.3770 -0.5529
  275MOL0     C37861   5.247   5.427  -0.853 -0.3124 -0.4607  1.6254
  275MOL0     C37862   5.281   5.468  -0.726 -0.0632 -0.2199 -0.2784
  275MOL0     N37863   5.586   6.011  -0.267  0.2209  0.0329  0.6403
  275MOL0     N37864   5.691   6.090  -0.258 -0.3871  0.0777  0.3865
  275MOL0     C37865   6.717   6.564   0.075 -0.2319 -0.0354 -0.7198
  275MOL0     C37866   6.852   6.521   0.086 -1.0370  0.5333 -0.2206
  275MOL0     C37867   7.310   6.504   0.058 -0.3556  0.5845 -0.4871
  275MOL0     C37868   7.389   6.423   0.141  0.6742  0.2200  0.1662
  275MOL0     C37869   7.521   6.440   0.149  0.0385 -0.1941 -0.0845
  275MOL0     C37870   7.591   6.513   0.055  0.0203  0.7011  0.5376
  275MOL0     O37871   7.715   6.553   0.064  0.3028 -0.5402 -0.4025
  275MOL0     C37872   7.798   6.509   0.180  0.5130  0.6285  0.0134
  275MOL0     C37873   7.941   6.541   0.143  0.2668  0.5526  1.0499
  275MOL0     C37874   7.981   6.687   0.118 -0.0167 -0.0703  0.6325
  275MOL0     C37875   7.981   6.739  -0.032  0.5918 -0.0734 -1.1188
  275MOL0     C37876   8.100   6.708  -0.119  0.5038  0.2072 -0.3898
  275MOL0     C37877   8.198   6.670  -0.187  0.1888 -0.3148  0.0017
  275MOL0     C37878   7.520   6.580  -0.035  1.2654 -0.6119 -0.6979
  275MOL0     C37879   7.375   6.564  -0.049 -0.4389 -1.1561 -0.1769
  275MOL0     C37880   7.309   6.631  -0.160 -0.6585  0.4691  0.2177
  275MOL0     H37881   6.970   6.738  -0.156  1.7931 -2.4470  0.1308
  275MOL0     H37882   6.737   6.818  -0.141 -0.1448  0.4762  0.0022
  275MOL0     H37883   6.446   6.555   0.079  5.5072 -0.1063  1.4886
  275MOL0     H37884   6.500   6.515  -0.081 -1.3687  0.1207 -1.9202
  275MOL0     H37885   6.295   6.708   0.025 -1.0806 -0.3932  0.0623
  275MOL0     H37886   6.343   6.723  -0.151 -1.4981 -0.9923 -2.2901
  275MOL0     H37887   6.131   6.615  -0.146  0.6782 -0.3762 -2.4433
  275MOL0     H37888   6.245   6.485  -0.176  3.4708 -0.8865  1.7825
  275MOL0     H37889   6.248   6.391   0.043  0.5381 -1.0451 -2.4259
  275MOL0     H37890   6.133   6.517   0.093 -2.0685  1.7012 -2.3671
  275MOL0     H37891   5.982   6.416  -0.096 -0.0379  0.5725  1.7197
  275MOL0     H37892   6.006   6.310   0.041  1.6938 -0.6100 -0.0086
  275MOL0     H37893   6.176   6.272  -0.203  1.5246 -0.0774  1.3738
  275MOL0     H37894   6.158   6.165  -0.070 -1.3652 -2.0693 -2.9348
  275MOL0     H37895   6.026   6.119  -0.289  2.7056 -0.0602  1.9464
  275MOL0     H37896   5.928   6.265  -0.244 -0.8531 -0.9558 -0.7845
  275MOL0     H37897   5.979   5.999  -0.108  0.7991  0.6483  3.1729
  275MOL0     H37898   5.875   6.132  -0.035 -1.4263  0.3962 -0.8958
  275MOL0     H37899   5.803   5.837  -0.084 -0.7681  0.4415  1.0116
  275MOL0     H37900   5.422   5.814  -0.134 -1.9018  0.2363 -2.8465
  275MOL0     H37901   5.553   5.691  -0.150 -1.4025  0.4876  1.1084
  275MOL0     H37902   5.401   5.808  -0.367  2.8344  1.5070  0.2836
  275MOL0     H37903   5.558   5.755  -0.399  0.0520  1.1718  0.7864
  275MOL0     H37904   5.535   5.543  -0.324 -0.1254  0.7737  1.8987
  275MOL0     H37905   5.377   5.558  -0.242  3.1965 -1.3663  0.8021
  275MOL0     H37906   5.321   5.435  -0.452  1.2117 -0.2258 -1.3129
  275MOL0     H37907   5.301   5.611  -0.479 -0.2426 -0.0528  2.9022
  275MOL0     H37908   5.621   5.477  -0.741 -1.1516 -1.7557  1.4151
  275MOL0     H37909   5.638   5.500  -1.043 -0.0161  0.0796 -2.7088
  275MOL0     H37910   5.573   5.343  -1.098  0.2608 -0.6582  0.9432
  275MOL0     H37911   5.677   5.348  -0.951  0.0297  1.2146  1.0204
  275MOL0     H37912   5.425   5.069  -1.012  0.0565 -0.5779  0.7733
  275MOL0     H37913   5.363   4.902  -0.817  0.7038  0.1146 -0.2871
  275MOL0     H37914   4.977   4.953  -0.591 -1.4801  0.2778  0.4887
  275MOL0     H37915   4.935   4.853  -0.724  0.6145  2.4233 -0.1975
  275MOL0     H37916   4.905   4.745  -0.500 -1.1372  0.5354 -1.9472
  275MOL0     H37917   5.023   4.652  -0.588 -1.7059 -0.1739 -1.4188
  275MOL0     H37918   5.092   4.867  -0.371  0.6218 -0.3049  2.0264
  275MOL0     H37919   5.202   4.812  -0.481 -0.8270  1.1306 -0.2044
  275MOL0     H37920   5.135   4.566  -0.385  1.3825 -1.4091  2.5932
  275MOL0     H37921   5.045   4.660  -0.267 -0.5327 -1.9424 -0.6929
  275MOL0     H37922   5.309   4.573  -0.237  1.1050 -0.0757 -2.1359
  275MOL0     H37923   5.333   4.723  -0.314  0.4118 -1.3735 -0.4605
  275MOL0     H37924   5.182   4.679  -0.047  0.0989  0.2911 -0.1216
  275MOL0     H37925   5.200   4.840  -0.119  0.0848 -0.6737  2.2359
  275MOL0     H37926   5.459   4.777  -0.116  1.1146  1.9344  1.3539
  275MOL0     H37927   5.406   4.658   0.010 -1.5316  0.6673  2.7473
  275MOL0     H37928   5.298   4.865   0.125 -0.8482 -0.4649 -0.4129
  275MOL0     H37929   5.402   4.967   0.028 -2.2250  0.1134  1.1760
  275MOL0     H37930   4.965   5.056  -0.816 -0.6501 -2.0714 -0.4634
  275MOL0     H37931   5.031   5.209  -1.003  2.1198  1.2125 -1.8064
  275MOL0     H37932   5.141   5.415  -0.873 -1.1365  3.7524  2.5439
  275MOL0     H37933   5.201   5.483  -0.655  1.4096  2.4873  1.0004
  275MOL0     H37934   6.652   6.497   0.129 -0.0784 -0.3720 -0.9443
  275MOL0     H37935   6.882   6.435   0.144  3.0520  0.5146 -2.0036
  275MOL0     H37936   7.341   6.366   0.220 -1.3323 -0.0042 -1.1700
  275MOL0     H37937   7.549   6.392   0.243 -2.3755  0.1856  0.9123
  275MOL0     H37938   7.770   6.559   0.273  0.5204  0.6685 -0.0062
  275MOL0     H37939   7.789   6.400   0.186  1.5103  0.1758 -3.8134
  275MOL0     H37940   7.961   6.478   0.056 -0.5656  1.4535  0.1980
  275MOL0     H37941   8.018   6.512   0.216  0.3895  1.3469  1.2431
  275MOL0     H37942   7.916   6.754   0.175 -1.3615 -0.7996  0.0112
  275MOL0     H37943   8.087   6.693   0.143  0.7314  0.0815 -2.2628
  275MOL0     H37944   7.978   6.848  -0.018  2.8961 -0.3356  2.6559
  275MOL0     H37945   7.883   6.707  -0.069 -1.0208  3.3258 -0.2250
  275MOL0     H37946   8.286   6.657  -0.247 -0.3185 -1.3778 -0.5493
  275MOL0     H37947   7.580   6.634  -0.107  3.3356 -1.1772  0.5257
  275MOL0     H37948   7.252   6.719  -0.127 -1.9304 -0.2912  0.1152
  275MOL0     H37949   7.384   6.655  -0.235  1.3366  1.5459  2.3961
  275MOL0     H37950   7.234   6.568  -0.207 -0.7213  0.8922 -0.2611
  276MOL0     O37951  10.471   9.723   6.968 -0.1499  0.0812 -0.1546
  276MOL0     C37952  10.571   9.774   7.029 -0.3001 -0.7192  0.1246
  276MOL0     O37953  10.586   9.900   7.061  0.5162 -0.4317 -0.2928
  276MOL0     C37954  10.504   9.990   7.007 -0.4730 -0.2630  0.2596
  276MOL0     C37955  10.564  10.096   6.945 -0.4054  0.5074 -0.1939
  276MOL0     C37956  10.491  10.196   6.883 -0.0511 -0.1740  0.9840
  276MOL0     C37957  10.346  10.185   6.886  0.3947 -1.4628  0.2444
  276MOL0     O37958  10.274  10.280   6.818  0.5114 -0.6652  0.2955
  276MOL0     C37959  10.321  10.410   6.854 -0.5674 -1.1465 -0.3582
  276MOL0     C37960  10.351  10.452   7.000  0.2521  0.5969  0.1336
  276MOL0     C37961  10.347  10.599   7.025 -0.4960  0.3954 -0.0537
  276MOL0     C37962  10.402  10.688   6.914 -0.3597 -0.5036 -0.0084
  276MOL0     C37963  10.413  10.836   6.965  0.2022  0.5007  0.4908
  276MOL0     C37964  10.518  10.842   7.077  0.0873  0.8028  0.5287
  276MOL0     C37965  10.592  10.978   7.092 -0.6589 -0.5596  0.1818
  276MOL0     C37966  10.499  11.088   7.155  0.3018  0.4641 -0.4956
  276MOL0     N37967  10.467  11.038   7.294 -0.1103 -0.7183 -0.5230
  276MOL0     C37968  10.542  11.055   7.403 -0.6425 -0.3766  0.2789
  276MOL0     C37969  10.460  11.008   7.501 -1.0722 -0.3692 -0.1023
  276MOL0     C37970  10.487  11.005   7.644  0.7230 -0.2314  1.3174
  276MOL0     C37971  10.370  11.065   7.722 -1.3881 -0.7473 -0.2719
  276MOL0     C37972  10.367  11.006   7.863  0.2779 -1.0372  0.2723
  276MOL0     C37973  10.270  11.072   7.961  0.2409 -0.4991  0.3614
  276MOL0     O37974  10.341  11.187   8.020  0.2405  0.2484  0.2774
  276MOL0     C37975  10.300  11.315   7.991 -0.2790 -0.3148 -0.1908
  276MOL0     C37976  10.355  11.425   8.063  0.0189  0.3385  0.4673
  276MOL0     C37977  10.324  11.556   8.040 -0.4405  1.0010 -0.2112
  276MOL0     C37978  10.403  11.648   8.119 -0.6158 -0.1833 -0.3075
  276MOL0     C37979  10.246  11.589   7.931 -0.7175 -1.0209  0.1580
  276MOL0     C37980  10.198  11.725   7.898  0.3739 -1.6313 -0.5147
  276MOL0     O37981  10.170  11.808   8.001 -0.4014 -0.0646 -0.5564
  276MOL0     C37982  10.103  11.921   7.970  0.2216 -0.1085  0.4990
  276MOL0     C37983  10.166  12.039   7.922 -0.3501 -0.7234 -0.1639
  276MOL0     C37984  10.099  12.145   7.876 -0.2417 -1.2573 -1.2288
  276MOL0     C37985   9.961  12.147   7.882 -0.3313 -0.6878 -0.2036
  276MOL0     O37986   9.874  12.250   7.863 -0.5031 -0.4858 -0.4892
  276MOL0     C37987   9.921  12.385   7.847  0.2424  0.1160 -0.2462
  276MOL0     C37988   9.819  12.498   7.857  0.2805 -0.9288  0.2857
  276MOL0     C37989   9.701  12.474   7.759  0.2955  0.1592 -0.2483
  276MOL0     C37990   9.598  12.582   7.753 -0.2323  0.9406  0.4465
  276MOL0     C37991   9.498  12.557   7.637 -0.4428  0.4046  0.1379
  276MOL0     C37992   9.401  12.675   7.627  1.3487 -0.3181 -0.4348
  276MOL0     C37993   9.326  12.699   7.492 -0.2757  0.1021  0.3067
  276MOL0     C37994   9.202  12.618   7.456  0.8094  0.3839  0.1951
  276MOL0    Cl37995   9.087  12.637   7.590 -0.5401  0.0176  0.0788
  276MOL0     C37996   9.889  12.030   7.926  0.2591 -0.2434  0.3825
  276MOL0     C37997   9.960  11.920   7.979 -0.3638  0.8060  0.2096
  276MOL0     O37998  10.192  11.758   7.778 -0.5430 -0.6189 -0.1209
  276MOL0     C37999  10.195  11.485   7.854 -0.4167  0.4084 -0.0990
  276MOL0     C38000  10.222  11.349   7.885 -0.1133 -0.6127 -0.2573
  276MOL0     N38001  10.355  10.942   7.451 -0.0240  0.2265  0.0879
  276MOL0     N38002  10.356  10.968   7.330  0.0250 -0.5017  0.9396
  276MOL0     C38003  10.284  10.094   6.959  0.2430  0.3577 -0.1920
  276MOL0     C38004  10.365   9.996   7.020  0.9277 -0.3451  0.2355
  276MOL0     C38005  10.705   9.701   7.046 -0.1650  0.8570  0.5940
  276MOL0     C38006  10.824   9.779   7.044 -0.1114  0.0471  0.1425
  276MOL0     C38007  10.945   9.717   7.072  0.2715  0.8181  0.5334
  276MOL0     C38008  10.952   9.579   7.112 -0.3135 -1.1623  0.3675
  276MOL0     O38009  11.078   9.521   7.146  0.1973 -0.1605  1.1750
  276MOL0     C38010  11.103   9.394   7.090 -0.3566  0.4573  1.0448
  276MOL0     C38011  11.149   9.412   6.944  0.3146 -1.4533 -0.0018
  276MOL0     C38012  11.255   9.311   6.913 -0.5987 -0.4044  1.6354
  276MOL0     C38013  11.319   9.345   6.778  1.0422 -0.1291 -0.5005
  276MOL0     C38014  11.401   9.232   6.734 -0.3370 -0.6308 -0.2053
  276MOL0     C38015  11.469   9.133   6.712  0.5510 -0.2248  0.9396
  276MOL0     C38016  10.835   9.514   7.135 -0.0792 -0.1286  0.8049
  276MOL0     C38017  10.713   9.574   7.110 -0.8566 -0.5471 -0.3293
  276MOL0     C38018  10.593   9.499   7.156  0.0078  0.3678  0.5857
  276MOL0     H38019  10.673  10.097   6.943 -0.2700  0.7694  2.8157
  276MOL0     H38020  10.538  10.274   6.823 -1.0422  1.6484  2.4684
  276MOL0     H38021  10.243  10.481   6.823  1.8309  1.0049 -1.8699
  276MOL0     H38022  10.411  10.433   6.796  0.2978  2.9365  2.2290
  276MOL0     H38023  10.273  10.405   7.060 -0.7702  2.9406  0.7417
  276MOL0     H38024  10.443  10.405   7.035 -0.7083 -0.9072  0.7387
  276MOL0     H38025  10.240  10.621   7.031 -1.0193 -0.1025 -4.2649
  276MOL0     H38026  10.402  10.623   7.116 -0.7617  0.0425  0.2030
  276MOL0     H38027  10.503  10.667   6.878 -0.9166 -0.0083 -2.0014
  276MOL0     H38028  10.331  10.686   6.831  2.0347  2.3386 -2.3709
  276MOL0     H38029  10.315  10.872   6.997  0.5881  1.8907  0.1357
  276MOL0     H38030  10.450  10.900   6.885 -0.6950  1.9677  1.2094
  276MOL0     H38031  10.483  10.797   7.170  0.1083 -1.0185 -0.2884
  276MOL0     H38032  10.604  10.784   7.041  1.5658  1.9466  2.0664
  276MOL0     H38033  10.621  11.012   6.992 -1.0998 -0.0810  0.2185
  276MOL0     H38034  10.688  10.969   7.145 -0.7012 -0.3043  0.3025
  276MOL0     H38035  10.542  11.188   7.164  0.8349  0.1421  0.8344
  276MOL0     H38036  10.420  11.095   7.080  0.6466  1.0541 -0.8102
  276MOL0     H38037  10.642  11.096   7.409 -0.9979  0.4028  1.0093
  276MOL0     H38038  10.589  11.039   7.662  1.0009 -0.8975  1.0336
  276MOL0     H38039  10.484  10.897   7.665 -0.9627 -0.4245  0.2984
  276MOL0     H38040  10.388  11.173   7.716 -2.2753 -0.4897  1.2766
  276MOL0     H38041  10.274  11.044   7.674 -2.7695  1.9681  1.0681
  276MOL0     H38042  10.334  10.903   7.854  0.6222 -1.1928  0.7294
  276MOL0     H38043  10.467  11.005   7.907 -0.9404 -1.3085  3.2529
  276MOL0     H38044  10.180  11.094   7.902 -0.0515 -0.2610  0.8990
  276MOL0     H38045  10.244  11.004   8.042 -0.5656  0.2587  0.7433
  276MOL0     H38046  10.424  11.409   8.146 -2.1576  0.3170  2.3719
  276MOL0     H38047  10.498  11.604   8.150  1.2613  2.7856 -1.3895
  276MOL0     H38048  10.353  11.676   8.212 -1.0699  2.2433 -1.2006
  276MOL0     H38049  10.427  11.742   8.068  0.4087 -1.2487 -1.9051
  276MOL0     H38050  10.274  12.034   7.919 -0.3511 -1.7440  0.9256
  276MOL0     H38051  10.156  12.221   7.823 -0.2636  0.1729  0.7095
  276MOL0     H38052   9.991  12.402   7.929 -0.0323 -1.1792  0.2833
  276MOL0     H38053   9.966  12.394   7.748 -1.4006  1.2260 -0.9314
  276MOL0     H38054   9.780  12.509   7.958 -4.2513 -1.8603 -1.1084
  276MOL0     H38055   9.848  12.596   7.817 -2.2266  0.6284  1.9684
  276MOL0     H38056   9.662  12.377   7.790  1.6948 -0.0615  0.9120
  276MOL0     H38057   9.744  12.459   7.660 -2.0604  0.2134 -1.3545
  276MOL0     H38058   9.658  12.674   7.751 -0.8321  1.4371  2.4936
  276MOL0     H38059   9.534  12.601   7.840 -3.3789 -2.4934 -0.8614
  276MOL0     H38060   9.552  12.539   7.543 -1.1509  3.1194 -0.8856
  276MOL0     H38061   9.431  12.472   7.653 -0.9565  1.0297  1.4577
  276MOL0     H38062   9.452  12.764   7.664 -0.2964  0.5341 -0.1257
  276MOL0     H38063   9.327  12.649   7.703  0.8080 -1.7307 -1.3993
  276MOL0     H38064   9.388  12.671   7.407  0.0515  1.6514  0.0045
  276MOL0     H38065   9.300  12.805   7.479  1.2664  0.1737 -3.1157
  276MOL0     H38066   9.222  12.512   7.442 -0.5386 -0.3001  2.7880
  276MOL0     H38067   9.152  12.667   7.373 -0.4904  1.9556  1.8069
  276MOL0     H38068   9.781  12.020   7.935  0.5968 -2.8777  3.1426
  276MOL0     H38069   9.912  11.827   8.008  3.4873 -2.0859 -1.6323
  276MOL0     H38070  10.122  11.496   7.775 -2.1641 -0.7376  1.2580
  276MOL0     H38071  10.178  11.274   7.820 -2.2422  0.8314 -0.5827
  276MOL0     H38072  10.176  10.095   6.950  0.3760  2.0383 -3.3274
  276MOL0     H38073  10.311   9.919   7.074 -0.1708 -0.3090 -0.7626
  276MOL0     H38074  10.819   9.881   7.007  2.2310  0.0152 -0.4330
  276MOL0     H38075  11.030   9.782   7.052  2.2041 -1.3231  1.2469
  276MOL0     H38076  11.185   9.353   7.149 -1.0751  1.9196  3.1838
  276MOL0     H38077  11.013   9.336   7.112  0.3211 -0.5145  1.3028
  276MOL0     H38078  11.184   9.514   6.925 -2.7018 -0.5095 -1.1692
  276MOL0     H38079  11.066   9.390   6.875  0.6811 -3.6152  0.1970
  276MOL0     H38080  11.339   9.304   6.983  0.6970 -3.5133 -0.0471
  276MOL0     H38081  11.199   9.218   6.904 -2.6168  0.8233  0.8662
  276MOL0     H38082  11.379   9.437   6.783 -3.1957  2.8444  1.2049
  276MOL0     H38083  11.236   9.350   6.708  1.1336 -1.0747 -0.6850
  276MOL0     H38084  11.543   9.056   6.703 -1.1830 -1.8167 -0.6241
  276MOL0     H38085  10.818   9.418   7.183  0.1317 -0.0743  0.9864
  276MOL0     H38086  10.616   9.392   7.161  0.2295  0.3939  0.1931
  276MOL0     H38087  10.570   9.542   7.254 -0.4332  1.2525  0.0987
  276MOL0     H38088  10.520   9.508   7.075  0.8711  1.2238 -0.1245
  277MOL0     O38089   8.734   4.990  10.615 -0.0353  0.0527 -0.0101
  277MOL0     C38090   8.633   4.929  10.665 -0.2782 -0.5261  0.2094
  277MOL0     O38091   8.504   4.915  10.626 -0.3215 -0.4185 -1.4247
  277MOL0     C38092   8.473   4.921  10.491 -0.1697 -0.5726 -0.0003
  277MOL0     C38093   8.342   4.957  10.456 -0.3246  0.1852 -0.3053
  277MOL0     C38094   8.301   4.973  10.323 -0.3791  0.1175  0.4189
  277MOL0     C38095   8.398   4.949  10.222 -0.1991  0.8025  0.5418
  277MOL0     O38096   8.374   4.970  10.090  0.5900  0.3298  0.6557
  277MOL0     C38097   8.397   4.870   9.991  0.1006  0.6377 -0.5969
  277MOL0     C38098   8.331   4.732  10.023  0.3725 -0.1257 -0.4589
  277MOL0     C38099   8.174   4.738  10.009 -0.5191  0.1068  0.0505
  277MOL0     C38100   8.117   4.601  10.001 -0.0900  0.2326  0.3794
  277MOL0     C38101   7.982   4.597   9.931  0.5323 -0.7689  1.4039
  277MOL0     C38102   7.934   4.458   9.911  0.0576 -1.0091  0.3561
  277MOL0     C38103   7.803   4.457   9.834 -0.2111  0.1699  1.0030
  277MOL0     C38104   7.832   4.470   9.681 -0.3211  0.2339 -1.0608
  277MOL0     N38105   7.867   4.601   9.624  0.5818  0.4231 -0.0896
  277MOL0     C38106   7.779   4.706   9.610 -0.1633 -0.8827 -0.8512
  277MOL0     C38107   7.835   4.804   9.531  0.5925 -0.5455 -0.1428
  277MOL0     C38108   7.745   4.917   9.472 -0.1730 -0.6022  0.0342
  277MOL0     C38109   7.817   5.029   9.417  0.1100 -0.3690 -0.4577
  277MOL0     C38110   7.909   5.100   9.510 -0.5078 -0.2271 -0.6092
  277MOL0     C38111   7.843   5.169   9.627  0.4092 -0.4549 -0.4239
  277MOL0     O38112   7.914   5.291   9.661  0.3346 -0.1190 -0.1396
  277MOL0     C38113   7.857   5.380   9.758 -0.7728  0.5252  0.9737
  277MOL0     C38114   7.934   5.479   9.815 -0.2950  1.1992  0.2281
  277MOL0     C38115   7.900   5.547   9.928  0.4887  1.1459  0.0499
  277MOL0     C38116   8.000   5.641   9.998  0.2498 -0.3559 -0.2551
  277MOL0     C38117   7.762   5.529   9.970 -0.7110 -0.0069  0.3210
  277MOL0     C38118   7.695   5.596  10.087  0.3204 -0.1307  0.1472
  277MOL0     O38119   7.584   5.536  10.135 -0.3652 -0.9048  0.1078
  277MOL0     C38120   7.493   5.631  10.182  0.0188  0.0483 -0.5156
  277MOL0     C38121   7.385   5.678  10.097 -0.1473  0.2675  0.5594
  277MOL0     C38122   7.300   5.784  10.136 -0.3312  0.0670  0.3515
  277MOL0     C38123   7.293   5.816  10.271 -0.1630  0.3325  0.4636
  277MOL0     O38124   7.181   5.883  10.316  0.1895 -0.5922 -0.2519
  277MOL0     C38125   7.222   6.012  10.367  0.9027  0.1118 -1.1854
  277MOL0     C38126   7.301   6.099  10.267  0.3899  0.2624  0.4090
  277MOL0     C38127   7.231   6.138  10.133 -0.3592  0.3002  0.1324
  277MOL0     C38128   7.338   6.203  10.036  0.3803 -0.3691  0.8272
  277MOL0     C38129   7.383   6.343  10.079 -0.0373 -0.3813 -0.1641
  277MOL0     C38130   7.502   6.402   9.997 -0.4920  0.2758 -1.0889
  277MOL0     C38131   7.475   6.416   9.849  0.1394 -0.1330  0.9300
  277MOL0     C38132   7.396   6.550   9.806 -0.6722  0.1956 -1.1264
  277MOL0    Cl38133   7.487   6.700   9.819 -0.2876 -0.2382 -0.0251
  277MOL0     C38134   7.400   5.766  10.355  1.3235 -0.2304 -0.2633
  277MOL0     C38135   7.497   5.676  10.314 -0.2507  0.0213  0.1916
  277MOL0     O38136   7.747   5.704  10.132 -0.7979  0.1560  0.1077
  277MOL0     C38137   7.674   5.444   9.900  0.7907 -0.9400  0.5755
  277MOL0     C38138   7.721   5.366   9.800 -0.9097 -0.1452  0.3205
  277MOL0     N38139   7.957   4.758   9.497  0.3512  0.5144 -0.0411
  277MOL0     N38140   7.973   4.639   9.544 -0.3314  0.1466  0.3638
  277MOL0     C38141   8.512   4.881  10.256 -0.3823 -0.2572 -0.4103
  277MOL0     C38142   8.557   4.876  10.395  0.2597  0.3344 -0.3450
  277MOL0     C38143   8.666   4.883  10.803 -0.0261  1.1099  0.3655
  277MOL0     C38144   8.556   4.893  10.893  0.6637  1.2672 -0.2381
  277MOL0     C38145   8.575   4.852  11.025 -0.2488 -0.2088 -0.4495
  277MOL0     C38146   8.700   4.822  11.080 -0.7850 -0.1807  0.4126
  277MOL0     O38147   8.733   4.797  11.212 -0.2865 -0.0316 -0.2997
  277MOL0     C38148   8.673   4.668  11.245  0.0775 -0.0396 -0.1804
  277MOL0     C38149   8.758   4.558  11.194  0.7958 -0.9169  0.0075
  277MOL0     C38150   8.667   4.430  11.216 -0.3872 -0.8445  0.6063
  277MOL0     C38151   8.746   4.304  11.175  0.3058 -0.1536 -0.6174
  277MOL0     C38152   8.871   4.267  11.249  0.2427 -0.4820  1.0295
  277MOL0     C38153   8.976   4.256  11.302 -0.1852  0.4633 -0.2141
  277MOL0     C38154   8.805   4.809  10.985  0.1062  0.3320 -0.1781
  277MOL0     C38155   8.793   4.832  10.849  0.7265 -0.9262  0.7496
  277MOL0     C38156   8.918   4.840  10.767 -0.7731 -0.0696 -0.8415
  277MOL0     H38157   8.271   4.988  10.532  1.5305  0.5563  1.3649
  277MOL0     H38158   8.203   5.013  10.300 -1.7883 -2.4130  1.5502
  277MOL0     H38159   8.505   4.856   9.986 -0.3181 -3.3401 -1.3740
  277MOL0     H38160   8.365   4.902   9.891 -1.2435 -0.0499 -0.4141
  277MOL0     H38161   8.364   4.651   9.958 -0.0375 -2.5685  2.1790
  277MOL0     H38162   8.351   4.702  10.126  1.8623  0.4288 -0.5611
  277MOL0     H38163   8.129   4.788  10.095  2.3847 -0.3276  1.9791
  277MOL0     H38164   8.147   4.793   9.918 -2.4054 -1.6309 -0.5112
  277MOL0     H38165   8.198   4.541   9.958 -0.8077  1.5107 -3.0959
  277MOL0     H38166   8.101   4.569  10.104 -1.2111  1.9383  0.7811
  277MOL0     H38167   7.990   4.657   9.840 -1.7131  1.1614  2.3570
  277MOL0     H38168   7.911   4.653   9.993  4.1424  1.8084  3.6275
  277MOL0     H38169   8.016   4.407   9.860  0.2814  0.9358 -1.3680
  277MOL0     H38170   7.915   4.417  10.011 -0.3479  0.5714  0.9657
  277MOL0     H38171   7.737   4.539   9.866  1.2726  2.3294 -1.0736
  277MOL0     H38172   7.761   4.359   9.857  1.2227 -1.1653 -1.6182
  277MOL0     H38173   7.894   4.384   9.653  2.3064  0.4669  3.1001
  277MOL0     H38174   7.738   4.444   9.632  0.5676 -0.8656 -2.2698
  277MOL0     H38175   7.679   4.717   9.653  1.0683 -2.3272  2.8163
  277MOL0     H38176   7.693   4.965   9.555  3.7487  1.6557  1.4762
  277MOL0     H38177   7.668   4.872   9.409  0.0400  0.6851 -1.1954
  277MOL0     H38178   7.875   5.006   9.327  2.2402 -0.4665  0.8582
  277MOL0     H38179   7.739   5.097   9.381 -0.1930 -1.7902 -2.6660
  277MOL0     H38180   7.982   5.032   9.554  1.5169  2.6411  0.7222
  277MOL0     H38181   7.959   5.180   9.456 -0.2638 -0.3215 -0.5206
  277MOL0     H38182   7.737   5.175   9.602  0.7899  2.1090 -1.6796
  277MOL0     H38183   7.857   5.104   9.714 -1.3003  0.5122  0.6276
  277MOL0     H38184   8.036   5.487   9.779  0.3522 -0.9569  1.4052
  277MOL0     H38185   8.085   5.591  10.046 -0.4700 -1.4734 -0.1111
  277MOL0     H38186   7.963   5.698  10.084  0.6881  0.4531 -0.5903
  277MOL0     H38187   8.028   5.718   9.926 -1.8127  0.0902 -0.6503
  277MOL0     H38188   7.393   5.641   9.995  1.3000 -0.7160  0.9881
  277MOL0     H38189   7.214   5.821  10.082 -0.2579  0.5775  0.5860
  277MOL0     H38190   7.127   6.064  10.379  0.3142 -0.3816 -3.3421
  277MOL0     H38191   7.263   6.009  10.469 -1.2536 -1.7511 -0.2867
  277MOL0     H38192   7.329   6.190  10.321  6.7383 -1.5148  1.0250
  277MOL0     H38193   7.402   6.060  10.248  0.0467 -1.3159  1.5791
  277MOL0     H38194   7.148   6.207  10.147 -1.3282 -0.9150  0.5894
  277MOL0     H38195   7.184   6.044  10.103 -0.5279 -0.2440  1.9335
  277MOL0     H38196   7.307   6.215   9.932  2.5585  0.2806  0.2114
  277MOL0     H38197   7.434   6.152  10.030  0.3484 -0.3683  0.2904
  277MOL0     H38198   7.295   6.408  10.077 -0.9498 -1.5142  1.2030
  277MOL0     H38199   7.402   6.348  10.187 -0.5552  0.2009 -0.0891
  277MOL0     H38200   7.592   6.340  10.001 -1.5956 -1.4891 -2.4454
  277MOL0     H38201   7.516   6.499  10.046  3.1032 -1.0017  0.7835
  277MOL0     H38202   7.439   6.323   9.803 -2.0708  1.0395  0.1027
  277MOL0     H38203   7.574   6.439   9.809  0.3115  1.4406  2.1609
  277MOL0     H38204   7.308   6.552   9.872 -0.3176  1.2293 -0.6672
  277MOL0     H38205   7.366   6.553   9.701 -0.5280  0.7236 -1.1548
  277MOL0     H38206   7.398   5.810  10.454  0.5620 -0.2799 -0.2520
  277MOL0     H38207   7.576   5.644  10.381  0.5828 -0.8920 -1.1576
  277MOL0     H38208   7.568   5.441   9.926  0.4721  2.2308  0.1368
  277MOL0     H38209   7.660   5.295   9.745  1.6464 -1.2177 -1.3784
  277MOL0     H38210   8.582   4.853  10.178 -0.1180 -0.1012 -0.2322
  277MOL0     H38211   8.657   4.841  10.421  0.3178  0.4599 -0.3995
  277MOL0     H38212   8.458   4.926  10.862  0.0716 -2.1364 -2.5405
  277MOL0     H38213   8.503   4.865  11.105  2.1236 -0.0524  1.7785
  277MOL0     H38214   8.663   4.653  11.353 -0.2842 -2.7952 -0.5061
  277MOL0     H38215   8.570   4.662  11.211 -1.0369 -0.6618  2.9611
  277MOL0     H38216   8.859   4.555  11.236  0.9036 -2.1715 -0.3029
  277MOL0     H38217   8.785   4.565  11.088  2.8055 -0.3331  0.4992
  277MOL0     H38218   8.640   4.411  11.320 -0.4551 -0.2958  0.6916
  277MOL0     H38219   8.576   4.435  11.155 -0.8041 -0.5249  1.2458
  277MOL0     H38220   8.784   4.311  11.073  1.4106  0.3789 -0.1871
  277MOL0     H38221   8.672   4.223  11.176  1.6838 -1.4523 -0.4504
  277MOL0     H38222   9.073   4.250  11.346 -1.6298 -0.3082  3.1305
  277MOL0     H38223   8.909   4.801  11.017  0.0765  1.4165  0.2312
  277MOL0     H38224   9.002   4.803  10.826 -0.3763  1.6700 -0.2573
  277MOL0     H38225   8.895   4.776  10.681 -1.9922 -0.7261 -0.0630
  277MOL0     H38226   8.942   4.940  10.732  0.9326 -0.2630 -0.3157
  278MOL0     O38227   6.124   0.972   9.153 -0.5268 -0.2852 -0.1011
  278MOL0     C38228   6.082   1.082   9.113 -0.1259 -0.0842  0.3277
  278MOL0     O38229   6.153   1.161   9.031 -0.0199  0.6516 -0.8668
  278MOL0     C38230   6.240   1.114   8.933  0.5456  0.3331  0.6386
  278MOL0     C38231   6.337   1.209   8.892 -0.2382 -0.0279 -0.8078
  278MOL0     C38232   6.428   1.191   8.782 -0.3954  0.1282  0.8066
  278MOL0     C38233   6.409   1.077   8.699  0.5455  0.3264 -0.3481
  278MOL0     O38234   6.502   1.064   8.590 -0.4251  0.4159 -0.8092
  278MOL0     C38235   6.487   0.972   8.486  0.4522 -0.3667  0.3997
  278MOL0     C38236   6.578   0.853   8.521 -0.5112 -0.4452  0.3669
  278MOL0     C38237   6.588   0.747   8.414 -0.2054  0.0884 -0.2282
  278MOL0     C38238   6.641   0.809   8.284  0.1961 -0.0086 -0.7528
  278MOL0     C38239   6.699   0.704   8.191  0.2738 -0.1632  0.1348
  278MOL0     C38240   6.769   0.765   8.068 -0.0902  0.0725 -0.7178
  278MOL0     C38241   6.817   0.643   7.981 -0.6253  0.0084 -0.2700
  278MOL0     C38242   6.950   0.591   8.045  0.8372  0.2310  0.1444
  278MOL0     N38243   7.042   0.536   7.940  0.6022  0.4392 -0.5926
  278MOL0     C38244   7.026   0.426   7.866  0.7659  0.0257 -0.2931
  278MOL0     C38245   7.139   0.407   7.798 -0.0958 -0.0470 -0.3891
  278MOL0     C38246   7.156   0.280   7.715  0.2699  0.1884  0.1588
  278MOL0     C38247   7.101   0.300   7.572 -0.2112  0.1384 -0.3399
  278MOL0     C38248   7.205   0.381   7.484 -0.7674 -0.4525  0.7358
  278MOL0     C38249   7.129   0.500   7.407  0.7280 -0.1851  0.3451
  278MOL0     O38250   7.207   0.567   7.306  0.0080 -0.0721 -0.8034
  278MOL0     C38251   7.175   0.696   7.271  0.5051  0.2506  0.2980
  278MOL0     C38252   7.048   0.758   7.277 -0.7021 -0.3094 -0.3829
  278MOL0     C38253   7.022   0.889   7.227  0.9565 -0.5319  0.2563
  278MOL0     C38254   6.883   0.953   7.232 -0.5856  0.5752 -0.0787
  278MOL0     C38255   7.129   0.960   7.162  0.3528  0.0436 -0.6759
  278MOL0     C38256   7.113   1.092   7.098 -0.4868  0.8959 -0.8162
  278MOL0     O38257   7.054   1.186   7.177  0.3821  0.7962  0.4518
  278MOL0     C38258   7.055   1.312   7.128 -0.5688  0.0535 -1.2682
  278MOL0     C38259   7.147   1.404   7.173  0.3189  0.7053 -0.1193
  278MOL0     C38260   7.149   1.537   7.142 -0.1365  0.0620 -0.3765
  278MOL0     C38261   7.061   1.583   7.048  0.0217 -0.1634 -0.2536
  278MOL0     O38262   7.039   1.709   7.004  0.6251 -0.2840  0.5083
  278MOL0     C38263   7.112   1.818   7.056 -0.0875  0.0480  0.1319
  278MOL0     C38264   7.058   1.896   7.175  0.5145 -0.6513  0.4306
  278MOL0     C38265   7.002   1.820   7.287  0.5782  0.3644 -0.2960
  278MOL0     C38266   6.936   1.921   7.388  0.3104 -0.5835  0.3667
  278MOL0     C38267   6.811   1.996   7.342 -0.5706 -0.0317  1.0073
  278MOL0     C38268   6.773   2.111   7.433 -0.4358 -0.0737  0.4343
  278MOL0     C38269   6.631   2.084   7.495  0.0904  0.3723 -0.0166
  278MOL0     C38270   6.577   2.170   7.609 -0.4077  0.2978 -0.7506
  278MOL0    Cl38271   6.581   2.345   7.579 -0.1979 -0.2497 -0.3874
  278MOL0     C38272   6.960   1.497   7.006  0.6334  0.5487  0.4246
  278MOL0     C38273   6.959   1.362   7.039 -0.4460  0.0330 -0.6473
  278MOL0     O38274   7.167   1.106   6.983  0.6448 -0.0927  0.1207
  278MOL0     C38275   7.259   0.905   7.164  0.5069 -0.6938  0.4665
  278MOL0     C38276   7.275   0.784   7.220 -0.3126 -0.4314 -0.3067
  278MOL0     N38277   7.224   0.514   7.820 -0.2505  0.0535  0.0548
  278MOL0     N38278   7.167   0.582   7.912  0.6634 -0.8951  0.1846
  278MOL0     C38279   6.314   0.985   8.734 -0.7699 -0.0078  0.6213
  278MOL0     C38280   6.225   0.993   8.850 -0.4121 -0.0510  0.6796
  278MOL0     C38281   5.951   1.135   9.155 -0.8231  0.1130  0.3990
  278MOL0     C38282   5.950   1.265   9.196  0.6181 -0.7981 -0.1030
  278MOL0     C38283   5.836   1.326   9.240  0.4307 -0.4858  0.5340
  278MOL0     C38284   5.714   1.264   9.239  0.6359  0.4340  0.3105
  278MOL0     O38285   5.595   1.321   9.261 -0.2992 -0.3460  0.1206
  278MOL0     C38286   5.591   1.445   9.332 -0.1642  0.1221  0.7643
  278MOL0     C38287   5.632   1.442   9.478  0.5940 -0.0584 -0.4858
  278MOL0     C38288   5.554   1.341   9.562  0.3252  0.2748 -0.6104
  278MOL0     C38289   5.577   1.368   9.709 -0.8331  0.2616 -0.6305
  278MOL0     C38290   5.524   1.256   9.783  0.1032  0.4984  0.2136
  278MOL0     C38291   5.473   1.162   9.841  0.2507  0.0167  0.3244
  278MOL0     C38292   5.713   1.130   9.191 -0.4578 -0.0202  0.1893
  278MOL0     C38293   5.834   1.062   9.155  0.6735 -0.6166  0.1898
  278MOL0     C38294   5.838   0.927   9.101  0.3623  0.2607 -0.1404
  278MOL0     H38295   6.339   1.308   8.938 -0.8849 -0.1917 -0.4130
  278MOL0     H38296   6.492   1.274   8.755 -1.0703 -0.0015 -1.4192
  278MOL0     H38297   6.513   1.006   8.385 -0.7199  0.1784  0.2618
  278MOL0     H38298   6.382   0.949   8.468  1.1010 -3.6164  0.1165
  278MOL0     H38299   6.677   0.898   8.534 -2.0675  3.6610 -0.3230
  278MOL0     H38300   6.553   0.803   8.615 -1.4171 -1.2913 -0.3088
  278MOL0     H38301   6.670   0.683   8.449 -0.3759 -0.3346 -0.5978
  278MOL0     H38302   6.497   0.692   8.389  0.1960 -0.6034 -0.2011
  278MOL0     H38303   6.568   0.869   8.230  0.9322  0.9547 -0.6949
  278MOL0     H38304   6.721   0.876   8.317 -2.5252  2.8426  0.4888
  278MOL0     H38305   6.626   0.626   8.166 -1.8950  1.8069 -0.0844
  278MOL0     H38306   6.774   0.652   8.251 -0.7087 -0.0793  1.5053
  278MOL0     H38307   6.688   0.822   8.020 -0.8840 -1.5348 -1.3602
  278MOL0     H38308   6.842   0.842   8.094  1.4943 -2.1280  1.8572
  278MOL0     H38309   6.819   0.680   7.878 -0.1836 -0.7928 -0.5580
  278MOL0     H38310   6.745   0.561   7.986 -0.4974 -0.0423  1.1533
  278MOL0     H38311   7.010   0.663   8.102  0.7638 -1.5765  2.6234
  278MOL0     H38312   6.923   0.514   8.117  2.8742 -1.1142 -0.4425
  278MOL0     H38313   6.943   0.357   7.877 -2.0146  2.7309 -2.6117
  278MOL0     H38314   7.114   0.200   7.776 -0.4336 -0.2109 -0.8344
  278MOL0     H38315   7.263   0.255   7.713  0.5475  1.1629  1.2199
  278MOL0     H38316   7.093   0.200   7.528 -1.8022  0.0586  0.0740
  278MOL0     H38317   7.001   0.342   7.566  0.1183  1.0750  0.4827
  278MOL0     H38318   7.294   0.423   7.531 -1.1166  1.2627 -0.0506
  278MOL0     H38319   7.250   0.327   7.399 -2.3884  0.3939 -0.7351
  278MOL0     H38320   7.033   0.467   7.367  0.2539 -0.2226  1.4737
  278MOL0     H38321   7.094   0.581   7.473 -3.2974 -0.3508 -1.3337
  278MOL0     H38322   6.958   0.704   7.306 -1.2506  1.2194  0.9272
  278MOL0     H38323   6.866   1.028   7.310  0.8892  1.3532 -0.4712
  278MOL0     H38324   6.803   0.878   7.231 -0.8306  0.8431 -0.7164
  278MOL0     H38325   6.865   0.994   7.133 -0.7969  0.6847  0.0046
  278MOL0     H38326   7.209   1.360   7.250  0.3930  0.2990 -0.4102
  278MOL0     H38327   7.227   1.604   7.176  2.0060 -2.7091  0.6247
  278MOL0     H38328   7.211   1.784   7.086 -1.6250 -3.2811  1.9035
  278MOL0     H38329   7.115   1.888   6.972 -1.3767 -1.1193 -0.9416
  278MOL0     H38330   7.148   1.944   7.215  0.0527  0.6936 -0.1065
  278MOL0     H38331   6.993   1.973   7.136  0.5353  0.1441  1.8842
  278MOL0     H38332   7.080   1.758   7.331  0.3221 -0.6912 -1.2451
  278MOL0     H38333   6.920   1.760   7.244  1.4663  0.0236 -1.5955
  278MOL0     H38334   6.996   2.006   7.422 -1.1656  0.6065  0.1047
  278MOL0     H38335   6.911   1.876   7.485 -6.4548 -0.2756 -0.7692
  278MOL0     H38336   6.827   2.057   7.253 -4.4599  1.5990  1.2548
  278MOL0     H38337   6.739   1.915   7.326  1.0649 -1.4133  0.1972
  278MOL0     H38338   6.775   2.212   7.390  0.5686  0.7673  2.3474
  278MOL0     H38339   6.841   2.111   7.519  2.3432  0.6299 -1.6221
  278MOL0     H38340   6.620   1.976   7.509 -2.5556  0.6101  0.1422
  278MOL0     H38341   6.554   2.096   7.418  0.1000 -0.3666 -0.1476
  278MOL0     H38342   6.632   2.142   7.699  1.1774  2.4997 -0.9559
  278MOL0     H38343   6.472   2.142   7.627 -0.1074 -1.3972 -1.4986
  278MOL0     H38344   6.880   1.532   6.942  0.6198  3.0383  1.6700
  278MOL0     H38345   6.895   1.291   6.987 -0.7634  0.7948 -1.3142
  278MOL0     H38346   7.336   0.965   7.118 -1.9988 -1.1863 -5.1803
  278MOL0     H38347   7.376   0.744   7.221  0.3704  1.0969 -1.9122
  278MOL0     H38348   6.302   0.890   8.682 -3.8381 -2.5747  5.2562
  278MOL0     H38349   6.159   0.912   8.878  0.3196  0.3640  4.0665
  278MOL0     H38350   6.042   1.322   9.205  0.2746 -0.3195  0.4144
  278MOL0     H38351   5.860   1.427   9.272  0.9992 -0.4380 -0.0321
  278MOL0     H38352   5.656   1.518   9.283  0.2536 -0.0709  1.0220
  278MOL0     H38353   5.491   1.488   9.322 -0.7803 -1.0561  1.6431
  278MOL0     H38354   5.618   1.543   9.518 -1.9166 -0.7905  0.6843
  278MOL0     H38355   5.736   1.411   9.495  0.8538  1.9162  2.2451
  278MOL0     H38356   5.449   1.351   9.534  0.2687 -1.1533 -0.9957
  278MOL0     H38357   5.596   1.243   9.537  1.3498  0.7621 -0.8351
  278MOL0     H38358   5.526   1.459   9.742 -0.9882 -0.9964  2.9988
  278MOL0     H38359   5.686   1.370   9.718 -0.3708 -3.9110 -2.7242
  278MOL0     H38360   5.429   1.076   9.887  0.7438  0.0138  0.7970
  278MOL0     H38361   5.619   1.079   9.174 -0.4381  0.1329 -0.4145
  278MOL0     H38362   5.896   0.922   9.008  0.2028 -2.2282 -0.1840
  278MOL0     H38363   5.897   0.864   9.169 -0.9176 -2.1048 -1.0986
  278MOL0     H38364   5.745   0.871   9.085 -1.2581  3.1198 -1.5812
  279MOL0     O38365   5.017  11.192   9.130 -0.1004  0.0606 -0.0049
  279MOL0     C38366   4.968  11.118   9.213  0.9424  0.2409 -0.1195
  279MOL0     O38367   5.040  11.049   9.308 -1.1162 -0.1591  0.2861
  279MOL0     C38368   5.177  11.051   9.305 -0.4452 -0.2723 -0.6581
  279MOL0     C38369   5.253  10.958   9.239  0.1867  0.1898  0.0057
  279MOL0     C38370   5.392  10.962   9.247  0.9425 -0.0669 -0.6782
  279MOL0     C38371   5.452  11.064   9.320  0.4715  0.0608 -0.2003
  279MOL0     O38372   5.586  11.069   9.336  0.2109 -0.1692  0.6273
  279MOL0     C38373   5.645  10.945   9.389  0.6552  0.7578  0.1624
  279MOL0     C38374   5.791  10.946   9.363 -0.7106 -0.2404  1.1219
  279MOL0     C38375   5.821  10.916   9.219  0.3665 -0.8957 -1.0009
  279MOL0     C38376   5.858  10.764   9.184  0.1418  0.6496 -0.4925
  279MOL0     C38377   5.888  10.757   9.033  0.7452 -0.0625 -0.5179
  279MOL0     C38378   5.862  10.619   8.972 -0.2425 -0.6490  0.0508
  279MOL0     C38379   5.928  10.508   9.050  0.9869 -0.3572  0.0424
  279MOL0     C38380   5.953  10.383   8.951  0.6666 -1.2492 -0.1254
  279MOL0     N38381   5.838  10.341   8.878  0.0067 -0.3625  0.3054
  279MOL0     C38382   5.732  10.259   8.935 -0.0699 -0.0819 -0.1562
  279MOL0     C38383   5.646  10.237   8.830 -0.4991  0.1344  0.0474
  279MOL0     C38384   5.531  10.144   8.845 -0.7111 -0.2466 -0.1686
  279MOL0     C38385   5.506  10.067   8.711 -0.1411  0.7918  0.3117
  279MOL0     C38386   5.422   9.944   8.751 -0.7923 -0.4315 -0.7821
  279MOL0     C38387   5.399   9.857   8.633  0.1058 -0.0334  0.2913
  279MOL0     O38388   5.309   9.750   8.676 -0.4811  0.2568  0.4056
  279MOL0     C38389   5.370   9.623   8.683 -0.3921 -0.3940 -0.3193
  279MOL0     C38390   5.398   9.540   8.574  0.2115  0.1563  0.6447
  279MOL0     C38391   5.471   9.414   8.581  0.9810 -0.5151 -0.2813
  279MOL0     C38392   5.493   9.331   8.460 -0.4960 -0.5386 -0.9315
  279MOL0     C38393   5.514   9.373   8.710  0.3171 -0.6339 -0.1058
  279MOL0     C38394   5.586   9.248   8.731  0.0347  1.2494 -0.1888
  279MOL0     O38395   5.547   9.186   8.848  0.5523  0.9952 -0.2446
  279MOL0     C38396   5.633   9.089   8.912  0.2458 -0.0363  0.7004
  279MOL0     C38397   5.776   9.088   8.903 -0.0403  0.2036 -1.3942
  279MOL0     C38398   5.843   8.979   8.962 -1.1113  0.1224  0.6925
  279MOL0     C38399   5.772   8.873   9.022 -0.4659  1.1773 -0.6386
  279MOL0     O38400   5.837   8.765   9.071  0.1980 -0.9649  0.2521
  279MOL0     C38401   5.914   8.783   9.189  0.9881 -0.6968 -0.4347
  279MOL0     C38402   5.985   8.657   9.214  0.0363  0.1799 -0.1085
  279MOL0     C38403   6.115   8.643   9.126  1.9316 -0.1288 -0.6090
  279MOL0     C38404   6.197   8.771   9.113  0.7013  1.2823 -0.5006
  279MOL0     C38405   6.340   8.723   9.074  0.4632  0.0618  0.0660
  279MOL0     C38406   6.431   8.842   9.044 -0.3583 -0.0235 -0.5410
  279MOL0     C38407   6.402   8.921   8.924 -0.2384  0.1878  0.2339
  279MOL0     C38408   6.521   9.001   8.888 -0.6009  0.0414  0.2277
  279MOL0    Cl38409   6.552   9.130   9.004  0.2063  0.2287 -0.3079
  279MOL0     C38410   5.640   8.859   9.007 -0.0910 -0.3796  0.5117
  279MOL0     C38411   5.571   8.973   8.959 -0.7319  0.6676  0.5491
  279MOL0     O38412   5.668   9.204   8.648  0.4173  0.0641  0.3714
  279MOL0     C38413   5.471   9.451   8.817  0.5696  0.2967  0.3074
  279MOL0     C38414   5.409   9.575   8.799 -1.0120  0.5146  0.5170
  279MOL0     N38415   5.690  10.311   8.717 -0.1554  0.7874 -0.7866
  279MOL0     N38416   5.810  10.366   8.740  0.2089  0.1398 -0.5005
  279MOL0     C38417   5.378  11.166   9.376 -0.5115  0.1554  0.9316
  279MOL0     C38418   5.242  11.158   9.373  0.5207 -1.1545 -0.5327
  279MOL0     C38419   4.818  11.079   9.211  0.0667 -0.4710  0.6105
  279MOL0     C38420   4.763  11.020   9.320  0.1679 -0.3419 -1.5481
  279MOL0     C38421   4.634  10.967   9.323  0.2831  0.4176  0.0038
  279MOL0     C38422   4.551  10.982   9.215 -0.0114  0.7417 -0.1000
  279MOL0     O38423   4.430  10.917   9.215 -0.1605  1.1195  0.1094
  279MOL0     C38424   4.308  10.977   9.152 -0.4957  0.4311  0.9699
  279MOL0     C38425   4.224  10.868   9.092  0.3672 -0.2584 -0.7061
  279MOL0     C38426   4.096  10.936   9.041 -0.1964 -1.1492 -0.5738
  279MOL0     C38427   4.015  10.816   9.003  0.2132 -0.3763 -0.2576
  279MOL0     C38428   3.888  10.848   8.935 -0.2575 -0.4175 -0.1778
  279MOL0     C38429   3.788  10.865   8.872 -0.0409 -0.0878  0.7412
  279MOL0     C38430   4.599  11.045   9.103 -0.7585 -0.0102  0.4393
  279MOL0     C38431   4.725  11.111   9.109  0.0622 -0.2465  0.3419
  279MOL0     C38432   4.778  11.181   8.980  0.0882 -0.3872 -0.6368
  279MOL0     H38433   5.198  10.872   9.201 -1.5112  0.5048  1.6307
  279MOL0     H38434   5.442  10.875   9.204  1.3358  0.2878 -0.9420
  279MOL0     H38435   5.607  10.859   9.332  0.2232 -0.4937  2.2301
  279MOL0     H38436   5.616  10.941   9.494 -3.2689 -0.0206 -0.7980
  279MOL0     H38437   5.834  11.043   9.391 -0.6103 -0.6295  2.3906
  279MOL0     H38438   5.849  10.874   9.421  0.4122  0.6441  1.1353
  279MOL0     H38439   5.731  10.957   9.173  0.0377  1.0092  1.1509
  279MOL0     H38440   5.907  10.982   9.202 -0.1586  1.0193  2.6989
  279MOL0     H38441   5.947  10.730   9.236 -0.1641  1.2616  0.4493
  279MOL0     H38442   5.774  10.700   9.212  1.4338  0.2645  2.9341
  279MOL0     H38443   5.994  10.784   9.023  0.3538  1.5722 -0.5735
  279MOL0     H38444   5.839  10.836   8.975 -0.4421 -0.4525 -0.0813
  279MOL0     H38445   5.756  10.593   8.963 -1.2234  2.9040 -0.0141
  279MOL0     H38446   5.911  10.625   8.874 -1.1945 -0.7139 -0.4415
  279MOL0     H38447   5.861  10.493   9.136  2.0252  0.3552  1.0113
  279MOL0     H38448   6.019  10.546   9.097 -0.1199  0.9299  1.2165
  279MOL0     H38449   6.030  10.404   8.877 -0.9117  1.8262 -1.0448
  279MOL0     H38450   5.987  10.304   9.019  1.1738 -0.3679  0.6634
  279MOL0     H38451   5.736  10.233   9.040 -1.1896 -0.4921 -0.2052
  279MOL0     H38452   5.448  10.211   8.868 -2.4399 -2.3825  0.0837
  279MOL0     H38453   5.561  10.069   8.919 -0.4810 -0.1525 -0.1661
  279MOL0     H38454   5.463  10.135   8.637  0.8085  2.4849  1.2405
  279MOL0     H38455   5.599  10.033   8.664 -0.4198  1.0256 -0.4187
  279MOL0     H38456   5.487   9.889   8.820 -0.1205  1.6918  0.3827
  279MOL0     H38457   5.322   9.967   8.789 -0.0040  0.5229  0.7848
  279MOL0     H38458   5.358   9.924   8.557  0.6638 -2.2290 -2.0766
  279MOL0     H38459   5.492   9.818   8.592  0.6165 -1.4875  2.6789
  279MOL0     H38460   5.360   9.556   8.474 -1.3291  0.0943  1.1928
  279MOL0     H38461   5.423   9.373   8.387 -0.9690  2.3298  0.9914
  279MOL0     H38462   5.471   9.226   8.481  1.1305 -0.7440 -0.0843
  279MOL0     H38463   5.598   9.330   8.429 -0.2497 -3.3153 -0.2221
  279MOL0     H38464   5.824   9.167   8.845 -0.4466  1.2701 -0.3226
  279MOL0     H38465   5.951   8.977   8.953 -0.9243 -0.8167  2.6324
  279MOL0     H38466   5.977   8.872   9.184  0.3902 -0.2438 -0.1200
  279MOL0     H38467   5.832   8.789   9.262 -0.2909 -0.2628 -1.8573
  279MOL0     H38468   6.007   8.635   9.319 -2.4525 -1.1730  0.2152
  279MOL0     H38469   5.918   8.579   9.177 -0.4039  0.8028 -0.6553
  279MOL0     H38470   6.090   8.615   9.024  2.1337  0.3980 -0.8036
  279MOL0     H38471   6.171   8.557   9.165 -0.7926 -2.0158 -0.5971
  279MOL0     H38472   6.200   8.808   9.216  0.9260 -1.5350  0.5675
  279MOL0     H38473   6.152   8.840   9.041 -0.4740 -1.3080 -2.4057
  279MOL0     H38474   6.379   8.667   9.160 -0.2214  0.8433  0.8992
  279MOL0     H38475   6.325   8.663   8.983  0.1301  2.3645 -1.4850
  279MOL0     H38476   6.528   8.792   9.036  0.0565  0.8080 -0.7295
  279MOL0     H38477   6.419   8.907   9.131 -2.9482  1.1373 -1.6527
  279MOL0     H38478   6.316   8.989   8.929 -1.4537 -0.9723 -2.4206
  279MOL0     H38479   6.386   8.855   8.838 -1.3188 -0.9487  1.2678
  279MOL0     H38480   6.501   9.051   8.793 -1.0194 -0.9126 -0.1927
  279MOL0     H38481   6.612   8.940   8.889 -1.0391 -0.7948 -2.6004
  279MOL0     H38482   5.590   8.767   9.035 -4.3883  1.5261  0.0392
  279MOL0     H38483   5.463   8.972   8.949 -0.6413  0.1845 -0.5415
  279MOL0     H38484   5.490   9.429   8.921  0.3566 -1.7441 -0.0375
  279MOL0     H38485   5.398   9.622   8.896  1.5578  1.7009  0.3102
  279MOL0     H38486   5.421  11.254   9.422  0.1513 -0.0540  0.7298
  279MOL0     H38487   5.174  11.230   9.419  1.0963  0.3217 -1.8868
  279MOL0     H38488   4.826  11.003   9.407  3.3611 -0.9207 -3.7828
  279MOL0     H38489   4.604  10.910   9.411 -3.4496  0.5336 -1.0567
  279MOL0     H38490   4.256  11.038   9.226 -0.4666  0.1538  1.2213
  279MOL0     H38491   4.337  11.041   9.069 -0.3334 -0.1004  0.6078
  279MOL0     H38492   4.200  10.795   9.170  1.2780  1.2742  1.0819
  279MOL0     H38493   4.269  10.826   9.002  1.4687  0.6917 -0.6179
  279MOL0     H38494   4.040  10.990   9.119  1.1384 -0.8303  0.1911
  279MOL0     H38495   4.104  11.005   8.957 -3.1546 -1.1274 -0.9347
  279MOL0     H38496   3.992  10.755   9.090  0.0303 -1.6452 -1.1639
  279MOL0     H38497   4.078  10.749   8.943  2.0768  2.0590 -1.2430
  279MOL0     H38498   3.704  10.875   8.806  1.0035 -0.7653 -0.7367
  279MOL0     H38499   4.550  11.034   9.007  1.6409 -0.8087 -0.7864
  279MOL0     H38500   4.696  11.175   8.908 -0.5567 -0.3983  0.0782
  279MOL0     H38501   4.797  11.287   8.998  0.2972  0.2606 -3.9920
  279MOL0     H38502   4.863  11.135   8.929 -0.4378 -0.1963 -1.7065
  280MOL0     O38503  11.011   4.283   5.720  0.0619 -0.1850  0.0505
  280MOL0     C38504  10.906   4.340   5.721 -0.4187 -0.5636  0.8548
  280MOL0     O38505  10.867   4.430   5.806  0.7206  0.4502 -0.1385
  280MOL0     C38506  10.964   4.478   5.887  0.2877  0.3848  0.1346
  280MOL0     C38507  10.956   4.461   6.024  1.2078 -0.2265  0.5559
  280MOL0     C38508  11.050   4.514   6.107 -0.9967  0.3968  0.3226
  280MOL0     C38509  11.159   4.593   6.061  1.0663  0.6555  1.3160
  280MOL0     O38510  11.263   4.624   6.144  0.2513 -0.3917  0.7056
  280MOL0     C38511  11.254   4.602   6.290  0.7882 -0.2984  0.2700
  280MOL0     C38512  11.394   4.637   6.353  1.2057 -0.3578 -0.9154
  280MOL0     C38513  11.387   4.637   6.504 -0.6879  0.2824  0.9238
  280MOL0     C38514  11.537   4.665   6.550  0.1425  0.6252  0.0589
  280MOL0     C38515  11.550   4.676   6.702 -0.4812 -0.5988  0.2219
  280MOL0     C38516  11.659   4.777   6.742  1.0166  0.3298 -1.0648
  280MOL0     C38517  11.627   4.828   6.882  0.1148  0.5477  0.5929
  280MOL0     C38518  11.738   4.930   6.919  0.3690 -0.4354 -0.8747
  280MOL0     N38519  11.879   4.910   6.958  0.5971  0.5454 -0.4692
  280MOL0     C38520  11.928   4.861   7.082 -0.3717 -1.0402  0.6307
  280MOL0     C38521  12.063   4.849   7.055  0.2869 -0.2705 -0.3026
  280MOL0     C38522  12.162   4.789   7.154 -0.8900 -0.0357  0.2384
  280MOL0     C38523  12.225   4.898   7.249  0.6396  0.0195 -0.2995
  280MOL0     C38524  12.289   4.816   7.366 -0.1509  0.2740 -0.0662
  280MOL0     C38525  12.415   4.748   7.314  0.2539 -0.9198  0.0144
  280MOL0     O38526  12.488   4.821   7.213 -0.1235  0.0497 -0.1240
  280MOL0     C38527  12.608   4.884   7.230  0.1539  0.3369  0.4896
  280MOL0     C38528  12.647   4.974   7.138  0.0828 -0.8916  0.0357
  280MOL0     C38529  12.770   5.037   7.133  0.6447  0.3264  0.2357
  280MOL0     C38530  12.791   5.132   7.017 -0.0065  0.2350 -0.3948
  280MOL0     C38531  12.868   5.004   7.228 -0.9574  0.3466  0.1196
  280MOL0     C38532  13.013   5.061   7.244  0.3936 -0.5858  0.4761
  280MOL0     O38533  13.092   4.998   7.338  0.9221  0.4525  0.0057
  280MOL0     C38534  13.206   5.064   7.378  0.8644 -0.1646  0.1339
  280MOL0     C38535  13.256   5.195   7.364 -0.0636  0.8036 -0.2478
  280MOL0     C38536  13.376   5.230   7.409 -0.4509 -0.4755 -0.2228
  280MOL0     C38537  13.461   5.143   7.486 -0.5697  0.9136 -0.1646
  280MOL0     O38538  13.578   5.170   7.554 -0.7709 -1.0527  0.4607
  280MOL0     C38539  13.680   5.231   7.463 -0.2854 -0.4493  0.6497
  280MOL0     C38540  13.801   5.233   7.547  0.5177  0.4006 -0.8922
  280MOL0     C38541  13.925   5.279   7.454 -0.3684  0.8576 -0.8918
  280MOL0     C38542  13.918   5.436   7.439 -0.3914  0.0495  0.8193
  280MOL0     C38543  14.037   5.483   7.346  0.6013  0.2520  0.2856
  280MOL0     C38544  14.054   5.638   7.335  0.3635  0.1225 -0.3609
  280MOL0     C38545  13.916   5.709   7.331 -0.2853  0.4486  0.5127
  280MOL0     C38546  13.938   5.839   7.249 -0.1265  0.0710 -0.6762
  280MOL0    Cl38547  14.037   5.963   7.335 -0.3766 -0.1477  0.2068
  280MOL0     C38548  13.407   5.016   7.509 -0.2854 -0.1627  0.5005
  280MOL0     C38549  13.284   4.971   7.457 -0.1167 -0.6026  0.2945
  280MOL0     O38550  13.037   5.165   7.181  0.5053  0.1256 -0.1819
  280MOL0     C38551  12.827   4.918   7.332 -1.0600 -0.4803 -0.2569
  280MOL0     C38552  12.698   4.861   7.330  0.3790 -0.5589  0.5288
  280MOL0     N38553  12.095   4.898   6.927 -0.6136 -0.2664 -0.2845
  280MOL0     N38554  11.984   4.932   6.875 -0.0884  0.5787 -0.0717
  280MOL0     C38555  11.155   4.628   5.925  0.5043  0.5950  0.8942
  280MOL0     C38556  11.060   4.560   5.838  0.3337 -0.6444  1.3371
  280MOL0     C38557  10.796   4.286   5.635  0.0612  0.3365 -0.5995
  280MOL0     C38558  10.670   4.286   5.694 -0.6045  1.6598  1.0858
  280MOL0     C38559  10.555   4.252   5.625  0.2582 -0.0993  0.7159
  280MOL0     C38560  10.583   4.206   5.492  0.5842  0.4651 -0.7566
  280MOL0     O38561  10.479   4.159   5.422 -0.0207  0.2743 -0.4185
  280MOL0     C38562  10.480   4.142   5.273  0.1940 -0.7386 -0.3599
  280MOL0     C38563  10.341   4.181   5.209 -0.2220  0.1047 -0.4848
  280MOL0     C38564  10.280   4.310   5.252 -0.5512  0.1667  0.6184
  280MOL0     C38565  10.129   4.305   5.287  0.6195 -0.0701 -0.3474
  280MOL0     C38566  10.076   4.436   5.300 -0.1466  0.0194  0.4889
  280MOL0     C38567  10.028   4.548   5.288  0.6406 -0.0271 -0.5060
  280MOL0     C38568  10.709   4.198   5.430 -0.2786  0.1555 -0.5384
  280MOL0     C38569  10.825   4.227   5.506 -0.7075  0.3787 -0.0871
  280MOL0     C38570  10.959   4.211   5.429  0.6430 -0.7429 -0.4440
  280MOL0     H38571  10.876   4.409   6.077  2.3968 -0.1829  2.4901
  280MOL0     H38572  11.046   4.481   6.211  0.8431 -0.7560  0.0704
  280MOL0     H38573  11.227   4.500   6.319  2.2747 -0.5084  0.9883
  280MOL0     H38574  11.170   4.659   6.332 -0.2728 -0.1368 -1.8828
  280MOL0     H38575  11.477   4.573   6.323 -0.1586 -2.2507 -0.8667
  280MOL0     H38576  11.412   4.741   6.326  0.0912 -0.1073 -0.7557
  280MOL0     H38577  11.315   4.712   6.537 -0.9999  1.6326 -2.4218
  280MOL0     H38578  11.355   4.540   6.544  0.0840  0.8208  2.9443
  280MOL0     H38579  11.606   4.588   6.514  0.8924 -0.0319  2.6871
  280MOL0     H38580  11.571   4.762   6.512  2.4020 -0.0039  0.3300
  280MOL0     H38581  11.553   4.571   6.731  1.6821 -0.4205  0.8079
  280MOL0     H38582  11.448   4.702   6.731 -0.6764 -0.9411 -0.1363
  280MOL0     H38583  11.758   4.731   6.739  1.1189  0.3535  1.0993
  280MOL0     H38584  11.651   4.874   6.692 -0.1251  0.7401 -0.1389
  280MOL0     H38585  11.632   4.756   6.964  1.7545  3.4442  3.2694
  280MOL0     H38586  11.526   4.869   6.881 -0.5657 -0.9985  2.1228
  280MOL0     H38587  11.729   5.004   6.838 -3.7067  2.2150  1.6315
  280MOL0     H38588  11.693   4.978   7.006 -0.3801 -0.4664 -1.2392
  280MOL0     H38589  11.869   4.824   7.164  0.3658 -0.7576  1.2993
  280MOL0     H38590  12.237   4.726   7.105 -1.7262 -1.4520  0.7259
  280MOL0     H38591  12.107   4.708   7.203 -4.6590  1.8500 -0.5694
  280MOL0     H38592  12.304   4.958   7.204 -0.1714  1.5222  0.2387
  280MOL0     H38593  12.156   4.965   7.300 -0.0397  0.8848 -2.2578
  280MOL0     H38594  12.320   4.878   7.452 -1.4822  0.2787  0.4408
  280MOL0     H38595  12.218   4.746   7.410 -0.2424  2.4068  3.6484
  280MOL0     H38596  12.486   4.732   7.396 -0.2346  1.5500  1.0227
  280MOL0     H38597  12.395   4.645   7.286 -0.9242 -1.1711  1.6614
  280MOL0     H38598  12.578   4.992   7.056  0.1309  1.0739  0.3717
  280MOL0     H38599  12.890   5.137   6.970  0.4607  1.7746  0.6904
  280MOL0     H38600  12.783   5.229   7.066 -0.8067  0.0095 -0.0635
  280MOL0     H38601  12.710   5.129   6.944 -0.1243 -1.5896 -0.2460
  280MOL0     H38602  13.196   5.269   7.312 -2.3849 -1.7937 -1.5391
  280MOL0     H38603  13.394   5.337   7.408 -1.7116 -0.1123  3.2068
  280MOL0     H38604  13.690   5.167   7.375  1.6092 -0.8774  1.1439
  280MOL0     H38605  13.656   5.331   7.428  0.9161 -0.0019  1.0736
  280MOL0     H38606  13.786   5.308   7.625  6.0295  2.0272 -0.9992
  280MOL0     H38607  13.823   5.138   7.595  1.3031  1.3784  0.7729
  280MOL0     H38608  13.918   5.230   7.357 -0.9018  1.4721 -1.1751
  280MOL0     H38609  14.022   5.266   7.503 -0.6073  0.3627 -0.5494
  280MOL0     H38610  13.926   5.483   7.537 -1.6963  1.7618  0.1582
  280MOL0     H38611  13.818   5.457   7.398 -0.0486  2.7623  1.1415
  280MOL0     H38612  14.127   5.435   7.384  0.2066 -0.5620  0.1961
  280MOL0     H38613  14.006   5.450   7.247  4.0949  0.6489 -1.0802
  280MOL0     H38614  14.109   5.664   7.244 -3.0907  2.5199 -1.9623
  280MOL0     H38615  14.109   5.673   7.423 -2.1725  1.4076  0.8051
  280MOL0     H38616  13.885   5.723   7.435  2.0784  1.1345  1.1952
  280MOL0     H38617  13.844   5.647   7.276 -0.3356 -0.1333  1.2079
  280MOL0     H38618  13.843   5.885   7.222 -0.7343 -2.9270 -4.5184
  280MOL0     H38619  13.992   5.802   7.161 -1.9458 -1.7023 -1.1138
  280MOL0     H38620  13.464   4.944   7.567 -1.2885 -0.0572  1.6428
  280MOL0     H38621  13.245   4.870   7.459 -2.9693  0.2036 -3.3256
  280MOL0     H38622  12.888   4.877   7.412 -1.2116  1.2562  0.7907
  280MOL0     H38623  12.679   4.795   7.414  0.2698 -0.8183  0.3028
  280MOL0     H38624  11.234   4.686   5.879 -1.2070 -0.0816 -3.3635
  280MOL0     H38625  11.063   4.572   5.730  0.8607 -0.7037  1.3438
  280MOL0     H38626  10.654   4.321   5.795 -0.5445 -1.2004  2.1812
  280MOL0     H38627  10.454   4.244   5.663 -1.0800 -0.8968 -2.5886
  280MOL0     H38628  10.553   4.200   5.214 -1.0048 -0.4752 -1.6326
  280MOL0     H38629  10.493   4.036   5.253  1.2649 -0.3249 -2.1686
  280MOL0     H38630  10.274   4.105   5.249  0.2769 -0.2838 -0.3696
  280MOL0     H38631  10.340   4.185   5.100 -2.4399  2.4464 -0.4728
  280MOL0     H38632  10.341   4.359   5.328  3.0338 -0.0267 -1.8606
  280MOL0     H38633  10.291   4.382   5.170  1.4260  2.4338  2.7231
  280MOL0     H38634  10.108   4.248   5.378  0.7851  2.1966  1.1823
  280MOL0     H38635  10.068   4.263   5.207 -1.8998  1.0075  0.9032
  280MOL0     H38636   9.995   4.648   5.273  0.8719  0.3139  1.1086
  280MOL0     H38637  10.734   4.166   5.329  0.5886 -4.3934  0.8972
  280MOL0     H38638  11.044   4.261   5.477 -0.1172  0.7433 -0.5721
  280MOL0     H38639  10.968   4.103   5.414 -0.4017 -0.9495  0.3191
  280MOL0     H38640  10.941   4.260   5.333 -1.7851 -1.8898 -0.6415
  281MOL0     O38641   8.477   5.381   3.183  0.3419 -0.8768 -0.6546
  281MOL0     C38642   8.460   5.363   3.065 -0.0953  0.2678 -0.3838
  281MOL0     O38643   8.356   5.289   3.018  0.0276  0.2564  0.3705
  281MOL0     C38644   8.237   5.262   3.090 -0.5382  0.2220  0.0290
  281MOL0     C38645   8.158   5.372   3.103  0.2956 -0.3404  0.1624
  281MOL0     C38646   8.036   5.370   3.176 -0.2106  1.1485 -0.2047
  281MOL0     C38647   7.998   5.248   3.238  0.1407 -0.6293  0.0184
  281MOL0     O38648   7.884   5.246   3.320  0.0932 -1.2304 -0.2632
  281MOL0     C38649   7.807   5.124   3.360 -0.0787  0.0281 -0.2366
  281MOL0     C38650   7.685   5.104   3.258 -0.1782 -0.8640 -0.1677
  281MOL0     C38651   7.747   5.075   3.119  0.4309 -0.0643  0.4044
  281MOL0     C38652   7.637   4.995   3.031 -0.0016 -1.0945 -0.0354
  281MOL0     C38653   7.680   4.995   2.888  0.5880  0.0652  0.5461
  281MOL0     C38654   7.812   4.943   2.867  0.2961 -0.1801  1.4456
  281MOL0     C38655   7.824   4.921   2.713 -0.2508 -0.7065 -0.0912
  281MOL0     C38656   7.964   4.952   2.675  0.1679  0.6861 -0.1231
  281MOL0     N38657   8.024   4.882   2.556  0.1064 -0.5338  0.8621
  281MOL0     C38658   8.011   4.749   2.524  0.3704 -0.1203 -0.6758
  281MOL0     C38659   8.056   4.743   2.401  1.3569  0.2596  0.2514
  281MOL0     C38660   8.062   4.623   2.290 -0.0345 -0.3497 -0.1844
  281MOL0     C38661   8.215   4.585   2.278  0.2316  0.1510  0.3477
  281MOL0     C38662   8.244   4.548   2.134 -0.3322 -0.6306  0.8977
  281MOL0     C38663   8.231   4.658   2.025 -0.0451  0.0217 -0.8311
  281MOL0     O38664   8.103   4.619   1.962  0.2663 -0.1841  0.6998
  281MOL0     C38665   8.037   4.721   1.895  0.8597 -0.5065  0.9655
  281MOL0     C38666   7.987   4.845   1.954 -0.1151 -0.6442  0.2126
  281MOL0     C38667   7.940   4.952   1.874  0.6824  0.1070  0.6450
  281MOL0     C38668   7.887   5.080   1.937 -0.5904 -0.5116 -0.2221
  281MOL0     C38669   7.937   4.940   1.738  0.1751  0.7826 -0.1676
  281MOL0     C38670   7.880   5.034   1.644  0.4337 -0.4733  0.6419
  281MOL0     O38671   7.819   4.979   1.529  0.2186  0.5470 -0.1885
  281MOL0     C38672   7.761   5.073   1.444 -0.1863  0.7345 -0.6342
  281MOL0     C38673   7.662   5.165   1.484 -0.7461 -0.4893  0.1447
  281MOL0     C38674   7.602   5.240   1.387  0.0247  0.2410  0.3094
  281MOL0     C38675   7.654   5.240   1.258 -1.2894  0.0958  0.7091
  281MOL0     O38676   7.596   5.330   1.169 -0.4262  0.5019 -0.2582
  281MOL0     C38677   7.675   5.375   1.057 -0.3133 -0.2384  0.6368
  281MOL0     C38678   7.807   5.439   1.119 -0.9540  0.5407  0.2142
  281MOL0     C38679   7.854   5.533   1.007  0.0006 -0.5445 -0.3665
  281MOL0     C38680   7.953   5.449   0.918  0.2708 -0.2667 -0.2012
  281MOL0     C38681   7.996   5.517   0.794  0.2249 -0.5766 -0.5603
  281MOL0     C38682   8.058   5.648   0.823  0.1365 -0.3583 -0.6005
  281MOL0     C38683   8.082   5.720   0.684 -0.6801  0.1668 -0.0098
  281MOL0     C38684   8.150   5.861   0.695  0.3462  0.2267 -0.7457
  281MOL0    Cl38685   8.166   5.929   0.519 -0.6026  0.0633  0.0758
  281MOL0     C38686   7.750   5.149   1.221  0.4107  0.7735  0.6368
  281MOL0     C38687   7.813   5.071   1.311  1.3433  0.7017 -0.3003
  281MOL0     O38688   7.911   5.157   1.659 -0.1381 -0.3129 -0.2560
  281MOL0     C38689   7.984   4.817   1.685  0.5206  0.3447 -0.7371
  281MOL0     C38690   8.032   4.712   1.756  0.4481 -0.1991  0.1358
  281MOL0     N38691   8.095   4.866   2.355  0.1456 -0.2751  0.0927
  281MOL0     N38692   8.074   4.949   2.452 -0.0430  1.0553  0.3174
  281MOL0     C38693   8.080   5.133   3.225  0.3582 -0.2278 -0.2493
  281MOL0     C38694   8.197   5.134   3.145  0.5613  0.0335 -0.5187
  281MOL0     C38695   8.559   5.415   2.965  0.1472  0.8002 -0.1530
  281MOL0     C38696   8.531   5.383   2.831  0.7911  0.5767  0.1270
  281MOL0     C38697   8.615   5.427   2.726  0.6829  0.8394  0.2578
  281MOL0     C38698   8.725   5.507   2.754  0.1040 -0.4072 -0.1036
  281MOL0     O38699   8.811   5.557   2.668 -0.6238 -0.3573  0.7410
  281MOL0     C38700   8.850   5.477   2.561 -0.3344 -0.5022  0.6380
  281MOL0     C38701   9.000   5.450   2.558  0.1099 -0.4017  0.5031
  281MOL0     C38702   9.086   5.529   2.445 -0.0766 -0.1059 -0.0404
  281MOL0     C38703   9.046   5.483   2.312 -0.1346 -0.4081  0.2935
  281MOL0     C38704   9.075   5.342   2.280 -0.5457  0.6489  0.2743
  281MOL0     C38705   9.094   5.230   2.239 -0.1035 -0.2887  0.5645
  281MOL0     C38706   8.749   5.549   2.883 -0.2124  0.2073  0.8992
  281MOL0     C38707   8.671   5.499   2.994  0.2787  0.4569  0.4696
  281MOL0     C38708   8.704   5.548   3.127  0.4233  0.8559 -0.0163
  281MOL0     H38709   8.194   5.471   3.077  3.5544 -1.6296 -0.6755
  281MOL0     H38710   7.984   5.463   3.192 -1.8006  1.2834 -4.8094
  281MOL0     H38711   7.776   5.140   3.464  2.2925 -0.1842  0.5721
  281MOL0     H38712   7.865   5.032   3.374  0.4460  0.6386  2.2051
  281MOL0     H38713   7.625   5.020   3.293 -2.5024  1.6619  2.4620
  281MOL0     H38714   7.636   5.201   3.251  2.2382  0.3404 -4.3197
  281MOL0     H38715   7.779   5.164   3.065 -1.7739 -0.6408 -2.0156
  281MOL0     H38716   7.836   5.012   3.122 -0.2135 -1.0227 -0.2606
  281MOL0     H38717   7.637   4.889   3.058  0.4823 -1.3058 -0.8196
  281MOL0     H38718   7.540   5.039   3.051 -0.5021 -1.3339 -1.7754
  281MOL0     H38719   7.673   5.097   2.850  0.1654 -1.3509 -3.6496
  281MOL0     H38720   7.614   4.935   2.826 -0.1020  0.0290  1.2932
  281MOL0     H38721   7.887   5.015   2.900 -1.3280  1.7467  1.1762
  281MOL0     H38722   7.829   4.847   2.916  1.4248  0.1735  1.7765
  281MOL0     H38723   7.750   4.985   2.664 -0.7492 -1.6266 -0.5757
  281MOL0     H38724   7.784   4.822   2.689 -0.1979 -0.5430 -0.8964
  281MOL0     H38725   7.967   5.058   2.649  1.7615  0.1562 -2.4511
  281MOL0     H38726   8.029   4.935   2.761  0.2683 -1.8484 -0.6153
  281MOL0     H38727   7.961   4.672   2.582  0.2426 -0.5068 -1.2924
  281MOL0     H38728   8.010   4.654   2.199 -3.4586  0.6860  1.9283
  281MOL0     H38729   8.009   4.535   2.327  0.2023  0.6124  2.7699
  281MOL0     H38730   8.289   4.663   2.295  0.2073  1.3591 -3.9224
  281MOL0     H38731   8.240   4.492   2.328 -1.7616 -0.8784 -0.4423
  281MOL0     H38732   8.350   4.519   2.131  0.4356  1.7226 -3.7821
  281MOL0     H38733   8.184   4.461   2.107  0.2954 -0.4651 -1.1959
  281MOL0     H38734   8.213   4.752   2.078  0.2927 -1.4775  2.1594
  281MOL0     H38735   8.312   4.653   1.951  1.0586 -2.9703  0.4027
  281MOL0     H38736   7.992   4.864   2.061  0.9791  2.3176 -0.2715
  281MOL0     H38737   7.925   5.086   2.039  1.2628 -0.7068 -0.8759
  281MOL0     H38738   7.777   5.075   1.938 -0.8693  2.8678 -0.3419
  281MOL0     H38739   7.919   5.169   1.882 -1.1505  0.9678  1.7114
  281MOL0     H38740   7.606   5.164   1.577 -0.8394 -2.2275  0.1170
  281MOL0     H38741   7.529   5.309   1.429  1.2709  1.6615  0.2434
  281MOL0     H38742   7.707   5.296   0.989 -0.8911  0.2323 -0.1943
  281MOL0     H38743   7.612   5.445   1.002  0.2141 -0.5294 -0.3637
  281MOL0     H38744   7.779   5.489   1.212  5.3194  5.7431 -0.0266
  281MOL0     H38745   7.884   5.369   1.152 -1.7215  1.0240  3.4084
  281MOL0     H38746   7.907   5.610   1.064 -0.8823 -2.0260  2.6922
  281MOL0     H38747   7.780   5.599   0.961  0.9894  0.6102 -0.3341
  281MOL0     H38748   7.894   5.362   0.888  0.1445  0.4595 -2.1423
  281MOL0     H38749   8.031   5.417   0.988  2.2464 -0.6375 -2.4515
  281MOL0     H38750   8.065   5.459   0.732 -0.2098 -0.2445 -1.3857
  281MOL0     H38751   7.915   5.537   0.723 -0.2357  1.2602  0.4297
  281MOL0     H38752   8.152   5.627   0.874 -0.5347 -0.3404  0.6780
  281MOL0     H38753   7.980   5.707   0.873 -0.0458  0.8532 -2.2275
  281MOL0     H38754   7.990   5.735   0.627 -2.3902 -2.3646  1.8868
  281MOL0     H38755   8.152   5.663   0.622  1.1158  0.2451  1.8147
  281MOL0     H38756   8.245   5.843   0.746  1.2329  0.4137 -2.2634
  281MOL0     H38757   8.082   5.925   0.751 -1.2012  0.0434 -2.3153
  281MOL0     H38758   7.778   5.151   1.116 -1.2388  1.1348  0.1853
  281MOL0     H38759   7.881   4.992   1.282  1.9229  0.5931  1.2464
  281MOL0     H38760   7.991   4.796   1.579 -2.3809 -0.8053 -0.7839
  281MOL0     H38761   8.069   4.628   1.698 -2.4437 -2.5413  1.4676
  281MOL0     H38762   8.047   5.037   3.263 -1.4621  0.4977  0.0821
  281MOL0     H38763   8.261   5.051   3.120 -0.3589 -0.9764  0.4027
  281MOL0     H38764   8.433   5.339   2.816 -0.5734  3.3286  0.2927
  281MOL0     H38765   8.604   5.386   2.626 -0.7230  1.7910 -0.0048
  281MOL0     H38766   8.820   5.372   2.571 -0.3398 -1.1519 -4.1456
  281MOL0     H38767   8.803   5.505   2.466 -0.8865 -5.7971 -0.9349
  281MOL0     H38768   9.017   5.342   2.549  0.5234 -0.3062  0.0902
  281MOL0     H38769   9.036   5.478   2.657 -0.3383  1.2734  0.2222
  281MOL0     H38770   9.060   5.635   2.449  0.3018  0.1738 -2.6764
  281MOL0     H38771   9.193   5.505   2.451 -0.5958 -2.4885  0.6667
  281MOL0     H38772   9.101   5.547   2.242 -1.0638  1.1110  0.8977
  281MOL0     H38773   8.942   5.505   2.285 -0.7939 -0.6586  2.4765
  281MOL0     H38774   9.103   5.127   2.211 -1.4954 -0.3703  0.3734
  281MOL0     H38775   8.841   5.606   2.894  1.1120 -1.5111 -0.5618
  281MOL0     H38776   8.720   5.458   3.187 -1.6441  1.8742  2.2535
  281MOL0     H38777   8.797   5.606   3.126  0.5432  0.9192 -4.1531
  281MOL0     H38778   8.633   5.616   3.174  1.7581  1.4703  1.1751
  282MOL0     O38779   6.220   4.240   0.776  1.1275  0.0764 -0.2920
  282MOL0     C38780   6.153   4.214   0.675  0.0331  0.5439  0.7711
  282MOL0     O38781   6.063   4.111   0.662  0.1044 -0.3624 -0.3123
  282MOL0     C38782   6.070   3.983   0.716  0.8818 -0.6300 -0.4722
  282MOL0     C38783   5.959   3.905   0.693  1.0638  0.0497  0.3412
  282MOL0     C38784   5.964   3.776   0.729 -0.5341  0.6994  0.6599
  282MOL0     C38785   6.070   3.719   0.794  0.1168 -0.1006 -0.2323
  282MOL0     O38786   6.063   3.588   0.819 -0.6052  0.0189 -0.1700
  282MOL0     C38787   6.188   3.516   0.839  0.0303  0.3878  0.1591
  282MOL0     C38788   6.175   3.369   0.801  0.2321 -0.2601 -0.4509
  282MOL0     C38789   6.084   3.336   0.684 -0.1806  0.0342  0.1081
  282MOL0     C38790   6.163   3.362   0.557 -0.2448 -0.1579 -0.1003
  282MOL0     C38791   6.059   3.368   0.456  0.2926 -0.0861  1.3367
  282MOL0     C38792   6.005   3.508   0.438  0.8520 -0.7564  1.1826
  282MOL0     C38793   5.882   3.508   0.347  0.0374 -0.3299 -0.9322
  282MOL0     C38794   5.750   3.506   0.433 -0.0522 -0.1212 -0.0076
  282MOL0     N38795   5.640   3.486   0.335 -0.3537 -0.4761  0.4631
  282MOL0     C38796   5.573   3.584   0.264 -0.0260 -0.0263  0.1748
  282MOL0     C38797   5.484   3.520   0.181 -0.0633 -0.8741 -0.6060
  282MOL0     C38798   5.398   3.586   0.079 -0.0845  0.8872 -0.7618
  282MOL0     C38799   5.457   3.572  -0.064 -0.7460 -0.7179  0.1973
  282MOL0     C38800   5.523   3.699  -0.118 -0.6964  0.3034  0.9250
  282MOL0     C38801   5.657   3.734  -0.060 -0.4636 -0.1372  0.0805
  282MOL0     O38802   5.756   3.637  -0.102 -0.9432 -0.0636 -0.3286
  282MOL0     C38803   5.870   3.625  -0.026  0.0320 -0.7256 -0.1824
  282MOL0     C38804   5.928   3.739   0.038 -0.1863  0.7168 -0.2277
  282MOL0     C38805   6.050   3.729   0.113 -0.0849 -0.1717 -0.0411
  282MOL0     C38806   6.062   3.846   0.206 -0.8995  0.1669  0.3519
  282MOL0     C38807   6.146   3.624   0.110  0.0596  0.3933 -0.4792
  282MOL0     C38808   6.268   3.603   0.187 -0.7911  0.7343 -0.3412
  282MOL0     O38809   6.346   3.494   0.161  0.3507 -0.4133  0.7071
  282MOL0     C38810   6.473   3.490   0.223 -0.7254  0.4713 -0.6535
  282MOL0     C38811   6.511   3.373   0.299  0.1424  0.1508 -0.4975
  282MOL0     C38812   6.639   3.370   0.366 -0.0817 -0.2640  0.8207
  282MOL0     C38813   6.729   3.478   0.356  0.6002  0.4523  0.9878
  282MOL0     O38814   6.848   3.489   0.427  0.8676  0.1212 -0.1771
  282MOL0     C38815   6.925   3.366   0.470  0.1005  0.6895 -0.3188
  282MOL0     C38816   6.974   3.280   0.356 -0.3241 -0.0752  0.3424
  282MOL0     C38817   7.068   3.164   0.412  0.3638 -0.9319  0.4119
  282MOL0     C38818   7.151   3.103   0.295 -0.6453 -0.4734  0.3673
  282MOL0     C38819   7.187   2.947   0.304 -0.2824 -0.3351 -0.3334
  282MOL0     C38820   7.253   2.904   0.433 -0.5654  0.1964 -0.3195
  282MOL0     C38821   7.396   2.961   0.457  0.5990 -0.7499  1.1284
  282MOL0     C38822   7.495   2.930   0.346 -0.7179 -0.0707  0.1103
  282MOL0    Cl38823   7.502   3.059   0.220  0.1483  0.0011 -0.0099
  282MOL0     C38824   6.689   3.588   0.288  1.1085 -0.2248 -0.6740
  282MOL0     C38825   6.569   3.592   0.210 -0.0729 -0.0074 -0.2124
  282MOL0     O38826   6.289   3.676   0.284 -0.4285  0.3033 -0.3745
  282MOL0     C38827   6.097   3.518   0.034 -0.0593 -0.7222  0.7950
  282MOL0     C38828   5.962   3.513  -0.027  0.0894  1.3589 -1.2148
  282MOL0     N38829   5.507   3.384   0.198 -0.0934  0.5416  0.8930
  282MOL0     N38830   5.592   3.369   0.297 -0.4084  0.0320  0.6559
  282MOL0     C38831   6.180   3.798   0.810 -0.4860 -0.4347 -0.9154
  282MOL0     C38832   6.182   3.934   0.773 -0.2001  0.0025  0.6752
  282MOL0     C38833   6.145   4.326   0.575  0.8123  0.6228 -0.3722
  282MOL0     C38834   6.170   4.467   0.614  1.1032  0.3161 -0.2823
  282MOL0     C38835   6.143   4.575   0.534 -0.0344 -0.5062  0.4730
  282MOL0     C38836   6.105   4.548   0.398 -0.4713  0.1811  0.2385
  282MOL0     O38837   6.062   4.658   0.331 -0.3005  1.1437  0.4880
  282MOL0     C38838   5.990   4.641   0.212  0.1756 -0.7312  0.3103
  282MOL0     C38839   5.974   4.780   0.156 -0.1726  0.3777  0.0500
  282MOL0     C38840   5.910   4.769   0.026  0.1533  0.5363 -0.0081
  282MOL0     C38841   5.844   4.904  -0.003 -0.7879  0.0653  0.0831
  282MOL0     C38842   5.778   4.900  -0.126 -1.2479 -0.0983  0.8568
  282MOL0     C38843   5.718   4.876  -0.227  0.3368  0.3192  0.0213
  282MOL0     C38844   6.108   4.414   0.350  0.5824  0.5969  0.7344
  282MOL0     C38845   6.124   4.291   0.434 -0.5305  0.2160 -0.6203
  282MOL0     C38846   6.100   4.156   0.363  0.0444 -0.1840  0.5937
  282MOL0     H38847   5.871   3.940   0.640  0.2439 -0.2165  1.4783
  282MOL0     H38848   5.878   3.709   0.725  1.3294 -1.9006  1.4296
  282MOL0     H38849   6.212   3.528   0.945 -1.6223  2.4542  0.3720
  282MOL0     H38850   6.269   3.545   0.772  1.2553 -1.6116  0.6815
  282MOL0     H38851   6.265   3.309   0.784  0.3417 -0.5313  0.9588
  282MOL0     H38852   6.121   3.328   0.888 -1.3607  2.4585 -0.0675
  282MOL0     H38853   6.063   3.228   0.680  2.7042 -0.6718  1.3705
  282MOL0     H38854   5.985   3.381   0.697 -1.3310 -2.5345  1.1061
  282MOL0     H38855   6.226   3.451   0.558  0.1574 -0.4415  0.9363
  282MOL0     H38856   6.227   3.275   0.538  0.8726  0.6536 -0.1262
  282MOL0     H38857   5.976   3.300   0.475 -1.2313  1.6348  1.0759
  282MOL0     H38858   6.102   3.345   0.358 -0.6502  2.9310  0.0971
  282MOL0     H38859   5.978   3.550   0.535 -0.0299  0.6325  0.3834
  282MOL0     H38860   6.078   3.577   0.394 -0.6702 -0.6888 -1.4872
  282MOL0     H38861   5.882   3.425   0.275  0.8954  1.7007 -3.4044
  282MOL0     H38862   5.894   3.599   0.288  2.7260  0.7365  1.0303
  282MOL0     H38863   5.759   3.423   0.504 -0.5352  1.1239  1.5880
  282MOL0     H38864   5.750   3.603   0.484  1.8637 -0.5820  1.0006
  282MOL0     H38865   5.595   3.690   0.258  0.3856 -0.0881  0.5390
  282MOL0     H38866   5.398   3.692   0.109  0.9110  0.5158  0.7091
  282MOL0     H38867   5.298   3.543   0.087  0.4456 -0.1293  5.2590
  282MOL0     H38868   5.524   3.486  -0.063 -0.5500 -0.5679  0.0491
  282MOL0     H38869   5.374   3.545  -0.131 -1.1875 -0.3661  0.5956
  282MOL0     H38870   5.541   3.692  -0.226 -0.1815  3.5595  0.7046
  282MOL0     H38871   5.456   3.784  -0.101  1.5085  2.0046  1.5021
  282MOL0     H38872   5.683   3.834  -0.098  2.3380 -0.5920  0.5442
  282MOL0     H38873   5.643   3.752   0.047  1.4876  4.9665 -0.2518
  282MOL0     H38874   5.872   3.830   0.055 -2.3251 -0.5174 -0.3852
  282MOL0     H38875   6.025   3.936   0.157 -1.5312 -0.2990 -0.0399
  282MOL0     H38876   6.165   3.873   0.229 -1.3783  1.1421  1.4569
  282MOL0     H38877   5.991   3.826   0.287 -3.3583 -1.0050 -1.9321
  282MOL0     H38878   6.453   3.280   0.301  0.6577 -0.2565 -2.4403
  282MOL0     H38879   6.665   3.270   0.399 -2.0325 -1.6803 -1.5756
  282MOL0     H38880   7.008   3.400   0.532  1.4483  0.8941 -2.1454
  282MOL0     H38881   6.855   3.311   0.534 -1.5234 -0.0455 -2.5692
  282MOL0     H38882   6.892   3.236   0.299 -1.7627  0.9446  1.5468
  282MOL0     H38883   7.034   3.348   0.295  0.6040  0.0241  1.3351
  282MOL0     H38884   7.018   3.077   0.457 -0.5209 -0.8090 -0.3086
  282MOL0     H38885   7.124   3.205   0.497  1.2407 -0.8630 -0.1856
  282MOL0     H38886   7.234   3.175   0.295 -1.8737  0.9973  1.4526
  282MOL0     H38887   7.102   3.107   0.198  2.6806  0.3442 -1.4627
  282MOL0     H38888   7.106   2.874   0.301  0.4674 -1.2561  0.6394
  282MOL0     H38889   7.251   2.920   0.219  1.4039 -2.4738  1.4779
  282MOL0     H38890   7.255   2.795   0.442 -3.8038  0.1341  0.9924
  282MOL0     H38891   7.181   2.934   0.509 -1.1906  3.0792 -1.9358
  282MOL0     H38892   7.429   2.918   0.552  0.2203 -1.2694  1.0240
  282MOL0     H38893   7.383   3.068   0.473  0.5453 -0.8969  2.1039
  282MOL0     H38894   7.480   2.835   0.294 -1.5420  1.6916 -3.1604
  282MOL0     H38895   7.595   2.910   0.385  0.5857  0.1609 -2.8454
  282MOL0     H38896   6.749   3.677   0.304 -2.5367  2.3056  0.4811
  282MOL0     H38897   6.557   3.688   0.160  1.0328  1.0042  1.3413
  282MOL0     H38898   6.148   3.423   0.023 -3.4574 -2.4325 -1.8749
  282MOL0     H38899   5.931   3.421  -0.076 -0.4725 -0.3663  2.1372
  282MOL0     H38900   6.273   3.775   0.862 -1.6669 -1.3218  0.9409
  282MOL0     H38901   6.269   3.993   0.801 -0.0593  0.2989 -0.3368
  282MOL0     H38902   6.183   4.473   0.722 -2.3159 -2.4770  0.4674
  282MOL0     H38903   6.155   4.676   0.570 -1.2754 -0.0301 -0.3995
  282MOL0     H38904   6.048   4.587   0.137  0.8147  1.8586 -1.2097
  282MOL0     H38905   5.894   4.595   0.234 -1.2809  1.7631 -0.4645
  282MOL0     H38906   6.074   4.822   0.143  1.4963 -2.8023  1.4657
  282MOL0     H38907   5.918   4.846   0.223 -0.8706  2.4342 -2.3991
  282MOL0     H38908   5.983   4.756  -0.054 -0.0967 -0.3489 -0.1000
  282MOL0     H38909   5.837   4.687   0.022 -0.6442  1.2736 -2.0549
  282MOL0     H38910   5.916   4.986   0.004 -3.0135  2.0668  0.6519
  282MOL0     H38911   5.771   4.928   0.075  0.0571  1.9885  0.3551
  282MOL0     H38912   5.649   4.847  -0.303  0.7740  0.2402 -0.3547
  282MOL0     H38913   6.091   4.399   0.244  1.4814  0.9207  0.5416
  282MOL0     H38914   6.003   4.152   0.314  1.4507  0.3970 -2.4908
  282MOL0     H38915   6.172   4.139   0.282  0.8750  0.4805  1.1694
  282MOL0     H38916   6.117   4.075   0.435  2.5469  0.3312  0.6719
  283MOL0     O38917   4.982   1.740   4.844 -0.2127 -0.3518  0.6189
  283MOL0     C38918   4.901   1.733   4.937  0.3335  0.8688 -0.9370
  283MOL0     O38919   4.834   1.840   4.991 -0.3102  0.2632  0.1319
  283MOL0     C38920   4.851   1.957   4.921  0.3873 -1.3245 -0.7216
  283MOL0     C38921   4.783   1.987   4.800  0.2038 -0.6991  0.7850
  283MOL0     C38922   4.813   2.107   4.734 -0.3277 -1.0730 -0.2661
  283MOL0     C38923   4.894   2.202   4.786  0.6535 -1.5835 -0.4492
  283MOL0     O38924   4.886   2.326   4.734  0.1655  0.0552 -0.2332
  283MOL0     C38925   4.935   2.443   4.793 -0.4232  0.5598 -0.0974
  283MOL0     C38926   4.868   2.551   4.717  0.1784 -0.9063  0.3730
  283MOL0     C38927   4.807   2.663   4.810 -0.6459 -0.1797 -0.7773
  283MOL0     C38928   4.752   2.762   4.698  0.2249 -0.6068 -0.2480
  283MOL0     C38929   4.691   2.892   4.755 -0.5347 -0.1824 -0.3882
  283MOL0     C38930   4.793   2.979   4.829 -0.4535 -0.3444 -0.1826
  283MOL0     C38931   4.748   3.131   4.845 -0.7308 -0.0877  0.5937
  283MOL0     C38932   4.790   3.220   4.735 -0.5965 -0.5634  0.0817
  283MOL0     N38933   4.727   3.179   4.611 -0.7504  0.2695 -0.5256
  283MOL0     C38934   4.600   3.161   4.574 -0.4000 -0.8174  0.2140
  283MOL0     C38935   4.604   3.159   4.439  0.9512 -0.4650  0.1509
  283MOL0     C38936   4.480   3.140   4.347  0.0603  0.4776 -0.3816
  283MOL0     C38937   4.385   3.044   4.412  0.1317 -0.1622  0.5732
  283MOL0     C38938   4.282   3.007   4.298 -0.2235 -0.2055  0.0010
  283MOL0     C38939   4.167   2.912   4.338  0.0297 -0.3298 -0.4982
  283MOL0     O38940   4.105   2.965   4.457  0.4353 -0.2057  0.3452
  283MOL0     C38941   3.978   2.923   4.487 -0.5956  0.4887 -0.5323
  283MOL0     C38942   3.920   2.815   4.428 -0.0251 -0.2468  0.1440
  283MOL0     C38943   3.796   2.759   4.478  0.1917 -0.3587 -0.2011
  283MOL0     C38944   3.758   2.625   4.409  0.0528  0.2171  0.5721
  283MOL0     C38945   3.729   2.811   4.589 -1.2484 -0.7246 -0.2374
  283MOL0     C38946   3.611   2.745   4.658 -0.3066 -1.0175 -0.6258
  283MOL0     O38947   3.556   2.827   4.758  0.4606  0.4732 -0.4709
  283MOL0     C38948   3.447   2.791   4.843 -0.6581  0.1084  0.8754
  283MOL0     C38949   3.330   2.714   4.812 -0.1295 -0.1409 -0.6029
  283MOL0     C38950   3.223   2.691   4.897  0.0836 -0.1681 -0.6344
  283MOL0     C38951   3.227   2.749   5.023  0.0859 -0.2648 -0.0285
  283MOL0     O38952   3.124   2.727   5.113 -0.4068 -0.6029 -0.0599
  283MOL0     C38953   3.065   2.600   5.130  0.5871  0.6084 -0.3353
  283MOL0     C38954   2.928   2.622   5.198  0.3914  0.1478 -0.8103
  283MOL0     C38955   2.826   2.520   5.154  0.1498  0.1124  0.3494
  283MOL0     C38956   2.695   2.536   5.244 -1.2834 -0.2713  1.0412
  283MOL0     C38957   2.573   2.495   5.163  0.4115  0.5604 -0.2221
  283MOL0     C38958   2.518   2.600   5.068 -0.3763  0.2627 -0.4734
  283MOL0     C38959   2.398   2.553   4.983 -0.4567  0.2783  0.3694
  283MOL0     C38960   2.341   2.685   4.901  0.3442 -0.0685 -0.1591
  283MOL0    Cl38961   2.181   2.654   4.845 -0.0439  0.0618  0.0738
  283MOL0     C38962   3.339   2.826   5.063  0.7467 -0.2971  0.7584
  283MOL0     C38963   3.443   2.848   4.966  0.0045 -0.4219 -0.3663
  283MOL0     O38964   3.563   2.636   4.623 -0.4189 -0.2591  0.1845
  283MOL0     C38965   3.790   2.926   4.648  0.3205  0.1131  0.9062
  283MOL0     C38966   3.907   2.981   4.591  0.2685  0.5293 -0.1983
  283MOL0     N38967   4.728   3.170   4.388 -0.5099  0.0786 -0.0240
  283MOL0     N38968   4.800   3.168   4.498 -0.1063  0.2861  0.3964
  283MOL0     C38969   4.954   2.179   4.914 -0.0291 -0.3849 -1.2217
  283MOL0     C38970   4.943   2.054   4.978  0.3155  0.4752  0.0123
  283MOL0     C38971   4.873   1.594   4.986  0.8843  0.7501 -0.2514
  283MOL0     C38972   4.923   1.485   4.920  0.6041  0.5149  0.0659
  283MOL0     C38973   4.903   1.348   4.944  0.0385 -0.9128 -0.4129
  283MOL0     C38974   4.839   1.326   5.062  0.8060  0.5154  0.2769
  283MOL0     O38975   4.818   1.196   5.108  0.3307 -0.4852 -0.6993
  283MOL0     C38976   4.840   1.071   5.051 -0.6562 -0.9831  1.1754
  283MOL0     C38977   4.917   0.987   5.151 -0.0615 -0.3286  0.0047
  283MOL0     C38978   4.935   0.843   5.096 -0.7617  0.0062 -0.0697
  283MOL0     C38979   4.809   0.746   5.096 -0.2589 -0.7646 -0.1462
  283MOL0     C38980   4.838   0.629   5.013 -0.5194  0.0445  0.4196
  283MOL0     C38981   4.869   0.524   4.956 -0.6344  0.1817 -0.6174
  283MOL0     C38982   4.780   1.428   5.136  0.5654 -1.0313  0.9126
  283MOL0     C38983   4.793   1.566   5.102  0.5071 -0.1571  0.1449
  283MOL0     C38984   4.716   1.660   5.188  0.4840 -0.1782 -0.2712
  283MOL0     H38985   4.707   1.921   4.759 -0.9405  0.9437  0.1588
  283MOL0     H38986   4.744   2.123   4.652 -2.0895  0.7753  1.4555
  283MOL0     H38987   5.043   2.457   4.785 -0.2713  0.1050  0.9010
  283MOL0     H38988   4.917   2.440   4.901  0.8216 -0.7074  0.1032
  283MOL0     H38989   4.933   2.609   4.651 -2.1907  1.8738  0.2471
  283MOL0     H38990   4.794   2.502   4.654  0.3083  2.0486 -2.3549
  283MOL0     H38991   4.733   2.637   4.886  0.0113  1.6090  0.5578
  283MOL0     H38992   4.879   2.715   4.873  0.2690  1.2311 -2.8554
  283MOL0     H38993   4.823   2.797   4.623 -2.0731  4.2418 -0.5935
  283MOL0     H38994   4.685   2.713   4.627  0.4591  0.0707 -0.9504
  283MOL0     H38995   4.611   2.872   4.827 -0.5196 -0.9334 -0.5688
  283MOL0     H38996   4.648   2.955   4.676  0.6907  2.0519  0.6358
  283MOL0     H38997   4.785   2.932   4.927  0.1905 -1.3747 -0.6044
  283MOL0     H38998   4.897   2.966   4.798  0.4790  1.5695  1.8491
  283MOL0     H38999   4.792   3.163   4.939 -0.9275 -2.5235  1.5744
  283MOL0     H39000   4.639   3.129   4.860 -0.6700 -1.1374  0.9384
  283MOL0     H39001   4.765   3.326   4.748 -0.0323 -0.5000  0.6980
  283MOL0     H39002   4.899   3.219   4.726 -0.6655  2.0461 -2.6251
  283MOL0     H39003   4.504   3.157   4.624 -1.3983 -0.2983 -1.5779
  283MOL0     H39004   4.528   3.114   4.252  1.0338 -1.1349  0.5150
  283MOL0     H39005   4.417   3.226   4.321  0.6096  0.5663 -1.4966
  283MOL0     H39006   4.434   2.955   4.453 -0.3920 -0.9856 -0.5379
  283MOL0     H39007   4.343   3.102   4.494  3.8709  0.7286  2.0903
  283MOL0     H39008   4.229   3.097   4.266 -3.4119  0.0948  4.9663
  283MOL0     H39009   4.338   2.948   4.226 -2.1235 -1.8780 -0.1865
  283MOL0     H39010   4.107   2.902   4.246 -0.2163 -1.8764 -0.1972
  283MOL0     H39011   4.224   2.820   4.350  1.6368  0.1200 -3.4830
  283MOL0     H39012   3.973   2.757   4.353 -1.4000 -0.6566 -0.5354
  283MOL0     H39013   3.676   2.647   4.339  0.9596 -0.5473 -0.7709
  283MOL0     H39014   3.726   2.539   4.471  3.9670 -1.5726  0.3746
  283MOL0     H39015   3.830   2.570   4.348 -1.2135 -2.8043  1.5777
  283MOL0     H39016   3.328   2.671   4.712  1.1850  1.5527 -1.3966
  283MOL0     H39017   3.133   2.635   4.873 -0.7169  2.0532 -3.3598
  283MOL0     H39018   3.048   2.543   5.038 -2.5059  0.9574 -0.0823
  283MOL0     H39019   3.125   2.544   5.203 -1.6882  2.9655  3.6875
  283MOL0     H39020   2.950   2.604   5.303 -2.5230  0.1328 -0.1423
  283MOL0     H39021   2.890   2.725   5.193 -2.7846 -0.6694  2.4575
  283MOL0     H39022   2.865   2.418   5.165  0.5840  0.2909  0.4623
  283MOL0     H39023   2.807   2.541   5.049 -0.4626 -1.2454  0.1675
  283MOL0     H39024   2.667   2.636   5.279 -1.9302 -1.0320  2.8199
  283MOL0     H39025   2.714   2.475   5.332 -0.3431  0.7095  1.5479
  283MOL0     H39026   2.602   2.405   5.108  4.0618  0.2328  1.9695
  283MOL0     H39027   2.497   2.466   5.236 -0.6993 -1.6366 -2.1127
  283MOL0     H39028   2.596   2.630   4.997  0.6640 -0.1797  0.4476
  283MOL0     H39029   2.485   2.689   5.123 -1.8702 -0.6519  0.1647
  283MOL0     H39030   2.322   2.520   5.055  0.8434  0.2401  1.7715
  283MOL0     H39031   2.433   2.465   4.928 -1.2441 -3.0599  4.6219
  283MOL0     H39032   2.416   2.712   4.826  1.4634 -1.9822  0.1775
  283MOL0     H39033   2.339   2.764   4.977  0.6756 -1.3084  1.1841
  283MOL0     H39034   3.332   2.863   5.164  0.0067 -0.5216  0.7905
  283MOL0     H39035   3.527   2.914   4.985 -0.2329  0.6777 -2.7252
  283MOL0     H39036   3.736   2.974   4.729 -0.7898  0.8288 -0.2247
  283MOL0     H39037   3.956   3.073   4.622  1.1782  0.2249 -0.6852
  283MOL0     H39038   5.012   2.250   4.971 -1.3839 -0.3907  0.2267
  283MOL0     H39039   4.974   2.033   5.080  3.3327  2.2412 -0.4319
  283MOL0     H39040   4.995   1.494   4.839  1.1396 -1.8864  0.2162
  283MOL0     H39041   4.939   1.269   4.878 -0.6842  0.0703 -2.0334
  283MOL0     H39042   4.745   1.029   5.017 -1.7895  0.6459  2.1406
  283MOL0     H39043   4.909   1.069   4.966 -1.3146 -0.1842  0.5985
  283MOL0     H39044   4.851   0.974   5.237 -1.7382 -1.0205 -1.3173
  283MOL0     H39045   5.016   1.024   5.179  0.3120 -1.5948  0.4333
  283MOL0     H39046   4.973   0.859   4.995 -0.3753  3.4215  0.5237
  283MOL0     H39047   5.017   0.801   5.154 -1.5936  1.3366  2.2004
  283MOL0     H39048   4.718   0.780   5.046 -0.7780  1.9227  2.3907
  283MOL0     H39049   4.775   0.708   5.192 -0.8194  2.7518  1.1883
  283MOL0     H39050   4.889   0.441   4.892 -0.5036 -0.8654  0.7389
  283MOL0     H39051   4.732   1.387   5.224  0.7090 -2.9819  0.1248
  283MOL0     H39052   4.770   1.744   5.233 -0.4293  0.9735 -1.2617
  283MOL0     H39053   4.640   1.698   5.120 -0.1618 -1.7416 -0.4580
  283MOL0     H39054   4.672   1.604   5.271 -1.1454  3.4059  1.4753
  284MOL0     O39055   3.481   7.711   0.517  0.6731 -0.4091 -0.0873
  284MOL0     C39056   3.565   7.688   0.429 -0.3927 -0.1491  0.8804
  284MOL0     O39057   3.541   7.659   0.298 -0.8682  0.0439 -0.2564
  284MOL0     C39058   3.436   7.579   0.271 -0.3710 -0.5498  0.9101
  284MOL0     C39059   3.328   7.641   0.198  0.2532 -0.2034 -0.5651
  284MOL0     C39060   3.216   7.569   0.162 -0.2148 -0.6500 -0.5724
  284MOL0     C39061   3.206   7.426   0.198 -0.9946 -0.3141  0.9801
  284MOL0     O39062   3.097   7.351   0.196 -0.3272  0.2468 -0.8037
  284MOL0     C39063   2.975   7.414   0.155 -0.1355 -0.1688  0.0351
  284MOL0     C39064   2.850   7.321   0.155 -0.2747  1.0203  0.1505
  284MOL0     C39065   2.755   7.362   0.043 -0.0490  0.4422  0.0598
  284MOL0     C39066   2.619   7.298   0.045 -0.9843  0.2332 -0.7196
  284MOL0     C39067   2.613   7.184  -0.050 -0.3344 -0.2438  0.4087
  284MOL0     C39068   2.472   7.150  -0.073  0.2163 -0.3716 -0.5242
  284MOL0     C39069   2.439   7.018  -0.134 -0.0201 -0.0950 -0.4896
  284MOL0     C39070   2.296   6.989  -0.174 -0.7374  0.5641 -0.4111
  284MOL0     N39071   2.272   6.860  -0.243 -0.0453 -0.3480  0.4666
  284MOL0     C39072   2.218   6.762  -0.167  0.6004  0.3361 -0.0807
  284MOL0     C39073   2.212   6.654  -0.259 -0.1312 -1.7289  0.9994
  284MOL0     C39074   2.172   6.513  -0.236 -0.8437  0.1013 -0.0899
  284MOL0     C39075   2.289   6.425  -0.267  0.8063 -0.3330 -0.6850
  284MOL0     C39076   2.408   6.435  -0.172  0.9964 -0.3488 -0.4706
  284MOL0     C39077   2.537   6.399  -0.231 -0.4751 -0.4750  0.1740
  284MOL0     O39078   2.548   6.264  -0.264  0.5364 -0.0256  0.0131
  284MOL0     C39079   2.601   6.175  -0.174 -0.1714  0.7328  0.0863
  284MOL0     C39080   2.653   6.197  -0.042  0.5067  0.0863  0.1693
  284MOL0     C39081   2.721   6.093   0.040 -0.6045  0.1950 -0.4025
  284MOL0     C39082   2.784   6.143   0.166  0.6478  1.2091  0.0071
  284MOL0     C39083   2.717   5.957  -0.005 -0.1679 -0.4307  0.8875
  284MOL0     C39084   2.754   5.838   0.074  0.5032  0.3232 -0.0121
  284MOL0     O39085   2.725   5.716   0.013  0.3055  0.1592 -0.8557
  284MOL0     C39086   2.725   5.601   0.095  0.6181  0.2627  0.6093
  284MOL0     C39087   2.596   5.554   0.123 -0.9624  0.1380 -0.3087
  284MOL0     C39088   2.594   5.438   0.205 -0.0522  1.0061 -0.4110
  284MOL0     C39089   2.708   5.392   0.271 -1.1671  0.3186  0.9456
  284MOL0     O39090   2.683   5.295   0.366 -0.0185  0.5245 -0.9285
  284MOL0     C39091   2.788   5.259   0.453 -0.2797  0.7069 -0.2387
  284MOL0     C39092   2.729   5.160   0.556  0.9416 -0.8466 -0.1515
  284MOL0     C39093   2.813   5.161   0.681 -0.5316  0.7280  0.1677
  284MOL0     C39094   2.967   5.165   0.665 -0.9708  0.2024 -0.2990
  284MOL0     C39095   3.025   5.211   0.795 -0.6951  0.1247  0.3474
  284MOL0     C39096   3.178   5.197   0.784 -0.8356 -0.7102 -0.4269
  284MOL0     C39097   3.234   5.332   0.754 -0.3140 -0.1176 -0.1288
  284MOL0     C39098   3.259   5.351   0.602 -0.4394 -0.6841  1.1849
  284MOL0    Cl39099   3.336   5.507   0.570 -0.3147 -0.0721 -0.2600
  284MOL0     C39100   2.835   5.447   0.244  0.4661 -0.1063 -0.1232
  284MOL0     C39101   2.842   5.553   0.160  0.5281  0.9006  0.4442
  284MOL0     O39102   2.800   5.854   0.191 -0.6073  0.1372 -0.1394
  284MOL0     C39103   2.674   5.943  -0.136 -0.5893 -0.9087  1.0594
  284MOL0     C39104   2.623   6.046  -0.220 -0.0748 -0.9933  0.1440
  284MOL0     N39105   2.267   6.699  -0.381  0.4778  0.1750  0.1460
  284MOL0     N39106   2.308   6.820  -0.367  0.6775 -0.1195 -0.5804
  284MOL0     C39107   3.318   7.365   0.256 -0.5158  0.6215 -0.5548
  284MOL0     C39108   3.432   7.442   0.294  0.4215  0.8733  0.0931
  284MOL0     C39109   3.712   7.711   0.466  0.1581  0.2698  0.1437
  284MOL0     C39110   3.798   7.762   0.367 -0.0634  0.2770 -0.3098
  284MOL0     C39111   3.932   7.800   0.385  0.6018 -0.4307 -1.1191
  284MOL0     C39112   3.990   7.782   0.514  1.1457  0.0275  0.0702
  284MOL0     O39113   4.117   7.831   0.522  0.4621  0.4459  0.7923
  284MOL0     C39114   4.180   7.842   0.645 -1.4558 -0.5772 -0.6681
  284MOL0     C39115   4.332   7.832   0.627 -0.2099 -0.1201 -0.1583
  284MOL0     C39116   4.394   7.695   0.577 -0.1801 -0.3810  0.0567
  284MOL0     C39117   4.435   7.709   0.430  0.3215  0.0376  0.2753
  284MOL0     C39118   4.536   7.804   0.383  0.2148 -0.1196 -0.4700
  284MOL0     C39119   4.631   7.880   0.348  0.9575  0.0082 -0.4069
  284MOL0     C39120   3.903   7.740   0.620 -0.1729 -0.1296  0.1890
  284MOL0     C39121   3.770   7.703   0.594 -0.8561 -0.9568  0.9126
  284MOL0     C39122   3.687   7.662   0.718  1.1199  0.5986  0.8042
  284MOL0     H39123   3.323   7.747   0.177  1.4543  0.4552  2.0669
  284MOL0     H39124   3.137   7.625   0.113  0.6892 -0.7453 -2.1982
  284MOL0     H39125   2.984   7.452   0.053 -0.1329 -1.1087 -0.3292
  284MOL0     H39126   2.957   7.493   0.228 -2.0921 -3.7551  3.7908
  284MOL0     H39127   2.888   7.220   0.135 -2.0640  0.5308 -1.0202
  284MOL0     H39128   2.803   7.327   0.253  1.9629  2.6306  1.2096
  284MOL0     H39129   2.726   7.467   0.050  0.4332  0.6527 -0.8990
  284MOL0     H39130   2.814   7.340  -0.047  2.3244  3.4564  0.7068
  284MOL0     H39131   2.595   7.265   0.147  0.7651 -3.2045 -1.2715
  284MOL0     H39132   2.548   7.377   0.023 -0.2940  1.2385  0.4911
  284MOL0     H39133   2.665   7.100  -0.003 -0.6026 -0.5672  0.1337
  284MOL0     H39134   2.669   7.196  -0.144  0.4019  0.5615  0.9257
  284MOL0     H39135   2.418   7.156   0.022  1.1785  1.5008 -0.0190
  284MOL0     H39136   2.427   7.227  -0.137 -3.1608 -2.3551 -0.7306
  284MOL0     H39137   2.469   6.947  -0.056  0.6743  1.6043  0.8556
  284MOL0     H39138   2.498   6.994  -0.223  1.3325  0.2741  0.2875
  284MOL0     H39139   2.236   7.003  -0.083 -3.2200  1.8864 -2.1202
  284MOL0     H39140   2.250   7.062  -0.241 -0.3798 -0.7998 -2.2031
  284MOL0     H39141   2.196   6.767  -0.061  3.1303  1.6088  0.4467
  284MOL0     H39142   2.088   6.491  -0.304 -1.7527 -0.3304  1.1394
  284MOL0     H39143   2.135   6.505  -0.134 -1.2364 -0.7227 -0.2914
  284MOL0     H39144   2.258   6.321  -0.263  0.2882 -0.1491  1.9463
  284MOL0     H39145   2.322   6.437  -0.371 -0.3024  0.5507 -0.9506
  284MOL0     H39146   2.418   6.542  -0.150 -0.3931 -0.8694  3.7636
  284MOL0     H39147   2.397   6.385  -0.075  1.6294 -0.1186 -0.2729
  284MOL0     H39148   2.544   6.465  -0.317  1.4344  1.1628  1.4996
  284MOL0     H39149   2.615   6.435  -0.163 -0.3688  0.4100 -0.4018
  284MOL0     H39150   2.629   6.296  -0.003 -0.6496  0.0552 -0.3932
  284MOL0     H39151   2.892   6.138   0.146  0.0382 -0.7700 -3.6683
  284MOL0     H39152   2.763   6.078   0.252  1.2782  0.6408 -0.2588
  284MOL0     H39153   2.756   6.246   0.186  2.4092  1.6523  0.4004
  284MOL0     H39154   2.508   5.595   0.075  0.8109  1.5289 -2.6595
  284MOL0     H39155   2.501   5.384   0.225  1.2677 -0.3829  2.7429
  284MOL0     H39156   2.865   5.204   0.397 -0.5867 -1.7353  1.5659
  284MOL0     H39157   2.821   5.344   0.512  0.5334 -0.2627  0.7313
  284MOL0     H39158   2.628   5.192   0.583  1.0624  0.2346 -0.9363
  284MOL0     H39159   2.723   5.059   0.514  0.0320 -0.2644 -1.4983
  284MOL0     H39160   2.786   5.071   0.736  1.4435 -0.9854 -1.5143
  284MOL0     H39161   2.774   5.249   0.733 -0.5562  0.8861 -0.1157
  284MOL0     H39162   2.996   5.236   0.587  2.9522  1.0806  1.6971
  284MOL0     H39163   3.014   5.071   0.634 -0.9324 -0.2815  1.1345
  284MOL0     H39164   2.989   5.311   0.819 -1.4667  0.5950 -2.4228
  284MOL0     H39165   2.991   5.144   0.875 -2.9221  0.8283  0.0549
  284MOL0     H39166   3.210   5.131   0.703  1.4425  0.6046 -0.6781
  284MOL0     H39167   3.213   5.172   0.885  3.3854  1.7862 -1.0292
  284MOL0     H39168   3.325   5.348   0.813 -1.6948  0.6056  1.9278
  284MOL0     H39169   3.165   5.412   0.784  1.0843  2.0961 -2.4317
  284MOL0     H39170   3.164   5.345   0.549 -0.4458  2.5299  0.6194
  284MOL0     H39171   3.339   5.282   0.573  3.3625  3.3485  1.0638
  284MOL0     H39172   2.927   5.407   0.287  0.6888  1.4390  0.9149
  284MOL0     H39173   2.941   5.597   0.155  0.9570  0.2878  2.7608
  284MOL0     H39174   2.677   5.849  -0.190 -0.7733  0.0656 -0.7469
  284MOL0     H39175   2.588   6.015  -0.318  0.3397  1.3776 -0.8105
  284MOL0     H39176   3.323   7.262   0.289  3.7758  1.0190  0.7407
  284MOL0     H39177   3.520   7.394   0.335  1.1264 -0.5897 -2.8948
  284MOL0     H39178   3.744   7.769   0.273 -0.2083 -4.1497 -0.7510
  284MOL0     H39179   3.990   7.847   0.305  2.1457 -0.5467 -0.1189
  284MOL0     H39180   4.153   7.935   0.697  3.7481  1.3377 -0.8252
  284MOL0     H39181   4.160   7.762   0.717  0.5448  1.5734  2.5496
  284MOL0     H39182   4.386   7.849   0.721 -1.6530 -0.3156  0.7318
  284MOL0     H39183   4.369   7.906   0.555  0.5089  0.0978  0.4169
  284MOL0     H39184   4.473   7.655   0.641  0.3422 -1.8570 -1.4275
  284MOL0     H39185   4.315   7.621   0.560 -0.8267  0.5839 -1.3555
  284MOL0     H39186   4.345   7.736   0.374 -0.4649 -0.0379  1.4680
  284MOL0     H39187   4.461   7.612   0.389  2.9233  1.5117 -1.9065
  284MOL0     H39188   4.709   7.950   0.327  0.8709  0.1921 -0.1121
  284MOL0     H39189   3.942   7.740   0.721  3.2309 -0.3370 -1.0004
  284MOL0     H39190   3.747   7.679   0.807  2.0669  2.6745 -0.1489
  284MOL0     H39191   3.596   7.722   0.726  1.1696  0.8889 -0.4739
  284MOL0     H39192   3.674   7.557   0.691  1.7498  1.1088 -1.7497
  285MOL0     O39193   3.427   7.685   6.483 -0.0266 -0.1026  0.1378
  285MOL0     C39194   3.478   7.572   6.492 -0.5596 -0.0705  0.4433
  285MOL0     O39195   3.601   7.544   6.529 -0.0110  0.2123 -0.0392
  285MOL0     C39196   3.694   7.650   6.550 -0.3887 -0.1027 -0.4874
  285MOL0     C39197   3.779   7.653   6.654 -0.4454 -0.0483  0.6574
  285MOL0     C39198   3.877   7.753   6.674  0.2054  0.3646 -1.2975
  285MOL0     C39199   3.885   7.861   6.578 -0.8417  0.5803 -0.2035
  285MOL0     O39200   4.001   7.945   6.589  0.3624 -0.3383 -0.1388
  285MOL0     C39201   4.013   8.007   6.719  0.6325 -0.1654 -0.5187
  285MOL0     C39202   4.012   8.160   6.702  0.9598 -1.1955  0.3766
  285MOL0     C39203   4.136   8.217   6.625 -0.2279 -0.0298 -0.3017
  285MOL0     C39204   4.122   8.200   6.469 -0.2579  0.3289  0.0874
  285MOL0     C39205   4.233   8.290   6.392  0.5357 -0.6762  0.4801
  285MOL0     C39206   4.370   8.296   6.476  0.0575 -0.2414 -0.0377
  285MOL0     C39207   4.480   8.366   6.395 -0.1641 -0.0601  0.5454
  285MOL0     C39208   4.628   8.321   6.417  0.3613 -0.1405 -0.3879
  285MOL0     N39209   4.693   8.370   6.542  0.3754 -0.0900  0.0323
  285MOL0     C39210   4.661   8.487   6.607 -0.0187  0.4030 -0.3752
  285MOL0     C39211   4.771   8.495   6.689  0.1922 -1.3557 -0.2490
  285MOL0     C39212   4.787   8.623   6.764 -0.3183 -1.0875 -0.9656
  285MOL0     C39213   4.918   8.635   6.830  0.8664 -0.0550 -0.0025
  285MOL0     C39214   4.926   8.776   6.896 -0.4301  0.1998 -0.2368
  285MOL0     C39215   5.063   8.781   6.964 -0.0897 -0.0243  0.9740
  285MOL0     O39216   5.075   8.906   7.033 -0.0929  0.2547 -0.1569
  285MOL0     C39217   5.056   8.909   7.171 -0.8720  0.7480 -0.2510
  285MOL0     C39218   5.120   9.018   7.248 -0.7434 -0.4559  0.0419
  285MOL0     C39219   5.138   9.011   7.392  0.1706 -0.1902  0.7289
  285MOL0     C39220   5.238   9.116   7.461 -0.0125  0.9812  0.2555
  285MOL0     C39221   5.086   8.895   7.457  0.0434  0.3519  0.2596
  285MOL0     C39222   5.094   8.879   7.613  0.3357 -1.2355  0.0863
  285MOL0     O39223   5.068   8.752   7.651  0.6941  0.0505 -0.4643
  285MOL0     C39224   5.103   8.710   7.782 -0.1394 -0.3667  0.2258
  285MOL0     C39225   5.165   8.584   7.803  0.2293 -0.7006  0.1305
  285MOL0     C39226   5.204   8.538   7.929 -0.5444 -0.4272  0.0153
  285MOL0     C39227   5.184   8.619   8.041 -1.6341 -0.2607 -0.4769
  285MOL0     O39228   5.232   8.576   8.162 -0.9331 -0.6548 -0.5053
  285MOL0     C39229   5.169   8.459   8.212 -0.5075 -0.3918  0.9308
  285MOL0     C39230   5.185   8.472   8.370  0.1235 -0.0525 -0.5581
  285MOL0     C39231   5.333   8.469   8.410  0.2284  0.0545  0.3857
  285MOL0     C39232   5.348   8.443   8.555 -0.2175 -0.2550  0.8459
  285MOL0     C39233   5.498   8.412   8.583  0.6505 -0.4095 -0.6683
  285MOL0     C39234   5.522   8.425   8.737  0.2110 -0.0730  0.3058
  285MOL0     C39235   5.667   8.390   8.772 -0.0362  1.8907  0.0353
  285MOL0     C39236   5.733   8.502   8.858  0.4472  0.4039  0.1839
  285MOL0    Cl39237   5.883   8.449   8.942  0.2195  0.3105 -0.4371
  285MOL0     C39238   5.118   8.740   8.028 -1.0847  0.0151  0.3579
  285MOL0     C39239   5.068   8.777   7.902 -0.7472 -0.7379  1.3822
  285MOL0     O39240   5.119   8.971   7.688 -0.1812 -0.2606  0.8887
  285MOL0     C39241   5.023   8.794   7.381  0.3724  0.3108  0.2779
  285MOL0     C39242   4.998   8.806   7.240  0.2580 -0.1509 -0.1051
  285MOL0     N39243   4.873   8.399   6.669  0.9782  0.3422 -0.8292
  285MOL0     N39244   4.820   8.326   6.573 -0.1857 -0.1057 -0.0414
  285MOL0     C39245   3.810   7.852   6.463 -0.3037 -0.1730 -0.2913
  285MOL0     C39246   3.711   7.750   6.450 -0.9351 -0.3957  0.4551
  285MOL0     C39247   3.389   7.461   6.462 -0.8063  0.0568  0.0291
  285MOL0     C39248   3.446   7.332   6.481 -0.0908 -0.5058  0.5503
  285MOL0     C39249   3.373   7.215   6.471 -0.8870 -0.4560  0.2199
  285MOL0     C39250   3.241   7.232   6.432  0.0972 -0.6884  0.1386
  285MOL0     O39251   3.173   7.112   6.421 -0.0810 -0.7493  0.2877
  285MOL0     C39252   3.035   7.115   6.407  0.2344 -0.7032  0.6943
  285MOL0     C39253   2.995   6.963   6.415  0.2831  1.1544  0.8571
  285MOL0     C39254   2.854   6.949   6.472  0.1368 -0.3119  0.9073
  285MOL0     C39255   2.806   6.804   6.495 -0.6706 -0.4341 -0.3813
  285MOL0     C39256   2.787   6.722   6.369  0.4550 -0.3053  0.3811
  285MOL0     C39257   2.775   6.657   6.271 -0.2980  1.0162 -0.1543
  285MOL0     C39258   3.184   7.355   6.402  0.2611 -0.4016 -0.0089
  285MOL0     C39259   3.259   7.472   6.413  0.1045  0.0124 -0.3129
  285MOL0     C39260   3.179   7.599   6.396 -0.3513  0.3439  0.3760
  285MOL0     H39261   3.770   7.566   6.719  0.1404 -0.7701 -0.2130
  285MOL0     H39262   3.941   7.765   6.761  0.3674  1.5004 -1.5622
  285MOL0     H39263   4.106   7.980   6.770  0.2346 -0.2237  0.1970
  285MOL0     H39264   3.930   7.981   6.786  0.3678 -0.4181 -0.9422
  285MOL0     H39265   3.919   8.180   6.646 -1.0064  0.4075  3.9068
  285MOL0     H39266   4.023   8.216   6.795  3.1596 -0.1096 -0.4767
  285MOL0     H39267   4.140   8.322   6.655  3.9486  0.0828 -0.6559
  285MOL0     H39268   4.231   8.170   6.654 -0.6116 -2.5112 -2.5964
  285MOL0     H39269   4.116   8.096   6.433 -0.3686  1.3136 -2.9878
  285MOL0     H39270   4.019   8.223   6.441 -0.7903 -1.6184  0.2775
  285MOL0     H39271   4.205   8.394   6.374  1.4678 -0.5019 -0.0027
  285MOL0     H39272   4.249   8.252   6.291  1.9033  0.9178  0.0459
  285MOL0     H39273   4.364   8.333   6.579 -1.8465 -0.1404 -0.1480
  285MOL0     H39274   4.393   8.192   6.501  0.1490  0.0364  1.0920
  285MOL0     H39275   4.464   8.474   6.406 -1.1078 -0.4537  4.3112
  285MOL0     H39276   4.463   8.326   6.294  1.4697 -1.7493  0.9007
  285MOL0     H39277   4.628   8.213   6.436 -2.4136  0.1431  1.8829
  285MOL0     H39278   4.682   8.350   6.327  0.8064 -0.2526 -0.1612
  285MOL0     H39279   4.583   8.563   6.606  2.2121  2.8730  0.1662
  285MOL0     H39280   4.710   8.627   6.843  0.5158 -0.7130 -0.1560
  285MOL0     H39281   4.774   8.715   6.708 -1.1913  0.4297  1.5562
  285MOL0     H39282   4.933   8.566   6.913 -0.2349 -2.0939 -1.4099
  285MOL0     H39283   5.002   8.634   6.760  0.9176  1.7563 -0.0038
  285MOL0     H39284   4.924   8.853   6.819  1.1363  3.2109  2.5313
  285MOL0     H39285   4.843   8.795   6.965 -0.9886  2.5687 -1.4572
  285MOL0     H39286   5.087   8.693   7.023  2.8878 -2.3382 -3.1073
  285MOL0     H39287   5.145   8.784   6.891 -1.6822 -0.9211 -0.9378
  285MOL0     H39288   5.178   9.103   7.213 -1.1457 -0.9369 -1.9296
  285MOL0     H39289   5.181   9.184   7.525 -2.1625  1.3177 -1.8577
  285MOL0     H39290   5.291   9.180   7.390 -1.2794  0.7022 -1.0017
  285MOL0     H39291   5.318   9.060   7.510  1.2152  2.5054  0.0673
  285MOL0     H39292   5.197   8.512   7.728 -0.7504 -0.5020 -0.4998
  285MOL0     H39293   5.244   8.437   7.927  0.1449 -0.1537 -0.8583
  285MOL0     H39294   5.066   8.480   8.182  0.3083  3.3048  0.2354
  285MOL0     H39295   5.219   8.369   8.173  2.4292  1.0532  1.0833
  285MOL0     H39296   5.139   8.566   8.405  0.3165  0.2828 -1.1854
  285MOL0     H39297   5.129   8.387   8.408 -2.7090  2.1796  0.6770
  285MOL0     H39298   5.371   8.570   8.391 -0.1135 -0.3166 -2.8344
  285MOL0     H39299   5.384   8.388   8.356  1.5487  1.0607  0.0756
  285MOL0     H39300   5.309   8.346   8.588  1.5622 -0.8809  1.2040
  285MOL0     H39301   5.304   8.525   8.613  2.0299  1.6603 -0.0056
  285MOL0     H39302   5.511   8.307   8.557 -3.3361 -2.0291  2.6770
  285MOL0     H39303   5.564   8.475   8.524  0.1205  0.8441  0.0291
  285MOL0     H39304   5.456   8.355   8.788  0.0076 -0.5763 -0.6262
  285MOL0     H39305   5.491   8.528   8.757 -1.9105 -0.7779  0.9185
  285MOL0     H39306   5.727   8.384   8.680  1.8486 -1.7921  1.3140
  285MOL0     H39307   5.665   8.294   8.824  1.5711  3.2858  2.9115
  285MOL0     H39308   5.665   8.539   8.935  2.4832 -1.0077  2.8293
  285MOL0     H39309   5.772   8.579   8.790 -2.3553  0.3463 -1.6642
  285MOL0     H39310   5.100   8.801   8.116  0.0248  1.4052 -0.3274
  285MOL0     H39311   4.994   8.856   7.888 -3.3379 -3.3223 -0.8325
  285MOL0     H39312   4.971   8.712   7.431 -2.6339  1.7767 -0.2154
  285MOL0     H39313   4.953   8.717   7.198 -1.0723 -0.3507  1.6296
  285MOL0     H39314   3.822   7.916   6.377 -0.2593  0.5784  0.2649
  285MOL0     H39315   3.651   7.741   6.360 -0.3880  2.5019 -0.2849
  285MOL0     H39316   3.552   7.317   6.498  0.5990 -0.4031 -2.9437
  285MOL0     H39317   3.405   7.113   6.490  2.0045  0.3024 -0.1071
  285MOL0     H39318   2.980   7.172   6.482 -2.3760  1.1989 -2.3554
  285MOL0     H39319   3.010   7.149   6.306  1.6598 -1.7087 -0.0357
  285MOL0     H39320   3.062   6.915   6.487  0.2908  2.5796  1.8591
  285MOL0     H39321   3.000   6.897   6.328 -0.5760  0.1764  1.5224
  285MOL0     H39322   2.851   7.016   6.558  2.5826  0.2800  0.6011
  285MOL0     H39323   2.779   6.990   6.403  2.6474  2.1907 -0.5193
  285MOL0     H39324   2.708   6.809   6.543 -1.1059  3.2781 -1.3065
  285MOL0     H39325   2.876   6.741   6.551 -0.6082  1.5006  1.8743
  285MOL0     H39326   2.766   6.600   6.180 -2.1746 -0.9912  1.1744
  285MOL0     H39327   3.081   7.371   6.372  0.0500  0.2180  0.9802
  285MOL0     H39328   3.178   7.664   6.484 -0.0420 -0.7066  1.1780
  285MOL0     H39329   3.225   7.647   6.309  0.4579 -0.2305  0.4802
  285MOL0     H39330   3.072   7.589   6.374 -0.6118  1.0605  1.2609
  286MOL0     O39331  10.519  10.995   9.999 -0.1569 -0.6405 -0.1343
  286MOL0     C39332  10.556  10.928  10.095  0.1960  0.2451  0.6954
  286MOL0     O39333  10.519  10.950  10.227  0.0013  0.2762 -0.3585
  286MOL0     C39334  10.431  11.048  10.251  0.0813 -0.2418  0.1963
  286MOL0     C39335  10.443  11.178  10.209  0.3073  0.1620  0.0300
  286MOL0     C39336  10.352  11.279  10.260  0.3955  0.7987 -0.7914
  286MOL0     C39337  10.250  11.237  10.347 -0.0065 -0.2852 -0.2570
  286MOL0     O39338  10.155  11.314  10.404  0.0981 -0.5210  0.1837
  286MOL0     C39339  10.175  11.454  10.401  0.1551  1.4502  0.0948
  286MOL0     C39340  10.041  11.513  10.453  0.2057 -0.2334  0.3340
  286MOL0     C39341  10.049  11.663  10.493  0.1772  0.3476  0.1775
  286MOL0     C39342  10.065  11.762  10.372  0.5476 -0.9556 -0.4701
  286MOL0     C39343  10.050  11.904  10.415  0.0131  0.3684  0.4888
  286MOL0     C39344  10.112  11.998  10.295  0.2394 -0.6482  0.1922
  286MOL0     C39345  10.035  12.130  10.285 -0.3050  0.1693 -0.4975
  286MOL0     C39346   9.898  12.119  10.228 -0.2164  0.0599  0.0881
  286MOL0     N39347   9.874  12.101  10.092 -0.6036 -0.1147  0.7877
  286MOL0     C39348   9.962  12.132   9.984 -0.0294  0.4144 -0.4870
  286MOL0     C39349   9.906  12.054   9.880  0.1282  0.4726 -0.7307
  286MOL0     C39350   9.966  12.074   9.744 -1.1482 -0.4796  0.4237
  286MOL0     C39351   9.889  11.989   9.635 -0.0656 -0.5035  0.6681
  286MOL0     C39352   9.917  11.831   9.637 -0.5276 -1.2826 -0.4606
  286MOL0     C39353   9.823  11.779   9.523 -0.1015 -0.6361 -0.3561
  286MOL0     O39354   9.877  11.842   9.400  0.3137  0.3766  0.3350
  286MOL0     C39355   9.799  11.836   9.288 -0.7392 -0.5223 -0.5619
  286MOL0     C39356   9.852  11.884   9.166 -0.8125  0.4680 -0.9516
  286MOL0     C39357   9.784  11.864   9.046  0.7264 -0.9891  0.2134
  286MOL0     C39358   9.845  11.941   8.923  0.6037  0.4205 -0.5952
  286MOL0     C39359   9.655  11.814   9.047  0.2537 -0.2447 -0.6287
  286MOL0     C39360   9.554  11.811   8.927  0.0855  1.1616 -0.6749
  286MOL0     O39361   9.424  11.785   8.966  0.4958 -0.7399  0.6149
  286MOL0     C39362   9.327  11.810   8.872  0.6773 -0.7652  1.0082
  286MOL0     C39363   9.220  11.897   8.902  0.2185  0.4296 -0.6360
  286MOL0     C39364   9.115  11.921   8.821 -0.4062 -0.2750  0.1416
  286MOL0     C39365   9.106  11.849   8.700 -0.5400  0.6989 -1.1484
  286MOL0     O39366   9.003  11.861   8.615 -0.7633  0.5090 -0.9836
  286MOL0     C39367   8.879  11.798   8.652 -0.5193 -0.5324  0.4741
  286MOL0     C39368   8.881  11.655   8.597 -0.0068 -0.1839  0.3060
  286MOL0     C39369   8.738  11.587   8.586  1.1477 -0.3525  0.6514
  286MOL0     C39370   8.663  11.591   8.446  0.4904  0.4420 -0.3237
  286MOL0     C39371   8.538  11.493   8.422 -0.7491 -0.8360 -0.0486
  286MOL0     C39372   8.415  11.547   8.493 -0.0179 -0.4410 -0.5055
  286MOL0     C39373   8.288  11.470   8.454  0.1834  0.2837 -0.0179
  286MOL0     C39374   8.188  11.486   8.567 -0.1319 -0.5865  0.3080
  286MOL0    Cl39375   8.120  11.649   8.603 -0.6131  0.2607 -0.0072
  286MOL0     C39376   9.206  11.753   8.671  0.7221 -0.1686  0.4467
  286MOL0     C39377   9.309  11.725   8.754  0.2678  0.6295 -0.6565
  286MOL0     O39378   9.593  11.801   8.811  0.5141 -0.2680 -0.0064
  286MOL0     C39379   9.600  11.768   9.171  0.0555 -0.0075 -0.5734
  286MOL0     C39380   9.676  11.778   9.293  0.2375  0.9473  0.2379
  286MOL0     N39381   9.784  11.995   9.922 -0.6144 -0.4079 -0.5875
  286MOL0     N39382   9.774  12.024  10.046  0.4590  0.3849 -0.4499
  286MOL0     C39383  10.234  11.109  10.379 -0.6807  0.2886  0.9063
  286MOL0     C39384  10.324  11.018  10.335 -0.5045  0.7602  0.8587
  286MOL0     C39385  10.657  10.817  10.071 -0.6415 -0.3304 -0.2323
  286MOL0     C39386  10.708  10.756  10.191  0.4613 -0.6128  0.4029
  286MOL0     C39387  10.798  10.654  10.186  0.7155  0.0485  0.2318
  286MOL0     C39388  10.848  10.611  10.057 -0.6752 -0.5480 -0.2039
  286MOL0     O39389  10.937  10.507  10.032  0.3226 -0.8259 -0.2245
  286MOL0     C39390  10.979  10.430  10.149 -0.7251 -0.3114  0.9603
  286MOL0     C39391  10.891  10.315  10.193 -0.3373 -0.3150  0.7481
  286MOL0     C39392  10.931  10.258  10.339 -0.6595  0.3183  0.9196
  286MOL0     C39393  11.072  10.180  10.348 -0.6106  0.4738  0.6949
  286MOL0     C39394  11.200  10.258  10.356  0.5060 -1.1655  0.4810
  286MOL0     C39395  11.300  10.322  10.357  0.7790  0.5408  0.2718
  286MOL0     C39396  10.790  10.666   9.947 -0.6362 -0.2558 -0.3887
  286MOL0     C39397  10.690  10.762   9.949 -0.4361  0.1704  0.2946
  286MOL0     C39398  10.637  10.802   9.812 -0.0347 -0.8300  0.3638
  286MOL0     H39399  10.522  11.204  10.139 -0.8344 -0.5025 -1.5633
  286MOL0     H39400  10.365  11.381  10.225 -0.6400  0.4240 -2.3934
  286MOL0     H39401  10.188  11.489  10.299  1.4149 -0.4156 -0.4312
  286MOL0     H39402  10.263  11.490  10.455  1.1786 -1.6258  0.6518
  286MOL0     H39403   9.968  11.498  10.373 -0.5837  0.1792  0.9715
  286MOL0     H39404  10.010  11.447  10.534  0.9336  1.2151  1.8727
  286MOL0     H39405   9.963  11.693  10.554  1.5259  0.5184  2.1174
  286MOL0     H39406  10.140  11.679  10.553 -1.4251  0.0730  2.8688
  286MOL0     H39407  10.157  11.753  10.314  1.0423 -0.2318  0.1784
  286MOL0     H39408   9.985  11.726  10.306 -0.7140  0.6914  0.1096
  286MOL0     H39409  10.104  11.919  10.509  2.0598  1.5684 -0.8050
  286MOL0     H39410   9.945  11.934  10.423 -0.2010  0.4921 -1.9737
  286MOL0     H39411  10.213  12.023  10.329  0.3841  0.2771 -0.8417
  286MOL0     H39412  10.122  11.944  10.201  1.8187 -0.1666  0.0430
  286MOL0     H39413  10.091  12.192  10.214 -0.4311 -1.0143 -1.6715
  286MOL0     H39414  10.029  12.177  10.384 -2.8117 -0.4557 -0.2787
  286MOL0     H39415   9.826  12.062  10.288 -1.6097  1.3793 -0.2605
  286MOL0     H39416   9.863  12.222  10.242 -1.5037  0.0103 -2.3054
  286MOL0     H39417  10.040  12.208   9.978  0.0776  0.2632 -1.0091
  286MOL0     H39418  10.073  12.054   9.751 -0.5695  1.7428 -1.0788
  286MOL0     H39419   9.956  12.181   9.722 -2.0097 -0.7485 -0.5595
  286MOL0     H39420   9.783  12.006   9.653  0.0763  0.3617  0.7546
  286MOL0     H39421   9.901  12.034   9.535 -1.6119 -2.0241 -0.2528
  286MOL0     H39422  10.021  11.814   9.610 -0.2673 -1.1218  0.3925
  286MOL0     H39423   9.894  11.793   9.738 -3.3248  1.7648  0.2430
  286MOL0     H39424   9.821  11.670   9.514 -3.1135 -0.7294  0.2143
  286MOL0     H39425   9.719  11.805   9.548  0.5650  2.0039 -0.0536
  286MOL0     H39426   9.946  11.938   9.161 -0.7585  0.3388 -1.3287
  286MOL0     H39427   9.869  11.870   8.843  2.7690  2.1399 -1.6014
  286MOL0     H39428   9.927  12.009   8.952 -0.4343  0.9472  1.2637
  286MOL0     H39429   9.772  12.010   8.880 -1.5277 -0.9302  0.7010
  286MOL0     H39430   9.247  11.942   8.997 -2.9496 -1.9852  1.6233
  286MOL0     H39431   9.041  11.996   8.849  1.3845  1.3696  0.6969
  286MOL0     H39432   8.853  11.804   8.758 -0.0945  0.9921  0.5255
  286MOL0     H39433   8.805  11.849   8.590  0.4283 -1.7728 -1.7611
  286MOL0     H39434   8.931  11.639   8.501  0.3635  0.3698  0.3974
  286MOL0     H39435   8.951  11.604   8.664  1.9647  0.4190 -1.1899
  286MOL0     H39436   8.675  11.639   8.658  0.0555  1.5431 -1.5248
  286MOL0     H39437   8.753  11.484   8.621  1.2256 -0.3425  0.6484
  286MOL0     H39438   8.741  11.575   8.371 -1.1459  1.5024 -2.3410
  286MOL0     H39439   8.625  11.689   8.418 -3.1780 -1.6407 -3.6584
  286MOL0     H39440   8.507  11.495   8.317  1.7946  2.0215 -0.8790
  286MOL0     H39441   8.570  11.394   8.458  3.0122  0.8028  1.6434
  286MOL0     H39442   8.393  11.653   8.477  1.1558  0.3254  2.2517
  286MOL0     H39443   8.429  11.537   8.601  1.3235 -0.1663 -0.6362
  286MOL0     H39444   8.303  11.363   8.439 -0.6037  0.2365 -0.4955
  286MOL0     H39445   8.245  11.520   8.367 -3.1178 -2.9632 -0.4567
  286MOL0     H39446   8.217  11.437   8.660 -0.2399  2.9056  2.3775
  286MOL0     H39447   8.104  11.429   8.527  0.9685 -1.1372 -1.3209
  286MOL0     H39448   9.192  11.697   8.579  1.0280 -0.1258  0.3727
  286MOL0     H39449   9.378  11.647   8.722 -0.2875 -1.0241  1.8818
  286MOL0     H39450   9.502  11.721   9.183  0.6831 -1.7962 -1.9780
  286MOL0     H39451   9.615  11.754   9.380 -1.4615 -2.4197 -1.6574
  286MOL0     H39452  10.153  11.091  10.450 -1.8742 -1.7877 -0.8595
  286MOL0     H39453  10.320  10.918  10.376 -3.4487  0.7585  0.7438
  286MOL0     H39454  10.673  10.787  10.289 -1.0629 -2.1800  0.4013
  286MOL0     H39455  10.822  10.590  10.269 -2.7024 -1.8483 -0.0672
  286MOL0     H39456  11.073  10.378  10.129 -2.9958 -5.0947  1.0555
  286MOL0     H39457  10.997  10.498  10.233 -0.7919 -0.8615  1.4339
  286MOL0     H39458  10.896  10.245  10.109 -1.3156  1.1248 -0.5590
  286MOL0     H39459  10.790  10.357  10.192  0.3623  1.5125  1.7411
  286MOL0     H39460  10.950  10.343  10.405 -1.2128  0.5418  0.7986
  286MOL0     H39461  10.851  10.186  10.361  0.7243 -1.6803 -0.2571
  286MOL0     H39462  11.080  10.117  10.259  1.8608  0.5975  0.7697
  286MOL0     H39463  11.075  10.119  10.439 -3.3759  1.5137  1.6183
  286MOL0     H39464  11.402  10.356  10.360  1.0750 -0.3867  1.2608
  286MOL0     H39465  10.818  10.634   9.847  0.0160  1.9048 -0.9425
  286MOL0     H39466  10.529  10.821   9.813  0.3281  1.8459 -1.1740
  286MOL0     H39467  10.682  10.899   9.791 -3.3430  0.4415 -1.8338
  286MOL0     H39468  10.667  10.729   9.736  1.9023 -1.1392  1.3857
  287MOL0     O39469   0.344   9.707   5.951 -0.0261  1.4567 -0.6866
  287MOL0     C39470   0.399   9.754   5.855 -0.2957  0.6318 -0.9652
  287MOL0     O39471   0.451   9.883   5.854 -0.2255  0.0769  0.7660
  287MOL0     C39472   0.408   9.982   5.931  0.8391 -0.1414  0.4752
  287MOL0     C39473   0.497  10.082   5.979  0.9269  1.3929 -0.5270
  287MOL0     C39474   0.458  10.192   6.049 -0.0640  0.5972 -0.5937
  287MOL0     C39475   0.321  10.215   6.071  0.3164  1.0346 -0.3900
  287MOL0     O39476   0.261  10.298   6.150  0.6118  0.9428 -0.8709
  287MOL0     C39477   0.335  10.376   6.250 -0.2222 -1.1563 -0.6745
  287MOL0     C39478   0.403  10.305   6.367 -0.1196 -0.6021 -0.8025
  287MOL0     C39479   0.467  10.409   6.457 -0.3350 -0.1497 -0.6693
  287MOL0     C39480   0.538  10.351   6.586  0.6210  0.1766  0.4640
  287MOL0     C39481   0.614  10.465   6.660 -0.4185 -0.3933 -0.3892
  287MOL0     C39482   0.519  10.560   6.738  0.1029  0.3712 -0.1807
  287MOL0     C39483   0.613  10.650   6.827  0.4189 -0.8243  0.0549
  287MOL0     C39484   0.542  10.703   6.956 -0.0658  0.3582  0.1060
  287MOL0     N39485   0.504  10.585   7.032  0.4994  0.6245 -0.1227
  287MOL0     C39486   0.583  10.504   7.086 -1.0191  0.4864  0.1325
  287MOL0     C39487   0.515  10.398   7.135  0.3040 -0.2878 -1.0639
  287MOL0     C39488   0.583  10.278   7.208  0.4960 -0.8142 -0.6819
  287MOL0     C39489   0.691  10.222   7.111 -0.5168 -0.3430 -0.1539
  287MOL0     C39490   0.758  10.116   7.196 -0.2704  0.6868 -1.3183
  287MOL0     C39491   0.804   9.987   7.114 -1.4965  0.7299  0.1105
  287MOL0     O39492   0.923  10.002   7.029  0.2685 -0.0014 -0.4063
  287MOL0     C39493   0.936   9.944   6.908 -0.7029  0.2019 -0.9962
  287MOL0     C39494   0.837   9.938   6.824  0.5553  0.2558 -0.3094
  287MOL0     C39495   0.849   9.876   6.699  0.8126  0.7101 -0.6010
  287MOL0     C39496   0.716   9.870   6.604 -0.7782  0.6453 -0.1959
  287MOL0     C39497   0.978   9.815   6.668  1.3260 -0.0878  0.0108
  287MOL0     C39498   0.977   9.720   6.556 -0.4509  0.2584  0.1242
  287MOL0     O39499   1.096   9.727   6.482 -0.5068 -0.1392  0.2350
  287MOL0     C39500   1.093   9.639   6.372  0.0393  0.0320 -0.0119
  287MOL0     C39501   1.062   9.499   6.378 -0.4047  0.2407 -0.3223
  287MOL0     C39502   1.078   9.412   6.261  0.4512  0.6202 -0.5934
  287MOL0     C39503   1.128   9.464   6.143 -0.7846 -0.0362  0.3536
  287MOL0     O39504   1.168   9.376   6.042  0.4316  0.2044 -0.3766
  287MOL0     C39505   1.228   9.432   5.922  0.0853  0.4359  0.6063
  287MOL0     C39506   1.240   9.341   5.801 -0.0030  0.2199 -0.1996
  287MOL0     C39507   1.299   9.197   5.818  0.2190  1.3023  0.9852
  287MOL0     C39508   1.197   9.110   5.890 -0.1943  0.4849  0.1174
  287MOL0     C39509   1.203   8.964   5.845 -0.3264 -0.2302  0.1659
  287MOL0     C39510   1.323   8.900   5.901 -0.6420 -0.0844 -0.7684
  287MOL0     C39511   1.363   8.754   5.863 -0.2910 -0.2216 -0.3225
  287MOL0     C39512   1.447   8.765   5.736 -0.0796  0.3127  0.8125
  287MOL0    Cl39513   1.435   8.597   5.665  0.0344 -0.2613  0.0752
  287MOL0     C39514   1.150   9.604   6.137  0.6753  0.3939 -0.0186
  287MOL0     C39515   1.141   9.679   6.249 -0.0702  1.3342 -0.0822
  287MOL0     O39516   0.885   9.642   6.531 -0.3319  0.3008  0.8798
  287MOL0     C39517   1.089   9.837   6.752  0.0349 -1.1012 -0.0269
  287MOL0     C39518   1.066   9.905   6.869  0.4683 -0.3885 -0.0084
  287MOL0     N39519   0.375  10.418   7.100 -0.0207  0.3627  0.4319
  287MOL0     N39520   0.371  10.535   7.051 -0.7572 -0.2475  0.8310
  287MOL0     C39521   0.231  10.119   6.017 -0.2986  0.0546 -0.9525
  287MOL0     C39522   0.275  10.003   5.949 -0.4459  0.1125  0.6753
  287MOL0     C39523   0.420   9.665   5.744 -0.2800  0.0175  0.5570
  287MOL0     C39524   0.503   9.553   5.755  0.0789  0.1544  0.3820
  287MOL0     C39525   0.527   9.478   5.642 -0.0811 -0.2721 -0.5907
  287MOL0     C39526   0.475   9.502   5.520 -0.7159  0.2037 -0.3843
  287MOL0     O39527   0.484   9.417   5.416  0.8616  0.7581  0.7518
  287MOL0     C39528   0.613   9.350   5.402  0.0074  0.3038 -0.6294
  287MOL0     C39529   0.669   9.334   5.257 -0.1924 -0.0395  0.7304
  287MOL0     C39530   0.567   9.273   5.156  1.5856  0.2548 -0.8028
  287MOL0     C39531   0.620   9.252   5.007 -0.4587 -0.2692 -0.0664
  287MOL0     C39532   0.514   9.248   4.905  0.1715 -0.8560 -0.9474
  287MOL0     C39533   0.422   9.253   4.828 -0.3859  0.2852 -0.4473
  287MOL0     C39534   0.397   9.616   5.512 -0.5107  0.3729  0.7061
  287MOL0     C39535   0.368   9.698   5.619 -0.2881 -0.3865 -0.1109
  287MOL0     C39536   0.273   9.820   5.603 -0.3151  0.0477  0.7392
  287MOL0     H39537   0.603  10.071   5.959  1.0323 -1.1370  1.0970
  287MOL0     H39538   0.538  10.259   6.077 -0.3302  0.3190  0.9151
  287MOL0     H39539   0.278  10.461   6.287 -2.1265 -2.7470  0.1797
  287MOL0     H39540   0.422  10.420   6.200 -0.1903 -0.3431  0.0867
  287MOL0     H39541   0.333  10.245   6.425  0.3319 -0.9727 -0.6362
  287MOL0     H39542   0.490  10.259   6.319  0.4172  3.7241 -4.7226
  287MOL0     H39543   0.535  10.475   6.401 -1.5800  2.7987  1.0155
  287MOL0     H39544   0.389  10.474   6.498 -0.5166 -0.3390 -0.7186
  287MOL0     H39545   0.469  10.296   6.650 -1.1696  0.9093 -0.7439
  287MOL0     H39546   0.609  10.275   6.552 -0.7005 -0.9143  0.0913
  287MOL0     H39547   0.661  10.524   6.581  0.0283 -0.8803 -0.4997
  287MOL0     H39548   0.695  10.429   6.725  0.3193  1.7357 -0.0657
  287MOL0     H39549   0.467  10.613   6.658 -1.9057 -0.3037  0.5876
  287MOL0     H39550   0.450  10.499   6.798  1.5664 -3.9550 -2.4071
  287MOL0     H39551   0.652  10.731   6.766 -1.1415 -0.2888 -0.2760
  287MOL0     H39552   0.703  10.597   6.861  1.6113 -0.0979 -1.8031
  287MOL0     H39553   0.619  10.747   7.019  0.8325 -0.7432 -0.1995
  287MOL0     H39554   0.459  10.769   6.930 -1.7398 -0.3676  3.0919
  287MOL0     H39555   0.688  10.517   7.107 -0.9339  0.6480 -0.3867
  287MOL0     H39556   0.503  10.205   7.224 -0.1482  0.2782  1.2593
  287MOL0     H39557   0.620  10.306   7.307  0.1421  3.5768 -1.5852
  287MOL0     H39558   0.640  10.171   7.028  0.4997 -1.0976 -0.3309
  287MOL0     H39559   0.768  10.289   7.073 -0.3352  0.0167  0.8296
  287MOL0     H39560   0.835  10.158   7.260  0.7323 -1.6549 -0.9110
  287MOL0     H39561   0.678  10.079   7.260 -0.8205  1.7464 -1.3635
  287MOL0     H39562   0.822   9.906   7.186 -1.6577 -0.2948 -0.9623
  287MOL0     H39563   0.716   9.950   7.061 -1.0759 -0.7872  0.3971
  287MOL0     H39564   0.742   9.987   6.844  0.9569  1.3264 -0.9404
  287MOL0     H39565   0.747   9.879   6.500 -2.9626  2.3299 -0.7764
  287MOL0     H39566   0.656   9.957   6.632 -2.7575  0.1130 -2.4719
  287MOL0     H39567   0.663   9.775   6.613 -1.3182  0.6486 -2.5731
  287MOL0     H39568   1.051   9.458   6.478  0.4975  0.8539  0.0391
  287MOL0     H39569   1.070   9.305   6.280 -3.1863  0.3494 -2.8186
  287MOL0     H39570   1.184   9.524   5.882  1.2790  1.0132  0.5475
  287MOL0     H39571   1.328   9.472   5.945  2.8752 -3.2959 -3.3238
  287MOL0     H39572   1.150   9.319   5.744  0.9433 -3.7475 -0.4458
  287MOL0     H39573   1.299   9.382   5.718 -0.0712 -0.3703 -0.5406
  287MOL0     H39574   1.393   9.186   5.873 -0.4416 -0.3594  1.8786
  287MOL0     H39575   1.305   9.177   5.711 -2.0751  0.7201  0.9015
  287MOL0     H39576   1.095   9.142   5.868 -1.8615 -2.3408  2.8652
  287MOL0     H39577   1.209   9.125   5.998 -0.1596  1.3486 -0.0066
  287MOL0     H39578   1.120   8.909   5.889  0.0744 -1.0512 -0.0692
  287MOL0     H39579   1.203   8.964   5.735  0.7254  3.0611  0.0434
  287MOL0     H39580   1.315   8.903   6.010  1.8408  1.0537 -0.5335
  287MOL0     H39581   1.397   8.974   5.868 -0.6078  0.4470  0.4489
  287MOL0     H39582   1.277   8.687   5.848 -0.2216 -0.3497 -0.1517
  287MOL0     H39583   1.424   8.707   5.941 -0.7268  0.5241  0.4923
  287MOL0     H39584   1.546   8.807   5.754  0.5366  0.1322 -1.6772
  287MOL0     H39585   1.392   8.819   5.659  1.9183 -0.9427 -1.6640
  287MOL0     H39586   1.183   9.645   6.042  0.1014  1.2407  0.1426
  287MOL0     H39587   1.178   9.782   6.246  3.0818  0.2926 -0.6596
  287MOL0     H39588   1.188   9.798   6.734  1.4309  2.5806 -1.3744
  287MOL0     H39589   1.149   9.924   6.937  0.2779 -1.1744  0.4497
  287MOL0     H39590   0.125  10.127   6.036 -0.1639 -0.3488  0.0310
  287MOL0     H39591   0.201   9.930   5.919 -3.2841  2.1055  2.3174
  287MOL0     H39592   0.535   9.524   5.855  0.2737  1.7740  0.8199
  287MOL0     H39593   0.589   9.389   5.650 -0.1370 -0.2951 -0.4005
  287MOL0     H39594   0.688   9.410   5.455  0.5375 -1.4053  0.6292
  287MOL0     H39595   0.603   9.251   5.447  0.3697 -0.1176 -1.4667
  287MOL0     H39596   0.755   9.266   5.261  1.9615  2.4981  0.1181
  287MOL0     H39597   0.700   9.429   5.213 -0.0291  0.3509  1.6616
  287MOL0     H39598   0.507   9.190   5.196  0.2223  1.2870 -0.6240
  287MOL0     H39599   0.486   9.346   5.155 -1.5721 -2.9868 -1.3740
  287MOL0     H39600   0.661   9.150   5.013  0.7125  0.2546  1.7195
  287MOL0     H39601   0.699   9.323   4.981 -0.9857 -0.0687 -1.1699
  287MOL0     H39602   0.326   9.262   4.780 -1.9712  0.1573  2.4294
  287MOL0     H39603   0.350   9.637   5.416 -1.4790  0.5833  1.2140
  287MOL0     H39604   0.218   9.796   5.511  0.8865 -1.9441  0.5010
  287MOL0     H39605   0.194   9.819   5.679  0.7173  0.7430  1.8459
  287MOL0     H39606   0.326   9.915   5.591  0.4994 -0.5455 -0.6213
  288MOL0     O39607   4.512   5.563  10.820  0.6040 -0.6907 -0.7516
  288MOL0     C39608   4.453   5.624  10.730  0.3548  0.1560 -0.4180
  288MOL0     O39609   4.514   5.700  10.638 -0.3299 -0.4761  0.1279
  288MOL0     C39610   4.646   5.728  10.661  0.1878 -0.4635 -0.2951
  288MOL0     C39611   4.735   5.676  10.567  0.0150  0.0055  0.7629
  288MOL0     C39612   4.867   5.713  10.593  0.1046  1.1328 -0.0590
  288MOL0     C39613   4.904   5.791  10.704 -0.8639 -0.1872 -0.8108
  288MOL0     O39614   5.037   5.820  10.745 -0.1723  0.0961  0.4204
  288MOL0     C39615   5.140   5.790  10.650  0.1060  0.3264 -0.2689
  288MOL0     C39616   5.253   5.869  10.702 -0.5487  0.3006 -0.8329
  288MOL0     C39617   5.391   5.795  10.656 -0.6550 -0.9518 -0.3253
  288MOL0     C39618   5.417   5.762  10.510 -0.4185 -0.4023  0.6317
  288MOL0     C39619   5.472   5.894  10.444 -0.4310  0.5069  0.2533
  288MOL0     C39620   5.473   5.900  10.291 -0.5940 -0.1351 -0.1627
  288MOL0     C39621   5.524   5.767  10.205  1.4424 -0.3506 -0.0104
  288MOL0     C39622   5.666   5.728  10.232  0.8791  0.5151  0.5808
  288MOL0     N39623   5.770   5.829  10.224  1.1654  0.8483  0.1274
  288MOL0     C39624   5.791   5.923  10.130 -0.4801 -0.5726 -0.4335
  288MOL0     C39625   5.906   5.997  10.162  0.2720 -1.1761 -0.0671
  288MOL0     C39626   5.981   6.097  10.075 -0.8466 -0.1389  0.0385
  288MOL0     C39627   6.074   6.196  10.147 -0.6159  0.5190 -0.6937
  288MOL0     C39628   6.099   6.329  10.065  0.1644  0.2502 -0.0884
  288MOL0     C39629   6.214   6.410  10.140 -0.8018  0.8420 -0.4368
  288MOL0     O39630   6.336   6.341  10.126 -0.9565  0.5588 -0.6536
  288MOL0     C39631   6.388   6.352   9.999 -0.1591  0.2082 -0.1228
  288MOL0     C39632   6.411   6.473   9.938  0.1298 -0.2990 -0.2954
  288MOL0     C39633   6.474   6.476   9.808 -0.3060  0.6149  0.4116
  288MOL0     C39634   6.514   6.611   9.761  0.1010  0.5484 -0.1016
  288MOL0     C39635   6.496   6.353   9.736  0.9666  0.6310  0.2559
  288MOL0     C39636   6.561   6.350   9.598  0.2589 -0.0986 -1.2293
  288MOL0     O39637   6.557   6.227   9.532  0.1427  0.1599  0.0158
  288MOL0     C39638   6.583   6.225   9.398 -0.2809 -1.0442  0.5784
  288MOL0     C39639   6.705   6.159   9.371 -0.3516  0.5623 -0.0456
  288MOL0     C39640   6.739   6.132   9.239  0.5410  0.1380  0.1063
  288MOL0     C39641   6.658   6.177   9.134 -0.4360 -0.2651 -0.4780
  288MOL0     O39642   6.674   6.152   9.007 -0.2609 -0.3559 -0.3034
  288MOL0     C39643   6.810   6.188   8.968  1.1466  0.4865 -0.0055
  288MOL0     C39644   6.832   6.343   8.963 -0.6666  0.0168 -0.1547
  288MOL0     C39645   6.942   6.372   8.860 -0.8218  0.0352  0.4039
  288MOL0     C39646   6.890   6.348   8.715  0.4180 -0.5039  0.6131
  288MOL0     C39647   6.811   6.465   8.663 -0.4934 -0.3600 -0.3103
  288MOL0     C39648   6.751   6.421   8.528 -1.0436 -0.8147 -0.5053
  288MOL0     C39649   6.656   6.523   8.466 -0.2913  0.4779 -0.6136
  288MOL0     C39650   6.634   6.498   8.320  0.7233 -0.7293 -0.4847
  288MOL0    Cl39651   6.584   6.661   8.262 -0.2392 -0.0047 -0.5148
  288MOL0     C39652   6.542   6.252   9.163 -0.1960  0.0319  0.7785
  288MOL0     C39653   6.507   6.281   9.294  0.3118  0.7456  0.0917
  288MOL0     O39654   6.628   6.446   9.561  0.0034 -0.1638 -0.0675
  288MOL0     C39655   6.465   6.229   9.797  0.6513  0.4365 -0.9029
  288MOL0     C39656   6.413   6.233   9.927 -0.6738 -0.0806 -0.3778
  288MOL0     N39657   5.948   5.935  10.282 -0.2476  0.2375  0.2805
  288MOL0     N39658   5.866   5.844  10.309  0.9011 -0.3472 -0.0525
  288MOL0     C39659   4.801   5.835  10.789 -0.1988 -0.6606  0.0212
  288MOL0     C39660   4.672   5.807  10.764 -0.0243  0.2083  0.2428
  288MOL0     C39661   4.303   5.600  10.706 -0.8173 -0.3426 -0.2538
  288MOL0     C39662   4.244   5.672  10.611 -0.1725 -0.5328  1.0462
  288MOL0     C39663   4.110   5.669  10.583 -0.3934  0.5823  0.3271
  288MOL0     C39664   4.028   5.576  10.652  0.4983 -0.6975  0.2303
  288MOL0     O39665   3.891   5.588  10.613  0.2551 -0.5623 -0.0326
  288MOL0     C39666   3.793   5.490  10.666 -1.0710 -0.1485  0.6303
  288MOL0     C39667   3.736   5.520  10.809  0.4690  0.0908  0.4052
  288MOL0     C39668   3.591   5.461  10.820 -0.4781 -0.0447  0.3303
  288MOL0     C39669   3.525   5.471  10.959 -0.4539  0.1229 -0.7746
  288MOL0     C39670   3.600   5.391  11.061  0.5109 -1.3362 -0.1792
  288MOL0     C39671   3.665   5.333  11.135  0.1495 -0.1171  0.1295
  288MOL0     C39672   4.083   5.513  10.763 -0.1758  0.0824  0.1498
  288MOL0     C39673   4.219   5.527  10.792  0.3391  0.2864  0.3383
  288MOL0     C39674   4.258   5.451  10.914  0.0158  1.2368 -1.3836
  288MOL0     H39675   4.698   5.626  10.478 -0.7298  2.1781 -0.2217
  288MOL0     H39676   4.938   5.686  10.516 -1.2084  0.8194 -1.1918
  288MOL0     H39677   5.113   5.832  10.552  0.4949 -1.9339 -1.4148
  288MOL0     H39678   5.166   5.685  10.635  2.1814  1.1601 -3.6113
  288MOL0     H39679   5.255   5.970  10.660 -1.1001  0.7618  0.2059
  288MOL0     H39680   5.253   5.863  10.811 -0.8987 -2.0572 -0.9109
  288MOL0     H39681   5.466   5.861  10.700 -3.3454  0.0387  3.2139
  288MOL0     H39682   5.393   5.702  10.714 -0.3854 -3.0431 -3.4210
  288MOL0     H39683   5.494   5.685  10.506 -1.7180 -1.7638 -4.3979
  288MOL0     H39684   5.336   5.712  10.456  2.5609 -2.1341 -2.6339
  288MOL0     H39685   5.575   5.908  10.478 -0.2422  2.1248 -0.8779
  288MOL0     H39686   5.410   5.971  10.490 -1.8890 -1.1445  1.2056
  288MOL0     H39687   5.374   5.925  10.254 -1.0238  1.8804  2.1018
  288MOL0     H39688   5.536   5.985  10.263 -0.8520  0.4385  0.9679
  288MOL0     H39689   5.505   5.795  10.101 -2.0215  0.0026  0.5849
  288MOL0     H39690   5.478   5.676  10.245  1.5634 -1.2059 -1.7395
  288MOL0     H39691   5.669   5.687  10.333 -1.9364  0.6299  0.7832
  288MOL0     H39692   5.684   5.649  10.159  1.0205  0.1498  1.0085
  288MOL0     H39693   5.730   5.938  10.041 -0.1536  1.7382 -0.3232
  288MOL0     H39694   5.904   6.157  10.026 -2.6434 -0.3181  2.4170
  288MOL0     H39695   6.038   6.037  10.003  2.4053  1.3093  1.2152
  288MOL0     H39696   6.023   6.225  10.239  0.3804  0.8943 -0.2477
  288MOL0     H39697   6.165   6.142  10.173 -1.0942 -0.4567 -0.9989
  288MOL0     H39698   6.120   6.318   9.958 -0.1070 -0.9969 -0.0331
  288MOL0     H39699   6.005   6.384  10.066  1.1391  1.9900  0.5843
  288MOL0     H39700   6.225   6.509  10.095 -1.2653  2.1441  2.1587
  288MOL0     H39701   6.180   6.427  10.242  0.7751 -4.1565  1.1877
  288MOL0     H39702   6.374   6.567   9.978  0.9111 -0.5301  1.0523
  288MOL0     H39703   6.623   6.607   9.751  0.0688 -0.1152 -0.2025
  288MOL0     H39704   6.481   6.686   9.834 -3.8685 -0.4789 -0.6260
  288MOL0     H39705   6.463   6.643   9.670  1.7543  2.1832 -0.5261
  288MOL0     H39706   6.785   6.135   9.441  0.3706 -1.6218 -1.5075
  288MOL0     H39707   6.824   6.071   9.211 -0.5207 -1.1384 -0.4029
  288MOL0     H39708   6.890   6.143   9.028  0.9937  0.5227  0.2256
  288MOL0     H39709   6.830   6.130   8.877  1.5009 -1.3146  1.1753
  288MOL0     H39710   6.740   6.397   8.940 -2.9866 -4.2524 -2.0336
  288MOL0     H39711   6.874   6.379   9.058 -3.8308  0.3020  1.2944
  288MOL0     H39712   7.033   6.316   8.881  0.4039  1.9613  0.4640
  288MOL0     H39713   6.985   6.472   8.861  0.8366 -0.6496  0.5902
  288MOL0     H39714   6.828   6.258   8.715 -1.4971  0.7434  0.6698
  288MOL0     H39715   6.972   6.337   8.644  1.1944 -0.5535  1.4985
  288MOL0     H39716   6.740   6.514   8.729  0.6328  1.3458 -0.3020
  288MOL0     H39717   6.884   6.542   8.638 -0.9992  0.0136 -0.6391
  288MOL0     H39718   6.696   6.327   8.536  3.1344 -3.7158 -2.3823
  288MOL0     H39719   6.834   6.392   8.463 -1.9430 -1.1515 -1.5354
  288MOL0     H39720   6.685   6.628   8.467 -4.1333  1.8391 -4.3171
  288MOL0     H39721   6.559   6.529   8.516  1.9818  2.2433  4.2398
  288MOL0     H39722   6.555   6.425   8.299 -0.5627  0.8689 -1.4290
  288MOL0     H39723   6.730   6.467   8.277  1.5187  0.5679  0.2864
  288MOL0     H39724   6.485   6.309   9.091  1.5019  0.3714 -0.3429
  288MOL0     H39725   6.428   6.346   9.330  0.8341  1.3481  0.1627
  288MOL0     H39726   6.483   6.128   9.762  0.7901  0.3746 -0.6576
  288MOL0     H39727   6.403   6.141   9.983 -0.0431 -0.3664 -0.7316
  288MOL0     H39728   4.824   5.893  10.878  0.9707 -3.0393  1.3633
  288MOL0     H39729   4.588   5.830  10.829 -0.3547 -0.4642  0.0664
  288MOL0     H39730   4.302   5.739  10.548 -1.8937 -1.7113 -2.0477
  288MOL0     H39731   4.065   5.734  10.509  2.1523  3.4147  1.0515
  288MOL0     H39732   3.708   5.472  10.600 -3.2283 -0.2390  3.2363
  288MOL0     H39733   3.853   5.398  10.666  2.4502  1.9159  2.4148
  288MOL0     H39734   3.742   5.628  10.827 -0.2088  1.0154 -3.7352
  288MOL0     H39735   3.807   5.469  10.874  1.2371  1.0052  0.3122
  288MOL0     H39736   3.525   5.520  10.755 -0.8505  0.4033  1.0965
  288MOL0     H39737   3.593   5.355  10.793  2.2191 -0.2806  1.1469
  288MOL0     H39738   3.429   5.419  10.957  0.8029 -2.5291  1.3309
  288MOL0     H39739   3.508   5.575  10.987 -0.3427  0.1955 -0.9707
  288MOL0     H39740   3.741   5.268  11.173  1.0850  0.2499 -1.0394
  288MOL0     H39741   4.023   5.449  10.828 -1.0291 -0.0586 -0.7602
  288MOL0     H39742   4.181   5.381  10.948  1.9705 -0.6783 -0.6358
  288MOL0     H39743   4.343   5.387  10.890 -0.4726 -2.1092  4.1030
  288MOL0     H39744   4.293   5.520  10.990 -0.8031  1.6965 -1.4157
  289MOL0     O39745   3.596   3.245   7.095 -0.0663 -0.3498 -0.1282
  289MOL0     C39746   3.640   3.252   6.982 -0.2436 -0.9033 -0.5725
  289MOL0     O39747   3.576   3.204   6.873  0.1083  0.2158 -0.1176
  289MOL0     C39748   3.464   3.120   6.887  0.2400  0.1319 -0.2569
  289MOL0     C39749   3.343   3.166   6.837  0.2340  0.8976 -0.3929
  289MOL0     C39750   3.238   3.077   6.833 -0.2462 -0.2163 -0.6514
  289MOL0     C39751   3.240   2.947   6.881  0.5095  0.8825 -0.7692
  289MOL0     O39752   3.123   2.870   6.889  0.3831 -0.0430 -0.0187
  289MOL0     C39753   3.101   2.818   7.028  0.6514  0.3588  0.7878
  289MOL0     C39754   2.955   2.759   7.034 -0.6818  0.4582  1.0199
  289MOL0     C39755   2.946   2.649   7.138  0.7713 -0.6771 -0.1811
  289MOL0     C39756   2.814   2.562   7.123  0.7815  0.9813 -0.1473
  289MOL0     C39757   2.820   2.420   7.191 -0.6323  0.1873 -0.0751
  289MOL0     C39758   2.719   2.312   7.136  0.4626 -0.0113 -0.5580
  289MOL0     C39759   2.734   2.272   6.984  0.1664 -0.2676 -1.0028
  289MOL0     C39760   2.819   2.145   6.960  0.6624 -0.7526  0.3332
  289MOL0     N39761   2.753   2.023   7.017 -0.6373 -0.1915 -0.5532
  289MOL0     C39762   2.644   1.952   6.968  0.4518 -0.7416 -0.8024
  289MOL0     C39763   2.613   1.870   7.075 -0.3216 -0.1798 -0.2163
  289MOL0     C39764   2.493   1.781   7.087  0.2402  0.2820  0.2499
  289MOL0     C39765   2.365   1.870   7.051 -0.4037 -0.9227 -0.4020
  289MOL0     C39766   2.361   2.003   7.135 -0.5966  0.1872  0.3119
  289MOL0     C39767   2.368   1.996   7.289 -0.6329  0.4210  0.1893
  289MOL0     O39768   2.356   2.134   7.344  0.2079  0.3594 -0.3828
  289MOL0     C39769   2.342   2.148   7.478 -0.3080  0.5852 -0.0749
  289MOL0     C39770   2.371   2.048   7.568  0.0059 -0.4062 -1.5487
  289MOL0     C39771   2.334   2.056   7.702 -0.3594  0.1185 -0.7801
  289MOL0     C39772   2.347   1.932   7.786 -0.1298 -0.5585 -0.2894
  289MOL0     C39773   2.280   2.180   7.755 -0.2793 -0.2719 -0.0423
  289MOL0     C39774   2.241   2.196   7.901  0.2652 -0.4977 -0.5883
  289MOL0     O39775   2.321   2.135   7.990 -0.9314 -0.0861 -0.2003
  289MOL0     C39776   2.288   2.145   8.122  1.0486  0.6745 -0.7083
  289MOL0     C39777   2.300   2.265   8.196 -0.2263  0.3105  1.4927
  289MOL0     C39778   2.258   2.268   8.328  0.3584 -0.0544  0.2282
  289MOL0     C39779   2.219   2.152   8.398 -0.2288  0.7293  0.3993
  289MOL0     O39780   2.187   2.182   8.529 -0.2820  0.5908 -0.3057
  289MOL0     C39781   2.119   2.084   8.616  0.2292  0.3691  0.6481
  289MOL0     C39782   2.213   1.993   8.692  0.7318 -1.2311  0.1692
  289MOL0     C39783   2.143   1.862   8.723 -0.0978  0.0010  0.7815
  289MOL0     C39784   2.231   1.758   8.788 -0.2512 -0.1947  0.0058
  289MOL0     C39785   2.150   1.644   8.852  0.9049 -0.4595  0.7413
  289MOL0     C39786   2.091   1.699   8.990  0.4506  0.6368 -0.2520
  289MOL0     C39787   2.018   1.604   9.081  0.8814 -0.1783 -0.3988
  289MOL0     C39788   2.113   1.502   9.127  1.1538 -0.5182 -0.1322
  289MOL0    Cl39789   2.027   1.377   9.227  0.4856  0.2119 -0.5204
  289MOL0     C39790   2.203   2.036   8.321  0.5354 -0.0089  0.6257
  289MOL0     C39791   2.229   2.023   8.180  0.1600  0.0118 -0.9380
  289MOL0     O39792   2.136   2.246   7.932  0.1270 -0.2721  0.6073
  289MOL0     C39793   2.247   2.280   7.663 -0.6411 -0.2958 -0.1116
  289MOL0     C39794   2.282   2.259   7.526  1.3618  0.9538 -0.1990
  289MOL0     N39795   2.699   1.884   7.177  0.5480 -0.5225 -0.9518
  289MOL0     N39796   2.782   1.981   7.146  0.4780 -0.7097 -0.3590
  289MOL0     C39797   3.368   2.892   6.903 -0.5760 -0.5981 -0.4536
  289MOL0     C39798   3.469   2.984   6.917 -0.7673 -0.2292  0.8913
  289MOL0     C39799   3.768   3.318   6.967  1.0933 -0.2067  0.6560
  289MOL0     C39800   3.858   3.272   6.883  0.5825 -0.6940 -0.0454
  289MOL0     C39801   3.982   3.329   6.867  0.3528 -0.4747 -0.8970
  289MOL0     C39802   4.028   3.425   6.967 -0.8857  0.2318 -0.4445
  289MOL0     O39803   4.155   3.466   6.992 -0.0820 -0.0128  0.7130
  289MOL0     C39804   4.248   3.450   6.876 -0.8881  0.1676  0.0102
  289MOL0     C39805   4.306   3.575   6.825  0.5108  0.2530 -0.3945
  289MOL0     C39806   4.394   3.642   6.938  0.1355 -0.3777 -0.2094
  289MOL0     C39807   4.323   3.732   7.035 -0.7319  0.7157  0.1926
  289MOL0     C39808   4.376   3.716   7.168 -0.3264  0.7660  0.2520
  289MOL0     C39809   4.419   3.696   7.283  0.5939  0.0745 -0.0473
  289MOL0     C39810   3.930   3.472   7.060 -0.5787  0.2332  0.6063
  289MOL0     C39811   3.797   3.430   7.050  0.1831  0.3081 -0.1683
  289MOL0     C39812   3.703   3.494   7.150  0.3161 -1.8261 -0.6274
  289MOL0     H39813   3.345   3.267   6.797  3.5957  1.3767  0.6854
  289MOL0     H39814   3.140   3.105   6.796 -0.3383 -0.5516 -0.6682
  289MOL0     H39815   3.116   2.903   7.096  0.5189  1.7411 -0.8410
  289MOL0     H39816   3.186   2.751   7.044  1.9342  1.7590  0.1466
  289MOL0     H39817   2.886   2.839   7.066 -0.0678  0.7654  1.5878
  289MOL0     H39818   2.932   2.731   6.931 -0.3549 -0.1544  1.1107
  289MOL0     H39819   3.038   2.591   7.127  0.6299 -1.5521  2.4962
  289MOL0     H39820   2.944   2.687   7.241 -2.2915  0.6029 -0.6068
  289MOL0     H39821   2.727   2.619   7.155 -1.7963 -3.1342  0.9985
  289MOL0     H39822   2.785   2.549   7.018 -2.1812  1.0701  0.5823
  289MOL0     H39823   2.808   2.439   7.298  1.8501  5.6155 -0.4152
  289MOL0     H39824   2.923   2.397   7.162  0.7339  5.9117 -1.1408
  289MOL0     H39825   2.727   2.224   7.200 -2.7010 -0.7261 -0.9538
  289MOL0     H39826   2.618   2.352   7.150  0.0020 -0.8817 -1.2805
  289MOL0     H39827   2.763   2.364   6.931  1.7902  0.6533  1.3151
  289MOL0     H39828   2.640   2.246   6.935 -0.0734  1.0328 -1.2721
  289MOL0     H39829   2.849   2.124   6.856  2.3128  0.5315  0.5048
  289MOL0     H39830   2.912   2.169   7.013  1.1084 -0.8501 -0.3790
  289MOL0     H39831   2.576   1.973   6.886 -0.0644 -1.4489 -0.5640
  289MOL0     H39832   2.479   1.744   7.189  0.9547  3.2613  1.5594
  289MOL0     H39833   2.510   1.707   7.009  2.4555  0.1644  0.7700
  289MOL0     H39834   2.361   1.897   6.944 -0.0599  0.6734 -0.0434
  289MOL0     H39835   2.278   1.809   7.078 -0.5388  0.0230  1.4041
  289MOL0     H39836   2.442   2.069   7.103  0.1077 -0.1940  1.2292
  289MOL0     H39837   2.266   2.049   7.107 -0.6007  1.0718  1.6863
  289MOL0     H39838   2.281   1.942   7.326 -0.6200  0.3658  0.1386
  289MOL0     H39839   2.466   1.953   7.314 -0.7580 -1.0141 -1.5787
  289MOL0     H39840   2.422   1.957   7.537 -0.5651 -0.8805 -1.1368
  289MOL0     H39841   2.345   1.839   7.727 -0.4651 -0.9905  0.3918
  289MOL0     H39842   2.262   1.927   7.854 -1.3891  2.1781 -1.5132
  289MOL0     H39843   2.442   1.939   7.841 -2.1154  0.5520  3.3215
  289MOL0     H39844   2.349   2.343   8.140  2.9561 -1.4961  1.4504
  289MOL0     H39845   2.272   2.365   8.374 -1.4015 -0.0122  0.7716
  289MOL0     H39846   2.056   2.138   8.686 -2.0213  0.1200 -1.0803
  289MOL0     H39847   2.050   2.027   8.553 -0.3042  1.6004  0.0973
  289MOL0     H39848   2.298   1.970   8.628  2.2100  1.5002  0.9894
  289MOL0     H39849   2.254   2.042   8.781  1.8598 -0.3026 -0.8353
  289MOL0     H39850   2.102   1.826   8.627 -0.3478 -0.5283  1.0800
  289MOL0     H39851   2.057   1.880   8.788 -4.6076  0.5991 -4.5633
  289MOL0     H39852   2.302   1.805   8.856 -1.3503 -1.5800  2.2089
  289MOL0     H39853   2.296   1.718   8.710  0.1313 -0.5570  0.5087
  289MOL0     H39854   2.075   1.599   8.787  1.2501 -2.4287  1.6324
  289MOL0     H39855   2.229   1.572   8.875  1.8367  0.6879  1.2683
  289MOL0     H39856   2.021   1.783   8.982  1.3682  1.4496  0.0233
  289MOL0     H39857   2.177   1.733   9.047 -0.8688  1.2164  1.4750
  289MOL0     H39858   1.928   1.565   9.032 -1.5346 -0.4034  3.7300
  289MOL0     H39859   1.974   1.659   9.165  1.1095 -0.2779 -0.2118
  289MOL0     H39860   2.170   1.566   9.194 -0.6233 -1.5423  2.5144
  289MOL0     H39861   2.172   1.450   9.050 -0.9381 -2.6580 -0.4118
  289MOL0     H39862   2.163   1.943   8.361 -0.3265  1.0928  2.4287
  289MOL0     H39863   2.206   1.931   8.128 -2.6052 -0.8953  1.6029
  289MOL0     H39864   2.190   2.366   7.697  2.4691  1.1813  1.8614
  289MOL0     H39865   2.251   2.335   7.456  1.3692 -0.0544 -1.3323
  289MOL0     H39866   3.386   2.786   6.922  1.6768  0.0049  1.1891
  289MOL0     H39867   3.565   2.936   6.932 -1.5837 -1.8602  1.1139
  289MOL0     H39868   3.822   3.191   6.820 -2.6579 -1.1316  2.1331
  289MOL0     H39869   4.044   3.290   6.787  1.5708  1.0014 -0.7201
  289MOL0     H39870   4.335   3.395   6.915 -0.6567  2.5718  3.3336
  289MOL0     H39871   4.203   3.395   6.793  1.3719 -2.6199  0.4255
  289MOL0     H39872   4.230   3.649   6.797 -0.0913  0.6610  2.0400
  289MOL0     H39873   4.373   3.543   6.745  2.0813 -2.9219  1.9523
  289MOL0     H39874   4.453   3.565   6.991 -1.6723 -0.4190  1.8852
  289MOL0     H39875   4.463   3.699   6.875  1.3748 -1.3861  0.1678
  289MOL0     H39876   4.216   3.713   7.035 -0.4997 -0.6911  0.6730
  289MOL0     H39877   4.351   3.830   6.994  2.1938 -2.0356 -5.6182
  289MOL0     H39878   4.482   3.694   7.370  0.1522 -1.9614  0.2959
  289MOL0     H39879   3.958   3.548   7.133 -0.0351 -0.4473  1.1174
  289MOL0     H39880   3.693   3.438   7.244 -1.9181 -2.5867 -1.2499
  289MOL0     H39881   3.739   3.592   7.182  0.4526 -0.7274 -3.8083
  289MOL0     H39882   3.604   3.510   7.108  1.0500  1.7808 -1.2539
  290MOL0     O39883   6.694  10.033  10.798  0.2767 -0.1098 -0.0739
  290MOL0     C39884   6.592  10.070  10.737 -0.9235  0.3144 -0.2837
  290MOL0     O39885   6.589  10.119  10.607  0.2818  0.3983 -0.2916
  290MOL0     C39886   6.702  10.130  10.524 -0.1881 -0.2075  0.1560
  290MOL0     C39887   6.798  10.036  10.517  0.3151  0.7185  0.2795
  290MOL0     C39888   6.905  10.055  10.422 -0.4990  1.0110 -0.0749
  290MOL0     C39889   6.903  10.167  10.340 -0.5695  0.3958 -0.0762
  290MOL0     O39890   6.989  10.185  10.238  0.1622  0.2098 -0.2611
  290MOL0     C39891   6.980  10.300  10.151 -0.2055  0.1192 -0.1225
  290MOL0     C39892   7.089  10.292  10.040  0.5728  0.9295  1.2081
  290MOL0     C39893   7.066  10.170   9.943 -0.5129 -0.1819 -0.2666
  290MOL0     C39894   7.154  10.188   9.814 -0.5381 -0.2645 -0.7572
  290MOL0     C39895   7.136  10.075   9.718 -0.5638 -0.0948  0.4459
  290MOL0     C39896   7.210  10.103   9.593 -0.2490  0.7580  0.6889
  290MOL0     C39897   7.225   9.980   9.495  0.3614  0.7217 -0.2542
  290MOL0     C39898   7.087   9.924   9.459 -1.2410 -0.0462 -0.5998
  290MOL0     N39899   7.015  10.029   9.389 -0.0271 -0.0597  0.0995
  290MOL0     C39900   7.028  10.072   9.260  0.2217 -1.6203  0.0576
  290MOL0     C39901   6.929  10.155   9.227  0.2990 -0.3821  0.2802
  290MOL0     C39902   6.893  10.244   9.109 -0.0190  0.8032 -0.6336
  290MOL0     C39903   6.853  10.391   9.157 -0.2440 -0.1561  0.3755
  290MOL0     C39904   6.967  10.482   9.186  0.4376  0.3501  0.0844
  290MOL0     C39905   6.920  10.611   9.225 -0.0049 -0.3671  1.2143
  290MOL0     O39906   6.865  10.669   9.108  0.2895  0.2648  0.0691
  290MOL0     C39907   6.753  10.752   9.121  0.3195  0.4870  0.7425
  290MOL0     C39908   6.747  10.829   9.004  0.1653  0.2778 -0.9959
  290MOL0     C39909   6.634  10.909   8.988 -0.2376 -0.2010 -0.3720
  290MOL0     C39910   6.624  10.982   8.855  0.2590  0.1850  0.0740
  290MOL0     C39911   6.551  10.943   9.095 -0.4655 -0.2334 -0.3948
  290MOL0     C39912   6.465  11.057   9.095 -0.5617 -0.5802 -0.4900
  290MOL0     O39913   6.521  11.176   9.045  0.2964 -0.4650  0.2708
  290MOL0     C39914   6.436  11.278   9.004 -0.4095 -0.2410  0.2602
  290MOL0     C39915   6.402  11.379   9.092 -0.1120 -0.0127  0.2538
  290MOL0     C39916   6.314  11.479   9.058 -0.6420 -0.0354 -0.2509
  290MOL0     C39917   6.258  11.478   8.926 -0.6228 -0.6321 -0.0157
  290MOL0     O39918   6.172  11.578   8.880 -0.3329 -0.4343 -0.4917
  290MOL0     C39919   6.095  11.643   8.983 -0.0444  0.3706  0.6620
  290MOL0     C39920   5.996  11.724   8.900  0.2904 -0.1920  0.4333
  290MOL0     C39921   5.875  11.631   8.871  0.4636 -0.6729 -0.0672
  290MOL0     C39922   5.792  11.675   8.739  0.0345  0.4580 -0.3876
  290MOL0     C39923   5.645  11.618   8.735 -0.1757 -0.1385 -0.0642
  290MOL0     C39924   5.593  11.623   8.592 -0.7432  0.7080  0.0597
  290MOL0     C39925   5.456  11.565   8.599  0.8803  0.7626 -0.1460
  290MOL0     C39926   5.358  11.582   8.480  0.2473 -0.0284  0.0564
  290MOL0    Cl39927   5.273  11.752   8.462 -0.1712 -0.2630  0.4070
  290MOL0     C39928   6.291  11.382   8.834 -0.0251  0.4098 -0.0001
  290MOL0     C39929   6.376  11.277   8.871 -0.6114 -0.3790 -0.5386
  290MOL0     O39930   6.352  11.038   9.131  0.6824  0.0057 -0.1792
  290MOL0     C39931   6.557  10.868   9.204 -0.6286  0.8081  0.7879
  290MOL0     C39932   6.654  10.765   9.213 -0.3456 -0.8921 -1.0008
  290MOL0     N39933   6.848  10.157   9.341  0.3188  0.1859 -0.4201
  290MOL0     N39934   6.900  10.080   9.430 -0.6311  0.1823 -0.4104
  290MOL0     C39935   6.810  10.265  10.351  0.6556 -0.6046  0.0339
  290MOL0     C39936   6.698  10.242  10.438  0.4608 -0.5561 -0.4383
  290MOL0     C39937   6.465  10.057  10.819  0.6352  0.0064  1.0594
  290MOL0     C39938   6.462   9.957  10.925 -0.7503 -1.0151 -0.2146
  290MOL0     C39939   6.347   9.932  11.001 -0.6522  0.3157 -0.1595
  290MOL0     C39940   6.228  10.010  10.983 -0.2001  0.0481  0.0682
  290MOL0     O39941   6.106   9.987  11.046 -0.7209  0.4119  0.2267
  290MOL0     C39942   6.092   9.881  11.137 -0.2709  0.7498 -0.2294
  290MOL0     C39943   5.957   9.883  11.203  0.1604  0.3857  0.0606
  290MOL0     C39944   5.924  10.007  11.284  0.5754 -0.2096 -0.0618
  290MOL0     C39945   6.039  10.064  11.371 -0.9260  0.1498  0.0543
  290MOL0     C39946   6.063   9.979  11.481 -0.4427 -0.2335 -0.7515
  290MOL0     C39947   6.070   9.919  11.584  0.4326  0.6728  0.0008
  290MOL0     C39948   6.241  10.122  10.892  0.4858  1.2473  0.0063
  290MOL0     C39949   6.349  10.142  10.810 -0.0951 -1.6088  1.5433
  290MOL0     C39950   6.359  10.266  10.723  0.9630 -0.5056  0.3212
  290MOL0     H39951   6.791   9.943  10.573 -0.6372  0.3475 -0.4211
  290MOL0     H39952   6.969   9.968  10.411  1.7792  2.4938  0.7673
  290MOL0     H39953   6.987  10.392  10.209  0.5291 -0.6656  1.0787
  290MOL0     H39954   6.882  10.291  10.101 -1.6075  2.5044  1.9451
  290MOL0     H39955   7.077  10.384   9.983  4.3947  1.3945  0.8822
  290MOL0     H39956   7.190  10.294  10.082  2.4845 -1.8023 -2.6557
  290MOL0     H39957   7.095  10.077   9.993  0.4053  1.0038  1.5498
  290MOL0     H39958   6.960  10.156   9.921 -0.3780 -1.8293  0.0356
  290MOL0     H39959   7.118  10.281   9.770 -0.1466  0.3782  0.2408
  290MOL0     H39960   7.260  10.205   9.834  0.0379 -2.6786 -1.4491
  290MOL0     H39961   7.035  10.053   9.683 -0.5224  0.5109 -0.0739
  290MOL0     H39962   7.163   9.978   9.761 -0.4354 -0.1983  0.1348
  290MOL0     H39963   7.167  10.186   9.536 -1.1517 -1.1852 -1.6435
  290MOL0     H39964   7.306  10.143   9.624 -1.3495  2.5700  1.9134
  290MOL0     H39965   7.283   9.904   9.548 -0.8244 -1.1809 -1.5506
  290MOL0     H39966   7.274  10.028   9.409  1.5612 -0.1109 -0.0595
  290MOL0     H39967   7.093   9.839   9.391 -1.4767 -1.9792  1.6658
  290MOL0     H39968   7.028   9.891   9.545 -2.0643 -0.4609 -1.3032
  290MOL0     H39969   7.110  10.053   9.190 -0.7397 -1.7804 -1.0547
  290MOL0     H39970   6.806  10.198   9.062 -0.2151 -2.3814  2.4410
  290MOL0     H39971   6.976  10.256   9.039 -0.1545 -0.8674 -1.1109
  290MOL0     H39972   6.806  10.426   9.065 -0.0531 -1.9314 -0.4593
  290MOL0     H39973   6.776  10.396   9.234 -0.1424  5.5010  0.4964
  290MOL0     H39974   7.016  10.455   9.280 -4.4512 -0.5337  2.7329
  290MOL0     H39975   7.032  10.490   9.099 -3.2168 -0.1615 -2.9715
  290MOL0     H39976   6.850  10.598   9.308 -2.4278 -2.8710 -1.0447
  290MOL0     H39977   7.014  10.662   9.249 -0.0758 -1.3437  3.8441
  290MOL0     H39978   6.810  10.828   8.916  0.9404  1.4186 -0.4867
  290MOL0     H39979   6.536  11.044   8.836  0.9565  0.6954 -1.6762
  290MOL0     H39980   6.621  10.903   8.779  3.1542  1.5573 -1.6301
  290MOL0     H39981   6.713  11.045   8.845  2.0503 -1.5532  3.4733
  290MOL0     H39982   6.457  11.385   9.185  0.6221  1.6126 -0.2549
  290MOL0     H39983   6.298  11.551   9.137 -0.7248 -0.6353  0.2841
  290MOL0     H39984   6.035  11.568   9.036  0.0047 -1.2266 -1.3983
  290MOL0     H39985   6.155  11.704   9.051 -2.5018 -0.1950  3.5976
  290MOL0     H39986   5.967  11.811   8.960 -1.6221 -1.3866  1.3141
  290MOL0     H39987   6.048  11.769   8.815  2.1541 -0.9544  1.1230
  290MOL0     H39988   5.808  11.621   8.957 -0.5395  0.6806 -0.6601
  290MOL0     H39989   5.900  11.528   8.846 -1.0858 -0.4313 -3.0100
  290MOL0     H39990   5.847  11.639   8.651 -2.1741  0.2083 -1.7696
  290MOL0     H39991   5.788  11.781   8.715 -1.3043  0.3154 -0.9291
  290MOL0     H39992   5.648  11.513   8.765 -2.1324 -0.0351  0.6656
  290MOL0     H39993   5.588  11.671   8.813  1.3938 -2.6819  3.0070
  290MOL0     H39994   5.655  11.562   8.525 -2.5872  0.7403 -1.7920
  290MOL0     H39995   5.587  11.726   8.557  2.1438  0.5841 -1.0675
  290MOL0     H39996   5.415  11.615   8.688  0.8490  0.6724 -0.1113
  290MOL0     H39997   5.475  11.458   8.608  2.8679  0.8712 -2.0974
  290MOL0     H39998   5.284  11.502   8.479 -0.3109  0.4794 -0.8452
  290MOL0     H39999   5.417  11.578   8.388 -0.5994  2.3912 -0.6638
  290MOL0     H40000   6.254  11.383   8.731 -3.1993 -0.0556  1.0222
  290MOL0     H40001   6.412  11.193   8.812 -0.1582 -1.4424  1.1793
  290MOL0     H40002   6.488  10.891   9.285 -2.0321 -1.7173  0.4103
  290MOL0     H40003   6.634  10.696   9.295  3.7973 -1.5555 -0.3168
  290MOL0     H40004   6.797  10.358  10.296 -0.6122 -0.2990  0.8067
  290MOL0     H40005   6.613  10.308  10.450  0.1475 -1.3212  2.3886
  290MOL0     H40006   6.547   9.891  10.937  0.2520  0.2828  0.0402
  290MOL0     H40007   6.361   9.853  11.075  0.2274  0.8405  0.2476
  290MOL0     H40008   6.095   9.785  11.084  1.3816  0.2790  0.6230
  290MOL0     H40009   6.175   9.895  11.207  0.1380 -0.5141 -0.4408
  290MOL0     H40010   5.945   9.800  11.273 -0.0601 -0.0174 -0.4370
  290MOL0     H40011   5.874   9.868  11.133 -0.0781 -0.4125  0.5051
  290MOL0     H40012   5.902  10.091  11.217 -0.0203  0.2175  0.6640
  290MOL0     H40013   5.844   9.998  11.357  1.7223  1.7622  1.5392
  290MOL0     H40014   6.016  10.163  11.411  2.1778 -0.3416  3.6848
  290MOL0     H40015   6.132  10.085  11.317 -1.9162  4.9516 -0.2278
  290MOL0     H40016   6.062   9.861  11.674 -1.3060 -1.5239 -1.4597
  290MOL0     H40017   6.157  10.185  10.867  0.1079  1.2169  1.1541
  290MOL0     H40018   6.269  10.323  10.746  0.7425  0.4288 -2.4704
  290MOL0     H40019   6.447  10.332  10.721  1.9460 -1.7426  0.7649
  290MOL0     H40020   6.357  10.233  10.619 -2.4341 -1.0255  0.4555
  291MOL0     O40021   1.199   6.029   7.697 -0.0621  0.3702 -0.1015
  291MOL0     C40022   1.300   5.972   7.663 -0.9266  0.6061  0.7644
  291MOL0     O40023   1.341   5.848   7.716 -0.2853 -0.3870  0.4854
  291MOL0     C40024   1.263   5.800   7.823 -1.6154 -0.5123  0.3072
  291MOL0     C40025   1.122   5.781   7.819 -0.3729  0.1475  0.3315
  291MOL0     C40026   1.051   5.745   7.932  0.0643  0.2774  0.2202
  291MOL0     C40027   1.113   5.692   8.042  0.0776  1.4539 -1.1340
  291MOL0     O40028   1.048   5.643   8.157 -0.4606  0.0068 -0.3357
  291MOL0     C40029   0.913   5.668   8.182  0.0591  0.4996  0.4461
  291MOL0     C40030   0.898   5.798   8.265 -0.2193  0.2636  0.2948
  291MOL0     C40031   0.942   5.780   8.407 -0.0135  0.8018 -0.0432
  291MOL0     C40032   0.899   5.900   8.495 -0.7265  0.5524 -0.3663
  291MOL0     C40033   0.880   5.870   8.648 -0.7530  0.0632  0.1963
  291MOL0     C40034   0.736   5.804   8.683 -0.7758 -0.6640  0.2066
  291MOL0     C40035   0.615   5.912   8.687 -0.7754 -1.0892  0.7650
  291MOL0     C40036   0.485   5.862   8.741  0.7762 -0.2808 -0.8960
  291MOL0     N40037   0.380   5.966   8.745  0.3160  0.3019  0.2725
  291MOL0     C40038   0.370   6.074   8.826 -0.6448 -0.6106  0.8858
  291MOL0     C40039   0.242   6.111   8.817  1.2822  0.3397 -0.7406
  291MOL0     C40040   0.183   6.232   8.887 -0.3806  1.3619  0.2668
  291MOL0     C40041   0.031   6.229   8.879  0.4656  0.1523  0.5006
  291MOL0     C40042  -0.012   6.344   8.950  0.0471  0.2676  0.2720
  291MOL0     C40043  -0.164   6.356   8.973  0.0880  0.1785 -0.7865
  291MOL0     O40044  -0.208   6.231   9.021  0.2819 -0.3699  0.4925
  291MOL0     C40045  -0.335   6.222   9.075  0.3677 -0.5410 -0.6081
  291MOL0     C40046  -0.419   6.332   9.077  0.5956 -0.4060  0.5986
  291MOL0     C40047  -0.545   6.327   9.134 -0.2618  0.2323  0.2145
  291MOL0     C40048  -0.629   6.454   9.105 -0.8662 -0.2540  0.7522
  291MOL0     C40049  -0.583   6.206   9.193 -0.4036 -0.6712 -0.3095
  291MOL0     C40050  -0.706   6.204   9.277  0.3478  0.4045 -0.9597
  291MOL0     O40051  -0.708   6.096   9.364  0.4323  0.6601 -0.1968
  291MOL0     C40052  -0.819   6.096   9.448  0.2884  0.3187 -0.3376
  291MOL0     C40053  -0.791   6.105   9.583  0.2669 -0.6215 -0.1738
  291MOL0     C40054  -0.888   6.075   9.676  0.3836  0.4026 -0.2195
  291MOL0     C40055  -1.014   6.036   9.635  0.1258  0.1483  0.8142
  291MOL0     O40056  -1.107   6.005   9.733 -0.5174 -0.3213  0.0491
  291MOL0     C40057  -1.246   5.986   9.698  0.4182 -0.6828 -0.4052
  291MOL0     C40058  -1.333   5.937   9.814 -0.5214  0.4086 -0.1736
  291MOL0     C40059  -1.455   5.860   9.776 -0.1663 -0.2750  0.0100
  291MOL0     C40060  -1.524   5.794   9.893  0.3760  0.1705 -0.6232
  291MOL0     C40061  -1.653   5.733   9.848 -0.1948  0.7392  0.1789
  291MOL0     C40062  -1.674   5.586   9.887 -0.3926 -0.9280 -0.2843
  291MOL0     C40063  -1.810   5.531   9.830 -0.1603 -1.1882 -0.1462
  291MOL0     C40064  -1.819   5.389   9.838 -0.0074 -0.4135 -0.4447
  291MOL0    Cl40065  -1.879   5.333   9.995  0.1996  0.3636 -0.0626
  291MOL0     C40066  -1.038   6.029   9.507  0.7296  0.0091  0.0730
  291MOL0     C40067  -0.948   6.059   9.408 -0.3969  0.2158 -0.0069
  291MOL0     O40068  -0.801   6.286   9.261 -0.8521  0.6018  0.6515
  291MOL0     C40069  -0.488   6.108   9.215  0.2597  0.8087  0.2069
  291MOL0     C40070  -0.364   6.114   9.148  1.0864  0.3267  0.0639
  291MOL0     N40071   0.170   6.021   8.736 -0.0818 -0.4646  0.2991
  291MOL0     N40072   0.255   5.937   8.702  0.0143  0.9069  0.3703
  291MOL0     C40073   1.255   5.696   8.043  0.1603  0.4868 -0.5177
  291MOL0     C40074   1.325   5.751   7.940  0.0493  0.3843  0.5653
  291MOL0     C40075   1.380   6.023   7.551  0.2401 -0.3090 -0.1432
  291MOL0     C40076   1.458   5.928   7.475  0.6412  0.4966 -0.9836
  291MOL0     C40077   1.540   5.964   7.378 -0.5977 -0.3503  0.2149
  291MOL0     C40078   1.558   6.094   7.336  1.0311 -0.5091  0.3768
  291MOL0     O40079   1.657   6.132   7.257 -0.4036 -0.1354  0.1001
  291MOL0     C40080   1.716   6.261   7.269  1.0590  0.0189  0.4296
  291MOL0     C40081   1.855   6.255   7.219 -0.0379  0.9734  0.9941
  291MOL0     C40082   1.944   6.163   7.317 -0.2768 -1.3732 -0.4806
  291MOL0     C40083   2.090   6.197   7.316 -0.6370  0.9123 -0.5722
  291MOL0     C40084   2.149   6.163   7.186 -0.2418 -0.4336  0.8363
  291MOL0     C40085   2.194   6.135   7.075 -0.2520 -0.6644  0.0102
  291MOL0     C40086   1.473   6.187   7.398 -0.6962 -0.5184  0.5886
  291MOL0     C40087   1.392   6.160   7.512  0.8431  0.3436  0.7825
  291MOL0     C40088   1.317   6.274   7.566 -0.5557 -0.0306  0.3526
  291MOL0     H40089   1.060   5.808   7.734  0.4169  0.7870 -0.0523
  291MOL0     H40090   0.946   5.730   7.910  0.4759 -0.4521 -1.4427
  291MOL0     H40091   0.883   5.576   8.234  2.2251 -2.1976 -2.6339
  291MOL0     H40092   0.844   5.673   8.097 -1.6999 -2.7699  1.4967
  291MOL0     H40093   0.962   5.875   8.223  1.3621 -1.3322 -0.3600
  291MOL0     H40094   0.791   5.820   8.257  0.3217  2.6296 -1.6605
  291MOL0     H40095   0.892   5.688   8.437  2.2655 -0.3459  0.4735
  291MOL0     H40096   1.049   5.759   8.409 -0.0435  0.6887  0.9299
  291MOL0     H40097   0.976   5.977   8.488 -1.3145  1.0242 -2.1680
  291MOL0     H40098   0.803   5.933   8.454 -1.3106 -2.7448 -1.9973
  291MOL0     H40099   0.898   5.960   8.708 -1.2088  1.1246 -1.2081
  291MOL0     H40100   0.951   5.788   8.665 -1.1064 -0.6968 -1.7376
  291MOL0     H40101   0.714   5.725   8.611 -2.0750  2.1337 -2.7376
  291MOL0     H40102   0.743   5.749   8.777 -1.4715 -1.7910 -0.3771
  291MOL0     H40103   0.595   5.951   8.587  0.6611 -1.5855  0.2573
  291MOL0     H40104   0.638   5.998   8.751 -1.6951 -0.0768 -0.2225
  291MOL0     H40105   0.452   5.789   8.666  1.8242 -0.4145 -1.2435
  291MOL0     H40106   0.503   5.813   8.837 -2.8412 -1.0877 -0.4572
  291MOL0     H40107   0.449   6.130   8.875 -2.1399  0.6748  1.9196
  291MOL0     H40108   0.230   6.318   8.839  3.0793 -0.3621  0.2837
  291MOL0     H40109   0.220   6.224   8.989  1.8593 -2.0874 -0.6557
  291MOL0     H40110  -0.006   6.230   8.777 -4.7252 -2.2055  2.0314
  291MOL0     H40111  -0.018   6.142   8.924 -1.2201  1.1571  0.7093
  291MOL0     H40112   0.022   6.342   9.054 -1.8720 -1.2245  0.9416
  291MOL0     H40113   0.025   6.430   8.894 -1.7931  0.2776 -1.0334
  291MOL0     H40114  -0.178   6.434   9.048  0.5326  0.8941 -1.4318
  291MOL0     H40115  -0.224   6.380   8.884 -1.8365  0.7096  0.5962
  291MOL0     H40116  -0.389   6.419   9.019  0.4680 -1.8400 -1.7704
  291MOL0     H40117  -0.583   6.528   9.039 -0.4014 -0.1120  1.2273
  291MOL0     H40118  -0.657   6.511   9.193 -0.6725  0.8178  0.1330
  291MOL0     H40119  -0.722   6.418   9.061 -2.1924  0.6437  2.6994
  291MOL0     H40120  -0.691   6.140   9.607 -0.3936  0.3037  1.2843
  291MOL0     H40121  -0.870   6.092   9.782  1.3247  3.2185 -0.7439
  291MOL0     H40122  -1.282   6.082   9.659 -3.1771 -1.9411 -0.5352
  291MOL0     H40123  -1.261   5.917   9.614 -0.1042  0.3797 -1.2115
  291MOL0     H40124  -1.269   5.873   9.874  2.5795  1.4371 -2.1506
  291MOL0     H40125  -1.363   6.020   9.877 -3.2876  1.2515 -2.3523
  291MOL0     H40126  -1.427   5.781   9.706  1.3192 -0.0641  0.3343
  291MOL0     H40127  -1.512   5.927   9.711  3.0881  1.4932 -1.2720
  291MOL0     H40128  -1.551   5.867   9.970  1.4825  0.5996 -0.6326
  291MOL0     H40129  -1.452   5.718   9.925  1.1911  0.5303 -1.5524
  291MOL0     H40130  -1.742   5.788   9.880 -1.9446  0.2561 -3.3788
  291MOL0     H40131  -1.656   5.739   9.739 -1.1023 -3.3127 -0.1775
  291MOL0     H40132  -1.677   5.579   9.996 -1.5543  3.1744  0.1228
  291MOL0     H40133  -1.584   5.537   9.851  1.8314  1.9401  0.9750
  291MOL0     H40134  -1.815   5.563   9.725  0.3348  2.1478  0.7446
  291MOL0     H40135  -1.888   5.577   9.891 -0.7161 -1.8593 -0.3358
  291MOL0     H40136  -1.734   5.341   9.789 -1.5849 -0.3162 -3.5098
  291MOL0     H40137  -1.898   5.356   9.769  2.9969 -2.9298 -2.9574
  291MOL0     H40138  -1.136   6.001   9.470  1.4601 -1.7327 -0.6259
  291MOL0     H40139  -0.964   6.081   9.303 -1.5091  2.4584  0.5780
  291MOL0     H40140  -0.499   6.034   9.293  0.5812  1.7182  1.1451
  291MOL0     H40141  -0.289   6.037   9.165  0.9080  0.1804  0.1939
  291MOL0     H40142   1.318   5.646   8.116 -2.4913 -0.5593  1.1898
  291MOL0     H40143   1.433   5.756   7.942  0.2040 -1.8976  0.5977
  291MOL0     H40144   1.459   5.821   7.491  4.8291  0.3496 -1.1350
  291MOL0     H40145   1.590   5.882   7.329 -1.6942 -2.0721  1.8465
  291MOL0     H40146   1.648   6.313   7.201 -1.0023 -0.3530  2.0909
  291MOL0     H40147   1.707   6.308   7.368  0.7339 -0.4314  0.6208
  291MOL0     H40148   1.888   6.359   7.221  2.2242  0.3340  0.2422
  291MOL0     H40149   1.859   6.218   7.116  0.9554  1.0423  0.9898
  291MOL0     H40150   1.910   6.166   7.421  1.8249  0.7793  0.2361
  291MOL0     H40151   1.918   6.061   7.289  0.7341 -1.7535 -0.0802
  291MOL0     H40152   2.148   6.127   7.377  0.8119  1.5268 -1.1746
  291MOL0     H40153   2.103   6.298   7.356  1.4578 -0.3190  2.2331
  291MOL0     H40154   2.236   6.117   6.978  0.9926 -0.4788  0.4990
  291MOL0     H40155   1.472   6.286   7.353  0.8217 -0.2604  1.0679
  291MOL0     H40156   1.215   6.276   7.526 -0.3404  2.0314 -0.2422
  291MOL0     H40157   1.312   6.268   7.675  1.3275  2.6121  0.6676
  291MOL0     H40158   1.378   6.364   7.558  1.4601 -1.3626  0.0396
  292MOL0     O40159   9.418   6.582   0.803 -0.6234  0.1040  1.0400
  292MOL0     C40160   9.501   6.662   0.847  0.1333  0.1452  0.1411
  292MOL0     O40161   9.473   6.767   0.938  0.4432  0.9421 -0.0292
  292MOL0     C40162   9.348   6.824   0.959 -0.8066 -0.4528 -0.3067
  292MOL0     C40163   9.225   6.787   0.914  0.3147  0.8021  0.2982
  292MOL0     C40164   9.106   6.858   0.930  0.6629  0.4378  0.1018
  292MOL0     C40165   9.106   6.976   0.998 -0.0554 -0.0256  0.6555
  292MOL0     O40166   8.986   7.041   1.013  0.2056 -0.9203  0.3801
  292MOL0     C40167   8.988   7.161   1.091 -0.0478 -0.4548  1.7234
  292MOL0     C40168   8.981   7.278   0.994  0.5011  0.4369 -0.6779
  292MOL0     C40169   8.939   7.412   1.063 -0.5763 -0.5266  0.0276
  292MOL0     C40170   9.009   7.537   1.018 -0.8375  0.1846 -0.5214
  292MOL0     C40171   8.919   7.660   1.033 -0.4393 -0.2350 -0.7798
  292MOL0     C40172   8.913   7.708   1.178 -0.1627  0.2329 -0.4904
  292MOL0     C40173   8.810   7.822   1.178  0.0929  0.1218 -1.2959
  292MOL0     C40174   8.831   7.918   1.289 -0.0879  0.7215 -0.6949
  292MOL0     N40175   8.953   7.998   1.272 -0.1500  0.1330 -0.9789
  292MOL0     C40176   8.984   8.092   1.179 -0.3317  0.1540  0.4529
  292MOL0     C40177   9.103   8.147   1.222 -0.0778 -0.2793  0.2244
  292MOL0     C40178   9.180   8.244   1.119  0.4834 -0.0418 -0.3178
  292MOL0     C40179   9.233   8.355   1.187  0.1963  0.5865  0.0575
  292MOL0     C40180   9.339   8.432   1.115  0.7095  0.1367 -0.5567
  292MOL0     C40181   9.297   8.569   1.061 -0.1852  0.2607 -0.0379
  292MOL0     O40182   9.386   8.617   0.962  0.1992  0.1823 -0.6886
  292MOL0     C40183   9.521   8.632   0.992 -0.6061 -0.1750 -0.2456
  292MOL0     C40184   9.564   8.686   1.111 -0.5584  0.2237  0.4489
  292MOL0     C40185   9.703   8.720   1.134  0.8501  0.8563 -0.0725
  292MOL0     C40186   9.729   8.776   1.276 -0.6145 -0.2671 -0.1360
  292MOL0     C40187   9.805   8.691   1.039 -0.0799  0.3360  0.2522
  292MOL0     C40188   9.948   8.716   1.052 -0.6140  0.5990  0.3473
  292MOL0     O40189  10.015   8.718   0.932 -0.3369  1.0756 -0.7750
  292MOL0     C40190  10.157   8.739   0.918  0.2371 -0.5458 -1.0071
  292MOL0     C40191  10.219   8.646   0.839 -0.2523 -0.3476 -0.5603
  292MOL0     C40192  10.349   8.650   0.802 -0.3545 -0.6524  0.2122
  292MOL0     C40193  10.423   8.758   0.861 -0.1652  0.2747  0.6170
  292MOL0     O40194  10.561   8.785   0.833 -0.1893 -0.0272  0.3567
  292MOL0     C40195  10.636   8.761   0.711 -0.2375  0.1359 -0.1232
  292MOL0     C40196  10.778   8.700   0.744  0.4718 -0.3265 -0.0138
  292MOL0     C40197  10.869   8.777   0.840 -0.0140 -0.5351 -1.1055
  292MOL0     C40198  10.983   8.685   0.876 -0.4483  0.1955  0.0860
  292MOL0     C40199  10.946   8.589   0.995  0.0760 -0.9971  0.7343
  292MOL0     C40200  11.032   8.463   0.992 -0.7127 -0.4770  0.4651
  292MOL0     C40201  11.013   8.406   1.129 -0.6485  0.6342 -0.6176
  292MOL0     C40202  11.065   8.254   1.136  0.6336  0.0515 -0.5552
  292MOL0    Cl40203  11.245   8.238   1.080  0.3747  0.0602 -0.4854
  292MOL0     C40204  10.361   8.849   0.954  0.0364 -0.0627 -0.3321
  292MOL0     C40205  10.227   8.854   0.962  0.8847  1.4494 -0.0345
  292MOL0     O40206   9.997   8.745   1.160 -0.0242 -0.0660  0.7283
  292MOL0     C40207   9.759   8.622   0.928  0.3680  0.2652  1.1227
  292MOL0     C40208   9.625   8.601   0.900  1.5281 -0.6982 -0.2014
  292MOL0     N40209   9.142   8.092   1.340 -0.0359  0.4250 -0.4141
  292MOL0     N40210   9.048   8.010   1.365  0.0299  0.4553  0.2414
  292MOL0     C40211   9.231   7.023   1.035 -0.4158  0.6366 -0.6566
  292MOL0     C40212   9.344   6.956   1.004  0.3965 -0.0499 -1.0797
  292MOL0     C40213   9.646   6.623   0.830  0.1133 -0.3026  0.1559
  292MOL0     C40214   9.680   6.486   0.831  0.2104 -0.2016  1.0173
  292MOL0     C40215   9.815   6.460   0.826 -0.5147  0.1928 -0.2129
  292MOL0     C40216   9.908   6.554   0.812  0.1175 -0.1251 -0.6200
  292MOL0     O40217  10.045   6.528   0.800  0.4315 -0.1236 -1.2490
  292MOL0     C40218  10.094   6.391   0.791  0.0660  0.1011  0.0213
  292MOL0     C40219  10.252   6.370   0.776  0.2670 -0.1892 -0.1043
  292MOL0     C40220  10.297   6.238   0.721 -0.3178 -0.1651  0.1795
  292MOL0     C40221  10.284   6.243   0.571  0.4109  0.8948 -0.0643
  292MOL0     C40222  10.375   6.150   0.504  0.5096  0.3439  0.1176
  292MOL0     C40223  10.433   6.069   0.430 -0.3930  0.4416  0.2636
  292MOL0     C40224   9.866   6.691   0.799 -0.3171  0.7975  0.0722
  292MOL0     C40225   9.736   6.729   0.809  0.3966  0.3110 -0.3864
  292MOL0     C40226   9.699   6.866   0.790  1.0703 -0.9284  0.2201
  292MOL0     H40227   9.208   6.690   0.868 -0.5758  1.5103 -0.9461
  292MOL0     H40228   9.010   6.842   0.882 -0.7381  4.0454  1.3310
  292MOL0     H40229   9.064   7.168   1.170  1.3995 -1.1911  0.4331
  292MOL0     H40230   8.891   7.148   1.139 -0.6623 -0.1429  0.5995
  292MOL0     H40231   9.078   7.290   0.946  1.0208 -0.9944 -0.0431
  292MOL0     H40232   8.911   7.259   0.912  2.6259  3.4112 -3.3894
  292MOL0     H40233   8.830   7.420   1.058 -0.4522  1.3339 -0.5357
  292MOL0     H40234   8.955   7.399   1.170 -0.5772 -1.9829 -0.1334
  292MOL0     H40235   9.105   7.547   1.068 -1.1576  0.4831  0.0450
  292MOL0     H40236   9.036   7.531   0.912  1.5517 -2.4789  0.1202
  292MOL0     H40237   8.818   7.635   0.998 -1.3751  1.6136  0.4296
  292MOL0     H40238   8.956   7.744   0.973 -1.8779  1.8398  1.0299
  292MOL0     H40239   8.896   7.621   1.242  0.2774  1.5322  1.5004
  292MOL0     H40240   9.010   7.751   1.206  0.9895 -1.8784 -0.9826
  292MOL0     H40241   8.708   7.785   1.173 -1.5621  4.1806 -2.0202
  292MOL0     H40242   8.821   7.876   1.083 -0.8051 -0.1391 -1.5531
  292MOL0     H40243   8.743   7.983   1.295 -2.5398 -2.4705  1.6099
  292MOL0     H40244   8.844   7.863   1.383  0.9178  1.0214 -0.6575
  292MOL0     H40245   8.934   8.117   1.086  1.2148  2.3621  0.1463
  292MOL0     H40246   9.111   8.290   1.048  0.6007  1.9625  0.7906
  292MOL0     H40247   9.257   8.184   1.069 -0.2384  0.6827 -2.3954
  292MOL0     H40248   9.147   8.417   1.217 -2.3194 -2.5166 -0.1918
  292MOL0     H40249   9.285   8.325   1.278 -2.6232 -3.8119  0.5285
  292MOL0     H40250   9.426   8.441   1.180  0.8753 -2.8627 -0.2320
  292MOL0     H40251   9.368   8.377   1.026 -1.1736  2.3599 -2.7132
  292MOL0     H40252   9.198   8.548   1.018  0.5292 -1.2001 -1.0817
  292MOL0     H40253   9.281   8.651   1.132 -1.1540 -0.3661  0.4973
  292MOL0     H40254   9.484   8.719   1.177  0.5411  3.2867  0.4361
  292MOL0     H40255   9.782   8.710   1.344  2.9425  1.1005 -1.3628
  292MOL0     H40256   9.636   8.808   1.325 -0.6150  0.2140 -0.4486
  292MOL0     H40257   9.800   8.859   1.264  2.9805 -3.1839 -0.5404
  292MOL0     H40258  10.165   8.564   0.792 -0.0874 -1.4691  1.1446
  292MOL0     H40259  10.387   8.583   0.725  2.7768  2.5468 -1.3494
  292MOL0     H40260  10.579   8.696   0.645 -0.6020  0.5768 -0.2518
  292MOL0     H40261  10.640   8.861   0.667  2.2525  0.7616  1.2957
  292MOL0     H40262  10.761   8.598   0.779 -2.2696 -0.4721 -1.4558
  292MOL0     H40263  10.830   8.706   0.647  2.6868  0.9931  1.1639
  292MOL0     H40264  10.813   8.804   0.929 -0.0603 -2.4247 -0.5058
  292MOL0     H40265  10.909   8.863   0.786  0.9084  0.3281  0.8405
  292MOL0     H40266  11.067   8.748   0.906 -0.1687 -1.3781  2.9473
  292MOL0     H40267  11.016   8.627   0.789 -1.9984  0.5947 -0.8038
  292MOL0     H40268  10.964   8.664   1.072 -1.9657 -0.5229  0.8020
  292MOL0     H40269  10.839   8.570   0.979 -0.0917  0.8548 -0.7098
  292MOL0     H40270  11.139   8.481   0.974 -0.3438 -3.9681 -1.6851
  292MOL0     H40271  11.003   8.402   0.906  2.3014 -0.3897 -0.7465
  292MOL0     H40272  10.910   8.400   1.164 -0.1799  2.1059  1.1615
  292MOL0     H40273  11.060   8.471   1.203 -1.7131  1.4013 -0.6056
  292MOL0     H40274  11.003   8.189   1.073 -0.6922  2.2767 -1.6583
  292MOL0     H40275  11.050   8.217   1.238 -1.7077  1.2767 -0.4052
  292MOL0     H40276  10.423   8.913   1.016 -0.0285 -2.3431  2.2601
  292MOL0     H40277  10.174   8.925   1.025  1.5317 -0.6012  2.9808
  292MOL0     H40278   9.831   8.571   0.865 -0.2610 -2.1624  2.2787
  292MOL0     H40279   9.603   8.539   0.814  1.4130 -3.0981  1.4660
  292MOL0     H40280   9.252   7.121   1.077  2.3550  1.0915 -2.8239
  292MOL0     H40281   9.436   7.007   1.029 -1.9814  2.3992  4.2744
  292MOL0     H40282   9.618   6.398   0.819 -0.0626  0.3878 -3.8449
  292MOL0     H40283   9.836   6.353   0.828 -1.1364  0.0314 -1.3023
  292MOL0     H40284  10.061   6.344   0.884 -0.9248  1.1638  0.2238
  292MOL0     H40285  10.046   6.344   0.704 -2.3558  2.7786 -0.2504
  292MOL0     H40286  10.299   6.374   0.875 -1.0137 -1.2985  0.5637
  292MOL0     H40287  10.301   6.458   0.733  1.2459 -0.6257  0.0771
  292MOL0     H40288  10.399   6.212   0.749 -0.6719 -0.1951  1.4958
  292MOL0     H40289  10.234   6.154   0.753 -0.9446 -0.3885 -1.5264
  292MOL0     H40290  10.297   6.344   0.530 -0.5525  0.9599 -0.2209
  292MOL0     H40291  10.181   6.219   0.543  0.7514  0.0518 -0.6384
  292MOL0     H40292  10.492   6.002   0.370 -0.9740  0.2560 -0.1071
  292MOL0     H40293   9.942   6.764   0.772 -0.7235  0.7139 -1.4211
  292MOL0     H40294   9.739   6.888   0.690 -0.5514 -2.0721 -0.7388
  292MOL0     H40295   9.593   6.881   0.771  0.9193  0.2642  1.8465
  292MOL0     H40296   9.739   6.939   0.860 -1.7097  0.8139  0.1061
  293MOL0     O40297   5.803   2.926  10.674 -0.0692 -0.3421  0.3366
  293MOL0     C40298   5.918   2.894  10.674  0.4933  0.2126 -0.0362
  293MOL0     O40299   5.966   2.774  10.619 -0.1614  0.0750 -0.3733
  293MOL0     C40300   5.873   2.679  10.581 -0.5279 -0.3664 -0.2521
  293MOL0     C40301   5.923   2.592  10.474 -0.0887  0.3650  0.3494
  293MOL0     C40302   5.842   2.496  10.416  0.9731 -1.0199 -0.3847
  293MOL0     C40303   5.709   2.472  10.463  0.9310 -0.8098  0.4669
  293MOL0     O40304   5.644   2.370  10.407  0.5572  0.1879 -0.1005
  293MOL0     C40305   5.502   2.370  10.378  1.1348 -0.0902  0.7691
  293MOL0     C40306   5.472   2.311  10.242  0.4226  0.4702 -0.0077
  293MOL0     C40307   5.494   2.408  10.123  0.4306  0.7131  0.1487
  293MOL0     C40308   5.456   2.352   9.988  1.0029 -0.2950  0.3703
  293MOL0     C40309   5.486   2.450   9.878  0.1279  0.3328 -0.0668
  293MOL0     C40310   5.497   2.387   9.741 -0.4020  0.1682  0.1822
  293MOL0     C40311   5.391   2.285   9.709 -0.0063  0.4636  0.2250
  293MOL0     C40312   5.389   2.255   9.561  0.4345  0.3815 -0.7100
  293MOL0     N40313   5.333   2.114   9.542  0.2306  0.5399  0.7502
  293MOL0     C40314   5.408   1.997   9.565  0.5528  0.1988  0.1814
  293MOL0     C40315   5.323   1.901   9.528 -0.7223 -0.2453 -0.1799
  293MOL0     C40316   5.380   1.761   9.532 -0.4613  0.3080  0.1916
  293MOL0     C40317   5.275   1.652   9.574  0.2658 -0.0884 -0.2835
  293MOL0     C40318   5.213   1.585   9.449  0.7063  0.7788  0.1874
  293MOL0     C40319   5.082   1.504   9.464 -0.1852 -0.1474  0.6066
  293MOL0     O40320   4.978   1.583   9.521 -0.3450  0.1313 -0.0755
  293MOL0     C40321   4.929   1.682   9.429 -0.1957  0.1241 -0.0910
  293MOL0     C40322   4.919   1.822   9.464  0.5135  0.3348  0.3710
  293MOL0     C40323   4.852   1.914   9.385  0.8407 -0.2258 -0.1868
  293MOL0     C40324   4.854   2.048   9.439 -0.4665  0.2288 -0.1822
  293MOL0     C40325   4.809   1.884   9.253  1.0821  0.9793 -0.1369
  293MOL0     C40326   4.749   1.982   9.157 -0.0972  0.2001 -0.0099
  293MOL0     O40327   4.737   1.931   9.029  0.4899  0.1538 -0.2682
  293MOL0     C40328   4.738   2.032   8.936  0.6134 -0.5330 -0.4967
  293MOL0     C40329   4.616   2.066   8.887  0.8434  1.3474 -0.3391
  293MOL0     C40330   4.595   2.142   8.772  0.3994 -0.2040  0.2524
  293MOL0     C40331   4.712   2.191   8.713 -0.5295 -0.2337  0.5606
  293MOL0     O40332   4.694   2.253   8.590 -0.1249 -0.0156 -0.7423
  293MOL0     C40333   4.800   2.300   8.502 -0.7669  0.6013 -0.3501
  293MOL0     C40334   4.839   2.448   8.528  0.1107 -1.1123  0.3408
  293MOL0     C40335   4.721   2.541   8.495  0.6632  0.3971  0.3337
  293MOL0     C40336   4.666   2.586   8.622  0.8087  1.0333  0.2677
  293MOL0     C40337   4.530   2.667   8.607  0.6982  0.3042  0.0371
  293MOL0     C40338   4.417   2.574   8.556  0.1414 -0.2528 -0.3721
  293MOL0     C40339   4.379   2.444   8.633 -0.2262  0.5077 -0.7254
  293MOL0     C40340   4.313   2.467   8.768 -0.9553 -0.1994 -0.0193
  293MOL0    Cl40341   4.188   2.596   8.747  0.2020  0.2989  0.1395
  293MOL0     C40342   4.838   2.176   8.772  0.1274  0.5159  0.0997
  293MOL0     C40343   4.849   2.092   8.878 -0.9255 -0.4779 -0.2621
  293MOL0     O40344   4.734   2.101   9.187  0.5314 -0.0577  0.1082
  293MOL0     C40345   4.828   1.751   9.215  0.8720 -0.0825 -0.0092
  293MOL0     C40346   4.881   1.651   9.296  1.0833 -0.9709 -0.1665
  293MOL0     N40347   5.197   1.949   9.489 -0.9711  1.1115 -0.7420
  293MOL0     N40348   5.203   2.079   9.506 -0.0041  0.1274  0.1737
  293MOL0     C40349   5.658   2.558  10.560  0.0744 -1.2378  1.0012
  293MOL0     C40350   5.736   2.663  10.617 -0.2586 -0.2460 -0.3083
  293MOL0     C40351   6.014   3.001  10.731 -0.2265 -0.3497  0.8179
  293MOL0     C40352   5.963   3.120  10.758 -0.5933 -1.2328  0.5664
  293MOL0     C40353   6.039   3.235  10.799  0.3194  1.0490  0.0678
  293MOL0     C40354   6.176   3.223  10.806  0.5001 -0.8751 -0.0270
  293MOL0     O40355   6.239   3.341  10.822 -0.3298  0.3109  0.2623
  293MOL0     C40356   6.369   3.331  10.883 -0.1717  0.6115 -1.6437
  293MOL0     C40357   6.487   3.344  10.792 -0.7572 -0.4444 -0.7558
  293MOL0     C40358   6.624   3.366  10.875  0.3824 -0.9056  0.3091
  293MOL0     C40359   6.661   3.241  10.959  0.4147 -1.2377 -0.5475
  293MOL0     C40360   6.668   3.122  10.875 -0.1925  0.4642 -0.7094
  293MOL0     C40361   6.680   3.015  10.819 -0.5777  1.3862 -0.1814
  293MOL0     C40362   6.233   3.100  10.777 -0.7777  0.4942  1.5695
  293MOL0     C40363   6.158   2.991  10.737  0.1048  0.0706 -0.1941
  293MOL0     C40364   6.233   2.863  10.720  0.2027 -0.2805 -0.0337
  293MOL0     H40365   6.023   2.603  10.432 -0.9152 -2.1004 -2.5742
  293MOL0     H40366   5.875   2.436  10.332 -1.9121 -4.2459  0.5208
  293MOL0     H40367   5.456   2.469  10.386 -0.2874 -0.6265 -0.2790
  293MOL0     H40368   5.448   2.310  10.452  0.2549  1.4125  1.3969
  293MOL0     H40369   5.538   2.225  10.226  1.2619  1.2041 -0.6564
  293MOL0     H40370   5.365   2.289  10.233 -0.0061  3.0371 -5.5411
  293MOL0     H40371   5.448   2.505  10.143 -3.6725 -0.7706 -0.9783
  293MOL0     H40372   5.602   2.423  10.111  0.7037  0.1535  1.7134
  293MOL0     H40373   5.498   2.257   9.955 -0.6924 -0.5302 -1.3323
  293MOL0     H40374   5.347   2.339   9.984  0.9812 -1.8565  3.6111
  293MOL0     H40375   5.574   2.513   9.890  1.0535 -1.1900  1.5207
  293MOL0     H40376   5.391   2.504   9.884 -0.1713 -0.2622  0.6712
  293MOL0     H40377   5.485   2.458   9.659  0.2074 -1.8987 -1.8173
  293MOL0     H40378   5.589   2.328   9.734 -2.2956 -2.9691 -0.5054
  293MOL0     H40379   5.300   2.336   9.742  0.8194  1.7959  0.5026
  293MOL0     H40380   5.409   2.195   9.769 -1.1588  1.1977  1.7500
  293MOL0     H40381   5.343   2.336   9.504  0.5906 -1.0938 -3.0692
  293MOL0     H40382   5.492   2.251   9.524  0.2931  0.0520 -1.0677
  293MOL0     H40383   5.509   1.982   9.602 -0.3858 -3.4687  1.7867
  293MOL0     H40384   5.469   1.758   9.596  0.4556 -0.0851 -1.0598
  293MOL0     H40385   5.407   1.739   9.428 -1.9094  2.0218 -0.6086
  293MOL0     H40386   5.321   1.573   9.634 -1.0030 -0.7739 -0.1543
  293MOL0     H40387   5.197   1.694   9.639  1.1759 -1.1248  1.5721
  293MOL0     H40388   5.186   1.658   9.373 -2.8830 -0.1630  0.3819
  293MOL0     H40389   5.290   1.524   9.401 -0.7263 -0.5841 -0.4799
  293MOL0     H40390   5.060   1.461   9.366  1.8515 -0.2300  0.1347
  293MOL0     H40391   5.098   1.416   9.527 -0.6386 -1.0763 -0.5480
  293MOL0     H40392   4.960   1.849   9.560  0.3004  0.1119  0.5234
  293MOL0     H40393   4.942   2.109   9.415 -0.3420  0.9089  1.8226
  293MOL0     H40394   4.851   2.033   9.547  6.9591 -0.6158  0.3825
  293MOL0     H40395   4.758   2.097   9.418 -0.1925  0.5615 -0.6946
  293MOL0     H40396   4.529   2.030   8.941  0.4386 -1.1506 -2.4262
  293MOL0     H40397   4.496   2.160   8.731 -0.0269 -2.3520  0.2316
  293MOL0     H40398   4.885   2.233   8.516 -1.0770  0.3674  0.4807
  293MOL0     H40399   4.761   2.302   8.400  0.4195  1.5719 -0.8084
  293MOL0     H40400   4.879   2.464   8.629 -1.7086 -0.8007  1.0523
  293MOL0     H40401   4.924   2.471   8.463  1.4728 -2.7943  1.4186
  293MOL0     H40402   4.645   2.499   8.428 -0.0790  1.6415  0.3459
  293MOL0     H40403   4.752   2.630   8.439 -2.7962  0.2359 -2.1450
  293MOL0     H40404   4.741   2.649   8.669 -0.8045  2.6858  0.7144
  293MOL0     H40405   4.649   2.493   8.677 -2.0313  1.1524 -0.2526
  293MOL0     H40406   4.501   2.716   8.700 -1.2542 -0.0080 -0.3721
  293MOL0     H40407   4.542   2.747   8.535 -1.2875 -2.0402 -3.1465
  293MOL0     H40408   4.447   2.550   8.453  1.6475  0.3209 -0.0905
  293MOL0     H40409   4.331   2.641   8.546  0.4727  0.2757  0.2531
  293MOL0     H40410   4.466   2.380   8.646 -1.4570 -0.7489  2.0355
  293MOL0     H40411   4.313   2.383   8.570  1.4366 -1.4803 -0.6404
  293MOL0     H40412   4.383   2.480   8.852 -1.9255  1.2275  0.6180
  293MOL0     H40413   4.257   2.375   8.787 -0.7025  0.1893  3.3124
  293MOL0     H40414   4.931   2.220   8.739 -0.7722  3.0374  0.7251
  293MOL0     H40415   4.952   2.068   8.903 -0.8849 -0.0401 -0.0020
  293MOL0     H40416   4.801   1.725   9.113  1.3672  0.8163 -0.3800
  293MOL0     H40417   4.880   1.548   9.263 -2.1672 -0.8476 -0.8400
  293MOL0     H40418   5.552   2.564  10.582 -0.6415  3.6641 -2.4063
  293MOL0     H40419   5.685   2.733  10.683 -2.6615  1.4191 -3.6325
  293MOL0     H40420   5.857   3.139  10.747 -0.1662  1.9929  0.9941
  293MOL0     H40421   5.978   3.324  10.812  0.4587  1.3816 -1.4210
  293MOL0     H40422   6.375   3.411  10.958  1.2716 -1.2875  0.3873
  293MOL0     H40423   6.382   3.241  10.945  3.3318  1.8913 -0.2470
  293MOL0     H40424   6.473   3.424  10.719 -0.7915  0.5333  0.2950
  293MOL0     H40425   6.492   3.253  10.730 -1.7123 -1.0666  0.0382
  293MOL0     H40426   6.702   3.392  10.803  0.8122  2.0245  1.6883
  293MOL0     H40427   6.625   3.455  10.938  1.1672 -0.4672 -0.2997
  293MOL0     H40428   6.582   3.218  11.031 -0.9234 -0.7544 -1.8103
  293MOL0     H40429   6.754   3.261  11.014 -0.5849  1.0085  0.4880
  293MOL0     H40430   6.688   2.913  10.787  2.6110  1.6221 -0.5424
  293MOL0     H40431   6.340   3.085  10.781 -0.9794 -3.5126 -1.3493
  293MOL0     H40432   6.252   2.840  10.614  0.0989  1.1699 -0.3872
  293MOL0     H40433   6.325   2.869  10.777 -0.2844 -2.5481  1.1318
  293MOL0     H40434   6.188   2.774  10.765 -0.9287  0.0535 -0.4490
  294MOL0     O40435   8.706   8.224   9.925  0.0097  0.2479 -0.1375
  294MOL0     C40436   8.651   8.305  10.005  0.5896 -0.2193  0.2701
  294MOL0     O40437   8.546   8.388   9.972  0.4860 -0.1817 -0.0145
  294MOL0     C40438   8.487   8.376   9.853 -0.2956  0.3596  1.5249
  294MOL0     C40439   8.433   8.490   9.792 -0.0098  0.9315  0.7285
  294MOL0     C40440   8.368   8.487   9.678  0.3349 -0.3001  0.0157
  294MOL0     C40441   8.349   8.364   9.607  0.6926 -0.2435  0.6080
  294MOL0     O40442   8.298   8.341   9.484  0.0391  0.3348  0.6855
  294MOL0     C40443   8.299   8.447   9.386  0.2773  0.3501  0.3293
  294MOL0     C40444   8.248   8.404   9.245  0.3479  0.0659 -0.7988
  294MOL0     C40445   8.267   8.512   9.141 -0.6539 -0.3606  0.7237
  294MOL0     C40446   8.419   8.509   9.102  0.0423 -0.5690  0.5176
  294MOL0     C40447   8.461   8.613   8.996  0.0197 -0.4839  0.2395
  294MOL0     C40448   8.401   8.606   8.853  1.4117 -0.2655  0.2435
  294MOL0     C40449   8.390   8.746   8.789  0.6646  0.9168 -0.4432
  294MOL0     C40450   8.402   8.735   8.631  0.0247 -0.3819 -0.7358
  294MOL0     N40451   8.407   8.877   8.587 -1.0992  0.1177 -0.0092
  294MOL0     C40452   8.517   8.936   8.529 -0.6820 -0.6636 -0.0945
  294MOL0     C40453   8.501   9.070   8.528  0.3251 -1.0875  0.0334
  294MOL0     C40454   8.603   9.171   8.463  0.3243  0.1867 -1.4964
  294MOL0     C40455   8.635   9.272   8.577  0.7685 -0.2629  0.0111
  294MOL0     C40456   8.690   9.399   8.514  0.3176 -0.4519 -0.0911
  294MOL0     C40457   8.714   9.500   8.632 -0.1919 -0.7716  0.3218
  294MOL0     O40458   8.707   9.638   8.583  0.2986  0.1997  0.2735
  294MOL0     C40459   8.796   9.659   8.481  0.0956  0.3290  0.0650
  294MOL0     C40460   8.934   9.645   8.503 -1.2889 -0.9644 -0.2605
  294MOL0     C40461   9.026   9.684   8.401 -0.5550  1.0805 -0.6457
  294MOL0     C40462   9.163   9.640   8.423  0.5380 -0.1456 -0.1280
  294MOL0     C40463   8.984   9.744   8.272 -0.5283  0.1624 -0.1281
  294MOL0     C40464   9.074   9.792   8.170 -0.0567  0.3651 -0.3362
  294MOL0     O40465   9.201   9.820   8.207  0.0428  1.3505  0.5249
  294MOL0     C40466   9.286   9.870   8.113  0.1098 -0.4134 -0.0796
  294MOL0     C40467   9.287  10.015   8.103 -0.4556 -0.1625  0.8750
  294MOL0     C40468   9.382  10.068   8.025  0.6182 -0.8495 -1.4024
  294MOL0     C40469   9.482  10.000   7.950 -0.7639  0.9239  0.1089
  294MOL0     O40470   9.579  10.056   7.864  0.3404 -0.1080 -0.0416
  294MOL0     C40471   9.597  10.198   7.855  0.4538 -0.5396 -0.2938
  294MOL0     C40472   9.700  10.230   7.755  0.2913 -0.0647  0.0224
  294MOL0     C40473   9.839  10.167   7.784  0.2707  0.1736 -0.0139
  294MOL0     C40474   9.920  10.171   7.660  0.4943  0.6138  0.1890
  294MOL0     C40475  10.062  10.125   7.674 -0.0802  0.5240  0.8327
  294MOL0     C40476  10.157  10.203   7.757 -0.0256  0.0718  1.2109
  294MOL0     C40477  10.296  10.141   7.729  0.5956 -0.0397  0.4776
  294MOL0     C40478  10.385  10.151   7.850  0.3836  0.1069 -0.1780
  294MOL0    Cl40479  10.539  10.075   7.841  0.2811 -0.2102 -0.1420
  294MOL0     C40480   9.478   9.857   7.964  1.3110  0.0495 -0.0860
  294MOL0     C40481   9.379   9.795   8.049 -0.2960  0.9881 -0.0042
  294MOL0     O40482   9.024   9.809   8.061 -0.4570 -0.4433  0.4580
  294MOL0     C40483   8.838   9.759   8.262  0.4549  0.0471 -0.1229
  294MOL0     C40484   8.754   9.721   8.370  0.3963 -0.9823  0.5256
  294MOL0     N40485   8.373   9.095   8.581 -0.4086  0.5781 -0.5876
  294MOL0     N40486   8.316   8.982   8.619  0.6925  0.1602  0.3891
  294MOL0     C40487   8.406   8.249   9.664  0.1995  0.9647 -0.1871
  294MOL0     C40488   8.459   8.251   9.794 -0.5987 -0.0370 -0.1070
  294MOL0     C40489   8.709   8.328  10.137  1.0399 -0.3552 -0.5922
  294MOL0     C40490   8.689   8.452  10.201 -0.2121  0.5074  0.0130
  294MOL0     C40491   8.723   8.468  10.336 -1.0384 -0.3175 -0.8644
  294MOL0     C40492   8.805   8.377  10.411  0.4240  1.2484  0.6601
  294MOL0     O40493   8.836   8.418  10.531 -0.3986 -0.3270  0.0982
  294MOL0     C40494   8.942   8.340  10.597  0.2752 -0.1357 -0.3474
  294MOL0     C40495   8.969   8.409  10.732 -0.1212 -0.5174 -0.0774
  294MOL0     C40496   9.060   8.527  10.726 -0.5307 -1.0305  1.1124
  294MOL0     C40497   9.080   8.617  10.846 -0.2775  0.2122 -0.6930
  294MOL0     C40498   8.951   8.684  10.884 -1.3176 -0.6043 -0.9277
  294MOL0     C40499   8.845   8.736  10.911 -0.4764 -1.4931 -0.6670
  294MOL0     C40500   8.831   8.259  10.341  1.3556  0.4153  0.3737
  294MOL0     C40501   8.781   8.227  10.211 -0.0754  0.1423  0.2685
  294MOL0     C40502   8.807   8.087  10.164 -0.2258  0.2233 -0.1398
  294MOL0     H40503   8.456   8.588   9.833  2.1335  0.5461  0.5312
  294MOL0     H40504   8.330   8.581   9.640  2.9413  1.8872  2.3521
  294MOL0     H40505   8.406   8.467   9.399  0.4688 -1.3932  1.7654
  294MOL0     H40506   8.234   8.531   9.410 -1.7720  0.1502 -3.5540
  294MOL0     H40507   8.289   8.308   9.211 -2.7001 -1.4844 -0.4888
  294MOL0     H40508   8.140   8.401   9.267  0.6092  3.7347  1.9626
  294MOL0     H40509   8.215   8.490   9.047  0.9638  1.9879 -0.8401
  294MOL0     H40510   8.227   8.609   9.169 -1.1654 -0.4859  0.4324
  294MOL0     H40511   8.486   8.531   9.186  0.7401  0.6300 -0.3251
  294MOL0     H40512   8.442   8.405   9.078 -1.2812 -0.7396 -0.1299
  294MOL0     H40513   8.568   8.593   8.987 -0.1141 -1.5118  0.6617
  294MOL0     H40514   8.457   8.711   9.044  1.5008  0.1250 -0.8105
  294MOL0     H40515   8.467   8.533   8.805 -0.6156 -1.7796 -0.3596
  294MOL0     H40516   8.304   8.559   8.868  1.7135 -0.4776  1.7378
  294MOL0     H40517   8.468   8.815   8.824  0.9574 -0.9456  3.0078
  294MOL0     H40518   8.294   8.795   8.811  0.4294  0.3023 -0.0721
  294MOL0     H40519   8.497   8.693   8.597  0.6883  2.2188 -2.4486
  294MOL0     H40520   8.314   8.682   8.593 -0.1990 -0.4843 -0.0863
  294MOL0     H40521   8.610   8.889   8.497 -1.9808 -3.1197 -0.4761
  294MOL0     H40522   8.548   9.221   8.383  0.6010  0.1058 -1.7405
  294MOL0     H40523   8.693   9.122   8.424  1.9973  1.4461  0.5269
  294MOL0     H40524   8.546   9.292   8.637 -0.7111  3.1159 -2.9720
  294MOL0     H40525   8.720   9.247   8.641  1.1978  3.4988  1.1069
  294MOL0     H40526   8.780   9.381   8.454  2.4608  1.1438  2.4644
  294MOL0     H40527   8.607   9.428   8.448  0.1716 -0.1791  0.2116
  294MOL0     H40528   8.627   9.500   8.698  0.4246 -0.5849  1.1541
  294MOL0     H40529   8.801   9.468   8.690 -1.5012 -1.7854  1.8085
  294MOL0     H40530   8.968   9.626   8.604  0.5659  1.4147 -0.3362
  294MOL0     H40531   9.189   9.588   8.330 -1.3763 -0.8249 -0.3267
  294MOL0     H40532   9.157   9.569   8.506 -1.6459 -0.7218 -0.7199
  294MOL0     H40533   9.231   9.725   8.424 -1.3082  1.4079 -0.9412
  294MOL0     H40534   9.207  10.076   8.143  0.8612  2.5618 -0.3778
  294MOL0     H40535   9.362  10.171   7.996  1.0560 -1.0841 -2.5992
  294MOL0     H40536   9.503  10.251   7.841  1.2759  0.4626 -2.3872
  294MOL0     H40537   9.644  10.230   7.948  0.2871  0.3508 -0.5150
  294MOL0     H40538   9.663  10.216   7.653  0.8478  0.4561 -0.2553
  294MOL0     H40539   9.725  10.336   7.754  1.3712 -0.2945  0.6538
  294MOL0     H40540   9.829  10.063   7.816 -1.7474 -0.0861 -1.2621
  294MOL0     H40541   9.885  10.226   7.864 -2.9722  3.0031  0.0487
  294MOL0     H40542   9.921  10.274   7.625 -1.4054 -0.0979 -2.1920
  294MOL0     H40543   9.866  10.110   7.587 -0.4692  0.7586  0.7727
  294MOL0     H40544  10.058  10.021   7.708  1.4115  0.2560  0.2361
  294MOL0     H40545  10.099  10.128   7.572  1.0581 -1.1749  1.1443
  294MOL0     H40546  10.131  10.208   7.863 -0.0960  0.7441  1.1680
  294MOL0     H40547  10.156  10.307   7.722 -0.4052 -1.0661 -2.5934
  294MOL0     H40548  10.330  10.190   7.638 -3.0281  1.5678 -0.1815
  294MOL0     H40549  10.286  10.035   7.703  0.3220  0.1052 -0.0276
  294MOL0     H40550  10.325  10.118   7.935 -2.3494  1.1149 -1.5970
  294MOL0     H40551  10.409  10.258   7.854  1.1070 -0.0550  0.0498
  294MOL0     H40552   9.536   9.799   7.893  3.0093  3.8911 -2.1709
  294MOL0     H40553   9.369   9.687   8.056 -2.1395  1.0762 -0.6704
  294MOL0     H40554   8.806   9.810   8.171  1.8384  2.0807  0.4483
  294MOL0     H40555   8.651   9.745   8.344  1.0034 -1.3461 -2.6543
  294MOL0     H40556   8.383   8.154   9.616  0.4991  0.3156  0.9212
  294MOL0     H40557   8.485   8.161   9.850 -0.4518 -2.5205 -3.7792
  294MOL0     H40558   8.654   8.535  10.139 -1.8504 -0.7373 -0.8158
  294MOL0     H40559   8.687   8.559  10.382 -1.0903 -0.4253 -0.6935
  294MOL0     H40560   8.907   8.242  10.630 -3.3269  1.3306  0.6012
  294MOL0     H40561   9.028   8.341  10.530 -0.4547  0.9537 -1.3091
  294MOL0     H40562   9.005   8.335  10.804  0.7028  1.4563  1.6226
  294MOL0     H40563   8.876   8.458  10.763  1.9192  3.4824  0.3948
  294MOL0     H40564   9.152   8.493  10.677 -2.3410 -0.8528 -2.7903
  294MOL0     H40565   9.022   8.590  10.645  0.2753 -4.9045 -2.6922
  294MOL0     H40566   9.162   8.684  10.819 -1.0655  0.5773 -2.3294
  294MOL0     H40567   9.107   8.557  10.933 -0.4465  1.2678  0.1019
  294MOL0     H40568   8.746   8.777  10.922 -1.3813 -3.2233 -1.8704
  294MOL0     H40569   8.891   8.176  10.377 -2.1458 -2.3149  0.4918
  294MOL0     H40570   8.818   8.028  10.256  4.0388  0.8416 -0.0266
  294MOL0     H40571   8.727   8.046  10.102 -0.2683  3.1396 -2.2390
  294MOL0     H40572   8.904   8.079  10.113  0.9240 -0.6333  2.0522
  295MOL0     O40573  11.417   5.393   4.338 -0.4067  1.1213 -0.1419
  295MOL0     C40574  11.488   5.444   4.423  0.1948 -0.5182 -0.8236
  295MOL0     O40575  11.615   5.417   4.445 -0.7290 -0.1393 -0.2163
  295MOL0     C40576  11.676   5.306   4.384  0.0884  0.4467  0.5070
  295MOL0     C40577  11.645   5.164   4.400 -0.3455  0.6120  0.9568
  295MOL0     C40578  11.736   5.069   4.352  0.9476 -0.3724  0.5462
  295MOL0     C40579  11.844   5.108   4.275 -0.4139 -0.2122 -0.2237
  295MOL0     O40580  11.935   5.018   4.221 -0.0112  0.0547  0.2074
  295MOL0     C40581  11.942   4.877   4.273  0.1046 -0.4237  0.7541
  295MOL0     C40582  12.028   4.799   4.160 -0.1532  0.1046 -0.2061
  295MOL0     C40583  12.179   4.825   4.178 -0.2327  1.1496 -0.4879
  295MOL0     C40584  12.231   4.708   4.264  1.1720 -0.5157 -0.3788
  295MOL0     C40585  12.373   4.719   4.317  0.1094  0.8592 -0.0168
  295MOL0     C40586  12.480   4.732   4.201  0.3509 -1.1053 -0.4226
  295MOL0     C40587  12.460   4.632   4.087 -0.9451  0.6925  0.3741
  295MOL0     C40588  12.472   4.485   4.136 -0.1356  0.4929 -0.1648
  295MOL0     N40589  12.449   4.381   4.029  0.9591  0.0472  0.0110
  295MOL0     C40590  12.326   4.314   4.003  0.0242 -0.1727  1.5177
  295MOL0     C40591  12.345   4.223   3.899  0.4685 -0.1166 -0.9732
  295MOL0     C40592  12.250   4.129   3.833  0.1231  0.4795 -0.3123
  295MOL0     C40593  12.274   4.118   3.684 -0.1510 -0.8155  0.7184
  295MOL0     C40594  12.210   4.007   3.604  0.3715  0.0583 -0.1291
  295MOL0     C40595  12.213   4.031   3.455 -1.0541 -0.7034  0.5280
  295MOL0     O40596  12.164   4.162   3.424  0.2053  0.2208 -0.1406
  295MOL0     C40597  12.175   4.206   3.294 -0.3580  1.0405 -0.4422
  295MOL0     C40598  12.152   4.341   3.259  0.1780  0.3467 -0.6633
  295MOL0     C40599  12.143   4.388   3.127  0.0251  0.1346  0.2580
  295MOL0     C40600  12.122   4.544   3.113  0.0486  0.4058 -1.1169
  295MOL0     C40601  12.164   4.301   3.026 -0.7864  0.2691  0.2680
  295MOL0     C40602  12.147   4.332   2.878  0.5939  0.1595  0.9007
  295MOL0     O40603  12.109   4.222   2.802  0.1220  0.9039  0.1479
  295MOL0     C40604  12.071   4.231   2.671  0.0407  0.0426 -0.4070
  295MOL0     C40605  11.999   4.339   2.616 -0.3615 -0.4583  0.5794
  295MOL0     C40606  11.950   4.342   2.482 -0.1571 -0.8845 -0.6115
  295MOL0     C40607  11.966   4.219   2.414 -0.3162 -0.1165 -0.2800
  295MOL0     O40608  11.929   4.224   2.280  0.2836  0.8819 -0.0591
  295MOL0     C40609  11.890   4.109   2.205 -0.1360  0.7151 -0.3146
  295MOL0     C40610  11.916   4.133   2.056 -0.2751 -0.3322  0.2451
  295MOL0     C40611  11.862   4.027   1.970 -0.4752  0.1256 -0.6754
  295MOL0     C40612  11.958   3.905   1.974 -0.4775 -0.5111 -0.2296
  295MOL0     C40613  11.909   3.781   1.901  0.0018  0.3066 -0.4490
  295MOL0     C40614  11.863   3.814   1.756 -0.1008  0.3768  0.3742
  295MOL0     C40615  11.859   3.684   1.687 -1.1119  0.7037  0.5557
  295MOL0     C40616  11.815   3.694   1.546  0.8742 -0.9557 -0.7421
  295MOL0    Cl40617  11.904   3.826   1.461  0.0809  0.2755 -0.4253
  295MOL0     C40618  12.042   4.116   2.471  0.5463 -1.2162  0.8784
  295MOL0     C40619  12.100   4.119   2.593 -0.2210 -0.6001 -0.7146
  295MOL0     O40620  12.164   4.446   2.831 -0.0722  0.1280 -0.0389
  295MOL0     C40621  12.203   4.169   3.054 -0.3155 -0.1572  0.8277
  295MOL0     C40622  12.218   4.123   3.188  0.5518 -0.4088  0.2878
  295MOL0     N40623  12.466   4.257   3.850  0.1172 -1.1666 -0.8905
  295MOL0     N40624  12.530   4.340   3.931  0.5623 -0.2039 -0.0959
  295MOL0     C40625  11.868   5.240   4.241  0.4950 -0.1521 -0.2590
  295MOL0     C40626  11.786   5.342   4.303  0.4888 -0.1786  0.4162
  295MOL0     C40627  11.416   5.516   4.532 -1.0079 -0.0779 -0.0891
  295MOL0     C40628  11.290   5.567   4.500 -0.4975  1.0990 -0.1611
  295MOL0     C40629  11.221   5.659   4.585 -0.3650 -0.5846 -0.1030
  295MOL0     C40630  11.279   5.709   4.694 -0.2644 -1.1005  0.1484
  295MOL0     O40631  11.213   5.806   4.777  0.6747  0.4865 -0.7391
  295MOL0     C40632  11.135   5.903   4.711  0.3280  0.1656  0.5139
  295MOL0     C40633  11.093   6.005   4.814 -0.6420 -0.5377  1.0102
  295MOL0     C40634  10.950   5.982   4.864 -0.4178 -0.2166 -0.2529
  295MOL0     C40635  10.926   6.089   4.969 -0.5051  0.6361  0.5575
  295MOL0     C40636  10.791   6.102   5.018  0.0453  0.5977  0.3413
  295MOL0     C40637  10.676   6.123   5.051  0.5350  0.3673 -0.7059
  295MOL0     C40638  11.397   5.649   4.745 -0.3831 -0.3378 -0.2592
  295MOL0     C40639  11.477   5.561   4.663 -0.0350 -0.6475  0.1766
  295MOL0     C40640  11.598   5.496   4.726 -1.2291 -0.3455  0.3860
  295MOL0     H40641  11.562   5.125   4.458 -2.0595 -2.0732 -2.8724
  295MOL0     H40642  11.726   4.970   4.394 -4.1444 -1.3558 -2.2293
  295MOL0     H40643  11.847   4.824   4.282  0.5577 -1.1790  1.1060
  295MOL0     H40644  11.985   4.876   4.373  0.7510  0.0941  0.4895
  295MOL0     H40645  12.004   4.694   4.177 -2.6340  0.7290  0.4592
  295MOL0     H40646  11.997   4.839   4.063  0.9996  0.4690 -0.4454
  295MOL0     H40647  12.233   4.819   4.083 -1.8574 -0.2924 -1.3882
  295MOL0     H40648  12.198   4.922   4.225 -2.1673  0.2660  2.3867
  295MOL0     H40649  12.160   4.717   4.346 -0.6987 -1.1790 -1.8433
  295MOL0     H40650  12.211   4.607   4.228  0.8785 -0.9672  0.9944
  295MOL0     H40651  12.396   4.631   4.377 -1.0725  0.8015  0.3593
  295MOL0     H40652  12.379   4.805   4.384 -2.6298  0.6762  0.5708
  295MOL0     H40653  12.473   4.835   4.165 -1.0388 -0.4785  1.5210
  295MOL0     H40654  12.577   4.726   4.251  1.9651  0.2001 -3.1444
  295MOL0     H40655  12.530   4.649   4.005 -2.2782  0.1516 -0.9108
  295MOL0     H40656  12.362   4.630   4.039 -1.3364  0.5157  1.1648
  295MOL0     H40657  12.574   4.462   4.168 -0.7670 -0.5743  1.1751
  295MOL0     H40658  12.404   4.454   4.216 -0.1490 -1.2742 -0.8265
  295MOL0     H40659  12.230   4.336   4.049 -0.8252 -0.7671  0.0874
  295MOL0     H40660  12.149   4.165   3.855  1.4377  3.4328  1.5339
  295MOL0     H40661  12.271   4.033   3.882 -0.8748  1.7251  2.7937
  295MOL0     H40662  12.253   4.213   3.635 -0.7052 -2.3386 -2.2524
  295MOL0     H40663  12.381   4.101   3.671 -0.2492 -0.7729 -0.2899
  295MOL0     H40664  12.252   3.913   3.640 -0.9111 -0.3157  0.4416
  295MOL0     H40665  12.103   4.001   3.626  0.1637  3.2723  0.1656
  295MOL0     H40666  12.312   4.011   3.414  0.6273  1.1646  3.3365
  295MOL0     H40667  12.147   3.957   3.409  0.3073 -2.0562  0.6565
  295MOL0     H40668  12.115   4.393   3.347 -1.4495 -1.9232  0.0777
  295MOL0     H40669  12.058   4.576   3.195 -1.4403 -0.9144 -1.7063
  295MOL0     H40670  12.056   4.564   3.028 -0.9996 -0.0428 -0.4266
  295MOL0     H40671  12.217   4.598   3.106  0.7535 -0.7156 -0.4777
  295MOL0     H40672  11.981   4.431   2.669 -0.3997  1.9844 -3.2940
  295MOL0     H40673  11.904   4.431   2.439  3.1062  0.9962 -0.5336
  295MOL0     H40674  11.938   4.017   2.241 -0.1366  1.5488  2.0474
  295MOL0     H40675  11.782   4.091   2.208  0.1810 -2.0591 -2.0114
  295MOL0     H40676  11.872   4.227   2.021 -0.6621  0.2897  2.2970
  295MOL0     H40677  12.024   4.139   2.042 -0.2627  0.6223  0.7182
  295MOL0     H40678  11.860   4.059   1.865 -3.2006  1.0726 -0.4310
  295MOL0     H40679  11.756   4.006   1.991 -0.0478 -2.9731 -1.1932
  295MOL0     H40680  11.969   3.879   2.079  0.1935 -3.7255 -0.9885
  295MOL0     H40681  12.056   3.933   1.937 -0.3404 -0.8405 -0.1215
  295MOL0     H40682  11.996   3.715   1.896  0.5444  1.0283 -0.5215
  295MOL0     H40683  11.824   3.741   1.958  0.4652 -0.5185 -0.3151
  295MOL0     H40684  11.937   3.882   1.714  0.8837  1.3185  3.4002
  295MOL0     H40685  11.764   3.861   1.764 -1.6082 -2.4629 -0.0603
  295MOL0     H40686  11.821   3.606   1.754 -0.2357 -1.5346 -1.3741
  295MOL0     H40687  11.964   3.652   1.685 -0.1943  3.2709  2.4172
  295MOL0     H40688  11.709   3.717   1.550  1.1916  0.5532 -0.7312
  295MOL0     H40689  11.825   3.598   1.494 -1.2412 -2.4005  1.3273
  295MOL0     H40690  12.076   4.036   2.406 -1.1422 -1.2517 -0.0334
  295MOL0     H40691  12.147   4.035   2.644 -1.4175 -0.6581  0.3529
  295MOL0     H40692  12.216   4.093   2.978 -0.3410  0.8904 -0.2450
  295MOL0     H40693  12.252   4.022   3.208  0.7664  0.0015  2.2031
  295MOL0     H40694  11.943   5.264   4.167  0.1293  1.9082 -0.0323
  295MOL0     H40695  11.794   5.449   4.282 -3.0126  0.4980  1.8388
  295MOL0     H40696  11.241   5.534   4.408 -0.6127  0.3976  0.1414
  295MOL0     H40697  11.122   5.696   4.558 -1.4802 -0.3499  3.7111
  295MOL0     H40698  11.198   5.950   4.635 -1.7663  1.1024 -0.7517
  295MOL0     H40699  11.048   5.859   4.661  1.0065  1.0020 -1.4811
  295MOL0     H40700  11.102   6.095   4.752  0.8874 -0.8601  0.7153
  295MOL0     H40701  11.167   5.997   4.895  2.0078 -1.2715 -1.3166
  295MOL0     H40702  10.878   5.990   4.783 -1.6581  1.2585  0.9505
  295MOL0     H40703  10.943   5.884   4.914  2.6713  0.5074  1.9405
  295MOL0     H40704  10.947   6.185   4.922 -1.8347 -0.1625 -1.8377
  295MOL0     H40705  10.997   6.088   5.052 -1.0220  2.8438  1.1016
  295MOL0     H40706  10.575   6.120   5.083  1.3357 -2.1920  1.9178
  295MOL0     H40707  11.421   5.686   4.844 -3.2437 -1.1230  0.8478
  295MOL0     H40708  11.691   5.503   4.669 -0.6301 -0.5605  1.3137
  295MOL0     H40709  11.611   5.528   4.830 -3.4415  2.6808 -0.1375
  295MOL0     H40710  11.577   5.389   4.723 -0.4444 -0.4778 -0.7814
  296MOL0     O40711   1.958   7.642   8.433 -0.1955 -0.7380 -0.6462
  296MOL0     C40712   1.969   7.667   8.551  0.0881 -0.4964 -0.8055
  296MOL0     O40713   1.865   7.709   8.629 -0.0008  0.1489  0.0780
  296MOL0     C40714   1.736   7.688   8.586 -0.6703  0.0813  0.5091
  296MOL0     C40715   1.678   7.764   8.483  0.2832 -1.0865  0.1085
  296MOL0     C40716   1.548   7.752   8.453  0.2439 -0.6151  0.1858
  296MOL0     C40717   1.459   7.669   8.526 -0.5713  0.3995 -0.4940
  296MOL0     O40718   1.333   7.659   8.476  0.1141  0.4447  0.7611
  296MOL0     C40719   1.233   7.636   8.571  0.6593 -0.6871 -0.0656
  296MOL0     C40720   1.220   7.762   8.660  1.1111 -0.8259 -0.0129
  296MOL0     C40721   1.093   7.767   8.735 -0.5042 -0.8542  0.7219
  296MOL0     C40722   1.086   7.904   8.815 -0.7611 -0.0880  0.4744
  296MOL0     C40723   0.958   7.922   8.907 -0.1074  0.1451 -0.6018
  296MOL0     C40724   0.938   8.054   8.979  0.8378 -0.3367  0.1859
  296MOL0     C40725   1.066   8.100   9.057 -0.0936  0.1304  0.0757
  296MOL0     C40726   1.047   8.223   9.155  0.6932  0.7810 -0.4267
  296MOL0     N40727   0.957   8.181   9.267 -0.3051 -0.7174  0.5746
  296MOL0     C40728   0.982   8.101   9.379  0.5506 -0.1023  0.8142
  296MOL0     C40729   0.862   8.085   9.431 -0.7174  0.4099  0.8163
  296MOL0     C40730   0.828   8.045   9.567 -0.0123 -0.0194  0.6749
  296MOL0     C40731   0.874   8.157   9.655 -0.1193 -0.0256  0.7745
  296MOL0     C40732   0.837   8.162   9.798 -0.3689 -0.0746 -0.2829
  296MOL0     C40733   0.861   8.029   9.878 -0.0862  0.0347  0.3419
  296MOL0     O40734   0.841   8.039  10.018  0.9776 -0.9290  0.4903
  296MOL0     C40735   0.907   8.134  10.086  0.4159  0.1027 -0.1493
  296MOL0     C40736   1.048   8.144  10.082  0.3094  0.2063  0.2030
  296MOL0     C40737   1.112   8.224  10.172 -0.4340  0.0233 -0.4621
  296MOL0     C40738   1.260   8.228  10.169  0.5048 -0.4842 -0.4069
  296MOL0     C40739   1.043   8.307  10.255  0.3130 -0.4418 -0.5505
  296MOL0     C40740   1.107   8.412  10.338 -0.6916 -0.2387 -0.1050
  296MOL0     O40741   1.223   8.474  10.296 -1.0869  1.0232 -0.5888
  296MOL0     C40742   1.274   8.570  10.378 -0.2818  0.3176 -1.5433
  296MOL0     C40743   1.358   8.532  10.489 -0.0787  0.1291  0.3723
  296MOL0     C40744   1.403   8.640  10.574  0.1497  0.3772  0.4918
  296MOL0     C40745   1.381   8.775  10.539 -0.0168 -1.4206 -0.0950
  296MOL0     O40746   1.436   8.865  10.621  0.6153 -0.6999 -0.6569
  296MOL0     C40747   1.403   9.000  10.605 -0.5036 -0.4037 -0.4229
  296MOL0     C40748   1.453   9.090  10.728 -0.2533 -0.3292 -0.2250
  296MOL0     C40749   1.452   9.243  10.692  0.5429 -0.1872 -0.7000
  296MOL0     C40750   1.522   9.312  10.801 -0.5455 -0.0269 -0.9891
  296MOL0     C40751   1.651   9.389  10.761 -0.1693 -0.1278  0.3927
  296MOL0     C40752   1.748   9.404  10.874 -1.3953  0.4913  0.7380
  296MOL0     C40753   1.850   9.507  10.837  0.8305  0.4557  1.4110
  296MOL0     C40754   1.968   9.474  10.739  1.3280  0.5377  0.9666
  296MOL0    Cl40755   2.070   9.345  10.811  0.1204 -0.0363 -0.4669
  296MOL0     C40756   1.304   8.805  10.426 -0.2277 -0.4700  0.2249
  296MOL0     C40757   1.242   8.703  10.346 -1.2536 -0.0694 -0.2100
  296MOL0     O40758   1.050   8.439  10.444 -0.0322  0.9226 -0.0636
  296MOL0     C40759   0.908   8.293  10.258 -0.5631 -0.3444 -0.4343
  296MOL0     C40760   0.838   8.205  10.178  0.1515 -0.4876  0.0189
  296MOL0     N40761   0.771   8.129   9.349 -0.7154  0.5600 -0.0278
  296MOL0     N40762   0.825   8.193   9.256 -0.1189  0.4239 -0.9443
  296MOL0     C40763   1.519   7.599   8.634  0.8426 -0.4848 -0.6080
  296MOL0     C40764   1.655   7.611   8.657 -0.4622 -0.2887 -0.4414
  296MOL0     C40765   2.109   7.669   8.606 -0.5597 -0.2739  0.9809
  296MOL0     C40766   2.121   7.699   8.743 -0.0239 -1.1260  0.1077
  296MOL0     C40767   2.249   7.701   8.810  0.5053  0.2529  0.0729
  296MOL0     C40768   2.367   7.672   8.743 -0.4581  0.2536  0.0961
  296MOL0     O40769   2.483   7.686   8.809 -0.3610  0.1808  0.4709
  296MOL0     C40770   2.525   7.827   8.783  0.5942  0.2768 -0.0738
  296MOL0     C40771   2.665   7.845   8.827  0.1576 -0.3190  0.2704
  296MOL0     C40772   2.755   7.774   8.731 -0.2153  0.8800  0.2962
  296MOL0     C40773   2.907   7.809   8.747  0.4884  0.1527 -0.2570
  296MOL0     C40774   2.975   7.714   8.664  0.9715  0.4300  0.2230
  296MOL0     C40775   3.030   7.641   8.591  0.2324 -0.4733  0.0786
  296MOL0     C40776   2.359   7.648   8.602 -0.0221 -0.2220  0.2590
  296MOL0     C40777   2.233   7.646   8.536 -0.5540 -0.0248 -0.2744
  296MOL0     C40778   2.249   7.625   8.395  0.1327 -0.2301  0.1044
  296MOL0     H40779   1.735   7.836   8.425 -1.1989  0.3823  0.4006
  296MOL0     H40780   1.508   7.819   8.378 -0.0637 -0.5799  0.3800
  296MOL0     H40781   1.251   7.546   8.630  2.6189  0.2756  0.8918
  296MOL0     H40782   1.137   7.625   8.520 -0.0267  0.4233  0.9141
  296MOL0     H40783   1.300   7.764   8.735 -1.1750 -1.8402  2.5967
  296MOL0     H40784   1.219   7.854   8.601 -0.4947 -1.0255 -0.3283
  296MOL0     H40785   1.000   7.767   8.678  0.4141  1.9326 -0.9608
  296MOL0     H40786   1.093   7.688   8.811 -0.9210 -2.3455 -0.7687
  296MOL0     H40787   1.162   7.904   8.894 -0.4761  2.5932  0.2701
  296MOL0     H40788   1.108   7.987   8.748  0.5863 -0.1060  0.8566
  296MOL0     H40789   0.958   7.843   8.982  1.2626  0.8826  0.2158
  296MOL0     H40790   0.875   7.901   8.839 -0.0407 -0.6556 -0.4513
  296MOL0     H40791   0.900   8.122   8.902 -0.9582 -1.5689 -0.0838
  296MOL0     H40792   0.858   8.045   9.053  0.7872  0.5849  0.2529
  296MOL0     H40793   1.127   8.124   8.969 -3.9343  0.0971 -2.8685
  296MOL0     H40794   1.109   8.015   9.112 -1.6218  0.0186  1.1500
  296MOL0     H40795   1.143   8.243   9.204  3.1359 -2.8569 -3.0899
  296MOL0     H40796   1.005   8.306   9.099  0.9620  0.6753 -0.7901
  296MOL0     H40797   1.083   8.098   9.418  1.4738 -2.2774 -1.4313
  296MOL0     H40798   0.866   7.949   9.603 -0.9305  0.1280  2.1114
  296MOL0     H40799   0.720   8.035   9.581 -0.1224 -2.4535 -1.2712
  296MOL0     H40800   0.984   8.161   9.651 -0.1020  2.5930  1.8461
  296MOL0     H40801   0.841   8.254   9.616 -0.7763  1.1196  3.8670
  296MOL0     H40802   0.891   8.244   9.847  4.0219 -0.9828 -2.9706
  296MOL0     H40803   0.732   8.191   9.801  0.2445  2.9431 -2.5327
  296MOL0     H40804   0.798   7.957   9.824  1.4016  1.3398 -3.4865
  296MOL0     H40805   0.963   8.000   9.852  0.3590  0.7981  1.2015
  296MOL0     H40806   1.112   8.077  10.026  0.5684  0.5910  0.0340
  296MOL0     H40807   1.302   8.138  10.123  0.6614  0.9707 -3.3213
  296MOL0     H40808   1.292   8.235  10.274 -0.9280 -1.3754  0.1243
  296MOL0     H40809   1.299   8.310  10.109  4.5153 -1.1290  0.9974
  296MOL0     H40810   1.379   8.427  10.510 -0.3574 -0.0036 -0.0105
  296MOL0     H40811   1.457   8.617  10.666  3.2267 -2.4330 -1.7545
  296MOL0     H40812   1.455   9.035  10.516 -1.0166  0.6038 -0.3322
  296MOL0     H40813   1.295   9.009  10.593 -0.7895  0.9146  2.3783
  296MOL0     H40814   1.394   9.063  10.816 -1.6598  0.4460 -0.8950
  296MOL0     H40815   1.557   9.059  10.742  0.0833  0.8117 -0.0901
  296MOL0     H40816   1.347   9.276  10.692  0.6202  0.2073  1.1732
  296MOL0     H40817   1.492   9.257  10.592 -0.1254  1.5807 -0.7618
  296MOL0     H40818   1.542   9.232  10.874 -0.7938  1.8881  1.3180
  296MOL0     H40819   1.460   9.383  10.858 -0.7171 -0.5096 -0.5667
  296MOL0     H40820   1.695   9.325  10.684  0.8632  1.3676 -0.2972
  296MOL0     H40821   1.628   9.486  10.717 -0.2573 -0.2751  0.1119
  296MOL0     H40822   1.792   9.305  10.892  1.7933  0.7413 -3.9753
  296MOL0     H40823   1.698   9.436  10.966 -2.2294 -0.1289  0.5157
  296MOL0     H40824   1.896   9.541  10.930  1.3965  1.1507  0.8889
  296MOL0     H40825   1.800   9.594  10.793 -0.5251  0.4952  2.9401
  296MOL0     H40826   2.024   9.565  10.716  0.0974  1.0366 -0.1998
  296MOL0     H40827   1.931   9.446  10.640  2.1623  1.5237  0.3585
  296MOL0     H40828   1.280   8.906  10.396 -0.1117 -0.8950 -1.3629
  296MOL0     H40829   1.167   8.716  10.268  0.2813 -1.1386 -1.9298
  296MOL0     H40830   0.857   8.350  10.335  1.5995  1.8219 -0.4775
  296MOL0     H40831   0.733   8.184  10.189  0.6005 -2.5001  1.0056
  296MOL0     H40832   1.464   7.523   8.688  0.5245 -0.3037 -0.6784
  296MOL0     H40833   1.694   7.567   8.749 -1.9731  0.3575  0.5428
  296MOL0     H40834   2.036   7.704   8.810  0.3808 -0.7832  0.6043
  296MOL0     H40835   2.255   7.733   8.914  1.1544 -1.3420  0.5569
  296MOL0     H40836   2.510   7.851   8.677 -3.7120 -0.9640  0.0892
  296MOL0     H40837   2.470   7.905   8.836  1.2334  0.8765 -0.2824
  296MOL0     H40838   2.681   7.805   8.927  3.6877 -2.9279 -1.1574
  296MOL0     H40839   2.694   7.951   8.829 -1.9534  0.3121 -0.0391
  296MOL0     H40840   2.740   7.665   8.733  1.1923  0.6412 -0.9284
  296MOL0     H40841   2.733   7.818   8.634  0.9245  2.3946  0.6974
  296MOL0     H40842   2.945   7.803   8.850 -0.2416  1.9207  0.1508
  296MOL0     H40843   2.929   7.908   8.708 -2.2400  1.1891  0.6059
  296MOL0     H40844   3.062   7.580   8.509 -1.3796 -0.2047 -0.8001
  296MOL0     H40845   2.443   7.620   8.539 -1.1132  2.6607 -2.8095
  296MOL0     H40846   2.239   7.720   8.342  1.3421 -1.5210 -2.6853
  296MOL0     H40847   2.350   7.590   8.369  0.7199 -1.9057  3.9942
  296MOL0     H40848   2.170   7.558   8.359 -1.3242  1.6529 -0.3010
  297MOL0     O40849   0.878   6.459  10.021  0.0217  0.1788 -0.1195
  297MOL0     C40850   0.847   6.358  10.086 -0.2210 -0.3465  0.2514
  297MOL0     O40851   0.927   6.244  10.111 -0.3447 -0.0663 -0.4923
  297MOL0     C40852   1.048   6.253  10.053  0.0048  0.2985  0.2328
  297MOL0     C40853   1.157   6.267  10.148  0.5979 -0.5854  0.8518
  297MOL0     C40854   1.290   6.248  10.102 -0.1690 -0.6594  0.9052
  297MOL0     C40855   1.312   6.240   9.959 -0.5049  0.4880 -0.0189
  297MOL0     O40856   1.443   6.249   9.903  0.3915 -0.6312  0.0789
  297MOL0     C40857   1.538   6.150   9.933  1.3552  0.8462 -0.6009
  297MOL0     C40858   1.555   6.063   9.805  0.8345 -0.3038 -0.5842
  297MOL0     C40859   1.605   5.925   9.850 -0.7244 -0.3357  0.3299
  297MOL0     C40860   1.499   5.832   9.899  0.4441  0.1386 -0.1066
  297MOL0     C40861   1.565   5.706   9.961  0.9045 -0.3117 -0.7468
  297MOL0     C40862   1.470   5.647  10.067  0.0665 -0.1562  0.6264
  297MOL0     C40863   1.436   5.731  10.193 -0.1657  0.3258  0.4457
  297MOL0     C40864   1.352   5.639  10.277 -0.5989  0.4691 -0.7139
  297MOL0     N40865   1.404   5.507  10.302 -1.3724  1.2349 -0.5720
  297MOL0     C40866   1.532   5.468  10.346  0.4604  0.1989 -0.4866
  297MOL0     C40867   1.516   5.333  10.371 -1.0677 -0.4925 -0.3309
  297MOL0     C40868   1.596   5.232  10.469 -0.2364 -0.4606 -0.7845
  297MOL0     C40869   1.749   5.245  10.472 -0.1946  0.1523  0.0386
  297MOL0     C40870   1.802   5.188  10.340  1.2886  0.5711  0.4809
  297MOL0     C40871   1.952   5.169  10.335 -0.1034  0.4067 -0.3352
  297MOL0     O40872   2.007   5.294  10.378  0.0345 -0.8691  0.1783
  297MOL0     C40873   2.145   5.309  10.377  0.8200  1.4240 -0.8364
  297MOL0     C40874   2.236   5.201  10.374  0.1560  0.1938  0.2646
  297MOL0     C40875   2.373   5.217  10.389  0.2263  0.0357 -0.6501
  297MOL0     C40876   2.456   5.098  10.368  0.0189  1.0079 -0.0080
  297MOL0     C40877   2.426   5.344  10.414 -0.2779  0.5384  0.4402
  297MOL0     C40878   2.579   5.364  10.415  0.5309  0.3813  0.1171
  297MOL0     O40879   2.618   5.449  10.517  0.0641 -0.4790  0.0128
  297MOL0     C40880   2.748   5.463  10.551  0.2212  0.8163  0.8864
  297MOL0     C40881   2.803   5.585  10.538 -0.0762  0.1736 -0.0115
  297MOL0     C40882   2.939   5.601  10.579 -1.3021 -1.5221  0.0370
  297MOL0     C40883   3.010   5.489  10.636 -0.2432  0.3306 -0.1330
  297MOL0     O40884   3.139   5.492  10.679 -0.2004 -0.2706  0.7186
  297MOL0     C40885   3.236   5.545  10.586  0.6780 -0.7496 -0.9230
  297MOL0     C40886   3.307   5.432  10.494  0.3665 -1.0493 -1.0559
  297MOL0     C40887   3.387   5.491  10.371 -0.6224 -0.4719 -0.4331
  297MOL0     C40888   3.391   5.378  10.266  0.0885  0.0152 -0.6528
  297MOL0     C40889   3.434   5.433  10.136  0.2827 -0.5385  0.0517
  297MOL0     C40890   3.483   5.328  10.035  1.3379 -0.0699 -0.4233
  297MOL0     C40891   3.628   5.287  10.056 -0.0548  0.4451 -0.6181
  297MOL0     C40892   3.684   5.173   9.961 -0.4089  0.8311  0.5010
  297MOL0    Cl40893   3.836   5.141  10.040  0.1598 -0.0651 -0.1693
  297MOL0     C40894   2.943   5.374  10.656  0.5963  0.6818 -0.4178
  297MOL0     C40895   2.813   5.359  10.611 -0.6716  0.4369  0.9386
  297MOL0     O40896   2.643   5.322  10.317 -0.3131 -0.5189 -0.1080
  297MOL0     C40897   2.329   5.449  10.430 -0.0871 -0.5554 -0.7392
  297MOL0     C40898   2.190   5.432  10.411  0.4499 -0.9080 -0.7669
  297MOL0     N40899   1.398   5.293  10.321 -0.1957  0.7415  0.1724
  297MOL0     N40900   1.330   5.390  10.272  0.0403 -0.4834 -0.7677
  297MOL0     C40901   1.208   6.229   9.866  0.5581  1.0768 -0.4168
  297MOL0     C40902   1.069   6.232   9.910 -0.5100 -1.1722 -0.2685
  297MOL0     C40903   0.716   6.355  10.151  0.9032  0.7798  0.2016
  297MOL0     C40904   0.659   6.233  10.176  0.3758  0.5260  0.1307
  297MOL0     C40905   0.516   6.218  10.202 -0.1367  0.5671 -0.3094
  297MOL0     C40906   0.435   6.327  10.221 -1.1069  0.1505  0.0640
  297MOL0     O40907   0.296   6.319  10.227 -0.2460  0.3869 -0.2229
  297MOL0     C40908   0.208   6.428  10.269  0.7325 -0.6297 -0.3442
  297MOL0     C40909   0.155   6.505  10.142  0.4037  0.1052  0.3737
  297MOL0     C40910   0.070   6.614  10.203 -1.1902 -1.1357  0.5327
  297MOL0     C40911   0.023   6.716  10.088 -0.6919  0.1149 -0.5283
  297MOL0     C40912  -0.086   6.793  10.136 -0.6185  0.7718 -0.7590
  297MOL0     C40913  -0.181   6.843  10.182 -0.0547 -0.6160  0.3346
  297MOL0     C40914   0.500   6.452  10.214  0.1424  0.0061  0.6819
  297MOL0     C40915   0.639   6.463  10.182  0.0854  0.1556 -0.1103
  297MOL0     C40916   0.697   6.602  10.198  0.4685  0.7893 -0.3484
  297MOL0     H40917   1.128   6.287  10.251 -1.0211 -2.5595  0.8618
  297MOL0     H40918   1.382   6.275  10.153  1.7389  2.8994 -3.6514
  297MOL0     H40919   1.522   6.097  10.027 -3.2644  1.8121 -0.6126
  297MOL0     H40920   1.634   6.199   9.955  1.2505 -0.3011  3.0626
  297MOL0     H40921   1.452   6.058   9.767  1.0302  0.6972 -1.2858
  297MOL0     H40922   1.615   6.116   9.731 -0.7105  1.8455 -0.3759
  297MOL0     H40923   1.651   5.881   9.762 -1.7916 -0.3549 -0.2362
  297MOL0     H40924   1.685   5.943   9.922  0.0028 -2.8555  0.2509
  297MOL0     H40925   1.443   5.884   9.976 -0.1788  1.5795 -1.4803
  297MOL0     H40926   1.428   5.809   9.819  0.3718 -1.8161  0.4633
  297MOL0     H40927   1.656   5.732  10.016 -0.4640  0.7549  1.1231
  297MOL0     H40928   1.591   5.640   9.878  0.6585  1.5025 -2.3136
  297MOL0     H40929   1.389   5.621   9.998  0.3862 -1.5517  0.7479
  297MOL0     H40930   1.519   5.554  10.101  0.5093  0.0372  0.5268
  297MOL0     H40931   1.380   5.817  10.155  0.2843 -0.6617 -2.7204
  297MOL0     H40932   1.529   5.765  10.239  0.1732 -0.4044  0.3123
  297MOL0     H40933   1.334   5.684  10.375 -0.4444  1.0773 -0.9579
  297MOL0     H40934   1.258   5.632  10.221 -2.2419  1.7702  1.6739
  297MOL0     H40935   1.601   5.539  10.391 -1.6629  2.2447 -0.2130
  297MOL0     H40936   1.576   5.126  10.456  0.7978 -0.5869 -1.4295
  297MOL0     H40937   1.555   5.262  10.566 -2.1681 -2.2914 -0.9760
  297MOL0     H40938   1.782   5.350  10.472  2.0592 -0.4766 -1.5570
  297MOL0     H40939   1.781   5.194  10.564 -0.4258  0.5678  0.3539
  297MOL0     H40940   1.762   5.088  10.321  2.2394  0.4241 -0.9227
  297MOL0     H40941   1.757   5.242  10.256  1.4830 -2.3074 -1.6316
  297MOL0     H40942   1.977   5.098  10.414 -2.3879  0.8615  0.8984
  297MOL0     H40943   1.987   5.149  10.233  2.8557  1.5077  0.3801
  297MOL0     H40944   2.198   5.107  10.334 -2.8850  1.9037 -1.1953
  297MOL0     H40945   2.528   5.088  10.449  1.7096 -0.8212 -1.6209
  297MOL0     H40946   2.504   5.101  10.269 -2.1728  3.3730 -1.1070
  297MOL0     H40947   2.392   5.009  10.366  1.8432 -0.5516  3.0873
  297MOL0     H40948   2.742   5.671  10.515  0.6905  0.9496  0.7840
  297MOL0     H40949   2.996   5.690  10.555  0.9078 -3.6955 -3.7576
  297MOL0     H40950   3.184   5.614  10.518 -0.7642  1.9619  2.6038
  297MOL0     H40951   3.317   5.586  10.646  1.0411 -2.0302 -0.5134
  297MOL0     H40952   3.372   5.366  10.552  3.1602  2.1415 -0.2161
  297MOL0     H40953   3.219   5.379  10.456 -2.2975  0.5510  2.2965
  297MOL0     H40954   3.493   5.512  10.390 -1.0922 -0.6113  3.0783
  297MOL0     H40955   3.328   5.578  10.341 -1.7273 -0.8744  0.4775
  297MOL0     H40956   3.293   5.333  10.252 -0.9788  0.8193  3.1076
  297MOL0     H40957   3.459   5.304  10.309  0.8581  1.5686  0.9368
  297MOL0     H40958   3.347   5.477  10.089 -0.0227 -2.2972 -1.1293
  297MOL0     H40959   3.506   5.514  10.153 -1.1152  0.5440  1.0491
  297MOL0     H40960   3.479   5.373   9.936  3.6000 -0.4144 -0.7361
  297MOL0     H40961   3.411   5.247  10.046  1.3720 -0.1901 -1.0844
  297MOL0     H40962   3.645   5.246  10.156 -0.0444 -0.8533 -1.1345
  297MOL0     H40963   3.691   5.376  10.064 -4.1627  3.5174  1.4803
  297MOL0     H40964   3.687   5.208   9.857 -1.5711  2.0326  0.8465
  297MOL0     H40965   3.623   5.082   9.958  1.1400 -0.2250 -1.9484
  297MOL0     H40966   2.980   5.288  10.710 -1.8319 -0.1033  0.1391
  297MOL0     H40967   2.758   5.267  10.630  0.2906 -0.6305 -1.0607
  297MOL0     H40968   2.360   5.553  10.434  0.9671 -0.8623 -0.4461
  297MOL0     H40969   2.120   5.511  10.436  2.0303  0.1770  0.4234
  297MOL0     H40970   1.221   6.245   9.759 -3.2700  1.2427 -0.9733
  297MOL0     H40971   0.986   6.241   9.841 -1.2804 -0.2160  0.7411
  297MOL0     H40972   0.712   6.140  10.157 -1.0975 -0.6184  1.3326
  297MOL0     H40973   0.481   6.116  10.214  1.9620 -0.0996  0.5802
  297MOL0     H40974   0.123   6.378  10.318  0.6118 -0.5780 -0.4997
  297MOL0     H40975   0.273   6.492  10.329  1.4587  0.1834 -1.9410
  297MOL0     H40976   0.100   6.434  10.081  1.2054 -1.7512  1.7069
  297MOL0     H40977   0.245   6.540  10.090 -0.1037  2.0969  0.7465
  297MOL0     H40978  -0.017   6.562  10.246 -1.5078 -1.1244 -0.0780
  297MOL0     H40979   0.124   6.672  10.277 -0.1927  1.7973 -2.2737
  297MOL0     H40980  -0.003   6.659   9.999  2.8984 -0.9623 -1.0703
  297MOL0     H40981   0.105   6.785  10.065  0.9229 -1.5332 -0.0081
  297MOL0     H40982  -0.261   6.889  10.237 -0.8592 -2.6255  0.9204
  297MOL0     H40983   0.448   6.547  10.205 -1.2608 -0.9161 -1.8736
  297MOL0     H40984   0.702   6.638  10.095  0.4816 -2.0388 -1.4240
  297MOL0     H40985   0.636   6.662  10.266  1.9164  0.2072  1.5552
  297MOL0     H40986   0.800   6.603  10.234  1.4230 -0.4598 -2.7485
  298MOL0     O40987   4.352   7.627  11.152  0.2833 -0.9921  0.3241
  298MOL0     C40988   4.430   7.542  11.191  0.0771  1.0755  0.5367
  298MOL0     O40989   4.490   7.541  11.315 -0.1748 -1.1660 -0.3825
  298MOL0     C40990   4.435   7.635  11.401 -0.1053  0.2602 -0.2387
  298MOL0     C40991   4.456   7.769  11.391  0.4428 -0.5473  0.2405
  298MOL0     C40992   4.398   7.866  11.471  0.6333  0.1145  0.5149
  298MOL0     C40993   4.314   7.829  11.574 -0.4007  0.8152  0.5251
  298MOL0     O40994   4.250   7.915  11.663  0.3094  0.1652 -0.1396
  298MOL0     C40995   4.324   8.042  11.679  0.7198 -0.9556 -1.0431
  298MOL0     C40996   4.262   8.115  11.797  0.2050 -0.0636 -1.0007
  298MOL0     C40997   4.336   8.250  11.824 -0.2535 -0.0723 -0.6740
  298MOL0     C40998   4.365   8.264  11.974 -0.4613  1.0046  0.1880
  298MOL0     C40999   4.245   8.270  12.058  0.0206  0.6761 -0.4266
  298MOL0     C41000   4.268   8.246  12.206 -0.7094 -0.3576 -0.6634
  298MOL0     C41001   4.155   8.273  12.296 -0.4607  0.2103  0.5420
  298MOL0     C41002   4.108   8.412  12.300 -0.4436 -0.6257  0.0958
  298MOL0     N41003   4.054   8.453  12.433  0.5920 -0.1034  0.1293
  298MOL0     C41004   4.137   8.476  12.536  0.8769  0.1824  0.1636
  298MOL0     C41005   4.052   8.520  12.631 -0.0074 -1.1549 -0.4622
  298MOL0     C41006   4.096   8.570  12.771  1.0451 -0.3085 -0.2547
  298MOL0     C41007   4.164   8.703  12.747  0.2784  0.4385 -0.4203
  298MOL0     C41008   4.157   8.790  12.871 -0.3787 -0.1342  0.5167
  298MOL0     C41009   4.211   8.934  12.841  1.0971 -0.3945  0.2102
  298MOL0     O41010   4.254   8.976  12.976 -0.0245 -0.6535  0.0499
  298MOL0     C41011   4.316   9.101  12.988  0.5037 -0.2460 -0.5905
  298MOL0     C41012   4.363   9.135  13.114 -0.1849 -0.5504  1.0586
  298MOL0     C41013   4.409   9.257  13.152 -0.6268 -0.1463  0.6622
  298MOL0     C41014   4.465   9.278  13.287 -0.3149  0.2397 -0.9030
  298MOL0     C41015   4.406   9.360  13.059  0.1542 -0.4963 -0.7692
  298MOL0     C41016   4.443   9.503  13.089 -0.2875  1.5064 -0.2121
  298MOL0     O41017   4.430   9.546  13.220 -0.1332 -0.3099  0.2691
  298MOL0     C41018   4.514   9.651  13.254  0.0249 -0.0079 -0.9633
  298MOL0     C41019   4.628   9.634  13.334 -0.1977  0.3988  0.9056
  298MOL0     C41020   4.706   9.747  13.378  0.0661 -0.1600  0.3475
  298MOL0     C41021   4.656   9.875  13.353 -0.5336 -0.2659 -0.3820
  298MOL0     O41022   4.712   9.991  13.398 -0.2837 -0.7202  0.3238
  298MOL0     C41023   4.718  10.017  13.539  1.1657  0.4925 -0.6097
  298MOL0     C41024   4.599  10.107  13.584  0.0243 -0.7108 -0.2947
  298MOL0     C41025   4.458  10.059  13.568  0.2081 -0.2571 -0.1799
  298MOL0     C41026   4.446   9.931  13.646  0.3385  0.5486  0.4029
  298MOL0     C41027   4.300   9.882  13.665  0.3845 -0.2381 -0.1462
  298MOL0     C41028   4.227   9.853  13.535  0.2420 -0.2182  0.1284
  298MOL0     C41029   4.082   9.857  13.549 -0.8053 -0.3049 -0.1523
  298MOL0     C41030   3.993   9.806  13.440 -0.3207  0.8432  0.2143
  298MOL0    Cl41031   3.823   9.863  13.476 -0.2988 -0.1360  0.0375
  298MOL0     C41032   4.546   9.885  13.278 -0.3743 -0.5161  0.0731
  298MOL0     C41033   4.470   9.782  13.231 -0.0321  0.0347 -0.4650
  298MOL0     O41034   4.490   9.569  12.995  1.0018  0.1651  0.3350
  298MOL0     C41035   4.354   9.331  12.933 -0.0358 -0.3816 -0.7361
  298MOL0     C41036   4.317   9.200  12.892  0.2711  0.0901 -0.3622
  298MOL0     N41037   3.928   8.547  12.570  0.2655  0.5598 -0.5729
  298MOL0     N41038   3.931   8.502  12.452  0.3809 -0.5437 -0.3357
  298MOL0     C41039   4.295   7.688  11.586 -0.9311 -0.5329 -0.0271
  298MOL0     C41040   4.345   7.590  11.503 -0.7318  0.3659  0.6040
  298MOL0     C41041   4.455   7.426  11.090  0.0558 -1.6820 -0.6153
  298MOL0     C41042   4.543   7.331  11.126 -0.6086  0.7170  0.3756
  298MOL0     C41043   4.584   7.218  11.054  0.0094 -0.7438  0.4402
  298MOL0     C41044   4.527   7.214  10.925 -0.0156  0.5561 -0.3806
  298MOL0     O41045   4.553   7.105  10.847 -0.8293  0.3881  0.1827
  298MOL0     C41046   4.467   7.081  10.729 -0.3600 -0.0282 -0.1420
  298MOL0     C41047   4.515   6.946  10.670  0.0582 -0.0446 -0.5726
  298MOL0     C41048   4.463   6.838  10.769  0.1942  0.0502 -0.4156
  298MOL0     C41049   4.480   6.715  10.692 -0.6226  0.3322  0.2365
  298MOL0     C41050   4.449   6.605  10.786  0.4613  0.3667  0.4218
  298MOL0     C41051   4.421   6.517  10.865 -0.3342 -0.1650 -0.6152
  298MOL0     C41052   4.426   7.310  10.880 -0.7373  0.0113 -0.2323
  298MOL0     C41053   4.388   7.417  10.966  0.8938  0.0849 -0.4973
  298MOL0     C41054   4.296   7.519  10.907  0.3217 -0.0948 -0.4163
  298MOL0     H41055   4.537   7.806  11.328  1.1942 -0.2569  1.3375
  298MOL0     H41056   4.428   7.967  11.445 -0.0958  0.8771  2.4906
  298MOL0     H41057   4.322   8.099  11.586  0.6019  2.7822  1.0346
  298MOL0     H41058   4.425   8.023  11.720  1.0077  2.9365  0.4814
  298MOL0     H41059   4.162   8.152  11.774 -0.6886 -1.0237  1.1265
  298MOL0     H41060   4.262   8.050  11.885  0.8845 -1.1482 -1.7615
  298MOL0     H41061   4.430   8.257  11.770  0.5162  3.0311  0.8427
  298MOL0     H41062   4.290   8.339  11.780  5.2301  2.6739 -1.7471
  298MOL0     H41063   4.435   8.190  12.012 -2.6172  0.1149  2.7889
  298MOL0     H41064   4.421   8.356  11.992 -0.0868  0.4823  1.8301
  298MOL0     H41065   4.166   8.198  12.034 -0.3729  0.1052  2.2541
  298MOL0     H41066   4.208   8.372  12.051  1.7892  1.8111  3.7486
  298MOL0     H41067   4.297   8.143  12.228 -0.3899 -0.2485 -0.5724
  298MOL0     H41068   4.352   8.305  12.243  0.1124 -0.0904 -2.8662
  298MOL0     H41069   4.193   8.248  12.396  0.3787  3.4806  1.1693
  298MOL0     H41070   4.074   8.205  12.267  0.8996 -0.5184 -1.7749
  298MOL0     H41071   4.197   8.468  12.268 -0.4098 -0.8151 -0.1473
  298MOL0     H41072   4.035   8.432  12.221  1.4029  0.7138 -1.3627
  298MOL0     H41073   4.240   8.445  12.550  1.0427  0.9902  0.8437
  298MOL0     H41074   4.167   8.495  12.809 -2.0298 -3.9284 -1.0056
  298MOL0     H41075   4.008   8.583  12.835  0.4557 -0.4907 -1.0035
  298MOL0     H41076   4.269   8.696  12.716  0.4921  1.9732 -0.1288
  298MOL0     H41077   4.107   8.738  12.661 -1.1467 -3.0777 -1.0819
  298MOL0     H41078   4.054   8.805  12.903 -0.9922  0.7774 -1.6798
  298MOL0     H41079   4.213   8.746  12.954 -1.6388 -1.3099  0.7793
  298MOL0     H41080   4.296   8.924  12.774  0.3087  2.4451 -1.3900
  298MOL0     H41081   4.140   9.002  12.793  0.5116 -1.3179 -0.2576
  298MOL0     H41082   4.364   9.054  13.186 -0.1642 -1.3409  0.1998
  298MOL0     H41083   4.557   9.336  13.300  0.1517 -0.5062 -0.7543
  298MOL0     H41084   4.483   9.183  13.339 -0.7446 -1.6949 -4.0093
  298MOL0     H41085   4.388   9.336  13.338  0.6962  0.3281  0.6134
  298MOL0     H41086   4.643   9.530  13.360 -2.8320 -0.3321 -0.1286
  298MOL0     H41087   4.799   9.731  13.431 -1.9037 -2.6084  3.4466
  298MOL0     H41088   4.707   9.924  13.595 -0.8507  0.9271 -0.2172
  298MOL0     H41089   4.815  10.066  13.555  1.2922  0.9002 -2.4576
  298MOL0     H41090   4.613  10.140  13.687 -3.2731  0.2779 -0.0424
  298MOL0     H41091   4.601  10.197  13.521  2.9878  1.6593  2.8242
  298MOL0     H41092   4.444  10.042  13.461 -0.4653  0.0845 -0.1495
  298MOL0     H41093   4.396  10.142  13.602  0.3413 -0.8734  1.6829
  298MOL0     H41094   4.494   9.939  13.744  0.2056  0.4042  0.4807
  298MOL0     H41095   4.496   9.851  13.592 -1.7213  2.1352 -4.3635
  298MOL0     H41096   4.311   9.786  13.717  2.0005 -1.6335 -2.8596
  298MOL0     H41097   4.245   9.947  13.733 -1.6084 -1.1211 -0.8312
  298MOL0     H41098   4.266   9.756  13.503  0.2497 -0.9113  2.0932
  298MOL0     H41099   4.247   9.926  13.455 -4.5059  0.1353 -1.0436
  298MOL0     H41100   4.061   9.964  13.554  0.1828 -0.1580  1.9794
  298MOL0     H41101   4.057   9.818  13.648 -4.1443  0.6611 -0.4834
  298MOL0     H41102   4.004   9.697  13.442  7.0525  1.0379 -0.9765
  298MOL0     H41103   4.020   9.837  13.339  1.9389 -0.5445  0.3285
  298MOL0     H41104   4.508   9.986  13.264  1.9029  0.8064  2.5376
  298MOL0     H41105   4.376   9.782  13.177 -0.1205  0.8599 -0.3260
  298MOL0     H41106   4.340   9.410  12.859 -1.7096 -2.9492 -3.3491
  298MOL0     H41107   4.283   9.172  12.793  1.4782  1.7414 -1.2944
  298MOL0     H41108   4.236   7.658  11.672 -1.8282 -1.1678 -0.8393
  298MOL0     H41109   4.326   7.483  11.495 -4.2093  0.7234  2.3035
  298MOL0     H41110   4.584   7.335  11.227  2.4801 -1.9689 -0.6169
  298MOL0     H41111   4.664   7.158  11.096  2.3505  1.5641 -0.5340
  298MOL0     H41112   4.361   7.071  10.752 -0.1636 -0.1808  0.7180
  298MOL0     H41113   4.473   7.166  10.660  1.8210  0.8097  0.9758
  298MOL0     H41114   4.624   6.941  10.659  0.2085 -3.2244  1.1617
  298MOL0     H41115   4.469   6.941  10.571  3.8980 -1.9203 -2.4766
  298MOL0     H41116   4.518   6.838  10.863 -1.6079  1.0831  0.6830
  298MOL0     H41117   4.362   6.862  10.803 -0.0963  0.7701 -1.6994
  298MOL0     H41118   4.587   6.714  10.668 -0.5019  0.9268  0.7312
  298MOL0     H41119   4.412   6.695  10.609  0.8781 -3.7048 -0.2858
  298MOL0     H41120   4.393   6.446  10.941 -0.7535 -0.3479 -0.9375
  298MOL0     H41121   4.389   7.313  10.778  1.2021 -1.0081 -1.0320
  298MOL0     H41122   4.344   7.614  10.881 -2.5766  1.8651  0.8819
  298MOL0     H41123   4.260   7.475  10.813  2.2764 -1.1082 -0.7539
  298MOL0     H41124   4.210   7.545  10.969 -0.3523  1.7200 -2.0131
  299MOL0     O41125   3.038   1.197   2.191  0.1621  0.2703  0.2010
  299MOL0     C41126   3.020   1.314   2.171 -0.0167  1.2832 -1.1863
  299MOL0     O41127   2.989   1.365   2.046  0.6905  0.2188  0.1092
  299MOL0     C41128   3.035   1.306   1.929  0.6078 -0.1504  0.2581
  299MOL0     C41129   2.969   1.350   1.819 -0.1966  0.3917  0.0166
  299MOL0     C41130   2.998   1.292   1.692 -0.7131  0.3963 -0.9758
  299MOL0     C41131   3.093   1.189   1.684 -0.1524  0.8534 -0.0537
  299MOL0     O41132   3.105   1.144   1.554 -0.6092  0.0160  0.1841
  299MOL0     C41133   3.207   1.042   1.531  0.4409 -0.3707 -0.7557
  299MOL0     C41134   3.164   0.912   1.587 -0.2892  0.7476 -0.0980
  299MOL0     C41135   3.233   0.801   1.535 -0.8672  0.2934 -0.9383
  299MOL0     C41136   3.206   0.671   1.612  0.3094 -0.4413 -1.0119
  299MOL0     C41137   3.263   0.552   1.543  0.6392  0.4931  0.4811
  299MOL0     C41138   3.410   0.568   1.496  0.5586 -0.1192 -0.1689
  299MOL0     C41139   3.473   0.426   1.499 -0.9981 -0.4564 -0.0277
  299MOL0     C41140   3.626   0.433   1.450 -0.2295  1.0038  0.4814
  299MOL0     N41141   3.651   0.406   1.311 -0.0087  0.1672 -0.0776
  299MOL0     C41142   3.592   0.313   1.234  0.3447  0.0635 -0.1666
  299MOL0     C41143   3.666   0.315   1.122 -0.9263 -0.2204  0.4582
  299MOL0     C41144   3.653   0.227   0.998 -0.0294  0.5544 -0.0461
  299MOL0     C41145   3.676   0.079   1.026 -0.3516 -1.0051  0.2111
  299MOL0     C41146   3.576   0.015   1.119  0.5310 -1.6983 -0.3897
  299MOL0     C41147   3.500  -0.105   1.057  0.6118  0.5679  1.2228
  299MOL0     O41148   3.423  -0.064   0.940  0.2933 -0.2741  0.5711
  299MOL0     C41149   3.282  -0.065   0.920  0.2507 -0.4623 -1.4116
  299MOL0     C41150   3.242  -0.014   0.796 -0.4100  0.5050  0.4716
  299MOL0     C41151   3.109  -0.017   0.763  0.2441 -0.4655 -0.8809
  299MOL0     C41152   3.087   0.048   0.635  0.5186 -1.0033 -0.6597
  299MOL0     C41153   3.012  -0.087   0.842 -0.4402 -0.0016  0.0575
  299MOL0     C41154   2.862  -0.104   0.797  0.4551 -0.2456  0.2821
  299MOL0     O41155   2.774  -0.143   0.893 -0.3211 -0.2520 -0.2241
  299MOL0     C41156   2.643  -0.166   0.849 -0.2659 -0.2216  0.5035
  299MOL0     C41157   2.590  -0.288   0.805  0.0098  0.5816  0.4249
  299MOL0     C41158   2.466  -0.305   0.753 -0.7067  0.2455  1.3925
  299MOL0     C41159   2.373  -0.201   0.748 -0.4901 -0.4768  0.3622
  299MOL0     O41160   2.257  -0.224   0.683  0.6219 -0.4866 -0.8841
  299MOL0     C41161   2.137  -0.247   0.760 -0.4107  0.2691  0.7477
  299MOL0     C41162   2.021  -0.254   0.663 -0.1641  0.5510  0.5124
  299MOL0     C41163   1.876  -0.205   0.709 -0.4001 -0.9900  0.7311
  299MOL0     C41164   1.765  -0.277   0.623 -0.2907 -0.8621 -0.1152
  299MOL0     C41165   1.651  -0.185   0.624  0.4612 -0.1701 -0.2327
  299MOL0     C41166   1.535  -0.250   0.548 -1.0545 -0.6935 -0.4784
  299MOL0     C41167   1.563  -0.285   0.408  0.3123  1.4249  0.1140
  299MOL0     C41168   1.432  -0.307   0.331 -0.1693  0.5107 -0.2351
  299MOL0    Cl41169   1.450  -0.367   0.168 -0.4546 -0.3806 -0.4385
  299MOL0     C41170   2.414  -0.075   0.790  0.1844  0.6247  0.4877
  299MOL0     C41171   2.544  -0.066   0.838  0.2316 -0.8092  0.1407
  299MOL0     O41172   2.830  -0.074   0.687 -0.8235  1.0864  0.0918
  299MOL0     C41173   3.055  -0.135   0.961 -0.9255 -1.0755 -0.3391
  299MOL0     C41174   3.191  -0.132   1.001 -0.1108 -0.9471  0.0416
  299MOL0     N41175   3.768   0.409   1.136  0.1248  0.1662  0.2339
  299MOL0     N41176   3.751   0.465   1.244 -0.7632  0.1433 -0.7343
  299MOL0     C41177   3.179   1.154   1.797  0.0058  0.7484 -0.5617
  299MOL0     C41178   3.145   1.221   1.917 -0.6913  0.0482  0.0127
  299MOL0     C41179   2.980   1.383   2.298  0.3984  0.3390 -0.2512
  299MOL0     C41180   2.901   1.497   2.279  0.1000 -0.3120  0.4611
  299MOL0     C41181   2.834   1.566   2.388 -0.0455 -0.0141 -0.8417
  299MOL0     C41182   2.847   1.516   2.518 -0.4166  0.4197  0.4585
  299MOL0     O41183   2.770   1.560   2.617 -0.0155 -0.0484 -0.7212
  299MOL0     C41184   2.813   1.695   2.651  0.4726 -0.2790  0.6273
  299MOL0     C41185   2.699   1.749   2.751 -0.7217 -0.7078  0.3630
  299MOL0     C41186   2.710   1.899   2.772 -0.0292  0.4745  0.7287
  299MOL0     C41187   2.622   1.958   2.879  0.0500  0.3611 -0.4853
  299MOL0     C41188   2.667   2.094   2.920  0.0829  0.0837  0.2291
  299MOL0     C41189   2.709   2.200   2.968  0.4545  0.1221  0.0901
  299MOL0     C41190   2.932   1.406   2.545  0.1289  1.0653  0.0718
  299MOL0     C41191   3.001   1.343   2.437 -0.2041 -0.6323 -0.3176
  299MOL0     C41192   3.092   1.237   2.487 -0.1378 -0.1811 -0.5493
  299MOL0     H41193   2.889   1.423   1.822 -1.3142 -0.8225  0.7537
  299MOL0     H41194   2.947   1.330   1.605  3.3473 -0.2211 -3.9637
  299MOL0     H41195   3.302   1.093   1.552 -1.3260  2.4935  1.1186
  299MOL0     H41196   3.207   1.034   1.422 -5.0528  1.1121 -1.1797
  299MOL0     H41197   3.172   0.912   1.696  4.2954  0.9479 -0.2280
  299MOL0     H41198   3.061   0.907   1.551 -0.9257  4.1401  0.9001
  299MOL0     H41199   3.201   0.791   1.431 -2.6012 -0.1381 -0.3907
  299MOL0     H41200   3.341   0.817   1.547 -0.1750 -4.8134  3.1490
  299MOL0     H41201   3.251   0.684   1.711 -3.4979  1.3775  0.6832
  299MOL0     H41202   3.100   0.660   1.634  0.7735 -0.8285  1.2285
  299MOL0     H41203   3.199   0.505   1.468  1.1398  1.6553 -0.7299
  299MOL0     H41204   3.263   0.473   1.618 -2.6260 -1.4675 -1.3490
  299MOL0     H41205   3.412   0.619   1.399  1.2111 -0.9401 -0.6076
  299MOL0     H41206   3.473   0.638   1.552 -3.1977  1.7111  2.1578
  299MOL0     H41207   3.420   0.352   1.438  2.7791 -2.2110 -1.4468
  299MOL0     H41208   3.480   0.381   1.598  0.5673  0.3639  0.2538
  299MOL0     H41209   3.677   0.525   1.479  3.3531 -1.1333  1.5525
  299MOL0     H41210   3.673   0.361   1.517 -0.5116 -2.2796 -2.5154
  299MOL0     H41211   3.498   0.261   1.251  0.8259 -0.8756 -0.2741
  299MOL0     H41212   3.734   0.249   0.929 -1.1952 -2.2594 -2.5527
  299MOL0     H41213   3.554   0.245   0.956  0.1634 -0.2851 -0.9026
  299MOL0     H41214   3.674   0.024   0.932 -4.8252  0.6703 -0.9617
  299MOL0     H41215   3.775   0.064   1.069 -0.1060  0.7770  0.3612
  299MOL0     H41216   3.624  -0.002   1.216 -1.8751  0.4393  1.3106
  299MOL0     H41217   3.502   0.094   1.135  2.6834 -0.1818  3.2734
  299MOL0     H41218   3.568  -0.189   1.040  0.3462  0.7587 -1.1658
  299MOL0     H41219   3.426  -0.139   1.131 -1.0928  0.3934 -0.4799
  299MOL0     H41220   3.310   0.033   0.725 -1.6196 -0.2909 -1.3052
  299MOL0     H41221   3.165   0.123   0.620 -0.1215  1.1799  4.8658
  299MOL0     H41222   2.993   0.105   0.635 -0.4413 -2.4977  1.0705
  299MOL0     H41223   3.062  -0.024   0.556  0.1813 -0.6620 -0.8663
  299MOL0     H41224   2.650  -0.378   0.813  1.6084  1.6025  0.4543
  299MOL0     H41225   2.446  -0.410   0.731 -3.5163  0.4972  2.3686
  299MOL0     H41226   2.147  -0.344   0.809  1.2741  0.6250  1.1665
  299MOL0     H41227   2.123  -0.169   0.835 -1.5372 -2.3994  3.5248
  299MOL0     H41228   2.058  -0.182   0.589  1.9127 -1.9608 -1.0513
  299MOL0     H41229   2.030  -0.348   0.607  1.5757  1.2455 -0.4640
  299MOL0     H41230   1.878  -0.098   0.687  0.7639 -1.2106 -0.2954
  299MOL0     H41231   1.856  -0.215   0.816  3.0259 -0.4364  1.5510
  299MOL0     H41232   1.738  -0.379   0.652 -1.6074 -0.0248  1.7954
  299MOL0     H41233   1.805  -0.299   0.523 -2.1399 -1.6350 -0.7309
  299MOL0     H41234   1.625  -0.155   0.726  0.1689 -0.3828 -0.2398
  299MOL0     H41235   1.656  -0.088   0.574 -3.6362  0.6064  0.5154
  299MOL0     H41236   1.457  -0.173   0.545  0.2605  0.6543 -1.2396
  299MOL0     H41237   1.492  -0.338   0.597 -2.1132 -1.1592 -2.1533
  299MOL0     H41238   1.625  -0.374   0.405 -0.1003  1.0709 -3.7494
  299MOL0     H41239   1.622  -0.210   0.355  0.6969  0.1799 -1.2705
  299MOL0     H41240   1.373  -0.214   0.328 -1.7737 -0.1868  3.5697
  299MOL0     H41241   1.371  -0.377   0.389  0.9200  0.5794  1.0175
  299MOL0     H41242   2.344   0.007   0.778  1.2920  1.4229 -0.7637
  299MOL0     H41243   2.576   0.034   0.866  0.1346 -0.9145  0.6308
  299MOL0     H41244   2.992  -0.175   1.039  1.1437  0.5382  2.3306
  299MOL0     H41245   3.205  -0.173   1.101 -0.4156  3.3697  2.1058
  299MOL0     H41246   3.254   1.076   1.785 -0.5630 -0.1437  1.4001
  299MOL0     H41247   3.193   1.197   2.011  0.5167  0.0444 -0.5871
  299MOL0     H41248   2.874   1.532   2.179  4.2963 -1.0177 -1.1547
  299MOL0     H41249   2.760   1.641   2.361 -1.7333 -2.1723 -2.5499
  299MOL0     H41250   2.912   1.704   2.695  0.1393  2.8990  0.9355
  299MOL0     H41251   2.819   1.759   2.563 -1.2243 -1.2110 -0.2181
  299MOL0     H41252   2.719   1.701   2.847 -3.2217 -2.7756 -0.0282
  299MOL0     H41253   2.594   1.731   2.725 -1.0213 -1.0049  1.6948
  299MOL0     H41254   2.813   1.933   2.790 -0.3063  2.4972 -1.1580
  299MOL0     H41255   2.690   1.954   2.680 -2.0847 -1.2344  0.0622
  299MOL0     H41256   2.629   1.892   2.966  2.4283  2.1445  0.8186
  299MOL0     H41257   2.522   1.960   2.835 -0.2524 -3.9091 -0.3918
  299MOL0     H41258   2.736   2.291   3.019  2.0546 -2.4678  4.3932
  299MOL0     H41259   2.946   1.364   2.644  0.3817 -2.9440 -1.4431
  299MOL0     H41260   3.166   1.288   2.550 -1.4799 -0.3658  1.2396
  299MOL0     H41261   3.039   1.158   2.541  0.7133 -0.5155 -0.1710
  299MOL0     H41262   3.154   1.193   2.407  0.2812 -1.3748  0.4037
  300MOL0     O41263   3.742   0.868   0.819  0.2677  0.2383 -0.1347
  300MOL0     C41264   3.746   0.951   0.728 -0.7149 -0.8547  0.1602
  300MOL0     O41265   3.676   0.947   0.614  0.1324 -0.2856 -0.3391
  300MOL0     C41266   3.580   0.856   0.588 -0.4943  0.6760  0.5627
  300MOL0     C41267   3.570   0.715   0.635  0.8522 -0.2723 -0.1698
  300MOL0     C41268   3.463   0.638   0.592 -0.0244  0.4461  0.9701
  300MOL0     C41269   3.363   0.692   0.504  0.7837  0.1134  0.1072
  300MOL0     O41270   3.251   0.617   0.484 -0.0947  0.2095  0.0637
  300MOL0     C41271   3.272   0.489   0.426 -0.0849 -1.2477 -0.1369
  300MOL0     C41272   3.158   0.439   0.335 -0.4870  0.0403 -0.6348
  300MOL0     C41273   3.020   0.450   0.404  1.2199  0.2406  0.9243
  300MOL0     C41274   2.910   0.414   0.295 -0.2496 -0.6486  0.4797
  300MOL0     C41275   2.769   0.437   0.343  0.0795  0.4981  0.7646
  300MOL0     C41276   2.686   0.416   0.211 -0.2345 -0.3873 -0.4232
  300MOL0     C41277   2.549   0.499   0.226 -0.2252  0.7246 -0.0059
  300MOL0     C41278   2.445   0.456   0.114 -0.8278 -0.0387 -0.5217
  300MOL0     N41279   2.456   0.515  -0.017  0.2123  0.1342  0.5949
  300MOL0     C41280   2.567   0.565  -0.068 -0.2448 -0.0466  1.1700
  300MOL0     C41281   2.535   0.580  -0.196  0.1534 -0.1657  0.5140
  300MOL0     C41282   2.615   0.631  -0.313  0.3498 -0.2819 -1.0318
  300MOL0     C41283   2.672   0.497  -0.371  0.1367 -0.2541  0.4900
  300MOL0     C41284   2.772   0.517  -0.485 -0.2132 -0.8088 -0.0989
  300MOL0     C41285   2.718   0.567  -0.620  0.5958 -0.1608  0.5696
  300MOL0     O41286   2.798   0.509  -0.733 -0.5646  0.5874 -0.0396
  300MOL0     C41287   2.765   0.545  -0.868 -1.0233  0.9044 -0.7713
  300MOL0     C41288   2.658   0.623  -0.908 -0.9763  0.6514 -0.8226
  300MOL0     C41289   2.631   0.655  -1.041 -0.4671 -0.0556  0.0632
  300MOL0     C41290   2.522   0.759  -1.065 -0.2871  0.2651  0.3658
  300MOL0     C41291   2.712   0.596  -1.146  0.4819 -0.2316 -0.4421
  300MOL0     C41292   2.708   0.614  -1.296  0.1765 -0.9361  0.6782
  300MOL0     O41293   2.597   0.676  -1.340  0.1717  0.1946 -0.5699
  300MOL0     C41294   2.589   0.688  -1.479 -0.1232  0.2097 -0.7761
  300MOL0     C41295   2.565   0.560  -1.544 -0.7024  0.7359 -0.5818
  300MOL0     C41296   2.573   0.556  -1.681 -0.1306  0.2144  0.2685
  300MOL0     C41297   2.597   0.673  -1.754 -0.2041 -0.1789  0.1912
  300MOL0     O41298   2.583   0.673  -1.889  0.5940 -0.3501  0.7135
  300MOL0     C41299   2.462   0.738  -1.931 -0.2203  0.0457 -0.4999
  300MOL0     C41300   2.397   0.656  -2.040  1.0200 -0.2320 -0.1107
  300MOL0     C41301   2.493   0.660  -2.162  0.3326 -0.5867  0.0482
  300MOL0     C41302   2.423   0.687  -2.297 -0.5668  0.1243 -0.4194
  300MOL0     C41303   2.319   0.576  -2.340  0.9436  0.3417 -0.3650
  300MOL0     C41304   2.252   0.631  -2.460  0.3877  0.8986  0.4948
  300MOL0     C41305   2.136   0.540  -2.514 -0.0427  0.0937  0.4389
  300MOL0     C41306   2.003   0.551  -2.433 -0.3792 -0.5989  0.6459
  300MOL0    Cl41307   1.879   0.463  -2.528 -0.0993 -0.2247 -0.0223
  300MOL0     C41308   2.605   0.799  -1.694  0.5433  0.3685 -0.5372
  300MOL0     C41309   2.607   0.812  -1.551 -0.6011  0.3972  0.7185
  300MOL0     O41310   2.796   0.581  -1.372  0.5113  0.2321 -0.0409
  300MOL0     C41311   2.817   0.511  -1.100  0.4706 -0.2347 -0.8112
  300MOL0     C41312   2.844   0.482  -0.965 -0.0110 -0.7377 -0.6608
  300MOL0     N41313   2.399   0.544  -0.218  0.1878  0.3650  0.1269
  300MOL0     N41314   2.349   0.515  -0.110  0.0303 -0.6060 -0.8777
  300MOL0     C41315   3.368   0.825   0.469 -0.5750  0.5852  0.7039
  300MOL0     C41316   3.477   0.906   0.509  0.7385 -0.0045  0.7274
  300MOL0     C41317   3.843   1.062   0.749 -0.3744 -0.0575  0.1071
  300MOL0     C41318   3.976   1.037   0.782 -0.0409  0.2188 -0.3517
  300MOL0     C41319   4.066   1.147   0.805  0.9021  0.0898 -0.2517
  300MOL0     C41320   4.017   1.281   0.797  0.1965 -0.0456 -0.2086
  300MOL0     O41321   4.101   1.381   0.827  0.5483 -0.0771  0.4782
  300MOL0     C41322   4.094   1.455   0.947  1.1048 -0.1333 -1.2795
  300MOL0     C41323   4.226   1.530   0.970  0.6269  0.2450 -0.1467
  300MOL0     C41324   4.349   1.440   0.992 -0.0374 -0.5618 -0.8709
  300MOL0     C41325   4.486   1.515   0.958 -0.1250 -1.0104  0.3869
  300MOL0     C41326   4.527   1.600   1.077  0.1564 -0.6049  0.2597
  300MOL0     C41327   4.559   1.665   1.175  0.2204  0.8576 -0.8331
  300MOL0     C41328   3.878   1.297   0.769 -0.4869 -0.6230  1.1225
  300MOL0     C41329   3.789   1.196   0.740 -0.3739 -0.0391  0.5830
  300MOL0     C41330   3.636   1.226   0.708 -0.0269 -0.1071 -0.0571
  300MOL0     H41331   3.648   0.669   0.694  1.5089  0.8266 -0.1589
  300MOL0     H41332   3.448   0.532   0.609 -0.1890 -0.1020 -2.0980
  300MOL0     H41333   3.276   0.412   0.503 -0.7072 -1.5790 -0.4268
  300MOL0     H41334   3.365   0.485   0.367  1.1131  0.3171  1.5414
  300MOL0     H41335   3.156   0.490   0.239 -2.7975  1.3869  0.0485
  300MOL0     H41336   3.171   0.336   0.302  2.0686 -1.2422  3.6008
  300MOL0     H41337   3.004   0.378   0.485  1.2352  0.5830  1.2334
  300MOL0     H41338   3.004   0.553   0.437  0.5932  1.9403 -3.8750
  300MOL0     H41339   2.928   0.484   0.212  1.5578  1.5389  2.5692
  300MOL0     H41340   2.916   0.311   0.260 -0.4071 -0.5821  0.2466
  300MOL0     H41341   2.754   0.543   0.366 -3.0175  0.0551  1.1633
  300MOL0     H41342   2.730   0.383   0.429 -1.0597  2.8198  1.8117
  300MOL0     H41343   2.740   0.435   0.118 -2.5423  0.9493 -1.5846
  300MOL0     H41344   2.661   0.310   0.216 -0.4150 -0.3665 -0.8497
  300MOL0     H41345   2.557   0.608   0.224 -1.2199  0.8302  0.8624
  300MOL0     H41346   2.511   0.477   0.326 -1.4087  1.7588 -0.1988
  300MOL0     H41347   2.446   0.347   0.105  1.0689 -0.3310  1.9779
  300MOL0     H41348   2.346   0.474   0.157 -0.9672 -3.5272  0.9553
  300MOL0     H41349   2.668   0.589  -0.035 -0.6761 -0.0037  2.4958
  300MOL0     H41350   2.687   0.707  -0.279 -0.6663  0.1320  0.2613
  300MOL0     H41351   2.549   0.685  -0.382  1.5062  0.7274 -1.3946
  300MOL0     H41352   2.734   0.440  -0.301 -0.9002  1.8139  3.2725
  300MOL0     H41353   2.593   0.432  -0.408  1.0576 -1.3395  0.3671
  300MOL0     H41354   2.859   0.572  -0.448  0.1434 -0.3139 -1.5780
  300MOL0     H41355   2.801   0.415  -0.511 -3.2807 -1.7221 -0.2615
  300MOL0     H41356   2.614   0.540  -0.637  1.2776 -1.3901 -2.0956
  300MOL0     H41357   2.732   0.675  -0.615 -2.3157  0.2805  0.8109
  300MOL0     H41358   2.597   0.663  -0.827 -1.9866 -1.6757 -0.3481
  300MOL0     H41359   2.567   0.857  -1.083  0.3363 -0.4937 -2.9319
  300MOL0     H41360   2.470   0.772  -0.970  1.3345 -0.7429  1.4517
  300MOL0     H41361   2.456   0.726  -1.146 -0.2858 -1.4061  1.0101
  300MOL0     H41362   2.563   0.472  -1.482  0.5293  2.4296  2.0588
  300MOL0     H41363   2.556   0.468  -1.743 -2.3022  1.6378 -1.2872
  300MOL0     H41364   2.395   0.752  -1.846 -2.1921  3.2180 -2.3976
  300MOL0     H41365   2.488   0.837  -1.970 -0.1900  0.8518  1.4550
  300MOL0     H41366   2.381   0.550  -2.023  2.0344 -0.3434  0.2412
  300MOL0     H41367   2.299   0.703  -2.054  0.1762 -1.4486  1.5042
  300MOL0     H41368   2.548   0.566  -2.170  1.5894  0.1964 -0.8811
  300MOL0     H41369   2.560   0.743  -2.140 -2.3501  1.3739  1.3908
  300MOL0     H41370   2.498   0.691  -2.376 -3.1078 -0.9373 -3.0432
  300MOL0     H41371   2.377   0.787  -2.290 -1.4019 -0.2864  0.1780
  300MOL0     H41372   2.368   0.479  -2.353  0.2559 -0.0029 -0.3898
  300MOL0     H41373   2.241   0.561  -2.265 -1.2360  2.8815 -1.9693
  300MOL0     H41374   2.330   0.636  -2.537  2.6276  1.9334  2.6742
  300MOL0     H41375   2.214   0.730  -2.437  0.5156  0.6992  1.6194
  300MOL0     H41376   2.168   0.435  -2.515  2.8872  0.8935  0.8012
  300MOL0     H41377   2.118   0.572  -2.617  1.8085  0.8318  0.3131
  300MOL0     H41378   1.963   0.653  -2.439  0.4465 -0.3266 -1.3804
  300MOL0     H41379   2.020   0.525  -2.328  1.7494 -0.4690  0.3907
  300MOL0     H41380   2.609   0.885  -1.759 -1.5742  0.2208 -0.9505
  300MOL0     H41381   2.622   0.899  -1.488 -1.3059 -0.7575  2.5396
  300MOL0     H41382   2.882   0.459  -1.170  2.4220 -0.1223  0.8246
  300MOL0     H41383   2.933   0.421  -0.949 -1.2974 -2.7120 -0.7046
  300MOL0     H41384   3.310   0.876   0.393  1.0638  3.0842  0.9851
  300MOL0     H41385   3.462   1.005   0.468  0.2217  0.1686  1.3132
  300MOL0     H41386   4.015   0.940   0.810 -0.7163  0.8680  3.3519
  300MOL0     H41387   4.161   1.126   0.853 -1.4144 -1.0625  4.5249
  300MOL0     H41388   4.019   1.533   0.943  2.3635  1.4736  2.4496
  300MOL0     H41389   4.071   1.398   1.037 -0.1605  1.3921 -0.6048
  300MOL0     H41390   4.206   1.594   1.056 -4.1486 -0.0294 -0.8035
  300MOL0     H41391   4.242   1.590   0.880 -0.5099  0.9018  0.0696
  300MOL0     H41392   4.350   1.413   1.098  0.6035 -1.2422 -1.0449
  300MOL0     H41393   4.353   1.344   0.940  0.3772 -0.3200 -1.2908
  300MOL0     H41394   4.465   1.571   0.866 -3.1141 -2.3853  0.1101
  300MOL0     H41395   4.557   1.435   0.936 -0.1990 -0.2849 -3.0795
  300MOL0     H41396   4.591   1.733   1.252  2.5311  0.4839 -1.4029
  300MOL0     H41397   3.853   1.402   0.759 -0.1494 -0.6941 -0.7832
  300MOL0     H41398   3.561   1.184   0.775 -2.6658 -0.0779 -2.8201
  300MOL0     H41399   3.621   1.333   0.696  0.8930 -0.0524 -0.8977
  300MOL0     H41400   3.615   1.185   0.608  2.5077 -4.3438  0.8750
  301MOL0     O41401   3.592   0.566  10.605 -0.0867  0.2303 -0.2572
  301MOL0     C41402   3.489   0.628  10.614 -0.0544  0.6336  0.0336
  301MOL0     O41403   3.449   0.725  10.524 -0.2499  0.0118  0.2009
  301MOL0     C41404   3.521   0.727  10.404 -0.1288  0.1296  0.2151
  301MOL0     C41405   3.572   0.849  10.359 -0.3986 -0.6301  0.7763
  301MOL0     C41406   3.634   0.863  10.235  0.1891 -0.6090  0.1555
  301MOL0     C41407   3.633   0.766  10.139  0.5631 -0.1435 -1.1102
  301MOL0     O41408   3.676   0.782  10.003 -0.0065 -0.5421  0.0090
  301MOL0     C41409   3.750   0.899   9.973  0.0851  0.1810 -0.8868
  301MOL0     C41410   3.800   0.886   9.836  0.9144  0.4672  0.5241
  301MOL0     C41411   3.888   1.001   9.817  0.2939  0.1899 -0.3360
  301MOL0     C41412   3.927   1.032   9.668 -0.5959  0.2127  0.0815
  301MOL0     C41413   4.076   1.068   9.642  0.4216 -0.0220 -0.1305
  301MOL0     C41414   4.094   1.076   9.486 -0.5256  0.1165 -0.5033
  301MOL0     C41415   4.050   1.223   9.431 -0.2055  0.3800  0.5235
  301MOL0     C41416   4.139   1.274   9.310 -0.5297  0.5554  0.0898
  301MOL0     N41417   4.099   1.212   9.184 -0.2921 -0.3574  0.0798
  301MOL0     C41418   4.073   1.289   9.075  0.4877  0.6915 -0.8948
  301MOL0     C41419   4.099   1.211   8.968  0.2036 -1.1877 -0.2566
  301MOL0     C41420   4.078   1.259   8.829 -0.5721  0.3049  0.5432
  301MOL0     C41421   3.921   1.245   8.800  0.5125  0.9169  0.8767
  301MOL0     C41422   3.880   1.229   8.646  0.5099 -0.0771 -0.7570
  301MOL0     C41423   3.896   1.087   8.598 -0.1180  0.2296 -0.8487
  301MOL0     O41424   3.852   1.086   8.466 -0.5803  0.3977  0.1989
  301MOL0     C41425   3.846   0.963   8.395 -0.1948 -0.6695  0.1023
  301MOL0     C41426   3.794   0.977   8.274 -0.3854 -0.3086  0.7375
  301MOL0     C41427   3.770   0.870   8.181  0.1187  0.4586 -0.0755
  301MOL0     C41428   3.716   0.914   8.044  0.2701 -0.3634 -0.5353
  301MOL0     C41429   3.816   0.744   8.223  0.2014  0.9222 -0.2964
  301MOL0     C41430   3.783   0.618   8.148  0.0776  0.4562  0.5726
  301MOL0     O41431   3.804   0.505   8.220  0.0430 -0.0455  0.5627
  301MOL0     C41432   3.724   0.400   8.174  0.3100 -0.0835  0.1355
  301MOL0     C41433   3.772   0.300   8.098  0.0436  0.0919  0.1359
  301MOL0     C41434   3.679   0.222   8.033 -0.0389 -0.2324  1.1376
  301MOL0     C41435   3.536   0.220   8.059  0.9133 -0.3209  0.2257
  301MOL0     O41436   3.447   0.137   7.996  0.1192  0.3597  0.6392
  301MOL0     C41437   3.482   0.110   7.856  0.5038 -0.5424  0.3706
  301MOL0     C41438   3.367   0.139   7.760 -0.7007  0.1380 -0.4569
  301MOL0     C41439   3.375   0.040   7.637  0.0119  0.2714  0.3335
  301MOL0     C41440   3.259   0.048   7.546  0.4951 -0.4179  0.4927
  301MOL0     C41441   3.122   0.016   7.620  0.0942  1.3031  0.2795
  301MOL0     C41442   3.012   0.038   7.528  0.2804 -0.4186  0.4719
  301MOL0     C41443   2.884  -0.001   7.596  0.7023  0.0643  0.0374
  301MOL0     C41444   2.760   0.035   7.517  0.5156 -0.2665  0.1884
  301MOL0    Cl41445   2.733   0.217   7.540 -0.5391  0.2441  0.1947
  301MOL0     C41446   3.488   0.309   8.160 -0.2460  0.3509 -0.1285
  301MOL0     C41447   3.591   0.400   8.208  0.4030  0.8959 -0.3698
  301MOL0     O41448   3.736   0.622   8.034 -0.3713 -0.0570  0.6972
  301MOL0     C41449   3.879   0.728   8.351 -0.2016 -0.4928 -1.0513
  301MOL0     C41450   3.882   0.840   8.432 -0.0190  0.2935  0.4089
  301MOL0     N41451   4.136   1.091   9.011 -0.1648  0.3917 -1.4220
  301MOL0     N41452   4.149   1.090   9.142  0.6524 -0.3259 -0.2417
  301MOL0     C41453   3.594   0.634  10.173 -0.3559  0.1456  0.1504
  301MOL0     C41454   3.533   0.618  10.302 -0.6613 -0.6586 -0.2552
  301MOL0     C41455   3.404   0.594  10.729  1.3907  0.1343  0.3712
  301MOL0     C41456   3.462   0.553  10.848  0.4112  0.1526 -0.2842
  301MOL0     C41457   3.387   0.524  10.959  0.5689  0.5338 -0.2646
  301MOL0     C41458   3.248   0.519  10.950  0.3705 -1.3034  0.6353
  301MOL0     O41459   3.163   0.489  11.061  0.2938 -0.3344 -0.7955
  301MOL0     C41460   3.190   0.372  11.143 -0.1424 -0.0673  0.4340
  301MOL0     C41461   3.065   0.357  11.233 -0.2692 -0.4660 -0.8893
  301MOL0     C41462   3.108   0.276  11.354  0.3366  0.0399 -0.8773
  301MOL0     C41463   2.997   0.254  11.461 -0.0733  0.3010 -0.7168
  301MOL0     C41464   2.872   0.201  11.413 -0.1810 -0.0138 -0.3016
  301MOL0     C41465   2.772   0.141  11.370 -0.0733 -0.3711  0.8226
  301MOL0     C41466   3.191   0.560  10.825 -0.1117  0.2118 -1.0798
  301MOL0     C41467   3.264   0.590  10.715  0.3351 -0.1991 -1.1626
  301MOL0     C41468   3.202   0.622  10.585  0.9088  0.0821  0.7790
  301MOL0     H41469   3.568   0.939  10.419  1.5161  1.2376 -1.7057
  301MOL0     H41470   3.679   0.959  10.210 -0.1908 -0.6506 -0.7254
  301MOL0     H41471   3.830   0.901  10.048 -0.9261 -4.5911  0.6936
  301MOL0     H41472   3.686   0.988   9.973  1.2260  1.0851 -2.9503
  301MOL0     H41473   3.868   0.800   9.827  0.1446 -0.0095 -1.2186
  301MOL0     H41474   3.729   0.886   9.753  0.4318 -0.9459  0.8987
  301MOL0     H41475   3.843   1.089   9.864 -0.9595 -0.6988  0.1741
  301MOL0     H41476   3.986   0.977   9.858  1.7169 -0.4944 -3.7577
  301MOL0     H41477   3.901   0.941   9.612  1.7220  0.6682 -1.8947
  301MOL0     H41478   3.858   1.115   9.653 -0.2646  0.3073 -0.9401
  301MOL0     H41479   4.136   0.984   9.678 -2.7847 -2.7384 -0.6645
  301MOL0     H41480   4.107   1.161   9.691  1.0328 -0.1593 -0.2501
  301MOL0     H41481   4.200   1.070   9.461 -0.2778 -2.3799  0.7721
  301MOL0     H41482   4.031   1.000   9.438  1.2605 -0.4491 -2.0912
  301MOL0     H41483   4.052   1.297   9.511  0.6773  1.9392 -0.8719
  301MOL0     H41484   3.947   1.220   9.395 -0.3575 -2.3779  0.9784
  301MOL0     H41485   4.150   1.382   9.305  2.3364  0.4579  2.0299
  301MOL0     H41486   4.246   1.252   9.314 -1.1455 -3.3576 -0.8772
  301MOL0     H41487   4.034   1.391   9.072  0.1650  0.5631 -1.0954
  301MOL0     H41488   4.123   1.194   8.753 -3.6810 -1.4793  0.0317
  301MOL0     H41489   4.122   1.358   8.820  3.8624 -1.5121 -0.2115
  301MOL0     H41490   3.883   1.155   8.849 -2.7952  0.5751 -1.8880
  301MOL0     H41491   3.871   1.332   8.844  2.2963  2.3700  0.1827
  301MOL0     H41492   3.776   1.258   8.625 -0.6900 -1.6951  2.4081
  301MOL0     H41493   3.948   1.294   8.591  0.0076  1.4899  0.3938
  301MOL0     H41494   4.003   1.069   8.610 -0.2730  1.0673  2.9284
  301MOL0     H41495   3.832   1.021   8.658  0.4108  2.5274  2.5115
  301MOL0     H41496   3.780   1.077   8.234  0.3883 -0.5545 -0.1839
  301MOL0     H41497   3.613   0.878   8.045  0.0724  0.0522 -2.6500
  301MOL0     H41498   3.780   0.867   7.969 -0.4559 -0.9009 -0.8236
  301MOL0     H41499   3.716   1.022   8.027 -3.3814 -0.4589 -2.1002
  301MOL0     H41500   3.875   0.281   8.069  0.2404  0.3276  0.6608
  301MOL0     H41501   3.720   0.146   7.967 -1.8295 -2.3584  2.3155
  301MOL0     H41502   3.576   0.157   7.826  0.2828 -2.1817 -3.5300
  301MOL0     H41503   3.498   0.002   7.849 -0.2046 -0.5492 -2.2000
  301MOL0     H41504   3.273   0.135   7.815  0.0404  0.2655  0.8716
  301MOL0     H41505   3.365   0.244   7.729  1.5672  0.5101  0.4480
  301MOL0     H41506   3.379  -0.066   7.665  1.9499  0.3878  0.6489
  301MOL0     H41507   3.468   0.046   7.579 -0.4625  0.3190 -0.4325
  301MOL0     H41508   3.276  -0.028   7.469  0.1673 -0.5375  0.5394
  301MOL0     H41509   3.257   0.139   7.484 -1.8837 -2.4467 -2.6872
  301MOL0     H41510   3.123  -0.079   7.673  1.7039  2.0261  1.6533
  301MOL0     H41511   3.117   0.080   7.709  2.5484  0.6515  0.9794
  301MOL0     H41512   3.024  -0.025   7.439  2.6516  0.0432  0.3942
  301MOL0     H41513   3.011   0.146   7.513 -0.0836 -0.6083 -0.9868
  301MOL0     H41514   2.877   0.057   7.688  2.0534 -2.0993  1.6075
  301MOL0     H41515   2.882  -0.109   7.618  1.1285 -0.2853 -1.5191
  301MOL0     H41516   2.669  -0.012   7.555  0.0736  0.6341  0.2804
  301MOL0     H41517   2.769   0.010   7.411 -2.4863  3.4440 -1.1769
  301MOL0     H41518   3.389   0.301   8.202  0.5908  2.9874  2.7346
  301MOL0     H41519   3.558   0.473   8.281  2.6201  2.3226 -0.6686
  301MOL0     H41520   3.914   0.638   8.399  2.0370  1.2562  0.8387
  301MOL0     H41521   3.922   0.839   8.533  1.6818 -1.0060 -0.2282
  301MOL0     H41522   3.590   0.559  10.095  0.8376 -0.2600  0.4636
  301MOL0     H41523   3.495   0.522  10.336 -2.5471 -0.1587 -0.7938
  301MOL0     H41524   3.569   0.560  10.865  0.4126 -0.8215  0.1857
  301MOL0     H41525   3.436   0.505  11.054 -0.3290  0.2484  0.1556
  301MOL0     H41526   3.198   0.281  11.083 -1.0975 -0.0432  0.2577
  301MOL0     H41527   3.280   0.388  11.203  0.3806 -1.2947  0.0084
  301MOL0     H41528   2.978   0.321  11.177 -1.6600  3.4205 -1.6098
  301MOL0     H41529   3.030   0.458  11.258  1.8090  0.1121 -0.0883
  301MOL0     H41530   3.150   0.181  11.322 -0.4187 -0.9867  0.9757
  301MOL0     H41531   3.190   0.326  11.406 -1.1453  1.7912 -0.0847
  301MOL0     H41532   2.979   0.356  11.495  1.6318  0.6183 -0.6765
  301MOL0     H41533   3.033   0.190  11.543  1.1836 -0.3135 -1.7145
  301MOL0     H41534   2.681   0.092  11.344 -0.6155  1.1051 -0.1217
  301MOL0     H41535   3.088   0.593  10.816  0.3619  1.5372 -2.0409
  301MOL0     H41536   3.236   0.550  10.509 -0.5751  0.7237 -0.5404
  301MOL0     H41537   3.093   0.616  10.594  1.0180 -0.1848  2.0373
  301MOL0     H41538   3.217   0.724  10.550  0.6237 -0.8270 -2.3086
  302MOL0     O41539   0.028   2.413   7.238  0.7430 -0.1906 -0.3188
  302MOL0     C41540   0.098   2.318   7.224  0.2555  0.4003 -1.2118
  302MOL0     O41541   0.104   2.244   7.106  0.5552 -0.1508 -0.3238
  302MOL0     C41542   0.047   2.303   6.997 -0.1340  0.4447  0.1222
  302MOL0     C41543   0.113   2.396   6.922  0.4431  0.2289  1.3434
  302MOL0     C41544   0.069   2.443   6.794  0.4291  0.0565 -0.3928
  302MOL0     C41545  -0.054   2.394   6.743  0.2585 -0.6168 -0.6585
  302MOL0     O41546  -0.089   2.434   6.620  0.7433  0.0734 -0.1387
  302MOL0     C41547  -0.230   2.476   6.589  1.1400 -0.7392  0.2334
  302MOL0     C41548  -0.305   2.373   6.500  0.1211 -0.7504 -0.8001
  302MOL0     C41549  -0.231   2.348   6.370 -0.3516 -0.5956 -0.2509
  302MOL0     C41550  -0.292   2.242   6.285  0.0147  0.0116 -1.1369
  302MOL0     C41551  -0.217   2.208   6.155  0.3656 -0.0227 -0.0942
  302MOL0     C41552  -0.271   2.075   6.099  0.3714  0.1897 -0.4927
  302MOL0     C41553  -0.205   2.042   5.965  0.0219 -0.0600 -0.8985
  302MOL0     C41554  -0.260   1.914   5.905  0.9949 -0.2804 -0.0122
  302MOL0     N41555  -0.387   1.929   5.830  0.6303 -0.4340 -0.3876
  302MOL0     C41556  -0.517   1.912   5.887  0.0783  0.5402  0.1422
  302MOL0     C41557  -0.600   1.888   5.781 -0.5600 -0.4455 -0.6341
  302MOL0     C41558  -0.745   1.877   5.790 -0.5057 -0.4033 -0.2066
  302MOL0     C41559  -0.811   2.010   5.735  1.0962 -0.0408 -0.3520
  302MOL0     C41560  -0.953   2.015   5.768  0.9483  0.9414  0.8256
  302MOL0     C41561  -1.020   2.154   5.760  0.1784 -0.2331  0.2082
  302MOL0     O41562  -1.147   2.122   5.817  0.1901  0.2764  0.2469
  302MOL0     C41563  -1.198   2.210   5.905  0.3246  0.2282  0.9311
  302MOL0     C41564  -1.273   2.156   6.010  0.0760 -0.2326  0.3486
  302MOL0     C41565  -1.324   2.241   6.117 -0.6901 -1.1059  0.6295
  302MOL0     C41566  -1.407   2.180   6.229 -0.3216  0.2782 -0.0119
  302MOL0     C41567  -1.312   2.383   6.102  0.4198 -0.6577 -0.0063
  302MOL0     C41568  -1.372   2.493   6.191 -0.3654 -0.3991 -0.0341
  302MOL0     O41569  -1.315   2.631   6.186  0.1134 -0.1532 -0.8459
  302MOL0     C41570  -1.350   2.711   6.292 -0.0978 -0.3442  0.5951
  302MOL0     C41571  -1.345   2.672   6.430 -0.5333  0.5297  1.1704
  302MOL0     C41572  -1.378   2.766   6.532  0.2573  0.9629 -0.6988
  302MOL0     C41573  -1.406   2.891   6.500  0.6919 -0.4712 -0.6259
  302MOL0     O41574  -1.427   2.986   6.598  0.6212  0.2808 -0.0044
  302MOL0     C41575  -1.427   2.953   6.737 -0.2986  0.2480  0.3939
  302MOL0     C41576  -1.484   3.066   6.830 -0.1523  0.0516  0.3282
  302MOL0     C41577  -1.619   3.114   6.787  0.0882 -0.0184 -0.2700
  302MOL0     C41578  -1.613   3.216   6.668  1.3264 -0.7563  0.4372
  302MOL0     C41579  -1.751   3.293   6.676 -0.8918  0.8246 -0.6961
  302MOL0     C41580  -1.885   3.201   6.687  0.0446  0.2745 -0.2643
  302MOL0     C41581  -2.003   3.286   6.731 -0.3394  0.2523  0.4368
  302MOL0     C41582  -2.130   3.198   6.735 -0.0760 -0.3163 -0.4898
  302MOL0    Cl41583  -2.146   3.138   6.901 -0.3134  0.2107 -0.2384
  302MOL0     C41584  -1.416   2.932   6.371 -0.4156  0.4395 -0.3792
  302MOL0     C41585  -1.386   2.847   6.266  0.8306 -0.0052  0.4787
  302MOL0     O41586  -1.465   2.459   6.260  0.3490 -0.5587 -0.0117
  302MOL0     C41587  -1.239   2.435   5.990 -0.4025 -0.9041 -0.3282
  302MOL0     C41588  -1.178   2.346   5.901 -0.6262  0.1144 -0.6219
  302MOL0     N41589  -0.526   1.897   5.666 -0.0693 -1.1433  0.0871
  302MOL0     N41590  -0.410   1.934   5.693 -0.3736  0.3007 -0.3067
  302MOL0     C41591  -0.130   2.299   6.819  0.0470 -0.0078 -0.0725
  302MOL0     C41592  -0.070   2.256   6.937  0.9746  1.1943 -0.3675
  302MOL0     C41593   0.179   2.266   7.341  0.2290  0.7355 -0.4387
  302MOL0     C41594   0.279   2.168   7.318 -1.3329 -0.9461  0.4815
  302MOL0     C41595   0.359   2.121   7.427 -0.2013  0.0486  0.4374
  302MOL0     C41596   0.339   2.166   7.553  0.3957 -0.7361 -0.5391
  302MOL0     O41597   0.420   2.115   7.656 -0.1150 -0.0653  0.9969
  302MOL0     C41598   0.351   2.049   7.762  0.8555  0.2936  0.0659
  302MOL0     C41599   0.354   1.892   7.751  0.0123  1.2960  0.0597
  302MOL0     C41600   0.352   1.837   7.888  0.2043  0.5229 -0.9607
  302MOL0     C41601   0.323   1.689   7.897  0.2015 -0.0086 -0.1296
  302MOL0     C41602   0.420   1.613   7.822  0.3614  0.3587 -0.2302
  302MOL0     C41603   0.512   1.551   7.765 -0.2847  0.2125  0.2588
  302MOL0     C41604   0.244   2.253   7.576  0.3386  0.2327  0.6551
  302MOL0     C41605   0.161   2.313   7.476 -0.7714  0.0717 -1.1399
  302MOL0     C41606   0.049   2.400   7.521 -0.0426 -0.7404  0.0391
  302MOL0     H41607   0.194   2.439   6.980  0.5322 -1.0938  2.2440
  302MOL0     H41608   0.125   2.526   6.753  2.0644 -0.2863  0.9954
  302MOL0     H41609  -0.219   2.574   6.542  0.6932 -1.4400 -1.4238
  302MOL0     H41610  -0.286   2.490   6.682  2.3534  1.3239  0.7051
  302MOL0     H41611  -0.298   2.277   6.553  0.5330 -0.3187 -0.0580
  302MOL0     H41612  -0.407   2.410   6.486  0.0002 -1.0693 -0.7718
  302MOL0     H41613  -0.219   2.438   6.308  0.6537 -0.3428  0.2946
  302MOL0     H41614  -0.128   2.319   6.394 -0.2928 -1.6273 -1.6453
  302MOL0     H41615  -0.298   2.153   6.347 -2.0258 -1.2767 -3.0193
  302MOL0     H41616  -0.395   2.273   6.264 -1.3876 -0.3130  3.9818
  302MOL0     H41617  -0.114   2.183   6.183 -0.3447 -0.8575  1.9573
  302MOL0     H41618  -0.215   2.288   6.080  0.2138  0.6217  0.5814
  302MOL0     H41619  -0.252   1.997   6.174 -1.7115  0.5001  0.4149
  302MOL0     H41620  -0.379   2.090   6.086  0.4537 -0.6115 -2.5410
  302MOL0     H41621  -0.098   2.018   5.968  0.3118  0.9800 -2.1014
  302MOL0     H41622  -0.231   2.128   5.903 -1.1348  2.6507  2.9432
  302MOL0     H41623  -0.191   1.885   5.825  0.0866 -0.1733 -0.8463
  302MOL0     H41624  -0.267   1.823   5.966 -1.0204 -0.0919  0.1072
  302MOL0     H41625  -0.542   1.909   5.993  1.1444  0.4008  0.4024
  302MOL0     H41626  -0.770   1.871   5.896  0.7335  3.2608  0.4406
  302MOL0     H41627  -0.793   1.787   5.750 -0.4173 -2.0468  3.0666
  302MOL0     H41628  -0.761   2.096   5.781  5.2211 -3.5691  2.4991
  302MOL0     H41629  -0.798   2.026   5.627  4.2868 -0.4286 -0.1130
  302MOL0     H41630  -1.000   1.931   5.714  0.7877 -1.5667  4.4952
  302MOL0     H41631  -0.975   1.979   5.869  0.8675  0.3610  0.6096
  302MOL0     H41632  -0.974   2.234   5.818 -0.1819  3.5247 -4.1199
  302MOL0     H41633  -1.025   2.193   5.658  1.6053  1.2760  0.6715
  302MOL0     H41634  -1.289   2.049   6.011 -1.9677 -0.0239 -1.5760
  302MOL0     H41635  -1.510   2.216   6.221 -0.1847  1.0038  1.2007
  302MOL0     H41636  -1.370   2.206   6.329  1.0400 -0.3639 -0.3253
  302MOL0     H41637  -1.410   2.071   6.219 -0.0441  0.3213 -0.5818
  302MOL0     H41638  -1.318   2.573   6.466 -2.4624 -0.5164 -0.0618
  302MOL0     H41639  -1.366   2.722   6.631 -0.7276 -0.1389 -1.0398
  302MOL0     H41640  -1.492   2.867   6.751 -1.9896  1.1784 -1.2066
  302MOL0     H41641  -1.324   2.926   6.761 -0.4729 -1.0026 -0.1979
  302MOL0     H41642  -1.494   3.014   6.925  0.1794 -0.2206  0.2158
  302MOL0     H41643  -1.418   3.152   6.844 -1.4847  1.0555  0.5828
  302MOL0     H41644  -1.667   3.158   6.875  1.4756  0.4372  0.2859
  302MOL0     H41645  -1.674   3.024   6.759  0.5635 -0.3477 -0.1400
  302MOL0     H41646  -1.612   3.165   6.572  0.8155 -1.3334  0.7289
  302MOL0     H41647  -1.532   3.289   6.669 -1.1887  2.2581  0.6844
  302MOL0     H41648  -1.739   3.347   6.771  1.3046 -2.6466  1.2339
  302MOL0     H41649  -1.758   3.368   6.597 -0.2034 -0.5250 -2.0864
  302MOL0     H41650  -1.869   3.118   6.756  0.6413 -2.3396 -3.2877
  302MOL0     H41651  -1.906   3.153   6.591  0.8531 -1.4688  0.3950
  302MOL0     H41652  -2.025   3.378   6.676 -0.7581 -0.5778 -0.8315
  302MOL0     H41653  -1.966   3.313   6.831  1.2157 -2.2170  0.6139
  302MOL0     H41654  -2.117   3.123   6.657  1.6217 -0.8587  0.2468
  302MOL0     H41655  -2.219   3.251   6.702  0.9445  0.7426 -1.6096
  302MOL0     H41656  -1.444   3.034   6.346  1.0900  0.7881 -0.7855
  302MOL0     H41657  -1.392   2.878   6.163 -1.6150 -0.4921  0.4121
  302MOL0     H41658  -1.230   2.542   5.978  0.8519 -0.7153  1.8173
  302MOL0     H41659  -1.129   2.401   5.821  1.8684  0.0531  0.7625
  302MOL0     H41660  -0.221   2.255   6.782  0.0998 -0.3172  0.1569
  302MOL0     H41661  -0.127   2.187   6.998  2.0447  0.7425  0.1606
  302MOL0     H41662   0.312   2.140   7.219 -2.1498 -2.4827  0.6150
  302MOL0     H41663   0.431   2.042   7.410 -0.1832  0.5195 -2.0737
  302MOL0     H41664   0.409   2.085   7.848 -1.3799  0.8745  1.4241
  302MOL0     H41665   0.250   2.090   7.775  0.2551 -0.7422 -1.0708
  302MOL0     H41666   0.446   1.856   7.702 -1.6811  0.6320 -2.8696
  302MOL0     H41667   0.276   1.846   7.690  0.3786 -2.7642  2.2673
  302MOL0     H41668   0.445   1.864   7.938 -0.0710  0.1115 -0.2049
  302MOL0     H41669   0.264   1.878   7.940  2.1307  3.4098  0.2466
  302MOL0     H41670   0.227   1.653   7.858  0.2801  1.2235 -1.5407
  302MOL0     H41671   0.318   1.653   8.000  1.6049 -1.1448 -0.4213
  302MOL0     H41672   0.599   1.511   7.717 -0.6451 -0.4600  0.1478
  302MOL0     H41673   0.218   2.291   7.675  2.1308  2.8343  0.2423
  302MOL0     H41674   0.073   2.495   7.474 -0.4214 -0.2370  0.8326
  302MOL0     H41675  -0.046   2.359   7.485  0.9299 -0.4578 -3.0978
  302MOL0     H41676   0.034   2.428   7.626 -1.2461  3.1530 -1.0082
  303MOL0     O41677   6.921   0.822   6.444  0.0494  0.2044 -0.1196
  303MOL0     C41678   6.922   0.908   6.529 -0.5357 -0.0817  0.1918
  303MOL0     O41679   7.027   0.982   6.572  0.0428 -0.3422 -0.2397
  303MOL0     C41680   7.123   1.008   6.483 -0.8167  0.7381  0.4634
  303MOL0     C41681   7.105   1.050   6.348 -0.2075 -0.1332 -0.6499
  303MOL0     C41682   7.217   1.078   6.265  0.2115  0.4036 -1.1558
  303MOL0     C41683   7.345   1.075   6.314 -0.3729 -0.4911  0.6902
  303MOL0     O41684   7.469   1.109   6.255 -0.1837  0.6323 -0.2444
  303MOL0     C41685   7.487   1.164   6.129  0.0449 -1.0388  0.5832
  303MOL0     C41686   7.594   1.077   6.051 -1.3661 -0.1959  0.3547
  303MOL0     C41687   7.728   1.074   6.118  0.4218  0.7301  0.2425
  303MOL0     C41688   7.809   1.209   6.105 -1.0977 -0.3537 -0.2729
  303MOL0     C41689   7.952   1.201   6.178  0.3338  0.5394 -0.0719
  303MOL0     C41690   8.024   1.336   6.183  0.1409  0.5821 -0.4950
  303MOL0     C41691   8.136   1.357   6.087  0.7327  0.6459 -0.6756
  303MOL0     C41692   8.121   1.297   5.948 -0.0397  0.3745 -0.9826
  303MOL0     N41693   8.138   1.388   5.833 -0.0662 -0.4996  0.2279
  303MOL0     C41694   8.041   1.425   5.742 -0.2388  0.6321 -0.0734
  303MOL0     C41695   8.103   1.476   5.630  0.1159  1.0926  0.1951
  303MOL0     C41696   8.045   1.526   5.506 -0.2131  0.0530  1.1266
  303MOL0     C41697   8.100   1.644   5.432 -0.3761 -0.4961  0.2106
  303MOL0     C41698   8.009   1.677   5.307  0.4482  0.2755  1.5464
  303MOL0     C41699   8.059   1.798   5.218 -0.1425 -0.6997  0.3024
  303MOL0     O41700   8.197   1.802   5.165  0.0774  0.4819  0.3130
  303MOL0     C41701   8.233   1.901   5.077 -0.6972  0.5131 -0.5661
  303MOL0     C41702   8.348   1.882   5.003 -0.8372 -0.2278  0.5918
  303MOL0     C41703   8.391   1.979   4.908 -0.1364 -0.2710 -0.1962
  303MOL0     C41704   8.519   1.953   4.831  0.3611 -0.1842 -0.0500
  303MOL0     C41705   8.328   2.101   4.898  0.0433  0.4148 -0.8647
  303MOL0     C41706   8.374   2.224   4.831 -0.1431  0.3777 -0.4975
  303MOL0     O41707   8.279   2.312   4.790  0.2340  1.2584  0.3265
  303MOL0     C41708   8.297   2.447   4.767  0.8703  0.8241  0.3167
  303MOL0     C41709   8.186   2.519   4.717  0.2567  0.1253  0.0407
  303MOL0     C41710   8.189   2.649   4.683 -0.4511  0.0401  0.4768
  303MOL0     C41711   8.305   2.721   4.704  1.1837  0.2053  0.3817
  303MOL0     O41712   8.308   2.852   4.664 -0.2674  0.2547 -0.2241
  303MOL0     C41713   8.423   2.927   4.696  0.0097  0.5904 -0.4631
  303MOL0     C41714   8.427   3.070   4.643 -0.1758  0.1295 -0.4256
  303MOL0     C41715   8.448   3.089   4.491 -1.0997 -0.3821 -0.1529
  303MOL0     C41716   8.596   3.112   4.466  0.1200 -0.1535 -0.1353
  303MOL0     C41717   8.624   3.143   4.310 -0.0256 -0.8523  1.2451
  303MOL0     C41718   8.778   3.171   4.303 -0.2336 -0.1336  0.2526
  303MOL0     C41719   8.831   3.201   4.162  0.1439 -0.7529  0.1526
  303MOL0     C41720   8.766   3.327   4.096 -0.2111 -0.7379 -0.9878
  303MOL0    Cl41721   8.787   3.484   4.201  0.3293  0.0355 -0.3980
  303MOL0     C41722   8.413   2.664   4.766  0.6263  0.1278  0.9143
  303MOL0     C41723   8.412   2.527   4.797 -0.3272 -0.3745  0.0856
  303MOL0     O41724   8.493   2.245   4.818  0.4115  0.0346  0.6195
  303MOL0     C41725   8.220   2.124   4.987  0.5147  0.3519 -0.4412
  303MOL0     C41726   8.170   2.025   5.072  0.1897  0.2871  0.3772
  303MOL0     N41727   8.234   1.481   5.670 -1.4247  0.2263 -0.1089
  303MOL0     N41728   8.255   1.432   5.784  0.7918 -0.0999 -0.0742
  303MOL0     C41729   7.366   1.014   6.438  0.5677  0.2854 -0.8267
  303MOL0     C41730   7.257   0.986   6.523 -0.3799  1.4590  0.0421
  303MOL0     C41731   6.806   0.933   6.616  0.5345 -0.3571  0.6979
  303MOL0     C41732   6.809   1.027   6.719  0.3610  0.2415 -0.8165
  303MOL0     C41733   6.700   1.056   6.805  0.2047  0.6218 -0.0322
  303MOL0     C41734   6.582   0.984   6.799  0.4069  0.6956 -0.7744
  303MOL0     O41735   6.467   1.019   6.883  0.4371  0.2026  0.4263
  303MOL0     C41736   6.339   0.959   6.830  0.5682 -0.3122 -1.1725
  303MOL0     C41737   6.212   0.995   6.916 -0.8020  0.1764  1.0451
  303MOL0     C41738   6.092   0.932   6.844  0.7767 -0.2217 -0.2730
  303MOL0     C41739   6.015   1.040   6.764  0.6185  0.1542  1.5791
  303MOL0     C41740   5.968   1.143   6.872 -0.3111  0.2047  0.6168
  303MOL0     C41741   5.932   1.227   6.950  0.4357  0.0520  0.1596
  303MOL0     C41742   6.574   0.892   6.688 -0.0043  0.6368 -0.4053
  303MOL0     C41743   6.682   0.871   6.593  0.1772  0.2388 -0.1454
  303MOL0     C41744   6.653   0.772   6.494 -0.3026 -0.3898  0.8607
  303MOL0     H41745   7.004   1.061   6.311 -0.2117  3.1661  0.0536
  303MOL0     H41746   7.200   1.108   6.162 -1.3731  4.8179  0.1654
  303MOL0     H41747   7.516   1.269   6.120 -3.1828 -0.1782 -1.0679
  303MOL0     H41748   7.392   1.152   6.076 -1.0189  0.3713  2.0785
  303MOL0     H41749   7.571   0.971   6.056  3.5547 -1.6094 -1.3857
  303MOL0     H41750   7.606   1.103   5.945 -0.5114  3.3554  1.1711
  303MOL0     H41751   7.730   1.064   6.227  0.5535  0.4035  0.2136
  303MOL0     H41752   7.792   0.991   6.084  0.4182  0.5298  0.7137
  303MOL0     H41753   7.825   1.229   5.999  0.8795  0.6271  0.1758
  303MOL0     H41754   7.758   1.292   6.155  1.8816 -0.2704  3.0086
  303MOL0     H41755   8.010   1.119   6.136  0.6542  0.6439  0.1644
  303MOL0     H41756   7.933   1.154   6.274 -0.4305 -0.9599 -0.9196
  303MOL0     H41757   7.946   1.413   6.179  0.0162  0.4004 -3.2708
  303MOL0     H41758   8.075   1.328   6.280 -0.7713 -3.6262 -0.1733
  303MOL0     H41759   8.222   1.301   6.125 -0.7894 -1.6969 -0.5163
  303MOL0     H41760   8.166   1.463   6.084 -1.7987  1.4014 -3.6335
  303MOL0     H41761   8.205   1.227   5.941  1.0394  1.7096 -1.7821
  303MOL0     H41762   8.030   1.238   5.933 -2.1276  3.2064 -0.3505
  303MOL0     H41763   7.936   1.398   5.738  0.2801 -2.3642  2.2294
  303MOL0     H41764   7.942   1.551   5.532 -0.9087 -0.3088 -1.0882
  303MOL0     H41765   8.049   1.448   5.430 -3.8869  2.8220 -2.3048
  303MOL0     H41766   8.106   1.725   5.506  1.5530  0.8300 -1.2807
  303MOL0     H41767   8.202   1.640   5.392 -0.6840 -2.2585 -0.4878
  303MOL0     H41768   8.010   1.593   5.237 -0.6514  1.5207 -0.0275
  303MOL0     H41769   7.914   1.685   5.360  0.7881 -3.2431  3.0073
  303MOL0     H41770   7.993   1.804   5.130 -0.4353 -0.2823  0.5509
  303MOL0     H41771   8.052   1.887   5.281  0.7493 -0.4136  0.0114
  303MOL0     H41772   8.408   1.791   5.006 -0.8007 -0.1991  0.7267
  303MOL0     H41773   8.603   2.006   4.877  0.6788  1.1170 -2.0002
  303MOL0     H41774   8.507   1.984   4.727 -0.7086 -2.1995 -0.5835
  303MOL0     H41775   8.543   1.846   4.822  0.0244 -0.4420  1.8219
  303MOL0     H41776   8.095   2.468   4.686 -0.2027 -0.7597  2.6060
  303MOL0     H41777   8.108   2.689   4.623  0.1347 -1.2644 -1.2902
  303MOL0     H41778   8.417   2.927   4.805 -2.5354  0.3582 -0.5428
  303MOL0     H41779   8.514   2.874   4.667  0.9821 -0.8275  4.3717
  303MOL0     H41780   8.331   3.117   4.668  0.9934  0.8044  3.3419
  303MOL0     H41781   8.498   3.128   4.702 -1.8896 -0.9991  2.9934
  303MOL0     H41782   8.403   3.182   4.458 -2.1827 -0.0717  2.0392
  303MOL0     H41783   8.409   3.005   4.432  0.8933 -2.9582  1.9238
  303MOL0     H41784   8.653   3.024   4.495  1.7839  1.8256  3.2283
  303MOL0     H41785   8.630   3.203   4.517 -0.3556 -0.2017  0.2727
  303MOL0     H41786   8.593   3.067   4.239  0.6428 -0.3357  0.3849
  303MOL0     H41787   8.567   3.230   4.277  0.3041 -1.3072 -0.6376
  303MOL0     H41788   8.832   3.084   4.341  0.2064 -0.2078 -0.5251
  303MOL0     H41789   8.805   3.257   4.364 -2.6920  0.4993  0.5572
  303MOL0     H41790   8.794   3.120   4.098  0.5206 -2.0508  1.5351
  303MOL0     H41791   8.940   3.209   4.155 -0.0419  0.7145 -4.7871
  303MOL0     H41792   8.658   3.318   4.080 -1.2337  0.3082  3.7901
  303MOL0     H41793   8.821   3.325   4.002  3.2756  0.6124  0.8364
  303MOL0     H41794   8.510   2.708   4.785  0.7579 -0.8568  2.7849
  303MOL0     H41795   8.501   2.489   4.845  0.1800  3.2676  2.4001
  303MOL0     H41796   8.170   2.220   5.002 -1.6631 -0.8213  0.2971
  303MOL0     H41797   8.078   2.040   5.127  0.9911  1.1422  1.5140
  303MOL0     H41798   7.462   1.001   6.487 -0.1161  0.7635  0.6863
  303MOL0     H41799   7.262   0.944   6.623  0.9097 -0.9908 -0.9739
  303MOL0     H41800   6.896   1.088   6.742  0.8361 -0.3426 -1.0485
  303MOL0     H41801   6.702   1.133   6.881 -1.3440  1.8259 -1.1392
  303MOL0     H41802   6.314   0.994   6.729 -0.5214  1.3144 -0.3895
  303MOL0     H41803   6.336   0.850   6.829  0.1271 -0.3507  0.7852
  303MOL0     H41804   6.218   1.103   6.934  2.9451 -0.1776  3.0079
  303MOL0     H41805   6.219   0.939   7.009 -1.7907  1.7990  2.1472
  303MOL0     H41806   6.116   0.848   6.779  0.5798 -0.3265 -0.2115
  303MOL0     H41807   6.014   0.889   6.908 -0.6951  2.9556  0.2867
  303MOL0     H41808   5.924   1.003   6.716  0.3078 -0.1998  2.4260
  303MOL0     H41809   6.079   1.081   6.686 -1.6529 -3.5728 -2.7127
  303MOL0     H41810   5.896   1.298   7.021 -2.8561  0.7893 -2.0087
  303MOL0     H41811   6.483   0.844   6.655 -1.2411  1.3317  1.8174
  303MOL0     H41812   6.545   0.760   6.479  0.0118 -0.7633 -1.5541
  303MOL0     H41813   6.679   0.805   6.393  2.0972  2.3916  2.2352
  303MOL0     H41814   6.690   0.672   6.517  2.4245  0.3513  0.0622
  304MOL0     O41815   0.561   6.715   7.090  1.4368  0.2208  0.0080
  304MOL0     C41816   0.522   6.600   7.085  0.3306 -0.5592 -0.7088
  304MOL0     O41817   0.563   6.500   7.173  0.0532  0.6074 -0.0939
  304MOL0     C41818   0.693   6.506   7.221 -0.6305  0.3185 -0.2464
  304MOL0     C41819   0.718   6.541   7.354  0.4502 -0.4353  0.1092
  304MOL0     C41820   0.851   6.538   7.401  0.2572 -0.9548 -0.0513
  304MOL0     C41821   0.954   6.485   7.327  0.0004 -0.5730  0.8720
  304MOL0     O41822   1.083   6.483   7.374  0.8304 -0.0073 -0.1343
  304MOL0     C41823   1.146   6.605   7.342 -0.3487  0.2343  0.0932
  304MOL0     C41824   1.222   6.663   7.462  0.0500 -0.6226  0.8509
  304MOL0     C41825   1.127   6.731   7.558 -0.3308 -0.4102 -0.1442
  304MOL0     C41826   1.191   6.730   7.701 -0.2571  0.0851  0.6638
  304MOL0     C41827   1.118   6.807   7.813 -0.3903  0.7438  0.8190
  304MOL0     C41828   1.181   6.808   7.950 -0.5814 -0.3692 -0.1043
  304MOL0     C41829   1.308   6.899   7.950  0.4695  1.2462 -0.3559
  304MOL0     C41830   1.391   6.911   8.079 -0.6056  0.5520  0.1033
  304MOL0     N41831   1.509   6.997   8.068 -0.1432  0.5273  0.4625
  304MOL0     C41832   1.527   7.128   8.099  0.0383 -0.3521 -0.2559
  304MOL0     C41833   1.659   7.155   8.068  1.2171  0.1533  0.5728
  304MOL0     C41834   1.720   7.283   8.090 -0.8458 -0.2158  0.8337
  304MOL0     C41835   1.678   7.389   7.972 -0.0197 -0.6366  0.5006
  304MOL0     C41836   1.747   7.531   7.971 -0.2159 -0.9702  0.1477
  304MOL0     C41837   1.783   7.594   8.115 -0.8601 -1.4886 -0.3819
  304MOL0     O41838   1.861   7.717   8.086  0.4806  0.7118 -0.1497
  304MOL0     C41839   1.803   7.834   8.111 -0.0297 -0.3270  0.2520
  304MOL0     C41840   1.885   7.941   8.099  0.1808  0.0476  0.3458
  304MOL0     C41841   1.854   8.075   8.127 -0.1378  0.3843 -0.6227
  304MOL0     C41842   1.967   8.167   8.131 -0.3353 -0.7585  0.0478
  304MOL0     C41843   1.713   8.105   8.155 -0.2674  0.5670  0.1032
  304MOL0     C41844   1.659   8.239   8.178 -0.2723 -0.3127  0.7680
  304MOL0     O41845   1.730   8.342   8.126  0.0250  0.0368 -0.2747
  304MOL0     C41846   1.695   8.473   8.144 -1.0049 -0.0469  0.2157
  304MOL0     C41847   1.562   8.521   8.127  0.5790 -0.0546  1.1549
  304MOL0     C41848   1.540   8.658   8.147  1.0418  0.3631  0.5875
  304MOL0     C41849   1.640   8.758   8.156  0.5456 -0.2248  1.3353
  304MOL0     O41850   1.597   8.889   8.181  0.4416  0.0579  0.6572
  304MOL0     C41851   1.703   8.991   8.193  0.5837  0.0620  0.2317
  304MOL0     C41852   1.654   9.120   8.262  0.3118 -0.5952 -0.3489
  304MOL0     C41853   1.771   9.178   8.346  1.0774  0.3516  0.7272
  304MOL0     C41854   1.727   9.308   8.411 -0.9762 -0.7554 -0.9568
  304MOL0     C41855   1.853   9.380   8.481 -0.5118  0.0210  0.9479
  304MOL0     C41856   1.809   9.522   8.512  0.3467  0.2925  0.2266
  304MOL0     C41857   1.916   9.596   8.601  0.0991  0.5894  0.1249
  304MOL0     C41858   1.885   9.552   8.753  0.0914 -0.7648 -0.1337
  304MOL0    Cl41859   1.755   9.650   8.803  0.2880 -0.3865 -0.1177
  304MOL0     C41860   1.770   8.708   8.154 -0.4444  0.6812 -0.9679
  304MOL0     C41861   1.799   8.568   8.154  0.3264  0.9539  0.4132
  304MOL0     O41862   1.550   8.257   8.238 -0.6622  0.3540 -0.3006
  304MOL0     C41863   1.627   7.994   8.167  1.1004 -0.1493  0.6141
  304MOL0     C41864   1.671   7.857   8.147 -0.5911  0.4650  0.4746
  304MOL0     N41865   1.716   7.044   8.008 -0.5025 -0.1935 -0.1957
  304MOL0     N41866   1.631   6.951   8.016  0.3079  0.4808  0.4358
  304MOL0     C41867   0.926   6.432   7.198 -0.4332 -0.2800  0.4192
  304MOL0     C41868   0.797   6.452   7.141  0.2307  0.3565 -0.3191
  304MOL0     C41869   0.400   6.578   7.010  0.7875 -0.1427 -0.5188
  304MOL0     C41870   0.302   6.681   7.007 -0.5126 -0.3083  0.5333
  304MOL0     C41871   0.183   6.664   6.938 -0.0319  0.0775  0.4471
  304MOL0     C41872   0.171   6.551   6.854  0.8927  0.1438  0.5329
  304MOL0     O41873   0.059   6.544   6.782  0.3339  0.2526  0.5059
  304MOL0     C41874  -0.046   6.435   6.803 -0.2926 -1.5572 -1.6530
  304MOL0     C41875  -0.110   6.407   6.665  0.6081  0.5965 -0.2512
  304MOL0     C41876  -0.176   6.528   6.609  0.3187 -0.1107 -0.5130
  304MOL0     C41877  -0.290   6.580   6.694 -0.2806  0.2165 -0.2246
  304MOL0     C41878  -0.378   6.661   6.606  0.5139  0.4385 -0.9099
  304MOL0     C41879  -0.440   6.702   6.523  0.2926 -0.3900  0.5451
  304MOL0     C41880   0.262   6.447   6.847 -0.0252  0.4216 -0.5932
  304MOL0     C41881   0.382   6.457   6.936 -0.0844  0.2454 -0.4583
  304MOL0     C41882   0.471   6.335   6.949 -0.0169  0.1921  0.3242
  304MOL0     H41883   0.645   6.581   7.424 -1.1468  1.0355 -2.2849
  304MOL0     H41884   0.879   6.566   7.502  2.7158  0.4482 -1.0431
  304MOL0     H41885   1.075   6.684   7.314  1.7499  1.5987 -1.7604
  304MOL0     H41886   1.220   6.590   7.263  0.7662  1.3663  0.8815
  304MOL0     H41887   1.278   6.583   7.513  2.2461  0.6555  0.5690
  304MOL0     H41888   1.286   6.746   7.432 -1.0043  0.2202  0.8705
  304MOL0     H41889   1.110   6.829   7.512  2.7637  0.1790 -0.2377
  304MOL0     H41890   1.029   6.682   7.570 -0.4307 -0.6262 -1.6910
  304MOL0     H41891   1.189   6.623   7.726 -4.0476  0.6380  3.6972
  304MOL0     H41892   1.296   6.760   7.698  0.3874 -2.0671 -0.8035
  304MOL0     H41893   1.021   6.759   7.831 -1.4734  2.0882 -1.0055
  304MOL0     H41894   1.110   6.915   7.797  1.4312  1.2019  2.6661
  304MOL0     H41895   1.116   6.859   8.021  1.9880 -0.8785  2.8279
  304MOL0     H41896   1.211   6.708   7.981 -0.7286 -0.3492  0.1057
  304MOL0     H41897   1.274   6.999   7.919  3.1100  2.9168  1.6896
  304MOL0     H41898   1.374   6.859   7.873 -2.0902  0.5850 -2.3578
  304MOL0     H41899   1.312   6.952   8.143 -1.7870  1.0901 -1.6526
  304MOL0     H41900   1.425   6.819   8.127  1.5656  2.4642  2.6094
  304MOL0     H41901   1.451   7.197   8.134 -0.6532 -0.6500 -1.1176
  304MOL0     H41902   1.828   7.271   8.098 -0.6371  0.4018 -0.7741
  304MOL0     H41903   1.693   7.321   8.189 -1.1348  0.2074  0.5975
  304MOL0     H41904   1.704   7.337   7.879  0.2087 -4.0046  2.2768
  304MOL0     H41905   1.574   7.421   7.983  0.9309  1.9515  3.4955
  304MOL0     H41906   1.838   7.536   7.910  0.9130  0.0675  1.8322
  304MOL0     H41907   1.693   7.608   7.914 -0.8742  0.9636  3.1552
  304MOL0     H41908   1.697   7.607   8.181 -2.0799 -5.1166 -1.0216
  304MOL0     H41909   1.851   7.536   8.178  0.0018  2.7235  3.0411
  304MOL0     H41910   1.988   7.925   8.071  0.4477  1.3339  0.5646
  304MOL0     H41911   2.063   8.117   8.117 -0.5392 -0.7106 -1.8231
  304MOL0     H41912   1.966   8.217   8.228  0.3827 -1.6253  0.5098
  304MOL0     H41913   1.965   8.234   8.044 -0.2063 -0.9868 -0.1331
  304MOL0     H41914   1.489   8.445   8.102  0.1989  0.3240  1.1121
  304MOL0     H41915   1.439   8.697   8.150  0.0006 -2.1375  0.4344
  304MOL0     H41916   1.795   8.957   8.241 -0.3648 -1.8846  0.7349
  304MOL0     H41917   1.734   9.015   8.090  1.5167  0.4243  0.5887
  304MOL0     H41918   1.617   9.185   8.183 -4.1984 -3.0983 -0.6465
  304MOL0     H41919   1.571   9.092   8.328  2.9865 -4.7348  1.6904
  304MOL0     H41920   1.858   9.192   8.280  0.5024 -0.2058 -0.1701
  304MOL0     H41921   1.809   9.105   8.418  2.7666  1.4818  1.0472
  304MOL0     H41922   1.653   9.284   8.487  0.2301 -2.8107 -0.3649
  304MOL0     H41923   1.692   9.366   8.325  0.2390 -1.8545 -2.2374
  304MOL0     H41924   1.890   9.338   8.575  1.7662 -0.3146 -0.0579
  304MOL0     H41925   1.941   9.381   8.417  0.0528  1.3491  1.6882
  304MOL0     H41926   1.706   9.523   8.547 -1.5497  1.7237 -4.6241
  304MOL0     H41927   1.810   9.568   8.413 -0.8064 -0.6549 -0.2520
  304MOL0     H41928   1.896   9.703   8.591 -0.8693  0.5426  1.1796
  304MOL0     H41929   2.018   9.561   8.582 -0.8177 -0.5401 -3.4837
  304MOL0     H41930   1.967   9.567   8.823 -1.9043  1.2710  1.9617
  304MOL0     H41931   1.866   9.444   8.751  0.6397 -0.9536 -4.0333
  304MOL0     H41932   1.857   8.772   8.148  0.8428 -0.5898  2.0329
  304MOL0     H41933   1.900   8.531   8.165  0.1164 -0.0496 -0.7978
  304MOL0     H41934   1.531   8.011   8.214 -0.4156 -1.1398 -1.9407
  304MOL0     H41935   1.598   7.777   8.156  0.5162 -0.5907  0.2080
  304MOL0     H41936   1.001   6.375   7.146  0.7981  0.3528  1.4528
  304MOL0     H41937   0.782   6.427   7.037 -0.3915 -1.0798  0.0867
  304MOL0     H41938   0.304   6.785   7.039  0.4963 -0.6227  1.5544
  304MOL0     H41939   0.108   6.742   6.931 -1.8849 -1.6373  0.1292
  304MOL0     H41940  -0.000   6.341   6.838  0.4698 -0.4308  0.5824
  304MOL0     H41941  -0.126   6.469   6.869  1.1139  0.4601 -0.9029
  304MOL0     H41942  -0.176   6.319   6.666  0.4969  0.5453 -3.3589
  304MOL0     H41943  -0.029   6.373   6.600  1.1707 -4.1258  2.4721
  304MOL0     H41944  -0.097   6.601   6.592 -1.0057  1.1224 -1.5918
  304MOL0     H41945  -0.227   6.510   6.514 -1.4517 -1.7228  0.6770
  304MOL0     H41946  -0.243   6.648   6.767 -1.2061  0.6599 -0.0188
  304MOL0     H41947  -0.349   6.502   6.742 -1.5599  0.5343 -1.2158
  304MOL0     H41948  -0.507   6.746   6.451  0.1051 -0.8631  0.4291
  304MOL0     H41949   0.245   6.359   6.785 -0.2576  3.1928 -4.8638
  304MOL0     H41950   0.438   6.279   7.037  1.2840 -0.2529  0.5491
  304MOL0     H41951   0.462   6.274   6.859 -1.9997  1.5575 -0.4636
  304MOL0     H41952   0.575   6.361   6.971  1.1368 -2.3680 -1.6208
  305MOL0     O41953   2.627   6.238   1.130  0.2476 -0.7249  0.0048
  305MOL0     C41954   2.564   6.131   1.135  0.6427  1.0150  0.5368
  305MOL0     O41955   2.581   6.024   1.053 -0.6973 -0.4393 -1.0471
  305MOL0     C41956   2.662   6.044   0.947 -0.0151 -0.3169  0.6176
  305MOL0     C41957   2.802   6.075   0.966  0.4819 -0.4829 -0.6548
  305MOL0     C41958   2.880   6.102   0.862  0.1215 -0.0046 -0.0491
  305MOL0     C41959   2.826   6.117   0.732 -0.0432  0.2036 -0.3700
  305MOL0     O41960   2.891   6.166   0.618  0.0275  0.2637 -0.9351
  305MOL0     C41961   3.015   6.234   0.645  0.0923  0.2420  0.1952
  305MOL0     C41962   3.087   6.318   0.540  0.5350  0.3629 -0.8175
  305MOL0     C41963   3.104   6.256   0.403 -0.0248 -0.0410 -0.2278
  305MOL0     C41964   3.191   6.342   0.309 -0.3150  0.6968 -1.0289
  305MOL0     C41965   3.187   6.303   0.160  0.2091 -0.4041  0.7974
  305MOL0     C41966   3.293   6.389   0.088  0.7382  0.4532 -0.5045
  305MOL0     C41967   3.277   6.371  -0.055 -0.9212 -0.6019  0.6024
  305MOL0     C41968   3.370   6.469  -0.133 -0.3170 -0.1133 -0.1666
  305MOL0     N41969   3.337   6.473  -0.274  0.1226  1.1982  0.1176
  305MOL0     C41970   3.353   6.370  -0.358 -0.2819 -0.5965 -0.0855
  305MOL0     C41971   3.359   6.418  -0.486 -1.0679  0.1307 -1.0248
  305MOL0     C41972   3.368   6.357  -0.621 -0.3179  0.4328  0.4139
  305MOL0     C41973   3.485   6.414  -0.701 -0.3818  0.5641 -0.4931
  305MOL0     C41974   3.515   6.348  -0.837  0.2257 -0.0061  0.5431
  305MOL0     C41975   3.630   6.407  -0.916  0.1369 -0.7369 -0.0606
  305MOL0     O41976   3.753   6.380  -0.838  0.3288 -0.1074  0.2510
  305MOL0     C41977   3.819   6.475  -0.756  0.3841  0.2347 -0.4346
  305MOL0     C41978   3.808   6.608  -0.766  0.1410 -0.5334  0.2920
  305MOL0     C41979   3.898   6.694  -0.698  0.3723  0.1722 -0.9068
  305MOL0     C41980   3.897   6.839  -0.733 -0.0669  0.2239 -0.5336
  305MOL0     C41981   3.981   6.638  -0.597  0.4128  0.8203 -0.3132
  305MOL0     C41982   4.076   6.720  -0.509  0.7351 -0.0670 -0.5676
  305MOL0     O41983   4.162   6.654  -0.436  0.8539  0.2671 -0.9525
  305MOL0     C41984   4.254   6.721  -0.353  0.3186 -0.0768 -0.1320
  305MOL0     C41985   4.252   6.714  -0.212 -0.5490  1.0484 -0.6067
  305MOL0     C41986   4.342   6.769  -0.123  0.0756  0.0917  0.5822
  305MOL0     C41987   4.441   6.858  -0.178  0.3277  0.3423 -0.0739
  305MOL0     O41988   4.503   6.944  -0.095  0.5826  0.1254 -0.1824
  305MOL0     C41989   4.530   7.079  -0.138  0.2393  0.6624  1.1461
  305MOL0     C41990   4.525   7.177  -0.027  0.6976 -0.6743 -1.2324
  305MOL0     C41991   4.660   7.215   0.022  0.5521  0.7402  0.0307
  305MOL0     C41992   4.658   7.312   0.138  0.5883 -0.4123  0.6179
  305MOL0     C41993   4.780   7.421   0.154  0.0892  0.3676  0.0735
  305MOL0     C41994   4.735   7.548   0.085 -0.1189 -0.3715  0.0669
  305MOL0     C41995   4.831   7.667   0.102  0.0539  1.3947  0.1084
  305MOL0     C41996   4.756   7.786   0.037 -0.6155 -0.2787  0.3083
  305MOL0    Cl41997   4.860   7.934   0.032  0.0054  0.1246  0.0887
  305MOL0     C41998   4.449   6.867  -0.319  0.0800  0.7854 -0.0069
  305MOL0     C41999   4.366   6.789  -0.404  0.5697 -0.0858  0.5021
  305MOL0     O42000   4.075   6.847  -0.523  0.1345  0.7555 -0.3688
  305MOL0     C42001   3.977   6.500  -0.565  0.0719 -0.4366 -0.2732
  305MOL0     C42002   3.889   6.422  -0.644  0.4024  0.0998  0.1358
  305MOL0     N42003   3.331   6.551  -0.469 -0.1330  0.2556 -0.3183
  305MOL0     N42004   3.329   6.583  -0.346 -0.9512 -0.4686 -0.3882
  305MOL0     C42005   2.696   6.055   0.699 -0.6060 -1.1118 -0.7061
  305MOL0     C42006   2.612   6.027   0.814 -0.5605 -0.8841  0.3517
  305MOL0     C42007   2.443   6.123   1.222  0.7239 -0.2147  0.3866
  305MOL0     C42008   2.384   6.244   1.253 -0.5552  0.4588  0.4303
  305MOL0     C42009   2.259   6.250   1.319  0.5001  0.4706 -0.6161
  305MOL0     C42010   2.197   6.135   1.374 -0.8386 -1.2191 -0.4855
  305MOL0     O42011   2.086   6.119   1.454 -0.2980 -0.0956 -0.4370
  305MOL0     C42012   1.996   6.225   1.487  0.0624  0.4156 -0.2841
  305MOL0     C42013   1.900   6.278   1.372  0.8730 -1.5124  0.0465
  305MOL0     C42014   1.771   6.192   1.345  0.1003 -0.0731  0.1523
  305MOL0     C42015   1.667   6.196   1.460 -0.9882  0.5255 -0.4176
  305MOL0     C42016   1.591   6.318   1.463  0.6914 -0.1215  0.1580
  305MOL0     C42017   1.509   6.411   1.434 -0.5072 -0.2212  0.1801
  305MOL0     C42018   2.256   6.019   1.338 -0.7700  0.5510 -0.3047
  305MOL0     C42019   2.377   6.005   1.269 -1.1136 -0.1424  0.6236
  305MOL0     C42020   2.445   5.876   1.267 -0.1880  0.2106  0.4863
  305MOL0     H42021   2.849   6.083   1.063 -0.8778  2.3680 -0.1282
  305MOL0     H42022   2.980   6.129   0.895  0.9969 -4.0073  1.2118
  305MOL0     H42023   3.091   6.168   0.687  0.2884  0.1656 -0.2813
  305MOL0     H42024   2.997   6.302   0.729 -1.2270 -0.4305  0.4846
  305MOL0     H42025   3.030   6.411   0.529 -1.7471 -1.1235 -2.5269
  305MOL0     H42026   3.190   6.335   0.570  0.0254 -0.1633  1.5042
  305MOL0     H42027   3.145   6.156   0.419 -3.2115 -1.5967 -0.8291
  305MOL0     H42028   3.009   6.251   0.348  1.8093 -0.9058 -3.5866
  305MOL0     H42029   3.159   6.445   0.328  0.0258  0.2791  2.6531
  305MOL0     H42030   3.295   6.326   0.340  0.1914 -0.2509 -3.0558
  305MOL0     H42031   3.085   6.316   0.122 -0.6304  2.1260  3.5195
  305MOL0     H42032   3.216   6.199   0.144 -3.6870 -1.4750 -0.3907
  305MOL0     H42033   3.268   6.494   0.103  0.5496  0.5257 -1.2826
  305MOL0     H42034   3.392   6.370   0.130 -0.2361  0.5532  1.9767
  305MOL0     H42035   3.171   6.393  -0.069 -1.0092 -0.3305  1.6127
  305MOL0     H42036   3.299   6.272  -0.096 -1.2404  0.4910 -2.4917
  305MOL0     H42037   3.356   6.566  -0.084  1.9379  1.1673 -1.8855
  305MOL0     H42038   3.475   6.438  -0.129 -0.4107 -0.3497  0.7853
  305MOL0     H42039   3.365   6.263  -0.340 -0.2523 -0.9292 -1.8890
  305MOL0     H42040   3.271   6.362  -0.672 -0.3376 -1.7979  0.1152
  305MOL0     H42041   3.385   6.250  -0.605 -0.5009  0.6660  2.4158
  305MOL0     H42042   3.489   6.524  -0.707  1.2159  0.4538 -4.4136
  305MOL0     H42043   3.577   6.388  -0.648  0.1301 -1.7923 -2.3386
  305MOL0     H42044   3.536   6.242  -0.817 -0.2191 -0.5454 -1.5945
  305MOL0     H42045   3.420   6.357  -0.891  1.0797 -1.3917 -1.2954
  305MOL0     H42046   3.637   6.366  -1.017 -0.1853  0.8352 -0.7601
  305MOL0     H42047   3.608   6.514  -0.921  0.9887 -0.4104  2.1047
  305MOL0     H42048   3.739   6.649  -0.839  0.1475 -2.1273 -0.6636
  305MOL0     H42049   3.831   6.903  -0.674 -1.1761 -0.7118 -0.7244
  305MOL0     H42050   3.859   6.850  -0.835  3.7213  0.9124 -2.0348
  305MOL0     H42051   3.992   6.892  -0.745 -0.1925  0.1511 -1.9909
  305MOL0     H42052   4.184   6.643  -0.165  2.0749 -0.6267  0.9047
  305MOL0     H42053   4.320   6.753  -0.018 -1.0096 -0.8080  0.2365
  305MOL0     H42054   4.624   7.102  -0.189  0.6246  1.4421  2.1651
  305MOL0     H42055   4.445   7.107  -0.201  0.0494  0.6880  1.4101
  305MOL0     H42056   4.455   7.258  -0.048 -0.5452 -2.0890 -2.8908
  305MOL0     H42057   4.477   7.135   0.061  0.8072 -0.5221 -1.1004
  305MOL0     H42058   4.727   7.249  -0.057  1.5928 -1.8861 -0.3237
  305MOL0     H42059   4.700   7.121   0.062  0.0277  0.3756 -0.2810
  305MOL0     H42060   4.664   7.260   0.235  1.6980 -0.3818  0.5712
  305MOL0     H42061   4.560   7.360   0.136  0.0174 -1.4809 -2.2841
  305MOL0     H42062   4.793   7.436   0.261 -0.0946 -0.5024  0.2283
  305MOL0     H42063   4.882   7.386   0.133  0.6656  1.0822  1.5517
  305MOL0     H42064   4.634   7.575   0.117 -1.4580 -2.6602 -1.8590
  305MOL0     H42065   4.727   7.527  -0.022  1.1217  1.0792 -0.3431
  305MOL0     H42066   4.930   7.654   0.058  1.2403 -1.8855  3.2588
  305MOL0     H42067   4.835   7.688   0.210 -0.5221 -1.9679  0.8845
  305MOL0     H42068   4.667   7.813   0.094  0.1425 -1.5986  2.2401
  305MOL0     H42069   4.723   7.757  -0.063  1.7292  2.4465 -1.4229
  305MOL0     H42070   4.538   6.905  -0.368  0.7729 -3.3053 -2.3763
  305MOL0     H42071   4.378   6.784  -0.511 -0.5645 -1.2516  0.4156
  305MOL0     H42072   4.049   6.451  -0.501  0.5716  1.5229  0.7577
  305MOL0     H42073   3.887   6.313  -0.637 -0.7566  0.0405 -0.7343
  305MOL0     H42074   2.666   6.042   0.595  0.3225  0.0298 -1.1437
  305MOL0     H42075   2.515   5.984   0.790 -1.6362  0.7211  1.6689
  305MOL0     H42076   2.422   6.340   1.220 -0.7369  0.9201  1.5307
  305MOL0     H42077   2.223   6.352   1.330 -1.3656 -0.4216  3.0089
  305MOL0     H42078   1.936   6.193   1.572  0.7756 -0.8994 -0.2464
  305MOL0     H42079   2.055   6.311   1.520 -0.1314  0.4333  0.0153
  305MOL0     H42080   1.961   6.281   1.282  2.9157 -0.3187  1.3898
  305MOL0     H42081   1.865   6.378   1.399 -0.9558 -2.2747  0.6690
  305MOL0     H42082   1.719   6.221   1.253  0.3247  0.4201  0.1780
  305MOL0     H42083   1.804   6.088   1.330  0.5311 -0.2649  2.1430
  305MOL0     H42084   1.711   6.175   1.558  1.8058  0.3408 -1.6321
  305MOL0     H42085   1.608   6.105   1.444  1.1221 -0.9115 -0.3787
  305MOL0     H42086   1.435   6.489   1.425 -1.6587 -1.0834  1.6255
  305MOL0     H42087   2.208   5.926   1.367  0.8347 -0.1474  0.2217
  305MOL0     H42088   2.432   5.843   1.164 -0.3251 -1.1125  0.9130
  305MOL0     H42089   2.553   5.894   1.276  0.3386 -0.6192 -2.7334
  305MOL0     H42090   2.410   5.799   1.336  1.5860 -0.7484  0.3855
  306MOL0     O42091   7.295   6.610   7.393  0.0610 -0.5670 -0.0960
  306MOL0     C42092   7.338   6.667   7.294  0.2027 -0.1841 -0.1168
  306MOL0     O42093   7.276   6.729   7.190  0.6084  0.9565  0.6681
  306MOL0     C42094   7.150   6.779   7.198  0.5222  1.3371  0.3121
  306MOL0     C42095   7.119   6.875   7.104 -0.7329 -0.1040  0.0159
  306MOL0     C42096   6.991   6.932   7.119 -0.1752  0.8440  0.3511
  306MOL0     C42097   6.894   6.889   7.203  0.4934 -0.7400  0.0124
  306MOL0     O42098   6.767   6.925   7.208  0.3800 -0.2042 -0.3142
  306MOL0     C42099   6.710   7.029   7.130  0.7984 -0.8804  0.3914
  306MOL0     C42100   6.572   7.068   7.195 -0.1118  1.7395 -0.0385
  306MOL0     C42101   6.561   7.070   7.354 -0.6080  0.4960  1.3311
  306MOL0     C42102   6.672   7.164   7.399 -0.7775 -0.2936 -0.8033
  306MOL0     C42103   6.684   7.154   7.557 -0.3815  0.5198  0.0151
  306MOL0     C42104   6.773   7.265   7.596  0.0350  0.5356  0.1403
  306MOL0     C42105   6.814   7.261   7.746  0.2275  0.0061 -0.1030
  306MOL0     C42106   6.691   7.311   7.833 -0.2473 -0.3758  0.2972
  306MOL0     N42107   6.738   7.308   7.975 -0.1150  0.4237  0.4009
  306MOL0     C42108   6.812   7.410   8.032 -1.9209 -0.2462 -0.1115
  306MOL0     C42109   6.849   7.373   8.156 -0.2741  0.7930  1.1819
  306MOL0     C42110   6.901   7.462   8.266 -0.2180  0.4405  0.7769
  306MOL0     C42111   6.802   7.493   8.372 -0.6885 -0.9525  0.4286
  306MOL0     C42112   6.854   7.602   8.465 -0.8236  0.6028  0.1101
  306MOL0     C42113   6.757   7.625   8.580  0.1281  1.2203  0.6679
  306MOL0     O42114   6.771   7.523   8.675  0.6097  0.7463 -0.2565
  306MOL0     C42115   6.887   7.497   8.738 -0.6051  0.1264  0.1013
  306MOL0     C42116   6.929   7.571   8.845 -0.5265  0.5717 -0.3139
  306MOL0     C42117   7.040   7.538   8.925 -0.8254 -0.2116  0.1113
  306MOL0     C42118   7.077   7.639   9.036  0.3892  0.7655  1.0618
  306MOL0     C42119   7.124   7.423   8.891 -0.7789 -0.2631 -0.2430
  306MOL0     C42120   7.268   7.409   8.947  0.1587  0.6982 -0.0426
  306MOL0     O42121   7.346   7.311   8.896  0.7262 -0.5426  1.1010
  306MOL0     C42122   7.477   7.307   8.925 -0.5589  0.1161  0.2274
  306MOL0     C42123   7.521   7.256   9.042  0.6132 -0.2897  0.3388
  306MOL0     C42124   7.656   7.250   9.083  0.1374 -0.3000  0.8392
  306MOL0     C42125   7.747   7.313   8.992  0.3848  0.1734 -0.5148
  306MOL0     O42126   7.884   7.313   8.997 -0.0366  0.3745  0.8636
  306MOL0     C42127   7.947   7.232   9.104  0.8482 -0.1824  0.1621
  306MOL0     C42128   8.080   7.181   9.060 -0.0286 -0.5259  0.3162
  306MOL0     C42129   8.192   7.210   9.157 -0.2690  0.2980  0.1685
  306MOL0     C42130   8.270   7.329   9.108 -1.5013  0.0806 -0.0998
  306MOL0     C42131   8.347   7.399   9.218 -0.4682 -0.0855  0.1127
  306MOL0     C42132   8.406   7.528   9.151 -0.0560  0.2686  0.5511
  306MOL0     C42133   8.504   7.593   9.252  0.5182  0.7337 -0.7304
  306MOL0     C42134   8.644   7.629   9.204  0.5189 -0.7338  0.1487
  306MOL0    Cl42135   8.727   7.504   9.127  0.1516  0.3460  0.2334
  306MOL0     C42136   7.704   7.365   8.870 -0.5449  0.3906  0.3961
  306MOL0     C42137   7.568   7.361   8.834 -0.2336 -0.3776  0.1659
  306MOL0     O42138   7.307   7.477   9.040  0.2151 -0.7573 -0.2825
  306MOL0     C42139   7.081   7.336   8.790 -0.2470 -0.8426  0.6477
  306MOL0     C42140   6.966   7.377   8.710 -0.1260  0.0334 -0.0451
  306MOL0     N42141   6.787   7.253   8.177 -0.9110  1.2812  0.3124
  306MOL0     N42142   6.727   7.212   8.074 -0.0168 -0.1434 -0.1633
  306MOL0     C42143   6.928   6.787   7.291  0.9819  1.1459 -0.2245
  306MOL0     C42144   7.059   6.733   7.289  0.0136  0.5250 -0.3648
  306MOL0     C42145   7.481   6.676   7.279 -0.2651 -0.2505 -0.9173
  306MOL0     C42146   7.534   6.777   7.362  0.0169  0.8405  0.2130
  306MOL0     C42147   7.673   6.778   7.372 -0.0374  0.7924  0.4108
  306MOL0     C42148   7.756   6.692   7.301 -0.1710 -0.0091 -0.1467
  306MOL0     O42149   7.889   6.695   7.322 -0.6092  0.6821 -0.4515
  306MOL0     C42150   7.974   6.632   7.216 -0.8914 -0.0021 -0.4215
  306MOL0     C42151   8.113   6.706   7.226 -0.5990 -0.0159  0.2772
  306MOL0     C42152   8.105   6.831   7.128 -0.4247  0.4509  0.1611
  306MOL0     C42153   8.226   6.923   7.135  0.2237 -0.3366  1.0821
  306MOL0     C42154   8.348   6.859   7.080 -1.4163  0.0549 -0.1699
  306MOL0     C42155   8.455   6.812   7.033  0.3220 -0.1819 -0.1115
  306MOL0     C42156   7.696   6.595   7.217 -0.4987  0.4490 -0.3032
  306MOL0     C42157   7.553   6.587   7.205  0.6048 -0.3957 -0.5772
  306MOL0     C42158   7.496   6.483   7.117  0.6158  0.6865 -0.9480
  306MOL0     H42159   7.187   6.901   7.023  1.0938 -0.0896  1.4720
  306MOL0     H42160   6.960   7.006   7.045 -0.6005 -1.3236 -1.7461
  306MOL0     H42161   6.693   7.003   7.025 -0.0017 -0.0519  0.3050
  306MOL0     H42162   6.773   7.118   7.138  1.3895 -1.0420 -1.7449
  306MOL0     H42163   6.526   7.156   7.149 -1.1263  1.5059  0.5105
  306MOL0     H42164   6.508   6.986   7.160  0.2736  0.6936  1.5794
  306MOL0     H42165   6.469   7.121   7.382 -0.6715  0.2589  1.5484
  306MOL0     H42166   6.579   6.974   7.403  1.3531  0.4740  0.6602
  306MOL0     H42167   6.773   7.139   7.364  0.2167  0.2480  1.4841
  306MOL0     H42168   6.647   7.266   7.368 -3.5218 -1.2104 -1.8521
  306MOL0     H42169   6.730   7.063   7.596 -1.7996  0.5879  2.0469
  306MOL0     H42170   6.583   7.169   7.598 -0.8662 -0.7125 -0.6780
  306MOL0     H42171   6.869   7.261   7.545 -0.6712  1.6693 -1.3515
  306MOL0     H42172   6.724   7.362   7.582 -0.2490  0.1835 -1.4828
  306MOL0     H42173   6.896   7.330   7.769  3.4863 -3.8627  1.0393
  306MOL0     H42174   6.843   7.162   7.781 -1.7678 -0.9965 -1.1227
  306MOL0     H42175   6.656   7.411   7.808 -1.8486 -0.6711  1.2369
  306MOL0     H42176   6.601   7.249   7.824  0.8849 -2.2644  1.2196
  306MOL0     H42177   6.834   7.512   8.001 -0.2406  0.5260  3.2215
  306MOL0     H42178   6.936   7.552   8.213  0.9357 -1.0955 -1.2512
  306MOL0     H42179   6.986   7.409   8.312  0.2877  2.6356  2.5558
  306MOL0     H42180   6.705   7.520   8.330 -1.5796 -1.5976  1.9816
  306MOL0     H42181   6.798   7.398   8.426  0.8079 -0.7893  0.8736
  306MOL0     H42182   6.955   7.567   8.492 -0.0438  0.2869 -2.8823
  306MOL0     H42183   6.870   7.700   8.420 -0.4862  1.5300  2.1326
  306MOL0     H42184   6.773   7.719   8.635  0.9944  2.1129 -1.0390
  306MOL0     H42185   6.654   7.622   8.544  0.2175 -2.1650  0.4002
  306MOL0     H42186   6.872   7.662   8.863 -1.2544  1.1443 -4.5277
  306MOL0     H42187   7.055   7.574   9.121  0.4536 -1.0050 -0.2337
  306MOL0     H42188   6.997   7.714   9.039 -1.3642 -0.7468 -2.3672
  306MOL0     H42189   7.173   7.690   9.023  0.5676  0.1965  0.0505
  306MOL0     H42190   7.452   7.205   9.108 -3.5390  0.3025 -3.1398
  306MOL0     H42191   7.680   7.210   9.181  0.1942 -0.5610  0.7193
  306MOL0     H42192   7.950   7.298   9.191 -0.7048 -1.8350  1.5238
  306MOL0     H42193   7.885   7.149   9.137  1.2223 -1.0199 -1.1540
  306MOL0     H42194   8.078   7.074   9.041  1.1172 -0.3479 -0.9720
  306MOL0     H42195   8.104   7.229   8.964 -2.4914 -0.4169 -0.3157
  306MOL0     H42196   8.257   7.122   9.151 -2.4710 -1.4306  0.1217
  306MOL0     H42197   8.148   7.224   9.256 -2.2502  1.6243 -0.8396
  306MOL0     H42198   8.204   7.397   9.054 -0.3931 -1.3758 -3.5708
  306MOL0     H42199   8.341   7.295   9.032 -0.6982 -2.1828  1.5554
  306MOL0     H42200   8.276   7.426   9.297  0.8430  0.6182  1.1107
  306MOL0     H42201   8.426   7.334   9.258  0.7683  0.0406 -1.9654
  306MOL0     H42202   8.328   7.598   9.121 -1.7021 -1.6615  0.0437
  306MOL0     H42203   8.459   7.496   9.061  0.5173  0.8905  0.6653
  306MOL0     H42204   8.521   7.519   9.331 -0.2123  1.1807 -0.1322
  306MOL0     H42205   8.450   7.679   9.294  0.1142 -0.0340  0.3781
  306MOL0     H42206   8.703   7.656   9.292 -1.8703 -0.0549  1.6479
  306MOL0     H42207   8.652   7.717   9.139  3.6649 -3.6343 -3.9098
  306MOL0     H42208   7.777   7.423   8.814  1.2077 -0.9990  1.1675
  306MOL0     H42209   7.541   7.412   8.742 -1.4206  0.0488  0.7310
  306MOL0     H42210   7.134   7.248   8.755  1.4201  1.2615 -2.5528
  306MOL0     H42211   6.934   7.321   8.623 -1.7147 -3.0192  2.2800
  306MOL0     H42212   6.862   6.748   7.368 -2.0484  2.7429 -1.8587
  306MOL0     H42213   7.082   6.652   7.358  1.6471 -0.2495 -1.7518
  306MOL0     H42214   7.474   6.846   7.421 -0.3450  0.6304  0.0914
  306MOL0     H42215   7.731   6.845   7.434 -0.9108  0.3726  1.7191
  306MOL0     H42216   7.989   6.526   7.239  0.0497  0.4673  1.2615
  306MOL0     H42217   7.942   6.633   7.111 -1.0064 -2.1091 -0.4493
  306MOL0     H42218   8.194   6.648   7.180 -1.1615 -0.7119  0.1534
  306MOL0     H42219   8.141   6.738   7.327  3.6352 -2.8691  0.2869
  306MOL0     H42220   8.084   6.798   7.026  1.4271  1.3818 -0.5531
  306MOL0     H42221   8.018   6.894   7.149 -1.4584 -1.2072  1.1532
  306MOL0     H42222   8.240   6.955   7.239  3.4843 -1.8906  1.2708
  306MOL0     H42223   8.209   7.008   7.069  1.0335  0.8883  2.3858
  306MOL0     H42224   8.540   6.763   6.991  0.7144  1.2042 -1.0172
  306MOL0     H42225   7.744   6.509   7.170 -1.5219  0.4930 -1.4990
  306MOL0     H42226   7.394   6.503   7.083 -0.8008 -0.2740  2.3414
  306MOL0     H42227   7.565   6.495   7.033  0.0473  2.5177 -1.2089
  306MOL0     H42228   7.504   6.387   7.168 -0.3874  2.4342  2.9098
  307MOL0     O42229   3.307   5.973   9.233  0.1093  0.1481  0.1421
  307MOL0     C42230   3.263   6.071   9.296 -0.2011 -0.2553  0.3528
  307MOL0     O42231   3.130   6.110   9.311  0.4066  0.1714 -0.4498
  307MOL0     C42232   3.049   6.062   9.205 -0.2875 -0.5997 -0.4755
  307MOL0     C42233   2.980   5.945   9.203  0.5239 -0.2295 -0.9070
  307MOL0     C42234   2.893   5.899   9.114  0.5225 -0.7824  0.1534
  307MOL0     C42235   2.879   5.977   9.002 -0.0644 -0.8586  0.7845
  307MOL0     O42236   2.802   5.942   8.895 -0.2466 -0.0593  0.5173
  307MOL0     C42237   2.669   5.955   8.914 -0.0079 -0.1213  0.4681
  307MOL0     C42238   2.616   6.062   8.832  1.0420 -0.1589 -0.0093
  307MOL0     C42239   2.679   6.086   8.698  0.4400 -0.9893  1.1538
  307MOL0     C42240   2.614   6.207   8.625 -0.6917  0.1377  0.4622
  307MOL0     C42241   2.694   6.272   8.514  0.0101 -0.6080  0.1142
  307MOL0     C42242   2.640   6.418   8.480  0.5863  0.1731 -1.1347
  307MOL0     C42243   2.708   6.492   8.368 -0.5798 -0.5043 -0.4220
  307MOL0     C42244   2.649   6.638   8.353 -0.0148 -0.4832  1.3763
  307MOL0     N42245   2.650   6.710   8.482 -1.0436  0.7493  0.0296
  307MOL0     C42246   2.540   6.725   8.558  0.5574  0.1949 -0.2922
  307MOL0     C42247   2.570   6.821   8.642 -0.4357  0.3593 -0.3919
  307MOL0     C42248   2.480   6.902   8.731  0.2185  0.0380 -0.2199
  307MOL0     C42249   2.409   6.804   8.821  0.7611  0.5069 -0.4671
  307MOL0     C42250   2.328   6.875   8.929  0.0315  0.0980  0.1325
  307MOL0     C42251   2.266   6.782   9.021 -0.4578 -0.0879 -0.6054
  307MOL0     O42252   2.369   6.731   9.111  0.5300  0.9813  0.8373
  307MOL0     C42253   2.331   6.619   9.186 -0.6095 -0.7781 -1.0105
  307MOL0     C42254   2.203   6.566   9.207 -1.0865  0.1488 -0.5050
  307MOL0     C42255   2.169   6.465   9.301  0.3241  0.6490 -1.1639
  307MOL0     C42256   2.019   6.441   9.320  0.7435 -0.4530 -0.5245
  307MOL0     C42257   2.284   6.397   9.363  1.3471 -0.6176 -0.4340
  307MOL0     C42258   2.260   6.286   9.455 -0.5936  0.2508  0.4258
  307MOL0     O42259   2.368   6.235   9.520  0.1558  1.6785 -0.1147
  307MOL0     C42260   2.354   6.168   9.639 -0.3235 -0.5104 -0.8530
  307MOL0     C42261   2.371   6.228   9.763 -0.0384  0.9918 -0.5137
  307MOL0     C42262   2.369   6.154   9.882 -0.5299  0.0464 -0.4462
  307MOL0     C42263   2.328   6.024   9.881  0.0440 -0.5802 -0.5935
  307MOL0     O42264   2.322   5.962  10.005 -0.1766 -0.6950 -0.1157
  307MOL0     C42265   2.259   5.833  10.013 -1.1272  0.0961 -0.6065
  307MOL0     C42266   2.280   5.792  10.164  0.2052  0.4746  0.4660
  307MOL0     C42267   2.210   5.876  10.269  0.0227 -0.8878  0.1140
  307MOL0     C42268   2.305   5.950  10.363 -0.3232  0.9393  0.4203
  307MOL0     C42269   2.242   6.047  10.463 -0.4744  0.7795  0.1904
  307MOL0     C42270   2.234   6.194  10.429 -0.6833  0.3913  0.1255
  307MOL0     C42271   2.366   6.263  10.472 -0.1455 -0.8690 -0.2362
  307MOL0     C42272   2.375   6.400  10.423 -0.6462  0.6430  0.0713
  307MOL0    Cl42273   2.414   6.402  10.252 -0.2841 -0.1410  0.4177
  307MOL0     C42274   2.318   5.959   9.759  0.4432  0.0180  0.3411
  307MOL0     C42275   2.325   6.029   9.634 -0.1026 -0.6416 -0.3401
  307MOL0     O42276   2.144   6.252   9.481  0.0283  0.2463  1.1407
  307MOL0     C42277   2.410   6.440   9.331 -0.4950 -0.3921  0.7998
  307MOL0     C42278   2.436   6.551   9.251  0.0333 -0.0044  0.5968
  307MOL0     N42279   2.708   6.837   8.641  0.3767  0.2589  0.1428
  307MOL0     N42280   2.757   6.772   8.542 -0.1795  0.2219  0.1629
  307MOL0     C42281   2.942   6.109   8.994  0.3053  0.8563  0.2251
  307MOL0     C42282   3.019   6.156   9.102  0.0276  0.0894 -0.3051
  307MOL0     C42283   3.372   6.148   9.355  0.5691 -1.4672 -0.8739
  307MOL0     C42284   3.448   6.080   9.450  0.1709  0.1422  0.7424
  307MOL0     C42285   3.549   6.155   9.507  0.2599  0.4436  0.1263
  307MOL0     C42286   3.571   6.291   9.495  0.0942 -1.3619  0.0708
  307MOL0     O42287   3.659   6.346   9.579 -0.0764 -0.5285 -0.3485
  307MOL0     C42288   3.695   6.489   9.561 -0.2077  0.0834  0.8636
  307MOL0     C42289   3.811   6.529   9.652  0.5573 -0.3373 -0.0280
  307MOL0     C42290   3.947   6.483   9.613  0.8408  1.1539  0.4098
  307MOL0     C42291   3.962   6.329   9.634  0.2511 -0.2423 -0.5363
  307MOL0     C42292   3.956   6.288   9.772 -0.8697 -0.7452 -0.3177
  307MOL0     C42293   3.940   6.252   9.886 -0.6140 -0.2819  0.0118
  307MOL0     C42294   3.490   6.359   9.402  0.7278 -0.3279  0.2285
  307MOL0     C42295   3.392   6.291   9.338 -0.3192 -0.0721  0.4061
  307MOL0     C42296   3.308   6.372   9.240  0.4246 -0.2423  0.3301
  307MOL0     H42297   3.013   5.880   9.284  3.1610 -0.1188 -1.7684
  307MOL0     H42298   2.861   5.796   9.130 -1.3522 -0.3825 -0.7611
  307MOL0     H42299   2.642   5.968   9.019 -1.5424  0.2438  0.0561
  307MOL0     H42300   2.632   5.859   8.876  0.2524  0.3682 -1.0948
  307MOL0     H42301   2.514   6.036   8.802  1.2683  1.1338 -2.0988
  307MOL0     H42302   2.607   6.155   8.890 -3.1940 -0.6123  0.3933
  307MOL0     H42303   2.782   6.114   8.721 -0.5892  0.9379  3.7563
  307MOL0     H42304   2.675   5.998   8.632 -4.6347  0.2519 -0.6841
  307MOL0     H42305   2.517   6.176   8.586 -0.7251  1.2087 -0.3675
  307MOL0     H42306   2.599   6.282   8.704  0.6945  1.6074 -0.5946
  307MOL0     H42307   2.697   6.219   8.418  1.3218  0.6475 -0.5674
  307MOL0     H42308   2.794   6.280   8.557  1.0315 -3.1219 -1.5531
  307MOL0     H42309   2.537   6.402   8.448  1.0434  0.9587 -3.1009
  307MOL0     H42310   2.634   6.466   8.578 -3.7313 -0.1736 -1.0069
  307MOL0     H42311   2.709   6.436   8.275 -0.8248  1.4574 -1.6637
  307MOL0     H42312   2.810   6.494   8.407 -1.5901 -0.6546  2.5010
  307MOL0     H42313   2.714   6.688   8.280 -1.0792 -0.4723  0.3973
  307MOL0     H42314   2.554   6.626   8.300  1.1838 -0.8998 -0.7931
  307MOL0     H42315   2.442   6.682   8.539  0.7719  0.7556 -3.0877
  307MOL0     H42316   2.412   6.961   8.668  1.6695  1.7938 -0.2127
  307MOL0     H42317   2.539   6.976   8.786 -1.4529  0.9544  0.4054
  307MOL0     H42318   2.341   6.739   8.765  0.9328  1.5460 -1.9533
  307MOL0     H42319   2.486   6.741   8.868  0.9941  0.7441 -0.5261
  307MOL0     H42320   2.389   6.950   8.980 -0.4399  0.1947  0.5607
  307MOL0     H42321   2.248   6.929   8.878  0.4637  0.9959  0.3763
  307MOL0     H42322   2.189   6.834   9.080 -0.7032 -2.5326  1.3733
  307MOL0     H42323   2.229   6.690   8.975  3.3521 -1.9384 -0.3347
  307MOL0     H42324   2.125   6.624   9.160 -1.4056 -1.1745 -1.6984
  307MOL0     H42325   1.988   6.454   9.424 -0.3502 -2.4642 -0.5425
  307MOL0     H42326   1.996   6.337   9.294 -0.8483 -0.7397  1.8124
  307MOL0     H42327   1.959   6.510   9.260  1.0644 -0.7609 -1.2213
  307MOL0     H42328   2.394   6.334   9.770 -1.4840  1.2922 -0.0119
  307MOL0     H42329   2.397   6.193   9.979 -1.3379 -1.6649  0.5092
  307MOL0     H42330   2.155   5.845   9.981 -0.5149  1.9395 -2.1404
  307MOL0     H42331   2.306   5.756   9.951 -0.5475 -0.7579  0.8513
  307MOL0     H42332   2.251   5.686  10.170  1.3127  0.1268 -0.1068
  307MOL0     H42333   2.386   5.784  10.188  0.1345 -1.1829  0.3492
  307MOL0     H42334   2.144   5.803  10.317 -0.0499 -0.6574  0.3651
  307MOL0     H42335   2.163   5.958  10.214  1.5697 -0.6274 -0.8972
  307MOL0     H42336   2.384   5.997  10.304 -0.6049 -0.3384 -1.0329
  307MOL0     H42337   2.355   5.868  10.416  1.2429  1.2296 -0.5223
  307MOL0     H42338   2.142   6.008  10.481 -0.0394  0.3670  1.8263
  307MOL0     H42339   2.284   6.030  10.563 -1.8503 -1.9738  0.3793
  307MOL0     H42340   2.144   6.245  10.466  0.2878  1.8075  0.6516
  307MOL0     H42341   2.241   6.199  10.320  2.0599  3.1851  0.3006
  307MOL0     H42342   2.450   6.206  10.432  1.5340  0.1273  1.6713
  307MOL0     H42343   2.388   6.267  10.579  3.3801  1.2123 -0.9110
  307MOL0     H42344   2.449   6.467  10.468 -1.2648 -0.0900  2.3593
  307MOL0     H42345   2.284   6.460  10.437  1.0758  3.0732  1.6503
  307MOL0     H42346   2.304   5.853   9.739 -0.0720  0.5821 -2.9719
  307MOL0     H42347   2.321   5.977   9.539  0.5810 -1.4379  0.0619
  307MOL0     H42348   2.494   6.404   9.390  1.1198  1.1992 -0.4473
  307MOL0     H42349   2.533   6.600   9.252 -0.0189  0.0956  0.9203
  307MOL0     H42350   2.921   6.166   8.904 -1.1627 -0.1966 -0.1308
  307MOL0     H42351   3.053   6.257   9.083  2.4373 -1.0414 -2.5460
  307MOL0     H42352   3.414   5.988   9.497  2.3771 -0.3660  1.4362
  307MOL0     H42353   3.611   6.103   9.580 -1.4619 -0.7706  0.8113
  307MOL0     H42354   3.737   6.495   9.460  0.5793 -1.7382  1.0445
  307MOL0     H42355   3.607   6.551   9.576  1.2418  1.5140  4.3239
  307MOL0     H42356   3.782   6.491   9.750  0.9932  0.5574  0.4544
  307MOL0     H42357   3.808   6.638   9.661  2.5699 -0.3073  0.8069
  307MOL0     H42358   3.971   6.498   9.507 -0.1876 -0.3396 -0.0665
  307MOL0     H42359   4.019   6.543   9.670  0.6005  1.2194  0.6439
  307MOL0     H42360   4.062   6.295   9.608  1.9044  1.1211  3.3027
  307MOL0     H42361   3.895   6.277   9.565 -1.0848  1.0129 -0.2403
  307MOL0     H42362   3.933   6.227   9.990 -2.4489  1.2105  0.3016
  307MOL0     H42363   3.502   6.463   9.374 -0.2968 -0.9553 -2.8863
  307MOL0     H42364   3.344   6.356   9.138  0.9081  0.0367  0.4560
  307MOL0     H42365   3.200   6.356   9.250  0.0516  0.8465 -1.4050
  307MOL0     H42366   3.312   6.481   9.253 -0.2733 -0.1164 -0.3892
  308MOL0     O42367   6.328   0.336   4.907 -0.6304  0.4012  0.7744
  308MOL0     C42368   6.217   0.296   4.936 -0.1291  0.2573  0.1698
  308MOL0     O42369   6.121   0.378   4.987  0.3702 -0.3696  0.4424
  308MOL0     C42370   6.141   0.513   4.980 -0.2356  0.4059  0.2592
  308MOL0     C42371   6.039   0.583   4.925  0.5188  0.3937 -0.2819
  308MOL0     C42372   6.045   0.719   4.917  0.0387 -0.1601 -0.1657
  308MOL0     C42373   6.167   0.788   4.958  0.2973 -0.7646 -0.0512
  308MOL0     O42374   6.185   0.927   4.928  0.2236 -0.6973 -0.0823
  308MOL0     C42375   6.296   1.019   4.954  0.3845  0.6028  0.2525
  308MOL0     C42376   6.302   1.145   4.872  0.1726 -0.1230  0.9141
  308MOL0     C42377   6.387   1.253   4.942  0.0522 -0.2219  0.3034
  308MOL0     C42378   6.402   1.381   4.852  0.2763 -0.9774 -0.6935
  308MOL0     C42379   6.507   1.478   4.918  0.6499  0.0785  0.1522
  308MOL0     C42380   6.459   1.537   5.052  0.1298  0.1060 -0.4004
  308MOL0     C42381   6.556   1.617   5.129 -1.3018  0.1177 -0.3835
  308MOL0     C42382   6.613   1.730   5.045 -0.6315  0.0885 -0.1982
  308MOL0     N42383   6.727   1.714   4.956 -0.1900 -0.3404  0.1020
  308MOL0     C42384   6.815   1.610   4.956  0.2223 -0.0496 -0.3261
  308MOL0     C42385   6.906   1.648   4.860 -0.8752 -0.0146 -0.6492
  308MOL0     C42386   7.014   1.550   4.810  0.3110  0.2737 -1.1273
  308MOL0     C42387   7.159   1.620   4.833 -0.2854 -0.2287  0.4175
  308MOL0     C42388   7.260   1.529   4.898  0.5017 -0.1907 -0.8413
  308MOL0     C42389   7.239   1.529   5.051 -0.1141  0.0779 -0.6727
  308MOL0     O42390   7.122   1.461   5.079  0.5351  0.2099  0.0004
  308MOL0     C42391   7.081   1.450   5.212 -0.3452  0.1314  0.3009
  308MOL0     C42392   6.956   1.390   5.235  0.7051  0.1440 -0.7211
  308MOL0     C42393   6.890   1.393   5.362  0.0208 -0.9089  0.3142
  308MOL0     C42394   6.761   1.321   5.375  0.9465  0.4629 -0.5904
  308MOL0     C42395   6.962   1.447   5.473 -0.0669  0.2723 -0.3627
  308MOL0     C42396   6.926   1.455   5.619  1.1276  0.7565  0.1851
  308MOL0     O42397   7.012   1.516   5.703 -0.5722 -0.8917 -0.4038
  308MOL0     C42398   7.001   1.481   5.833 -0.4514 -0.9185  1.1022
  308MOL0     C42399   7.115   1.421   5.882  0.5801 -0.2171 -0.4239
  308MOL0     C42400   7.118   1.395   6.020  0.6379 -0.2093 -0.4045
  308MOL0     C42401   7.017   1.434   6.111  0.7387 -0.7959 -0.2288
  308MOL0     O42402   7.038   1.421   6.248  0.6771 -0.2263 -0.3441
  308MOL0     C42403   6.917   1.413   6.332 -1.9681  0.5993 -0.8261
  308MOL0     C42404   6.947   1.354   6.467 -0.6887 -0.5808 -0.1368
  308MOL0     C42405   7.074   1.418   6.524 -1.2508 -0.1521 -0.0280
  308MOL0     C42406   7.120   1.365   6.666  0.1188  0.5791 -0.1747
  308MOL0     C42407   7.251   1.418   6.698 -0.1140 -0.7058 -0.4171
  308MOL0     C42408   7.271   1.570   6.734  0.6652  0.3171  0.4189
  308MOL0     C42409   7.382   1.605   6.838 -0.4800  0.1853 -0.4691
  308MOL0     C42410   7.504   1.649   6.763  0.3377 -0.1793  0.2646
  308MOL0    Cl42411   7.642   1.638   6.861  0.1728 -0.0280 -0.0045
  308MOL0     C42412   6.903   1.497   6.052 -0.5878 -0.5725 -1.0223
  308MOL0     C42413   6.902   1.512   5.918  1.1776 -0.1211 -0.3523
  308MOL0     O42414   6.833   1.388   5.659 -0.3553 -0.1264 -1.1514
  308MOL0     C42415   7.088   1.512   5.456  0.4945  0.3981  0.7647
  308MOL0     C42416   7.151   1.500   5.325 -0.8684 -0.8546  0.2859
  308MOL0     N42417   6.868   1.761   4.799 -0.2500 -0.3390  0.2451
  308MOL0     N42418   6.761   1.799   4.853  0.0444  0.0168 -0.0738
  308MOL0     C42419   6.260   0.715   5.021 -0.4279 -0.1256  0.7743
  308MOL0     C42420   6.252   0.574   5.036 -0.6193 -0.0941  0.0306
  308MOL0     C42421   6.165   0.158   4.924  1.1412 -0.0958 -0.7581
  308MOL0     C42422   6.074   0.103   5.014 -0.2624 -0.8076 -0.7500
  308MOL0     C42423   6.046  -0.039   5.017 -0.3085 -0.3500 -0.3266
  308MOL0     C42424   6.078  -0.117   4.910  0.6408 -0.4372 -0.0803
  308MOL0     O42425   6.024  -0.247   4.931 -0.1963 -0.4673  0.4106
  308MOL0     C42426   6.088  -0.359   4.868 -0.1408  0.2976 -0.1653
  308MOL0     C42427   5.990  -0.470   4.871  0.0392 -0.2904  0.2552
  308MOL0     C42428   5.867  -0.447   4.794 -0.2711  0.2047  1.9170
  308MOL0     C42429   5.864  -0.518   4.654 -0.4333  0.0499 -0.3673
  308MOL0     C42430   5.728  -0.532   4.615 -0.6646  0.7316 -0.4142
  308MOL0     C42431   5.611  -0.555   4.586 -0.4511 -0.3555  0.5286
  308MOL0     C42432   6.159  -0.068   4.813  0.2260 -0.6644 -0.1543
  308MOL0     C42433   6.214   0.061   4.825 -0.4820 -1.0808  0.0116
  308MOL0     C42434   6.317   0.095   4.715 -0.1143  0.6036 -1.0096
  308MOL0     H42435   5.957   0.524   4.885  2.2801 -3.2297  0.9418
  308MOL0     H42436   5.962   0.779   4.883 -1.2450 -0.9809  1.3741
  308MOL0     H42437   6.390   0.966   4.938 -0.6443 -1.2452  0.1180
  308MOL0     H42438   6.298   1.037   5.062 -2.0728  1.9113  0.1538
  308MOL0     H42439   6.350   1.135   4.775 -2.5276  2.9743 -0.9520
  308MOL0     H42440   6.197   1.172   4.857 -0.2758 -2.7487 -1.4251
  308MOL0     H42441   6.341   1.262   5.041 -1.6634 -1.9291 -0.2998
  308MOL0     H42442   6.491   1.221   4.954  0.7775  1.4236 -1.1813
  308MOL0     H42443   6.424   1.361   4.747 -0.3030  2.6119 -1.6277
  308MOL0     H42444   6.313   1.446   4.859  0.7202 -0.3334 -0.9834
  308MOL0     H42445   6.524   1.555   4.842  1.8813  0.4865  0.8106
  308MOL0     H42446   6.599   1.423   4.943  0.5791 -0.8044 -1.3593
  308MOL0     H42447   6.383   1.611   5.025 -0.4694 -1.0849 -2.1621
  308MOL0     H42448   6.420   1.454   5.112  0.3525 -0.5623 -1.1585
  308MOL0     H42449   6.628   1.549   5.177 -1.0977 -0.0952 -0.9864
  308MOL0     H42450   6.498   1.663   5.210 -2.2583  0.9250 -1.4946
  308MOL0     H42451   6.533   1.772   4.983 -0.8759  0.3789  0.3168
  308MOL0     H42452   6.637   1.808   5.117 -0.3792 -1.2677  1.2545
  308MOL0     H42453   6.802   1.519   5.015  1.2487 -0.0239 -0.0508
  308MOL0     H42454   6.996   1.530   4.704  3.1379 -2.5780 -1.2285
  308MOL0     H42455   7.012   1.463   4.876 -0.6467  1.9945  1.2958
  308MOL0     H42456   7.196   1.658   4.737  0.7270  0.3251  1.0172
  308MOL0     H42457   7.145   1.705   4.900  0.9652  0.1224  0.2600
  308MOL0     H42458   7.253   1.426   4.862 -4.9276 -1.1341  1.8816
  308MOL0     H42459   7.358   1.571   4.874 -0.8872  3.3468 -0.8906
  308MOL0     H42460   7.311   1.460   5.096 -2.3837 -2.7831 -1.1278
  308MOL0     H42461   7.234   1.632   5.086 -0.6651 -0.0223 -0.4460
  308MOL0     H42462   6.917   1.356   5.140 -0.6912  0.8623 -0.4355
  308MOL0     H42463   6.760   1.263   5.468 -2.1611  3.6010  1.5758
  308MOL0     H42464   6.741   1.253   5.292 -0.7672  2.1539 -1.6306
  308MOL0     H42465   6.679   1.393   5.384  3.1430  2.9969  0.4835
  308MOL0     H42466   7.206   1.399   5.826  1.8622  1.3032  0.9891
  308MOL0     H42467   7.203   1.339   6.057  0.2660 -0.6965 -0.2859
  308MOL0     H42468   6.875   1.514   6.342 -0.8785  0.8035  3.2844
  308MOL0     H42469   6.845   1.343   6.290 -2.8057  1.9362 -1.7155
  308MOL0     H42470   6.858   1.381   6.524 -1.6765 -2.6938 -0.5609
  308MOL0     H42471   6.945   1.246   6.447 -0.2592 -0.3440 -1.5772
  308MOL0     H42472   7.052   1.525   6.532 -0.6968 -0.0784  0.4932
  308MOL0     H42473   7.159   1.399   6.458 -0.2894 -0.8407  1.3833
  308MOL0     H42474   7.112   1.256   6.663 -0.2314  0.4158  3.1024
  308MOL0     H42475   7.052   1.405   6.741 -2.0195 -1.8071 -0.7214
  308MOL0     H42476   7.274   1.363   6.789  1.0934  1.5725  0.7376
  308MOL0     H42477   7.324   1.387   6.622  2.7877  1.9360  1.0351
  308MOL0     H42478   7.177   1.600   6.781  1.2692 -0.6461  2.3806
  308MOL0     H42479   7.288   1.633   6.647  2.6747 -0.7961 -0.0515
  308MOL0     H42480   7.391   1.516   6.902  0.0827  0.0146 -0.7827
  308MOL0     H42481   7.348   1.686   6.903 -2.6129 -1.0166  0.0220
  308MOL0     H42482   7.496   1.751   6.725 -2.6269 -0.4608 -0.1151
  308MOL0     H42483   7.524   1.593   6.672 -0.5803  0.9794 -0.6834
  308MOL0     H42484   6.832   1.561   6.103  0.6929 -0.6057  0.9277
  308MOL0     H42485   6.813   1.560   5.879  0.4519 -0.2658  1.0513
  308MOL0     H42486   7.148   1.563   5.531  0.5920 -1.1015  1.7385
  308MOL0     H42487   7.249   1.545   5.307 -1.9859  3.4006  3.1952
  308MOL0     H42488   6.342   0.776   5.059 -1.4228  2.5724 -1.1403
  308MOL0     H42489   6.321   0.512   5.092 -1.9572 -0.5822  1.1986
  308MOL0     H42490   6.031   0.177   5.081 -2.1442 -1.1484 -1.5287
  308MOL0     H42491   5.964  -0.073   5.081 -0.4426  2.0076  0.8596
  308MOL0     H42492   6.124  -0.342   4.766  2.1885 -1.9481  0.1640
  308MOL0     H42493   6.181  -0.379   4.923  0.7116  1.2140 -1.2279
  308MOL0     H42494   5.972  -0.486   4.978 -0.1017  1.1900  0.4828
  308MOL0     H42495   6.034  -0.560   4.829  1.1719  1.1879 -1.9393
  308MOL0     H42496   5.790  -0.480   4.864 -0.7294 -0.8758  0.9420
  308MOL0     H42497   5.846  -0.340   4.782 -0.9880 -0.2610 -2.5410
  308MOL0     H42498   5.906  -0.619   4.647  1.5452  0.7906  0.3698
  308MOL0     H42499   5.907  -0.453   4.578  0.8854 -0.7336 -0.3131
  308MOL0     H42500   5.514  -0.577   4.547 -0.0222  0.5832 -1.1426
  308MOL0     H42501   6.190  -0.143   4.740 -0.3359  0.2326 -1.3353
  308MOL0     H42502   6.339   0.009   4.652  1.6313 -0.8266  1.4111
  308MOL0     H42503   6.281   0.177   4.651 -0.0717  3.3402  2.2337
  308MOL0     H42504   6.414   0.138   4.740 -0.8987  0.5049  2.8240
  309MOL0     O42505   9.675   1.812   4.669  0.9791  0.0324  1.1853
  309MOL0     C42506   9.754   1.734   4.714 -0.4494 -0.3417 -0.0238
  309MOL0     O42507   9.836   1.757   4.819 -0.1764 -0.5749  0.0264
  309MOL0     C42508   9.869   1.882   4.865 -0.1027 -0.2687  0.5104
  309MOL0     C42509   9.901   1.887   5.006 -0.0726 -0.3491 -0.4082
  309MOL0     C42510   9.933   2.011   5.058  0.1522  1.0990  0.4966
  309MOL0     C42511   9.960   2.120   4.975  0.5852  0.0938  0.5866
  309MOL0     O42512   9.979   2.250   5.019 -0.2087  0.9712  0.0383
  309MOL0     C42513   9.947   2.278   5.153 -0.3554  0.5327 -0.0123
  309MOL0     C42514   9.993   2.416   5.183 -0.0185 -0.3842 -0.1772
  309MOL0     C42515   9.937   2.484   5.303 -0.1761 -0.4401 -0.3489
  309MOL0     C42516  10.006   2.632   5.319 -0.8774 -0.4018 -0.2628
  309MOL0     C42517   9.936   2.735   5.409  0.3798 -0.8612  0.6430
  309MOL0     C42518   9.947   2.702   5.557 -0.3174 -0.4561 -0.7847
  309MOL0     C42519   9.902   2.831   5.632  0.2953  0.1365 -0.7034
  309MOL0     C42520   9.892   2.801   5.782 -0.8615  0.2353 -0.5531
  309MOL0     N42521   9.898   2.927   5.862  1.0516 -1.1572  0.4717
  309MOL0     C42522   9.795   3.023   5.872 -0.4361 -0.5111  0.3651
  309MOL0     C42523   9.848   3.124   5.947  0.4444 -0.1402  0.2465
  309MOL0     C42524   9.785   3.266   5.957 -1.1982  0.4633 -0.0710
  309MOL0     C42525   9.891   3.382   5.954 -0.0102 -0.1955 -0.1428
  309MOL0     C42526   9.906   3.439   5.810  0.8503 -0.6319 -0.1805
  309MOL0     C42527   9.992   3.348   5.717 -0.2705 -0.6209  0.3156
  309MOL0     O42528  10.132   3.378   5.728 -0.2510 -0.0703 -0.0759
  309MOL0     C42529  10.221   3.308   5.644 -0.0055 -0.4862  0.8714
  309MOL0     C42530  10.182   3.211   5.553 -0.5029 -0.3744  0.2868
  309MOL0     C42531  10.266   3.128   5.481 -0.2902  0.0053 -1.2068
  309MOL0     C42532  10.217   3.013   5.403 -0.8343  0.5289  0.1781
  309MOL0     C42533  10.411   3.153   5.493  0.9292  0.0409 -0.3446
  309MOL0     C42534  10.512   3.077   5.421 -0.5850 -0.2537  0.4461
  309MOL0     O42535  10.643   3.069   5.468 -0.1762  0.3269 -0.0043
  309MOL0     C42536  10.733   2.988   5.405  0.1111 -0.8509  0.7469
  309MOL0     C42537  10.804   2.890   5.477 -0.3330  0.5193  0.5859
  309MOL0     C42538  10.897   2.809   5.415 -0.7664  0.0241 -0.4998
  309MOL0     C42539  10.917   2.801   5.278  0.1220 -0.5581 -0.2559
  309MOL0     O42540  10.996   2.719   5.210  0.3242  0.6690 -0.2893
  309MOL0     C42541  11.107   2.651   5.270 -0.8989  0.7061 -0.2485
  309MOL0     C42542  11.175   2.562   5.165  0.0225 -0.3298 -1.0072
  309MOL0     C42543  11.234   2.641   5.048  0.1195  0.2135  0.7826
  309MOL0     C42544  11.371   2.713   5.090  0.5089  0.1417 -0.1370
  309MOL0     C42545  11.427   2.802   4.982 -0.4928 -0.0041  0.7997
  309MOL0     C42546  11.497   2.716   4.867  0.3439 -0.7913  0.4617
  309MOL0     C42547  11.550   2.800   4.750  0.0596 -1.0375 -0.1664
  309MOL0     C42548  11.609   2.715   4.646 -0.5536 -0.3802  0.5950
  309MOL0    Cl42549  11.632   2.835   4.522 -0.2054 -0.4642  0.0167
  309MOL0     C42550  10.845   2.901   5.207  0.4155  0.0224 -0.2933
  309MOL0     C42551  10.766   3.005   5.268  0.4932  0.1985  0.6291
  309MOL0     O42552  10.476   3.027   5.308 -0.0284 -0.2767  0.2858
  309MOL0     C42553  10.454   3.260   5.580 -0.2208 -0.6789  0.6215
  309MOL0     C42554  10.358   3.327   5.657 -0.2153 -0.4740  0.0909
  309MOL0     N42555   9.976   3.084   5.980 -0.4706  0.1706  0.0236
  309MOL0     N42556  10.003   2.968   5.931  0.2114  1.1182 -0.7102
  309MOL0     C42557   9.933   2.108   4.838  0.0077 -0.4696 -0.0603
  309MOL0     C42558   9.885   1.993   4.786  0.7711 -0.5762  0.9103
  309MOL0     C42559   9.777   1.591   4.669 -0.0327  0.3704 -0.7335
  309MOL0     C42560   9.906   1.558   4.642  0.3946  0.1633  0.8834
  309MOL0     C42561   9.946   1.417   4.637  0.5123 -0.6579  0.6292
  309MOL0     C42562   9.852   1.314   4.657  0.1324 -0.2292  0.0011
  309MOL0     O42563   9.881   1.184   4.677  0.6290 -0.2172  0.2432
  309MOL0     C42564  10.003   1.128   4.628  0.2796  0.1366  0.7514
  309MOL0     C42565  10.005   1.105   4.477  0.6232 -0.1484  0.3277
  309MOL0     C42566  10.143   1.060   4.410  0.7477  0.4199 -0.5126
  309MOL0     C42567  10.255   1.080   4.514  0.4886 -0.2167  0.6404
  309MOL0     C42568  10.378   1.065   4.440  0.3048  0.5489  0.6974
  309MOL0     C42569  10.479   1.057   4.372  1.0983 -0.3515 -0.7444
  309MOL0     C42570   9.719   1.357   4.669  0.8948 -0.6215 -0.7914
  309MOL0     C42571   9.680   1.491   4.683  0.6894  0.5828  0.3869
  309MOL0     C42572   9.536   1.504   4.721  0.1452 -0.3266 -0.3212
  309MOL0     H42573   9.898   1.811   5.084  0.8943  2.9542  3.1910
  309MOL0     H42574   9.944   2.017   5.166  0.5876  1.7870  0.4189
  309MOL0     H42575  10.000   2.205   5.216 -0.0876  0.1638 -0.6588
  309MOL0     H42576   9.840   2.262   5.165 -0.0223 -1.1427  1.0754
  309MOL0     H42577  10.103   2.413   5.179  0.0455  1.5299 -1.5841
  309MOL0     H42578   9.950   2.473   5.100 -0.8493 -0.4527  0.2000
  309MOL0     H42579   9.830   2.502   5.300 -0.3029 -1.2092 -0.5396
  309MOL0     H42580   9.966   2.425   5.390  2.5303  0.6245 -0.4081
  309MOL0     H42581  10.100   2.617   5.373 -1.1184  1.1050  0.6169
  309MOL0     H42582  10.033   2.673   5.221  3.7366 -2.5278 -0.1428
  309MOL0     H42583   9.835   2.762   5.377  0.0318  0.1544  2.4142
  309MOL0     H42584   9.983   2.829   5.379 -0.2160 -1.1576 -1.3306
  309MOL0     H42585   9.879   2.621   5.587 -0.5247 -0.0492 -0.1442
  309MOL0     H42586  10.046   2.663   5.583 -0.1693  0.7352  0.5986
  309MOL0     H42587   9.810   2.862   5.582  0.3255 -1.3008 -1.6774
  309MOL0     H42588   9.979   2.908   5.623  0.6199  0.4392  2.9825
  309MOL0     H42589   9.807   2.735   5.799  0.6299 -1.5163  0.4612
  309MOL0     H42590   9.973   2.737   5.819  1.1151  1.5940 -2.2817
  309MOL0     H42591   9.699   3.011   5.823 -0.5151  0.6984  0.1947
  309MOL0     H42592   9.744   3.284   6.058  2.6555 -1.6627  2.0847
  309MOL0     H42593   9.703   3.282   5.887 -1.0556  0.8371 -0.1533
  309MOL0     H42594   9.854   3.464   6.016  0.2033 -0.1308 -0.1016
  309MOL0     H42595   9.989   3.346   5.986 -0.9620 -1.2231  1.7412
  309MOL0     H42596   9.815   3.470   5.758  1.2421  0.4412 -0.2514
  309MOL0     H42597   9.970   3.528   5.816  0.2591 -0.1529 -0.8562
  309MOL0     H42598   9.974   3.243   5.742 -1.3845 -0.1688  1.4919
  309MOL0     H42599   9.952   3.359   5.616 -0.2098 -2.1166  0.1017
  309MOL0     H42600  10.077   3.183   5.550 -2.1599  4.5598  2.4906
  309MOL0     H42601  10.115   2.988   5.433 -0.8569 -1.5645 -1.4029
  309MOL0     H42602  10.284   2.928   5.419  0.9489  1.7263 -0.5805
  309MOL0     H42603  10.222   3.045   5.298 -5.5942 -2.3825 -1.2402
  309MOL0     H42604  10.796   2.867   5.583 -0.0253 -1.3424  0.2502
  309MOL0     H42605  10.944   2.735   5.479 -1.1094  0.9945  0.9082
  309MOL0     H42606  11.184   2.723   5.297 -0.6068  0.7476 -1.1535
  309MOL0     H42607  11.072   2.588   5.352  0.3159  0.4221  0.0648
  309MOL0     H42608  11.268   2.523   5.209  1.9880  0.2975 -4.2855
  309MOL0     H42609  11.111   2.488   5.116 -0.2423  1.4524 -3.5248
  309MOL0     H42610  11.158   2.715   5.022  0.4727  1.8406  3.8863
  309MOL0     H42611  11.249   2.568   4.968 -1.0227 -0.6709  1.3406
  309MOL0     H42612  11.445   2.638   5.122  2.0118  1.8202  0.5189
  309MOL0     H42613  11.352   2.783   5.171  0.4998  2.5178 -2.0708
  309MOL0     H42614  11.359   2.875   4.937 -0.3958  1.2750  2.6021
  309MOL0     H42615  11.496   2.867   5.036  1.1281 -0.8997 -0.1143
  309MOL0     H42616  11.420   2.652   4.822 -3.8896  2.6520  2.0678
  309MOL0     H42617  11.571   2.664   4.929  1.6943  2.5573  1.8780
  309MOL0     H42618  11.618   2.871   4.797 -1.3394  0.3883 -0.2304
  309MOL0     H42619  11.458   2.841   4.706 -0.6220 -1.9534  0.3652
  309MOL0     H42620  11.556   2.627   4.609  0.1945 -0.8361  0.5861
  309MOL0     H42621  11.699   2.669   4.687 -0.2813 -1.0138 -0.6781
  309MOL0     H42622  10.844   2.896   5.099 -3.9377 -2.4056 -0.3710
  309MOL0     H42623  10.721   3.093   5.223  0.8514  0.3385  0.5377
  309MOL0     H42624  10.558   3.290   5.587 -1.2345  3.2863  0.8557
  309MOL0     H42625  10.405   3.400   5.722 -0.6707 -0.8779  0.8858
  309MOL0     H42626   9.947   2.196   4.776 -2.3819  1.1531  1.5317
  309MOL0     H42627   9.858   1.991   4.681 -1.0440 -0.8623  1.3461
  309MOL0     H42628   9.980   1.637   4.632 -0.0962  0.3318 -2.2480
  309MOL0     H42629  10.049   1.383   4.624  0.6698  0.1722 -0.4750
  309MOL0     H42630  10.088   1.186   4.667  2.5908 -3.2517  1.2156
  309MOL0     H42631  10.018   1.031   4.676  1.5819  2.1872  4.9967
  309MOL0     H42632   9.967   1.190   4.419 -0.2095  0.0291  1.1145
  309MOL0     H42633   9.932   1.025   4.457 -0.9618  1.6208 -1.4222
  309MOL0     H42634  10.142   0.954   4.386  0.6300 -0.0265  1.3214
  309MOL0     H42635  10.169   1.124   4.325 -2.4706  1.8146 -0.6189
  309MOL0     H42636  10.249   1.003   4.592  1.4778 -0.7719  0.1868
  309MOL0     H42637  10.252   1.183   4.552  0.8399  0.7816 -1.8721
  309MOL0     H42638  10.574   1.068   4.323 -0.4354  1.2103 -3.6139
  309MOL0     H42639   9.647   1.279   4.689  3.6002 -3.7721 -2.4111
  309MOL0     H42640   9.495   1.600   4.690 -0.3805 -0.1532  0.8676
  309MOL0     H42641   9.478   1.434   4.659  1.0206  0.2483 -1.8389
  309MOL0     H42642   9.534   1.488   4.829  2.1300 -1.3288 -0.3912
  310MOL0     O42643   4.270   5.501   7.731  0.2778  0.0603  0.1410
  310MOL0     C42644   4.309   5.572   7.830 -0.8186 -0.6931 -1.2139
  310MOL0     O42645   4.383   5.681   7.824 -0.9684 -0.0189 -0.6399
  310MOL0     C42646   4.449   5.716   7.702 -0.6826  0.6072 -0.1748
  310MOL0     C42647   4.572   5.672   7.679  0.0104  0.2149 -0.1452
  310MOL0     C42648   4.633   5.682   7.550  0.5891  0.2412  0.0576
  310MOL0     C42649   4.574   5.766   7.452  0.5716  0.5885 -0.4061
  310MOL0     O42650   4.639   5.780   7.334  0.1160 -0.4135 -0.5908
  310MOL0     C42651   4.617   5.903   7.265  0.2552  0.1384  0.2460
  310MOL0     C42652   4.686   5.899   7.126 -0.0836 -0.0041  0.2520
  310MOL0     C42653   4.628   6.014   7.041  0.0268 -0.2514 -0.6408
  310MOL0     C42654   4.713   6.034   6.914  0.8833  1.3070 -0.1767
  310MOL0     C42655   4.642   6.095   6.799 -1.3003 -0.9990 -0.2160
  310MOL0     C42656   4.615   6.241   6.814 -0.1667 -1.4531 -0.5249
  310MOL0     C42657   4.503   6.283   6.728 -0.0102 -0.5048  0.0399
  310MOL0     C42658   4.460   6.427   6.757 -0.1177 -0.0091  0.7426
  310MOL0     N42659   4.538   6.539   6.691 -0.5131  0.5830  0.5660
  310MOL0     C42660   4.485   6.642   6.615  0.8564 -0.3244  0.1638
  310MOL0     C42661   4.589   6.719   6.594 -0.6722 -0.0636  0.5108
  310MOL0     C42662   4.594   6.863   6.541  0.4146 -0.2172 -0.3533
  310MOL0     C42663   4.667   6.883   6.405 -0.2392  0.5807  0.6677
  310MOL0     C42664   4.682   7.032   6.369  0.1778 -0.3067  0.6262
  310MOL0     C42665   4.755   7.052   6.233 -0.3683 -1.0275 -0.3670
  310MOL0     O42666   4.877   6.977   6.248 -0.1567  0.0715  0.1214
  310MOL0     C42667   4.962   6.968   6.134 -0.7597 -0.2201 -0.0041
  310MOL0     C42668   5.073   6.887   6.139 -1.0378 -0.5424 -0.2495
  310MOL0     C42669   5.153   6.849   6.026  0.0581 -1.3078  0.6384
  310MOL0     C42670   5.260   6.730   6.051  0.4562  0.2802  0.2184
  310MOL0     C42671   5.125   6.904   5.902  0.6357 -1.0604 -0.1787
  310MOL0     C42672   5.192   6.884   5.785  0.1759 -0.2873  0.2012
  310MOL0     O42673   5.143   6.950   5.673  0.1582 -0.4759  0.0662
  310MOL0     C42674   5.199   6.935   5.549 -0.2684  0.1072 -0.2538
  310MOL0     C42675   5.270   7.037   5.489 -0.2024 -0.3578 -0.1446
  310MOL0     C42676   5.321   7.031   5.357 -0.6921  0.0841 -0.8969
  310MOL0     C42677   5.305   6.915   5.280  0.0077 -0.5845  0.1514
  310MOL0     O42678   5.369   6.920   5.159 -0.0162 -0.0840  0.5970
  310MOL0     C42679   5.396   6.793   5.091  0.8600  0.0930 -0.2167
  310MOL0     C42680   5.496   6.819   4.989 -0.9461 -0.2343  0.2896
  310MOL0     C42681   5.442   6.916   4.874 -0.3562  0.2114  0.0960
  310MOL0     C42682   5.433   6.851   4.739  0.6844  0.1003 -0.4985
  310MOL0     C42683   5.367   6.937   4.626  0.7323 -0.4762 -0.1301
  310MOL0     C42684   5.213   6.909   4.637 -0.3555 -0.2185  0.2339
  310MOL0     C42685   5.123   7.009   4.566 -0.8008  0.8673  0.8399
  310MOL0     C42686   5.002   7.055   4.648  0.1856 -0.7930 -0.2943
  310MOL0    Cl42687   5.031   7.200   4.771  0.1672 -0.0132 -0.3327
  310MOL0     C42688   5.238   6.809   5.338  0.1836 -0.7124  0.0581
  310MOL0     C42689   5.190   6.813   5.476  0.7518  0.0410 -0.0211
  310MOL0     O42690   5.286   6.810   5.782  0.1030 -0.4530  0.5229
  310MOL0     C42691   5.018   7.006   5.906  1.3042  0.4161 -0.0841
  310MOL0     C42692   4.937   7.028   6.010  0.2043  0.7112 -0.1793
  310MOL0     N42693   4.707   6.659   6.632  0.4838  0.1757 -0.5763
  310MOL0     N42694   4.669   6.561   6.698 -0.2440 -0.4889 -0.5636
  310MOL0     C42695   4.443   5.816   7.483 -1.5960 -0.1427  0.4498
  310MOL0     C42696   4.383   5.792   7.605 -1.0180  0.7440  0.9156
  310MOL0     C42697   4.254   5.540   7.968  0.5389 -0.1580 -1.1298
  310MOL0     C42698   4.330   5.585   8.078  0.2052  0.4471 -0.1138
  310MOL0     C42699   4.288   5.574   8.211 -0.6199 -0.5696 -0.4004
  310MOL0     C42700   4.169   5.509   8.246  0.3642  0.1649  0.8006
  310MOL0     O42701   4.135   5.498   8.378 -0.2250 -0.9712 -0.1806
  310MOL0     C42702   4.066   5.385   8.426 -0.5440  0.3861  0.4728
  310MOL0     C42703   4.085   5.368   8.569 -0.4695  0.8919 -0.4791
  310MOL0     C42704   4.233   5.346   8.608  0.3009  0.7377  0.0173
  310MOL0     C42705   4.239   5.303   8.759 -0.2463 -0.9079  0.6381
  310MOL0     C42706   4.371   5.288   8.814  0.3464  0.1218  0.9281
  310MOL0     C42707   4.482   5.276   8.860 -0.3101 -0.1999 -0.2560
  310MOL0     C42708   4.095   5.450   8.142 -0.2726  0.6637  0.2618
  310MOL0     C42709   4.142   5.460   8.003  0.0359 -0.2088 -1.0282
  310MOL0     C42710   4.056   5.380   7.906  1.2933  1.1742 -0.6148
  310MOL0     H42711   4.625   5.607   7.748 -1.0741 -4.2730 -3.1170
  310MOL0     H42712   4.722   5.622   7.535 -0.7978 -1.6572 -1.0408
  310MOL0     H42713   4.664   5.985   7.321 -1.6672 -0.1114  2.3754
  310MOL0     H42714   4.511   5.921   7.244  0.8470  0.4178 -3.0765
  310MOL0     H42715   4.794   5.914   7.137  0.4760 -0.1266 -3.5196
  310MOL0     H42716   4.662   5.810   7.068 -1.0738  0.1592  0.3964
  310MOL0     H42717   4.520   6.003   7.025 -0.0359 -1.5687  0.5992
  310MOL0     H42718   4.641   6.105   7.101 -0.9926 -1.5168  1.6061
  310MOL0     H42719   4.796   6.104   6.933  0.0886  1.9099  1.2739
  310MOL0     H42720   4.752   5.933   6.897 -0.8623  0.2576  1.6956
  310MOL0     H42721   4.549   6.038   6.791 -0.5850 -2.7939  2.7456
  310MOL0     H42722   4.695   6.082   6.705 -0.0107  0.6765  0.2358
  310MOL0     H42723   4.593   6.269   6.918 -2.6833 -2.1600 -0.8197
  310MOL0     H42724   4.706   6.296   6.788 -1.2582  1.6844  1.5804
  310MOL0     H42725   4.424   6.214   6.756 -0.4805  0.7254  1.9190
  310MOL0     H42726   4.530   6.264   6.624 -1.0348 -1.7179 -0.0246
  310MOL0     H42727   4.361   6.433   6.710  0.1012 -0.2141  0.2454
  310MOL0     H42728   4.443   6.446   6.863 -1.8706  2.4120  0.1142
  310MOL0     H42729   4.385   6.679   6.593  0.7993 -0.7433 -0.3165
  310MOL0     H42730   4.631   6.925   6.623  0.3901 -0.2156 -0.3433
  310MOL0     H42731   4.486   6.876   6.527  0.4838  0.0552 -0.6264
  310MOL0     H42732   4.765   6.842   6.428 -1.0084 -1.4206  0.5456
  310MOL0     H42733   4.622   6.822   6.326 -0.1774  3.0205 -1.3728
  310MOL0     H42734   4.579   7.071   6.370  0.1778 -0.1441  3.1995
  310MOL0     H42735   4.744   7.077   6.447  0.3011  1.1977 -0.3020
  310MOL0     H42736   4.693   7.017   6.151  1.2158  1.3163 -2.7264
  310MOL0     H42737   4.774   7.158   6.214  0.8313 -1.1329  0.1127
  310MOL0     H42738   5.095   6.832   6.230 -0.2237  0.7934  0.3956
  310MOL0     H42739   5.250   6.650   5.978 -2.0654  0.0761  0.6968
  310MOL0     H42740   5.251   6.691   6.153  1.8503  3.0548  1.5293
  310MOL0     H42741   5.363   6.760   6.030 -0.2247  2.2756 -0.5449
  310MOL0     H42742   5.289   7.131   5.540  0.1670  0.5565 -1.9038
  310MOL0     H42743   5.367   7.124   5.324 -5.6307  3.4495  0.6237
  310MOL0     H42744   5.440   6.723   5.163 -1.5223  1.2479  2.5516
  310MOL0     H42745   5.303   6.766   5.039  2.1262  0.1454 -2.6887
  310MOL0     H42746   5.575   6.853   5.058 -0.1098 -1.8890  0.2038
  310MOL0     H42747   5.525   6.721   4.950  0.8708  0.6436 -0.7164
  310MOL0     H42748   5.511   7.000   4.870  0.1153 -0.1102  1.0996
  310MOL0     H42749   5.343   6.957   4.899 -1.3823  1.0218 -4.4842
  310MOL0     H42750   5.385   6.754   4.752  0.3740  0.6661  3.8427
  310MOL0     H42751   5.532   6.819   4.704  0.7283 -0.1596 -0.1401
  310MOL0     H42752   5.379   7.045   4.630  0.6648 -0.4595 -0.3837
  310MOL0     H42753   5.402   6.913   4.526 -3.8988  2.2800 -2.7490
  310MOL0     H42754   5.183   6.916   4.742 -0.6884  0.1513  0.1193
  310MOL0     H42755   5.179   6.812   4.600 -3.9743  2.3966 -4.4514
  310MOL0     H42756   5.098   6.953   4.475  4.6168 -0.7231 -0.0072
  310MOL0     H42757   5.181   7.097   4.537 -0.0182 -0.0211 -0.3809
  310MOL0     H42758   4.949   6.973   4.697 -2.2354  0.8525  0.0459
  310MOL0     H42759   4.923   7.099   4.585  0.8951  2.5158  0.9462
  310MOL0     H42760   5.230   6.714   5.285  0.8825 -1.1524  0.7066
  310MOL0     H42761   5.141   6.722   5.507  1.2657 -0.3718 -0.4035
  310MOL0     H42762   4.983   7.055   5.816 -3.7381  1.1484  1.9449
  310MOL0     H42763   4.858   7.099   5.987  1.7799  2.1570 -1.3343
  310MOL0     H42764   4.380   5.861   7.407  0.0631 -2.2729 -2.4087
  310MOL0     H42765   4.282   5.824   7.626 -1.0748  1.1243  0.0904
  310MOL0     H42766   4.419   5.645   8.060  0.7258  0.0540  1.0721
  310MOL0     H42767   4.345   5.625   8.289 -3.5779 -0.1350  1.6456
  310MOL0     H42768   3.959   5.399   8.408 -0.5460 -0.6750 -0.4745
  310MOL0     H42769   4.098   5.298   8.367  0.9711  0.0759  1.6986
  310MOL0     H42770   4.022   5.285   8.603  1.0577  0.2280  0.8760
  310MOL0     H42771   4.053   5.460   8.619  0.5672 -0.3364  2.7393
  310MOL0     H42772   4.281   5.274   8.541 -2.6520 -2.7430  1.3075
  310MOL0     H42773   4.292   5.436   8.585 -0.0968  0.8535 -0.5587
  310MOL0     H42774   4.184   5.208   8.761 -2.8075  0.2516 -3.2493
  310MOL0     H42775   4.180   5.385   8.801  0.2567  1.0557 -2.2107
  310MOL0     H42776   4.584   5.292   8.885 -0.2116  0.8061 -1.1959
  310MOL0     H42777   4.005   5.398   8.173 -0.7588  2.0459  1.2956
  310MOL0     H42778   4.114   5.314   7.841 -2.9528 -1.5969 -2.0545
  310MOL0     H42779   3.985   5.320   7.965  1.9007  0.4186 -0.6483
  310MOL0     H42780   3.996   5.448   7.844 -1.2959 -2.9039 -3.1075
  311MOL0     O42781  10.349   3.337  10.366 -0.0128 -0.1673 -0.6076
  311MOL0     C42782  10.360   3.362  10.250  0.5270 -0.5050  0.5254
  311MOL0     O42783  10.480   3.396  10.184 -0.5804  0.0053 -0.2962
  311MOL0     C42784  10.598   3.357  10.230  0.9817 -0.6212 -0.4595
  311MOL0     C42785  10.673   3.454  10.295  1.0436  0.3294 -0.2940
  311MOL0     C42786  10.807   3.434  10.327 -0.4224  0.7289 -0.3138
  311MOL0     C42787  10.870   3.306  10.300  0.2708 -0.7562 -0.1195
  311MOL0     O42788  10.996   3.285  10.352 -0.6917 -0.4071 -0.2394
  311MOL0     C42789  11.042   3.149  10.363 -0.1526  0.3450  0.1106
  311MOL0     C42790  11.009   3.086  10.501  0.0046 -0.5916  1.4242
  311MOL0     C42791  11.092   3.155  10.617  0.3526  0.3286  0.1933
  311MOL0     C42792  11.041   3.090  10.752 -1.0573 -0.0954  0.7388
  311MOL0     C42793  11.056   3.186  10.867  0.5653 -0.0758 -1.2711
  311MOL0     C42794  11.188   3.254  10.884 -0.3273 -1.0549 -0.5958
  311MOL0     C42795  11.175   3.385  10.971 -0.7060 -0.3634  0.0761
  311MOL0     C42796  11.137   3.367  11.119  0.7220  0.6557  0.4861
  311MOL0     N42797  10.985   3.375  11.143 -0.2947 -0.4270 -0.1028
  311MOL0     C42798  10.897   3.475  11.171  0.1048  0.4931 -0.1937
  311MOL0     C42799  10.773   3.416  11.185 -0.1987  0.0911  0.2280
  311MOL0     C42800  10.642   3.473  11.227 -0.3041  0.6330  0.1946
  311MOL0     C42801  10.568   3.527  11.101  0.0230 -0.5137 -0.5897
  311MOL0     C42802  10.464   3.422  11.045  0.8442  0.5123 -0.6896
  311MOL0     C42803  10.379   3.483  10.937  0.2623  0.0232  0.6327
  311MOL0     O42804  10.311   3.368  10.872  0.6667 -0.5897 -0.1028
  311MOL0     C42805  10.181   3.386  10.833  0.2798 -0.0476  0.7081
  311MOL0     C42806  10.115   3.509  10.823 -0.6618 -0.5753  0.4097
  311MOL0     C42807   9.990   3.509  10.762  0.3351 -0.7141 -1.0701
  311MOL0     C42808   9.922   3.644  10.781 -0.0208 -0.4361  0.8389
  311MOL0     C42809   9.939   3.400  10.696  0.5833  1.2148  0.4834
  311MOL0     C42810   9.810   3.409  10.622 -0.0626  0.1883  0.6088
  311MOL0     O42811   9.733   3.531  10.613  0.3671  0.6592 -0.1710
  311MOL0     C42812   9.669   3.555  10.497  0.2815  0.0101  0.4622
  311MOL0     C42813   9.531   3.562  10.490 -0.6849  1.3552  0.2873
  311MOL0     C42814   9.475   3.597  10.363 -0.7387 -0.6983 -0.3793
  311MOL0     C42815   9.549   3.607  10.245  0.2389  0.0223 -0.2481
  311MOL0     O42816   9.494   3.649  10.122  0.2095 -0.1801 -0.5866
  311MOL0     C42817   9.345   3.632  10.114 -0.3052  0.8048  0.1983
  311MOL0     C42818   9.290   3.664   9.972  0.2035 -0.4807  0.1332
  311MOL0     C42819   9.332   3.807   9.930 -0.0788  1.2482  0.7959
  311MOL0     C42820   9.252   3.857   9.812 -0.1864  0.3532  0.9532
  311MOL0     C42821   9.286   4.012   9.782 -0.1726  0.1874  0.2642
  311MOL0     C42822   9.239   4.055   9.641  0.3147  0.1125 -0.2630
  311MOL0     C42823   9.092   4.103   9.653  0.4629  0.8909 -0.2427
  311MOL0     C42824   9.039   4.172   9.526  0.4320 -0.1369  0.2383
  311MOL0    Cl42825   9.038   4.350   9.539  0.2835  0.0575  0.0042
  311MOL0     C42826   9.688   3.587  10.259  0.1257 -0.1690  0.2665
  311MOL0     C42827   9.749   3.560  10.375  0.6570  0.6006 -0.4906
  311MOL0     O42828   9.784   3.309  10.558 -0.2456  0.3463 -0.3196
  311MOL0     C42829  10.016   3.280  10.694 -1.2657  0.7326 -0.7286
  311MOL0     C42830  10.127   3.277  10.769 -0.3080  1.2323 -0.2278
  311MOL0     N42831  10.785   3.282  11.152 -0.3317 -0.7930  0.5270
  311MOL0     N42832  10.910   3.260  11.134 -0.1151  0.0552 -0.0797
  311MOL0     C42833  10.794   3.214  10.232  0.5101 -0.2651  0.2946
  311MOL0     C42834  10.661   3.239  10.185  0.3032  0.5820  0.0352
  311MOL0     C42835  10.248   3.339  10.165 -0.2506  0.0627  0.9198
  311MOL0     C42836  10.274   3.299  10.037 -0.8646 -0.1904 -0.0326
  311MOL0     C42837  10.169   3.314   9.948  0.0246  0.6597  0.2749
  311MOL0     C42838  10.042   3.358   9.981  0.3321 -0.6850 -0.2829
  311MOL0     O42839   9.963   3.365   9.868 -0.5728  0.0291 -0.5957
  311MOL0     C42840   9.837   3.416   9.898 -0.2997 -1.3197 -0.3946
  311MOL0     C42841   9.751   3.468   9.776  0.7938 -0.0651 -0.5356
  311MOL0     C42842   9.830   3.576   9.693  0.6491 -0.4233 -0.0422
  311MOL0     C42843   9.851   3.720   9.742 -0.6603 -0.2919  0.6641
  311MOL0     C42844   9.777   3.772   9.857  0.2910 -0.2910 -0.0023
  311MOL0     C42845   9.705   3.814   9.949 -0.9119 -0.4348 -0.8065
  311MOL0     C42846  10.011   3.367  10.119 -0.6484  1.4383  1.0716
  311MOL0     C42847  10.113   3.363  10.217 -0.6314 -0.2135  0.9296
  311MOL0     C42848  10.064   3.373  10.364 -0.1026  0.6810 -0.2646
  311MOL0     H42849  10.624   3.548  10.317  1.4226  0.2795  0.8198
  311MOL0     H42850  10.867   3.518  10.362  1.1058  0.8115 -2.8715
  311MOL0     H42851  11.150   3.157  10.356 -0.1220 -1.2587 -2.1856
  311MOL0     H42852  11.014   3.086  10.278 -0.1041  1.1978 -0.5465
  311MOL0     H42853  10.903   3.112  10.504 -0.9199 -3.5227 -0.6520
  311MOL0     H42854  11.028   2.978  10.494  1.0224 -0.3815  0.6186
  311MOL0     H42855  11.197   3.141  10.592  0.4253  1.1662  0.0133
  311MOL0     H42856  11.074   3.263  10.622  0.3507  0.4994 -2.0864
  311MOL0     H42857  10.942   3.045  10.736 -0.6139 -0.1355 -2.4198
  311MOL0     H42858  11.113   3.009  10.765 -0.1210  0.7578  1.0116
  311MOL0     H42859  11.038   3.135  10.962  2.3038 -2.9562 -2.3745
  311MOL0     H42860  10.984   3.268  10.853  2.2069  2.0363  1.5781
  311MOL0     H42861  11.268   3.192  10.925 -0.1795  0.9456  2.5103
  311MOL0     H42862  11.220   3.300  10.790 -0.1671 -2.7729 -1.4121
  311MOL0     H42863  11.107   3.458  10.926  0.6241  3.2393  3.2801
  311MOL0     H42864  11.274   3.432  10.962 -1.4110  0.8296 -2.0902
  311MOL0     H42865  11.159   3.265  11.153 -3.2369 -0.0128  1.5154
  311MOL0     H42866  11.201   3.431  11.182  3.9222 -1.6690 -0.1390
  311MOL0     H42867  10.939   3.575  11.184  2.5798 -0.1020 -2.5413
  311MOL0     H42868  10.666   3.561  11.288 -0.8526  0.0427  1.3078
  311MOL0     H42869  10.588   3.400  11.288  1.8087 -0.1504  1.2241
  311MOL0     H42870  10.502   3.612  11.119 -2.0170 -2.1150 -0.1156
  311MOL0     H42871  10.639   3.562  11.026  0.9426  1.2777  1.0578
  311MOL0     H42872  10.504   3.329  11.004 -1.1506  0.5432 -2.9310
  311MOL0     H42873  10.397   3.394  11.127  0.7609  2.6677  0.0576
  311MOL0     H42874  10.308   3.552  10.982 -0.6181 -0.2991 -0.2177
  311MOL0     H42875  10.449   3.543  10.878 -0.3948 -0.1734 -0.3876
  311MOL0     H42876  10.165   3.598  10.859  0.0232 -2.1148  3.5906
  311MOL0     H42877   9.816   3.638  10.806 -1.0038  1.2265 -2.3609
  311MOL0     H42878   9.924   3.702  10.688 -2.3239  1.4423  1.8758
  311MOL0     H42879   9.975   3.705  10.856 -0.9777  2.8487 -0.9455
  311MOL0     H42880   9.469   3.569  10.579  1.9616  0.5840  2.3036
  311MOL0     H42881   9.369   3.618  10.363 -1.1147 -2.3252 -1.8862
  311MOL0     H42882   9.310   3.530  10.135 -0.6140  0.9467  0.3804
  311MOL0     H42883   9.301   3.694  10.193  0.0808  2.3078 -0.7304
  311MOL0     H42884   9.321   3.597   9.892  0.9715  2.8364 -2.5645
  311MOL0     H42885   9.181   3.673   9.984  0.3998 -0.5733  2.4585
  311MOL0     H42886   9.441   3.812   9.932  0.1111 -0.9195 -0.7486
  311MOL0     H42887   9.298   3.870  10.013  1.4189  1.5527  1.2148
  311MOL0     H42888   9.143   3.844   9.817 -0.1327 -1.7850 -1.3673
  311MOL0     H42889   9.285   3.798   9.726  0.2726 -1.4529  2.3205
  311MOL0     H42890   9.258   4.073   9.868 -2.3136 -0.8371  0.3621
  311MOL0     H42891   9.395   4.027   9.778 -0.5483  3.1678 -0.7943
  311MOL0     H42892   9.244   3.982   9.559 -1.3538  0.3442 -0.6116
  311MOL0     H42893   9.303   4.136   9.604  2.6671 -1.5175  0.0557
  311MOL0     H42894   9.078   4.172   9.737 -0.7094  0.0162  0.2958
  311MOL0     H42895   9.031   4.015   9.672 -0.5052  1.8738  1.5213
  311MOL0     H42896   8.934   4.144   9.515  0.7839 -0.9365 -1.3683
  311MOL0     H42897   9.090   4.134   9.437 -0.2968 -3.6283  1.1861
  311MOL0     H42898   9.753   3.605  10.174  0.0751  1.1028  0.4797
  311MOL0     H42899   9.856   3.549  10.386  0.3873  0.3239  2.6345
  311MOL0     H42900   9.979   3.195  10.639  1.1696  1.1152 -3.1237
  311MOL0     H42901  10.189   3.189  10.780  1.4914  2.4213 -0.3545
  311MOL0     H42902  10.845   3.124  10.199 -1.5800 -2.2665  2.1076
  311MOL0     H42903  10.612   3.169  10.120 -0.7604  1.8599 -0.5825
  311MOL0     H42904  10.373   3.268  10.006 -1.0973 -4.1783  2.5532
  311MOL0     H42905  10.192   3.284   9.847  0.2286  0.1459  0.4687
  311MOL0     H42906   9.783   3.344   9.960  1.5294 -1.3475  1.2862
  311MOL0     H42907   9.864   3.502   9.959  2.9742 -1.7754 -0.9757
  311MOL0     H42908   9.665   3.503   9.833  1.2233  0.9838 -0.5023
  311MOL0     H42909   9.727   3.383   9.710 -3.9122  1.1996 -0.8197
  311MOL0     H42910   9.922   3.531   9.653  0.5168 -0.1937 -0.6272
  311MOL0     H42911   9.769   3.595   9.603  0.9464  1.0341  0.0293
  311MOL0     H42912   9.835   3.784   9.655  0.1740 -1.7792 -0.6344
  311MOL0     H42913   9.956   3.725   9.774 -0.6782  1.1607  0.5348
  311MOL0     H42914   9.636   3.855  10.019 -0.1012  0.7970 -0.7063
  311MOL0     H42915   9.913   3.393  10.161 -2.5429 -1.8065 -0.9523
  311MOL0     H42916  10.114   3.462  10.404 -1.1536  1.0995  0.1532
  311MOL0     H42917   9.956   3.363  10.374  0.1885 -2.7986  0.4615
  311MOL0     H42918  10.098   3.286  10.421 -0.0301  0.6927 -0.2890
  312MOL0     O42919  11.392   9.389  11.124 -0.2860 -0.5517  0.2081
  312MOL0     C42920  11.466   9.309  11.184  0.4236 -0.7785 -0.4218
  312MOL0     O42921  11.491   9.318  11.318  0.2419 -0.2881 -1.2584
  312MOL0     C42922  11.409   9.396  11.398  1.0054  0.2206 -0.1691
  312MOL0     C42923  11.265   9.378  11.396  0.1581 -0.6648  0.4179
  312MOL0     C42924  11.181   9.443  11.492  0.0430 -0.2686 -0.3522
  312MOL0     C42925  11.238   9.525  11.581  0.0407 -0.6803  0.4039
  312MOL0     O42926  11.144   9.554  11.678  0.3963  0.1720 -0.0916
  312MOL0     C42927  11.189   9.607  11.798  0.4418 -0.1442 -1.3140
  312MOL0     C42928  11.055   9.617  11.877  0.1854 -0.5996  1.0557
  312MOL0     C42929  10.988   9.486  11.894  0.8745  0.2747 -0.8215
  312MOL0     C42930  10.922   9.474  12.029 -0.4559  0.3302 -1.0176
  312MOL0     C42931  10.854   9.333  12.031  0.0397 -0.4665  0.0509
  312MOL0     C42932  10.778   9.314  12.159 -0.0506  1.0093 -0.5081
  312MOL0     C42933  10.863   9.283  12.284 -0.8826 -0.7025 -0.5591
  312MOL0     C42934  10.985   9.190  12.286  0.8735 -0.0029  0.1659
  312MOL0     N42935  11.051   9.159  12.416  0.9500  0.9565  0.1253
  312MOL0     C42936  11.011   9.213  12.539 -0.1625  0.0202 -0.4507
  312MOL0     C42937  11.081   9.135  12.622  0.1214  0.4275  0.0386
  312MOL0     C42938  11.086   9.163  12.768 -0.0056 -0.4393 -0.0370
  312MOL0     C42939  11.059   9.044  12.852  0.1152  0.4439 -0.2378
  312MOL0     C42940  11.060   9.072  13.000 -0.1631  0.1212 -0.5532
  312MOL0     C42941  10.980   9.188  13.060 -0.5412 -0.4416  0.7129
  312MOL0     O42942  10.840   9.160  13.056 -0.2491 -0.2421  0.4187
  312MOL0     C42943  10.772   9.278  13.068 -0.3645 -0.2120  0.3061
  312MOL0     C42944  10.726   9.345  12.958 -0.2334 -0.2247  0.5442
  312MOL0     C42945  10.656   9.469  12.957 -0.8605  0.5784 -0.1946
  312MOL0     C42946  10.645   9.540  12.814  0.3271  0.2672  0.3254
  312MOL0     C42947  10.663   9.537  13.082  0.4941 -0.6382  1.3474
  312MOL0     C42948  10.636   9.687  13.093  0.9857  0.3188 -0.0969
  312MOL0     O42949  10.699   9.741  13.199  0.0666 -0.2480 -0.0685
  312MOL0     C42950  10.665   9.876  13.236 -0.5402  0.1908  0.4804
  312MOL0     C42951  10.757   9.985  13.258  0.2831  0.4470  0.0194
  312MOL0     C42952  10.717  10.112  13.302 -0.2263  0.5658  0.4975
  312MOL0     C42953  10.589  10.126  13.338  0.7431 -1.2972 -0.4711
  312MOL0     O42954  10.532  10.240  13.392  0.0061 -0.9015 -0.2809
  312MOL0     C42955  10.626  10.337  13.446  0.0428 -0.7478  1.0912
  312MOL0     C42956  10.545  10.449  13.505 -2.2018 -0.0831  0.1958
  312MOL0     C42957  10.632  10.579  13.496 -0.5560 -0.4802  0.1032
  312MOL0     C42958  10.547  10.705  13.525  0.0946  0.0905  0.6014
  312MOL0     C42959  10.634  10.837  13.502  0.1658  0.0978  0.7443
  312MOL0     C42960  10.549  10.955  13.565  0.1212  0.4065  0.0749
  312MOL0     C42961  10.608  11.099  13.534  0.4129 -0.0436 -0.2303
  312MOL0     C42962  10.486  11.193  13.545  0.4418  0.8884 -0.0891
  312MOL0    Cl42963  10.545  11.350  13.505 -0.3929  0.3663  0.4635
  312MOL0     C42964  10.494  10.033  13.313 -0.1607  0.4906 -0.0822
  312MOL0     C42965  10.534   9.905  13.265 -0.2410  0.0603 -0.2986
  312MOL0     O42966  10.557   9.740  13.016  0.2442  0.2859  0.2067
  312MOL0     C42967  10.706   9.466  13.192  0.2788 -0.6230  0.1346
  312MOL0     C42968  10.758   9.343  13.188 -1.3015 -0.5359 -0.7072
  312MOL0     N42969  11.151   9.031  12.559 -0.4461  0.1513 -0.8728
  312MOL0     N42970  11.134   9.053  12.438  0.5688  0.3426 -0.0063
  312MOL0     C42971  11.379   9.542  11.595  0.4204 -0.0676 -0.6337
  312MOL0     C42972  11.462   9.485  11.497 -0.1203 -0.1448 -0.3846
  312MOL0     C42973  11.523   9.199  11.107 -0.1928 -0.1316  0.4772
  312MOL0     C42974  11.514   9.069  11.165  0.0179 -0.1634  0.1986
  312MOL0     C42975  11.551   8.957  11.096 -0.4547 -0.9032 -0.2302
  312MOL0     C42976  11.600   8.969  10.967 -0.3867  0.5237  0.0064
  312MOL0     O42977  11.633   8.848  10.909  0.4706 -0.4081 -0.8136
  312MOL0     C42978  11.740   8.841  10.803  0.4047  0.7977  0.8484
  312MOL0     C42979  11.745   8.694  10.749  1.0974  0.8272 -0.4158
  312MOL0     C42980  11.820   8.590  10.834 -1.0596 -0.4975 -0.2327
  312MOL0     C42981  11.813   8.446  10.788 -0.1419 -0.4561 -0.1448
  312MOL0     C42982  11.827   8.339  10.894 -0.6278 -1.0414  0.0964
  312MOL0     C42983  11.826   8.266  10.985 -0.9229 -0.0650 -0.4486
  312MOL0     C42984  11.630   9.095  10.910  0.1475 -0.3464 -0.2187
  312MOL0     C42985  11.581   9.206  10.976  0.5790 -0.8655 -0.3813
  312MOL0     C42986  11.605   9.339  10.903 -0.3813  0.5743 -0.3169
  312MOL0     H42987  11.231   9.294  11.337 -1.3241  0.5630 -0.5364
  312MOL0     H42988  11.075   9.419  11.498 -0.1845 -0.8133 -4.0505
  312MOL0     H42989  11.249   9.698  11.786  0.8561 -0.1728  0.2416
  312MOL0     H42990  11.261   9.540  11.847  1.4316  1.9244  0.2157
  312MOL0     H42991  11.085   9.663  11.972 -0.5030 -0.9343  1.4410
  312MOL0     H42992  10.984   9.680  11.823  3.0169 -0.0265 -2.4049
  312MOL0     H42993  10.912   9.480  11.814  1.1364  2.4967 -1.3064
  312MOL0     H42994  11.042   9.395  11.866 -0.4377 -0.7246 -0.2363
  312MOL0     H42995  10.999   9.470  12.107 -0.1381  0.6817 -1.3136
  312MOL0     H42996  10.859   9.560  12.054 -1.9436 -1.3524  1.4714
  312MOL0     H42997  10.929   9.256  12.013  0.7047  0.1050  0.3463
  312MOL0     H42998  10.795   9.334  11.939 -2.2103  1.2244  1.3964
  312MOL0     H42999  10.722   9.406  12.175 -1.1745  0.0185  1.7285
  312MOL0     H43000  10.704   9.233  12.158 -2.0549  2.6514  2.2408
  312MOL0     H43001  10.803   9.238  12.364  2.2150 -0.3990  2.1768
  312MOL0     H43002  10.906   9.382  12.304  3.0281 -1.9372 -1.9343
  312MOL0     H43003  10.955   9.092  12.248 -0.3723 -0.8629  3.0814
  312MOL0     H43004  11.062   9.235  12.222  0.3659  0.3373 -0.2082
  312MOL0     H43005  10.948   9.297  12.565  0.8903  0.8027 -0.3741
  312MOL0     H43006  11.017   9.245  12.792  1.4641  0.3060  2.0612
  312MOL0     H43007  11.184   9.210  12.786 -0.2406 -1.1008  3.9383
  312MOL0     H43008  10.965   8.999  12.818  1.6389 -0.7443 -3.2076
  312MOL0     H43009  11.131   8.965  12.832 -2.2434 -1.6908 -0.7999
  312MOL0     H43010  11.006   8.986  13.040 -2.3622  0.9023 -1.6715
  312MOL0     H43011  11.163   9.054  13.033 -0.4683 -1.1402 -0.2383
  312MOL0     H43012  11.005   9.205  13.165  0.5427 -1.0090  0.5635
  312MOL0     H43013  11.004   9.283  13.012  0.2561 -0.1968  1.5630
  312MOL0     H43014  10.758   9.298  12.865  4.1563 -2.4227  2.8856
  312MOL0     H43015  10.557   9.605  12.809  0.9226  1.0434 -0.8068
  312MOL0     H43016  10.616   9.466  12.738 -1.5275  0.8034  0.4541
  312MOL0     H43017  10.731   9.605  12.792 -0.7503  1.3543 -0.9116
  312MOL0     H43018  10.862   9.968  13.238 -0.5021 -0.7326 -4.1123
  312MOL0     H43019  10.794  10.187  13.317  2.4464 -2.1206  1.1421
  312MOL0     H43020  10.702  10.297  13.514  0.7577 -1.2877  0.0056
  312MOL0     H43021  10.693  10.371  13.366  3.9114 -0.3141  4.1739
  312MOL0     H43022  10.456  10.463  13.444 -2.0473 -3.9883 -1.1973
  312MOL0     H43023  10.521  10.422  13.609 -0.1968 -0.1773  0.6821
  312MOL0     H43024  10.669  10.586  13.393  4.2333 -0.5952  1.5685
  312MOL0     H43025  10.717  10.578  13.564 -0.8857  2.3393  0.6720
  312MOL0     H43026  10.539  10.693  13.634 -1.5354  0.0286  0.5095
  312MOL0     H43027  10.446  10.703  13.483  0.7608 -4.8967 -1.4532
  312MOL0     H43028  10.726  10.825  13.560 -0.3141  1.6742  1.9175
  312MOL0     H43029  10.656  10.851  13.396 -1.8890  0.3313  0.3124
  312MOL0     H43030  10.544  10.934  13.672 -0.3137  0.5496  0.0855
  312MOL0     H43031  10.453  10.945  13.514  1.5784 -0.3215 -2.6819
  312MOL0     H43032  10.647  11.109  13.432 -0.4787  0.1210 -0.5670
  312MOL0     H43033  10.682  11.116  13.613  0.4728 -1.2024 -0.0138
  312MOL0     H43034  10.445  11.191  13.646  2.3978 -0.5362  0.7371
  312MOL0     H43035  10.411  11.167  13.469  2.7985  0.1179 -2.3031
  312MOL0     H43036  10.391  10.058  13.336 -0.3265 -2.4227  3.0317
  312MOL0     H43037  10.455   9.831  13.270 -0.5705  0.4803  1.3576
  312MOL0     H43038  10.711   9.523  13.284  3.4927  1.1359 -0.9768
  312MOL0     H43039  10.813   9.303  13.273 -0.8534  2.6010  0.6355
  312MOL0     H43040  11.430   9.596  11.674  2.9249 -2.7412 -0.2111
  312MOL0     H43041  11.570   9.494  11.503  0.1651 -3.2646  1.0344
  312MOL0     H43042  11.490   9.075  11.271 -1.5756 -0.6739 -0.1055
  312MOL0     H43043  11.547   8.861  11.146  0.9667 -0.9257 -0.1092
  312MOL0     H43044  11.733   8.920  10.727  3.5475  0.4916  0.0998
  312MOL0     H43045  11.836   8.860  10.850  0.3889  0.6412  0.9436
  312MOL0     H43046  11.793   8.691  10.651  2.7947  1.7221  0.3528
  312MOL0     H43047  11.641   8.659  10.739  1.3343 -0.6515  1.6343
  312MOL0     H43048  11.924   8.620  10.824 -1.4749  0.4818 -2.0471
  312MOL0     H43049  11.789   8.603  10.939  0.7185 -1.0862  0.4000
  312MOL0     H43050  11.895   8.429  10.717 -0.3965 -1.4041 -0.2336
  312MOL0     H43051  11.713   8.423  10.750  0.0784 -2.0885  0.1785
  312MOL0     H43052  11.825   8.196  11.066 -1.5703 -1.7114 -1.8197
  312MOL0     H43053  11.669   9.099  10.808 -0.3919 -4.3433 -0.7518
  312MOL0     H43054  11.513   9.357  10.847  1.4772  2.2239 -3.0622
  312MOL0     H43055  11.634   9.422  10.968  0.5819 -0.1980  0.2601
  312MOL0     H43056  11.688   9.327  10.833 -0.0139 -0.7097  0.2988
  313MOL0     O43057  11.184   9.902   3.717 -0.5176 -0.8101 -0.4088
  313MOL0     C43058  11.160   9.784   3.714  0.3381  0.1256  0.0645
  313MOL0     O43059  11.248   9.679   3.668  0.4400  0.1140  0.3469
  313MOL0     C43060  11.383   9.703   3.671 -0.2893  0.7614 -0.1741
  313MOL0     C43061  11.465   9.643   3.575 -0.3214  0.2633  0.4087
  313MOL0     C43062  11.599   9.667   3.572 -0.5414  0.2662 -0.2055
  313MOL0     C43063  11.664   9.745   3.665 -0.2759  0.4382  0.7943
  313MOL0     O43064  11.794   9.769   3.639  0.0610  0.1887 -0.0014
  313MOL0     C43065  11.874   9.747   3.764  0.2352 -0.6962  0.6393
  313MOL0     C43066  12.026   9.726   3.727  0.3634 -0.2547 -0.5509
  313MOL0     C43067  12.125   9.788   3.830 -0.2198  0.8988 -0.0667
  313MOL0     C43068  12.162   9.934   3.802  0.1015 -0.4453 -0.7453
  313MOL0     C43069  12.158  10.007   3.927  0.9900  0.5866 -0.3093
  313MOL0     C43070  12.182  10.154   3.896 -0.5141  0.0680 -0.0416
  313MOL0     C43071  12.082  10.225   3.801 -0.4308  0.7455 -0.0768
  313MOL0     C43072  11.934  10.213   3.848 -0.2321 -0.3855  0.6318
  313MOL0     N43073  11.836  10.224   3.741  0.3691  0.8386 -0.6270
  313MOL0     C43074  11.818  10.125   3.655 -0.1410  0.2417 -0.5801
  313MOL0     C43075  11.712  10.163   3.582  1.2821 -0.8882 -0.0720
  313MOL0     C43076  11.631  10.088   3.479  0.2817 -0.1394 -1.5067
  313MOL0     C43077  11.679  10.101   3.335  0.3982 -0.8891  0.9637
  313MOL0     C43078  11.648  10.239   3.274  0.0783  0.3953  0.1491
  313MOL0     C43079  11.657  10.222   3.120  0.3544 -0.3354 -0.2682
  313MOL0     O43080  11.511  10.225   3.073 -0.6249  0.1034  0.9450
  313MOL0     C43081  11.483  10.223   2.932  0.4841 -0.0092  0.4808
  313MOL0     C43082  11.355  10.247   2.891 -0.1208 -0.1794 -0.1174
  313MOL0     C43083  11.312  10.259   2.756 -0.7888  0.6869  0.1386
  313MOL0     C43084  11.167  10.302   2.720  0.3890 -0.1769  0.2554
  313MOL0     C43085  11.419  10.225   2.654  0.6988  0.9042 -0.0136
  313MOL0     C43086  11.388  10.215   2.510  0.1772 -0.1870  0.1400
  313MOL0     O43087  11.469  10.128   2.430  0.2571 -1.0087 -0.0557
  313MOL0     C43088  11.480  10.136   2.289 -0.6627 -0.1155  0.3681
  313MOL0     C43089  11.452  10.254   2.222  0.4751  0.5591  0.2116
  313MOL0     C43090  11.458  10.260   2.083 -0.9077 -0.2269  0.4435
  313MOL0     C43091  11.511  10.147   2.008 -1.0282 -0.3146  0.2735
  313MOL0     O43092  11.553  10.136   1.872 -0.3546  1.2352  0.5714
  313MOL0     C43093  11.529  10.243   1.794 -0.0336 -0.0335 -0.7671
  313MOL0     C43094  11.541  10.201   1.637 -0.1105  0.6089 -0.1871
  313MOL0     C43095  11.689  10.157   1.598 -0.2942  0.0983  0.1622
  313MOL0     C43096  11.775  10.281   1.576 -0.6264  0.3994  0.3589
  313MOL0     C43097  11.757  10.344   1.435  0.2062 -0.3739 -0.0018
  313MOL0     C43098  11.785  10.494   1.447  0.5675  0.0098 -0.1773
  313MOL0     C43099  11.932  10.533   1.446 -1.4654 -0.0215 -0.1906
  313MOL0     C43100  11.933  10.687   1.473  0.1519  0.7714  0.7367
  313MOL0    Cl43101  12.098  10.754   1.494 -0.1538 -0.5200  0.2992
  313MOL0     C43102  11.530  10.022   2.076  0.0025  0.3109 -0.1263
  313MOL0     C43103  11.530  10.023   2.216 -0.3486  0.7113  0.2491
  313MOL0     O43104  11.289  10.276   2.467 -0.2732  0.2470 -0.2206
  313MOL0     C43105  11.546  10.179   2.702 -0.8959  0.4051 -0.2108
  313MOL0     C43106  11.575  10.187   2.836  0.1288  0.3596  0.3907
  313MOL0     N43107  11.666  10.282   3.639 -0.2628 -0.3807  1.0235
  313MOL0     N43108  11.742  10.328   3.726  0.2845 -0.3406  0.5225
  313MOL0     C43109  11.592   9.805   3.764 -0.0977  0.5524  0.7432
  313MOL0     C43110  11.450   9.783   3.768  0.3893 -0.1671  0.0767
  313MOL0     C43111  11.030   9.743   3.754  0.0777  0.6581  1.0023
  313MOL0     C43112  10.926   9.832   3.735  0.3327  0.6268 -0.3351
  313MOL0     C43113  10.803   9.808   3.793 -0.6572  0.0785  1.3347
  313MOL0     C43114  10.769   9.697   3.856 -0.5045 -0.3108 -0.5917
  313MOL0     O43115  10.644   9.694   3.914  0.4942 -0.0302  0.7337
  313MOL0     C43116  10.601   9.781   4.017 -0.6421  0.4710 -0.0352
  313MOL0     C43117  10.473   9.738   4.074  0.1967  0.6381  0.1442
  313MOL0     C43118  10.482   9.593   4.137 -0.0238 -2.0213  0.4600
  313MOL0     C43119  10.372   9.593   4.241  0.2636  0.6476 -0.6645
  313MOL0     C43120  10.426   9.648   4.373  0.8258 -0.5709 -0.4107
  313MOL0     C43121  10.495   9.669   4.467 -0.6328 -0.2414  0.5590
  313MOL0     C43122  10.862   9.597   3.876  0.8523 -0.1150  0.1133
  313MOL0     C43123  10.990   9.617   3.819 -0.5602  1.2171 -0.2485
  313MOL0     C43124  11.094   9.514   3.867  0.5610  0.3379 -0.9070
  313MOL0     H43125  11.404   9.576   3.515 -1.2005 -0.9094  2.4884
  313MOL0     H43126  11.665   9.631   3.494 -1.8113  1.0411 -1.6965
  313MOL0     H43127  11.844   9.664   3.828 -1.2515  1.4387  2.8930
  313MOL0     H43128  11.868   9.837   3.826  1.2090 -2.2185  3.0952
  313MOL0     H43129  12.041   9.619   3.709 -0.3390 -0.2792 -1.0050
  313MOL0     H43130  12.049   9.764   3.627  0.7189 -1.1662 -0.8238
  313MOL0     H43131  12.078   9.773   3.928 -0.6146  0.3758 -0.3301
  313MOL0     H43132  12.218   9.732   3.843 -0.9829  0.2236  4.4987
  313MOL0     H43133  12.265   9.932   3.763  1.1428 -0.4078  1.7893
  313MOL0     H43134  12.093   9.960   3.721  0.4332 -0.0456 -0.9064
  313MOL0     H43135  12.223   9.974   4.008 -1.4368 -0.6509  1.2701
  313MOL0     H43136  12.058   9.992   3.969  1.5234 -0.8577  0.5135
  313MOL0     H43137  12.174  10.210   3.990 -0.4255 -1.2625  0.7922
  313MOL0     H43138  12.285  10.173   3.864 -0.6141  1.7553  0.5447
  313MOL0     H43139  12.102  10.182   3.702  0.0890  0.1030  0.2975
  313MOL0     H43140  12.115  10.328   3.813  0.8190  0.2736  0.7572
  313MOL0     H43141  11.926  10.120   3.906  0.0589  1.3686  3.6816
  313MOL0     H43142  11.911  10.288   3.924 -0.1362 -2.0701  2.4165
  313MOL0     H43143  11.887  10.043   3.640  1.0559  0.4895  2.7224
  313MOL0     H43144  11.525  10.114   3.484  0.4723  0.4611 -0.0560
  313MOL0     H43145  11.634   9.983   3.510 -1.5765 -0.3159 -1.8033
  313MOL0     H43146  11.786  10.080   3.326  0.4607 -0.0683 -0.5007
  313MOL0     H43147  11.617  10.025   3.286 -0.3938 -1.5332  2.8725
  313MOL0     H43148  11.543  10.267   3.288  0.2396  0.8143  0.5283
  313MOL0     H43149  11.715  10.321   3.301  1.0967  0.5960 -2.6284
  313MOL0     H43150  11.729  10.282   3.063  0.8229 -1.4766 -0.9095
  313MOL0     H43151  11.701  10.126   3.091  2.2482 -0.1183  1.6364
  313MOL0     H43152  11.282  10.261   2.969  1.0621 -0.7949  1.1357
  313MOL0     H43153  11.107  10.347   2.800  1.0506  3.7359 -1.2180
  313MOL0     H43154  11.103  10.231   2.667 -1.3185 -0.8874  3.0486
  313MOL0     H43155  11.184  10.393   2.662  0.8749 -1.7268 -2.2023
  313MOL0     H43156  11.424  10.348   2.268  2.4881  2.5459 -2.3037
  313MOL0     H43157  11.435  10.355   2.036  0.3363 -0.4993 -0.7901
  313MOL0     H43158  11.427  10.262   1.829 -0.2065  0.8781 -1.7238
  313MOL0     H43159  11.596  10.327   1.813 -1.2758  1.5348 -2.9867
  313MOL0     H43160  11.485  10.108   1.622  1.9858 -0.9026  0.7663
  313MOL0     H43161  11.516  10.283   1.569 -1.1095 -0.8784 -1.6892
  313MOL0     H43162  11.692  10.094   1.509 -0.2482  1.4114 -0.8002
  313MOL0     H43163  11.739  10.095   1.674  0.5682  1.7700  1.0155
  313MOL0     H43164  11.880  10.256   1.593  0.0965  1.3507 -2.2349
  313MOL0     H43165  11.751  10.351   1.656 -2.6231 -1.8288  1.8453
  313MOL0     H43166  11.838  10.294   1.382  2.9633  1.9713  1.6984
  313MOL0     H43167  11.659  10.334   1.387  1.4768  1.4424 -3.3303
  313MOL0     H43168  11.734  10.542   1.531  1.8760 -1.4834  1.5491
  313MOL0     H43169  11.749  10.543   1.356  1.5245  0.0212 -0.5618
  313MOL0     H43170  11.973  10.496   1.352 -3.5005  0.3397 -1.2735
  313MOL0     H43171  11.982  10.476   1.525 -1.8948 -0.4484 -0.2219
  313MOL0     H43172  11.869  10.697   1.561  0.7135 -0.4844  1.3227
  313MOL0     H43173  11.875  10.731   1.392  2.0722 -4.0884 -3.8603
  313MOL0     H43174  11.579   9.950   2.012 -0.6521  0.9557 -1.4095
  313MOL0     H43175  11.564   9.922   2.238 -2.3327 -1.6094 -5.4051
  313MOL0     H43176  11.623  10.142   2.635  0.5835 -2.6482  2.8531
  313MOL0     H43177  11.671  10.156   2.874 -0.7027  0.9768  3.2003
  313MOL0     H43178  11.646   9.871   3.831  2.7430  2.2340 -2.8504
  313MOL0     H43179  11.390   9.841   3.837 -0.7504  0.8012 -1.6357
  313MOL0     H43180  10.930   9.929   3.686  0.5930  0.7653 -0.0399
  313MOL0     H43181  10.729   9.887   3.790 -0.0516  0.7547  2.9523
  313MOL0     H43182  10.683   9.783   4.089  1.0930 -3.2324 -1.6652
  313MOL0     H43183  10.595   9.884   3.981  2.0590  0.8260  0.3024
  313MOL0     H43184  10.390   9.746   4.002 -0.2528 -1.6271  0.3342
  313MOL0     H43185  10.454   9.816   4.149  1.5721  0.2708  0.8997
  313MOL0     H43186  10.461   9.523   4.056  0.1317 -0.0285 -1.3791
  313MOL0     H43187  10.581   9.580   4.182  1.0526  1.8434 -0.3643
  313MOL0     H43188  10.326   9.495   4.258  0.3556  0.7866  0.4609
  313MOL0     H43189  10.294   9.659   4.200  0.9644  2.6506  0.9995
  313MOL0     H43190  10.550   9.680   4.558 -2.0434  1.9708  1.2351
  313MOL0     H43191  10.839   9.519   3.949  1.6182  0.9963  1.6057
  313MOL0     H43192  11.090   9.505   3.976 -3.6304 -2.0311 -1.0388
  313MOL0     H43193  11.067   9.420   3.818  0.2138 -0.8649  1.4406
  313MOL0     H43194  11.197   9.538   3.842  0.7784  1.9880  1.2205
  314MOL0     O43195   1.221   6.480   5.045  0.8444  0.4719  0.0245
  314MOL0     C43196   1.222   6.585   4.983  0.0463  0.1033  0.4908
  314MOL0     O43197   1.235   6.723   5.035 -0.3963 -0.2931  0.0918
  314MOL0     C43198   1.273   6.742   5.169  0.9430 -0.6737 -1.5001
  314MOL0     C43199   1.364   6.843   5.204 -0.4263 -0.6614 -0.6066
  314MOL0     C43200   1.402   6.874   5.333  0.3030  0.0733  0.1247
  314MOL0     C43201   1.366   6.787   5.432 -0.3503  0.2425 -0.0307
  314MOL0     O43202   1.427   6.801   5.555  0.1820 -0.0233 -0.2529
  314MOL0     C43203   1.401   6.710   5.663  0.5791 -0.2295  0.7287
  314MOL0     C43204   1.496   6.713   5.789 -0.1303  0.0605 -0.5929
  314MOL0     C43205   1.464   6.602   5.890  0.0994 -0.3728  0.3137
  314MOL0     C43206   1.475   6.642   6.036  0.4719 -0.1725  0.0560
  314MOL0     C43207   1.608   6.656   6.094  0.6034 -0.0142 -0.2354
  314MOL0     C43208   1.595   6.690   6.245 -0.4452  0.1699  0.8190
  314MOL0     C43209   1.736   6.714   6.295  0.2565 -0.3705  0.1852
  314MOL0     C43210   1.799   6.576   6.312  0.3194 -0.3950  0.3942
  314MOL0     N43211   1.923   6.579   6.400  0.1465  0.5469 -0.2795
  314MOL0     C43212   2.059   6.594   6.362  0.0129 -0.1889  0.7708
  314MOL0     C43213   2.123   6.639   6.468  0.5629 -0.4553  0.9193
  314MOL0     C43214   2.260   6.692   6.475  0.1100  0.3925  0.2040
  314MOL0     C43215   2.273   6.835   6.414  0.3116  0.6141 -0.0915
  314MOL0     C43216   2.187   6.947   6.462 -1.5191  0.2670  0.7956
  314MOL0     C43217   2.206   6.986   6.605 -0.2361  0.8393  0.0408
  314MOL0     O43218   2.342   7.010   6.628 -0.4508 -0.2415 -0.6146
  314MOL0     C43219   2.391   6.998   6.755 -0.3556 -0.7948 -0.4060
  314MOL0     C43220   2.519   6.942   6.780 -0.1876 -0.0191  0.4610
  314MOL0     C43221   2.570   6.915   6.910  0.3448 -0.0498 -0.3223
  314MOL0     C43222   2.714   6.855   6.897  0.0225 -0.2720 -0.1647
  314MOL0     C43223   2.498   6.959   7.020  0.8575  0.7438 -0.0525
  314MOL0     C43224   2.535   6.933   7.158 -0.6232  1.0315  0.1755
  314MOL0     O43225   2.477   7.006   7.259  0.0741  1.4444  0.0180
  314MOL0     C43226   2.503   6.962   7.387 -0.5796  0.0566 -0.4453
  314MOL0     C43227   2.475   6.836   7.433 -0.0287  1.0884  1.0979
  314MOL0     C43228   2.488   6.810   7.566 -0.2559 -0.3185  0.2402
  314MOL0     C43229   2.514   6.913   7.662  0.4010 -0.0767 -0.7008
  314MOL0     O43230   2.509   6.896   7.802 -0.5119  0.6682  0.6487
  314MOL0     C43231   2.387   6.921   7.860  0.0601 -0.3438 -0.2407
  314MOL0     C43232   2.391   6.967   8.010 -0.4808 -0.6420  0.0509
  314MOL0     C43233   2.479   7.082   8.019  0.4121 -0.4336  0.2474
  314MOL0     C43234   2.474   7.176   8.144  0.2916  1.3850  0.3598
  314MOL0     C43235   2.572   7.289   8.124 -0.0416 -0.2775 -0.5299
  314MOL0     C43236   2.584   7.386   8.232  0.5007  1.0682 -0.5493
  314MOL0     C43237   2.658   7.513   8.188  0.0600 -0.1730 -0.2066
  314MOL0     C43238   2.712   7.596   8.308  0.0952  0.0428 -0.1281
  314MOL0    Cl43239   2.807   7.735   8.233  0.0788 -0.0550 -0.4834
  314MOL0     C43240   2.544   7.036   7.609 -0.4042  0.5617 -0.9815
  314MOL0     C43241   2.532   7.064   7.477  0.3558  0.0761  0.0829
  314MOL0     O43242   2.616   6.846   7.181 -0.6237 -0.4650 -0.2306
  314MOL0     C43243   2.381   7.024   6.999  0.1375  0.7820  1.2670
  314MOL0     C43244   2.318   7.039   6.868  0.8908  0.8639  0.0442
  314MOL0     N43245   2.032   6.645   6.573 -0.5346  0.5546 -0.0473
  314MOL0     N43246   1.915   6.610   6.534  0.1008 -0.5100  0.5311
  314MOL0     C43247   1.267   6.686   5.403 -0.7229 -0.1311 -1.3848
  314MOL0     C43248   1.220   6.666   5.274  0.9585 -0.4977 -0.3294
  314MOL0     C43249   1.219   6.577   4.833  0.9134 -1.6807 -0.7123
  314MOL0     C43250   1.246   6.698   4.757 -0.2249  0.4027  0.9632
  314MOL0     C43251   1.254   6.686   4.619  0.2885  0.3440 -0.2593
  314MOL0     C43252   1.236   6.573   4.545  0.0034  0.5956 -0.5396
  314MOL0     O43253   1.261   6.590   4.411 -0.3880 -0.4180 -0.0402
  314MOL0     C43254   1.268   6.477   4.321 -0.6910 -0.4996 -0.3250
  314MOL0     C43255   1.258   6.516   4.179  0.3572  0.6080  0.2211
  314MOL0     C43256   1.210   6.393   4.104  0.3382  0.6295  0.3051
  314MOL0     C43257   1.315   6.280   4.103  0.1716 -0.0242  0.2621
  314MOL0     C43258   1.276   6.193   3.986 -0.6211  0.7746 -0.1513
  314MOL0     C43259   1.248   6.137   3.883  0.2293  0.5487 -0.4528
  314MOL0     C43260   1.194   6.461   4.613 -0.4357 -0.8518  0.7905
  314MOL0     C43261   1.192   6.457   4.757 -0.0221 -0.5772  0.2726
  314MOL0     C43262   1.145   6.322   4.807  0.3282  0.1070 -0.2677
  314MOL0     H43263   1.409   6.893   5.119  1.1367  2.0521  1.6483
  314MOL0     H43264   1.476   6.953   5.338 -1.3975  1.8243 -1.2649
  314MOL0     H43265   1.421   6.610   5.623 -1.5623  0.6332 -2.8830
  314MOL0     H43266   1.296   6.705   5.694  0.6449  2.9599  1.8188
  314MOL0     H43267   1.600   6.703   5.758  0.0956  1.0080 -0.1746
  314MOL0     H43268   1.468   6.804   5.844 -0.3678 -1.3089  1.7189
  314MOL0     H43269   1.361   6.571   5.872  0.6504 -0.6259 -2.8070
  314MOL0     H43270   1.525   6.513   5.874 -1.2412 -1.2807  0.0416
  314MOL0     H43271   1.415   6.732   6.051  1.1181  0.5682 -1.6642
  314MOL0     H43272   1.421   6.561   6.087 -0.8330 -3.8253 -6.1630
  314MOL0     H43273   1.647   6.741   6.037 -4.4318  0.4779 -3.6553
  314MOL0     H43274   1.665   6.564   6.077  0.2790 -0.5715  1.5508
  314MOL0     H43275   1.537   6.782   6.261  1.3940  1.7548 -1.0557
  314MOL0     H43276   1.544   6.611   6.302 -1.6072  0.3051  0.0097
  314MOL0     H43277   1.723   6.760   6.393 -0.5319 -0.8776  0.3314
  314MOL0     H43278   1.787   6.776   6.221 -1.3453  0.4849 -0.2412
  314MOL0     H43279   1.722   6.526   6.371  0.3923 -0.6722  0.2573
  314MOL0     H43280   1.818   6.517   6.222  2.6129 -1.4716  1.4934
  314MOL0     H43281   2.094   6.591   6.259  1.1317 -0.0426  1.1258
  314MOL0     H43282   2.333   6.625   6.429 -1.2977 -0.5580 -0.7456
  314MOL0     H43283   2.279   6.709   6.581  1.5600  0.3466 -0.0239
  314MOL0     H43284   2.376   6.866   6.436  1.0237 -2.2106  1.0713
  314MOL0     H43285   2.265   6.824   6.306  0.3019  1.8446 -0.2252
  314MOL0     H43286   2.204   7.036   6.402 -0.9926 -2.2660 -3.1788
  314MOL0     H43287   2.086   6.920   6.431  0.2975 -1.0831 -5.4224
  314MOL0     H43288   2.135   7.066   6.628 -1.2092 -0.2408  0.9338
  314MOL0     H43289   2.169   6.904   6.667  0.4818  1.3401  1.1487
  314MOL0     H43290   2.589   6.930   6.699  1.4288  1.2021  1.6133
  314MOL0     H43291   2.705   6.798   6.803  1.6650 -0.9314  0.0385
  314MOL0     H43292   2.747   6.792   6.980  1.2960 -0.0682 -0.4972
  314MOL0     H43293   2.787   6.931   6.870 -0.5283 -0.2013 -1.5887
  314MOL0     H43294   2.455   6.763   7.355  2.8549  2.8406 -1.5390
  314MOL0     H43295   2.469   6.705   7.589 -1.6733 -0.7241 -2.4612
  314MOL0     H43296   2.331   6.997   7.803 -2.8887 -2.1786 -0.0095
  314MOL0     H43297   2.328   6.830   7.856 -4.9467  2.5603 -2.2261
  314MOL0     H43298   2.290   6.991   8.046 -0.1666 -1.6085  1.6989
  314MOL0     H43299   2.422   6.891   8.083  2.3660  0.4074  0.0554
  314MOL0     H43300   2.467   7.156   7.939  1.8901  1.3787  1.5975
  314MOL0     H43301   2.581   7.050   7.999  0.0347  0.2177 -3.2659
  314MOL0     H43302   2.499   7.114   8.230  0.5474 -1.2555 -1.4937
  314MOL0     H43303   2.369   7.201   8.156 -0.4230 -1.5658  0.9639
  314MOL0     H43304   2.671   7.244   8.111 -1.6234 -3.2761 -4.1337
  314MOL0     H43305   2.552   7.350   8.035  1.7297 -2.8486 -2.8909
  314MOL0     H43306   2.636   7.347   8.320 -1.0947  0.4170  0.1476
  314MOL0     H43307   2.479   7.396   8.262 -0.2134 -1.1214 -2.0901
  314MOL0     H43308   2.590   7.582   8.137 -0.0340  0.6157  0.9484
  314MOL0     H43309   2.748   7.497   8.128 -1.3479 -0.0349 -2.4817
  314MOL0     H43310   2.782   7.537   8.367 -1.6403 -2.6807 -0.6525
  314MOL0     H43311   2.630   7.640   8.365  0.7542 -2.1155  2.6958
  314MOL0     H43312   2.558   7.119   7.679 -0.7351 -0.4294  0.2934
  314MOL0     H43313   2.542   7.170   7.455  2.0763 -0.1989 -0.6367
  314MOL0     H43314   2.330   7.060   7.088  0.8207  2.6415  0.9529
  314MOL0     H43315   2.226   7.093   6.851  0.3073 -0.3050 -0.6047
  314MOL0     H43316   1.229   6.617   5.477  0.4989  0.5737 -0.0636
  314MOL0     H43317   1.151   6.587   5.247 -0.9913  1.0914 -0.2795
  314MOL0     H43318   1.262   6.795   4.803  1.2022  1.1799 -1.0231
  314MOL0     H43319   1.290   6.771   4.561  0.4077 -0.3779 -1.2585
  314MOL0     H43320   1.361   6.423   4.343  1.0037  0.3749 -4.4113
  314MOL0     H43321   1.180   6.416   4.343  0.0339 -1.6582 -0.5714
  314MOL0     H43322   1.352   6.566   4.157  0.8271  0.4110  1.7260
  314MOL0     H43323   1.167   6.577   4.171 -1.6113 -1.8491  2.2715
  314MOL0     H43324   1.110   6.364   4.138  0.1035  0.1056 -0.7575
  314MOL0     H43325   1.200   6.432   4.002 -0.1560  2.6223  1.0773
  314MOL0     H43326   1.292   6.214   4.187 -0.7109 -2.2358 -1.6146
  314MOL0     H43327   1.415   6.320   4.089  1.8685 -3.4114  1.5451
  314MOL0     H43328   1.225   6.088   3.791  2.4615 -3.6283  0.9590
  314MOL0     H43329   1.170   6.367   4.566 -1.6864  0.2848 -0.9408
  314MOL0     H43330   1.107   6.255   4.730 -1.8297 -1.1820  1.7874
  314MOL0     H43331   1.223   6.266   4.860 -0.3643 -2.3334 -1.6658
  314MOL0     H43332   1.062   6.343   4.876 -0.4093 -2.1806 -0.3727
  315MOL0     O43333   0.179   0.359   6.354 -0.3496 -0.6562 -0.7200
  315MOL0     C43334   0.124   0.411   6.451  1.1447  0.0883 -0.8842
  315MOL0     O43335   0.149   0.543   6.493  0.5420 -0.4700  0.0964
  315MOL0     C43336   0.262   0.621   6.463 -0.5937 -0.3515 -0.1096
  315MOL0     C43337   0.277   0.718   6.557 -0.1635 -0.1729  0.0563
  315MOL0     C43338   0.374   0.812   6.552 -0.4072 -0.2344  0.1436
  315MOL0     C43339   0.477   0.798   6.459  0.3603 -0.4280 -0.3232
  315MOL0     O43340   0.582   0.888   6.474 -0.3585  0.9201  0.4697
  315MOL0     C43341   0.707   0.811   6.499 -0.5954  0.6249  0.7221
  315MOL0     C43342   0.823   0.865   6.405  0.5567 -0.3985 -0.5251
  315MOL0     C43343   0.955   0.783   6.446  0.0406  0.1518  1.4520
  315MOL0     C43344   1.069   0.781   6.344 -0.5779 -0.8782 -0.8988
  315MOL0     C43345   1.204   0.734   6.405 -0.5032  1.3999 -0.2968
  315MOL0     C43346   1.309   0.715   6.292  0.4689 -0.4784 -1.0242
  315MOL0     C43347   1.305   0.837   6.197 -0.1266  0.0765 -0.3053
  315MOL0     C43348   1.349   0.975   6.263 -1.3410  0.3041 -0.2162
  315MOL0     N43349   1.388   1.088   6.170 -0.2327 -0.3075  0.5362
  315MOL0     C43350   1.315   1.099   6.046  0.4053 -0.2424  0.7860
  315MOL0     C43351   1.374   1.212   5.985  0.2376  0.6146  0.1798
  315MOL0     C43352   1.331   1.277   5.856  0.2672 -0.9418 -0.1050
  315MOL0     C43353   1.400   1.256   5.730 -0.0344 -0.0225  0.3444
  315MOL0     C43354   1.380   1.118   5.669 -0.2721  0.6957  0.2156
  315MOL0     C43355   1.517   1.040   5.651 -0.0400  0.4347 -1.6429
  315MOL0     O43356   1.495   0.894   5.670 -0.1967 -0.8333  0.0244
  315MOL0     C43357   1.536   0.836   5.786 -0.2751 -0.3465 -0.3015
  315MOL0     C43358   1.526   0.693   5.794  0.7354  0.0851  0.0636
  315MOL0     C43359   1.556   0.622   5.907 -0.0222 -0.2063  0.5817
  315MOL0     C43360   1.526   0.474   5.908  0.1173  0.1898 -0.1738
  315MOL0     C43361   1.621   0.684   6.014  0.0029  0.0263 -0.0177
  315MOL0     C43362   1.665   0.615   6.137 -0.0723  0.9101 -0.4821
  315MOL0     O43363   1.733   0.500   6.112 -0.1146 -0.3882 -0.0691
  315MOL0     C43364   1.831   0.461   6.202 -0.8312 -0.2534 -0.5386
  315MOL0     C43365   1.882   0.331   6.184  0.3404  0.7682 -0.4803
  315MOL0     C43366   1.992   0.292   6.261  0.3832  0.7892  0.5152
  315MOL0     C43367   2.057   0.381   6.346 -0.2241 -0.3378  0.6870
  315MOL0     O43368   2.169   0.345   6.411  0.4826  0.2649 -0.3475
  315MOL0     C43369   2.215   0.214   6.429  0.7047  1.2066 -0.4384
  315MOL0     C43370   2.343   0.183   6.526 -0.7155  0.0987  0.2797
  315MOL0     C43371   2.306   0.220   6.674  0.5801  0.1694  0.5079
  315MOL0     C43372   2.433   0.223   6.762 -0.7716  0.2897  0.9298
  315MOL0     C43373   2.401   0.294   6.888 -0.0553 -0.5345  0.8755
  315MOL0     C43374   2.529   0.288   6.983  0.4382 -0.3530  0.2286
  315MOL0     C43375   2.502   0.370   7.109 -1.0774 -0.5803 -0.0695
  315MOL0     C43376   2.626   0.455   7.132 -0.9135 -0.0155 -0.3859
  315MOL0    Cl43377   2.635   0.525   7.296  0.1845 -0.0395 -0.7053
  315MOL0     C43378   2.001   0.494   6.374 -0.1353  0.7211  0.9933
  315MOL0     C43379   1.884   0.531   6.314  0.2222 -0.3930  0.3964
  315MOL0     O43380   1.656   0.670   6.246 -0.3160  0.0719  0.1582
  315MOL0     C43381   1.632   0.821   6.007 -0.0964  0.3398  0.7149
  315MOL0     C43382   1.582   0.900   5.900 -0.3169 -0.3243  0.3102
  315MOL0     N43383   1.490   1.239   6.060  0.3229  0.8532 -0.4367
  315MOL0     N43384   1.502   1.172   6.169  0.1736  0.2800 -0.5894
  315MOL0     C43385   0.473   0.693   6.371 -0.3304  0.0705 -0.1808
  315MOL0     C43386   0.369   0.602   6.364  0.9918  0.3856 -0.1802
  315MOL0     C43387   0.043   0.329   6.545 -0.3526  0.3147  0.1901
  315MOL0     C43388   0.032   0.365   6.686  0.8499  0.0974  0.6598
  315MOL0     C43389  -0.030   0.279   6.781  0.3410 -0.5252  0.0404
  315MOL0     C43390  -0.093   0.159   6.730 -0.3078 -1.0916  0.7157
  315MOL0     O43391  -0.181   0.091   6.803  0.2405 -0.5507  0.0013
  315MOL0     C43392  -0.283   0.158   6.875 -0.2800  0.0430  0.2347
  315MOL0     C43393  -0.420   0.125   6.810 -0.3957 -0.4514  0.6812
  315MOL0     C43394  -0.529   0.123   6.918 -0.4605 -0.1125  0.2054
  315MOL0     C43395  -0.669   0.064   6.875 -0.2903  0.0141 -0.3718
  315MOL0     C43396  -0.720   0.151   6.760 -0.7310  0.4618  0.2467
  315MOL0     C43397  -0.758   0.211   6.661  0.5745 -1.3535  0.3850
  315MOL0     C43398  -0.081   0.127   6.596  0.4933 -0.5445 -0.4531
  315MOL0     C43399  -0.015   0.205   6.502  0.1559  0.4616  0.2500
  315MOL0     C43400  -0.013   0.153   6.361 -0.4587  0.1961 -0.3419
  315MOL0     H43401   0.199   0.737   6.630  1.1085 -0.9966  1.6979
  315MOL0     H43402   0.367   0.868   6.644  1.7922  1.9038 -0.8773
  315MOL0     H43403   0.701   0.703   6.485  0.1560  0.9915 -3.6798
  315MOL0     H43404   0.727   0.834   6.605 -2.5059 -2.7914  1.9729
  315MOL0     H43405   0.800   0.842   6.300  2.5094 -1.4267 -0.7890
  315MOL0     H43406   0.831   0.974   6.406 -1.3608 -0.1927 -1.6380
  315MOL0     H43407   0.991   0.839   6.533 -0.0159  2.0164  0.3472
  315MOL0     H43408   0.934   0.678   6.467 -0.1870 -0.4607 -1.3922
  315MOL0     H43409   1.051   0.712   6.261  1.8800 -2.5539 -0.1731
  315MOL0     H43410   1.073   0.883   6.306  4.6383 -0.9442 -1.2567
  315MOL0     H43411   1.204   0.641   6.462 -1.1055  0.9683 -0.9756
  315MOL0     H43412   1.243   0.803   6.480  0.4320 -0.8019  1.3624
  315MOL0     H43413   1.410   0.697   6.330  0.8979  0.0796 -1.8824
  315MOL0     H43414   1.270   0.634   6.229 -1.7103  0.6858 -1.2618
  315MOL0     H43415   1.206   0.855   6.155  1.0944  0.4401 -3.3865
  315MOL0     H43416   1.372   0.827   6.110  1.2154  2.4556  0.3467
  315MOL0     H43417   1.279   1.004   6.342  1.5693  2.0688  1.8885
  315MOL0     H43418   1.444   0.953   6.311 -2.6913 -2.0242  1.6415
  315MOL0     H43419   1.228   1.047   6.008 -0.0560  1.7349 -1.0729
  315MOL0     H43420   1.332   1.386   5.868 -3.8503 -0.7343 -0.2543
  315MOL0     H43421   1.232   1.235   5.836 -1.6711  1.1807  3.8063
  315MOL0     H43422   1.349   1.324   5.662  0.6386  1.7676  1.5478
  315MOL0     H43423   1.505   1.290   5.734  1.0504 -3.1282  0.8239
  315MOL0     H43424   1.308   1.055   5.721  0.7682  0.1655  1.0542
  315MOL0     H43425   1.345   1.128   5.566  2.1935  0.2076 -0.7309
  315MOL0     H43426   1.558   1.079   5.557  1.8982  2.0975 -0.2015
  315MOL0     H43427   1.585   1.076   5.729 -1.3514 -1.6623  0.6192
  315MOL0     H43428   1.499   0.632   5.708  1.5687  1.2644 -1.0674
  315MOL0     H43429   1.470   0.440   5.820  3.9502 -1.7694 -2.1258
  315MOL0     H43430   1.469   0.444   5.996 -1.3436  1.3664 -0.6815
  315MOL0     H43431   1.614   0.409   5.915 -0.1849 -0.1172  1.0079
  315MOL0     H43432   1.835   0.260   6.117 -1.6351  0.7326  0.8744
  315MOL0     H43433   2.020   0.187   6.261 -1.0038  0.3655  2.1890
  315MOL0     H43434   2.129   0.159   6.467  0.7095  1.1563 -0.4999
  315MOL0     H43435   2.242   0.181   6.328  0.0885  0.3450 -0.3280
  315MOL0     H43436   2.377   0.079   6.519 -0.0769  0.2996  0.3326
  315MOL0     H43437   2.427   0.243   6.491 -0.2032 -0.2908  0.8379
  315MOL0     H43438   2.241   0.137   6.701  0.2850 -0.2151 -1.2753
  315MOL0     H43439   2.262   0.319   6.684  3.0909  1.3180  1.0550
  315MOL0     H43440   2.520   0.269   6.715  0.5155 -2.7585  0.0961
  315MOL0     H43441   2.467   0.121   6.781 -1.7098 -0.9091 -2.9979
  315MOL0     H43442   2.383   0.395   6.849  1.5418 -0.4878  0.1764
  315MOL0     H43443   2.307   0.268   6.937 -0.0829  1.1307  1.8035
  315MOL0     H43444   2.620   0.311   6.926  0.4100 -1.4983 -0.3039
  315MOL0     H43445   2.532   0.181   7.004 -2.4255 -0.7825 -1.1524
  315MOL0     H43446   2.491   0.308   7.198 -2.5812 -2.6111 -1.5800
  315MOL0     H43447   2.421   0.441   7.091 -0.7486 -0.6527 -2.0604
  315MOL0     H43448   2.626   0.544   7.068 -0.7442 -0.8370 -1.5619
  315MOL0     H43449   2.715   0.395   7.111 -0.8474 -1.6202  3.6949
  315MOL0     H43450   2.048   0.556   6.449 -1.0108  3.7541 -0.8051
  315MOL0     H43451   1.844   0.627   6.345 -1.0630 -1.5429  2.5056
  315MOL0     H43452   1.679   0.874   6.089 -1.1574  2.2751  0.1287
  315MOL0     H43453   1.585   1.007   5.918  3.5087  0.3215 -2.8015
  315MOL0     H43454   0.547   0.672   6.294  1.6329 -1.0667  1.9080
  315MOL0     H43455   0.356   0.531   6.283  1.4713 -1.8875  1.6439
  315MOL0     H43456   0.070   0.459   6.725 -4.8401  3.1254 -0.0150
  315MOL0     H43457  -0.045   0.312   6.883 -1.3088 -0.4972 -0.1827
  315MOL0     H43458  -0.277   0.133   6.981  1.7685  5.7423  1.8488
  315MOL0     H43459  -0.272   0.267   6.878  2.4471 -0.1719 -0.1500
  315MOL0     H43460  -0.421   0.025   6.765 -2.0903 -0.2691  0.2392
  315MOL0     H43461  -0.448   0.202   6.737  1.1826 -1.0701 -0.6460
  315MOL0     H43462  -0.497   0.062   7.003 -0.2690 -2.9009 -1.7003
  315MOL0     H43463  -0.540   0.228   6.946  0.5096  0.5664 -1.7877
  315MOL0     H43464  -0.748   0.063   6.951 -0.0276 -1.7828 -0.0792
  315MOL0     H43465  -0.652  -0.042   6.852 -2.0888 -0.4095  0.0804
  315MOL0     H43466  -0.793   0.288   6.596  0.9259  0.6579  2.4665
  315MOL0     H43467  -0.122   0.032   6.561 -1.0497 -0.2567  0.4888
  315MOL0     H43468   0.089   0.133   6.327  1.1697  2.6346  2.5818
  315MOL0     H43469  -0.073   0.062   6.351 -0.0342 -0.0863 -0.3291
  315MOL0     H43470  -0.051   0.232   6.296  1.8542  0.6575 -1.2157
  316MOL0     O43471   2.115   6.139   5.499 -0.2111 -0.1429 -0.1205
  316MOL0     C43472   2.128   6.245   5.437  0.0819 -0.9574  0.0741
  316MOL0     O43473   2.083   6.260   5.308  0.1060 -0.3912  0.5450
  316MOL0     C43474   2.015   6.157   5.253  1.1895  0.2226  0.1996
  316MOL0     C43475   2.098   6.054   5.206  1.0968  1.2724 -0.6355
  316MOL0     C43476   2.034   5.937   5.144 -0.0693 -0.0449  0.7001
  316MOL0     C43477   1.886   5.932   5.141 -0.2854 -0.0880  0.4016
  316MOL0     O43478   1.811   5.828   5.096 -0.1373 -0.3573  0.1558
  316MOL0     C43479   1.875   5.735   5.009  0.0959  0.2279 -0.4721
  316MOL0     C43480   1.911   5.781   4.874  0.7429 -0.2471 -0.0774
  316MOL0     C43481   1.791   5.846   4.807 -0.2292 -0.0594  0.0993
  316MOL0     C43482   1.840   5.908   4.673  0.1345 -0.0671 -0.7383
  316MOL0     C43483   1.730   5.982   4.601 -0.3362 -0.6087 -0.2351
  316MOL0     C43484   1.799   6.027   4.469  0.0426  0.1220  0.5844
  316MOL0     C43485   1.890   6.147   4.493  0.4003  0.3194 -1.0812
  316MOL0     C43486   1.888   6.240   4.378 -0.9500 -0.6526 -0.3770
  316MOL0     N43487   1.782   6.339   4.384 -0.3437 -0.0099 -0.5765
  316MOL0     C43488   1.765   6.434   4.480  0.1397 -0.0585  0.2832
  316MOL0     C43489   1.661   6.506   4.434 -0.4830 -0.1543 -0.0216
  316MOL0     C43490   1.598   6.628   4.505 -0.2988  0.4470  0.7939
  316MOL0     C43491   1.666   6.762   4.488 -0.3861  0.5882  1.0208
  316MOL0     C43492   1.577   6.864   4.552  0.1849  0.0471 -0.7511
  316MOL0     C43493   1.651   6.994   4.600  0.2417  0.0750  0.3723
  316MOL0     O43494   1.595   7.045   4.720 -0.4145 -0.2736  0.7113
  316MOL0     C43495   1.479   7.119   4.724 -0.9804  0.3698 -0.7412
  316MOL0     C43496   1.375   7.092   4.822 -0.5640 -0.6090 -0.2381
  316MOL0     C43497   1.273   7.185   4.839 -0.0582  1.0724 -0.0305
  316MOL0     C43498   1.184   7.155   4.958 -0.4603  0.6332 -0.9455
  316MOL0     C43499   1.275   7.313   4.772 -0.1071  0.0971  0.4178
  316MOL0     C43500   1.163   7.405   4.786  0.7656  0.4036  0.7774
  316MOL0     O43501   1.072   7.406   4.682 -0.3064 -0.7347 -0.5074
  316MOL0     C43502   0.958   7.477   4.704 -0.7532  0.2036  0.0998
  316MOL0     C43503   0.847   7.410   4.737  0.0476 -0.1216 -0.0122
  316MOL0     C43504   0.727   7.479   4.758  0.3914 -0.4256  0.2507
  316MOL0     C43505   0.732   7.625   4.765  0.4229  0.3600  0.4271
  316MOL0     O43506   0.618   7.675   4.814 -0.2195  0.0431 -0.0743
  316MOL0     C43507   0.597   7.820   4.792 -0.3642  0.4506  0.7720
  316MOL0     C43508   0.449   7.851   4.775 -0.5777  0.7169 -0.4817
  316MOL0     C43509   0.381   7.834   4.914 -0.2472 -0.2054  0.0817
  316MOL0     C43510   0.237   7.879   4.910 -0.1335 -1.1514  0.8965
  316MOL0     C43511   0.163   7.890   5.038 -0.2619  1.2067 -0.1818
  316MOL0     C43512   0.200   8.002   5.124  0.1118 -0.1081 -0.1704
  316MOL0     C43513   0.089   8.022   5.228 -0.5810 -0.5907  0.8649
  316MOL0     C43514   0.129   8.123   5.326 -0.8355 -0.1578 -0.0909
  316MOL0    Cl43515   0.258   8.069   5.443 -0.2353 -0.1240  0.2024
  316MOL0     C43516   0.853   7.692   4.733 -0.8002 -1.0735 -0.1694
  316MOL0     C43517   0.969   7.622   4.706 -0.1255  0.7943 -0.0021
  316MOL0     O43518   1.146   7.446   4.894 -0.8021 -0.8892  0.2079
  316MOL0     C43519   1.372   7.336   4.676  0.2200 -0.2094 -0.6015
  316MOL0     C43520   1.474   7.238   4.651 -0.1941 -0.0637 -0.8728
  316MOL0     N43521   1.609   6.450   4.313 -0.6849  0.5808 -0.2868
  316MOL0     N43522   1.682   6.347   4.289 -0.1376  0.6373  0.1825
  316MOL0     C43523   1.823   6.049   5.177  0.2149  0.3393  0.0964
  316MOL0     C43524   1.884   6.164   5.230 -0.9430  0.3119  0.3992
  316MOL0     C43525   2.193   6.352   5.516  0.4345  0.1780 -0.1501
  316MOL0     C43526   2.200   6.346   5.659  0.3233 -0.2083  0.1140
  316MOL0     C43527   2.286   6.435   5.726  0.2033 -0.2470 -0.5758
  316MOL0     C43528   2.356   6.534   5.661 -0.3147  0.0841  0.1792
  316MOL0     O43529   2.446   6.620   5.719  0.3106 -0.9000 -0.3432
  316MOL0     C43530   2.425   6.650   5.858  0.2808  0.1009  0.1711
  316MOL0     C43531   2.499   6.781   5.890  0.0425 -0.5079 -0.0549
  316MOL0     C43532   2.473   6.839   6.030 -0.4298 -0.3397  0.4569
  316MOL0     C43533   2.561   6.964   6.061  0.2018  0.0096 -0.5246
  316MOL0     C43534   2.500   7.040   6.175  0.8541 -0.7102 -0.1403
  316MOL0     C43535   2.454   7.106   6.261  0.5083  0.3314  0.7714
  316MOL0     C43536   2.348   6.540   5.525  0.3458  0.1034 -0.0313
  316MOL0     C43537   2.275   6.449   5.451  0.5571  0.2734 -0.4566
  316MOL0     C43538   2.290   6.455   5.304 -0.2149 -0.8303  0.0087
  316MOL0     H43539   2.205   6.045   5.225  0.9717 -0.1968 -0.5291
  316MOL0     H43540   2.090   5.847   5.120  1.9457  1.0474  1.0541
  316MOL0     H43541   1.811   5.648   4.988  0.1825  0.1488 -0.4108
  316MOL0     H43542   1.962   5.689   5.058 -1.4072 -0.1429  2.0027
  316MOL0     H43543   1.990   5.855   4.889 -1.0850  2.0968 -1.4577
  316MOL0     H43544   1.934   5.693   4.812  1.2885 -3.1256  3.8259
  316MOL0     H43545   1.708   5.775   4.806  0.2169 -0.6167  0.7896
  316MOL0     H43546   1.752   5.934   4.858  1.1504  1.7797 -1.8539
  316MOL0     H43547   1.922   5.979   4.687  0.2871  0.3466 -3.2173
  316MOL0     H43548   1.868   5.822   4.610 -2.0207 -0.1520 -1.6755
  316MOL0     H43549   1.690   6.066   4.659 -1.3727 -0.9325 -0.4686
  316MOL0     H43550   1.650   5.912   4.577 -1.9987  1.6269 -1.6004
  316MOL0     H43551   1.858   5.949   4.421  0.8344  1.5686 -0.8930
  316MOL0     H43552   1.712   6.045   4.405  0.0479  4.9632  1.5322
  316MOL0     H43553   1.989   6.110   4.521  0.6296  0.6558 -1.4298
  316MOL0     H43554   1.864   6.214   4.575 -0.1264  3.6082 -3.7172
  316MOL0     H43555   1.982   6.295   4.392 -1.4546 -0.0667  0.7804
  316MOL0     H43556   1.897   6.189   4.281  1.7417  1.8319 -1.6007
  316MOL0     H43557   1.823   6.435   4.571  0.8475 -1.1364 -0.1404
  316MOL0     H43558   1.593   6.611   4.613 -1.7729  1.8341  0.9867
  316MOL0     H43559   1.494   6.638   4.470 -0.4106 -1.6773  0.3447
  316MOL0     H43560   1.756   6.754   4.549  1.0763  0.7468 -0.9872
  316MOL0     H43561   1.698   6.792   4.387  0.1062  4.0192  2.0677
  316MOL0     H43562   1.495   6.880   4.483 -0.1423  1.0289 -0.1576
  316MOL0     H43563   1.532   6.816   4.640 -0.0396 -1.6575 -1.7649
  316MOL0     H43564   1.758   6.981   4.616  0.3666 -0.7350 -0.9660
  316MOL0     H43565   1.629   7.067   4.522  2.0527 -0.9922 -1.2291
  316MOL0     H43566   1.396   7.001   4.876  1.6560 -0.3884 -0.6477
  316MOL0     H43567   1.105   7.227   4.979 -1.0170 -0.8476  2.6401
  316MOL0     H43568   1.242   7.152   5.051 -1.5053 -1.3602 -0.3028
  316MOL0     H43569   1.140   7.056   4.949  2.1689 -0.7252  0.0817
  316MOL0     H43570   0.853   7.302   4.739 -0.3038 -0.1574 -0.6098
  316MOL0     H43571   0.635   7.423   4.774 -0.3530 -0.8373 -4.0834
  316MOL0     H43572   0.631   7.884   4.874 -1.0217  1.6226  0.1355
  316MOL0     H43573   0.646   7.853   4.700 -3.2204  0.4121 -0.8621
  316MOL0     H43574   0.450   7.950   4.729  0.3590  1.5663  1.2873
  316MOL0     H43575   0.401   7.784   4.703  1.2040  3.0175 -4.1029
  316MOL0     H43576   0.431   7.896   4.989  0.7751 -0.5199 -0.3161
  316MOL0     H43577   0.373   7.729   4.943 -0.5951 -0.2077 -0.0194
  316MOL0     H43578   0.185   7.810   4.843 -0.1145 -0.9507  0.6703
  316MOL0     H43579   0.234   7.980   4.867  3.3857 -2.0453 -1.9203
  316MOL0     H43580   0.059   7.899   5.008  0.1623  1.2682 -1.7019
  316MOL0     H43581   0.177   7.794   5.090  0.4774  1.1032 -0.5487
  316MOL0     H43582   0.197   8.099   5.073 -0.2322  2.6615  4.5047
  316MOL0     H43583   0.291   7.988   5.184  0.2267  0.0271 -0.3102
  316MOL0     H43584   0.066   7.925   5.273 -4.0883 -1.2267 -1.8783
  316MOL0     H43585   0.002   8.054   5.171 -0.0555  0.5843  0.6713
  316MOL0     H43586   0.044   8.158   5.385 -1.0141  1.4051 -1.2107
  316MOL0     H43587   0.174   8.212   5.280  1.2941 -1.1956 -0.1386
  316MOL0     H43588   0.847   7.800   4.731 -2.2298 -1.1273 -2.7306
  316MOL0     H43589   1.064   7.675   4.703  0.3928  0.2115  2.9628
  316MOL0     H43590   1.375   7.436   4.635 -0.4515  0.0689  0.0094
  316MOL0     H43591   1.548   7.261   4.575 -0.7250  0.3656 -1.2727
  316MOL0     H43592   1.715   6.036   5.183 -0.1160  1.6632 -2.0599
  316MOL0     H43593   1.818   6.247   5.248 -0.0185  1.9329 -2.8715
  316MOL0     H43594   2.143   6.273   5.716 -0.9023  0.8968  0.3526
  316MOL0     H43595   2.283   6.434   5.834  2.9183 -1.3609 -0.4150
  316MOL0     H43596   2.318   6.654   5.885  0.3333 -1.5387  0.7159
  316MOL0     H43597   2.462   6.565   5.916 -1.5736 -1.7548 -1.2026
  316MOL0     H43598   2.465   6.844   5.807 -0.0824 -2.6964 -1.7414
  316MOL0     H43599   2.607   6.769   5.881  0.0590 -0.9113  0.6647
  316MOL0     H43600   2.369   6.867   6.050 -0.2480  0.0388  0.9171
  316MOL0     H43601   2.496   6.753   6.094  0.5235  1.2796  2.4191
  316MOL0     H43602   2.537   7.042   5.988 -1.0780  0.6076  0.5012
  316MOL0     H43603   2.670   6.962   6.071  0.4427 -0.0855 -2.6966
  316MOL0     H43604   2.410   7.163   6.339  0.8900 -1.8537  2.6908
  316MOL0     H43605   2.412   6.612   5.475  1.1085 -0.9661 -0.6417
  316MOL0     H43606   2.310   6.353   5.271 -0.9936 -0.6313 -1.1379
  316MOL0     H43607   2.195   6.476   5.253 -0.4292  3.0471  1.6305
  316MOL0     H43608   2.362   6.535   5.287 -0.6653 -0.2275  0.8693
  317MOL0     O43609   1.024   8.217   7.112 -0.0658  0.5863 -0.0148
  317MOL0     C43610   0.921   8.192   7.173  0.4169  0.2074  0.3285
  317MOL0     O43611   0.853   8.273   7.268  1.0023  0.1834 -0.4822
  317MOL0     C43612   0.913   8.393   7.297  0.2172  0.9000 -0.9327
  317MOL0     C43613   0.860   8.525   7.273 -0.7056  0.0474 -0.4823
  317MOL0     C43614   0.938   8.641   7.304 -0.3449 -0.1069  0.4680
  317MOL0     C43615   1.062   8.631   7.367 -0.1903  0.2719  0.3935
  317MOL0     O43616   1.141   8.741   7.376  0.1234  0.4696 -1.0262
  317MOL0     C43617   1.101   8.836   7.479 -0.1872  0.3641 -0.1645
  317MOL0     C43618   1.172   8.960   7.457 -0.6357  0.8910 -0.9517
  317MOL0     C43619   1.156   9.033   7.590 -0.1634 -0.3805 -0.2120
  317MOL0     C43620   1.020   9.101   7.599  0.3698 -0.0095  1.0979
  317MOL0     C43621   0.995   9.184   7.729  1.1913 -0.9707 -0.5661
  317MOL0     C43622   1.106   9.260   7.781  0.3671  0.1582 -0.3625
  317MOL0     C43623   1.051   9.328   7.913  0.3302 -1.1421 -0.6590
  317MOL0     C43624   1.159   9.374   8.009 -0.2131 -0.6236  0.3102
  317MOL0     N43625   1.218   9.495   7.949 -0.0632  0.0172 -0.1283
  317MOL0     C43626   1.328   9.506   7.870  0.0510 -0.7175 -0.4227
  317MOL0     C43627   1.347   9.638   7.855 -0.8841  0.8253 -0.0877
  317MOL0     C43628   1.465   9.696   7.785  0.4009  0.3010  0.9794
  317MOL0     C43629   1.571   9.750   7.890 -0.5835  0.4571  0.5625
  317MOL0     C43630   1.624   9.639   7.984  0.1184  0.0794 -0.5131
  317MOL0     C43631   1.687   9.519   7.919  0.4830 -0.8104 -0.2230
  317MOL0     O43632   1.776   9.455   8.009  0.0536  0.0181 -0.4827
  317MOL0     C43633   1.843   9.350   7.954 -0.2040 -0.4145 -0.8077
  317MOL0     C43634   1.932   9.281   8.040  0.0019 -0.3940  0.5297
  317MOL0     C43635   2.006   9.168   7.998 -0.2970  0.7495  1.1637
  317MOL0     C43636   2.119   9.106   8.078  0.5403  0.5494  0.1403
  317MOL0     C43637   1.977   9.111   7.867  0.7319 -0.7003  0.3605
  317MOL0     C43638   2.035   8.978   7.822  0.3364 -0.3809 -0.1871
  317MOL0     O43639   2.011   8.960   7.690  0.2495 -0.4788  0.6163
  317MOL0     C43640   2.060   8.852   7.623  0.2155 -0.2131  0.4893
  317MOL0     C43641   2.201   8.811   7.630  0.5623 -0.4305 -0.3744
  317MOL0     C43642   2.250   8.724   7.537  0.0746  0.8506 -0.9010
  317MOL0     C43643   2.177   8.675   7.427  1.1189  0.2083 -0.0029
  317MOL0     O43644   2.229   8.588   7.335 -0.0517  0.4329  0.5021
  317MOL0     C43645   2.358   8.532   7.354  0.0893  0.3504  0.0134
  317MOL0     C43646   2.378   8.433   7.233 -0.0876  0.5237 -0.0234
  317MOL0     C43647   2.304   8.300   7.255 -0.0549 -0.6798 -0.3907
  317MOL0     C43648   2.371   8.205   7.356 -0.1858 -0.3216  1.0366
  317MOL0     C43649   2.278   8.094   7.413  0.2749  0.2771  0.4376
  317MOL0     C43650   2.332   8.008   7.533  0.2672 -0.1233 -0.4095
  317MOL0     C43651   2.487   8.023   7.571  0.0529 -0.4242 -0.3736
  317MOL0     C43652   2.533   7.949   7.698 -0.0770  0.3133 -0.6347
  317MOL0    Cl43653   2.451   8.025   7.836 -0.3542  0.5272 -0.6892
  317MOL0     C43654   2.034   8.694   7.435 -0.1116 -0.4517 -0.2258
  317MOL0     C43655   1.986   8.793   7.523 -0.5009  0.1477  0.1939
  317MOL0     O43656   2.082   8.891   7.899 -0.0365 -0.1070 -0.1951
  317MOL0     C43657   1.898   9.184   7.780 -0.4382 -0.3033 -0.3846
  317MOL0     C43658   1.826   9.296   7.830 -0.6351  0.3649  0.8810
  317MOL0     N43659   1.248   9.707   7.912  0.2482  0.8033  0.1510
  317MOL0     N43660   1.172   9.623   7.972 -0.1213  0.4971  0.8243
  317MOL0     C43661   1.110   8.498   7.395 -0.5356 -0.5600  0.7021
  317MOL0     C43662   1.039   8.385   7.362 -0.2902  0.2423 -0.0843
  317MOL0     C43663   0.858   8.064   7.121  0.9702  0.1768  0.1895
  317MOL0     C43664   0.876   8.021   6.986  0.5850 -0.3947 -0.3794
  317MOL0     C43665   0.843   7.890   6.938 -0.3228  0.3792 -0.4423
  317MOL0     C43666   0.766   7.810   7.027 -0.0121  0.1354  0.7022
  317MOL0     O43667   0.717   7.686   6.985  0.2715  0.1088 -0.0928
  317MOL0     C43668   0.598   7.630   7.048 -0.2055  0.2763 -0.1902
  317MOL0     C43669   0.643   7.526   7.151  0.1322  0.1552  0.0887
  317MOL0     C43670   0.518   7.466   7.224  0.4604  0.6077  0.0517
  317MOL0     C43671   0.559   7.332   7.279 -0.1199  0.2076 -0.4229
  317MOL0     C43672   0.561   7.231   7.169 -0.6406  0.2259  0.9288
  317MOL0     C43673   0.575   7.135   7.092 -0.0102 -0.8432  0.6643
  317MOL0     C43674   0.732   7.862   7.154  1.4562  0.4151 -0.1174
  317MOL0     C43675   0.782   7.983   7.201  0.7005  0.3988 -0.7211
  317MOL0     C43676   0.756   8.013   7.357 -0.3387  0.1247  0.0893
  317MOL0     H43677   0.767   8.545   7.220  0.7552 -1.5920 -3.9355
  317MOL0     H43678   0.903   8.734   7.260  3.1834  1.1318  0.0043
  317MOL0     H43679   1.120   8.785   7.575  0.5166 -1.2782 -1.1291
  317MOL0     H43680   0.994   8.855   7.469 -0.0680  0.5343 -1.2458
  317MOL0     H43681   1.275   8.928   7.440 -1.3245 -0.3981 -3.0867
  317MOL0     H43682   1.134   9.018   7.373 -1.8013  0.9965 -0.3799
  317MOL0     H43683   1.179   8.960   7.667  1.1175  0.0980 -0.1104
  317MOL0     H43684   1.242   9.100   7.594 -1.0940  0.8162  0.3742
  317MOL0     H43685   1.022   9.172   7.516  1.4246 -1.1714  0.0853
  317MOL0     H43686   0.931   9.039   7.586 -1.0473  1.9247  1.1503
  317MOL0     H43687   0.964   9.117   7.810 -0.1329  0.1418 -0.1164
  317MOL0     H43688   0.911   9.251   7.711  0.7152 -1.2308  0.5901
  317MOL0     H43689   1.195   9.199   7.795 -0.9612 -1.6817  0.4061
  317MOL0     H43690   1.130   9.336   7.705 -1.3957  1.2659  0.1272
  317MOL0     H43691   1.006   9.247   7.971  0.3243 -1.5529 -1.2257
  317MOL0     H43692   0.988   9.414   7.892  2.7676  1.2980  1.3208
  317MOL0     H43693   1.129   9.410   8.108  0.0526  2.6602 -0.6732
  317MOL0     H43694   1.236   9.298   8.020  2.6102  2.1229  0.9146
  317MOL0     H43695   1.405   9.436   7.837  1.1734  0.4575 -0.3587
  317MOL0     H43696   1.433   9.780   7.722 -2.4420 -1.5769 -0.3191
  317MOL0     H43697   1.504   9.611   7.727  2.4128  0.0283  2.6139
  317MOL0     H43698   1.654   9.799   7.838  0.2219 -2.3416 -1.0526
  317MOL0     H43699   1.525   9.821   7.958 -1.9263  0.8746 -0.7365
  317MOL0     H43700   1.697   9.688   8.049 -1.3888  1.7755  0.0023
  317MOL0     H43701   1.540   9.611   8.049 -0.9427  3.3289 -0.3007
  317MOL0     H43702   1.604   9.452   7.898 -3.4707  2.9021  2.0330
  317MOL0     H43703   1.741   9.541   7.826  2.2746 -1.2894  0.6560
  317MOL0     H43704   1.951   9.329   8.135 -1.5584  1.2122  0.0666
  317MOL0     H43705   2.083   9.014   8.125 -0.9189  0.8839 -0.2774
  317MOL0     H43706   2.144   9.181   8.154  0.7685 -0.4045  1.0275
  317MOL0     H43707   2.215   9.095   8.026  1.6763  0.6657  2.1085
  317MOL0     H43708   2.260   8.852   7.712  1.0625  0.6180 -1.2276
  317MOL0     H43709   2.352   8.690   7.552 -0.4194  0.0919  1.0431
  317MOL0     H43710   2.419   8.621   7.337  2.3483 -0.9161  1.0710
  317MOL0     H43711   2.388   8.489   7.450 -0.1781  4.4670  2.1509
  317MOL0     H43712   2.340   8.483   7.143  0.6562 -1.5673 -1.5876
  317MOL0     H43713   2.485   8.414   7.220  1.0309  3.9753  2.6470
  317MOL0     H43714   2.285   8.253   7.159 -0.4604  1.0210 -1.1784
  317MOL0     H43715   2.214   8.344   7.300  0.8054  0.7345  0.0106
  317MOL0     H43716   2.420   8.261   7.436 -1.3212  1.2803  0.6497
  317MOL0     H43717   2.452   8.144   7.314  0.8295 -0.2675  2.7911
  317MOL0     H43718   2.184   8.144   7.438  0.5705  0.9558  0.2001
  317MOL0     H43719   2.250   8.019   7.338  0.8196 -0.5997  1.0961
  317MOL0     H43720   2.306   7.902   7.524 -1.7566  0.2742  0.0934
  317MOL0     H43721   2.263   8.035   7.614 -1.3438 -2.3647 -0.9247
  317MOL0     H43722   2.511   8.127   7.598  1.3561 -0.4911 -1.1807
  317MOL0     H43723   2.533   7.984   7.480 -4.6735  1.0224 -3.8063
  317MOL0     H43724   2.639   7.950   7.725 -0.2010  0.0646 -0.1265
  317MOL0     H43725   2.507   7.843   7.699 -0.5033  0.2751  3.4473
  317MOL0     H43726   1.976   8.654   7.353  1.9126  0.8207 -2.4122
  317MOL0     H43727   1.886   8.835   7.511 -1.0421 -0.4164  2.3315
  317MOL0     H43728   1.874   9.142   7.683 -0.0956  1.4421 -1.2678
  317MOL0     H43729   1.751   9.318   7.754 -1.8503 -1.3229  1.4990
  317MOL0     H43730   1.213   8.510   7.428 -0.4806  1.3890 -0.0985
  317MOL0     H43731   1.084   8.289   7.384  0.5705  0.7300  0.3343
  317MOL0     H43732   0.933   8.079   6.914 -0.7527  1.4664 -0.0301
  317MOL0     H43733   0.874   7.857   6.839 -0.1614 -0.2635 -0.1776
  317MOL0     H43734   0.526   7.698   7.094 -1.9531 -1.9240  0.4641
  317MOL0     H43735   0.546   7.575   6.969 -1.2415 -0.1786  0.7841
  317MOL0     H43736   0.717   7.577   7.214  2.2000  1.9064 -3.4053
  317MOL0     H43737   0.706   7.449   7.107  0.4651  0.8371 -0.6633
  317MOL0     H43738   0.482   7.538   7.298  1.4244  0.2112  0.9247
  317MOL0     H43739   0.439   7.444   7.152  1.9348 -2.5774 -0.7708
  317MOL0     H43740   0.479   7.305   7.349 -0.1561 -1.5160 -1.0725
  317MOL0     H43741   0.650   7.343   7.340 -2.7892  1.6608  3.7792
  317MOL0     H43742   0.576   7.044   7.035 -1.9491 -1.8105  2.0276
  317MOL0     H43743   0.671   7.805   7.223 -1.6524  2.3313 -1.0665
  317MOL0     H43744   0.849   8.011   7.414 -0.0889 -1.7230 -0.3101
  317MOL0     H43745   0.714   8.114   7.365  1.8948  1.1413 -0.2926
  317MOL0     H43746   0.681   7.944   7.396  0.8231 -0.1189  1.9870
  318MOL0     O43747   7.249   1.461   7.959  0.3620  0.0932  0.7889
  318MOL0     C43748   7.312   1.422   8.057  0.6562  1.0612  0.2366
  318MOL0     O43749   7.292   1.457   8.183 -0.0255 -0.3056  0.4397
  318MOL0     C43750   7.194   1.551   8.215  0.3176 -0.0036 -0.5171
  318MOL0     C43751   7.190   1.674   8.162  0.6449 -0.2259  0.2926
  318MOL0     C43752   7.085   1.759   8.211  0.0514 -0.2213  0.4174
  318MOL0     C43753   6.998   1.716   8.318  0.3066  0.0763  0.5143
  318MOL0     O43754   6.888   1.792   8.359 -0.5580  0.1329 -0.0579
  318MOL0     C43755   6.761   1.720   8.350  0.9697  0.7382  0.3414
  318MOL0     C43756   6.659   1.814   8.398 -0.6360  0.0289  0.6610
  318MOL0     C43757   6.526   1.753   8.379 -0.4775 -0.1906  0.6813
  318MOL0     C43758   6.412   1.842   8.432 -0.0364 -0.0071  0.0867
  318MOL0     C43759   6.283   1.768   8.404 -1.7957 -0.2898  0.4885
  318MOL0     C43760   6.158   1.836   8.480  0.4790  0.0755  1.2784
  318MOL0     C43761   6.023   1.755   8.459 -0.3661 -0.5373  0.4248
  318MOL0     C43762   5.890   1.837   8.481 -0.6385 -0.1841 -0.8874
  318MOL0     N43763   5.900   1.911   8.615 -0.5726 -1.2866 -0.2169
  318MOL0     C43764   5.869   2.051   8.626 -0.4932  0.0382 -0.6916
  318MOL0     C43765   5.862   2.075   8.759 -0.4379  0.5221  0.4888
  318MOL0     C43766   5.847   2.210   8.808  0.5139 -0.2482  0.5592
  318MOL0     C43767   5.700   2.240   8.848  0.3297 -1.2243  0.1025
  318MOL0     C43768   5.674   2.389   8.874  0.4392  0.4893 -0.2798
  318MOL0     C43769   5.641   2.468   8.740 -0.3967 -0.1989  0.6223
  318MOL0     O43770   5.596   2.592   8.782 -0.1862 -0.1283 -0.7119
  318MOL0     C43771   5.577   2.690   8.690 -0.5098 -0.0007 -0.3941
  318MOL0     C43772   5.553   2.811   8.741  0.3923 -1.1458  0.4346
  318MOL0     C43773   5.534   2.932   8.659  1.1225 -0.3668  0.0594
  318MOL0     C43774   5.548   3.067   8.725  0.4305  0.0389  0.1685
  318MOL0     C43775   5.501   2.905   8.516 -0.0044 -0.5501 -0.0505
  318MOL0     C43776   5.454   3.005   8.416 -0.3779 -0.5086 -0.5217
  318MOL0     O43777   5.410   2.953   8.300 -0.2167 -0.5004  0.1691
  318MOL0     C43778   5.339   3.032   8.212  0.1403 -0.8746  0.3465
  318MOL0     C43779   5.359   3.007   8.076 -0.4650  0.0768  0.2608
  318MOL0     C43780   5.294   3.074   7.976  0.0680  0.1580 -0.5313
  318MOL0     C43781   5.192   3.163   8.012 -0.2620 -0.2637  0.1724
  318MOL0     O43782   5.116   3.243   7.928 -0.6382  0.6701 -0.4351
  318MOL0     C43783   5.099   3.205   7.792  1.3947 -0.7820  0.0003
  318MOL0     C43784   4.963   3.125   7.778 -0.6703 -0.3376  0.0102
  318MOL0     C43785   4.937   3.012   7.877 -0.3047 -0.4570 -1.0376
  318MOL0     C43786   4.798   2.940   7.851 -0.0453 -0.1075  0.4964
  318MOL0     C43787   4.777   2.826   7.957  0.3867 -0.5959  0.3916
  318MOL0     C43788   4.631   2.782   7.948  0.1412  0.4469  0.5206
  318MOL0     C43789   4.576   2.728   8.087  0.7305  0.8986  0.6816
  318MOL0     C43790   4.430   2.681   8.082  0.5324 -1.0906  0.4304
  318MOL0    Cl43791   4.402   2.551   7.970  0.4082 -0.1314 -0.3452
  318MOL0     C43792   5.177   3.193   8.145  0.4836  0.0833  0.4229
  318MOL0     C43793   5.237   3.122   8.248 -0.0192 -0.9736 -0.4187
  318MOL0     O43794   5.459   3.125   8.441 -0.1626 -0.0437 -0.3601
  318MOL0     C43795   5.526   2.774   8.470 -0.0363 -0.5090  0.8027
  318MOL0     C43796   5.570   2.676   8.549 -0.5384 -0.4118 -0.3659
  318MOL0     N43797   5.898   1.965   8.822  0.0344  0.3758  0.3771
  318MOL0     N43798   5.915   1.864   8.739  0.6003 -0.6323 -0.1817
  318MOL0     C43799   7.014   1.588   8.367  0.2303 -0.0553 -0.3811
  318MOL0     C43800   7.114   1.505   8.319 -0.2683 -0.8910  0.0592
  318MOL0     C43801   7.416   1.311   8.044  0.0463 -0.4522  0.6460
  318MOL0     C43802   7.395   1.211   7.940  0.1756  0.4594 -0.3164
  318MOL0     C43803   7.484   1.112   7.915  0.0992 -0.5513 -0.0347
  318MOL0     C43804   7.597   1.103   7.987 -0.7610  0.0315 -0.1078
  318MOL0     O43805   7.684   1.004   7.952 -0.3320  0.4538  0.2587
  318MOL0     C43806   7.828   1.005   7.975 -0.1023 -0.1342  0.5657
  318MOL0     C43807   7.872   0.863   7.950  0.4622  0.4652  0.1969
  318MOL0     C43808   7.875   0.833   7.794  0.0273 -0.4231 -1.0340
  318MOL0     C43809   8.012   0.867   7.738  0.1734  0.6189  0.1215
  318MOL0     C43810   8.009   0.849   7.591 -0.4284  0.1813  0.1213
  318MOL0     C43811   8.039   0.819   7.476 -0.7457  0.4276 -0.0065
  318MOL0     C43812   7.625   1.186   8.092  0.4992 -0.2675 -0.7370
  318MOL0     C43813   7.531   1.292   8.125 -0.0052  0.1454  0.4800
  318MOL0     C43814   7.568   1.372   8.247  0.4359  0.5696  0.5983
  318MOL0     H43815   7.255   1.711   8.083 -2.2488  0.0769 -2.1429
  318MOL0     H43816   7.075   1.867   8.201  0.9125 -0.2434 -0.9300
  318MOL0     H43817   6.752   1.638   8.421  1.2851 -1.2298 -1.7642
  318MOL0     H43818   6.742   1.689   8.247 -0.2040  0.0485  0.7498
  318MOL0     H43819   6.686   1.842   8.500  3.1770  0.0978 -0.2441
  318MOL0     H43820   6.672   1.904   8.336  1.8994  0.1061  1.2329
  318MOL0     H43821   6.506   1.744   8.271  0.6835  1.6584  0.2595
  318MOL0     H43822   6.514   1.652   8.419 -1.3022  0.3462  1.8514
  318MOL0     H43823   6.423   1.848   8.541 -1.9613 -1.4986  0.4251
  318MOL0     H43824   6.416   1.939   8.383 -3.8233  0.8889  1.1950
  318MOL0     H43825   6.271   1.665   8.439 -2.5583  0.0474  1.2583
  318MOL0     H43826   6.267   1.757   8.296 -2.6865 -4.2332  0.8834
  318MOL0     H43827   6.176   1.833   8.588 -1.4340  1.6119  1.6936
  318MOL0     H43828   6.145   1.938   8.443 -0.4146  0.6235  3.0199
  318MOL0     H43829   6.030   1.666   8.522 -0.6714 -0.7558  0.1497
  318MOL0     H43830   6.021   1.704   8.363 -2.3067 -3.4542  1.8531
  318MOL0     H43831   5.873   1.907   8.399  1.2992  0.5142 -0.7517
  318MOL0     H43832   5.805   1.771   8.500  0.5238 -1.1250  1.5745
  318MOL0     H43833   5.848   2.115   8.542  1.7529  0.6804 -0.8407
  318MOL0     H43834   5.876   2.279   8.728 -0.6061 -3.3677 -2.7969
  318MOL0     H43835   5.906   2.219   8.900  0.2158 -2.7526  1.0467
  318MOL0     H43836   5.632   2.202   8.771 -2.0801  1.3174  0.7885
  318MOL0     H43837   5.678   2.190   8.943 -0.8015  2.1706  1.7957
  318MOL0     H43838   5.587   2.400   8.939 -1.7916 -1.6057 -2.6871
  318MOL0     H43839   5.767   2.421   8.923  1.6882  0.4179 -2.4754
  318MOL0     H43840   5.728   2.488   8.678 -1.1776 -0.8464 -0.7243
  318MOL0     H43841   5.564   2.421   8.678  0.9636 -0.3854 -0.9572
  318MOL0     H43842   5.573   2.825   8.847  0.4680 -3.4382  0.7771
  318MOL0     H43843   5.562   3.074   8.833  1.1587 -2.0926  0.2515
  318MOL0     H43844   5.456   3.126   8.713 -0.4695 -0.4148  3.6760
  318MOL0     H43845   5.627   3.117   8.668  0.5468 -0.6381 -0.2761
  318MOL0     H43846   5.445   2.951   8.041  1.3100  1.4739  2.1051
  318MOL0     H43847   5.312   3.062   7.870  1.5471  2.8526 -0.6505
  318MOL0     H43848   5.094   3.293   7.727  2.6231 -1.5558 -1.1962
  318MOL0     H43849   5.173   3.137   7.748  1.3519 -0.4721 -0.5680
  318MOL0     H43850   4.883   3.198   7.795  0.6104  1.2781 -0.6778
  318MOL0     H43851   4.960   3.083   7.677 -0.1287 -0.6639  0.1267
  318MOL0     H43852   4.925   3.051   7.978 -0.3799 -2.3031 -0.3076
  318MOL0     H43853   5.020   2.941   7.880 -0.2772 -0.3937  1.3355
  318MOL0     H43854   4.803   2.895   7.751  2.5843 -1.8168  1.2825
  318MOL0     H43855   4.721   3.016   7.865 -0.3400 -0.5168  1.1371
  318MOL0     H43856   4.835   2.737   7.933  0.3945 -0.9270  1.5408
  318MOL0     H43857   4.788   2.863   8.060 -0.9344  0.6591  0.1263
  318MOL0     H43858   4.613   2.697   7.882 -0.1311  2.4630 -2.1558
  318MOL0     H43859   4.572   2.869   7.915  0.1792  0.2136 -0.1846
  318MOL0     H43860   4.586   2.804   8.165  1.3633  0.9821  0.5252
  318MOL0     H43861   4.646   2.649   8.116  1.5437  1.3536  0.0024
  318MOL0     H43862   4.373   2.767   8.045  0.1398 -1.1349  0.9310
  318MOL0     H43863   4.384   2.638   8.171  0.0511 -2.8185 -0.5947
  318MOL0     H43864   5.096   3.263   8.162 -0.8838 -0.2167 -3.7090
  318MOL0     H43865   5.206   3.142   8.350 -0.3921 -2.1915 -0.2753
  318MOL0     H43866   5.516   2.760   8.363  1.3709  1.4024  0.3644
  318MOL0     H43867   5.574   2.583   8.494 -1.5490  0.1519 -1.4344
  318MOL0     H43868   6.954   1.538   8.442  0.6071 -0.4954 -0.3715
  318MOL0     H43869   7.134   1.403   8.350  2.4986 -1.6705 -3.6295
  318MOL0     H43870   7.306   1.211   7.878  0.3396  2.9053 -0.6618
  318MOL0     H43871   7.449   1.041   7.840  2.6076 -0.7718 -1.1209
  318MOL0     H43872   7.886   1.084   7.927  0.7782 -1.4269 -0.5649
  318MOL0     H43873   7.842   1.024   8.082  3.5900  0.5795  0.0998
  318MOL0     H43874   7.791   0.802   7.992 -0.9989  1.1020 -1.5317
  318MOL0     H43875   7.965   0.841   8.002  0.0713 -1.9087 -0.0006
  318MOL0     H43876   7.873   0.724   7.792  2.0324 -0.5377  0.0815
  318MOL0     H43877   7.793   0.887   7.747  0.0749  0.0177 -0.6150
  318MOL0     H43878   8.084   0.794   7.776 -1.2960 -0.5308  0.8092
  318MOL0     H43879   8.031   0.972   7.762 -1.8797  1.5205 -1.8867
  318MOL0     H43880   8.064   0.786   7.377  0.0308 -0.4961  0.4796
  318MOL0     H43881   7.715   1.180   8.151  0.9071  0.4898 -1.2659
  318MOL0     H43882   7.584   1.475   8.214 -2.8378  0.6412 -1.1988
  318MOL0     H43883   7.489   1.369   8.323 -2.6377  1.3633 -2.3149
  318MOL0     H43884   7.660   1.335   8.293 -0.2414 -1.9441  0.0383
  319MOL0     O43885  11.464  11.098   9.461  0.3832 -0.5383 -0.5056
  319MOL0     C43886  11.377  11.174   9.497  0.5443 -0.0596 -0.7600
  319MOL0     O43887  11.289  11.235   9.421  0.4346 -0.5184 -0.1253
  319MOL0     C43888  11.298  11.204   9.283  0.3586  0.1889 -1.0066
  319MOL0     C43889  11.191  11.133   9.218  0.6168  0.1655 -0.0675
  319MOL0     C43890  11.200  11.110   9.085 -0.3933 -1.0992  0.5856
  319MOL0     C43891  11.315  11.149   9.012  0.3105 -0.4704  0.1637
  319MOL0     O43892  11.335  11.126   8.877  0.9728 -0.0826 -0.2920
  319MOL0     C43893  11.289  10.998   8.836  0.0240 -0.5458 -0.1019
  319MOL0     C43894  11.398  10.925   8.748  1.6220 -0.2231  0.2567
  319MOL0     C43895  11.524  10.900   8.818 -0.2695 -0.0270  0.3271
  319MOL0     C43896  11.623  10.814   8.742 -0.7286 -0.2697  0.4428
  319MOL0     C43897  11.708  10.724   8.833  0.2231  1.1881  0.6858
  319MOL0     C43898  11.796  10.786   8.938  0.3043  0.4431 -0.3984
  319MOL0     C43899  11.917  10.695   8.979 -0.6921  0.3766 -0.0862
  319MOL0     C43900  12.016  10.772   9.059 -0.7661 -0.1183  0.1676
  319MOL0     N43901  12.082  10.876   8.976 -0.9708 -0.2378  0.1512
  319MOL0     C43902  12.083  11.018   8.986  0.2225  1.0422 -1.4919
  319MOL0     C43903  12.184  11.057   8.908  0.3017  0.6243 -0.2041
  319MOL0     C43904  12.233  11.196   8.904 -1.2337 -0.0335  0.5552
  319MOL0     C43905  12.144  11.281   8.821 -0.6196 -0.3463 -1.0902
  319MOL0     C43906  12.136  11.251   8.679 -0.1103  0.0469  0.0808
  319MOL0     C43907  12.051  11.128   8.651  0.0703 -1.0984 -0.7534
  319MOL0     O43908  11.960  11.136   8.543 -1.3636 -0.2322  0.6704
  319MOL0     C43909  12.003  11.111   8.412  0.4218 -0.0229 -0.0030
  319MOL0     C43910  11.935  11.176   8.311  0.6469  1.6448  1.0592
  319MOL0     C43911  11.966  11.152   8.178  0.6036 -0.8941  0.4470
  319MOL0     C43912  11.894  11.231   8.072 -0.1833  0.1775  0.7366
  319MOL0     C43913  12.077  11.067   8.143  0.0780 -1.1508  0.2532
  319MOL0     C43914  12.101  11.007   8.008 -0.9328 -0.6703 -0.1509
  319MOL0     O43915  12.107  11.097   7.903  0.1567  0.3275  0.0685
  319MOL0     C43916  12.119  11.046   7.781 -0.4206  0.3123  0.5456
  319MOL0     C43917  12.229  11.087   7.713  1.0685  0.1905 -0.3698
  319MOL0     C43918  12.245  11.039   7.581  0.5374 -0.1880 -0.4426
  319MOL0     C43919  12.138  10.972   7.513 -0.9693  0.0566 -0.4504
  319MOL0     O43920  12.143  10.952   7.375  0.6969  0.0696 -0.9902
  319MOL0     C43921  12.023  10.968   7.294  0.0554  0.4491 -0.1231
  319MOL0     C43922  11.967  11.108   7.277  0.5996  0.6019 -0.3010
  319MOL0     C43923  11.868  11.163   7.387 -0.9204  0.3995 -0.1991
  319MOL0     C43924  11.937  11.278   7.468  0.2934 -0.1429 -0.0210
  319MOL0     C43925  11.844  11.310   7.581 -0.4259  0.6795 -1.0445
  319MOL0     C43926  11.860  11.456   7.646 -0.6547 -0.3819 -0.3406
  319MOL0     C43927  11.772  11.461   7.774 -0.2679  0.6158 -1.0416
  319MOL0     C43928  11.753  11.606   7.829  0.6449 -0.0247  0.3474
  319MOL0    Cl43929  11.632  11.669   7.719 -0.2759 -0.0239 -0.1490
  319MOL0     C43930  12.032  10.926   7.584 -0.7768  0.0808  0.3406
  319MOL0     C43931  12.024  10.964   7.718 -0.4520 -0.0770 -0.1049
  319MOL0     O43932  12.150  10.896   8.010 -0.1953  0.0736  0.2901
  319MOL0     C43933  12.163  11.026   8.249 -0.6314  0.0317  0.1317
  319MOL0     C43934  12.123  11.055   8.377 -0.7585 -0.0287  0.0683
  319MOL0     N43935  12.240  10.944   8.851 -0.2617  0.4480  0.8049
  319MOL0     N43936  12.180  10.836   8.890 -0.7071 -0.1131 -0.4879
  319MOL0     C43937  11.429  11.206   9.080  0.1221  0.4484 -0.0132
  319MOL0     C43938  11.419  11.234   9.216  0.1525 -0.4592  0.9164
  319MOL0     C43939  11.371  11.223   9.633  0.6334  0.7845  0.3812
  319MOL0     C43940  11.362  11.364   9.659  0.1325 -0.0320  0.5392
  319MOL0     C43941  11.367  11.422   9.784 -0.7291 -0.1726  0.1089
  319MOL0     C43942  11.380  11.350   9.896 -0.1987 -0.5233 -0.4214
  319MOL0     O43943  11.397  11.412  10.016  0.7736  0.4590 -0.4668
  319MOL0     C43944  11.307  11.391  10.119 -0.5748 -0.0696 -0.3076
  319MOL0     C43945  11.382  11.358  10.252  0.0783  0.0121 -0.0097
  319MOL0     C43946  11.288  11.301  10.368 -1.0094 -0.9335 -0.6973
  319MOL0     C43947  11.342  11.331  10.513 -0.2554 -0.7225  0.9282
  319MOL0     C43948  11.469  11.262  10.519  0.2513  1.5889  1.4545
  319MOL0     C43949  11.582  11.209  10.527  1.5811 -0.6423 -0.0069
  319MOL0     C43950  11.402  11.209   9.873 -0.0482 -0.0582 -0.1825
  319MOL0     C43951  11.394  11.143   9.747 -1.2324  0.7172 -0.4686
  319MOL0     C43952  11.416  10.992   9.755 -0.6898 -0.2964 -0.1143
  319MOL0     H43953  11.096  11.123   9.271 -0.0627 -0.1952 -1.3012
  319MOL0     H43954  11.108  11.086   9.031  0.3536  0.4639 -1.5607
  319MOL0     H43955  11.199  11.015   8.776 -1.2820  2.7079  2.4584
  319MOL0     H43956  11.256  10.941   8.923 -2.0961 -0.0694 -0.5366
  319MOL0     H43957  11.351  10.839   8.700 -0.6402  1.0057  0.0924
  319MOL0     H43958  11.419  10.991   8.663  1.1807  2.3634  2.0248
  319MOL0     H43959  11.578  10.991   8.847  0.8086 -0.5914  0.1410
  319MOL0     H43960  11.492  10.854   8.912  1.3924 -1.2761  0.3354
  319MOL0     H43961  11.563  10.747   8.679  0.6985 -0.5620 -0.6649
  319MOL0     H43962  11.695  10.875   8.688 -0.1544 -1.2631  0.0518
  319MOL0     H43963  11.765  10.671   8.756 -0.1711  1.5001  0.1799
  319MOL0     H43964  11.648  10.642   8.876 -0.5317  2.2032  1.6170
  319MOL0     H43965  11.832  10.879   8.894  0.7958  0.1901 -0.5438
  319MOL0     H43966  11.741  10.806   9.030 -0.0774 -1.7614 -0.0976
  319MOL0     H43967  11.962  10.645   8.892  1.6499  1.8104  0.2185
  319MOL0     H43968  11.874  10.616   9.040  1.1861 -1.0998 -0.5704
  319MOL0     H43969  11.959  10.827   9.135 -3.9552  2.0859 -3.4212
  319MOL0     H43970  12.097  10.713   9.103  1.6257  0.0116 -3.6272
  319MOL0     H43971  12.021  11.076   9.053 -1.6050 -1.9515 -0.3566
  319MOL0     H43972  12.335  11.196   8.863 -1.6675  0.7582 -0.5766
  319MOL0     H43973  12.255  11.235   9.004 -3.3288  2.0438  0.3006
  319MOL0     H43974  12.051  11.286   8.878  0.4831  0.7943  0.6977
  319MOL0     H43975  12.169  11.387   8.819 -3.5919  0.4182 -1.9576
  319MOL0     H43976  12.091  11.335   8.625  2.0102  1.4735  0.4342
  319MOL0     H43977  12.235  11.237   8.635  0.0226  2.5555 -0.5821
  319MOL0     H43978  12.108  11.034   8.656  0.9115 -0.6207  4.5964
  319MOL0     H43979  11.982  11.109   8.734 -1.1310 -2.3768 -1.9739
  319MOL0     H43980  11.852  11.238   8.343 -2.5998 -1.6576 -0.1882
  319MOL0     H43981  11.969  11.291   8.019 -1.2386 -0.1130 -1.1926
  319MOL0     H43982  11.822  11.299   8.118  1.5037  2.9182 -0.4001
  319MOL0     H43983  11.838  11.171   8.000  2.4278 -0.4350 -0.9452
  319MOL0     H43984  12.297  11.164   7.750  2.4228 -1.9053  1.8114
  319MOL0     H43985  12.330  11.070   7.522  0.5877 -2.8260 -1.9389
  319MOL0     H43986  12.052  10.941   7.192 -0.6774  2.0197 -0.7868
  319MOL0     H43987  11.948  10.899   7.334  1.4912 -0.9495  0.2548
  319MOL0     H43988  12.041  11.188   7.261  0.2455  0.9965 -0.0064
  319MOL0     H43989  11.906  11.111   7.186 -2.4080  3.5929  1.5678
  319MOL0     H43990  11.852  11.085   7.462  0.9783  0.8943  0.7719
  319MOL0     H43991  11.769  11.195   7.353 -0.7663  0.7861 -0.2911
  319MOL0     H43992  11.952  11.362   7.400  0.9044 -1.5335 -1.6897
  319MOL0     H43993  12.037  11.251   7.504  1.2135 -0.3576 -2.5727
  319MOL0     H43994  11.739  11.287   7.562 -0.4753  1.9368 -2.4065
  319MOL0     H43995  11.875  11.236   7.656  1.0308  2.5733  0.3304
  319MOL0     H43996  11.833  11.534   7.575 -2.7801 -0.4330  0.3515
  319MOL0     H43997  11.961  11.462   7.690 -0.6809  1.8810 -0.4897
  319MOL0     H43998  11.800  11.399   7.859 -0.1354  3.1651  0.9206
  319MOL0     H43999  11.676  11.416   7.748 -0.1212  1.7164 -3.8178
  319MOL0     H44000  11.842  11.668   7.834  0.4786  0.1486  1.6872
  319MOL0     H44001  11.703  11.598   7.927 -0.9999 -1.4426 -0.5388
  319MOL0     H44002  11.963  10.861   7.530  0.7094 -1.3746  0.1098
  319MOL0     H44003  11.929  10.944   7.767 -1.5398  1.3818 -1.5118
  319MOL0     H44004  12.247  10.964   8.219 -1.4177 -0.8579 -0.3081
  319MOL0     H44005  12.187  11.011   8.452 -1.0878 -0.9843 -0.1889
  319MOL0     H44006  11.523  11.228   9.030  1.5001 -2.3160  1.1452
  319MOL0     H44007  11.504  11.277   9.268 -0.3679  0.2691  1.1841
  319MOL0     H44008  11.340  11.428   9.574 -1.5103  0.2155  1.1080
  319MOL0     H44009  11.367  11.529   9.802 -1.7740 -0.7546  4.7855
  319MOL0     H44010  11.241  11.478  10.129 -0.4478  0.0120 -0.1683
  319MOL0     H44011  11.238  11.310  10.092  1.5070 -2.8325  2.0587
  319MOL0     H44012  11.451  11.441  10.269  1.7584 -1.5538  1.1619
  319MOL0     H44013  11.453  11.278  10.231  0.4454 -0.5904  3.0650
  319MOL0     H44014  11.184  11.325  10.347 -0.3511 -0.1636 -3.6657
  319MOL0     H44015  11.307  11.195  10.347  2.0999 -0.1992 -2.3347
  319MOL0     H44016  11.273  11.290  10.587 -0.4938  1.9581  2.3082
  319MOL0     H44017  11.366  11.433  10.545  0.9348 -0.2733 -1.2300
  319MOL0     H44018  11.684  11.184  10.545  1.5572 -3.1513 -2.7897
  319MOL0     H44019  11.434  11.157   9.963  1.8225  3.4682  1.4036
  319MOL0     H44020  11.324  10.957   9.802 -2.2239  3.1810 -0.2074
  319MOL0     H44021  11.437  10.936   9.663 -0.6767  0.0718 -0.3359
  319MOL0     H44022  11.508  10.976   9.812  0.9455  1.6092 -2.0170
  320MOL0     O44023   5.312   2.143   3.012  0.2354  0.1458 -0.2627
  320MOL0     C44024   5.197   2.118   2.974  0.3860 -0.2903 -0.2277
  320MOL0     O44025   5.121   2.211   2.911 -0.1742 -0.5231 -0.0715
  320MOL0     C44026   5.177   2.329   2.863  0.5196 -0.3170  0.8648
  320MOL0     C44027   5.306   2.388   2.855  0.0328  0.2765  0.3292
  320MOL0     C44028   5.327   2.506   2.788 -1.1795 -0.3303  0.3136
  320MOL0     C44029   5.229   2.586   2.736  0.8329 -0.0173  0.1574
  320MOL0     O44030   5.266   2.716   2.702  0.2952 -0.1347  0.2890
  320MOL0     C44031   5.159   2.781   2.612 -0.6171  0.3403 -0.3833
  320MOL0     C44032   5.070   2.869   2.697 -0.1630 -0.0505 -0.2547
  320MOL0     C44033   5.116   3.016   2.716 -0.1239  0.6890  0.4585
  320MOL0     C44034   5.129   3.100   2.580  0.4972 -0.2793 -0.2914
  320MOL0     C44035   5.149   3.243   2.601 -0.1709  0.0538  0.1459
  320MOL0     C44036   5.191   3.325   2.477 -0.8770 -0.5486 -0.3904
  320MOL0     C44037   5.093   3.304   2.364 -0.7247 -0.3559  1.2270
  320MOL0     C44038   5.105   3.414   2.259  0.9796  0.2987 -0.5204
  320MOL0     N44039   4.993   3.396   2.157  0.3532 -0.0606  0.1877
  320MOL0     C44040   4.926   3.502   2.108  0.6046 -0.1426 -0.9090
  320MOL0     C44041   4.812   3.454   2.057  0.0060 -0.4435  0.5866
  320MOL0     C44042   4.700   3.541   1.990 -0.6583  0.1870 -0.8261
  320MOL0     C44043   4.726   3.691   2.018 -0.2863 -0.5506  0.1260
  320MOL0     C44044   4.598   3.777   2.013 -0.5514 -0.0338 -0.5384
  320MOL0     C44045   4.602   3.912   2.080  0.2882 -0.8642  0.2295
  320MOL0     O44046   4.652   3.884   2.214  0.2429 -0.2170 -0.0275
  320MOL0     C44047   4.671   3.981   2.307 -0.4768  0.1398 -0.2562
  320MOL0     C44048   4.729   3.933   2.424 -0.6486 -0.1080 -0.4056
  320MOL0     C44049   4.752   4.024   2.530  0.9404  0.1907 -0.2738
  320MOL0     C44050   4.829   3.966   2.652 -0.4644 -0.2214  0.4963
  320MOL0     C44051   4.717   4.165   2.515 -0.3437 -0.2916  0.6455
  320MOL0     C44052   4.730   4.274   2.611  1.3742 -0.1769 -0.0636
  320MOL0     O44053   4.700   4.228   2.743  0.5140 -0.0605  0.4249
  320MOL0     C44054   4.713   4.323   2.843  0.3622 -0.2390 -0.1460
  320MOL0     C44055   4.603   4.342   2.932 -0.2225  0.8540  0.1225
  320MOL0     C44056   4.604   4.448   3.012  0.2581  0.2902 -0.0171
  320MOL0     C44057   4.704   4.545   3.013 -0.5916  0.3905 -0.1277
  320MOL0     O44058   4.684   4.656   3.096 -0.1359 -0.1852 -0.6974
  320MOL0     C44059   4.780   4.761   3.100  0.8426 -0.0307  0.6764
  320MOL0     C44060   4.762   4.863   2.981  0.6537  0.2632 -0.6764
  320MOL0     C44061   4.628   4.936   3.003  0.2696 -0.9978 -0.0769
  320MOL0     C44062   4.589   5.000   2.872 -0.0449 -0.4943  0.7295
  320MOL0     C44063   4.466   5.092   2.897 -0.3623  0.3631  1.1747
  320MOL0     C44064   4.337   5.019   2.933  0.8336 -0.2477  0.5597
  320MOL0     C44065   4.295   4.911   2.834  0.1243 -0.2298  1.0776
  320MOL0     C44066   4.150   4.871   2.840  0.4283  0.2781 -0.3878
  320MOL0    Cl44067   4.123   4.736   2.953 -0.2544 -0.1938  0.3538
  320MOL0     C44068   4.819   4.519   2.930 -0.6993 -0.3171  0.2367
  320MOL0     C44069   4.824   4.404   2.849 -0.2878 -0.3562 -0.2909
  320MOL0     O44070   4.750   4.386   2.584  0.0280 -0.2415  0.0322
  320MOL0     C44071   4.648   4.207   2.403 -0.2010 -0.0617  0.1049
  320MOL0     C44072   4.626   4.115   2.301  0.3230  0.6618  0.0071
  320MOL0     N44073   4.807   3.317   2.081 -0.4347 -0.0350  0.2258
  320MOL0     N44074   4.922   3.285   2.139 -0.5032 -0.2986  0.1826
  320MOL0     C44075   5.100   2.527   2.741 -1.2441  0.6583  0.1521
  320MOL0     C44076   5.076   2.402   2.802  0.5537 -0.0403  0.4147
  320MOL0     C44077   5.145   1.979   3.014  0.5890  0.3984 -0.1621
  320MOL0     C44078   5.238   1.892   3.073 -0.6547 -0.3843  0.7200
  320MOL0     C44079   5.203   1.756   3.098 -1.0209  0.0916 -0.1563
  320MOL0     C44080   5.076   1.715   3.074 -0.1487  1.0783  0.5403
  320MOL0     O44081   5.035   1.587   3.089  1.1281 -0.1809 -0.7710
  320MOL0     C44082   5.143   1.491   3.100  0.6545 -0.0010 -0.9769
  320MOL0     C44083   5.090   1.347   3.103 -0.1264 -0.1967  0.5468
  320MOL0     C44084   4.980   1.310   3.210 -0.4473  0.3419  0.2126
  320MOL0     C44085   4.948   1.158   3.218 -0.2880 -0.0022 -0.1484
  320MOL0     C44086   5.077   1.104   3.271  0.2117  1.1545 -1.1092
  320MOL0     C44087   5.186   1.063   3.313  0.1404 -0.7867 -0.3905
  320MOL0     C44088   4.978   1.801   3.013 -0.6699 -0.0877 -0.1429
  320MOL0     C44089   5.011   1.936   3.000  0.7421 -0.5729  0.4815
  320MOL0     C44090   4.899   2.028   2.963 -0.5091 -0.0932  0.7403
  320MOL0     H44091   5.387   2.323   2.887  0.4650 -1.4932 -3.7212
  320MOL0     H44092   5.434   2.524   2.777 -1.2990 -1.0807 -3.4322
  320MOL0     H44093   5.098   2.713   2.552 -1.5913  1.6835 -0.9574
  320MOL0     H44094   5.209   2.851   2.544  1.1733 -0.9952 -0.5190
  320MOL0     H44095   4.971   2.872   2.649 -1.4436  1.5710  2.2460
  320MOL0     H44096   5.061   2.819   2.794  0.6590  2.8384  1.4110
  320MOL0     H44097   5.048   3.069   2.785 -0.6928  1.4489 -0.6588
  320MOL0     H44098   5.217   3.009   2.756  0.2305 -1.8097 -0.7495
  320MOL0     H44099   5.199   3.056   2.509 -2.6373 -0.4844 -3.5488
  320MOL0     H44100   5.035   3.076   2.529  1.7147 -4.1954 -1.0456
  320MOL0     H44101   5.234   3.261   2.667  0.0048  1.6897 -0.4649
  320MOL0     H44102   5.059   3.286   2.645 -1.4206 -2.9990  0.7741
  320MOL0     H44103   5.187   3.433   2.490  0.2066 -0.1946 -2.4552
  320MOL0     H44104   5.295   3.303   2.450  0.7892  0.4776  4.3402
  320MOL0     H44105   4.992   3.295   2.404 -0.3603 -3.3149  1.7019
  320MOL0     H44106   5.113   3.205   2.324 -4.7074 -0.8481  0.0033
  320MOL0     H44107   5.097   3.509   2.313 -2.7679 -0.0832 -0.1596
  320MOL0     H44108   5.199   3.402   2.205  0.7323  1.7464 -1.3435
  320MOL0     H44109   4.952   3.607   2.109  3.0269 -0.6913 -0.9457
  320MOL0     H44110   4.616   3.498   2.044  2.5209 -2.4964  2.5833
  320MOL0     H44111   4.689   3.522   1.883 -1.3484 -2.0808 -0.4029
  320MOL0     H44112   4.771   3.702   2.117 -1.2144 -2.4851  0.8008
  320MOL0     H44113   4.804   3.725   1.948 -0.0272  0.5198  0.9171
  320MOL0     H44114   4.566   3.787   1.909  2.8948  2.3475 -1.5483
  320MOL0     H44115   4.520   3.717   2.059 -1.5335  2.7155  1.6429
  320MOL0     H44116   4.657   3.987   2.022  0.4186  0.8890  2.4639
  320MOL0     H44117   4.499   3.941   2.102 -0.0597 -0.3540 -1.8459
  320MOL0     H44118   4.752   3.827   2.429  0.0549  0.0024 -1.1498
  320MOL0     H44119   4.787   4.005   2.746 -1.2427  1.3223 -0.4581
  320MOL0     H44120   4.933   3.998   2.645 -1.1261  2.0777  0.0892
  320MOL0     H44121   4.823   3.857   2.657  0.3695 -0.2247  2.9342
  320MOL0     H44122   4.524   4.268   2.931  3.0604 -3.1144  1.8248
  320MOL0     H44123   4.517   4.460   3.076 -0.6465 -1.9310 -0.7020
  320MOL0     H44124   4.786   4.814   3.196  2.3186 -3.5566  2.7505
  320MOL0     H44125   4.876   4.711   3.084  0.0975 -0.8128 -1.7635
  320MOL0     H44126   4.840   4.939   2.975  1.4172 -0.5759 -1.8315
  320MOL0     H44127   4.762   4.813   2.883  0.6478  1.4681 -1.3093
  320MOL0     H44128   4.648   5.007   3.084  1.2616 -0.8565 -0.4277
  320MOL0     H44129   4.546   4.874   3.039 -0.2864 -0.4861 -0.4349
  320MOL0     H44130   4.559   4.922   2.802  0.0184  3.0272 -3.6241
  320MOL0     H44131   4.678   5.057   2.842  0.4776 -1.1582  0.9988
  320MOL0     H44132   4.484   5.179   2.961 -3.4451 -0.5674  3.5742
  320MOL0     H44133   4.454   5.134   2.797 -3.0984 -0.2985  1.1283
  320MOL0     H44134   4.251   5.085   2.939 -2.4282 -4.2538  3.0714
  320MOL0     H44135   4.349   4.977   3.033  4.9343  0.1869  0.4209
  320MOL0     H44136   4.354   4.823   2.858  2.0283  1.4659  2.9993
  320MOL0     H44137   4.320   4.929   2.729  1.5512 -0.1627  1.4124
  320MOL0     H44138   4.115   4.853   2.738 -2.8541  3.0220  0.0753
  320MOL0     H44139   4.085   4.951   2.875 -0.2824 -1.5581  2.8881
  320MOL0     H44140   4.909   4.578   2.938 -0.8525 -0.1380  0.6487
  320MOL0     H44141   4.917   4.383   2.797 -1.2266 -0.4393 -2.0219
  320MOL0     H44142   4.628   4.312   2.386 -0.1182  0.3321  2.1654
  320MOL0     H44143   4.558   4.144   2.221  1.4787 -0.2043 -1.3388
  320MOL0     H44144   5.015   2.575   2.695  0.1539  2.3505 -0.7873
  320MOL0     H44145   4.974   2.368   2.816 -0.1202  1.1855 -1.2534
  320MOL0     H44146   5.338   1.931   3.092 -1.5765  1.4106  2.2114
  320MOL0     H44147   5.273   1.689   3.147 -2.3142 -1.5407 -0.4577
  320MOL0     H44148   5.204   1.496   3.010  1.7220 -0.8984 -0.3142
  320MOL0     H44149   5.187   1.497   3.200 -0.2107 -5.1388 -0.0148
  320MOL0     H44150   5.186   1.296   3.115 -0.3248 -1.0350 -1.1572
  320MOL0     H44151   5.060   1.330   2.999  3.1389  0.1379 -0.5703
  320MOL0     H44152   5.014   1.329   3.312 -0.7426 -2.5577  0.9377
  320MOL0     H44153   4.893   1.373   3.187 -1.9527 -1.7409 -0.1004
  320MOL0     H44154   4.933   1.139   3.112  1.2224  3.3727 -1.1118
  320MOL0     H44155   4.855   1.137   3.271 -0.2996  3.2354  1.3821
  320MOL0     H44156   5.273   1.033   3.368 -2.3880 -2.3483  3.0975
  320MOL0     H44157   4.882   1.752   3.006 -0.9285  0.6351 -4.3626
  320MOL0     H44158   4.806   1.972   2.979 -1.0345  0.2655 -0.8430
  320MOL0     H44159   4.894   2.122   3.020 -1.0733  0.0935  0.3881
  320MOL0     H44160   4.905   2.062   2.859 -2.8388  3.2713  1.5140
  321MOL0     O44161   7.528   0.473   3.405  0.5683  0.5174 -0.5858
  321MOL0     C44162   7.427   0.429   3.460 -0.7023  0.1535  0.2115
  321MOL0     O44163   7.425   0.373   3.588 -0.1220  0.2758 -0.2638
  321MOL0     C44164   7.532   0.394   3.670  0.2630 -0.0239  0.2394
  321MOL0     C44165   7.518   0.468   3.787  1.2803 -0.2618 -0.1572
  321MOL0     C44166   7.632   0.488   3.872 -0.3402 -0.0139 -0.8195
  321MOL0     C44167   7.756   0.430   3.847  0.3452 -0.0879  0.4829
  321MOL0     O44168   7.876   0.457   3.913 -0.1359  0.1765  0.5388
  321MOL0     C44169   7.881   0.394   4.048 -0.7631 -0.3317  0.0602
  321MOL0     C44170   7.876   0.247   4.053  0.0752  0.3209 -0.3307
  321MOL0     C44171   7.837   0.193   4.197 -0.0403 -0.1457  0.4376
  321MOL0     C44172   7.947   0.194   4.300 -0.4844 -0.2791  0.5078
  321MOL0     C44173   7.904   0.131   4.434 -1.2006 -1.1164  0.5963
  321MOL0     C44174   7.792   0.211   4.506 -0.8301 -0.2691 -0.5446
  321MOL0     C44175   7.785   0.176   4.652  0.1137 -0.4249  0.2543
  321MOL0     C44176   7.667   0.250   4.725 -0.0641  0.1884 -0.4321
  321MOL0     N44177   7.541   0.227   4.655 -0.2234 -0.2133 -0.8321
  321MOL0     C44178   7.482   0.099   4.660  0.4743 -0.3512 -0.4968
  321MOL0     C44179   7.368   0.116   4.580 -0.8740  0.9648  0.0958
  321MOL0     C44180   7.290  -0.007   4.530 -0.0501  0.3097 -0.4737
  321MOL0     C44181   7.174  -0.030   4.626  0.3808  0.8115  0.7014
  321MOL0     C44182   7.226  -0.138   4.725  0.6695 -0.4563  0.5396
  321MOL0     C44183   7.099  -0.170   4.820 -0.4715 -0.2488  0.6182
  321MOL0     O44184   7.116  -0.295   4.894 -0.0649 -0.2384 -0.4532
  321MOL0     C44185   7.117  -0.411   4.827  0.2554 -0.2783  0.4960
  321MOL0     C44186   7.050  -0.430   4.706 -0.1362  0.2572 -1.6416
  321MOL0     C44187   7.053  -0.550   4.643 -0.0169  0.4312  0.8845
  321MOL0     C44188   6.989  -0.551   4.498  1.2279  1.5950 -0.9185
  321MOL0     C44189   7.092  -0.665   4.708 -0.1221  0.1097 -0.1993
  321MOL0     C44190   7.063  -0.796   4.652  0.9409  1.0286  0.1378
  321MOL0     O44191   6.926  -0.828   4.638 -0.4772  0.5493  0.1690
  321MOL0     C44192   6.905  -0.962   4.606  0.2939 -0.3814 -0.4488
  321MOL0     C44193   6.909  -0.998   4.475 -0.0634  0.1846  0.2786
  321MOL0     C44194   6.867  -1.124   4.434  0.7052  0.3368  0.5452
  321MOL0     C44195   6.839  -1.218   4.531 -0.7995  0.2952 -0.3445
  321MOL0     O44196   6.825  -1.345   4.494  0.0862 -0.5227 -0.5012
  321MOL0     C44197   6.762  -1.430   4.585  0.4495  0.9088  0.1220
  321MOL0     C44198   6.714  -1.556   4.507  1.1371  0.3836  0.5899
  321MOL0     C44199   6.803  -1.668   4.529  0.0361  1.1413  0.9469
  321MOL0     C44200   6.743  -1.800   4.480  1.3486 -0.9301  0.2751
  321MOL0     C44201   6.698  -1.774   4.334  0.2969  0.0068 -0.7975
  321MOL0     C44202   6.657  -1.909   4.275 -0.4715 -0.7837  0.6472
  321MOL0     C44203   6.613  -1.892   4.125 -0.9186  0.0560 -0.4226
  321MOL0     C44204   6.516  -2.000   4.077  0.3986 -0.3118  0.4886
  321MOL0    Cl44205   6.581  -2.168   4.096 -0.4782 -0.3186 -0.4321
  321MOL0     C44206   6.854  -1.188   4.672  0.4119  0.5929 -0.5767
  321MOL0     C44207   6.874  -1.053   4.705 -0.1927 -0.3423  0.1492
  321MOL0     O44208   7.159  -0.874   4.636  0.0218 -0.2994  0.0911
  321MOL0     C44209   7.172  -0.650   4.824 -0.0183 -0.2969 -0.5378
  321MOL0     C44210   7.175  -0.529   4.882  1.2490 -0.4338  0.3570
  321MOL0     N44211   7.381   0.241   4.518  0.8857  0.8956 -0.2280
  321MOL0     N44212   7.471   0.312   4.573 -0.0015 -0.1025  0.4248
  321MOL0     C44213   7.764   0.346   3.736  0.6991  0.1931  0.0011
  321MOL0     C44214   7.652   0.327   3.651  0.1675  0.6480 -0.3912
  321MOL0     C44215   7.299   0.425   3.377  0.9813 -0.5672 -0.1256
  321MOL0     C44216   7.196   0.341   3.419  0.7327  0.1235  0.0479
  321MOL0     C44217   7.071   0.336   3.354 -0.1343  1.1396 -0.6510
  321MOL0     C44218   7.047   0.421   3.247  0.3901 -0.0302  0.4565
  321MOL0     O44219   6.920   0.410   3.195 -0.3201  0.6767 -0.0352
  321MOL0     C44220   6.889   0.446   3.059 -1.3084 -0.0300 -0.6613
  321MOL0     C44221   6.943   0.340   2.961 -0.6958  0.4071 -0.0140
  321MOL0     C44222   6.898   0.355   2.819  0.7537  0.0300 -0.1099
  321MOL0     C44223   6.976   0.454   2.744  0.2028 -0.9835 -0.0968
  321MOL0     C44224   7.100   0.386   2.699  0.9296 -0.9043 -0.3039
  321MOL0     C44225   7.201   0.329   2.661 -0.4284 -0.8093 -0.0885
  321MOL0     C44226   7.145   0.503   3.204 -0.0492  0.3516  0.7875
  321MOL0     C44227   7.277   0.499   3.257  0.7373 -0.1357 -0.1906
  321MOL0     C44228   7.368   0.597   3.205 -1.2541 -0.2441 -0.0526
  321MOL0     H44229   7.419   0.505   3.812  0.4961 -1.7256 -0.9686
  321MOL0     H44230   7.626   0.555   3.957 -0.7184 -0.7426 -0.2567
  321MOL0     H44231   7.808   0.437   4.118  1.3439  0.6756  1.7931
  321MOL0     H44232   7.974   0.429   4.096 -0.8990 -0.1302  0.1805
  321MOL0     H44233   7.802   0.208   3.983 -0.3369  0.2986  0.1059
  321MOL0     H44234   7.968   0.210   4.007 -0.8112 -3.2979  0.4428
  321MOL0     H44235   7.745   0.245   4.225 -2.5176 -2.7129 -2.2641
  321MOL0     H44236   7.804   0.089   4.185 -1.6046  0.1993  1.4166
  321MOL0     H44237   8.028   0.139   4.252 -1.7219 -0.1016 -1.9540
  321MOL0     H44238   7.992   0.293   4.310  2.3902 -1.4884  0.3229
  321MOL0     H44239   7.987   0.135   4.504 -1.7724  1.4980  1.2480
  321MOL0     H44240   7.867   0.033   4.400  1.9036 -1.6475 -1.6662
  321MOL0     H44241   7.790   0.319   4.488 -1.0503  0.0497  1.1996
  321MOL0     H44242   7.694   0.173   4.476 -2.5393  1.6457  2.2110
  321MOL0     H44243   7.879   0.216   4.691  2.1946 -1.6623 -3.0824
  321MOL0     H44244   7.788   0.067   4.664  0.9694 -0.2464  2.0019
  321MOL0     H44245   7.663   0.197   4.821 -0.3411 -1.1578 -1.1562
  321MOL0     H44246   7.692   0.352   4.753  2.3373 -0.1346 -1.1745
  321MOL0     H44247   7.514   0.005   4.705 -3.4331 -1.3357  0.6828
  321MOL0     H44248   7.355  -0.094   4.539 -1.2133 -0.6921 -1.4670
  321MOL0     H44249   7.255   0.015   4.429  0.0908 -0.5680 -0.7143
  321MOL0     H44250   7.146   0.058   4.684  1.4242  1.0237  0.9026
  321MOL0     H44251   7.094  -0.070   4.563 -0.2138  3.0200 -0.0196
  321MOL0     H44252   7.240  -0.234   4.675 -2.0979 -0.8434  0.3212
  321MOL0     H44253   7.315  -0.109   4.781  0.0187 -0.1325  1.4432
  321MOL0     H44254   7.092  -0.083   4.885  0.8503  1.4440 -1.3483
  321MOL0     H44255   7.007  -0.177   4.761 -0.4587  0.0173  0.5673
  321MOL0     H44256   6.995  -0.349   4.658  0.6331  1.5070 -0.4651
  321MOL0     H44257   6.883  -0.526   4.501  1.0238  0.7645 -1.0581
  321MOL0     H44258   6.995  -0.651   4.454  1.6195  0.7710  0.9304
  321MOL0     H44259   7.042  -0.471   4.445  1.0658  1.4059 -1.3700
  321MOL0     H44260   6.946  -0.920   4.410  0.0114 -1.3741 -1.6525
  321MOL0     H44261   6.855  -1.155   4.331 -0.1313  1.0468  0.4145
  321MOL0     H44262   6.829  -1.459   4.666  1.7830  0.1587 -1.2128
  321MOL0     H44263   6.675  -1.375   4.625  0.6539 -0.3425  2.4952
  321MOL0     H44264   6.613  -1.585   4.537  0.8092 -0.6979 -1.3483
  321MOL0     H44265   6.693  -1.540   4.401 -1.2333 -6.4411 -0.4739
  321MOL0     H44266   6.816  -1.668   4.638  3.3740  0.9387  0.6337
  321MOL0     H44267   6.901  -1.659   4.482  1.3823 -3.0529  2.4434
  321MOL0     H44268   6.658  -1.816   4.546 -1.8813  1.9614 -2.8067
  321MOL0     H44269   6.815  -1.883   4.487  1.5460 -0.8182 -0.3505
  321MOL0     H44270   6.612  -1.707   4.331  0.1736  0.3349  3.6259
  321MOL0     H44271   6.783  -1.738   4.275  1.8563 -0.1398  1.2708
  321MOL0     H44272   6.578  -1.960   4.329 -1.7314  0.7409  0.3006
  321MOL0     H44273   6.740  -1.978   4.291 -0.4498 -0.2912  3.0065
  321MOL0     H44274   6.701  -1.896   4.060 -0.4148  2.1538  0.0604
  321MOL0     H44275   6.575  -1.791   4.111 -1.4480  0.4373  3.0384
  321MOL0     H44276   6.473  -1.986   3.978  0.3161 -0.9197  0.4346
  321MOL0     H44277   6.427  -1.989   4.141 -0.3997 -0.9600 -0.4810
  321MOL0     H44278   6.855  -1.248   4.762  2.6081 -0.0316 -0.9786
  321MOL0     H44279   6.885  -1.011   4.804  3.4570 -0.7985  0.0503
  321MOL0     H44280   7.206  -0.739   4.876  0.1522  0.8059  1.3180
  321MOL0     H44281   7.226  -0.530   4.978  2.5725  1.6892 -0.2591
  321MOL0     H44282   7.856   0.303   3.698 -0.7324 -3.1598  0.0077
  321MOL0     H44283   7.658   0.256   3.569  0.0148  2.1014 -1.7151
  321MOL0     H44284   7.199   0.274   3.505 -2.8372 -1.0898 -0.6123
  321MOL0     H44285   7.002   0.262   3.392 -1.0206  2.4845  0.4739
  321MOL0     H44286   6.780   0.439   3.058 -1.5618 -2.5213  4.9205
  321MOL0     H44287   6.925   0.549   3.049  0.0515  0.2760  4.3797
  321MOL0     H44288   6.912   0.242   2.999  0.8252  0.2761  0.9998
  321MOL0     H44289   7.053   0.345   2.967 -0.6484 -1.4480  2.4443
  321MOL0     H44290   6.911   0.255   2.776 -0.8693 -1.6844  3.0131
  321MOL0     H44291   6.791   0.374   2.823  0.7474 -0.0931  0.3010
  321MOL0     H44292   7.002   0.541   2.804 -1.3227  2.1792 -3.5698
  321MOL0     H44293   6.927   0.485   2.651 -1.4437 -1.1741  0.6763
  321MOL0     H44294   7.294   0.297   2.619 -1.0258  0.8246 -2.8913
  321MOL0     H44295   7.122   0.561   3.115 -2.1587  0.0297  1.0702
  321MOL0     H44296   7.466   0.552   3.184  0.0057  1.0523  2.6316
  321MOL0     H44297   7.336   0.638   3.108  0.4264  2.4278  0.4087
  321MOL0     H44298   7.386   0.687   3.265 -1.5896  0.6906 -1.3026
  322MOL0     O44299   6.193   3.422   1.394 -0.1273  0.1603 -0.1344
  322MOL0     C44300   6.118   3.406   1.300 -0.5708 -0.1013 -0.3812
  322MOL0     O44301   6.148   3.353   1.182 -0.8274 -0.3062  0.0557
  322MOL0     C44302   6.276   3.302   1.163  0.4630  0.5837 -0.6631
  322MOL0     C44303   6.392   3.373   1.191  0.8973 -0.5618  0.3557
  322MOL0     C44304   6.516   3.310   1.204  0.3467 -0.3583 -0.4500
  322MOL0     C44305   6.526   3.167   1.197  0.3889  0.2202 -0.0405
  322MOL0     O44306   6.626   3.086   1.232 -0.6341  0.0793 -0.4853
  322MOL0     C44307   6.725   3.149   1.318  0.7387  0.1752 -0.1009
  322MOL0     C44308   6.843   3.060   1.355 -0.0199  0.1862  0.1330
  322MOL0     C44309   6.904   2.989   1.234 -0.4056 -0.8897  0.0458
  322MOL0     C44310   7.011   2.903   1.293 -0.1656 -0.4151 -1.1554
  322MOL0     C44311   7.103   2.848   1.185  0.1658  0.0838 -0.0163
  322MOL0     C44312   7.029   2.759   1.082  1.0222  0.5399  0.1563
  322MOL0     C44313   7.123   2.659   1.013  0.5010 -0.8653  0.4081
  322MOL0     C44314   7.067   2.560   0.902 -1.3614  0.6690  0.5833
  322MOL0     N44315   6.972   2.463   0.958  0.1142 -0.0582  0.1512
  322MOL0     C44316   6.835   2.449   0.927 -0.6469  0.1325  0.5816
  322MOL0     C44317   6.792   2.338   0.988  0.0750 -0.3410  0.2699
  322MOL0     C44318   6.650   2.296   0.999 -1.1241 -0.0178 -0.2140
  322MOL0     C44319   6.586   2.365   1.121 -0.2327 -0.8221  0.8203
  322MOL0     C44320   6.465   2.443   1.072 -0.3709 -1.0879 -0.3873
  322MOL0     C44321   6.355   2.341   1.044  0.9795  0.0467  0.3255
  322MOL0     O44322   6.227   2.414   1.042 -0.3250 -0.5797 -0.3849
  322MOL0     C44323   6.123   2.370   0.966 -1.0110  0.5979  0.1985
  322MOL0     C44324   6.023   2.459   0.910 -0.0198  0.1557 -0.6907
  322MOL0     C44325   5.925   2.412   0.820  0.7669 -0.0162  0.1965
  322MOL0     C44326   5.833   2.513   0.765  0.5847 -0.2124 -0.9273
  322MOL0     C44327   5.931   2.267   0.782 -0.2919 -0.6229 -1.6614
  322MOL0     C44328   5.835   2.210   0.695  0.0105  0.3786 -0.2197
  322MOL0     O44329   5.822   2.073   0.701 -0.2752 -0.3987 -0.8653
  322MOL0     C44330   5.709   2.016   0.648 -0.0224 -0.6583 -0.4137
  322MOL0     C44331   5.725   1.887   0.603 -0.1945 -0.4274 -0.1764
  322MOL0     C44332   5.613   1.808   0.576 -0.2297  0.5029  0.4404
  322MOL0     C44333   5.482   1.862   0.587  0.0815 -1.2219 -0.4697
  322MOL0     O44334   5.366   1.802   0.563 -0.4203  0.0865  0.2689
  322MOL0     C44335   5.373   1.657   0.539 -0.2557  0.2450  0.4161
  322MOL0     C44336   5.236   1.600   0.542 -0.6352 -0.4450 -0.1572
  322MOL0     C44337   5.174   1.608   0.409 -0.6206 -0.1067  0.5207
  322MOL0     C44338   5.050   1.522   0.408 -0.4725  1.0857  0.4161
  322MOL0     C44339   4.998   1.487   0.270  0.5546 -0.5125 -0.0268
  322MOL0     C44340   4.843   1.473   0.262 -0.6309 -0.3187 -0.0397
  322MOL0     C44341   4.779   1.614   0.281  0.8624 -0.1861  0.4064
  322MOL0     C44342   4.656   1.622   0.175  0.5846  0.1134 -1.0956
  322MOL0    Cl44343   4.713   1.645   0.006  0.1218 -0.4518  0.0067
  322MOL0     C44344   5.463   1.994   0.628  0.0119 -0.2990 -0.5656
  322MOL0     C44345   5.578   2.075   0.651 -0.6761  0.5411  0.1339
  322MOL0     O44346   5.767   2.278   0.619 -0.9833  0.0056 -0.4940
  322MOL0     C44347   6.023   2.184   0.853 -0.0164  0.7101  0.1719
  322MOL0     C44348   6.114   2.236   0.937  0.0471  0.3717 -0.0917
  322MOL0     N44349   6.899   2.276   1.056  0.1751  0.3447 -0.8480
  322MOL0     N44350   7.008   2.351   1.030  0.0073  0.2262 -0.4353
  322MOL0     C44351   6.406   3.100   1.156  0.1048 -0.3830  0.3932
  322MOL0     C44352   6.287   3.165   1.130  0.1988 -0.3464  0.4301
  322MOL0     C44353   5.981   3.471   1.319 -0.1675  0.9859 -0.2411
  322MOL0     C44354   5.883   3.443   1.226 -0.4989  0.6342 -0.0570
  322MOL0     C44355   5.762   3.519   1.215 -0.5524  0.9749  0.7594
  322MOL0     C44356   5.727   3.604   1.308 -0.3854 -0.9473 -0.0586
  322MOL0     O44357   5.606   3.672   1.287  0.1948 -0.0719  0.1113
  322MOL0     C44358   5.553   3.770   1.377  0.2096 -0.1073 -0.3206
  322MOL0     C44359   5.403   3.742   1.402  0.1814 -0.6264 -0.2948
  322MOL0     C44360   5.341   3.862   1.471  0.3948 -0.5168 -0.2695
  322MOL0     C44361   5.199   3.828   1.538  0.3472 -0.4504 -0.0441
  322MOL0     C44362   5.136   3.959   1.566  0.6829 -0.7026  0.9207
  322MOL0     C44363   5.066   4.059   1.585 -0.3991  0.6572  0.6323
  322MOL0     C44364   5.813   3.620   1.415 -0.6564 -0.4242 -0.5416
  322MOL0     C44365   5.943   3.555   1.427  0.9657  0.4094  0.1824
  322MOL0     C44366   6.025   3.577   1.548 -0.4146 -0.4447 -0.7674
  322MOL0     H44367   6.383   3.477   1.218  1.6085 -0.5502  0.5676
  322MOL0     H44368   6.598   3.369   1.243 -1.1115  1.0695  0.5445
  322MOL0     H44369   6.665   3.193   1.398 -1.7811  2.4036 -2.9541
  322MOL0     H44370   6.778   3.231   1.268 -3.0991  1.7616 -1.9785
  322MOL0     H44371   6.920   3.128   1.394 -0.1092  1.3233 -1.6100
  322MOL0     H44372   6.817   2.984   1.430 -0.3602 -1.2659 -1.3938
  322MOL0     H44373   6.833   2.921   1.187 -0.2485 -0.8653 -0.2279
  322MOL0     H44374   6.951   3.061   1.166 -2.9318  1.1260  0.2595
  322MOL0     H44375   7.060   2.977   1.356 -1.6414  0.9937 -1.5951
  322MOL0     H44376   6.963   2.822   1.348  0.8330 -0.4457 -0.3031
  322MOL0     H44377   7.180   2.785   1.230  1.7354  1.0817 -1.1812
  322MOL0     H44378   7.156   2.929   1.134  1.3975  0.6805  2.0837
  322MOL0     H44379   6.953   2.706   1.141  0.5319  0.4792 -0.5224
  322MOL0     H44380   6.973   2.815   1.006 -0.7237 -1.5300 -0.1802
  322MOL0     H44381   7.200   2.608   1.072  1.7560 -1.9015 -1.9383
  322MOL0     H44382   7.180   2.723   0.945 -1.5674  0.1970 -0.4081
  322MOL0     H44383   7.015   2.613   0.822 -0.0724 -0.2393 -0.9196
  322MOL0     H44384   7.154   2.509   0.860  1.4855  0.6141  5.7030
  322MOL0     H44385   6.786   2.522   0.862  1.3165  0.1751 -0.9368
  322MOL0     H44386   6.635   2.188   1.007  1.3125 -0.4988 -1.2248
  322MOL0     H44387   6.612   2.333   0.903 -0.1584 -0.3781 -0.7452
  322MOL0     H44388   6.561   2.290   1.196 -0.3184  0.1482  1.7925
  322MOL0     H44389   6.652   2.422   1.187 -0.8394 -0.8670  1.4836
  322MOL0     H44390   6.439   2.512   1.152  1.1377 -0.4209 -0.4410
  322MOL0     H44391   6.486   2.514   0.992 -1.1860  0.3430  0.6231
  322MOL0     H44392   6.370   2.292   0.947 -0.5573 -0.8803  0.5101
  322MOL0     H44393   6.345   2.270   1.127 -0.2714  0.6860  0.7580
  322MOL0     H44394   6.013   2.562   0.942  0.2480  0.2765 -0.9862
  322MOL0     H44395   5.825   2.511   0.656  1.6670  2.0419 -1.1215
  322MOL0     H44396   5.868   2.615   0.785  1.2835 -0.5693 -0.2842
  322MOL0     H44397   5.738   2.505   0.817 -0.1988 -0.7023 -2.3914
  322MOL0     H44398   5.816   1.831   0.586  2.5078  3.1426  1.3531
  322MOL0     H44399   5.629   1.708   0.539  0.8270 -0.4245  3.1206
  322MOL0     H44400   5.416   1.639   0.440  0.0065 -0.4736  0.6547
  322MOL0     H44401   5.437   1.605   0.611 -0.0422  2.0489  1.6203
  322MOL0     H44402   5.252   1.494   0.565 -0.0233 -0.2997  0.1116
  322MOL0     H44403   5.170   1.632   0.622 -2.4939  2.2801 -2.5769
  322MOL0     H44404   5.241   1.552   0.342 -0.6096 -0.6622  0.9940
  322MOL0     H44405   5.159   1.708   0.367  0.7129  0.7160  1.9303
  322MOL0     H44406   4.980   1.581   0.466  0.8544  3.0733  0.1005
  322MOL0     H44407   5.055   1.433   0.471  0.4396  0.3777 -0.6062
  322MOL0     H44408   5.033   1.569   0.206 -1.9257 -0.6586 -1.7193
  322MOL0     H44409   5.056   1.397   0.248  1.2523 -0.1248  0.1779
  322MOL0     H44410   4.803   1.406   0.339 -0.0754  0.7486  1.2129
  322MOL0     H44411   4.820   1.437   0.161  0.0086 -0.4650 -0.1375
  322MOL0     H44412   4.843   1.700   0.262 -2.9999  2.5119 -1.4509
  322MOL0     H44413   4.741   1.626   0.383 -1.1253 -0.6163 -0.2502
  322MOL0     H44414   4.596   1.709   0.199  1.1997  0.6127 -1.3470
  322MOL0     H44415   4.588   1.536   0.182 -0.9577  1.3885  0.6963
  322MOL0     H44416   5.360   2.019   0.652 -1.2269 -1.7266 -3.7446
  322MOL0     H44417   5.576   2.174   0.695 -0.5184  1.0969 -1.0901
  322MOL0     H44418   6.016   2.075   0.850  0.8865  0.6694 -1.0983
  322MOL0     H44419   6.168   2.165   0.999 -4.5249 -0.2660  3.8017
  322MOL0     H44420   6.414   2.992   1.147 -0.7459 -0.2700 -2.9667
  322MOL0     H44421   6.198   3.115   1.093 -1.4145  2.6555 -0.0871
  322MOL0     H44422   5.918   3.380   1.145  1.0385  0.9240  0.3547
  322MOL0     H44423   5.704   3.504   1.125  1.3086  0.3245 -0.4006
  322MOL0     H44424   5.591   3.763   1.479 -3.4571 -0.2370  1.1661
  322MOL0     H44425   5.565   3.872   1.340 -1.3244 -0.1351 -0.9579
  322MOL0     H44426   5.387   3.659   1.472 -0.3939 -1.4951 -1.4343
  322MOL0     H44427   5.350   3.715   1.310  0.6799 -0.5110 -0.6208
  322MOL0     H44428   5.412   3.912   1.536  0.3877 -1.2501  0.3142
  322MOL0     H44429   5.322   3.935   1.391 -0.0370 -2.6021 -2.1882
  322MOL0     H44430   5.217   3.760   1.621 -1.3994 -1.3013 -0.3310
  322MOL0     H44431   5.128   3.768   1.481  0.1932 -2.1653  1.8707
  322MOL0     H44432   4.999   4.142   1.594 -0.1907  0.8517  0.4316
  322MOL0     H44433   5.786   3.684   1.498 -0.2198 -0.0401 -0.6906
  322MOL0     H44434   6.035   3.485   1.607 -1.4661 -1.5348 -2.2214
  322MOL0     H44435   6.130   3.606   1.534  0.4420  1.0362  5.6704
  322MOL0     H44436   5.984   3.651   1.617  2.6985 -1.9608  3.1113
  323MOL0     O44437   8.512   7.084   9.098  0.3272  0.3044  0.3269
  323MOL0     C44438   8.626   7.078   9.130 -0.5255  0.2480 -0.7803
  323MOL0     O44439   8.681   7.106   9.254  0.0900 -0.6829  0.2428
  323MOL0     C44440   8.604   7.146   9.350 -0.3602  0.6908 -0.3437
  323MOL0     C44441   8.478   7.082   9.392 -0.5724 -0.0528 -0.2638
  323MOL0     C44442   8.410   7.134   9.498  0.6802 -0.0906  0.5735
  323MOL0     C44443   8.460   7.254   9.559 -0.4221  0.0381 -0.1186
  323MOL0     O44444   8.395   7.311   9.664 -0.3591  0.3456 -0.7741
  323MOL0     C44445   8.438   7.290   9.800  0.1405  1.3945  0.0997
  323MOL0     C44446   8.431   7.147   9.853  0.0298  0.2155 -0.0486
  323MOL0     C44447   8.298   7.068   9.828  0.5268  0.2212 -0.3054
  323MOL0     C44448   8.187   7.102   9.926 -0.6794  0.9659  0.0926
  323MOL0     C44449   8.052   7.038   9.887 -0.2777  0.8437 -0.6888
  323MOL0     C44450   7.922   7.075   9.970  0.6043 -0.3177 -0.3409
  323MOL0     C44451   7.875   7.211   9.941  0.8666  0.4340  0.2061
  323MOL0     C44452   7.745   7.260  10.020 -0.0695  0.7353 -0.9338
  323MOL0     N44453   7.691   7.389   9.994  0.5080 -0.7050  0.5060
  323MOL0     C44454   7.574   7.419   9.912  0.0174  0.7051  0.6718
  323MOL0     C44455   7.581   7.552   9.894 -0.9654 -0.1654 -1.4126
  323MOL0     C44456   7.492   7.627   9.809  0.6012 -1.4841 -0.3754
  323MOL0     C44457   7.395   7.728   9.871 -0.1219  0.9375 -0.1604
  323MOL0     C44458   7.287   7.669   9.954 -0.2533  1.1246 -1.4481
  323MOL0     C44459   7.179   7.772   9.982  0.0304  0.7501 -0.0865
  323MOL0     O44460   7.089   7.771   9.872  0.5155 -0.3111  0.2120
  323MOL0     C44461   6.993   7.677   9.852  0.3982 -0.1266 -0.1120
  323MOL0     C44462   6.912   7.685   9.744 -0.6459  0.4128  0.1984
  323MOL0     C44463   6.811   7.595   9.723  0.2484  0.5511  0.2657
  323MOL0     C44464   6.712   7.625   9.608  0.0813  0.2077 -0.8012
  323MOL0     C44465   6.802   7.475   9.796 -1.5414  0.1282 -0.7103
  323MOL0     C44466   6.718   7.362   9.765 -0.1187  1.6212  0.3667
  323MOL0     O44467   6.670   7.285   9.866 -0.0733  0.5047  0.5158
  323MOL0     C44468   6.561   7.207   9.847  0.2129  0.7657 -0.7486
  323MOL0     C44469   6.570   7.069   9.874  0.1864 -0.4623 -0.3942
  323MOL0     C44470   6.454   6.991   9.896 -0.5618  0.8660  0.6110
  323MOL0     C44471   6.329   7.043   9.870 -0.1759 -0.1473 -1.0122
  323MOL0     O44472   6.218   6.965   9.880 -1.1904  1.2934  0.8777
  323MOL0     C44473   6.094   6.973   9.808  0.1675  0.3432 -0.3787
  323MOL0     C44474   6.043   6.827   9.805  1.3844  0.2399  0.1859
  323MOL0     C44475   6.125   6.734   9.711 -0.0908 -0.2621  0.5597
  323MOL0     C44476   6.086   6.588   9.712 -0.0991  0.0403 -0.5522
  323MOL0     C44477   6.173   6.509   9.615  0.2069  1.0700 -0.7258
  323MOL0     C44478   6.128   6.360   9.613  0.3618  0.0996  0.9979
  323MOL0     C44479   6.204   6.289   9.503 -0.4830 -0.7915  0.8205
  323MOL0     C44480   6.167   6.143   9.489 -0.3933 -0.6456  0.4373
  323MOL0    Cl44481   6.259   6.056   9.371 -0.0416  0.5332  0.3548
  323MOL0     C44482   6.323   7.181   9.832  0.0353  0.5066  0.4049
  323MOL0     C44483   6.435   7.266   9.828 -0.2435  0.2236  0.8000
  323MOL0     O44484   6.703   7.331   9.640  0.6147 -1.1725 -1.2045
  323MOL0     C44485   6.883   7.470   9.908  0.6257  0.0801  1.3696
  323MOL0     C44486   6.976   7.568   9.937 -0.4071  0.0698  0.1537
  323MOL0     N44487   7.694   7.601   9.955  0.2451  0.1595 -0.0558
  323MOL0     N44488   7.758   7.506  10.006  0.0410 -0.0244  0.2244
  323MOL0     C44489   8.578   7.317   9.519  0.3526  0.0537  0.5264
  323MOL0     C44490   8.654   7.252   9.420  0.4254  0.0232 -0.0178
  323MOL0     C44491   8.725   7.035   9.036 -0.2329 -0.2034 -0.2656
  323MOL0     C44492   8.841   7.113   9.000  0.3900 -0.9816  0.5152
  323MOL0     C44493   8.927   7.076   8.894 -0.6820  0.4072 -0.0276
  323MOL0     C44494   8.904   6.964   8.817  0.2243 -0.4485  0.1861
  323MOL0     O44495   8.984   6.926   8.703  0.0403 -0.2397 -0.0396
  323MOL0     C44496   9.025   7.042   8.635 -0.3261 -0.1629 -0.0216
  323MOL0     C44497   9.064   7.015   8.488  0.6930 -0.0942  0.4890
  323MOL0     C44498   9.195   6.933   8.465 -0.0243  0.0296 -0.1431
  323MOL0     C44499   9.314   7.013   8.513  0.7627 -0.5915 -0.2747
  323MOL0     C44500   9.428   6.925   8.530  0.7130 -0.4309  0.5260
  323MOL0     C44501   9.533   6.860   8.536  0.9923 -1.3631 -0.5080
  323MOL0     C44502   8.797   6.877   8.845  0.6885  0.1484 -1.4800
  323MOL0     C44503   8.704   6.908   8.956 -0.0182  0.1786  0.5553
  323MOL0     C44504   8.594   6.809   8.989 -0.0636  0.1728 -0.1434
  323MOL0     H44505   8.444   6.992   9.341 -0.8439 -0.3286  0.3972
  323MOL0     H44506   8.321   7.088   9.541  0.6849 -1.1126 -0.4732
  323MOL0     H44507   8.390   7.354   9.874 -1.3693 -2.9255  3.2727
  323MOL0     H44508   8.544   7.312   9.808  0.6940 -1.6116  4.2079
  323MOL0     H44509   8.512   7.082   9.816  1.9855  1.4268  1.9002
  323MOL0     H44510   8.444   7.138   9.961 -0.7072 -1.1593 -0.0404
  323MOL0     H44511   8.265   7.081   9.724  0.0675  2.9427  0.1093
  323MOL0     H44512   8.313   6.960   9.828 -2.6132 -0.3193 -1.3833
  323MOL0     H44513   8.217   7.058  10.022 -0.2633  0.1704 -0.3904
  323MOL0     H44514   8.174   7.209   9.944 -3.2837  0.6851  0.1504
  323MOL0     H44515   8.062   6.929   9.880  1.9199  1.0592 -1.7106
  323MOL0     H44516   8.039   7.071   9.784 -1.6980  0.4522 -0.6510
  323MOL0     H44517   7.841   7.007   9.943 -0.5832 -0.5543  3.2934
  323MOL0     H44518   7.938   7.055  10.077 -1.6430 -3.0010 -0.3996
  323MOL0     H44519   7.862   7.224   9.833 -0.4279 -2.9545 -0.1583
  323MOL0     H44520   7.948   7.278   9.986 -1.1897  3.3749 -0.5261
  323MOL0     H44521   7.665   7.196   9.983  0.8713 -0.3447 -1.1527
  323MOL0     H44522   7.764   7.252  10.127  0.8336  3.3163 -0.8174
  323MOL0     H44523   7.507   7.345   9.870 -0.9782  1.8903  0.1124
  323MOL0     H44524   7.440   7.570   9.732 -0.8637  1.6327 -1.8852
  323MOL0     H44525   7.557   7.689   9.746 -0.1370 -0.9262 -0.5976
  323MOL0     H44526   7.448   7.790   9.945  0.6190 -3.3388  3.3263
  323MOL0     H44527   7.358   7.789   9.789 -2.1182 -1.6600 -1.3236
  323MOL0     H44528   7.250   7.589   9.889 -1.5663 -1.2482  1.9837
  323MOL0     H44529   7.322   7.623  10.046  0.4586  2.4832 -1.0063
  323MOL0     H44530   7.122   7.732  10.066  0.1138 -2.6753 -1.4931
  323MOL0     H44531   7.217   7.873  10.001  2.8056 -0.7939  3.7900
  323MOL0     H44532   6.919   7.770   9.678  4.3413 -0.9342 -1.4558
  323MOL0     H44533   6.733   7.559   9.523  0.6896  0.9142 -1.2111
  323MOL0     H44534   6.706   7.728   9.572 -1.8396  0.2598 -0.4162
  323MOL0     H44535   6.611   7.595   9.637 -0.5193  2.1158 -0.7846
  323MOL0     H44536   6.667   7.024   9.895  0.6447  0.3985 -0.6245
  323MOL0     H44537   6.455   6.893   9.943  1.0416  0.7464  0.3655
  323MOL0     H44538   6.028   7.035   9.869 -0.2612 -0.9188  0.4654
  323MOL0     H44539   6.103   7.024   9.711 -2.0516  1.6648  0.0610
  323MOL0     H44540   6.051   6.790   9.908  0.1299 -1.9012 -0.4031
  323MOL0     H44541   5.943   6.830   9.760  2.8876  3.9352 -3.5109
  323MOL0     H44542   6.232   6.740   9.733 -0.0678 -0.1230  0.4124
  323MOL0     H44543   6.115   6.780   9.612  3.8712 -1.2946 -0.4990
  323MOL0     H44544   5.985   6.568   9.676  0.0010  1.2131 -1.5551
  323MOL0     H44545   6.093   6.552   9.815  0.8955 -0.0417 -0.6426
  323MOL0     H44546   6.166   6.552   9.515  2.3114  1.3761 -0.7759
  323MOL0     H44547   6.281   6.515   9.630  1.1485 -4.2658 -3.0014
  323MOL0     H44548   6.021   6.349   9.590  0.0503  1.3667  1.7306
  323MOL0     H44549   6.158   6.321   9.711  3.5543 -0.7915 -0.2005
  323MOL0     H44550   6.308   6.278   9.537 -0.0514  0.2809 -0.0897
  323MOL0     H44551   6.199   6.344   9.409  0.6965 -0.6544  0.8273
  323MOL0     H44552   6.061   6.148   9.464 -0.0462  2.7675 -0.8510
  323MOL0     H44553   6.173   6.088   9.584  0.1452  1.7991  1.9087
  323MOL0     H44554   6.226   7.225   9.810  0.7628  1.9312 -0.1260
  323MOL0     H44555   6.445   7.372   9.809 -0.9006 -0.3017 -3.4186
  323MOL0     H44556   6.857   7.389   9.976 -0.2050  1.9095  3.3244
  323MOL0     H44557   7.028   7.568  10.032 -0.7563  1.3883  0.3622
  323MOL0     H44558   8.611   7.411   9.560 -0.6703  0.5559  0.2301
  323MOL0     H44559   8.751   7.293   9.394 -0.2287  1.3237 -0.4536
  323MOL0     H44560   8.869   7.202   9.055  0.0772  0.2753 -1.2738
  323MOL0     H44561   9.010   7.139   8.865 -2.7189  2.8521 -0.9650
  323MOL0     H44562   8.942   7.113   8.636 -1.7408 -1.7610  0.1907
  323MOL0     H44563   9.113   7.079   8.689 -1.0850 -0.0030  1.1278
  323MOL0     H44564   9.081   7.103   8.425 -0.6122 -1.1063 -1.3549
  323MOL0     H44565   8.975   6.965   8.450 -1.3916  3.3556  0.3954
  323MOL0     H44566   9.196   6.839   8.521  0.4392 -0.6221 -1.2285
  323MOL0     H44567   9.195   6.914   8.358 -3.5819  2.0316 -0.6673
  323MOL0     H44568   9.291   7.054   8.612  1.1353 -1.3864  0.1463
  323MOL0     H44569   9.335   7.089   8.437 -1.5523 -1.0749 -1.4888
  323MOL0     H44570   9.627   6.812   8.555  0.3483 -2.5995 -0.3390
  323MOL0     H44571   8.809   6.785   8.789  2.7476 -0.0247 -0.8112
  323MOL0     H44572   8.527   6.794   8.904  1.0262  0.7115 -1.1278
  323MOL0     H44573   8.638   6.713   9.020 -0.2486  0.7870  2.2061
  323MOL0     H44574   8.533   6.838   9.075 -0.6772  0.2266 -0.5994
  324MOL0     O44575   4.135   1.278   2.222  0.3366  0.3383 -0.1988
  324MOL0     C44576   4.209   1.278   2.129 -0.4722 -1.0902  0.0894
  324MOL0     O44577   4.303   1.384   2.106  0.2589  0.4622 -0.2213
  324MOL0     C44578   4.277   1.511   2.136  0.6610  0.7601 -0.0010
  324MOL0     C44579   4.147   1.562   2.123 -0.5012 -0.1155  0.4167
  324MOL0     C44580   4.122   1.696   2.159  1.2272 -0.3020  0.7107
  324MOL0     C44581   4.229   1.784   2.188  0.0961  1.0747 -0.0304
  324MOL0     O44582   4.192   1.916   2.215 -0.2103 -0.0297  0.1803
  324MOL0     C44583   4.297   2.000   2.243 -0.5210  0.0374  0.0119
  324MOL0     C44584   4.246   2.110   2.335 -0.1649 -0.5658  0.7282
  324MOL0     C44585   4.224   2.236   2.248  0.4530 -0.2387 -0.3914
  324MOL0     C44586   4.222   2.357   2.340  0.7156  0.4053 -0.0378
  324MOL0     C44587   4.177   2.488   2.260 -0.2362  1.0705  0.0951
  324MOL0     C44588   4.219   2.617   2.329 -1.1095  0.3714  0.5290
  324MOL0     C44589   4.156   2.751   2.288  0.6305  0.6009  0.1782
  324MOL0     C44590   4.193   2.864   2.388 -0.4918  0.2410  0.1221
  324MOL0     N44591   4.095   2.977   2.372 -0.8738 -0.2318 -0.3401
  324MOL0     C44592   4.119   3.089   2.290 -0.2926 -0.7631 -1.1650
  324MOL0     C44593   4.014   3.174   2.315  0.4105  0.2613  0.0477
  324MOL0     C44594   3.998   3.321   2.281  0.0424 -0.4979  0.3720
  324MOL0     C44595   3.906   3.390   2.379  0.3826 -0.5104  0.9313
  324MOL0     C44596   3.955   3.402   2.520 -0.4493  0.1780  0.8040
  324MOL0     C44597   3.849   3.440   2.618 -0.7182  1.2978 -0.5845
  324MOL0     O44598   3.880   3.398   2.754 -0.1791  0.3662 -0.5365
  324MOL0     C44599   3.976   3.463   2.825  1.2440 -0.0894  1.0447
  324MOL0     C44600   3.999   3.421   2.949  0.2218  0.3286  0.4370
  324MOL0     C44601   4.096   3.478   3.034 -0.1717  0.4828  0.6768
  324MOL0     C44602   4.118   3.414   3.173 -0.7295  0.1910  0.9041
  324MOL0     C44603   4.169   3.592   2.980  0.2650 -0.0086 -0.1049
  324MOL0     C44604   4.277   3.661   3.054  0.2773  0.1304  0.5275
  324MOL0     O44605   4.348   3.753   2.965  0.3394 -0.2054 -0.0792
  324MOL0     C44606   4.460   3.812   3.016  0.0301 -0.0717 -0.5586
  324MOL0     C44607   4.577   3.735   3.024 -0.3627 -0.3907 -0.6737
  324MOL0     C44608   4.687   3.803   3.077  0.5790 -0.6419 -0.1561
  324MOL0     C44609   4.679   3.945   3.117 -0.1853  0.1804 -0.0230
  324MOL0     O44610   4.787   4.019   3.164  0.3352  0.4486 -0.5496
  324MOL0     C44611   4.910   3.947   3.141  0.4562 -0.1978 -0.2316
  324MOL0     C44612   5.014   4.050   3.169 -0.1048  0.5341 -1.3710
  324MOL0     C44613   5.040   4.151   3.059 -0.3033 -0.2081 -0.4555
  324MOL0     C44614   5.160   4.247   3.079  0.2971 -0.6428  0.5754
  324MOL0     C44615   5.192   4.340   2.958  0.7784 -0.9289  0.9083
  324MOL0     C44616   5.177   4.260   2.823  0.0993 -0.3256 -0.9034
  324MOL0     C44617   5.235   4.347   2.710 -0.0860  1.0804  0.4201
  324MOL0     C44618   5.248   4.272   2.582  1.1268 -0.2877  0.5949
  324MOL0    Cl44619   5.080   4.238   2.535  0.2145 -0.1026 -0.1629
  324MOL0     C44620   4.546   4.008   3.116 -1.3757  1.1795 -0.4623
  324MOL0     C44621   4.446   3.940   3.062  0.1290 -0.3401 -0.1399
  324MOL0     O44622   4.299   3.637   3.170 -0.3778 -0.1553 -0.6786
  324MOL0     C44623   4.134   3.634   2.854  1.3628  0.0499  0.1309
  324MOL0     C44624   4.043   3.564   2.770 -0.5725 -0.1995 -0.1979
  324MOL0     N44625   3.930   3.104   2.403 -0.6441 -0.1149  0.1434
  324MOL0     N44626   3.979   2.994   2.438 -0.2042 -0.0425  0.1565
  324MOL0     C44627   4.361   1.732   2.180  0.4080 -1.1903 -0.7423
  324MOL0     C44628   4.384   1.597   2.156 -0.0695  0.9218 -0.1190
  324MOL0     C44629   4.216   1.151   2.045  0.6819  0.2158 -0.0377
  324MOL0     C44630   4.286   1.163   1.923  0.8768 -0.1896 -0.9116
  324MOL0     C44631   4.325   1.054   1.846 -0.0245  0.6996  0.2041
  324MOL0     C44632   4.270   0.929   1.872 -0.3810  0.3093 -1.0724
  324MOL0     O44633   4.284   0.832   1.781  0.1119 -0.0230  0.3339
  324MOL0     C44634   4.257   0.689   1.811  0.0617  1.0207 -0.6239
  324MOL0     C44635   4.306   0.593   1.695  0.4172 -0.2726  0.0989
  324MOL0     C44636   4.246   0.622   1.561 -0.3443 -0.1495 -0.2066
  324MOL0     C44637   4.093   0.639   1.547 -0.3521 -0.2462  0.4570
  324MOL0     C44638   4.059   0.607   1.412  0.6175 -0.3713 -0.2059
  324MOL0     C44639   4.043   0.566   1.301 -0.6403 -0.0303  0.3826
  324MOL0     C44640   4.194   0.911   1.989 -0.4347  0.2389  0.1706
  324MOL0     C44641   4.170   1.020   2.080  0.3665  0.4614 -0.1293
  324MOL0     C44642   4.094   0.992   2.209  0.1811  0.6489 -0.7824
  324MOL0     H44643   4.066   1.495   2.097  0.1817 -0.0040 -2.2225
  324MOL0     H44644   4.017   1.725   2.166  0.9677 -1.3470  1.4248
  324MOL0     H44645   4.351   2.040   2.157  0.7089  0.0920  0.7691
  324MOL0     H44646   4.372   1.947   2.303 -2.7894 -2.9024  0.4472
  324MOL0     H44647   4.154   2.088   2.390  0.4868  0.7878  2.4209
  324MOL0     H44648   4.332   2.134   2.398  1.1998 -0.8043 -0.9594
  324MOL0     H44649   4.295   2.249   2.166  0.6945 -0.6307 -0.2460
  324MOL0     H44650   4.118   2.224   2.225  0.7411 -0.9302 -1.3996
  324MOL0     H44651   4.143   2.322   2.406  0.0516  0.9136 -0.5541
  324MOL0     H44652   4.318   2.374   2.391  1.1339  0.8716 -0.9505
  324MOL0     H44653   4.068   2.486   2.248 -0.1127  2.3541 -1.5069
  324MOL0     H44654   4.236   2.497   2.169 -0.9976  3.7359 -0.2205
  324MOL0     H44655   4.192   2.598   2.434 -1.0945 -3.1830  0.0200
  324MOL0     H44656   4.328   2.629   2.325 -0.8436 -1.5867  0.5843
  324MOL0     H44657   4.048   2.738   2.289  0.1389  3.8130  0.7567
  324MOL0     H44658   4.191   2.791   2.192  0.5454  2.2166  0.7802
  324MOL0     H44659   4.198   2.827   2.491  1.7696  0.5227  0.1719
  324MOL0     H44660   4.294   2.893   2.357  0.6417 -1.1252  2.2415
  324MOL0     H44661   4.203   3.123   2.231 -0.8574 -0.4402 -1.7958
  324MOL0     H44662   3.957   3.320   2.179 -2.0035 -1.1407  1.1375
  324MOL0     H44663   4.099   3.362   2.285 -0.6037  1.6055 -2.0572
  324MOL0     H44664   3.895   3.489   2.332  1.3124  1.2160  4.0902
  324MOL0     H44665   3.815   3.330   2.376  0.8504 -1.3677 -3.2792
  324MOL0     H44666   3.990   3.302   2.547 -1.2724 -1.0350 -2.2671
  324MOL0     H44667   4.039   3.473   2.519 -0.0733 -0.2407 -0.9294
  324MOL0     H44668   3.835   3.548   2.612  0.3132  1.7861  3.0983
  324MOL0     H44669   3.758   3.384   2.593 -0.0309 -0.7891  1.2601
  324MOL0     H44670   3.939   3.336   2.978 -1.3633 -0.2513 -3.8370
  324MOL0     H44671   4.104   3.308   3.153 -1.1461  0.3890  0.1043
  324MOL0     H44672   4.056   3.453   3.255 -2.2898 -0.0321 -0.1281
  324MOL0     H44673   4.220   3.413   3.213  0.1598 -2.3278 -1.2110
  324MOL0     H44674   4.567   3.632   2.993 -1.1380 -1.1507  1.8438
  324MOL0     H44675   4.776   3.747   3.103  1.4390  1.0564  0.7606
  324MOL0     H44676   4.920   3.860   3.207  0.8039  0.3642  0.4623
  324MOL0     H44677   4.918   3.904   3.041  0.9149 -1.2844  0.2499
  324MOL0     H44678   4.985   4.104   3.260  2.8020 -3.0104  2.0133
  324MOL0     H44679   5.106   4.004   3.204  0.5430  1.7593 -1.3882
  324MOL0     H44680   4.951   4.213   3.046 -0.4565  0.8032  3.8964
  324MOL0     H44681   5.064   4.091   2.971 -1.5229  0.5540 -1.3394
  324MOL0     H44682   5.244   4.179   3.095  0.9641  0.4110  1.6847
  324MOL0     H44683   5.148   4.296   3.176 -2.5243  0.9179 -0.4281
  324MOL0     H44684   5.117   4.419   2.969 -0.4548 -1.9302 -0.0500
  324MOL0     H44685   5.294   4.378   2.969  1.2897 -1.4469 -1.5000
  324MOL0     H44686   5.078   4.217   2.803 -0.0141 -0.9691  0.8334
  324MOL0     H44687   5.244   4.174   2.835 -0.7671 -0.6660  2.2192
  324MOL0     H44688   5.330   4.384   2.749  0.9905 -0.3729 -0.7081
  324MOL0     H44689   5.169   4.431   2.687 -0.5467  0.5993 -0.0296
  324MOL0     H44690   5.313   4.184   2.587  2.5324  0.6811  0.0053
  324MOL0     H44691   5.274   4.348   2.508 -1.5550  2.0842  1.8675
  324MOL0     H44692   4.531   4.112   3.145  3.7098  2.4953 -1.5635
  324MOL0     H44693   4.344   3.979   3.062 -0.3292 -1.4621  1.0685
  324MOL0     H44694   4.168   3.726   2.807 -1.5629  0.1717 -1.9620
  324MOL0     H44695   4.018   3.604   2.673 -4.0893  0.2317  0.7386
  324MOL0     H44696   4.455   1.785   2.189 -0.2394 -0.3003  1.7830
  324MOL0     H44697   4.478   1.554   2.188 -1.0153  0.0406  1.6657
  324MOL0     H44698   4.330   1.258   1.893  0.7283  0.6392  1.3368
  324MOL0     H44699   4.391   1.057   1.760 -1.1410 -1.5522 -0.8237
  324MOL0     H44700   4.316   0.659   1.898 -1.5266  1.7081  0.7523
  324MOL0     H44701   4.153   0.662   1.834  1.0117 -2.9863 -0.2330
  324MOL0     H44702   4.278   0.491   1.726  0.0977  0.2913  1.7917
  324MOL0     H44703   4.414   0.591   1.681  0.1476 -0.1411 -2.3596
  324MOL0     H44704   4.290   0.716   1.526  1.5427 -0.7304  0.4928
  324MOL0     H44705   4.280   0.548   1.489 -0.9124  0.1318 -0.7812
  324MOL0     H44706   4.063   0.741   1.571  0.7966 -0.6532  4.4866
  324MOL0     H44707   4.057   0.558   1.612 -1.0761  1.6862  2.6117
  324MOL0     H44708   4.027   0.517   1.207 -2.6799  2.4365 -0.6803
  324MOL0     H44709   4.142   0.820   2.014 -2.2935  0.6426 -1.9007
  324MOL0     H44710   4.043   0.895   2.213 -0.1725  0.8742  0.5902
  324MOL0     H44711   4.165   0.999   2.292  1.4671 -1.9921 -1.5216
  324MOL0     H44712   4.021   1.073   2.210 -0.3685  0.1621 -0.3577
  325MOL0     O44713   1.027   3.884   5.384  0.1424  0.9444 -0.4204
  325MOL0     C44714   1.101   3.793   5.431  0.0399 -0.2540 -0.1482
  325MOL0     O44715   1.084   3.662   5.417 -0.3670  0.0345  0.2058
  325MOL0     C44716   1.029   3.615   5.300 -0.1944  0.4216  0.1942
  325MOL0     C44717   0.951   3.495   5.305 -0.8720 -1.1663 -0.6120
  325MOL0     C44718   0.900   3.438   5.188 -0.1438  0.0561 -0.9425
  325MOL0     C44719   0.923   3.500   5.071  0.4903 -0.5872  0.4403
  325MOL0     O44720   0.861   3.434   4.961 -0.7116 -0.4520  0.6822
  325MOL0     C44721   0.845   3.504   4.835 -0.1104  0.1814  0.3482
  325MOL0     C44722   0.755   3.418   4.739  0.5815  0.2935  0.8290
  325MOL0     C44723   0.736   3.482   4.596  1.2397  0.0743 -0.2982
  325MOL0     C44724   0.732   3.371   4.483  0.1503  0.0548 -0.4532
  325MOL0     C44725   0.651   3.407   4.361 -0.5407 -0.9554  0.5554
  325MOL0     C44726   0.740   3.427   4.228  0.1893 -0.1540 -0.6147
  325MOL0     C44727   0.641   3.469   4.117  0.5853  1.1933 -1.0802
  325MOL0     C44728   0.703   3.544   4.012  0.0285 -0.2932 -0.0820
  325MOL0     N44729   0.602   3.621   3.932 -1.0703  0.1603 -0.4882
  325MOL0     C44730   0.545   3.578   3.815  0.1520  0.3109 -0.0725
  325MOL0     C44731   0.462   3.675   3.784 -0.1168 -0.3011 -0.8910
  325MOL0     C44732   0.361   3.655   3.666  0.4041  0.2496  1.0034
  325MOL0     C44733   0.317   3.791   3.600  0.0604  0.4127  0.1317
  325MOL0     C44734   0.220   3.776   3.485  0.2532  0.3943  0.3517
  325MOL0     C44735   0.281   3.817   3.356 -0.8163 -0.1112  0.2818
  325MOL0     O44736   0.292   3.962   3.352 -0.7744 -0.2889  0.0312
  325MOL0     C44737   0.210   4.034   3.265 -0.0333  0.2598  0.2564
  325MOL0     C44738   0.074   4.003   3.248 -0.2952 -0.0065  0.0311
  325MOL0     C44739  -0.007   4.095   3.176 -0.3636  0.4210 -0.7977
  325MOL0     C44740  -0.151   4.056   3.177 -0.4225 -0.4832 -0.1326
  325MOL0     C44741   0.045   4.201   3.105 -0.5936 -0.3141 -0.0711
  325MOL0     C44742  -0.045   4.300   3.027 -0.0619  1.1648  0.0722
  325MOL0     O44743  -0.176   4.303   3.046 -0.7718 -0.0597  0.1609
  325MOL0     C44744  -0.240   4.404   2.986 -0.3691 -0.1642 -0.3915
  325MOL0     C44745  -0.255   4.533   3.044  0.6413 -0.0779  0.6503
  325MOL0     C44746  -0.325   4.631   2.971 -0.4436 -1.1802  0.4317
  325MOL0     C44747  -0.400   4.606   2.854 -0.5626  0.3010 -0.2222
  325MOL0     O44748  -0.485   4.691   2.799  0.7101 -0.1166 -0.0169
  325MOL0     C44749  -0.503   4.826   2.849 -0.9752  0.6303 -1.0118
  325MOL0     C44750  -0.622   4.899   2.786  0.3487 -1.2796  0.6198
  325MOL0     C44751  -0.649   5.032   2.863  0.0156  0.6775 -0.1193
  325MOL0     C44752  -0.787   5.073   2.843 -0.1721  0.2489 -0.1074
  325MOL0     C44753  -0.817   5.206   2.929  0.4455 -0.0003 -0.4105
  325MOL0     C44754  -0.746   5.343   2.896  0.0758 -0.7922  1.0257
  325MOL0     C44755  -0.770   5.373   2.749  0.1487 -0.2358  0.6164
  325MOL0     C44756  -0.762   5.526   2.716 -0.2538  0.0503  0.5676
  325MOL0    Cl44757  -0.596   5.588   2.770 -0.1890 -0.1422 -0.3772
  325MOL0     C44758  -0.385   4.474   2.806  0.4249 -0.2147 -0.4439
  325MOL0     C44759  -0.307   4.380   2.871 -0.1853  0.4926 -1.0656
  325MOL0     O44760   0.022   4.372   2.950 -0.3194  0.0129  0.7247
  325MOL0     C44761   0.184   4.229   3.113 -0.3565 -0.7668  0.2815
  325MOL0     C44762   0.263   4.143   3.187 -0.4482 -0.4816 -0.2519
  325MOL0     N44763   0.457   3.767   3.891 -0.8606  0.1212  0.5190
  325MOL0     N44764   0.550   3.737   3.977 -0.1717 -0.0596 -0.1209
  325MOL0     C44765   1.010   3.613   5.059 -0.4556 -0.1627  0.3700
  325MOL0     C44766   1.069   3.669   5.178  0.2652  0.0576  0.3594
  325MOL0     C44767   1.218   3.839   5.514  0.4358  0.2110 -0.2769
  325MOL0     C44768   1.302   3.732   5.555 -0.6683 -0.4220  0.0582
  325MOL0     C44769   1.427   3.759   5.626  0.6427  0.0148 -0.5492
  325MOL0     C44770   1.455   3.891   5.663  0.7099  0.4497  0.3667
  325MOL0     O44771   1.571   3.907   5.740 -0.3203 -0.5827  0.3439
  325MOL0     C44772   1.655   4.014   5.701 -0.2062  0.4071 -0.5922
  325MOL0     C44773   1.740   4.037   5.829 -0.4650 -0.4611 -0.4939
  325MOL0     C44774   1.686   4.162   5.924 -0.1545 -0.5676  0.4169
  325MOL0     C44775   1.530   4.170   5.932  0.1594 -0.3591 -0.5533
  325MOL0     C44776   1.491   4.275   6.030 -0.9004 -0.6643  0.4452
  325MOL0     C44777   1.450   4.356   6.107  0.5451 -0.3118  0.4885
  325MOL0     C44778   1.372   3.993   5.631  0.8931  0.0972  0.5720
  325MOL0     C44779   1.258   3.968   5.556 -0.2466 -0.4798  0.1319
  325MOL0     C44780   1.184   4.083   5.503 -0.5592 -0.0829 -0.3435
  325MOL0     H44781   0.912   3.446   5.394 -3.2279 -0.1546 -1.0083
  325MOL0     H44782   0.826   3.360   5.195 -1.8197  1.4286 -2.3433
  325MOL0     H44783   0.944   3.521   4.794 -1.0291  0.9440 -1.6921
  325MOL0     H44784   0.794   3.597   4.860  0.9547  0.2780  2.3379
  325MOL0     H44785   0.783   3.313   4.732 -0.7643 -0.0285 -0.3107
  325MOL0     H44786   0.658   3.420   4.789  0.5375 -1.2244  0.8408
  325MOL0     H44787   0.639   3.531   4.592  2.3344  2.4520  0.6783
  325MOL0     H44788   0.809   3.563   4.594  1.6586 -0.1418  2.3946
  325MOL0     H44789   0.830   3.338   4.447 -0.2720 -1.3645 -0.3611
  325MOL0     H44790   0.686   3.282   4.527 -1.3946 -0.7047 -3.3535
  325MOL0     H44791   0.599   3.499   4.391  0.6342  0.0639 -0.3914
  325MOL0     H44792   0.576   3.329   4.341 -2.2691  0.0063  2.7509
  325MOL0     H44793   0.819   3.495   4.262 -0.5833  0.2057  0.5510
  325MOL0     H44794   0.782   3.330   4.200 -1.2474  0.2414 -4.7788
  325MOL0     H44795   0.563   3.532   4.163  2.0726 -0.5777  4.7026
  325MOL0     H44796   0.604   3.378   4.070 -2.3649  1.5509  0.3254
  325MOL0     H44797   0.768   3.607   4.074 -3.5574 -0.6932  4.6904
  325MOL0     H44798   0.751   3.478   3.940 -1.4399  0.2845 -1.6547
  325MOL0     H44799   0.558   3.483   3.764  0.6831  0.4443 -0.1909
  325MOL0     H44800   0.274   3.599   3.703 -0.8015 -0.7281 -2.7609
  325MOL0     H44801   0.404   3.584   3.594 -1.2419 -1.1451  1.3101
  325MOL0     H44802   0.281   3.843   3.689  1.1710  3.1681 -0.9188
  325MOL0     H44803   0.406   3.847   3.569  0.8088 -0.3791  0.8018
  325MOL0     H44804   0.186   3.674   3.462  1.0537  0.2919 -0.4244
  325MOL0     H44805   0.140   3.847   3.504 -1.2997 -1.4805  1.2206
  325MOL0     H44806   0.376   3.761   3.359 -0.6050  0.2030 -0.3805
  325MOL0     H44807   0.217   3.788   3.273 -2.4165  3.0944  0.2585
  325MOL0     H44808   0.041   3.919   3.308 -2.7301  1.1105  0.3716
  325MOL0     H44809  -0.174   3.951   3.198  0.0120 -0.4987  0.2778
  325MOL0     H44810  -0.198   4.073   3.080 -0.3512  0.4175 -0.0115
  325MOL0     H44811  -0.206   4.117   3.250 -0.4933 -0.9267  0.1911
  325MOL0     H44812  -0.215   4.555   3.142 -4.0846  1.7519  2.4656
  325MOL0     H44813  -0.334   4.737   2.993  2.1530 -0.4691 -1.4367
  325MOL0     H44814  -0.514   4.834   2.957 -1.9529  2.8230 -1.2131
  325MOL0     H44815  -0.412   4.879   2.820  0.4533 -0.0892  1.8484
  325MOL0     H44816  -0.604   4.933   2.684 -1.5208  2.5428  1.3836
  325MOL0     H44817  -0.715   4.841   2.787 -2.2678  2.5103 -0.1041
  325MOL0     H44818  -0.582   5.108   2.820  1.9957 -0.5954  0.5606
  325MOL0     H44819  -0.613   5.034   2.967  0.7004 -2.6735 -0.1893
  325MOL0     H44820  -0.855   4.991   2.869  1.1687 -0.3163  1.7954
  325MOL0     H44821  -0.802   5.082   2.735  3.2500 -3.5323 -1.1747
  325MOL0     H44822  -0.924   5.230   2.931 -0.2261 -2.7674  0.8741
  325MOL0     H44823  -0.794   5.180   3.033 -1.6645 -3.6426 -0.6833
  325MOL0     H44824  -0.639   5.349   2.918  0.5936  1.1411 -1.4945
  325MOL0     H44825  -0.792   5.412   2.967  0.2093 -0.2343  0.5796
  325MOL0     H44826  -0.871   5.347   2.719 -0.4209 -2.7712  4.0525
  325MOL0     H44827  -0.698   5.323   2.683  0.6865  0.3333  0.7695
  325MOL0     H44828  -0.831   5.581   2.780 -0.7345 -0.7664  0.7697
  325MOL0     H44829  -0.793   5.556   2.616 -0.6015  3.8338  1.6539
  325MOL0     H44830  -0.457   4.451   2.728 -1.0490 -0.5822  0.9552
  325MOL0     H44831  -0.305   4.280   2.829 -2.8935  0.0929 -0.4694
  325MOL0     H44832   0.233   4.315   3.069 -0.9973  0.5241  1.9534
  325MOL0     H44833   0.366   4.176   3.202 -0.6316  1.5692 -2.8209
  325MOL0     H44834   1.033   3.646   4.959 -2.3699 -1.3596 -0.5269
  325MOL0     H44835   1.148   3.742   5.171  2.2331 -2.0059 -0.1174
  325MOL0     H44836   1.274   3.627   5.543  0.7757 -1.0204  1.6072
  325MOL0     H44837   1.491   3.680   5.665 -0.5863  0.8491  3.6745
  325MOL0     H44838   1.711   3.987   5.612 -1.4265  1.7689 -1.8344
  325MOL0     H44839   1.612   4.113   5.683  1.7692  1.2992 -0.6244
  325MOL0     H44840   1.843   4.049   5.794 -1.4380  1.7738 -2.9828
  325MOL0     H44841   1.728   3.945   5.887  0.4132 -0.3548 -0.1279
  325MOL0     H44842   1.723   4.137   6.024 -1.8172 -1.5948  0.8210
  325MOL0     H44843   1.727   4.251   5.876 -1.1832 -0.1565  0.2900
  325MOL0     H44844   1.505   4.072   5.974  1.7956 -0.0641  1.2262
  325MOL0     H44845   1.477   4.186   5.837 -2.5762 -2.7864  0.4472
  325MOL0     H44846   1.419   4.438   6.169 -0.9926  1.3073 -2.1833
  325MOL0     H44847   1.391   4.093   5.669 -0.6598  0.4765  0.4484
  325MOL0     H44848   1.080   4.060   5.525 -0.3638  0.9934  1.9611
  325MOL0     H44849   1.207   4.183   5.540  0.6607 -0.0934 -1.0052
  325MOL0     H44850   1.203   4.079   5.395  0.2935 -0.1204 -0.2048
  326MOL0     O44851   6.303   8.731   6.395 -0.8066 -0.2177 -0.5751
  326MOL0     C44852   6.232   8.643   6.440  0.6668  0.0929  0.0285
  326MOL0     O44853   6.194   8.645   6.570  0.4345 -0.5792 -0.0728
  326MOL0     C44854   6.227   8.762   6.642  0.5654  0.9176 -0.9112
  326MOL0     C44855   6.345   8.769   6.711 -0.4866  0.0543 -0.5679
  326MOL0     C44856   6.367   8.883   6.786  1.4613  0.1141 -0.1674
  326MOL0     C44857   6.270   8.985   6.800 -0.3382  0.2099  0.3391
  326MOL0     O44858   6.295   9.101   6.866 -0.5753 -0.0161 -0.0860
  326MOL0     C44859   6.247   9.227   6.809 -0.4390  0.7047  0.0023
  326MOL0     C44860   6.333   9.356   6.820  0.0308  0.1919 -0.0976
  326MOL0     C44861   6.358   9.386   6.975  0.9018 -0.1569 -0.2563
  326MOL0     C44862   6.494   9.331   7.024 -0.8731 -0.5718 -0.0691
  326MOL0     C44863   6.517   9.382   7.165  0.5382 -0.6680  0.0117
  326MOL0     C44864   6.640   9.317   7.218  0.6220 -0.2928  0.2317
  326MOL0     C44865   6.689   9.368   7.352 -0.0715  0.0052  0.3171
  326MOL0     C44866   6.808   9.293   7.400 -0.6151  0.6418  0.0634
  326MOL0     N44867   6.923   9.296   7.315  0.6188 -0.2270 -0.1520
  326MOL0     C44868   6.966   9.212   7.216  0.0249  0.1809 -0.6398
  326MOL0     C44869   7.085   9.268   7.173  0.7901 -0.0331  0.5329
  326MOL0     C44870   7.165   9.210   7.068 -0.1316  0.1194  0.2124
  326MOL0     C44871   7.291   9.157   7.130 -0.1629 -1.0573  0.6075
  326MOL0     C44872   7.340   9.021   7.065 -0.2060  0.2977  0.0834
  326MOL0     C44873   7.463   8.969   7.135 -0.2774 -0.6441  0.0996
  326MOL0     O44874   7.568   9.066   7.102 -0.3916 -0.3013 -0.6004
  326MOL0     C44875   7.651   9.044   6.992 -0.5558 -1.2482 -1.2689
  326MOL0     C44876   7.636   8.948   6.896  0.6225 -0.2786  0.0158
  326MOL0     C44877   7.733   8.928   6.794 -0.9177  0.8016 -1.3975
  326MOL0     C44878   7.696   8.822   6.685 -0.1438 -0.1155  0.1491
  326MOL0     C44879   7.859   9.000   6.801  0.0104  0.4029 -0.1711
  326MOL0     C44880   7.969   9.011   6.697  0.4460  0.3017 -0.1149
  326MOL0     O44881   8.096   8.997   6.717  0.3745 -0.1198 -0.1778
  326MOL0     C44882   8.198   9.017   6.623  0.7641  0.2726 -0.1180
  326MOL0     C44883   8.206   9.111   6.528  0.0083  0.1727  0.2080
  326MOL0     C44884   8.310   9.102   6.432  0.1992 -0.8434  0.9338
  326MOL0     C44885   8.408   9.003   6.437  0.2963 -0.5236  0.6702
  326MOL0     O44886   8.497   9.007   6.331 -0.1785 -0.6626 -0.2482
  326MOL0     C44887   8.604   8.912   6.337 -1.7902  0.5194  0.2092
  326MOL0     C44888   8.570   8.788   6.256 -0.4829 -0.2382 -0.7024
  326MOL0     C44889   8.645   8.672   6.309  0.4829  0.4389 -0.6387
  326MOL0     C44890   8.618   8.638   6.456 -0.9472 -0.5082  0.0165
  326MOL0     C44891   8.674   8.497   6.486  0.4914  0.7427 -1.0275
  326MOL0     C44892   8.642   8.453   6.635 -0.0216  0.0431  1.3502
  326MOL0     C44893   8.666   8.308   6.655 -0.6566  0.2087  0.5872
  326MOL0     C44894   8.590   8.251   6.773  0.5804  0.0513 -0.1975
  326MOL0    Cl44895   8.413   8.280   6.749 -0.4655 -0.2548 -0.2812
  326MOL0     C44896   8.411   8.917   6.549 -0.1086 -0.9504 -0.5573
  326MOL0     C44897   8.299   8.920   6.631 -0.7666  1.3364  0.5679
  326MOL0     O44898   7.923   9.032   6.583 -0.3840 -0.2741  0.1252
  326MOL0     C44899   7.866   9.100   6.908 -0.9086 -0.1923 -0.5666
  326MOL0     C44900   7.770   9.118   6.998  0.3361  0.1687 -0.6213
  326MOL0     N44901   7.113   9.366   7.263 -0.2122 -0.2217 -0.2233
  326MOL0     N44902   7.016   9.388   7.336 -0.4866  0.7995  0.0259
  326MOL0     C44903   6.154   8.969   6.725  0.2600 -0.9723 -0.6483
  326MOL0     C44904   6.134   8.860   6.640  0.3426 -0.8736 -0.4153
  326MOL0     C44905   6.194   8.531   6.358  0.5383  0.6659  0.5472
  326MOL0     C44906   6.142   8.415   6.408 -1.0933  0.8353  0.1994
  326MOL0     C44907   6.079   8.306   6.333  0.1072  0.4091 -0.1410
  326MOL0     C44908   6.080   8.316   6.194  0.4207  0.5520 -0.7362
  326MOL0     O44909   6.028   8.227   6.104  0.7431  0.3353  0.1499
  326MOL0     C44910   5.967   8.092   6.129 -0.5778 -0.4155 -0.3115
  326MOL0     C44911   5.997   7.999   6.015  0.8743  0.4803  0.5254
  326MOL0     C44912   5.955   8.061   5.880 -0.3076  0.3838 -0.5678
  326MOL0     C44913   5.948   7.962   5.765 -0.1148  1.0439  0.1747
  326MOL0     C44914   5.851   8.031   5.675  0.5563  0.6396 -0.9884
  326MOL0     C44915   5.790   8.100   5.600  0.0907 -0.3667  0.1583
  326MOL0     C44916   6.124   8.439   6.139 -0.6142  1.1159 -0.1992
  326MOL0     C44917   6.173   8.541   6.215 -0.0481 -0.2984  0.1183
  326MOL0     C44918   6.191   8.671   6.149  0.4492 -0.3240  0.5764
  326MOL0     H44919   6.416   8.687   6.705 -1.1478 -0.5546 -0.1867
  326MOL0     H44920   6.455   8.906   6.845  0.7560  1.5908  0.3699
  326MOL0     H44921   6.153   9.256   6.857 -1.2930  2.0044 -2.3346
  326MOL0     H44922   6.230   9.225   6.702 -0.6937  0.4574  0.0473
  326MOL0     H44923   6.429   9.348   6.767 -0.3057  1.0130 -0.8417
  326MOL0     H44924   6.290   9.445   6.774  3.4295  0.4397 -3.3409
  326MOL0     H44925   6.345   9.493   6.991 -0.4039 -0.2936 -0.3051
  326MOL0     H44926   6.294   9.325   7.039  1.6404  1.1983  1.8702
  326MOL0     H44927   6.482   9.222   7.021 -2.1975 -0.5340 -5.1197
  326MOL0     H44928   6.583   9.348   6.963  0.3645  0.9478  2.0295
  326MOL0     H44929   6.429   9.364   7.227 -2.1182  2.9378 -2.2739
  326MOL0     H44930   6.523   9.491   7.168 -2.6665 -0.4036  2.2378
  326MOL0     H44931   6.631   9.208   7.217 -1.2121 -0.1696  0.3826
  326MOL0     H44932   6.720   9.342   7.148 -0.1526  2.9030  0.3131
  326MOL0     H44933   6.611   9.371   7.429  0.8303  0.4284  1.2497
  326MOL0     H44934   6.718   9.473   7.343  0.7179  0.0593  2.7172
  326MOL0     H44935   6.827   9.341   7.497 -0.6266 -2.1231  1.5245
  326MOL0     H44936   6.783   9.188   7.419 -0.8710  0.6542 -0.2044
  326MOL0     H44937   6.915   9.126   7.174  1.4804 -1.1121  0.1487
  326MOL0     H44938   7.179   9.277   6.982 -0.3905 -0.4793 -0.3087
  326MOL0     H44939   7.101   9.143   7.011 -0.9621  2.3284 -1.5881
  326MOL0     H44940   7.369   9.234   7.129 -2.4391  1.4100 -0.2272
  326MOL0     H44941   7.279   9.136   7.237  2.3407  0.8687  1.3670
  326MOL0     H44942   7.260   8.948   7.070  1.0480 -1.1419 -0.1545
  326MOL0     H44943   7.356   9.024   6.957  0.3128 -3.1567 -0.0316
  326MOL0     H44944   7.458   8.961   7.244  1.6600  2.5240  0.5593
  326MOL0     H44945   7.492   8.868   7.103  1.6406  0.1277 -0.7448
  326MOL0     H44946   7.534   8.911   6.894 -0.9059  3.4127  0.9071
  326MOL0     H44947   7.626   8.751   6.730 -0.6803  1.5651  2.1446
  326MOL0     H44948   7.788   8.771   6.653 -0.3367 -0.1038 -0.4378
  326MOL0     H44949   7.655   8.880   6.602  0.2791 -0.6396 -0.4392
  326MOL0     H44950   8.127   9.184   6.516 -1.3539 -1.6232 -3.0538
  326MOL0     H44951   8.322   9.190   6.370  3.2703  0.7486  3.4886
  326MOL0     H44952   8.693   8.949   6.285 -3.1759  2.7676 -0.6813
  326MOL0     H44953   8.646   8.899   6.437  2.5040 -2.8667 -1.6863
  326MOL0     H44954   8.464   8.770   6.277  0.0910  1.2196  5.6402
  326MOL0     H44955   8.599   8.802   6.152  4.7855 -1.0256  0.3812
  326MOL0     H44956   8.752   8.680   6.291  0.5133  0.5049 -0.4257
  326MOL0     H44957   8.596   8.597   6.246 -4.4825  1.3001  1.7008
  326MOL0     H44958   8.511   8.633   6.477 -1.1631 -0.2794 -0.9799
  326MOL0     H44959   8.669   8.710   6.520  3.6918 -2.7704 -0.6937
  326MOL0     H44960   8.626   8.433   6.411 -1.1688  3.6140 -2.5827
  326MOL0     H44961   8.782   8.500   6.468  0.6622  0.2736 -0.1317
  326MOL0     H44962   8.538   8.484   6.644  0.1817  1.5908 -0.7495
  326MOL0     H44963   8.701   8.514   6.704  2.5263 -0.8254  0.0808
  326MOL0     H44964   8.772   8.293   6.676 -0.1860  0.4160 -1.4250
  326MOL0     H44965   8.657   8.250   6.562  0.8544  0.3798  0.3109
  326MOL0     H44966   8.626   8.272   6.875 -1.4277 -3.3596  1.3653
  326MOL0     H44967   8.596   8.143   6.757  4.7313  0.2908 -1.3785
  326MOL0     H44968   8.483   8.837   6.565 -1.3352 -1.5490  2.9414
  326MOL0     H44969   8.301   8.838   6.703 -0.9509  0.8623  0.0449
  326MOL0     H44970   7.949   9.169   6.898 -2.1013  1.1288 -1.6739
  326MOL0     H44971   7.793   9.184   7.081  0.0363 -0.9304  0.3467
  326MOL0     H44972   6.075   9.044   6.723  0.4387 -0.7422  0.5699
  326MOL0     H44973   6.046   8.854   6.577  1.1171 -1.9714 -1.4196
  326MOL0     H44974   6.141   8.404   6.516 -0.2521  0.1631  0.1415
  326MOL0     H44975   6.038   8.221   6.387 -2.4891  1.4464 -0.3353
  326MOL0     H44976   6.008   8.055   6.223  2.2579  1.9501 -0.4551
  326MOL0     H44977   5.859   8.105   6.140 -0.3283  0.5541  1.2097
  326MOL0     H44978   5.936   7.908   6.019  1.2811  0.2263  0.9180
  326MOL0     H44979   6.100   7.963   6.022  0.8532  0.5418  1.1399
  326MOL0     H44980   5.850   8.088   5.894 -1.4215 -3.5136 -0.4587
  326MOL0     H44981   6.023   8.139   5.844 -0.5739  1.3115  0.8691
  326MOL0     H44982   5.916   7.864   5.799  0.3716  1.1329  0.9157
  326MOL0     H44983   6.046   7.947   5.718 -0.5795 -1.7205 -0.0621
  326MOL0     H44984   5.737   8.168   5.537  1.8890  1.4491  0.4957
  326MOL0     H44985   6.129   8.446   6.031  3.7016 -1.8868 -0.4339
  326MOL0     H44986   6.133   8.748   6.199  2.6829  0.6945  1.7480
  326MOL0     H44987   6.299   8.691   6.143  0.4419 -0.2517  0.6768
  326MOL0     H44988   6.154   8.670   6.046  0.1291 -1.7091  0.6880
  327MOL0     O44989   0.952   9.081   3.120  0.7610 -0.3077  0.8577
  327MOL0     C44990   0.952   9.035   3.235 -0.4581  1.2840  0.7110
  327MOL0     O44991   0.851   8.965   3.297 -0.2133 -0.6583 -0.5819
  327MOL0     C44992   0.759   8.924   3.210  0.1438 -0.2881  0.3025
  327MOL0     C44993   0.799   8.839   3.106 -0.4878  0.4608  0.1225
  327MOL0     C44994   0.709   8.772   3.027 -0.1797 -0.6525 -0.4146
  327MOL0     C44995   0.574   8.767   3.064 -0.8061  1.3447 -0.1115
  327MOL0     O44996   0.505   8.669   2.993  0.4368  0.1775 -0.0284
  327MOL0     C44997   0.361   8.674   2.975 -0.4525  0.2116  0.6478
  327MOL0     C44998   0.304   8.547   3.036  0.7052  0.0351 -0.8926
  327MOL0     C44999   0.150   8.549   3.044  0.5363 -0.6989 -0.1607
  327MOL0     C45000   0.102   8.413   3.098 -0.6327  0.3226 -0.0605
  327MOL0     C45001  -0.043   8.411   3.069  0.4089 -0.8097 -0.8333
  327MOL0     C45002  -0.122   8.519   3.148  0.3992  0.2027 -0.4584
  327MOL0     C45003  -0.267   8.528   3.105  0.9946  0.3248  0.1279
  327MOL0     C45004  -0.349   8.402   3.126  0.1393 -0.6753  0.7677
  327MOL0     N45005  -0.493   8.433   3.150  0.0991 -0.4295  0.2739
  327MOL0     C45006  -0.547   8.461   3.272 -0.3239 -0.0150  0.0356
  327MOL0     C45007  -0.675   8.454   3.258  0.3537 -0.2233  0.6132
  327MOL0     C45008  -0.774   8.466   3.368  0.1835 -0.3084 -0.6500
  327MOL0     C45009  -0.772   8.340   3.443 -0.7668  0.6553 -1.0768
  327MOL0     C45010  -0.892   8.306   3.535 -1.4797 -0.5874 -0.3001
  327MOL0     C45011  -0.916   8.426   3.636  0.1160  0.3179 -0.4703
  327MOL0     O45012  -0.977   8.550   3.580  0.0799  0.7447 -0.6413
  327MOL0     C45013  -1.033   8.635   3.669  0.0131  0.1796 -0.6683
  327MOL0     C45014  -1.143   8.595   3.747 -0.2792 -0.2020 -0.3141
  327MOL0     C45015  -1.191   8.665   3.861 -0.2965  0.9857  0.0213
  327MOL0     C45016  -1.288   8.599   3.945  0.6281  0.7046 -0.2608
  327MOL0     C45017  -1.154   8.801   3.882 -0.7796 -0.0424 -0.2673
  327MOL0     C45018  -1.231   8.890   3.965  0.6979 -0.2423 -0.6176
  327MOL0     O45019  -1.168   9.007   4.010 -0.1033  0.1779  0.6144
  327MOL0     C45020  -1.249   9.105   4.068  0.1079  0.1247 -0.6264
  327MOL0     C45021  -1.239   9.116   4.206 -0.2172  0.0807 -1.0727
  327MOL0     C45022  -1.326   9.205   4.267 -1.0631  0.5159 -0.6003
  327MOL0     C45023  -1.409   9.297   4.194  0.9528  0.2241  0.1926
  327MOL0     O45024  -1.504   9.366   4.258  0.0861  0.8633  0.5402
  327MOL0     C45025  -1.563   9.482   4.198 -0.1963 -0.4837 -0.0859
  327MOL0     C45026  -1.625   9.572   4.302  0.1120  0.1207 -0.3583
  327MOL0     C45027  -1.723   9.666   4.250  0.1712 -0.2810 -0.1070
  327MOL0     C45028  -1.763   9.768   4.358 -0.4955 -0.5613  0.5229
  327MOL0     C45029  -1.872   9.864   4.291  0.0812 -1.6023 -0.0629
  327MOL0     C45030  -1.953   9.936   4.405 -0.3143  0.3436  1.0049
  327MOL0     C45031  -1.860  10.018   4.495 -0.0477  1.3138 -0.1175
  327MOL0     C45032  -1.947  10.085   4.603  0.2292 -0.0823 -0.3112
  327MOL0    Cl45033  -1.830  10.184   4.703 -0.4699 -0.2097  0.1966
  327MOL0     C45034  -1.403   9.280   4.053 -0.5868  0.3953  0.1242
  327MOL0     C45035  -1.326   9.187   3.995 -1.2894 -0.1863 -0.2417
  327MOL0     O45036  -1.359   8.875   3.960 -0.1574 -0.1077 -0.0874
  327MOL0     C45037  -1.038   8.846   3.806 -0.0814  0.2245 -0.7972
  327MOL0     C45038  -0.972   8.764   3.714  1.7667 -0.0363  0.2610
  327MOL0     N45039  -0.704   8.428   3.121  0.3527  0.6618 -0.3382
  327MOL0     N45040  -0.592   8.411   3.061 -0.2973 -0.0450  0.2085
  327MOL0     C45041   0.527   8.857   3.157 -0.8195  0.5094  0.1735
  327MOL0     C45042   0.620   8.928   3.229 -0.4470 -0.5469 -0.4337
  327MOL0     C45043   1.064   9.070   3.329  0.6975 -0.0204  0.1707
  327MOL0     C45044   1.067   8.988   3.446 -0.3531 -0.1443 -0.6007
  327MOL0     C45045   1.187   8.994   3.521 -0.4686 -0.3633 -0.3137
  327MOL0     C45046   1.287   9.096   3.504 -0.1690  0.1337 -0.0516
  327MOL0     O45047   1.413   9.095   3.558 -0.0781 -0.2435  0.3591
  327MOL0     C45048   1.444   8.998   3.657  0.3507  0.6280  1.0230
  327MOL0     C45049   1.581   9.016   3.710 -0.4359  0.2079 -0.5767
  327MOL0     C45050   1.638   8.902   3.806  1.1126  0.2016 -0.6472
  327MOL0     C45051   1.678   8.760   3.750  0.9601  0.5271 -0.5232
  327MOL0     C45052   1.771   8.765   3.645 -0.7948  0.4472  0.1037
  327MOL0     C45053   1.853   8.789   3.551 -0.8305  0.3883 -1.3695
  327MOL0     C45054   1.263   9.188   3.402 -0.0880  0.4074 -0.5202
  327MOL0     C45055   1.156   9.180   3.319 -0.2895  0.0500  0.8588
  327MOL0     C45056   1.154   9.284   3.216 -0.2747 -0.7399 -0.4282
  327MOL0     H45057   0.905   8.837   3.083 -0.4813  3.1629 -0.4230
  327MOL0     H45058   0.742   8.694   2.959 -0.3720  1.0568 -2.5443
  327MOL0     H45059   0.328   8.686   2.871  0.4285 -0.1507  0.3140
  327MOL0     H45060   0.310   8.760   3.020 -2.3958  1.0199 -2.7368
  327MOL0     H45061   0.347   8.460   2.985  3.4842  2.5268 -3.2737
  327MOL0     H45062   0.338   8.545   3.140  1.8552  0.1953 -1.2526
  327MOL0     H45063   0.118   8.635   3.104 -1.2518 -2.2604  1.2514
  327MOL0     H45064   0.117   8.570   2.941  0.7614  2.1089  0.2690
  327MOL0     H45065   0.154   8.334   3.042  4.1850  2.2164  1.2291
  327MOL0     H45066   0.121   8.416   3.205  0.6612  0.7106 -0.2850
  327MOL0     H45067  -0.073   8.310   3.098  0.3765 -0.7046 -0.4998
  327MOL0     H45068  -0.063   8.419   2.962  5.7250 -1.8174 -2.1884
  327MOL0     H45069  -0.118   8.482   3.251  1.3047 -0.5099 -0.7414
  327MOL0     H45070  -0.083   8.620   3.131  0.5187 -0.0656 -1.8486
  327MOL0     H45071  -0.275   8.568   3.004 -0.0790  1.5863  0.6773
  327MOL0     H45072  -0.309   8.608   3.168  0.3693 -0.0744  0.2335
  327MOL0     H45073  -0.340   8.335   3.040 -3.2999  0.9627 -1.0518
  327MOL0     H45074  -0.317   8.338   3.210 -0.5637 -2.1921 -0.0810
  327MOL0     H45075  -0.487   8.482   3.360 -1.0926  1.3326  0.2534
  327MOL0     H45076  -0.864   8.490   3.311  0.4499 -1.3827 -1.5678
  327MOL0     H45077  -0.754   8.549   3.437  0.3932 -0.8581 -0.0366
  327MOL0     H45078  -0.771   8.269   3.359 -1.8252  1.0255 -1.4164
  327MOL0     H45079  -0.679   8.336   3.501 -1.0727  1.2036 -0.5371
  327MOL0     H45080  -0.989   8.284   3.490 -0.5369 -4.6227 -0.7708
  327MOL0     H45081  -0.869   8.218   3.595 -0.2551 -0.6349 -0.7981
  327MOL0     H45082  -0.987   8.388   3.711  0.1547 -0.9242 -1.0475
  327MOL0     H45083  -0.816   8.438   3.678 -0.7533  0.0110  1.8604
  327MOL0     H45084  -1.191   8.499   3.730  1.4456 -1.4066  1.2301
  327MOL0     H45085  -1.282   8.490   3.950  0.3974  0.7432  1.0874
  327MOL0     H45086  -1.391   8.624   3.917  0.6990  0.8889 -0.3589
  327MOL0     H45087  -1.255   8.627   4.045 -0.8567  1.0996  0.1472
  327MOL0     H45088  -1.160   9.061   4.257 -0.4541  0.2129 -0.5559
  327MOL0     H45089  -1.323   9.201   4.376 -0.5633  0.0633 -0.6297
  327MOL0     H45090  -1.484   9.542   4.153 -0.3454 -2.3312 -3.0878
  327MOL0     H45091  -1.641   9.464   4.123 -0.0968 -1.3917  0.0131
  327MOL0     H45092  -1.688   9.517   4.373 -2.5595  2.2095 -0.9494
  327MOL0     H45093  -1.547   9.633   4.348 -0.4530  1.7537 -1.4572
  327MOL0     H45094  -1.809   9.612   4.210 -1.7340  2.8318 -0.5395
  327MOL0     H45095  -1.691   9.727   4.165 -0.5296 -1.7884 -1.4922
  327MOL0     H45096  -1.680   9.838   4.371 -0.3293 -0.3897 -1.1858
  327MOL0     H45097  -1.791   9.731   4.457  0.5905 -0.4746  0.8795
  327MOL0     H45098  -1.828   9.942   4.229 -3.9477  0.6495 -0.4591
  327MOL0     H45099  -1.935   9.802   4.227 -0.1775  0.0400 -1.4813
  327MOL0     H45100  -1.998   9.860   4.469 -0.0293  2.2077  3.5814
  327MOL0     H45101  -2.024   9.998   4.350  1.6440  1.9090  0.0967
  327MOL0     H45102  -1.806  10.089   4.431 -0.4260  1.6326 -0.0843
  327MOL0     H45103  -1.792   9.951   4.549 -1.9601 -1.1838 -0.5890
  327MOL0     H45104  -2.007  10.018   4.666  0.1182  0.1673 -0.1491
  327MOL0     H45105  -2.013  10.159   4.557 -1.7762 -0.0088  2.4085
  327MOL0     H45106  -1.449   9.337   3.973 -1.0458 -3.6122 -2.7605
  327MOL0     H45107  -1.332   9.175   3.888  1.8984  2.4666 -0.8763
  327MOL0     H45108  -1.013   8.945   3.841 -2.9732  0.3990  1.0533
  327MOL0     H45109  -0.893   8.816   3.662 -0.3719  1.9216 -1.2264
  327MOL0     H45110   0.422   8.857   3.185 -0.3861 -3.4744  2.5890
  327MOL0     H45111   0.590   8.961   3.328 -0.7802 -2.4962  0.1546
  327MOL0     H45112   0.998   8.912   3.480 -0.5526  0.1031 -0.4594
  327MOL0     H45113   1.201   8.929   3.607 -0.5074 -0.8289 -0.6626
  327MOL0     H45114   1.368   9.012   3.734 -4.3117  1.4244 -3.2271
  327MOL0     H45115   1.443   8.899   3.610 -0.2239  0.9109  0.4261
  327MOL0     H45116   1.589   9.114   3.758  1.7791 -0.6853  1.1056
  327MOL0     H45117   1.631   9.022   3.613 -1.2337  2.3900 -0.9110
  327MOL0     H45118   1.735   8.933   3.846  0.1277  1.2365  1.0545
  327MOL0     H45119   1.566   8.882   3.886  0.6816  2.7149 -0.3467
  327MOL0     H45120   1.584   8.712   3.722  0.8137  0.8001 -0.5122
  327MOL0     H45121   1.717   8.703   3.834 -0.0038  1.2526  0.4506
  327MOL0     H45122   1.930   8.808   3.479  1.9994 -0.2218  1.2908
  327MOL0     H45123   1.355   9.234   3.370 -0.0043 -0.3113 -1.3689
  327MOL0     H45124   1.066   9.345   3.240  0.7184  0.1793  1.0254
  327MOL0     H45125   1.246   9.344   3.217 -1.1689  0.7052  1.7877
  327MOL0     H45126   1.139   9.233   3.120  1.1089 -0.7024 -0.6833
  328MOL0     O45127   4.776   1.413   9.041 -0.6543 -0.0092 -0.4783
  328MOL0     C45128   4.832   1.415   8.931  1.1052 -0.5546 -0.9080
  328MOL0     O45129   4.954   1.358   8.896  0.3419 -0.3534 -0.6132
  328MOL0     C45130   5.019   1.299   9.000  0.6609  0.1648 -0.5165
  328MOL0     C45131   4.987   1.175   9.058 -0.1736 -0.7256 -0.5677
  328MOL0     C45132   5.053   1.132   9.166  0.5825 -0.1661 -0.2668
  328MOL0     C45133   5.157   1.207   9.222  0.0365 -0.1168 -0.8552
  328MOL0     O45134   5.233   1.173   9.335  0.1550  1.3264  0.3377
  328MOL0     C45135   5.189   1.059   9.420 -0.1943  0.6123 -0.6396
  328MOL0     C45136   5.304   1.022   9.523  0.2561  0.1081  0.5736
  328MOL0     C45137   5.441   1.014   9.455 -0.2273 -0.9232 -0.3102
  328MOL0     C45138   5.555   0.956   9.543  0.3202  0.6177  0.3791
  328MOL0     C45139   5.684   0.926   9.465 -0.2921  0.3044 -0.6302
  328MOL0     C45140   5.793   0.869   9.559  0.2049  0.5337  0.5549
  328MOL0     C45141   5.933   0.850   9.503  0.7549 -0.1746 -0.8417
  328MOL0     C45142   6.031   0.807   9.618  0.3378  1.0573 -0.1214
  328MOL0     N45143   6.170   0.813   9.575  0.3898  0.0785 -0.7905
  328MOL0     C45144   6.224   0.910   9.492 -0.2462  0.1900 -0.5998
  328MOL0     C45145   6.349   0.860   9.453  0.5386  0.5461 -0.6475
  328MOL0     C45146   6.441   0.949   9.375  0.7645 -0.1834 -0.6934
  328MOL0     C45147   6.545   0.867   9.294  0.0559 -0.7128 -0.4897
  328MOL0     C45148   6.481   0.786   9.185  0.5238  1.1860  0.2061
  328MOL0     C45149   6.583   0.740   9.083  0.0146  1.1834  0.6296
  328MOL0     O45150   6.526   0.662   8.967 -0.5261  0.0538  0.3447
  328MOL0     C45151   6.621   0.604   8.892  0.3942 -1.1806 -0.5003
  328MOL0     C45152   6.744   0.541   8.936  0.9873  0.1842 -0.2025
  328MOL0     C45153   6.812   0.463   8.848  0.1209 -0.2848 -0.7013
  328MOL0     C45154   6.936   0.395   8.897  1.1845  0.2316 -0.5030
  328MOL0     C45155   6.773   0.446   8.712  0.2402  0.1524  0.1910
  328MOL0     C45156   6.862   0.378   8.612 -0.5618 -0.5589 -0.4422
  328MOL0     O45157   6.815   0.277   8.540  0.1734 -0.0119 -0.6562
  328MOL0     C45158   6.892   0.228   8.435  0.8021  0.4853 -0.3492
  328MOL0     C45159   6.881   0.091   8.415  0.8943  0.2090 -0.0436
  328MOL0     C45160   6.964   0.034   8.314 -0.7427  0.0715  0.1747
  328MOL0     C45161   7.056   0.103   8.236 -0.1733  0.6621  0.1859
  328MOL0     O45162   7.121   0.041   8.135 -1.2256  0.0606 -0.4467
  328MOL0     C45163   7.256   0.064   8.124  0.7159 -0.7802 -0.4392
  328MOL0     C45164   7.325  -0.058   8.059  0.6786 -0.4793  0.2953
  328MOL0     C45165   7.327  -0.169   8.163  0.3463 -0.1195  0.0397
  328MOL0     C45166   7.449  -0.269   8.128  0.7958  0.3210 -0.6462
  328MOL0     C45167   7.428  -0.388   8.226  0.1576 -0.4128  0.4572
  328MOL0     C45168   7.564  -0.457   8.257  0.5146 -0.4007 -1.0915
  328MOL0     C45169   7.548  -0.557   8.376 -0.3229 -0.0344 -0.0676
  328MOL0     C45170   7.686  -0.622   8.409 -0.2989 -0.8666 -0.4273
  328MOL0    Cl45171   7.769  -0.691   8.269  0.1700 -0.7346 -0.1123
  328MOL0     C45172   7.056   0.242   8.240  1.2062 -0.2849  0.3966
  328MOL0     C45173   6.977   0.295   8.342  0.2458  0.6328  0.0264
  328MOL0     O45174   6.982   0.409   8.615 -0.4867 -0.4021 -0.7350
  328MOL0     C45175   6.649   0.483   8.681  0.1414 -0.0660 -0.5357
  328MOL0     C45176   6.567   0.564   8.769 -1.5787  0.2751  1.0109
  328MOL0     N45177   6.357   0.732   9.498 -0.9095  0.4223 -0.7231
  328MOL0     N45178   6.257   0.710   9.578 -0.6946  1.1244 -0.6647
  328MOL0     C45179   5.186   1.333   9.158  0.4183  0.1346  0.2856
  328MOL0     C45180   5.112   1.380   9.047  0.4294  0.7147 -0.5336
  328MOL0     C45181   4.758   1.487   8.823 -0.2130  1.0477  0.3059
  328MOL0     C45182   4.691   1.602   8.843  0.0567 -0.4964 -0.2193
  328MOL0     C45183   4.624   1.670   8.740 -1.0318  0.2405  0.4193
  328MOL0     C45184   4.612   1.620   8.609 -0.1636  0.0547 -0.0479
  328MOL0     O45185   4.557   1.678   8.494  0.2498 -0.2008 -0.1713
  328MOL0     C45186   4.467   1.792   8.506 -0.1995 -0.4591 -0.4241
  328MOL0     C45187   4.456   1.885   8.380 -0.4701  0.3343 -0.5333
  328MOL0     C45188   4.414   2.024   8.416 -0.8799 -0.4095  1.2373
  328MOL0     C45189   4.365   2.104   8.299  0.0476  0.4540 -0.0304
  328MOL0     C45190   4.452   2.221   8.261  0.7306  0.2247  0.1475
  328MOL0     C45191   4.519   2.318   8.240 -0.7923 -0.0371 -0.0167
  328MOL0     C45192   4.677   1.493   8.589 -0.4717  1.0538 -0.4212
  328MOL0     C45193   4.743   1.424   8.694 -0.2696 -1.1718  0.6019
  328MOL0     C45194   4.793   1.288   8.654 -0.1794 -0.5806  0.7394
  328MOL0     H45195   4.911   1.114   9.011  1.1817 -2.9017 -0.0685
  328MOL0     H45196   5.018   1.041   9.214  0.4672  0.8099  1.5666
  328MOL0     H45197   5.167   0.970   9.361  0.4486  0.5243 -0.7625
  328MOL0     H45198   5.103   1.093   9.479  1.5378  2.2841  1.0947
  328MOL0     H45199   5.312   1.093   9.606  4.5114  0.0873  0.4394
  328MOL0     H45200   5.276   0.933   9.580  0.7685  0.8797  2.1035
  328MOL0     H45201   5.422   0.958   9.362  0.8324  0.6517 -1.5256
  328MOL0     H45202   5.481   1.110   9.422  0.4324 -1.4035 -0.9394
  328MOL0     H45203   5.588   1.025   9.620 -0.9658  0.5296  1.0490
  328MOL0     H45204   5.511   0.859   9.571  4.1527 -1.8360 -1.3246
  328MOL0     H45205   5.729   1.014   9.417  1.3586 -0.2678 -0.2004
  328MOL0     H45206   5.656   0.865   9.378 -0.4149  0.2534 -0.5535
  328MOL0     H45207   5.805   0.935   9.645 -0.1265  1.7712 -0.3159
  328MOL0     H45208   5.764   0.769   9.593 -0.2740 -1.0749 -3.9321
  328MOL0     H45209   5.957   0.954   9.479 -2.2760  0.7259 -0.4137
  328MOL0     H45210   5.949   0.793   9.411 -0.2772  0.2319 -1.2836
  328MOL0     H45211   6.026   0.865   9.710  1.6612  0.3534  0.4223
  328MOL0     H45212   5.999   0.704   9.640  0.9591  1.1185  1.1146
  328MOL0     H45213   6.200   1.013   9.470  2.5712  0.5888 -2.3192
  328MOL0     H45214   6.506   1.012   9.436 -1.7822  0.2322  1.7879
  328MOL0     H45215   6.378   1.013   9.312  0.8013 -1.4717 -2.1050
  328MOL0     H45216   6.627   0.932   9.262  3.6723 -3.3945  2.5105
  328MOL0     H45217   6.595   0.796   9.360  0.5441 -0.9047 -1.0568
  328MOL0     H45218   6.428   0.697   9.221 -0.1338 -0.6538 -4.6419
  328MOL0     H45219   6.397   0.842   9.144  0.0796  2.1219  2.2477
  328MOL0     H45220   6.640   0.822   9.038  0.5415  0.1830 -0.5851
  328MOL0     H45221   6.651   0.684   9.147  0.0362  0.8721  0.3367
  328MOL0     H45222   6.762   0.541   9.043  0.8796 -1.2528 -0.1600
  328MOL0     H45223   6.971   0.310   8.837  4.3035  0.7382  0.4235
  328MOL0     H45224   6.919   0.366   9.001 -1.0266  2.8159 -0.0694
  328MOL0     H45225   7.020   0.465   8.898  0.8739  0.6928  2.4750
  328MOL0     H45226   6.803   0.041   8.471  0.7447  0.9079  0.3921
  328MOL0     H45227   6.936  -0.070   8.301  0.0960 -0.0334 -0.9301
  328MOL0     H45228   7.276   0.152   8.062  1.4690 -0.5780  0.0770
  328MOL0     H45229   7.306   0.091   8.218  2.1646 -1.1340 -1.0826
  328MOL0     H45230   7.270  -0.102   7.976  0.0596 -0.0742  0.4853
  328MOL0     H45231   7.424  -0.037   8.017  2.0397 -2.3293  2.3688
  328MOL0     H45232   7.227  -0.213   8.174  0.0777  0.1766 -1.1484
  328MOL0     H45233   7.353  -0.127   8.260 -0.7952 -0.5553  0.5498
  328MOL0     H45234   7.551  -0.229   8.125  0.0981  2.1837 -1.3691
  328MOL0     H45235   7.436  -0.310   8.027  1.7950 -1.1432 -0.2088
  328MOL0     H45236   7.387  -0.342   8.317  2.1431  0.6252  0.8896
  328MOL0     H45237   7.363  -0.469   8.191  0.9763 -1.4002  1.1967
  328MOL0     H45238   7.639  -0.386   8.293  1.3869 -1.7661 -0.1141
  328MOL0     H45239   7.605  -0.503   8.167  3.8402  2.0269 -1.0180
  328MOL0     H45240   7.474  -0.635   8.354  1.8618 -1.6914 -1.9560
  328MOL0     H45241   7.511  -0.507   8.466 -1.8992  0.7947 -1.1365
  328MOL0     H45242   7.658  -0.702   8.479 -2.6104 -2.1179 -2.6213
  328MOL0     H45243   7.744  -0.546   8.463  0.6403 -2.2575  0.6077
  328MOL0     H45244   7.108   0.310   8.173 -0.6880  0.2246 -0.6527
  328MOL0     H45245   6.992   0.399   8.367 -0.1499  1.1909 -1.9482
  328MOL0     H45246   6.609   0.471   8.581 -2.4885 -0.3077  0.4698
  328MOL0     H45247   6.480   0.608   8.722 -0.7071  1.2175  0.2453
  328MOL0     H45248   5.255   1.397   9.212 -0.7195 -0.3944  2.5061
  328MOL0     H45249   5.144   1.475   9.004  2.3197  0.9017  1.1369
  328MOL0     H45250   4.693   1.641   8.944 -0.4655 -3.4985  1.0773
  328MOL0     H45251   4.568   1.755   8.777 -0.5179 -0.7499  3.8333
  328MOL0     H45252   4.370   1.771   8.554 -1.3021  2.0173 -1.3755
  328MOL0     H45253   4.521   1.851   8.580  0.2104 -0.9853 -0.3029
  328MOL0     H45254   4.392   1.839   8.304 -0.7252 -0.2289  0.0147
  328MOL0     H45255   4.553   1.903   8.332  0.4112  0.5185  1.2596
  328MOL0     H45256   4.336   2.022   8.492 -0.9693 -2.2114  1.1418
  328MOL0     H45257   4.504   2.070   8.458 -0.1233  4.0343 -4.0455
  328MOL0     H45258   4.264   2.135   8.325 -0.7240  1.7282 -3.8789
  328MOL0     H45259   4.359   2.037   8.213  0.3722 -0.1621  0.4070
  328MOL0     H45260   4.576   2.404   8.211 -1.6268  0.7459  0.5943
  328MOL0     H45261   4.691   1.441   8.495 -0.7338  0.5421 -0.1799
  328MOL0     H45262   4.902   1.289   8.658  0.2542 -2.9479 -3.8203
  328MOL0     H45263   4.755   1.218   8.729 -0.6187  0.3600  1.4098
  328MOL0     H45264   4.758   1.252   8.556  2.3685  2.3719 -1.4337
  329MOL0     O45265   3.300   3.654  11.296 -0.9506  0.5324  0.3196
  329MOL0     C45266   3.378   3.721  11.363 -0.1758  0.5169 -0.3361
  329MOL0     O45267   3.357   3.853  11.403  0.0119 -0.0782 -0.3612
  329MOL0     C45268   3.246   3.917  11.345  0.0268 -0.1834 -0.7412
  329MOL0     C45269   3.173   4.000  11.433 -0.2493 -0.6622 -0.0779
  329MOL0     C45270   3.069   4.091  11.390 -0.1654 -0.2038  0.2458
  329MOL0     C45271   3.032   4.089  11.256  0.1859  0.4988  0.3313
  329MOL0     O45272   2.937   4.171  11.190  0.5597  1.0193  0.3890
  329MOL0     C45273   2.910   4.295  11.254  0.5954  0.5554  0.6713
  329MOL0     C45274   2.785   4.353  11.191  0.2676  0.2738  0.3697
  329MOL0     C45275   2.802   4.505  11.197 -0.8957 -0.1538  0.7784
  329MOL0     C45276   2.667   4.573  11.150 -0.4549 -0.1720  0.2171
  329MOL0     C45277   2.678   4.725  11.201 -0.0574  0.6173  0.2205
  329MOL0     C45278   2.547   4.804  11.160 -0.2149 -0.8280  0.2737
  329MOL0     C45279   2.529   4.923  11.259  1.0572 -0.4291  0.5484
  329MOL0     C45280   2.386   4.962  11.250 -0.6182  0.1867  0.1805
  329MOL0     N45281   2.357   5.092  11.311  0.7524  0.3163 -0.4160
  329MOL0     C45282   2.372   5.222  11.260 -0.6803  0.1437  1.1769
  329MOL0     C45283   2.369   5.303  11.365 -0.1858 -0.7529  0.2137
  329MOL0     C45284   2.396   5.454  11.369  0.1055 -0.5586 -0.0505
  329MOL0     C45285   2.285   5.545  11.315  0.1688  0.2223 -0.1065
  329MOL0     C45286   2.238   5.517  11.169 -0.0517  0.2020  0.5818
  329MOL0     C45287   2.173   5.642  11.114 -0.0533 -0.5117  0.0226
  329MOL0     O45288   2.054   5.669  11.187 -0.3651 -0.7504  0.3028
  329MOL0     C45289   1.965   5.762  11.138 -0.0333  0.3873  1.0469
  329MOL0     C45290   1.836   5.756  11.182 -0.4808 -0.2196 -0.2264
  329MOL0     C45291   1.731   5.842  11.130 -0.3979  0.2013 -0.0434
  329MOL0     C45292   1.597   5.818  11.197  0.4233 -0.6513 -0.3628
  329MOL0     C45293   1.761   5.942  11.027 -0.4008  0.7037 -0.7473
  329MOL0     C45294   1.662   6.030  10.968  0.2349 -0.1403 -1.1166
  329MOL0     O45295   1.538   6.043  11.017 -0.2180 -0.1258  0.6152
  329MOL0     C45296   1.459   6.134  10.960  1.2501  1.6513  0.4297
  329MOL0     C45297   1.484   6.268  10.989 -0.0357 -1.2018  0.6023
  329MOL0     C45298   1.404   6.368  10.941  0.4768 -0.1169 -0.4301
  329MOL0     C45299   1.298   6.333  10.856  0.2886  0.1150 -0.0283
  329MOL0     O45300   1.211   6.421  10.799  0.2936  0.4670  0.5898
  329MOL0     C45301   1.231   6.561  10.823 -0.4687 -0.2367  0.2390
  329MOL0     C45302   1.124   6.628  10.747  0.4662  0.3726 -0.1489
  329MOL0     C45303   1.102   6.778  10.778 -0.0545  1.2513  0.1098
  329MOL0     C45304   1.029   6.807  10.911 -0.0029  0.2855  0.6678
  329MOL0     C45305   0.992   6.955  10.921  0.4197 -0.3545  0.6243
  329MOL0     C45306   0.849   6.978  10.860 -0.3258  0.5397 -0.4636
  329MOL0     C45307   0.813   7.119  10.885 -0.6404 -0.2096 -0.0999
  329MOL0     C45308   0.679   7.155  10.842 -0.1028  0.4140 -0.4809
  329MOL0    Cl45309   0.551   7.078  10.945 -0.3724 -0.2091  0.4958
  329MOL0     C45310   1.271   6.201  10.829 -0.0783  1.0050 -0.3282
  329MOL0     C45311   1.355   6.098  10.880 -1.4090  0.3328 -0.4901
  329MOL0     O45312   1.706   6.092  10.875  0.0526  0.1798 -0.8114
  329MOL0     C45313   1.896   5.948  10.994 -0.2222 -0.2127 -0.2211
  329MOL0     C45314   1.994   5.855  11.035 -1.0280 -0.1391  0.1598
  329MOL0     N45315   2.361   5.221  11.478 -0.0064 -0.8536  0.4033
  329MOL0     N45316   2.361   5.100  11.437  0.1045  0.1528 -0.3791
  329MOL0     C45317   3.099   3.999  11.165  0.4418  1.0350 -0.5463
  329MOL0     C45318   3.199   3.920  11.207 -0.3329 -0.0689 -0.4773
  329MOL0     C45319   3.514   3.666  11.388 -0.3631 -0.5004 -0.2991
  329MOL0     C45320   3.617   3.759  11.382 -0.0023 -0.7269  0.6242
  329MOL0     C45321   3.744   3.726  11.410 -0.5653  0.6961 -0.0820
  329MOL0     C45322   3.787   3.598  11.426  0.7840 -0.1479 -0.0812
  329MOL0     O45323   3.918   3.575  11.440 -0.1957 -0.5905  0.0892
  329MOL0     C45324   3.961   3.439  11.443  0.7044 -0.3995  0.1843
  329MOL0     C45325   3.978   3.394  11.305 -0.1552  0.1859 -0.5073
  329MOL0     C45326   4.027   3.255  11.295  0.1833 -0.4608  0.6119
  329MOL0     C45327   3.922   3.155  11.250  0.1137  0.4432 -0.0339
  329MOL0     C45328   3.822   3.127  11.343 -0.6533 -0.7015 -0.5155
  329MOL0     C45329   3.749   3.111  11.436  0.6428 -0.6218 -0.8024
  329MOL0     C45330   3.683   3.502  11.434 -0.5654  0.0720  0.3051
  329MOL0     C45331   3.544   3.529  11.414 -0.1043 -0.6053  0.5386
  329MOL0     C45332   3.442   3.418  11.411 -0.0769 -0.2219  0.4505
  329MOL0     H45333   3.221   4.004  11.530  1.3516 -1.2285 -0.7992
  329MOL0     H45334   3.032   4.169  11.456 -2.0718 -3.5592  3.4789
  329MOL0     H45335   2.999   4.358  11.241  0.9774  0.6727  3.2963
  329MOL0     H45336   2.890   4.282  11.360  1.9780  1.2137  1.0352
  329MOL0     H45337   2.773   4.320  11.087  0.9936 -0.7630  0.6016
  329MOL0     H45338   2.695   4.319  11.243 -0.9052  0.7644 -1.2695
  329MOL0     H45339   2.819   4.537  11.301 -1.1636 -2.2028  1.5047
  329MOL0     H45340   2.891   4.534  11.141 -1.2015 -1.9369 -0.7078
  329MOL0     H45341   2.652   4.579  11.042  1.4165  0.9021 -0.0244
  329MOL0     H45342   2.586   4.525  11.205 -0.2603 -1.7439 -0.7979
  329MOL0     H45343   2.766   4.770  11.153 -0.4118 -0.6013 -1.6460
  329MOL0     H45344   2.712   4.729  11.305 -1.4650 -1.0541  0.7795
  329MOL0     H45345   2.551   4.838  11.057  1.6642 -1.2274  0.1879
  329MOL0     H45346   2.457   4.741  11.166  0.1768 -1.5055 -0.7136
  329MOL0     H45347   2.587   5.011  11.230  0.1235  0.6092  1.7653
  329MOL0     H45348   2.549   4.890  11.361  1.7697  0.1698  0.6160
  329MOL0     H45349   2.358   4.967  11.144  3.1246 -1.6890 -1.0999
  329MOL0     H45350   2.336   4.879  11.300  0.3092  0.3548  1.4313
  329MOL0     H45351   2.407   5.249  11.161 -0.5130  1.0115  1.4671
  329MOL0     H45352   2.484   5.491  11.315 -1.6580  0.6786 -2.2122
  329MOL0     H45353   2.400   5.491  11.472 -3.4667  1.2302 -0.4014
  329MOL0     H45354   2.194   5.530  11.373  1.4972 -2.3406  1.4790
  329MOL0     H45355   2.326   5.647  11.314 -1.8257  1.0858 -1.4197
  329MOL0     H45356   2.324   5.493  11.105  0.8171 -1.2988  2.2390
  329MOL0     H45357   2.169   5.432  11.169 -0.6299  0.6647  0.4328
  329MOL0     H45358   2.244   5.725  11.104 -0.8043  0.0328 -0.9329
  329MOL0     H45359   2.144   5.616  11.012  2.3763  0.3195 -0.9395
  329MOL0     H45360   1.829   5.684  11.263 -0.0241  0.6365  0.5842
  329MOL0     H45361   1.573   5.905  11.260  2.3276  0.3588 -0.9379
  329MOL0     H45362   1.587   5.728  11.259 -0.5105  1.8198  3.4656
  329MOL0     H45363   1.521   5.825  11.119 -3.6820  1.7296  3.3739
  329MOL0     H45364   1.560   6.306  11.057  1.4585 -0.3584 -1.4604
  329MOL0     H45365   1.426   6.471  10.966 -1.4566  0.4398 -0.8202
  329MOL0     H45366   1.224   6.578  10.930  1.7184 -1.0420  0.5749
  329MOL0     H45367   1.330   6.596  10.791 -1.1083 -0.3057 -2.0264
  329MOL0     H45368   1.157   6.627  10.643 -1.8503  0.8778 -0.9355
  329MOL0     H45369   1.038   6.562  10.757  0.4209 -0.0405 -2.6474
  329MOL0     H45370   1.055   6.828  10.693 -0.8219 -1.4734 -1.1920
  329MOL0     H45371   1.201   6.824  10.776  0.3366  0.4234 -0.2369
  329MOL0     H45372   1.085   6.764  10.995 -1.2745  0.1935  1.4981
  329MOL0     H45373   0.940   6.744  10.897  1.1281 -1.4270  0.8442
  329MOL0     H45374   0.990   6.978  11.028  1.4579  0.2134  0.5321
  329MOL0     H45375   1.066   7.015  10.867  0.2446  1.0391  1.8680
  329MOL0     H45376   0.781   6.920  10.924 -0.7396  0.7363 -0.7184
  329MOL0     H45377   0.852   6.938  10.758  0.7644  0.9102 -0.5836
  329MOL0     H45378   0.889   7.184  10.841  0.6344 -0.4101  1.7301
  329MOL0     H45379   0.804   7.141  10.991 -1.1115  2.9129 -0.6944
  329MOL0     H45380   0.664   7.133  10.736  0.8799  1.8566 -0.9463
  329MOL0     H45381   0.651   7.258  10.867 -1.4186 -0.2222  0.8283
  329MOL0     H45382   1.186   6.164  10.772 -0.2783 -1.7816  1.5679
  329MOL0     H45383   1.331   5.994  10.860  0.9867 -0.0204 -1.8727
  329MOL0     H45384   1.932   6.029  10.930  2.1225 -2.3329 -1.7641
  329MOL0     H45385   2.095   5.857  10.997 -0.9426 -1.7579  0.2294
  329MOL0     H45386   3.072   4.014  11.061  0.0100  2.1209 -0.2868
  329MOL0     H45387   3.258   3.869  11.131  0.3238 -0.9021  0.5590
  329MOL0     H45388   3.595   3.861  11.354  0.2541 -0.5348  1.1036
  329MOL0     H45389   3.820   3.804  11.412 -3.5382  3.9183  3.6063
  329MOL0     H45390   4.057   3.414  11.490  0.5275 -1.5267 -0.0220
  329MOL0     H45391   3.896   3.368  11.496  2.2644 -0.3822  2.2585
  329MOL0     H45392   4.053   3.460  11.260  0.2725  0.4734  0.5927
  329MOL0     H45393   3.890   3.399  11.239 -2.2116  0.6947  2.1072
  329MOL0     H45394   4.098   3.253  11.211  2.3290  0.2754  2.3055
  329MOL0     H45395   4.080   3.222  11.384  1.7914  1.3370  0.3957
  329MOL0     H45396   3.977   3.070  11.210 -1.3384 -0.1118 -0.9644
  329MOL0     H45397   3.869   3.197  11.164  0.8483 -2.4132 -2.0189
  329MOL0     H45398   3.700   3.082  11.527 -0.9623  0.8145 -1.1539
  329MOL0     H45399   3.701   3.396  11.452  1.1300  0.7232  3.0988
  329MOL0     H45400   3.361   3.453  11.476 -1.0493  0.2230 -0.9523
  329MOL0     H45401   3.408   3.412  11.307  1.3026 -0.9299  0.0095
  329MOL0     H45402   3.471   3.319  11.447 -2.2894 -1.1648 -0.2267
  330MOL0     O45403  11.020   5.875  10.761  0.3607  0.0410  0.0531
  330MOL0     C45404  10.932   5.785  10.761 -0.4077  0.4205 -1.0178
  330MOL0     O45405  10.827   5.778  10.843  0.1298  0.1899  0.2231
  330MOL0     C45406  10.806   5.848  10.962 -0.6798  0.7526 -0.7115
  330MOL0     C45407  10.691   5.914  10.979 -0.4199  0.0486 -0.0080
  330MOL0     C45408  10.663   5.979  11.092 -0.2527  0.5329 -1.0202
  330MOL0     C45409  10.758   5.979  11.206  0.0767  1.0287  1.0391
  330MOL0     O45410  10.711   6.045  11.315 -0.4087  0.2196 -0.0171
  330MOL0     C45411  10.803   6.066  11.424  0.2240  0.1246 -0.3543
  330MOL0     C45412  10.766   5.983  11.542 -0.0477  0.3657 -0.1789
  330MOL0     C45413  10.793   5.834  11.515 -0.5413  0.6157 -0.3783
  330MOL0     C45414  10.729   5.741  11.614  0.2514  1.7517  0.4564
  330MOL0     C45415  10.794   5.594  11.601 -0.5531  0.3804  0.1671
  330MOL0     C45416  10.768   5.534  11.466 -0.0481 -0.2137 -0.1287
  330MOL0     C45417  10.892   5.484  11.390  0.5921  1.1421 -0.2238
  330MOL0     C45418  10.966   5.589  11.309  0.4862 -0.7037 -0.2307
  330MOL0     N45419  11.076   5.536  11.233  0.0894  0.5639  0.8544
  330MOL0     C45420  11.178   5.453  11.266  0.0483 -0.1405 -0.8132
  330MOL0     C45421  11.233   5.414  11.150  0.7858  0.1893 -1.2271
  330MOL0     C45422  11.359   5.323  11.148  1.0540  0.0019  1.3930
  330MOL0     C45423  11.485   5.403  11.154 -0.2051 -0.0805 -0.2024
  330MOL0     C45424  11.506   5.492  11.032  0.3131 -0.3203  0.1555
  330MOL0     C45425  11.652   5.541  11.018  0.6111  0.0317 -0.4683
  330MOL0     O45426  11.738   5.433  10.974  0.0383 -0.5087  0.7073
  330MOL0     C45427  11.734   5.389  10.840 -0.1387 -0.5682  0.1692
  330MOL0     C45428  11.751   5.475  10.737  0.2389 -0.0094  0.5523
  330MOL0     C45429  11.729   5.431  10.599  0.1165  0.2622 -0.1893
  330MOL0     C45430  11.717   5.530  10.488  0.3261 -0.8862 -0.3847
  330MOL0     C45431  11.711   5.295  10.583 -0.3192  0.1962 -0.3914
  330MOL0     C45432  11.727   5.240  10.451  0.9390 -0.1195 -0.2064
  330MOL0     O45433  11.635   5.161  10.402  0.1863 -0.5509 -0.0160
  330MOL0     C45434  11.653   5.117  10.272 -0.6659 -0.3794  0.2782
  330MOL0     C45435  11.627   4.990  10.223  0.3943  0.0588 -0.1403
  330MOL0     C45436  11.612   4.965  10.081  0.1043  0.2838  0.8857
  330MOL0     C45437  11.635   5.070   9.990 -0.0784  0.0237 -0.2336
  330MOL0     O45438  11.636   5.031   9.857  0.7564 -0.4705 -0.8320
  330MOL0     C45439  11.581   5.126   9.755  0.8705 -0.2962 -0.0021
  330MOL0     C45440  11.465   5.055   9.681 -0.6539 -0.7781  0.3944
  330MOL0     C45441  11.349   5.155   9.653 -0.8558 -0.7101 -0.0359
  330MOL0     C45442  11.248   5.114   9.541 -0.1132 -0.0616 -0.5870
  330MOL0     C45443  11.299   5.130   9.394  0.1702  0.2503 -0.5662
  330MOL0     C45444  11.240   5.029   9.304  0.5291 -0.1106 -0.6041
  330MOL0     C45445  11.292   5.033   9.160  0.3334 -0.4416 -0.5450
  330MOL0     C45446  11.269   4.897   9.089 -0.2215  0.0592  0.3301
  330MOL0    Cl45447  11.098   4.844   9.074 -0.6946  0.3549 -0.5716
  330MOL0     C45448  11.680   5.194  10.041 -0.0725  0.3823 -0.0237
  330MOL0     C45449  11.680   5.217  10.175  0.8349  0.8687  0.1681
  330MOL0     O45450  11.840   5.261  10.406  0.3720 -0.0915  0.3919
  330MOL0     C45451  11.683   5.209  10.686 -0.6328 -0.8537 -0.0978
  330MOL0     C45452  11.697   5.259  10.809  0.3074  0.2789 -0.8126
  330MOL0     N45453  11.170   5.470  11.047  0.2244  0.2202 -0.7742
  330MOL0     N45454  11.066   5.536  11.092 -0.4717  1.3077 -0.0482
  330MOL0     C45455  10.886   5.921  11.181  0.7147  0.2746 -0.3230
  330MOL0     C45456  10.909   5.854  11.058  0.7009  0.6507 -0.3925
  330MOL0     C45457  10.942   5.683  10.658 -0.7013  1.1927  0.0210
  330MOL0     C45458  10.982   5.734  10.530  0.1956  0.9230 -0.7148
  330MOL0     C45459  10.967   5.669  10.412  0.0648  0.8737  0.0792
  330MOL0     C45460  10.915   5.535  10.418  0.0818  0.3318 -0.0342
  330MOL0     O45461  10.880   5.462  10.308 -0.3629 -0.3417  0.0291
  330MOL0     C45462  10.808   5.527  10.201  0.7974  0.1979 -0.6387
  330MOL0     C45463  10.804   5.434  10.078  0.6420  0.1096 -0.2862
  330MOL0     C45464  10.946   5.459  10.010  1.2350  0.3564 -0.0928
  330MOL0     C45465  10.944   5.407   9.872 -0.0731  0.6153 -0.4676
  330MOL0     C45466  11.051   5.461   9.786  0.2575  0.1766  0.7765
  330MOL0     C45467  11.136   5.489   9.712 -0.1749 -0.1325 -0.5166
  330MOL0     C45468  10.875   5.483  10.541 -0.4766 -0.2109 -0.0947
  330MOL0     C45469  10.889   5.551  10.661 -1.1085 -0.5307 -0.7749
  330MOL0     C45470  10.868   5.483  10.789  0.4231  0.0207 -0.1993
  330MOL0     H45471  10.609   5.900  10.909 -1.6194 -1.0183  1.5383
  330MOL0     H45472  10.572   6.037  11.097 -0.3784  0.2440  1.9380
  330MOL0     H45473  10.795   6.167  11.466 -0.9141 -0.6460  1.3788
  330MOL0     H45474  10.910   6.055  11.402 -0.0938 -2.1084 -0.9772
  330MOL0     H45475  10.813   6.020  11.633 -1.8906  1.0375  0.5323
  330MOL0     H45476  10.658   5.990  11.553 -0.0977  0.6525 -0.8192
  330MOL0     H45477  10.779   5.805  11.410 -2.1496 -1.2027  0.2705
  330MOL0     H45478  10.900   5.819  11.529 -0.1331 -1.1157 -4.0931
  330MOL0     H45479  10.747   5.772  11.717  1.5860  1.9086  0.1954
  330MOL0     H45480  10.620   5.735  11.599  0.1794 -0.9730  1.6710
  330MOL0     H45481  10.763   5.536  11.688  0.1399  0.4327  0.4545
  330MOL0     H45482  10.903   5.604  11.609 -0.1952 -1.9876 -1.0264
  330MOL0     H45483  10.697   5.453  11.487  0.2931 -0.2355  1.0125
  330MOL0     H45484  10.707   5.591  11.396 -2.1286 -3.6363 -1.3664
  330MOL0     H45485  10.852   5.416  11.313 -3.3420  1.8859  0.9678
  330MOL0     H45486  10.941   5.414  11.458 -0.4052  0.9413  0.3112
  330MOL0     H45487  10.897   5.629  11.234 -1.5715 -2.4092  0.6474
  330MOL0     H45488  11.002   5.672  11.371  1.2592 -0.5255 -0.8998
  330MOL0     H45489  11.210   5.422  11.365  1.5723 -1.1496 -1.5817
  330MOL0     H45490  11.359   5.257  11.061 -2.6780 -0.2679  1.4366
  330MOL0     H45491  11.360   5.255  11.234  0.9481  0.6741  1.9404
  330MOL0     H45492  11.475   5.469  11.241 -1.3282 -1.4493  0.7646
  330MOL0     H45493  11.571   5.338  11.171  2.3446  2.8919 -0.8188
  330MOL0     H45494  11.482   5.427  10.947  0.0136 -1.3249  1.0033
  330MOL0     H45495  11.447   5.581  11.056 -1.7771 -2.3364  3.1048
  330MOL0     H45496  11.655   5.625  10.948 -3.6038 -0.1815 -1.1222
  330MOL0     H45497  11.687   5.573  11.117 -0.0480 -1.5226  0.3036
  330MOL0     H45498  11.767   5.579  10.764 -1.7659  0.8184 -1.1366
  330MOL0     H45499  11.785   5.613  10.504 -2.6561  1.6327  0.0540
  330MOL0     H45500  11.616   5.571  10.490 -0.0053 -1.6656  1.7290
  330MOL0     H45501  11.732   5.496  10.385 -2.0970  0.1943 -1.1707
  330MOL0     H45502  11.599   4.909  10.288 -0.9899 -0.4785 -1.3415
  330MOL0     H45503  11.594   4.864  10.046  0.3616 -0.1424  1.9472
  330MOL0     H45504  11.570   5.224   9.802  0.3235 -0.3581  0.0077
  330MOL0     H45505  11.664   5.139   9.685 -0.0758  1.9643 -0.7819
  330MOL0     H45506  11.512   5.018   9.589  1.0628  0.1974  0.8399
  330MOL0     H45507  11.442   4.971   9.747 -2.2208 -0.0809  0.7914
  330MOL0     H45508  11.395   5.245   9.612 -0.6138 -1.2030 -0.8549
  330MOL0     H45509  11.286   5.161   9.743  0.0545 -2.3579  0.7465
  330MOL0     H45510  11.155   5.170   9.554  0.0547  0.2581 -0.7634
  330MOL0     H45511  11.215   5.015   9.574 -2.7785  0.3224 -1.8589
  330MOL0     H45512  11.292   5.231   9.351  0.8450  1.1277  1.2508
  330MOL0     H45513  11.407   5.112   9.403  0.3200  1.5263  0.6389
  330MOL0     H45514  11.130   5.033   9.306  0.5202 -0.2624 -0.8033
  330MOL0     H45515  11.258   4.928   9.341  2.3905  0.5313  0.3533
  330MOL0     H45516  11.398   5.061   9.163  0.3187 -0.4303  0.0215
  330MOL0     H45517  11.232   5.102   9.100  0.8034 -2.4886 -3.6495
  330MOL0     H45518  11.325   4.812   9.129 -0.3373 -0.4459 -0.5603
  330MOL0     H45519  11.311   4.906   8.988 -0.7074 -2.7625 -0.1929
  330MOL0     H45520  11.691   5.287   9.986  0.5342  0.7836  0.7698
  330MOL0     H45521  11.685   5.316  10.219  0.4339 -0.5155  3.7004
  330MOL0     H45522  11.667   5.104  10.666 -1.8124 -0.7342  0.1447
  330MOL0     H45523  11.683   5.194  10.895 -1.0538  3.0559  1.2195
  330MOL0     H45524  10.971   5.918  11.248  0.5777 -0.2259 -0.1650
  330MOL0     H45525  11.005   5.806  11.041 -0.8726 -1.9543 -2.6978
  330MOL0     H45526  11.018   5.836  10.525 -0.1343  1.2823  2.4753
  330MOL0     H45527  10.988   5.729  10.324 -3.0016 -2.1138 -3.0452
  330MOL0     H45528  10.706   5.549  10.233  0.0705  2.2298 -3.8067
  330MOL0     H45529  10.852   5.623  10.173 -0.7836  2.3317  3.3463
  330MOL0     H45530  10.729   5.467  10.005 -0.4323 -2.2220 -0.3453
  330MOL0     H45531  10.790   5.332  10.114 -0.0196  0.3462  0.1653
  330MOL0     H45532  10.969   5.566  10.007  1.2111  0.3448 -0.8785
  330MOL0     H45533  11.016   5.402  10.072 -1.7137 -1.5135  1.7161
  330MOL0     H45534  10.855   5.444   9.821  0.0178  2.0038  0.3180
  330MOL0     H45535  10.951   5.298   9.872  2.4187  0.6956  1.0784
  330MOL0     H45536  11.233   5.502   9.666  0.0146  1.0482  0.1533
  330MOL0     H45537  10.837   5.382  10.552  3.0417 -1.6792  0.0600
  330MOL0     H45538  10.916   5.552  10.859 -0.3258  0.9116 -0.5413
  330MOL0     H45539  10.761   5.463  10.801  0.2810  2.1883  4.7476
  330MOL0     H45540  10.928   5.392  10.797  2.1396  1.0477 -0.7483
  331MOL0     O45541   6.222   7.906  10.472  0.7085  0.7968 -0.3594
  331MOL0     C45542   6.287   7.826  10.539 -0.2732 -0.2529 -0.0020
  331MOL0     O45543   6.250   7.694  10.572 -0.3806  0.2389  0.7605
  331MOL0     C45544   6.117   7.673  10.580  0.6553  0.0974  0.4273
  331MOL0     C45545   6.031   7.707  10.692 -1.2539 -0.7306  0.0880
  331MOL0     C45546   5.909   7.648  10.713 -0.7448 -0.4821 -0.7885
  331MOL0     C45547   5.862   7.556  10.624 -0.3812 -0.9873  0.0105
  331MOL0     O45548   5.735   7.508  10.648 -0.2269  0.2753 -0.1026
  331MOL0     C45549   5.725   7.365  10.665 -0.3915 -0.9548  0.8275
  331MOL0     C45550   5.579   7.341  10.689  0.6033  0.3584  0.0830
  331MOL0     C45551   5.538   7.196  10.725  0.0834 -0.1919 -0.2421
  331MOL0     C45552   5.612   7.092  10.641  0.5463 -0.3724 -0.5272
  331MOL0     C45553   5.582   6.948  10.692 -0.5927  0.3334 -0.2691
  331MOL0     C45554   5.659   6.857  10.593 -0.1524 -0.6421  0.9170
  331MOL0     C45555   5.661   6.711  10.628 -0.2255  0.1719 -0.4688
  331MOL0     C45556   5.803   6.649  10.615 -0.2833  0.0782  0.3047
  331MOL0     N45557   5.841   6.637  10.480 -1.4363 -0.1589 -1.0938
  331MOL0     C45558   5.910   6.739  10.407 -0.0103 -0.4369 -0.2051
  331MOL0     C45559   5.942   6.679  10.289 -0.3121 -0.3815 -0.5336
  331MOL0     C45560   6.040   6.742  10.192  0.3038  0.7763  0.1041
  331MOL0     C45561   6.178   6.753  10.251 -0.1671  0.2410  0.2123
  331MOL0     C45562   6.285   6.817  10.157  0.1190 -0.4376 -0.2541
  331MOL0     C45563   6.421   6.815  10.217 -0.3573 -0.1917 -0.1734
  331MOL0     O45564   6.502   6.701  10.168  0.9065 -0.6290 -0.0038
  331MOL0     C45565   6.623   6.682  10.222  0.2725  0.7182 -0.0244
  331MOL0     C45566   6.686   6.765  10.322  0.1223  0.8037 -0.2026
  331MOL0     C45567   6.812   6.739  10.381 -0.6060  0.3305 -0.8463
  331MOL0     C45568   6.863   6.845  10.477  0.5365 -0.1438 -0.3363
  331MOL0     C45569   6.883   6.625  10.334 -0.6122  0.2780 -0.6665
  331MOL0     C45570   7.029   6.602  10.359 -0.0411 -0.1479 -0.7091
  331MOL0     O45571   7.072   6.470  10.373 -0.3198 -0.8186  0.1229
  331MOL0     C45572   7.196   6.442  10.433 -0.1881 -0.1300  0.6255
  331MOL0     C45573   7.314   6.496  10.381 -0.1690  0.2594 -0.1170
  331MOL0     C45574   7.431   6.483  10.456  0.5139 -0.5962  0.0877
  331MOL0     C45575   7.437   6.401  10.565 -0.9298  1.0737 -0.1168
  331MOL0     O45576   7.564   6.355  10.621 -0.3033  0.4081 -0.3473
  331MOL0     C45577   7.570   6.261  10.733  1.6257 -0.5033 -0.5011
  331MOL0     C45578   7.579   6.111  10.667 -0.2180 -0.2342 -0.0524
  331MOL0     C45579   7.572   5.993  10.768  0.6355 -1.3195 -0.0114
  331MOL0     C45580   7.434   5.969  10.825 -0.0396  0.2173  0.0287
  331MOL0     C45581   7.432   5.854  10.921  0.8339  0.1796 -0.6497
  331MOL0     C45582   7.527   5.868  11.040 -0.6656 -0.8459  0.0478
  331MOL0     C45583   7.461   5.804  11.170 -0.8157 -1.1371  0.0212
  331MOL0     C45584   7.499   5.661  11.176 -0.7107 -0.2498 -0.0665
  331MOL0    Cl45585   7.383   5.578  11.299  0.0882 -0.1529 -0.5316
  331MOL0     C45586   7.321   6.349  10.612 -0.5186  0.0425  0.0770
  331MOL0     C45587   7.193   6.375  10.552 -0.4238 -0.4143  0.0078
  331MOL0     O45588   7.102   6.701  10.378  1.2583 -0.7280  0.0015
  331MOL0     C45589   6.825   6.544  10.234 -0.1765 -0.2932 -0.7157
  331MOL0     C45590   6.702   6.575  10.175  0.3985 -0.0896 -0.6457
  331MOL0     N45591   5.896   6.551  10.291 -0.0260 -0.6550 -0.5040
  331MOL0     N45592   5.850   6.522  10.409  0.0496 -0.5260 -0.0948
  331MOL0     C45593   5.936   7.538  10.505  0.4043  0.6195  1.2881
  331MOL0     C45594   6.062   7.594  10.481 -1.1686 -0.7502  0.4895
  331MOL0     C45595   6.423   7.879  10.565 -0.6273 -0.1608  0.0129
  331MOL0     C45596   6.510   7.794  10.640 -0.1658  0.4032  0.1571
  331MOL0     C45597   6.643   7.823  10.658 -0.1234  0.4781  0.1125
  331MOL0     C45598   6.707   7.933  10.597 -0.2203 -0.0810 -0.1232
  331MOL0     O45599   6.839   7.974  10.616  0.6326  0.1756 -0.6312
  331MOL0     C45600   6.941   7.908  10.691  0.7484  0.9850  0.1799
  331MOL0     C45601   6.924   7.911  10.847 -0.0300  0.6427  0.5117
  331MOL0     C45602   7.021   7.841  10.945 -0.2174 -0.4440 -0.2099
  331MOL0     C45603   7.040   7.702  10.953  0.0667  0.4545 -0.1543
  331MOL0     C45604   7.104   7.649  10.832  0.0723  0.2628 -0.2231
  331MOL0     C45605   7.156   7.615  10.729 -0.2474 -0.7016 -0.1238
  331MOL0     C45606   6.633   8.023  10.520  0.3047 -0.1263  0.0579
  331MOL0     C45607   6.483   8.004  10.511  0.5640  0.0645 -0.2886
  331MOL0     C45608   6.406   8.103  10.424 -0.2357 -0.0761 -1.4849
  331MOL0     H45609   6.067   7.772  10.770 -0.2659 -0.4935 -0.5489
  331MOL0     H45610   5.851   7.668  10.803 -2.6633 -2.6923 -1.4386
  331MOL0     H45611   5.782   7.344  10.756 -0.1836  0.8111  1.1296
  331MOL0     H45612   5.757   7.305  10.579  0.7547 -0.2369  0.7382
  331MOL0     H45613   5.556   7.410  10.771  0.0373 -0.2615  0.4493
  331MOL0     H45614   5.510   7.365  10.608  2.5268 -0.8186 -2.0052
  331MOL0     H45615   5.580   7.186  10.826  1.4463  0.7268 -0.6878
  331MOL0     H45616   5.430   7.180  10.726  0.0388  0.0833 -0.6632
  331MOL0     H45617   5.570   7.104  10.541 -0.3388 -2.5853 -0.4896
  331MOL0     H45618   5.720   7.109  10.640  0.6001 -0.4185  1.4473
  331MOL0     H45619   5.474   6.931  10.692 -0.4310 -0.7506 -0.9984
  331MOL0     H45620   5.621   6.929  10.793  1.9288 -2.9250 -1.6600
  331MOL0     H45621   5.609   6.875  10.497  1.6098  0.7438  0.2016
  331MOL0     H45622   5.755   6.906  10.576 -0.1370  0.2142  3.2118
  331MOL0     H45623   5.599   6.646  10.565 -2.4701  2.5084 -0.8345
  331MOL0     H45624   5.619   6.694  10.728 -0.8006  3.3041 -0.0929
  331MOL0     H45625   5.879   6.707  10.668  2.3735 -3.8387  1.1959
  331MOL0     H45626   5.803   6.547  10.654  0.0273  0.0748  0.3029
  331MOL0     H45627   5.948   6.836  10.438 -2.1580 -0.4360  2.8587
  331MOL0     H45628   6.008   6.836  10.147  2.3156  1.0595 -0.8422
  331MOL0     H45629   6.046   6.665  10.114 -1.7332 -0.8416  1.4338
  331MOL0     H45630   6.177   6.813  10.342  0.0638  3.6296 -1.7982
  331MOL0     H45631   6.217   6.654  10.273  0.5888  0.7230  1.0902
  331MOL0     H45632   6.283   6.770  10.058 -0.7963  1.4308 -1.1660
  331MOL0     H45633   6.259   6.923  10.155  2.2106  0.4283  4.9206
  331MOL0     H45634   6.464   6.910  10.185  0.8644 -0.7892 -0.3574
  331MOL0     H45635   6.424   6.810  10.326 -1.1988  1.2185 -0.0570
  331MOL0     H45636   6.621   6.843  10.362  0.2438 -0.3639  2.4465
  331MOL0     H45637   6.970   6.866  10.475  1.1554 -2.8936 -0.8863
  331MOL0     H45638   6.827   6.815  10.576  2.1401  1.4376  0.7881
  331MOL0     H45639   6.811   6.938  10.451 -1.6617 -0.3406  2.7936
  331MOL0     H45640   7.324   6.553  10.290  4.8352  3.8804  2.1882
  331MOL0     H45641   7.527   6.523  10.422 -1.0575  2.0572 -1.6086
  331MOL0     H45642   7.664   6.277  10.786  1.2827 -3.3473  1.1211
  331MOL0     H45643   7.495   6.263  10.812  1.3244  1.3552 -0.7799
  331MOL0     H45644   7.516   6.105  10.577  0.9551 -0.2224 -0.9066
  331MOL0     H45645   7.682   6.100  10.632  0.2365  1.6984  0.5505
  331MOL0     H45646   7.635   6.026  10.852 -1.3115  1.3269  0.5752
  331MOL0     H45647   7.612   5.904  10.720  1.2431 -0.8646 -0.3651
  331MOL0     H45648   7.375   5.938  10.738  0.9875 -0.0890 -0.5721
  331MOL0     H45649   7.398   6.061  10.872  0.5612 -0.7667  2.5638
  331MOL0     H45650   7.329   5.857  10.956  1.1294  2.2141  0.1486
  331MOL0     H45651   7.456   5.757  10.874  0.0337 -0.3064 -0.0763
  331MOL0     H45652   7.530   5.976  11.059 -1.6808 -0.1815 -3.0319
  331MOL0     H45653   7.628   5.830  11.024  0.6416  2.1740  0.3948
  331MOL0     H45654   7.353   5.824  11.171 -1.0890 -2.4979 -0.4546
  331MOL0     H45655   7.507   5.850  11.258 -3.2998  3.7906 -0.9095
  331MOL0     H45656   7.603   5.655  11.210 -1.5616 -0.2305  2.8095
  331MOL0     H45657   7.496   5.614  11.077  0.9669 -1.5225  0.4172
  331MOL0     H45658   7.317   6.287  10.701  4.4325 -0.2685  0.4158
  331MOL0     H45659   7.102   6.338  10.599  0.9758 -3.0591  0.8601
  331MOL0     H45660   6.880   6.461  10.192 -1.7781 -1.5277 -0.4578
  331MOL0     H45661   6.659   6.511  10.099  1.9756  0.9822 -2.5227
  331MOL0     H45662   5.891   7.464  10.439 -1.3855  0.2063  2.8609
  331MOL0     H45663   6.119   7.583  10.389  1.2890  1.3122  1.6485
  331MOL0     H45664   6.477   7.703  10.689  5.2695 -1.4631  1.0335
  331MOL0     H45665   6.717   7.751  10.692  0.1402  0.2973 -0.8067
  331MOL0     H45666   6.935   7.804  10.656 -0.3926  0.3537  2.0880
  331MOL0     H45667   7.044   7.937  10.668  1.2799 -1.3267 -0.6249
  331MOL0     H45668   6.822   7.880  10.874 -0.6337  0.8495 -1.4134
  331MOL0     H45669   6.942   8.013  10.880  1.7475 -0.1448  2.2089
  331MOL0     H45670   7.115   7.894  10.931 -2.5592  3.9147 -1.1617
  331MOL0     H45671   6.986   7.878  11.041 -1.1132  1.6381 -1.2785
  331MOL0     H45672   6.946   7.649  10.975 -1.1304  2.7491  0.5972
  331MOL0     H45673   7.105   7.672  11.035  0.2714  0.4255 -0.3255
  331MOL0     H45674   7.204   7.598  10.634  1.5415 -0.7828  0.7438
  331MOL0     H45675   6.673   8.104  10.459 -0.9974  0.7568  0.3102
  331MOL0     H45676   6.445   8.205  10.409 -0.4791  0.1067 -0.9030
  331MOL0     H45677   6.382   8.054  10.329  1.1793 -0.0775 -1.8632
  331MOL0     H45678   6.315   8.114  10.482 -0.0676  0.7691 -1.3720
  332MOL0     O45679   3.714   5.670   1.624  0.5301  0.3357 -0.0979
  332MOL0     C45680   3.696   5.658   1.504  0.3716 -0.3856  1.0894
  332MOL0     O45681   3.630   5.557   1.446 -0.2169 -0.7940  0.0534
  332MOL0     C45682   3.574   5.464   1.521  0.0401  1.2867 -0.0883
  332MOL0     C45683   3.592   5.332   1.475  0.7114  0.1835  0.8414
  332MOL0     C45684   3.532   5.221   1.538  0.5313  1.0505  0.7426
  332MOL0     C45685   3.464   5.235   1.656  0.1519  0.6391 -0.9330
  332MOL0     O45686   3.409   5.143   1.735 -0.3822  0.8132 -0.4647
  332MOL0     C45687   3.431   5.004   1.701  0.2063  0.2779  0.5982
  332MOL0     C45688   3.394   4.912   1.817 -0.8545  0.8651  0.7085
  332MOL0     C45689   3.474   4.915   1.950 -0.8977  0.2402  1.0475
  332MOL0     C45690   3.417   5.001   2.054 -0.4904 -0.1017  0.2347
  332MOL0     C45691   3.509   5.080   2.136 -0.6704 -0.1833 -0.2304
  332MOL0     C45692   3.590   5.177   2.054 -0.6573 -0.8908 -0.7851
  332MOL0     C45693   3.672   5.258   2.152 -0.8652 -0.1021 -0.5297
  332MOL0     C45694   3.604   5.386   2.219  0.6235  0.8984 -0.0451
  332MOL0     N45695   3.693   5.462   2.300  0.7965  1.1492 -0.1428
  332MOL0     C45696   3.807   5.515   2.261  0.4716  0.1909 -1.6030
  332MOL0     C45697   3.841   5.598   2.364  0.2552  0.4321  0.1918
  332MOL0     C45698   3.972   5.672   2.369 -0.3297 -0.9462 -0.4040
  332MOL0     C45699   3.976   5.828   2.376  0.1059  0.2431  0.4888
  332MOL0     C45700   4.102   5.890   2.428  0.4761 -1.1747  0.3032
  332MOL0     C45701   4.146   5.850   2.570 -0.2675 -0.4294 -0.0232
  332MOL0     O45702   4.264   5.934   2.593  0.0719 -0.1266 -0.3677
  332MOL0     C45703   4.331   5.922   2.715 -0.9954 -0.4232 -0.9382
  332MOL0     C45704   4.447   5.986   2.708 -0.1265 -0.2281 -0.3721
  332MOL0     C45705   4.526   6.002   2.819 -0.8627  0.4028 -1.2805
  332MOL0     C45706   4.655   6.087   2.813  0.1371  0.1755 -0.5154
  332MOL0     C45707   4.489   5.936   2.936  0.0254  0.5209 -0.2460
  332MOL0     C45708   4.566   5.949   3.056 -0.2620  0.6854 -0.3541
  332MOL0     O45709   4.696   5.923   3.056  0.2770  0.2482 -0.3590
  332MOL0     C45710   4.758   5.916   3.174  0.7455  0.2516  0.6686
  332MOL0     C45711   4.774   6.038   3.251 -0.1254  1.0139  1.1660
  332MOL0     C45712   4.854   6.039   3.365  1.1324  0.9799 -0.1530
  332MOL0     C45713   4.920   5.923   3.409 -0.8832  0.2555  0.0363
  332MOL0     O45714   4.996   5.904   3.523 -1.0226 -0.9383 -0.3618
  332MOL0     C45715   5.018   6.010   3.621  0.4141 -0.5104 -0.4677
  332MOL0     C45716   5.154   5.995   3.706 -0.0505  0.0364  0.9346
  332MOL0     C45717   5.173   5.846   3.756  0.6893  0.4819  0.3058
  332MOL0     C45718   5.299   5.848   3.853  0.2698 -1.3105 -0.2396
  332MOL0     C45719   5.292   5.738   3.954 -0.0643  0.8015  0.1256
  332MOL0     C45720   5.374   5.616   3.904  0.3458 -0.1451  0.2233
  332MOL0     C45721   5.396   5.504   4.002  0.0212 -0.5669 -0.5044
  332MOL0     C45722   5.284   5.473   4.110  0.4180  0.0931  0.1530
  332MOL0    Cl45723   5.130   5.438   4.026  0.2485 -0.0441 -0.1966
  332MOL0     C45724   4.905   5.808   3.332 -0.4598 -1.3474 -0.7561
  332MOL0     C45725   4.820   5.799   3.220 -0.8886  0.2094  0.4455
  332MOL0     O45726   4.497   5.971   3.156  0.3154 -0.0753  0.2279
  332MOL0     C45727   4.373   5.857   2.942 -0.4375 -0.2021 -1.0952
  332MOL0     C45728   4.284   5.855   2.830  1.2388 -0.1592 -1.1362
  332MOL0     N45729   3.735   5.603   2.457 -0.7816  0.3333  0.4790
  332MOL0     N45730   3.647   5.524   2.412  0.0741  0.7241 -0.8168
  332MOL0     C45731   3.433   5.371   1.694  0.5907  0.4666 -0.8314
  332MOL0     C45732   3.490   5.483   1.638 -1.1572 -0.0668 -0.1040
  332MOL0     C45733   3.758   5.766   1.412 -0.1518  0.6292 -0.9219
  332MOL0     C45734   3.832   5.871   1.474  0.5244  0.2412  0.3780
  332MOL0     C45735   3.897   5.971   1.401 -0.2597 -0.0474 -0.2334
  332MOL0     C45736   3.914   5.949   1.262 -0.2688 -0.7676 -0.7361
  332MOL0     O45737   3.980   6.035   1.182 -0.2350 -0.4117  0.1303
  332MOL0     C45738   4.026   6.168   1.233 -0.5170 -0.2527  0.4485
  332MOL0     C45739   4.162   6.174   1.303  1.0864 -0.3708  0.6543
  332MOL0     C45740   4.261   6.078   1.235 -1.0404 -0.3111  0.6595
  332MOL0     C45741   4.384   6.060   1.324 -0.8789  0.4416 -0.3780
  332MOL0     C45742   4.418   6.159   1.418  0.4662 -0.1173 -0.0104
  332MOL0     C45743   4.458   6.239   1.499  0.3718 -0.8403 -0.4667
  332MOL0     C45744   3.836   5.855   1.198 -1.0273  0.1658 -0.7876
  332MOL0     C45745   3.756   5.765   1.273  0.0963  0.1849  0.6271
  332MOL0     C45746   3.683   5.667   1.188  0.9382 -0.1240  0.3166
  332MOL0     H45747   3.644   5.329   1.380  2.0235 -1.6536  1.5673
  332MOL0     H45748   3.537   5.124   1.489  1.1501 -1.6585  5.5530
  332MOL0     H45749   3.530   4.981   1.660 -0.4179  3.8684 -3.7912
  332MOL0     H45750   3.367   4.985   1.614  1.8958 -1.1711 -0.3844
  332MOL0     H45751   3.285   4.920   1.828 -1.7863 -1.0782 -4.2413
  332MOL0     H45752   3.407   4.811   1.777 -0.6629 -0.3929  3.6570
  332MOL0     H45753   3.490   4.813   1.986 -1.4777 -0.1671  0.1890
  332MOL0     H45754   3.567   4.953   1.906 -0.2938 -2.7004 -0.4969
  332MOL0     H45755   3.340   5.065   2.012  0.7892  0.5786 -1.1622
  332MOL0     H45756   3.361   4.935   2.121 -0.7018 -1.0846 -0.8935
  332MOL0     H45757   3.574   5.007   2.185 -0.2684  0.3803  0.0912
  332MOL0     H45758   3.453   5.111   2.225 -0.9009 -0.6089 -0.2276
  332MOL0     H45759   3.662   5.122   1.993  1.4580  0.3554  0.4648
  332MOL0     H45760   3.527   5.242   1.993 -3.4732 -1.5850  1.1576
  332MOL0     H45761   3.753   5.306   2.097 -0.6427  0.8285  0.5733
  332MOL0     H45762   3.725   5.203   2.230 -2.3503 -3.4646 -1.7143
  332MOL0     H45763   3.562   5.450   2.141  0.2021 -1.4079 -1.8432
  332MOL0     H45764   3.510   5.366   2.271  0.0472  0.4365 -1.2151
  332MOL0     H45765   3.867   5.493   2.174  2.7176  1.2800 -0.4055
  332MOL0     H45766   4.030   5.632   2.286  0.7454 -1.5188  0.5943
  332MOL0     H45767   4.025   5.633   2.457  0.4908 -2.5423 -1.5511
  332MOL0     H45768   3.967   5.868   2.274  0.1564  2.3691  1.2712
  332MOL0     H45769   3.889   5.864   2.432  1.4364  0.7528  2.3360
  332MOL0     H45770   4.182   5.883   2.353  0.7643 -1.2233  0.6142
  332MOL0     H45771   4.074   5.994   2.442 -0.9973 -1.5959  0.6718
  332MOL0     H45772   4.076   5.876   2.650  1.8530  2.0645  1.1964
  332MOL0     H45773   4.157   5.742   2.582 -1.2475 -1.0585 -3.6107
  332MOL0     H45774   4.455   6.038   2.614 -2.5521 -2.8872 -2.2392
  332MOL0     H45775   4.675   6.150   2.900 -3.5063  0.3194  0.3552
  332MOL0     H45776   4.645   6.164   2.736  0.7185 -0.1070 -0.8857
  332MOL0     H45777   4.746   6.032   2.784  1.3206  2.1100 -0.6725
  332MOL0     H45778   4.734   6.129   3.208 -3.2707 -0.7484  0.0272
  332MOL0     H45779   4.848   6.133   3.418 -0.5468  1.2909 -0.8321
  332MOL0     H45780   5.020   6.110   3.578  1.0525 -0.9125 -1.4187
  332MOL0     H45781   4.935   6.003   3.692 -2.0662  0.2741 -3.1009
  332MOL0     H45782   5.243   6.020   3.648 -1.0365 -0.5435 -0.9088
  332MOL0     H45783   5.142   6.064   3.791 -0.0982 -0.2685  1.1778
  332MOL0     H45784   5.177   5.786   3.665  1.3676  1.4310 -0.3087
  332MOL0     H45785   5.075   5.822   3.799  0.0212 -2.6547 -2.5480
  332MOL0     H45786   5.301   5.940   3.913 -0.0499 -2.1107  1.0385
  332MOL0     H45787   5.395   5.855   3.801  0.4768 -1.6674  0.0892
  332MOL0     H45788   5.333   5.779   4.047  2.7045  2.8030 -1.8046
  332MOL0     H45789   5.190   5.699   3.969  0.9098 -2.0071  0.0713
  332MOL0     H45790   5.471   5.657   3.877 -0.4341  2.3898  1.0412
  332MOL0     H45791   5.331   5.579   3.811  0.4809 -1.6157  0.7103
  332MOL0     H45792   5.476   5.524   4.074  0.1220 -4.0794  0.5420
  332MOL0     H45793   5.430   5.421   3.940  2.0113  0.0762 -0.3611
  332MOL0     H45794   5.270   5.554   4.182  3.2425  1.6621 -0.9298
  332MOL0     H45795   5.308   5.381   4.163  1.1121  0.2455  0.1146
  332MOL0     H45796   4.967   5.722   3.352  4.5738  2.3782  1.7285
  332MOL0     H45797   4.831   5.712   3.155 -0.8024  1.8414 -1.8253
  332MOL0     H45798   4.353   5.804   3.034  4.1943  0.5848  0.5992
  332MOL0     H45799   4.182   5.818   2.825  0.8024  1.0970 -2.3537
  332MOL0     H45800   3.365   5.388   1.776  1.1237  1.4988 -0.5843
  332MOL0     H45801   3.477   5.580   1.686  2.9319 -0.7078  2.8578
  332MOL0     H45802   3.826   5.873   1.582  0.6552 -3.3835  0.5788
  332MOL0     H45803   3.932   6.059   1.455 -2.3346  1.0857 -0.6291
  332MOL0     H45804   4.036   6.239   1.150  0.9443  0.8985  1.5556
  332MOL0     H45805   3.956   6.226   1.293 -0.3386  1.2786 -0.7519
  332MOL0     H45806   4.145   6.160   1.411 -1.3745  1.4014  0.5889
  332MOL0     H45807   4.205   6.274   1.302  2.8240 -1.0799 -0.1715
  332MOL0     H45808   4.217   5.981   1.211 -1.5199  0.6591 -3.0344
  332MOL0     H45809   4.298   6.117   1.140  1.1229 -0.9986  1.1668
  332MOL0     H45810   4.472   6.038   1.263 -0.5613 -0.4096  0.3769
  332MOL0     H45811   4.361   5.971   1.383  0.4585 -2.4187 -3.7456
  332MOL0     H45812   4.504   6.309   1.566  1.1769 -1.0789 -0.7653
  332MOL0     H45813   3.838   5.854   1.090 -2.3993 -0.0882 -0.8351
  332MOL0     H45814   3.585   5.652   1.235  1.8643  1.8094  3.0216
  332MOL0     H45815   3.664   5.711   1.089  1.5013 -1.3054 -0.3524
  332MOL0     H45816   3.736   5.571   1.184  0.6183 -0.4751  3.0186
  333MOL0     O45817   7.377  10.186   9.199  0.5535 -0.7869  0.7069
  333MOL0     C45818   7.421  10.283   9.132 -0.0784 -0.2187 -0.8629
  333MOL0     O45819   7.434  10.410   9.177  0.2024 -0.1941  0.1068
  333MOL0     C45820   7.379  10.465   9.288  0.1895  0.3338  0.2332
  333MOL0     C45821   7.279  10.402   9.363 -0.2644  0.1021 -1.0235
  333MOL0     C45822   7.230  10.468   9.480 -0.3061 -0.0761  0.3245
  333MOL0     C45823   7.276  10.598   9.519 -0.8403 -0.7622 -0.2916
  333MOL0     O45824   7.216  10.662   9.623 -0.7960  0.1443  0.3205
  333MOL0     C45825   7.203  10.589   9.743 -0.3298  0.2355  0.6316
  333MOL0     C45826   7.212  10.676   9.872  0.3695  1.4786  0.3820
  333MOL0     C45827   7.105  10.790   9.866 -0.0990  0.2757  0.6371
  333MOL0     C45828   7.108  10.877   9.994 -0.2799  0.1519  0.4468
  333MOL0     C45829   7.030  11.002   9.988 -0.2414 -0.2630  0.5597
  333MOL0     C45830   7.029  11.052  10.135  0.2270 -0.7675  0.4065
  333MOL0     C45831   6.913  11.163  10.148 -0.2352 -0.6334 -0.4462
  333MOL0     C45832   6.966  11.268  10.238 -0.4212 -0.9325  1.3023
  333MOL0     N45833   6.864  11.351  10.293 -0.1652 -0.0964  0.0599
  333MOL0     C45834   6.801  11.461  10.229 -0.8651  0.1520 -0.2620
  333MOL0     C45835   6.699  11.502  10.313  0.4772 -0.0758 -0.3293
  333MOL0     C45836   6.598  11.611  10.270  0.1145 -0.3860  0.5371
  333MOL0     C45837   6.474  11.563  10.196 -0.8916 -0.6104 -0.1852
  333MOL0     C45838   6.495  11.606  10.051  0.1857  0.9835  1.3152
  333MOL0     C45839   6.385  11.568   9.954 -0.4115 -0.1966  0.9058
  333MOL0     O45840   6.436  11.575   9.816  0.6040  0.2637 -0.6381
  333MOL0     C45841   6.367  11.661   9.727 -0.2792  0.8794  0.8561
  333MOL0     C45842   6.231  11.693   9.724  0.6211 -0.2051 -0.8599
  333MOL0     C45843   6.186  11.785   9.620  0.1536  0.6539  0.2235
  333MOL0     C45844   6.038  11.799   9.612  0.3163 -0.0943 -0.4513
  333MOL0     C45845   6.279  11.831   9.518 -0.1422 -0.3600 -0.2112
  333MOL0     C45846   6.235  11.911   9.391  0.2403 -0.3344  0.0324
  333MOL0     O45847   6.140  11.994   9.402  0.3376 -0.3800  0.3877
  333MOL0     C45848   6.069  12.046   9.298 -0.0510  1.8001  0.1254
  333MOL0     C45849   5.954  11.975   9.245 -0.6447  0.9388  0.7789
  333MOL0     C45850   5.874  12.028   9.149 -0.4163 -1.2388  0.1502
  333MOL0     C45851   5.922  12.141   9.072  0.7689 -0.0455  0.2058
  333MOL0     O45852   5.861  12.193   8.961  0.6299 -0.2667 -0.2685
  333MOL0     C45853   5.729  12.161   8.917  0.7975 -0.1642  0.1979
  333MOL0     C45854   5.724  12.037   8.829  0.8097  0.9988 -0.4841
  333MOL0     C45855   5.585  12.017   8.766  0.8274  0.3057  0.3627
  333MOL0     C45856   5.574  12.097   8.632  0.0872  0.7068 -0.1922
  333MOL0     C45857   5.448  12.058   8.551  0.1403 -0.0492  0.0023
  333MOL0     C45858   5.320  12.077   8.635 -0.2727 -0.0214  0.4459
  333MOL0     C45859   5.191  12.076   8.546 -0.1110  0.2071 -0.6550
  333MOL0     C45860   5.069  12.080   8.647  0.4292 -0.5783 -0.2151
  333MOL0    Cl45861   4.918  12.111   8.548  0.2028 -0.1294  0.1764
  333MOL0     C45862   6.039  12.206   9.118  0.3265  0.3105 -0.2433
  333MOL0     C45863   6.110  12.161   9.234 -0.4541  0.0660 -0.5880
  333MOL0     O45864   6.290  11.874   9.287  0.2814  0.6237 -0.2757
  333MOL0     C45865   6.408  11.787   9.522  0.5457 -0.7607 -0.6516
  333MOL0     C45866   6.454  11.703   9.626  0.4234 -0.3276  0.8055
  333MOL0     N45867   6.701  11.409  10.423 -0.1683 -0.5734 -0.6420
  333MOL0     N45868   6.792  11.312  10.406 -0.0295 -0.0841 -0.2044
  333MOL0     C45869   7.374  10.659   9.440 -0.2496  0.6872 -0.1026
  333MOL0     C45870   7.416  10.590   9.331 -0.0152  0.1728  0.4075
  333MOL0     C45871   7.467  10.270   8.994  0.6363  0.2181 -0.8817
  333MOL0     C45872   7.601  10.243   8.963 -0.0680 -0.5846  0.2298
  333MOL0     C45873   7.646  10.252   8.828  0.5266  0.3171 -0.4311
  333MOL0     C45874   7.555  10.256   8.724 -0.0170 -1.0701  0.1685
  333MOL0     O45875   7.591  10.261   8.592 -0.5390 -0.5140  0.0260
  333MOL0     C45876   7.724  10.239   8.545  0.8832  0.0369 -0.3744
  333MOL0     C45877   7.730  10.254   8.397  1.2172 -0.5978  0.1686
  333MOL0     C45878   7.693  10.395   8.354 -0.1316 -0.3519 -0.0964
  333MOL0     C45879   7.800  10.511   8.397  0.3630  0.2242  0.0089
  333MOL0     C45880   7.764  10.570   8.533 -0.5868  0.5957 -0.1113
  333MOL0     C45881   7.733  10.595   8.644  0.3017  0.2237  0.5192
  333MOL0     C45882   7.421  10.276   8.753  0.0890  0.5258 -0.2724
  333MOL0     C45883   7.372  10.272   8.891  0.2089 -0.6208  1.3130
  333MOL0     C45884   7.223  10.287   8.911 -0.2594  0.3231  0.2278
  333MOL0     H45885   7.237  10.306   9.335  0.6834 -1.6399  2.9569
  333MOL0     H45886   7.153  10.409   9.529  0.8591 -2.4972 -0.5725
  333MOL0     H45887   7.282  10.513   9.741  0.3821  0.9667 -1.0627
  333MOL0     H45888   7.102  10.546   9.748 -0.2278  0.1443  3.2851
  333MOL0     H45889   7.212  10.609   9.958  2.7281 -1.0433 -1.4023
  333MOL0     H45890   7.318  10.706   9.876  0.0207  2.6628  1.9892
  333MOL0     H45891   7.128  10.846   9.775  0.8378 -2.6582 -1.0862
  333MOL0     H45892   7.007  10.745   9.849  1.1280 -2.4212  0.2414
  333MOL0     H45893   7.072  10.811  10.074 -0.3484 -1.2782 -0.7264
  333MOL0     H45894   7.213  10.897  10.020 -0.6947  0.6923  1.8102
  333MOL0     H45895   6.929  10.977   9.954  0.2771  1.7875 -2.9636
  333MOL0     H45896   7.076  11.069   9.915 -0.6690 -0.3356  0.2171
  333MOL0     H45897   7.010  10.973  10.209 -1.9984 -0.0159  0.6916
  333MOL0     H45898   7.131  11.089  10.151  1.1567 -1.8110 -2.3876
  333MOL0     H45899   6.828  11.109  10.191  1.4691 -2.0220  1.3800
  333MOL0     H45900   6.896  11.214  10.053  1.0417  0.9532  0.1280
  333MOL0     H45901   7.032  11.231  10.318 -0.3999 -1.9970  0.8077
  333MOL0     H45902   7.033  11.334  10.183  1.0017 -1.7722  1.9487
  333MOL0     H45903   6.817  11.502  10.129  0.1754 -0.7044 -0.4645
  333MOL0     H45904   6.650  11.689  10.213 -1.3797  0.1054 -0.2031
  333MOL0     H45905   6.559  11.659  10.360 -1.7162 -2.4404  0.9197
  333MOL0     H45906   6.457  11.455  10.194 -0.1379 -0.7729 -3.3813
  333MOL0     H45907   6.391  11.624  10.234 -0.3632  0.2474 -0.3827
  333MOL0     H45908   6.503  11.715  10.044  0.5486  0.8712 -4.4230
  333MOL0     H45909   6.586  11.559  10.013  1.0007  2.7439  0.9655
  333MOL0     H45910   6.349  11.466   9.975 -2.5494  0.3329  0.0254
  333MOL0     H45911   6.302  11.638   9.964 -1.7937 -1.3373 -1.6900
  333MOL0     H45912   6.163  11.646   9.793  1.5475 -1.4703 -0.7807
  333MOL0     H45913   5.998  11.742   9.528  0.1337  1.4664 -1.4619
  333MOL0     H45914   5.997  11.900   9.610 -2.6005 -1.1865 -1.1894
  333MOL0     H45915   5.997  11.764   9.707  2.4750  2.6593  1.6611
  333MOL0     H45916   5.908  11.890   9.295  3.5283 -2.6868 -0.8595
  333MOL0     H45917   5.781  11.979   9.123  0.8618 -2.7038 -1.8853
  333MOL0     H45918   5.665  12.136   9.002 -0.9589 -3.6440 -1.9461
  333MOL0     H45919   5.709  12.251   8.858 -0.7783 -1.4586 -1.3413
  333MOL0     H45920   5.790  12.049   8.742  0.6949 -2.2206 -1.1345
  333MOL0     H45921   5.754  11.949   8.886 -2.0607  0.7393  0.8064
  333MOL0     H45922   5.504  12.047   8.833 -0.3226  0.6097 -1.1187
  333MOL0     H45923   5.581  11.909   8.750 -0.3451  0.7122 -3.0830
  333MOL0     H45924   5.666  12.094   8.573 -1.1347  1.4386 -2.2173
  333MOL0     H45925   5.568  12.203   8.654  1.1599  1.5896 -3.5541
  333MOL0     H45926   5.430  12.127   8.468 -1.6335 -0.0767  0.3252
  333MOL0     H45927   5.451  11.954   8.517  0.2729 -0.4013  1.0767
  333MOL0     H45928   5.328  12.166   8.697 -2.7757  0.8889 -0.4266
  333MOL0     H45929   5.305  11.989   8.699 -3.5742  0.8478  1.0295
  333MOL0     H45930   5.185  11.988   8.481  0.4442 -1.3485  1.2914
  333MOL0     H45931   5.191  12.168   8.487 -0.4112  1.0812  0.6667
  333MOL0     H45932   5.076  12.154   8.727 -2.4959  0.1011 -0.4711
  333MOL0     H45933   5.069  11.988   8.707  1.0409 -1.1476 -1.0501
  333MOL0     H45934   6.066  12.297   9.066  0.8672  0.2003 -0.1618
  333MOL0     H45935   6.203  12.212   9.258 -0.8079 -0.0643  1.2372
  333MOL0     H45936   6.475  11.813   9.440  1.1385 -0.5285 -0.0981
  333MOL0     H45937   6.559  11.677   9.615  0.8256  1.5723 -0.3282
  333MOL0     H45938   7.401  10.757   9.479  0.4428  1.4610 -2.3653
  333MOL0     H45939   7.486  10.631   9.259  2.7445 -3.4206  0.7237
  333MOL0     H45940   7.682  10.235   9.034  0.5776  3.0156  0.1205
  333MOL0     H45941   7.754  10.244   8.818  0.2766 -1.5055 -2.1421
  333MOL0     H45942   7.794  10.300   8.604  1.3208 -0.8663  0.0668
  333MOL0     H45943   7.746  10.135   8.573 -2.6415 -1.4239 -2.3269
  333MOL0     H45944   7.648  10.197   8.353 -1.7713  0.7260  3.4893
  333MOL0     H45945   7.830  10.222   8.367  1.8985 -0.7774  2.4108
  333MOL0     H45946   7.692  10.385   8.246  1.1751 -1.8770 -0.0076
  333MOL0     H45947   7.594  10.410   8.399  1.2671  5.1552  1.9621
  333MOL0     H45948   7.794  10.593   8.324 -0.8842 -0.2596 -0.4673
  333MOL0     H45949   7.906  10.485   8.398  0.9458  2.1067  3.4059
  333MOL0     H45950   7.707  10.602   8.747 -1.0840  1.4087  0.1196
  333MOL0     H45951   7.354  10.273   8.668 -2.5911 -1.8935  1.7203
  333MOL0     H45952   7.192  10.221   8.992 -1.6287 -0.8933 -1.2092
  333MOL0     H45953   7.202  10.392   8.931  0.5177  0.5561 -0.1185
  333MOL0     H45954   7.171  10.246   8.824  1.7742  0.0934 -0.9541
  334MOL0     O45955   5.098   9.373   2.475 -0.1711 -0.4739  0.8991
  334MOL0     C45956   5.045   9.375   2.362 -0.9670  0.2127 -0.3991
  334MOL0     O45957   5.067   9.471   2.265 -0.5436 -0.5015  1.2754
  334MOL0     C45958   5.155   9.570   2.293  0.5547  0.2512 -0.0192
  334MOL0     C45959   5.120   9.683   2.371 -0.0702 -0.2922 -0.2811
  334MOL0     C45960   5.208   9.791   2.382  0.6771 -0.3199  1.6640
  334MOL0     C45961   5.333   9.787   2.318 -0.4746  0.0304  0.0983
  334MOL0     O45962   5.420   9.892   2.349 -0.2472  0.3520 -0.4219
  334MOL0     C45963   5.565   9.880   2.345 -0.5237  0.4482  0.2536
  334MOL0     C45964   5.607  10.023   2.382  0.0746  0.0950 -0.1954
  334MOL0     C45965   5.572  10.115   2.262 -0.6184  0.4030  0.0394
  334MOL0     C45966   5.671  10.094   2.147  0.0335  0.0554  0.5752
  334MOL0     C45967   5.671  10.211   2.053  0.4663  0.8659  1.3658
  334MOL0     C45968   5.543  10.244   1.988 -0.1544 -0.2395 -0.3919
  334MOL0     C45969   5.533  10.204   1.842  0.2419  1.1131 -0.7905
  334MOL0     C45970   5.496  10.053   1.831  0.0732  0.3590 -0.1841
  334MOL0     N45971   5.486   9.991   1.703  0.3626 -0.1473  0.5858
  334MOL0     C45972   5.461  10.057   1.591 -0.2028 -0.6633 -0.3080
  334MOL0     C45973   5.481   9.978   1.484  0.2861 -0.1310  0.6921
  334MOL0     C45974   5.475  10.006   1.335 -0.0316 -0.6920 -0.4040
  334MOL0     C45975   5.584  10.106   1.294  0.7687  0.0770  0.2069
  334MOL0     C45976   5.551  10.140   1.144 -0.2855  0.2454 -0.5151
  334MOL0     C45977   5.664  10.240   1.071 -0.1402  0.5535 -0.7549
  334MOL0     O45978   5.791  10.172   1.070  0.4458 -0.5462  0.3743
  334MOL0     C45979   5.875  10.224   0.970  0.0154  0.1182  0.8693
  334MOL0     C45980   5.879  10.360   0.930  0.7835  0.2535 -0.4302
  334MOL0     C45981   5.951  10.396   0.818 -0.2980 -0.0622 -0.6896
  334MOL0     C45982   5.933  10.542   0.773 -0.3410  0.0699 -0.0403
  334MOL0     C45983   6.042  10.308   0.761  0.3327  0.0960  0.1996
  334MOL0     C45984   6.130  10.333   0.644 -0.8591 -0.8251 -0.1363
  334MOL0     O45985   6.176  10.233   0.562  0.2454 -0.2715  0.5897
  334MOL0     C45986   6.265  10.239   0.462 -0.0095  0.1011 -0.8104
  334MOL0     C45987   6.372  10.332   0.450  0.9254 -0.5888 -0.3839
  334MOL0     C45988   6.453  10.335   0.342  0.1393 -0.5037 -0.0182
  334MOL0     C45989   6.450  10.225   0.245 -0.8426 -0.5144 -0.8276
  334MOL0     O45990   6.532  10.225   0.137 -0.2357  0.3250 -0.2652
  334MOL0     C45991   6.572  10.082   0.092 -0.0092 -0.4892  1.0902
  334MOL0     C45992   6.646  10.081  -0.036  0.5722  0.0309  0.0859
  334MOL0     C45993   6.749  10.186  -0.060 -0.1940  0.4456  0.2167
  334MOL0     C45994   6.873  10.177   0.027  0.1873  0.1984 -0.6737
  334MOL0     C45995   6.973  10.291   0.008  0.6938  0.0764  0.5169
  334MOL0     C45996   7.107  10.266   0.075 -0.0265 -0.4095  0.7086
  334MOL0     C45997   7.199  10.382   0.054  0.5581 -0.0958 -0.3817
  334MOL0     C45998   7.333  10.357   0.127  0.1572 -0.4039 -0.1199
  334MOL0    Cl45999   7.323  10.377   0.302  0.1611 -0.0628  0.1865
  334MOL0     C46000   6.352  10.123   0.274  0.0126 -0.7878  0.4728
  334MOL0     C46001   6.261  10.135   0.369 -0.5529  0.1229  0.2169
  334MOL0     O46002   6.157  10.449   0.636 -0.9319 -0.7859 -1.0623
  334MOL0     C46003   6.056  10.178   0.809  0.1380  0.0397 -0.6599
  334MOL0     C46004   5.974  10.139   0.914  0.2944 -0.8703  0.1395
  334MOL0     N46005   5.524   9.869   1.541 -0.1707  0.6523 -0.1082
  334MOL0     N46006   5.524   9.867   1.671 -0.2323  0.7479  1.0419
  334MOL0     C46007   5.367   9.677   2.242  0.1129  0.1992  0.9477
  334MOL0     C46008   5.277   9.576   2.226 -0.6835 -0.2748  0.5288
  334MOL0     C46009   4.953   9.261   2.333  0.1284  0.7985  0.0920
  334MOL0     C46010   4.848   9.224   2.424 -0.2723  0.2873 -0.7070
  334MOL0     C46011   4.769   9.116   2.406  0.6895  0.3805  0.4076
  334MOL0     C46012   4.784   9.038   2.287  0.3012 -0.8381  0.2463
  334MOL0     O46013   4.714   8.925   2.264  0.9278  0.2628 -0.0905
  334MOL0     C46014   4.724   8.832   2.373  0.4937  0.5932 -0.1944
  334MOL0     C46015   4.643   8.709   2.317 -0.3673 -0.7205  0.1009
  334MOL0     C46016   4.576   8.631   2.430 -0.5942 -0.0114  0.3537
  334MOL0     C46017   4.431   8.668   2.457  0.5122 -0.3483  0.5949
  334MOL0     C46018   4.333   8.636   2.345 -0.6744 -0.5584 -0.0336
  334MOL0     C46019   4.263   8.612   2.253  0.1833  0.6328  0.0462
  334MOL0     C46020   4.892   9.067   2.197  0.5144  0.0358 -0.0432
  334MOL0     C46021   4.969   9.175   2.213  0.3710  0.5161  0.0964
  334MOL0     C46022   5.083   9.199   2.118  0.5340 -1.0304  0.5897
  334MOL0     H46023   5.032   9.689   2.434  1.2542  1.6031  1.4914
  334MOL0     H46024   5.181   9.870   2.452 -1.0930  0.0382  0.6344
  334MOL0     H46025   5.600   9.854   2.244 -2.0651 -0.9935  0.0403
  334MOL0     H46026   5.590   9.816   2.430 -1.3733  1.4323  1.2660
  334MOL0     H46027   5.555  10.060   2.472  0.6673 -1.1668  0.6898
  334MOL0     H46028   5.712  10.023   2.412  0.4242 -0.4496 -1.3806
  334MOL0     H46029   5.470  10.094   2.227 -0.3152  1.0156 -1.2857
  334MOL0     H46030   5.578  10.218   2.301  0.4572  0.3309  0.0733
  334MOL0     H46031   5.773  10.080   2.182 -0.3137  0.1386  1.6688
  334MOL0     H46032   5.642  10.000   2.099  0.4804  1.0999 -1.8946
  334MOL0     H46033   5.745  10.188   1.975 -0.1989 -2.0417  1.4807
  334MOL0     H46034   5.701  10.301   2.107 -0.0786  0.8100  1.7679
  334MOL0     H46035   5.461  10.201   2.047  0.3369 -3.0624 -1.6229
  334MOL0     H46036   5.521  10.351   1.989  1.9185  0.2313  1.0277
  334MOL0     H46037   5.624  10.230   1.787  0.7535 -0.3346 -0.6672
  334MOL0     H46038   5.449  10.259   1.799 -1.3762 -0.2816  0.4261
  334MOL0     H46039   5.576  10.000   1.883 -0.5423 -1.1703 -0.7313
  334MOL0     H46040   5.407  10.050   1.894  1.7747 -2.5018  2.3580
  334MOL0     H46041   5.440  10.164   1.587  2.0554 -0.1075  0.9678
  334MOL0     H46042   5.381  10.060   1.323  2.4713  4.2611 -0.2573
  334MOL0     H46043   5.481   9.922   1.264 -1.2498 -1.2151  0.0851
  334MOL0     H46044   5.591  10.198   1.352  0.8312  0.6785 -0.7367
  334MOL0     H46045   5.674  10.046   1.312  0.8533  0.5946  1.6346
  334MOL0     H46046   5.552  10.049   1.084  0.9070  1.1107 -1.8655
  334MOL0     H46047   5.459  10.200   1.149 -0.5485 -0.1037 -1.0576
  334MOL0     H46048   5.623  10.273   0.975 -0.6516  3.1965  0.3031
  334MOL0     H46049   5.663  10.335   1.125 -1.2885  0.2344 -0.1795
  334MOL0     H46050   5.817  10.433   0.982 -0.7028 -0.6614 -0.8677
  334MOL0     H46051   5.856  10.591   0.833 -1.6652 -3.6935  1.6332
  334MOL0     H46052   5.908  10.551   0.667 -1.2403 -0.9795  0.0606
  334MOL0     H46053   6.026  10.589   0.806 -0.6672 -0.0446  1.0653
  334MOL0     H46054   6.396  10.411   0.520  3.5063 -0.1785 -1.6015
  334MOL0     H46055   6.519  10.420   0.352 -2.2875  1.2444  2.9053
  334MOL0     H46056   6.634  10.052   0.177  1.4056  0.8434  0.5790
  334MOL0     H46057   6.494  10.006   0.082  0.1949 -0.6772  0.9468
  334MOL0     H46058   6.678   9.978  -0.051  2.8376  0.6584  0.1906
  334MOL0     H46059   6.576  10.105  -0.117  2.1188  4.0358 -0.2969
  334MOL0     H46060   6.699  10.283  -0.055 -0.6421  0.3467 -1.6854
  334MOL0     H46061   6.785  10.186  -0.163  2.2425 -0.8378  0.9944
  334MOL0     H46062   6.918  10.079   0.012 -1.0012 -0.4788 -0.0120
  334MOL0     H46063   6.841  10.179   0.131  0.4111 -0.8145 -0.5764
  334MOL0     H46064   6.988  10.294  -0.100  1.1661  0.3527  0.5869
  334MOL0     H46065   6.915  10.381   0.031 -1.9317 -0.6421 -2.5723
  334MOL0     H46066   7.155  10.179   0.029  0.4652  0.7806 -1.1514
  334MOL0     H46067   7.106  10.237   0.181 -0.5193  0.4387  0.9426
  334MOL0     H46068   7.161  10.475   0.098 -0.9168 -0.1653 -1.4177
  334MOL0     H46069   7.216  10.404  -0.052  0.4560  3.1787  0.1831
  334MOL0     H46070   7.394  10.445   0.105  0.0581  0.0173  1.1945
  334MOL0     H46071   7.389  10.263   0.117 -1.0845 -1.4089  1.8236
  334MOL0     H46072   6.336  10.033   0.215 -0.3981 -2.0601  2.4139
  334MOL0     H46073   6.172  10.073   0.364 -2.0017  2.0917  0.0495
  334MOL0     H46074   6.140  10.113   0.787  1.0620  0.0679  2.3426
  334MOL0     H46075   5.986  10.037   0.949 -3.2768 -0.5582  2.8829
  334MOL0     H46076   5.464   9.680   2.193 -1.0398  2.4855 -1.3796
  334MOL0     H46077   5.294   9.493   2.157  0.5078  1.7048 -1.7228
  334MOL0     H46078   4.820   9.293   2.503 -3.0786  0.8680 -2.0972
  334MOL0     H46079   4.699   9.084   2.483 -0.7014 -0.0284 -0.9756
  334MOL0     H46080   4.830   8.811   2.391  1.0131  2.0129 -1.4036
  334MOL0     H46081   4.673   8.866   2.463  0.7096  0.0820  0.1215
  334MOL0     H46082   4.711   8.640   2.266  2.0072  0.4060  1.5370
  334MOL0     H46083   4.569   8.744   2.245 -0.4357  0.0743  0.5408
  334MOL0     H46084   4.565   8.528   2.396 -0.9225  0.2627 -0.3939
  334MOL0     H46085   4.641   8.632   2.518 -0.0851 -0.5546 -0.0141
  334MOL0     H46086   4.421   8.771   2.493  3.2990 -0.2975  1.4016
  334MOL0     H46087   4.389   8.609   2.539 -1.1802  1.3455  1.0495
  334MOL0     H46088   4.204   8.604   2.164  1.2525 -0.7019 -0.5731
  334MOL0     H46089   4.911   8.996   2.117 -0.9366 -3.1401  2.1702
  334MOL0     H46090   5.177   9.205   2.173 -0.0913 -0.0227  1.6061
  334MOL0     H46091   5.087   9.111   2.053  1.2802 -1.1189  0.7467
  334MOL0     H46092   5.071   9.290   2.058 -0.2024 -0.2779  1.8366
  335MOL0     O46093   9.925   3.962   7.064 -0.4552  0.3669  0.3573
  335MOL0     C46094   9.870   3.928   6.958 -0.2500  0.2616  0.8948
  335MOL0     O46095   9.738   3.927   6.940  0.8348 -0.2423  0.6992
  335MOL0     C46096   9.659   3.986   7.035  0.1241 -0.4065 -0.0675
  335MOL0     C46097   9.661   4.128   7.051 -0.2777  0.1159 -0.5603
  335MOL0     C46098   9.579   4.177   7.151  0.7749  0.6613 -0.4274
  335MOL0     C46099   9.475   4.110   7.213  0.2470  0.9602  0.3513
  335MOL0     O46100   9.383   4.172   7.296  0.1709 -0.1930  1.0384
  335MOL0     C46101   9.306   4.099   7.394 -0.1189 -0.2688  0.8924
  335MOL0     C46102   9.228   4.206   7.466 -0.1663 -0.2858  0.2577
  335MOL0     C46103   9.307   4.295   7.552  0.6354 -0.1712  0.2892
  335MOL0     C46104   9.237   4.409   7.614  0.1870 -0.3657 -0.4064
  335MOL0     C46105   9.338   4.490   7.706  0.2395  0.2607 -0.5895
  335MOL0     C46106   9.271   4.624   7.745  0.7890 -0.4318  0.4881
  335MOL0     C46107   9.356   4.718   7.829  0.1175 -0.4362  0.2549
  335MOL0     C46108   9.380   4.654   7.969 -0.3680 -0.5570 -0.4090
  335MOL0     N46109   9.253   4.636   8.041 -0.3409 -1.0001  0.6726
  335MOL0     C46110   9.216   4.521   8.101  0.6704  0.6042  0.0592
  335MOL0     C46111   9.088   4.547   8.137  0.5542 -0.4219 -0.1048
  335MOL0     C46112   9.002   4.461   8.234 -0.0633  0.1081  0.6488
  335MOL0     C46113   8.880   4.402   8.174  0.9616  0.3193  0.0059
  335MOL0     C46114   8.767   4.505   8.157  0.2049  0.7434  0.3784
  335MOL0     C46115   8.644   4.441   8.084 -0.1894 -0.3894 -0.3463
  335MOL0     O46116   8.687   4.381   7.957  0.6924 -0.5230  0.0281
  335MOL0     C46117   8.654   4.440   7.846  1.5534  0.8756 -0.2551
  335MOL0     C46118   8.518   4.439   7.815  0.0606 -0.6197  0.3841
  335MOL0     C46119   8.482   4.476   7.682  0.8936 -0.2529 -0.2610
  335MOL0     C46120   8.337   4.488   7.649 -0.7969  1.0607  0.5209
  335MOL0     C46121   8.577   4.521   7.590  0.2791 -0.3884  0.7374
  335MOL0     C46122   8.548   4.585   7.458 -0.2517 -0.5747 -1.1202
  335MOL0     O46123   8.448   4.672   7.449 -0.6053 -0.3669  0.4059
  335MOL0     C46124   8.430   4.724   7.322  0.1185 -0.2964 -0.2768
  335MOL0     C46125   8.478   4.860   7.292 -0.1235  0.0357 -0.8932
  335MOL0     C46126   8.445   4.920   7.173 -0.0230 -0.5943 -0.8396
  335MOL0     C46127   8.358   4.856   7.083  0.2585 -0.0810 -0.0089
  335MOL0     O46128   8.316   4.913   6.969 -0.6811  0.1128  0.2204
  335MOL0     C46129   8.372   5.035   6.916  0.0273 -0.1486  0.0134
  335MOL0     C46130   8.317   5.053   6.775 -0.3727 -0.3988 -0.3640
  335MOL0     C46131   8.378   5.175   6.696  0.9414  0.2507  1.1976
  335MOL0     C46132   8.523   5.200   6.717 -0.1775 -0.0565 -0.4243
  335MOL0     C46133   8.592   5.303   6.620 -1.2642 -0.1297 -0.5002
  335MOL0     C46134   8.593   5.440   6.679  0.0157 -0.8169  0.1012
  335MOL0     C46135   8.675   5.541   6.609 -0.3906  0.5145  0.5352
  335MOL0     C46136   8.666   5.676   6.676  0.2844 -0.8220 -0.1605
  335MOL0    Cl46137   8.781   5.694   6.815  0.2833 -0.0858 -0.3824
  335MOL0     C46138   8.320   4.720   7.112  0.2126 -0.5712  0.4155
  335MOL0     C46139   8.355   4.660   7.232  0.5661 -0.9958 -0.2925
  335MOL0     O46140   8.637   4.568   7.370  0.8524 -1.0239 -1.1632
  335MOL0     C46141   8.710   4.506   7.618  0.1862  0.3749 -1.1288
  335MOL0     C46142   8.744   4.471   7.753 -0.5019 -0.7998  0.6449
  335MOL0     N46143   9.057   4.684   8.107  0.5154  0.7020 -0.3374
  335MOL0     N46144   9.154   4.728   8.038  0.0250 -0.4702  0.4179
  335MOL0     C46145   9.458   3.975   7.171  0.4353 -0.0497 -0.0681
  335MOL0     C46146   9.558   3.911   7.092  0.0750  0.5390 -0.6763
  335MOL0     C46147   9.958   3.879   6.842 -0.4840 -0.1654 -0.1427
  335MOL0     C46148  10.086   3.934   6.833 -0.1741  0.0504 -0.1188
  335MOL0     C46149  10.173   3.896   6.728 -0.4129  0.3529 -1.0154
  335MOL0     C46150  10.128   3.797   6.638 -0.3121  0.7322 -0.2570
  335MOL0     O46151  10.200   3.748   6.536  0.2072  0.1794 -0.3676
  335MOL0     C46152  10.318   3.816   6.486 -0.7407  0.0129  0.0684
  335MOL0     C46153  10.351   3.778   6.333  0.6543 -0.3902  0.1312
  335MOL0     C46154  10.226   3.810   6.238 -1.2246  0.6305 -0.4259
  335MOL0     C46155  10.151   3.686   6.196 -0.0979 -0.2219 -0.3278
  335MOL0     C46156  10.244   3.595   6.120  0.1746  0.4145  0.0164
  335MOL0     C46157  10.303   3.523   6.038 -0.7926 -0.0766  0.9897
  335MOL0     C46158  10.010   3.736   6.656  0.5941  0.2159 -0.1851
  335MOL0     C46159   9.919   3.780   6.754  0.1372 -0.4775  0.0523
  335MOL0     C46160   9.783   3.703   6.766  1.3139 -0.8105 -0.2994
  335MOL0     H46161   9.725   4.190   6.990 -2.8520  1.8148 -1.7439
  335MOL0     H46162   9.594   4.279   7.185 -0.2230  0.5312  0.4353
  335MOL0     H46163   9.382   4.044   7.449  1.6284  1.2776  0.1372
  335MOL0     H46164   9.239   4.029   7.343 -2.7253  1.5361  1.6457
  335MOL0     H46165   9.185   4.268   7.386 -0.0179  0.1900  0.5389
  335MOL0     H46166   9.143   4.168   7.523 -1.1516  2.4389  0.7630
  335MOL0     H46167   9.338   4.232   7.636  1.0961  0.5245  0.6514
  335MOL0     H46168   9.391   4.328   7.490 -1.6100 -1.0719 -3.4891
  335MOL0     H46169   9.192   4.476   7.539 -1.3453  0.6859  1.3650
  335MOL0     H46170   9.153   4.362   7.666 -0.9675 -0.0524 -1.9028
  335MOL0     H46171   9.436   4.486   7.658  2.6959 -2.4228  3.8640
  335MOL0     H46172   9.347   4.436   7.801  1.1705  2.1688  0.4678
  335MOL0     H46173   9.271   4.673   7.647  1.5381 -1.1691  0.1138
  335MOL0     H46174   9.168   4.622   7.783 -0.6547  0.8038 -2.8719
  335MOL0     H46175   9.302   4.811   7.849  1.4096  0.0469  1.6012
  335MOL0     H46176   9.454   4.748   7.791  0.4057 -0.1524  1.1859
  335MOL0     H46177   9.440   4.563   7.967 -1.0079 -1.0912  1.8811
  335MOL0     H46178   9.436   4.726   8.030 -1.0874  0.7521 -1.2483
  335MOL0     H46179   9.265   4.424   8.111 -0.0926  0.0419 -1.3972
  335MOL0     H46180   8.976   4.512   8.327  0.7551  3.2474 -0.7262
  335MOL0     H46181   9.065   4.377   8.266 -0.1502  0.1862  1.0316
  335MOL0     H46182   8.915   4.375   8.074  1.0298 -0.7164  0.2933
  335MOL0     H46183   8.845   4.306   8.213 -1.0702  0.7854 -0.5547
  335MOL0     H46184   8.737   4.528   8.260 -1.7900 -2.2116  0.5822
  335MOL0     H46185   8.802   4.602   8.119 -0.8059  0.8229 -0.4053
  335MOL0     H46186   8.590   4.372   8.151  0.4456  0.0708  0.6475
  335MOL0     H46187   8.572   4.520   8.062  0.9938  1.7461  2.7597
  335MOL0     H46188   8.440   4.422   7.889 -0.4074  2.0025  0.6034
  335MOL0     H46189   8.298   4.586   7.679 -2.9741 -0.2956  2.5029
  335MOL0     H46190   8.288   4.405   7.701  1.4626 -1.5638 -1.2353
  335MOL0     H46191   8.309   4.488   7.544  0.1795  4.2618  0.1535
  335MOL0     H46192   8.549   4.909   7.358  2.9429 -0.1185 -3.8125
  335MOL0     H46193   8.470   5.024   7.155 -0.4462 -1.0713 -5.0340
  335MOL0     H46194   8.348   5.125   6.974  0.3886  0.5870 -0.9426
  335MOL0     H46195   8.479   5.020   6.899  0.4440  3.9681 -2.7311
  335MOL0     H46196   8.343   4.968   6.711  4.0070 -0.2408  0.8529
  335MOL0     H46197   8.210   5.069   6.784 -0.7065 -1.2533 -2.3281
  335MOL0     H46198   8.313   5.260   6.718 -0.1321 -0.2021 -0.1009
  335MOL0     H46199   8.358   5.153   6.591 -0.1666  3.2026  0.6925
  335MOL0     H46200   8.576   5.106   6.695 -1.0156 -1.1624  1.9143
  335MOL0     H46201   8.546   5.220   6.822  1.0601  1.8616 -1.0083
  335MOL0     H46202   8.694   5.270   6.599 -0.0948  0.2501  3.5795
  335MOL0     H46203   8.534   5.294   6.527  0.9839 -0.1093 -1.9739
  335MOL0     H46204   8.638   5.435   6.779  2.5535  0.3013 -0.9120
  335MOL0     H46205   8.487   5.467   6.680  0.5664  1.5393  0.7208
  335MOL0     H46206   8.633   5.545   6.508  1.2516 -0.9939 -0.2581
  335MOL0     H46207   8.781   5.513   6.604  0.5485  3.7774 -4.3716
  335MOL0     H46208   8.564   5.698   6.710 -0.4444 -3.6380 -0.2708
  335MOL0     H46209   8.703   5.747   6.602  3.4794 -0.8952  1.2109
  335MOL0     H46210   8.276   4.659   7.034  0.0731  0.1869 -0.1170
  335MOL0     H46211   8.319   4.561   7.255  0.4275 -0.3833  2.6004
  335MOL0     H46212   8.792   4.538   7.554  0.9098  1.3014  0.2123
  335MOL0     H46213   8.846   4.469   7.792 -0.0744  0.4730 -0.3372
  335MOL0     H46214   9.374   3.924   7.216 -0.4925  1.9437  0.5869
  335MOL0     H46215   9.536   3.807   7.068 -1.0893  1.0847 -2.1858
  335MOL0     H46216  10.126   4.011   6.899  2.0908  1.5779 -3.0301
  335MOL0     H46217  10.272   3.941   6.726  0.3943 -1.2307  0.3418
  335MOL0     H46218  10.297   3.923   6.481 -1.7773 -0.1773  0.1597
  335MOL0     H46219  10.401   3.792   6.552 -3.1534  2.0933  4.2277
  335MOL0     H46220  10.384   3.674   6.332  1.3868 -0.2169  2.1362
  335MOL0     H46221  10.448   3.818   6.301  0.4960 -1.8166 -2.3823
  335MOL0     H46222  10.163   3.889   6.280 -0.6395  1.0860 -0.3893
  335MOL0     H46223  10.267   3.841   6.141 -1.0306  1.4610 -0.0878
  335MOL0     H46224  10.065   3.714   6.135  0.6551  3.3327 -0.0117
  335MOL0     H46225  10.112   3.631   6.282  3.1024 -0.6110  1.0164
  335MOL0     H46226  10.367   3.473   5.968  0.6941 -0.1435  2.3270
  335MOL0     H46227   9.984   3.656   6.587 -1.6758 -0.2277  1.0952
  335MOL0     H46228   9.704   3.753   6.709  0.7949  0.2612  1.2918
  335MOL0     H46229   9.795   3.604   6.720  0.2839 -0.1355 -2.1126
  335MOL0     H46230   9.761   3.692   6.873  1.0393  1.5934 -0.0476
  336MOL0     O46231   4.906  11.209   1.482 -0.7738 -0.6672  0.5731
  336MOL0     C46232   4.794  11.197   1.537  0.0764  0.3506  1.2423
  336MOL0     O46233   4.748  11.084   1.591 -0.6547  0.1950 -0.1453
  336MOL0     C46234   4.804  10.971   1.538  0.0992  0.4983 -0.1746
  336MOL0     C46235   4.837  10.948   1.407  0.1151  0.3422 -0.5075
  336MOL0     C46236   4.904  10.825   1.377  0.4315 -0.9149  0.0812
  336MOL0     C46237   4.930  10.730   1.478 -1.2210 -0.9866  1.8614
  336MOL0     O46238   4.987  10.617   1.428 -0.6185  0.7166 -0.1999
  336MOL0     C46239   5.056  10.541   1.521 -0.2564  0.2635  0.0064
  336MOL0     C46240   5.126  10.414   1.463  1.0166  0.7405  0.7258
  336MOL0     C46241   5.261  10.432   1.386  0.1547 -1.2571  0.6081
  336MOL0     C46242   5.359  10.507   1.476 -0.3788  0.1445 -0.3517
  336MOL0     C46243   5.483  10.546   1.387  0.6873 -1.0055 -0.0068
  336MOL0     C46244   5.563  10.658   1.454 -0.2304 -0.1258 -0.3513
  336MOL0     C46245   5.682  10.693   1.355  0.9342  0.2712 -0.5752
  336MOL0     C46246   5.774  10.788   1.431  0.3472 -0.0157  0.4069
  336MOL0     N46247   5.874  10.869   1.349  0.8148  0.0912 -0.1906
  336MOL0     C46248   5.862  10.901   1.223 -0.6279 -0.0266  0.3658
  336MOL0     C46249   5.986  10.937   1.196 -0.8114 -0.5011 -0.1950
  336MOL0     C46250   6.054  10.970   1.065  0.2776 -0.1566 -0.4498
  336MOL0     C46251   6.115  10.851   0.980  0.4031  0.3147 -1.0612
  336MOL0     C46252   6.184  10.891   0.857  0.0183 -0.0183  0.1260
  336MOL0     C46253   6.093  10.933   0.739 -0.3270  0.5505 -0.5307
  336MOL0     O46254   6.169  10.964   0.623  0.3749  0.4201 -0.4015
  336MOL0     C46255   6.248  11.077   0.619 -0.2884  0.8599 -0.2428
  336MOL0     C46256   6.215  11.193   0.675 -0.2082 -0.3443 -0.6469
  336MOL0     C46257   6.307  11.306   0.661 -0.5506 -0.5204 -0.3261
  336MOL0     C46258   6.277  11.424   0.758  0.2875  1.0363 -0.4596
  336MOL0     C46259   6.418  11.302   0.572 -0.8764  0.4838 -0.7545
  336MOL0     C46260   6.518  11.412   0.557  0.2089 -0.1357  0.8194
  336MOL0     O46261   6.538  11.438   0.418  0.0156  0.3097 -0.3474
  336MOL0     C46262   6.629  11.533   0.369 -0.7410 -0.7026 -0.7377
  336MOL0     C46263   6.652  11.523   0.235 -0.2250  0.6943 -0.2102
  336MOL0     C46264   6.742  11.606   0.175 -0.1272 -0.1347 -0.0071
  336MOL0     C46265   6.805  11.711   0.241 -0.1161 -0.2934 -0.1046
  336MOL0     O46266   6.874  11.800   0.162 -0.0150 -0.4556 -0.7493
  336MOL0     C46267   6.894  11.937   0.199 -0.2898  0.6608  0.0692
  336MOL0     C46268   6.984  12.002   0.105  0.8465 -0.2518  0.0824
  336MOL0     C46269   6.998  12.155   0.127 -0.0881  0.9305  0.2149
  336MOL0     C46270   7.048  12.227   0.000  0.1652  0.6949  0.5900
  336MOL0     C46271   7.057  12.372   0.014  0.1758  0.4789  0.0066
  336MOL0     C46272   7.063  12.431  -0.120  0.3249  0.1577 -0.4027
  336MOL0     C46273   7.082  12.586  -0.100 -0.3928  0.2242 -0.0338
  336MOL0     C46274   7.132  12.652  -0.229 -0.1986  0.6747  0.0159
  336MOL0    Cl46275   7.293  12.595  -0.282  0.0199 -0.7333  0.3999
  336MOL0     C46276   6.768  11.727   0.375 -1.3380  0.5877 -0.0431
  336MOL0     C46277   6.682  11.636   0.438 -0.4984 -1.1965 -0.0585
  336MOL0     O46278   6.582  11.462   0.652  0.7397  0.4328 -0.3650
  336MOL0     C46279   6.429  11.190   0.494  0.5681 -0.9625  1.2832
  336MOL0     C46280   6.349  11.076   0.521 -0.3453  0.1181 -0.2029
  336MOL0     N46281   6.057  10.955   1.311 -0.0486  0.3041  0.2944
  336MOL0     N46282   5.991  10.905   1.409  0.2871 -0.3698  0.3063
  336MOL0     C46283   4.890  10.763   1.602  0.0703  0.2206  0.2232
  336MOL0     C46284   4.821  10.877   1.630  0.0094 -0.0325 -0.1697
  336MOL0     C46285   4.708  11.309   1.554  0.0323 -0.4759 -0.3657
  336MOL0     C46286   4.645  11.330   1.674 -0.5519  0.1172 -0.1621
  336MOL0     C46287   4.570  11.444   1.705 -0.7043 -0.3619  0.1924
  336MOL0     C46288   4.571  11.555   1.616 -0.2639 -0.4871  0.0384
  336MOL0     O46289   4.501  11.676   1.622  0.5183 -0.4104  0.4955
  336MOL0     C46290   4.489  11.725   1.754 -0.2820  0.1312  0.7288
  336MOL0     C46291   4.616  11.755   1.829  0.7309  1.4349 -0.1998
  336MOL0     C46292   4.670  11.897   1.788  0.7040 -0.3937 -0.3543
  336MOL0     C46293   4.784  11.967   1.874  0.9375 -0.7932 -0.9000
  336MOL0     C46294   4.895  11.885   1.911 -0.6893 -0.4302  0.0714
  336MOL0     C46295   4.989  11.812   1.936 -0.4050  0.9928 -0.2179
  336MOL0     C46296   4.629  11.528   1.487  0.1038 -0.0078  0.0113
  336MOL0     C46297   4.689  11.401   1.454 -0.3608  0.1153  0.1435
  336MOL0     C46298   4.733  11.391   1.308  0.1483  0.6053  1.2059
  336MOL0     H46299   4.828  11.019   1.326  4.1993  3.0337  1.0580
  336MOL0     H46300   4.930  10.806   1.273 -0.7300  0.6864 -0.5528
  336MOL0     H46301   4.979  10.497   1.585 -0.9050  2.3841  0.7711
  336MOL0     H46302   5.119  10.596   1.591 -0.1641 -0.0690  0.1852
  336MOL0     H46303   5.147  10.349   1.549  3.2975 -0.3813 -0.5847
  336MOL0     H46304   5.047  10.353   1.419 -0.8384  1.2425  3.1574
  336MOL0     H46305   5.316  10.341   1.361  3.6150  0.9229 -0.6284
  336MOL0     H46306   5.236  10.493   1.298  1.4679 -2.3628 -0.5725
  336MOL0     H46307   5.321  10.586   1.541  1.1499  0.2860  0.4152
  336MOL0     H46308   5.408  10.432   1.540  1.4462 -1.2214 -3.1391
  336MOL0     H46309   5.448  10.589   1.293 -0.7401  0.6388  1.2049
  336MOL0     H46310   5.553  10.464   1.374  1.7979 -0.3093  1.3112
  336MOL0     H46311   5.509  10.751   1.475 -0.9491 -0.8627  1.1502
  336MOL0     H46312   5.604  10.614   1.545 -4.7165 -0.7471  1.5781
  336MOL0     H46313   5.628  10.741   1.273  1.4497 -1.7049 -2.1438
  336MOL0     H46314   5.729  10.612   1.298 -1.4237 -0.9011 -0.9885
  336MOL0     H46315   5.725  10.868   1.486 -2.3066  0.0412 -1.8601
  336MOL0     H46316   5.823  10.725   1.506  0.9883 -0.3176 -0.2582
  336MOL0     H46317   5.771  10.891   1.164  0.5984 -1.1287 -1.4200
  336MOL0     H46318   6.129  11.042   1.096  2.0120 -0.8044 -2.9101
  336MOL0     H46319   5.980  11.026   1.007 -1.9969 -0.9446  1.5128
  336MOL0     H46320   6.191  10.797   1.036 -0.8402  0.3830  0.8000
  336MOL0     H46321   6.038  10.778   0.952 -0.2616  0.0302  1.3058
  336MOL0     H46322   6.247  10.976   0.885 -0.5818  0.7484 -0.7733
  336MOL0     H46323   6.253  10.812   0.824  1.3656  0.9949  0.4650
  336MOL0     H46324   6.022  10.858   0.703  1.2868 -1.0098 -0.5852
  336MOL0     H46325   6.030  11.018   0.769  0.7823  2.2043 -2.5573
  336MOL0     H46326   6.134  11.206   0.746  0.1437 -3.0987  0.3686
  336MOL0     H46327   6.187  11.477   0.727 -0.2161  0.8975  0.7073
  336MOL0     H46328   6.367  11.486   0.763  2.0386 -1.4653  2.4023
  336MOL0     H46329   6.259  11.381   0.857  0.3256 -1.1929 -1.3701
  336MOL0     H46330   6.603  11.437   0.191  3.6811 -1.4468 -0.8985
  336MOL0     H46331   6.743  11.583   0.069 -2.5114  0.6455 -0.2768
  336MOL0     H46332   6.798  11.989   0.199  1.0433  3.4493  2.5717
  336MOL0     H46333   6.948  11.944   0.294  2.4118 -4.1638 -0.8122
  336MOL0     H46334   7.088  11.969   0.106  0.4469 -1.6836  2.2775
  336MOL0     H46335   6.946  11.968   0.008 -0.2594 -0.1241  0.4563
  336MOL0     H46336   7.081  12.165   0.197  1.8115 -1.2658 -1.5809
  336MOL0     H46337   6.907  12.198   0.168 -1.0280 -1.4746  0.8358
  336MOL0     H46338   6.977  12.215  -0.082  0.5745 -1.9096  0.5485
  336MOL0     H46339   7.141  12.184  -0.038 -0.6072  2.2242 -3.5698
  336MOL0     H46340   6.964  12.400   0.065 -2.4395 -3.1704 -2.2241
  336MOL0     H46341   7.144  12.404   0.071  1.3084 -0.7929 -0.9431
  336MOL0     H46342   6.975  12.410  -0.181  0.8427  0.8510 -1.4299
  336MOL0     H46343   7.153  12.386  -0.162  0.4090 -0.0076 -0.0447
  336MOL0     H46344   7.157  12.606  -0.023  0.0822  2.4579 -1.0052
  336MOL0     H46345   6.988  12.625  -0.061  1.0566 -1.0072  5.6012
  336MOL0     H46346   7.134  12.762  -0.226 -1.4695  0.7000  0.5385
  336MOL0     H46347   7.062  12.626  -0.309  0.5959  0.5291 -0.6543
  336MOL0     H46348   6.804  11.813   0.430 -0.7942 -0.1358  0.7764
  336MOL0     H46349   6.645  11.655   0.539 -4.2174 -0.4671 -1.4126
  336MOL0     H46350   6.508  11.173   0.422 -1.8621 -3.7619 -0.9583
  336MOL0     H46351   6.371  10.987   0.463  0.3038  0.9574 -1.2882
  336MOL0     H46352   4.916  10.699   1.685 -0.1723  0.6328  0.6242
  336MOL0     H46353   4.779  10.898   1.728  0.9082 -0.0652  0.2346
  336MOL0     H46354   4.650  11.251   1.749  0.6361  1.1061  0.8475
  336MOL0     H46355   4.525  11.454   1.804  0.3515 -1.2618  0.7899
  336MOL0     H46356   4.439  11.820   1.732  1.1808  1.0879  1.3892
  336MOL0     H46357   4.418  11.664   1.810  0.4963 -0.6601  0.8723
  336MOL0     H46358   4.695  11.681   1.814 -0.8346 -0.0019 -1.7463
  336MOL0     H46359   4.590  11.758   1.935 -1.0880  1.8614 -0.6235
  336MOL0     H46360   4.721  11.884   1.693  0.8726 -3.0776  0.0204
  336MOL0     H46361   4.588  11.967   1.770  3.1875  2.2337 -2.3902
  336MOL0     H46362   4.740  12.013   1.963  0.7129  0.0454 -1.4257
  336MOL0     H46363   4.829  12.046   1.813  2.8582  0.2986  1.7071
  336MOL0     H46364   5.068  11.743   1.956  0.4293  1.3646 -2.0028
  336MOL0     H46365   4.631  11.601   1.407  2.3128  0.9455  0.8359
  336MOL0     H46366   4.669  11.463   1.256 -0.6692  0.6113  2.1906
  336MOL0     H46367   4.836  11.426   1.296  1.0026 -1.1019  3.0320
  336MOL0     H46368   4.723  11.290   1.266 -0.5473  1.0419  0.2630
  337MOL0     O46369   6.741   8.495   0.228  1.3987 -0.0888  0.2703
  337MOL0     C46370   6.625   8.542   0.199 -0.3794  0.4803  0.1961
  337MOL0     O46371   6.514   8.522   0.277  0.1215  0.2218  0.0183
  337MOL0     C46372   6.517   8.427   0.383 -0.1157  0.2650  0.3799
  337MOL0     C46373   6.576   8.452   0.500  0.3555  0.1751 -0.7300
  337MOL0     C46374   6.589   8.345   0.598 -0.5893 -0.1009 -0.5984
  337MOL0     C46375   6.509   8.236   0.587  1.6106 -0.9415  0.1654
  337MOL0     O46376   6.494   8.138   0.683  0.7344  0.9715  0.6239
  337MOL0     C46377   6.480   8.176   0.825  0.1116  1.7048 -0.3737
  337MOL0     C46378   6.403   8.062   0.895 -1.3960  0.0791  0.1967
  337MOL0     C46379   6.295   7.993   0.798 -1.3736  0.6792 -0.4183
  337MOL0     C46380   6.227   7.878   0.874  0.2096  0.3944  0.9707
  337MOL0     C46381   6.082   7.847   0.828  0.5927  0.4727  0.3306
  337MOL0     C46382   6.006   7.779   0.943  0.4258  0.1507  0.6344
  337MOL0     C46383   6.062   7.658   1.020  0.6243 -1.4705 -0.2844
  337MOL0     C46384   6.115   7.713   1.161  0.2192  0.9372 -0.0912
  337MOL0     N46385   6.164   7.595   1.239 -0.7862 -0.4592 -0.0943
  337MOL0     C46386   6.220   7.608   1.366 -0.6582  0.3926  0.2518
  337MOL0     C46387   6.279   7.492   1.394 -0.5108 -0.1681 -0.9151
  337MOL0     C46388   6.349   7.468   1.519  0.5095  0.7155 -0.5301
  337MOL0     C46389   6.485   7.415   1.500 -0.2403 -0.7102  0.2927
  337MOL0     C46390   6.567   7.453   1.627 -0.0155 -0.3886  0.4376
  337MOL0     C46391   6.689   7.371   1.635 -0.4543  0.0766 -0.3598
  337MOL0     O46392   6.797   7.428   1.554  0.5345 -0.4407  0.4129
  337MOL0     C46393   6.921   7.378   1.562 -0.4437  0.4797 -0.0678
  337MOL0     C46394   6.955   7.273   1.644 -0.7241  0.0127 -1.2236
  337MOL0     C46395   7.080   7.217   1.651  0.2596  0.5096  0.2464
  337MOL0     C46396   7.099   7.114   1.761 -0.6423  0.0597  0.4900
  337MOL0     C46397   7.182   7.273   1.576 -0.2752 -0.3115  0.2369
  337MOL0     C46398   7.323   7.232   1.593 -0.4106  1.0091  0.2363
  337MOL0     O46399   7.412   7.316   1.535  0.2375  0.4104 -0.4438
  337MOL0     C46400   7.535   7.266   1.501  0.0981  0.6932 -0.8945
  337MOL0     C46401   7.554   7.158   1.416  0.4259 -0.3107  0.1617
  337MOL0     C46402   7.684   7.122   1.372  0.4582 -0.5403 -0.2391
  337MOL0     C46403   7.800   7.171   1.421  0.7467  0.5969 -1.0354
  337MOL0     O46404   7.913   7.123   1.360 -0.4060 -0.7383  0.1175
  337MOL0     C46405   8.043   7.190   1.393 -0.2156  0.0466  0.0564
  337MOL0     C46406   8.154   7.108   1.324 -0.2578 -0.9033 -0.8174
  337MOL0     C46407   8.140   7.146   1.173  0.5310 -0.3444 -0.5906
  337MOL0     C46408   8.280   7.114   1.116  0.1902  0.2423  0.2362
  337MOL0     C46409   8.300   7.151   0.967 -0.1401  1.4427 -0.1387
  337MOL0     C46410   8.439   7.098   0.914  0.0116  0.3088 -0.1012
  337MOL0     C46411   8.527   7.039   1.025 -0.2877  0.6737 -0.1918
  337MOL0     C46412   8.648   6.977   0.963 -0.0152  0.1877 -0.0071
  337MOL0    Cl46413   8.612   6.834   0.877  0.1656 -0.1701  0.1284
  337MOL0     C46414   7.778   7.267   1.519 -0.2560 -0.6222 -0.4226
  337MOL0     C46415   7.652   7.323   1.553  0.3776  0.1650  0.6087
  337MOL0     O46416   7.354   7.122   1.632 -0.4904  1.2313  0.5092
  337MOL0     C46417   7.153   7.384   1.495  0.6425  0.1594 -0.1897
  337MOL0     C46418   7.024   7.444   1.499 -0.0661 -0.3889 -0.4152
  337MOL0     N46419   6.246   7.400   1.295  0.2907  0.2332 -0.3084
  337MOL0     N46420   6.172   7.465   1.207  0.3888 -0.9751 -0.2777
  337MOL0     C46421   6.448   8.212   0.466  0.1985 -0.1076 -0.0356
  337MOL0     C46422   6.455   8.307   0.358  0.1608  0.2088  0.3933
  337MOL0     C46423   6.607   8.619   0.070  0.4342 -0.1415 -0.4378
  337MOL0     C46424   6.497   8.716   0.066 -0.0738  0.6533  0.2803
  337MOL0     C46425   6.482   8.803  -0.047  0.0175 -0.0457 -0.2914
  337MOL0     C46426   6.575   8.800  -0.151  1.2640  0.1675 -0.3837
  337MOL0     O46427   6.548   8.905  -0.241 -0.4147  0.7845 -0.5000
  337MOL0     C46428   6.651   8.960  -0.322  0.0332  0.4784 -0.1237
  337MOL0     C46429   6.607   9.102  -0.368  0.5051 -0.2850  0.2850
  337MOL0     C46430   6.555   9.189  -0.254 -0.0994 -0.1686  0.3702
  337MOL0     C46431   6.658   9.249  -0.157  0.4056 -0.2414 -0.0058
  337MOL0     C46432   6.591   9.323  -0.045 -0.0273 -0.1104 -0.4509
  337MOL0     C46433   6.528   9.393   0.035 -0.0237 -0.3063  0.0243
  337MOL0     C46434   6.678   8.708  -0.143 -0.5662  0.0214  0.7356
  337MOL0     C46435   6.698   8.616  -0.038  0.0550 -0.0521 -0.7491
  337MOL0     C46436   6.812   8.517  -0.044  0.4117  0.3199  0.0721
  337MOL0     H46437   6.630   8.545   0.516 -0.7315  0.7424 -0.2308
  337MOL0     H46438   6.643   8.362   0.691 -3.4664 -1.0173  1.4033
  337MOL0     H46439   6.428   8.271   0.837 -1.4351  0.9698 -1.0753
  337MOL0     H46440   6.580   8.173   0.871  0.1342 -0.2990 -0.4762
  337MOL0     H46441   6.471   7.983   0.928 -1.3588  0.9991  2.4666
  337MOL0     H46442   6.353   8.092   0.987 -0.3955  0.6463  0.5680
  337MOL0     H46443   6.223   8.068   0.765  0.2103  2.6481  0.3818
  337MOL0     H46444   6.342   7.958   0.705 -2.6770  3.8040 -2.4097
  337MOL0     H46445   6.287   7.787   0.886 -1.0986 -0.6233  0.0447
  337MOL0     H46446   6.205   7.919   0.973 -2.0662  0.2867  0.5531
  337MOL0     H46447   6.073   7.785   0.738 -0.5639  0.5914  0.3503
  337MOL0     H46448   6.018   7.930   0.796 -0.7264 -1.0267 -1.1009
  337MOL0     H46449   5.977   7.852   1.019  1.5540  0.5810  0.6680
  337MOL0     H46450   5.907   7.750   0.905  1.1292 -1.6665  0.0785
  337MOL0     H46451   6.140   7.611   0.960  1.6735 -1.9150  1.3591
  337MOL0     H46452   5.976   7.591   1.024 -1.1096  0.5213 -1.8820
  337MOL0     H46453   6.197   7.785   1.148  1.1630 -0.1914 -0.5135
  337MOL0     H46454   6.051   7.762   1.236  2.7757  0.4232  2.6246
  337MOL0     H46455   6.225   7.701   1.422 -0.3128  2.5043 -3.0090
  337MOL0     H46456   6.289   7.399   1.579  0.2202  1.6604  0.2942
  337MOL0     H46457   6.338   7.561   1.576  0.0591  1.4792 -1.8258
  337MOL0     H46458   6.485   7.307   1.482  0.3284 -0.5532 -0.7226
  337MOL0     H46459   6.524   7.460   1.408  0.1950 -1.1368  0.2649
  337MOL0     H46460   6.585   7.560   1.612 -3.4192  0.4810  1.6655
  337MOL0     H46461   6.501   7.441   1.714  1.9742 -0.6902  1.9818
  337MOL0     H46462   6.705   7.366   1.743 -1.6339  2.7123  0.0055
  337MOL0     H46463   6.672   7.274   1.587 -0.8868  0.9485 -2.0682
  337MOL0     H46464   6.877   7.236   1.710 -0.2405 -0.5541 -0.9656
  337MOL0     H46465   7.010   7.112   1.824  0.1055 -2.0728  1.5759
  337MOL0     H46466   7.174   7.148   1.833  0.5932 -0.4452 -0.5256
  337MOL0     H46467   7.126   7.015   1.723 -1.5448  0.0314 -0.1009
  337MOL0     H46468   7.469   7.102   1.379 -0.7963  0.1528  2.1260
  337MOL0     H46469   7.688   7.050   1.291 -0.4513 -0.3662 -0.4561
  337MOL0     H46470   8.036   7.292   1.354  0.8188 -0.8849 -2.8480
  337MOL0     H46471   8.060   7.201   1.500  1.7140  0.6414 -0.2530
  337MOL0     H46472   8.246   7.154   1.362 -1.2652 -0.1136  0.7544
  337MOL0     H46473   8.148   6.999   1.338 -0.5716 -0.8000 -0.1116
  337MOL0     H46474   8.122   7.253   1.158 -0.7560 -0.6797 -1.5536
  337MOL0     H46475   8.059   7.082   1.136 -1.9136  2.9051 -1.3811
  337MOL0     H46476   8.295   7.007   1.126 -1.4540  0.1486  2.1450
  337MOL0     H46477   8.358   7.150   1.184 -1.0333 -3.7380  4.1719
  337MOL0     H46478   8.221   7.127   0.895  3.3943  3.3777 -5.1965
  337MOL0     H46479   8.311   7.260   0.958  2.1701  1.2567 -0.1795
  337MOL0     H46480   8.497   7.178   0.868  1.3055 -0.8295 -0.5080
  337MOL0     H46481   8.415   7.024   0.838 -1.6446 -0.8479  1.4639
  337MOL0     H46482   8.480   6.950   1.069  1.4838 -0.5632 -0.6764
  337MOL0     H46483   8.552   7.110   1.104 -2.2072 -0.9907  2.0828
  337MOL0     H46484   8.712   6.944   1.045  2.6533  1.7482 -1.3333
  337MOL0     H46485   8.702   7.036   0.888 -1.3138  0.4584 -0.7571
  337MOL0     H46486   7.864   7.308   1.572 -2.6589  3.3887  0.8899
  337MOL0     H46487   7.638   7.399   1.629  0.4422  0.5477  0.2432
  337MOL0     H46488   7.237   7.427   1.443  2.9856 -2.6391  0.9931
  337MOL0     H46489   7.004   7.537   1.447 -0.6285 -0.3685 -0.1680
  337MOL0     H46490   6.408   8.112   0.452 -1.3861  0.1706  2.0212
  337MOL0     H46491   6.398   8.296   0.267  0.2430  1.3045  0.1993
  337MOL0     H46492   6.413   8.719   0.135 -0.2455 -1.5956  0.2605
  337MOL0     H46493   6.392   8.863  -0.049 -0.8427 -1.1933 -4.4370
  337MOL0     H46494   6.741   8.978  -0.264  1.3304  4.2608 -2.8462
  337MOL0     H46495   6.678   8.900  -0.409  1.2693 -0.9872  1.2234
  337MOL0     H46496   6.512   9.091  -0.421 -0.8572 -1.3629  2.7994
  337MOL0     H46497   6.674   9.166  -0.427 -2.1949  0.4058 -2.2415
  337MOL0     H46498   6.506   9.276  -0.298 -0.4272 -2.0218 -3.3409
  337MOL0     H46499   6.482   9.134  -0.195 -0.6437 -0.5359 -0.6291
  337MOL0     H46500   6.708   9.332  -0.206 -2.0866  1.3640  0.0126
  337MOL0     H46501   6.723   9.169  -0.119 -0.3107 -1.2379 -0.7984
  337MOL0     H46502   6.471   9.452   0.104  1.3064 -0.7300  1.5384
  337MOL0     H46503   6.749   8.709  -0.226 -1.6891  1.2553 -0.2605
  337MOL0     H46504   6.770   8.416  -0.034 -0.8138  0.5914 -1.7800
  337MOL0     H46505   6.858   8.527  -0.143 -2.7759 -1.7592 -1.8443
  337MOL0     H46506   6.887   8.518   0.035  1.3798 -1.9113 -0.7415
  338MOL0     O46507   6.429   6.195   8.144  0.1472  0.6547 -0.4159
  338MOL0     C46508   6.536   6.222   8.100 -1.0493 -0.4497  0.7858
  338MOL0     O46509   6.558   6.309   7.999  0.0619 -0.3221  0.4958
  338MOL0     C46510   6.455   6.377   7.937  0.1083 -0.6965 -0.1950
  338MOL0     C46511   6.390   6.493   7.988 -1.2896 -0.5327  0.1683
  338MOL0     C46512   6.286   6.550   7.919  0.4867  0.1237 -0.5234
  338MOL0     C46513   6.224   6.486   7.810 -0.1738 -0.3332 -0.0351
  338MOL0     O46514   6.120   6.556   7.754  0.1896  0.2885 -0.1613
  338MOL0     C46515   6.020   6.478   7.683 -0.7518 -0.3433  0.9534
  338MOL0     C46516   5.896   6.566   7.667  0.2245 -1.0608 -0.3052
  338MOL0     C46517   5.828   6.593   7.809  0.3307  0.6940  0.2096
  338MOL0     C46518   5.692   6.660   7.787 -0.3664 -0.0395 -0.8583
  338MOL0     C46519   5.616   6.656   7.920  0.5241 -0.3751 -0.2155
  338MOL0     C46520   5.478   6.722   7.893 -0.0840  0.0844 -0.4044
  338MOL0     C46521   5.430   6.776   8.035 -0.2371  0.1641  0.2765
  338MOL0     C46522   5.389   6.662   8.124 -0.1829  0.3990  0.3800
  338MOL0     N46523   5.352   6.708   8.268  1.2610  0.2040 -0.2656
  338MOL0     C46524   5.425   6.708   8.384 -0.6763 -0.1479  0.2536
  338MOL0     C46525   5.335   6.715   8.486  0.0380 -0.8446  0.9116
  338MOL0     C46526   5.373   6.710   8.627 -0.2000 -0.1880  0.2466
  338MOL0     C46527   5.425   6.841   8.688 -0.5381 -1.1717 -0.4174
  338MOL0     C46528   5.410   6.842   8.844 -0.7050  0.6496  0.5200
  338MOL0     C46529   5.498   6.944   8.904 -1.3503  0.3628 -0.4624
  338MOL0     O46530   5.626   6.871   8.924 -0.0688  1.2380 -0.4238
  338MOL0     C46531   5.725   6.923   8.993  0.1053 -0.2792  0.5223
  338MOL0     C46532   5.752   7.057   9.010 -0.1017  0.6866  0.1518
  338MOL0     C46533   5.846   7.098   9.103 -0.1373  0.0132  0.7493
  338MOL0     C46534   5.880   7.244   9.098 -0.2920  0.7482  0.4586
  338MOL0     C46535   5.934   7.008   9.169 -0.0512 -0.5552 -0.0462
  338MOL0     C46536   6.039   7.043   9.265 -0.1176  0.3022 -0.0310
  338MOL0     O46537   6.116   6.938   9.307  0.0874 -0.5371 -0.2525
  338MOL0     C46538   6.239   6.943   9.370  0.6113  0.1667  0.1065
  338MOL0     C46539   6.312   6.822   9.367  0.0136  0.1056 -0.2384
  338MOL0     C46540   6.444   6.808   9.414 -0.3081 -0.5207 -0.1581
  338MOL0     C46541   6.495   6.926   9.469  0.2269 -0.7337 -0.6113
  338MOL0     O46542   6.616   6.929   9.521  0.5560 -1.3400 -0.5572
  338MOL0     C46543   6.725   6.922   9.424 -0.3596 -0.5439  0.0656
  338MOL0     C46544   6.846   7.019   9.460  0.8344 -0.1868  0.0492
  338MOL0     C46545   6.874   7.017   9.605  0.1499  0.7944 -0.0566
  338MOL0     C46546   6.908   6.877   9.645  0.0238 -0.4496  0.3809
  338MOL0     C46547   6.956   6.879   9.792  0.1623 -0.1006 -0.1102
  338MOL0     C46548   7.017   6.742   9.838 -0.0265 -0.7345  0.5219
  338MOL0     C46549   7.011   6.726   9.985 -0.4036  0.5655 -0.7631
  338MOL0     C46550   7.078   6.835  10.068  0.9702 -0.2919  0.8081
  338MOL0    Cl46551   7.240   6.780  10.112  0.0727  0.3781  0.0492
  338MOL0     C46552   6.424   7.045   9.473 -0.0179  0.3435 -0.2355
  338MOL0     C46553   6.290   7.049   9.450 -0.4558 -0.3840 -0.3879
  338MOL0     O46554   6.057   7.158   9.295  1.3198 -0.3475 -0.5151
  338MOL0     C46555   5.899   6.878   9.151  0.0317 -0.1016 -0.7110
  338MOL0     C46556   5.794   6.832   9.073 -1.0014 -0.7777  0.6772
  338MOL0     N46557   5.210   6.728   8.438  0.2208 -0.4214  1.0838
  338MOL0     N46558   5.219   6.726   8.305  1.1051 -0.3036  0.4040
  338MOL0     C46559   6.285   6.370   7.761  0.1037 -0.0178 -0.5247
  338MOL0     C46560   6.403   6.325   7.820 -0.7477  0.1038  0.0585
  338MOL0     C46561   6.664   6.190   8.183 -0.2739 -0.0806  0.2633
  338MOL0     C46562   6.793   6.239   8.141  2.0846  0.2963 -0.3794
  338MOL0     C46563   6.910   6.213   8.209 -0.3572 -0.2136 -0.0948
  338MOL0     C46564   6.909   6.127   8.314  0.1544 -0.1352  0.0706
  338MOL0     O46565   7.033   6.085   8.350  0.4801  0.0780  0.0140
  338MOL0     C46566   7.027   5.958   8.413  0.4669  0.2530 -0.5910
  338MOL0     C46567   7.147   5.897   8.472  0.1495 -0.1167 -0.2600
  338MOL0     C46568   7.225   5.990   8.582 -0.2055  0.3016 -0.0648
  338MOL0     C46569   7.379   5.957   8.569  0.6182 -0.0843 -0.3714
  338MOL0     C46570   7.463   6.023   8.668  0.6536 -0.8495  0.8269
  338MOL0     C46571   7.533   6.077   8.741  0.5750  1.7442  0.8573
  338MOL0     C46572   6.784   6.066   8.357  0.3881  0.6003  0.0229
  338MOL0     C46573   6.670   6.106   8.301 -0.5418 -0.6574  0.2064
  338MOL0     C46574   6.553   6.036   8.357 -0.8827 -0.5445 -0.6205
  338MOL0     H46575   6.422   6.541   8.080 -2.1959 -0.3425  0.3882
  338MOL0     H46576   6.239   6.638   7.961 -1.6983 -0.8389 -0.8037
  338MOL0     H46577   5.992   6.383   7.730 -5.9239 -0.1410 -1.0404
  338MOL0     H46578   6.043   6.452   7.579 -2.0203 -0.0436  0.5812
  338MOL0     H46579   5.918   6.656   7.608 -2.2357  0.4116  0.8455
  338MOL0     H46580   5.829   6.506   7.605  3.1763 -3.3240 -1.5065
  338MOL0     H46581   5.812   6.502   7.867  0.2301 -0.8473 -2.1409
  338MOL0     H46582   5.887   6.668   7.863 -0.6066  0.7648  1.1679
  338MOL0     H46583   5.726   6.759   7.754  1.6246 -0.4530 -0.1971
  338MOL0     H46584   5.633   6.616   7.706 -0.6588  3.3556 -2.6842
  338MOL0     H46585   5.679   6.712   7.988  0.4429  2.7550 -2.4974
  338MOL0     H46586   5.596   6.555   7.957  0.6347 -0.3293 -0.0331
  338MOL0     H46587   5.490   6.804   7.822  0.8005  2.3411  2.1829
  338MOL0     H46588   5.402   6.654   7.853 -0.5230 -0.6192  1.4889
  338MOL0     H46589   5.353   6.854   8.027 -1.1233 -0.8629 -2.5322
  338MOL0     H46590   5.518   6.826   8.077 -0.5856 -1.5003  3.2629
  338MOL0     H46591   5.315   6.605   8.069 -0.7679  0.2991  1.2563
  338MOL0     H46592   5.473   6.594   8.139 -0.5279  0.4813  3.2357
  338MOL0     H46593   5.532   6.688   8.387 -0.2734  0.1429 -4.4765
  338MOL0     H46594   5.453   6.636   8.641  0.6719  0.1506 -2.4408
  338MOL0     H46595   5.277   6.678   8.670 -0.8544  0.1629 -0.9244
  338MOL0     H46596   5.531   6.852   8.664 -0.8021 -0.6079 -1.3772
  338MOL0     H46597   5.368   6.917   8.634 -0.2070 -1.2486 -0.8843
  338MOL0     H46598   5.306   6.849   8.874 -1.6795 -0.4294 -2.2605
  338MOL0     H46599   5.455   6.752   8.888 -0.5944  0.7901  0.6977
  338MOL0     H46600   5.505   7.028   8.834 -1.1390  0.6214 -0.1301
  338MOL0     H46601   5.455   6.983   8.996  1.0280 -0.4823  1.1071
  338MOL0     H46602   5.706   7.137   8.954  4.2813  3.3104 -0.1825
  338MOL0     H46603   5.902   7.295   9.193  1.0576  1.1840 -0.0630
  338MOL0     H46604   5.796   7.290   9.045 -3.4828 -1.3683  3.2577
  338MOL0     H46605   5.967   7.260   9.034 -0.4430 -1.1527 -0.2920
  338MOL0     H46606   6.266   6.748   9.302 -1.8990  0.5126  0.5955
  338MOL0     H46607   6.507   6.720   9.398  2.9959  0.8707  3.5078
  338MOL0     H46608   6.769   6.822   9.419  2.6050  0.5768  1.2480
  338MOL0     H46609   6.694   6.952   9.323 -0.0529  2.6760  0.8224
  338MOL0     H46610   6.928   6.987   9.395  0.0852 -1.7636 -0.1703
  338MOL0     H46611   6.825   7.122   9.427  0.0097 -0.8294 -1.5578
  338MOL0     H46612   6.789   7.062   9.657 -0.7809  2.1857 -2.6388
  338MOL0     H46613   6.960   7.084   9.612  0.7431  0.3538 -2.3412
  338MOL0     H46614   6.988   6.838   9.581  0.1809 -1.2031  1.0167
  338MOL0     H46615   6.822   6.811   9.644 -0.1239 -0.4438  3.3456
  338MOL0     H46616   7.034   6.955   9.801  1.4933 -1.5725  1.3810
  338MOL0     H46617   6.876   6.913   9.858  2.4208  2.1737  1.6941
  338MOL0     H46618   7.119   6.739   9.799 -0.5390 -0.4325 -0.9085
  338MOL0     H46619   6.961   6.658   9.795 -2.1593 -0.5670  2.7305
  338MOL0     H46620   7.067   6.639  10.019  1.9066  2.6683  1.2285
  338MOL0     H46621   6.909   6.707  10.018  0.4936 -1.2681  1.2055
  338MOL0     H46622   7.011   6.853  10.153 -2.0629 -0.0849 -1.4616
  338MOL0     H46623   7.086   6.932  10.018 -4.5402 -0.1852 -0.4212
  338MOL0     H46624   6.459   7.136   9.522 -0.7518  0.2818  0.4362
  338MOL0     H46625   6.229   7.139   9.462 -0.0419  0.9807 -5.8927
  338MOL0     H46626   5.958   6.804   9.204 -1.0343 -0.9214 -0.6568
  338MOL0     H46627   5.770   6.726   9.080  1.0395 -1.3998 -0.8989
  338MOL0     H46628   6.245   6.326   7.670 -0.4951  0.1460 -0.3374
  338MOL0     H46629   6.458   6.247   7.768  3.7311 -0.0466  4.3111
  338MOL0     H46630   6.798   6.308   8.058 -3.7194  2.7310  0.8489
  338MOL0     H46631   6.999   6.256   8.164 -1.3886 -1.0062 -3.1554
  338MOL0     H46632   6.959   5.957   8.498  0.5689  0.7196 -0.5035
  338MOL0     H46633   6.982   5.887   8.343 -0.7560 -3.0538  3.1337
  338MOL0     H46634   7.212   5.855   8.395  0.9434 -3.5200  2.0401
  338MOL0     H46635   7.134   5.804   8.527  2.0838  0.5566  1.4875
  338MOL0     H46636   7.220   6.097   8.560  0.0281  0.0162 -1.5925
  338MOL0     H46637   7.199   5.961   8.684 -1.1331 -0.5668 -0.5277
  338MOL0     H46638   7.404   5.990   8.468 -1.6484  0.4909 -0.7898
  338MOL0     H46639   7.404   5.851   8.571  0.9129 -0.0104 -0.0534
  338MOL0     H46640   7.609   6.126   8.799  3.1974 -0.6464 -0.2944
  338MOL0     H46641   6.773   5.985   8.429 -0.7816  0.0803 -0.7172
  338MOL0     H46642   6.520   5.959   8.287  0.2423 -3.2376  1.6106
  338MOL0     H46643   6.573   5.986   8.452  1.9251  1.8699  0.2108
  338MOL0     H46644   6.479   6.116   8.358 -0.7716 -0.4476 -0.1678
  339MOL0     O46645   5.532   9.264  10.532  0.8333  0.3518  0.3298
  339MOL0     C46646   5.589   9.304  10.435  0.5130  0.2211  0.1168
  339MOL0     O46647   5.604   9.230  10.322  0.1293  0.1363  0.5085
  339MOL0     C46648   5.520   9.125  10.293  1.2077  0.3599  0.0337
  339MOL0     C46649   5.567   8.995  10.281 -0.1086  1.0848 -0.7328
  339MOL0     C46650   5.479   8.886  10.243  0.2725 -0.0840  0.1246
  339MOL0     C46651   5.344   8.905  10.237  0.1962  0.1275 -0.0754
  339MOL0     O46652   5.251   8.799  10.210 -0.4974 -0.8071  0.2259
  339MOL0     C46653   5.153   8.783  10.311  0.8184  0.0612  0.0907
  339MOL0     C46654   5.123   8.639  10.362 -0.6651 -0.3425 -0.2652
  339MOL0     C46655   5.245   8.545  10.368 -0.0247  0.4602 -0.4767
  339MOL0     C46656   5.214   8.410  10.293  0.1972  1.3803 -0.0843
  339MOL0     C46657   5.344   8.324  10.313 -0.7509  0.5276  0.0708
  339MOL0     C46658   5.366   8.189  10.234  0.0937 -0.2715  0.1441
  339MOL0     C46659   5.496   8.112  10.262  0.4710 -0.1674  0.5821
  339MOL0     C46660   5.635   8.192  10.247  0.4758 -0.9135  0.0193
  339MOL0     N46661   5.652   8.251  10.116  0.9747 -0.1973 -0.6568
  339MOL0     C46662   5.596   8.368  10.064 -0.5044 -0.3776 -0.0084
  339MOL0     C46663   5.648   8.383   9.943  0.0837 -0.1994 -0.6172
  339MOL0     C46664   5.613   8.495   9.852  1.2549 -0.5075 -0.3412
  339MOL0     C46665   5.474   8.469   9.790  0.1285 -0.1580 -0.1756
  339MOL0     C46666   5.366   8.577   9.827 -0.2982 -0.4125  0.9534
  339MOL0     C46667   5.233   8.543   9.766 -0.6247 -0.2885  0.9675
  339MOL0     O46668   5.237   8.571   9.624 -0.1328  0.2760  0.1299
  339MOL0     C46669   5.134   8.517   9.552  0.0122 -1.0060  0.2397
  339MOL0     C46670   5.095   8.591   9.439  1.0415 -1.0196 -0.0949
  339MOL0     C46671   4.994   8.563   9.352 -0.4910 -0.7241 -0.0842
  339MOL0     C46672   4.970   8.650   9.232 -0.6643  0.5288 -0.2277
  339MOL0     C46673   4.914   8.448   9.382  0.0771 -0.1018  0.4566
  339MOL0     C46674   4.814   8.394   9.293  0.3241 -0.1675 -0.0302
  339MOL0     O46675   4.857   8.358   9.162  0.5721 -0.0114  0.3033
  339MOL0     C46676   4.752   8.294   9.090 -0.2767 -0.6933  0.5349
  339MOL0     C46677   4.653   8.368   9.018 -1.0264 -0.1474  0.2917
  339MOL0     C46678   4.554   8.295   8.946 -1.0057 -0.0132  0.0813
  339MOL0     C46679   4.562   8.154   8.943  0.1781 -0.0009  0.9775
  339MOL0     O46680   4.480   8.068   8.879  0.1842 -0.0643 -0.3529
  339MOL0     C46681   4.416   8.113   8.758 -0.5588 -0.1447 -0.4554
  339MOL0     C46682   4.360   7.994   8.687 -0.1330 -0.1816 -0.4735
  339MOL0     C46683   4.278   8.044   8.559  0.0363 -0.0059 -0.2575
  339MOL0     C46684   4.241   7.937   8.459  1.0206 -0.1641 -0.1161
  339MOL0     C46685   4.125   7.850   8.506 -0.4643  0.9503  0.2363
  339MOL0     C46686   4.070   7.764   8.398  0.3324 -0.3779 -0.5719
  339MOL0     C46687   3.989   7.645   8.462 -0.8227 -0.2922 -0.9931
  339MOL0     C46688   3.908   7.560   8.360 -0.7846  0.3709 -1.2917
  339MOL0    Cl46689   3.801   7.454   8.455  0.3353 -0.0947 -0.4682
  339MOL0     C46690   4.658   8.087   9.013 -0.4681  0.6897 -0.6830
  339MOL0     C46691   4.751   8.159   9.095 -0.2002  1.8921  0.1109
  339MOL0     O46692   4.703   8.364   9.342  0.0253  0.2034  0.8739
  339MOL0     C46693   4.943   8.373   9.498 -0.3394 -0.1617  0.7577
  339MOL0     C46694   5.042   8.414   9.583 -0.7842  0.9165  0.2796
  339MOL0     N46695   5.731   8.275   9.925  1.2108  0.2148 -0.2089
  339MOL0     N46696   5.731   8.194  10.026  0.3755  0.5875 -0.3676
  339MOL0     C46697   5.300   9.026  10.273 -0.1172 -0.3672 -0.3202
  339MOL0     C46698   5.375   9.139  10.290  0.3416  0.5734  0.1870
  339MOL0     C46699   5.638   9.448  10.433  0.6177 -0.5126  0.5264
  339MOL0     C46700   5.750   9.467  10.349 -0.5043  0.0135 -0.1239
  339MOL0     C46701   5.802   9.593  10.319 -0.5291  0.3611 -0.0399
  339MOL0     C46702   5.743   9.708  10.378 -0.8076  0.8805 -0.7616
  339MOL0     O46703   5.796   9.827  10.358 -0.6070 -0.0077 -0.1108
  339MOL0     C46704   5.859   9.864  10.237 -0.8550 -0.3706  0.5170
  339MOL0     C46705   5.759   9.900  10.127  0.7352  0.4855 -0.4380
  339MOL0     C46706   5.823   9.932   9.991  0.1039 -0.0561  0.0940
  339MOL0     C46707   5.714   9.994   9.903  0.4026  0.1700  0.5921
  339MOL0     C46708   5.765  10.002   9.766  0.0840  0.2650  0.0029
  339MOL0     C46709   5.815  10.019   9.653 -0.5453 -0.3091 -0.3205
  339MOL0     C46710   5.639   9.692  10.466  0.5491  0.5063 -0.7086
  339MOL0     C46711   5.585   9.570  10.499 -0.1923  0.8327 -0.3372
  339MOL0     C46712   5.446   9.580  10.555  0.0367 -0.3373  0.7194
  339MOL0     H46713   5.676   8.989  10.284 -0.1216  1.1079  0.2655
  339MOL0     H46714   5.507   8.788  10.207  0.8186  0.1650 -0.1562
  339MOL0     H46715   5.057   8.818  10.273  1.1007  1.6356  0.7273
  339MOL0     H46716   5.167   8.833  10.408 -1.8583 -1.9203  1.6369
  339MOL0     H46717   5.066   8.643  10.455 -1.0597  2.4105 -0.5475
  339MOL0     H46718   5.047   8.597  10.295 -2.6040  1.6019  0.6078
  339MOL0     H46719   5.334   8.591  10.326 -0.1534 -0.0912 -1.3977
  339MOL0     H46720   5.261   8.529  10.475  2.4615  0.4698 -0.7855
  339MOL0     H46721   5.132   8.366  10.351 -0.3931  1.7300 -0.6407
  339MOL0     H46722   5.173   8.429  10.193 -0.9055  2.0792  0.4753
  339MOL0     H46723   5.358   8.300  10.419 -0.6038 -1.4671 -0.3679
  339MOL0     H46724   5.427   8.392  10.288  0.3763 -1.0569 -0.6830
  339MOL0     H46725   5.291   8.112  10.252 -0.9941 -0.1952 -3.4306
  339MOL0     H46726   5.355   8.196  10.126  2.2830 -1.1932 -0.1968
  339MOL0     H46727   5.494   8.026  10.195  0.2163  1.3420 -1.4373
  339MOL0     H46728   5.489   8.068  10.362  2.8428 -1.7561  0.1514
  339MOL0     H46729   5.660   8.275  10.314  1.9909 -0.0832 -1.4787
  339MOL0     H46730   5.709   8.117  10.278 -1.9500 -2.9272  1.2994
  339MOL0     H46731   5.521   8.440  10.095 -0.7842 -0.6723  0.0153
  339MOL0     H46732   5.687   8.482   9.772  0.5544 -2.4429 -0.7348
  339MOL0     H46733   5.619   8.591   9.904 -1.6240 -2.0583  3.2867
  339MOL0     H46734   5.483   8.483   9.682 -1.9818 -0.4487 -0.4220
  339MOL0     H46735   5.441   8.365   9.803  2.6153 -0.9244  0.5978
  339MOL0     H46736   5.349   8.580   9.935 -0.3434  1.6823  0.9196
  339MOL0     H46737   5.408   8.673   9.796  2.8340 -2.1064 -0.5592
  339MOL0     H46738   5.221   8.435   9.767  0.7468 -0.6249 -2.6436
  339MOL0     H46739   5.148   8.593   9.812 -2.2966 -0.9602 -1.2043
  339MOL0     H46740   5.153   8.680   9.417 -0.4396  0.6184  2.1349
  339MOL0     H46741   4.878   8.642   9.172 -0.4937 -1.2232 -0.3135
  339MOL0     H46742   5.057   8.646   9.166 -2.9184 -1.8614 -3.3567
  339MOL0     H46743   4.970   8.746   9.283 -1.4499 -0.2465  1.3071
  339MOL0     H46744   4.659   8.476   9.009  0.4876 -0.1932  0.5318
  339MOL0     H46745   4.471   8.338   8.890 -0.5323  0.1654 -0.4973
  339MOL0     H46746   4.340   8.189   8.778  0.2847 -0.1262  3.4158
  339MOL0     H46747   4.492   8.158   8.692  0.7614 -0.6048  0.7010
  339MOL0     H46748   4.446   7.930   8.666 -0.4388 -0.8370  0.2242
  339MOL0     H46749   4.296   7.957   8.768 -0.7652  2.1492  0.1633
  339MOL0     H46750   4.342   8.121   8.514  3.2965 -2.8177 -0.8860
  339MOL0     H46751   4.185   8.095   8.585 -0.3765  0.4837 -2.4596
  339MOL0     H46752   4.327   7.873   8.440  0.5086 -0.6903 -0.6784
  339MOL0     H46753   4.229   7.974   8.357  1.3786 -1.4493 -0.6350
  339MOL0     H46754   4.166   7.794   8.591 -3.3168 -1.5200  0.1534
  339MOL0     H46755   4.049   7.912   8.556 -1.2805 -2.2185  3.3743
  339MOL0     H46756   4.153   7.735   8.334  0.0745 -0.3246 -0.9361
  339MOL0     H46757   4.003   7.827   8.338 -0.6162  0.6085  1.4244
  339MOL0     H46758   3.922   7.682   8.540  1.2012 -0.6504  1.0149
  339MOL0     H46759   4.062   7.578   8.507 -1.5089  1.2208  2.6924
  339MOL0     H46760   3.979   7.506   8.297  2.1207  1.5152  0.8328
  339MOL0     H46761   3.855   7.632   8.296  0.8986  2.3727 -0.5316
  339MOL0     H46762   4.657   7.978   9.019 -0.1797  0.5299 -2.8267
  339MOL0     H46763   4.818   8.107   9.162 -2.7928 -0.3820  1.0880
  339MOL0     H46764   4.896   8.278   9.520  0.8572 -0.8689  0.3951
  339MOL0     H46765   5.058   8.354   9.671 -0.1410  4.0805  2.5064
  339MOL0     H46766   5.193   9.037  10.276 -0.1526 -0.6169 -0.6880
  339MOL0     H46767   5.329   9.237  10.298 -0.8760  0.2394 -2.0088
  339MOL0     H46768   5.787   9.376  10.304 -0.8979  0.3498 -1.1708
  339MOL0     H46769   5.889   9.607  10.256  1.3735  3.9047  2.9575
  339MOL0     H46770   5.924   9.949  10.259  2.0565 -3.0930  3.4701
  339MOL0     H46771   5.926   9.786  10.201 -2.3913 -2.0751  1.1747
  339MOL0     H46772   5.695   9.977  10.170  1.4697 -0.7014  3.1794
  339MOL0     H46773   5.692   9.814  10.116  1.7537 -0.2977 -0.6619
  339MOL0     H46774   5.909   9.999  10.000  2.2006 -2.4144 -0.9481
  339MOL0     H46775   5.859   9.839   9.947 -2.5838 -1.1229 -0.0139
  339MOL0     H46776   5.666  10.085   9.940  0.7623  0.6131 -0.0057
  339MOL0     H46777   5.639   9.915   9.890 -0.2223  0.7619  0.5551
  339MOL0     H46778   5.862  10.039   9.559 -0.0425  1.3780  0.2604
  339MOL0     H46779   5.599   9.782  10.514  1.1273  1.0877 -1.2919
  339MOL0     H46780   5.422   9.490  10.614  1.0368  0.3621  2.2633
  339MOL0     H46781   5.454   9.665  10.624  1.8434  1.3215 -1.3992
  339MOL0     H46782   5.359   9.578  10.489  0.3017 -0.6511  0.3749
  340MOL0     O46783   3.534   7.705   5.940 -0.0694 -0.3281 -0.1493
  340MOL0     C46784   3.650   7.716   5.975 -0.2151  0.0634  0.2429
  340MOL0     O46785   3.732   7.818   5.942 -0.0107  0.1918  0.0431
  340MOL0     C46786   3.679   7.937   5.892  0.1697  0.7679  0.0879
  340MOL0     C46787   3.739   7.995   5.785  0.3450  0.7463 -0.2326
  340MOL0     C46788   3.704   8.128   5.744 -0.1219 -0.2324 -0.8373
  340MOL0     C46789   3.624   8.211   5.827  0.1452  0.2150  0.0140
  340MOL0     O46790   3.599   8.339   5.781 -0.2575  0.2689  0.2780
  340MOL0     C46791   3.578   8.451   5.875  0.3575  1.0450  0.5351
  340MOL0     C46792   3.457   8.532   5.866  1.1016 -0.3830  0.5643
  340MOL0     C46793   3.333   8.449   5.927  0.6729 -0.1663  0.0340
  340MOL0     C46794   3.200   8.529   5.910  0.4328  0.1973 -0.3234
  340MOL0     C46795   3.079   8.440   5.920 -0.3389  0.0014 -0.2188
  340MOL0     C46796   2.951   8.512   5.924 -0.3041 -0.5992 -0.0400
  340MOL0     C46797   2.894   8.538   6.060  0.1734  0.2335  0.2166
  340MOL0     C46798   2.750   8.588   6.049  0.3803 -0.2765  0.7153
  340MOL0     N46799   2.646   8.512   5.973 -0.4745  0.0401  0.2994
  340MOL0     C46800   2.616   8.379   5.983  0.1680 -0.1036  1.4488
  340MOL0     C46801   2.507   8.365   5.900  0.5717  0.2720  0.2058
  340MOL0     C46802   2.417   8.249   5.863 -0.2227  0.7290  0.4359
  340MOL0     C46803   2.405   8.160   5.974  0.1126  0.3435 -0.8932
  340MOL0     C46804   2.284   8.063   5.958  0.4916  0.6098 -0.1492
  340MOL0     C46805   2.274   7.978   5.833 -0.2220 -0.1219 -0.5330
  340MOL0     O46806   2.386   7.884   5.827 -0.4279 -0.3299 -0.4850
  340MOL0     C46807   2.375   7.783   5.732  0.4648  0.1020  0.4502
  340MOL0     C46808   2.395   7.807   5.594  0.1220 -0.7860  0.2667
  340MOL0     C46809   2.382   7.698   5.501  0.4341 -1.2202  0.1336
  340MOL0     C46810   2.413   7.746   5.363 -0.9715  0.1055  0.1725
  340MOL0     C46811   2.347   7.567   5.544  0.4875  0.1588  1.1323
  340MOL0     C46812   2.316   7.457   5.455  1.3699  0.6071  0.3128
  340MOL0     O46813   2.281   7.336   5.508  0.0136  0.8036 -0.5450
  340MOL0     C46814   2.218   7.242   5.426 -0.1357 -0.1446  1.0768
  340MOL0     C46815   2.081   7.253   5.392  0.4582 -0.1220  0.2106
  340MOL0     C46816   2.012   7.147   5.317  0.5721 -0.1615  0.7247
  340MOL0     C46817   2.091   7.043   5.264  0.1994 -0.4067 -0.3853
  340MOL0     O46818   2.042   6.935   5.207 -0.4185 -0.5601 -0.1916
  340MOL0     C46819   2.072   6.800   5.256  0.7164  0.7480 -0.2879
  340MOL0     C46820   1.977   6.743   5.349  0.5078  0.0542  0.2173
  340MOL0     C46821   2.035   6.715   5.488 -0.4150  0.7119  0.2233
  340MOL0     C46822   2.064   6.845   5.560  0.1507  0.1462 -0.8251
  340MOL0     C46823   2.140   6.821   5.694 -0.5447  0.7694  0.5725
  340MOL0     C46824   2.138   6.943   5.793 -0.7009  0.6417 -0.0489
  340MOL0     C46825   2.223   7.060   5.744  0.0152 -1.2335  0.6066
  340MOL0     C46826   2.186   7.183   5.822 -0.9847  0.1254  0.4091
  340MOL0    Cl46827   2.231   7.172   5.988 -0.0647 -0.2888 -0.6341
  340MOL0     C46828   2.233   7.055   5.270  2.1155 -0.5570  0.5128
  340MOL0     C46829   2.299   7.151   5.353  0.6048  0.3777  0.0390
  340MOL0     O46830   2.310   7.481   5.336 -0.0101  0.0191 -0.0469
  340MOL0     C46831   2.341   7.547   5.681  0.3602  0.6756  0.0826
  340MOL0     C46832   2.349   7.653   5.775 -0.3110  0.1881  0.6274
  340MOL0     N46833   2.481   8.496   5.848  0.7211  1.1264 -0.2600
  340MOL0     N46834   2.561   8.581   5.891  0.2152  1.0030  0.2688
  340MOL0     C46835   3.567   8.144   5.938 -0.1504 -0.1293 -0.3838
  340MOL0     C46836   3.593   8.014   5.965  0.7230  1.3485 -0.2963
  340MOL0     C46837   3.709   7.599   6.050 -0.4305  0.0334  0.6796
  340MOL0     C46838   3.625   7.506   6.101  1.1097  0.3688  0.6971
  340MOL0     C46839   3.665   7.403   6.186 -0.6983  0.2193  0.6691
  340MOL0     C46840   3.798   7.391   6.228  0.7764  0.0225  0.3487
  340MOL0     O46841   3.839   7.294   6.315  0.5252  0.1016 -0.3918
  340MOL0     C46842   3.887   7.181   6.247  0.2330 -0.6768 -0.9191
  340MOL0     C46843   3.948   7.078   6.347 -0.9856  0.5071  0.0063
  340MOL0     C46844   3.854   7.021   6.447  0.0784 -1.1164 -1.2685
  340MOL0     C46845   3.833   7.115   6.570  0.0491 -0.9670  0.6164
  340MOL0     C46846   3.818   7.033   6.690  0.0997  0.8101 -0.1402
  340MOL0     C46847   3.825   6.980   6.803 -0.2172 -0.2267  0.8350
  340MOL0     C46848   3.886   7.485   6.183  0.1128 -0.2686  1.0327
  340MOL0     C46849   3.845   7.585   6.091 -0.2447  0.1445 -0.3913
  340MOL0     C46850   3.964   7.665   6.025  0.3102  0.1481 -0.8722
  340MOL0     H46851   3.808   7.933   5.728 -2.4189 -0.8799 -2.0355
  340MOL0     H46852   3.745   8.168   5.652  1.5519 -3.9075 -1.8938
  340MOL0     H46853   3.660   8.516   5.845  0.4552  0.5076 -0.4200
  340MOL0     H46854   3.592   8.429   5.981 -1.9563  2.0454  1.1196
  340MOL0     H46855   3.468   8.619   5.932 -0.3088 -1.4451  2.2743
  340MOL0     H46856   3.432   8.554   5.762  2.0103  1.1153  0.6226
  340MOL0     H46857   3.323   8.347   5.887  0.1648 -0.0848 -0.0581
  340MOL0     H46858   3.355   8.419   6.030  2.2417 -0.0434 -0.2436
  340MOL0     H46859   3.190   8.594   5.998  2.1981  0.4174 -0.2523
  340MOL0     H46860   3.210   8.579   5.812  1.0366  0.4098 -0.1582
  340MOL0     H46861   3.095   8.379   6.010 -3.5231 -2.4812 -1.1591
  340MOL0     H46862   3.089   8.373   5.834 -0.2983  0.3061 -0.4533
  340MOL0     H46863   2.957   8.606   5.868 -1.0876 -0.2581  0.4365
  340MOL0     H46864   2.886   8.460   5.854  1.0995 -0.4624 -1.5139
  340MOL0     H46865   2.956   8.612   6.111  0.3558 -1.2725  2.3026
  340MOL0     H46866   2.903   8.446   6.119  2.7528 -0.3987 -1.0244
  340MOL0     H46867   2.715   8.612   6.149  1.5054 -0.4195  1.1527
  340MOL0     H46868   2.771   8.688   6.011 -0.5025 -0.1519  0.5257
  340MOL0     H46869   2.673   8.297   6.024  3.0832  0.2875 -1.4166
  340MOL0     H46870   2.460   8.196   5.778 -1.3439  0.4094  0.0470
  340MOL0     H46871   2.321   8.284   5.823 -0.7417  1.2151  2.0287
  340MOL0     H46872   2.485   8.090   6.002 -1.2218 -0.5284  0.9600
  340MOL0     H46873   2.388   8.219   6.065  0.2338 -1.1772  0.1626
  340MOL0     H46874   2.289   7.999   6.046  0.1868  0.3093 -0.3466
  340MOL0     H46875   2.190   8.120   5.963  0.5019  0.5703  0.5042
  340MOL0     H46876   2.180   7.922   5.834  0.5368 -1.4322  0.0737
  340MOL0     H46877   2.280   8.039   5.742 -1.1249 -1.9971 -1.9056
  340MOL0     H46878   2.426   7.906   5.565  0.5946 -0.7959  0.7091
  340MOL0     H46879   2.446   7.849   5.353 -0.2191 -0.0318  1.0812
  340MOL0     H46880   2.323   7.750   5.301 -0.7063 -0.6199 -0.2710
  340MOL0     H46881   2.479   7.676   5.312 -2.7032  1.7735 -4.9657
  340MOL0     H46882   2.019   7.338   5.419  0.8751  0.3435 -0.2849
  340MOL0     H46883   1.903   7.145   5.317  0.5736 -0.8083  1.5173
  340MOL0     H46884   2.071   6.740   5.165  2.5387  1.7845 -1.0494
  340MOL0     H46885   2.171   6.795   5.302  0.4173  0.2270  0.3133
  340MOL0     H46886   1.894   6.815   5.354  1.0377  0.6856  0.0054
  340MOL0     H46887   1.940   6.649   5.308  1.1193 -0.6143  1.1739
  340MOL0     H46888   2.124   6.652   5.489 -0.3132  0.8593  1.0152
  340MOL0     H46889   1.956   6.657   5.536 -0.4618 -0.2535 -0.9654
  340MOL0     H46890   1.973   6.900   5.588  0.5378  0.5951 -0.4354
  340MOL0     H46891   2.120   6.911   5.492 -0.3322  0.9978 -0.4149
  340MOL0     H46892   2.107   6.737   5.756 -0.7100  1.5102  1.5109
  340MOL0     H46893   2.244   6.799   5.670 -1.1164  0.8257 -2.3789
  340MOL0     H46894   2.185   6.915   5.887  0.9649  1.2469 -0.6622
  340MOL0     H46895   2.034   6.974   5.806 -1.0659  1.0355 -3.1386
  340MOL0     H46896   2.190   7.066   5.640  1.2966 -0.3590  0.2241
  340MOL0     H46897   2.331   7.039   5.750  0.3259  0.5921  2.3572
  340MOL0     H46898   2.080   7.209   5.826 -0.6776  1.3549  1.5524
  340MOL0     H46899   2.244   7.265   5.780  2.6251 -1.5800  1.6759
  340MOL0     H46900   2.297   6.993   5.207  0.9562 -0.2556 -1.0124
  340MOL0     H46901   2.407   7.140   5.349  0.6241  0.8949 -1.4421
  340MOL0     H46902   2.330   7.447   5.721  0.0635  1.0285  0.9071
  340MOL0     H46903   2.349   7.627   5.880 -1.4185  0.4091  0.6970
  340MOL0     H46904   3.502   8.191   6.010  1.9431  0.1560  1.4349
  340MOL0     H46905   3.553   7.972   6.056  1.3480 -1.0186 -1.0433
  340MOL0     H46906   3.518   7.519   6.093  0.9408 -1.1187  0.1481
  340MOL0     H46907   3.598   7.335   6.238 -1.2356 -2.7321 -3.4120
  340MOL0     H46908   3.799   7.142   6.195 -0.8769  1.2342 -0.5467
  340MOL0     H46909   3.970   7.212   6.183  1.2808  3.2960  2.0063
  340MOL0     H46910   4.033   7.128   6.394 -1.1739  2.5670 -1.6964
  340MOL0     H46911   3.976   6.999   6.277 -0.6191  1.0049 -0.4208
  340MOL0     H46912   3.761   6.988   6.400 -1.5522  0.7905  0.4168
  340MOL0     H46913   3.906   6.933   6.486 -0.0331 -1.3248 -1.5853
  340MOL0     H46914   3.748   7.182   6.559  0.8536  0.1092  0.7653
  340MOL0     H46915   3.918   7.183   6.581  0.6199 -1.8065  1.6500
  340MOL0     H46916   3.811   6.915   6.887 -1.9891 -2.7441 -1.2521
  340MOL0     H46917   3.991   7.483   6.209  1.5609  1.5204 -3.7195
  340MOL0     H46918   3.946   7.697   5.922 -0.9620 -1.5237 -1.2245
  340MOL0     H46919   3.981   7.753   6.089  3.9051 -0.4744 -0.7647
  340MOL0     H46920   4.055   7.606   6.021  0.1238 -0.2543  0.2837
  341MOL0     O46921   9.888   5.625  11.038  0.8137  0.0143 -0.5423
  341MOL0     C46922   9.843   5.709  10.965  0.5508  0.3265  0.1463
  341MOL0     O46923   9.868   5.838  10.981 -0.2476  0.0800  0.4497
  341MOL0     C46924   9.839   5.884  11.109 -0.8271 -0.2318 -0.0359
  341MOL0     C46925   9.722   5.957  11.139  0.0267  0.4534  0.4449
  341MOL0     C46926   9.701   6.027  11.258 -0.6899 -0.3471 -0.7113
  341MOL0     C46927   9.802   6.024  11.352 -0.4413  0.4179 -0.9880
  341MOL0     O46928   9.778   6.081  11.476  0.1507  0.2248  0.0573
  341MOL0     C46929   9.649   6.069  11.539  0.3591 -0.0130 -0.1427
  341MOL0     C46930   9.669   6.004  11.681 -0.0997 -1.2936  1.3947
  341MOL0     C46931   9.552   6.026  11.777 -0.5647 -0.0075  0.2667
  341MOL0     C46932   9.455   5.898  11.775 -0.6658  0.3375 -0.1387
  341MOL0     C46933   9.388   5.877  11.908  0.3159  0.2415  0.2262
  341MOL0     C46934   9.279   5.775  11.910 -0.1326  0.2830 -1.3095
  341MOL0     C46935   9.328   5.634  11.947  0.1475 -0.0703  0.4765
  341MOL0     C46936   9.218   5.524  11.960 -0.4185  0.3842  0.5864
  341MOL0     N46937   9.139   5.526  12.090  0.2850  0.0109  0.5111
  341MOL0     C46938   9.069   5.626  12.151 -0.1061 -0.8552 -0.5872
  341MOL0     C46939   9.020   5.573  12.275  0.7549 -0.0345  0.0669
  341MOL0     C46940   8.946   5.657  12.386 -0.0708  0.2250  0.3446
  341MOL0     C46941   8.965   5.812  12.377 -0.1558 -0.3935  0.4494
  341MOL0     C46942   9.056   5.865  12.485  0.4873  0.4694 -0.4812
  341MOL0     C46943   9.148   5.977  12.432 -0.2061  0.3161 -0.2140
  341MOL0     O46944   9.232   5.914  12.334 -0.5861 -0.1228  0.7273
  341MOL0     C46945   9.348   5.991  12.302  0.5489  0.0793  0.0953
  341MOL0     C46946   9.459   5.910  12.290  0.3568 -1.1775 -0.3150
  341MOL0     C46947   9.574   5.976  12.256 -0.9810  0.2546  0.0035
  341MOL0     C46948   9.698   5.895  12.237 -0.0600 -0.4386 -0.9819
  341MOL0     C46949   9.576   6.118  12.226  0.5621 -0.0682  0.3496
  341MOL0     C46950   9.704   6.185  12.176  0.0219 -0.3184  0.1366
  341MOL0     O46951   9.696   6.275  12.081  0.4563  0.3374  0.4974
  341MOL0     C46952   9.812   6.321  12.023  0.3596 -0.0583  1.1041
  341MOL0     C46953   9.837   6.463  12.031  0.5997  0.0992  0.9285
  341MOL0     C46954   9.944   6.505  11.947  0.7794 -0.1787 -0.3019
  341MOL0     C46955  10.012   6.418  11.871 -0.3889 -0.8245  0.3081
  341MOL0     O46956  10.104   6.475  11.785  0.4169  0.4667  0.2414
  341MOL0     C46957  10.088   6.465  11.641 -0.5309 -0.1332 -0.1458
  341MOL0     C46958   9.949   6.531  11.595 -0.1973  0.1227 -0.3424
  341MOL0     C46959   9.937   6.545  11.449  0.1815 -0.6183  0.1512
  341MOL0     C46960   9.919   6.417  11.368 -0.3283 -0.2672 -1.2828
  341MOL0     C46961   9.855   6.463  11.236 -0.4946 -0.0985  0.2588
  341MOL0     C46962   9.787   6.340  11.162 -0.6023  0.0559  0.5330
  341MOL0     C46963   9.745   6.383  11.016 -0.3706 -0.1303  0.6474
  341MOL0     C46964   9.656   6.272  10.961  0.5672 -0.6305  0.4278
  341MOL0    Cl46965   9.558   6.329  10.823  0.2209  0.0339  0.2144
  341MOL0     C46966   9.989   6.285  11.865  1.1135  0.1199  0.7096
  341MOL0     C46967   9.892   6.229  11.953  0.5030  0.1261  0.5450
  341MOL0     O46968   9.806   6.163  12.238  0.5324 -0.1206 -0.3906
  341MOL0     C46969   9.455   6.193  12.228 -0.0656  0.5948 -0.5553
  341MOL0     C46970   9.341   6.134  12.280 -0.0571  0.4282  1.1948
  341MOL0     N46971   9.044   5.440  12.268  0.6252 -0.3027  0.8649
  341MOL0     N46972   9.126   5.419  12.170 -0.2778  0.3373  0.3118
  341MOL0     C46973   9.922   5.962  11.324 -0.3275  0.0992 -0.4601
  341MOL0     C46974   9.940   5.889  11.203  0.3038 -0.8871  0.2135
  341MOL0     C46975   9.760   5.657  10.847 -0.1209  0.2649  0.2485
  341MOL0     C46976   9.712   5.524  10.845  1.2525  0.5442 -0.9547
  341MOL0     C46977   9.653   5.473  10.728 -0.7488  0.2171 -0.1310
  341MOL0     C46978   9.634   5.547  10.612 -0.3061 -0.2853  0.1413
  341MOL0     O46979   9.569   5.489  10.508  0.8052  0.8206 -0.4431
  341MOL0     C46980   9.548   5.555  10.384 -0.1560  0.7209 -0.3100
  341MOL0     C46981   9.451   5.460  10.318 -0.5357  0.1062  0.0946
  341MOL0     C46982   9.336   5.531  10.233 -0.1545  0.9937  0.9540
  341MOL0     C46983   9.245   5.626  10.313 -1.0752  0.3270  1.1810
  341MOL0     C46984   9.169   5.557  10.426  0.9758 -0.4834  0.1315
  341MOL0     C46985   9.125   5.507  10.533 -0.0899 -0.9531  0.1565
  341MOL0     C46986   9.681   5.679  10.610 -0.6714 -0.1014 -0.2023
  341MOL0     C46987   9.737   5.738  10.725 -0.7749 -0.2092 -0.0112
  341MOL0     C46988   9.769   5.884  10.718  0.0319 -0.6470 -0.9462
  341MOL0     H46989   9.643   5.959  11.064  1.9902 -1.3661 -1.8082
  341MOL0     H46990   9.619   6.093  11.284  0.2838  0.0204  1.7269
  341MOL0     H46991   9.588   6.001  11.479  2.6781  0.2377 -3.0489
  341MOL0     H46992   9.605   6.169  11.534  0.8361  0.1632 -3.2876
  341MOL0     H46993   9.707   5.904  11.662  1.0716 -0.6430  0.1322
  341MOL0     H46994   9.764   6.047  11.715  0.4772  0.7252 -2.2065
  341MOL0     H46995   9.604   6.026  11.873  1.0074 -1.3601 -0.5337
  341MOL0     H46996   9.510   6.125  11.758  0.8805  0.3468 -1.3466
  341MOL0     H46997   9.376   5.913  11.700 -1.1807 -1.6118 -0.0314
  341MOL0     H46998   9.506   5.804  11.752 -0.5433 -0.3838  2.7196
  341MOL0     H46999   9.353   5.970  11.954  0.8986  0.8441 -0.5171
  341MOL0     H47000   9.465   5.851  11.982 -0.3199 -0.9857  0.4914
  341MOL0     H47001   9.200   5.801  11.981 -0.2819  2.7464 -2.2576
  341MOL0     H47002   9.228   5.762  11.814 -1.5501 -1.5117 -0.3738
  341MOL0     H47003   9.378   5.637  12.044 -0.5922 -5.8128  1.3662
  341MOL0     H47004   9.404   5.601  11.876  0.9675  0.5647  1.0411
  341MOL0     H47005   9.147   5.525  11.877  1.8718  0.0067 -1.5020
  341MOL0     H47006   9.267   5.428  11.941  0.6495  1.1977 -0.9207
  341MOL0     H47007   9.044   5.726  12.117 -1.0505 -1.1827 -0.9001
  341MOL0     H47008   8.994   5.622  12.478  2.2341 -0.6888 -1.1049
  341MOL0     H47009   8.841   5.634  12.406  0.0351 -0.1669  0.4656
  341MOL0     H47010   9.023   5.842  12.289  0.6621  1.0020  1.4190
  341MOL0     H47011   8.880   5.880  12.372  0.5517  0.5437  0.8640
  341MOL0     H47012   8.991   5.923  12.551 -2.1732  1.1852 -3.5020
  341MOL0     H47013   9.120   5.789  12.530 -0.0946 -0.0878 -0.5915
  341MOL0     H47014   9.092   6.060  12.387  1.6894  2.0776  0.4886
  341MOL0     H47015   9.208   6.017  12.514  1.1497 -2.3922  0.2219
  341MOL0     H47016   9.454   5.803  12.309  1.1626 -0.9514  1.4200
  341MOL0     H47017   9.772   5.923  12.312 -0.0411 -0.2802 -1.0594
  341MOL0     H47018   9.745   5.917  12.141  1.3109  2.4934  0.2411
  341MOL0     H47019   9.686   5.787  12.252  0.1037 -0.7732 -3.0621
  341MOL0     H47020   9.764   6.530  12.077 -1.5122 -0.4942 -1.3709
  341MOL0     H47021   9.988   6.605  11.957  0.5848 -0.2041  0.9899
  341MOL0     H47022  10.168   6.521  11.591 -2.0713 -0.5135 -3.3189
  341MOL0     H47023  10.114   6.363  11.614  3.7762  0.5870  0.5680
  341MOL0     H47024   9.870   6.471  11.641  0.3979 -1.4486 -1.2667
  341MOL0     H47025   9.938   6.624  11.650 -0.9802 -0.6921  0.9412
  341MOL0     H47026  10.015   6.616  11.422 -1.1484  0.8429 -0.0060
  341MOL0     H47027   9.845   6.600  11.428 -0.5499 -1.7286  0.3326
  341MOL0     H47028   9.863   6.346  11.428  2.1686  0.4492  2.2046
  341MOL0     H47029  10.020   6.374  11.360 -0.4087 -0.4561 -1.2847
  341MOL0     H47030   9.774   6.535  11.254  1.4927  2.3081  0.1551
  341MOL0     H47031   9.922   6.518  11.168  0.4323 -1.1450  0.2970
  341MOL0     H47032   9.698   6.306  11.216 -2.3176 -0.5376 -2.4175
  341MOL0     H47033   9.854   6.255  11.149 -1.9967 -0.8244 -1.3688
  341MOL0     H47034   9.817   6.408  10.938 -1.6375  0.6919 -0.2921
  341MOL0     H47035   9.682   6.472  11.022 -0.1023  0.0068  1.5752
  341MOL0     H47036   9.583   6.237  11.035  0.3969 -2.1983 -0.4532
  341MOL0     H47037   9.724   6.190  10.938 -0.6800 -2.1631  1.9237
  341MOL0     H47038  10.043   6.222  11.796 -1.9388  1.3204 -3.2007
  341MOL0     H47039   9.872   6.124  11.966  1.1204  0.1419  1.7672
  341MOL0     H47040   9.447   6.300  12.209 -3.5725  0.3761 -1.0381
  341MOL0     H47041   9.252   6.194  12.299 -0.2450  0.5196  0.1078
  341MOL0     H47042  10.000   5.988  11.396 -0.0426 -1.3690 -0.2160
  341MOL0     H47043  10.039   5.854  11.176  0.4850 -1.0721  1.0931
  341MOL0     H47044   9.726   5.456  10.928 -0.2844 -2.7073 -3.1379
  341MOL0     H47045   9.619   5.370  10.739  1.0147 -0.2720  1.1694
  341MOL0     H47046   9.507   5.655  10.401  1.7573  1.7591 -1.5417
  341MOL0     H47047   9.638   5.570  10.325 -0.0517 -0.8389 -0.6013
  341MOL0     H47048   9.391   5.395  10.382 -1.9554  1.1036 -0.1794
  341MOL0     H47049   9.501   5.380  10.262 -2.5843 -3.5112  2.9730
  341MOL0     H47050   9.389   5.587  10.156  0.3252 -0.0331  0.5230
  341MOL0     H47051   9.265   5.458  10.193  1.3546  0.1925 -0.3948
  341MOL0     H47052   9.167   5.672  10.251 -1.5941  2.1725  3.0969
  341MOL0     H47053   9.311   5.706  10.349  1.8345 -0.8399 -1.1461
  341MOL0     H47054   9.089   5.450  10.616  0.5483 -3.5566 -1.2641
  341MOL0     H47055   9.661   5.746  10.526  2.1734 -0.2928 -1.1384
  341MOL0     H47056   9.774   5.917  10.614  1.5276  0.6169 -0.5231
  341MOL0     H47057   9.692   5.933  10.778  0.8371  2.2107 -2.0638
  341MOL0     H47058   9.870   5.910  10.752 -0.2961 -0.2513 -0.2567
  342MOL0     O47059   8.767   4.239   2.786  0.0933 -0.0414  0.9768
  342MOL0     C47060   8.866   4.299   2.836 -0.1949 -0.1055 -0.0859
  342MOL0     O47061   8.985   4.322   2.765 -0.5467  0.0988 -0.7320
  342MOL0     C47062   8.997   4.296   2.631  0.1682 -0.4199  0.4980
  342MOL0     C47063   8.898   4.315   2.532 -1.1679 -0.4584  0.9338
  342MOL0     C47064   8.928   4.300   2.394 -0.2360  0.2129 -0.3277
  342MOL0     C47065   9.062   4.271   2.356  0.3372 -0.6504  0.5182
  342MOL0     O47066   9.100   4.253   2.225  0.1294 -0.5375 -0.0344
  342MOL0     C47067   9.022   4.301   2.109 -0.8624 -0.0409  0.7358
  342MOL0     C47068   9.110   4.360   2.001 -0.4455  0.0488  0.8928
  342MOL0     C47069   9.227   4.266   1.958 -0.1479 -0.3078  0.4581
  342MOL0     C47070   9.174   4.140   1.881 -0.0062  0.3619 -0.8510
  342MOL0     C47071   9.286   4.078   1.801  0.1625  0.4494  0.3688
  342MOL0     C47072   9.383   3.992   1.889 -0.3094  0.4058  0.3277
  342MOL0     C47073   9.463   3.897   1.804 -0.2150  0.1765 -0.0312
  342MOL0     C47074   9.610   3.896   1.845 -0.3412 -0.8322 -0.0086
  342MOL0     N47075   9.672   3.795   1.771 -0.1781 -0.4740  0.7031
  342MOL0     C47076   9.778   3.718   1.801  0.4149 -0.9149  1.6002
  342MOL0     C47077   9.817   3.661   1.689 -1.0397 -0.0481 -0.7000
  342MOL0     C47078   9.945   3.578   1.677 -0.0526 -0.3158  0.1858
  342MOL0     C47079  10.007   3.564   1.539  0.0121  0.7829 -0.0578
  342MOL0     C47080   9.932   3.494   1.431  0.1776  0.2288  1.0050
  342MOL0     C47081   9.898   3.348   1.460  0.0687  0.4171  0.6346
  342MOL0     O47082  10.028   3.283   1.454 -0.4338 -0.5677  0.1692
  342MOL0     C47083  10.049   3.170   1.521 -0.1378 -0.0648  0.1682
  342MOL0     C47084   9.950   3.083   1.551  0.4147 -0.5533  0.0642
  342MOL0     C47085   9.987   2.958   1.616 -0.0439 -0.1982 -0.6321
  342MOL0     C47086   9.870   2.866   1.639 -0.1892 -0.4281 -0.4463
  342MOL0     C47087  10.123   2.921   1.652 -0.3104 -0.1594 -0.6172
  342MOL0     C47088  10.176   2.784   1.709  0.1478  0.1328 -0.2273
  342MOL0     O47089  10.298   2.780   1.770  0.2968  1.0197  0.0031
  342MOL0     C47090  10.341   2.657   1.827 -0.6324 -0.2519  0.6202
  342MOL0     C47091  10.348   2.534   1.757  0.6491 -0.8159 -0.6898
  342MOL0     C47092  10.404   2.422   1.816 -0.2138 -1.7802  0.2771
  342MOL0     C47093  10.438   2.427   1.951 -0.4381 -0.2637  0.0161
  342MOL0     O47094  10.480   2.316   2.023  0.0558  1.3545  0.4160
  342MOL0     C47095  10.393   2.199   2.007 -0.1911  0.2478 -0.8007
  342MOL0     C47096  10.317   2.163   2.134 -0.6100 -1.4499  0.0757
  342MOL0     C47097  10.268   2.010   2.131  0.5245 -0.2996 -0.0788
  342MOL0     C47098  10.386   1.904   2.145 -0.7049 -0.0636 -0.5825
  342MOL0     C47099  10.325   1.769   2.192  0.1809 -0.0833 -0.3018
  342MOL0     C47100  10.426   1.658   2.183  0.1401  0.5182 -0.5290
  342MOL0     C47101  10.528   1.651   2.300  1.3803 -1.2772  0.1296
  342MOL0     C47102  10.642   1.553   2.273 -0.2894 -1.0452  0.1180
  342MOL0    Cl47103  10.765   1.550   2.400  0.3259 -0.2253  0.2350
  342MOL0     C47104  10.432   2.549   2.023 -1.1562 -0.6350  0.3659
  342MOL0     C47105  10.391   2.669   1.952 -0.2613 -0.2020 -0.7393
  342MOL0     O47106  10.100   2.687   1.692  0.4865 -0.1206 -0.1395
  342MOL0     C47107  10.218   3.024   1.629  0.1105  0.6485 -0.0661
  342MOL0     C47108  10.180   3.140   1.564 -1.0888 -0.5264 -0.0654
  342MOL0     N47109   9.721   3.680   1.594  0.4043 -1.0677 -0.7854
  342MOL0     N47110   9.631   3.755   1.643 -0.3684 -0.2730 -0.1841
  342MOL0     C47111   9.164   4.269   2.448 -0.2945  0.6548 -0.4315
  342MOL0     C47112   9.132   4.265   2.589  0.0696 -0.0514  0.4873
  342MOL0     C47113   8.872   4.319   2.987 -0.1114 -0.5708  0.3761
  342MOL0     C47114   8.852   4.208   3.064 -0.0893 -0.9070 -0.0395
  342MOL0     C47115   8.827   4.215   3.203 -0.6633 -0.6657 -0.3212
  342MOL0     C47116   8.847   4.340   3.272 -0.1213  0.0683 -0.5598
  342MOL0     O47117   8.832   4.344   3.411  0.5349 -0.2025 -0.0414
  342MOL0     C47118   8.693   4.393   3.445 -0.4259 -0.1414 -0.3167
  342MOL0     C47119   8.575   4.312   3.396  0.5220  0.0560  0.9584
  342MOL0     C47120   8.441   4.347   3.472  0.5910  0.1822 -0.0342
  342MOL0     C47121   8.327   4.280   3.406 -0.1707 -0.3064  0.5858
  342MOL0     C47122   8.206   4.346   3.446  1.0796  0.3878 -0.0751
  342MOL0     C47123   8.114   4.400   3.507 -0.6948  0.2050 -0.0589
  342MOL0     C47124   8.887   4.446   3.191  0.0401 -0.3782 -0.2666
  342MOL0     C47125   8.892   4.447   3.052 -0.2576  0.2886 -0.5556
  342MOL0     C47126   8.932   4.575   2.987 -0.5537  0.0676 -0.0484
  342MOL0     H47127   8.801   4.356   2.557 -0.4818  1.9133 -0.0286
  342MOL0     H47128   8.843   4.313   2.329 -0.9627 -0.5017  0.4508
  342MOL0     H47129   8.966   4.385   2.150  0.6519  1.2506  0.2581
  342MOL0     H47130   8.953   4.223   2.075  0.6552 -2.0350  2.0395
  342MOL0     H47131   9.055   4.397   1.913  0.7472  3.7631  1.5128
  342MOL0     H47132   9.162   4.449   2.038 -0.5320  0.6494 -0.3539
  342MOL0     H47133   9.278   4.332   1.888  1.1873  0.8646  2.4195
  342MOL0     H47134   9.292   4.243   2.043 -0.8216  0.4478  1.1870
  342MOL0     H47135   9.138   4.075   1.961  0.5578 -1.1799 -1.7957
  342MOL0     H47136   9.088   4.163   1.818  1.4762  1.3147 -2.6669
  342MOL0     H47137   9.339   4.154   1.743 -0.0599 -2.3424 -4.0640
  342MOL0     H47138   9.245   4.010   1.725 -0.5657 -1.7611  2.5774
  342MOL0     H47139   9.444   4.052   1.957  0.4928 -2.1948  2.0527
  342MOL0     H47140   9.314   3.936   1.953 -0.5857  1.0934  0.6406
  342MOL0     H47141   9.468   3.934   1.702  0.5316  1.0740  0.3193
  342MOL0     H47142   9.418   3.797   1.812 -2.2160  0.9866 -0.4419
  342MOL0     H47143   9.656   3.993   1.825 -1.6792  0.1070  1.2873
  342MOL0     H47144   9.626   3.874   1.951 -1.4504  1.1884  0.6289
  342MOL0     H47145   9.826   3.716   1.899  0.5506 -2.3750  1.5222
  342MOL0     H47146   9.932   3.475   1.713 -0.4172 -1.0288 -1.8603
  342MOL0     H47147  10.033   3.620   1.726  3.2790 -0.6039 -4.7913
  342MOL0     H47148  10.032   3.665   1.505 -0.8661  0.0667 -3.0652
  342MOL0     H47149  10.107   3.520   1.550  0.5735  2.1944  0.7618
  342MOL0     H47150   9.839   3.551   1.415  0.7580  0.8045 -0.4346
  342MOL0     H47151   9.997   3.485   1.344  1.2674  1.4784  1.6515
  342MOL0     H47152   9.852   3.333   1.558 -0.4199 -0.5798  0.2710
  342MOL0     H47153   9.830   3.319   1.379  0.6274  4.3848 -1.4894
  342MOL0     H47154   9.849   3.095   1.515  1.8551 -0.2941 -4.5120
  342MOL0     H47155   9.879   2.778   1.575  1.2600 -1.2947  0.8522
  342MOL0     H47156   9.777   2.917   1.615 -0.0119 -1.1262 -2.8931
  342MOL0     H47157   9.871   2.837   1.745  1.5458  0.2107 -0.2409
  342MOL0     H47158  10.320   2.525   1.652 -3.2229 -1.7098  0.2487
  342MOL0     H47159  10.393   2.328   1.762 -0.3080 -1.4077 -0.3718
  342MOL0     H47160  10.323   2.209   1.924 -0.8710 -2.8020 -0.7048
  342MOL0     H47161  10.458   2.113   1.985  1.4018  0.9963  0.7089
  342MOL0     H47162  10.391   2.177   2.213  0.5084 -1.1622 -0.9958
  342MOL0     H47163  10.236   2.235   2.148 -0.7160 -1.3176 -1.0978
  342MOL0     H47164  10.205   1.973   2.050  1.8790  1.4978 -2.0662
  342MOL0     H47165  10.214   1.997   2.225  1.2412 -1.7540  0.1527
  342MOL0     H47166  10.459   1.936   2.221 -1.9059 -0.5839  0.8363
  342MOL0     H47167  10.440   1.890   2.051  1.0436 -0.3051  0.4032
  342MOL0     H47168  10.290   1.789   2.294  2.9080  4.0294  0.0738
  342MOL0     H47169  10.244   1.740   2.125  0.2392 -3.6818  0.9527
  342MOL0     H47170  10.487   1.667   2.093  0.6921  2.7438  0.0062
  342MOL0     H47171  10.374   1.563   2.167 -0.5094  0.6124  0.8578
  342MOL0     H47172  10.482   1.604   2.387  0.5757 -1.2594 -0.2826
  342MOL0     H47173  10.570   1.750   2.318 -3.0417  0.7048  0.7826
  342MOL0     H47174  10.697   1.579   2.182  0.5955  0.9686  1.1636
  342MOL0     H47175  10.593   1.455   2.271 -3.1886  0.2699 -2.7333
  342MOL0     H47176  10.464   2.535   2.126 -0.5378  0.0096  0.2703
  342MOL0     H47177  10.386   2.759   2.013  0.3833 -0.5158 -0.2077
  342MOL0     H47178  10.320   3.020   1.667  0.1211  1.5624  0.0150
  342MOL0     H47179  10.243   3.228   1.549 -2.7779  0.2886 -3.4598
  342MOL0     H47180   9.270   4.267   2.426  0.1857 -0.1392  1.7016
  342MOL0     H47181   9.210   4.244   2.661  1.8461 -0.7659 -1.5560
  342MOL0     H47182   8.860   4.118   3.004 -2.9975  0.2769 -2.4342
  342MOL0     H47183   8.794   4.134   3.267 -0.2263  1.8320  3.3502
  342MOL0     H47184   8.686   4.400   3.554  0.1517  1.1500 -0.3343
  342MOL0     H47185   8.673   4.495   3.408 -2.7081  0.5369  2.3978
  342MOL0     H47186   8.589   4.206   3.416  2.2212 -0.0670 -0.6445
  342MOL0     H47187   8.565   4.320   3.287 -1.3202 -0.0249  1.0862
  342MOL0     H47188   8.454   4.311   3.575  0.7715  1.4640  0.4086
  342MOL0     H47189   8.443   4.456   3.466  2.1063  0.1625 -0.3863
  342MOL0     H47190   8.316   4.173   3.424 -3.0904  0.1538  2.1823
  342MOL0     H47191   8.356   4.298   3.302  3.2096 -0.5938  1.3584
  342MOL0     H47192   8.026   4.457   3.527  2.0984  4.9531  0.2540
  342MOL0     H47193   8.910   4.543   3.235 -4.2895  0.5631  0.3998
  342MOL0     H47194   8.890   4.585   2.886 -0.6032  0.7263  0.0291
  342MOL0     H47195   8.904   4.669   3.036  2.2219  1.2537 -0.5680
  342MOL0     H47196   9.041   4.584   2.985 -0.6016  0.8095  0.1556
  343MOL0     O47197   9.511   9.249   1.410  0.3570  0.7026 -0.1130
  343MOL0     C47198   9.519   9.329   1.498 -0.4268  0.5395 -0.0372
  343MOL0     O47199   9.481   9.460   1.483 -0.0645  0.0150  0.1555
  343MOL0     C47200   9.372   9.486   1.398  0.0852 -0.0169  0.4054
  343MOL0     C47201   9.247   9.516   1.450 -0.7007  0.4388  0.7318
  343MOL0     C47202   9.138   9.559   1.374 -0.0422  0.1895 -0.6246
  343MOL0     C47203   9.149   9.555   1.231  0.1247 -0.0340 -0.2620
  343MOL0     O47204   9.034   9.584   1.164  0.0690  0.5072 -0.0673
  343MOL0     C47205   8.984   9.478   1.087 -0.4289  0.1167 -0.5403
  343MOL0     C47206   8.917   9.527   0.963  0.5139  0.6096 -0.2072
  343MOL0     C47207   8.815   9.631   0.993 -0.4835 -0.0609  0.7245
  343MOL0     C47208   8.700   9.639   0.889 -0.5617  0.1452  0.0278
  343MOL0     C47209   8.593   9.743   0.930  0.0683 -0.1002  0.0580
  343MOL0     C47210   8.634   9.884   0.874  0.3293  0.6983 -0.2907
  343MOL0     C47211   8.535   9.985   0.926  0.9748  0.4266  0.0588
  343MOL0     C47212   8.521   9.993   1.075  1.1842  0.3016 -0.2120
  343MOL0     N47213   8.456  10.118   1.117 -0.0582  0.2746  0.0707
  343MOL0     C47214   8.333  10.127   1.169  0.2151 -0.3940  0.6590
  343MOL0     C47215   8.319  10.255   1.224 -0.5117  0.1424  0.2710
  343MOL0     C47216   8.188  10.319   1.284  0.3396 -0.0106  0.3506
  343MOL0     C47217   8.058  10.251   1.240  0.4847 -0.3995  0.1557
  343MOL0     C47218   7.942  10.272   1.339  0.2083  0.0279 -0.1405
  343MOL0     C47219   7.806  10.224   1.294  0.2542 -0.3920 -0.3145
  343MOL0     O47220   7.791  10.080   1.279  0.0792  0.1661 -0.2685
  343MOL0     C47221   7.694  10.017   1.348  0.7351  0.3472 -0.5863
  343MOL0     C47222   7.678  10.033   1.483 -0.1911  0.5615  0.9715
  343MOL0     C47223   7.587   9.956   1.561 -0.3370  0.2218  0.0459
  343MOL0     C47224   7.575  10.000   1.709 -0.5428  1.0740 -1.2117
  343MOL0     C47225   7.519   9.849   1.498  0.9185  1.0585 -0.2873
  343MOL0     C47226   7.428   9.751   1.569  0.7205  0.5339  0.5006
  343MOL0     O47227   7.424   9.622   1.516 -0.4890  0.5142  0.3619
  343MOL0     C47228   7.311   9.552   1.564 -0.8145  1.0080  0.5369
  343MOL0     C47229   7.329   9.415   1.559  0.0875  0.0435 -0.4502
  343MOL0     C47230   7.228   9.327   1.615 -0.2516  0.1798  0.0739
  343MOL0     C47231   7.104   9.379   1.647  0.1117 -0.7103  0.6806
  343MOL0     O47232   6.999   9.289   1.678 -0.7618 -0.0568 -0.3073
  343MOL0     C47233   6.986   9.196   1.569 -0.6079  0.5485 -0.0038
  343MOL0     C47234   6.847   9.207   1.504  1.3187  0.1035 -0.0092
  343MOL0     C47235   6.831   9.129   1.368  0.1175 -0.5019 -0.0786
  343MOL0     C47236   6.685   9.122   1.323  0.2223  0.0431 -0.1583
  343MOL0     C47237   6.664   9.017   1.208 -0.3077 -0.9199 -0.1367
  343MOL0     C47238   6.526   9.031   1.154 -0.1279 -0.6953  0.9715
  343MOL0     C47239   6.493   8.922   1.049 -0.3890 -0.0697 -1.0072
  343MOL0     C47240   6.355   8.955   1.002 -0.0713 -0.4737 -0.2663
  343MOL0    Cl47241   6.214   8.902   1.104 -0.2583 -0.0713  0.3225
  343MOL0     C47242   7.080   9.515   1.634 -0.6324 -0.2451  0.6620
  343MOL0     C47243   7.187   9.602   1.599  1.2606 -0.4329  0.7906
  343MOL0     O47244   7.381   9.775   1.681  0.4838  0.2410  0.2546
  343MOL0     C47245   7.543   9.834   1.358  0.3010 -0.1731  0.1693
  343MOL0     C47246   7.632   9.909   1.286  0.0494 -0.1663 -0.5217
  343MOL0     N47247   8.442  10.311   1.207  0.3434  1.1832  0.0558
  343MOL0     N47248   8.517  10.234   1.141 -0.5997  0.6167  0.0731
  343MOL0     C47249   9.273   9.531   1.180 -0.8776  1.1020  0.0597
  343MOL0     C47250   9.383   9.486   1.259  0.3850 -0.4807  0.4246
  343MOL0     C47251   9.612   9.318   1.619  0.0009 -0.4140 -0.8760
  343MOL0     C47252   9.608   9.428   1.715  0.3115  0.1789 -0.8424
  343MOL0     C47253   9.700   9.443   1.821 -0.2858  0.2412 -0.0849
  343MOL0     C47254   9.810   9.356   1.818 -0.2019 -0.3994 -0.0267
  343MOL0     O47255   9.898   9.375   1.926 -0.2142 -0.3816  0.1558
  343MOL0     C47256   9.983   9.491   1.922  1.0596  0.2640  0.0939
  343MOL0     C47257   9.976   9.551   2.064 -0.8789 -0.3077  0.0801
  343MOL0     C47258  10.030   9.692   2.075 -0.8157 -0.6483 -0.4257
  343MOL0     C47259  10.179   9.703   2.045  0.3197  0.2928  0.1108
  343MOL0     C47260  10.210   9.831   1.980  0.6806 -0.5094  0.0126
  343MOL0     C47261  10.245   9.942   1.952  0.2172  0.2322 -0.0699
  343MOL0     C47262   9.812   9.240   1.742  0.3789 -0.0071 -0.5666
  343MOL0     C47263   9.705   9.218   1.646 -0.2623 -0.6710  0.4732
  343MOL0     C47264   9.690   9.090   1.574  0.3796  0.1078  0.9012
  343MOL0     H47265   9.230   9.484   1.553 -2.5885 -2.3386 -0.3315
  343MOL0     H47266   9.038   9.571   1.415 -0.2652  2.5315 -1.6787
  343MOL0     H47267   8.913   9.419   1.146  0.1609 -0.2286 -0.1660
  343MOL0     H47268   9.069   9.412   1.067 -1.3917 -1.4420  0.2585
  343MOL0     H47269   8.996   9.572   0.902  1.2691  1.4565  1.3371
  343MOL0     H47270   8.878   9.444   0.904  2.7524  0.2267 -1.2820
  343MOL0     H47271   8.774   9.603   1.090 -0.6986  0.1643  0.7003
  343MOL0     H47272   8.862   9.730   0.997 -2.1201  0.8584 -0.9641
  343MOL0     H47273   8.749   9.668   0.795  1.7240  0.0110  1.1349
  343MOL0     H47274   8.671   9.534   0.887 -1.7801  0.4654 -1.1078
  343MOL0     H47275   8.576   9.739   1.038  0.2428 -0.1355  0.0845
  343MOL0     H47276   8.495   9.720   0.886 -0.5397  2.1636  0.0986
  343MOL0     H47277   8.734   9.907   0.914  1.1661 -0.1966 -1.7668
  343MOL0     H47278   8.639   9.879   0.765  3.9235  0.2973 -0.2285
  343MOL0     H47279   8.450   9.948   0.867 -0.5873  0.8086  1.9823
  343MOL0     H47280   8.560  10.089   0.902 -0.6905  0.7785 -0.2713
  343MOL0     H47281   8.453   9.912   1.101 -1.2121  1.5898 -2.0660
  343MOL0     H47282   8.620   9.991   1.122  0.1530  2.4159  2.2672
  343MOL0     H47283   8.257  10.049   1.170 -1.5056  1.1997  1.6452
  343MOL0     H47284   8.189  10.427   1.265 -1.0881  0.5315  2.9734
  343MOL0     H47285   8.181  10.305   1.392 -2.0296  0.4276  0.3040
  343MOL0     H47286   8.020  10.294   1.147  2.7737  1.2384 -0.0971
  343MOL0     H47287   8.080  10.145   1.227 -1.1052 -0.5982 -1.2886
  343MOL0     H47288   7.973  10.224   1.432  1.1283  0.7975 -0.0448
  343MOL0     H47289   7.925  10.379   1.357 -1.6564 -0.4059  0.9621
  343MOL0     H47290   7.732  10.263   1.364  0.2721 -3.7420  1.7826
  343MOL0     H47291   7.783  10.273   1.198  0.1923  2.6495  1.1286
  343MOL0     H47292   7.721  10.123   1.525  0.8439  0.9952 -0.8999
  343MOL0     H47293   7.630   9.932   1.775 -2.8083 -0.4716 -0.8174
  343MOL0     H47294   7.470   9.991   1.739  0.1732 -3.2563  0.6819
  343MOL0     H47295   7.626  10.095   1.730 -0.8300  1.0961 -0.6213
  343MOL0     H47296   7.422   9.364   1.538 -1.6098 -2.9639 -1.2133
  343MOL0     H47297   7.258   9.223   1.603  1.3946  0.7872 -1.6681
  343MOL0     H47298   7.058   9.208   1.487 -1.2341  0.6268 -0.5528
  343MOL0     H47299   6.984   9.099   1.618  0.0019  1.1442  1.2375
  343MOL0     H47300   6.778   9.163   1.577  1.5286 -1.5087 -0.7417
  343MOL0     H47301   6.829   9.314   1.493 -2.3923  0.2635  4.3752
  343MOL0     H47302   6.879   9.032   1.352 -1.0426 -0.6901 -2.9760
  343MOL0     H47303   6.880   9.180   1.285  0.7675  0.0846  0.6573
  343MOL0     H47304   6.640   9.217   1.291 -2.1959  0.4268  3.6968
  343MOL0     H47305   6.619   9.080   1.400  1.3257 -1.5161 -0.0380
  343MOL0     H47306   6.729   9.042   1.124  0.3667  3.1738  1.3911
  343MOL0     H47307   6.674   8.913   1.241  2.1542  0.3960  3.9723
  343MOL0     H47308   6.510   9.130   1.109 -0.3604 -1.1117  0.1115
  343MOL0     H47309   6.450   9.029   1.233 -0.5452  1.7063  0.7148
  343MOL0     H47310   6.494   8.830   1.108 -2.7095 -0.6659 -1.7625
  343MOL0     H47311   6.561   8.925   0.963  2.5413 -0.7658  1.1335
  343MOL0     H47312   6.352   8.913   0.900 -0.5850 -1.2345  0.0495
  343MOL0     H47313   6.345   9.064   1.004 -2.9756 -0.6528  2.3668
  343MOL0     H47314   6.984   9.556   1.666  0.5822  2.3133  1.3657
  343MOL0     H47315   7.154   9.704   1.583  0.0037 -0.6710  1.6710
  343MOL0     H47316   7.497   9.750   1.306 -2.0760  0.6785  0.7659
  343MOL0     H47317   7.643   9.894   1.179 -4.0845 -0.7315 -1.0194
  343MOL0     H47318   9.284   9.542   1.072 -0.1286 -0.1476 -0.0127
  343MOL0     H47319   9.479   9.467   1.211 -0.9931 -1.8072 -1.9799
  343MOL0     H47320   9.516   9.484   1.718 -1.0380 -1.9642  1.7328
  343MOL0     H47321   9.688   9.527   1.889 -0.8256 -0.2109  0.3738
  343MOL0     H47322  10.081   9.453   1.890  0.7336 -0.2372 -0.3326
  343MOL0     H47323   9.956   9.569   1.850 -1.6394 -1.7369 -1.2785
  343MOL0     H47324  10.035   9.486   2.129 -1.8578 -0.7166  0.5775
  343MOL0     H47325   9.878   9.551   2.114  0.3675 -3.3110  2.8611
  343MOL0     H47326   9.964   9.747   2.008 -0.5207  0.1707 -0.0565
  343MOL0     H47327  10.023   9.739   2.173  4.9414 -0.1012  0.1016
  343MOL0     H47328  10.210   9.620   1.981  0.1702  1.9401 -2.2100
  343MOL0     H47329  10.238   9.696   2.137 -0.3149 -0.1656  0.4967
  343MOL0     H47330  10.274  10.043   1.933 -1.3399  0.5459 -0.9388
  343MOL0     H47331   9.888   9.162   1.738 -0.1955 -0.9351  2.9086
  343MOL0     H47332   9.736   9.097   1.475  0.7759 -1.8779  0.9110
  343MOL0     H47333   9.737   9.008   1.628 -1.7886 -1.7782  0.0780
  343MOL0     H47334   9.584   9.066   1.561  0.2941  1.4343 -1.4808
  344MOL0     O47335   9.277   5.336   2.838 -0.4393  0.6567 -0.1468
  344MOL0     C47336   9.165   5.292   2.861  0.3154 -0.0251 -0.0495
  344MOL0     O47337   9.060   5.360   2.932  0.1177 -0.0740  0.7097
  344MOL0     C47338   9.087   5.493   2.981  0.5637  0.3085  0.2052
  344MOL0     C47339   9.051   5.513   3.112 -0.2432 -0.4903  0.1942
  344MOL0     C47340   9.072   5.634   3.170 -0.2603  0.0155 -0.1976
  344MOL0     C47341   9.140   5.734   3.093  0.4205  0.1720 -0.9325
  344MOL0     O47342   9.199   5.851   3.157  0.3092 -0.4183  0.1463
  344MOL0     C47343   9.224   5.856   3.298  0.9415 -0.7224 -0.0165
  344MOL0     C47344   9.322   5.966   3.314 -0.6893 -1.1596  0.0581
  344MOL0     C47345   9.407   5.962   3.438 -0.2730 -0.0162 -0.9520
  344MOL0     C47346   9.464   6.105   3.447 -0.8488 -0.3102 -1.0707
  344MOL0     C47347   9.507   6.108   3.593  0.0266  0.4293  0.1570
  344MOL0     C47348   9.587   6.240   3.620  1.0083 -0.0567  0.6209
  344MOL0     C47349   9.717   6.208   3.701  0.8413  0.0434 -0.7382
  344MOL0     C47350   9.694   6.148   3.846 -0.0284  0.4454  0.4144
  344MOL0     N47351   9.620   6.256   3.913 -0.5593  0.0260  0.2373
  344MOL0     C47352   9.507   6.242   3.975 -0.1931  0.1867 -0.9097
  344MOL0     C47353   9.470   6.359   4.033 -0.2925 -0.5612  0.8849
  344MOL0     C47354   9.359   6.394   4.126 -0.7638  0.2857 -0.3505
  344MOL0     C47355   9.270   6.500   4.078  0.9754  0.5322  0.4679
  344MOL0     C47356   9.218   6.587   4.191  0.7872  0.3954  0.4905
  344MOL0     C47357   9.182   6.725   4.128  0.3133  0.3679  0.5035
  344MOL0     O47358   9.083   6.723   4.026 -0.2181 -1.0703 -0.9444
  344MOL0     C47359   8.964   6.668   4.058 -0.3348 -0.1932  0.2652
  344MOL0     C47360   8.903   6.677   4.186  0.0900 -0.9756 -0.0831
  344MOL0     C47361   8.771   6.634   4.208  0.3486  0.6928  0.4390
  344MOL0     C47362   8.715   6.649   4.354  0.3532 -0.5167  0.6364
  344MOL0     C47363   8.697   6.582   4.098 -0.4360  0.1715 -0.5469
  344MOL0     C47364   8.551   6.556   4.111  1.2731 -0.2402 -0.2801
  344MOL0     O47365   8.505   6.471   4.023 -0.0933 -0.0064 -0.6536
  344MOL0     C47366   8.368   6.458   3.986 -1.4276  0.3187  0.2442
  344MOL0     C47367   8.259   6.542   4.018 -0.5810  0.6690  0.3553
  344MOL0     C47368   8.130   6.518   3.967 -0.1599  0.4454  0.1172
  344MOL0     C47369   8.104   6.401   3.887  0.4865  0.7783  0.4715
  344MOL0     O47370   7.981   6.379   3.835  0.0865  0.3952 -0.0273
  344MOL0     C47371   7.871   6.393   3.924  0.1391 -0.0385  0.1772
  344MOL0     C47372   7.785   6.515   3.892 -0.0873  0.0616 -0.1439
  344MOL0     C47373   7.675   6.522   4.000  0.3984 -0.1680  0.5818
  344MOL0     C47374   7.631   6.678   4.009 -0.5076  0.2284  0.3509
  344MOL0     C47375   7.523   6.701   4.112 -0.7590  0.0189 -0.7132
  344MOL0     C47376   7.474   6.840   4.117 -0.0889 -0.1040  0.8552
  344MOL0     C47377   7.384   6.887   4.002 -0.7241  0.5299  0.1734
  344MOL0     C47378   7.339   7.027   4.033 -0.8256  0.1994  1.2120
  344MOL0    Cl47379   7.472   7.142   4.026 -0.1375 -0.1785 -0.0413
  344MOL0     C47380   8.217   6.325   3.835 -1.0679 -0.0194 -0.3885
  344MOL0     C47381   8.342   6.349   3.892  0.9276  0.1981  0.1740
  344MOL0     O47382   8.476   6.612   4.197  0.4351  0.1049  0.0573
  344MOL0     C47383   8.774   6.558   3.985  0.4097  0.0093 -0.5398
  344MOL0     C47384   8.899   6.601   3.961  0.3807  0.9265 -0.2085
  344MOL0     N47385   9.554   6.445   3.981  0.6983 -0.6685  0.5104
  344MOL0     N47386   9.651   6.389   3.919 -0.3965  1.2479  0.0127
  344MOL0     C47387   9.172   5.714   2.960 -0.3718  0.1845 -0.0022
  344MOL0     C47388   9.150   5.582   2.905  0.0993 -0.5291 -0.5096
  344MOL0     C47389   9.137   5.162   2.800  0.1248  0.1390  1.2536
  344MOL0     C47390   9.017   5.119   2.773  0.6298 -0.3804 -0.1137
  344MOL0     C47391   8.978   4.993   2.719  0.4219  0.5122 -0.3006
  344MOL0     C47392   9.076   4.899   2.692  0.5913 -1.3209  0.9973
  344MOL0     O47393   9.033   4.782   2.649 -0.9116 -0.0653  0.7178
  344MOL0     C47394   9.119   4.664   2.646  0.1801 -0.0677  0.0696
  344MOL0     C47395   9.199   4.649   2.512 -0.5734 -0.0368  0.8588
  344MOL0     C47396   9.107   4.610   2.388 -0.5016 -0.3863  0.5387
  344MOL0     C47397   9.091   4.729   2.302  0.0671 -0.1060  0.3818
  344MOL0     C47398   9.041   4.681   2.175  0.1955 -0.0565 -0.4324
  344MOL0     C47399   8.999   4.667   2.067  1.2400  1.0706 -0.3393
  344MOL0     C47400   9.210   4.945   2.702  0.9909 -0.1199  0.2925
  344MOL0     C47401   9.240   5.070   2.749 -0.4733 -0.7099 -0.1897
  344MOL0     C47402   9.389   5.101   2.766 -0.6269 -0.4694 -0.5217
  344MOL0     H47403   9.004   5.433   3.168 -1.5826 -0.7168 -1.2014
  344MOL0     H47404   9.021   5.662   3.262  0.0243 -1.3649  0.3980
  344MOL0     H47405   9.264   5.762   3.336  0.5924 -1.4650 -1.3964
  344MOL0     H47406   9.136   5.873   3.360  0.7274 -3.0740  0.3890
  344MOL0     H47407   9.381   5.957   3.222 -2.1751 -1.2617 -0.9161
  344MOL0     H47408   9.276   6.065   3.307  0.0849 -0.8007 -0.0911
  344MOL0     H47409   9.334   5.932   3.513  0.0611  3.8907  1.2019
  344MOL0     H47410   9.479   5.880   3.432 -2.1519 -1.8518  0.3217
  344MOL0     H47411   9.542   6.118   3.372 -1.7402 -0.2431 -1.9937
  344MOL0     H47412   9.388   6.181   3.427  1.6023  1.6786 -3.4854
  344MOL0     H47413   9.562   6.016   3.612 -1.4304 -0.6759 -0.7441
  344MOL0     H47414   9.427   6.097   3.667  1.8304 -0.9740  1.9922
  344MOL0     H47415   9.619   6.289   3.527 -2.6280  2.1714  0.3472
  344MOL0     H47416   9.521   6.310   3.671 -0.6762 -2.6092  2.1278
  344MOL0     H47417   9.772   6.302   3.713  1.0141 -0.1611  0.1620
  344MOL0     H47418   9.782   6.133   3.654  1.3310  0.8800 -1.4319
  344MOL0     H47419   9.632   6.059   3.847 -0.0761  0.4853  1.0041
  344MOL0     H47420   9.792   6.142   3.894  0.9167  2.6587 -1.0728
  344MOL0     H47421   9.444   6.153   3.981  0.4037 -0.1570  0.4934
  344MOL0     H47422   9.402   6.423   4.222  0.6776  1.2184 -1.2343
  344MOL0     H47423   9.296   6.305   4.140  1.6818 -1.2193  2.1465
  344MOL0     H47424   9.319   6.558   3.998 -0.5032 -1.4187 -2.0042
  344MOL0     H47425   9.182   6.450   4.037  1.6989 -1.6066  1.4133
  344MOL0     H47426   9.130   6.544   4.240 -0.2971  1.1909 -0.7127
  344MOL0     H47427   9.297   6.614   4.263  0.6829  2.6617 -0.1813
  344MOL0     H47428   9.159   6.799   4.205  3.1093  0.1951  1.6210
  344MOL0     H47429   9.275   6.771   4.093  0.2717  0.9252  1.1096
  344MOL0     H47430   8.973   6.701   4.266 -0.3561 -1.7813  0.5662
  344MOL0     H47431   8.629   6.717   4.352 -0.2018 -1.1870 -1.7088
  344MOL0     H47432   8.791   6.690   4.421  2.1134  4.4420 -3.6682
  344MOL0     H47433   8.686   6.550   4.391  0.2048 -1.7184 -2.3540
  344MOL0     H47434   8.276   6.620   4.091  0.4925  1.3626 -0.6190
  344MOL0     H47435   8.043   6.578   3.994 -0.7453  1.1470 -3.0151
  344MOL0     H47436   7.811   6.302   3.916  2.4503 -1.4952 -2.4000
  344MOL0     H47437   7.912   6.390   4.025 -0.7359 -0.3586  0.5343
  344MOL0     H47438   7.855   6.599   3.884  1.8894 -1.6377 -1.7527
  344MOL0     H47439   7.735   6.511   3.795 -1.4949 -0.3310  0.5784
  344MOL0     H47440   7.707   6.489   4.099  0.9519 -3.6340 -0.6328
  344MOL0     H47441   7.593   6.458   3.966  0.5159 -0.7657  1.4139
  344MOL0     H47442   7.600   6.706   3.908  1.8028  0.1864 -0.4285
  344MOL0     H47443   7.711   6.748   4.036 -2.2499  1.2701  3.2098
  344MOL0     H47444   7.445   6.626   4.095 -0.7681  0.1644 -1.3257
  344MOL0     H47445   7.571   6.678   4.208 -1.1017 -3.5452 -1.2654
  344MOL0     H47446   7.554   6.915   4.122 -2.0381  2.0166  1.6232
  344MOL0     H47447   7.408   6.857   4.202 -0.6621 -0.9102  0.5864
  344MOL0     H47448   7.305   6.812   3.992  0.6335 -0.6799 -2.2831
  344MOL0     H47449   7.419   6.882   3.899 -1.3814  3.2984 -0.2582
  344MOL0     H47450   7.291   7.029   4.131 -2.4748 -1.7111  0.5084
  344MOL0     H47451   7.273   7.064   3.953 -2.1781  2.8870  3.4093
  344MOL0     H47452   8.199   6.234   3.779 -1.4339  1.4152 -2.7739
  344MOL0     H47453   8.424   6.291   3.852  0.0208  0.8501 -2.9121
  344MOL0     H47454   8.733   6.516   3.895  0.1487  0.1445 -0.4844
  344MOL0     H47455   8.928   6.569   3.861  1.1277 -0.8972  0.5438
  344MOL0     H47456   9.229   5.780   2.896  2.5602 -2.6081 -0.5063
  344MOL0     H47457   9.178   5.573   2.800  2.2025  0.0778 -0.0513
  344MOL0     H47458   8.941   5.195   2.791 -1.0088 -1.5602 -1.7784
  344MOL0     H47459   8.876   4.960   2.706  0.7971  0.1050 -2.6410
  344MOL0     H47460   9.194   4.679   2.723  0.6895 -2.0382  0.0113
  344MOL0     H47461   9.067   4.569   2.658  0.4172 -0.2519 -0.3284
  344MOL0     H47462   9.264   4.562   2.519 -2.0960 -1.3897 -0.7546
  344MOL0     H47463   9.266   4.734   2.498 -0.2778 -0.2857  0.7481
  344MOL0     H47464   9.162   4.536   2.329 -0.9638 -0.1275 -0.2458
  344MOL0     H47465   9.012   4.564   2.414 -0.6386 -0.5369 -0.1847
  344MOL0     H47466   9.183   4.787   2.294  0.1268 -0.1339  0.8370
  344MOL0     H47467   9.014   4.796   2.342  0.6262 -0.4876  2.2281
  344MOL0     H47468   8.960   4.654   1.968 -0.8501 -0.6984  0.6302
  344MOL0     H47469   9.288   4.882   2.662 -0.0065 -0.2711 -1.5247
  344MOL0     H47470   9.422   5.126   2.867 -3.5817 -4.6071  1.7966
  344MOL0     H47471   9.436   5.003   2.762  1.7402  0.6451 -1.8335
  344MOL0     H47472   9.415   5.171   2.686  0.2921  2.1462  1.8948
  345MOL0     O47473   5.394   7.949   9.398  0.6961  0.5199 -0.3851
  345MOL0     C47474   5.334   8.057   9.403  1.3694  0.3843 -0.3742
  345MOL0     O47475   5.320   8.134   9.517 -0.1485 -0.4017  0.6671
  345MOL0     C47476   5.345   8.070   9.641  0.4612  0.2468  0.1676
  345MOL0     C47477   5.476   8.073   9.693 -0.0396  0.5722  0.5266
  345MOL0     C47478   5.497   8.015   9.824 -0.2878  0.2916  0.1925
  345MOL0     C47479   5.393   7.943   9.896 -0.3527  0.0650  0.3417
  345MOL0     O47480   5.428   7.869  10.005 -0.1218 -0.2851 -0.4971
  345MOL0     C47481   5.352   7.760  10.072 -0.0186  0.2008 -0.5324
  345MOL0     C47482   5.422   7.735  10.201  0.2604  1.4871  0.3247
  345MOL0     C47483   5.574   7.754  10.189  0.1663  0.1583 -0.5565
  345MOL0     C47484   5.636   7.686  10.307 -0.0768  0.2913  0.4581
  345MOL0     C47485   5.661   7.791  10.424 -0.3367  0.1751  0.3677
  345MOL0     C47486   5.797   7.867  10.411 -0.0683 -0.0869 -0.2574
  345MOL0     C47487   5.811   7.959  10.532  0.1270  0.3895  0.6757
  345MOL0     C47488   5.938   8.037  10.547 -0.0634  1.2411 -0.6647
  345MOL0     N47489   5.962   8.115  10.431 -1.0188 -0.0990 -0.1763
  345MOL0     C47490   6.028   8.071  10.313 -0.4283  0.5432 -0.2728
  345MOL0     C47491   6.083   8.192  10.252 -0.0596 -0.6386 -0.7198
  345MOL0     C47492   6.182   8.185  10.136 -0.1424  0.7978  0.2977
  345MOL0     C47493   6.091   8.210  10.007  0.1939  0.4764  0.0716
  345MOL0     C47494   6.173   8.199   9.878 -0.4061 -0.2826  0.4775
  345MOL0     C47495   6.274   8.314   9.869  0.3183 -0.9493 -0.4078
  345MOL0     O47496   6.326   8.322   9.739  0.2885  0.4938 -0.3858
  345MOL0     C47497   6.424   8.417   9.714  0.4671 -0.6396  0.1716
  345MOL0     C47498   6.432   8.473   9.585 -0.0031 -0.4842  0.2987
  345MOL0     C47499   6.534   8.573   9.555 -0.2351 -1.0463  0.3491
  345MOL0     C47500   6.540   8.616   9.415 -0.2643 -0.5017  0.6616
  345MOL0     C47501   6.601   8.632   9.661  0.2873  0.0045 -0.0556
  345MOL0     C47502   6.683   8.758   9.649 -0.3873 -0.0657  0.5506
  345MOL0     O47503   6.780   8.772   9.744 -0.8904 -0.1562 -0.0238
  345MOL0     C47504   6.876   8.874   9.737 -0.8576  0.9437  0.2593
  345MOL0     C47505   6.833   9.003   9.771 -0.1354 -0.0664  0.1336
  345MOL0     C47506   6.925   9.113   9.756  0.2594 -0.2281 -0.2557
  345MOL0     C47507   7.057   9.082   9.719 -1.0737  0.3748  0.0361
  345MOL0     O47508   7.140   9.193   9.707  0.1853 -0.2554  0.4021
  345MOL0     C47509   7.266   9.175   9.644  0.3910 -0.3766 -0.4738
  345MOL0     C47510   7.321   9.302   9.573  0.4695  0.1384 -0.0556
  345MOL0     C47511   7.226   9.373   9.471  0.1952  1.1664 -0.8648
  345MOL0     C47512   7.319   9.462   9.375  0.0418 -0.1113  0.2839
  345MOL0     C47513   7.239   9.548   9.275  0.2791 -0.1529 -0.0804
  345MOL0     C47514   7.152   9.467   9.174  0.0911 -0.6454 -0.6459
  345MOL0     C47515   7.075   9.568   9.096  1.2254 -0.4624  0.6324
  345MOL0     C47516   7.049   9.522   8.957 -0.5264 -0.1829 -0.0891
  345MOL0    Cl47517   6.988   9.360   8.953 -0.0365  0.5226  0.2526
  345MOL0     C47518   7.103   8.944   9.696 -0.4569  0.4415 -0.5790
  345MOL0     C47519   7.014   8.841   9.705 -0.1247 -0.0650  1.0273
  345MOL0     O47520   6.659   8.839   9.560  0.5215  0.2920  0.1413
  345MOL0     C47521   6.587   8.586   9.791  0.2139  0.5584  0.4833
  345MOL0     C47522   6.495   8.480   9.817 -0.5847  0.3273 -0.7005
  345MOL0     N47523   6.031   8.297  10.325 -0.5029  0.0331 -0.1654
  345MOL0     N47524   5.960   8.254  10.427 -0.0109  0.3200 -0.5999
  345MOL0     C47525   5.267   7.940   9.832 -0.5096 -1.9195 -0.7081
  345MOL0     C47526   5.245   8.015   9.712 -0.1600  0.9841 -1.1514
  345MOL0     C47527   5.268   8.120   9.284 -0.2014  0.1178  0.3292
  345MOL0     C47528   5.252   8.259   9.285 -0.4053  0.3404 -0.5161
  345MOL0     C47529   5.201   8.314   9.164  0.1570  0.4301  0.1024
  345MOL0     C47530   5.159   8.235   9.052 -0.0693 -0.4615  0.1659
  345MOL0     O47531   5.124   8.301   8.941  0.1603 -0.0849  0.4613
  345MOL0     C47532   5.088   8.238   8.824  0.1850  1.1742 -0.1119
  345MOL0     C47533   4.953   8.288   8.761 -0.6023 -0.5834  0.4661
  345MOL0     C47534   4.967   8.443   8.735 -0.5295 -0.6650 -0.1766
  345MOL0     C47535   4.845   8.507   8.695  0.5649 -0.5863  1.1162
  345MOL0     C47536   4.819   8.472   8.556 -0.9331  0.7112 -0.1481
  345MOL0     C47537   4.809   8.448   8.433 -0.2705  0.5381 -0.2163
  345MOL0     C47538   5.169   8.098   9.056  0.3588  0.0209 -0.4841
  345MOL0     C47539   5.223   8.034   9.171  0.9855 -1.7824 -0.1103
  345MOL0     C47540   5.220   7.881   9.170 -1.0556 -0.1603  0.6687
  345MOL0     H47541   5.568   8.107   9.646  1.3272 -1.6295  1.3940
  345MOL0     H47542   5.599   8.022   9.859  1.6071  2.4697 -4.8404
  345MOL0     H47543   5.361   7.673  10.007  1.1596  0.5431 -0.8476
  345MOL0     H47544   5.248   7.786  10.095  0.6699  0.7638  2.3350
  345MOL0     H47545   5.385   7.804  10.277 -0.6574  1.6125 -0.2260
  345MOL0     H47546   5.395   7.629  10.209  1.1361  0.8519 -3.1973
  345MOL0     H47547   5.614   7.704  10.101  0.0613 -1.8240  0.4622
  345MOL0     H47548   5.604   7.859  10.181  3.6240 -0.6600  0.0335
  345MOL0     H47549   5.569   7.609  10.346  0.6275  0.0532  1.2242
  345MOL0     H47550   5.730   7.636  10.282  0.1066  0.6742  0.3713
  345MOL0     H47551   5.665   7.729  10.514  1.5422 -4.5192 -2.6045
  345MOL0     H47552   5.581   7.865  10.420  0.2854  0.8339 -0.2295
  345MOL0     H47553   5.874   7.789  10.407 -0.2467 -0.3873  1.3811
  345MOL0     H47554   5.788   7.930  10.322 -0.9830  2.8431  1.7560
  345MOL0     H47555   5.802   7.894  10.619  1.3140  1.6594  1.7812
  345MOL0     H47556   5.730   8.032  10.534  0.5892  0.9894 -0.8817
  345MOL0     H47557   5.918   8.110  10.626 -1.8150 -0.1080  0.2143
  345MOL0     H47558   6.015   7.967  10.580 -0.9802 -0.8545 -2.6615
  345MOL0     H47559   6.048   7.969  10.283  0.6414  0.4628  0.6507
  345MOL0     H47560   6.216   8.082  10.123  0.6084  0.9613  0.9370
  345MOL0     H47561   6.270   8.249  10.147  0.0498  0.8750 -1.4163
  345MOL0     H47562   6.015   8.132  10.003  0.1728  0.1943  3.3882
  345MOL0     H47563   6.027   8.299  10.017 -2.4656 -1.2823 -0.3161
  345MOL0     H47564   6.220   8.102   9.864  0.9981  0.3563  0.5592
  345MOL0     H47565   6.105   8.206   9.793 -1.0072  0.1637  0.9880
  345MOL0     H47566   6.224   8.403   9.909  0.3583 -1.5893  1.1401
  345MOL0     H47567   6.348   8.298   9.949 -2.3576  1.3787  2.8569
  345MOL0     H47568   6.352   8.455   9.514  1.7497  0.6374 -2.0536
  345MOL0     H47569   6.509   8.721   9.403  0.3959 -0.2826  0.8337
  345MOL0     H47570   6.477   8.551   9.354 -0.0110  0.4716 -0.6989
  345MOL0     H47571   6.643   8.606   9.381 -0.3625 -1.9710  0.7228
  345MOL0     H47572   6.728   9.011   9.796 -0.3906 -0.5567 -0.7536
  345MOL0     H47573   6.891   9.216   9.749 -1.2888 -0.7771 -1.4295
  345MOL0     H47574   7.337   9.128   9.712  2.1915  0.0260 -1.9601
  345MOL0     H47575   7.253   9.113   9.555 -2.0649  1.7441 -1.7229
  345MOL0     H47576   7.352   9.373   9.649  3.3923 -1.5768  0.5050
  345MOL0     H47577   7.417   9.280   9.526  0.1455  0.3702 -0.8437
  345MOL0     H47578   7.149   9.444   9.504  2.1875  3.5350 -0.9875
  345MOL0     H47579   7.191   9.292   9.407  1.3020 -0.6804  0.7526
  345MOL0     H47580   7.387   9.401   9.315  1.8083  0.2134  1.8786
  345MOL0     H47581   7.390   9.513   9.441  1.9996 -3.1062  0.6796
  345MOL0     H47582   7.183   9.619   9.336  3.0911  0.4104  2.0299
  345MOL0     H47583   7.315   9.612   9.228 -0.5586  0.5172 -0.5431
  345MOL0     H47584   7.103   9.384   9.226  2.2270 -0.1071  2.5364
  345MOL0     H47585   7.225   9.408   9.117  3.3960  1.9602  0.5332
  345MOL0     H47586   7.130   9.662   9.090  1.6608 -0.7780 -0.6424
  345MOL0     H47587   6.977   9.579   9.143 -0.3691  1.6235 -2.7547
  345MOL0     H47588   7.142   9.539   8.902 -1.2601  0.9960 -1.0154
  345MOL0     H47589   6.980   9.588   8.904 -0.0701  0.1037 -0.3260
  345MOL0     H47590   7.205   8.932   9.661 -0.1807 -1.1731  0.6619
  345MOL0     H47591   7.027   8.737   9.677 -3.0016 -0.8338  2.2095
  345MOL0     H47592   6.651   8.619   9.872  0.5345  1.1315  0.0032
  345MOL0     H47593   6.499   8.447   9.920  0.0764  0.3119 -0.7265
  345MOL0     H47594   5.185   7.892   9.885 -0.0308 -1.4527  0.5022
  345MOL0     H47595   5.141   8.000   9.684  0.0260 -3.4240 -0.1261
  345MOL0     H47596   5.261   8.322   9.373 -1.3296 -1.5221  0.9968
  345MOL0     H47597   5.174   8.419   9.164 -0.7894  0.2307  2.1158
  345MOL0     H47598   5.176   8.241   8.759 -0.8082 -0.5186 -1.6490
  345MOL0     H47599   5.060   8.133   8.838 -0.5838  1.3744 -0.1036
  345MOL0     H47600   4.871   8.272   8.831 -0.4393 -3.9242  0.0434
  345MOL0     H47601   4.929   8.237   8.667 -0.6740 -2.3468  1.4157
  345MOL0     H47602   5.006   8.486   8.828 -3.1076 -0.7725  1.0556
  345MOL0     H47603   5.049   8.448   8.663 -0.0407 -1.3386  0.3174
  345MOL0     H47604   4.849   8.617   8.696  1.9123 -0.5993  0.2614
  345MOL0     H47605   4.755   8.471   8.745 -1.5464  0.6364 -1.5039
  345MOL0     H47606   4.809   8.405   8.336  1.0342 -2.1324  0.8609
  345MOL0     H47607   5.146   8.030   8.974 -0.8853  1.4309 -1.3541
  345MOL0     H47608   5.160   7.845   9.254  1.1201 -2.2669  1.4351
  345MOL0     H47609   5.190   7.833   9.077 -1.6678 -0.5923  1.0810
  345MOL0     H47610   5.323   7.844   9.167 -1.2401 -0.7542  1.3102
  346MOL0     O47611   3.819   7.580   2.424 -1.0595  0.1812  0.6022
  346MOL0     C47612   3.903   7.501   2.470  0.8823  0.1242  0.3361
  346MOL0     O47613   3.903   7.368   2.447  0.1630  0.2859 -0.0175
  346MOL0     C47614   3.847   7.319   2.334 -0.1683 -0.0463 -0.0143
  346MOL0     C47615   3.725   7.264   2.351  0.3547 -0.1381 -0.5290
  346MOL0     C47616   3.648   7.215   2.245 -0.4364  0.1263 -0.2966
  346MOL0     C47617   3.695   7.228   2.110 -0.1007 -0.5816 -0.3369
  346MOL0     O47618   3.611   7.189   2.006  0.6912  0.8381 -0.5242
  346MOL0     C47619   3.670   7.196   1.875  0.4781  0.3585  0.1840
  346MOL0     C47620   3.743   7.073   1.821 -0.7870  0.3810 -0.8339
  346MOL0     C47621   3.709   7.050   1.671 -0.1281  0.2853  0.0945
  346MOL0     C47622   3.785   6.920   1.627 -0.3098 -0.9559 -0.0968
  346MOL0     C47623   3.743   6.851   1.493  0.0049  0.6674 -0.7247
  346MOL0     C47624   3.761   6.938   1.374 -0.1301 -0.2210 -0.5006
  346MOL0     C47625   3.702   6.877   1.244 -0.0209  0.4910  0.2965
  346MOL0     C47626   3.578   6.802   1.238  0.3934  0.0706 -0.1673
  346MOL0     N47627   3.541   6.765   1.097  0.4417 -0.2291  0.0405
  346MOL0     C47628   3.439   6.812   1.022  0.5334  0.0021 -0.0463
  346MOL0     C47629   3.453   6.754   0.899  0.1426 -0.3638  1.3545
  346MOL0     C47630   3.361   6.747   0.784 -0.5661  0.0081 -0.5223
  346MOL0     C47631   3.257   6.637   0.786 -0.0008 -0.2386 -0.7177
  346MOL0     C47632   3.137   6.681   0.872  0.7129  0.5769 -0.1382
  346MOL0     C47633   3.021   6.585   0.896 -0.2135 -1.4083  0.3510
  346MOL0     O47634   2.952   6.578   0.767  0.7884  0.7087  0.0005
  346MOL0     C47635   2.834   6.512   0.763  0.0831 -0.4204 -1.3078
  346MOL0     C47636   2.777   6.501   0.636 -0.4101  0.9952 -1.1004
  346MOL0     C47637   2.657   6.449   0.613  0.4816 -0.0697 -1.3492
  346MOL0     C47638   2.621   6.442   0.467  0.1088 -0.0658 -0.1567
  346MOL0     C47639   2.570   6.411   0.718  0.3080  0.0455 -0.0595
  346MOL0     C47640   2.443   6.356   0.696 -0.2998  0.2108 -0.4985
  346MOL0     O47641   2.404   6.263   0.793 -0.0541 -0.3210  0.7286
  346MOL0     C47642   2.299   6.179   0.771 -0.1677  0.2920 -0.1375
  346MOL0     C47643   2.227   6.150   0.883 -0.1315  0.6390 -0.0270
  346MOL0     C47644   2.117   6.070   0.867  0.2595 -0.5466 -0.1893
  346MOL0     C47645   2.072   6.009   0.747 -0.0934  0.1407  0.3423
  346MOL0     O47646   1.952   5.938   0.748 -0.0084 -0.9167  0.6341
  346MOL0     C47647   1.931   5.865   0.628  0.3155  0.7032  0.8323
  346MOL0     C47648   1.815   5.765   0.653 -0.3835 -0.0857 -0.0892
  346MOL0     C47649   1.786   5.671   0.525  1.1555 -0.4565 -0.2335
  346MOL0     C47650   1.669   5.582   0.548  0.0871 -0.3570 -0.5882
  346MOL0     C47651   1.636   5.507   0.420 -0.8854  0.6366 -0.1011
  346MOL0     C47652   1.509   5.416   0.435  0.4367  1.4888  0.7371
  346MOL0     C47653   1.442   5.404   0.301  0.3860 -1.2226 -0.0403
  346MOL0     C47654   1.539   5.349   0.191 -0.0317 -0.1351  0.5176
  346MOL0    Cl47655   1.596   5.176   0.260  0.2765 -0.5756 -0.0302
  346MOL0     C47656   2.158   6.032   0.638  0.7349 -0.9749  1.1587
  346MOL0     C47657   2.263   6.124   0.648 -0.2078  0.5690  0.1229
  346MOL0     O47658   2.371   6.395   0.603 -0.3047  0.3928 -0.0624
  346MOL0     C47659   2.622   6.426   0.849  0.0418 -0.3677 -0.0458
  346MOL0     C47660   2.742   6.489   0.874 -0.4523  0.0268 -0.7802
  346MOL0     N47661   3.566   6.676   0.903  0.8392 -0.0587  1.1775
  346MOL0     N47662   3.610   6.675   1.023 -0.0030  0.2334  0.3397
  346MOL0     C47663   3.824   7.296   2.099  0.0186 -0.7737  1.0299
  346MOL0     C47664   3.897   7.339   2.212 -0.4380  0.1877 -0.3903
  346MOL0     C47665   4.023   7.550   2.545  0.6784 -0.3949 -0.0453
  346MOL0     C47666   4.147   7.481   2.539 -0.7708  0.2106 -0.6797
  346MOL0     C47667   4.259   7.518   2.609  0.3328 -0.1869 -0.6828
  346MOL0     C47668   4.261   7.628   2.688  0.0345 -0.0246  0.6258
  346MOL0     O47669   4.378   7.670   2.743  0.5791  0.0456  0.3175
  346MOL0     C47670   4.404   7.784   2.831 -0.3441 -0.0217 -1.0991
  346MOL0     C47671   4.388   7.748   2.978  0.4513 -0.2048  0.4242
  346MOL0     C47672   4.479   7.636   3.033  0.0287 -0.5889  0.9745
  346MOL0     C47673   4.413   7.559   3.142  0.8906 -0.7290 -1.1238
  346MOL0     C47674   4.517   7.479   3.208 -0.4554  0.2189  0.2213
  346MOL0     C47675   4.603   7.421   3.262  0.1648  0.2013 -0.4394
  346MOL0     C47676   4.138   7.701   2.691  0.3738 -0.3465  0.0295
  346MOL0     C47677   4.017   7.667   2.623 -0.4175 -0.8900  0.3302
  346MOL0     C47678   3.886   7.758   2.633 -0.2279  0.4437 -0.5316
  346MOL0     H47679   3.681   7.254   2.450  1.4207  0.4222  0.0207
  346MOL0     H47680   3.556   7.160   2.264 -0.4599 -0.6558 -2.3622
  346MOL0     H47681   3.733   7.284   1.859  0.4654  1.2731  4.1078
  346MOL0     H47682   3.588   7.204   1.802  1.8106  3.1483 -1.1508
  346MOL0     H47683   3.850   7.074   1.844 -1.1728 -2.6163  1.6851
  346MOL0     H47684   3.700   6.986   1.871 -2.0006  1.2533 -0.3315
  346MOL0     H47685   3.600   7.037   1.669 -0.0427 -0.3545 -1.3713
  346MOL0     H47686   3.723   7.133   1.600  2.0402  0.6240  0.8319
  346MOL0     H47687   3.891   6.944   1.617 -0.7300  1.2540  0.2835
  346MOL0     H47688   3.767   6.842   1.702  0.8961 -4.3993 -3.0446
  346MOL0     H47689   3.635   6.836   1.493 -0.0317  0.9288 -0.7796
  346MOL0     H47690   3.805   6.761   1.485  1.6737  1.3301  2.6962
  346MOL0     H47691   3.721   7.039   1.391 -2.3824 -0.3070 -4.1706
  346MOL0     H47692   3.868   6.960   1.361 -0.5254  1.4367 -1.2940
  346MOL0     H47693   3.782   6.816   1.203  1.3665  0.9979  2.1207
  346MOL0     H47694   3.690   6.958   1.172 -0.1933 -1.5160 -2.0679
  346MOL0     H47695   3.587   6.707   1.291  0.7799 -0.0455 -0.4372
  346MOL0     H47696   3.497   6.864   1.278 -1.6143 -0.4344 -3.1686
  346MOL0     H47697   3.358   6.873   1.061  1.4120 -0.6006  2.9506
  346MOL0     H47698   3.425   6.721   0.699 -0.1960 -0.9367  0.0270
  346MOL0     H47699   3.314   6.845   0.770 -1.3747  0.1531  2.6050
  346MOL0     H47700   3.211   6.608   0.691 -2.8485  1.9409 -0.1350
  346MOL0     H47701   3.299   6.544   0.826 -0.6440  0.4060  1.6518
  346MOL0     H47702   3.164   6.720   0.971 -3.7131 -0.8576  1.8997
  346MOL0     H47703   3.081   6.766   0.832 -3.1503 -1.1313  1.1410
  346MOL0     H47704   3.069   6.493   0.929  1.3910 -1.5459 -2.1521
  346MOL0     H47705   2.954   6.638   0.965 -0.1095  3.4149 -2.7287
  346MOL0     H47706   2.851   6.524   0.560  2.4842  3.5898  2.1497
  346MOL0     H47707   2.707   6.484   0.414  0.0661  0.1339 -0.0696
  346MOL0     H47708   2.536   6.504   0.435 -0.3366 -1.4753 -1.8560
  346MOL0     H47709   2.605   6.343   0.424  2.2647 -0.4366 -0.1751
  346MOL0     H47710   2.243   6.198   0.979 -3.2977  1.6097  0.1406
  346MOL0     H47711   2.049   6.055   0.950 -2.6260 -3.7102 -2.7985
  346MOL0     H47712   1.898   5.930   0.546 -0.0583  0.1325  0.5296
  346MOL0     H47713   2.017   5.816   0.583 -1.1284 -0.6018 -0.6499
  346MOL0     H47714   1.826   5.699   0.740 -3.8010 -0.5208  0.1538
  346MOL0     H47715   1.729   5.826   0.680 -1.3520 -1.3558 -0.2181
  346MOL0     H47716   1.869   5.605   0.498  2.4669 -1.1819  4.6415
  346MOL0     H47717   1.761   5.735   0.440 -4.4228 -3.5416 -1.3904
  346MOL0     H47718   1.580   5.646   0.552  0.5794  0.3249 -0.3263
  346MOL0     H47719   1.681   5.519   0.637  1.2432  1.1845  0.3916
  346MOL0     H47720   1.618   5.580   0.341  1.5339  0.5137 -0.8403
  346MOL0     H47721   1.721   5.454   0.378 -2.5481 -0.6580 -2.0166
  346MOL0     H47722   1.445   5.470   0.506 -2.6196 -1.5779  0.5355
  346MOL0     H47723   1.522   5.311   0.463 -0.0352  0.7752 -1.5173
  346MOL0     H47724   1.404   5.503   0.275  0.5246 -0.7212  1.5696
  346MOL0     H47725   1.353   5.343   0.322 -0.2306  0.0950  1.3517
  346MOL0     H47726   1.634   5.401   0.175 -0.1313 -0.2906 -0.6943
  346MOL0     H47727   1.484   5.349   0.096 -1.4345  2.0208  1.2638
  346MOL0     H47728   2.141   5.982   0.542 -0.0149  1.0340  0.1756
  346MOL0     H47729   2.329   6.145   0.565  0.1313 -1.4577 -0.1606
  346MOL0     H47730   2.568   6.394   0.938  1.5809  0.2430  1.1414
  346MOL0     H47731   2.765   6.495   0.980  2.1857  0.9424 -1.3254
  346MOL0     H47732   3.861   7.314   1.999 -2.9329 -1.1362 -0.2048
  346MOL0     H47733   3.984   7.402   2.196 -1.6484  2.2066  0.4772
  346MOL0     H47734   4.157   7.391   2.478  0.1319  0.4992 -0.9791
  346MOL0     H47735   4.351   7.460   2.610 -0.6978 -2.0096 -2.5010
  346MOL0     H47736   4.506   7.819   2.815 -0.5520 -0.2671 -3.4300
  346MOL0     H47737   4.333   7.863   2.806 -0.6586  0.3734  0.9130
  346MOL0     H47738   4.281   7.730   2.995  0.4513 -1.7757 -0.9743
  346MOL0     H47739   4.408   7.837   3.039  0.3605  1.4238 -1.8207
  346MOL0     H47740   4.504   7.557   2.961  3.0294  0.2500  0.9435
  346MOL0     H47741   4.570   7.685   3.068  1.1922 -2.8717  1.3836
  346MOL0     H47742   4.338   7.499   3.090  1.6073 -2.4533 -0.2613
  346MOL0     H47743   4.352   7.625   3.205 -1.8455 -2.1301 -2.1426
  346MOL0     H47744   4.673   7.343   3.283  0.8942  1.1353  0.7060
  346MOL0     H47745   4.139   7.788   2.755 -0.2920  2.1977 -3.1415
  346MOL0     H47746   3.795   7.704   2.660 -1.0036  0.4717 -2.8623
  346MOL0     H47747   3.916   7.825   2.713  0.7953  1.2133 -1.5218
  346MOL0     H47748   3.867   7.811   2.539 -0.4406  1.3610  0.0283
  347MOL0     O47749   0.020  10.577   2.313  0.0062 -0.2149  0.4412
  347MOL0     C47750  -0.065  10.650   2.358  0.3012  0.0890 -0.9173
  347MOL0     O47751  -0.141  10.739   2.286  0.4367  0.3376 -0.5114
  347MOL0     C47752  -0.125  10.731   2.143  0.2703 -0.2149  0.1838
  347MOL0     C47753  -0.059  10.830   2.074 -1.2285 -0.1505 -0.4116
  347MOL0     C47754  -0.049  10.828   1.932  1.2307 -1.0252  0.0407
  347MOL0     C47755  -0.117  10.724   1.861 -0.8648  0.4853 -0.8988
  347MOL0     O47756  -0.097  10.701   1.733 -0.1145  0.3366  0.9560
  347MOL0     C47757  -0.190  10.776   1.658 -0.2729 -0.4393  0.1041
  347MOL0     C47758  -0.154  10.772   1.505  0.0545 -0.1475  0.0171
  347MOL0     C47759  -0.182  10.639   1.452 -0.1363  0.2406 -0.1663
  347MOL0     C47760  -0.161  10.637   1.292 -0.0030  0.6495 -0.1448
  347MOL0     C47761  -0.242  10.728   1.194  0.3821  0.8008 -0.4977
  347MOL0     C47762  -0.397  10.695   1.198  0.5157  0.4246  0.0041
  347MOL0     C47763  -0.471  10.760   1.078 -0.1734  0.6218 -0.1634
  347MOL0     C47764  -0.618  10.749   1.101 -0.1325  0.7843  0.8912
  347MOL0     N47765  -0.692  10.821   1.000  0.1630 -0.2282  0.7101
  347MOL0     C47766  -0.652  10.891   0.887  0.0160 -0.4009 -0.0649
  347MOL0     C47767  -0.763  10.916   0.813 -0.0437 -0.0566  0.0895
  347MOL0     C47768  -0.778  10.977   0.676 -0.0832 -0.2536  0.0455
  347MOL0     C47769  -0.711  10.890   0.568 -0.5147  0.0242  0.4651
  347MOL0     C47770  -0.753  10.943   0.431 -0.0270 -0.0843  0.1721
  347MOL0     C47771  -0.887  10.895   0.372 -0.3219 -0.6519 -0.1677
  347MOL0     O47772  -0.997  10.946   0.442  0.1038  0.2200 -0.2892
  347MOL0     C47773  -1.055  11.066   0.406 -0.4602  0.3193 -0.1733
  347MOL0     C47774  -0.999  11.158   0.306 -0.1019 -0.0602 -0.6378
  347MOL0     C47775  -1.036  11.294   0.302 -0.8003  0.2307 -0.2121
  347MOL0     C47776  -0.951  11.395   0.227 -0.2133  0.5021 -0.6357
  347MOL0     C47777  -1.151  11.343   0.375 -0.3505 -0.3231 -0.0951
  347MOL0     C47778  -1.209  11.484   0.365  0.2013  0.2505 -0.0773
  347MOL0     O47779  -1.168  11.573   0.266 -0.0574 -0.6789 -1.0478
  347MOL0     C47780  -1.234  11.689   0.262 -0.3046 -0.8055 -0.7886
  347MOL0     C47781  -1.361  11.699   0.220  0.0233  0.2385  0.4777
  347MOL0     C47782  -1.430  11.819   0.209  0.2994  0.1862 -0.2380
  347MOL0     C47783  -1.369  11.940   0.259  0.1395  0.1903  0.0840
  347MOL0     O47784  -1.413  12.072   0.259 -0.2062 -0.4312 -0.1325
  347MOL0     C47785  -1.528  12.105   0.182 -0.2321 -0.0697 -0.1450
  347MOL0     C47786  -1.532  12.260   0.177  0.0469  0.4576 -0.1818
  347MOL0     C47787  -1.567  12.322   0.313  0.8749  0.9034 -0.0657
  347MOL0     C47788  -1.538  12.473   0.320  0.0767 -0.5266  0.2455
  347MOL0     C47789  -1.563  12.524   0.458 -0.0927 -0.2528  0.4880
  347MOL0     C47790  -1.570  12.670   0.464 -0.3073 -0.5864  0.6404
  347MOL0     C47791  -1.653  12.735   0.577  0.6458  0.1477  0.5232
  347MOL0     C47792  -1.671  12.881   0.561  0.2667  0.0541  0.1961
  347MOL0    Cl47793  -1.515  12.960   0.555 -0.0266 -0.4851 -0.2755
  347MOL0     C47794  -1.237  11.927   0.318  0.1245  0.0362 -0.2361
  347MOL0     C47795  -1.169  11.803   0.315 -0.5707  0.0914 -0.4455
  347MOL0     O47796  -1.290  11.509   0.452  0.0967 -1.3680  0.4140
  347MOL0     C47797  -1.185  11.247   0.480  0.2084  0.5092 -0.4541
  347MOL0     C47798  -1.148  11.112   0.498  1.2580  0.5245  0.5595
  347MOL0     N47799  -0.869  10.886   0.886  0.3653 -0.0960  0.4395
  347MOL0     N47800  -0.830  10.839   0.997  0.6385 -0.3386 -1.0162
  347MOL0     C47801  -0.190  10.627   1.926  0.5986  0.4292 -0.5503
  347MOL0     C47802  -0.204  10.642   2.066 -0.1159  0.0397 -0.8510
  347MOL0     C47803  -0.096  10.631   2.507 -0.3112 -0.9861  0.0003
  347MOL0     C47804  -0.210  10.684   2.560  0.0827 -0.1535  0.2668
  347MOL0     C47805  -0.239  10.666   2.697 -1.0276  0.4688  0.0488
  347MOL0     C47806  -0.149  10.613   2.787 -0.4148 -0.2387  0.3207
  347MOL0     O47807  -0.187  10.607   2.922 -0.1550 -0.2117  0.5800
  347MOL0     C47808  -0.079  10.575   3.012 -1.0566  0.4565 -0.4105
  347MOL0     C47809  -0.122  10.623   3.147  0.0208  0.5785 -0.6640
  347MOL0     C47810  -0.264  10.566   3.187  0.0522  1.0738 -0.6233
  347MOL0     C47811  -0.299  10.585   3.335  0.4814  0.6187  0.2739
  347MOL0     C47812  -0.220  10.503   3.426  0.1823  0.3309 -0.1956
  347MOL0     C47813  -0.146  10.443   3.500 -0.4118  0.6259 -0.2775
  347MOL0     C47814  -0.033  10.568   2.733  0.1014 -1.2194 -0.1145
  347MOL0     C47815  -0.005  10.568   2.597 -0.2597 -0.8207 -0.7851
  347MOL0     C47816   0.131  10.502   2.566  0.1087 -0.5800  1.1283
  347MOL0     H47817  -0.001  10.902   2.131  3.2053 -1.7160 -2.4346
  347MOL0     H47818  -0.001  10.910   1.880  0.6533 -0.5676  0.2088
  347MOL0     H47819  -0.191  10.880   1.692  0.1426  0.4363 -2.3818
  347MOL0     H47820  -0.292  10.740   1.677  0.2060 -0.1951  3.9645
  347MOL0     H47821  -0.215  10.849   1.456 -0.5000 -1.1534 -0.9113
  347MOL0     H47822  -0.050  10.797   1.482  0.1610  3.8966  3.5594
  347MOL0     H47823  -0.103  10.573   1.489 -0.9784 -0.4854  0.3773
  347MOL0     H47824  -0.275  10.593   1.487  0.3156 -1.4565 -1.0689
  347MOL0     H47825  -0.058  10.665   1.267  0.2095 -0.4920 -0.5928
  347MOL0     H47826  -0.172  10.532   1.262  2.5911  0.4406 -0.5895
  347MOL0     H47827  -0.207  10.710   1.092  2.4775  1.2072  0.1150
  347MOL0     H47828  -0.217  10.832   1.218  1.5920 -0.2172  3.2557
  347MOL0     H47829  -0.405  10.586   1.197 -0.1098  0.4698 -0.3374
  347MOL0     H47830  -0.431  10.728   1.296  0.4249 -1.6967  0.7409
  347MOL0     H47831  -0.443  10.718   0.981  0.1341 -2.8592  1.2583
  347MOL0     H47832  -0.438  10.864   1.075  4.3236 -0.5541  0.8458
  347MOL0     H47833  -0.634  10.642   1.082 -0.1151  0.6360  1.6805
  347MOL0     H47834  -0.639  10.773   1.205 -2.1406  0.5273  0.5796
  347MOL0     H47835  -0.550  10.891   0.850  0.4344  4.0806  0.5438
  347MOL0     H47836  -0.722  11.071   0.680  1.7178 -1.3165  2.6429
  347MOL0     H47837  -0.886  10.987   0.660 -0.0895 -0.9139 -0.3727
  347MOL0     H47838  -0.603  10.904   0.585  0.3296 -4.0501 -0.4249
  347MOL0     H47839  -0.727  10.784   0.587 -0.4225  0.3321  2.6106
  347MOL0     H47840  -0.748  11.052   0.424  0.2130 -0.1758 -1.3824
  347MOL0     H47841  -0.669  10.916   0.368  1.4161  2.1468  1.0101
  347MOL0     H47842  -0.894  10.922   0.266  1.4497 -1.3955 -0.5048
  347MOL0     H47843  -0.887  10.786   0.373  3.4186 -0.8058 -1.0825
  347MOL0     H47844  -0.914  11.131   0.244  0.7852  1.1251  0.0022
  347MOL0     H47845  -0.931  11.491   0.277  0.9263  0.0102 -0.1097
  347MOL0     H47846  -0.999  11.405   0.130  1.2751 -0.1726 -1.4817
  347MOL0     H47847  -0.852  11.351   0.210  0.7853  1.8928  1.1747
  347MOL0     H47848  -1.394  11.615   0.161  2.0599 -0.1101 -0.2518
  347MOL0     H47849  -1.521  11.817   0.150  0.1794  2.1213 -0.1892
  347MOL0     H47850  -1.520  12.053   0.086 -0.7646 -1.1563  0.3949
  347MOL0     H47851  -1.613  12.063   0.236 -1.3369  2.8477  0.5864
  347MOL0     H47852  -1.430  12.291   0.149 -0.1562  1.5743  0.2579
  347MOL0     H47853  -1.600  12.286   0.095 -1.0512 -1.0823  0.2012
  347MOL0     H47854  -1.513  12.271   0.394  0.4609 -0.7377 -0.7892
  347MOL0     H47855  -1.674  12.316   0.331  1.1458 -0.7194  1.2697
  347MOL0     H47856  -1.608  12.527   0.256 -0.4308  1.9043  2.6967
  347MOL0     H47857  -1.437  12.489   0.280 -0.1237 -0.8513 -0.4109
  347MOL0     H47858  -1.659  12.481   0.490 -0.8672 -1.2201 -2.8252
  347MOL0     H47859  -1.480  12.498   0.524 -0.3330 -0.5989  0.6535
  347MOL0     H47860  -1.624  12.711   0.378  0.4052 -0.3342  0.3090
  347MOL0     H47861  -1.468  12.708   0.472 -1.0362  1.0715  2.9280
  347MOL0     H47862  -1.629  12.720   0.682 -2.7711  1.6645  1.6886
  347MOL0     H47863  -1.756  12.697   0.569  0.1592  1.1489  1.6396
  347MOL0     H47864  -1.729  12.928   0.641  1.6986 -1.6719  2.3870
  347MOL0     H47865  -1.714  12.893   0.462 -0.6250  0.9424  0.6745
  347MOL0     H47866  -1.197  12.017   0.363 -0.3371 -0.4287  1.1635
  347MOL0     H47867  -1.070  11.803   0.359 -0.3809  1.4670 -0.8165
  347MOL0     H47868  -1.260  11.284   0.550 -2.2929 -0.3876 -2.4891
  347MOL0     H47869  -1.178  11.048   0.580 -0.6701 -1.1415 -1.3131
  347MOL0     H47870  -0.241  10.552   1.868  2.1747 -0.1651 -1.2227
  347MOL0     H47871  -0.268  10.575   2.122  2.3064 -1.1776  0.5861
  347MOL0     H47872  -0.287  10.728   2.497 -1.0533 -1.4112  0.7341
  347MOL0     H47873  -0.331  10.711   2.732 -2.3225  0.5106 -3.0623
  347MOL0     H47874  -0.057  10.468   3.019 -2.4902  0.1551 -0.1843
  347MOL0     H47875   0.012  10.635   3.002  0.0232 -0.6866  1.7195
  347MOL0     H47876  -0.119  10.732   3.156  1.9496  0.4007  3.0130
  347MOL0     H47877  -0.041  10.602   3.218 -1.0904  0.1939  0.5349
  347MOL0     H47878  -0.344  10.606   3.124 -0.3917  0.0344 -0.7387
  347MOL0     H47879  -0.249  10.458   3.179  2.9539  1.2695  0.6745
  347MOL0     H47880  -0.407  10.566   3.345  0.8420 -1.8378 -0.0534
  347MOL0     H47881  -0.283  10.691   3.355  1.5270  1.0373 -2.3760
  347MOL0     H47882  -0.087  10.400   3.578 -0.6932  3.8307  1.9316
  347MOL0     H47883   0.027  10.505   2.798 -2.1211 -0.4673  2.9015
  347MOL0     H47884   0.120  10.425   2.489  1.8951 -1.2401  1.4906
  347MOL0     H47885   0.196  10.578   2.523 -0.2140 -0.2354  1.2486
  347MOL0     H47886   0.175  10.451   2.652  1.4082 -0.4035  0.5994
  348MOL0     O47887   3.163   4.858   5.998  0.0136 -0.1912  0.6413
  348MOL0     C47888   3.235   4.797   5.921 -0.8515 -0.9200 -0.6396
  348MOL0     O47889   3.360   4.846   5.870 -0.3997  0.2336  0.5571
  348MOL0     C47890   3.403   4.970   5.916  0.2261  0.1106 -0.8794
  348MOL0     C47891   3.437   5.071   5.826  0.7265  0.4320  0.3403
  348MOL0     C47892   3.491   5.190   5.871  0.1723  0.4337  0.3366
  348MOL0     C47893   3.522   5.208   6.008 -0.1270 -0.1537  0.5689
  348MOL0     O47894   3.577   5.330   6.046 -0.6006 -0.2253 -0.0367
  348MOL0     C47895   3.654   5.350   6.172  0.2243 -0.6605  1.3008
  348MOL0     C47896   3.792   5.290   6.164  0.6417 -0.7846  0.3067
  348MOL0     C47897   3.871   5.319   6.039 -0.6098 -0.2979  0.0704
  348MOL0     C47898   4.018   5.324   6.081  0.3899  0.0766 -0.0094
  348MOL0     C47899   4.127   5.320   5.963  1.1946 -0.1046  0.2583
  348MOL0     C47900   4.271   5.336   6.017 -0.3389 -0.6315 -0.2200
  348MOL0     C47901   4.391   5.366   5.920 -0.0552 -1.3295 -0.4945
  348MOL0     C47902   4.517   5.395   6.001  0.0746  0.2925  0.2921
  348MOL0     N47903   4.561   5.288   6.104  0.2823  0.3067 -0.4722
  348MOL0     C47904   4.666   5.302   6.187  0.4128  0.0592 -0.6951
  348MOL0     C47905   4.691   5.182   6.238  0.9783  0.5483 -0.2230
  348MOL0     C47906   4.791   5.147   6.354 -0.0148 -0.6435 -0.4659
  348MOL0     C47907   4.899   5.063   6.287  0.8613 -0.1021  0.3847
  348MOL0     C47908   5.018   5.035   6.374 -0.8561 -0.4946  0.1848
  348MOL0     C47909   5.139   4.996   6.288  0.8908 -0.5948  0.4429
  348MOL0     O47910   5.254   4.984   6.375 -0.3305  0.8929  0.4936
  348MOL0     C47911   5.371   4.926   6.325  0.7552 -1.2450  0.2706
  348MOL0     C47912   5.382   4.889   6.191  0.1186 -0.4713 -0.1059
  348MOL0     C47913   5.497   4.828   6.138 -0.2702 -0.3987 -0.4185
  348MOL0     C47914   5.491   4.780   5.993  0.2546  0.6597  0.0951
  348MOL0     C47915   5.614   4.807   6.231 -0.1677  0.0279  0.8158
  348MOL0     C47916   5.741   4.748   6.181  0.1986 -0.0018 -0.5563
  348MOL0     O47917   5.718   4.636   6.115 -0.2979  1.4286  0.8236
  348MOL0     C47918   5.831   4.569   6.073  0.6475  0.5322 -0.1071
  348MOL0     C47919   5.909   4.621   5.970  0.1754  0.0717 -0.8463
  348MOL0     C47920   6.029   4.556   5.933 -0.8476  0.1239  0.2923
  348MOL0     C47921   6.073   4.447   5.997 -0.0321  0.8227  0.5941
  348MOL0     O47922   6.192   4.389   5.957 -0.4827  0.7110  0.0352
  348MOL0     C47923   6.245   4.297   6.053 -0.7680 -0.0041  0.4506
  348MOL0     C47924   6.383   4.276   5.999  0.6672 -0.0981 -0.2688
  348MOL0     C47925   6.450   4.159   6.063  0.9288 -0.7986 -0.5766
  348MOL0     C47926   6.587   4.143   5.995  0.7897 -0.0512 -0.2325
  348MOL0     C47927   6.684   4.036   6.047 -0.5167 -0.9011  0.1417
  348MOL0     C47928   6.623   3.902   6.080  0.1488  0.4397 -0.6585
  348MOL0     C47929   6.725   3.793   6.124 -0.7277 -0.4746 -0.9208
  348MOL0     C47930   6.767   3.806   6.269  0.1139 -0.1425  0.1124
  348MOL0    Cl47931   6.620   3.786   6.359  0.2545  0.0925  0.0108
  348MOL0     C47932   5.983   4.385   6.093 -0.2888  0.3839  0.6509
  348MOL0     C47933   5.858   4.440   6.125 -0.2061 -0.2543  0.1661
  348MOL0     O47934   5.845   4.798   6.211  0.8486  0.6329 -0.1359
  348MOL0     C47935   5.608   4.871   6.364 -0.4147 -0.7544  1.3119
  348MOL0     C47936   5.486   4.924   6.408  0.3936 -0.2188  0.6387
  348MOL0     N47937   4.602   5.090   6.180  0.4700  0.7314 -0.1410
  348MOL0     N47938   4.527   5.153   6.095 -0.2098  0.0206  0.1462
  348MOL0     C47939   3.492   5.103   6.095  0.8519 -0.5930 -0.3435
  348MOL0     C47940   3.424   4.985   6.053  0.1492 -0.8020 -0.5507
  348MOL0     C47941   3.197   4.662   5.880 -0.0771 -1.4022 -0.7028
  348MOL0     C47942   3.254   4.624   5.759 -0.1935  0.0480  0.2424
  348MOL0     C47943   3.246   4.492   5.714 -0.8002 -0.3826  0.8402
  348MOL0     C47944   3.166   4.396   5.776 -0.1374  0.0958 -0.5292
  348MOL0     O47945   3.131   4.276   5.734 -0.0241  0.2992 -0.7013
  348MOL0     C47946   3.075   4.273   5.598 -0.1815 -0.1236 -0.4372
  348MOL0     C47947   2.934   4.201   5.612 -0.4713  0.5987  0.6938
  348MOL0     C47948   2.927   4.054   5.659  0.2257 -0.3959  0.5396
  348MOL0     C47949   3.044   3.974   5.614 -0.7400 -0.4609 -0.3772
  348MOL0     C47950   3.080   3.971   5.468 -0.4253  0.9739 -0.0060
  348MOL0     C47951   3.108   3.948   5.352 -1.0247  0.0231 -0.4535
  348MOL0     C47952   3.097   4.425   5.898 -0.3955 -0.2727  0.6056
  348MOL0     C47953   3.119   4.560   5.958 -0.1339 -0.5314  0.2703
  348MOL0     C47954   3.082   4.585   6.104 -0.6107 -0.8877 -0.9082
  348MOL0     H47955   3.420   5.055   5.720  1.9593  0.5759  0.1043
  348MOL0     H47956   3.531   5.260   5.798 -2.0106 -0.9481 -2.3874
  348MOL0     H47957   3.602   5.306   6.257 -0.5301 -1.6323  0.3674
  348MOL0     H47958   3.661   5.459   6.177  0.4904 -0.2376 -3.2360
  348MOL0     H47959   3.845   5.319   6.255 -0.0557  0.3427  0.3610
  348MOL0     H47960   3.771   5.182   6.168  0.2239 -0.7589 -0.8014
  348MOL0     H47961   3.847   5.237   5.970 -0.1297 -0.2523 -0.1579
  348MOL0     H47962   3.845   5.418   6.001  1.3552  0.1821 -0.1467
  348MOL0     H47963   4.051   5.415   6.131  0.5677 -0.6228  1.1939
  348MOL0     H47964   4.036   5.230   6.135 -3.6594 -0.5649  0.5545
  348MOL0     H47965   4.118   5.396   5.885  1.6554 -0.2951  0.0162
  348MOL0     H47966   4.117   5.221   5.916 -3.0307  1.2356 -2.2562
  348MOL0     H47967   4.261   5.417   6.091  0.0588 -0.3180 -0.5077
  348MOL0     H47968   4.290   5.249   6.082  2.2272  0.4882  0.6727
  348MOL0     H47969   4.368   5.457   5.863 -2.3057 -2.4584 -1.5432
  348MOL0     H47970   4.417   5.285   5.852  0.5389 -0.9147 -0.7647
  348MOL0     H47971   4.596   5.409   5.927 -0.4817 -0.0370 -0.3670
  348MOL0     H47972   4.507   5.483   6.066 -1.7786 -0.2861  0.8551
  348MOL0     H47973   4.722   5.392   6.210  2.8650 -1.0062 -2.1203
  348MOL0     H47974   4.757   5.074   6.428  1.2537  1.3901  2.3222
  348MOL0     H47975   4.831   5.240   6.397 -0.3063 -1.4759  1.7509
  348MOL0     H47976   4.865   4.966   6.249  1.7734  0.6714 -2.6484
  348MOL0     H47977   4.939   5.113   6.199  0.5849 -0.3971  0.0906
  348MOL0     H47978   5.047   5.129   6.421  2.1922  0.0278 -2.4231
  348MOL0     H47979   4.991   4.959   6.448  0.9137 -1.9132 -0.5582
  348MOL0     H47980   5.112   4.902   6.238  2.4765 -0.2699 -1.1333
  348MOL0     H47981   5.159   5.066   6.206  0.8572 -3.6590 -2.3887
  348MOL0     H47982   5.299   4.906   6.123 -0.8930 -2.0121  0.6782
  348MOL0     H47983   5.481   4.671   5.993 -2.3210  0.8042 -1.6754
  348MOL0     H47984   5.579   4.819   5.940 -0.4135  2.6621  0.3909
  348MOL0     H47985   5.405   4.812   5.933  0.7887 -0.6322 -1.4437
  348MOL0     H47986   5.864   4.714   5.937 -2.1921 -1.2036 -1.4968
  348MOL0     H47987   6.078   4.605   5.849 -0.9152 -1.0228 -0.4406
  348MOL0     H47988   6.261   4.346   6.150  0.3706  1.3477 -0.3768
  348MOL0     H47989   6.185   4.206   6.063 -0.4053 -0.1884  1.0412
  348MOL0     H47990   6.357   4.243   5.898 -3.3079  1.2628  0.1384
  348MOL0     H47991   6.453   4.360   5.996  1.5496 -0.7562  1.0082
  348MOL0     H47992   6.386   4.071   6.055  0.5598 -0.6965  0.9349
  348MOL0     H47993   6.460   4.168   6.172 -0.8761 -3.1019 -0.1356
  348MOL0     H47994   6.630   4.243   6.000 -3.7292  2.0605  2.1381
  348MOL0     H47995   6.583   4.121   5.888 -3.8365  0.7005 -0.3988
  348MOL0     H47996   6.762   4.019   5.972 -0.9579 -1.1294 -0.2670
  348MOL0     H47997   6.726   4.080   6.138 -1.7751  1.5499 -0.3788
  348MOL0     H47998   6.564   3.858   5.999  0.9048  2.9396 -2.6920
  348MOL0     H47999   6.547   3.919   6.156  0.9971  1.4685 -0.0129
  348MOL0     H48000   6.818   3.809   6.070 -0.0295  0.1008  0.4186
  348MOL0     H48001   6.680   3.696   6.099  0.6663 -1.5095  0.4007
  348MOL0     H48002   6.798   3.908   6.293  1.3502  0.0020 -1.9142
  348MOL0     H48003   6.837   3.727   6.297  0.5713  0.4562  0.6672
  348MOL0     H48004   6.002   4.287   6.135 -1.5936 -0.9073 -1.5640
  348MOL0     H48005   5.790   4.389   6.193 -1.1186  0.5652 -0.1113
  348MOL0     H48006   5.691   4.856   6.432  0.1627 -1.5133  0.4536
  348MOL0     H48007   5.484   4.960   6.511  0.9492  1.7992 -0.0020
  348MOL0     H48008   3.494   5.120   6.202 -2.9013  0.8004 -0.3575
  348MOL0     H48009   3.413   4.918   6.138  1.6022  0.5526  0.7741
  348MOL0     H48010   3.315   4.698   5.707  0.3957 -0.0702  0.7534
  348MOL0     H48011   3.292   4.461   5.620 -1.2421 -2.7419  1.3481
  348MOL0     H48012   3.056   4.376   5.569 -0.9250  0.9099  3.1779
  348MOL0     H48013   3.147   4.223   5.532  2.1394 -0.2193  1.9877
  348MOL0     H48014   2.883   4.188   5.517 -2.4804  0.6663  1.7121
  348MOL0     H48015   2.879   4.263   5.683 -2.3825 -0.2293 -0.0034
  348MOL0     H48016   2.934   4.042   5.767  0.8333 -1.2004  0.4247
  348MOL0     H48017   2.836   4.012   5.614  1.4426 -0.0727 -2.4763
  348MOL0     H48018   3.019   3.872   5.646  1.3966 -0.6296  0.9490
  348MOL0     H48019   3.130   3.998   5.677  0.0263  0.5071 -1.7592
  348MOL0     H48020   3.135   3.925   5.251 -1.7601 -1.1208 -0.4080
  348MOL0     H48021   3.034   4.358   5.956 -0.5059 -0.4956  0.2299
  348MOL0     H48022   3.012   4.668   6.118 -1.8201 -2.0325  0.0934
  348MOL0     H48023   3.051   4.495   6.159  2.6037 -1.3712  0.3167
  348MOL0     H48024   3.171   4.629   6.149 -1.5390  0.5345 -0.3996
  349MOL0     O48025   3.556   0.811   7.034  0.4356 -0.1263  0.2301
  349MOL0     C48026   3.559   0.740   7.138 -0.4850 -0.1292 -0.3361
  349MOL0     O48027   3.678   0.695   7.203  0.6075 -0.2491 -0.9883
  349MOL0     C48028   3.799   0.702   7.147  0.6946 -0.5102 -0.1521
  349MOL0     C48029   3.830   0.738   7.004  0.1003 -0.1572  0.0474
  349MOL0     C48030   3.963   0.752   6.962  0.2110 -0.2308 -0.6406
  349MOL0     C48031   4.066   0.725   7.053 -0.4088 -0.4375 -0.1884
  349MOL0     O48032   4.202   0.728   7.015 -0.0511  0.1015  0.1268
  349MOL0     C48033   4.228   0.738   6.868 -0.4650  0.9375  0.3896
  349MOL0     C48034   4.385   0.731   6.845 -0.1001 -0.3540 -0.2445
  349MOL0     C48035   4.431   0.784   6.705  0.4232  0.2062  0.0899
  349MOL0     C48036   4.460   0.661   6.618  0.0393  0.4810  0.5103
  349MOL0     C48037   4.509   0.691   6.477  0.3331  0.0678  0.2387
  349MOL0     C48038   4.653   0.763   6.468 -0.2564  0.1168  0.7605
  349MOL0     C48039   4.765   0.668   6.513 -0.7234  0.2301  0.2130
  349MOL0     C48040   4.904   0.711   6.495  0.1874  0.0301  0.7841
  349MOL0     N48041   4.998   0.606   6.541 -0.7021 -0.7456 -0.1919
  349MOL0     C48042   5.035   0.498   6.473 -0.0195  1.1584  0.2799
  349MOL0     C48043   5.100   0.416   6.557  0.2036  0.1747  0.1597
  349MOL0     C48044   5.161   0.283   6.497  0.8129 -0.9496  1.0981
  349MOL0     C48045   5.142   0.166   6.591  0.4092  0.3492  0.1039
  349MOL0     C48046   5.236   0.048   6.551 -0.2552 -0.2919 -0.3450
  349MOL0     C48047   5.261  -0.045   6.670  0.3946 -0.0628 -1.2657
  349MOL0     O48048   5.131  -0.094   6.719 -0.0572  0.4585  0.5100
  349MOL0     C48049   5.099  -0.070   6.853  0.2897  0.5173 -0.1575
  349MOL0     C48050   5.167  -0.133   6.963  0.9199  0.2121 -0.3628
  349MOL0     C48051   5.141  -0.096   7.096  0.4953 -0.1586  0.7953
  349MOL0     C48052   5.209  -0.169   7.198  0.3850  1.2675 -0.4160
  349MOL0     C48053   5.046   0.013   7.124  0.3541  0.4455 -0.7850
  349MOL0     C48054   5.002   0.044   7.262 -0.9367  2.1080  0.9437
  349MOL0     O48055   4.975   0.170   7.279  0.3453 -1.0117  0.2054
  349MOL0     C48056   4.966   0.218   7.412 -0.2755  1.5461  0.5041
  349MOL0     C48057   5.072   0.295   7.459 -0.5553 -0.1638  0.2223
  349MOL0     C48058   5.070   0.362   7.584 -0.4657  0.3478  0.0527
  349MOL0     C48059   4.969   0.330   7.669 -1.1999 -0.5079 -0.5899
  349MOL0     O48060   4.966   0.404   7.791  0.4972 -0.1946 -0.0324
  349MOL0     C48061   4.839   0.413   7.848  0.2468  0.2862  0.6707
  349MOL0     C48062   4.847   0.529   7.953 -0.4521 -0.1266 -0.2221
  349MOL0     C48063   4.866   0.666   7.886  0.2404  0.1138 -0.3470
  349MOL0     C48064   4.908   0.761   8.004  0.5555  0.3142 -0.0401
  349MOL0     C48065   4.815   0.778   8.124  0.8269  0.0589  0.2764
  349MOL0     C48066   4.874   0.741   8.263  0.3503  0.4749  0.7921
  349MOL0     C48067   4.974   0.844   8.319 -0.2560  0.1108  0.1495
  349MOL0     C48068   4.917   0.979   8.348 -0.3012 -0.1280  0.1676
  349MOL0    Cl48069   4.795   0.961   8.481  0.0075 -0.1479  0.0555
  349MOL0     C48070   4.872   0.234   7.631 -0.4616  0.4360  0.1879
  349MOL0     C48071   4.878   0.176   7.505 -0.0185  0.0834 -0.3440
  349MOL0     O48072   5.005  -0.045   7.343 -1.4789 -0.2111  0.4151
  349MOL0     C48073   4.984   0.070   7.011 -0.2120  0.6157 -0.3955
  349MOL0     C48074   5.009   0.031   6.882  0.1188  0.0769 -0.9071
  349MOL0     N48075   5.121   0.484   6.669 -0.5264 -0.5564 -0.6022
  349MOL0     N48076   5.046   0.594   6.665 -0.5288  0.6222  0.2758
  349MOL0     C48077   4.037   0.683   7.180 -0.3200 -0.5899 -0.1261
  349MOL0     C48078   3.907   0.669   7.224  0.0034 -0.8183 -0.3609
  349MOL0     C48079   3.437   0.697   7.211  0.5545 -0.7017  0.1375
  349MOL0     C48080   3.437   0.593   7.296 -0.1275  0.7913 -0.3588
  349MOL0     C48081   3.315   0.542   7.351  0.6091 -0.4085 -0.0815
  349MOL0     C48082   3.192   0.617   7.345 -0.5117 -0.0697 -0.6992
  349MOL0     O48083   3.075   0.577   7.411  0.1644  0.4226  0.2950
  349MOL0     C48084   2.980   0.672   7.452 -0.9725  0.8554 -0.3861
  349MOL0     C48085   2.916   0.594   7.574 -0.4742 -0.0223 -0.2439
  349MOL0     C48086   3.011   0.567   7.684 -0.5722  0.7639 -0.5148
  349MOL0     C48087   2.936   0.487   7.789  0.6489  0.9420 -0.1092
  349MOL0     C48088   3.022   0.426   7.889 -0.5446 -0.2267 -0.2853
  349MOL0     C48089   3.085   0.365   7.973  0.2962  0.3102 -0.5067
  349MOL0     C48090   3.198   0.732   7.277 -0.1424  0.3838  0.2318
  349MOL0     C48091   3.315   0.773   7.215 -0.6353 -0.2742  0.9887
  349MOL0     C48092   3.295   0.919   7.173 -0.6912  0.6840  0.0150
  349MOL0     H48093   3.751   0.766   6.934  0.2712  1.0695  0.3172
  349MOL0     H48094   3.990   0.770   6.858  1.8007  1.1313 -0.0262
  349MOL0     H48095   4.185   0.828   6.823 -3.3916  0.8505  2.6942
  349MOL0     H48096   4.178   0.655   6.817  0.4639  0.1310  0.7691
  349MOL0     H48097   4.429   0.798   6.919 -2.4270 -1.2762  2.1237
  349MOL0     H48098   4.420   0.633   6.878 -1.6046  0.0206  2.7236
  349MOL0     H48099   4.355   0.841   6.651  0.3046 -0.6593 -0.6848
  349MOL0     H48100   4.521   0.845   6.721  0.6805  0.0282 -0.6334
  349MOL0     H48101   4.531   0.599   6.673 -0.8586 -2.4826 -1.4077
  349MOL0     H48102   4.370   0.601   6.598  0.1451  0.5301 -0.1359
  349MOL0     H48103   4.440   0.753   6.420  3.8478  3.2121 -1.0283
  349MOL0     H48104   4.507   0.599   6.418  0.9065  0.3504 -0.2352
  349MOL0     H48105   4.680   0.795   6.367  0.3023  2.1791  1.5213
  349MOL0     H48106   4.645   0.845   6.540  0.0483 -2.2152  3.6400
  349MOL0     H48107   4.748   0.566   6.477 -1.0583  0.0899  0.7618
  349MOL0     H48108   4.752   0.663   6.621  0.5162  0.3418  0.3810
  349MOL0     H48109   4.917   0.741   6.390 -0.4959  4.8703  1.8423
  349MOL0     H48110   4.914   0.802   6.553  1.0034  0.4314  0.0474
  349MOL0     H48111   5.000   0.479   6.372 -4.6398 -0.1009  1.8648
  349MOL0     H48112   5.266   0.310   6.485 -0.0502  1.8593 -1.1530
  349MOL0     H48113   5.113   0.265   6.400 -0.9938  1.8336  1.3612
  349MOL0     H48114   5.173   0.199   6.691  1.8418 -0.6481  0.0216
  349MOL0     H48115   5.039   0.128   6.592  0.9511 -1.2728 -1.3845
  349MOL0     H48116   5.183  -0.009   6.474 -2.0572  1.5108 -0.5360
  349MOL0     H48117   5.337   0.077   6.518 -0.1321  0.1133  0.3791
  349MOL0     H48118   5.315  -0.136   6.642  1.1979 -1.7994  4.6141
  349MOL0     H48119   5.314   0.014   6.745 -2.8362 -1.2772  2.2738
  349MOL0     H48120   5.238  -0.206   6.926  1.0164 -0.2854  0.7553
  349MOL0     H48121   5.145  -0.254   7.223  0.7023  1.5272  1.4398
  349MOL0     H48122   5.232  -0.112   7.289 -0.0295  0.9499 -0.1122
  349MOL0     H48123   5.301  -0.218   7.164  0.2412  0.2950  0.5359
  349MOL0     H48124   5.158   0.314   7.395 -0.3079  0.7161  0.7845
  349MOL0     H48125   5.153   0.430   7.604  0.3663 -0.2437 -1.2714
  349MOL0     H48126   4.761   0.419   7.771  2.0386 -0.1216 -1.2717
  349MOL0     H48127   4.827   0.318   7.902 -0.1407 -0.5680 -0.8690
  349MOL0     H48128   4.754   0.529   8.012  0.9033  1.2719  2.0512
  349MOL0     H48129   4.924   0.509   8.028 -1.9899 -0.4806  1.3609
  349MOL0     H48130   4.764   0.692   7.855 -0.0830  1.8836  1.9355
  349MOL0     H48131   4.937   0.681   7.804  2.4314  1.1218  1.6384
  349MOL0     H48132   4.919   0.864   7.968  0.9964 -0.1750 -1.3714
  349MOL0     H48133   5.011   0.747   8.036  0.0306  0.6384  1.9346
  349MOL0     H48134   4.778   0.881   8.126  4.3760  1.4699  2.3077
  349MOL0     H48135   4.729   0.721   8.088  1.1566  1.4184 -2.9917
  349MOL0     H48136   4.916   0.643   8.237  0.7637  1.2215 -1.6816
  349MOL0     H48137   4.799   0.722   8.340 -0.4898 -0.6835 -0.2655
  349MOL0     H48138   5.060   0.857   8.253 -0.2248  3.5551  0.6664
  349MOL0     H48139   5.021   0.808   8.412  0.4526 -1.7225 -0.8665
  349MOL0     H48140   4.867   1.020   8.260  0.8440  4.5021  1.3632
  349MOL0     H48141   4.994   1.051   8.377 -1.8477  2.0309 -0.8493
  349MOL0     H48142   4.806   0.192   7.706  3.2196 -1.7106  2.5090
  349MOL0     H48143   4.806   0.110   7.457 -0.1510 -0.5655  0.7251
  349MOL0     H48144   4.921   0.156   7.034 -0.7603 -0.0169  0.5593
  349MOL0     H48145   4.963   0.094   6.807  1.5368 -0.7146 -2.5209
  349MOL0     H48146   4.128   0.664   7.236 -0.4987 -2.4092 -0.3910
  349MOL0     H48147   3.890   0.639   7.327 -2.6762 -0.7508 -0.7248
  349MOL0     H48148   3.526   0.532   7.300  0.7489  2.0155 -0.5482
  349MOL0     H48149   3.331   0.455   7.415 -1.1641 -0.5535  0.2352
  349MOL0     H48150   3.021   0.771   7.475 -2.5206  1.0617  1.7446
  349MOL0     H48151   2.910   0.686   7.369 -2.0444  1.1864  0.5574
  349MOL0     H48152   2.869   0.498   7.549 -0.9190 -0.1293  0.9296
  349MOL0     H48153   2.837   0.652   7.623 -1.0850 -0.7970 -0.2875
  349MOL0     H48154   3.087   0.504   7.638 -0.7793 -0.9274  1.3472
  349MOL0     H48155   3.049   0.658   7.731 -1.3281  0.0484  1.5611
  349MOL0     H48156   2.870   0.407   7.755  1.4691  0.0074  0.4385
  349MOL0     H48157   2.864   0.556   7.834 -0.8964 -0.6530 -0.0447
  349MOL0     H48158   3.129   0.308   8.053 -1.1402  1.2693  1.0145
  349MOL0     H48159   3.123   0.809   7.293  2.1156  2.6235  0.6600
  349MOL0     H48160   3.258   0.974   7.260 -1.1350 -1.2811  1.1249
  349MOL0     H48161   3.388   0.963   7.135  2.5831 -2.5838  3.3932
  349MOL0     H48162   3.223   0.922   7.091 -1.4204 -0.4494  0.6023
  350MOL0     O48163   4.696   8.069   2.204  0.1372 -0.7210  0.0320
  350MOL0     C48164   4.606   8.153   2.229  0.2769  0.3364 -0.4689
  350MOL0     O48165   4.575   8.207   2.355 -1.1143 -0.5589 -0.5104
  350MOL0     C48166   4.664   8.186   2.462 -0.6936  0.3744 -0.3489
  350MOL0     C48167   4.706   8.293   2.540 -0.5147 -0.3793 -0.4225
  350MOL0     C48168   4.791   8.267   2.650  0.5028  0.1806 -0.3718
  350MOL0     C48169   4.820   8.136   2.695  0.3774  0.0325 -0.1636
  350MOL0     O48170   4.907   8.110   2.793 -0.5063  0.0776  0.1313
  350MOL0     C48171   5.025   8.187   2.807  0.5999 -0.0350  0.8732
  350MOL0     C48172   5.135   8.126   2.886  1.2295 -0.3721  0.2720
  350MOL0     C48173   5.256   8.219   2.882 -0.5292  0.3426  0.0823
  350MOL0     C48174   5.374   8.135   2.917  0.3646  0.2145 -0.2931
  350MOL0     C48175   5.495   8.216   2.905 -1.5305 -0.0748 -0.4728
  350MOL0     C48176   5.616   8.148   2.977 -0.0593  0.2562 -0.0782
  350MOL0     C48177   5.684   8.248   3.070 -0.9890  0.5066 -0.0339
  350MOL0     C48178   5.802   8.191   3.155  1.2824 -0.0188 -0.1077
  350MOL0     N48179   5.924   8.162   3.083 -0.1431 -0.4015  0.1314
  350MOL0     C48180   6.017   8.260   3.048  0.3441 -0.1195  0.3392
  350MOL0     C48181   6.121   8.202   2.984 -0.1643  0.7585 -0.0513
  350MOL0     C48182   6.241   8.264   2.923 -0.2713  0.3232  0.1806
  350MOL0     C48183   6.320   8.356   3.012  1.1134 -0.2630 -0.1546
  350MOL0     C48184   6.384   8.276   3.132 -0.3193 -0.5218  0.2352
  350MOL0     C48185   6.466   8.360   3.228  0.2541 -0.1273  0.4255
  350MOL0     O48186   6.458   8.316   3.367  0.1161 -0.4491  0.8516
  350MOL0     C48187   6.568   8.230   3.394  0.3172 -0.3035  0.0229
  350MOL0     C48188   6.641   8.280   3.494 -0.8607  1.3395  0.3177
  350MOL0     C48189   6.756   8.204   3.544  0.7066  0.3710 -0.5865
  350MOL0     C48190   6.821   8.270   3.660  0.4614  0.1639  0.5162
  350MOL0     C48191   6.787   8.081   3.486  0.4881 -0.3107 -0.1619
  350MOL0     C48192   6.913   8.003   3.528 -0.0470 -0.0506 -0.8268
  350MOL0     O48193   6.938   7.999   3.663 -0.0975  0.1448  0.0673
  350MOL0     C48194   7.033   7.911   3.707 -0.2672  1.4273  0.5523
  350MOL0     C48195   7.006   7.775   3.698 -0.4012 -0.4010  0.2930
  350MOL0     C48196   7.082   7.679   3.761 -0.9030 -0.0742 -0.2450
  350MOL0     C48197   7.210   7.725   3.812 -0.6964 -0.0199  0.3839
  350MOL0     O48198   7.296   7.635   3.854  0.0383 -0.3442 -0.3428
  350MOL0     C48199   7.326   7.528   3.757  1.1013 -0.0810  0.7004
  350MOL0     C48200   7.457   7.463   3.803  0.4548  0.2367  0.5993
  350MOL0     C48201   7.557   7.576   3.837 -0.4024  0.9666 -0.7891
  350MOL0     C48202   7.688   7.513   3.883 -0.2774 -0.1650 -0.3873
  350MOL0     C48203   7.802   7.612   3.868  0.4275  0.7217  0.6756
  350MOL0     C48204   7.904   7.580   3.758  0.2207 -0.3585  0.1955
  350MOL0     C48205   8.000   7.698   3.736 -0.3461  0.0831  0.2387
  350MOL0     C48206   7.939   7.817   3.662  0.0380  0.6904  1.1177
  350MOL0    Cl48207   7.857   7.778   3.495 -0.2695 -0.3195  0.3553
  350MOL0     C48208   7.235   7.861   3.830  0.2546 -0.1205  0.5208
  350MOL0     C48209   7.146   7.948   3.774 -0.8377  0.9692  0.0893
  350MOL0     O48210   6.963   7.940   3.439 -0.4866 -0.2177  0.1411
  350MOL0     C48211   6.707   8.033   3.383  0.5291 -0.1119 -0.4958
  350MOL0     C48212   6.595   8.102   3.335 -0.7491 -0.0267 -0.2796
  350MOL0     N48213   6.083   8.069   2.990 -0.5680 -0.4136  0.2250
  350MOL0     N48214   5.969   8.049   3.037  0.5755  0.0270  0.4793
  350MOL0     C48215   4.754   8.032   2.636  0.1472  0.5893  0.6047
  350MOL0     C48216   4.685   8.056   2.510 -0.3693  0.6758 -0.1790
  350MOL0     C48217   4.523   8.217   2.127 -0.5659 -0.4227 -0.1876
  350MOL0     C48218   4.498   8.349   2.119  1.1714  0.8519 -0.3051
  350MOL0     C48219   4.427   8.415   2.022 -0.0282  0.2331 -0.3316
  350MOL0     C48220   4.380   8.345   1.906  0.2693 -0.4994 -0.2871
  350MOL0     O48221   4.308   8.424   1.823  0.1261 -0.4046 -0.6297
  350MOL0     C48222   4.224   8.353   1.730  1.1956  1.1393 -0.1554
  350MOL0     C48223   4.109   8.292   1.809  0.1641  0.0940  0.3952
  350MOL0     C48224   4.024   8.184   1.739  0.5430 -0.0763 -0.2036
  350MOL0     C48225   3.915   8.126   1.830  0.1624 -0.3579  0.2440
  350MOL0     C48226   3.823   8.218   1.891 -0.0834  0.5212  0.2956
  350MOL0     C48227   3.740   8.277   1.954  0.4246  1.0229  0.0820
  350MOL0     C48228   4.414   8.204   1.901  0.1262 -0.3913  1.2028
  350MOL0     C48229   4.478   8.142   2.012  0.1476 -0.6103 -0.4690
  350MOL0     C48230   4.498   7.991   1.998  0.2523 -1.6182 -0.4079
  350MOL0     H48231   4.683   8.391   2.501 -1.4795 -1.3687 -2.4878
  350MOL0     H48232   4.826   8.353   2.708  2.0742 -1.0115  0.5484
  350MOL0     H48233   5.014   8.286   2.852  2.2103  0.0562  1.1454
  350MOL0     H48234   5.050   8.208   2.703 -1.7130  1.0514  0.4687
  350MOL0     H48235   5.105   8.114   2.990 -0.2502 -1.7328 -0.2814
  350MOL0     H48236   5.152   8.030   2.837  2.6490  0.3992 -0.8335
  350MOL0     H48237   5.265   8.257   2.780  3.6771  1.3220  0.6025
  350MOL0     H48238   5.246   8.293   2.962  0.9678 -0.4425  1.0441
  350MOL0     H48239   5.363   8.099   3.020  1.7115 -1.2182 -0.6092
  350MOL0     H48240   5.384   8.037   2.869 -1.2224 -0.3323  0.4141
  350MOL0     H48241   5.485   8.315   2.951 -0.2618  0.0244 -0.3659
  350MOL0     H48242   5.538   8.233   2.806  1.5211  5.6429  1.3531
  350MOL0     H48243   5.591   8.064   3.043  0.9795  1.1670  1.5638
  350MOL0     H48244   5.690   8.110   2.906  1.1917 -1.7986  2.1609
  350MOL0     H48245   5.613   8.296   3.138  0.0535  3.4496 -0.9012
  350MOL0     H48246   5.722   8.330   3.009 -0.3348  1.2704  1.3349
  350MOL0     H48247   5.818   8.280   3.215  0.6897  1.6530 -2.2984
  350MOL0     H48248   5.775   8.103   3.215  1.4562 -1.6760 -2.3147
  350MOL0     H48249   5.995   8.361   3.083 -1.2568 -0.6081  0.8329
  350MOL0     H48250   6.210   8.325   2.837  0.6834  1.8460  0.8874
  350MOL0     H48251   6.305   8.184   2.883  0.7582  2.4271 -2.7416
  350MOL0     H48252   6.396   8.415   2.960 -0.1488  4.9292  3.1877
  350MOL0     H48253   6.251   8.422   3.065  1.2650  0.1085 -0.4187
  350MOL0     H48254   6.312   8.220   3.192  0.3754  0.6284  2.2252
  350MOL0     H48255   6.451   8.205   3.083 -1.4813 -2.0628  0.7771
  350MOL0     H48256   6.567   8.388   3.199  0.1589 -1.0489 -0.8838
  350MOL0     H48257   6.422   8.460   3.228  1.1356  0.4047 -3.1815
  350MOL0     H48258   6.614   8.377   3.533  0.2781  1.0584  1.9104
  350MOL0     H48259   6.926   8.238   3.654  0.8933  1.5788 -5.2731
  350MOL0     H48260   6.778   8.231   3.753 -1.7701  3.6358  1.1101
  350MOL0     H48261   6.819   8.379   3.659  1.2608  0.2038 -1.3207
  350MOL0     H48262   6.916   7.748   3.644 -1.9626  1.4072  1.8218
  350MOL0     H48263   7.055   7.575   3.751  2.6066 -1.1013 -0.3018
  350MOL0     H48264   7.252   7.448   3.745  1.0564 -0.0997  1.0748
  350MOL0     H48265   7.323   7.576   3.659 -1.7399 -1.2605  0.1080
  350MOL0     H48266   7.450   7.396   3.889  4.1960 -0.5276  0.5156
  350MOL0     H48267   7.504   7.405   3.723  2.3343  1.4696  0.7468
  350MOL0     H48268   7.529   7.642   3.919 -1.9397 -0.2861 -0.2459
  350MOL0     H48269   7.560   7.630   3.742  1.2176  0.3540 -1.1230
  350MOL0     H48270   7.705   7.419   3.830 -0.8711 -0.3150 -0.3109
  350MOL0     H48271   7.675   7.490   3.989 -0.5359  2.4281  0.2081
  350MOL0     H48272   7.757   7.706   3.836  3.7882  1.7973 -1.3771
  350MOL0     H48273   7.850   7.638   3.963 -0.8452 -0.8224  1.7927
  350MOL0     H48274   7.835   7.561   3.675 -0.1950 -1.0315  0.6917
  350MOL0     H48275   7.948   7.482   3.775  1.0546  0.3349  2.3382
  350MOL0     H48276   8.090   7.654   3.692  0.7253  1.1198  1.3381
  350MOL0     H48277   8.039   7.726   3.834 -0.6280 -0.9612  0.6608
  350MOL0     H48278   8.013   7.896   3.643  0.4373 -0.1885 -1.2692
  350MOL0     H48279   7.867   7.858   3.734 -0.4536  3.1961 -0.6577
  350MOL0     H48280   7.328   7.906   3.866 -1.8052  4.0939  1.2166
  350MOL0     H48281   7.164   8.055   3.778 -1.3671  1.0356  0.7920
  350MOL0     H48282   6.725   7.936   3.338  1.5105 -1.0714  1.8108
  350MOL0     H48283   6.529   8.051   3.266  0.0096  2.0936 -2.7560
  350MOL0     H48284   4.770   7.928   2.663 -3.8879 -1.9692 -4.9240
  350MOL0     H48285   4.674   7.967   2.449 -1.1087 -0.9821  2.2045
  350MOL0     H48286   4.526   8.409   2.206 -0.1821  1.0069  0.0494
  350MOL0     H48287   4.395   8.518   2.027 -0.1122  0.1498  1.8441
  350MOL0     H48288   4.198   8.422   1.649  0.3966 -0.0536 -0.9342
  350MOL0     H48289   4.274   8.273   1.675 -0.9519 -1.2419  1.1306
  350MOL0     H48290   4.045   8.376   1.841  0.2430 -0.4412  2.0243
  350MOL0     H48291   4.153   8.259   1.903 -3.6570  2.1273  3.1956
  350MOL0     H48292   3.980   8.222   1.646  0.0411 -0.2002 -0.0213
  350MOL0     H48293   4.097   8.111   1.705 -0.0649 -0.1549 -1.4090
  350MOL0     H48294   3.967   8.070   1.909 -0.6951 -2.3640 -0.5446
  350MOL0     H48295   3.859   8.060   1.764 -3.1822  1.3668  1.0877
  350MOL0     H48296   3.669   8.348   1.991 -1.9382 -0.2070 -1.7618
  350MOL0     H48297   4.403   8.145   1.811  0.0405  1.5145 -0.0928
  350MOL0     H48298   4.484   7.943   2.095 -0.2592 -1.2286 -0.2840
  350MOL0     H48299   4.421   7.958   1.928 -0.7381  0.4930 -0.4018
  350MOL0     H48300   4.596   7.971   1.953  1.2095  1.2856  0.1578
  351MOL0     O48301   6.616   1.233   2.266  0.2176 -0.6268 -0.2853
  351MOL0     C48302   6.704   1.285   2.339  0.8642  1.2620 -1.0739
  351MOL0     O48303   6.798   1.371   2.306  1.4887 -0.3432  0.1333
  351MOL0     C48304   6.827   1.399   2.173  0.0274 -0.5433  0.4721
  351MOL0     C48305   6.730   1.461   2.084  0.0761  0.5321  0.6714
  351MOL0     C48306   6.757   1.476   1.944 -0.9678  0.0930  0.4738
  351MOL0     C48307   6.887   1.440   1.897  0.3857 -0.2551  0.8302
  351MOL0     O48308   6.916   1.457   1.764  0.2452 -0.9089  0.6495
  351MOL0     C48309   6.860   1.565   1.683 -0.0337 -1.6060 -0.3751
  351MOL0     C48310   6.766   1.539   1.565 -0.3443 -0.5766  0.3429
  351MOL0     C48311   6.619   1.533   1.603 -0.0363 -0.4712  1.0620
  351MOL0     C48312   6.567   1.681   1.615 -0.4826  0.4149 -0.3427
  351MOL0     C48313   6.410   1.680   1.628 -0.9800 -0.3263 -0.8149
  351MOL0     C48314   6.357   1.808   1.681  0.2389  0.1591 -0.0712
  351MOL0     C48315   6.390   1.935   1.597 -0.6407  0.4814 -0.0116
  351MOL0     C48316   6.338   2.057   1.661 -0.2339  0.0556  0.2089
  351MOL0     N48317   6.320   2.151   1.548  0.0636 -0.1019 -0.8360
  351MOL0     C48318   6.209   2.232   1.531 -0.5950 -0.6902 -0.3472
  351MOL0     C48319   6.251   2.329   1.447 -0.1999 -0.1275 -0.5525
  351MOL0     C48320   6.160   2.433   1.405 -0.0704 -0.8644 -0.2693
  351MOL0     C48321   6.232   2.566   1.361 -0.3056 -0.6120  0.2640
  351MOL0     C48322   6.154   2.689   1.406  0.1975 -1.1075 -0.7330
  351MOL0     C48323   6.009   2.684   1.356 -0.7786 -0.2285  0.4345
  351MOL0     O48324   5.949   2.807   1.375 -0.3642 -0.4308 -0.8842
  351MOL0     C48325   5.916   2.883   1.266 -0.4580 -0.1789  0.0932
  351MOL0     C48326   5.987   2.886   1.143 -0.8339  0.6896 -1.0384
  351MOL0     C48327   5.955   2.982   1.047 -0.0160  0.5899  1.4067
  351MOL0     C48328   6.027   2.969   0.911  0.7469 -0.9385 -0.2889
  351MOL0     C48329   5.859   3.081   1.072  0.6611 -1.0489  0.2916
  351MOL0     C48330   5.797   3.174   0.968 -0.0694  0.0642 -0.4383
  351MOL0     O48331   5.697   3.258   1.019  0.0102 -0.4360  0.6131
  351MOL0     C48332   5.627   3.339   0.929 -0.3652 -0.7100  0.2680
  351MOL0     C48333   5.497   3.367   0.967 -0.1544  0.1496 -0.2403
  351MOL0     C48334   5.430   3.460   0.890  0.3875 -0.5283  0.6252
  351MOL0     C48335   5.493   3.537   0.796 -0.6461 -0.6360 -0.0543
  351MOL0     O48336   5.435   3.637   0.724  0.1181  0.5753 -0.8363
  351MOL0     C48337   5.493   3.770   0.755 -0.0318  0.2118 -0.6385
  351MOL0     C48338   5.406   3.883   0.695  0.4731  0.0294  0.1746
  351MOL0     C48339   5.260   3.880   0.752 -0.9106 -0.2494  0.5453
  351MOL0     C48340   5.233   4.023   0.810 -0.3235 -0.8769  0.1485
  351MOL0     C48341   5.089   4.030   0.867 -0.1993 -0.4208 -1.1055
  351MOL0     C48342   5.043   3.935   0.968  0.7905  1.3490 -0.3604
  351MOL0     C48343   4.926   3.984   1.046 -1.1141  0.1149  0.4396
  351MOL0     C48344   4.864   3.879   1.137 -0.5393  0.2560  1.0064
  351MOL0    Cl48345   4.970   3.858   1.276 -0.2888  0.1237  0.5645
  351MOL0     C48346   5.619   3.501   0.754  0.2472 -0.5360  1.3166
  351MOL0     C48347   5.685   3.413   0.825 -0.2078  0.3474  0.5050
  351MOL0     O48348   5.839   3.181   0.855 -0.2849  0.5088  0.6281
  351MOL0     C48349   5.805   3.093   1.201  1.1384  0.4179 -0.0332
  351MOL0     C48350   5.844   2.998   1.296 -0.1513  0.3694  0.0761
  351MOL0     N48351   6.381   2.303   1.413  0.3238  0.0946 -0.0860
  351MOL0     N48352   6.429   2.191   1.472  0.1523 -0.8711 -1.1958
  351MOL0     C48353   6.982   1.388   1.988  0.4788 -0.4467  0.3785
  351MOL0     C48354   6.958   1.370   2.121  0.1015  0.5247 -0.2693
  351MOL0     C48355   6.712   1.250   2.486  0.1870 -0.0063  0.0351
  351MOL0     C48356   6.783   1.339   2.575  0.5319 -0.0034  0.7440
  351MOL0     C48357   6.812   1.295   2.703  0.7821 -0.4074  0.1975
  351MOL0     C48358   6.779   1.168   2.749 -0.4357  0.1844  0.2934
  351MOL0     O48359   6.791   1.121   2.880 -0.2806 -1.4671  0.3177
  351MOL0     C48360   6.919   1.083   2.936  0.2330  0.1900 -0.6931
  351MOL0     C48361   6.882   0.979   3.038 -0.2972  0.2981 -0.6146
  351MOL0     C48362   6.958   1.000   3.171 -0.0474 -0.5679  1.1752
  351MOL0     C48363   7.107   0.978   3.164 -1.1769 -0.2541 -0.3296
  351MOL0     C48364   7.161   0.952   3.299  0.2226  0.5353  0.6267
  351MOL0     C48365   7.214   0.949   3.407 -0.1826  1.0805  0.7317
  351MOL0     C48366   6.697   1.086   2.670 -0.0647  0.4560 -0.6052
  351MOL0     C48367   6.671   1.122   2.536  0.3346  0.6965  0.3354
  351MOL0     C48368   6.605   1.011   2.456 -0.0781  0.0161  0.6746
  351MOL0     H48369   6.626   1.462   2.116  0.0704 -0.5411  0.7278
  351MOL0     H48370   6.682   1.520   1.879  0.4573  1.0369 -0.5870
  351MOL0     H48371   6.943   1.627   1.648 -1.5098  1.1993  0.7259
  351MOL0     H48372   6.799   1.632   1.744 -0.3246 -1.7994 -0.4481
  351MOL0     H48373   6.780   1.618   1.491  1.7913  0.5841  1.8939
  351MOL0     H48374   6.797   1.441   1.528  1.0916 -1.3459  3.2547
  351MOL0     H48375   6.560   1.475   1.531 -3.0977  2.3912  1.0313
  351MOL0     H48376   6.621   1.482   1.699  1.1144 -2.4926  0.0403
  351MOL0     H48377   6.610   1.711   1.712  2.3529 -2.6454 -0.4440
  351MOL0     H48378   6.606   1.738   1.531  2.0972 -0.2799  0.2821
  351MOL0     H48379   6.368   1.608   1.700 -0.8528 -1.1067 -1.5010
  351MOL0     H48380   6.367   1.668   1.528  1.1421  3.4434 -2.3636
  351MOL0     H48381   6.250   1.808   1.703  0.4249 -2.0087  1.0198
  351MOL0     H48382   6.396   1.819   1.783  0.1324 -0.2638  0.0168
  351MOL0     H48383   6.342   1.914   1.501 -1.5376  0.6631  0.3870
  351MOL0     H48384   6.496   1.942   1.572 -0.1972 -0.0419  1.6270
  351MOL0     H48385   6.240   2.056   1.708 -0.2434  1.9088  0.3019
  351MOL0     H48386   6.408   2.092   1.738  2.0679 -0.3320 -1.5703
  351MOL0     H48387   6.118   2.233   1.589  0.6436  1.4319  1.7197
  351MOL0     H48388   6.100   2.463   1.491 -1.4080  0.0547 -1.4604
  351MOL0     H48389   6.090   2.406   1.324  0.1621  0.1819 -0.8334
  351MOL0     H48390   6.334   2.559   1.401  1.4023 -3.0636 -3.8316
  351MOL0     H48391   6.249   2.576   1.253  0.5959 -0.4881  0.4056
  351MOL0     H48392   6.154   2.696   1.515  2.0281 -1.6288 -0.6698
  351MOL0     H48393   6.193   2.783   1.365  2.1808 -2.1921 -1.4878
  351MOL0     H48394   6.019   2.665   1.249  0.4831  0.9128  0.3242
  351MOL0     H48395   5.967   2.604   1.418  1.6269 -0.0910  2.4116
  351MOL0     H48396   6.070   2.817   1.133 -0.7845  0.9019 -2.1429
  351MOL0     H48397   6.067   3.064   0.874 -4.5856  2.0180  0.5801
  351MOL0     H48398   5.955   2.948   0.832  1.0730 -0.8218 -0.6215
  351MOL0     H48399   6.110   2.897   0.908  3.1171  1.5832  0.1849
  351MOL0     H48400   5.457   3.340   1.065  1.2371 -0.5667  0.1675
  351MOL0     H48401   5.329   3.496   0.906 -0.1941 -1.1684 -1.3470
  351MOL0     H48402   5.498   3.786   0.863  1.9785 -0.2107 -0.6241
  351MOL0     H48403   5.594   3.766   0.712  0.5010  0.1225  0.5867
  351MOL0     H48404   5.451   3.980   0.715 -1.5642  0.9204  0.7606
  351MOL0     H48405   5.393   3.876   0.586  0.7328 -2.4768  0.2582
  351MOL0     H48406   5.254   3.812   0.837  2.0943 -2.2454 -0.6712
  351MOL0     H48407   5.187   3.861   0.672 -0.8822 -1.1257  0.7228
  351MOL0     H48408   5.238   4.101   0.733 -1.0916 -0.4499  0.5175
  351MOL0     H48409   5.311   4.042   0.884 -0.7454 -2.1198  0.9274
  351MOL0     H48410   5.085   4.133   0.901 -1.3274 -1.3067  1.6887
  351MOL0     H48411   5.011   4.032   0.790 -1.8224  0.6008  0.5010
  351MOL0     H48412   5.119   3.902   1.039  0.5113  0.6478 -0.3853
  351MOL0     H48413   5.002   3.844   0.923  0.7107  1.2892 -0.1644
  351MOL0     H48414   4.845   4.022   0.982  0.2847 -0.5576 -1.8443
  351MOL0     H48415   4.963   4.066   1.108  0.6065  0.0373 -0.4262
  351MOL0     H48416   4.838   3.781   1.096  0.9161 -0.4785  1.7856
  351MOL0     H48417   4.767   3.917   1.171 -1.4143 -1.0633  0.1023
  351MOL0     H48418   5.664   3.557   0.672  0.4961 -0.9622  1.1574
  351MOL0     H48419   5.788   3.393   0.798 -0.3242 -0.3553  0.5441
  351MOL0     H48420   5.740   3.174   1.230 -0.6826 -0.6002 -1.0880
  351MOL0     H48421   5.806   3.020   1.395 -2.2618  0.6911 -0.7494
  351MOL0     H48422   7.082   1.384   1.946  0.1668  0.2151 -0.4685
  351MOL0     H48423   7.035   1.343   2.193 -0.6585  1.0491  0.7764
  351MOL0     H48424   6.821   1.433   2.537 -0.4423  0.6148  1.2672
  351MOL0     H48425   6.863   1.365   2.768  1.7673 -4.0685  3.7513
  351MOL0     H48426   6.982   1.043   2.857 -0.5222  0.1037 -1.2567
  351MOL0     H48427   6.969   1.166   2.988  1.4688 -2.3771  2.5644
  351MOL0     H48428   6.913   0.880   3.002  0.4277  0.1524  0.3715
  351MOL0     H48429   6.774   0.970   3.053  0.0980 -1.0282  1.8998
  351MOL0     H48430   6.922   1.096   3.210 -3.7332 -0.5231 -1.8014
  351MOL0     H48431   6.911   0.925   3.237 -2.2538 -1.1622 -0.9347
  351MOL0     H48432   7.151   1.058   3.104  2.5424 -2.6034 -1.0549
  351MOL0     H48433   7.125   0.888   3.105 -1.6821 -2.2746  2.4105
  351MOL0     H48434   7.267   0.924   3.497 -0.4680  2.6830  1.3760
  351MOL0     H48435   6.664   0.990   2.708  1.0995 -0.1570 -1.0644
  351MOL0     H48436   6.630   1.026   2.351 -0.0650  1.9509  0.9122
  351MOL0     H48437   6.649   0.917   2.491  0.7642 -0.3026 -1.1711
  351MOL0     H48438   6.497   0.998   2.470 -0.1318 -0.7835 -0.3808
  352MOL0     O48439   3.569   8.051   9.203 -0.1530 -0.2265 -0.0760
  352MOL0     C48440   3.664   7.972   9.231 -0.4317 -0.5790  1.3069
  352MOL0     O48441   3.675   7.837   9.191 -0.6443  0.1024 -0.3261
  352MOL0     C48442   3.577   7.800   9.103  0.2982 -0.6365  0.0660
  352MOL0     C48443   3.593   7.811   8.966  0.3104 -0.3125 -0.4757
  352MOL0     C48444   3.491   7.747   8.890  0.2805  0.1310  0.1173
  352MOL0     C48445   3.378   7.683   8.935 -0.7662 -0.2856 -0.4582
  352MOL0     O48446   3.278   7.647   8.846 -0.0492  0.1060  0.6259
  352MOL0     C48447   3.216   7.515   8.861 -0.5766 -0.7957 -0.7303
  352MOL0     C48448   3.305   7.389   8.864 -0.0284 -0.1675 -0.6109
  352MOL0     C48449   3.368   7.362   9.002 -0.2023  0.3160  0.2026
  352MOL0     C48450   3.442   7.232   8.996  0.1581  0.6240 -0.4450
  352MOL0     C48451   3.561   7.242   8.889 -0.2514  0.1625  0.0592
  352MOL0     C48452   3.685   7.308   8.958 -0.0032 -0.2042 -0.5765
  352MOL0     C48453   3.750   7.413   8.883  0.8553 -0.4671  0.1705
  352MOL0     C48454   3.868   7.462   8.967 -0.4127  0.0580  0.3533
  352MOL0     N48455   3.967   7.351   8.989 -0.7047  0.0074 -0.2841
  352MOL0     C48456   4.040   7.285   8.893 -1.4638 -0.8647  0.6239
  352MOL0     C48457   4.104   7.183   8.964  0.2453  0.2269  0.5688
  352MOL0     C48458   4.189   7.077   8.900  0.6169 -0.4661 -0.4387
  352MOL0     C48459   4.324   7.056   8.975  0.0887 -1.1921  0.6694
  352MOL0     C48460   4.407   6.934   8.924  0.5823  0.3635 -0.4747
  352MOL0     C48461   4.421   6.924   8.774  0.7297 -1.0122  0.2992
  352MOL0     O48462   4.447   7.051   8.709 -0.1407  0.8885  0.8064
  352MOL0     C48463   4.452   7.049   8.576 -0.1174  1.6903  0.7426
  352MOL0     C48464   4.395   6.953   8.490 -0.1105  0.3385 -0.9506
  352MOL0     C48465   4.430   6.954   8.354 -0.6868 -0.0651 -0.8872
  352MOL0     C48466   4.363   6.860   8.266  0.2120  0.3265 -0.0057
  352MOL0     C48467   4.522   7.050   8.305  1.8364 -0.4012 -0.1037
  352MOL0     C48468   4.552   7.061   8.159 -0.0083 -0.2616  0.6603
  352MOL0     O48469   4.597   7.185   8.122 -0.1362 -0.2945 -0.5492
  352MOL0     C48470   4.633   7.214   7.993 -1.1799  0.8484 -0.8057
  352MOL0     C48471   4.569   7.172   7.871 -0.2345 -0.5457  1.2784
  352MOL0     C48472   4.611   7.219   7.743 -0.8834  1.0335 -0.7487
  352MOL0     C48473   4.713   7.314   7.742 -0.6195 -0.0039  0.9513
  352MOL0     O48474   4.758   7.363   7.626 -0.3633 -1.3958 -0.5456
  352MOL0     C48475   4.668   7.432   7.536 -0.4308 -0.1157 -0.7207
  352MOL0     C48476   4.757   7.476   7.420  0.2860  0.3787 -0.0639
  352MOL0     C48477   4.684   7.581   7.325 -0.2029  0.0173  0.9829
  352MOL0     C48478   4.652   7.715   7.386 -0.4840 -0.4387 -0.1967
  352MOL0     C48479   4.608   7.819   7.279 -0.0582 -0.2228  0.5894
  352MOL0     C48480   4.650   7.955   7.300 -0.6354 -0.7637  0.2308
  352MOL0     C48481   4.667   8.035   7.168  0.3920 -0.5763  0.6427
  352MOL0     C48482   4.698   8.177   7.204  0.8827 -0.3816 -0.0083
  352MOL0    Cl48483   4.772   8.252   7.066  0.2247 -0.4741 -0.0265
  352MOL0     C48484   4.778   7.352   7.855 -0.6765  0.1640 -0.7861
  352MOL0     C48485   4.743   7.305   7.984  0.8406  1.1241  0.7871
  352MOL0     O48486   4.551   6.965   8.085 -0.3646 -0.4146  0.1652
  352MOL0     C48487   4.562   7.153   8.389 -0.1835 -1.2182  0.4999
  352MOL0     C48488   4.530   7.152   8.524 -0.9030  0.7052 -0.8140
  352MOL0     N48489   4.060   7.195   9.099  0.0763  0.1578 -0.9877
  352MOL0     N48490   3.999   7.298   9.107 -0.5077  0.7729 -0.1718
  352MOL0     C48491   3.366   7.682   9.078 -0.4171  0.3227 -0.3044
  352MOL0     C48492   3.463   7.738   9.160 -0.1362 -0.2134 -0.1561
  352MOL0     C48493   3.767   8.020   9.319  0.1657  0.5532  0.6464
  352MOL0     C48494   3.833   7.932   9.417 -0.4954 -0.1359  1.1950
  352MOL0     C48495   3.933   7.978   9.504  0.7415  1.0909 -0.5066
  352MOL0     C48496   3.972   8.106   9.511 -0.5358 -0.6261  0.2370
  352MOL0     O48497   4.058   8.164   9.607  0.0222 -0.2861  0.0145
  352MOL0     C48498   4.134   8.073   9.681  0.0202 -0.6895 -0.2829
  352MOL0     C48499   4.266   8.149   9.722  0.2197 -0.2350  0.6820
  352MOL0     C48500   4.254   8.305   9.760 -0.1029  0.5387  0.2119
  352MOL0     C48501   4.383   8.355   9.826 -0.3299 -1.0750 -0.8216
  352MOL0     C48502   4.485   8.377   9.723 -0.4713  0.0783  0.3014
  352MOL0     C48503   4.557   8.431   9.640  0.0221 -0.7201 -0.1791
  352MOL0     C48504   3.919   8.190   9.414 -0.0573 -0.1436 -1.0395
  352MOL0     C48505   3.818   8.151   9.323 -0.3216  0.4975  0.2952
  352MOL0     C48506   3.773   8.270   9.228  0.2824 -0.1018 -1.1203
  352MOL0     H48507   3.686   7.854   8.930 -0.5822  0.8713 -1.4714
  352MOL0     H48508   3.499   7.757   8.783  0.5653  0.8354  0.2011
  352MOL0     H48509   3.130   7.509   8.793 -2.0846  1.6507  0.7802
  352MOL0     H48510   3.161   7.511   8.956  0.4185  0.8332 -0.0400
  352MOL0     H48511   3.239   7.307   8.835 -0.2360 -0.5140  0.8072
  352MOL0     H48512   3.369   7.400   8.775  0.1801  0.1757 -0.4199
  352MOL0     H48513   3.453   7.428   9.021  1.7400 -1.5816 -1.4611
  352MOL0     H48514   3.299   7.354   9.087 -0.1985 -4.7399  0.0389
  352MOL0     H48515   3.483   7.196   9.091 -0.4994  2.9074  0.7961
  352MOL0     H48516   3.373   7.159   8.954 -0.9116  0.5599  1.3393
  352MOL0     H48517   3.541   7.294   8.795 -1.5694  1.5422  1.0434
  352MOL0     H48518   3.586   7.142   8.855 -0.7682  0.4907 -1.3428
  352MOL0     H48519   3.650   7.353   9.052  3.3385 -0.9504  1.1955
  352MOL0     H48520   3.749   7.228   8.997 -1.5089 -0.1796  2.1941
  352MOL0     H48521   3.681   7.495   8.861  1.4746 -0.1074 -0.4732
  352MOL0     H48522   3.786   7.375   8.787 -0.0274 -4.8683  1.3698
  352MOL0     H48523   3.917   7.542   8.911 -0.1895  0.0281  0.5037
  352MOL0     H48524   3.832   7.514   9.057 -1.3176  1.1824 -0.6310
  352MOL0     H48525   4.031   7.309   8.788  2.0182 -1.8932 -0.0632
  352MOL0     H48526   4.211   7.115   8.800  1.5086  2.9211  0.8914
  352MOL0     H48527   4.128   6.987   8.894 -1.1850  0.6718  0.0689
  352MOL0     H48528   4.373   7.152   8.953 -4.6691  1.6473  0.9687
  352MOL0     H48529   4.311   7.060   9.084 -1.8693 -0.2359  0.4442
  352MOL0     H48530   4.507   6.939   8.967  0.9256  0.5507 -1.2878
  352MOL0     H48531   4.358   6.841   8.955 -0.2503  1.1672  0.7209
  352MOL0     H48532   4.499   6.848   8.765  0.3115 -1.8586  3.0511
  352MOL0     H48533   4.328   6.885   8.733  1.1252 -2.3075  0.6099
  352MOL0     H48534   4.337   6.866   8.521 -0.8028  0.8184 -0.8673
  352MOL0     H48535   4.268   6.840   8.316 -0.7898  1.1053 -1.5486
  352MOL0     H48536   4.429   6.776   8.242 -0.3340  0.0709 -0.6410
  352MOL0     H48537   4.328   6.901   8.171  2.2226  2.2370 -0.0001
  352MOL0     H48538   4.474   7.121   7.864 -3.5176  5.0836 -2.4328
  352MOL0     H48539   4.576   7.180   7.648  3.3038 -2.2020 -1.2568
  352MOL0     H48540   4.590   7.362   7.509 -1.3988  0.4723  0.4412
  352MOL0     H48541   4.627   7.517   7.592 -0.1882  1.4766 -2.8225
  352MOL0     H48542   4.844   7.525   7.465 -0.0726 -0.2134  1.3129
  352MOL0     H48543   4.781   7.381   7.371  0.4098  0.1684  0.3982
  352MOL0     H48544   4.588   7.537   7.295  0.7929 -1.3267 -0.3514
  352MOL0     H48545   4.745   7.584   7.235 -0.5992 -2.2424  0.5782
  352MOL0     H48546   4.744   7.733   7.443 -0.4495 -0.5090 -0.2287
  352MOL0     H48547   4.582   7.691   7.466  0.9158  0.6128  1.3988
  352MOL0     H48548   4.659   7.782   7.190  0.5455 -0.6658  1.1074
  352MOL0     H48549   4.500   7.812   7.263  0.1198 -0.1803 -0.7204
  352MOL0     H48550   4.747   7.948   7.350 -0.5268  0.3779  0.2049
  352MOL0     H48551   4.581   8.009   7.365  1.5253  1.1833  1.0588
  352MOL0     H48552   4.584   8.028   7.096  2.4633 -3.4916 -1.7221
  352MOL0     H48553   4.752   7.988   7.118  0.1844 -3.4809  2.7738
  352MOL0     H48554   4.766   8.175   7.290 -1.1457 -1.1832  1.6562
  352MOL0     H48555   4.604   8.224   7.234 -0.4262 -2.3224 -0.8532
  352MOL0     H48556   4.870   7.409   7.843 -0.7329  0.2183 -0.9565
  352MOL0     H48557   4.797   7.344   8.069  0.4405  2.4342  0.4699
  352MOL0     H48558   4.617   7.242   8.359 -2.7931  0.7254  1.0850
  352MOL0     H48559   4.583   7.218   8.592 -0.9648 -1.0553  1.0600
  352MOL0     H48560   3.285   7.627   9.123 -0.6944  1.2040  0.2886
  352MOL0     H48561   3.460   7.711   9.265  1.0961 -1.9028 -0.5150
  352MOL0     H48562   3.812   7.825   9.421 -1.7674  0.0450 -0.0269
  352MOL0     H48563   3.971   7.901   9.570  1.7886  0.6224 -1.6304
  352MOL0     H48564   4.079   8.053   9.773 -2.5297  0.8033 -1.3655
  352MOL0     H48565   4.157   7.980   9.628  1.3645  0.8826 -2.6670
  352MOL0     H48566   4.341   8.156   9.643 -1.1162  0.8231 -0.5397
  352MOL0     H48567   4.311   8.093   9.805  0.9364 -2.2174 -0.9782
  352MOL0     H48568   4.227   8.372   9.677  0.8487 -1.4682 -1.8267
  352MOL0     H48569   4.170   8.319   9.829 -2.6389  0.5891 -2.6794
  352MOL0     H48570   4.409   8.295   9.913  0.5999  2.1151  1.2716
  352MOL0     H48571   4.365   8.454   9.870 -0.4199 -2.5384  2.6742
  352MOL0     H48572   4.607   8.497   9.571 -3.7504  1.9457 -0.6806
  352MOL0     H48573   3.962   8.289   9.412 -0.4494  0.1448  1.5696
  352MOL0     H48574   3.858   8.339   9.222  2.5056 -2.7609 -3.3192
  352MOL0     H48575   3.748   8.228   9.130 -1.2875  1.7194 -1.5553
  352MOL0     H48576   3.683   8.321   9.262 -0.3188 -0.9860 -1.3625
  353MOL0     O48577   0.152   5.526   3.176 -0.7171  0.0462  0.2235
  353MOL0     C48578   0.265   5.515   3.226  0.8459  0.9023 -0.2615
  353MOL0     O48579   0.369   5.598   3.191 -0.5424  0.1121 -0.2640
  353MOL0     C48580   0.351   5.686   3.096  1.1128 -1.0196  0.3944
  353MOL0     C48581   0.305   5.662   2.968  0.3613 -1.1455  0.3293
  353MOL0     C48582   0.297   5.764   2.873 -0.6189 -1.2693 -0.0148
  353MOL0     C48583   0.349   5.893   2.897  0.2372 -0.5481 -0.8829
  353MOL0     O48584   0.331   5.981   2.796 -0.8899  0.6749  0.1174
  353MOL0     C48585   0.389   6.112   2.812 -0.8455 -0.4418 -0.6150
  353MOL0     C48586   0.413   6.183   2.677  0.0698 -0.0337  0.2685
  353MOL0     C48587   0.281   6.235   2.614 -0.4608 -0.0533  0.3117
  353MOL0     C48588   0.279   6.303   2.479  0.6323 -0.2304 -0.1232
  353MOL0     C48589   0.135   6.345   2.448  1.2790 -0.3901  0.3026
  353MOL0     C48590   0.105   6.492   2.474 -0.0207  0.7221  0.9128
  353MOL0     C48591  -0.040   6.531   2.453 -0.3956  0.8478  0.1053
  353MOL0     C48592  -0.140   6.461   2.544  0.9317 -0.4655  0.2622
  353MOL0     N48593  -0.274   6.525   2.549 -0.6590  0.5637  0.4827
  353MOL0     C48594  -0.387   6.467   2.492  0.6494  0.0230  0.5179
  353MOL0     C48595  -0.474   6.572   2.486  0.8195  0.0643 -0.1709
  353MOL0     C48596  -0.603   6.581   2.404 -0.8603 -0.8540  0.2493
  353MOL0     C48597  -0.602   6.480   2.290  0.6763 -0.5882 -0.1133
  353MOL0     C48598  -0.740   6.457   2.227  0.9212 -0.5399 -0.1768
  353MOL0     C48599  -0.781   6.569   2.132 -0.6578  0.0470 -0.5126
  353MOL0     O48600  -0.914   6.522   2.101 -0.8059 -0.1246 -0.1815
  353MOL0     C48601  -0.969   6.580   1.989 -1.3462 -0.4783 -0.4689
  353MOL0     C48602  -0.921   6.704   1.936 -0.2751  0.8224  0.3937
  353MOL0     C48603  -0.993   6.766   1.828 -0.4618 -0.6048  0.0385
  353MOL0     C48604  -0.950   6.905   1.791  0.4414 -0.2785  0.4501
  353MOL0     C48605  -1.111   6.698   1.772 -0.3097 -0.0742 -0.3660
  353MOL0     C48606  -1.215   6.760   1.679 -0.2640 -0.1611  0.7155
  353MOL0     O48607  -1.171   6.862   1.596  0.1477  0.8321 -0.1065
  353MOL0     C48608  -1.265   6.960   1.560  1.2887 -0.4098  0.4214
  353MOL0     C48609  -1.364   6.927   1.469  0.8780 -0.4887  0.1936
  353MOL0     C48610  -1.478   7.013   1.453 -0.4058 -0.2708 -0.2017
  353MOL0     C48611  -1.468   7.155   1.500  0.1016  1.0014  0.1378
  353MOL0     O48612  -1.568   7.242   1.495  0.2235 -0.1103 -0.0136
  353MOL0     C48613  -1.602   7.309   1.375 -0.0564  0.3295 -0.2939
  353MOL0     C48614  -1.725   7.394   1.407  0.2370  0.4108 -0.1605
  353MOL0     C48615  -1.692   7.540   1.393  0.0862  0.6969 -0.0932
  353MOL0     C48616  -1.819   7.623   1.380  0.2062 -1.2402  0.9477
  353MOL0     C48617  -1.789   7.777   1.349  0.3262 -1.1984 -0.2155
  353MOL0     C48618  -1.918   7.861   1.362  0.6799  0.3680 -0.1985
  353MOL0     C48619  -2.009   7.841   1.237  0.1229  0.8058 -0.9738
  353MOL0     C48620  -2.152   7.897   1.261  0.2244  0.3132 -0.1137
  353MOL0    Cl48621  -2.262   7.847   1.131  0.5080 -0.0630 -0.8606
  353MOL0     C48622  -1.363   7.194   1.581 -0.2324 -0.4871 -0.3406
  353MOL0     C48623  -1.270   7.093   1.619 -0.4338  0.7834  0.2693
  353MOL0     O48624  -1.330   6.729   1.698  0.4635 -0.4631  0.0956
  353MOL0     C48625  -1.150   6.576   1.834  0.8506 -0.0445 -0.2003
  353MOL0     C48626  -1.082   6.522   1.945  0.7179  0.3176  0.8239
  353MOL0     N48627  -0.416   6.690   2.541  0.5752  0.0716 -0.0027
  353MOL0     N48628  -0.297   6.657   2.577 -0.3541  0.3261 -0.1733
  353MOL0     C48629   0.396   5.918   3.028 -0.5882 -0.3980 -0.4209
  353MOL0     C48630   0.399   5.816   3.125  0.2850  0.0321  0.9843
  353MOL0     C48631   0.284   5.391   3.319 -0.0319  0.7732  0.5148
  353MOL0     C48632   0.417   5.356   3.361  0.5931 -0.4628  0.5889
  353MOL0     C48633   0.433   5.254   3.451  0.1481 -0.3318  1.4747
  353MOL0     C48634   0.330   5.175   3.493  0.9665  0.5282  0.4751
  353MOL0     O48635   0.346   5.062   3.571 -0.3024  0.5780 -0.0575
  353MOL0     C48636   0.452   4.977   3.527  0.7280 -0.5923  0.0749
  353MOL0     C48637   0.455   4.844   3.600  0.0494 -0.3198  0.2940
  353MOL0     C48638   0.510   4.846   3.742  0.5147  0.1656 -0.4138
  353MOL0     C48639   0.514   4.700   3.806 -0.2031 -0.2482 -0.0376
  353MOL0     C48640   0.565   4.595   3.722 -0.5768 -0.0282 -0.1535
  353MOL0     C48641   0.610   4.512   3.652  0.4399 -0.4236 -0.1701
  353MOL0     C48642   0.197   5.205   3.459  0.1727 -0.7732 -0.6414
  353MOL0     C48643   0.168   5.307   3.360  0.3223  0.1469 -1.0902
  353MOL0     C48644   0.026   5.337   3.326  0.4905 -0.8305  0.4862
  353MOL0     H48645   0.267   5.567   2.932  0.5024 -0.8048 -0.7607
  353MOL0     H48646   0.258   5.737   2.775  2.4375  0.9818 -2.0391
  353MOL0     H48647   0.488   6.092   2.852 -0.4563  0.0723 -1.3124
  353MOL0     H48648   0.335   6.168   2.890  2.2894 -0.3082  1.6442
  353MOL0     H48649   0.485   6.265   2.685  0.0683 -0.0894  0.8462
  353MOL0     H48650   0.457   6.114   2.605  0.0911  0.3198 -0.0677
  353MOL0     H48651   0.214   6.149   2.610 -2.9725  1.7965 -0.1977
  353MOL0     H48652   0.231   6.310   2.677  0.2954 -1.8718  3.2833
  353MOL0     H48653   0.354   6.382   2.472 -0.3390  0.5866 -2.3845
  353MOL0     H48654   0.304   6.228   2.404  0.1247 -1.1178  0.5819
  353MOL0     H48655   0.073   6.285   2.515 -1.1017  0.6619 -0.8638
  353MOL0     H48656   0.110   6.337   2.342  3.4880  1.1236 -0.4151
  353MOL0     H48657   0.127   6.508   2.580 -1.3378  0.6231  1.2242
  353MOL0     H48658   0.168   6.545   2.402  2.0119 -1.9398  0.5799
  353MOL0     H48659  -0.070   6.529   2.347  2.6343 -0.3518 -0.8477
  353MOL0     H48660  -0.049   6.636   2.481  1.1151  0.6477  1.4510
  353MOL0     H48661  -0.150   6.357   2.510  4.1032 -0.8063  0.0558
  353MOL0     H48662  -0.109   6.457   2.649  1.0636 -1.1044  0.2062
  353MOL0     H48663  -0.405   6.375   2.439 -3.9026  1.6685 -1.2950
  353MOL0     H48664  -0.604   6.679   2.357  2.3422 -1.7141 -2.0211
  353MOL0     H48665  -0.686   6.563   2.472 -1.3520 -3.2791 -0.8466
  353MOL0     H48666  -0.539   6.504   2.204 -0.8972  0.4012 -1.0561
  353MOL0     H48667  -0.575   6.386   2.337 -3.1623 -1.0604  1.5473
  353MOL0     H48668  -0.747   6.360   2.176 -1.7223  0.5030 -2.0506
  353MOL0     H48669  -0.815   6.456   2.306 -0.8090  2.6349 -1.5847
  353MOL0     H48670  -0.778   6.661   2.191 -1.2153 -0.1003 -0.2517
  353MOL0     H48671  -0.717   6.555   2.044 -3.2736 -0.8748 -2.3916
  353MOL0     H48672  -0.840   6.747   1.994  0.6529 -0.2384 -0.0810
  353MOL0     H48673  -0.928   6.912   1.684 -0.9296 -2.8824 -0.0740
  353MOL0     H48674  -0.860   6.920   1.852  1.0257 -2.4676  0.2131
  353MOL0     H48675  -1.028   6.971   1.830  0.8521 -1.2861  3.2185
  353MOL0     H48676  -1.364   6.823   1.438  0.7887 -0.5586  0.4272
  353MOL0     H48677  -1.559   6.983   1.387 -1.3167  1.8385 -0.1291
  353MOL0     H48678  -1.524   7.373   1.335  0.4232 -1.4245 -2.3414
  353MOL0     H48679  -1.617   7.228   1.303  3.8209 -0.4731 -0.3982
  353MOL0     H48680  -1.798   7.375   1.328  2.1056  1.5448 -2.2799
  353MOL0     H48681  -1.766   7.364   1.504 -1.7602 -1.8027 -1.5777
  353MOL0     H48682  -1.627   7.563   1.309  1.2203 -0.1145  0.5359
  353MOL0     H48683  -1.641   7.579   1.482 -1.3765 -0.4782  1.3166
  353MOL0     H48684  -1.882   7.610   1.469 -1.0551 -1.0735  0.1004
  353MOL0     H48685  -1.881   7.585   1.299 -1.6026  1.0870  1.1436
  353MOL0     H48686  -1.709   7.828   1.404 -1.4388 -1.4334  2.8272
  353MOL0     H48687  -1.758   7.779   1.244 -0.4144  1.0529 -0.4371
  353MOL0     H48688  -1.887   7.966   1.368  0.3345  0.5626 -1.6012
  353MOL0     H48689  -1.968   7.828   1.453 -1.5091  0.2266 -1.4007
  353MOL0     H48690  -2.013   7.742   1.190  1.1828  1.2191 -2.0212
  353MOL0     H48691  -1.955   7.895   1.158  2.9875 -1.6434 -0.8980
  353MOL0     H48692  -2.145   8.006   1.272  1.4168  0.3718 -1.1868
  353MOL0     H48693  -2.181   7.857   1.359 -1.1931  0.2325 -0.5424
  353MOL0     H48694  -1.352   7.292   1.626  4.0001 -0.4776 -1.0178
  353MOL0     H48695  -1.193   7.113   1.694 -1.5428  1.0094  1.3732
  353MOL0     H48696  -1.238   6.525   1.797 -0.5624  2.1560 -0.0755
  353MOL0     H48697  -1.118   6.434   1.998 -0.8301  0.9840  0.9089
  353MOL0     H48698   0.421   6.021   3.055  0.3312 -0.8801  0.6544
  353MOL0     H48699   0.417   5.841   3.229 -4.0221  0.9343  1.7241
  353MOL0     H48700   0.491   5.429   3.329 -1.6577  2.0800  0.8339
  353MOL0     H48701   0.536   5.245   3.486  1.2380  1.5325 -0.9464
  353MOL0     H48702   0.452   4.956   3.420 -3.6964 -1.9597  0.1375
  353MOL0     H48703   0.542   5.029   3.560 -0.7446  0.6267  2.4266
  353MOL0     H48704   0.529   4.784   3.548  1.8833  1.4222  0.7591
  353MOL0     H48705   0.357   4.798   3.582  0.0140 -0.0517 -0.2288
  353MOL0     H48706   0.608   4.894   3.745 -0.5348  2.4250 -0.8005
  353MOL0     H48707   0.444   4.906   3.804 -1.0100 -2.0274  0.2273
  353MOL0     H48708   0.411   4.675   3.833 -0.3096 -1.5195 -1.5045
  353MOL0     H48709   0.577   4.694   3.896 -0.0616 -1.6804 -0.2049
  353MOL0     H48710   0.628   4.440   3.575  3.3356  0.7959 -0.7734
  353MOL0     H48711   0.119   5.146   3.506 -1.3706  1.6144 -0.0104
  353MOL0     H48712  -0.031   5.249   3.356  0.0476  0.4908  3.9251
  353MOL0     H48713  -0.011   5.428   3.374 -0.9134 -1.0102 -0.2052
  353MOL0     H48714   0.026   5.354   3.218  2.7187  2.7464  0.8864
  354MOL0     O48715   5.536   9.322   1.133 -0.4949 -0.4629  0.9120
  354MOL0     C48716   5.468   9.265   1.051  0.1121  0.6421  0.2588
  354MOL0     O48717   5.388   9.151   1.077  0.6861  0.1090  0.0566
  354MOL0     C48718   5.386   9.103   1.205  0.0313 -0.5948  0.7731
  354MOL0     C48719   5.291   9.144   1.296  0.8140  0.0054 -0.1602
  354MOL0     C48720   5.291   9.084   1.430 -0.3860  0.5184  0.6455
  354MOL0     C48721   5.387   8.992   1.462 -1.3348 -0.0803 -0.0821
  354MOL0     O48722   5.396   8.932   1.589  0.4085  0.3427 -0.7281
  354MOL0     C48723   5.344   8.798   1.589 -0.4398 -0.6785 -0.4248
  354MOL0     C48724   5.279   8.765   1.727  0.4318 -0.7432 -0.4175
  354MOL0     C48725   5.134   8.780   1.722  0.3326 -0.5787 -0.6761
  354MOL0     C48726   5.073   8.768   1.864 -0.3922 -0.3224  0.5500
  354MOL0     C48727   4.913   8.769   1.862  0.5186 -1.1792  0.4225
  354MOL0     C48728   4.845   8.687   1.969 -0.1289 -0.3592 -0.6252
  354MOL0     C48729   4.833   8.535   1.946 -0.2262 -0.8305  0.1366
  354MOL0     C48730   4.771   8.502   1.812  0.5272  0.6970 -0.0971
  354MOL0     N48731   4.880   8.466   1.710  0.2515 -0.1689 -0.2395
  354MOL0     C48732   5.002   8.398   1.730 -1.0831 -0.1256 -0.1975
  354MOL0     C48733   5.052   8.368   1.610  0.4298 -0.3575  0.2076
  354MOL0     C48734   5.171   8.283   1.570 -0.1383 -0.5405 -0.6297
  354MOL0     C48735   5.286   8.343   1.484  0.3213  0.2858  0.3246
  354MOL0     C48736   5.411   8.262   1.495  0.4017 -0.6819 -0.3942
  354MOL0     C48737   5.405   8.124   1.435  0.2747  0.0946  0.0953
  354MOL0     O48738   5.364   8.039   1.535  0.1402  0.0188 -0.1487
  354MOL0     C48739   5.325   7.911   1.496 -0.4360  0.7539 -0.2827
  354MOL0     C48740   5.234   7.849   1.575 -0.6503 -0.3761  0.1653
  354MOL0     C48741   5.180   7.725   1.538 -0.7921  0.8325  0.7050
  354MOL0     C48742   5.067   7.659   1.619 -0.6033 -0.2709 -0.8646
  354MOL0     C48743   5.241   7.645   1.434  0.6148  0.9261 -0.9490
  354MOL0     C48744   5.193   7.507   1.393  0.1578 -0.3559  1.0826
  354MOL0     O48745   5.258   7.455   1.276 -0.1205  0.3744 -1.0584
  354MOL0     C48746   5.213   7.333   1.222  0.3261  0.2289  0.6322
  354MOL0     C48747   5.096   7.324   1.139  0.2975 -0.0755 -0.3289
  354MOL0     C48748   5.065   7.206   1.075  0.0282 -0.6473  0.2790
  354MOL0     C48749   5.136   7.089   1.093 -0.6592 -0.0750 -0.3265
  354MOL0     O48750   5.095   6.972   1.040 -0.4972  0.5949  0.5599
  354MOL0     C48751   5.083   6.984   0.893  0.0384  0.1405 -0.4506
  354MOL0     C48752   5.075   6.846   0.828 -0.3721 -0.0821  1.4126
  354MOL0     C48753   5.220   6.806   0.800 -0.0516 -0.2191  0.7580
  354MOL0     C48754   5.209   6.675   0.721 -0.2289  0.1654  0.0090
  354MOL0     C48755   5.132   6.561   0.791 -0.2612  1.3620 -0.3419
  354MOL0     C48756   5.176   6.427   0.731 -0.6527  0.6341  0.0436
  354MOL0     C48757   5.106   6.307   0.806  0.2247  0.6921 -0.6321
  354MOL0     C48758   5.105   6.178   0.726 -0.0981 -0.3629 -0.7790
  354MOL0    Cl48759   5.273   6.126   0.712  0.2227  0.3581 -0.3295
  354MOL0     C48760   5.257   7.094   1.167 -0.1422 -0.0009 -0.7018
  354MOL0     C48761   5.289   7.219   1.230  0.5210 -0.3525  1.0562
  354MOL0     O48762   5.102   7.446   1.458 -0.2101  0.7647  0.1725
  354MOL0     C48763   5.350   7.703   1.362  0.2114  0.2248 -0.1797
  354MOL0     C48764   5.382   7.840   1.392  0.4350  0.7252  0.4976
  354MOL0     N48765   4.964   8.430   1.518 -0.4821 -0.6319 -0.8449
  354MOL0     N48766   4.863   8.484   1.575  0.6613  0.0035  0.0328
  354MOL0     C48767   5.499   8.967   1.375  0.2777 -0.1542 -0.3527
  354MOL0     C48768   5.494   9.022   1.243  0.7380 -0.0733  0.0642
  354MOL0     C48769   5.466   9.296   0.908  0.7103  0.8779 -0.4673
  354MOL0     C48770   5.336   9.281   0.848  0.2146  0.6881 -0.1268
  354MOL0     C48771   5.318   9.313   0.719 -0.6533 -0.0283  0.3463
  354MOL0     C48772   5.425   9.364   0.638  0.8771 -0.2272  0.2630
  354MOL0     O48773   5.403   9.384   0.503  0.5599  0.5045  0.1668
  354MOL0     C48774   5.499   9.453   0.432 -0.6022  0.1774  0.4025
  354MOL0     C48775   5.460   9.450   0.288  0.3666  0.0924 -0.4516
  354MOL0     C48776   5.494   9.564   0.183  0.5536  0.8808  0.8557
  354MOL0     C48777   5.635   9.549   0.133  0.1117 -0.3019 -0.0354
  354MOL0     C48778   5.731   9.558   0.244  1.4918  0.3172 -0.0156
  354MOL0     C48779   5.824   9.564   0.320 -0.6715 -0.4072 -0.3929
  354MOL0     C48780   5.549   9.394   0.701  0.5305  0.1739 -0.2415
  354MOL0     C48781   5.571   9.358   0.833  0.3894 -0.1997  0.1346
  354MOL0     C48782   5.711   9.367   0.889  0.8972 -0.4053 -0.4231
  354MOL0     H48783   5.217   9.212   1.256  0.0031 -0.6637  0.1716
  354MOL0     H48784   5.216   9.114   1.502 -1.6880  1.0566 -0.8578
  354MOL0     H48785   5.420   8.723   1.566 -0.0043 -0.5306  0.5080
  354MOL0     H48786   5.270   8.779   1.510  1.7882 -0.4450 -2.6672
  354MOL0     H48787   5.288   8.658   1.747 -0.9861 -0.8495 -0.2817
  354MOL0     H48788   5.308   8.837   1.804  0.1972  0.6176 -1.5696
  354MOL0     H48789   5.119   8.879   1.677  0.8018 -0.2817 -0.1875
  354MOL0     H48790   5.088   8.702   1.660 -2.0621 -0.0391  0.3446
  354MOL0     H48791   5.101   8.671   1.906 -0.7413 -1.5920 -1.9284
  354MOL0     H48792   5.094   8.856   1.926 -6.0639 -1.3240  4.6505
  354MOL0     H48793   4.874   8.739   1.764  1.6005 -2.4392  0.3393
  354MOL0     H48794   4.889   8.875   1.868 -1.1649 -1.5851  1.6772
  354MOL0     H48795   4.891   8.701   2.068  0.0188 -1.3013 -0.5503
  354MOL0     H48796   4.742   8.716   1.992  0.1080 -0.5273  0.7876
  354MOL0     H48797   4.756   8.507   2.019 -0.3297 -0.9384 -0.0145
  354MOL0     H48798   4.931   8.487   1.957  2.0575  2.7469 -2.4730
  354MOL0     H48799   4.712   8.411   1.818  1.3162  0.2680  2.1393
  354MOL0     H48800   4.716   8.589   1.775  0.8585  0.3177 -1.5799
  354MOL0     H48801   5.052   8.368   1.822  1.5300 -0.7545 -1.7338
  354MOL0     H48802   5.123   8.193   1.532 -0.3597 -1.1367  1.0204
  354MOL0     H48803   5.220   8.248   1.661  0.5648  2.8063  0.4169
  354MOL0     H48804   5.261   8.342   1.378  1.0916 -0.4780  0.1390
  354MOL0     H48805   5.318   8.436   1.531 -1.8726  0.3480  1.8947
  354MOL0     H48806   5.488   8.320   1.443  0.9225 -2.5352 -1.8030
  354MOL0     H48807   5.441   8.257   1.600 -2.5869 -1.1495  0.5419
  354MOL0     H48808   5.339   8.120   1.347  1.6759  0.5450 -1.0080
  354MOL0     H48809   5.499   8.093   1.390 -0.5874  1.1894 -2.6591
  354MOL0     H48810   5.184   7.905   1.654 -2.5495 -2.0412  0.2290
  354MOL0     H48811   5.106   7.566   1.660 -0.2995 -0.0389 -0.6152
  354MOL0     H48812   4.974   7.646   1.563 -1.5910 -0.2776  0.6978
  354MOL0     H48813   5.044   7.718   1.709  0.4006  0.2156 -0.9192
  354MOL0     H48814   5.042   7.418   1.146 -1.4186 -1.0510  0.3475
  354MOL0     H48815   4.974   7.195   1.016  0.0796 -4.3598  0.6872
  354MOL0     H48816   4.989   7.034   0.866  0.1600  0.1365 -0.8971
  354MOL0     H48817   5.171   7.028   0.845  1.0680 -0.1709  1.0801
  354MOL0     H48818   5.006   6.782   0.883 -2.3301 -1.8288 -2.6779
  354MOL0     H48819   5.026   6.853   0.731  0.8159 -1.4476  0.6778
  354MOL0     H48820   5.263   6.790   0.899  3.0596  1.5543 -0.1690
  354MOL0     H48821   5.278   6.876   0.740 -0.3283 -0.5877  0.0354
  354MOL0     H48822   5.306   6.641   0.682 -0.7628  0.5382 -1.7256
  354MOL0     H48823   5.156   6.694   0.627 -1.1947 -1.6543  0.1368
  354MOL0     H48824   5.168   6.562   0.894 -1.2167  4.1495  0.0397
  354MOL0     H48825   5.024   6.565   0.803 -0.2557  2.2428 -0.4737
  354MOL0     H48826   5.284   6.416   0.742 -0.6093  0.1667 -0.7856
  354MOL0     H48827   5.146   6.425   0.626 -3.5687 -0.8893  0.8024
  354MOL0     H48828   5.001   6.333   0.823 -0.1968 -0.9001 -0.7041
  354MOL0     H48829   5.162   6.285   0.897 -1.4894 -1.2628  0.0088
  354MOL0     H48830   5.067   6.189   0.624  1.7389 -1.6115 -1.6480
  354MOL0     H48831   5.052   6.101   0.782  2.4224  0.2350  2.8298
  354MOL0     H48832   5.321   7.008   1.183  0.6298  1.0529  2.9636
  354MOL0     H48833   5.383   7.232   1.281 -0.1602  3.7833  1.5849
  354MOL0     H48834   5.403   7.653   1.281  1.4168 -1.9445  1.8204
  354MOL0     H48835   5.447   7.880   1.314  0.6378 -1.0702 -0.2906
  354MOL0     H48836   5.583   8.906   1.408  0.5518 -0.7358 -2.0037
  354MOL0     H48837   5.578   9.005   1.176  2.1892 -1.2984  2.0426
  354MOL0     H48838   5.252   9.225   0.888  0.6373 -1.7167 -2.2971
  354MOL0     H48839   5.229   9.292   0.660 -0.2348  2.4404 -1.2784
  354MOL0     H48840   5.513   9.553   0.475 -0.2394  0.5256 -0.4924
  354MOL0     H48841   5.590   9.393   0.442  0.9404  2.1627 -1.0021
  354MOL0     H48842   5.351   9.454   0.295  0.4800  0.8166  1.7718
  354MOL0     H48843   5.487   9.352   0.246  2.6858 -0.8824  2.8324
  354MOL0     H48844   5.436   9.564   0.090  0.9325  2.3558  0.5989
  354MOL0     H48845   5.480   9.663   0.227 -3.9117  1.2063 -0.8344
  354MOL0     H48846   5.656   9.630   0.062  2.1183 -1.6219 -1.0315
  354MOL0     H48847   5.638   9.456   0.075 -0.3161  0.4500 -1.3091
  354MOL0     H48848   5.918   9.565   0.372  0.5574  0.7691 -2.4909
  354MOL0     H48849   5.634   9.447   0.660  1.3499 -1.7562 -1.2153
  354MOL0     H48850   5.722   9.285   0.960  1.0890 -2.1111 -2.3529
  354MOL0     H48851   5.791   9.355   0.816  0.6942  0.2600 -0.7630
  354MOL0     H48852   5.736   9.459   0.944  1.4407 -0.3485 -0.7535
  355MOL0     O48853   2.127  11.241   9.003 -0.3626  0.4668 -0.5391
  355MOL0     C48854   2.242  11.267   9.016  0.1131 -0.9453  0.4329
  355MOL0     O48855   2.316  11.262   9.130 -0.2846  0.5362 -0.9287
  355MOL0     C48856   2.252  11.213   9.249 -0.7125 -0.2409  0.6029
  355MOL0     C48857   2.242  11.295   9.359 -0.1010  0.1733 -0.8374
  355MOL0     C48858   2.169  11.256   9.472  0.6408 -0.2217  0.1227
  355MOL0     C48859   2.104  11.133   9.482 -0.4580  0.0990  0.4077
  355MOL0     O48860   2.048  11.074   9.591 -0.3933 -0.5509 -0.3107
  355MOL0     C48861   2.122  10.974   9.660 -0.3538  0.3048  0.3207
  355MOL0     C48862   2.118  10.981   9.812 -1.1191 -1.1659 -0.9643
  355MOL0     C48863   2.157  11.127   9.860  0.3932 -0.2355 -0.5507
  355MOL0     C48864   2.192  11.111  10.012  0.8776  0.0712  0.9527
  355MOL0     C48865   2.205  11.231  10.096 -0.0501 -0.3492 -0.9598
  355MOL0     C48866   2.277  11.195  10.225 -0.1555 -0.6177 -0.5739
  355MOL0     C48867   2.293  11.329  10.315 -0.5700 -0.8235 -0.4210
  355MOL0     C48868   2.167  11.416  10.324 -0.4588 -0.4201 -0.4881
  355MOL0     N48869   2.205  11.518  10.426 -0.2911  0.4282 -0.3760
  355MOL0     C48870   2.314  11.601  10.410  0.2106 -0.7129 -0.1430
  355MOL0     C48871   2.304  11.686  10.505  0.0213  0.1955  0.0629
  355MOL0     C48872   2.388  11.809  10.505  0.2861 -0.0050 -0.6498
  355MOL0     C48873   2.383  11.900  10.382  0.7444 -0.2370  0.8407
  355MOL0     C48874   2.275  12.012  10.389 -0.2631 -0.1569  0.0378
  355MOL0     C48875   2.249  12.090  10.266 -0.2073 -0.2713  0.3791
  355MOL0     O48876   2.215  11.995  10.160  0.5521 -0.7118 -0.3198
  355MOL0     C48877   2.174  12.040  10.035 -0.7171 -1.3636  0.4969
  355MOL0     C48878   2.099  11.952   9.953 -0.3280 -0.3159 -0.3495
  355MOL0     C48879   2.055  11.981   9.823 -0.8939 -0.4991  0.6279
  355MOL0     C48880   1.968  11.875   9.760  0.6588  0.8055  0.4567
  355MOL0     C48881   2.088  12.113   9.765 -1.2826 -0.3428  0.0265
  355MOL0     C48882   2.022  12.156   9.636 -0.4550 -0.1407  0.3046
  355MOL0     O48883   2.074  12.279   9.582  0.5867 -0.5524 -0.0887
  355MOL0     C48884   2.004  12.350   9.484  0.1366 -0.3334 -0.7207
  355MOL0     C48885   2.071  12.439   9.390  0.7138 -0.2284 -0.6885
  355MOL0     C48886   2.001  12.503   9.288  0.7264  0.0908 -0.9841
  355MOL0     C48887   1.862  12.489   9.276  0.4363  0.0939  0.2755
  355MOL0     O48888   1.795  12.563   9.182  0.6298 -0.5380  0.9353
  355MOL0     C48889   1.660  12.528   9.153 -0.6163 -0.6184  0.0045
  355MOL0     C48890   1.598  12.647   9.074  0.3055  0.0695 -0.3306
  355MOL0     C48891   1.446  12.673   9.092  0.0504  0.6226  0.4221
  355MOL0     C48892   1.361  12.553   9.056 -0.8671 -0.0703  0.3301
  355MOL0     C48893   1.207  12.571   9.077 -0.4773  0.1577 -0.6961
  355MOL0     C48894   1.178  12.550   9.230 -0.0853  0.1655  0.2236
  355MOL0     C48895   1.019  12.536   9.248 -1.1076  1.3253 -0.1215
  355MOL0     C48896   0.996  12.565   9.393 -0.6255 -1.1432  0.7268
  355MOL0    Cl48897   1.015  12.743   9.407  0.2653  0.2301 -0.1758
  355MOL0     C48898   1.793  12.405   9.370 -1.1264  0.7469 -0.0636
  355MOL0     C48899   1.868  12.338   9.474  0.0882 -0.7693 -0.0386
  355MOL0     O48900   1.931  12.087   9.582 -0.0995 -0.3042 -0.4672
  355MOL0     C48901   2.172  12.202   9.844 -0.4732  0.0547 -0.2422
  355MOL0     C48902   2.212  12.162   9.975 -0.1767  0.0662 -0.0574
  355MOL0     N48903   2.199  11.650  10.584  0.1551 -0.4904  0.4642
  355MOL0     N48904   2.135  11.559  10.527 -0.0450  0.2550 -0.8471
  355MOL0     C48905   2.127  11.053   9.376  0.1412  0.9558 -0.2756
  355MOL0     C48906   2.195  11.087   9.261 -0.1127  0.5461  0.4680
  355MOL0     C48907   2.301  11.354   8.922  0.0902  0.1552 -1.5815
  355MOL0     C48908   2.409  11.319   8.855  0.0040  0.4347  0.3717
  355MOL0     C48909   2.462  11.412   8.766 -1.6983  0.1284 -0.2273
  355MOL0     C48910   2.431  11.552   8.753  0.4585  0.7426 -0.7120
  355MOL0     O48911   2.520  11.630   8.688 -1.3450 -0.3941  0.3010
  355MOL0     C48912   2.486  11.768   8.662 -0.3282  0.3180  0.2537
  355MOL0     C48913   2.502  11.866   8.777  0.1655  0.0699  0.5394
  355MOL0     C48914   2.534  12.008   8.740 -0.0200  0.0773  0.6905
  355MOL0     C48915   2.586  12.087   8.853  0.2368  0.5003  0.5070
  355MOL0     C48916   2.626  12.217   8.804 -0.6003  0.2236 -0.2210
  355MOL0     C48917   2.663  12.333   8.770  0.0462  0.2423  0.0388
  355MOL0     C48918   2.330  11.590   8.835  0.6442 -0.1924 -0.0189
  355MOL0     C48919   2.263  11.492   8.914 -0.1631  0.7938 -0.6659
  355MOL0     C48920   2.144  11.532   8.985 -0.9404 -0.9667  0.2121
  355MOL0     H48921   2.274  11.399   9.360 -1.0996  0.5369  1.7198
  355MOL0     H48922   2.170  11.328   9.553 -1.8091  2.9296 -2.3845
  355MOL0     H48923   2.228  10.966   9.633  0.1857  0.2107  2.3658
  355MOL0     H48924   2.083  10.875   9.636 -0.6995  1.0020 -2.4096
  355MOL0     H48925   2.016  10.966   9.848 -1.6090  3.2309  0.0477
  355MOL0     H48926   2.182  10.907   9.861  0.7810  0.7315 -0.4661
  355MOL0     H48927   2.251  11.148   9.807  0.0352  0.0341 -1.0962
  355MOL0     H48928   2.071  11.192   9.836  0.1692 -0.7573 -1.2110
  355MOL0     H48929   2.119  11.044  10.057  1.9355 -0.4023  2.0391
  355MOL0     H48930   2.291  11.063  10.013  1.5220  1.2999 -0.4678
  355MOL0     H48931   2.108  11.275  10.120  0.4108  0.4945 -0.5967
  355MOL0     H48932   2.253  11.321  10.054 -1.0762  2.2759  2.9586
  355MOL0     H48933   2.212  11.132  10.286 -0.1587 -0.7450 -0.7076
  355MOL0     H48934   2.372  11.143  10.210  1.1503  1.4673 -0.0210
  355MOL0     H48935   2.370  11.396  10.275 -1.4683 -0.0194 -0.8253
  355MOL0     H48936   2.329  11.310  10.416 -2.5438  2.9482  1.1560
  355MOL0     H48937   2.132  11.471  10.237 -3.7757 -1.5618 -0.0223
  355MOL0     H48938   2.077  11.361  10.353 -0.2782 -1.7012 -2.2270
  355MOL0     H48939   2.391  11.603  10.334 -0.2311 -0.6245 -0.5958
  355MOL0     H48940   2.486  11.764  10.522 -0.6550 -1.2630  1.9693
  355MOL0     H48941   2.356  11.859  10.597 -0.1939 -1.6430  0.1063
  355MOL0     H48942   2.485  11.939  10.382  0.6486  0.1444 -1.4036
  355MOL0     H48943   2.378  11.840  10.291  1.2133  3.0868 -1.5387
  355MOL0     H48944   2.183  11.959  10.416 -2.7718  3.4523 -0.7956
  355MOL0     H48945   2.294  12.078  10.474 -0.9644  0.6910 -0.4444
  355MOL0     H48946   2.168  12.162  10.284 -0.3416 -0.0263 -1.0341
  355MOL0     H48947   2.342  12.142  10.240 -0.9439  1.3561  0.8483
  355MOL0     H48948   2.076  11.857   9.999 -3.8087  1.7774  2.8851
  355MOL0     H48949   2.007  11.867   9.658  1.6633 -2.3814  0.9884
  355MOL0     H48950   1.862  11.901   9.750 -0.0686 -2.4389 -1.7613
  355MOL0     H48951   1.968  11.783   9.820  0.1852  1.3813  1.3617
  355MOL0     H48952   2.171  12.475   9.414  1.2019 -0.7185 -1.9151
  355MOL0     H48953   2.035  12.570   9.210  1.8830  0.4621 -0.1978
  355MOL0     H48954   1.659  12.436   9.093  1.9865 -0.8414  0.1771
  355MOL0     H48955   1.595  12.521   9.241 -0.4430 -4.2555  0.0304
  355MOL0     H48956   1.646  12.740   9.107  1.0259  0.6218 -2.7305
  355MOL0     H48957   1.629  12.640   8.969  2.2653  1.8774  0.0463
  355MOL0     H48958   1.418  12.762   9.035  0.8565  0.0432 -0.9205
  355MOL0     H48959   1.428  12.689   9.199 -2.6912 -1.5669  0.4033
  355MOL0     H48960   1.393  12.461   9.105  0.3675 -0.4974 -1.2008
  355MOL0     H48961   1.383  12.530   8.951 -2.2655  1.7913 -0.4193
  355MOL0     H48962   1.165  12.664   9.038  0.9146  1.1998  0.2155
  355MOL0     H48963   1.153  12.491   9.024  0.8759  0.1459 -2.1013
  355MOL0     H48964   1.222  12.632   9.288  0.8780 -2.0539  2.8506
  355MOL0     H48965   1.220  12.461   9.277  1.0471  1.5520  1.9552
  355MOL0     H48966   0.990  12.435   9.217  1.2488  0.5706  0.0096
  355MOL0     H48967   0.971  12.615   9.189 -1.2901  1.2003 -0.1439
  355MOL0     H48968   1.070  12.519   9.459  1.0705  0.5406  0.1359
  355MOL0     H48969   0.902  12.523   9.429  1.1506 -3.7315  2.6921
  355MOL0     H48970   1.692  12.366   9.366 -0.1458 -2.9246  3.5574
  355MOL0     H48971   1.808  12.272   9.534  2.3760 -1.7721  1.2686
  355MOL0     H48972   2.219  12.297   9.819  0.5657 -0.4852 -0.4323
  355MOL0     H48973   2.280  12.231  10.022  0.9197 -0.7212 -0.4393
  355MOL0     H48974   2.095  10.951   9.392 -0.3197  1.4933  2.6443
  355MOL0     H48975   2.221  11.007   9.194  0.1413  1.2915 -0.3404
  355MOL0     H48976   2.444  11.217   8.854  1.8098  1.0133 -1.3092
  355MOL0     H48977   2.555  11.385   8.716  1.4317  2.9374  3.4066
  355MOL0     H48978   2.545  11.807   8.578 -2.2313  2.0254 -0.3782
  355MOL0     H48979   2.381  11.769   8.633 -0.9262  0.7645  2.2637
  355MOL0     H48980   2.575  11.834   8.851  2.7580  4.5392  0.2897
  355MOL0     H48981   2.402  11.867   8.820 -1.0040 -2.2402 -1.8264
  355MOL0     H48982   2.603  12.009   8.656 -0.0490 -0.1346  0.6649
  355MOL0     H48983   2.441  12.052   8.700  0.7766  1.6165  0.4402
  355MOL0     H48984   2.676  12.034   8.887  1.3980  0.2097 -2.7322
  355MOL0     H48985   2.522  12.113   8.938  0.5293  2.1104  0.2483
  355MOL0     H48986   2.696  12.431   8.741  0.2159 -0.3339 -1.8669
  355MOL0     H48987   2.299  11.694   8.845 -0.2359 -0.5619  1.2967
  355MOL0     H48988   2.134  11.492   9.086 -1.1193  2.0150  1.4538
  355MOL0     H48989   2.135  11.641   8.990  1.2357 -0.7079 -0.6515
  355MOL0     H48990   2.064  11.495   8.919 -2.2567  1.6608  0.2172
  356MOL0     O48991   7.676   8.796   5.594 -0.2450 -0.2521 -0.7779
  356MOL0     C48992   7.786   8.747   5.629  0.5745  0.5014 -0.3285
  356MOL0     O48993   7.884   8.683   5.540 -0.3982 -0.1709  0.1173
  356MOL0     C48994   7.855   8.665   5.409  1.0723  0.6955  0.2173
  356MOL0     C48995   7.955   8.692   5.318 -0.1883  0.1608  0.1074
  356MOL0     C48996   7.934   8.688   5.178  0.0779 -1.3664  0.0251
  356MOL0     C48997   7.806   8.651   5.136  0.5959  0.3988  0.6556
  356MOL0     O48998   7.764   8.668   5.006  0.3065 -0.7093  0.4019
  356MOL0     C48999   7.822   8.773   4.935  0.0289 -0.5829  1.0395
  356MOL0     C49000   7.721   8.816   4.825  0.2653  0.4001 -0.1987
  356MOL0     C49001   7.718   8.709   4.717  0.2241 -0.0959  0.1420
  356MOL0     C49002   7.618   8.738   4.600 -0.2645 -0.4668  0.1854
  356MOL0     C49003   7.606   8.602   4.530 -0.0879  0.4610  0.5244
  356MOL0     C49004   7.537   8.630   4.388  0.2172  0.8141  0.3020
  356MOL0     C49005   7.385   8.678   4.406  0.1714 -0.3133  0.1647
  356MOL0     C49006   7.306   8.642   4.283 -0.0565 -0.3802  0.6003
  356MOL0     N49007   7.363   8.680   4.153 -0.2749  0.0387  0.0209
  356MOL0     C49008   7.362   8.801   4.093 -0.2148 -0.5585 -0.4289
  356MOL0     C49009   7.393   8.783   3.964  0.0678 -0.5084 -0.1458
  356MOL0     C49010   7.402   8.879   3.848  0.2442 -0.1534  0.1939
  356MOL0     C49011   7.276   8.964   3.824 -0.2659 -0.8285  0.3719
  356MOL0     C49012   7.292   9.043   3.694 -0.5087 -0.1744 -0.2525
  356MOL0     C49013   7.159   9.079   3.623 -0.7527 -0.0980 -0.0522
  356MOL0     O49014   7.088   9.161   3.714  0.4564  0.9640  0.6694
  356MOL0     C49015   6.976   9.222   3.674 -0.2769 -0.4564 -0.5944
  356MOL0     C49016   6.924   9.215   3.546  0.7957  0.5912  0.0988
  356MOL0     C49017   6.802   9.278   3.512  0.1952 -1.0260 -0.8603
  356MOL0     C49018   6.728   9.238   3.383 -0.5709  0.0497 -0.5856
  356MOL0     C49019   6.743   9.367   3.607  0.5185 -0.4312  0.5940
  356MOL0     C49020   6.629   9.466   3.562 -0.7410  1.1169 -0.6862
  356MOL0     O49021   6.565   9.525   3.667  0.9407  0.7275 -0.4930
  356MOL0     C49022   6.437   9.565   3.646  0.0366 -0.4149 -0.4382
  356MOL0     C49023   6.354   9.512   3.552  0.3744  0.4878  0.4488
  356MOL0     C49024   6.222   9.576   3.529  0.2313  0.7133 -0.1829
  356MOL0     C49025   6.176   9.676   3.613 -0.4886 -0.5137 -0.0090
  356MOL0     O49026   6.061   9.739   3.580  0.3097 -0.7354  0.0906
  356MOL0     C49027   6.042   9.868   3.636  0.6944 -0.0097  0.3746
  356MOL0     C49028   5.903   9.918   3.578 -0.0479  1.7769 -0.7476
  356MOL0     C49029   5.916   9.953   3.435  0.3802 -0.3587 -0.7172
  356MOL0     C49030   5.828   9.865   3.347  0.0169  0.0798  0.3140
  356MOL0     C49031   5.889   9.730   3.320  1.0715 -0.2434  0.2799
  356MOL0     C49032   5.799   9.636   3.233 -0.6310 -0.4364  0.4128
  356MOL0     C49033   5.673   9.602   3.318 -0.5117 -0.2096 -0.4745
  356MOL0     C49034   5.678   9.465   3.365 -0.1641 -0.0128 -0.0900
  356MOL0    Cl49035   5.666   9.358   3.220 -0.0682 -0.2969  0.0174
  356MOL0     C49036   6.253   9.712   3.724 -0.6100 -0.0811 -0.0450
  356MOL0     C49037   6.387   9.659   3.735  0.4925  0.1027  0.4914
  356MOL0     O49038   6.617   9.495   3.446  0.5507 -0.3043 -0.0096
  356MOL0     C49039   6.787   9.371   3.740  1.0806 -0.5377 -0.2105
  356MOL0     C49040   6.907   9.304   3.765 -0.2191 -0.8430  0.9192
  356MOL0     N49041   7.419   8.645   3.952  0.4908  0.1385  0.4382
  356MOL0     N49042   7.415   8.591   4.067  0.5008  0.3627  0.3786
  356MOL0     C49043   7.703   8.616   5.231 -0.6893  0.2384 -0.5222
  356MOL0     C49044   7.727   8.610   5.372 -0.1225  0.3002  0.4184
  356MOL0     C49045   7.821   8.726   5.763  0.3331  0.1843 -0.7456
  356MOL0     C49046   7.874   8.603   5.801  0.6225  0.2220  0.2539
  356MOL0     C49047   7.911   8.571   5.934 -0.6090  0.2155  0.6330
  356MOL0     C49048   7.896   8.664   6.033 -0.4941 -1.1567  0.7607
  356MOL0     O49049   7.942   8.631   6.164  0.4612  0.4563 -0.0139
  356MOL0     C49050   8.038   8.720   6.231  0.4764 -0.0394 -0.2085
  356MOL0     C49051   8.121   8.655   6.340 -0.9613 -0.1795  0.5508
  356MOL0     C49052   8.040   8.648   6.473  0.2899  0.7585 -0.0426
  356MOL0     C49053   8.141   8.604   6.586 -0.0164 -0.5036 -0.3280
  356MOL0     C49054   8.091   8.643   6.719  0.6877 -0.6637  0.0364
  356MOL0     C49055   8.054   8.660   6.831 -0.0595  0.1034  0.9780
  356MOL0     C49056   7.844   8.790   5.999 -0.1607 -0.0722 -0.5190
  356MOL0     C49057   7.793   8.821   5.868  0.6224  0.7458 -1.2258
  356MOL0     C49058   7.742   8.951   5.848  1.0023  0.4169  0.3831
  356MOL0     H49059   8.047   8.745   5.343  1.5166 -0.9280 -3.1468
  356MOL0     H49060   8.009   8.724   5.108  0.5222  0.3999  1.3177
  356MOL0     H49061   7.908   8.727   4.885 -1.6661 -0.5890 -2.0801
  356MOL0     H49062   7.855   8.859   4.994 -2.5605  1.1910  0.0426
  356MOL0     H49063   7.619   8.823   4.863 -0.2139  0.5856 -1.4769
  356MOL0     H49064   7.748   8.912   4.778  1.3956 -0.5836 -1.6395
  356MOL0     H49065   7.820   8.694   4.682  1.1018  2.2271  1.4758
  356MOL0     H49066   7.688   8.615   4.765  1.7452 -0.8481 -0.3151
  356MOL0     H49067   7.521   8.776   4.634  0.2041  2.6556 -1.5781
  356MOL0     H49068   7.670   8.810   4.537 -0.4492 -1.8613 -1.6708
  356MOL0     H49069   7.555   8.530   4.595  2.7604 -0.6057  1.7521
  356MOL0     H49070   7.702   8.552   4.517  0.0497  0.8968 -0.1491
  356MOL0     H49071   7.589   8.703   4.326  1.3518 -0.7203 -0.5842
  356MOL0     H49072   7.543   8.542   4.325 -2.2891 -0.5802  1.8145
  356MOL0     H49073   7.389   8.787   4.414  2.9432 -0.1587 -2.0726
  356MOL0     H49074   7.344   8.625   4.493 -0.6168 -2.3252 -1.3628
  356MOL0     H49075   7.284   8.535   4.279  1.5634 -0.7577  0.8474
  356MOL0     H49076   7.213   8.694   4.306  0.8434  1.5335  0.1089
  356MOL0     H49077   7.341   8.898   4.138  1.7112  0.3538 -1.3913
  356MOL0     H49078   7.436   8.824   3.759  0.4131  2.1643 -1.2563
  356MOL0     H49079   7.484   8.948   3.868  0.5347 -0.2055 -0.7574
  356MOL0     H49080   7.185   8.903   3.824 -1.4491  0.8251  2.0721
  356MOL0     H49081   7.263   9.027   3.912 -3.2293  1.2203 -1.3579
  356MOL0     H49082   7.358   9.130   3.695 -1.2285  0.3878 -0.5887
  356MOL0     H49083   7.351   8.973   3.633  1.2849 -1.3558  2.6421
  356MOL0     H49084   7.178   9.145   3.538  0.5242 -0.7737 -0.3215
  356MOL0     H49085   7.100   8.993   3.590  2.3569 -1.9718 -1.2060
  356MOL0     H49086   6.966   9.147   3.472  0.1840  0.4715 -0.1527
  356MOL0     H49087   6.624   9.262   3.405  0.2096  4.1990 -0.5805
  356MOL0     H49088   6.734   9.132   3.357  0.7980 -0.9637  3.1641
  356MOL0     H49089   6.753   9.290   3.289 -1.9370 -0.6597 -1.3636
  356MOL0     H49090   6.373   9.433   3.481 -1.4807  0.5750 -0.2018
  356MOL0     H49091   6.174   9.553   3.434  1.6424 -1.1793 -0.4775
  356MOL0     H49092   6.012   9.862   3.741  1.8789  0.4403  0.7554
  356MOL0     H49093   6.123   9.940   3.625  1.9236 -1.5208 -0.9803
  356MOL0     H49094   5.826   9.843   3.598  1.2640  1.0294  1.9167
  356MOL0     H49095   5.879  10.004   3.641  1.2260  1.7455 -0.1967
  356MOL0     H49096   6.020   9.938   3.403  1.9242  1.2743  2.9449
  356MOL0     H49097   5.888  10.059   3.439  2.0660  0.0732  0.4280
  356MOL0     H49098   5.818   9.917   3.251  2.1529  0.7875  0.4255
  356MOL0     H49099   5.727   9.872   3.387  0.4068  2.3018  1.0804
  356MOL0     H49100   5.985   9.750   3.271  1.9454 -2.9094  0.7647
  356MOL0     H49101   5.897   9.677   3.415 -0.7136 -2.5599 -0.7604
  356MOL0     H49102   5.850   9.547   3.193 -0.1638 -0.9991  2.1606
  356MOL0     H49103   5.762   9.688   3.145 -3.2499  1.0838  2.3006
  356MOL0     H49104   5.580   9.606   3.261  0.4338 -2.1379 -2.2878
  356MOL0     H49105   5.682   9.673   3.401  0.8134 -1.2303  0.2986
  356MOL0     H49106   5.603   9.440   3.441  0.5316 -1.2143  0.2329
  356MOL0     H49107   5.773   9.454   3.418 -0.5550 -0.6035  0.5172
  356MOL0     H49108   6.226   9.793   3.790 -3.6406 -0.4020 -0.7837
  356MOL0     H49109   6.453   9.693   3.813  1.6143  0.6447 -0.6562
  356MOL0     H49110   6.739   9.414   3.827 -0.2515  2.4775 -2.2483
  356MOL0     H49111   6.947   9.306   3.866  1.4180  2.4094  0.3589
  356MOL0     H49112   7.607   8.586   5.188  0.8214 -0.1232 -3.9414
  356MOL0     H49113   7.662   8.565   5.446  0.5503  1.0295  1.4756
  356MOL0     H49114   7.902   8.526   5.729  0.1433 -0.8413  1.1709
  356MOL0     H49115   7.955   8.480   5.972  2.1012  0.6694 -1.1433
  356MOL0     H49116   8.094   8.758   6.145  0.4691 -2.0343 -1.1574
  356MOL0     H49117   7.985   8.804   6.276  2.3549  2.6139 -2.6045
  356MOL0     H49118   8.224   8.693   6.343  0.6008 -4.0417  2.0595
  356MOL0     H49119   8.157   8.562   6.294  0.0588  1.1708 -1.5824
  356MOL0     H49120   7.988   8.739   6.505 -0.2788 -0.3860  2.5437
  356MOL0     H49121   7.966   8.569   6.461  0.8905  0.2897 -0.8173
  356MOL0     H49122   8.238   8.653   6.569 -1.5129  2.0384 -2.2131
  356MOL0     H49123   8.166   8.498   6.595 -1.1849 -0.6129  3.3109
  356MOL0     H49124   8.006   8.670   6.927  0.0111 -0.4102  1.0699
  356MOL0     H49125   7.827   8.871   6.069  2.0355  0.3319 -0.3904
  356MOL0     H49126   7.650   8.941   5.789  0.3082 -3.6027  1.8284
  356MOL0     H49127   7.706   8.983   5.946 -0.8877 -2.8472  0.9129
  356MOL0     H49128   7.808   9.020   5.795  0.4520 -0.9825 -2.2990
  357MOL0     O49129   4.316   4.432   9.514  0.0785 -0.3591 -0.2022
  357MOL0     C49130   4.362   4.423   9.630 -0.2755 -0.1835 -0.5904
  357MOL0     O49131   4.397   4.530   9.712 -0.2854 -0.0652 -0.7932
  357MOL0     C49132   4.341   4.651   9.683 -0.5507  0.6423 -0.5090
  357MOL0     C49133   4.397   4.753   9.609 -0.3605  0.0666 -1.2086
  357MOL0     C49134   4.342   4.883   9.599  0.4978  0.2777 -0.5315
  357MOL0     C49135   4.211   4.899   9.654 -0.2307  0.7914  0.1931
  357MOL0     O49136   4.147   5.022   9.623  0.2343 -0.4273 -0.8102
  357MOL0     C49137   4.145   5.122   9.720 -0.8195 -0.2306 -0.0708
  357MOL0     C49138   4.025   5.216   9.688  0.7050 -0.3442 -0.6867
  357MOL0     C49139   4.033   5.344   9.770 -0.6803  1.0976 -0.1749
  357MOL0     C49140   3.954   5.462   9.699 -0.6316  0.4916 -0.3392
  357MOL0     C49141   3.816   5.463   9.752 -0.3324 -0.0044 -0.1030
  357MOL0     C49142   3.733   5.575   9.701 -0.1438 -0.8661  0.3229
  357MOL0     C49143   3.584   5.564   9.739 -0.5026 -0.0571 -0.5118
  357MOL0     C49144   3.511   5.450   9.662  0.9561 -0.4362 -0.4151
  357MOL0     N49145   3.519   5.451   9.516  0.1650 -0.6712 -0.5931
  357MOL0     C49146   3.464   5.555   9.441  0.6090 -0.0139 -0.6186
  357MOL0     C49147   3.515   5.532   9.318 -0.2096  0.3968  0.1310
  357MOL0     C49148   3.481   5.628   9.191  0.3875  0.7580 -1.1682
  357MOL0     C49149   3.575   5.634   9.070  0.6741 -0.7403  0.3977
  357MOL0     C49150   3.519   5.724   8.958  0.1023 -0.1654  0.3042
  357MOL0     C49151   3.624   5.777   8.863 -0.7573 -0.4390  0.8780
  357MOL0     O49152   3.561   5.878   8.793  0.7230 -0.1963  0.3693
  357MOL0     C49153   3.522   5.852   8.663 -0.5452  0.2751 -0.1643
  357MOL0     C49154   3.608   5.882   8.563  0.2925 -0.2900  0.4641
  357MOL0     C49155   3.574   5.855   8.429  1.0472  0.6692 -0.3831
  357MOL0     C49156   3.672   5.860   8.318 -0.3308  0.5243 -1.5673
  357MOL0     C49157   3.442   5.801   8.402  0.0564 -0.3475 -0.0663
  357MOL0     C49158   3.377   5.798   8.266  0.3260  0.0623  0.0076
  357MOL0     O49159   3.275   5.710   8.277 -0.4182  0.2150  0.7532
  357MOL0     C49160   3.205   5.670   8.165  0.1351 -0.6542 -0.9146
  357MOL0     C49161   3.158   5.535   8.164  0.6147 -0.3095  0.1190
  357MOL0     C49162   3.091   5.487   8.053 -0.2822  0.6568 -0.8415
  357MOL0     C49163   3.058   5.565   7.938  0.1900  0.7613 -1.0258
  357MOL0     O49164   3.011   5.526   7.822  0.3029  0.8055 -0.0828
  357MOL0     C49165   2.883   5.450   7.838  0.2443 -0.5827  0.5424
  357MOL0     C49166   2.809   5.453   7.706 -0.2332 -0.5876 -0.4809
  357MOL0     C49167   2.787   5.591   7.642 -0.1759 -0.1153  0.2122
  357MOL0     C49168   2.667   5.667   7.708 -0.0725 -0.0485  0.5382
  357MOL0     C49169   2.644   5.803   7.638  0.1252 -1.2432  0.5818
  357MOL0     C49170   2.617   5.914   7.738 -0.2033  0.4492 -0.3045
  357MOL0     C49171   2.620   6.053   7.671 -1.5076 -0.6669 -1.0842
  357MOL0     C49172   2.542   6.149   7.748  0.0971  1.0848  0.3658
  357MOL0    Cl49173   2.597   6.152   7.916 -0.1082  0.4748  0.3027
  357MOL0     C49174   3.091   5.702   7.951 -0.1466 -0.3630  0.0438
  357MOL0     C49175   3.159   5.757   8.061 -0.6065 -0.2113 -0.0447
  357MOL0     O49176   3.411   5.869   8.169 -0.0993  0.2429  0.0862
  357MOL0     C49177   3.356   5.777   8.510  0.7132  0.7990  0.0860
  357MOL0     C49178   3.389   5.808   8.641 -0.4978 -0.1839 -0.4568
  357MOL0     N49179   3.605   5.426   9.316 -0.0369 -0.4544 -0.3300
  357MOL0     N49180   3.598   5.368   9.437 -1.0252  0.5583  0.4644
  357MOL0     C49181   4.148   4.790   9.723  0.1051 -0.2322 -0.5564
  357MOL0     C49182   4.217   4.668   9.737  1.1239 -0.2535  0.7916
  357MOL0     C49183   4.391   4.293   9.690  0.6871  0.5839 -0.3396
  357MOL0     C49184   4.407   4.291   9.829 -0.2355 -0.2555  0.0135
  357MOL0     C49185   4.408   4.177   9.907  0.1470 -1.2125 -0.1524
  357MOL0     C49186   4.386   4.059   9.846 -0.0532  0.3570  0.6559
  357MOL0     O49187   4.383   3.949   9.928 -0.4849 -1.0435  0.1635
  357MOL0     C49188   4.372   3.813   9.877 -0.1015  0.2531  0.6722
  357MOL0     C49189   4.224   3.777   9.894  0.2542  0.7719 -0.4676
  357MOL0     C49190   4.192   3.624   9.881 -1.1934 -0.2980 -0.2131
  357MOL0     C49191   4.263   3.550  10.009  0.8898  0.7471 -0.4718
  357MOL0     C49192   4.247   3.401  10.004  0.4177 -0.5427 -0.1214
  357MOL0     C49193   4.253   3.281  10.018 -0.9546  0.6492  0.5835
  357MOL0     C49194   4.378   4.051   9.696  1.1230 -0.4368  0.8951
  357MOL0     C49195   4.367   4.170   9.626  0.7522 -1.2129  0.7873
  357MOL0     C49196   4.348   4.153   9.477 -0.0308 -0.2475 -0.3512
  357MOL0     H49197   4.487   4.727   9.553 -1.6700 -2.0024 -2.4979
  357MOL0     H49198   4.392   4.955   9.535  1.4884  0.2313  0.1596
  357MOL0     H49199   4.237   5.181   9.712 -1.8256  1.4606  0.3488
  357MOL0     H49200   4.135   5.095   9.825 -1.2551 -1.0061 -0.3048
  357MOL0     H49201   4.026   5.241   9.582 -0.3527  1.3572 -0.3248
  357MOL0     H49202   3.929   5.163   9.697  2.0596 -2.6404  1.5499
  357MOL0     H49203   4.005   5.335   9.875  3.1569 -0.6624  0.8956
  357MOL0     H49204   4.138   5.371   9.785  0.0714 -0.3584 -2.3225
  357MOL0     H49205   3.997   5.556   9.736 -1.5432 -0.7731  4.7515
  357MOL0     H49206   3.962   5.463   9.590  0.2961  0.4759 -0.2778
  357MOL0     H49207   3.812   5.473   9.861  2.9377  1.6030 -0.0172
  357MOL0     H49208   3.769   5.369   9.721  2.1555 -1.3824  0.0884
  357MOL0     H49209   3.778   5.669   9.736  0.8885 -0.9279 -0.7426
  357MOL0     H49210   3.730   5.591   9.592 -2.8682  1.5328  0.6295
  357MOL0     H49211   3.529   5.655   9.711 -0.0671 -0.7899 -4.3382
  357MOL0     H49212   3.574   5.540   9.845 -2.1638 -1.7221 -1.0030
  357MOL0     H49213   3.551   5.355   9.699 -1.1725 -2.4925 -2.9804
  357MOL0     H49214   3.405   5.446   9.687  0.7663 -0.3996 -1.1784
  357MOL0     H49215   3.398   5.632   9.480  0.6327 -0.3684  0.1405
  357MOL0     H49216   3.487   5.726   9.240 -1.7336  1.0063 -1.3376
  357MOL0     H49217   3.375   5.624   9.168  0.3876  2.0049 -1.4582
  357MOL0     H49218   3.679   5.656   9.096  0.9072 -2.4064  0.9633
  357MOL0     H49219   3.563   5.537   9.021  0.6406  0.6408 -2.5298
  357MOL0     H49220   3.455   5.665   8.892 -0.4904  0.8264 -0.0362
  357MOL0     H49221   3.461   5.811   8.992  1.6078  1.8880 -2.0505
  357MOL0     H49222   3.718   5.812   8.906 -1.8820  1.1690  2.1669
  357MOL0     H49223   3.639   5.704   8.783 -1.0223  2.7703 -2.3280
  357MOL0     H49224   3.699   5.935   8.590  2.2376 -2.8646 -0.5636
  357MOL0     H49225   3.691   5.772   8.256 -0.1805  0.2843 -1.1781
  357MOL0     H49226   3.772   5.888   8.351 -0.6009 -1.4060  1.1819
  357MOL0     H49227   3.640   5.940   8.251 -1.7536  1.7220  0.4438
  357MOL0     H49228   3.175   5.457   8.238 -2.2184  0.8698  2.1634
  357MOL0     H49229   3.061   5.383   8.057  0.1658  0.3680 -3.4314
  357MOL0     H49230   2.900   5.346   7.865  0.9392 -0.4890  0.4954
  357MOL0     H49231   2.823   5.491   7.920 -1.2692  3.1640 -2.1731
  357MOL0     H49232   2.868   5.385   7.644  0.1163 -1.0844  0.3802
  357MOL0     H49233   2.708   5.411   7.709 -0.1524 -0.7716 -0.3553
  357MOL0     H49234   2.766   5.579   7.536  0.8963  1.4112 -0.2042
  357MOL0     H49235   2.882   5.645   7.647 -0.6553  1.0677 -2.0659
  357MOL0     H49236   2.698   5.681   7.812  0.2789  1.5514  0.2410
  357MOL0     H49237   2.571   5.613   7.707  0.6620 -1.4389 -1.1134
  357MOL0     H49238   2.739   5.827   7.589 -0.6456 -0.8607 -0.7733
  357MOL0     H49239   2.554   5.807   7.577 -0.3345  1.3620  1.2897
  357MOL0     H49240   2.681   5.912   7.827  1.3145  1.3222 -1.3309
  357MOL0     H49241   2.516   5.903   7.780  0.2264  0.9013  0.8904
  357MOL0     H49242   2.581   6.047   7.569 -1.5416 -1.7124 -1.0145
  357MOL0     H49243   2.725   6.078   7.653 -1.1470 -1.2224  0.1234
  357MOL0     H49244   2.436   6.126   7.742  0.2407  0.7043 -4.1605
  357MOL0     H49245   2.553   6.247   7.700 -0.1411  1.4636  1.0728
  357MOL0     H49246   3.058   5.766   7.870  2.3300  3.2114  1.6203
  357MOL0     H49247   3.178   5.863   8.059 -1.3946 -0.0717 -1.2340
  357MOL0     H49248   3.252   5.746   8.500  0.7909  1.0059 -1.6209
  357MOL0     H49249   3.320   5.802   8.725 -0.3362 -2.6144 -0.4332
  357MOL0     H49250   4.046   4.814   9.751  0.9997  2.1131  0.9944
  357MOL0     H49251   4.174   4.586   9.795  1.3894 -1.6894 -0.9320
  357MOL0     H49252   4.408   4.383   9.886  2.9996  1.4236 -2.4354
  357MOL0     H49253   4.413   4.195  10.014 -4.1741  1.0444 -0.1033
  357MOL0     H49254   4.412   3.796   9.777 -0.9793  3.1928 -0.2736
  357MOL0     H49255   4.430   3.751   9.946  1.1390  0.4027 -0.1990
  357MOL0     H49256   4.172   3.823   9.809  0.7482  0.2798 -1.0384
  357MOL0     H49257   4.198   3.825   9.988  4.4392 -0.6506  1.6512
  357MOL0     H49258   4.085   3.602   9.875 -1.2376  0.1939 -2.8842
  357MOL0     H49259   4.230   3.581   9.788 -0.4456 -1.7871  0.7425
  357MOL0     H49260   4.223   3.588  10.103  0.5970  1.1040 -0.7390
  357MOL0     H49261   4.370   3.570  10.018  0.9877  1.0872 -2.0653
  357MOL0     H49262   4.270   3.178  10.042 -1.3823  0.7334  1.2909
  357MOL0     H49263   4.363   3.951   9.658  1.9224 -1.0048  2.0114
  357MOL0     H49264   4.367   4.242   9.416 -2.0609  0.5287  0.0728
  357MOL0     H49265   4.422   4.076   9.450 -1.5752 -1.1683 -2.1821
  357MOL0     H49266   4.249   4.114   9.454 -0.6447 -1.1539  3.2289
  358MOL0     O49267   9.267   1.227   3.049  0.6469 -0.2503  0.9837
  358MOL0     C49268   9.251   1.336   3.007 -0.8520 -0.8495  0.0406
  358MOL0     O49269   9.182   1.436   3.066 -0.6073 -1.0629 -0.5971
  358MOL0     C49270   9.153   1.440   3.207 -1.1923 -0.9161  0.7110
  358MOL0     C49271   9.053   1.530   3.241  0.9274  0.6725 -0.0591
  358MOL0     C49272   9.017   1.542   3.377  0.7160  0.8431  0.2074
  358MOL0     C49273   9.078   1.464   3.469 -0.3747 -0.3200 -0.4191
  358MOL0     O49274   9.039   1.492   3.594 -0.2803  0.0584 -0.6613
  358MOL0     C49275   9.081   1.420   3.706 -0.2654  0.6328  0.0798
  358MOL0     C49276   9.189   1.496   3.775 -0.7309 -0.1161 -0.6080
  358MOL0     C49277   9.266   1.417   3.892  0.3511 -0.1189 -0.9173
  358MOL0     C49278   9.357   1.513   3.967 -0.7456  0.5223 -0.1671
  358MOL0     C49279   9.445   1.437   4.067  0.7415  0.8539  0.9298
  358MOL0     C49280   9.557   1.514   4.130 -0.1608 -0.3811 -0.3584
  358MOL0     C49281   9.520   1.645   4.201 -0.3344 -0.3065  0.2508
  358MOL0     C49282   9.484   1.636   4.360 -0.5951  0.9880 -0.3362
  358MOL0     N49283   9.378   1.542   4.390 -0.1641  0.1524  0.0032
  358MOL0     C49284   9.249   1.578   4.406  0.6245 -0.4737 -0.8252
  358MOL0     C49285   9.180   1.463   4.431  0.0564 -0.2501  0.0410
  358MOL0     C49286   9.033   1.465   4.460  0.8753  0.6209 -0.3919
  358MOL0     C49287   8.968   1.324   4.466  0.3109  0.3078  1.0364
  358MOL0     C49288   8.826   1.323   4.518  0.0871  0.6594 -0.3897
  358MOL0     C49289   8.763   1.186   4.546  0.1293 -0.3138 -1.0622
  358MOL0     O49290   8.656   1.212   4.637 -0.9423 -1.0535 -0.2200
  358MOL0     C49291   8.602   1.109   4.707 -0.1300 -0.6780 -0.0905
  358MOL0     C49292   8.660   0.983   4.727  0.4000 -0.6691  1.4464
  358MOL0     C49293   8.588   0.886   4.803  0.4766 -0.4349 -0.7502
  358MOL0     C49294   8.671   0.766   4.827 -0.0433  0.3162  0.6454
  358MOL0     C49295   8.458   0.913   4.855  0.9867 -0.1959  0.1235
  358MOL0     C49296   8.379   0.817   4.933  0.5779 -0.0245 -0.3727
  358MOL0     O49297   8.283   0.871   5.013  0.3541 -0.6910 -0.5388
  358MOL0     C49298   8.199   0.789   5.086  0.0844  0.5014  0.3247
  358MOL0     C49299   8.254   0.695   5.178  0.2819  0.1502  0.2898
  358MOL0     C49300   8.169   0.602   5.240  0.1576  0.4033 -0.5010
  358MOL0     C49301   8.029   0.605   5.216 -0.6843 -0.0561 -0.4993
  358MOL0     O49302   7.954   0.511   5.284 -0.5200 -1.4310  0.2081
  358MOL0     C49303   7.880   0.424   5.203 -0.7763  0.0003 -0.4145
  358MOL0     C49304   7.961   0.331   5.110  1.2031 -0.1504  0.6005
  358MOL0     C49305   8.071   0.261   5.181  0.4480  1.0059  0.4393
  358MOL0     C49306   8.017   0.149   5.263 -0.3566  0.3051  0.2216
  358MOL0     C49307   7.982   0.032   5.172 -1.1935 -0.5256 -0.4843
  358MOL0     C49308   8.110  -0.043   5.119  0.2582 -0.6622 -0.3166
  358MOL0     C49309   8.077  -0.122   4.985  0.5785  0.7810  0.2250
  358MOL0     C49310   8.059  -0.022   4.869 -0.1079 -0.0172  0.7757
  358MOL0    Cl49311   8.183   0.105   4.849 -0.3120 -0.0036 -0.0734
  358MOL0     C49312   7.983   0.698   5.122  0.6846 -0.4772  0.2344
  358MOL0     C49313   8.065   0.788   5.061  0.1071  0.2849  0.4112
  358MOL0     O49314   8.395   0.698   4.904  0.2528 -0.1380  0.1735
  358MOL0     C49315   8.406   1.038   4.814  0.6492 -0.5231 -0.8589
  358MOL0     C49316   8.478   1.137   4.754  0.3146  0.1036  0.3336
  358MOL0     N49317   9.273   1.362   4.437 -0.6823 -1.2056 -0.4589
  358MOL0     N49318   9.391   1.409   4.407 -0.1748 -0.1045  0.0321
  358MOL0     C49319   9.195   1.384   3.437  0.1924  0.2810  0.5727
  358MOL0     C49320   9.229   1.376   3.308  0.6156  0.0173  0.2058
  358MOL0     C49321   9.289   1.353   2.871 -0.1120  0.4642 -1.2181
  358MOL0     C49322   9.199   1.414   2.783  0.3609 -0.2855 -0.3491
  358MOL0     C49323   9.243   1.458   2.656  0.1960 -0.9012  0.0253
  358MOL0     C49324   9.361   1.415   2.608 -0.3027 -0.6095 -0.1103
  358MOL0     O49325   9.382   1.430   2.469  0.3006  0.3734  0.2369
  358MOL0     C49326   9.517   1.447   2.426 -0.5637  0.7622 -0.6913
  358MOL0     C49327   9.509   1.464   2.279 -0.1991  0.1618 -0.0287
  358MOL0     C49328   9.444   1.584   2.231 -0.4768  0.3799  0.0377
  358MOL0     C49329   9.426   1.582   2.078  0.0064 -0.5055  0.7199
  358MOL0     C49330   9.339   1.696   2.039 -0.7118  0.1840  0.6086
  358MOL0     C49331   9.273   1.779   1.988  0.6900 -0.1810 -0.1540
  358MOL0     C49332   9.452   1.351   2.693  0.4194 -0.4526  1.5532
  358MOL0     C49333   9.419   1.326   2.826 -0.6200  0.1308 -0.2413
  358MOL0     C49334   9.526   1.281   2.923 -0.4455  0.0402  0.0149
  358MOL0     H49335   8.994   1.587   3.169  0.0776  2.0565  1.6451
  358MOL0     H49336   8.933   1.611   3.389 -0.4949 -0.4843 -0.4108
  358MOL0     H49337   9.131   1.329   3.670 -1.6241  1.1221 -3.4155
  358MOL0     H49338   9.012   1.404   3.789  0.5939  0.9541  0.8828
  358MOL0     H49339   9.264   1.516   3.698  0.4149 -2.0142 -0.0569
  358MOL0     H49340   9.146   1.588   3.816 -0.7256 -0.6212  0.5392
  358MOL0     H49341   9.189   1.373   3.956 -2.4373  2.3793 -2.2948
  358MOL0     H49342   9.322   1.334   3.847 -1.3739 -2.2968  0.7223
  358MOL0     H49343   9.417   1.582   3.907 -1.9513  2.1303  0.4376
  358MOL0     H49344   9.300   1.581   4.030  2.3412  2.0777  1.1740
  358MOL0     H49345   9.489   1.353   4.012  0.9612  0.0710  2.2453
  358MOL0     H49346   9.386   1.382   4.141 -0.2481  0.5591 -0.0468
  358MOL0     H49347   9.613   1.458   4.205  0.3233 -0.4809 -0.7903
  358MOL0     H49348   9.620   1.543   4.046  2.7460  2.4695  2.5373
  358MOL0     H49349   9.432   1.676   4.143  0.2778 -3.7203 -2.8751
  358MOL0     H49350   9.602   1.717   4.186 -1.6538  1.8132  2.5722
  358MOL0     H49351   9.573   1.593   4.408 -0.4909  0.2950 -1.1380
  358MOL0     H49352   9.469   1.738   4.397 -0.2825  1.3657 -1.2396
  358MOL0     H49353   9.211   1.680   4.394  1.0587 -0.0139  1.2779
  358MOL0     H49354   8.990   1.527   4.381  2.5498  2.0709 -0.2212
  358MOL0     H49355   9.020   1.515   4.556 -1.4445 -0.2101 -0.2071
  358MOL0     H49356   8.970   1.282   4.365 -0.2545  1.8606  0.3429
  358MOL0     H49357   9.024   1.261   4.536  0.4478 -2.3744 -1.3020
  358MOL0     H49358   8.838   1.380   4.610 -1.8243  1.4459 -0.5942
  358MOL0     H49359   8.749   1.376   4.461 -0.8447 -2.0323 -1.8476
  358MOL0     H49360   8.724   1.146   4.452  2.8377 -0.4229 -2.2116
  358MOL0     H49361   8.844   1.122   4.584  0.1806 -0.3355 -1.2092
  358MOL0     H49362   8.758   0.970   4.685  0.0988  1.5537 -0.0996
  358MOL0     H49363   8.639   0.683   4.763 -0.6724  0.0533  1.2777
  358MOL0     H49364   8.647   0.740   4.931 -0.1984  1.7960  1.0077
  358MOL0     H49365   8.778   0.786   4.825  0.1908 -0.1072  3.8006
  358MOL0     H49366   8.360   0.687   5.197  0.1598 -4.3752  0.2103
  358MOL0     H49367   8.207   0.525   5.306  0.2392  2.0093  1.4530
  358MOL0     H49368   7.815   0.361   5.264  0.3520 -0.2925  0.5282
  358MOL0     H49369   7.799   0.479   5.154 -0.3953 -0.7427 -1.9684
  358MOL0     H49370   7.882   0.264   5.077  0.0717  0.0731  2.6784
  358MOL0     H49371   8.001   0.381   5.021 -0.8912 -1.5348 -1.2256
  358MOL0     H49372   8.128   0.325   5.249  1.7577  2.0105 -1.5185
  358MOL0     H49373   8.130   0.226   5.096 -0.5318  2.0441 -0.7077
  358MOL0     H49374   7.927   0.175   5.320 -2.1411 -0.5726 -2.0139
  358MOL0     H49375   8.097   0.122   5.333  0.5674  0.4483 -0.7581
  358MOL0     H49376   7.917  -0.036   5.229 -0.9363  0.0620  0.5313
  358MOL0     H49377   7.926   0.067   5.085 -2.1428 -4.0584 -1.4743
  358MOL0     H49378   8.138  -0.116   5.195 -0.6124 -0.7093 -0.0316
  358MOL0     H49379   8.196   0.023   5.105 -0.9709  0.5355 -3.0270
  358MOL0     H49380   7.995  -0.194   4.994  4.6782 -4.9394 -1.6707
  358MOL0     H49381   8.154  -0.200   4.978 -1.6148 -1.4294 -0.7147
  358MOL0     H49382   7.958   0.020   4.867 -0.0383  0.2263  1.8247
  358MOL0     H49383   8.072  -0.084   4.780 -0.2548 -0.2800  0.9339
  358MOL0     H49384   7.877   0.701   5.101  1.0014 -0.0384 -1.4234
  358MOL0     H49385   8.024   0.853   4.984 -0.5655 -0.9635 -0.3241
  358MOL0     H49386   8.305   1.069   4.838  0.2519 -0.0480 -2.9593
  358MOL0     H49387   8.419   1.221   4.719 -1.9787 -1.3301  0.5294
  358MOL0     H49388   9.253   1.335   3.515 -3.4285 -0.4135  3.1266
  358MOL0     H49389   9.318   1.320   3.280 -2.2734 -5.0494 -0.0480
  358MOL0     H49390   9.093   1.430   2.802  0.1584 -0.6826 -1.1110
  358MOL0     H49391   9.174   1.513   2.592  0.8476 -1.6902 -1.4078
  358MOL0     H49392   9.577   1.531   2.461  0.5218 -0.6337  0.9433
  358MOL0     H49393   9.571   1.356   2.455 -1.6688  0.0739 -0.7343
  358MOL0     H49394   9.465   1.377   2.229  0.5666 -0.4105  0.2774
  358MOL0     H49395   9.614   1.468   2.247  0.2890  1.3630  1.5766
  358MOL0     H49396   9.348   1.606   2.279  0.1283 -1.5961  2.2922
  358MOL0     H49397   9.515   1.662   2.258  1.7556 -1.1830 -1.0320
  358MOL0     H49398   9.389   1.483   2.049 -2.6823 -0.7150  4.1655
  358MOL0     H49399   9.522   1.600   2.030 -1.3760  3.1765 -1.0343
  358MOL0     H49400   9.211   1.837   1.922  1.9023  0.1547 -1.0381
  358MOL0     H49401   9.546   1.313   2.654 -0.2448  0.5420 -1.2675
  358MOL0     H49402   9.528   1.353   3.005  0.3510  0.5228 -0.4133
  358MOL0     H49403   9.502   1.184   2.967  0.8610 -1.0733 -1.5813
  358MOL0     H49404   9.625   1.270   2.878 -0.3500 -1.7120  0.5654
  359MOL0     O49405   4.577   5.679   5.870  0.0071  0.7763  0.3130
  359MOL0     C49406   4.526   5.788   5.859  0.7417  0.1479  0.1432
  359MOL0     O49407   4.475   5.860   5.959  0.2470 -0.5039  0.3062
  359MOL0     C49408   4.453   5.818   6.084 -0.2793 -0.6731  0.7182
  359MOL0     C49409   4.560   5.763   6.154  0.3607 -0.0377  0.3703
  359MOL0     C49410   4.539   5.724   6.284  0.1493 -0.5164 -0.4178
  359MOL0     C49411   4.415   5.726   6.336 -0.7578 -0.0294  0.6253
  359MOL0     O49412   4.387   5.678   6.458 -0.3281  0.1548 -0.2372
  359MOL0     C49413   4.439   5.542   6.490 -0.2038 -0.3537  0.2644
  359MOL0     C49414   4.516   5.562   6.618  0.1571  1.2736  0.2829
  359MOL0     C49415   4.419   5.554   6.746  0.0779  0.1298  0.4406
  359MOL0     C49416   4.496   5.570   6.880  0.6555 -0.4307 -0.1034
  359MOL0     C49417   4.413   5.516   6.997  0.0306  0.4206  0.5428
  359MOL0     C49418   4.506   5.476   7.106  1.1928 -0.2339  0.1341
  359MOL0     C49419   4.429   5.375   7.205 -0.2957 -0.2852 -0.2717
  359MOL0     C49420   4.517   5.340   7.329 -0.5401 -0.2721 -0.0984
  359MOL0     N49421   4.447   5.224   7.389  0.7535  0.4674 -0.8718
  359MOL0     C49422   4.356   5.231   7.491  0.0416  0.3892 -0.6252
  359MOL0     C49423   4.338   5.097   7.531  0.3636 -0.2838 -0.8452
  359MOL0     C49424   4.243   5.055   7.636  0.3166  0.5137 -0.9069
  359MOL0     C49425   4.103   5.033   7.577  0.1075  0.1292  0.3104
  359MOL0     C49426   3.996   5.029   7.691 -1.0187  0.1845  0.3262
  359MOL0     C49427   3.867   5.086   7.637  0.0446  0.1405  0.4664
  359MOL0     O49428   3.874   5.226   7.618  0.4890  0.2471  0.7647
  359MOL0     C49429   3.792   5.279   7.521 -0.6381 -0.1934  0.6179
  359MOL0     C49430   3.820   5.412   7.482  0.2267  0.3407  1.1708
  359MOL0     C49431   3.732   5.472   7.394  0.2177  0.4726 -0.7918
  359MOL0     C49432   3.775   5.611   7.350 -0.8230 -0.4837  0.1053
  359MOL0     C49433   3.615   5.411   7.352 -1.1973  1.4015 -0.2343
  359MOL0     C49434   3.519   5.477   7.256 -0.4409  0.2278 -1.3316
  359MOL0     O49435   3.484   5.410   7.149  0.3887 -0.2073 -0.2196
  359MOL0     C49436   3.405   5.468   7.056 -0.1664  0.4598 -0.1712
  359MOL0     C49437   3.297   5.397   7.010 -0.3794  0.4607 -0.7032
  359MOL0     C49438   3.220   5.441   6.902  0.5665  0.1081 -0.8713
  359MOL0     C49439   3.234   5.570   6.846  0.2122 -0.3434 -0.0695
  359MOL0     O49440   3.148   5.612   6.749 -0.2851  0.3718 -0.1784
  359MOL0     C49441   3.128   5.750   6.749 -0.2608  0.1137  0.6987
  359MOL0     C49442   2.986   5.781   6.705 -0.8650  0.4080 -1.1378
  359MOL0     C49443   2.865   5.813   6.804 -1.0332 -0.0325 -0.2602
  359MOL0     C49444   2.743   5.855   6.718  0.0966  0.0108 -0.4760
  359MOL0     C49445   2.621   5.885   6.810  0.4279 -0.2418 -0.0282
  359MOL0     C49446   2.504   5.949   6.743  0.3787 -0.1439 -0.5552
  359MOL0     C49447   2.377   5.921   6.815  0.1687  0.3307 -0.0862
  359MOL0     C49448   2.322   5.781   6.777 -0.2376  0.2183  0.1667
  359MOL0    Cl49449   2.170   5.754   6.870 -0.2782 -0.2626 -0.0337
  359MOL0     C49450   3.349   5.645   6.889 -1.0855 -0.3022 -0.4218
  359MOL0     C49451   3.434   5.588   6.989 -0.1222 -0.4262  0.7735
  359MOL0     O49452   3.476   5.586   7.290 -0.1423 -0.2874  0.8365
  359MOL0     C49453   3.590   5.275   7.382  0.6058 -0.3950  0.0920
  359MOL0     C49454   3.673   5.223   7.470 -0.4302  0.7714  0.6012
  359MOL0     N49455   4.423   5.025   7.452 -0.0136  0.0492  0.6169
  359MOL0     N49456   4.500   5.101   7.376 -0.4501 -1.2316  0.0183
  359MOL0     C49457   4.309   5.794   6.267 -0.5468  0.3092  0.6614
  359MOL0     C49458   4.322   5.825   6.137 -0.3183 -0.0477 -0.9750
  359MOL0     C49459   4.521   5.851   5.725 -0.9969  0.0552 -1.0246
  359MOL0     C49460   4.601   5.789   5.628 -0.6300 -0.1864 -0.2311
  359MOL0     C49461   4.610   5.850   5.504  0.1230 -0.2880 -0.0765
  359MOL0     C49462   4.543   5.962   5.471  0.3630 -0.8194 -0.3736
  359MOL0     O49463   4.558   6.030   5.354 -0.4406  0.6908 -0.2660
  359MOL0     C49464   4.621   5.973   5.241 -0.8747  0.9178  0.2471
  359MOL0     C49465   4.612   6.062   5.121  0.0084  0.1358 -0.0070
  359MOL0     C49466   4.662   6.000   4.989 -0.0538  0.7658  0.3156
  359MOL0     C49467   4.571   5.879   4.943  0.3341 -0.0942 -0.0469
  359MOL0     C49468   4.442   5.926   4.891 -0.1030  0.0766 -0.3176
  359MOL0     C49469   4.340   5.963   4.843 -0.2012 -0.3241 -0.3212
  359MOL0     C49470   4.448   6.017   5.563 -0.4705 -0.0729  0.7552
  359MOL0     C49471   4.429   5.954   5.685  0.1079  0.2361  0.1091
  359MOL0     C49472   4.299   5.979   5.757  0.1037  0.2227  0.1981
  359MOL0     H49473   4.666   5.759   6.132  0.5057 -0.7398  1.1680
  359MOL0     H49474   4.627   5.708   6.345 -0.8704 -3.3029  0.4581
  359MOL0     H49475   4.498   5.489   6.414  0.5461 -0.1562  0.6911
  359MOL0     H49476   4.356   5.474   6.509  1.0260 -2.1169 -0.3160
  359MOL0     H49477   4.591   5.484   6.633 -0.3750  0.5320 -0.7347
  359MOL0     H49478   4.558   5.663   6.612 -4.1565  3.2784  0.2430
  359MOL0     H49479   4.343   5.632   6.746 -0.0813 -0.0153  1.1968
  359MOL0     H49480   4.368   5.457   6.750  0.2950  0.0081  4.0881
  359MOL0     H49481   4.592   5.529   6.851  0.4323  0.5017 -2.3672
  359MOL0     H49482   4.520   5.677   6.887  1.8145 -0.7457  1.0842
  359MOL0     H49483   4.343   5.437   6.969  0.4140  0.2613  0.0251
  359MOL0     H49484   4.357   5.601   7.036  2.6309  1.5179  2.1920
  359MOL0     H49485   4.604   5.436   7.078  1.8076  2.0470 -1.2469
  359MOL0     H49486   4.523   5.571   7.157 -3.3710 -0.1472  1.8901
  359MOL0     H49487   4.391   5.296   7.139  0.2383 -1.2534  0.5563
  359MOL0     H49488   4.342   5.428   7.245  0.4057  2.9630 -2.6238
  359MOL0     H49489   4.610   5.298   7.289 -2.2988 -2.6043 -1.9588
  359MOL0     H49490   4.543   5.423   7.396  2.3382 -1.8840  0.9892
  359MOL0     H49491   4.302   5.321   7.519 -1.2543 -0.1469 -1.3096
  359MOL0     H49492   4.233   5.135   7.709  1.5931  2.0562 -2.3347
  359MOL0     H49493   4.276   4.967   7.691  1.3686  2.1714  1.2370
  359MOL0     H49494   4.088   5.128   7.523 -3.1485  0.1157  1.0058
  359MOL0     H49495   4.086   4.948   7.511 -1.2182  0.8959 -0.3813
  359MOL0     H49496   3.977   4.924   7.714  0.8550 -0.1405  0.5389
  359MOL0     H49497   4.034   5.078   7.780  0.5520  0.1426 -0.2888
  359MOL0     H49498   3.854   5.045   7.537  3.2129 -1.0309  0.4092
  359MOL0     H49499   3.785   5.069   7.707  1.0163 -1.1680  1.3318
  359MOL0     H49500   3.911   5.454   7.523  0.3017 -0.4394  1.8442
  359MOL0     H49501   3.781   5.692   7.423  3.4855 -2.1773  1.9728
  359MOL0     H49502   3.728   5.650   7.260  0.0769  1.4520  0.4242
  359MOL0     H49503   3.880   5.590   7.325 -1.3236 -1.4414 -1.2967
  359MOL0     H49504   3.269   5.305   7.059  0.2311  0.0934 -1.0364
  359MOL0     H49505   3.140   5.372   6.882 -0.9475  1.5548 -0.0821
  359MOL0     H49506   3.144   5.794   6.848 -0.1036 -0.9866  1.1820
  359MOL0     H49507   3.202   5.803   6.689 -1.0024  2.3049  1.6393
  359MOL0     H49508   2.997   5.862   6.632 -1.1675 -1.2747 -3.1642
  359MOL0     H49509   2.936   5.706   6.642 -2.1007 -0.2311  0.5393
  359MOL0     H49510   2.901   5.888   6.875  2.7678 -1.1130 -0.8359
  359MOL0     H49511   2.845   5.724   6.865  3.3554 -1.2579 -0.2988
  359MOL0     H49512   2.728   5.776   6.644 -0.1925 -3.4655  2.9899
  359MOL0     H49513   2.778   5.941   6.659 -1.7340 -0.1728 -1.9268
  359MOL0     H49514   2.588   5.793   6.859 -4.3002  0.2397 -1.7879
  359MOL0     H49515   2.658   5.957   6.884  0.0652 -3.3214  3.4354
  359MOL0     H49516   2.493   5.897   6.647 -1.2437 -1.5129  0.3213
  359MOL0     H49517   2.516   6.056   6.720  0.5077  0.4748  2.0894
  359MOL0     H49518   2.296   5.984   6.777 -0.3866  0.8657  1.8667
  359MOL0     H49519   2.380   5.941   6.922 -3.8750  4.5262 -0.4320
  359MOL0     H49520   2.402   5.715   6.813  0.6141  2.2305  2.2151
  359MOL0     H49521   2.309   5.769   6.669  3.0431 -2.1640 -0.1300
  359MOL0     H49522   3.377   5.743   6.850 -0.6468  0.0878  0.7951
  359MOL0     H49523   3.530   5.634   7.009  0.6299 -0.2424 -2.6927
  359MOL0     H49524   3.508   5.221   7.337 -0.7731  2.3379 -0.9020
  359MOL0     H49525   3.650   5.129   7.519  2.2117  0.3116  1.0591
  359MOL0     H49526   4.215   5.819   6.314 -1.6630  0.4115 -1.5079
  359MOL0     H49527   4.241   5.874   6.083  0.6133  2.3560 -0.3134
  359MOL0     H49528   4.655   5.695   5.638 -0.2162 -0.2647 -2.6707
  359MOL0     H49529   4.674   5.809   5.426  1.7925 -1.9935  2.0192
  359MOL0     H49530   4.724   5.945   5.262 -0.8514 -0.0573 -1.0847
  359MOL0     H49531   4.571   5.878   5.222 -3.3834  1.7639  1.9591
  359MOL0     H49532   4.668   6.149   5.156  5.1365 -2.9458  0.5578
  359MOL0     H49533   4.510   6.100   5.107  0.4055  2.2851  2.3545
  359MOL0     H49534   4.675   6.074   4.910 -1.8780 -2.9670 -3.8889
  359MOL0     H49535   4.756   5.952   5.018 -0.0446  1.2998  1.2157
  359MOL0     H49536   4.559   5.811   5.028 -0.8567  1.3153  0.9530
  359MOL0     H49537   4.619   5.816   4.868 -0.3334  1.2053 -1.6332
  359MOL0     H49538   4.242   5.998   4.814  0.0497  0.2187 -0.5293
  359MOL0     H49539   4.384   6.099   5.533 -0.7817 -0.3157  0.7518
  359MOL0     H49540   4.215   5.994   5.689 -0.1223  2.2594  0.8570
  359MOL0     H49541   4.275   5.894   5.821 -0.5787  1.2853  1.4041
  359MOL0     H49542   4.320   6.063   5.824 -1.7196  0.9426 -0.0766
  360MOL0     O49543   2.656   1.409  10.670  0.5062 -0.2949  0.7237
  360MOL0     C49544   2.765   1.371  10.640 -1.4584  0.9430 -0.8109
  360MOL0     O49545   2.807   1.331  10.517  0.1679 -0.0733  0.2523
  360MOL0     C49546   2.725   1.317  10.414  0.4705  0.5756 -0.6707
  360MOL0     C49547   2.614   1.224  10.422 -0.0461 -1.3074  0.3965
  360MOL0     C49548   2.539   1.198  10.307  0.8835  0.5533  0.3155
  360MOL0     C49549   2.576   1.255  10.186  0.6915 -0.5058 -1.4680
  360MOL0     O49550   2.493   1.215  10.078 -0.1356 -0.0630  0.2803
  360MOL0     C49551   2.515   1.268   9.951 -0.0274  0.5002 -1.0069
  360MOL0     C49552   2.388   1.259   9.888  0.5712 -0.2536 -0.2760
  360MOL0     C49553   2.398   1.272   9.736  0.6240 -0.2080  0.1698
  360MOL0     C49554   2.257   1.302   9.667  0.5352 -1.0051 -0.1347
  360MOL0     C49555   2.136   1.219   9.699  0.6917  0.2524  0.3339
  360MOL0     C49556   2.021   1.247   9.592 -0.5138  0.0273  0.7871
  360MOL0     C49557   1.921   1.138   9.605  0.2502  0.2539  0.5171
  360MOL0     C49558   1.788   1.201   9.560  0.2983  0.3117  0.2031
  360MOL0     N49559   1.676   1.111   9.563  0.3971  0.3869 -0.1401
  360MOL0     C49560   1.643   1.017   9.667 -0.4268 -1.4049 -0.4144
  360MOL0     C49561   1.528   0.962   9.625  0.5045  0.1104  0.3700
  360MOL0     C49562   1.451   0.856   9.694  0.2566  0.9585 -0.3384
  360MOL0     C49563   1.406   0.900   9.831 -0.1276 -0.7764 -0.8231
  360MOL0     C49564   1.510   0.865   9.940  0.0849  0.3238  0.3398
  360MOL0     C49565   1.473   0.903  10.092 -0.5157 -0.3442  1.2407
  360MOL0     O49566   1.481   1.050  10.093  0.1478 -0.4460  0.6096
  360MOL0     C49567   1.429   1.110  10.210 -0.6239  0.1711  0.6972
  360MOL0     C49568   1.297   1.122  10.232 -0.2241 -0.3477  0.4098
  360MOL0     C49569   1.239   1.192  10.340  0.5933  0.5859  0.8433
  360MOL0     C49570   1.090   1.211  10.346  0.6604 -0.7756 -0.4152
  360MOL0     C49571   1.326   1.254  10.433 -0.7523 -0.7947 -0.9829
  360MOL0     C49572   1.289   1.332  10.551 -0.9506  0.5366 -0.3760
  360MOL0     O49573   1.387   1.339  10.651 -0.3265 -0.2632  0.3478
  360MOL0     C49574   1.383   1.428  10.758  0.1734 -0.6396 -0.0769
  360MOL0     C49575   1.434   1.390  10.883  0.6232  0.2844  0.0099
  360MOL0     C49576   1.431   1.476  10.992  0.6065 -0.3046 -0.4270
  360MOL0     C49577   1.410   1.614  10.976 -0.1441  0.1749  0.8856
  360MOL0     O49578   1.404   1.696  11.083 -0.0082  0.5126  0.2263
  360MOL0     C49579   1.392   1.837  11.063 -0.3323 -0.0809 -0.3422
  360MOL0     C49580   1.399   1.918  11.198  0.1287  0.7410  0.4275
  360MOL0     C49581   1.286   1.887  11.295 -0.2463  0.4272  1.2436
  360MOL0     C49582   1.283   1.977  11.413  0.7397 -0.2059 -0.0829
  360MOL0     C49583   1.196   2.106  11.391 -0.1494  0.2205 -0.2837
  360MOL0     C49584   1.182   2.188  11.523  0.5470  0.1722 -0.0767
  360MOL0     C49585   1.088   2.306  11.493  0.6233  0.2923 -0.2773
  360MOL0     C49586   0.945   2.262  11.491  0.3071 -0.3703 -0.8342
  360MOL0    Cl49587   0.863   2.310  11.632  0.0774  0.2086  0.0130
  360MOL0     C49588   1.370   1.653  10.852  0.6038 -0.4475  0.5761
  360MOL0     C49589   1.348   1.569  10.743  0.4794  0.1608  0.5077
  360MOL0     O49590   1.182   1.390  10.550 -0.0138  0.1836  0.5405
  360MOL0     C49591   1.468   1.230  10.411  0.0090 -1.1655 -0.1610
  360MOL0     C49592   1.514   1.179  10.293  0.7149  0.8172  0.4358
  360MOL0     N49593   1.488   1.024   9.506  0.4263  0.1240  0.1568
  360MOL0     N49594   1.586   1.095   9.465  1.2628  0.7745  0.2771
  360MOL0     C49595   2.693   1.334  10.173 -0.0527 -0.6037 -1.2893
  360MOL0     C49596   2.762   1.367  10.291  0.1680 -0.3462 -0.6510
  360MOL0     C49597   2.861   1.369  10.750  1.0961  0.4312 -0.2536
  360MOL0     C49598   2.818   1.318  10.865 -0.3481  0.1722 -0.9471
  360MOL0     C49599   2.903   1.307  10.974 -0.3577  1.2067  0.9023
  360MOL0     C49600   3.022   1.374  10.975  0.5879 -0.4168 -0.3259
  360MOL0     O49601   3.102   1.371  11.089 -0.7013  0.3397  0.2270
  360MOL0     C49602   3.239   1.405  11.081 -0.4365 -0.1760  0.1222
  360MOL0     C49603   3.303   1.344  11.209 -0.9206  0.2581 -0.2292
  360MOL0     C49604   3.292   1.191  11.191  0.2582 -0.0449 -0.3496
  360MOL0     C49605   3.394   1.126  11.293 -0.9056 -0.0163  0.4309
  360MOL0     C49606   3.407   0.988  11.256  0.3282 -0.3166  0.2197
  360MOL0     C49607   3.413   0.866  11.234  0.5657 -0.5491  0.9673
  360MOL0     C49608   3.066   1.428  10.851  0.0429  0.3669 -0.0176
  360MOL0     C49609   2.987   1.433  10.737 -1.2158 -0.2147 -0.6497
  360MOL0     C49610   3.028   1.509  10.613 -0.0727  0.2433 -0.4756
  360MOL0     H49611   2.577   1.175  10.512 -1.6635 -1.2341 -0.1803
  360MOL0     H49612   2.450   1.136  10.310  0.0790  1.7255  1.8821
  360MOL0     H49613   2.576   1.199   9.892 -2.4415 -2.4939 -0.2600
  360MOL0     H49614   2.554   1.370   9.943 -3.5417  2.1733  0.9367
  360MOL0     H49615   2.344   1.162   9.915 -1.3815  0.9496  1.1978
  360MOL0     H49616   2.330   1.337   9.939  0.3855 -0.2599 -0.4779
  360MOL0     H49617   2.464   1.355   9.711 -1.0547  0.7186 -1.3590
  360MOL0     H49618   2.442   1.183   9.689  2.9512  1.2275 -0.5521
  360MOL0     H49619   2.225   1.397   9.711  1.9664 -1.5853  2.4006
  360MOL0     H49620   2.272   1.309   9.559  1.5640 -0.0270  0.0605
  360MOL0     H49621   2.103   1.249   9.799  1.0344  3.0160 -0.3000
  360MOL0     H49622   2.161   1.113   9.705 -0.5563  0.0152  1.6701
  360MOL0     H49623   1.975   1.343   9.616 -2.1992 -1.0902  2.3560
  360MOL0     H49624   2.068   1.254   9.494  1.4058 -1.0384  1.5808
  360MOL0     H49625   1.922   1.104   9.708  3.0652  0.2310  0.5551
  360MOL0     H49626   1.955   1.052   9.545  3.9184  1.3085  0.8115
  360MOL0     H49627   1.771   1.297   9.609  1.8995  2.2149 -2.6858
  360MOL0     H49628   1.801   1.228   9.455  0.1913  4.7717  1.1756
  360MOL0     H49629   1.704   0.990   9.753  0.4373  0.2291 -0.4658
  360MOL0     H49630   1.515   0.771   9.721  1.8414  2.7212  1.7441
  360MOL0     H49631   1.376   0.832   9.618  1.7907  0.3726 -1.7247
  360MOL0     H49632   1.395   1.008   9.843  3.1213 -0.4687  0.5431
  360MOL0     H49633   1.318   0.841   9.855 -0.2467  0.7091  2.9857
  360MOL0     H49634   1.511   0.756   9.938 -0.1683  0.3301 -0.2309
  360MOL0     H49635   1.610   0.899   9.911 -0.5505  1.7956 -0.2335
  360MOL0     H49636   1.374   0.860  10.115 -0.5472 -0.8470  0.2172
  360MOL0     H49637   1.555   0.861  10.150  0.7939 -1.5100 -1.3024
  360MOL0     H49638   1.241   1.075  10.152  2.7027 -1.3808 -1.2042
  360MOL0     H49639   1.064   1.204  10.452  2.3469  0.5220  0.1287
  360MOL0     H49640   1.037   1.138  10.284 -0.2693  1.9274 -3.0719
  360MOL0     H49641   1.056   1.302  10.295 -1.9614  1.1295  4.0584
  360MOL0     H49642   1.476   1.290  10.880  2.8135  1.1547 -1.4991
  360MOL0     H49643   1.461   1.450  11.093  2.4345  0.3694 -0.7511
  360MOL0     H49644   1.489   1.850  11.014  1.3238 -3.2651  1.7769
  360MOL0     H49645   1.308   1.876  11.005 -0.3460  0.4180  0.0086
  360MOL0     H49646   1.497   1.910  11.244 -0.4191 -0.7175  1.4085
  360MOL0     H49647   1.386   2.022  11.165  1.1112  0.6197 -0.3837
  360MOL0     H49648   1.309   1.788  11.335 -0.2637  0.1564  0.6003
  360MOL0     H49649   1.186   1.879  11.251  0.0010 -0.1402  0.7691
  360MOL0     H49650   1.388   2.007  11.425  0.5490  0.8856 -0.9763
  360MOL0     H49651   1.241   1.926  11.500 -2.7588  1.3928 -0.6720
  360MOL0     H49652   1.243   2.170  11.316  0.3314  1.6457  1.1769
  360MOL0     H49653   1.102   2.071  11.346  0.5761 -1.4446 -0.5880
  360MOL0     H49654   1.279   2.217  11.565 -0.9819  0.4460  3.6048
  360MOL0     H49655   1.144   2.128  11.606 -1.6649 -2.4837 -2.7851
  360MOL0     H49656   1.106   2.357  11.397 -1.3761  0.2946 -0.7074
  360MOL0     H49657   1.108   2.373  11.577  1.2833 -2.6032  2.0401
  360MOL0     H49658   0.930   2.155  11.502 -0.2864 -0.0642  2.2128
  360MOL0     H49659   0.886   2.293  11.405 -1.7331  1.3785  1.0644
  360MOL0     H49660   1.331   1.752  10.831  0.7781 -0.3838  0.5540
  360MOL0     H49661   1.301   1.614  10.655 -0.1682 -0.0948  0.7169
  360MOL0     H49662   1.540   1.271  10.481 -1.7272 -0.9595  1.5777
  360MOL0     H49663   1.620   1.174  10.268  0.5492  0.6841 -0.2450
  360MOL0     H49664   2.722   1.383  10.081 -2.2772  2.7787 -0.3812
  360MOL0     H49665   2.828   1.454  10.296 -1.4537  0.9871 -1.3265
  360MOL0     H49666   2.714   1.291  10.876 -0.4374  1.1162  0.9373
  360MOL0     H49667   2.867   1.265  11.067  0.7418  3.5232  2.4444
  360MOL0     H49668   3.304   1.384  10.996  1.2359  0.7779  1.1202
  360MOL0     H49669   3.239   1.512  11.101 -2.2391 -0.0176 -0.5477
  360MOL0     H49670   3.239   1.373  11.293 -3.0411 -4.5964  0.1266
  360MOL0     H49671   3.406   1.376  11.226 -0.4797 -0.9996 -0.4601
  360MOL0     H49672   3.192   1.154  11.213  0.5840 -0.9819 -0.3935
  360MOL0     H49673   3.318   1.151  11.092  0.7486  0.4102 -0.4078
  360MOL0     H49674   3.347   1.134  11.392 -0.0559  0.4813  0.8075
  360MOL0     H49675   3.491   1.176  11.284  0.8856 -2.5188  3.5947
  360MOL0     H49676   3.406   0.760  11.215 -1.5598 -0.5516  1.4471
  360MOL0     H49677   3.165   1.473  10.847 -0.1633  1.2003  2.4942
  360MOL0     H49678   3.121   1.465  10.578  0.3318 -1.2842  2.2763
  360MOL0     H49679   2.952   1.519  10.534  1.7855  0.7683 -2.2724
  360MOL0     H49680   3.052   1.614  10.636 -4.1159  1.5956 -1.4367
  361MOL0     O49681   3.412   4.141  10.014 -0.3105 -0.2721  0.3166
  361MOL0     C49682   3.511   4.086  10.060 -0.0571 -0.8325 -0.6053
  361MOL0     O49683   3.570   3.970  10.017 -0.2777  0.0667  1.2512
  361MOL0     C49684   3.483   3.890   9.935  0.2321  0.6115 -0.7428
  361MOL0     C49685   3.474   3.917   9.800  0.6110 -0.8604  0.5376
  361MOL0     C49686   3.399   3.850   9.712  0.8579 -0.5790  0.1784
  361MOL0     C49687   3.325   3.736   9.759  0.6571 -0.0344  0.2197
  361MOL0     O49688   3.244   3.659   9.680 -0.7568 -0.1407 -0.1513
  361MOL0     C49689   3.230   3.675   9.534 -0.3653 -0.4997  0.0284
  361MOL0     C49690   3.113   3.761   9.523  0.0006 -1.5130  0.7633
  361MOL0     C49691   3.106   3.798   9.374 -0.0372  0.5935 -0.1565
  361MOL0     C49692   3.017   3.696   9.303 -0.3949  0.2022  0.5076
  361MOL0     C49693   3.103   3.587   9.242 -0.3024  0.6076 -0.5416
  361MOL0     C49694   3.046   3.538   9.102  0.1088  0.0904 -0.7874
  361MOL0     C49695   2.909   3.472   9.104  0.3141 -0.1232 -0.3001
  361MOL0     C49696   2.825   3.491   8.978 -0.9147 -0.5748 -0.3813
  361MOL0     N49697   2.692   3.443   8.998  0.4547 -0.2328  0.7840
  361MOL0     C49698   2.670   3.314   8.981  0.0361 -0.5115 -0.6393
  361MOL0     C49699   2.534   3.307   8.966  0.5374  0.0410 -1.0769
  361MOL0     C49700   2.457   3.183   8.943  0.1648 -0.6000 -0.1933
  361MOL0     C49701   2.482   3.115   8.817 -0.4711  0.2459  0.1746
  361MOL0     C49702   2.400   2.987   8.790  0.3160 -0.7573 -0.6604
  361MOL0     C49703   2.282   3.013   8.695  0.2420 -0.0852 -0.4365
  361MOL0     O49704   2.320   3.052   8.562  0.0084  0.1874 -0.3876
  361MOL0     C49705   2.230   3.061   8.462 -0.3872  0.2535 -0.1077
  361MOL0     C49706   2.287   3.092   8.340 -0.8875 -0.2758  0.7582
  361MOL0     C49707   2.210   3.100   8.226 -0.8319 -0.0876 -0.4086
  361MOL0     C49708   2.274   3.133   8.090  0.6103 -0.0021  0.0155
  361MOL0     C49709   2.071   3.089   8.238  0.7993 -0.3079 -0.4249
  361MOL0     C49710   1.986   3.111   8.118 -0.2402  0.9265 -1.0551
  361MOL0     O49711   1.946   2.988   8.060 -0.4972  0.2310  0.3002
  361MOL0     C49712   1.863   3.009   7.948  0.0968 -0.8516 -0.3134
  361MOL0     C49713   1.914   3.021   7.816 -0.4704 -0.2831  0.2258
  361MOL0     C49714   1.836   3.048   7.709  0.7989 -0.4005 -0.3621
  361MOL0     C49715   1.703   3.048   7.734  0.6756  0.2176  1.0269
  361MOL0     O49716   1.634   3.081   7.619 -0.2214 -0.2902  0.1842
  361MOL0     C49717   1.491   3.087   7.635 -0.4722 -0.0734  0.6955
  361MOL0     C49718   1.421   3.112   7.494 -0.2391 -0.2057  0.2524
  361MOL0     C49719   1.494   3.230   7.422 -0.8006 -0.0208 -0.5366
  361MOL0     C49720   1.417   3.272   7.292  0.4261  0.6330 -0.7198
  361MOL0     C49721   1.490   3.360   7.188  0.1604 -0.3985 -0.0672
  361MOL0     C49722   1.407   3.343   7.056  0.6665 -0.1258  0.5475
  361MOL0     C49723   1.420   3.460   6.959 -0.8209 -0.4870 -1.0552
  361MOL0     C49724   1.328   3.458   6.837 -0.3610 -0.4352  1.0877
  361MOL0    Cl49725   1.399   3.596   6.725 -0.3534  0.5486 -0.3864
  361MOL0     C49726   1.647   3.038   7.855  0.4459 -0.0072  0.9231
  361MOL0     C49727   1.723   3.008   7.964 -0.6924  0.1139 -0.0824
  361MOL0     O49728   1.981   3.228   8.069 -0.7070 -0.6898  0.0654
  361MOL0     C49729   2.010   3.055   8.370  0.0732  0.3825 -0.2627
  361MOL0     C49730   2.092   3.037   8.478  0.8753  0.5894 -0.0688
  361MOL0     N49731   2.479   3.430   8.991 -0.6979  0.2204 -0.2626
  361MOL0     N49732   2.576   3.514   8.998 -0.5821  0.2716  0.7318
  361MOL0     C49733   3.325   3.711   9.895 -0.7251  1.5251 -0.2283
  361MOL0     C49734   3.402   3.779   9.983 -0.0762  0.2793  0.1444
  361MOL0     C49735   3.594   4.166  10.148  0.0168  0.3304  0.6548
  361MOL0     C49736   3.687   4.106  10.233  0.4622  0.1686  0.6179
  361MOL0     C49737   3.761   4.182  10.323 -0.3957  0.3100 -0.6660
  361MOL0     C49738   3.751   4.314  10.329 -0.2068  0.4000 -0.4448
  361MOL0     O49739   3.807   4.406  10.417  0.7329  0.2162  0.0491
  361MOL0     C49740   3.900   4.366  10.519 -0.1334  0.3736 -0.7467
  361MOL0     C49741   3.874   4.456  10.648 -0.9961 -0.1014  0.0761
  361MOL0     C49742   3.738   4.436  10.715  1.3083  0.5058 -0.2717
  361MOL0     C49743   3.696   4.553  10.804  0.4083 -0.0251 -0.6150
  361MOL0     C49744   3.799   4.566  10.911  0.1488  0.5079  0.5493
  361MOL0     C49745   3.887   4.593  10.989 -0.0738 -0.6594  0.6801
  361MOL0     C49746   3.666   4.377  10.246  0.6548  0.0523  1.0306
  361MOL0     C49747   3.588   4.308  10.149  0.0696  0.9920 -1.2014
  361MOL0     C49748   3.510   4.406  10.061  0.8500 -1.0209 -0.7773
  361MOL0     H49749   3.549   3.979   9.752 -1.4760  0.5495 -1.0644
  361MOL0     H49750   3.405   3.879   9.608  3.3597 -1.1031  0.1021
  361MOL0     H49751   3.210   3.580   9.484  0.4693 -0.2509 -0.8014
  361MOL0     H49752   3.323   3.705   9.485 -0.8091 -1.1161 -1.2187
  361MOL0     H49753   3.021   3.720   9.566 -0.5286 -2.7663 -1.4479
  361MOL0     H49754   3.135   3.859   9.567 -1.5126 -1.9372  2.5987
  361MOL0     H49755   3.079   3.902   9.355 -0.2646  0.1467 -2.5219
  361MOL0     H49756   3.203   3.791   9.325 -0.5638 -1.2419 -1.0460
  361MOL0     H49757   2.950   3.643   9.371 -0.1938  1.3230  1.6186
  361MOL0     H49758   2.949   3.746   9.234 -0.9070  0.2658  1.0476
  361MOL0     H49759   3.104   3.510   9.319  3.3536  2.2597  1.3440
  361MOL0     H49760   3.211   3.605   9.238  0.4034 -2.9971 -1.0262
  361MOL0     H49761   3.050   3.625   9.035  3.7313  0.4175 -0.3460
  361MOL0     H49762   3.111   3.457   9.069 -0.7836 -1.1377  0.3253
  361MOL0     H49763   2.852   3.515   9.187  0.3967  1.6562 -1.1169
  361MOL0     H49764   2.923   3.366   9.127 -1.0533 -0.9610 -2.8855
  361MOL0     H49765   2.832   3.597   8.951  3.2195 -0.9862 -1.7123
  361MOL0     H49766   2.863   3.437   8.891 -0.5645  0.0181 -0.6073
  361MOL0     H49767   2.739   3.231   8.973 -0.7803 -1.5254  1.7994
  361MOL0     H49768   2.352   3.212   8.933 -0.1850 -2.4808 -3.6566
  361MOL0     H49769   2.466   3.112   9.027 -2.6199 -1.1416 -0.2412
  361MOL0     H49770   2.458   3.176   8.729 -2.8695  1.9710  1.9241
  361MOL0     H49771   2.589   3.090   8.810 -0.3343  0.4808  1.2551
  361MOL0     H49772   2.463   2.915   8.737 -1.3646 -0.3360 -3.4695
  361MOL0     H49773   2.368   2.948   8.887  1.0058 -0.2941 -0.2403
  361MOL0     H49774   2.232   2.920   8.666 -0.6373  1.4530 -4.5952
  361MOL0     H49775   2.216   3.085   8.745  2.0467  1.2545  0.1029
  361MOL0     H49776   2.392   3.108   8.321 -0.9747 -1.5586 -1.0419
  361MOL0     H49777   2.380   3.108   8.092  0.2662 -1.5349  0.7705
  361MOL0     H49778   2.259   3.236   8.058 -2.6462 -0.7210 -1.1533
  361MOL0     H49779   2.239   3.063   8.014 -0.3071 -1.5718  1.7909
  361MOL0     H49780   2.022   3.021   7.800  0.2277  1.4296  3.8047
  361MOL0     H49781   1.881   3.084   7.617  0.1086  1.3778 -0.0474
  361MOL0     H49782   1.471   2.986   7.671  2.8384 -0.5737  1.4946
  361MOL0     H49783   1.461   3.163   7.708 -0.3653 -1.3987  2.1561
  361MOL0     H49784   1.406   3.017   7.441 -1.8483 -0.0143  0.3122
  361MOL0     H49785   1.321   3.149   7.513  0.0413  0.3072  0.7288
  361MOL0     H49786   1.591   3.191   7.388 -0.9226 -0.5561 -0.2759
  361MOL0     H49787   1.513   3.312   7.492 -0.0809 -0.0547 -0.6823
  361MOL0     H49788   1.331   3.322   7.336 -1.0343 -3.1810  1.1132
  361MOL0     H49789   1.384   3.178   7.248  0.9012  0.2826 -0.3388
  361MOL0     H49790   1.497   3.463   7.224  2.5229 -0.3723 -0.4268
  361MOL0     H49791   1.593   3.326   7.175 -0.6563 -2.5892 -1.4646
  361MOL0     H49792   1.300   3.351   7.073  0.2129 -0.6240 -1.7134
  361MOL0     H49793   1.418   3.246   7.005 -1.5073 -0.6973  1.0622
  361MOL0     H49794   1.523   3.455   6.925 -0.2533 -4.0568  0.7535
  361MOL0     H49795   1.407   3.558   7.008  2.6862  1.2592 -3.2719
  361MOL0     H49796   1.220   3.459   6.855 -0.2409 -0.5236  1.8541
  361MOL0     H49797   1.348   3.364   6.786  0.5882  1.0521 -1.4847
  361MOL0     H49798   1.543   3.067   7.867 -0.1399 -1.8178  0.6085
  361MOL0     H49799   1.682   3.005   8.064  1.7601  0.8244  1.0376
  361MOL0     H49800   1.904   3.031   8.378  0.3216 -0.6794 -0.0418
  361MOL0     H49801   2.048   3.029   8.577 -0.1456  1.2158 -0.4482
  361MOL0     H49802   3.263   3.627   9.926  2.5318 -1.5005 -1.2729
  361MOL0     H49803   3.409   3.746  10.086 -1.0577  0.9490  0.4338
  361MOL0     H49804   3.700   3.999  10.220  3.0527  0.6805 -2.1051
  361MOL0     H49805   3.828   4.129  10.390  0.8313 -1.6919 -3.2531
  361MOL0     H49806   3.887   4.263  10.554 -0.4075  0.9918  1.0750
  361MOL0     H49807   4.002   4.384  10.484 -0.1555  2.4250  0.0909
  361MOL0     H49808   3.888   4.556  10.606 -2.2963  0.0315 -0.0691
  361MOL0     H49809   3.949   4.427  10.722 -1.4586 -2.9094 -0.4280
  361MOL0     H49810   3.664   4.424  10.636  2.2649  1.1023 -1.2875
  361MOL0     H49811   3.727   4.350  10.782 -0.9389  1.8755  1.2677
  361MOL0     H49812   3.596   4.536  10.845 -0.2045  2.4287 -0.9460
  361MOL0     H49813   3.697   4.635  10.732  1.2428 -2.8763 -4.1554
  361MOL0     H49814   3.974   4.611  11.048 -0.1072  0.7961  0.3404
  361MOL0     H49815   3.654   4.485  10.240  2.0403  0.1794  0.0701
  361MOL0     H49816   3.426   4.449  10.117  1.2575  0.0180 -0.9528
  361MOL0     H49817   3.575   4.492  10.047  0.5554 -0.8973 -1.3935
  361MOL0     H49818   3.469   4.375   9.965 -0.9292 -0.9065 -0.0921
  362MOL0     O49819   3.890   3.588   8.477 -0.7321 -0.5207 -0.1427
  362MOL0     C49820   3.777   3.548   8.495  0.6461 -0.6575 -1.5496
  362MOL0     O49821   3.737   3.443   8.582  0.6086 -0.4286  1.1314
  362MOL0     C49822   3.819   3.413   8.689  0.3169  0.0776 -0.1593
  362MOL0     C49823   3.963   3.398   8.682  0.2050  0.2311  0.8223
  362MOL0     C49824   4.028   3.359   8.798 -0.2384  0.0713 -0.8931
  362MOL0     C49825   3.966   3.341   8.925  0.2812  0.4891  1.3071
  362MOL0     O49826   4.019   3.311   9.041 -0.2892 -0.3970 -0.2678
  362MOL0     C49827   4.153   3.253   9.043  0.2040 -0.4895 -0.8349
  362MOL0     C49828   4.206   3.264   9.183 -0.2424 -1.5336  0.1826
  362MOL0     C49829   4.127   3.184   9.290 -0.4681 -0.6023  0.5409
  362MOL0     C49830   4.136   3.252   9.438 -0.5684 -0.0684  0.2378
  362MOL0     C49831   4.045   3.154   9.522 -0.7283 -0.0530  0.5407
  362MOL0     C49832   4.050   3.188   9.680 -0.6528  0.1524 -0.0645
  362MOL0     C49833   3.949   3.090   9.757 -1.2406 -0.3279 -0.5149
  362MOL0     C49834   4.002   3.069   9.903 -0.2805 -0.0788 -0.1965
  362MOL0     N49835   3.897   3.014   9.984  0.0819 -0.0381 -1.7513
  362MOL0     C49836   3.817   2.901   9.965  1.1274  0.1983 -0.0083
  362MOL0     C49837   3.764   2.873  10.084  0.0511  0.1990 -0.0515
  362MOL0     C49838   3.665   2.761  10.130 -0.1473  0.6180  0.0782
  362MOL0     C49839   3.580   2.783  10.250 -1.1159 -0.3939 -0.4585
  362MOL0     C49840   3.475   2.686  10.276 -0.2740 -0.7806  1.0019
  362MOL0     C49841   3.388   2.727  10.402  0.8213  0.4164 -0.1907
  362MOL0     O49842   3.310   2.616  10.421 -0.3035 -0.0645 -0.3840
  362MOL0     C49843   3.361   2.513  10.497 -0.2488 -0.4924  0.7070
  362MOL0     C49844   3.273   2.416  10.541 -0.6319  0.0641  0.8791
  362MOL0     C49845   3.312   2.287  10.596  0.0059 -1.1198 -0.3735
  362MOL0     C49846   3.199   2.189  10.626 -0.8383  0.0521  0.4292
  362MOL0     C49847   3.451   2.275  10.625  0.1600  0.2960 -0.1075
  362MOL0     C49848   3.515   2.154  10.692 -0.0187 -0.0037  0.4919
  362MOL0     O49849   3.636   2.178  10.743  0.4562 -0.2420 -0.3130
  362MOL0     C49850   3.718   2.079  10.793 -0.3332 -0.2078 -0.7355
  362MOL0     C49851   3.831   2.120  10.862 -0.8168  0.8752 -0.5926
  362MOL0     C49852   3.913   2.038  10.940  0.0006 -0.1153 -0.5907
  362MOL0     C49853   3.870   1.903  10.953 -0.4440  0.1514 -0.3757
  362MOL0     O49854   3.936   1.809  11.031  0.3157  0.1674  0.2405
  362MOL0     C49855   4.045   1.833  11.113  0.3343 -0.6789 -0.0962
  362MOL0     C49856   3.979   1.860  11.245  0.4876  1.3209 -0.6087
  362MOL0     C49857   4.065   1.826  11.366  0.4567  0.0156  0.6185
  362MOL0     C49858   4.059   1.677  11.407 -0.1059  0.1462  0.9038
  362MOL0     C49859   4.162   1.620  11.510 -0.3795  0.7482  0.2565
  362MOL0     C49860   4.309   1.637  11.464 -0.7041  0.1197  0.3512
  362MOL0     C49861   4.380   1.776  11.494 -0.0979  0.2520  0.2543
  362MOL0     C49862   4.491   1.816  11.392  0.1610 -0.7051 -0.5225
  362MOL0    Cl49863   4.435   1.827  11.222  0.1507 -0.0097  0.3620
  362MOL0     C49864   3.768   1.855  10.874  0.3330 -0.7253  0.5387
  362MOL0     C49865   3.686   1.939  10.795 -0.2418  0.3371 -0.1946
  362MOL0     O49866   3.444   2.052  10.705  0.3007  0.1819 -0.3110
  362MOL0     C49867   3.534   2.377  10.581  0.2413  0.5240  1.3003
  362MOL0     C49868   3.497   2.492  10.514 -0.2945 -0.6609  0.0313
  362MOL0     N49869   3.824   2.959  10.177  0.4287 -0.4483  0.1079
  362MOL0     N49870   3.902   3.033  10.116 -0.5286  0.0219 -0.5792
  362MOL0     C49871   3.825   3.376   8.931 -0.5170 -0.7893 -0.1969
  362MOL0     C49872   3.761   3.413   8.815 -0.1910  1.1343 -0.3710
  362MOL0     C49873   3.661   3.628   8.460  0.3578  0.3293  0.4135
  362MOL0     C49874   3.534   3.597   8.523  0.0509 -1.0053  0.2755
  362MOL0     C49875   3.427   3.670   8.488 -0.0823  0.0355 -0.1449
  362MOL0     C49876   3.430   3.779   8.409 -0.5288 -0.5084 -0.6003
  362MOL0     O49877   3.317   3.850   8.409  0.2257 -0.7011  0.1137
  362MOL0     C49878   3.295   3.964   8.326 -0.4914  0.0373 -0.5834
  362MOL0     C49879   3.157   4.017   8.357  0.0528  0.6009  0.1132
  362MOL0     C49880   3.129   4.036   8.506 -0.2632  0.0577  0.3813
  362MOL0     C49881   3.053   3.927   8.577 -0.8152  0.2876 -0.2163
  362MOL0     C49882   3.040   3.981   8.715 -0.3845 -0.5778 -0.0850
  362MOL0     C49883   3.030   4.026   8.828  0.6725 -0.0975 -1.1420
  362MOL0     C49884   3.545   3.808   8.348 -0.9037 -0.4108 -0.6081
  362MOL0     C49885   3.663   3.734   8.365 -0.2276  0.1434 -0.0780
  362MOL0     C49886   3.782   3.783   8.299  0.0110  0.1304  0.7338
  362MOL0     H49887   4.013   3.418   8.588  1.6087 -2.8797  0.7717
  362MOL0     H49888   4.136   3.359   8.788 -0.1901  0.2497 -0.4174
  362MOL0     H49889   4.220   3.307   8.975  0.9903 -1.7307 -1.0966
  362MOL0     H49890   4.153   3.149   9.008 -0.5198 -2.0083  3.2099
  362MOL0     H49891   4.311   3.231   9.187  0.2011 -0.7614 -2.9308
  362MOL0     H49892   4.210   3.371   9.205 -2.2374 -1.4396  0.2234
  362MOL0     H49893   4.022   3.174   9.260 -0.0409  0.0222 -1.2715
  362MOL0     H49894   4.173   3.085   9.297  2.7858  0.8310  1.3995
  362MOL0     H49895   4.236   3.251   9.483 -1.1887  3.2128  1.9483
  362MOL0     H49896   4.118   3.359   9.428  3.0358  0.5225 -1.3311
  362MOL0     H49897   4.062   3.046   9.510 -2.3880 -0.6766  2.8963
  362MOL0     H49898   3.943   3.178   9.491 -0.3089  1.3356  0.2079
  362MOL0     H49899   4.156   3.179   9.705 -0.4536 -0.1814 -0.9695
  362MOL0     H49900   4.014   3.288   9.705  1.4639  0.6864  1.0464
  362MOL0     H49901   3.953   2.989   9.715  0.9582  0.5786 -2.7794
  362MOL0     H49902   3.846   3.122   9.743 -1.3377 -0.0463  0.7718
  362MOL0     H49903   4.091   3.006   9.908 -0.6319 -0.9215 -2.6701
  362MOL0     H49904   4.026   3.167   9.944 -2.8823  0.0472  1.2307
  362MOL0     H49905   3.797   2.860   9.866 -2.4137 -4.8487  2.3642
  362MOL0     H49906   3.734   2.683  10.163  1.9449  0.8267 -3.3787
  362MOL0     H49907   3.605   2.728  10.045  0.6768  1.2067 -0.7458
  362MOL0     H49908   3.637   2.796  10.342  0.7430 -4.5742 -0.8249
  362MOL0     H49909   3.536   2.879  10.220 -0.1596 -0.0630 -0.8376
  362MOL0     H49910   3.407   2.678  10.191 -1.0288 -1.4175  1.6447
  362MOL0     H49911   3.520   2.586  10.278  1.4287 -0.0700  0.1494
  362MOL0     H49912   3.460   2.743  10.483  0.9510  0.3608 -0.2963
  362MOL0     H49913   3.328   2.811  10.365  0.8447 -0.2251 -1.7397
  362MOL0     H49914   3.166   2.434  10.534 -0.4605  0.5371 -1.0394
  362MOL0     H49915   3.194   2.117  10.544  1.6854 -0.7340  0.8868
  362MOL0     H49916   3.101   2.236  10.639 -2.0613 -2.0987 -0.4630
  362MOL0     H49917   3.219   2.142  10.723 -0.5931  0.6531  0.6784
  362MOL0     H49918   3.854   2.226  10.852  0.7412  0.4115 -2.4405
  362MOL0     H49919   4.008   2.074  10.978 -0.3474 -1.7605  2.1238
  362MOL0     H49920   4.104   1.742  11.125 -3.0003 -3.1360 -0.8793
  362MOL0     H49921   4.102   1.923  11.088 -0.9620  1.0223  2.6325
  362MOL0     H49922   3.961   1.967  11.254  0.7117  1.2102  1.7035
  362MOL0     H49923   3.887   1.804  11.265  1.7286  0.1539  2.4764
  362MOL0     H49924   4.025   1.886  11.449 -2.0953 -0.8275  0.1044
  362MOL0     H49925   4.165   1.863  11.343 -0.8539  3.0013 -0.8009
  362MOL0     H49926   4.080   1.621  11.315 -2.8617  1.1624 -0.4342
  362MOL0     H49927   3.958   1.650  11.438  0.1082 -1.3046  0.4077
  362MOL0     H49928   4.145   1.667  11.607  1.6337  0.1267  0.9590
  362MOL0     H49929   4.135   1.515  11.526  2.0804 -0.8550 -4.2063
  362MOL0     H49930   4.295   1.631  11.355  1.3558  3.3463 -0.2230
  362MOL0     H49931   4.371   1.559  11.509 -1.9324  1.7556  5.5161
  362MOL0     H49932   4.435   1.758  11.587 -1.9694 -0.3996  1.2935
  362MOL0     H49933   4.309   1.860  11.502  1.7242  1.8587  0.3230
  362MOL0     H49934   4.561   1.732  11.394  1.5375  0.4213  1.1112
  362MOL0     H49935   4.556   1.891  11.439  2.3081 -3.3923  1.1377
  362MOL0     H49936   3.750   1.748  10.884  3.4833 -1.2708  1.6630
  362MOL0     H49937   3.602   1.905  10.736 -1.4560  2.3989  0.2643
  362MOL0     H49938   3.642   2.367  10.587  0.3779  0.6497 -0.4550
  362MOL0     H49939   3.578   2.546  10.466 -0.7726  1.2795  1.2588
  362MOL0     H49940   3.768   3.359   9.021  0.4281  0.8582  0.7459
  362MOL0     H49941   3.654   3.428   8.832 -0.3454 -1.1094  1.0021
  362MOL0     H49942   3.515   3.512   8.588 -0.5475  0.2313  1.7609
  362MOL0     H49943   3.336   3.619   8.519  0.5753 -1.2105 -0.1719
  362MOL0     H49944   3.375   4.037   8.341 -0.8734  1.1066 -3.3058
  362MOL0     H49945   3.301   3.926   8.224  0.6497  1.1323 -0.9430
  362MOL0     H49946   3.083   3.945   8.322  0.9134  0.7789 -2.1979
  362MOL0     H49947   3.154   4.114   8.307  2.6972  0.2906 -0.7985
  362MOL0     H49948   3.230   4.059   8.544  1.7210 -2.2315 -2.9680
  362MOL0     H49949   3.067   4.126   8.510  1.2462  1.1279  0.6069
  362MOL0     H49950   3.110   3.835   8.566  0.4615  1.1583 -1.1582
  362MOL0     H49951   2.954   3.917   8.531  0.4497 -1.2722 -2.8188
  362MOL0     H49952   3.031   4.068   8.927  0.0916 -0.6868 -0.8779
  362MOL0     H49953   3.538   3.893   8.280 -0.1508  0.5084  0.4184
  362MOL0     H49954   3.765   3.868   8.232  0.2051 -1.4726 -1.4655
  362MOL0     H49955   3.865   3.810   8.364  3.2544 -1.6412 -2.3085
  362MOL0     H49956   3.830   3.707   8.237  1.8020  1.5701  0.2805
  363MOL0     O49957   8.074   9.906   3.990  0.0888 -0.2812 -0.7748
  363MOL0     C49958   8.091   9.942   3.875 -0.3683 -0.2599 -0.4121
  363MOL0     O49959   8.194   9.896   3.796 -0.0107  0.0831  0.8530
  363MOL0     C49960   8.307   9.849   3.863 -0.2377  0.0642 -0.4006
  363MOL0     C49961   8.371   9.934   3.951  0.6423 -0.0371  0.0448
  363MOL0     C49962   8.481   9.874   4.018 -0.5434 -0.3671 -0.1761
  363MOL0     C49963   8.521   9.738   3.996 -0.2890 -0.9759  0.8876
  363MOL0     O49964   8.630   9.698   4.083 -0.0371  1.0657 -0.4281
  363MOL0     C49965   8.596   9.592   4.184 -0.4465  0.7983 -0.5710
  363MOL0     C49966   8.726   9.539   4.268  1.0092 -0.8703 -0.4864
  363MOL0     C49967   8.798   9.654   4.332 -0.8296  0.0612 -0.7241
  363MOL0     C49968   8.718   9.722   4.445 -0.1105 -0.0290  0.1364
  363MOL0     C49969   8.795   9.848   4.492 -1.0583 -0.1069 -0.7850
  363MOL0     C49970   8.739   9.921   4.615  0.8512  0.2142  0.0954
  363MOL0     C49971   8.588   9.966   4.617  0.5992 -0.7970  0.6271
  363MOL0     C49972   8.553  10.036   4.751  0.2859  0.2045  0.9197
  363MOL0     N49973   8.408  10.070   4.745  0.4886 -0.4152  0.5357
  363MOL0     C49974   8.369  10.201   4.786  0.7667  0.6381 -0.8443
  363MOL0     C49975   8.232  10.183   4.805  0.4595 -0.8127  0.0771
  363MOL0     C49976   8.146  10.286   4.865 -0.4009  0.2992  0.0645
  363MOL0     C49977   8.078  10.377   4.755 -0.0287  0.5703 -0.5470
  363MOL0     C49978   8.179  10.475   4.685  0.5210  0.3482  0.7068
  363MOL0     C49979   8.078  10.560   4.599 -0.9307 -0.5809 -0.6838
  363MOL0     O49980   8.156  10.656   4.525  0.1407 -0.4316  0.8800
  363MOL0     C49981   8.099  10.704   4.413 -0.2557 -0.5182  0.1952
  363MOL0     C49982   8.175  10.704   4.298 -0.2867 -0.0936 -0.1629
  363MOL0     C49983   8.123  10.761   4.177  0.3352  0.4502  0.0151
  363MOL0     C49984   8.212  10.754   4.061 -0.2647  0.8147  0.6235
  363MOL0     C49985   8.002  10.838   4.171 -0.2125 -0.1242  1.1002
  363MOL0     C49986   7.943  10.898   4.057  1.4892 -0.6211 -0.7764
  363MOL0     O49987   7.831  10.967   4.082 -0.5040 -0.8243  0.6093
  363MOL0     C49988   7.739  11.019   3.985 -1.6694 -0.4168 -0.9084
  363MOL0     C49989   7.668  11.129   4.035  0.1317  0.2113 -0.1117
  363MOL0     C49990   7.564  11.185   3.951 -0.6411  0.2792  0.5669
  363MOL0     C49991   7.527  11.124   3.826  0.0505 -0.3226 -0.4883
  363MOL0     O49992   7.419  11.167   3.751 -0.0443  0.5065 -0.0045
  363MOL0     C49993   7.376  11.301   3.776  0.0631 -0.2699  0.1989
  363MOL0     C49994   7.269  11.360   3.672 -0.0710 -0.3562 -0.6185
  363MOL0     C49995   7.143  11.274   3.672 -0.3323  0.5557  0.0584
  363MOL0     C49996   7.049  11.309   3.566  0.3848  0.6658  1.0637
  363MOL0     C49997   6.912  11.229   3.555 -0.9054 -0.6010 -0.0188
  363MOL0     C49998   6.819  11.278   3.442 -0.6235  0.1929  0.5261
  363MOL0     C49999   6.770  11.422   3.464 -0.0367 -0.2298  0.1574
  363MOL0     C50000   6.680  11.466   3.348 -0.5786  0.6729 -0.5625
  363MOL0    Cl50001   6.793  11.487   3.203  0.3913  0.2806  0.0118
  363MOL0     C50002   7.605  11.015   3.785 -0.1489  0.7205 -0.0127
  363MOL0     C50003   7.720  10.975   3.856  0.7034 -0.1908  0.0791
  363MOL0     O50004   7.999  10.887   3.949  0.7861 -0.6586  0.1113
  363MOL0     C50005   7.933  10.824   4.290 -1.0056 -0.6623  0.5728
  363MOL0     C50006   7.974  10.761   4.409 -0.0913  0.5449  0.2840
  363MOL0     N50007   8.197  10.056   4.766 -0.5983 -0.8317  0.4282
  363MOL0     N50008   8.298   9.994   4.736 -0.0561  0.8060 -0.0676
  363MOL0     C50009   8.447   9.657   3.901  0.5449  0.1914 -0.4418
  363MOL0     C50010   8.349   9.719   3.834 -0.2515 -0.4898  0.6521
  363MOL0     C50011   7.985  10.045   3.829  0.3404 -0.3964  0.0173
  363MOL0     C50012   7.920  10.127   3.927 -0.0819 -0.3288 -0.2237
  363MOL0     C50013   7.818  10.218   3.892 -0.6369  0.3398  0.4940
  363MOL0     C50014   7.793  10.236   3.754  0.3174 -0.0421  0.0812
  363MOL0     O50015   7.691  10.311   3.697 -0.4192  0.4746 -0.5506
  363MOL0     C50016   7.608  10.387   3.795  0.6666  0.0532  0.1003
  363MOL0     C50017   7.469  10.428   3.737 -0.5574  0.5341 -0.1087
  363MOL0     C50018   7.399  10.512   3.841  0.0975 -0.2625  0.2391
  363MOL0     C50019   7.275  10.588   3.777  0.3668  0.3809 -0.6205
  363MOL0     C50020   7.309  10.708   3.698  1.1921 -0.0515  0.2119
  363MOL0     C50021   7.330  10.804   3.632 -0.0012 -0.3925  0.0268
  363MOL0     C50022   7.864  10.163   3.664  0.1762 -0.0305  0.0372
  363MOL0     C50023   7.958  10.065   3.694 -0.1128  0.0194 -1.0331
  363MOL0     C50024   8.030  10.002   3.578  0.3819 -0.4707 -0.1761
  363MOL0     H50025   8.339  10.037   3.963 -1.1058 -0.8254  3.1478
  363MOL0     H50026   8.540   9.919   4.097 -1.2314 -0.1100  0.1925
  363MOL0     H50027   8.545   9.509   4.134 -0.1368  0.2227  0.0635
  363MOL0     H50028   8.529   9.635   4.259 -1.2799  0.1645 -0.9342
  363MOL0     H50029   8.705   9.467   4.348  2.5511 -0.4201  0.3699
  363MOL0     H50030   8.794   9.487   4.199 -1.1019 -0.7871 -2.7861
  363MOL0     H50031   8.891   9.613   4.374 -0.8587 -0.5595 -1.2505
  363MOL0     H50032   8.822   9.724   4.252 -0.0550  2.3231  1.3721
  363MOL0     H50033   8.621   9.763   4.418 -0.0045  1.6488  2.0931
  363MOL0     H50034   8.702   9.648   4.524 -0.0795 -0.1420  0.0388
  363MOL0     H50035   8.819   9.924   4.417 -0.2214  0.9294  0.4890
  363MOL0     H50036   8.893   9.805   4.511  0.2787  2.7122 -0.7145
  363MOL0     H50037   8.749   9.858   4.704  1.4154 -0.8614 -0.7026
  363MOL0     H50038   8.796  10.013   4.615 -0.0494  0.8043 -1.1405
  363MOL0     H50039   8.517   9.885   4.597 -0.6688  0.4177  0.0321
  363MOL0     H50040   8.585  10.036   4.533 -0.5606 -1.3331  0.1993
  363MOL0     H50041   8.558   9.965   4.834  0.3702  0.4306  1.1075
  363MOL0     H50042   8.617  10.120   4.780  3.1564 -1.9080  1.1684
  363MOL0     H50043   8.420  10.292   4.815 -1.0279  1.6686 -0.7582
  363MOL0     H50044   8.189  10.350   4.942 -1.0274  0.1496  0.5474
  363MOL0     H50045   8.068  10.223   4.909 -0.1791 -0.3221 -0.4117
  363MOL0     H50046   8.029  10.314   4.680 -3.1455  2.8850 -0.6508
  363MOL0     H50047   7.999  10.429   4.808 -2.0835 -2.5598 -0.2792
  363MOL0     H50048   8.220  10.546   4.757 -0.3262  1.0885  0.4852
  363MOL0     H50049   8.247  10.418   4.622 -0.4966 -1.3602  1.0924
  363MOL0     H50050   8.013  10.494   4.541 -0.7192  0.0951 -1.7210
  363MOL0     H50051   8.012  10.616   4.667  0.0723  1.5498 -1.3748
  363MOL0     H50052   8.273  10.658   4.298  0.1743  0.6389 -3.4555
  363MOL0     H50053   8.305  10.704   4.092  0.5745  1.2267 -1.1020
  363MOL0     H50054   8.232  10.855   4.023 -0.5545  1.0762  1.1595
  363MOL0     H50055   8.168  10.698   3.978  2.8227 -0.9306 -0.0293
  363MOL0     H50056   7.701  11.165   4.132  1.0383 -1.8662  0.3955
  363MOL0     H50057   7.512  11.269   3.995  2.7363  3.6152 -1.2680
  363MOL0     H50058   7.333  11.313   3.875  1.1068 -0.4334  0.6896
  363MOL0     H50059   7.457  11.375   3.770 -0.8973  0.6865 -2.0458
  363MOL0     H50060   7.243  11.463   3.696  1.6094 -0.0637  0.0574
  363MOL0     H50061   7.304  11.358   3.568 -1.5622  1.6391 -1.2189
  363MOL0     H50062   7.091  11.306   3.762 -1.7897 -0.7402 -0.2742
  363MOL0     H50063   7.167  11.168   3.671  1.4474  0.9242  0.4985
  363MOL0     H50064   7.096  11.305   3.467 -0.3623  4.2540  0.3887
  363MOL0     H50065   7.028  11.415   3.586 -3.7837  0.3036 -0.4422
  363MOL0     H50066   6.931  11.121   3.546 -2.0134 -0.6916 -1.5160
  363MOL0     H50067   6.860  11.232   3.652 -1.6523 -2.2787 -0.3200
  363MOL0     H50068   6.741  11.202   3.438  1.8682 -2.6297  1.2786
  363MOL0     H50069   6.877  11.276   3.349  0.9426  1.3547  1.4317
  363MOL0     H50070   6.859  11.485   3.474 -0.9619  0.8422  2.3804
  363MOL0     H50071   6.708  11.426   3.554  1.1655  2.8802  0.9895
  363MOL0     H50072   6.633  11.563   3.365 -0.5464  1.2309 -3.1812
  363MOL0     H50073   6.600  11.392   3.338 -1.9422  1.7891  1.4853
  363MOL0     H50074   7.580  10.972   3.688 -2.5863 -0.3598  1.0006
  363MOL0     H50075   7.793  10.906   3.814  1.3428  0.1429  0.6168
  363MOL0     H50076   7.832  10.862   4.298 -1.2727 -1.3473  0.5374
  363MOL0     H50077   7.912  10.763   4.498 -3.8874 -0.0317 -2.1272
  363MOL0     H50078   8.459   9.549   3.904 -1.6599 -0.1059 -0.4192
  363MOL0     H50079   8.289   9.658   3.767  0.3805 -0.6317  0.2009
  363MOL0     H50080   7.948  10.119   4.032 -3.2110  1.1546  0.8394
  363MOL0     H50081   7.769  10.289   3.959 -0.9428  4.5439 -3.6930
  363MOL0     H50082   7.573  10.329   3.881 -0.5637  2.2392  1.1731
  363MOL0     H50083   7.660  10.474   3.835 -1.4934  0.8473  1.3476
  363MOL0     H50084   7.400  10.343   3.729  1.4090 -1.6249  3.2334
  363MOL0     H50085   7.482  10.488   3.647  0.0881 -0.1648 -0.4928
  363MOL0     H50086   7.364  10.453   3.927 -1.1905 -0.2929 -0.2792
  363MOL0     H50087   7.468  10.585   3.885  0.1760 -1.2720  1.8806
  363MOL0     H50088   7.208  10.627   3.855 -1.2429  1.2317 -2.3523
  363MOL0     H50089   7.214  10.524   3.713  2.1875 -3.1389  0.9003
  363MOL0     H50090   7.344  10.893   3.573 -0.0973  1.6129  2.8200
  363MOL0     H50091   7.858  10.185   3.558  0.7503  0.7052  0.1450
  363MOL0     H50092   7.967  10.010   3.490 -0.7065  3.0023  0.7598
  363MOL0     H50093   8.129  10.046   3.559  0.8525 -1.4690 -0.0998
  363MOL0     H50094   8.039   9.895   3.601  0.3921  0.1199  3.1560
  364MOL0     O50095  10.272   1.200   2.756  0.5625  0.1409  0.5299
  364MOL0     C50096  10.385   1.165   2.795 -0.4460 -0.4086  0.2214
  364MOL0     O50097  10.446   1.212   2.909  0.2151 -0.4188  0.2937
  364MOL0     C50098  10.394   1.310   2.993 -0.9053 -0.5021  0.0743
  364MOL0     C50099  10.269   1.381   2.997 -0.0593 -0.3841 -0.6332
  364MOL0     C50100  10.231   1.462   3.104 -0.3085 -0.6826  1.4753
  364MOL0     C50101  10.311   1.474   3.222  0.1499  0.3668 -0.6876
  364MOL0     O50102  10.291   1.570   3.318 -0.3158 -0.4443  0.0539
  364MOL0     C50103  10.232   1.535   3.446  0.5745 -0.3517  0.7746
  364MOL0     C50104  10.330   1.544   3.560  0.7090  0.9269 -0.4656
  364MOL0     C50105  10.287   1.455   3.682  0.0416 -0.5211  0.1566
  364MOL0     C50106  10.364   1.492   3.810  0.7092 -0.6856 -0.0899
  364MOL0     C50107  10.307   1.416   3.933  0.9957 -0.1962 -0.0199
  364MOL0     C50108  10.176   1.482   3.985  1.5484 -0.5344  0.5368
  364MOL0     C50109  10.142   1.414   4.117 -0.1288  0.0103  0.5378
  364MOL0     C50110  10.011   1.463   4.180  0.7467 -0.0606  0.2243
  364MOL0     N50111  10.020   1.593   4.244 -0.1344 -0.0060 -0.1297
  364MOL0     C50112   9.953   1.705   4.210 -0.3739 -1.3159  0.5243
  364MOL0     C50113   9.978   1.801   4.300 -0.7871  0.6744  0.1912
  364MOL0     C50114   9.923   1.939   4.296  0.8762 -0.7092  0.2672
  364MOL0     C50115   9.777   1.940   4.342  0.2970  0.3122 -1.2642
  364MOL0     C50116   9.718   2.073   4.364 -0.7814 -0.4352  0.1285
  364MOL0     C50117   9.572   2.063   4.397  0.3838 -0.4965 -0.4481
  364MOL0     O50118   9.497   2.048   4.274 -0.4911  0.4036 -0.0018
  364MOL0     C50119   9.366   2.019   4.275 -0.3817 -0.4269 -1.3601
  364MOL0     C50120   9.301   1.992   4.152 -0.3518  0.6405  0.1410
  364MOL0     C50121   9.161   1.950   4.146 -0.4197  0.2374  0.0098
  364MOL0     C50122   9.119   1.919   4.003 -0.3076  0.2385 -0.3457
  364MOL0     C50123   9.097   1.920   4.267  1.1227 -0.1466 -0.9499
  364MOL0     C50124   8.964   1.843   4.279 -0.6524  0.2480 -0.0038
  364MOL0     O50125   8.894   1.876   4.392 -0.1799 -0.3446 -0.1788
  364MOL0     C50126   8.796   1.788   4.428  0.4952  0.2513 -0.1004
  364MOL0     C50127   8.797   1.736   4.559 -0.4266 -0.6543  0.0962
  364MOL0     C50128   8.696   1.665   4.605 -0.6221  0.5305 -1.2576
  364MOL0     C50129   8.589   1.627   4.524  0.1200  0.1532 -0.2823
  364MOL0     O50130   8.506   1.527   4.555 -0.1483  0.1765 -0.1658
  364MOL0     C50131   8.411   1.551   4.666 -0.0525 -0.9210 -0.8469
  364MOL0     C50132   8.273   1.497   4.641 -0.1940 -0.0872  0.3045
  364MOL0     C50133   8.153   1.544   4.725  0.1407 -0.1069 -0.9127
  364MOL0     C50134   8.161   1.484   4.868 -0.3023 -0.0094 -0.2197
  364MOL0     C50135   8.056   1.385   4.912 -0.3264  0.1628  0.9543
  364MOL0     C50136   8.069   1.327   5.049 -0.0929 -0.0071 -0.0927
  364MOL0     C50137   8.178   1.223   5.061  0.1043  0.1147  0.5648
  364MOL0     C50138   8.202   1.157   5.195 -0.3374  0.7585 -0.0054
  364MOL0    Cl50139   8.240   1.268   5.323 -0.1743  0.0877  0.3519
  364MOL0     C50140   8.599   1.661   4.395  0.1171  0.8075  0.1134
  364MOL0     C50141   8.697   1.748   4.347  1.0568 -0.0057  0.0478
  364MOL0     O50142   8.930   1.762   4.191 -0.0799 -0.2945  0.5199
  364MOL0     C50143   9.160   1.951   4.386 -0.5691 -0.5035  0.0059
  364MOL0     C50144   9.286   2.003   4.386  0.4616  0.1640 -0.2320
  364MOL0     N50145  10.076   1.752   4.389  1.1134  0.2639  0.0104
  364MOL0     N50146  10.100   1.630   4.345  0.0556  0.7777  0.1024
  364MOL0     C50147  10.426   1.396   3.225 -0.5313  1.2260 -0.1783
  364MOL0     C50148  10.465   1.319   3.112 -0.7886 -0.6074  0.7414
  364MOL0     C50149  10.451   1.052   2.734 -0.7239  0.3273  0.2365
  364MOL0     C50150  10.571   1.000   2.793 -0.7126 -0.4486  0.1187
  364MOL0     C50151  10.628   0.879   2.753 -0.2999  0.2365  0.9517
  364MOL0     C50152  10.581   0.820   2.637 -0.0639 -0.0773 -0.5057
  364MOL0     O50153  10.638   0.703   2.582 -0.0694 -0.4298  0.4475
  364MOL0     C50154  10.740   0.641   2.657 -0.9859 -0.3863 -0.9799
  364MOL0     C50155  10.785   0.503   2.592  0.4254 -0.9912  0.4224
  364MOL0     C50156  10.893   0.520   2.488 -0.4777 -0.4318 -0.0852
  364MOL0     C50157  10.930   0.387   2.414 -0.2784 -0.0020 -0.3505
  364MOL0     C50158  11.056   0.414   2.343 -0.0415 -0.1718 -0.1665
  364MOL0     C50159  11.157   0.456   2.291  0.9497 -0.0031 -0.5652
  364MOL0     C50160  10.471   0.872   2.571  0.3389  0.5726 -0.3160
  364MOL0     C50161  10.394   0.973   2.628 -0.5947 -0.9110  0.2398
  364MOL0     C50162  10.267   0.999   2.554  0.2598  0.5026  0.5262
  364MOL0     H50163  10.204   1.374   2.910 -0.7959  1.7505 -0.3022
  364MOL0     H50164  10.144   1.524   3.087  0.1039 -1.2043 -5.3237
  364MOL0     H50165  10.198   1.432   3.434 -1.0616  0.0704  1.6213
  364MOL0     H50166  10.151   1.604   3.472  0.0845 -1.0472  1.1314
  364MOL0     H50167  10.431   1.514   3.531  0.0501 -0.8602 -1.0034
  364MOL0     H50168  10.323   1.650   3.587 -0.9137  0.5624  0.7679
  364MOL0     H50169  10.181   1.439   3.702  0.1245 -0.4548  0.6899
  364MOL0     H50170  10.327   1.356   3.656  1.0119  0.1452 -0.9489
  364MOL0     H50171  10.472   1.480   3.805  0.9486  1.5230 -1.4261
  364MOL0     H50172  10.352   1.601   3.810  3.4667 -0.3022 -1.5587
  364MOL0     H50173  10.391   1.418   4.003  1.3147  1.0841 -0.4240
  364MOL0     H50174  10.281   1.312   3.912  2.4881 -0.4516 -0.7556
  364MOL0     H50175  10.186   1.591   3.982 -3.9649  0.3000 -2.9165
  364MOL0     H50176  10.096   1.448   3.918 -0.4664  2.4569  1.1777
  364MOL0     H50177  10.229   1.435   4.180  0.1129  6.2601 -1.2538
  364MOL0     H50178  10.127   1.306   4.111  0.2906 -0.4458  4.7251
  364MOL0     H50179   9.934   1.469   4.103 -0.7258  0.7829  1.6952
  364MOL0     H50180   9.987   1.396   4.263 -0.0445  0.7045  0.6175
  364MOL0     H50181   9.888   1.718   4.124 -1.0824  0.8559  1.3270
  364MOL0     H50182   9.923   1.980   4.194  0.3746  1.6590  1.1490
  364MOL0     H50183   9.974   2.008   4.364 -2.3318  0.0401  2.1341
  364MOL0     H50184   9.723   1.889   4.262  3.6483 -5.5553 -0.3508
  364MOL0     H50185   9.770   1.874   4.430 -0.4766 -1.7745 -2.8096
  364MOL0     H50186   9.773   2.136   4.434 -0.3464 -1.9596  1.1835
  364MOL0     H50187   9.728   2.125   4.268 -0.3796 -2.8925 -1.2440
  364MOL0     H50188   9.557   1.977   4.463  1.1633  1.8407  3.0566
  364MOL0     H50189   9.542   2.151   4.455  0.5907  0.3419 -1.5642
  364MOL0     H50190   9.359   1.988   4.060 -3.0264 -2.7755 -1.5995
  364MOL0     H50191   9.144   2.005   3.940  0.0142  0.1535 -0.3385
  364MOL0     H50192   9.014   1.892   3.993 -0.0888 -0.8189 -0.0179
  364MOL0     H50193   9.171   1.829   3.969  0.6550  0.8983 -0.6512
  364MOL0     H50194   8.886   1.750   4.620 -0.2212  0.9549 -0.5169
  364MOL0     H50195   8.701   1.612   4.699 -0.1348 -1.2466 -2.2244
  364MOL0     H50196   8.447   1.514   4.762 -0.4752 -1.4529 -0.8901
  364MOL0     H50197   8.398   1.657   4.689  0.4307 -0.3048 -3.1593
  364MOL0     H50198   8.258   1.528   4.537 -0.7924  3.7494  1.3778
  364MOL0     H50199   8.272   1.387   4.643  1.1778 -0.1214  2.7773
  364MOL0     H50200   8.063   1.502   4.678 -0.5824 -1.8883  1.8136
  364MOL0     H50201   8.155   1.653   4.718 -2.1966 -0.0470 -1.5450
  364MOL0     H50202   8.160   1.569   4.938  2.1372 -0.5780  0.6104
  364MOL0     H50203   8.259   1.438   4.883 -1.6582 -2.8333  0.4786
  364MOL0     H50204   7.961   1.438   4.916 -2.0544 -2.6434  0.2486
  364MOL0     H50205   8.050   1.305   4.837  1.2846 -0.0728  1.0260
  364MOL0     H50206   7.978   1.272   5.071  0.3226 -0.2962  0.9481
  364MOL0     H50207   8.109   1.399   5.121  4.0849 -3.2242  1.2572
  364MOL0     H50208   8.267   1.269   5.015 -2.0233 -1.1467 -5.8926
  364MOL0     H50209   8.148   1.141   4.996 -0.7055  1.7439 -1.2287
  364MOL0     H50210   8.282   1.084   5.176 -3.4942 -3.1992  0.5254
  364MOL0     H50211   8.115   1.096   5.222  1.1138 -0.5364  2.0912
  364MOL0     H50212   8.527   1.624   4.322  0.2965  2.6421 -1.0388
  364MOL0     H50213   8.706   1.765   4.240  0.8132  0.8478  0.1575
  364MOL0     H50214   9.118   1.954   4.486  1.2039  2.7113  0.7786
  364MOL0     H50215   9.325   2.029   4.484  0.8546 -0.9331 -0.0911
  364MOL0     H50216  10.482   1.378   3.317 -0.3577 -0.7878 -0.6260
  364MOL0     H50217  10.549   1.251   3.116  0.4362  0.6243 -1.6998
  364MOL0     H50218  10.623   1.059   2.868 -4.7395 -0.0301  2.9857
  364MOL0     H50219  10.717   0.856   2.810  0.5903  1.6672  0.1964
  364MOL0     H50220  10.834   0.697   2.657 -1.6957  0.8570 -0.0743
  364MOL0     H50221  10.712   0.622   2.761  2.1496 -1.5510 -0.2555
  364MOL0     H50222  10.697   0.457   2.546 -0.6232  2.2434 -1.0486
  364MOL0     H50223  10.820   0.437   2.672 -0.4643  0.2362  1.8767
  364MOL0     H50224  10.865   0.597   2.416  0.2284 -0.3997 -0.3320
  364MOL0     H50225  10.987   0.545   2.539  0.2298 -1.3050 -0.9283
  364MOL0     H50226  10.851   0.345   2.351 -0.6953 -1.9692  1.3633
  364MOL0     H50227  10.953   0.325   2.501  1.5575  2.0123  0.7084
  364MOL0     H50228  11.232   0.509   2.236  0.9091  0.4392 -0.2028
  364MOL0     H50229  10.450   0.814   2.481 -1.1903  2.0792 -0.9832
  364MOL0     H50230  10.278   1.104   2.525 -1.9270  0.9706  1.1981
  364MOL0     H50231  10.249   0.935   2.467  1.4097  0.9412 -0.0475
  364MOL0     H50232  10.178   0.984   2.616 -0.2368 -2.6511 -0.7405
  365MOL0     O50233   0.476   8.392   1.184 -0.3841  0.0519  0.6071
  365MOL0     C50234   0.574   8.465   1.181 -1.7023 -0.6614 -0.4067
  365MOL0     O50235   0.596   8.582   1.256 -1.2592  0.4414 -0.4456
  365MOL0     C50236   0.513   8.594   1.357 -0.2607  0.0430  1.2501
  365MOL0     C50237   0.577   8.566   1.481  0.6172 -0.6481  0.3884
  365MOL0     C50238   0.501   8.590   1.595  0.0806  0.0152 -0.3795
  365MOL0     C50239   0.363   8.635   1.591  0.1482  0.2303 -0.1860
  365MOL0     O50240   0.278   8.658   1.695  0.0356  0.2842  0.4903
  365MOL0     C50241   0.322   8.665   1.835 -0.7722 -0.4664  0.3483
  365MOL0     C50242   0.211   8.685   1.943  0.8368  0.1859  0.2973
  365MOL0     C50243   0.194   8.828   1.990  1.0295 -0.4650 -0.6912
  365MOL0     C50244   0.104   8.825   2.115  0.1113  0.7710  0.5700
  365MOL0     C50245   0.102   8.966   2.184 -0.3722 -0.2467  0.1885
  365MOL0     C50246  -0.017   8.979   2.282 -0.2668  0.0984 -0.6194
  365MOL0     C50247  -0.036   8.871   2.388  0.4840 -0.9998  0.5804
  365MOL0     C50248  -0.123   8.912   2.511 -0.0741 -0.4627 -0.0408
  365MOL0     N50249  -0.139   8.788   2.586  0.4048  0.3490 -0.0114
  365MOL0     C50250  -0.249   8.717   2.567  0.6953  0.1265 -0.7400
  365MOL0     C50251  -0.262   8.657   2.685  0.4828  1.0476 -1.1324
  365MOL0     C50252  -0.386   8.567   2.708 -0.5201 -0.0623  0.0513
  365MOL0     C50253  -0.363   8.430   2.654 -0.6373  0.2930  0.1420
  365MOL0     C50254  -0.491   8.359   2.648 -0.2766 -0.0697  0.1602
  365MOL0     C50255  -0.454   8.207   2.596 -0.5335 -0.1264  0.0999
  365MOL0     O50256  -0.348   8.142   2.671  0.5353  0.1346  0.2188
  365MOL0     C50257  -0.376   8.102   2.797  0.0427  0.2768 -0.5946
  365MOL0     C50258  -0.281   8.054   2.884 -0.0566  0.4883 -0.4748
  365MOL0     C50259  -0.296   8.018   3.020 -0.2134  0.1379  0.1905
  365MOL0     C50260  -0.185   7.983   3.103  0.0083 -0.1254  0.7135
  365MOL0     C50261  -0.421   8.038   3.078 -0.3782 -0.1066  0.2408
  365MOL0     C50262  -0.456   8.004   3.222 -0.4239 -0.1814  0.0929
  365MOL0     O50263  -0.539   8.095   3.281 -0.4028 -0.4652  0.1608
  365MOL0     C50264  -0.610   8.048   3.393  0.1608  0.1132  0.7671
  365MOL0     C50265  -0.562   8.069   3.522  0.0492 -0.7080 -0.3756
  365MOL0     C50266  -0.628   8.020   3.632  0.0251 -0.2720  0.9935
  365MOL0     C50267  -0.740   7.942   3.616  0.7617  0.7259 -0.5230
  365MOL0     O50268  -0.803   7.895   3.731 -0.4826  0.7573  1.0231
  365MOL0     C50269  -0.926   7.824   3.736 -0.9009  0.7902 -0.1046
  365MOL0     C50270  -0.949   7.785   3.881  0.0474  0.0624 -0.4883
  365MOL0     C50271  -0.844   7.713   3.964 -0.4478  0.8018 -0.9658
  365MOL0     C50272  -0.762   7.603   3.889 -0.3775 -0.1348  0.8971
  365MOL0     C50273  -0.654   7.520   3.947 -0.2577 -0.5062 -0.6537
  365MOL0     C50274  -0.699   7.431   4.065  0.1948 -0.3609 -0.4909
  365MOL0     C50275  -0.606   7.316   4.087  0.4321 -0.2982 -0.0577
  365MOL0     C50276  -0.622   7.227   4.212  0.3694 -0.7375 -0.2116
  365MOL0    Cl50277  -0.778   7.150   4.216  0.1177  0.7893  0.3729
  365MOL0     C50278  -0.778   7.909   3.480  0.5359 -0.0518 -0.8481
  365MOL0     C50279  -0.717   7.969   3.369  0.1296  0.2787 -0.5305
  365MOL0     O50280  -0.413   7.900   3.278 -0.8438  0.0014  0.6467
  365MOL0     C50281  -0.528   8.077   2.990  0.0180 -0.8595  0.1829
  365MOL0     C50282  -0.504   8.103   2.854  0.0153  0.7153 -0.8192
  365MOL0     N50283  -0.167   8.693   2.779 -0.7140  0.8056  0.4142
  365MOL0     N50284  -0.081   8.759   2.712  0.5376 -0.0037  0.9253
  365MOL0     C50285   0.310   8.669   1.470 -0.2834  0.1031 -0.3839
  365MOL0     C50286   0.382   8.646   1.352 -1.0443  0.9978  0.0084
  365MOL0     C50287   0.683   8.437   1.080  1.6904  0.8493  0.2683
  365MOL0     C50288   0.795   8.526   1.081  0.1594  0.0232  0.9836
  365MOL0     C50289   0.904   8.509   0.992 -0.9605  0.1952 -0.0864
  365MOL0     C50290   0.900   8.414   0.895 -0.8654  1.5438  0.0567
  365MOL0     O50291   0.977   8.396   0.793 -0.1833 -0.1083 -0.0814
  365MOL0     C50292   1.110   8.442   0.798  0.2025  0.3035 -0.9830
  365MOL0     C50293   1.197   8.362   0.883 -0.0226 -0.3564  0.9201
  365MOL0     C50294   1.254   8.230   0.833  0.3808  0.2119  0.0669
  365MOL0     C50295   1.365   8.237   0.721  0.0743 -0.2585 -0.9740
  365MOL0     C50296   1.443   8.115   0.714 -0.6019 -0.0119  0.0017
  365MOL0     C50297   1.525   8.028   0.699  0.7319  0.3934  0.2825
  365MOL0     C50298   0.792   8.335   0.894  0.0381 -0.1971 -0.0385
  365MOL0     C50299   0.686   8.342   0.980 -0.0155 -0.3915 -0.3482
  365MOL0     C50300   0.577   8.247   0.962 -0.6578 -0.9686 -0.5460
  365MOL0     H50301   0.675   8.520   1.479  1.0913  0.3429 -0.9416
  365MOL0     H50302   0.551   8.568   1.688  1.9286 -0.8393 -1.5295
  365MOL0     H50303   0.392   8.749   1.835 -0.9937 -0.2802  0.1615
  365MOL0     H50304   0.399   8.590   1.858  0.7670  0.1721 -2.3188
  365MOL0     H50305   0.113   8.651   1.909  0.8842 -1.1872  1.4584
  365MOL0     H50306   0.242   8.614   2.020  0.7067 -0.4812 -0.2643
  365MOL0     H50307   0.293   8.872   2.002  1.7353 -2.2961  0.8591
  365MOL0     H50308   0.141   8.887   1.915 -1.0227  0.9008  1.6637
  365MOL0     H50309  -0.001   8.804   2.095  0.0402  2.1554 -0.6914
  365MOL0     H50310   0.144   8.751   2.185  0.2375 -0.8221 -1.1085
  365MOL0     H50311   0.100   9.046   2.110  1.2948 -0.4783 -0.1273
  365MOL0     H50312   0.193   8.981   2.242 -2.0994  1.2109  2.7758
  365MOL0     H50313  -0.027   9.070   2.343 -0.8962  1.1857 -2.2592
  365MOL0     H50314  -0.110   8.983   2.225 -0.0331 -1.4030 -1.1459
  365MOL0     H50315   0.061   8.824   2.408  0.4726 -2.5411 -2.3190
  365MOL0     H50316  -0.091   8.792   2.335  1.0616 -0.6099 -0.6530
  365MOL0     H50317  -0.069   8.975   2.582  0.8573 -0.7580 -0.4576
  365MOL0     H50318  -0.214   8.961   2.477  0.6144  1.3124  0.5268
  365MOL0     H50319  -0.313   8.701   2.481 -1.0537 -0.0729  0.5363
  365MOL0     H50320  -0.470   8.616   2.656  0.3884 -0.5059 -1.9383
  365MOL0     H50321  -0.398   8.567   2.816 -1.7097 -0.0637 -0.0694
  365MOL0     H50322  -0.320   8.440   2.554  0.0121  1.1805  0.4946
  365MOL0     H50323  -0.292   8.383   2.722  1.0382  0.7240 -1.2317
  365MOL0     H50324  -0.543   8.362   2.744 -1.6261 -0.4021 -0.5472
  365MOL0     H50325  -0.550   8.413   2.574 -2.1937  0.3807  1.9179
  365MOL0     H50326  -0.544   8.144   2.594  0.5119 -1.7926  1.6475
  365MOL0     H50327  -0.432   8.216   2.489  1.1768  0.7736  0.5012
  365MOL0     H50328  -0.180   8.046   2.843  1.1791  0.0757  2.4532
  365MOL0     H50329  -0.173   7.875   3.095  1.9475  0.0968  0.0525
  365MOL0     H50330  -0.190   8.004   3.211 -1.5383  0.2187  0.5941
  365MOL0     H50331  -0.101   8.045   3.071 -0.9890  0.9842  0.1467
  365MOL0     H50332  -0.467   8.120   3.529 -0.4422  0.4068 -1.3400
  365MOL0     H50333  -0.581   8.034   3.728 -0.9635  0.8253  1.3425
  365MOL0     H50334  -1.011   7.886   3.705 -1.6169 -1.1339 -2.2897
  365MOL0     H50335  -0.935   7.734   3.674  1.4802 -0.8538  1.7389
  365MOL0     H50336  -0.963   7.881   3.931  3.2494 -0.1386  1.0213
  365MOL0     H50337  -1.044   7.730   3.881  0.2764 -0.3523  0.8180
  365MOL0     H50338  -0.894   7.654   4.041 -2.0278 -2.9278 -4.4845
  365MOL0     H50339  -0.774   7.787   4.005  0.9610 -1.3683  0.7976
  365MOL0     H50340  -0.710   7.652   3.805 -0.9047  0.6380  1.0090
  365MOL0     H50341  -0.836   7.534   3.848  0.5236 -0.6600  0.1013
  365MOL0     H50342  -0.610   7.471   3.860  1.7289  2.3747 -1.4484
  365MOL0     H50343  -0.571   7.582   3.982  0.0044 -0.7755 -0.7929
  365MOL0     H50344  -0.803   7.407   4.043 -0.2498  2.8865 -2.5345
  365MOL0     H50345  -0.703   7.491   4.157 -3.5604 -0.9380 -0.0982
  365MOL0     H50346  -0.503   7.354   4.092  0.3765 -0.0875 -0.4250
  365MOL0     H50347  -0.628   7.260   3.996 -0.1415  0.0488 -0.1346
  365MOL0     H50348  -0.617   7.286   4.304  2.9354  2.2779 -2.0858
  365MOL0     H50349  -0.542   7.153   4.210  3.1565  2.0488 -2.4595
  365MOL0     H50350  -0.852   7.834   3.457 -1.8716  2.7019 -2.8027
  365MOL0     H50351  -0.736   7.938   3.267 -0.5695  1.8039 -0.8876
  365MOL0     H50352  -0.625   8.101   3.032  0.4561  1.8930 -0.1729
  365MOL0     H50353  -0.599   8.120   2.804 -1.7940 -1.6392  1.4922
  365MOL0     H50354   0.211   8.714   1.471 -1.3610 -2.1592 -0.1401
  365MOL0     H50355   0.342   8.680   1.257  1.3801 -1.4947 -2.0461
  365MOL0     H50356   0.804   8.608   1.152 -3.8468  1.2263  0.3226
  365MOL0     H50357   0.988   8.577   1.003  1.6089 -2.7801  0.3954
  365MOL0     H50358   1.128   8.431   0.691  0.0621 -1.3168 -0.8580
  365MOL0     H50359   1.124   8.547   0.826 -1.0707  0.9077 -2.4728
  365MOL0     H50360   1.155   8.352   0.984  2.1840  1.0311  2.0595
  365MOL0     H50361   1.290   8.417   0.902  1.2467 -2.1256  0.1640
  365MOL0     H50362   1.301   8.186   0.921 -0.2215  0.5157  0.5464
  365MOL0     H50363   1.170   8.165   0.804  0.3669  0.6351 -0.8882
  365MOL0     H50364   1.434   8.318   0.747 -1.0654  0.7549 -0.9965
  365MOL0     H50365   1.327   8.267   0.623 -1.0296  0.7459 -0.2726
  365MOL0     H50366   1.597   7.950   0.695  0.9524  0.5033  1.5905
  365MOL0     H50367   0.784   8.259   0.817 -1.4528  1.5874 -1.7773
  365MOL0     H50368   0.597   8.160   0.899  1.0182  0.4843 -2.1708
  365MOL0     H50369   0.549   8.203   1.058 -0.2301  3.0333  1.6414
  365MOL0     H50370   0.492   8.305   0.922 -1.2274 -1.0922  0.4566
  366MOL0     O50371   9.218  10.633   7.948  0.0983 -0.9139 -0.7719
  366MOL0     C50372   9.224  10.523   7.898 -0.4719 -0.7789  0.0371
  366MOL0     O50373   9.217  10.400   7.960  0.2465 -0.1416  0.0784
  366MOL0     C50374   9.219  10.400   8.102  0.6518 -0.3789  0.5044
  366MOL0     C50375   9.102  10.396   8.169  0.1585 -0.6368 -0.2057
  366MOL0     C50376   9.097  10.375   8.307  1.0059  0.3249 -0.7096
  366MOL0     C50377   9.219  10.358   8.374 -0.3757 -0.5934 -0.4927
  366MOL0     O50378   9.226  10.318   8.508  0.7734 -0.1547  0.3546
  366MOL0     C50379   9.133  10.227   8.559 -0.3322  0.4940  0.6172
  366MOL0     C50380   9.119  10.091   8.491 -0.3279 -0.6596  0.2250
  366MOL0     C50381   9.241  10.005   8.539  1.2041  0.7831 -0.4997
  366MOL0     C50382   9.378  10.053   8.497  0.8068  0.6265  0.2212
  366MOL0     C50383   9.478   9.932   8.522 -0.2343  0.2960  0.1970
  366MOL0     C50384   9.623   9.985   8.536 -0.7342 -0.0958  0.1782
  366MOL0     C50385   9.659  10.080   8.425  0.5223  0.5136  0.1029
  366MOL0     C50386   9.669  10.015   8.291 -0.1621  0.3443  0.0239
  366MOL0     N50387   9.770   9.911   8.291 -1.3433  0.0011 -0.4916
  366MOL0     C50388   9.915   9.923   8.303 -0.3963  0.3650  0.3390
  366MOL0     C50389   9.969   9.802   8.319 -0.0603  0.7540 -0.9785
  366MOL0     C50390  10.119   9.770   8.331  0.3932 -0.3949  0.6782
  366MOL0     C50391  10.170   9.716   8.199 -0.1029 -0.3466  0.4218
  366MOL0     C50392  10.163   9.813   8.081 -0.7636 -0.9311  0.8233
  366MOL0     C50393  10.235   9.753   7.956 -0.3345  0.1650 -0.4293
  366MOL0     O50394  10.374   9.764   7.981 -0.1849 -0.5383  0.3711
  366MOL0     C50395  10.457   9.654   7.961 -0.3457  0.2801 -0.3936
  366MOL0     C50396  10.432   9.531   8.029 -0.9992 -0.4217 -0.2548
  366MOL0     C50397  10.516   9.418   7.998 -0.0078 -0.3032  0.3095
  366MOL0     C50398  10.489   9.275   8.068 -0.2816  0.4917  0.1772
  366MOL0     C50399  10.624   9.432   7.908  0.9062  0.2770 -0.2326
  366MOL0     C50400  10.707   9.328   7.869 -0.7940 -0.0798 -0.6779
  366MOL0     O50401  10.841   9.358   7.867 -0.3232 -0.3056  0.3018
  366MOL0     C50402  10.947   9.282   7.827 -0.0678  0.2538 -0.4674
  366MOL0     C50403  10.946   9.154   7.773 -0.7916  0.1982 -0.3945
  366MOL0     C50404  11.067   9.087   7.752  0.7012 -0.6797  1.0915
  366MOL0     C50405  11.187   9.137   7.785 -0.4612  0.3150 -1.2436
  366MOL0     O50406  11.317   9.082   7.760 -0.4981 -1.2200  0.2054
  366MOL0     C50407  11.324   8.967   7.669  0.0769  0.0024 -0.5883
  366MOL0     C50408  11.466   8.915   7.680  0.1424  1.0671 -0.5276
  366MOL0     C50409  11.485   8.820   7.562  0.0491  0.0508  0.0788
  366MOL0     C50410  11.621   8.741   7.580  0.6462 -0.5579  0.1971
  366MOL0     C50411  11.668   8.697   7.449 -0.8811  0.3258 -1.2596
  366MOL0     C50412  11.753   8.798   7.389 -0.3686  0.7073  1.1451
  366MOL0     C50413  11.807   8.734   7.257  0.5254  0.1310 -0.0528
  366MOL0     C50414  11.911   8.825   7.188 -0.0802 -0.4482 -0.3101
  366MOL0    Cl50415  12.066   8.780   7.282  0.2777  0.2857  0.0293
  366MOL0     C50416  11.186   9.263   7.842  1.3451 -0.3308 -0.2886
  366MOL0     C50417  11.063   9.333   7.864 -0.5117  1.0665 -1.3724
  366MOL0     O50418  10.668   9.207   7.872  0.1869 -0.7016 -0.0161
  366MOL0     C50419  10.645   9.560   7.847 -0.1128  0.2247 -0.0728
  366MOL0     C50420  10.558   9.670   7.869 -0.8147 -0.1123  0.4378
  366MOL0     N50421   9.861   9.713   8.315  0.0653  0.0685  0.2475
  366MOL0     N50422   9.746   9.775   8.290 -0.1285  0.2466  0.4702
  366MOL0     C50423   9.336  10.353   8.302 -1.4121 -0.0897 -0.3678
  366MOL0     C50424   9.344  10.375   8.161  0.3639 -0.5633 -0.3646
  366MOL0     C50425   9.261  10.512   7.755 -0.3795  0.4425 -0.3042
  366MOL0     C50426   9.290  10.382   7.712 -0.1122 -1.2379 -0.0879
  366MOL0     C50427   9.324  10.361   7.580  0.6433 -0.9298 -0.8104
  366MOL0     C50428   9.320  10.468   7.489 -0.3003  0.3197  1.4145
  366MOL0     O50429   9.332  10.425   7.357  0.4565 -0.0037 -0.4166
  366MOL0     C50430   9.295  10.512   7.244 -0.0688 -0.1713  1.1038
  366MOL0     C50431   9.342  10.457   7.102  0.0244 -0.4287  0.5941
  366MOL0     C50432   9.289  10.322   7.063  0.4530 -0.4311  0.2871
  366MOL0     C50433   9.343  10.239   6.938 -0.1546 -0.0511  0.4122
  366MOL0     C50434   9.294  10.102   6.929 -0.7318 -0.1253 -0.3880
  366MOL0     C50435   9.252   9.987   6.926 -0.4667 -0.2833  0.5210
  366MOL0     C50436   9.273  10.591   7.528 -0.1253  0.7476  0.4161
  366MOL0     C50437   9.255  10.618   7.668  0.2617  1.2273  0.5174
  366MOL0     C50438   9.212  10.764   7.712 -0.2781  0.1031  0.1333
  366MOL0     H50439   9.007  10.412   8.118 -0.6598 -0.8265  1.1771
  366MOL0     H50440   9.001  10.363   8.355  0.1950  0.6130 -2.2057
  366MOL0     H50441   9.036  10.276   8.568 -0.3862  0.1169  2.3050
  366MOL0     H50442   9.149  10.219   8.667  0.4967  0.9373  0.5335
  366MOL0     H50443   9.026  10.040   8.520 -0.7278  0.5785  1.2155
  366MOL0     H50444   9.120  10.095   8.382  3.0014  1.3587  0.1932
  366MOL0     H50445   9.235   9.997   8.648 -0.5742 -0.0262 -0.6150
  366MOL0     H50446   9.241   9.901   8.507  1.3002  0.9937 -1.1921
  366MOL0     H50447   9.363  10.078   8.391 -0.5192  2.4331  0.7884
  366MOL0     H50448   9.408  10.145   8.547  2.7042  1.4615 -2.2430
  366MOL0     H50449   9.469   9.860   8.440 -0.3501  0.1872  0.3056
  366MOL0     H50450   9.454   9.889   8.620 -0.6301  2.8920  1.3426
  366MOL0     H50451   9.635  10.045   8.627  0.0365  1.8186 -1.1045
  366MOL0     H50452   9.704   9.912   8.546 -1.6334 -1.3483 -1.1815
  366MOL0     H50453   9.759  10.121   8.443  1.3939 -1.1612 -0.6704
  366MOL0     H50454   9.589  10.164   8.417 -1.5527 -0.9886  1.5475
  366MOL0     H50455   9.579   9.962   8.258 -0.4655  0.5336  0.5362
  366MOL0     H50456   9.696  10.090   8.216  0.0213 -0.5759 -0.8542
  366MOL0     H50457   9.977  10.011   8.290 -0.6492  0.2078 -2.7393
  366MOL0     H50458  10.141   9.691   8.403  1.9372 -0.8724 -0.2850
  366MOL0     H50459  10.176   9.861   8.354  0.1850  0.1949 -1.0198
  366MOL0     H50460  10.277   9.702   8.216  0.1012  2.9378  2.9298
  366MOL0     H50461  10.117   9.624   8.174 -2.7268  0.5322  2.3475
  366MOL0     H50462  10.062   9.844   8.052 -0.3694 -0.2043  0.1766
  366MOL0     H50463  10.203   9.908   8.116 -3.4770  0.2482  0.9924
  366MOL0     H50464  10.200   9.655   7.920  0.4440  0.9452 -3.6278
  366MOL0     H50465  10.224   9.820   7.870  1.3820  3.6094  1.8384
  366MOL0     H50466  10.345   9.527   8.094 -0.1006  0.1330  1.0204
  366MOL0     H50467  10.436   9.282   8.163  2.8392  0.0687  2.0919
  366MOL0     H50468  10.583   9.223   8.088 -1.0998 -0.4179  1.8060
  366MOL0     H50469  10.436   9.208   8.001  0.6197 -1.5232  1.3936
  366MOL0     H50470  10.854   9.096   7.766  0.5189 -1.9861 -0.6200
  366MOL0     H50471  11.063   8.988   7.710 -0.0123 -0.3660  0.3938
  366MOL0     H50472  11.254   8.887   7.695 -0.1021  0.3006 -0.1321
  366MOL0     H50473  11.303   8.991   7.565 -0.3792  0.3486 -0.4228
  366MOL0     H50474  11.540   8.996   7.676  1.6313 -0.2294 -0.5840
  366MOL0     H50475  11.476   8.854   7.770 -0.7677  0.0410 -1.0976
  366MOL0     H50476  11.484   8.872   7.466 -0.9748 -0.9675 -0.4931
  366MOL0     H50477  11.397   8.755   7.561  0.0188 -0.0340  2.3619
  366MOL0     H50478  11.597   8.651   7.639 -2.1708 -0.0781 -0.0901
  366MOL0     H50479  11.695   8.808   7.623 -0.4028 -0.2573  1.6250
  366MOL0     H50480  11.716   8.601   7.468  0.4799  1.3691  1.0926
  366MOL0     H50481  11.580   8.686   7.386 -2.1997  0.2705  0.5263
  366MOL0     H50482  11.835   8.830   7.454  0.5974 -1.8150  1.2450
  366MOL0     H50483  11.702   8.892   7.365  1.9258  1.6864 -0.2047
  366MOL0     H50484  11.727   8.713   7.185 -0.0070 -2.3578  1.1913
  366MOL0     H50485  11.848   8.635   7.279 -0.8724 -0.1470  1.4687
  366MOL0     H50486  11.870   8.927   7.187 -1.8314 -1.1144 -1.2458
  366MOL0     H50487  11.925   8.799   7.082 -2.2965 -3.2710  0.0056
  366MOL0     H50488  11.277   9.313   7.872  1.3166 -2.3219  3.8230
  366MOL0     H50489  11.058   9.435   7.903  1.0354  0.5601  0.3151
  366MOL0     H50490  10.726   9.557   7.774 -0.3174 -1.6254 -0.2809
  366MOL0     H50491  10.564   9.769   7.824  2.0285  0.0600  1.0237
  366MOL0     H50492   9.429  10.346   8.357 -1.5895  0.7178  0.0426
  366MOL0     H50493   9.437  10.395   8.110  2.3675  0.8442  3.3993
  366MOL0     H50494   9.306  10.302   7.784  0.8904  0.5973  1.8433
  366MOL0     H50495   9.334  10.259   7.542 -1.2584 -0.1323 -3.8502
  366MOL0     H50496   9.186  10.514   7.237 -0.0350  1.1932  0.7966
  366MOL0     H50497   9.335  10.612   7.259 -0.9949  0.3216  0.3725
  366MOL0     H50498   9.452  10.458   7.098  0.1102  2.3565  1.4132
  366MOL0     H50499   9.297  10.524   7.028 -0.1513 -1.0820  0.1057
  366MOL0     H50500   9.303  10.255   7.148  1.8377 -0.4084  0.1142
  366MOL0     H50501   9.184  10.348   7.048  0.3600 -0.9250  0.0471
  366MOL0     H50502   9.452  10.230   6.948 -0.4096 -2.4593  1.8515
  366MOL0     H50503   9.320  10.294   6.846  1.4572  0.5020  0.3077
  366MOL0     H50504   9.204   9.891   6.916  2.4055 -1.7444 -0.5770
  366MOL0     H50505   9.234  10.658   7.453 -3.6008 -0.0933  1.2525
  366MOL0     H50506   9.220  10.828   7.623 -1.5848  1.0622  0.6748
  366MOL0     H50507   9.107  10.770   7.741 -1.4882  0.4359 -3.7197
  366MOL0     H50508   9.275  10.801   7.793 -0.1387 -1.5598  0.8229
  367MOL0     O50509   7.485   3.355   2.341  0.4693  0.1525  1.0329
  367MOL0     C50510   7.504   3.268   2.254 -1.2085 -1.1761 -1.1047
  367MOL0     O50511   7.422   3.169   2.233 -0.2908  0.3978  0.1001
  367MOL0     C50512   7.311   3.168   2.317 -0.0418 -1.1631  1.0904
  367MOL0     C50513   7.186   3.211   2.272 -0.0035 -0.1697  0.2640
  367MOL0     C50514   7.074   3.200   2.353  0.0681 -0.2430 -0.0417
  367MOL0     C50515   7.077   3.157   2.484  0.7776 -0.4043  0.0553
  367MOL0     O50516   6.961   3.140   2.554  0.2176  0.2285  0.9066
  367MOL0     C50517   6.952   3.047   2.662 -1.3505  0.1788 -0.6868
  367MOL0     C50518   6.815   3.059   2.716 -0.4032 -0.7756  0.7657
  367MOL0     C50519   6.803   3.179   2.813 -0.1123  0.3053  0.2064
  367MOL0     C50520   6.662   3.168   2.869 -0.9095  0.1589 -0.4799
  367MOL0     C50521   6.632   3.310   2.935  0.4650 -0.2271 -0.0011
  367MOL0     C50522   6.721   3.350   3.051  0.1031 -0.9328  0.5151
  367MOL0     C50523   6.706   3.497   3.104 -0.4562 -0.6927  0.6882
  367MOL0     C50524   6.772   3.583   2.986  0.0381  1.2186  0.1931
  367MOL0     N50525   6.772   3.714   3.025  0.4150 -0.2283 -0.3296
  367MOL0     C50526   6.677   3.794   3.078  0.8094 -1.3295  0.0119
  367MOL0     C50527   6.715   3.926   3.061  0.2361  0.3330 -0.2801
  367MOL0     C50528   6.645   4.051   3.118 -0.2320  0.3963 -0.0546
  367MOL0     C50529   6.751   4.157   3.162  0.1507  0.4286 -0.1678
  367MOL0     C50530   6.664   4.276   3.220 -0.2909 -0.1605 -0.0293
  367MOL0     C50531   6.570   4.248   3.337 -0.3362  0.4047 -0.1942
  367MOL0     O50532   6.504   4.378   3.359  0.6690 -1.1565  0.4926
  367MOL0     C50533   6.553   4.479   3.440 -0.2918 -0.7443  0.3142
  367MOL0     C50534   6.669   4.488   3.515 -0.2279 -0.4102 -0.2955
  367MOL0     C50535   6.675   4.605   3.603 -0.1940  0.0986  0.2850
  367MOL0     C50536   6.786   4.610   3.683  0.3302 -0.3287 -0.3891
  367MOL0     C50537   6.583   4.711   3.604  0.7400 -0.5909  0.9700
  367MOL0     C50538   6.590   4.833   3.685  0.6540  0.1213  0.7611
  367MOL0     O50539   6.665   4.841   3.789 -0.3232  0.4732  0.4206
  367MOL0     C50540   6.677   4.940   3.880 -0.6259  0.4013 -0.2191
  367MOL0     C50541   6.602   5.048   3.906 -0.2578 -0.8249 -0.0099
  367MOL0     C50542   6.635   5.135   4.011 -0.1443 -0.0254  0.0635
  367MOL0     C50543   6.748   5.104   4.094 -0.1377 -0.9421 -0.3448
  367MOL0     O50544   6.792   5.190   4.193  0.1608 -0.1550 -0.2193
  367MOL0     C50545   6.739   5.324   4.205 -0.2598 -0.6005 -0.4563
  367MOL0     C50546   6.836   5.402   4.303  0.7992 -0.0360  0.2788
  367MOL0     C50547   6.776   5.536   4.342  0.5269 -0.4547  0.3954
  367MOL0     C50548   6.853   5.593   4.460 -1.3197  0.3569 -0.0944
  367MOL0     C50549   6.797   5.726   4.499 -0.3697  0.9851 -0.1906
  367MOL0     C50550   6.821   5.783   4.637 -0.3245  0.7867 -0.1095
  367MOL0     C50551   6.960   5.754   4.713 -0.6544 -0.6129  0.3015
  367MOL0     C50552   6.966   5.799   4.857 -0.1869 -0.1799  0.1154
  367MOL0    Cl50553   6.931   5.975   4.879 -0.5161 -0.1651 -0.3606
  367MOL0     C50554   6.823   4.979   4.072  0.4595 -0.2814  0.1747
  367MOL0     C50555   6.789   4.907   3.958  0.0883 -0.6039 -0.2291
  367MOL0     O50556   6.519   4.922   3.648 -0.8406 -0.8733 -0.3923
  367MOL0     C50557   6.481   4.701   3.509  0.4151 -0.1135  0.5353
  367MOL0     C50558   6.469   4.590   3.426 -0.5062  1.6959 -1.3888
  367MOL0     N50559   6.842   3.920   3.013 -0.6443 -0.1543  0.3296
  367MOL0     N50560   6.869   3.801   2.983 -0.2720 -0.0291  0.2845
  367MOL0     C50561   7.206   3.118   2.533 -0.7239 -0.3431 -0.1767
  367MOL0     C50562   7.319   3.124   2.452 -0.0195 -0.3841  0.0825
  367MOL0     C50563   7.632   3.295   2.183  0.7467 -0.4954  0.4655
  367MOL0     C50564   7.744   3.359   2.245  0.2042  0.3796 -1.1180
  367MOL0     C50565   7.860   3.383   2.177 -0.3444 -0.3215  0.3874
  367MOL0     C50566   7.870   3.361   2.044  0.9657 -0.2644  0.0093
  367MOL0     O50567   7.985   3.413   1.985 -0.9445  0.7342 -0.3569
  367MOL0     C50568   8.041   3.332   1.882  0.2493  0.6452  0.1516
  367MOL0     C50569   8.097   3.199   1.940  0.4121  0.8179 -0.1839
  367MOL0     C50570   8.184   3.199   2.073  0.4158 -0.2691 -0.6515
  367MOL0     C50571   8.288   3.317   2.061 -0.2326 -0.1434 -0.1341
  367MOL0     C50572   8.389   3.284   1.958 -1.3143 -0.9086 -0.6095
  367MOL0     C50573   8.476   3.239   1.893 -1.0161 -0.2021  0.3576
  367MOL0     C50574   7.763   3.291   1.982 -0.1237  1.1359  0.7580
  367MOL0     C50575   7.647   3.258   2.046  0.0888 -0.0912 -0.7973
  367MOL0     C50576   7.543   3.194   1.971  0.2507  0.2497  0.1298
  367MOL0     H50577   7.179   3.254   2.172 -1.5754 -3.2149 -1.0616
  367MOL0     H50578   6.976   3.225   2.312  0.0481  0.5547  0.4745
  367MOL0     H50579   7.026   3.070   2.739  0.2711 -2.3534 -1.3493
  367MOL0     H50580   6.964   2.942   2.632 -1.9063 -0.4592  1.2148
  367MOL0     H50581   6.748   3.068   2.631  1.6674  1.3982 -0.7630
  367MOL0     H50582   6.789   2.966   2.769  0.6622 -1.3491  0.3148
  367MOL0     H50583   6.876   3.179   2.894  1.4252  1.9178 -1.1099
  367MOL0     H50584   6.813   3.273   2.759 -2.7410  1.5436  1.6853
  367MOL0     H50585   6.592   3.131   2.793 -1.5427  2.5356 -1.1230
  367MOL0     H50586   6.657   3.101   2.955  0.6846 -0.7925 -1.0707
  367MOL0     H50587   6.525   3.306   2.953  0.0625 -0.6017 -2.1700
  367MOL0     H50588   6.639   3.385   2.855 -0.6255  0.6987  0.7446
  367MOL0     H50589   6.699   3.286   3.137  2.5973 -1.2570  0.9847
  367MOL0     H50590   6.826   3.326   3.033  0.2412  0.5520 -0.8926
  367MOL0     H50591   6.761   3.504   3.198 -1.5071  0.1538  1.2669
  367MOL0     H50592   6.598   3.509   3.111 -0.5739  1.7550 -2.8522
  367MOL0     H50593   6.874   3.559   2.959  0.4754  0.2865  2.4166
  367MOL0     H50594   6.707   3.588   2.899 -0.7776  0.8628  0.7661
  367MOL0     H50595   6.588   3.758   3.129  1.5164 -3.5437 -0.2073
  367MOL0     H50596   6.585   4.018   3.203  1.7779  1.3899  1.8479
  367MOL0     H50597   6.586   4.090   3.034 -2.0571 -1.7856  0.1138
  367MOL0     H50598   6.830   4.123   3.229  0.8571  2.0956 -0.1062
  367MOL0     H50599   6.806   4.192   3.074  2.9362  0.5107  1.4803
  367MOL0     H50600   6.731   4.355   3.255 -3.9176  2.3644  1.8027
  367MOL0     H50601   6.605   4.307   3.133 -0.1824 -1.0990 -0.4497
  367MOL0     H50602   6.499   4.165   3.329  2.3800 -1.8965 -2.5366
  367MOL0     H50603   6.639   4.232   3.421 -0.3339  1.3184 -0.0156
  367MOL0     H50604   6.745   4.413   3.502  0.3542  0.4046 -1.7993
  367MOL0     H50605   6.855   4.531   3.653 -0.7762 -1.1404 -0.8394
  367MOL0     H50606   6.753   4.591   3.785  3.1863  2.8868  1.3810
  367MOL0     H50607   6.837   4.706   3.669  0.2554 -0.6114 -3.2916
  367MOL0     H50608   6.510   5.068   3.852  0.4341  1.5743 -0.4440
  367MOL0     H50609   6.585   5.230   4.028  1.6724  2.1051 -4.6681
  367MOL0     H50610   6.736   5.360   4.102  1.3669  0.6518 -0.1249
  367MOL0     H50611   6.639   5.334   4.248 -1.0065 -0.7945 -2.0910
  367MOL0     H50612   6.816   5.350   4.397  0.2965 -0.5230 -0.0893
  367MOL0     H50613   6.938   5.411   4.267  0.6731  0.2604 -0.0132
  367MOL0     H50614   6.669   5.526   4.360 -0.0209  0.3633 -2.0274
  367MOL0     H50615   6.792   5.608   4.262  0.2667  1.1061  1.6827
  367MOL0     H50616   6.955   5.611   4.425 -1.1833  2.2166  1.1071
  367MOL0     H50617   6.849   5.520   4.542 -1.3226  2.3225  1.7486
  367MOL0     H50618   6.840   5.806   4.437 -0.3511 -0.7117 -2.5126
  367MOL0     H50619   6.690   5.718   4.479 -0.2137  1.8680 -1.5683
  367MOL0     H50620   6.737   5.738   4.691  1.6115 -2.3177  0.5735
  367MOL0     H50621   6.803   5.890   4.624 -0.2991  0.6390 -1.5227
  367MOL0     H50622   7.039   5.799   4.653  0.4024 -3.4299 -0.5390
  367MOL0     H50623   6.970   5.646   4.705  0.0834 -0.4350 -1.7622
  367MOL0     H50624   7.067   5.780   4.893  0.4130  1.1298 -0.7793
  367MOL0     H50625   6.894   5.744   4.919 -0.5241  1.9152  1.7451
  367MOL0     H50626   6.907   4.943   4.130  2.6131  2.5705 -0.9317
  367MOL0     H50627   6.854   4.822   3.940 -1.1063 -1.1819 -2.1511
  367MOL0     H50628   6.416   4.785   3.484  0.9614  0.9569  2.4458
  367MOL0     H50629   6.399   4.590   3.343  0.2629  0.6370 -2.0628
  367MOL0     H50630   7.221   3.072   2.630  1.7576  1.9670  0.6716
  367MOL0     H50631   7.414   3.094   2.496  0.7889  1.7657 -0.0575
  367MOL0     H50632   7.739   3.391   2.348 -1.0883  0.3765 -1.1566
  367MOL0     H50633   7.946   3.436   2.216  0.1253  1.1174 -2.3454
  367MOL0     H50634   7.974   3.320   1.796  0.0378  1.0808  0.2531
  367MOL0     H50635   8.126   3.380   1.831 -1.3655  2.3414 -1.1041
  367MOL0     H50636   8.164   3.162   1.862 -0.3350  0.4623 -0.6643
  367MOL0     H50637   8.010   3.134   1.952 -0.3766  2.0764  1.2124
  367MOL0     H50638   8.122   3.230   2.158  1.6060  0.2271  0.0627
  367MOL0     H50639   8.234   3.104   2.094 -0.9118 -1.7983 -3.8256
  367MOL0     H50640   8.333   3.322   2.161 -1.9221  0.0264  0.6634
  367MOL0     H50641   8.234   3.410   2.038  1.2903  0.5065 -1.2137
  367MOL0     H50642   8.557   3.203   1.832  0.5163  1.0851  1.5403
  367MOL0     H50643   7.773   3.267   1.877 -2.3325  2.9044  0.0687
  367MOL0     H50644   7.462   3.266   1.952  1.1303  0.8793 -1.4804
  367MOL0     H50645   7.571   3.154   1.873  0.0550  0.8517 -0.1799
  367MOL0     H50646   7.504   3.103   2.017 -3.1862  0.1191 -2.5890
  368MOL0     O50647  10.754  10.880   6.316  0.1596 -0.2304 -0.3538
  368MOL0     C50648  10.637  10.885   6.296  0.6841 -0.6046 -0.0114
  368MOL0     O50649  10.566  10.820   6.191  0.1998  0.1758  0.2250
  368MOL0     C50650  10.642  10.730   6.111 -0.0578  0.4621  0.6497
  368MOL0     C50651  10.758  10.756   6.036 -0.5427 -0.0185  0.0449
  368MOL0     C50652  10.816  10.674   5.939 -0.0387  0.2934 -0.2807
  368MOL0     C50653  10.755  10.545   5.917  0.2874 -0.8537  0.5516
  368MOL0     O50654  10.808  10.456   5.829  0.0753  0.4674 -1.0888
  368MOL0     C50655  10.721  10.419   5.725  0.0700  0.3419  0.6481
  368MOL0     C50656  10.795  10.307   5.647  0.5892 -0.5720  0.0008
  368MOL0     C50657  10.909  10.355   5.566  0.7434 -0.0213  0.3426
  368MOL0     C50658  10.995  10.233   5.491  0.7806 -0.4500 -0.1965
  368MOL0     C50659  11.127  10.299   5.431  0.0757  0.4319 -0.6040
  368MOL0     C50660  11.098  10.406   5.319 -0.7769 -1.0174 -0.6011
  368MOL0     C50661  11.080  10.358   5.178  0.1402 -0.9264 -0.4013
  368MOL0     C50662  11.186  10.261   5.121  0.0660 -0.8324 -0.1357
  368MOL0     N50663  11.317  10.327   5.109  0.0057 -0.0746  0.6112
  368MOL0     C50664  11.351  10.459   5.088 -0.5815  0.2898  0.3593
  368MOL0     C50665  11.480  10.465   5.037  0.1148  0.7123 -0.3647
  368MOL0     C50666  11.554  10.590   4.990 -0.2550  0.0765 -0.1758
  368MOL0     C50667  11.470  10.680   4.906  0.5538  0.8230  0.2564
  368MOL0     C50668  11.451  10.615   4.771  0.2739  0.1015  0.3156
  368MOL0     C50669  11.396  10.713   4.668 -0.3995  0.7611 -0.5026
  368MOL0     O50670  11.264  10.748   4.703  0.2081 -0.1121  0.1017
  368MOL0     C50671  11.186  10.839   4.633 -1.3183  0.5827  0.8365
  368MOL0     C50672  11.052  10.841   4.677 -0.2054  0.4318 -0.4302
  368MOL0     C50673  10.958  10.912   4.616 -0.4242  0.1935  0.7895
  368MOL0     C50674  10.817  10.904   4.667 -0.1850  0.0535  0.3066
  368MOL0     C50675  11.001  10.988   4.495  0.6274 -0.3947  0.5003
  368MOL0     C50676  10.907  11.082   4.422 -1.0141  0.7025 -1.1187
  368MOL0     O50677  10.795  11.134   4.493  0.0604 -0.0316  0.6862
  368MOL0     C50678  10.737  11.259   4.464  1.0425 -0.8743  0.8801
  368MOL0     C50679  10.688  11.336   4.571 -0.6928  0.3575  0.5239
  368MOL0     C50680  10.615  11.452   4.544  0.4540  0.5368 -0.1206
  368MOL0     C50681  10.585  11.504   4.422  0.3270 -0.5474  0.7855
  368MOL0     O50682  10.507  11.621   4.413 -1.4539  0.1728  1.3422
  368MOL0     C50683  10.514  11.688   4.286  0.0642 -0.0792  0.1165
  368MOL0     C50684  10.438  11.821   4.298 -0.4992 -0.1783 -0.1523
  368MOL0     C50685  10.283  11.798   4.293 -0.0179  0.4857 -0.0388
  368MOL0     C50686  10.205  11.935   4.308 -0.2633 -0.1078 -0.7775
  368MOL0     C50687  10.056  11.941   4.325  1.3321 -0.0780 -0.6963
  368MOL0     C50688  10.003  12.083   4.348 -0.8286  0.3488 -0.0222
  368MOL0     C50689  10.054  12.140   4.480  0.4985  0.9785 -0.2505
  368MOL0     C50690   9.932  12.174   4.562 -0.5325  0.2985 -1.2741
  368MOL0    Cl50691   9.852  12.327   4.512  0.0260  0.2855 -0.0332
  368MOL0     C50692  10.627  11.421   4.314 -0.1084  0.0859  0.1660
  368MOL0     C50693  10.693  11.300   4.339 -0.0391 -0.2480  1.4594
  368MOL0     O50694  10.938  11.098   4.304  0.0394  0.0417  0.4250
  368MOL0     C50695  11.139  10.983   4.444  0.7583  0.0758  0.5142
  368MOL0     C50696  11.230  10.907   4.514  0.0031  0.7605 -0.1394
  368MOL0     N50697  11.518  10.335   5.025  0.4218 -0.1852  0.3346
  368MOL0     N50698  11.422  10.252   5.072 -0.0093 -0.6712  0.6466
  368MOL0     C50699  10.653  10.505   6.005 -0.1173 -0.3808  0.6401
  368MOL0     C50700  10.602  10.593   6.105 -0.6744  0.1600  0.0346
  368MOL0     C50701  10.575  10.983   6.379  0.6386  0.6586  0.3588
  368MOL0     C50702  10.550  11.117   6.334 -0.4855 -0.1809 -0.5834
  368MOL0     C50703  10.512  11.216   6.429  0.6528 -0.6687  0.4582
  368MOL0     C50704  10.523  11.192   6.573  0.1681 -0.7808 -1.1353
  368MOL0     O50705  10.518  11.281   6.688  0.7285 -0.2674  0.0862
  368MOL0     C50706  10.546  11.413   6.661 -0.0462  1.0443 -0.1043
  368MOL0     C50707  10.573  11.485   6.795 -0.8056 -0.1279 -0.5054
  368MOL0     C50708  10.455  11.470   6.886  0.3815 -0.8665  0.2980
  368MOL0     C50709  10.448  11.583   6.997  0.2580 -0.5173  0.2702
  368MOL0     C50710  10.558  11.561   7.094  0.1700  0.2544 -0.0336
  368MOL0     C50711  10.649  11.522   7.167 -0.1045 -0.2013 -0.0168
  368MOL0     C50712  10.538  11.059   6.606  0.4808  0.1183 -0.1942
  368MOL0     C50713  10.557  10.948   6.515 -1.0683 -1.1937  0.2327
  368MOL0     C50714  10.570  10.808   6.571  0.6011  0.1445  0.3493
  368MOL0     H50715  10.802  10.856   6.036 -0.2208 -0.1331  1.6763
  368MOL0     H50716  10.904  10.701   5.881  1.7004 -0.0536  2.0735
  368MOL0     H50717  10.708  10.501   5.654 -0.6143  0.7337  1.2071
  368MOL0     H50718  10.630  10.369   5.762  2.6741 -3.1564  3.0077
  368MOL0     H50719  10.846  10.243   5.720  0.7300 -1.2777 -0.7010
  368MOL0     H50720  10.726  10.252   5.583 -1.7558  1.4203  0.6722
  368MOL0     H50721  10.868  10.422   5.490 -1.2215  1.2764  2.4236
  368MOL0     H50722  10.986  10.398   5.631  0.6287 -2.4831  2.2510
  368MOL0     H50723  11.011  10.150   5.560 -0.8573 -0.3054  0.3873
  368MOL0     H50724  10.935  10.193   5.408  0.7396  1.0620 -0.9323
  368MOL0     H50725  11.201  10.227   5.397  0.8119  0.7142  0.3593
  368MOL0     H50726  11.177  10.354   5.512 -3.1800 -0.0428  1.9639
  368MOL0     H50727  11.023  10.481   5.346  0.6817 -0.4444  2.2159
  368MOL0     H50728  11.188  10.467   5.332  1.8608 -4.8524  0.7914
  368MOL0     H50729  11.071  10.439   5.104  0.4844  0.0791  0.6369
  368MOL0     H50730  10.986  10.305   5.194  0.2808 -0.3020  3.1679
  368MOL0     H50731  11.186  10.170   5.183 -0.1407 -0.2470  0.7405
  368MOL0     H50732  11.163  10.225   5.021  2.6489 -0.4063 -0.9657
  368MOL0     H50733  11.282  10.540   5.108 -1.0301  0.1919 -0.7219
  368MOL0     H50734  11.643  10.570   4.930 -1.6338  0.8679 -2.6269
  368MOL0     H50735  11.603  10.628   5.080  0.3656 -2.2579  0.5406
  368MOL0     H50736  11.368  10.693   4.944  0.0260  0.9329 -1.1391
  368MOL0     H50737  11.512  10.781   4.909 -0.1580  1.1097  1.1927
  368MOL0     H50738  11.544  10.572   4.733 -1.3509 -1.0993 -2.6400
  368MOL0     H50739  11.378  10.534   4.783 -0.2939  1.0153  6.3140
  368MOL0     H50740  11.458  10.802   4.658 -1.4219  1.5184 -0.2646
  368MOL0     H50741  11.390  10.651   4.578 -0.1484 -0.1838  0.1180
  368MOL0     H50742  11.020  10.773   4.755 -3.1109  1.6152 -0.4800
  368MOL0     H50743  10.741  10.906   4.588 -3.4446  0.4317  3.1959
  368MOL0     H50744  10.799  10.984   4.738  0.5736 -1.2704  2.0547
  368MOL0     H50745  10.793  10.813   4.723 -0.4828 -1.5910 -2.3117
  368MOL0     H50746  10.711  11.308   4.673  0.9189 -0.9077 -0.1443
  368MOL0     H50747  10.585  11.503   4.635  2.7790  0.1923  0.8993
  368MOL0     H50748  10.618  11.700   4.253 -0.1804  1.9870  0.0009
  368MOL0     H50749  10.472  11.631   4.202 -0.3090  1.1821 -0.5747
  368MOL0     H50750  10.469  11.860   4.396  0.6060 -2.3555  0.4272
  368MOL0     H50751  10.463  11.890   4.217 -0.5607  1.2612  1.0067
  368MOL0     H50752  10.252  11.726   4.368 -0.3689 -0.5068 -1.1102
  368MOL0     H50753  10.248  11.749   4.202  0.2889 -1.2587  0.7447
  368MOL0     H50754  10.223  11.981   4.210 -0.4421 -0.9912 -1.2282
  368MOL0     H50755  10.251  11.991   4.391  2.0734  1.8076 -3.1519
  368MOL0     H50756  10.003  11.903   4.237 -0.6939 -3.1001  1.6444
  368MOL0     H50757  10.019  11.886   4.411  1.6008  0.0410 -0.5052
  368MOL0     H50758   9.893  12.084   4.341 -0.7496 -0.2130 -1.8425
  368MOL0     H50759  10.048  12.139   4.266  1.0642 -1.6910 -0.4437
  368MOL0     H50760  10.108  12.232   4.456 -1.4110  2.0551 -0.6435
  368MOL0     H50761  10.114  12.071   4.540 -1.2478  0.1588  0.6293
  368MOL0     H50762   9.960  12.190   4.666 -0.2487  3.1198 -1.7032
  368MOL0     H50763   9.852  12.100   4.568 -1.0390  0.9602  2.2875
  368MOL0     H50764  10.585  11.436   4.215 -1.5265 -1.6906  0.4665
  368MOL0     H50765  10.708  11.232   4.257  1.6327  1.8105 -0.0728
  368MOL0     H50766  11.178  11.051   4.369 -1.1587 -1.9325 -2.5227
  368MOL0     H50767  11.332  10.902   4.477  0.8668 -0.7303  2.2075
  368MOL0     H50768  10.615  10.405   5.986 -0.3347  0.1433 -2.1081
  368MOL0     H50769  10.524  10.553   6.169  0.0423 -2.8220 -0.7632
  368MOL0     H50770  10.553  11.136   6.228 -2.5670  1.4075 -0.4280
  368MOL0     H50771  10.488  11.317   6.397  2.8684 -0.1787  0.2314
  368MOL0     H50772  10.637  11.426   6.601  0.2129  2.5685  0.5470
  368MOL0     H50773  10.473  11.463   6.597  0.8988  2.5468 -0.0730
  368MOL0     H50774  10.589  11.591   6.775  0.3979 -0.0557  0.6904
  368MOL0     H50775  10.659  11.427   6.829 -1.2699 -0.5816 -0.0942
  368MOL0     H50776  10.356  11.482   6.841 -0.7157 -1.0058  2.5463
  368MOL0     H50777  10.451  11.369   6.928  1.2944 -0.9365  0.2282
  368MOL0     H50778  10.362  11.574   7.065 -0.7469 -3.1209 -1.2034
  368MOL0     H50779  10.441  11.685   6.958 -0.5841 -0.2759  1.0217
  368MOL0     H50780  10.729  11.477   7.222 -0.4552 -0.7136  0.0796
  368MOL0     H50781  10.539  11.035   6.712 -0.5352  0.4008 -0.1065
  368MOL0     H50782  10.523  10.807   6.670 -1.1954 -1.1930 -0.4634
  368MOL0     H50783  10.507  10.758   6.497 -0.8309  2.3400 -0.0044
  368MOL0     H50784  10.674  10.774   6.577  1.0994  1.4053 -0.6808
  369MOL0     O50785   9.670   7.531   4.909 -0.3443 -0.3384  0.1210
  369MOL0     C50786   9.742   7.579   4.820  0.4911 -0.0236 -0.0191
  369MOL0     O50787   9.803   7.703   4.825 -0.1717  0.2540 -0.2057
  369MOL0     C50788   9.822   7.771   4.941  0.0575 -1.0145  0.1489
  369MOL0     C50789   9.842   7.916   4.941 -0.8672  0.1937  0.0378
  369MOL0     C50790   9.871   7.976   5.056  0.1108 -0.1514 -0.8313
  369MOL0     C50791   9.889   7.918   5.175  0.0213 -0.6052  0.2062
  369MOL0     O50792   9.926   7.989   5.286  0.5566 -0.4157  0.3265
  369MOL0     C50793  10.002   7.920   5.389 -0.1941 -0.5227 -0.6679
  369MOL0     C50794  10.049   8.010   5.506  0.5317  0.4042  0.7664
  369MOL0     C50795  10.153   8.127   5.471 -0.0606  0.8822 -1.0292
  369MOL0     C50796  10.215   8.174   5.597  0.2695 -0.6990  0.6612
  369MOL0     C50797  10.350   8.238   5.556  0.8079 -0.0320 -0.0010
  369MOL0     C50798  10.383   8.363   5.634 -0.0313  0.1355  0.1071
  369MOL0     C50799  10.516   8.421   5.580  0.2435 -0.0970 -0.0765
  369MOL0     C50800  10.544   8.564   5.631 -0.7002  0.3649  0.4043
  369MOL0     N50801  10.691   8.593   5.627  0.0797 -0.2385  0.7627
  369MOL0     C50802  10.788   8.543   5.710  0.2209  0.2115 -0.8051
  369MOL0     C50803  10.904   8.600   5.672 -0.1799 -0.2449  0.3341
  369MOL0     C50804  11.041   8.563   5.735 -0.1261  0.2408 -0.6020
  369MOL0     C50805  11.067   8.415   5.765 -0.1638  0.3530 -0.0130
  369MOL0     C50806  11.081   8.333   5.627 -0.3164  1.0375  0.1010
  369MOL0     C50807  11.051   8.185   5.648 -0.7662 -0.3561  0.0519
  369MOL0     O50808  11.121   8.133   5.752 -0.3291  0.2334 -0.4167
  369MOL0     C50809  11.158   7.989   5.749 -0.0816  0.0262  0.0731
  369MOL0     C50810  11.084   7.901   5.669 -0.6199  0.0331 -0.7414
  369MOL0     C50811  11.124   7.765   5.664 -0.6623 -0.5721  1.1864
  369MOL0     C50812  11.056   7.682   5.560 -0.3625 -0.8691  1.2173
  369MOL0     C50813  11.226   7.715   5.744 -0.0730 -0.7921 -0.6104
  369MOL0     C50814  11.268   7.571   5.747 -0.0408 -0.2747 -0.1097
  369MOL0     O50815  11.315   7.532   5.872 -0.4210 -0.1397  0.4869
  369MOL0     C50816  11.399   7.418   5.880  0.3851 -0.2466  0.8255
  369MOL0     C50817  11.358   7.291   5.852  0.2957  1.3203  0.3560
  369MOL0     C50818  11.450   7.190   5.841 -0.9962 -0.1902 -0.0891
  369MOL0     C50819  11.589   7.215   5.853 -0.4195  0.7111  0.0720
  369MOL0     O50820  11.695   7.122   5.847  0.7795  0.2987 -0.1727
  369MOL0     C50821  11.675   6.983   5.845  0.1126 -0.0869  0.2376
  369MOL0     C50822  11.644   6.923   5.706  0.2920 -0.8044  0.6260
  369MOL0     C50823  11.609   6.765   5.717  0.2500  0.7897 -0.4213
  369MOL0     C50824  11.473   6.735   5.756  0.9857 -0.7872  0.4338
  369MOL0     C50825  11.444   6.612   5.834 -0.5325 -0.4171  0.6815
  369MOL0     C50826  11.497   6.480   5.778  0.3285 -0.5640  0.4541
  369MOL0     C50827  11.644   6.438   5.806  0.8537 -0.8250  0.4597
  369MOL0     C50828  11.684   6.386   5.937 -0.1410 -0.3873  0.3846
  369MOL0    Cl50829  11.603   6.225   5.949 -0.1720  0.0070 -0.4617
  369MOL0     C50830  11.629   7.347   5.882 -0.3450  0.6805 -0.1625
  369MOL0     C50831  11.532   7.447   5.895 -0.0499 -0.0612  0.2438
  369MOL0     O50832  11.263   7.497   5.647  0.3558 -0.4387 -0.5985
  369MOL0     C50833  11.300   7.812   5.815 -0.8974 -0.4913 -0.0859
  369MOL0     C50834  11.268   7.948   5.811 -0.6466  0.1364  0.6934
  369MOL0     N50835  10.877   8.703   5.585  0.6640 -0.0985  0.6801
  369MOL0     N50836  10.751   8.695   5.557 -0.2379  0.4006  0.2664
  369MOL0     C50837   9.874   7.777   5.180 -0.3124 -0.3627  0.8786
  369MOL0     C50838   9.841   7.706   5.064  0.0172  0.0779 -0.7249
  369MOL0     C50839   9.753   7.497   4.692  0.0497 -0.0003  0.7456
  369MOL0     C50840   9.847   7.546   4.599  0.3275 -0.2249  0.4761
  369MOL0     C50841   9.858   7.486   4.473 -0.4110  0.5399 -0.5196
  369MOL0     C50842   9.774   7.374   4.437 -0.1435  1.0729  0.7229
  369MOL0     O50843   9.790   7.331   4.305 -0.3076  0.4005  0.5516
  369MOL0     C50844   9.689   7.247   4.251  0.2253  0.7990 -0.0471
  369MOL0     C50845   9.721   7.230   4.104  0.2384 -0.3262 -0.1306
  369MOL0     C50846   9.846   7.141   4.087 -0.0826 -0.5362 -0.6646
  369MOL0     C50847   9.978   7.224   4.076  1.3491  0.1110 -0.0886
  369MOL0     C50848   9.987   7.303   3.953  0.0344  0.3404 -0.3787
  369MOL0     C50849   9.989   7.389   3.873 -0.7205 -0.6502 -0.1777
  369MOL0     C50850   9.683   7.332   4.527 -0.4233  0.1211 -0.9369
  369MOL0     C50851   9.663   7.392   4.655  0.8821  1.1364  0.3028
  369MOL0     C50852   9.564   7.316   4.745 -0.4206 -0.2755 -0.3592
  369MOL0     H50853   9.849   7.968   4.845 -2.3337 -0.6706 -0.5707
  369MOL0     H50854   9.901   8.080   5.042 -1.2682  0.6181  1.4656
  369MOL0     H50855  10.088   7.879   5.335  0.3156  1.4635 -1.4661
  369MOL0     H50856   9.942   7.839   5.434 -0.2554 -0.2755 -0.2952
  369MOL0     H50857   9.960   8.056   5.550 -1.0061  0.6558 -2.3598
  369MOL0     H50858  10.093   7.939   5.577  0.9447 -0.9015 -0.7232
  369MOL0     H50859  10.227   8.099   5.395 -0.8697  1.3299 -1.9986
  369MOL0     H50860  10.107   8.215   5.425  1.8938  1.6369 -1.6861
  369MOL0     H50861  10.144   8.243   5.643 -6.7502 -4.7200 -2.5746
  369MOL0     H50862  10.238   8.092   5.666 -1.5272 -2.0514 -0.2746
  369MOL0     H50863  10.329   8.266   5.452  0.0909 -0.7792 -0.0676
  369MOL0     H50864  10.427   8.162   5.569 -0.0484 -1.2024 -1.4253
  369MOL0     H50865  10.312   8.446   5.627 -1.2472 -0.9212 -0.6322
  369MOL0     H50866  10.400   8.342   5.740  1.0321  1.1980  0.1615
  369MOL0     H50867  10.521   8.409   5.471  0.0726  1.9244 -0.3331
  369MOL0     H50868  10.606   8.368   5.615  0.3693 -0.5150 -0.9878
  369MOL0     H50869  10.496   8.636   5.564  0.3289  1.8851  1.2464
  369MOL0     H50870  10.509   8.575   5.735  4.3252  0.5831  2.3159
  369MOL0     H50871  10.765   8.470   5.787 -1.0134  0.7751 -0.6157
  369MOL0     H50872  11.061   8.615   5.830  2.3495  3.1646 -2.5492
  369MOL0     H50873  11.111   8.601   5.661  1.5770 -0.7975  0.4007
  369MOL0     H50874  11.153   8.400   5.831  0.6433  1.6104 -0.7308
  369MOL0     H50875  10.982   8.378   5.822  0.2378  2.7169  2.3267
  369MOL0     H50876  11.010   8.382   5.559  1.5727 -0.8533 -3.5423
  369MOL0     H50877  11.181   8.353   5.586 -0.8177 -3.8221 -4.4751
  369MOL0     H50878  10.945   8.161   5.658 -0.1546 -3.6553 -0.5007
  369MOL0     H50879  11.071   8.135   5.553 -0.4187  1.4673 -0.8914
  369MOL0     H50880  10.989   7.937   5.632 -1.9630 -1.5033  0.9894
  369MOL0     H50881  11.107   7.669   5.464 -1.5738 -1.3994  0.6317
  369MOL0     H50882  10.958   7.728   5.545  0.5857  0.6784 -0.7468
  369MOL0     H50883  11.045   7.578   5.591 -1.5874 -0.3944  2.4828
  369MOL0     H50884  11.258   7.268   5.816  1.0084  1.7754 -2.0782
  369MOL0     H50885  11.417   7.101   5.790  0.1312  0.1562 -1.4702
  369MOL0     H50886  11.769   6.932   5.869  0.0596 -1.3072 -1.8369
  369MOL0     H50887  11.596   6.959   5.917 -0.5647  2.3735  0.3941
  369MOL0     H50888  11.565   6.978   5.654  1.5183  1.8842  1.4609
  369MOL0     H50889  11.735   6.945   5.649 -1.0573  2.8549 -0.3732
  369MOL0     H50890  11.680   6.720   5.787  0.0069  2.0201  0.6621
  369MOL0     H50891  11.618   6.721   5.617 -1.7391 -2.0946  0.5538
  369MOL0     H50892  11.401   6.731   5.674  0.6391 -1.2041  0.7511
  369MOL0     H50893  11.439   6.820   5.818  2.1632 -0.3464  0.5003
  369MOL0     H50894  11.498   6.620   5.929  0.5843 -2.4982  0.2696
  369MOL0     H50895  11.336   6.612   5.847 -0.3418  1.6499  3.0533
  369MOL0     H50896  11.500   6.476   5.669 -0.8248  2.3759  0.2155
  369MOL0     H50897  11.427   6.400   5.805 -2.1257 -0.7742 -5.2061
  369MOL0     H50898  11.728   6.500   5.774  0.9621  0.1545  2.4468
  369MOL0     H50899  11.657   6.356   5.734 -1.5737 -2.3789  1.6303
  369MOL0     H50900  11.666   6.451   6.024 -1.3016 -3.0016  2.2548
  369MOL0     H50901  11.792   6.373   5.934 -0.0842 -0.9915  2.6098
  369MOL0     H50902  11.736   7.360   5.895  0.0383 -0.9878 -1.2791
  369MOL0     H50903  11.555   7.550   5.919 -1.1909  0.2455  0.0887
  369MOL0     H50904  11.395   7.781   5.857 -2.5759 -4.3887  1.2805
  369MOL0     H50905  11.332   8.019   5.862  0.4083  1.8071 -2.6654
  369MOL0     H50906   9.881   7.712   5.266  3.3745 -0.4018  0.7252
  369MOL0     H50907   9.859   7.599   5.061 -0.0961  0.0846 -2.4965
  369MOL0     H50908   9.928   7.615   4.621  1.5020 -1.1539 -0.7123
  369MOL0     H50909   9.938   7.517   4.405 -0.4291  1.5234 -0.1095
  369MOL0     H50910   9.691   7.151   4.305  3.1337  0.7349 -0.1272
  369MOL0     H50911   9.591   7.295   4.263  0.1194  0.1869  1.9270
  369MOL0     H50912   9.722   7.323   4.047 -0.2170  0.5094  1.1910
  369MOL0     H50913   9.636   7.171   4.068  0.7609 -1.0197 -0.2542
  369MOL0     H50914   9.869   7.080   4.176  1.5597  0.2010 -0.5309
  369MOL0     H50915   9.832   7.073   4.003  2.6354 -0.5705 -1.1813
  369MOL0     H50916  10.058   7.149   4.075  0.1780 -1.2031 -2.1812
  369MOL0     H50917   9.999   7.290   4.161  1.4638 -0.6655  0.4956
  369MOL0     H50918   9.990   7.465   3.797  2.7219  2.0243  2.2170
  369MOL0     H50919   9.628   7.244   4.495  1.4654 -2.9997  3.4234
  369MOL0     H50920   9.498   7.253   4.685  1.2098 -1.6348 -0.7664
  369MOL0     H50921   9.619   7.243   4.804 -0.1933  0.8422  0.8640
  369MOL0     H50922   9.502   7.386   4.802  1.6638 -0.0235  1.7564
  370MOL0     O50923   1.685   2.916   7.165  0.0145 -0.4999  0.3036
  370MOL0     C50924   1.724   2.817   7.102 -1.0930  0.2290 -1.1623
  370MOL0     O50925   1.843   2.742   7.124 -0.4064  0.3668  1.1890
  370MOL0     C50926   1.948   2.783   7.209  0.4480  0.3920  0.4930
  370MOL0     C50927   1.936   2.896   7.303  0.6586 -0.6485  1.0540
  370MOL0     C50928   2.052   2.917   7.384 -0.2531  0.2555  0.1978
  370MOL0     C50929   2.174   2.851   7.383  0.4460  0.6010 -0.0540
  370MOL0     O50930   2.278   2.879   7.464  0.1423  1.4148  0.4998
  370MOL0     C50931   2.256   2.956   7.586 -0.2524 -0.5102  0.1487
  370MOL0     C50932   2.346   2.911   7.697  0.1367  0.5234  0.4387
  370MOL0     C50933   2.334   2.763   7.726  0.0353  0.3681 -0.5478
  370MOL0     C50934   2.417   2.726   7.853  0.0470  0.0655  0.1343
  370MOL0     C50935   2.356   2.774   7.978  0.5397  0.8224  0.1104
  370MOL0     C50936   2.240   2.680   8.009  0.4478 -0.4539 -0.1109
  370MOL0     C50937   2.236   2.640   8.157 -0.5197 -0.5191  0.6564
  370MOL0     C50938   2.189   2.766   8.236  0.5119 -0.3607  0.0677
  370MOL0     N50939   2.168   2.725   8.371 -0.3504 -0.7821 -1.1250
  370MOL0     C50940   2.267   2.706   8.464  0.4966  0.1933  0.4617
  370MOL0     C50941   2.208   2.647   8.578  0.5622  0.0319  0.7543
  370MOL0     C50942   2.293   2.610   8.703  0.7789 -0.3615  0.0429
  370MOL0     C50943   2.273   2.479   8.764  0.2254  0.3634 -0.1173
  370MOL0     C50944   2.124   2.453   8.802 -0.1818 -0.4829 -0.1572
  370MOL0     C50945   2.100   2.375   8.932  1.0316 -0.5284 -0.1402
  370MOL0     O50946   2.156   2.246   8.935  0.3416 -0.0006  0.2470
  370MOL0     C50947   2.129   2.170   9.038 -0.3230 -0.3376 -1.0052
  370MOL0     C50948   2.233   2.178   9.127  0.0720 -0.2549  0.1078
  370MOL0     C50949   2.240   2.092   9.241  0.2760 -0.0644  0.7738
  370MOL0     C50950   2.347   2.104   9.353  0.3501 -0.2881  0.1469
  370MOL0     C50951   2.140   1.997   9.248  0.8413  0.7803  0.0659
  370MOL0     C50952   2.124   1.900   9.361  0.1004 -0.6110 -0.5468
  370MOL0     O50953   2.004   1.891   9.426  0.6502 -0.7360  0.2146
  370MOL0     C50954   1.998   1.801   9.532  0.3211  0.3056 -0.5694
  370MOL0     C50955   1.886   1.716   9.537  0.3434  0.1108 -0.4692
  370MOL0     C50956   1.861   1.629   9.651 -0.1882 -0.4849  0.2005
  370MOL0     C50957   1.953   1.616   9.754 -0.2357  1.0877  0.5659
  370MOL0     O50958   1.947   1.525   9.859  1.1701  0.3746 -0.3999
  370MOL0     C50959   1.834   1.446   9.900  0.1721 -0.1666 -0.4831
  370MOL0     C50960   1.865   1.322   9.981 -0.0474 -1.8108 -0.1261
  370MOL0     C50961   1.983   1.360  10.083 -0.2872  0.5064  0.7698
  370MOL0     C50962   1.990   1.279  10.206 -0.1923 -0.6867  0.4772
  370MOL0     C50963   2.078   1.155  10.196 -0.1214 -0.4239  0.3464
  370MOL0     C50964   2.080   1.080  10.330 -0.1259  0.7445 -0.8551
  370MOL0     C50965   2.173   0.960  10.317  0.2866  0.0114 -0.8241
  370MOL0     C50966   2.196   0.890  10.455 -0.3937  0.3946 -1.2044
  370MOL0    Cl50967   2.294   1.009  10.544 -0.5062 -0.0861  0.3239
  370MOL0     C50968   2.075   1.700   9.739 -0.7599  0.3975 -0.2129
  370MOL0     C50969   2.091   1.795   9.641 -0.3789  0.1320  0.0396
  370MOL0     O50970   2.218   1.823   9.379  0.1709 -0.2969  0.1332
  370MOL0     C50971   2.041   1.995   9.153 -0.0778  0.5632 -0.6546
  370MOL0     C50972   2.030   2.075   9.042 -0.4593 -0.1043  0.3146
  370MOL0     N50973   2.068   2.654   8.554 -0.3601  0.9525 -0.5339
  370MOL0     N50974   2.053   2.700   8.435  1.0158  0.3777 -0.6078
  370MOL0     C50975   2.180   2.759   7.274  0.2120  0.1144 -0.2488
  370MOL0     C50976   2.077   2.723   7.188 -0.5950 -0.4873 -0.1552
  370MOL0     C50977   1.635   2.779   6.995  0.2238  0.3160 -0.2253
  370MOL0     C50978   1.639   2.646   6.949  0.4331  0.1989 -0.1830
  370MOL0     C50979   1.536   2.588   6.869  0.6560 -0.0836  0.2297
  370MOL0     C50980   1.440   2.680   6.818  0.3807 -0.1930  0.3884
  370MOL0     O50981   1.346   2.632   6.726 -0.5084 -0.4557  0.1869
  370MOL0     C50982   1.246   2.716   6.673 -1.0439 -0.5054  0.4390
  370MOL0     C50983   1.125   2.623   6.644  0.6807  0.5414  0.2451
  370MOL0     C50984   1.020   2.695   6.565 -0.3316 -1.0097  0.4288
  370MOL0     C50985   0.942   2.598   6.473 -0.6433 -0.4357 -0.0104
  370MOL0     C50986   0.850   2.658   6.382 -0.1010  0.5185  0.5930
  370MOL0     C50987   0.767   2.704   6.311  0.9798 -0.0757 -1.3332
  370MOL0     C50988   1.454   2.820   6.836 -0.8551  0.3653 -0.1571
  370MOL0     C50989   1.545   2.868   6.931  0.1615 -0.0776 -0.5099
  370MOL0     C50990   1.532   3.018   6.961  0.1173  0.4318 -0.2609
  370MOL0     H50991   1.849   2.951   7.336 -0.8526 -2.0014 -0.4238
  370MOL0     H50992   2.051   3.011   7.438  0.7572  0.8051 -0.7142
  370MOL0     H50993   2.154   2.959   7.626  0.2848 -0.3489  1.5500
  370MOL0     H50994   2.291   3.056   7.558 -4.1531  0.9857 -0.0529
  370MOL0     H50995   2.445   2.932   7.655  0.0572 -0.2928 -0.1772
  370MOL0     H50996   2.328   2.974   7.785 -2.4567  0.7553 -0.1881
  370MOL0     H50997   2.231   2.730   7.742  0.4456  0.0905  1.9072
  370MOL0     H50998   2.381   2.721   7.637 -0.0549  2.8236 -1.8535
  370MOL0     H50999   2.453   2.623   7.855 -1.0760 -0.3260  0.8809
  370MOL0     H51000   2.511   2.782   7.839 -0.1999  0.4941  0.1674
  370MOL0     H51001   2.323   2.877   7.960 -1.1546  0.0231 -1.7011
  370MOL0     H51002   2.428   2.780   8.060  0.8673  1.0518 -0.1922
  370MOL0     H51003   2.147   2.721   7.970  1.6705  1.2560 -1.4138
  370MOL0     H51004   2.259   2.583   7.962  1.8177 -0.4281  0.3180
  370MOL0     H51005   2.331   2.602   8.197 -0.3347 -2.6839 -1.6138
  370MOL0     H51006   2.170   2.557   8.184 -0.4013  0.7594  6.0650
  370MOL0     H51007   2.255   2.853   8.227 -2.0794  1.9757  1.9152
  370MOL0     H51008   2.088   2.792   8.206  0.1767 -1.3421  0.2896
  370MOL0     H51009   2.374   2.719   8.454  0.6755 -0.7856  0.9882
  370MOL0     H51010   2.259   2.681   8.780  0.4614 -2.4617  1.9213
  370MOL0     H51011   2.398   2.626   8.676 -0.4260  2.9289 -3.7601
  370MOL0     H51012   2.300   2.405   8.689  0.8537 -1.1913  1.5500
  370MOL0     H51013   2.341   2.477   8.850  0.9958  2.5670 -0.6382
  370MOL0     H51014   2.060   2.541   8.804  0.8677  0.3032  2.4114
  370MOL0     H51015   2.084   2.399   8.715 -1.0015  0.2714 -0.2664
  370MOL0     H51016   2.143   2.439   9.010 -1.0975  0.2049  0.5128
  370MOL0     H51017   1.992   2.377   8.953  1.1288  2.4248  0.4903
  370MOL0     H51018   2.301   2.261   9.113 -2.1481  1.4051 -1.6486
  370MOL0     H51019   2.302   2.077   9.448 -0.7271 -0.1257 -0.3060
  370MOL0     H51020   2.378   2.209   9.354  1.0283 -0.4860  0.7123
  370MOL0     H51021   2.436   2.050   9.319  2.1408  0.0539  3.7521
  370MOL0     H51022   1.821   1.714   9.451  0.4434 -1.0071 -0.5381
  370MOL0     H51023   1.771   1.567   9.656 -0.0165 -0.8445 -0.8965
  370MOL0     H51024   1.758   1.509   9.946 -1.9250  0.1128 -3.9790
  370MOL0     H51025   1.791   1.403   9.809  2.2552  1.3391 -2.3005
  370MOL0     H51026   1.785   1.285  10.045  2.5915 -2.7601  2.9020
  370MOL0     H51027   1.887   1.244   9.907  1.9154 -1.3357 -0.0993
  370MOL0     H51028   1.964   1.465  10.107  1.2924  0.8741  0.5233
  370MOL0     H51029   2.074   1.362  10.023 -0.2876 -0.4881  0.7175
  370MOL0     H51030   1.886   1.255  10.234 -0.8815 -0.4890 -1.7273
  370MOL0     H51031   2.039   1.335  10.286 -0.8913  0.8982 -0.1684
  370MOL0     H51032   2.051   1.091  10.112  1.7231  0.5847 -1.0954
  370MOL0     H51033   2.181   1.187  10.181  0.3253 -0.6507  2.6041
  370MOL0     H51034   1.979   1.044  10.350  0.8061 -1.3657  0.3881
  370MOL0     H51035   2.113   1.148  10.409 -0.0696 -3.5014  3.2517
  370MOL0     H51036   2.273   0.987  10.284  0.7418  0.9709  1.1860
  370MOL0     H51037   2.131   0.897  10.238 -1.6213  1.5363 -1.0930
  370MOL0     H51038   2.245   0.792  10.447  0.7370  0.8818 -0.4931
  370MOL0     H51039   2.106   0.882  10.518 -2.4782  0.3894 -3.9858
  370MOL0     H51040   2.151   1.680   9.813  0.3720 -0.9723 -1.6937
  370MOL0     H51041   2.181   1.855   9.634  0.9145 -1.7975 -1.1801
  370MOL0     H51042   1.979   1.907   9.159 -1.4542  1.5865  1.0189
  370MOL0     H51043   1.962   2.076   8.957 -0.0656  3.0201 -0.0949
  370MOL0     H51044   2.280   2.717   7.264  0.8732  1.0089  1.9759
  370MOL0     H51045   2.090   2.637   7.123 -4.4679 -2.6413  1.5701
  370MOL0     H51046   1.716   2.573   6.972 -0.2186 -0.5412 -0.2870
  370MOL0     H51047   1.542   2.484   6.841 -0.9907  0.0436 -0.7520
  370MOL0     H51048   1.220   2.800   6.738  1.5150 -0.8560  2.0955
  370MOL0     H51049   1.270   2.760   6.576 -0.7089 -1.9030 -0.1361
  370MOL0     H51050   1.063   2.591   6.728 -1.2567 -0.1099 -1.3573
  370MOL0     H51051   1.161   2.534   6.592  1.7592  1.1459 -0.0692
  370MOL0     H51052   0.945   2.747   6.627 -0.6820  1.5103 -1.9137
  370MOL0     H51053   1.058   2.777   6.503 -3.7408 -0.5587 -1.3049
  370MOL0     H51054   0.897   2.515   6.528 -2.9719 -2.6868 -4.7159
  370MOL0     H51055   1.019   2.557   6.406  2.4699  5.1686 -0.4515
  370MOL0     H51056   0.693   2.766   6.265  1.4312  1.2926 -0.3103
  370MOL0     H51057   1.385   2.891   6.793 -0.0451 -0.3412 -2.7962
  370MOL0     H51058   1.633   3.056   6.978  0.4816 -0.3904 -0.5080
  370MOL0     H51059   1.491   3.070   6.874  0.3649 -1.5599 -1.6268
  370MOL0     H51060   1.468   3.043   7.047 -0.5691  2.8375 -1.3779
  371MOL0     O51061   0.180   0.085   8.575  0.1256 -0.0272 -0.4298
  371MOL0     C51062   0.232   0.042   8.678  0.4898 -0.5475 -0.0400
  371MOL0     O51063   0.175  -0.045   8.762  0.3463 -0.1410  0.4303
  371MOL0     C51064   0.071  -0.121   8.702  0.3538  0.0077 -0.1769
  371MOL0     C51065  -0.063  -0.089   8.717  0.2477 -0.0017 -0.4880
  371MOL0     C51066  -0.163  -0.170   8.666 -0.6488  0.4219 -0.2252
  371MOL0     C51067  -0.131  -0.283   8.587 -0.0947  0.9647  0.7266
  371MOL0     O51068  -0.223  -0.376   8.534 -0.1414  0.7945  0.2665
  371MOL0     C51069  -0.362  -0.368   8.576  1.3512 -0.2553  0.3038
  371MOL0     C51070  -0.431  -0.265   8.484 -0.1521 -0.0546  0.2918
  371MOL0     C51071  -0.462  -0.326   8.342  0.8208  0.6883 -0.3694
  371MOL0     C51072  -0.605  -0.397   8.342  0.5261 -0.6771 -0.3639
  371MOL0     C51073  -0.645  -0.473   8.216 -0.0341 -1.2135 -0.0649
  371MOL0     C51074  -0.553  -0.589   8.200  0.1807 -0.3090  0.2531
  371MOL0     C51075  -0.515  -0.604   8.049 -0.1326  0.3325  0.9545
  371MOL0     C51076  -0.408  -0.510   7.988 -0.0185 -0.0247  0.4227
  371MOL0     N51077  -0.392  -0.520   7.839 -0.7925  0.5629  0.5949
  371MOL0     C51078  -0.444  -0.430   7.741  0.0111 -0.2880 -1.0825
  371MOL0     C51079  -0.399  -0.472   7.622  0.7471 -0.0629  0.8275
  371MOL0     C51080  -0.440  -0.409   7.500 -0.0494  0.4427  1.0105
  371MOL0     C51081  -0.591  -0.402   7.476 -0.7907 -0.6738  0.6932
  371MOL0     C51082  -0.634  -0.364   7.333 -0.5883  1.0322  0.0056
  371MOL0     C51083  -0.593  -0.466   7.230 -0.1867 -0.4648 -0.1309
  371MOL0     O51084  -0.644  -0.413   7.110  0.2214  0.3930  0.5647
  371MOL0     C51085  -0.556  -0.355   7.024  0.9025 -0.6481  0.1930
  371MOL0     C51086  -0.616  -0.352   6.899  0.7237 -0.0674 -0.1931
  371MOL0     C51087  -0.541  -0.314   6.784  0.1391 -0.2001 -0.3038
  371MOL0     C51088  -0.627  -0.305   6.653 -0.4349 -0.3472  0.2913
  371MOL0     C51089  -0.395  -0.294   6.788  0.2761 -0.3530 -0.8277
  371MOL0     C51090  -0.302  -0.265   6.681 -0.1168 -0.6757 -0.4469
  371MOL0     O51091  -0.173  -0.302   6.707 -0.1587 -0.1628  0.0496
  371MOL0     C51092  -0.086  -0.310   6.604  0.5490  0.4781 -0.0914
  371MOL0     C51093  -0.104  -0.402   6.497 -0.5983 -0.0359  0.2221
  371MOL0     C51094  -0.013  -0.403   6.393 -1.0293  0.0679  0.1355
  371MOL0     C51095   0.103  -0.326   6.398 -0.7917  0.8406  0.2937
  371MOL0     O51096   0.197  -0.321   6.288 -0.4659  0.0678 -0.0854
  371MOL0     C51097   0.147  -0.350   6.159  0.5857  0.9712  0.7757
  371MOL0     C51098   0.180  -0.491   6.111  0.4100 -0.7182  0.4652
  371MOL0     C51099   0.327  -0.515   6.094 -0.4527 -0.2306 -0.2572
  371MOL0     C51100   0.400  -0.404   6.009  0.0721 -0.5142 -0.5345
  371MOL0     C51101   0.541  -0.455   5.972 -0.3597 -1.2885  0.1272
  371MOL0     C51102   0.636  -0.435   6.101  0.0422  0.5228 -0.4035
  371MOL0     C51103   0.796  -0.450   6.079  0.6860  0.2179  0.0610
  371MOL0     C51104   0.863  -0.489   6.212 -0.2642 -0.3341 -0.5049
  371MOL0    Cl51105   1.028  -0.562   6.200  0.1158 -0.6493 -0.4683
  371MOL0     C51106   0.117  -0.232   6.498 -0.0128 -0.0010 -0.9701
  371MOL0     C51107   0.026  -0.226   6.603  0.9260  0.7307 -0.4803
  371MOL0     O51108  -0.343  -0.227   6.571 -0.3068 -0.8554 -0.2108
  371MOL0     C51109  -0.342  -0.299   6.915 -0.0963 -1.0472  0.1822
  371MOL0     C51110  -0.419  -0.320   7.030  0.5500  0.0274 -0.3561
  371MOL0     N51111  -0.337  -0.596   7.645  0.0059 -0.1868 -0.7909
  371MOL0     N51112  -0.327  -0.618   7.769 -0.3091 -0.2899 -0.6558
  371MOL0     C51113   0.003  -0.311   8.579  0.1067  0.0237  0.6818
  371MOL0     C51114   0.101  -0.241   8.637  0.1331 -0.0807 -0.1949
  371MOL0     C51115   0.363   0.093   8.726  0.5272 -0.6555  0.7176
  371MOL0     C51116   0.361   0.184   8.837 -0.1701 -0.4388  0.5411
  371MOL0     C51117   0.473   0.236   8.897  0.3683  0.9171 -0.7799
  371MOL0     C51118   0.602   0.205   8.854  0.6929 -0.0317  0.0078
  371MOL0     O51119   0.717   0.259   8.902 -0.1550  0.7220  0.1210
  371MOL0     C51120   0.721   0.290   9.048  0.2925 -0.0531 -0.5252
  371MOL0     C51121   0.863   0.327   9.075  0.0102 -0.8187  0.3768
  371MOL0     C51122   0.877   0.470   9.013  0.6080  0.0960 -0.2693
  371MOL0     C51123   1.023   0.527   9.027  0.8771  0.3727  0.5141
  371MOL0     C51124   1.064   0.560   9.162  0.8257 -0.2063 -0.4858
  371MOL0     C51125   1.102   0.584   9.278 -0.6255  0.0104  0.7563
  371MOL0     C51126   0.606   0.133   8.732  0.2012  0.1532  0.3550
  371MOL0     C51127   0.486   0.080   8.671 -0.1397 -0.2032  0.0992
  371MOL0     C51128   0.494   0.016   8.541  0.6621  0.7138  0.2389
  371MOL0     H51129  -0.078   0.003   8.773 -1.6769 -1.8016  2.2427
  371MOL0     H51130  -0.264  -0.141   8.696  0.0241  2.0322  0.5889
  371MOL0     H51131  -0.373  -0.345   8.682 -2.1213 -0.1624  0.0425
  371MOL0     H51132  -0.428  -0.454   8.558 -0.9877  1.8863 -2.4279
  371MOL0     H51133  -0.524  -0.240   8.535  0.3363  1.2498  0.5834
  371MOL0     H51134  -0.373  -0.174   8.466 -2.4848  1.0178 -2.6015
  371MOL0     H51135  -0.452  -0.246   8.269 -3.5771  1.3696 -0.5200
  371MOL0     H51136  -0.390  -0.406   8.324 -0.7351 -0.9812  0.4236
  371MOL0     H51137  -0.632  -0.454   8.431  0.0807  0.9763  0.6079
  371MOL0     H51138  -0.677  -0.315   8.334  0.9867 -0.4560 -4.0187
  371MOL0     H51139  -0.635  -0.405   8.132  0.6318  2.3633  2.6555
  371MOL0     H51140  -0.747  -0.514   8.220  0.1376 -1.7465 -0.9145
  371MOL0     H51141  -0.458  -0.574   8.252  0.7508  2.5754 -1.3745
  371MOL0     H51142  -0.608  -0.675   8.238  0.2291 -0.5402 -0.1953
  371MOL0     H51143  -0.612  -0.593   7.999  1.5877  1.3742 -2.3986
  371MOL0     H51144  -0.486  -0.707   8.025  3.3382  1.8910 -2.4646
  371MOL0     H51145  -0.412  -0.416   8.042  1.0087 -0.5025  1.3500
  371MOL0     H51146  -0.316  -0.555   8.025  0.3870 -2.1425 -2.7449
  371MOL0     H51147  -0.494  -0.335   7.755  0.7815  0.0980 -0.9085
  371MOL0     H51148  -0.396  -0.458   7.413 -1.5498 -0.8339  0.9301
  371MOL0     H51149  -0.393  -0.310   7.491 -3.5075  2.0087 -4.0153
  371MOL0     H51150  -0.625  -0.505   7.491  1.8307 -2.0867 -1.9458
  371MOL0     H51151  -0.636  -0.334   7.549 -1.1441 -0.0863 -0.0626
  371MOL0     H51152  -0.743  -0.366   7.338 -0.6173 -0.8684 -0.6847
  371MOL0     H51153  -0.601  -0.263   7.305  1.1651  1.0342  1.8069
  371MOL0     H51154  -0.485  -0.480   7.222 -0.0536 -0.6836  1.6746
  371MOL0     H51155  -0.636  -0.565   7.248  1.0731 -1.5014 -2.4382
  371MOL0     H51156  -0.723  -0.367   6.887  0.8392 -0.5175 -0.7214
  371MOL0     H51157  -0.649  -0.198   6.645  1.1694  0.2865  3.0358
  371MOL0     H51158  -0.715  -0.370   6.657  0.3517 -1.3783  1.8767
  371MOL0     H51159  -0.564  -0.343   6.572 -2.2973 -0.1247 -1.3265
  371MOL0     H51160  -0.197  -0.449   6.467 -0.4562  1.1519 -2.3024
  371MOL0     H51161  -0.017  -0.483   6.320 -1.5298 -0.9722  1.2540
  371MOL0     H51162   0.039  -0.350   6.143  1.0160 -0.1105 -3.2036
  371MOL0     H51163   0.174  -0.276   6.083 -2.7750 -0.7012 -2.3691
  371MOL0     H51164   0.143  -0.568   6.180 -1.1337 -0.8771 -0.4849
  371MOL0     H51165   0.131  -0.503   6.014  1.9460 -3.4148 -0.0769
  371MOL0     H51166   0.345  -0.608   6.039  0.2971 -0.5940  0.5828
  371MOL0     H51167   0.370  -0.526   6.194 -0.1383 -3.6824 -0.6447
  371MOL0     H51168   0.401  -0.312   6.069  1.4650 -1.5543  1.1643
  371MOL0     H51169   0.341  -0.388   5.918 -5.1677 -1.4214  2.2782
  371MOL0     H51170   0.540  -0.556   5.931 -1.2446 -1.6752  1.0475
  371MOL0     H51171   0.587  -0.391   5.897 -2.8072 -1.1605 -1.3668
  371MOL0     H51172   0.599  -0.502   6.179 -0.9934 -1.5126 -2.5302
  371MOL0     H51173   0.619  -0.336   6.145 -0.4702 -0.8227  2.6655
  371MOL0     H51174   0.841  -0.357   6.044 -0.4462  0.4784 -0.7283
  371MOL0     H51175   0.812  -0.533   6.009  3.0918 -0.5780  1.4114
  371MOL0     H51176   0.801  -0.565   6.260 -0.5439 -0.0930 -0.4805
  371MOL0     H51177   0.871  -0.396   6.268  0.5997  0.4259 -1.8358
  371MOL0     H51178   0.196  -0.158   6.496 -3.6629  4.3360 -1.8067
  371MOL0     H51179   0.045  -0.159   6.687  1.7977  0.0829 -0.1433
  371MOL0     H51180  -0.237  -0.277   6.927 -0.0611 -0.6433 -0.7934
  371MOL0     H51181  -0.365  -0.323   7.124  2.6615  0.1042 -1.5128
  371MOL0     H51182   0.022  -0.398   8.517 -0.8469  2.1014 -2.8267
  371MOL0     H51183   0.194  -0.289   8.608 -1.5299 -1.5983 -3.6532
  371MOL0     H51184   0.268   0.204   8.890  1.2460 -0.6055  3.2607
  371MOL0     H51185   0.457   0.304   8.979  1.0668 -1.1983  1.2180
  371MOL0     H51186   0.653   0.368   9.083  0.5090 -0.4195  0.7638
  371MOL0     H51187   0.690   0.202   9.105  0.8063  2.0797  3.4298
  371MOL0     H51188   0.937   0.259   9.031  0.0766 -0.2390 -0.4300
  371MOL0     H51189   0.885   0.343   9.181  0.3168  1.3996  0.0196
  371MOL0     H51190   0.852   0.461   8.907  1.6973 -0.2829 -0.5016
  371MOL0     H51191   0.806   0.529   9.071  0.5126 -1.5624  1.4062
  371MOL0     H51192   1.019   0.612   8.958 -3.2035 -0.8623 -1.1132
  371MOL0     H51193   1.087   0.446   8.992  1.2340  0.8705  0.0010
  371MOL0     H51194   1.127   0.629   9.372  1.9558  0.5117 -0.0887
  371MOL0     H51195   0.699   0.124   8.677  0.5881  3.1928  0.3335
  371MOL0     H51196   0.503   0.095   8.466 -1.8390  1.4504  0.6185
  371MOL0     H51197   0.582  -0.049   8.531 -0.3637 -1.1492  2.4451
  371MOL0     H51198   0.411  -0.051   8.516  0.1692  1.3844  0.0534
  372MOL0     O51199   5.106   2.618   2.276 -0.9896  0.2360  0.5776
  372MOL0     C51200   5.023   2.563   2.200  0.2963 -0.5856 -0.4950
  372MOL0     O51201   4.958   2.615   2.090 -0.2888  0.7277 -0.6566
  372MOL0     C51202   5.010   2.732   2.029 -0.0043  0.9120 -0.7216
  372MOL0     C51203   5.076   2.719   1.912 -0.3878 -0.4615  0.3853
  372MOL0     C51204   5.117   2.819   1.828 -0.7279  1.4209 -1.2998
  372MOL0     C51205   5.083   2.951   1.859 -0.3864  0.7408  1.5623
  372MOL0     O51206   5.130   3.058   1.781 -0.8153  0.4086  0.5251
  372MOL0     C51207   5.092   3.193   1.809 -0.3761 -0.1498 -0.1366
  372MOL0     C51208   5.160   3.281   1.703 -0.2597  0.8123  0.7181
  372MOL0     C51209   5.160   3.432   1.730 -0.1489  0.6799 -0.1450
  372MOL0     C51210   5.012   3.491   1.761 -0.1521 -0.1219  0.4070
  372MOL0     C51211   4.919   3.473   1.649 -0.4848  0.3325  0.6313
  372MOL0     C51212   4.961   3.542   1.518  0.1172 -0.7544  0.1990
  372MOL0     C51213   4.895   3.485   1.391  0.3164  1.0020  0.4752
  372MOL0     C51214   4.736   3.483   1.404  0.1062 -0.4657 -0.5246
  372MOL0     N51215   4.676   3.455   1.270  0.1813 -0.0738 -0.2955
  372MOL0     C51216   4.676   3.331   1.214 -0.6219 -0.5127  0.4577
  372MOL0     C51217   4.633   3.360   1.081 -0.2322 -0.3734  0.2520
  372MOL0     C51218   4.601   3.245   0.981 -0.4750  0.2480 -0.4173
  372MOL0     C51219   4.508   3.137   1.046 -0.0858  0.4020  0.2824
  372MOL0     C51220   4.580   3.007   1.092 -0.1588 -0.0776 -0.1256
  372MOL0     C51221   4.483   2.893   1.121  0.4836  0.2214  0.3905
  372MOL0     O51222   4.563   2.783   1.158 -0.0934 -0.1788 -0.5182
  372MOL0     C51223   4.611   2.709   1.053 -0.2136 -0.1346 -0.5273
  372MOL0     C51224   4.668   2.597   1.096 -0.6190  0.2561  0.2936
  372MOL0     C51225   4.727   2.499   1.018  0.5499  0.1594  0.7554
  372MOL0     C51226   4.753   2.359   1.080 -0.2166  0.1300  0.1943
  372MOL0     C51227   4.725   2.515   0.875 -0.4200  0.3200  1.0372
  372MOL0     C51228   4.791   2.425   0.775 -0.2555  0.8766  0.1409
  372MOL0     O51229   4.757   2.449   0.652  0.8281  0.1620  0.6405
  372MOL0     C51230   4.813   2.382   0.551 -0.8233  0.6501 -0.1671
  372MOL0     C51231   4.727   2.312   0.465 -0.0106  0.1719  0.5049
  372MOL0     C51232   4.784   2.238   0.355 -0.4472  0.7518 -0.0389
  372MOL0     C51233   4.922   2.228   0.340  0.4128 -0.0064  1.0992
  372MOL0     O51234   4.979   2.151   0.242 -0.4714 -0.2511  1.0935
  372MOL0     C51235   4.909   2.053   0.160  0.5344 -0.5901  0.1452
  372MOL0     C51236   5.021   1.957   0.121 -0.0158  0.6269  0.3350
  372MOL0     C51237   4.977   1.847   0.024 -0.9587 -0.2216 -0.0935
  372MOL0     C51238   4.916   1.898  -0.102 -0.0635 -0.2887  0.5489
  372MOL0     C51239   4.945   1.815  -0.228 -0.0229 -0.3285  0.5086
  372MOL0     C51240   4.868   1.852  -0.357  0.8200  0.3610 -0.1662
  372MOL0     C51241   4.918   1.772  -0.471 -0.2042  0.2292  0.6247
  372MOL0     C51242   4.847   1.808  -0.599  1.3211  0.1607 -0.4822
  372MOL0    Cl51243   4.905   1.961  -0.652 -0.1070 -0.3010 -0.0942
  372MOL0     C51244   5.004   2.301   0.430 -0.9287 -0.3687  0.1798
  372MOL0     C51245   4.954   2.371   0.534  0.2686 -0.2349  0.5227
  372MOL0     O51246   4.864   2.333   0.818 -0.3463 -0.7182  0.7911
  372MOL0     C51247   4.661   2.629   0.831  0.6821 -0.1655  0.6489
  372MOL0     C51248   4.601   2.727   0.913  0.2042 -0.8964 -0.4989
  372MOL0     N51249   4.617   3.493   1.063 -0.2611 -0.3815  0.6063
  372MOL0     N51250   4.648   3.544   1.173  0.4040 -0.4084  0.0218
  372MOL0     C51251   5.025   2.972   1.983 -0.6889  1.0316 -0.5694
  372MOL0     C51252   4.989   2.864   2.067  0.2148 -0.7621 -0.5561
  372MOL0     C51253   4.966   2.433   2.248  0.4921 -0.2017 -0.5755
  372MOL0     C51254   4.847   2.438   2.315 -0.5259 -0.3451 -0.0123
  372MOL0     C51255   4.792   2.328   2.374  0.5306  0.5838 -0.2254
  372MOL0     C51256   4.861   2.199   2.375  0.4784 -0.4568  0.5632
  372MOL0     O51257   4.784   2.095   2.437  0.1247  0.2012  1.1768
  372MOL0     C51258   4.836   1.962   2.460  0.4798 -0.6381  0.0024
  372MOL0     C51259   4.767   1.908   2.592  1.2216  0.1197 -0.8910
  372MOL0     C51260   4.649   1.801   2.565 -0.1042 -0.5625  0.2845
  372MOL0     C51261   4.709   1.658   2.525  0.2130  0.0207 -0.1421
  372MOL0     C51262   4.787   1.601   2.639 -0.3024  0.4685  0.1868
  372MOL0     C51263   4.870   1.564   2.721  0.3127  0.4933  0.7185
  372MOL0     C51264   4.978   2.193   2.298 -1.1376  0.6113  0.1263
  372MOL0     C51265   5.026   2.306   2.229 -0.1246 -0.3113  0.0588
  372MOL0     C51266   5.140   2.278   2.135  0.1645  0.0715  0.6419
  372MOL0     H51267   5.095   2.619   1.874  0.7508 -0.9284  2.0602
  372MOL0     H51268   5.160   2.788   1.734  1.7733 -1.9667  0.7092
  372MOL0     H51269   5.132   3.224   1.906  2.1103 -1.2739 -0.7126
  372MOL0     H51270   4.984   3.210   1.803  0.0087  1.9597 -4.0669
  372MOL0     H51271   5.266   3.254   1.695 -0.4725  0.4269 -1.1733
  372MOL0     H51272   5.114   3.259   1.606 -1.2035 -1.3328  1.5718
  372MOL0     H51273   5.224   3.448   1.817  4.9704 -1.1100 -3.0916
  372MOL0     H51274   5.215   3.477   1.646  0.7665 -2.3686 -1.3232
  372MOL0     H51275   4.966   3.432   1.841  1.1534 -2.5698 -0.5231
  372MOL0     H51276   5.021   3.597   1.784  1.4870  0.4303 -2.3233
  372MOL0     H51277   4.816   3.495   1.678 -1.1149  0.8350 -1.7442
  372MOL0     H51278   4.917   3.366   1.629  3.6400 -0.3345  2.6647
  372MOL0     H51279   4.930   3.647   1.514  0.6087 -0.5372  1.5454
  372MOL0     H51280   5.068   3.536   1.497 -0.0547  0.2315 -1.0871
  372MOL0     H51281   4.920   3.380   1.375 -0.7651  0.5967  1.3340
  372MOL0     H51282   4.934   3.539   1.304 -1.7173 -2.3654 -2.8194
  372MOL0     H51283   4.711   3.406   1.479 -1.5211  1.8996  1.5555
  372MOL0     H51284   4.706   3.583   1.438  0.3685 -0.9582  1.2964
  372MOL0     H51285   4.692   3.234   1.260  4.2691 -1.2035 -2.0503
  372MOL0     H51286   4.694   3.191   0.961 -0.4988 -0.6505  1.6333
  372MOL0     H51287   4.555   3.277   0.887 -0.8869 -2.6936 -1.3080
  372MOL0     H51288   4.465   3.179   1.137 -1.1300  1.5510 -0.7067
  372MOL0     H51289   4.444   3.099   0.965 -0.1319 -1.1005  0.9889
  372MOL0     H51290   4.639   2.979   1.004 -0.6328  0.5831 -0.6694
  372MOL0     H51291   4.641   3.021   1.182 -0.2662 -1.3476  0.1539
  372MOL0     H51292   4.423   2.915   1.210 -1.9853 -2.1113 -0.5522
  372MOL0     H51293   4.420   2.871   1.035  2.0146 -1.7869 -0.2806
  372MOL0     H51294   4.662   2.579   1.203 -0.6836  4.4774  1.1422
  372MOL0     H51295   4.860   2.339   1.092  0.2391  2.3735  0.4197
  372MOL0     H51296   4.727   2.281   1.009 -0.1004 -1.0584  1.4172
  372MOL0     H51297   4.712   2.353   1.181  1.7398  0.5689  1.0731
  372MOL0     H51298   4.621   2.329   0.479  0.3809  2.9919  0.6115
  372MOL0     H51299   4.729   2.175   0.285  0.4545 -1.4509  1.1403
  372MOL0     H51300   4.825   1.998   0.204 -2.0319  1.1083 -2.2590
  372MOL0     H51301   4.877   2.098   0.066 -0.4721 -0.0275  0.7409
  372MOL0     H51302   5.086   2.016   0.056 -1.8963  3.2274  0.6236
  372MOL0     H51303   5.054   1.924   0.219 -0.9330 -1.2212  0.0644
  372MOL0     H51304   4.908   1.783   0.080 -1.8374  2.3519  1.9397
  372MOL0     H51305   5.066   1.786   0.004 -0.7387 -0.5958  1.8181
  372MOL0     H51306   4.943   2.000  -0.130 -4.0734  1.0784  0.9661
  372MOL0     H51307   4.808   1.906  -0.090 -0.4041 -0.1590 -2.0146
  372MOL0     H51308   5.053   1.818  -0.245 -0.5693  1.2972 -3.9162
  372MOL0     H51309   4.915   1.712  -0.207 -0.8129 -0.3630 -0.7224
  372MOL0     H51310   4.882   1.959  -0.372  1.5979  0.0974 -1.5359
  372MOL0     H51311   4.761   1.832  -0.355  0.4689  1.7637 -2.0558
  372MOL0     H51312   4.910   1.665  -0.448  0.8116  0.2037  0.9212
  372MOL0     H51313   5.025   1.787  -0.484  0.0041 -1.8625 -0.5871
  372MOL0     H51314   4.738   1.807  -0.583  1.3601  1.8398  0.0397
  372MOL0     H51315   4.858   1.736  -0.681  3.8003  1.4316 -1.3644
  372MOL0     H51316   5.112   2.309   0.426 -0.9084 -0.3339  0.7070
  372MOL0     H51317   5.021   2.405   0.613 -0.4637  1.6922  0.3606
  372MOL0     H51318   4.646   2.644   0.724  0.0423  0.5476  0.8349
  372MOL0     H51319   4.561   2.817   0.867 -0.2003 -0.8212 -0.0097
  372MOL0     H51320   5.014   3.068   2.031  2.6823  1.5202 -0.5769
  372MOL0     H51321   4.950   2.895   2.163 -1.5267  1.3994 -1.8498
  372MOL0     H51322   4.799   2.533   2.336 -0.4474 -0.3332  0.1121
  372MOL0     H51323   4.703   2.327   2.436  0.0875  3.6235 -0.6572
  372MOL0     H51324   4.808   1.903   2.372 -4.0868 -0.1499  0.8927
  372MOL0     H51325   4.942   1.977   2.485  0.1562 -2.7398  3.3213
  372MOL0     H51326   4.732   1.999   2.641  1.3197 -0.1069 -0.3929
  372MOL0     H51327   4.852   1.877   2.654 -0.8731 -1.0550  1.5396
  372MOL0     H51328   4.578   1.791   2.648  0.1022 -1.9052  0.3177
  372MOL0     H51329   4.594   1.843   2.481  3.0792  0.0343 -1.6548
  372MOL0     H51330   4.773   1.674   2.438  0.6999  0.9639  0.3790
  372MOL0     H51331   4.627   1.591   2.493  1.2941 -0.8858 -1.1150
  372MOL0     H51332   4.949   1.542   2.790  0.9184 -1.0585 -0.4092
  372MOL0     H51333   5.033   2.099   2.299 -1.9111  0.0968  2.8252
  372MOL0     H51334   5.211   2.361   2.144 -0.2092  0.2822  1.8459
  372MOL0     H51335   5.195   2.188   2.163  2.6904  1.2587 -0.1196
  372MOL0     H51336   5.115   2.271   2.029 -4.2150 -1.9519  1.6018
  373MOL0     O51337   3.066   0.465   2.759  0.3128  0.7089 -0.3631
  373MOL0     C51338   3.168   0.517   2.705 -0.7730  0.3612  0.0707
  373MOL0     O51339   3.167   0.584   2.579 -0.1405  0.5130 -0.0649
  373MOL0     C51340   3.051   0.636   2.528 -1.0063  0.0922  0.0852
  373MOL0     C51341   3.004   0.747   2.586 -0.1812  0.1992  0.3648
  373MOL0     C51342   2.891   0.811   2.530  0.8738  0.2296 -1.3179
  373MOL0     C51343   2.832   0.761   2.409  0.0869  0.3031 -0.0173
  373MOL0     O51344   2.727   0.836   2.362 -0.4762 -0.8631  0.7044
  373MOL0     C51345   2.772   0.949   2.291  0.9292 -0.1643  0.3359
  373MOL0     C51346   2.681   0.956   2.170  0.1900 -0.5325 -0.4823
  373MOL0     C51347   2.708   1.078   2.071 -0.1280  0.2281 -0.1334
  373MOL0     C51348   2.629   1.062   1.934 -0.2396  0.0575  0.3453
  373MOL0     C51349   2.730   0.996   1.840  0.1497 -0.1654  0.2464
  373MOL0     C51350   2.660   0.955   1.703  0.5385 -0.5942  0.1092
  373MOL0     C51351   2.630   1.075   1.611 -0.5645 -0.1287 -0.7092
  373MOL0     C51352   2.567   1.020   1.486  0.2066  0.5248  0.3613
  373MOL0     N51353   2.515   1.129   1.406  0.0687 -0.0155  0.6690
  373MOL0     C51354   2.419   1.223   1.443  0.2252 -0.9694 -0.2081
  373MOL0     C51355   2.427   1.308   1.334  0.7169  0.9702 -0.2631
  373MOL0     C51356   2.350   1.444   1.330  0.7209 -0.2804 -0.3755
  373MOL0     C51357   2.437   1.571   1.332 -0.6098 -0.6070  0.5365
  373MOL0     C51358   2.481   1.615   1.478 -0.4524 -0.9899  1.1908
  373MOL0     C51359   2.577   1.506   1.537 -0.1687  0.3716 -0.0249
  373MOL0     O51360   2.621   1.551   1.658  0.1273 -0.7688 -0.6004
  373MOL0     C51361   2.699   1.662   1.662  0.6331 -0.1342  0.3558
  373MOL0     C51362   2.696   1.734   1.782  0.4682 -0.4505  0.2627
  373MOL0     C51363   2.771   1.850   1.808  0.1538  0.4492 -0.2523
  373MOL0     C51364   2.732   1.922   1.934  0.2541  0.1516 -0.3258
  373MOL0     C51365   2.869   1.891   1.711  0.0330  0.8183  0.4936
  373MOL0     C51366   2.945   2.014   1.719 -0.3073  0.8788  0.4624
  373MOL0     O51367   3.029   2.049   1.617  0.1073  0.0085  0.1184
  373MOL0     C51368   3.120   2.152   1.642  0.9061 -0.0412  0.3255
  373MOL0     C51369   3.068   2.277   1.651 -0.3101  0.6278  0.0128
  373MOL0     C51370   3.155   2.376   1.686  0.0900 -0.8755  0.3235
  373MOL0     C51371   3.294   2.359   1.700 -0.0692 -0.1827  0.4881
  373MOL0     O51372   3.374   2.471   1.723  0.6320  0.7627  1.1696
  373MOL0     C51373   3.458   2.460   1.840 -0.1621 -1.0789  0.0054
  373MOL0     C51374   3.509   2.602   1.867  0.0826 -0.1799 -0.0024
  373MOL0     C51375   3.615   2.635   1.761  0.2418 -0.3764 -0.1896
  373MOL0     C51376   3.643   2.781   1.774  0.3030  0.2378  0.5084
  373MOL0     C51377   3.773   2.832   1.711  0.2925 -0.1636  0.1991
  373MOL0     C51378   3.784   2.801   1.566  0.1645 -0.5621 -0.2145
  373MOL0     C51379   3.670   2.838   1.480  0.1683  0.7691  0.1373
  373MOL0     C51380   3.695   2.842   1.331 -0.3819 -0.0604 -0.1414
  373MOL0    Cl51381   3.529   2.844   1.259 -0.2179  0.0727 -0.0643
  373MOL0     C51382   3.348   2.233   1.670 -0.1850 -0.0898  0.2848
  373MOL0     C51383   3.258   2.131   1.649 -0.4212 -0.4365 -1.0295
  373MOL0     O51384   2.932   2.073   1.822 -0.2471  0.4592 -0.2842
  373MOL0     C51385   2.871   1.816   1.591  0.2053 -0.1811 -0.2409
  373MOL0     C51386   2.790   1.701   1.563 -0.7881  0.4426 -0.0998
  373MOL0     N51387   2.522   1.268   1.246  0.6956 -0.5418  0.7355
  373MOL0     N51388   2.565   1.159   1.285 -0.4910  0.1967 -0.3064
  373MOL0     C51389   2.882   0.640   2.350 -0.4611  0.1271  0.3146
  373MOL0     C51390   2.995   0.583   2.410 -0.8675  1.0350  0.0514
  373MOL0     C51391   3.293   0.530   2.778 -1.1305  0.6540  0.0307
  373MOL0     C51392   3.413   0.566   2.707  0.4993 -1.0671 -0.5798
  373MOL0     C51393   3.540   0.586   2.761 -1.2330 -0.2318  0.5867
  373MOL0     C51394   3.556   0.555   2.900 -0.6514  0.2062 -0.6602
  373MOL0     O51395   3.677   0.564   2.959 -0.0199  0.1048 -0.5544
  373MOL0     C51396   3.769   0.668   2.916 -0.3866 -1.0376  0.1171
  373MOL0     C51397   3.867   0.691   3.028 -0.8520  0.1778 -0.4157
  373MOL0     C51398   3.798   0.778   3.135  0.5599  0.0661  1.1710
  373MOL0     C51399   3.893   0.842   3.238 -0.3239 -0.4881  0.4198
  373MOL0     C51400   3.948   0.970   3.200 -0.0247 -0.1009 -0.5623
  373MOL0     C51401   3.998   1.087   3.190  0.3934 -0.1260 -0.4299
  373MOL0     C51402   3.444   0.510   2.971  0.5223  0.0149  0.1280
  373MOL0     C51403   3.319   0.492   2.913  0.6037  0.9675 -1.0905
  373MOL0     C51404   3.204   0.449   2.999 -0.0651  0.2517 -0.2649
  373MOL0     H51405   3.062   0.796   2.664  0.4830 -2.2442  1.4902
  373MOL0     H51406   2.851   0.902   2.572 -0.1821 -0.6222 -0.4180
  373MOL0     H51407   2.874   0.930   2.255  0.3669 -1.6620 -0.5351
  373MOL0     H51408   2.769   1.036   2.358 -1.2008 -0.0989  0.2098
  373MOL0     H51409   2.694   0.860   2.119  3.8857 -0.4657  0.1018
  373MOL0     H51410   2.578   0.962   2.206  1.8137  1.3009  4.6611
  373MOL0     H51411   2.672   1.170   2.118 -0.1532 -0.3627  1.0471
  373MOL0     H51412   2.816   1.093   2.068 -0.2642  1.1847 -0.7376
  373MOL0     H51413   2.530   1.017   1.929 -2.0878  3.5989  2.0008
  373MOL0     H51414   2.604   1.157   1.886  1.4808  0.7921  0.8220
  373MOL0     H51415   2.763   0.900   1.880  0.1692 -0.8026 -1.2329
  373MOL0     H51416   2.817   1.057   1.813  2.1691 -2.7387  0.5842
  373MOL0     H51417   2.738   0.895   1.654  0.2393 -2.0584  1.3507
  373MOL0     H51418   2.570   0.897   1.725  0.2644  0.0119  0.5975
  373MOL0     H51419   2.698   1.158   1.589  0.0710 -0.6229 -0.6078
  373MOL0     H51420   2.546   1.120   1.665  0.0275 -0.8833  0.8932
  373MOL0     H51421   2.650   0.985   1.423 -0.9168  1.5678 -1.8112
  373MOL0     H51422   2.488   0.946   1.500  1.0230 -0.4740 -0.1485
  373MOL0     H51423   2.356   1.229   1.531  1.9842  1.0933  0.9851
  373MOL0     H51424   2.276   1.446   1.412  0.5949 -2.7576 -0.3679
  373MOL0     H51425   2.293   1.454   1.237  2.0447  2.0422 -1.0251
  373MOL0     H51426   2.516   1.574   1.257  0.2792 -1.6725  1.3799
  373MOL0     H51427   2.360   1.640   1.297 -1.0943 -0.9506  0.9028
  373MOL0     H51428   2.530   1.712   1.464 -1.4066 -0.9989 -3.8351
  373MOL0     H51429   2.397   1.627   1.546 -0.3381 -0.2921  1.2142
  373MOL0     H51430   2.516   1.419   1.561 -0.3250  0.8903  1.5783
  373MOL0     H51431   2.655   1.480   1.465  0.4447 -1.1377  1.1212
  373MOL0     H51432   2.622   1.707   1.857  0.6438  1.1012  1.0267
  373MOL0     H51433   2.651   1.862   1.976 -0.9281  1.0425 -1.2569
  373MOL0     H51434   2.685   2.019   1.917  0.8715  0.0969 -2.6656
  373MOL0     H51435   2.813   1.927   2.009 -1.2400 -1.3102  1.4839
  373MOL0     H51436   2.962   2.300   1.642 -1.1261 -0.8180  3.9908
  373MOL0     H51437   3.118   2.476   1.708 -1.8083 -1.4105 -0.1789
  373MOL0     H51438   3.399   2.437   1.928  1.0591 -0.4772  1.0133
  373MOL0     H51439   3.540   2.387   1.827 -1.4773 -2.6976  0.4931
  373MOL0     H51440   3.435   2.683   1.869 -0.8644 -1.0428  1.6683
  373MOL0     H51441   3.547   2.587   1.968 -3.2866 -1.8888  1.1282
  373MOL0     H51442   3.591   2.607   1.657 -0.9489  0.9626 -0.3093
  373MOL0     H51443   3.702   2.577   1.793  0.7213 -0.4639 -1.5708
  373MOL0     H51444   3.658   2.816   1.877 -1.1194  0.3257  0.7073
  373MOL0     H51445   3.562   2.838   1.728 -0.2416 -0.3706  0.7005
  373MOL0     H51446   3.792   2.937   1.732  5.1050 -0.7499  0.1087
  373MOL0     H51447   3.855   2.775   1.756 -1.7259 -3.1745  0.3840
  373MOL0     H51448   3.813   2.696   1.559  1.6679 -0.5081  3.1764
  373MOL0     H51449   3.864   2.863   1.525 -0.5424  0.5714  0.0598
  373MOL0     H51450   3.634   2.936   1.512  2.4939  2.2299 -1.4428
  373MOL0     H51451   3.588   2.767   1.496 -1.0033  1.6033 -1.7869
  373MOL0     H51452   3.744   2.748   1.304 -0.5935 -1.7175  4.3917
  373MOL0     H51453   3.754   2.928   1.298  0.7011  0.1022  2.0597
  373MOL0     H51454   3.454   2.208   1.662 -0.4892 -1.1112 -0.8335
  373MOL0     H51455   3.299   2.031   1.641 -0.6292 -0.3607 -4.2110
  373MOL0     H51456   2.923   1.840   1.500  1.1988  1.2308  0.6571
  373MOL0     H51457   2.798   1.643   1.471  2.8159 -2.6455  1.8709
  373MOL0     H51458   2.847   0.609   2.252  0.0709  0.1487  0.1115
  373MOL0     H51459   3.051   0.501   2.367  1.0288  2.8650 -1.1294
  373MOL0     H51460   3.409   0.572   2.598 -0.3219  0.1710 -0.5104
  373MOL0     H51461   3.621   0.619   2.697 -1.7805 -2.1707 -1.1905
  373MOL0     H51462   3.813   0.637   2.821 -2.3015  1.1755 -1.5890
  373MOL0     H51463   3.723   0.764   2.892  3.0601  0.3263 -1.7903
  373MOL0     H51464   3.952   0.753   2.998 -0.6100  0.5469  0.9324
  373MOL0     H51465   3.904   0.596   3.068 -1.3437 -0.0677 -0.5372
  373MOL0     H51466   3.725   0.852   3.102  2.1222  0.3729 -1.9225
  373MOL0     H51467   3.730   0.710   3.188  0.9601  0.2901  2.0028
  373MOL0     H51468   3.978   0.776   3.257  1.2892  1.5379  0.5707
  373MOL0     H51469   3.849   0.855   3.337 -0.8066 -3.1048  0.6366
  373MOL0     H51470   4.053   1.179   3.180 -2.1876  1.3634 -2.2873
  373MOL0     H51471   3.468   0.481   3.073  0.6528  2.3727  0.8335
  373MOL0     H51472   3.172   0.355   2.953  0.8657 -1.0089  1.5290
  373MOL0     H51473   3.236   0.412   3.097  2.8385  0.4684 -1.0242
  373MOL0     H51474   3.127   0.526   3.009  1.2521  1.4887  0.8988
  374MOL0     O51475   8.084   6.744   0.422 -0.1149  0.4831 -0.1376
  374MOL0     C51476   8.079   6.868   0.427 -0.5249 -0.0209 -1.3018
  374MOL0     O51477   7.961   6.945   0.429 -0.2161  0.1756  0.6492
  374MOL0     C51478   7.843   6.877   0.461 -0.5874  0.8234 -0.2974
  374MOL0     C51479   7.737   6.891   0.380  0.0434 -0.1167  0.6939
  374MOL0     C51480   7.616   6.834   0.430 -0.1911  1.1291  0.6493
  374MOL0     C51481   7.605   6.754   0.551 -0.3357  0.1406  0.0899
  374MOL0     O51482   7.488   6.711   0.595  0.5761 -0.9680  0.5384
  374MOL0     C51483   7.474   6.583   0.670  0.0145  0.0465 -0.1088
  374MOL0     C51484   7.334   6.511   0.617 -1.0677  1.0589  0.5320
  374MOL0     C51485   7.213   6.600   0.592  0.9577 -0.4815  0.1428
  374MOL0     C51486   7.191   6.700   0.702  0.8787  0.0018  0.5671
  374MOL0     C51487   7.048   6.711   0.731  0.0976 -0.1682  0.3340
  374MOL0     C51488   7.017   6.787   0.860  0.3090 -0.2643 -0.1846
  374MOL0     C51489   6.883   6.738   0.919 -0.3473 -0.3133  0.5593
  374MOL0     C51490   6.772   6.712   0.819  0.6067  0.5451  0.6673
  374MOL0     N51491   6.634   6.721   0.873  0.1128  0.2963  0.8970
  374MOL0     C51492   6.598   6.657   0.982  0.4583  0.4402 -0.4745
  374MOL0     C51493   6.470   6.682   0.973 -0.3946  0.5901  0.1754
  374MOL0     C51494   6.366   6.648   1.069  0.1943 -0.2067 -0.1184
  374MOL0     C51495   6.244   6.588   0.991 -1.1141 -0.0212 -0.9754
  374MOL0     C51496   6.145   6.526   1.098 -0.2810 -0.5159  0.5202
  374MOL0     C51497   6.014   6.485   1.025 -0.1304 -0.2715  0.0777
  374MOL0     O51498   5.910   6.490   1.119  1.1588 -0.0140 -0.3976
  374MOL0     C51499   5.876   6.383   1.197 -0.3688 -0.2221 -0.6964
  374MOL0     C51500   5.769   6.404   1.276 -0.0216 -0.0169  0.6597
  374MOL0     C51501   5.733   6.323   1.386  0.5682 -0.4008  0.8593
  374MOL0     C51502   5.607   6.352   1.456 -0.4275  0.2754 -0.1436
  374MOL0     C51503   5.814   6.211   1.417 -0.2213 -0.2525  0.2373
  374MOL0     C51504   5.782   6.113   1.520  0.1689 -1.0753  0.2080
  374MOL0     O51505   5.810   5.986   1.506 -0.1519 -0.2513  0.4643
  374MOL0     C51506   5.816   5.904   1.618 -0.5563  0.4893 -0.5723
  374MOL0     C51507   5.753   5.775   1.618 -0.6098  0.1700  0.9979
  374MOL0     C51508   5.763   5.690   1.722  0.4715 -0.0526 -0.0201
  374MOL0     C51509   5.844   5.713   1.833  0.3304  0.0459  0.5140
  374MOL0     O51510   5.825   5.627   1.932  0.0430 -0.5457  0.0370
  374MOL0     C51511   5.915   5.641   2.049 -0.3873 -0.0508 -0.5236
  374MOL0     C51512   5.947   5.513   2.112  0.6724 -0.5932  0.3597
  374MOL0     C51513   6.061   5.525   2.213 -0.7941 -0.1342  0.5395
  374MOL0     C51514   6.071   5.415   2.312 -0.2792  0.6585 -0.9415
  374MOL0     C51515   6.164   5.302   2.273  0.0651 -0.0262 -0.2778
  374MOL0     C51516   6.203   5.239   2.415  0.0095  0.6577  0.3459
  374MOL0     C51517   6.248   5.090   2.415  0.4968 -0.8309 -0.2749
  374MOL0     C51518   6.361   5.058   2.318 -0.4339 -1.0030  0.1186
  374MOL0    Cl51519   6.454   4.915   2.365  0.4538 -0.2221  0.2681
  374MOL0     C51520   5.916   5.839   1.832 -0.5065 -0.2778 -0.0890
  374MOL0     C51521   5.907   5.922   1.721 -1.3907  1.1479  0.5348
  374MOL0     O51522   5.749   6.168   1.626 -0.1832  0.2084 -0.3407
  374MOL0     C51523   5.918   6.183   1.326 -0.8086 -0.9170  0.5191
  374MOL0     C51524   5.956   6.269   1.218 -0.2334  0.5823 -0.3390
  374MOL0     N51525   6.432   6.752   0.862 -1.0885  0.0714 -0.6539
  374MOL0     N51526   6.534   6.771   0.796 -0.2956  0.3635  0.0102
  374MOL0     C51527   7.724   6.733   0.629 -0.1588  0.6306  0.1183
  374MOL0     C51528   7.840   6.796   0.581 -0.8141 -0.0282  0.0087
  374MOL0     C51529   8.206   6.957   0.439  0.6626  0.0840 -0.6116
  374MOL0     C51530   8.183   7.096   0.429  0.4494  0.2142  0.2182
  374MOL0     C51531   8.293   7.184   0.441 -0.7517  0.2961  0.1579
  374MOL0     C51532   8.429   7.134   0.460  0.0458  1.1534  1.7658
  374MOL0     O51533   8.534   7.227   0.465  0.4682  0.1590 -0.5525
  374MOL0     C51534   8.675   7.182   0.464 -1.2851 -0.5003  0.3299
  374MOL0     C51535   8.768   7.309   0.483  0.0163  0.5851  0.3029
  374MOL0     C51536   8.771   7.410   0.356 -1.0991  0.5341 -0.4877
  374MOL0     C51537   8.858   7.350   0.242 -0.9004  0.0516  0.8333
  374MOL0     C51538   8.878   7.428   0.123  0.8881 -0.5111  0.1339
  374MOL0     C51539   8.884   7.496   0.028 -0.4270  0.0190 -0.0771
  374MOL0     C51540   8.443   6.996   0.478  0.1955 -0.0733  0.0367
  374MOL0     C51541   8.335   6.914   0.474 -0.2424  0.4360  0.1268
  374MOL0     C51542   8.362   6.763   0.470  0.7142 -0.0154  0.6343
  374MOL0     H51543   7.729   6.956   0.294 -2.7558 -1.5623 -0.2553
  374MOL0     H51544   7.528   6.838   0.367  1.1183  2.8335 -1.2206
  374MOL0     H51545   7.456   6.603   0.776  1.0878 -2.3046  0.5943
  374MOL0     H51546   7.553   6.508   0.663  2.0065  2.0740 -0.1799
  374MOL0     H51547   7.348   6.444   0.531 -0.0396 -0.2973  1.6984
  374MOL0     H51548   7.305   6.440   0.695 -1.1394 -1.0880 -1.3445
  374MOL0     H51549   7.233   6.656   0.500 -1.0967  0.3422  0.1499
  374MOL0     H51550   7.132   6.530   0.571  1.3781 -0.7166 -0.7382
  374MOL0     H51551   7.254   6.679   0.788  4.4847  2.6534 -1.1561
  374MOL0     H51552   7.227   6.798   0.668  2.1322 -1.5380 -3.0637
  374MOL0     H51553   7.003   6.612   0.733  0.4048 -0.3862 -1.8329
  374MOL0     H51554   6.999   6.775   0.657 -0.0628 -0.7011 -0.0182
  374MOL0     H51555   7.093   6.755   0.932  3.4716 -1.3344 -3.6868
  374MOL0     H51556   7.026   6.895   0.843 -2.7332  0.2360  0.7395
  374MOL0     H51557   6.847   6.828   0.971 -1.2540 -0.5784  0.4160
  374MOL0     H51558   6.888   6.652   0.985  1.1973 -1.0418 -0.4573
  374MOL0     H51559   6.769   6.781   0.735 -1.5571  1.3084  1.2911
  374MOL0     H51560   6.778   6.617   0.766  1.3252  1.6219 -1.2679
  374MOL0     H51561   6.653   6.591   1.049 -1.1557 -1.3292 -0.8218
  374MOL0     H51562   6.345   6.743   1.119  1.7855  0.3587 -0.4697
  374MOL0     H51563   6.397   6.578   1.147  0.3119 -0.7795 -0.6673
  374MOL0     H51564   6.195   6.675   0.945 -0.4175 -0.7984 -3.3430
  374MOL0     H51565   6.263   6.514   0.912 -1.9671 -1.1454 -0.1669
  374MOL0     H51566   6.183   6.433   1.139 -0.2675 -1.2136 -0.9943
  374MOL0     H51567   6.133   6.604   1.174 -1.7959  3.1978 -3.1030
  374MOL0     H51568   5.988   6.564   0.953  0.8450  0.5539  0.6182
  374MOL0     H51569   6.014   6.387   0.977 -1.8625  0.6024 -1.9395
  374MOL0     H51570   5.712   6.493   1.253  0.5033  0.4001  0.9486
  374MOL0     H51571   5.626   6.412   1.545 -1.0502  0.6472 -0.2496
  374MOL0     H51572   5.572   6.253   1.487  0.4887  0.4861  1.6632
  374MOL0     H51573   5.529   6.389   1.388  2.4183  0.8379 -3.3989
  374MOL0     H51574   5.691   5.753   1.531  0.3560 -4.6346  1.2527
  374MOL0     H51575   5.705   5.599   1.723 -1.5623  1.1491 -1.3504
  374MOL0     H51576   6.017   5.676   2.030  0.5854 -1.3664  1.8016
  374MOL0     H51577   5.859   5.701   2.123  2.6889  0.6960  1.3810
  374MOL0     H51578   5.858   5.480   2.166  1.1078  1.3948  2.4057
  374MOL0     H51579   5.977   5.435   2.041  0.4816 -1.4655  1.2180
  374MOL0     H51580   6.060   5.624   2.258 -2.2670  1.0248 -1.8245
  374MOL0     H51581   6.155   5.525   2.157 -0.6689  0.2934  0.7433
  374MOL0     H51582   5.974   5.375   2.346 -1.4751  3.6085 -0.6287
  374MOL0     H51583   6.122   5.454   2.400  0.4165 -2.9469  0.4421
  374MOL0     H51584   6.126   5.231   2.200  0.5176  1.1382 -1.6824
  374MOL0     H51585   6.258   5.335   2.228 -0.8728  0.1152 -2.2224
  374MOL0     H51586   6.117   5.240   2.483 -1.3671 -1.6561 -1.2261
  374MOL0     H51587   6.279   5.304   2.459  1.2259 -1.1161  0.9895
  374MOL0     H51588   6.162   5.034   2.377 -1.1311  1.2556  0.1821
  374MOL0     H51589   6.271   5.066   2.519  2.4199 -0.3241 -0.5391
  374MOL0     H51590   6.422   5.149   2.321 -2.1614  0.2160  3.0565
  374MOL0     H51591   6.318   5.052   2.218 -0.6401  2.8463 -0.1826
  374MOL0     H51592   5.983   5.869   1.912 -0.1253  1.9512 -1.1720
  374MOL0     H51593   5.972   6.009   1.711  0.9398 -0.6946 -1.7566
  374MOL0     H51594   5.967   6.086   1.325  1.2521 -0.0572 -3.1340
  374MOL0     H51595   6.044   6.242   1.160 -0.5048  1.1463 -1.0226
  374MOL0     H51596   7.743   6.666   0.712  3.8943  1.5483  0.1410
  374MOL0     H51597   7.928   6.783   0.643 -1.4852  1.4876  1.3619
  374MOL0     H51598   8.087   7.147   0.425  0.4474  0.1425 -0.8570
  374MOL0     H51599   8.284   7.292   0.442  2.1276  0.6759 -2.0388
  374MOL0     H51600   8.683   7.115   0.550 -0.0441  1.1513  1.5519
  374MOL0     H51601   8.721   7.137   0.375  0.5373  1.3220  0.2964
  374MOL0     H51602   8.864   7.261   0.502 -1.3546 -2.8411 -0.5710
  374MOL0     H51603   8.730   7.363   0.571  0.9683 -0.5951  1.4861
  374MOL0     H51604   8.670   7.411   0.314 -0.3808  0.7830 -2.2899
  374MOL0     H51605   8.798   7.514   0.378 -3.7603  1.2688 -0.2640
  374MOL0     H51606   8.816   7.255   0.206  2.7368 -0.3822 -3.1896
  374MOL0     H51607   8.960   7.327   0.275 -1.3014  2.9690  4.7872
  374MOL0     H51608   8.887   7.552  -0.064 -0.6757 -0.2685 -0.2593
  374MOL0     H51609   8.542   6.953   0.483  1.1584  1.7858 -1.8138
  374MOL0     H51610   8.453   6.741   0.527  1.0892  0.2320  0.1438
  374MOL0     H51611   8.283   6.715   0.528  0.3710 -2.1574 -1.4591
  374MOL0     H51612   8.364   6.724   0.368  1.4267 -1.0857  1.0475
  375MOL0     O51613  10.213   8.144   8.116 -0.1178  0.3560  0.5648
  375MOL0     C51614  10.107   8.208   8.150 -0.1772 -1.1179 -0.1210
  375MOL0     O51615  10.044   8.317   8.084 -0.3056 -0.0421  0.0506
  375MOL0     C51616  10.096   8.354   7.961  0.0784  0.4738  0.6253
  375MOL0     C51617  10.138   8.270   7.866 -1.5795 -0.2937  1.4732
  375MOL0     C51618  10.188   8.311   7.744 -0.3899  0.1007 -0.2535
  375MOL0     C51619  10.179   8.447   7.706  1.3831  0.6315 -0.2913
  375MOL0     O51620  10.198   8.498   7.579 -0.4512 -0.4171  0.0223
  375MOL0     C51621  10.292   8.433   7.492 -0.3454  0.3195 -0.2404
  375MOL0     C51622  10.253   8.443   7.348 -0.2858 -0.6562  0.4789
  375MOL0     C51623  10.367   8.399   7.260 -0.0610 -0.5598  0.0825
  375MOL0     C51624  10.361   8.419   7.109  0.4411 -0.0148  0.9400
  375MOL0     C51625  10.502   8.407   7.045  0.1834  0.3413  1.3079
  375MOL0     C51626  10.551   8.265   7.017 -1.0661  0.3265 -0.4022
  375MOL0     C51627  10.692   8.253   6.951  0.5464  0.1179 -0.4645
  375MOL0     C51628  10.818   8.302   7.019  0.1041 -0.0886 -0.1710
  375MOL0     N51629  10.930   8.292   6.932 -0.1240  0.0976  0.2327
  375MOL0     C51630  11.003   8.184   6.894  1.1225 -0.6706  0.4499
  375MOL0     C51631  11.132   8.214   6.871 -0.4228  0.8765 -1.3879
  375MOL0     C51632  11.254   8.140   6.833 -0.4418  0.1824  0.9732
  375MOL0     C51633  11.262   7.995   6.876  0.1222 -1.0041  0.1742
  375MOL0     C51634  11.395   7.978   6.947 -0.5876  0.1556 -0.2308
  375MOL0     C51635  11.515   7.959   6.855  0.3044 -0.6448  0.0718
  375MOL0     O51636  11.541   8.080   6.782 -0.4433  0.0255 -0.4418
  375MOL0     C51637  11.603   8.073   6.661 -0.7147 -0.2377 -0.0441
  375MOL0     C51638  11.586   7.965   6.575 -0.6342  0.6979 -0.5570
  375MOL0     C51639  11.669   7.930   6.476 -1.1339 -1.0349 -0.1844
  375MOL0     C51640  11.652   7.799   6.403 -1.0792 -1.0375 -0.7190
  375MOL0     C51641  11.779   8.016   6.451  0.2831 -0.0353  0.1797
  375MOL0     C51642  11.866   7.986   6.334  0.2445 -0.1122 -0.4288
  375MOL0     O51643  11.998   7.982   6.363 -0.0372 -0.3636 -0.4645
  375MOL0     C51644  12.095   8.014   6.277 -0.4422  0.1421 -0.7172
  375MOL0     C51645  12.132   7.929   6.172 -0.1917 -0.1112  0.2583
  375MOL0     C51646  12.207   7.987   6.069  0.3270  1.2599  0.4617
  375MOL0     C51647  12.233   8.123   6.063  0.5118  0.4806 -0.1626
  375MOL0     O51648  12.286   8.166   5.942 -0.2388 -1.2801 -0.3615
  375MOL0     C51649  12.301   8.305   5.911 -0.0223  0.4894  0.8599
  375MOL0     C51650  12.325   8.317   5.759 -0.1966  0.7495  0.2682
  375MOL0     C51651  12.472   8.290   5.716  0.3506 -0.6133 -0.5288
  375MOL0     C51652  12.470   8.252   5.577 -0.4076  0.0970  0.5362
  375MOL0     C51653  12.619   8.228   5.529  0.8271 -0.1709  0.3359
  375MOL0     C51654  12.706   8.353   5.540  0.0047 -0.4779  0.8409
  375MOL0     C51655  12.665   8.450   5.415 -1.2301  0.1042  0.2586
  375MOL0     C51656  12.740   8.397   5.289 -0.3235  0.4754 -0.0300
  375MOL0    Cl51657  12.616   8.381   5.168  0.2904 -0.1400  0.3148
  375MOL0     C51658  12.204   8.202   6.174 -0.0461  0.6490 -0.7081
  375MOL0     C51659  12.148   8.142   6.282 -0.3719 -0.2903 -1.1500
  375MOL0     O51660  11.823   7.957   6.222 -0.0542 -0.1811  0.4808
  375MOL0     C51661  11.789   8.139   6.529 -0.2645 -0.6569  1.0719
  375MOL0     C51662  11.713   8.164   6.644  0.6912  0.5331  0.2453
  375MOL0     N51663  11.138   8.356   6.871  0.1515 -0.1180 -0.2556
  375MOL0     N51664  11.021   8.393   6.910 -0.8058  0.0711 -0.0942
  375MOL0     C51665  10.120   8.535   7.801 -0.8693  0.9098 -0.2429
  375MOL0     C51666  10.087   8.486   7.928 -0.6488 -0.0542  0.3407
  375MOL0     C51667  10.056   8.174   8.285  0.5774  0.2309  0.2581
  375MOL0     C51668   9.909   8.169   8.299 -0.9409 -1.2371  0.0256
  375MOL0     C51669   9.863   8.139   8.425 -0.2677  0.1883  0.5327
  375MOL0     C51670   9.944   8.100   8.534 -0.1308  0.3787 -0.0134
  375MOL0     O51671   9.877   8.083   8.655 -0.1699 -0.0937 -0.3165
  375MOL0     C51672   9.937   8.011   8.764 -0.1799  0.4314 -0.9114
  375MOL0     C51673  10.006   8.110   8.853  0.1557  0.3427 -0.3373
  375MOL0     C51674   9.902   8.217   8.914  0.2863 -0.3980 -0.4269
  375MOL0     C51675   9.800   8.169   9.023  0.6850  0.0068  0.4568
  375MOL0     C51676   9.835   8.039   9.078 -0.2819 -0.0406  0.7112
  375MOL0     C51677   9.884   7.934   9.112  0.5603  0.3154  0.3618
  375MOL0     C51678  10.084   8.099   8.508 -0.0695  0.5775 -0.3886
  375MOL0     C51679  10.139   8.149   8.395  0.0061  0.0943  0.2562
  375MOL0     C51680  10.288   8.173   8.393 -0.7589 -0.1023 -0.1296
  375MOL0     H51681  10.128   8.162   7.876 -1.4209 -0.4015  0.5756
  375MOL0     H51682  10.226   8.233   7.678  2.6776 -0.4101  1.9198
  375MOL0     H51683  10.312   8.331   7.525 -0.3826  1.1203  2.5125
  375MOL0     H51684  10.389   8.483   7.504  1.4629 -2.1926 -3.0298
  375MOL0     H51685  10.161   8.384   7.343 -1.3171  0.6532  2.4674
  375MOL0     H51686  10.234   8.549   7.329 -0.1777 -0.6240  0.5446
  375MOL0     H51687  10.460   8.449   7.287 -1.0183  2.7141 -2.0645
  375MOL0     H51688  10.388   8.296   7.289  1.5184 -0.6310 -1.1525
  375MOL0     H51689  10.300   8.340   7.065  1.7595 -0.4656 -0.1744
  375MOL0     H51690  10.305   8.511   7.089 -3.2663 -2.7121 -2.7101
  375MOL0     H51691  10.566   8.476   7.101 -0.4551  0.8454  1.4292
  375MOL0     H51692  10.492   8.452   6.946 -2.3957 -1.6550  0.5343
  375MOL0     H51693  10.545   8.209   7.111 -2.9183 -0.1720 -0.7847
  375MOL0     H51694  10.487   8.214   6.945 -0.4638  0.3865 -0.9942
  375MOL0     H51695  10.697   8.313   6.859  1.7873 -0.1275 -0.5701
  375MOL0     H51696  10.705   8.147   6.928  0.8764  0.0564 -0.0011
  375MOL0     H51697  10.806   8.404   7.059 -0.8861 -0.5900  0.8752
  375MOL0     H51698  10.838   8.241   7.108  1.8441  1.0897  0.3019
  375MOL0     H51699  10.959   8.085   6.898 -1.6226  0.5022  2.2145
  375MOL0     H51700  11.335   8.204   6.870 -0.2975  0.3527  0.3764
  375MOL0     H51701  11.254   8.130   6.724 -0.9447 -2.1556  1.1408
  375MOL0     H51702  11.175   7.979   6.939  0.7935 -0.7782  1.1779
  375MOL0     H51703  11.254   7.935   6.784 -3.0396 -0.7535  0.1750
  375MOL0     H51704  11.419   8.067   7.007 -0.3664 -1.4382  2.1829
  375MOL0     H51705  11.387   7.897   7.021 -0.1626  1.9270  1.8643
  375MOL0     H51706  11.600   7.937   6.919  0.5902 -1.4362 -0.5610
  375MOL0     H51707  11.510   7.858   6.813 -1.1254 -0.5442 -0.0509
  375MOL0     H51708  11.506   7.894   6.596  0.1428 -0.5187 -1.5750
  375MOL0     H51709  11.622   7.816   6.299 -3.3100  0.9225  0.1370
  375MOL0     H51710  11.581   7.736   6.457  0.1630  0.2573  2.7404
  375MOL0     H51711  11.753   7.760   6.415 -1.8971 -2.5743  2.2180
  375MOL0     H51712  12.101   7.825   6.176 -1.8843  0.3499  3.9991
  375MOL0     H51713  12.236   7.918   5.992  1.9502 -0.4739  2.5018
  375MOL0     H51714  12.215   8.368   5.937 -1.1505 -0.6688  0.0863
  375MOL0     H51715  12.388   8.331   5.971  1.0091 -2.5803  0.9071
  375MOL0     H51716  12.253   8.249   5.712 -3.4991  2.0612  3.0384
  375MOL0     H51717  12.302   8.418   5.724  1.3889  0.6459 -1.1768
  375MOL0     H51718  12.509   8.208   5.778 -0.9830  1.1263  2.8056
  375MOL0     H51719  12.531   8.381   5.728 -0.6939  0.4025 -2.5455
  375MOL0     H51720  12.407   8.311   5.510 -1.1095 -2.0446 -0.8193
  375MOL0     H51721  12.422   8.154   5.568  2.1321 -1.2322  0.7723
  375MOL0     H51722  12.662   8.158   5.601 -1.4919 -0.7153  1.2854
  375MOL0     H51723  12.617   8.190   5.427 -2.0303 -1.4395  0.7636
  375MOL0     H51724  12.814   8.347   5.555  0.7782  2.3101 -2.4209
  375MOL0     H51725  12.692   8.413   5.630  1.8321  1.9898 -0.4084
  375MOL0     H51726  12.707   8.549   5.435 -0.4577 -0.7142  3.2141
  375MOL0     H51727  12.560   8.476   5.406 -0.7179  2.1668 -0.3105
  375MOL0     H51728  12.799   8.307   5.306 -0.1592  0.5042 -0.4402
  375MOL0     H51729  12.811   8.477   5.265 -1.1692  1.3159  0.1876
  375MOL0     H51730  12.237   8.305   6.182 -1.6998  1.1610  0.0959
  375MOL0     H51731  12.104   8.193   6.367 -2.6815 -1.1019 -1.7811
  375MOL0     H51732  11.855   8.222   6.506  1.4384 -2.7596 -2.4169
  375MOL0     H51733  11.735   8.250   6.707  3.8731  1.2924 -1.6501
  375MOL0     H51734  10.096   8.638   7.778  0.3936  2.1835  3.4901
  375MOL0     H51735  10.039   8.561   7.989 -0.8780  1.2849 -1.4326
  375MOL0     H51736   9.835   8.197   8.225 -1.7749  0.0413  1.3075
  375MOL0     H51737   9.755   8.151   8.435 -0.7673 -2.3218 -1.1027
  375MOL0     H51738   9.871   7.948   8.824  1.3946  1.1465  1.7480
  375MOL0     H51739  10.024   7.956   8.729 -0.3483  0.2140 -0.9890
  375MOL0     H51740  10.082   8.153   8.787  2.1710 -1.7127  0.4886
  375MOL0     H51741  10.067   8.071   8.935  1.0633  3.1123  0.4085
  375MOL0     H51742   9.966   8.289   8.965 -1.5469  0.4909  0.7111
  375MOL0     H51743   9.859   8.287   8.842 -0.8842  2.5367  2.8374
  375MOL0     H51744   9.700   8.152   8.981  1.2170 -0.7815 -0.5305
  375MOL0     H51745   9.786   8.243   9.102 -0.3218 -1.3893  1.6433
  375MOL0     H51746   9.938   7.845   9.137  3.6878  1.8337 -0.4668
  375MOL0     H51747  10.152   8.063   8.585 -3.1106 -3.9372  0.6436
  375MOL0     H51748  10.327   8.267   8.353 -0.7726 -0.8241 -1.9810
  375MOL0     H51749  10.334   8.152   8.490  2.9011 -4.3515 -2.4098
  375MOL0     H51750  10.342   8.100   8.332 -0.5243  1.1701 -1.5259
  376MOL0     O51751   6.359  10.444   1.632  0.0855 -0.1751  0.5328
  376MOL0     C51752   6.347  10.359   1.721  0.6635  0.7925  1.4672
  376MOL0     O51753   6.243  10.348   1.810  0.3602 -0.3917  0.2830
  376MOL0     C51754   6.142  10.435   1.809 -0.2091  0.0224  0.2083
  376MOL0     C51755   6.167  10.569   1.786 -0.6888 -0.0090 -0.8531
  376MOL0     C51756   6.067  10.665   1.790 -0.9765  0.8347 -0.4497
  376MOL0     C51757   5.937  10.629   1.829  0.2559  0.0416  0.0781
  376MOL0     O51758   5.847  10.734   1.838 -0.2325 -0.0951  0.5321
  376MOL0     C51759   5.718  10.705   1.891  0.0832  0.2911  0.2427
  376MOL0     C51760   5.637  10.825   1.911 -0.8557  0.0825  0.1169
  376MOL0     C51761   5.559  10.862   1.790 -0.5772 -1.0498  0.8475
  376MOL0     C51762   5.504  11.004   1.799 -1.2044  0.1367  0.3140
  376MOL0     C51763   5.422  11.037   1.672  0.0460 -0.2011 -0.2389
  376MOL0     C51764   5.294  10.954   1.663 -0.2289  0.0535 -1.2115
  376MOL0     C51765   5.193  11.007   1.554  0.1044 -0.2180  0.2496
  376MOL0     C51766   5.209  10.970   1.409 -0.6722  0.4145 -0.0723
  376MOL0     N51767   5.333  11.029   1.359  0.0715  0.1721 -0.3075
  376MOL0     C51768   5.357  11.164   1.344 -0.9932 -0.5589 -0.5424
  376MOL0     C51769   5.491  11.168   1.315  0.4302  0.1034 -0.4500
  376MOL0     C51770   5.576  11.293   1.300 -0.0702  0.8382 -0.1456
  376MOL0     C51771   5.688  11.292   1.409 -0.4288 -0.3999 -0.4150
  376MOL0     C51772   5.823  11.248   1.355 -0.7421  0.1586 -0.5211
  376MOL0     C51773   5.938  11.234   1.461 -0.0542  0.2889 -1.2086
  376MOL0     O51774   5.899  11.131   1.561 -0.2188  0.8996 -0.1008
  376MOL0     C51775   5.897  11.150   1.699  0.0856  0.0112  0.6679
  376MOL0     C51776   5.856  11.266   1.759  0.1234  0.2619 -0.0073
  376MOL0     C51777   5.855  11.272   1.893  0.7493 -0.7292 -0.5679
  376MOL0     C51778   5.797  11.398   1.955 -0.0908 -0.3908 -0.4447
  376MOL0     C51779   5.889  11.160   1.971 -0.9687 -0.4966  0.3382
  376MOL0     C51780   5.890  11.165   2.119 -0.0413 -0.9339 -0.1082
  376MOL0     O51781   5.848  11.042   2.170 -0.8838 -0.1786  0.2835
  376MOL0     C51782   5.835  11.021   2.307 -0.0495  0.0611  0.2049
  376MOL0     C51783   5.934  10.947   2.377  0.1522 -0.0567  0.9700
  376MOL0     C51784   5.910  10.897   2.500  0.4294 -1.0362 -0.4265
  376MOL0     C51785   5.789  10.952   2.566 -0.0863 -0.5612 -0.2909
  376MOL0     O51786   5.753  10.936   2.703 -0.8321  0.0344 -0.4529
  376MOL0     C51787   5.865  10.963   2.788 -0.8903 -0.5155  0.1595
  376MOL0     C51788   5.838  10.929   2.928 -0.0415  0.3305  0.0282
  376MOL0     C51789   5.823  10.773   2.936 -0.0581  0.5091 -0.4907
  376MOL0     C51790   5.849  10.718   3.082  0.7023  0.1463  0.3579
  376MOL0     C51791   5.835  10.567   3.077 -0.2246  0.5782 -0.2636
  376MOL0     C51792   5.861  10.502   3.224  0.1213 -0.3277  0.4982
  376MOL0     C51793   5.815  10.357   3.237  0.3645 -0.4761 -0.5077
  376MOL0     C51794   5.699  10.331   3.344  0.0945 -0.5717  0.4503
  376MOL0    Cl51795   5.746  10.337   3.510  0.3466 -0.5064  0.1384
  376MOL0     C51796   5.683  11.015   2.500 -0.8568  0.4517 -0.5553
  376MOL0     C51797   5.710  11.048   2.371  0.2958 -0.2929 -0.5268
  376MOL0     O51798   5.920  11.265   2.185 -0.1545  0.2071 -0.0119
  376MOL0     C51799   5.942  11.051   1.909 -0.6780  0.2166  0.3443
  376MOL0     C51800   5.945  11.039   1.772 -0.3647  0.2558  0.6235
  376MOL0     N51801   5.534  11.037   1.301  0.5224 -0.3806 -0.2970
  376MOL0     N51802   5.439  10.961   1.330 -0.4661 -0.1361 -0.3590
  376MOL0     C51803   5.912  10.491   1.855 -0.5019 -0.2026  0.4055
  376MOL0     C51804   6.014  10.397   1.850 -1.2557  0.4363 -0.6994
  376MOL0     C51805   6.454  10.262   1.745  0.6844  0.9188 -0.7587
  376MOL0     C51806   6.531  10.238   1.634 -0.3156  1.4420  0.2165
  376MOL0     C51807   6.653  10.172   1.644  0.5802  0.1161  0.3051
  376MOL0     C51808   6.690  10.128   1.774 -0.0943 -0.2793  0.3353
  376MOL0     O51809   6.809  10.065   1.804 -0.3445 -0.0069 -0.3421
  376MOL0     C51810   6.876   9.983   1.706  0.3109 -0.6227 -0.2503
  376MOL0     C51811   6.921   9.851   1.783  0.5417  0.7166 -0.5978
  376MOL0     C51812   6.804   9.754   1.812  1.1549 -0.3489 -0.4996
  376MOL0     C51813   6.819   9.675   1.936 -0.3165  0.3574  0.5703
  376MOL0     C51814   6.805   9.763   2.050 -0.8625  0.1922 -0.2474
  376MOL0     C51815   6.793   9.841   2.134  0.0036  0.1631  0.2936
  376MOL0     C51816   6.616  10.156   1.892  0.6474 -0.7947 -0.2219
  376MOL0     C51817   6.493  10.227   1.880  0.2249 -0.8107  0.4950
  376MOL0     C51818   6.430  10.281   2.000  0.4800  0.1436  0.6681
  376MOL0     H51819   6.265  10.609   1.761  0.6424 -1.6478  1.3838
  376MOL0     H51820   6.095  10.764   1.755  3.0619  0.8477  2.2447
  376MOL0     H51821   5.725  10.657   1.989 -0.0460  0.9479  0.5821
  376MOL0     H51822   5.663  10.645   1.817 -0.5290  3.9634 -2.6215
  376MOL0     H51823   5.577  10.811   2.001 -1.6359 -0.9970 -0.5437
  376MOL0     H51824   5.702  10.907   1.943  0.5049 -1.2249  0.8731
  376MOL0     H51825   5.625  10.864   1.703 -0.4210  1.5829  0.9689
  376MOL0     H51826   5.479  10.789   1.770 -2.0853  0.8741 -0.4890
  376MOL0     H51827   5.437  11.002   1.885 -0.2704 -3.2091  1.0783
  376MOL0     H51828   5.583  11.079   1.809 -0.0851 -0.9128 -0.3210
  376MOL0     H51829   5.479  11.023   1.579 -1.1848  0.4640 -1.1143
  376MOL0     H51830   5.389  11.141   1.664  2.5385  0.6785  0.0847
  376MOL0     H51831   5.327  10.852   1.639  3.0823 -0.1302  2.9455
  376MOL0     H51832   5.252  10.942   1.763 -0.7744  1.3192 -1.2781
  376MOL0     H51833   5.188  11.116   1.556  2.3265 -0.0483 -1.0107
  376MOL0     H51834   5.091  10.978   1.583 -0.1687  0.7817  0.3123
  376MOL0     H51835   5.219  10.861   1.409  3.6738  0.6499 -0.0345
  376MOL0     H51836   5.121  10.992   1.348  0.3652 -1.5564 -2.4157
  376MOL0     H51837   5.282  11.243   1.354 -1.1777 -0.7746 -0.1775
  376MOL0     H51838   5.516  11.384   1.306  2.4133  2.5238  0.7715
  376MOL0     H51839   5.617  11.294   1.199  0.8052 -2.8552  0.0607
  376MOL0     H51840   5.681  11.397   1.442  1.2924 -0.2728 -0.3995
  376MOL0     H51841   5.652  11.225   1.487 -1.2709  0.8527  0.3203
  376MOL0     H51842   5.804  11.152   1.306 -0.4240 -0.8454  1.2585
  376MOL0     H51843   5.859  11.324   1.284  0.3751 -2.3167 -2.7689
  376MOL0     H51844   6.032  11.200   1.417  0.1673 -1.7168  0.6380
  376MOL0     H51845   5.935  11.331   1.510 -3.2929  0.3693 -1.3133
  376MOL0     H51846   5.821  11.359   1.717 -3.0614 -1.0880 -0.5909
  376MOL0     H51847   5.740  11.458   1.882 -1.8770  0.5440  1.5976
  376MOL0     H51848   5.876  11.461   1.995 -0.8708  0.0563  0.4265
  376MOL0     H51849   5.732  11.387   2.042 -0.6901 -1.2273 -0.9758
  376MOL0     H51850   6.024  10.946   2.317 -0.9440 -1.9101 -0.7829
  376MOL0     H51851   5.982  10.835   2.553  0.5080 -0.1074  0.5782
  376MOL0     H51852   5.955  10.909   2.754  0.1410  0.3567  1.4283
  376MOL0     H51853   5.884  11.070   2.781 -1.0597 -0.5161 -0.3765
  376MOL0     H51854   5.915  10.963   2.998 -0.9809  0.9175  0.7955
  376MOL0     H51855   5.749  10.975   2.970 -0.2780 -0.3138  0.2418
  376MOL0     H51856   5.900  10.738   2.866 -1.1149 -1.0252 -0.9252
  376MOL0     H51857   5.722  10.754   2.900 -0.0475  0.5975 -0.5685
  376MOL0     H51858   5.786  10.761   3.160  1.6109 -2.1965  2.5438
  376MOL0     H51859   5.951  10.754   3.101 -0.5317  2.4099  3.6705
  376MOL0     H51860   5.729  10.554   3.052 -0.5107  2.1731  0.0234
  376MOL0     H51861   5.894  10.536   2.990  0.3522  0.7362  0.0640
  376MOL0     H51862   5.811  10.557   3.304 -0.0102 -1.1042  0.9587
  376MOL0     H51863   5.968  10.502   3.247  0.1774 -0.2211  0.2404
  376MOL0     H51864   5.900  10.299   3.275 -0.6294 -0.4588  1.8738
  376MOL0     H51865   5.777  10.326   3.139 -2.6501 -1.8586  0.9563
  376MOL0     H51866   5.663  10.228   3.335  3.5956 -1.7825 -1.7221
  376MOL0     H51867   5.620  10.399   3.312  2.8806  3.1551  0.8639
  376MOL0     H51868   5.591  11.048   2.547 -1.2430  0.3098 -1.2003
  376MOL0     H51869   5.631  11.092   2.311  0.4906 -1.5942 -1.7871
  376MOL0     H51870   5.977  10.958   1.954 -1.5180 -1.0258 -1.4554
  376MOL0     H51871   5.970  10.948   1.719 -1.9448  0.0023  0.2674
  376MOL0     H51872   5.822  10.448   1.898 -1.8008 -0.0283 -1.9568
  376MOL0     H51873   6.000  10.295   1.884 -3.6345 -0.7129 -4.4760
  376MOL0     H51874   6.515  10.272   1.533 -0.3150 -0.5175 -0.4856
  376MOL0     H51875   6.710  10.157   1.552  1.3290  2.8917  0.2151
  376MOL0     H51876   6.813   9.949   1.624 -1.8349 -2.2664  1.9304
  376MOL0     H51877   6.946  10.049   1.654 -2.1321  0.7729 -1.9869
  376MOL0     H51878   6.967   9.879   1.878 -1.0473 -1.4724  0.9312
  376MOL0     H51879   6.992   9.790   1.726 -0.0045 -0.9796  0.4537
  376MOL0     H51880   6.704   9.800   1.813 -0.8495 -4.2316 -0.0388
  376MOL0     H51881   6.788   9.688   1.726  0.7718  0.6253 -1.1949
  376MOL0     H51882   6.917   9.626   1.935 -0.4133  0.1595  0.7387
  376MOL0     H51883   6.741   9.599   1.939  0.2255 -0.1830  1.1974
  376MOL0     H51884   6.771   9.906   2.216 -0.5848  2.0649 -1.2557
  376MOL0     H51885   6.658  10.141   1.991  2.5806  0.7570 -0.7490
  376MOL0     H51886   6.328  10.248   2.023  0.8089  0.6117  3.1542
  376MOL0     H51887   6.494  10.251   2.084  0.3237 -2.1356  0.0373
  376MOL0     H51888   6.428  10.390   1.998 -2.0480  0.1541  1.1833
  377MOL0     O51889   3.147   7.669   2.811  0.0865 -0.9810  0.5460
  377MOL0     C51890   3.127   7.669   2.933  0.6915  0.0176 -0.3251
  377MOL0     O51891   3.084   7.568   3.006  0.0274  0.2214 -0.3849
  377MOL0     C51892   3.079   7.449   2.948  0.0001  0.2632  1.4719
  377MOL0     C51893   3.167   7.344   2.989  0.6984  0.6824 -0.5148
  377MOL0     C51894   3.150   7.208   2.932  0.6338 -0.9484 -0.9719
  377MOL0     C51895   3.061   7.185   2.834  0.6974  0.0669  0.2749
  377MOL0     O51896   3.054   7.058   2.806 -0.3037  0.5575 -0.7219
  377MOL0     C51897   2.977   7.004   2.700 -0.1177 -0.1211  0.2587
  377MOL0     C51898   3.024   6.854   2.705  0.2817  0.0017 -0.1139
  377MOL0     C51899   2.950   6.765   2.606 -1.0417 -0.4006  0.8476
  377MOL0     C51900   2.996   6.803   2.469 -0.0979 -0.5746  0.5861
  377MOL0     C51901   2.954   6.695   2.365  0.1832 -0.3711  0.1388
  377MOL0     C51902   2.978   6.726   2.222  0.3575  0.0757 -0.3967
  377MOL0     C51903   3.121   6.784   2.203  0.5849  0.0616 -0.2497
  377MOL0     C51904   3.148   6.823   2.062  0.5180  0.4174 -0.5406
  377MOL0     N51905   3.074   6.936   2.024 -0.1860 -0.1125  0.2797
  377MOL0     C51906   3.119   7.066   2.038  0.0700 -0.2470  0.1604
  377MOL0     C51907   3.029   7.139   1.986  0.0387 -0.8408 -0.0726
  377MOL0     C51908   3.039   7.291   1.960 -0.7792 -0.3467 -0.2535
  377MOL0     C51909   2.905   7.359   1.932 -1.0368  0.5728  0.7615
  377MOL0     C51910   2.812   7.358   2.055 -0.3240 -0.0326  0.0996
  377MOL0     C51911   2.676   7.421   2.035 -0.2177  0.7977 -0.0752
  377MOL0     O51912   2.698   7.564   2.026 -0.8281  0.0002 -0.0783
  377MOL0     C51913   2.585   7.632   1.988  0.2043  0.4477  0.0655
  377MOL0     C51914   2.453   7.598   2.025 -0.3309 -0.6275  0.4330
  377MOL0     C51915   2.342   7.667   1.977  0.0840  0.0728 -0.6847
  377MOL0     C51916   2.206   7.623   2.027 -0.7858 -0.3326  0.8540
  377MOL0     C51917   2.359   7.783   1.895 -0.3381  0.4339 -0.5662
  377MOL0     C51918   2.251   7.872   1.841 -0.0040  0.3430 -0.6712
  377MOL0     O51919   2.288   8.007   1.811 -0.1050  0.5292  0.1412
  377MOL0     C51920   2.194   8.108   1.802  0.1100 -0.6258 -0.5075
  377MOL0     C51921   2.214   8.213   1.708 -0.2439  0.6160 -0.6283
  377MOL0     C51922   2.123   8.315   1.691  0.4476  1.1526 -0.6520
  377MOL0     C51923   2.004   8.314   1.769 -0.0422  0.1863 -0.5236
  377MOL0     O51924   1.899   8.397   1.747  0.3135 -0.2230  0.7378
  377MOL0     C51925   1.921   8.525   1.697 -0.4144 -0.6860  0.3707
  377MOL0     C51926   1.807   8.618   1.755 -0.7365  0.8048  0.9544
  377MOL0     C51927   1.840   8.767   1.735 -0.5095 -0.2815  0.0140
  377MOL0     C51928   1.811   8.833   1.599  0.6293  0.1338  0.2679
  377MOL0     C51929   1.935   8.858   1.514 -0.2222  0.1261 -0.4312
  377MOL0     C51930   1.904   8.859   1.364 -0.1696  0.3913 -0.3462
  377MOL0     C51931   2.030   8.823   1.279 -0.5999 -0.8573  0.6194
  377MOL0     C51932   2.163   8.895   1.323 -0.3113 -0.3444 -0.3621
  377MOL0    Cl51933   2.309   8.803   1.271 -0.1241  0.1850 -0.0872
  377MOL0     C51934   1.993   8.223   1.880  0.2727 -0.7093  1.1742
  377MOL0     C51935   2.090   8.119   1.894 -0.1073  0.6750 -0.1035
  377MOL0     O51936   2.144   7.820   1.828  0.0030 -0.1463 -0.6653
  377MOL0     C51937   2.496   7.820   1.864  0.0521  0.2926 -1.2584
  377MOL0     C51938   2.606   7.740   1.914 -0.3354 -0.3320  0.1969
  377MOL0     N51939   2.928   7.054   1.933  0.2760 -0.0086  0.3233
  377MOL0     N51940   2.962   6.944   1.953 -0.4708  1.1658  0.1315
  377MOL0     C51941   2.990   7.288   2.785  0.3531 -0.5178  0.3447
  377MOL0     C51942   2.992   7.419   2.839 -0.9304 -0.5326  0.2353
  377MOL0     C51943   3.160   7.790   3.011  0.0227  0.3516  0.0704
  377MOL0     C51944   3.205   7.777   3.140 -0.0817  0.7416  0.4404
  377MOL0     C51945   3.265   7.883   3.213  0.1036  0.0814 -0.5913
  377MOL0     C51946   3.249   8.005   3.164 -0.8079  0.1099  0.2434
  377MOL0     O51947   3.300   8.120   3.219  0.0623  0.2715  0.2154
  377MOL0     C51948   3.378   8.112   3.342 -0.0878 -0.9895  0.2425
  377MOL0     C51949   3.297   8.114   3.473  0.3400 -0.6969  0.3004
  377MOL0     C51950   3.387   8.189   3.573 -0.3333  0.1185  0.1814
  377MOL0     C51951   3.323   8.152   3.711  0.4274  0.1534 -0.0265
  377MOL0     C51952   3.408   8.223   3.806 -0.3613  0.1152  0.1522
  377MOL0     C51953   3.490   8.275   3.874  0.2960 -0.9341  0.1700
  377MOL0     C51954   3.196   8.032   3.038 -0.4355 -0.7826  0.5509
  377MOL0     C51955   3.141   7.929   2.961  0.1148  0.3519  0.1078
  377MOL0     C51956   3.078   7.960   2.829 -0.2195 -0.6755 -0.2865
  377MOL0     H51957   3.243   7.362   3.064 -1.1555 -1.6705  2.1588
  377MOL0     H51958   3.217   7.127   2.959 -0.4958 -2.0529 -1.3953
  377MOL0     H51959   3.005   7.046   2.602 -2.7465  0.0288 -0.5039
  377MOL0     H51960   2.870   7.017   2.721  0.2844 -0.0642  2.4977
  377MOL0     H51961   3.133   6.851   2.705  0.3016 -0.4779  1.6821
  377MOL0     H51962   2.999   6.824   2.807 -0.6641  0.5513 -0.1641
  377MOL0     H51963   2.975   6.660   2.622  4.2275 -0.3509 -3.8011
  377MOL0     H51964   2.845   6.794   2.616 -1.6898 -1.3042 -2.2651
  377MOL0     H51965   2.955   6.899   2.436  2.2560  0.0929 -0.5785
  377MOL0     H51966   3.104   6.821   2.474  0.4329 -1.6312 -3.6416
  377MOL0     H51967   2.846   6.688   2.383  0.0715  2.8820  1.5508
  377MOL0     H51968   3.001   6.598   2.383  0.3994 -0.2392  0.2982
  377MOL0     H51969   2.974   6.644   2.149  0.6256  1.8957 -2.5645
  377MOL0     H51970   2.904   6.801   2.192  0.3019 -0.0857 -0.6591
  377MOL0     H51971   3.188   6.703   2.234  1.3179  1.2387  1.3882
  377MOL0     H51972   3.133   6.868   2.272  0.5726  0.4671 -0.7361
  377MOL0     H51973   3.253   6.818   2.032  0.9554  3.2033  0.1531
  377MOL0     H51974   3.100   6.744   2.005  0.7681 -0.2808  0.1963
  377MOL0     H51975   3.207   7.099   2.093 -1.7828  3.6125  1.1765
  377MOL0     H51976   3.108   7.321   1.880  0.1667 -0.8438  0.3667
  377MOL0     H51977   3.087   7.345   2.042  0.7732  1.3826 -2.1613
  377MOL0     H51978   2.932   7.456   1.888 -0.7777  1.1199  2.0802
  377MOL0     H51979   2.866   7.303   1.847  1.0800 -1.8333  1.2499
  377MOL0     H51980   2.783   7.257   2.086  1.1148 -0.5184 -0.0846
  377MOL0     H51981   2.857   7.412   2.139 -1.6298  0.6153  0.4037
  377MOL0     H51982   2.637   7.383   1.940 -1.2153 -1.8850  1.2918
  377MOL0     H51983   2.616   7.395   2.123  3.6867  3.5473  3.8854
  377MOL0     H51984   2.443   7.522   2.102  0.0997 -0.2639  0.8496
  377MOL0     H51985   2.203   7.539   2.098 -0.2424 -2.2077 -1.2181
  377MOL0     H51986   2.144   7.589   1.943  0.5063 -1.4197  0.2970
  377MOL0     H51987   2.160   7.710   2.074 -0.0683  1.8961 -2.2381
  377MOL0     H51988   2.305   8.197   1.652  0.9392  0.7634  1.1638
  377MOL0     H51989   2.139   8.401   1.628  0.3974  3.7099  2.5587
  377MOL0     H51990   2.022   8.554   1.727 -0.8538  4.2184 -1.9058
  377MOL0     H51991   1.913   8.527   1.588  1.8493  1.9435  0.1397
  377MOL0     H51992   1.713   8.602   1.701  0.3503  0.3162 -0.8888
  377MOL0     H51993   1.802   8.594   1.861  1.6385 -1.5669  0.6247
  377MOL0     H51994   1.944   8.792   1.758 -0.0873 -1.0850 -0.9446
  377MOL0     H51995   1.783   8.815   1.815  0.7610  0.8094  0.2994
  377MOL0     H51996   1.769   8.933   1.608 -0.3054 -0.1651 -0.6128
  377MOL0     H51997   1.745   8.766   1.543 -1.1832  1.3928  0.7997
  377MOL0     H51998   1.993   8.943   1.552  1.2864 -0.4313 -1.4418
  377MOL0     H51999   2.008   8.781   1.541 -0.0960 -0.1370 -1.4920
  377MOL0     H52000   1.863   8.954   1.329  2.1342  3.2497  3.8876
  377MOL0     H52001   1.831   8.780   1.345  0.0730  0.0236  0.2089
  377MOL0     H52002   2.009   8.845   1.174 -3.8879  0.0431  1.3577
  377MOL0     H52003   2.039   8.715   1.295 -2.5045 -0.9519  1.3273
  377MOL0     H52004   2.174   8.895   1.432 -4.3955  0.1628  0.2148
  377MOL0     H52005   2.168   8.996   1.281  1.8841 -0.0919  0.3643
  377MOL0     H52006   1.913   8.242   1.951  0.9063  2.6901  1.1003
  377MOL0     H52007   2.099   8.059   1.984  0.1440 -0.5147 -0.8946
  377MOL0     H52008   2.521   7.898   1.793  0.2768 -0.1106 -1.6252
  377MOL0     H52009   2.710   7.759   1.889  0.0635 -1.9501  0.4809
  377MOL0     H52010   2.907   7.268   2.718 -0.5917  0.3503  1.2113
  377MOL0     H52011   2.914   7.494   2.826  0.3058  0.6965 -0.3895
  377MOL0     H52012   3.202   7.677   3.182 -2.4166  0.7164  0.3188
  377MOL0     H52013   3.303   7.850   3.309 -0.4419  0.2227 -0.3276
  377MOL0     H52014   3.443   8.024   3.343  1.3579  0.0522  0.1399
  377MOL0     H52015   3.444   8.199   3.342  1.8272 -2.3720  1.0472
  377MOL0     H52016   3.270   8.014   3.506 -0.3343 -0.8849 -0.7696
  377MOL0     H52017   3.204   8.172   3.468  0.0825 -1.1552 -0.4392
  377MOL0     H52018   3.490   8.150   3.572 -0.7171 -1.2532  3.5103
  377MOL0     H52019   3.387   8.296   3.549  0.8853  0.1417  0.1963
  377MOL0     H52020   3.331   8.045   3.732 -0.9083  0.2271  1.0366
  377MOL0     H52021   3.220   8.188   3.719  0.5808  0.7054 -0.4818
  377MOL0     H52022   3.566   8.317   3.937  2.1043 -0.9952 -1.8414
  377MOL0     H52023   3.196   8.130   2.990  2.6616 -1.0859 -0.2898
  377MOL0     H52024   2.973   7.929   2.829 -0.3828 -0.2023  1.3629
  377MOL0     H52025   3.081   8.067   2.809 -0.5798 -0.4937  0.6042
  377MOL0     H52026   3.136   7.914   2.748  0.5369 -0.5044  0.1427
  378MOL0     O52027   5.324   8.882   4.656  0.3186 -0.2487  0.0942
  378MOL0     C52028   5.363   8.890   4.772  0.8227 -0.6467  0.3517
  378MOL0     O52029   5.371   9.004   4.838 -0.0051 -0.0314 -0.6181
  378MOL0     C52030   5.333   9.133   4.790  0.2494  0.1477 -0.5492
  378MOL0     C52031   5.318   9.177   4.659  0.2731 -0.4477  0.1214
  378MOL0     C52032   5.254   9.301   4.626 -1.2488 -0.5402 -0.6988
  378MOL0     C52033   5.183   9.370   4.730 -0.9872  0.5246  0.2466
  378MOL0     O52034   5.102   9.478   4.688  0.3757  0.1498  0.7124
  378MOL0     C52035   5.096   9.590   4.780  0.3029  0.7224 -0.4305
  378MOL0     C52036   4.952   9.585   4.834  0.4655  0.2611  0.4614
  378MOL0     C52037   4.913   9.709   4.915  0.6085 -0.5832  0.5670
  378MOL0     C52038   4.958   9.694   5.059 -0.2008  0.1188 -0.4850
  378MOL0     C52039   4.914   9.801   5.151 -0.0330  0.0016 -0.0751
  378MOL0     C52040   4.954   9.941   5.116 -0.2482  0.1151 -0.6416
  378MOL0     C52041   4.914  10.035   5.224 -0.1136 -0.2676 -0.0647
  378MOL0     C52042   5.024  10.147   5.234  0.7431 -0.0325 -0.1886
  378MOL0     N52043   5.056  10.218   5.104  0.2776  0.6039  0.6714
  378MOL0     C52044   4.969  10.289   5.034 -0.1019  0.1723  0.0292
  378MOL0     C52045   5.040  10.353   4.943  0.2217  1.2011 -0.5939
  378MOL0     C52046   4.994  10.455   4.836  0.0714 -0.1366  0.5347
  378MOL0     C52047   4.911  10.569   4.897  0.1181 -0.8924  0.0971
  378MOL0     C52048   4.882  10.667   4.782 -0.4021  0.1064 -0.6142
  378MOL0     C52049   4.800  10.795   4.824 -0.8639  0.2272 -0.4104
  378MOL0     O52050   4.663  10.752   4.847 -0.6831  0.2700 -0.6218
  378MOL0     C52051   4.565  10.850   4.840 -0.6101  0.5508 -0.2524
  378MOL0     C52052   4.587  10.981   4.811  0.3169 -0.0498  0.2623
  378MOL0     C52053   4.486  11.070   4.824  0.0087 -0.1660  1.2995
  378MOL0     C52054   4.515  11.212   4.796  0.3719  0.7539 -0.4250
  378MOL0     C52055   4.362  11.032   4.872  0.4218  0.0595 -0.8817
  378MOL0     C52056   4.253  11.118   4.890 -0.1435 -0.0177 -0.2025
  378MOL0     O52057   4.130  11.060   4.864 -0.6159  0.0492 -0.2884
  378MOL0     C52058   4.015  11.132   4.895 -0.5484 -0.9231 -0.0600
  378MOL0     C52059   3.951  11.102   5.015 -0.6677  0.0623  0.1914
  378MOL0     C52060   3.826  11.159   5.051 -0.6495 -0.5530 -0.1282
  378MOL0     C52061   3.774  11.264   4.980  0.5447  0.3856 -0.0919
  378MOL0     O52062   3.656  11.318   5.033 -0.7972 -0.3421  0.5216
  378MOL0     C52063   3.542  11.288   4.946  0.8897 -0.9795 -0.3351
  378MOL0     C52064   3.513  11.147   4.910  0.0831  0.6717  0.2296
  378MOL0     C52065   3.469  11.080   5.044 -0.5969  0.7922 -0.3320
  378MOL0     C52066   3.426  10.931   5.045 -0.1015 -0.2886  0.0728
  378MOL0     C52067   3.393  10.875   5.181 -0.2095 -0.5720 -0.5380
  378MOL0     C52068   3.247  10.914   5.219 -0.0745  0.4799  0.5206
  378MOL0     C52069   3.231  10.892   5.374  0.2289 -0.5146 -0.6613
  378MOL0     C52070   3.113  10.803   5.415  0.4915 -0.1521  0.4718
  378MOL0    Cl52071   3.165  10.638   5.372 -0.5612  0.2631 -0.4912
  378MOL0     C52072   3.835  11.294   4.852 -0.0084  0.3124  0.3096
  378MOL0     C52073   3.956  11.232   4.813 -0.1587  0.4031  0.6658
  378MOL0     O52074   4.280  11.234   4.925  1.2534 -0.7509  0.2047
  378MOL0     C52075   4.337  10.898   4.908 -1.8786 -0.3648 -0.2693
  378MOL0     C52076   4.443  10.808   4.880  0.8208 -0.6399 -1.1681
  378MOL0     N52077   5.175  10.310   4.952  0.0290 -0.5873  0.6074
  378MOL0     N52078   5.176  10.226   5.046  0.1589  0.9448 -0.2839
  378MOL0     C52079   5.193   9.318   4.852 -0.4707  0.2636 -0.7982
  378MOL0     C52080   5.266   9.207   4.887  0.4473  0.6239 -0.4563
  378MOL0     C52081   5.387   8.757   4.838 -0.1947 -0.8032 -0.8563
  378MOL0     C52082   5.449   8.768   4.965 -0.2145  0.7707 -0.7711
  378MOL0     C52083   5.469   8.660   5.038 -0.3594 -0.6708 -0.7104
  378MOL0     C52084   5.454   8.530   4.983  0.2050 -1.1231 -0.3386
  378MOL0     O52085   5.474   8.422   5.058  0.0949  0.1057 -0.0631
  378MOL0     C52086   5.427   8.419   5.192  1.2005 -0.7110 -0.3078
  378MOL0     C52087   5.352   8.287   5.229  1.1918  0.9665  0.4086
  378MOL0     C52088   5.455   8.176   5.244 -0.3249 -0.2503 -0.6338
  378MOL0     C52089   5.410   8.043   5.177 -0.5989 -1.0880 -0.0916
  378MOL0     C52090   5.285   7.986   5.226 -0.9390  0.2582 -1.1133
  378MOL0     C52091   5.176   7.956   5.264 -0.0556  0.8006  0.0914
  378MOL0     C52092   5.417   8.518   4.848 -0.1842  0.4597 -0.5829
  378MOL0     C52093   5.373   8.627   4.770 -0.1273  0.5583  0.7603
  378MOL0     C52094   5.322   8.606   4.627 -0.2304 -0.4825  0.1503
  378MOL0     H52095   5.384   9.127   4.590 -0.4082 -0.7154 -0.3491
  378MOL0     H52096   5.253   9.332   4.522  0.6997 -0.4582 -0.7451
  378MOL0     H52097   5.110   9.681   4.722 -2.1357  0.0166 -2.2685
  378MOL0     H52098   5.167   9.584   4.863  0.9643  1.5435 -0.9163
  378MOL0     H52099   4.892   9.573   4.743  2.2632 -3.5601 -0.4541
  378MOL0     H52100   4.932   9.495   4.892 -0.8333 -0.5758 -1.1808
  378MOL0     H52101   4.947   9.803   4.872 -0.4673  1.5569  3.9582
  378MOL0     H52102   4.806   9.732   4.909  0.8692  3.7514  5.4808
  378MOL0     H52103   4.915   9.601   5.096 -1.6296  1.0421  0.2954
  378MOL0     H52104   5.066   9.688   5.074 -0.2549  0.7040  0.2013
  378MOL0     H52105   4.967   9.781   5.244 -2.0720  0.3013  1.2184
  378MOL0     H52106   4.805   9.806   5.163 -0.0083 -4.1713  5.1606
  378MOL0     H52107   5.062   9.950   5.097 -0.3291  1.7501 -0.5212
  378MOL0     H52108   4.894   9.969   5.029 -0.0869  1.3542 -0.3727
  378MOL0     H52109   4.895   9.987   5.320  0.0282  0.7459  0.4882
  378MOL0     H52110   4.817  10.074   5.191  1.7792  3.3437 -2.0293
  378MOL0     H52111   4.994  10.226   5.304 -0.0379 -0.7695  0.3257
  378MOL0     H52112   5.120  10.106   5.265  0.5054  1.2206  2.5202
  378MOL0     H52113   4.862  10.302   5.050 -0.1532  1.6266 -1.3175
  378MOL0     H52114   4.923  10.414   4.765 -1.2916  3.1242 -0.1792
  378MOL0     H52115   5.080  10.492   4.780 -1.9707  2.1772 -1.3000
  378MOL0     H52116   4.811  10.541   4.933 -0.5396  0.9428 -0.1965
  378MOL0     H52117   4.973  10.614   4.974 -1.7792  1.1853  0.5085
  378MOL0     H52118   4.976  10.694   4.734 -2.0073  0.1174 -4.0309
  378MOL0     H52119   4.824  10.622   4.702  0.3584  1.9773 -2.3087
  378MOL0     H52120   4.843  10.840   4.914 -2.9134  0.3639  0.5472
  378MOL0     H52121   4.810  10.864   4.740 -1.6197  2.6823  1.3899
  378MOL0     H52122   4.687  11.020   4.792  0.1245  0.2630 -0.1366
  378MOL0     H52123   4.506  11.274   4.886 -3.6219 -1.6300  1.0742
  378MOL0     H52124   4.430  11.243   4.734 -0.2716  0.1119  0.1297
  378MOL0     H52125   4.610  11.238   4.748  0.1273 -0.7231 -1.7751
  378MOL0     H52126   3.996  11.027   5.080 -0.9552 -0.1894  0.0988
  378MOL0     H52127   3.782  11.141   5.149  5.0418  0.5724  3.0434
  378MOL0     H52128   3.457  11.329   5.002  1.5531  1.4040 -0.9442
  378MOL0     H52129   3.545  11.341   4.851 -1.6488  0.5303  0.3165
  378MOL0     H52130   3.440  11.139   4.829  1.6888 -3.5346 -1.1023
  378MOL0     H52131   3.594  11.088   4.865  0.1985  2.7595 -2.5793
  378MOL0     H52132   3.387  11.138   5.086 -0.8377  0.9471 -0.9999
  378MOL0     H52133   3.556  11.087   5.110 -0.3812 -3.0068  0.0127
  378MOL0     H52134   3.512  10.879   5.001 -0.7978  0.3659 -2.1902
  378MOL0     H52135   3.341  10.898   4.984 -1.1533 -0.9246  1.8245
  378MOL0     H52136   3.406  10.767   5.177  0.4316 -0.5786  1.0639
  378MOL0     H52137   3.464  10.903   5.259 -1.5769  2.8258 -0.3254
  378MOL0     H52138   3.167  10.873   5.157  0.8655  0.8362 -0.9868
  378MOL0     H52139   3.239  11.021   5.201  1.1174  0.6015  0.5796
  378MOL0     H52140   3.207  10.989   5.420  1.0818  0.7262 -2.7077
  378MOL0     H52141   3.318  10.847   5.423  1.1676 -1.0628 -2.7363
  378MOL0     H52142   3.025  10.827   5.355 -0.8009 -0.1794  2.3077
  378MOL0     H52143   3.098  10.816   5.522 -0.6960 -0.8129  0.4016
  378MOL0     H52144   3.796  11.367   4.781  0.0077 -1.3612 -1.5291
  378MOL0     H52145   4.004  11.262   4.721  1.8683  0.3300  1.6350
  378MOL0     H52146   4.245  10.885   4.965 -1.7147  2.1257  0.6660
  378MOL0     H52147   4.421  10.705   4.907  4.5020 -1.1340  0.6284
  378MOL0     H52148   5.137   9.366   4.932  1.0555  2.4967 -0.9746
  378MOL0     H52149   5.271   9.176   4.991  0.7517  2.9785  0.2968
  378MOL0     H52150   5.476   8.864   5.006 -1.9737  0.1500  2.1638
  378MOL0     H52151   5.515   8.669   5.135  0.3365  0.7914 -1.1602
  378MOL0     H52152   5.505   8.453   5.260  0.8255  1.2410 -0.8001
  378MOL0     H52153   5.349   8.495   5.197  2.0733  0.3970 -2.3368
  378MOL0     H52154   5.268   8.278   5.159  2.0729  3.4636 -1.1115
  378MOL0     H52155   5.301   8.297   5.325  0.9186  0.3065  0.3386
  378MOL0     H52156   5.547   8.206   5.192  0.2206 -1.4923 -0.4022
  378MOL0     H52157   5.467   8.165   5.352  0.9189  0.4966 -0.6741
  378MOL0     H52158   5.488   7.967   5.183  0.6471  0.1045 -0.6832
  378MOL0     H52159   5.382   8.060   5.073  0.9208 -2.9409 -0.8612
  378MOL0     H52160   5.076   7.934   5.294 -0.4600  0.3890 -1.4841
  378MOL0     H52161   5.409   8.421   4.802 -2.2399 -1.1122  2.6831
  378MOL0     H52162   5.402   8.636   4.558  0.8043  3.4411  2.7193
  378MOL0     H52163   5.295   8.503   4.601 -0.2291 -0.5486  0.4083
  378MOL0     H52164   5.231   8.665   4.612 -0.0618 -0.2278  0.1223
  379MOL0     O52165   3.829  10.510   4.456  0.2498 -0.1719  0.1098
  379MOL0     C52166   3.889  10.460   4.363  0.4704 -0.0138 -0.4158
  379MOL0     O52167   3.843  10.451   4.238  0.2265 -0.3166 -0.3257
  379MOL0     C52168   3.748  10.545   4.204  0.3893  0.1961  0.2265
  379MOL0     C52169   3.610  10.543   4.249  1.0880 -1.2330 -0.3470
  379MOL0     C52170   3.523  10.635   4.188  0.4742  0.1553  0.1329
  379MOL0     C52171   3.565  10.734   4.094  0.8151  0.0713  0.1013
  379MOL0     O52172   3.473  10.809   4.026  0.0886  0.8146 -0.6403
  379MOL0     C52173   3.459  10.944   4.065 -0.6772 -0.7068  0.3971
  379MOL0     C52174   3.317  10.998   4.053 -0.8843  0.2660  0.4259
  379MOL0     C52175   3.295  11.057   3.913 -0.0685  0.0226  0.2622
  379MOL0     C52176   3.380  11.189   3.880 -0.7640 -0.0562  0.9684
  379MOL0     C52177   3.349  11.250   3.743  0.7518 -0.3428 -0.2916
  379MOL0     C52178   3.429  11.370   3.722 -0.4614 -0.3324  0.2892
  379MOL0     C52179   3.397  11.432   3.590  0.2413 -0.6942 -0.2351
  379MOL0     C52180   3.484  11.554   3.550  0.2391 -0.6274  0.9229
  379MOL0     N52181   3.469  11.659   3.650 -0.0450  0.8538 -0.1107
  379MOL0     C52182   3.569  11.735   3.705  0.6924 -0.2393 -1.0554
  379MOL0     C52183   3.518  11.836   3.781  1.5940 -1.4504  0.4556
  379MOL0     C52184   3.581  11.944   3.859 -0.0330 -0.0419 -0.4670
  379MOL0     C52185   3.600  11.907   4.010 -0.4591  0.3588 -0.4345
  379MOL0     C52186   3.744  11.920   4.065 -0.1448  0.6978  0.3541
  379MOL0     C52187   3.773  12.060   4.109  0.6361  0.2044  0.6132
  379MOL0     O52188   3.725  12.156   4.008  0.0906 -0.6059  0.8411
  379MOL0     C52189   3.803  12.201   3.908  0.7120 -0.2319 -0.5665
  379MOL0     C52190   3.929  12.151   3.873 -0.9976 -0.1232 -0.2771
  379MOL0     C52191   4.003  12.210   3.771  0.8149 -0.0786  0.5804
  379MOL0     C52192   4.122  12.139   3.710 -0.4706 -0.8496 -0.0577
  379MOL0     C52193   3.965  12.338   3.725 -0.8820 -0.3467 -0.7939
  379MOL0     C52194   4.050  12.428   3.633 -0.2745 -0.1407 -0.0559
  379MOL0     O52195   4.187  12.413   3.650  0.3206 -0.2824  0.5425
  379MOL0     C52196   4.266  12.489   3.573 -0.5256 -0.2284  0.3882
  379MOL0     C52197   4.365  12.431   3.492  0.1544 -0.2274  0.4564
  379MOL0     C52198   4.452  12.506   3.415 -0.5253  0.2624  0.0367
  379MOL0     C52199   4.429  12.644   3.393  0.2461  0.5948  0.1528
  379MOL0     O52200   4.519  12.700   3.304 -0.3420 -0.0511  0.0320
  379MOL0     C52201   4.489  12.835   3.263 -0.3141 -0.0395 -0.0104
  379MOL0     C52202   4.582  12.877   3.144  1.0656 -1.0533  0.3519
  379MOL0     C52203   4.548  12.787   3.025  0.6226  0.2314  0.3248
  379MOL0     C52204   4.634  12.815   2.896  0.2459 -0.4025 -0.3103
  379MOL0     C52205   4.587  12.736   2.784  0.4050  0.5323  0.2851
  379MOL0     C52206   4.666  12.769   2.655 -0.6273  0.2663 -0.7946
  379MOL0     C52207   4.607  12.715   2.520  0.2433 -0.4754  0.4037
  379MOL0     C52208   4.480  12.783   2.481  1.0279  0.6137  0.7957
  379MOL0    Cl52209   4.454  12.719   2.319  0.3298  0.3831 -0.0689
  379MOL0     C52210   4.336  12.707   3.481 -0.8148  0.5239 -0.2755
  379MOL0     C52211   4.261  12.633   3.572  0.4360 -0.6908 -0.1894
  379MOL0     O52212   3.992  12.486   3.538 -0.4960 -0.1962  0.4632
  379MOL0     C52213   3.852  12.393   3.775  1.0021  0.2152 -0.2906
  379MOL0     C52214   3.761  12.324   3.855  0.0509 -0.3918 -0.4092
  379MOL0     N52215   3.381  11.831   3.763 -0.0101  0.6526  0.0377
  379MOL0     N52216   3.359  11.723   3.695  0.5494  0.6175  0.6959
  379MOL0     C52217   3.701  10.747   4.061 -0.8351  0.4337 -0.2705
  379MOL0     C52218   3.791  10.645   4.113 -0.6643 -0.2561  0.8160
  379MOL0     C52219   4.007  10.389   4.374 -0.0993  0.7466 -0.1858
  379MOL0     C52220   4.089  10.361   4.261  0.5381  0.2232 -0.5374
  379MOL0     C52221   4.209  10.289   4.265 -0.7424 -0.7360  0.3845
  379MOL0     C52222   4.253  10.237   4.380  0.2146  0.4660  0.5624
  379MOL0     O52223   4.390  10.206   4.397 -0.0435 -0.2838 -0.3791
  379MOL0     C52224   4.411  10.071   4.428  0.2992 -0.2875 -0.4985
  379MOL0     C52225   4.352   9.973   4.323  0.8401  0.3226 -0.6112
  379MOL0     C52226   4.410   9.997   4.187 -0.6879  0.1278  0.1614
  379MOL0     C52227   4.365   9.884   4.100  1.3681  0.0902  0.4023
  379MOL0     C52228   4.393   9.927   3.965 -0.1147  0.3488  1.0906
  379MOL0     C52229   4.412   9.997   3.865 -0.3122 -0.1434  0.5356
  379MOL0     C52230   4.169  10.238   4.488 -0.3419 -0.4992  0.8387
  379MOL0     C52231   4.058  10.320   4.488  1.4746 -0.2615 -0.8961
  379MOL0     C52232   3.982  10.320   4.620 -0.3899  0.9399  1.4136
  379MOL0     H52233   3.568  10.467   4.315  3.2136 -0.9005  1.5355
  379MOL0     H52234   3.419  10.602   4.192  1.1573 -2.2615  4.9217
  379MOL0     H52235   3.535  10.991   4.001 -0.2920 -2.2271 -0.3303
  379MOL0     H52236   3.487  10.955   4.171  3.2233  0.2405 -0.5461
  379MOL0     H52237   3.238  10.925   4.074 -0.6198  0.6272  3.0380
  379MOL0     H52238   3.304  11.075   4.130  2.0766 -0.1055  1.4321
  379MOL0     H52239   3.322  10.973   3.848  2.0482 -0.0301  1.1506
  379MOL0     H52240   3.191  11.089   3.897 -0.3992 -1.1692 -0.0867
  379MOL0     H52241   3.362  11.259   3.962  1.4177 -0.1085  1.5506
  379MOL0     H52242   3.487  11.165   3.872 -0.4844  1.4781 -0.5063
  379MOL0     H52243   3.241  11.267   3.733  0.0741 -3.4321  0.6720
  379MOL0     H52244   3.373  11.174   3.667 -1.1330 -0.5228 -0.7696
  379MOL0     H52245   3.407  11.433   3.809 -0.9292  1.3236 -0.9723
  379MOL0     H52246   3.534  11.340   3.724 -0.5342 -0.5862  0.2713
  379MOL0     H52247   3.292  11.459   3.587 -0.0253 -1.7601 -2.2100
  379MOL0     H52248   3.425  11.362   3.510  0.4017 -1.5488  0.5578
  379MOL0     H52249   3.587  11.518   3.558 -0.1154 -2.1456 -0.7497
  379MOL0     H52250   3.452  11.591   3.452 -0.4860 -3.5394 -0.0365
  379MOL0     H52251   3.676  11.719   3.694  0.4524 -4.0712  0.6333
  379MOL0     H52252   3.525  12.037   3.846 -2.5409 -1.5282 -0.9780
  379MOL0     H52253   3.680  11.968   3.818 -0.1913  1.2507 -0.1216
  379MOL0     H52254   3.538  11.966   4.078 -0.3130 -0.6140  0.5615
  379MOL0     H52255   3.578  11.802   4.029  1.5960  0.3974  2.7740
  379MOL0     H52256   3.758  11.854   4.151 -0.8108  1.7897  1.3257
  379MOL0     H52257   3.819  11.889   3.991 -1.9016 -0.0093 -1.2334
  379MOL0     H52258   3.726  12.093   4.202 -0.8712 -1.0010  0.3057
  379MOL0     H52259   3.875  12.079   4.144  0.8743  1.5055 -0.6937
  379MOL0     H52260   3.977  12.058   3.902  1.8373  1.4160  0.4150
  379MOL0     H52261   4.079  12.041   3.688 -1.6127 -0.2626 -0.5368
  379MOL0     H52262   4.207  12.140   3.779  0.0685  2.4739 -0.5632
  379MOL0     H52263   4.155  12.190   3.618 -0.4201  0.2365  0.5431
  379MOL0     H52264   4.393  12.327   3.489 -1.7635 -0.7544 -1.9864
  379MOL0     H52265   4.526  12.452   3.357  1.1790 -0.2790  2.5484
  379MOL0     H52266   4.382  12.850   3.248 -1.1115 -0.7561  3.8326
  379MOL0     H52267   4.509  12.912   3.338  0.1074  0.7931 -0.9499
  379MOL0     H52268   4.580  12.982   3.111  1.0740 -0.9651  0.6260
  379MOL0     H52269   4.688  12.863   3.167  0.6401 -0.9899  2.6919
  379MOL0     H52270   4.444  12.804   2.995  0.9027 -0.7639 -1.3671
  379MOL0     H52271   4.553  12.679   3.043  2.1182  0.2789  0.3153
  379MOL0     H52272   4.740  12.792   2.906  1.0513  0.5823 -4.5583
  379MOL0     H52273   4.631  12.922   2.874 -0.1831  0.9012  4.8618
  379MOL0     H52274   4.604  12.631   2.809 -0.4964  0.3604  0.2116
  379MOL0     H52275   4.478  12.739   2.774  0.4996  0.6718 -0.8033
  379MOL0     H52276   4.763  12.722   2.668 -0.0960  1.7661  1.0640
  379MOL0     H52277   4.675  12.878   2.650  1.0942  0.3977  2.4110
  379MOL0     H52278   4.593  12.607   2.520  0.6648 -0.5308  0.0692
  379MOL0     H52279   4.681  12.729   2.440  0.5785 -1.6842  0.4923
  379MOL0     H52280   4.504  12.890   2.477 -0.9060  1.0501 -0.6922
  379MOL0     H52281   4.394  12.769   2.547  0.5260  1.3750  0.3239
  379MOL0     H52282   4.327  12.815   3.484  1.7701  0.7599  1.0674
  379MOL0     H52283   4.184  12.681   3.632  0.2236 -1.2963  0.0311
  379MOL0     H52284   3.835  12.493   3.737  0.6170 -0.2691 -1.4290
  379MOL0     H52285   3.660  12.359   3.874 -0.6764 -3.0782  1.1268
  379MOL0     H52286   3.729  10.818   3.983  2.1626  0.2021  0.4786
  379MOL0     H52287   3.896  10.642   4.085 -1.0879  2.3938 -1.6354
  379MOL0     H52288   4.062  10.414   4.170 -0.7612  0.3006 -0.1256
  379MOL0     H52289   4.260  10.277   4.170 -3.7158  2.3391 -1.8126
  379MOL0     H52290   4.519  10.058   4.445  0.4311  2.1511  1.0473
  379MOL0     H52291   4.359  10.047   4.521  2.0511  3.0336  1.5655
  379MOL0     H52292   4.245   9.989   4.312  1.0601  0.6865 -2.8026
  379MOL0     H52293   4.371   9.868   4.344  1.8966  0.8463  1.3368
  379MOL0     H52294   4.389  10.098   4.150 -5.1888  0.0145  1.8194
  379MOL0     H52295   4.520   9.998   4.192 -0.7341 -0.1544  1.6762
  379MOL0     H52296   4.257   9.869   4.105  1.4763 -0.2916  2.2526
  379MOL0     H52297   4.414   9.790   4.128  0.4206 -0.4540  0.3077
  379MOL0     H52298   4.423  10.058   3.778 -1.5080  0.2605  0.6569
  379MOL0     H52299   4.208  10.199   4.582 -0.1370  0.3465  1.1183
  379MOL0     H52300   4.053  10.287   4.697  2.3371  1.8837 -0.5333
  379MOL0     H52301   3.946  10.421   4.642  0.5596  1.4880  0.5019
  379MOL0     H52302   3.893  10.257   4.613  0.2703  0.1093 -0.0339
  380MOL0     O52303   0.359   4.319  11.446 -0.0247  0.2423 -0.0709
  380MOL0     C52304   0.301   4.215  11.410 -0.7140  0.6281  0.0517
  380MOL0     O52305   0.240   4.189  11.292  0.3197  0.2822  0.8935
  380MOL0     C52306   0.237   4.291  11.200 -0.1831 -0.0209  0.1510
  380MOL0     C52307   0.168   4.410  11.230 -0.1527 -0.1744 -0.3165
  380MOL0     C52308   0.147   4.505  11.131 -0.2468 -1.1791 -0.8581
  380MOL0     C52309   0.191   4.493  11.000  0.4704  0.3337  0.1603
  380MOL0     O52310   0.165   4.597  10.913  0.0693  0.0784 -0.7207
  380MOL0     C52311   0.135   4.570  10.775  0.6329 -0.1439  0.3265
  380MOL0     C52312   0.106   4.703  10.694 -0.8119 -0.4272 -0.2590
  380MOL0     C52313   0.033   4.682  10.567 -0.2160 -0.0855 -0.6946
  380MOL0     C52314   0.116   4.626  10.453 -0.0010  0.2619 -0.9623
  380MOL0     C52315   0.022   4.598  10.332 -0.5577  0.3391  0.2768
  380MOL0     C52316  -0.020   4.447  10.312 -0.7803 -0.5245 -0.0315
  380MOL0     C52317  -0.129   4.409  10.407  0.1872  0.3746 -0.0172
  380MOL0     C52318  -0.189   4.281  10.364  0.2194  0.6002 -0.1327
  380MOL0     N52319  -0.093   4.167  10.388  0.2219  0.3503  0.1114
  380MOL0     C52320  -0.075   4.073  10.490  0.2475  0.9652  0.6986
  380MOL0     C52321   0.032   4.001  10.445 -0.5334 -0.3572  0.7810
  380MOL0     C52322   0.107   3.896  10.535 -0.5350 -0.6034 -1.1228
  380MOL0     C52323   0.250   3.949  10.549 -0.2592 -0.2522  0.9197
  380MOL0     C52324   0.335   3.868  10.654  0.3118  0.9935  1.1365
  380MOL0     C52325   0.491   3.893  10.654  0.1279 -0.2014  0.6343
  380MOL0     O52326   0.517   4.031  10.611 -0.1799  0.2445  0.4583
  380MOL0     C52327   0.616   4.103  10.670 -0.2023 -0.4862 -1.1625
  380MOL0     C52328   0.612   4.242  10.658  0.0573  0.5966 -0.1479
  380MOL0     C52329   0.713   4.329  10.707 -0.9011  0.3101 -0.0068
  380MOL0     C52330   0.710   4.475  10.655 -0.6277  0.4231 -0.0314
  380MOL0     C52331   0.818   4.270  10.780 -0.7068  1.0107 -0.8197
  380MOL0     C52332   0.934   4.340  10.835  0.3520  0.3426  0.9029
  380MOL0     O52333   1.062   4.285  10.806  0.2773  0.7412 -0.1667
  380MOL0     C52334   1.175   4.360  10.823  0.2576  0.8954  0.3569
  380MOL0     C52335   1.184   4.497  10.805  0.1540  0.4775 -0.8569
  380MOL0     C52336   1.306   4.567  10.821  0.3480  0.5898 -0.6465
  380MOL0     C52337   1.427   4.499  10.857  0.5674  0.5860  0.0852
  380MOL0     O52338   1.535   4.585  10.862 -1.1427  0.2310 -0.1230
  380MOL0     C52339   1.656   4.522  10.816 -0.0692 -0.2083  0.0356
  380MOL0     C52340   1.752   4.638  10.792  0.4434 -0.4276  0.1646
  380MOL0     C52341   1.872   4.592  10.712  0.6577  0.6627  1.1155
  380MOL0     C52342   1.972   4.700  10.675  0.4492  0.2278  0.1262
  380MOL0     C52343   2.095   4.643  10.586  0.5762 -0.1480  0.8334
  380MOL0     C52344   2.213   4.747  10.558  0.0782 -0.4431 -0.2039
  380MOL0     C52345   2.317   4.679  10.458  0.2683 -0.6736  0.0242
  380MOL0     C52346   2.403   4.579  10.539  0.1950  0.0644 -0.4675
  380MOL0    Cl52347   2.498   4.672  10.658 -0.5370 -0.4172  0.6261
  380MOL0     C52348   1.420   4.358  10.863 -0.1448 -0.2033  0.6543
  380MOL0     C52349   1.292   4.290  10.839 -0.1302 -0.2840 -0.5804
  380MOL0     O52350   0.915   4.444  10.896  0.4846  0.1514  0.4274
  380MOL0     C52351   0.816   4.134  10.802  0.2093  0.9189  1.1444
  380MOL0     C52352   0.719   4.052  10.756 -0.2371 -0.1111 -0.0378
  380MOL0     N52353   0.071   4.037  10.318  0.0905  0.2622  0.4356
  380MOL0     N52354  -0.011   4.130  10.285  0.6942 -0.2027  0.1607
  380MOL0     C52355   0.244   4.371  10.975  0.1843  1.1222 -0.0307
  380MOL0     C52356   0.283   4.276  11.070  0.5642  0.1089  0.5622
  380MOL0     C52357   0.295   4.097  11.493 -0.3687  0.4633 -1.5054
  380MOL0     C52358   0.220   3.986  11.457 -0.5111 -0.1639 -0.4847
  380MOL0     C52359   0.238   3.858  11.499 -0.4521 -0.0297 -1.0260
  380MOL0     C52360   0.324   3.835  11.604 -0.1205  0.2845 -0.1385
  380MOL0     O52361   0.323   3.707  11.646 -0.4371  0.2293  0.6559
  380MOL0     C52362   0.423   3.680  11.749  0.1854  0.3767 -0.0840
  380MOL0     C52363   0.418   3.529  11.791 -0.2709 -0.1725  0.6083
  380MOL0     C52364   0.289   3.488  11.862  0.1784  0.9655 -0.5813
  380MOL0     C52365   0.293   3.344  11.934 -0.5156 -0.7077  0.0408
  380MOL0     C52366   0.272   3.230  11.835  0.2703 -0.9300 -0.3641
  380MOL0     C52367   0.265   3.135  11.759  0.3838  0.6495  1.2816
  380MOL0     C52368   0.398   3.937  11.660 -0.1990 -0.2607  0.1993
  380MOL0     C52369   0.390   4.066  11.602  0.0988  0.8665  0.4642
  380MOL0     C52370   0.464   4.165  11.684 -0.6632 -0.2192 -1.0191
  380MOL0     H52371   0.118   4.409  11.326 -1.6180 -0.5575 -1.0448
  380MOL0     H52372   0.086   4.583  11.174 -0.3761 -1.6426 -0.1932
  380MOL0     H52373   0.043   4.511  10.773 -0.0030  0.7447  1.6883
  380MOL0     H52374   0.216   4.517  10.725  1.9633 -0.6746  2.8374
  380MOL0     H52375   0.046   4.771  10.754 -0.5318  0.1591 -0.6305
  380MOL0     H52376   0.201   4.752  10.671 -0.4004 -1.5492 -1.0828
  380MOL0     H52377  -0.048   4.614  10.594 -0.5484  0.7844  0.6022
  380MOL0     H52378  -0.006   4.783  10.548  0.5939  0.3461 -0.1316
  380MOL0     H52379   0.204   4.687  10.431 -0.3194  1.4169  0.7702
  380MOL0     H52380   0.164   4.534  10.488  1.5987  1.0638 -0.9690
  380MOL0     H52381   0.075   4.628  10.242 -3.7059  0.6843 -1.6142
  380MOL0     H52382  -0.066   4.662  10.331 -2.5584 -2.2042 -1.6394
  380MOL0     H52383  -0.071   4.445  10.215 -3.3994  2.1014  1.1235
  380MOL0     H52384   0.067   4.381  10.321 -1.0726 -0.6635  2.4748
  380MOL0     H52385  -0.211   4.481  10.397 -1.6898 -1.5668  0.6290
  380MOL0     H52386  -0.101   4.411  10.513 -3.2576  2.1481  1.0062
  380MOL0     H52387  -0.279   4.268  10.425  0.7983  0.8057  0.7982
  380MOL0     H52388  -0.225   4.287  10.261 -1.1353 -0.0846  0.2703
  380MOL0     H52389  -0.134   4.051  10.579 -0.6730 -1.9418 -0.5044
  380MOL0     H52390   0.096   3.799  10.485 -1.2419 -0.7657 -0.6574
  380MOL0     H52391   0.067   3.889  10.637  0.9919  0.5914 -0.3920
  380MOL0     H52392   0.302   3.963  10.454  0.7686 -2.8499  1.0177
  380MOL0     H52393   0.234   4.051  10.587 -2.6865 -0.1737 -0.1469
  380MOL0     H52394   0.276   3.876  10.746  0.4069  0.0362  1.2840
  380MOL0     H52395   0.330   3.763  10.626  1.4426  1.2327 -0.0422
  380MOL0     H52396   0.525   3.868  10.755  0.8548 -2.5324 -0.1314
  380MOL0     H52397   0.550   3.827  10.590  0.7301  1.2627 -0.3821
  380MOL0     H52398   0.536   4.283  10.592  1.0264  0.6635 -1.2538
  380MOL0     H52399   0.679   4.540  10.736 -2.4297 -0.5903  0.1466
  380MOL0     H52400   0.643   4.488  10.570  1.6701  2.8918 -1.6422
  380MOL0     H52401   0.810   4.494  10.613 -0.2306  0.1761  0.7879
  380MOL0     H52402   1.095   4.556  10.786 -0.6868  0.0574  1.4350
  380MOL0     H52403   1.310   4.675  10.831  1.0763  0.4157  1.2676
  380MOL0     H52404   1.683   4.448  10.891  0.0677 -0.3810 -0.1827
  380MOL0     H52405   1.640   4.469  10.722 -1.8827  0.3650 -0.0074
  380MOL0     H52406   1.699   4.720  10.742  2.0061  0.8994  0.5911
  380MOL0     H52407   1.773   4.684  10.889 -1.5145  0.6749  0.1198
  380MOL0     H52408   1.845   4.538  10.621 -3.4337  1.7527  1.4522
  380MOL0     H52409   1.928   4.523  10.775  1.2244  0.6097  0.5604
  380MOL0     H52410   2.011   4.756  10.760 -0.6105  0.3381  0.5477
  380MOL0     H52411   1.929   4.783  10.618  2.4796  0.5189 -1.0942
  380MOL0     H52412   2.117   4.540  10.617  3.1904 -0.2262 -0.9855
  380MOL0     H52413   2.040   4.625  10.494 -3.6407 -1.5026  3.3358
  380MOL0     H52414   2.260   4.779  10.651 -1.7421 -1.0043  0.9506
  380MOL0     H52415   2.184   4.833  10.497  0.0615 -1.2575 -1.3785
  380MOL0     H52416   2.381   4.757  10.414 -0.8319 -1.3239 -2.9582
  380MOL0     H52417   2.268   4.636  10.371 -2.6271  4.2652 -1.1685
  380MOL0     H52418   2.467   4.508  10.484 -0.6436 -0.7167 -0.4617
  380MOL0     H52419   2.344   4.522  10.612  1.2368  0.1642  0.4679
  380MOL0     H52420   1.508   4.294  10.870  1.0362  1.5453  4.1249
  380MOL0     H52421   1.303   4.183  10.828 -1.6723 -0.4629 -0.6261
  380MOL0     H52422   0.892   4.089  10.865 -0.3230 -0.5258  0.7838
  380MOL0     H52423   0.713   3.948  10.785  0.6962 -0.4219 -0.9137
  380MOL0     H52424   0.287   4.346  10.878 -0.9124 -1.3276  0.0380
  380MOL0     H52425   0.331   4.184  11.038 -0.0439  1.1748 -4.0481
  380MOL0     H52426   0.142   3.993  11.382 -0.9115 -4.0459 -0.6560
  380MOL0     H52427   0.184   3.775  11.453 -0.7302 -0.7512  0.5310
  380MOL0     H52428   0.521   3.699  11.704  0.8966 -0.8059  0.9017
  380MOL0     H52429   0.404   3.743  11.836 -0.5282  2.1106 -1.4225
  380MOL0     H52430   0.506   3.520  11.857  1.2011 -0.4708 -1.3066
  380MOL0     H52431   0.429   3.476  11.696  0.4426 -1.4615  1.3801
  380MOL0     H52432   0.272   3.552  11.950  0.5118  2.1328 -1.3370
  380MOL0     H52433   0.212   3.486  11.784  1.4097  1.7095 -1.8740
  380MOL0     H52434   0.211   3.343  12.008 -1.6898  2.5651 -1.0560
  380MOL0     H52435   0.383   3.338  11.996 -0.0092 -1.2570 -0.7362
  380MOL0     H52436   0.250   3.051  11.695 -0.1735  1.9103 -0.3327
  380MOL0     H52437   0.460   3.923  11.748 -0.6138  1.2389  0.7429
  380MOL0     H52438   0.500   4.119  11.776 -0.7535  0.7879 -0.4619
  380MOL0     H52439   0.552   4.196  11.627  0.5294  1.4898  1.5624
  380MOL0     H52440   0.405   4.255  11.706  1.0742  0.8480 -0.5041
  381MOL0     O52441  11.464  11.265   7.712 -1.1414  0.6094  0.3681
  381MOL0     C52442  11.486  11.156   7.762  0.6327 -0.0722 -0.1209
  381MOL0     O52443  11.484  11.133   7.900  0.2197 -0.0951 -0.1463
  381MOL0     C52444  11.453  11.243   7.988  0.6007  0.0020 -0.2667
  381MOL0     C52445  11.519  11.243   8.116  0.7206  0.3332  0.0643
  381MOL0     C52446  11.479  11.334   8.220  0.4200 -0.0033 -0.0483
  381MOL0     C52447  11.380  11.432   8.200  1.0056  0.2316  0.9760
  381MOL0     O52448  11.334  11.513   8.293 -0.1563  0.6995  0.3249
  381MOL0     C52449  11.440  11.602   8.342 -0.1655  0.9126 -0.4129
  381MOL0     C52450  11.399  11.747   8.319 -0.6947  0.1777 -0.3668
  381MOL0     C52451  11.303  11.788   8.425  0.2120 -0.4843  1.0684
  381MOL0     C52452  11.165  11.756   8.374  0.3473 -0.5490 -0.6069
  381MOL0     C52453  11.072  11.830   8.468  0.6204 -0.0931 -1.5144
  381MOL0     C52454  10.914  11.803   8.445  0.3716  0.1977  0.2495
  381MOL0     C52455  10.855  11.813   8.302 -0.0928 -0.5894  0.0221
  381MOL0     C52456  10.708  11.792   8.286  0.6953  0.4814 -0.3488
  381MOL0     N52457  10.661  11.674   8.354 -0.6910  0.3791  0.9483
  381MOL0     C52458  10.549  11.665   8.435 -0.3756  0.0864  0.0358
  381MOL0     C52459  10.559  11.543   8.479  0.6889  0.7536 -0.1565
  381MOL0     C52460  10.484  11.481   8.601  0.5475 -0.7698 -0.7296
  381MOL0     C52461  10.585  11.456   8.716 -0.2951  0.4238  0.3817
  381MOL0     C52462  10.667  11.589   8.740 -0.6814  0.2890 -0.0374
  381MOL0     C52463  10.591  11.697   8.809  0.4054 -0.0572  0.0438
  381MOL0     O52464  10.564  11.667   8.948 -1.6732 -0.1261  0.5595
  381MOL0     C52465  10.643  11.700   9.056  1.1866  0.1692  0.3318
  381MOL0     C52466  10.776  11.741   9.071 -0.1342 -0.6159  0.8898
  381MOL0     C52467  10.823  11.784   9.194 -0.6109 -0.2920  1.1771
  381MOL0     C52468  10.952  11.859   9.197  0.1843 -0.4583 -0.0202
  381MOL0     C52469  10.746  11.776   9.306 -0.2061  0.7257 -0.4223
  381MOL0     C52470  10.773  11.839   9.442 -0.3498 -0.5912 -0.5084
  381MOL0     O52471  10.766  11.973   9.436  0.2407  0.6751  0.9596
  381MOL0     C52472  10.840  12.055   9.525  1.4917  0.9056  0.5746
  381MOL0     C52473  10.809  12.193   9.517  0.2691 -0.5868  0.4237
  381MOL0     C52474  10.864  12.286   9.608  0.8247  0.8543 -0.1582
  381MOL0     C52475  10.946  12.244   9.716  0.3454  0.3730 -0.1021
  381MOL0     O52476  10.993  12.344   9.802 -0.0032  0.4016  0.5164
  381MOL0     C52477  11.135  12.335   9.803  0.6251 -0.5754 -0.4779
  381MOL0     C52478  11.197  12.385   9.676  0.0448 -0.1302 -0.3455
  381MOL0     C52479  11.355  12.359   9.694  0.6228  0.0201  1.6791
  381MOL0     C52480  11.428  12.398   9.568  0.2214  0.2821  0.8339
  381MOL0     C52481  11.575  12.368   9.555 -0.1702 -0.3749  0.2876
  381MOL0     C52482  11.662  12.490   9.591 -0.4477 -0.8500  0.3518
  381MOL0     C52483  11.627  12.570   9.718  0.4067  0.6580  0.4736
  381MOL0     C52484  11.741  12.661   9.755  0.5980 -0.4232 -1.1652
  381MOL0    Cl52485  11.688  12.775   9.888  0.1635  0.1445 -0.0581
  381MOL0     C52486  10.970  12.105   9.728  0.2042 -0.0863 -0.1963
  381MOL0     C52487  10.922  12.016   9.631 -0.3473  0.2605  1.5057
  381MOL0     O52488  10.751  11.780   9.550 -0.0260  0.5041  1.0486
  381MOL0     C52489  10.622  11.713   9.298  0.5800 -0.1598 -0.1917
  381MOL0     C52490  10.565  11.694   9.174 -0.8657 -0.0765 -0.1633
  381MOL0     N52491  10.657  11.471   8.416  0.9165  0.2116 -0.4215
  381MOL0     N52492  10.714  11.550   8.331  0.7245  0.2062 -0.1495
  381MOL0     C52493  11.313  11.430   8.076 -0.3843 -0.4184  0.1507
  381MOL0     C52494  11.341  11.334   7.974 -0.8650  0.0255  0.1529
  381MOL0     C52495  11.534  11.051   7.666 -0.5248  0.1016  0.5212
  381MOL0     C52496  11.492  11.069   7.526  0.6927 -0.2741 -0.5752
  381MOL0     C52497  11.549  10.980   7.432 -0.4729 -0.5240  0.2965
  381MOL0     C52498  11.629  10.874   7.471 -0.5349  0.5690  1.1665
  381MOL0     O52499  11.677  10.793   7.368 -0.1593  0.1157 -0.5244
  381MOL0     C52500  11.590  10.668   7.351 -0.7632  0.1045  0.0769
  381MOL0     C52501  11.596  10.628   7.197 -0.7148  0.1990 -0.4376
  381MOL0     C52502  11.505  10.504   7.192  0.3065  0.3650  0.4658
  381MOL0     C52503  11.457  10.506   7.049  0.2543  0.6760  0.0625
  381MOL0     C52504  11.366  10.391   7.039  0.2968  0.1445  0.0797
  381MOL0     C52505  11.297  10.293   7.011  0.4716 -0.3060  0.0374
  381MOL0     C52506  11.659  10.863   7.603  0.2635 -0.2381  0.8052
  381MOL0     C52507  11.608  10.945   7.705 -0.7936 -0.3345 -0.2054
  381MOL0     C52508  11.660  10.914   7.847 -0.4302 -0.8057  0.2062
  381MOL0     H52509  11.582  11.162   8.151  0.1143 -0.3281 -0.3486
  381MOL0     H52510  11.535  11.321   8.312 -0.5693 -1.0041  0.4255
  381MOL0     H52511  11.536  11.603   8.290 -0.2392  3.1004 -0.5892
  381MOL0     H52512  11.460  11.576   8.447 -2.0772 -0.3186 -0.3114
  381MOL0     H52513  11.492  11.799   8.340  1.0161 -2.7740 -0.1080
  381MOL0     H52514  11.368  11.765   8.216 -1.0542 -1.4862 -0.5789
  381MOL0     H52515  11.327  11.750   8.525  1.7493  1.8718  1.7062
  381MOL0     H52516  11.297  11.897   8.439 -2.7572 -0.5688  1.0477
  381MOL0     H52517  11.148  11.781   8.269  1.3417  0.4858 -0.5375
  381MOL0     H52518  11.140  11.650   8.377  1.3260 -0.7604  1.2905
  381MOL0     H52519  11.074  11.939   8.472 -1.7189 -0.0019  1.4597
  381MOL0     H52520  11.097  11.792   8.568 -3.2690 -0.2873 -0.4362
  381MOL0     H52521  10.898  11.702   8.482  0.9184  0.1454  0.3616
  381MOL0     H52522  10.852  11.866   8.509 -0.0214 -0.5166  0.5783
  381MOL0     H52523  10.903  11.731   8.246 -3.3856 -4.2839  2.1150
  381MOL0     H52524  10.885  11.906   8.252 -0.6134 -1.1711 -1.4444
  381MOL0     H52525  10.656  11.876   8.333  0.2618 -0.6387  1.2487
  381MOL0     H52526  10.676  11.784   8.181 -0.1287 -0.9297 -0.0145
  381MOL0     H52527  10.497  11.749   8.481 -0.4899  0.2132 -0.3200
  381MOL0     H52528  10.442  11.382   8.580 -0.8757 -0.3951  0.2334
  381MOL0     H52529  10.393  11.534   8.631 -0.2114 -0.2942 -3.6252
  381MOL0     H52530  10.533  11.450   8.812  2.0800  1.1861  1.8048
  381MOL0     H52531  10.645  11.369   8.690  0.6442  1.8257 -2.6375
  381MOL0     H52532  10.746  11.557   8.809 -3.2098 -0.1913  2.8373
  381MOL0     H52533  10.713  11.626   8.649  1.5073  1.5601  1.4989
  381MOL0     H52534  10.657  11.783   8.792 -1.7090  1.1859 -2.7362
  381MOL0     H52535  10.502  11.727   8.754  0.3452  1.9940  1.1188
  381MOL0     H52536  10.831  11.743   8.977 -2.1925  0.5913 -0.3427
  381MOL0     H52537  10.996  11.830   9.293 -0.2722  0.0115  0.3390
  381MOL0     H52538  10.928  11.965   9.206 -1.3648 -0.8303  0.6322
  381MOL0     H52539  11.020  11.830   9.116  0.3272 -1.8318  0.5553
  381MOL0     H52540  10.744  12.235   9.441 -0.2634  3.1431  2.6844
  381MOL0     H52541  10.841  12.392   9.608  0.9657  0.8920  1.1057
  381MOL0     H52542  11.183  12.388   9.886  0.7426 -0.8612 -0.3611
  381MOL0     H52543  11.164  12.233   9.831 -0.4043  0.0342  3.3546
  381MOL0     H52544  11.162  12.327   9.590 -3.1662  1.3311 -0.1419
  381MOL0     H52545  11.188  12.491   9.653  3.8280 -0.2260 -3.2341
  381MOL0     H52546  11.376  12.253   9.708 -0.8825 -1.2834 -3.5441
  381MOL0     H52547  11.403  12.413   9.776  2.5088  0.3388  0.4569
  381MOL0     H52548  11.422  12.507   9.571  1.8234  0.5064 -1.5554
  381MOL0     H52549  11.381  12.358   9.478  0.8883  3.5763 -1.1689
  381MOL0     H52550  11.596  12.278   9.614 -2.3304 -0.7081  0.6387
  381MOL0     H52551  11.595  12.341   9.451 -2.3680 -0.6060 -0.1249
  381MOL0     H52552  11.663  12.562   9.509 -3.9835 -1.3704 -0.2846
  381MOL0     H52553  11.767  12.463   9.606 -0.0593  0.6957  0.6595
  381MOL0     H52554  11.605  12.495   9.795  2.8733 -1.5086 -0.7713
  381MOL0     H52555  11.541  12.636   9.703  0.1275  0.0196 -0.8330
  381MOL0     H52556  11.761  12.732   9.675  0.6442 -0.6893 -1.3893
  381MOL0     H52557  11.831  12.605   9.779  0.1979  0.1181  2.1119
  381MOL0     H52558  11.019  12.058   9.812 -2.1279  0.0999  1.3338
  381MOL0     H52559  10.961  11.915   9.632 -0.8680 -0.2765 -3.5386
  381MOL0     H52560  10.555  11.716   9.383  0.2971  4.5624 -0.2862
  381MOL0     H52561  10.462  11.660   9.166 -0.4726 -1.5005  0.5201
  381MOL0     H52562  11.221  11.488   8.069  1.0712  2.4319  2.4484
  381MOL0     H52563  11.284  11.330   7.881  2.1989 -2.4028 -1.8625
  381MOL0     H52564  11.426  11.148   7.493  0.6272  0.5512  1.3963
  381MOL0     H52565  11.523  11.000   7.328  1.7836 -0.0750 -0.2409
  381MOL0     H52566  11.626  10.586   7.413 -1.2004 -0.9950 -1.0834
  381MOL0     H52567  11.485  10.685   7.378 -0.3094  0.5099  1.6702
  381MOL0     H52568  11.700  10.597   7.182 -1.0337 -1.3514  0.3471
  381MOL0     H52569  11.554  10.715   7.145 -4.6310 -1.2891 -0.1072
  381MOL0     H52570  11.572  10.421   7.218 -0.1747  0.2343  1.3399
  381MOL0     H52571  11.420  10.499   7.260  0.2547 -1.8487  0.3239
  381MOL0     H52572  11.537  10.514   6.976  0.5541 -0.1577  0.2926
  381MOL0     H52573  11.401  10.599   7.033  2.2748  2.4433  2.3830
  381MOL0     H52574  11.244  10.200   7.002 -0.8833  0.4227  0.2695
  381MOL0     H52575  11.723  10.783   7.638  0.2298  1.2725  4.9028
  381MOL0     H52576  11.710  11.004   7.885  1.1894 -1.0778 -1.2106
  381MOL0     H52577  11.570  10.886   7.903 -3.2435  3.2554 -1.8074
  381MOL0     H52578  11.729  10.830   7.854  0.9086  0.3720  2.4724
  382MOL0     O52579   8.277   8.312   1.482 -0.5445 -0.3957  0.1541
  382MOL0     C52580   8.296   8.194   1.469  0.2115  0.1527 -1.0355
  382MOL0     O52581   8.412   8.128   1.530  0.5024  0.2612 -0.1681
  382MOL0     C52582   8.524   8.207   1.542 -0.6999  1.1144 -0.3208
  382MOL0     C52583   8.534   8.324   1.605  0.2124  0.1805 -0.7314
  382MOL0     C52584   8.661   8.384   1.642 -0.5132  0.3034  1.4879
  382MOL0     C52585   8.780   8.318   1.589  0.0806 -0.1544 -0.3860
  382MOL0     O52586   8.909   8.357   1.620  0.5262 -0.1034 -0.7756
  382MOL0     C52587   9.009   8.364   1.524 -1.3145  0.0152  0.3506
  382MOL0     C52588   9.099   8.482   1.559 -0.4137 -0.2106  0.7994
  382MOL0     C52589   9.176   8.467   1.691  0.0248 -0.0111 -0.2888
  382MOL0     C52590   9.213   8.606   1.752 -0.0892 -0.1879  0.3095
  382MOL0     C52591   9.243   8.577   1.905 -0.5684 -0.2895  0.2403
  382MOL0     C52592   9.385   8.524   1.920 -0.8565  0.8893 -0.3547
  382MOL0     C52593   9.414   8.481   2.068  0.2504  0.4870  0.0668
  382MOL0     C52594   9.550   8.410   2.087 -0.2876 -0.4703  1.1179
  382MOL0     N52595   9.660   8.494   2.131 -0.2854 -0.2964 -0.2346
  382MOL0     C52596   9.659   8.596   2.222 -0.0270 -0.3606 -0.6846
  382MOL0     C52597   9.792   8.632   2.235 -0.0367  0.1378  0.1306
  382MOL0     C52598   9.840   8.769   2.294  0.4778  0.6848  1.2600
  382MOL0     C52599   9.955   8.754   2.389  0.5333 -0.1724 -0.5971
  382MOL0     C52600   9.980   8.873   2.477 -0.0380  0.0902 -0.1476
  382MOL0     C52601  10.004   9.005   2.406 -0.9002 -0.6195 -0.8115
  382MOL0     O52602   9.995   9.102   2.509 -0.1560 -0.6048  0.3063
  382MOL0     C52603  10.059   9.221   2.493 -0.2632  0.9456 -0.7299
  382MOL0     C52604  10.061   9.294   2.606 -0.6777 -0.1205 -0.2557
  382MOL0     C52605  10.143   9.410   2.618  0.5232 -0.5549 -0.2488
  382MOL0     C52606  10.147   9.473   2.755  0.3955 -0.2527 -0.9928
  382MOL0     C52607  10.216   9.446   2.504  0.4875 -0.6571  0.7852
  382MOL0     C52608  10.294   9.575   2.499 -0.4315 -0.4261 -0.0006
  382MOL0     O52609  10.387   9.587   2.605  0.0152  0.9085 -0.4562
  382MOL0     C52610  10.432   9.715   2.637 -0.0884  0.2988 -0.6235
  382MOL0     C52611  10.336   9.801   2.696  0.3592  0.3220  0.4397
  382MOL0     C52612  10.380   9.925   2.746 -0.6511 -0.3331  0.0833
  382MOL0     C52613  10.512   9.970   2.716  0.2397  0.3224 -0.5042
  382MOL0     O52614  10.556  10.095   2.752 -0.7989  0.1966 -0.4579
  382MOL0     C52615  10.549  10.131   2.892 -0.1176 -0.0873  0.0242
  382MOL0     C52616  10.603  10.269   2.937 -0.2437  0.0026 -0.4426
  382MOL0     C52617  10.749  10.257   2.918  0.0174  0.1319 -0.1091
  382MOL0     C52618  10.816  10.394   2.940 -0.9068  0.0639  0.3435
  382MOL0     C52619  10.835  10.483   2.815  0.1762  0.6737  0.1007
  382MOL0     C52620  10.896  10.625   2.825 -0.4680 -0.8779 -0.7023
  382MOL0     C52621  11.014  10.641   2.918  0.7510  0.5261 -0.8842
  382MOL0     C52622  11.036  10.795   2.938 -0.7823  0.0689 -0.7228
  382MOL0    Cl52623  11.014  10.899   2.791 -0.3181 -0.3777 -0.4146
  382MOL0     C52624  10.596   9.886   2.657 -0.1701  0.1797 -0.0259
  382MOL0     C52625  10.560   9.751   2.632 -0.3455 -0.8863 -0.0554
  382MOL0     O52626  10.296   9.634   2.391  0.6817  0.3581  0.0491
  382MOL0     C52627  10.213   9.375   2.385  0.5805 -0.1899  0.8594
  382MOL0     C52628  10.123   9.268   2.377  0.7798  0.2431  0.5184
  382MOL0     N52629   9.874   8.541   2.163 -0.5196 -0.6256  0.7306
  382MOL0     N52630   9.794   8.467   2.103 -0.4390  0.0532 -0.1850
  382MOL0     C52631   8.766   8.193   1.523 -0.2822  0.4112 -1.1431
  382MOL0     C52632   8.635   8.139   1.496 -0.4660  0.7384 -0.8176
  382MOL0     C52633   8.182   8.111   1.406 -0.1329 -0.5435 -0.5765
  382MOL0     C52634   8.050   8.172   1.385 -0.0927  1.3590 -0.5009
  382MOL0     C52635   7.944   8.103   1.330 -1.4792  0.7748 -0.6049
  382MOL0     C52636   7.962   7.963   1.308  0.2749 -0.1295 -1.4153
  382MOL0     O52637   7.849   7.892   1.252 -0.2146  0.1726  0.0496
  382MOL0     C52638   7.725   7.890   1.325  0.5827 -0.4916  0.4074
  382MOL0     C52639   7.714   7.805   1.452  0.5524  1.3180  0.3916
  382MOL0     C52640   7.727   7.656   1.421 -0.2772  0.4452 -0.6207
  382MOL0     C52641   7.867   7.607   1.398 -0.3999 -0.2952 -0.6596
  382MOL0     C52642   7.939   7.587   1.526  0.8346  0.1809  0.3331
  382MOL0     C52643   7.997   7.560   1.625 -1.1695 -0.0419 -0.2479
  382MOL0     C52644   8.080   7.910   1.332 -0.4921  0.4089  0.0354
  382MOL0     C52645   8.200   7.977   1.379 -0.0117 -0.4024  0.9659
  382MOL0     C52646   8.326   7.902   1.384  0.0501  0.6337  0.4481
  382MOL0     H52647   8.441   8.361   1.646  0.8119  0.8383  0.0812
  382MOL0     H52648   8.670   8.471   1.705 -1.0349 -1.0421  3.5269
  382MOL0     H52649   8.982   8.383   1.420 -1.1946 -0.1425  0.2901
  382MOL0     H52650   9.078   8.280   1.542 -1.0766  0.3268  0.8974
  382MOL0     H52651   9.171   8.494   1.478  1.0316  1.0757  2.2194
  382MOL0     H52652   9.040   8.574   1.557  0.0680  0.0894 -0.2304
  382MOL0     H52653   9.107   8.419   1.761  1.9707 -2.4251  0.0946
  382MOL0     H52654   9.270   8.412   1.679  0.6516  0.9598  0.0633
  382MOL0     H52655   9.295   8.653   1.696 -0.3272  1.5672  1.3514
  382MOL0     H52656   9.125   8.671   1.749  0.1587  0.1461  0.1333
  382MOL0     H52657   9.175   8.500   1.940  0.3283 -1.4635 -0.5106
  382MOL0     H52658   9.239   8.668   1.966  1.9682 -1.3543  2.1851
  382MOL0     H52659   9.385   8.435   1.858 -1.3934  0.0623  0.7967
  382MOL0     H52660   9.464   8.590   1.882  0.6216 -0.3500  0.4673
  382MOL0     H52661   9.336   8.411   2.101  0.0243  0.8063  0.2105
  382MOL0     H52662   9.420   8.563   2.140 -0.3086  1.5216 -1.0406
  382MOL0     H52663   9.549   8.339   2.170 -0.1358 -1.2639  0.4504
  382MOL0     H52664   9.583   8.352   2.000  2.0906  1.7725  0.4049
  382MOL0     H52665   9.582   8.660   2.265  2.6424  1.1577  2.2661
  382MOL0     H52666   9.745   8.814   2.325 -2.4066 -2.9341 -1.3896
  382MOL0     H52667   9.876   8.818   2.203 -2.2116 -1.7258 -1.3330
  382MOL0     H52668   9.928   8.673   2.458 -2.2095 -1.6546 -3.1580
  382MOL0     H52669  10.044   8.717   2.336 -0.1896 -1.0855 -1.2109
  382MOL0     H52670   9.892   8.875   2.542 -1.4663 -1.2012 -1.9053
  382MOL0     H52671  10.062   8.850   2.545  0.6346  1.1339 -0.5674
  382MOL0     H52672  10.099   9.002   2.351 -1.3061 -1.7657 -1.4862
  382MOL0     H52673   9.922   9.022   2.336 -0.9059  1.5688 -0.3187
  382MOL0     H52674  10.016   9.264   2.699  0.4799  0.1548  0.4151
  382MOL0     H52675  10.174   9.391   2.823  0.5330 -0.8544 -1.7638
  382MOL0     H52676  10.043   9.501   2.773  0.3415  0.2325 -2.0104
  382MOL0     H52677  10.217   9.557   2.767  0.7115 -0.5071 -1.0409
  382MOL0     H52678  10.234   9.766   2.707  1.2415 -3.2646 -1.4107
  382MOL0     H52679  10.323   9.986   2.815 -0.1074  0.0915  0.1690
  382MOL0     H52680  10.442  10.116   2.910 -0.0723  1.0811  1.4797
  382MOL0     H52681  10.604  10.055   2.947 -0.4786  1.9410  3.4915
  382MOL0     H52682  10.553  10.352   2.885 -2.0089  0.8534  2.3392
  382MOL0     H52683  10.577  10.275   3.043 -3.0868 -1.8150 -0.9195
  382MOL0     H52684  10.771  10.210   2.821  0.8511 -0.1595  0.2123
  382MOL0     H52685  10.787  10.188   2.993  0.6917 -0.0138 -0.5722
  382MOL0     H52686  10.921  10.382   2.968 -0.4543 -3.8810 -2.2244
  382MOL0     H52687  10.772  10.466   3.009  1.0727 -1.0180  2.8699
  382MOL0     H52688  10.900  10.425   2.749 -1.7602 -3.6247  1.5712
  382MOL0     H52689  10.737  10.503   2.771  0.8855  3.4931 -0.3695
  382MOL0     H52690  10.824  10.703   2.851  2.8263  3.5505 -3.3645
  382MOL0     H52691  10.929  10.655   2.725 -2.3867  2.2919 -0.5318
  382MOL0     H52692  11.093  10.580   2.873 -0.3998  1.3466 -4.3416
  382MOL0     H52693  10.983  10.600   3.014 -0.5748 -0.3869 -1.6756
  382MOL0     H52694  11.129  10.800   2.995 -1.5749  2.1870  0.5107
  382MOL0     H52695  10.981  10.834   3.025  1.8832  0.7379  0.7801
  382MOL0     H52696  10.694   9.918   2.623  0.5835 -1.1947  0.7937
  382MOL0     H52697  10.632   9.671   2.618 -0.8731 -1.7344  1.7105
  382MOL0     H52698  10.280   9.406   2.307  1.9712  0.5894  2.3124
  382MOL0     H52699  10.139   9.211   2.286 -0.4947 -1.1292  1.1127
  382MOL0     H52700   8.857   8.136   1.504  2.5281  4.3287 -0.6313
  382MOL0     H52701   8.608   8.049   1.441  1.0161  0.4031 -1.0170
  382MOL0     H52702   8.034   8.278   1.403 -0.0819  1.1336  1.0374
  382MOL0     H52703   7.841   8.128   1.306 -2.4644 -1.2925  1.1003
  382MOL0     H52704   7.681   7.988   1.350 -0.2210 -0.8070  0.2831
  382MOL0     H52705   7.644   7.852   1.262  1.5073 -1.6505 -0.1061
  382MOL0     H52706   7.619   7.834   1.499  0.2492 -0.2677  0.8074
  382MOL0     H52707   7.781   7.843   1.530  0.0175 -0.7287  1.9628
  382MOL0     H52708   7.683   7.601   1.505 -1.1907  2.3722  0.2182
  382MOL0     H52709   7.678   7.627   1.328  1.3706  0.3004 -1.4850
  382MOL0     H52710   7.922   7.681   1.339  0.3370 -0.5199 -0.2723
  382MOL0     H52711   7.851   7.515   1.340  1.3270 -0.8021 -0.3896
  382MOL0     H52712   8.049   7.535   1.715  2.3759  1.4303 -1.6971
  382MOL0     H52713   8.086   7.803   1.310  3.0774  1.0096 -2.9499
  382MOL0     H52714   8.329   7.807   1.330 -0.3689  0.3569  0.9062
  382MOL0     H52715   8.410   7.956   1.339  0.4485  0.3026  0.7787
  382MOL0     H52716   8.361   7.883   1.486 -0.8426  0.3019  0.7038
  383MOL0     O52717   1.628   6.296   9.088 -0.3255 -0.4808 -0.1013
  383MOL0     C52718   1.557   6.392   9.115 -0.4080  0.5224  0.6597
  383MOL0     O52719   1.487   6.461   9.022 -0.3816  0.7470 -0.5847
  383MOL0     C52720   1.534   6.452   8.889  0.0614  0.2131 -0.2231
  383MOL0     C52721   1.430   6.453   8.796 -0.3314  0.5282 -0.5213
  383MOL0     C52722   1.450   6.462   8.658  0.5786 -0.1646  1.0249
  383MOL0     C52723   1.580   6.466   8.606  0.2712  0.8987 -0.3125
  383MOL0     O52724   1.599   6.458   8.466 -0.2134  1.0802 -0.8659
  383MOL0     C52725   1.730   6.410   8.415  0.8752  0.4528  0.9277
  383MOL0     C52726   1.759   6.493   8.286  0.0039  0.1605 -0.3527
  383MOL0     C52727   1.898   6.467   8.214 -0.1422 -0.0226 -0.5982
  383MOL0     C52728   1.910   6.326   8.148 -0.1824  0.4050  0.1263
  383MOL0     C52729   2.032   6.316   8.055  0.6351  1.0913  0.3685
  383MOL0     C52730   2.168   6.295   8.135  0.0068  1.2269  0.0627
  383MOL0     C52731   2.301   6.322   8.055 -0.3483 -0.2359 -0.2778
  383MOL0     C52732   2.315   6.471   8.012 -0.2593  0.3794  0.2897
  383MOL0     N52733   2.432   6.488   7.925  0.0931 -0.5132 -0.2431
  383MOL0     C52734   2.555   6.502   7.980  0.6115 -0.4299  0.5756
  383MOL0     C52735   2.638   6.528   7.875  1.0221 -0.4740 -1.4007
  383MOL0     C52736   2.786   6.559   7.882  0.8194 -0.1128 -0.4492
  383MOL0     C52737   2.811   6.709   7.855  0.0252  0.0044 -0.0440
  383MOL0     C52738   2.830   6.785   7.985  0.9162 -0.5391 -0.1540
  383MOL0     C52739   2.845   6.931   7.963  0.1703 -0.2610 -0.0101
  383MOL0     O52740   2.837   7.008   8.083 -0.7047 -0.6618 -0.6342
  383MOL0     C52741   2.905   7.132   8.081  0.0321 -0.6206 -0.4960
  383MOL0     C52742   2.936   7.204   7.965  0.2736 -0.4961  0.0746
  383MOL0     C52743   3.028   7.310   7.976  0.5856  0.2054  0.3300
  383MOL0     C52744   3.050   7.390   7.850  0.3320  0.2768  0.8288
  383MOL0     C52745   3.088   7.347   8.105 -1.1859  0.0776  0.1608
  383MOL0     C52746   3.188   7.460   8.139 -0.1252 -0.2191 -0.1357
  383MOL0     O52747   3.227   7.475   8.267 -0.0452  0.1263 -1.0244
  383MOL0     C52748   3.339   7.539   8.331 -0.1796  0.2807  0.4425
  383MOL0     C52749   3.429   7.606   8.262 -0.8589 -0.2624 -0.3710
  383MOL0     C52750   3.527   7.685   8.329  0.0775 -0.2517  1.3720
  383MOL0     C52751   3.541   7.681   8.467  0.3989  0.5601 -0.3688
  383MOL0     O52752   3.636   7.745   8.536  0.9464 -0.0256  0.2255
  383MOL0     C52753   3.659   7.882   8.500 -0.2831  0.2403 -0.0241
  383MOL0     C52754   3.554   7.969   8.571  0.2373 -0.0616 -0.5122
  383MOL0     C52755   3.572   8.119   8.536  0.0815 -0.3085 -0.4593
  383MOL0     C52756   3.484   8.203   8.636  0.5421  1.2640  0.2199
  383MOL0     C52757   3.557   8.327   8.692  0.3579  0.3759  0.0978
  383MOL0     C52758   3.466   8.439   8.733  0.3375  0.6256  1.1442
  383MOL0     C52759   3.419   8.531   8.616  0.3249  0.8430 -0.6757
  383MOL0     C52760   3.372   8.664   8.665 -0.7041  0.3376 -0.0338
  383MOL0    Cl52761   3.345   8.759   8.520  0.0565 -0.1729  0.2198
  383MOL0     C52762   3.459   7.595   8.536  0.1520 -0.0277 -0.1872
  383MOL0     C52763   3.355   7.524   8.471 -0.2789 -0.3497 -0.2577
  383MOL0     O52764   3.215   7.534   8.046  0.1477 -0.8411 -0.1048
  383MOL0     C52765   3.053   7.272   8.218  1.2438  0.3678 -0.3234
  383MOL0     C52766   2.969   7.162   8.198  0.5343  0.2900 -1.3244
  383MOL0     N52767   2.565   6.508   7.757 -0.3217 -0.4250 -0.0518
  383MOL0     N52768   2.437   6.508   7.788 -0.6549  0.1039 -0.7327
  383MOL0     C52769   1.688   6.498   8.697  0.6169  0.0697 -0.7171
  383MOL0     C52770   1.656   6.484   8.838 -0.6080  0.5115 -0.2707
  383MOL0     C52771   1.541   6.440   9.256 -0.2235 -0.4304 -0.8203
  383MOL0     C52772   1.474   6.568   9.273 -0.0676  0.9648 -0.9231
  383MOL0     C52773   1.435   6.617   9.401  0.2268  0.0869  0.6807
  383MOL0     C52774   1.473   6.542   9.513 -0.4593  0.8147  0.0212
  383MOL0     O52775   1.433   6.564   9.646 -0.6255 -0.1800 -0.6232
  383MOL0     C52776   1.375   6.685   9.673  0.5495  0.6172 -0.2822
  383MOL0     C52777   1.480   6.791   9.715  0.4846 -0.0267  0.2742
  383MOL0     C52778   1.439   6.920   9.795  0.2308  0.0771 -0.0516
  383MOL0     C52779   1.305   6.993   9.751  1.6711 -0.2531  0.5736
  383MOL0     C52780   1.186   6.916   9.777  0.7946  0.2218  0.9576
  383MOL0     C52781   1.094   6.855   9.826 -0.0255 -0.2463  0.4571
  383MOL0     C52782   1.536   6.417   9.500  0.3974  0.1549  0.8811
  383MOL0     C52783   1.580   6.369   9.375 -0.9538 -0.1200  0.6701
  383MOL0     C52784   1.664   6.240   9.378  1.3534 -1.5806 -0.9621
  383MOL0     H52785   1.329   6.433   8.831  0.9475 -1.9057  2.1553
  383MOL0     H52786   1.366   6.461   8.589 -0.7916  1.8369  2.5716
  383MOL0     H52787   1.710   6.310   8.376 -4.6391  1.1602  1.1090
  383MOL0     H52788   1.812   6.413   8.488  1.0826  0.3756  0.7007
  383MOL0     H52789   1.673   6.512   8.220 -0.5428  1.9872  0.7937
  383MOL0     H52790   1.761   6.595   8.326 -0.8693  1.0034 -2.2758
  383MOL0     H52791   1.918   6.541   8.135 -1.4449 -2.3907 -3.3574
  383MOL0     H52792   1.978   6.476   8.287 -2.2028 -1.6448  2.0560
  383MOL0     H52793   1.898   6.237   8.210  4.7032 -0.4626  0.1733
  383MOL0     H52794   1.838   6.312   8.067  2.8048 -1.7632 -2.3875
  383MOL0     H52795   2.045   6.407   7.996 -2.1848  2.3254  1.4788
  383MOL0     H52796   2.017   6.230   7.989 -1.4367  2.2235 -0.7093
  383MOL0     H52797   2.171   6.362   8.222  2.0794 -0.1070  1.0924
  383MOL0     H52798   2.161   6.192   8.172 -3.0022  2.1242  2.4656
  383MOL0     H52799   2.314   6.259   7.967  2.0993  0.1135 -0.2460
  383MOL0     H52800   2.386   6.304   8.123 -1.1287 -0.3722  0.6785
  383MOL0     H52801   2.236   6.521   7.954  1.8009  1.0959 -2.0588
  383MOL0     H52802   2.319   6.527   8.106  0.0882 -1.4950  1.4331
  383MOL0     H52803   2.592   6.501   8.082 -0.8377 -0.4907  1.1174
  383MOL0     H52804   2.822   6.490   7.806 -0.9583  1.2930 -2.7023
  383MOL0     H52805   2.832   6.539   7.979 -0.0011  2.2460  0.5089
  383MOL0     H52806   2.898   6.721   7.790  1.8162  1.3390  2.4320
  383MOL0     H52807   2.727   6.761   7.809 -3.1966 -1.8766  3.1774
  383MOL0     H52808   2.730   6.766   8.026  0.4782  0.2084 -0.8580
  383MOL0     H52809   2.908   6.741   8.048  2.9160  1.6150 -0.9865
  383MOL0     H52810   2.941   6.945   7.913 -0.3689 -0.6782 -1.2026
  383MOL0     H52811   2.771   6.960   7.888  0.7632 -0.6229 -0.7508
  383MOL0     H52812   2.882   7.188   7.872 -1.0595 -2.0815  1.0700
  383MOL0     H52813   3.157   7.398   7.829  0.2899 -0.6574  0.1566
  383MOL0     H52814   3.018   7.494   7.842  0.5263  0.3112  0.4378
  383MOL0     H52815   3.015   7.330   7.765 -0.5821 -1.5983  2.4613
  383MOL0     H52816   3.408   7.620   8.156  3.4017  0.8436 -1.2677
  383MOL0     H52817   3.567   7.768   8.271 -1.9366  0.1253  0.4453
  383MOL0     H52818   3.755   7.900   8.549 -1.4880  0.8126  2.2500
  383MOL0     H52819   3.665   7.901   8.392 -1.9766 -0.3667 -0.2550
  383MOL0     H52820   3.454   7.934   8.543  0.3381 -0.0622 -0.8783
  383MOL0     H52821   3.570   7.955   8.678  0.5008 -1.9050 -0.7593
  383MOL0     H52822   3.545   8.130   8.431  1.7903 -3.8355 -1.4194
  383MOL0     H52823   3.679   8.141   8.545 -0.3450  1.9398 -0.2169
  383MOL0     H52824   3.448   8.144   8.721 -0.9038  1.2951 -0.3518
  383MOL0     H52825   3.389   8.217   8.583 -0.0696 -1.3190  0.4724
  383MOL0     H52826   3.627   8.308   8.775  0.7335  0.5081 -0.1864
  383MOL0     H52827   3.620   8.362   8.610  0.1637 -0.9942 -0.6631
  383MOL0     H52828   3.513   8.500   8.812 -1.2527  0.0458  2.6079
  383MOL0     H52829   3.377   8.391   8.773  0.0499 -0.0072 -0.2213
  383MOL0     H52830   3.335   8.474   8.576  1.2209 -1.7989  0.9360
  383MOL0     H52831   3.500   8.542   8.542 -2.0485  0.6437 -3.4851
  383MOL0     H52832   3.444   8.704   8.737  3.8595 -0.7401 -3.5674
  383MOL0     H52833   3.269   8.662   8.702 -0.3575 -0.1346  0.9598
  383MOL0     H52834   3.463   7.591   8.645 -0.5334  0.0562 -0.1564
  383MOL0     H52835   3.287   7.469   8.535 -1.6506  1.6721  0.1146
  383MOL0     H52836   3.079   7.291   8.322 -3.3140 -1.0348  1.3416
  383MOL0     H52837   2.937   7.111   8.288 -0.0199  0.8983 -1.1731
  383MOL0     H52838   1.784   6.529   8.656 -0.3459 -0.4642 -3.5694
  383MOL0     H52839   1.730   6.501   8.916  1.9216 -0.7879 -2.2288
  383MOL0     H52840   1.470   6.637   9.189  2.4671  1.2950 -0.8415
  383MOL0     H52841   1.399   6.719   9.398  4.7132  1.8669 -2.5822
  383MOL0     H52842   1.304   6.720   9.597 -2.9110 -2.8519  1.0023
  383MOL0     H52843   1.307   6.657   9.754 -1.2925  1.9968 -1.2650
  383MOL0     H52844   1.523   6.832   9.624 -0.7219 -1.6126 -1.0574
  383MOL0     H52845   1.558   6.747   9.777  0.3003 -1.4172 -0.4494
  383MOL0     H52846   1.436   6.897   9.902 -1.3953  1.5812  0.2658
  383MOL0     H52847   1.520   6.989   9.775 -2.5345  3.8442  0.6463
  383MOL0     H52848   1.308   6.994   9.641 -1.1325  0.5140  0.4366
  383MOL0     H52849   1.288   7.092   9.792 -1.3109 -0.9569  1.2662
  383MOL0     H52850   1.021   6.806   9.886  2.2063 -0.9812  2.7345
  383MOL0     H52851   1.559   6.352   9.584  1.1797 -2.0953 -0.9705
  383MOL0     H52852   1.617   6.156   9.326 -0.8292 -2.3049  1.9084
  383MOL0     H52853   1.755   6.260   9.320  1.9093 -3.3671 -0.7846
  383MOL0     H52854   1.692   6.209   9.479  1.3917  1.7970  0.1833
  384MOL0     O52855   9.131   5.346   8.040 -0.5769 -0.3835 -0.3846
  384MOL0     C52856   9.128   5.345   8.162 -0.8220  0.0389  0.2837
  384MOL0     O52857   9.114   5.467   8.235 -0.0836  0.3739 -0.2088
  384MOL0     C52858   9.009   5.554   8.201 -0.5353 -0.3482  0.0308
  384MOL0     C52859   8.997   5.660   8.287 -0.7108 -0.3401  0.1958
  384MOL0     C52860   8.908   5.762   8.276  0.8559 -0.3750  0.5404
  384MOL0     C52861   8.822   5.755   8.157 -0.3493  0.0666 -0.2539
  384MOL0     O52862   8.719   5.855   8.144  0.3966 -0.1861 -0.1718
  384MOL0     C52863   8.678   5.898   8.016 -0.0924 -0.4221 -0.8076
  384MOL0     C52864   8.651   6.047   8.000 -0.5900 -0.4705 -0.1557
  384MOL0     C52865   8.524   6.100   8.067 -0.1723  0.8676  0.0748
  384MOL0     C52866   8.492   6.245   8.002 -0.5864 -0.3546 -0.8545
  384MOL0     C52867   8.359   6.310   8.043 -0.5197  0.4073 -0.3769
  384MOL0     C52868   8.335   6.311   8.203  0.3087 -0.3191  0.5412
  384MOL0     C52869   8.223   6.422   8.227 -0.6272 -0.3113  0.6429
  384MOL0     C52870   8.117   6.392   8.343 -0.0737 -0.2942 -0.5995
  384MOL0     N52871   8.176   6.414   8.470  0.5104 -1.0635  0.5253
  384MOL0     C52872   8.217   6.323   8.569  0.1463  0.1487  0.6718
  384MOL0     C52873   8.273   6.400   8.666  0.0199  0.3406  0.4336
  384MOL0     C52874   8.335   6.364   8.797  0.0033 -0.0380 -0.4509
  384MOL0     C52875   8.481   6.316   8.771 -0.1456 -0.1971 -0.0868
  384MOL0     C52876   8.576   6.340   8.891 -0.6540 -0.9495  1.5730
  384MOL0     C52877   8.720   6.321   8.856  0.3711 -0.0492 -0.1763
  384MOL0     O52878   8.762   6.380   8.741 -0.0410 -0.3145 -0.2939
  384MOL0     C52879   8.898   6.379   8.717  0.0987  0.5338 -1.6310
  384MOL0     C52880   8.982   6.491   8.717  0.0099  0.1346  0.0421
  384MOL0     C52881   9.120   6.483   8.710 -0.0369 -0.0856 -0.2957
  384MOL0     C52882   9.201   6.612   8.722  0.7782  0.7771  0.4199
  384MOL0     C52883   9.183   6.357   8.697 -0.0601 -0.1940  0.3579
  384MOL0     C52884   9.327   6.340   8.714 -0.7792 -0.2701 -0.5598
  384MOL0     O52885   9.390   6.247   8.650  0.0705  0.8170 -0.8750
  384MOL0     C52886   9.522   6.227   8.668  0.2815 -0.1046  0.2667
  384MOL0     C52887   9.617   6.330   8.691  0.8762 -0.1171  0.0604
  384MOL0     C52888   9.744   6.306   8.723  0.6011  0.3390 -1.3241
  384MOL0     C52889   9.775   6.169   8.749 -0.5567  0.9905 -0.5875
  384MOL0     O52890   9.900   6.131   8.801  0.3750 -0.0586  0.5761
  384MOL0     C52891   9.973   6.218   8.892  0.4366 -0.1111 -0.4634
  384MOL0     C52892  10.055   6.113   8.982 -0.4190  0.3869  0.7509
  384MOL0     C52893  10.188   6.103   8.917 -1.0770  0.1676 -0.1844
  384MOL0     C52894  10.267   5.988   8.974  0.0836 -0.3953  0.0079
  384MOL0     C52895  10.411   5.984   8.931  0.1344  0.7204  0.1203
  384MOL0     C52896  10.488   5.886   9.018  0.8695 -0.0629 -1.2578
  384MOL0     C52897  10.640   5.875   8.984 -0.1682  0.5974 -0.4689
  384MOL0     C52898  10.731   5.992   9.014  0.6065 -0.0754 -0.3809
  384MOL0    Cl52899  10.734   6.110   8.881  0.2028 -0.7382  0.1259
  384MOL0     C52900   9.684   6.067   8.721 -0.6012 -0.8635 -0.6490
  384MOL0     C52901   9.556   6.093   8.684 -0.3573 -0.8352 -0.2410
  384MOL0     O52902   9.371   6.403   8.816 -0.5290  0.6513 -0.7502
  384MOL0     C52903   9.099   6.251   8.683  0.4371  0.4284 -0.5310
  384MOL0     C52904   8.961   6.262   8.694 -0.3852  0.2705 -0.1339
  384MOL0     N52905   8.270   6.531   8.623  0.1233 -0.9744  0.7985
  384MOL0     N52906   8.220   6.533   8.500  0.3432  0.1292  0.1574
  384MOL0     C52907   8.837   5.655   8.065 -0.1111  0.5566 -0.2381
  384MOL0     C52908   8.922   5.554   8.088 -0.3257  0.9543  0.0239
  384MOL0     C52909   9.171   5.230   8.244  0.5403  0.2574 -0.5268
  384MOL0     C52910   9.238   5.255   8.368 -0.6866  0.4422 -0.5683
  384MOL0     C52911   9.279   5.147   8.448 -0.5303 -1.0020 -0.6492
  384MOL0     C52912   9.258   5.022   8.417  0.6709  0.4288 -0.1541
  384MOL0     O52913   9.291   4.928   8.508  0.4611 -0.4524 -0.3254
  384MOL0     C52914   9.423   4.883   8.498  0.6602  0.4523  0.1608
  384MOL0     C52915   9.450   4.768   8.595 -0.6490 -0.3749 -0.5381
  384MOL0     C52916   9.357   4.638   8.589 -0.3890 -0.6470 -0.1100
  384MOL0     C52917   9.347   4.581   8.450  0.6253 -0.5002 -0.9165
  384MOL0     C52918   9.476   4.534   8.404 -0.2464  0.3945  0.0654
  384MOL0     C52919   9.566   4.492   8.326 -0.0823  0.3001  0.6829
  384MOL0     C52920   9.182   4.994   8.305 -0.0235  0.1846  0.5248
  384MOL0     C52921   9.135   5.089   8.216  0.9516 -0.1630 -0.2907
  384MOL0     C52922   9.044   5.042   8.101  1.2665 -0.2569  0.1957
  384MOL0     H52923   9.075   5.678   8.361  0.8418  3.5190 -2.0502
  384MOL0     H52924   8.905   5.847   8.343 -0.2575  0.4445 -0.4977
  384MOL0     H52925   8.589   5.842   7.986 -0.6906  0.4862 -0.7562
  384MOL0     H52926   8.767   5.882   7.955 -1.4839  3.5254 -4.3077
  384MOL0     H52927   8.735   6.107   8.035  0.4077  0.0739 -3.1554
  384MOL0     H52928   8.644   6.062   7.892  0.1740 -1.9156 -0.4245
  384MOL0     H52929   8.437   6.034   8.056 -0.9243  1.5176  1.7037
  384MOL0     H52930   8.546   6.094   8.174 -3.8237 -0.4545  0.8930
  384MOL0     H52931   8.566   6.318   8.038  0.0050 -1.1349 -0.4550
  384MOL0     H52932   8.488   6.239   7.893  0.9497 -0.0149 -0.9635
  384MOL0     H52933   8.266   6.273   7.998 -0.8772  0.3212  0.4111
  384MOL0     H52934   8.368   6.413   8.009  0.7464  1.1667  2.0215
  384MOL0     H52935   8.309   6.214   8.247 -1.0733  0.2212  0.9936
  384MOL0     H52936   8.427   6.353   8.243  0.8565  0.5297 -1.5149
  384MOL0     H52937   8.163   6.429   8.136 -1.5980  1.5928  1.3549
  384MOL0     H52938   8.287   6.509   8.244  2.9234 -1.9887 -2.6113
  384MOL0     H52939   8.030   6.457   8.329  1.0245  0.7368 -3.1677
  384MOL0     H52940   8.087   6.291   8.314  0.5116  0.2535 -3.3899
  384MOL0     H52941   8.204   6.215   8.560 -1.9385  0.4407 -0.5307
  384MOL0     H52942   8.280   6.281   8.843  0.1331  0.0305 -0.1688
  384MOL0     H52943   8.346   6.459   8.850  0.5083 -0.2008 -0.2590
  384MOL0     H52944   8.484   6.208   8.758  2.6959 -0.8090  3.8150
  384MOL0     H52945   8.516   6.379   8.689 -1.2295  1.0354  0.3580
  384MOL0     H52946   8.561   6.444   8.921 -1.0951 -0.8968  1.1808
  384MOL0     H52947   8.537   6.279   8.973 -2.7788  1.6312  2.6453
  384MOL0     H52948   8.779   6.363   8.938  4.0563  0.9930 -3.1004
  384MOL0     H52949   8.738   6.213   8.846 -2.1547 -0.3820 -1.9801
  384MOL0     H52950   8.931   6.587   8.718 -1.0448 -0.4029 -0.5986
  384MOL0     H52951   9.133   6.695   8.701  0.8846  0.1856 -2.7153
  384MOL0     H52952   9.282   6.618   8.648  2.0301  2.2865  1.8415
  384MOL0     H52953   9.229   6.626   8.827 -1.7335  1.9567  0.9950
  384MOL0     H52954   9.572   6.429   8.685 -1.9126 -1.3527 -1.0309
  384MOL0     H52955   9.823   6.378   8.743 -0.5196  2.2554 -3.4138
  384MOL0     H52956  10.035   6.293   8.842  2.1441  0.6962  2.6151
  384MOL0     H52957   9.898   6.273   8.949 -2.8940 -3.3210 -1.3127
  384MOL0     H52958  10.070   6.150   9.084  0.6379  2.8284 -0.2053
  384MOL0     H52959  10.009   6.014   8.983  2.1311 -0.9884 -2.0744
  384MOL0     H52960  10.226   6.202   8.943 -2.2913  0.6500 -0.1459
  384MOL0     H52961  10.187   6.089   8.809 -0.1295  2.1021 -0.5001
  384MOL0     H52962  10.217   5.892   8.954  0.1473 -0.2268 -0.9902
  384MOL0     H52963  10.257   5.995   9.083 -2.2362  1.3358 -0.2416
  384MOL0     H52964  10.427   5.949   8.829  0.4219  0.6586  0.1844
  384MOL0     H52965  10.451   6.084   8.953  0.1508  0.6352  0.4896
  384MOL0     H52966  10.447   5.785   9.010  1.6132 -0.6743  1.6355
  384MOL0     H52967  10.483   5.917   9.122  1.7959  0.4497 -1.3520
  384MOL0     H52968  10.651   5.863   8.875  3.3949 -1.9647 -0.0279
  384MOL0     H52969  10.660   5.775   9.023 -0.8803  0.9078  0.7425
  384MOL0     H52970  10.835   5.960   9.029  1.8529  2.6937 -2.2350
  384MOL0     H52971  10.698   6.040   9.107 -0.7080 -0.3063 -0.7079
  384MOL0     H52972   9.709   5.961   8.727  1.2889 -0.4210  0.3758
  384MOL0     H52973   9.492   6.008   8.661 -0.3299 -1.1675  0.8473
  384MOL0     H52974   9.144   6.154   8.666 -1.6752 -0.2803 -2.5922
  384MOL0     H52975   8.906   6.169   8.686 -0.5006 -0.0414  3.1849
  384MOL0     H52976   8.764   5.663   7.984 -0.3430  0.0054 -0.0884
  384MOL0     H52977   8.935   5.475   8.016 -0.1579 -0.6045  1.6907
  384MOL0     H52978   9.269   5.357   8.390  2.3631 -0.8115  1.8165
  384MOL0     H52979   9.336   5.172   8.537  0.9376 -5.7262 -0.0332
  384MOL0     H52980   9.434   4.851   8.394  0.3956  2.0553 -0.3932
  384MOL0     H52981   9.502   4.958   8.511  1.6665 -0.9380  2.5889
  384MOL0     H52982   9.436   4.813   8.693 -0.0778  0.6596 -0.9185
  384MOL0     H52983   9.546   4.720   8.572 -1.4671 -1.5761 -1.6569
  384MOL0     H52984   9.392   4.563   8.660  0.7152  0.5491  0.6624
  384MOL0     H52985   9.261   4.683   8.617  0.5501  2.1074 -0.9990
  384MOL0     H52986   9.320   4.666   8.386 -1.8699  0.8803  1.7477
  384MOL0     H52987   9.268   4.506   8.441 -0.8163  0.7746  0.4855
  384MOL0     H52988   9.631   4.443   8.256  0.1845  3.1787 -1.2624
  384MOL0     H52989   9.152   4.891   8.287  2.0780 -0.2424 -0.8740
  384MOL0     H52990   9.103   5.044   8.009  1.3322  2.7500  0.2194
  384MOL0     H52991   9.000   4.943   8.115 -3.7101  1.5507 -0.5957
  384MOL0     H52992   8.965   5.116   8.086  0.3223 -1.5111 -1.4034
  385MOL0     O52993   8.666  10.490   5.871 -1.1061  0.5070 -0.1704
  385MOL0     C52994   8.567  10.422   5.895  0.1431  0.4716 -0.0724
  385MOL0     O52995   8.561  10.286   5.888 -0.2163  0.3674  0.5523
  385MOL0     C52996   8.669  10.202   5.888 -0.4795 -0.7545  0.0765
  385MOL0     C52997   8.785  10.228   5.967  1.3266  1.1747 -1.0617
  385MOL0     C52998   8.885  10.139   5.979 -0.0846  0.2156  0.6800
  385MOL0     C52999   8.884  10.029   5.894  0.3256 -0.2838  0.9287
  385MOL0     O53000   8.977   9.934   5.900 -0.0772  0.0896 -0.6993
  385MOL0     C53001   9.114   9.979   5.884 -0.6796 -0.1879 -0.1351
  385MOL0     C53002   9.205   9.876   5.828  0.2048  0.5389  0.4421
  385MOL0     C53003   9.153   9.828   5.701  0.6765  0.2180  0.2349
  385MOL0     C53004   9.247   9.747   5.629 -0.1764  0.3139  0.0737
  385MOL0     C53005   9.271   9.613   5.690  0.2752  0.2099 -0.1301
  385MOL0     C53006   9.137   9.535   5.694  0.6227  0.0018  0.0808
  385MOL0     C53007   9.161   9.386   5.671 -0.5463  0.2728 -0.6975
  385MOL0     C53008   9.038   9.305   5.705 -0.1196 -0.3814 -0.2515
  385MOL0     N53009   9.076   9.164   5.739 -0.2290  0.1519  0.1706
  385MOL0     C53010   9.176   9.083   5.708  0.5992 -0.1235 -0.4940
  385MOL0     C53011   9.164   8.977   5.782  0.1262  0.4252  0.0785
  385MOL0     C53012   9.252   8.854   5.763 -0.1884  0.0492  0.0860
  385MOL0     C53013   9.215   8.772   5.637  0.2835  0.2557  0.7986
  385MOL0     C53014   9.063   8.730   5.644 -0.8442 -1.5085 -0.8600
  385MOL0     C53015   9.030   8.649   5.516 -0.7064 -0.5425 -0.0491
  385MOL0     O53016   8.915   8.713   5.457 -0.1663 -1.5605  0.2920
  385MOL0     C53017   8.841   8.629   5.376 -0.3563 -0.6706  0.6326
  385MOL0     C53018   8.714   8.665   5.345 -0.0625 -1.2147  0.2551
  385MOL0     C53019   8.614   8.601   5.263 -1.2334 -0.1796 -0.4937
  385MOL0     C53020   8.474   8.664   5.247 -0.8637  0.4079 -0.4147
  385MOL0     C53021   8.662   8.494   5.192 -0.1214  0.5110 -0.3105
  385MOL0     C53022   8.587   8.417   5.094  0.1018 -0.8070 -0.5711
  385MOL0     O53023   8.662   8.350   4.992  0.7182 -0.0435  0.4603
  385MOL0     C53024   8.603   8.298   4.879 -0.0675 -0.4297  0.0495
  385MOL0     C53025   8.703   8.273   4.779 -0.0906 -0.0655 -1.1943
  385MOL0     C53026   8.667   8.230   4.657 -0.6035 -0.0646  0.5344
  385MOL0     C53027   8.534   8.222   4.617 -0.6015 -0.2267  0.1121
  385MOL0     O53028   8.509   8.175   4.494  0.6168 -0.2350  0.1130
  385MOL0     C53029   8.376   8.138   4.440 -0.5808  0.6363  0.3617
  385MOL0     C53030   8.395   8.095   4.293 -0.6462  0.2568  0.6702
  385MOL0     C53031   8.496   8.182   4.212  0.0656  0.0948  0.0757
  385MOL0     C53032   8.628   8.104   4.199 -0.8463  0.3986 -0.3962
  385MOL0     C53033   8.757   8.183   4.166  0.1803 -0.2006 -0.4656
  385MOL0     C53034   8.784   8.300   4.262  0.5324 -0.5277 -1.0693
  385MOL0     C53035   8.905   8.378   4.204 -0.1909  0.6349 -0.1623
  385MOL0     C53036   8.932   8.497   4.288  0.1886 -0.2139 -0.6865
  385MOL0    Cl53037   8.965   8.459   4.461  0.6678 -0.1195 -0.5320
  385MOL0     C53038   8.431   8.253   4.711 -0.8913  0.2717 -0.0424
  385MOL0     C53039   8.467   8.297   4.842 -0.2466 -1.4247  0.4413
  385MOL0     O53040   8.464   8.437   5.100 -0.2348 -0.8323  0.1317
  385MOL0     C53041   8.797   8.451   5.212 -0.3392 -0.5680 -0.7302
  385MOL0     C53042   8.883   8.512   5.310  0.3780 -0.3965  1.0300
  385MOL0     N53043   9.053   8.985   5.853 -0.0120  0.1892  0.1223
  385MOL0     N53044   8.990   9.096   5.822 -0.0458 -0.2238 -0.1500
  385MOL0     C53045   8.780  10.007   5.807  0.1264  0.2481 -0.1553
  385MOL0     C53046   8.675  10.092   5.801  0.3471  0.3761  0.4797
  385MOL0     C53047   8.439  10.484   5.915  0.1191 -0.0215 -1.1013
  385MOL0     C53048   8.320  10.407   5.899 -0.6564 -0.1855  0.4918
  385MOL0     C53049   8.193  10.466   5.904  0.1549 -0.6935  0.5353
  385MOL0     C53050   8.181  10.609   5.903 -0.4002  0.3707 -1.2424
  385MOL0     O53051   8.060  10.672   5.892 -0.7266  0.5487 -0.1734
  385MOL0     C53052   8.053  10.788   5.826  0.1918 -0.7756  0.0297
  385MOL0     C53053   7.907  10.804   5.763 -0.0595 -0.0648 -0.9445
  385MOL0     C53054   7.878  10.701   5.662 -0.6775  0.2689  0.1005
  385MOL0     C53055   7.757  10.731   5.574  0.8055  0.5333  0.2578
  385MOL0     C53056   7.629  10.722   5.653  0.0727  0.7823  0.3968
  385MOL0     C53057   7.506  10.716   5.689 -0.5027  0.2547  0.5545
  385MOL0     C53058   8.298  10.685   5.936 -0.7533 -0.0156  0.5941
  385MOL0     C53059   8.426  10.626   5.948  0.1661  0.2599  1.1266
  385MOL0     C53060   8.549  10.705   5.987  0.4014 -0.3850  0.2598
  385MOL0     H53061   8.794  10.309   6.039  0.5510  1.8846 -1.7430
  385MOL0     H53062   8.953  10.133   6.064  0.3294 -1.7290  0.2523
  385MOL0     H53063   9.157  10.007   5.980  0.5381  0.6935 -0.9162
  385MOL0     H53064   9.123  10.068   5.821  3.8078 -2.0886 -2.6835
  385MOL0     H53065   9.309   9.911   5.820 -0.2231  1.7216 -0.2298
  385MOL0     H53066   9.197   9.793   5.899  0.6668  1.7136  1.9291
  385MOL0     H53067   9.060   9.774   5.722  0.1680  1.4387  1.2525
  385MOL0     H53068   9.123   9.907   5.631  0.7442  0.7220  0.7685
  385MOL0     H53069   9.210   9.734   5.526 -0.0816  0.0702  0.0718
  385MOL0     H53070   9.346   9.795   5.623  2.1343 -4.0656 -0.6687
  385MOL0     H53071   9.319   9.604   5.787  2.2044 -1.1646 -1.1445
  385MOL0     H53072   9.347   9.564   5.629  3.0918  1.7057  1.9504
  385MOL0     H53073   9.075   9.546   5.783  0.3436 -1.7381  0.1394
  385MOL0     H53074   9.070   9.571   5.616 -0.8479 -0.1726  1.2104
  385MOL0     H53075   9.252   9.360   5.726  1.2191  2.9948 -2.0896
  385MOL0     H53076   9.171   9.372   5.563 -1.1335  1.9161 -0.9931
  385MOL0     H53077   8.989   9.342   5.796  1.8513 -0.2608  0.8324
  385MOL0     H53078   8.978   9.307   5.614  0.4825  0.7535 -0.6318
  385MOL0     H53079   9.247   9.113   5.631 -0.7841  0.5060 -1.5784
  385MOL0     H53080   9.247   8.790   5.851  0.7984 -1.4635 -0.9165
  385MOL0     H53081   9.352   8.894   5.744 -0.3990 -0.4515 -2.5422
  385MOL0     H53082   9.235   8.837   5.551  0.0910 -2.6538 -1.5958
  385MOL0     H53083   9.274   8.680   5.633  0.1717  0.1952  0.5170
  385MOL0     H53084   9.041   8.667   5.730  0.1656 -0.4237  0.2187
  385MOL0     H53085   8.999   8.819   5.654 -1.8342 -2.4517  1.9389
  385MOL0     H53086   9.115   8.656   5.447 -1.0721  2.1368 -0.3134
  385MOL0     H53087   9.014   8.545   5.546  1.2459 -0.8343  0.0761
  385MOL0     H53088   8.701   8.762   5.394  0.6332  0.9910 -3.5476
  385MOL0     H53089   8.442   8.675   5.143 -0.9279 -1.4231 -0.6276
  385MOL0     H53090   8.478   8.760   5.297 -0.9093  0.4409 -0.4741
  385MOL0     H53091   8.402   8.595   5.291 -0.1617  1.1614  2.0426
  385MOL0     H53092   8.806   8.288   4.807 -0.2517  1.0461 -1.1541
  385MOL0     H53093   8.753   8.196   4.600  0.7786  1.8193  1.4034
  385MOL0     H53094   8.324   8.066   4.504 -0.5638  3.1386  3.3848
  385MOL0     H53095   8.308   8.223   4.443  0.2398  1.3745 -0.8830
  385MOL0     H53096   8.418   7.988   4.285 -3.8676 -0.5272  0.8324
  385MOL0     H53097   8.297   8.102   4.246 -1.7121 -2.4311  2.2616
  385MOL0     H53098   8.495   8.286   4.248  2.8974  0.1384  0.2163
  385MOL0     H53099   8.460   8.195   4.109  0.0527  1.2895  0.2162
  385MOL0     H53100   8.616   8.022   4.129 -1.1145 -0.0328  0.1483
  385MOL0     H53101   8.640   8.048   4.292 -2.8543 -0.7159 -0.7568
  385MOL0     H53102   8.832   8.103   4.167  0.3806 -0.0245 -1.0709
  385MOL0     H53103   8.738   8.220   4.065 -2.4481 -0.3565 -0.0899
  385MOL0     H53104   8.803   8.260   4.362 -3.3524 -0.0454  0.0178
  385MOL0     H53105   8.698   8.367   4.261 -0.0326 -1.2445 -1.8116
  385MOL0     H53106   8.895   8.405   4.099  0.1456  4.5470  0.6515
  385MOL0     H53107   8.996   8.320   4.221 -0.5014  0.4515  0.9904
  385MOL0     H53108   8.858   8.575   4.273 -2.2868 -2.1490  0.6031
  385MOL0     H53109   9.027   8.537   4.252 -0.4037 -0.0431 -2.1360
  385MOL0     H53110   8.327   8.257   4.680 -0.7340  0.2587 -0.5850
  385MOL0     H53111   8.386   8.328   4.908 -1.7207  0.1238 -1.8968
  385MOL0     H53112   8.835   8.362   5.162 -0.1197 -1.2155  0.5567
  385MOL0     H53113   8.983   8.471   5.319  0.5830  0.4233  2.7413
  385MOL0     H53114   8.791   9.921   5.742 -0.0531  1.7784 -2.3496
  385MOL0     H53115   8.587  10.067   5.743  1.6824 -0.6839 -1.1892
  385MOL0     H53116   8.317  10.302   5.875 -0.2006  0.7051 -4.3242
  385MOL0     H53117   8.102  10.407   5.895 -1.4907  1.6932  0.4605
  385MOL0     H53118   8.074  10.881   5.880 -0.0973 -0.5870 -0.1772
  385MOL0     H53119   8.124  10.787   5.743 -1.7504  1.1835 -1.7915
  385MOL0     H53120   7.893  10.894   5.702 -2.2645  0.1352 -0.2172
  385MOL0     H53121   7.834  10.793   5.843  1.5577 -0.9610  0.4942
  385MOL0     H53122   7.966  10.695   5.597 -0.5364 -2.3551  0.4028
  385MOL0     H53123   7.882  10.599   5.702  0.4658  0.7900  1.3709
  385MOL0     H53124   7.762  10.670   5.483 -1.0779 -1.9395  1.7025
  385MOL0     H53125   7.765  10.831   5.531  0.5189 -0.0785 -1.2680
  385MOL0     H53126   7.402  10.713   5.716 -1.6835 -0.9089 -3.4350
  385MOL0     H53127   8.299  10.793   5.946  0.6061 -0.1189  1.9971
  385MOL0     H53128   8.633  10.651   6.032  1.0843  0.5002  0.1015
  385MOL0     H53129   8.592  10.749   5.896 -0.6300 -1.8654 -0.9788
  385MOL0     H53130   8.520  10.792   6.047  1.6548  1.2241 -1.3428
  386MOL0     O53131   4.211   2.120   8.947  0.0368  0.1760  0.0602
  386MOL0     C53132   4.130   2.155   9.033  0.0505 -0.5531 -0.2440
  386MOL0     O53133   4.152   2.244   9.130 -0.1694 -0.5709  0.2297
  386MOL0     C53134   4.258   2.336   9.113  0.8100 -0.5332  0.6598
  386MOL0     C53135   4.239   2.477   9.136  0.9063  0.1652 -0.4878
  386MOL0     C53136   4.345   2.568   9.139  0.7945  0.4655  0.7086
  386MOL0     C53137   4.473   2.525   9.107  0.8400 -0.1469 -0.3396
  386MOL0     O53138   4.584   2.610   9.108 -0.2751 -0.0773  0.2344
  386MOL0     C53139   4.656   2.631   8.983 -0.1934  0.4404 -0.1988
  386MOL0     C53140   4.775   2.724   8.985 -0.1444 -0.1230 -0.1421
  386MOL0     C53141   4.730   2.871   8.959 -0.7021  0.9582  0.0959
  386MOL0     C53142   4.605   2.925   9.030  0.3304 -1.1233 -0.1104
  386MOL0     C53143   4.473   2.908   8.956 -0.9156 -0.0576 -1.2747
  386MOL0     C53144   4.469   2.984   8.833 -0.0944  0.0352 -0.1812
  386MOL0     C53145   4.336   2.981   8.772  0.4004  0.4928  0.1783
  386MOL0     C53146   4.341   3.022   8.631 -0.4427  0.4320 -0.4501
  386MOL0     N53147   4.216   3.017   8.564  1.0912 -0.3785 -0.5398
  386MOL0     C53148   4.153   2.902   8.523  0.3661  0.1629  0.7549
  386MOL0     C53149   4.022   2.936   8.506 -0.1775 -0.6953 -1.4675
  386MOL0     C53150   3.919   2.847   8.439 -1.0617  0.1797 -0.2773
  386MOL0     C53151   3.924   2.701   8.496  0.1114  0.0752 -0.4598
  386MOL0     C53152   3.990   2.595   8.417  0.2488  0.0258  0.2929
  386MOL0     C53153   3.999   2.463   8.479 -0.2590 -0.1458  0.4000
  386MOL0     O53154   3.863   2.395   8.480  0.3183  0.3888 -0.1077
  386MOL0     C53155   3.766   2.393   8.577  0.2129  0.6906 -0.4307
  386MOL0     C53156   3.643   2.336   8.539  1.5437 -0.0950  0.3515
  386MOL0     C53157   3.540   2.326   8.629 -0.4914 -0.0043 -0.1876
  386MOL0     C53158   3.401   2.286   8.574  0.1571  0.1367  0.3060
  386MOL0     C53159   3.555   2.374   8.759 -0.2914 -0.1320 -0.0280
  386MOL0     C53160   3.452   2.369   8.869  0.0507 -0.1424  0.4464
  386MOL0     O53161   3.454   2.455   8.969 -0.3495 -0.1843 -0.6106
  386MOL0     C53162   3.403   2.456   9.093  1.5166 -0.4415 -0.3238
  386MOL0     C53163   3.335   2.349   9.154  0.7909  0.0680  0.2349
  386MOL0     C53164   3.312   2.344   9.297  0.3089 -0.7546 -0.5901
  386MOL0     C53165   3.313   2.469   9.362  0.4575 -0.8855 -1.1492
  386MOL0     O53166   3.279   2.474   9.494  0.5547  0.2272  0.1220
  386MOL0     C53167   3.150   2.417   9.532 -0.0668 -0.1682  0.2212
  386MOL0     C53168   3.157   2.351   9.667 -1.0733  0.3173  0.7199
  386MOL0     C53169   3.254   2.237   9.664 -0.5462 -0.2310  0.5264
  386MOL0     C53170   3.236   2.143   9.778  0.4224 -0.0387  0.4818
  386MOL0     C53171   3.360   2.061   9.806  0.0042 -0.3386 -0.4364
  386MOL0     C53172   3.336   1.952   9.912  0.4092 -0.1369  0.6997
  386MOL0     C53173   3.470   1.888   9.961  0.2366  0.2830 -0.1771
  386MOL0     C53174   3.442   1.781  10.058 -0.9145  0.4823  0.6797
  386MOL0    Cl53175   3.593   1.704  10.103 -0.0965 -0.1019 -0.1305
  386MOL0     C53176   3.358   2.587   9.295  0.4947 -0.2333  0.0248
  386MOL0     C53177   3.413   2.572   9.170 -1.2291 -0.8430  0.4314
  386MOL0     O53178   3.384   2.267   8.859 -0.3017 -0.0302  0.7070
  386MOL0     C53179   3.677   2.425   8.799 -0.3801 -0.1113  1.1216
  386MOL0     C53180   3.781   2.438   8.703 -0.0538  0.2381  0.1920
  386MOL0     N53181   4.005   3.068   8.544  0.3433 -0.1705 -0.3811
  386MOL0     N53182   4.120   3.111   8.594 -0.6682  0.2849 -0.2693
  386MOL0     C53183   4.496   2.387   9.082  0.6137 -0.2738 -0.0235
  386MOL0     C53184   4.395   2.297   9.091  0.0817  0.9949  0.5589
  386MOL0     C53185   4.001   2.087   9.051  0.3675 -0.8251  0.6210
  386MOL0     C53186   3.953   2.048   9.183  0.8889  0.8825 -0.0953
  386MOL0     C53187   3.823   2.010   9.212 -1.0751  0.1235  1.2427
  386MOL0     C53188   3.734   2.018   9.105 -0.5601 -0.0841 -0.0301
  386MOL0     O53189   3.606   1.972   9.130 -0.0805 -0.9255 -0.8472
  386MOL0     C53190   3.499   1.987   9.034 -0.3335  0.5640  0.8248
  386MOL0     C53191   3.370   1.983   9.100  0.0991 -1.2747 -0.5470
  386MOL0     C53192   3.328   1.862   9.172 -0.0628 -0.7760 -0.4226
  386MOL0     C53193   3.353   1.855   9.322 -0.2085  0.3443 -0.7414
  386MOL0     C53194   3.317   1.726   9.371  0.5217  0.7665 -0.1035
  386MOL0     C53195   3.284   1.614   9.402  0.2627  0.0275  0.1371
  386MOL0     C53196   3.777   2.058   8.973  1.2041  1.4063 -0.1924
  386MOL0     C53197   3.909   2.094   8.949  1.3647 -0.2942  1.1449
  386MOL0     C53198   3.943   2.138   8.807  0.1811 -0.3475 -0.0280
  386MOL0     H53199   4.140   2.517   9.157  1.4929  0.7472  1.4467
  386MOL0     H53200   4.324   2.670   9.169 -1.7536 -0.5754  2.8753
  386MOL0     H53201   4.595   2.666   8.899  0.6125  1.1766 -0.4985
  386MOL0     H53202   4.692   2.530   8.963  0.9069  0.2174  2.4952
  386MOL0     H53203   4.822   2.700   9.081 -0.3161  1.1986  0.3032
  386MOL0     H53204   4.836   2.691   8.901  0.3633 -1.5313  0.7428
  386MOL0     H53205   4.820   2.933   8.971 -0.9277  1.1670  0.7491
  386MOL0     H53206   4.717   2.874   8.851  2.0209 -0.4115 -0.3419
  386MOL0     H53207   4.593   2.904   9.136 -2.1628  0.6599  0.0528
  386MOL0     H53208   4.627   3.032   9.039 -1.6058 -0.6849 -0.1834
  386MOL0     H53209   4.389   2.934   9.022 -0.5500 -1.9654  0.0135
  386MOL0     H53210   4.447   2.803   8.938 -2.4781  0.4817 -2.4428
  386MOL0     H53211   4.508   3.084   8.852 -2.5724  0.5756  2.8061
  386MOL0     H53212   4.538   2.942   8.759  3.2633 -0.5115  2.9687
  386MOL0     H53213   4.274   3.051   8.828  1.4103  2.1637 -0.6991
  386MOL0     H53214   4.294   2.880   8.772  1.3813 -0.0727 -3.3766
  386MOL0     H53215   4.390   3.114   8.598  0.7538 -0.2131 -0.5233
  386MOL0     H53216   4.400   2.940   8.587 -1.0765 -2.3895  3.4063
  386MOL0     H53217   4.198   2.804   8.507  0.4004  0.4115 -0.8911
  386MOL0     H53218   3.933   2.831   8.332  0.4221 -0.9955  0.0490
  386MOL0     H53219   3.817   2.882   8.456 -1.5652 -1.1642 -0.4289
  386MOL0     H53220   3.973   2.708   8.594  1.0490  2.3340 -1.0199
  386MOL0     H53221   3.825   2.658   8.515 -1.3798  3.3274 -0.1117
  386MOL0     H53222   3.933   2.574   8.326  2.0325 -0.2617 -0.8253
  386MOL0     H53223   4.086   2.638   8.386 -1.7488  2.7547 -2.7015
  386MOL0     H53224   4.071   2.400   8.428 -0.6077 -2.4420  2.5491
  386MOL0     H53225   4.032   2.470   8.583  0.8647 -1.1477  0.1306
  386MOL0     H53226   3.638   2.294   8.438 -4.2676  0.5071  0.0554
  386MOL0     H53227   3.324   2.362   8.592  0.2851  0.9541 -2.2381
  386MOL0     H53228   3.371   2.192   8.622  4.3924 -0.7219  1.6717
  386MOL0     H53229   3.406   2.276   8.466 -0.3603  2.4385  0.0113
  386MOL0     H53230   3.327   2.259   9.094 -3.4014  0.3251  0.0627
  386MOL0     H53231   3.292   2.249   9.345  1.7223 -0.7715  0.0326
  386MOL0     H53232   3.074   2.493   9.548 -1.0403 -1.0791  0.0392
  386MOL0     H53233   3.118   2.354   9.448  2.1833  2.3310 -2.8051
  386MOL0     H53234   3.186   2.431   9.736 -0.3754 -0.1043  0.9290
  386MOL0     H53235   3.059   2.311   9.695 -0.5548 -1.0939  0.5729
  386MOL0     H53236   3.355   2.279   9.673  0.2618 -1.9058 -0.2884
  386MOL0     H53237   3.251   2.187   9.567  1.5384 -1.9613  1.2907
  386MOL0     H53238   3.156   2.072   9.754 -2.1685  2.6755  0.4536
  386MOL0     H53239   3.214   2.194   9.873  2.4540  0.8560  0.5142
  386MOL0     H53240   3.409   2.008   9.724 -1.7669  0.0926 -1.8345
  386MOL0     H53241   3.441   2.129   9.835  0.5036 -2.4708  4.0939
  386MOL0     H53242   3.271   1.879   9.863 -3.0402  2.5600  0.8504
  386MOL0     H53243   3.277   1.989   9.997 -2.3016  0.8053 -1.4338
  386MOL0     H53244   3.531   1.965  10.011 -0.9430  1.6354 -0.7620
  386MOL0     H53245   3.520   1.842   9.875  0.4750  0.2536 -0.0248
  386MOL0     H53246   3.383   1.710  10.000  1.3703  0.6933 -2.1650
  386MOL0     H53247   3.384   1.820  10.142  0.1177  1.3607  1.0089
  386MOL0     H53248   3.371   2.677   9.353  1.2622 -0.1402 -0.2803
  386MOL0     H53249   3.460   2.654   9.116 -1.5526 -1.7300 -1.2677
  386MOL0     H53250   3.674   2.472   8.896  1.3007  2.3000  0.0960
  386MOL0     H53251   3.860   2.497   8.748 -0.2264  0.5613  0.0800
  386MOL0     H53252   4.589   2.338   9.055 -0.1008 -1.9863  0.4681
  386MOL0     H53253   4.430   2.196   9.076  1.3426  1.5511 -0.4320
  386MOL0     H53254   4.005   2.036   9.277 -2.0721 -1.9956  1.3624
  386MOL0     H53255   3.774   1.985   9.306 -3.9319  2.8333  0.6558
  386MOL0     H53256   3.503   2.080   8.978 -1.4532 -1.5044 -3.0568
  386MOL0     H53257   3.507   1.901   8.966 -0.0547  0.5593  0.8629
  386MOL0     H53258   3.298   1.994   9.018 -2.7275 -3.3268  1.4401
  386MOL0     H53259   3.359   2.070   9.165 -0.7029  0.7929 -3.2436
  386MOL0     H53260   3.220   1.869   9.162  0.2161  1.7371 -3.2084
  386MOL0     H53261   3.353   1.775   9.112  2.0835 -0.1235 -0.5715
  386MOL0     H53262   3.288   1.922   9.378 -2.7928 -2.3026 -0.3105
  386MOL0     H53263   3.457   1.876   9.351 -0.1234  1.2198 -1.6509
  386MOL0     H53264   3.246   1.514   9.407  0.5773 -0.6465 -5.0453
  386MOL0     H53265   3.711   2.058   8.887 -0.1409  0.7362  0.8204
  386MOL0     H53266   3.954   2.246   8.811 -2.2360 -0.0925  1.9174
  386MOL0     H53267   4.019   2.073   8.762 -1.2166  0.1190 -3.3774
  386MOL0     H53268   3.857   2.115   8.743 -3.5033  2.2550  3.5257
  387MOL0     O53269   8.945   5.206   4.520 -0.6515 -0.1826 -0.1446
  387MOL0     C53270   8.956   5.283   4.614 -0.0018 -0.8119 -0.0320
  387MOL0     O53271   8.898   5.270   4.735 -0.1382  0.3476 -0.6719
  387MOL0     C53272   8.829   5.150   4.771 -0.2876 -0.1140 -0.7800
  387MOL0     C53273   8.735   5.085   4.695  0.2079  0.0406 -0.6362
  387MOL0     C53274   8.669   4.974   4.746  0.3424  0.2500 -0.5428
  387MOL0     C53275   8.678   4.935   4.880 -0.1083  0.5541 -0.3424
  387MOL0     O53276   8.622   4.818   4.937  0.1687 -0.2287  0.0726
  387MOL0     C53277   8.519   4.746   4.849  0.0240  0.6256  0.4815
  387MOL0     C53278   8.449   4.635   4.922  0.7770  0.5802 -0.1605
  387MOL0     C53279   8.365   4.688   5.044  0.7291 -0.6458  0.0974
  387MOL0     C53280   8.261   4.587   5.096 -0.2558 -0.9800 -0.1734
  387MOL0     C53281   8.177   4.638   5.215 -0.4732  0.3436  0.1862
  387MOL0     C53282   8.257   4.706   5.324 -0.3485 -0.2731  0.2655
  387MOL0     C53283   8.168   4.738   5.451  0.4685  0.6276  0.4525
  387MOL0     C53284   8.254   4.790   5.563  0.5187  0.1647  0.2788
  387MOL0     N53285   8.238   4.934   5.574 -0.0339 -0.1533 -0.2555
  387MOL0     C53286   8.132   4.997   5.641  1.0917 -0.1180  0.4832
  387MOL0     C53287   8.149   5.126   5.614 -0.0883 -0.7648 -0.1766
  387MOL0     C53288   8.072   5.244   5.657 -0.0076 -0.5522 -1.6806
  387MOL0     C53289   8.071   5.273   5.801  0.7729  0.1314 -0.3283
  387MOL0     C53290   8.034   5.422   5.829  0.2935  0.1879 -0.1055
  387MOL0     C53291   8.145   5.521   5.813  0.6440 -0.3263 -0.0849
  387MOL0     O53292   8.109   5.650   5.866 -0.0816 -0.0853 -0.1120
  387MOL0     C53293   8.193   5.749   5.859 -0.3567 -0.0674 -0.3187
  387MOL0     C53294   8.329   5.728   5.862  0.7092 -0.8485 -0.0868
  387MOL0     C53295   8.415   5.840   5.879 -1.1861 -0.7202  0.2145
  387MOL0     C53296   8.562   5.810   5.854 -0.2520  0.1032 -0.2596
  387MOL0     C53297   8.366   5.975   5.874 -0.5247  1.1096  0.6394
  387MOL0     C53298   8.448   6.095   5.864  0.1829 -0.3034  0.3716
  387MOL0     O53299   8.384   6.214   5.851 -0.3689 -0.2082 -0.0630
  387MOL0     C53300   8.471   6.328   5.851 -0.0203 -0.6634  0.8783
  387MOL0     C53301   8.517   6.390   5.732  0.5914 -0.8478  0.4013
  387MOL0     C53302   8.588   6.514   5.730  0.3060  1.1988  0.7630
  387MOL0     C53303   8.610   6.582   5.846  1.4969  0.3963  0.1020
  387MOL0     O53304   8.672   6.704   5.848  0.3140 -0.7303 -0.3432
  387MOL0     C53305   8.732   6.759   5.729 -0.2369  0.0115 -0.0181
  387MOL0     C53306   8.805   6.887   5.764  0.6368  0.3737  0.0230
  387MOL0     C53307   8.940   6.871   5.839  0.8669  0.6235 -0.2914
  387MOL0     C53308   9.031   6.988   5.826  0.0597  0.4770  0.0232
  387MOL0     C53309   8.995   7.094   5.921 -0.6634  0.1774 -0.5951
  387MOL0     C53310   9.050   7.244   5.918 -0.1592  0.7758 -0.7802
  387MOL0     C53311   9.153   7.282   6.026  0.3042 -0.2169  0.2575
  387MOL0     C53312   9.226   7.415   5.999 -0.6850 -0.7633  1.0096
  387MOL0    Cl53313   9.295   7.422   5.844 -0.2673  0.2615  0.0175
  387MOL0     C53314   8.566   6.524   5.965  0.0141 -0.1520 -0.6276
  387MOL0     C53315   8.501   6.394   5.968 -0.9868 -0.6417  0.5820
  387MOL0     O53316   8.566   6.084   5.885 -0.2086  0.2183  0.0037
  387MOL0     C53317   8.228   5.986   5.872  0.0081  1.1495 -0.1076
  387MOL0     C53318   8.141   5.875   5.873 -0.1397 -0.6788  0.5864
  387MOL0     N53319   8.262   5.136   5.532 -0.2171  0.5727  0.0442
  387MOL0     N53320   8.318   5.023   5.508  0.1507  0.3390  1.0631
  387MOL0     C53321   8.772   5.002   4.951 -0.9376 -0.7653 -1.1240
  387MOL0     C53322   8.843   5.121   4.915 -0.1380 -0.4643  0.5450
  387MOL0     C53323   9.065   5.384   4.608  0.3262  0.1166 -0.6519
  387MOL0     C53324   9.167   5.366   4.706 -1.4859  0.4213 -0.4873
  387MOL0     C53325   9.268   5.466   4.719  0.3137 -0.3548  0.4684
  387MOL0     C53326   9.272   5.576   4.638 -0.3666 -0.2284 -0.0359
  387MOL0     O53327   9.380   5.670   4.650  1.3644  0.5370 -0.1790
  387MOL0     C53328   9.459   5.661   4.767  0.1723 -0.0291  1.8816
  387MOL0     C53329   9.558   5.773   4.779  0.3171  0.0912 -0.6660
  387MOL0     C53330   9.620   5.776   4.918  0.5545  0.1492  0.7194
  387MOL0     C53331   9.711   5.648   4.948 -0.7658 -0.4634  0.1424
  387MOL0     C53332   9.823   5.636   4.849 -0.5561  0.6153 -1.4600
  387MOL0     C53333   9.897   5.613   4.763 -0.0551 -0.8580 -0.4020
  387MOL0     C53334   9.167   5.596   4.547 -0.1583  0.9831  0.8028
  387MOL0     C53335   9.060   5.502   4.531 -1.0089 -0.1116 -0.8238
  387MOL0     C53336   8.947   5.543   4.438  0.0947 -0.6528 -0.6123
  387MOL0     H53337   8.726   5.123   4.594  2.0304  1.9685 -0.1431
  387MOL0     H53338   8.591   4.943   4.678  0.3348  2.3766 -1.5844
  387MOL0     H53339   8.561   4.705   4.757  2.6341 -1.4768  2.4668
  387MOL0     H53340   8.439   4.819   4.828 -1.4601  0.4893  4.7964
  387MOL0     H53341   8.395   4.572   4.851  1.3485 -1.3066  1.0029
  387MOL0     H53342   8.527   4.566   4.953  0.2587 -1.1754 -2.4428
  387MOL0     H53343   8.436   4.724   5.119 -0.8581  1.4309  0.7146
  387MOL0     H53344   8.313   4.778   5.009 -0.7098 -1.1115  0.9497
  387MOL0     H53345   8.182   4.564   5.024 -0.6188  1.3352 -0.6195
  387MOL0     H53346   8.308   4.494   5.128  0.0029 -0.4961  0.9185
  387MOL0     H53347   8.123   4.551   5.254 -1.5494 -0.3940 -2.6457
  387MOL0     H53348   8.110   4.715   5.174 -2.4356 -1.8736 -1.0646
  387MOL0     H53349   8.344   4.642   5.342 -0.6850 -0.2385  2.1784
  387MOL0     H53350   8.292   4.804   5.290 -3.0904  1.0744  1.1028
  387MOL0     H53351   8.127   4.645   5.490 -2.5553  2.5123  2.2208
  387MOL0     H53352   8.078   4.799   5.436 -0.2418 -0.7076 -0.9863
  387MOL0     H53353   8.215   4.743   5.654 -1.0805  0.5388 -0.1780
  387MOL0     H53354   8.356   4.756   5.545  0.5509 -0.6762  1.8983
  387MOL0     H53355   8.038   4.964   5.685  0.3016  0.0093 -1.0382
  387MOL0     H53356   7.968   5.242   5.621  0.0671  3.9574 -2.7710
  387MOL0     H53357   8.123   5.327   5.606 -1.8193  2.6536  1.2946
  387MOL0     H53358   7.998   5.210   5.853  1.9793 -0.9800  0.0706
  387MOL0     H53359   8.166   5.249   5.850  1.4909 -2.3358 -2.6821
  387MOL0     H53360   7.945   5.457   5.776 -0.1107 -0.1941  0.3142
  387MOL0     H53361   8.003   5.426   5.934  0.5565  0.2468 -0.0290
  387MOL0     H53362   8.236   5.486   5.862  1.1961  1.8185  0.5549
  387MOL0     H53363   8.164   5.533   5.706 -1.6220  3.5725 -0.2630
  387MOL0     H53364   8.373   5.630   5.878 -2.6599 -2.2674  1.5395
  387MOL0     H53365   8.621   5.848   5.937 -1.8213  3.4435 -0.5292
  387MOL0     H53366   8.585   5.862   5.760 -0.3417  0.2652 -0.1914
  387MOL0     H53367   8.585   5.705   5.832 -1.1673 -0.8558  2.8798
  387MOL0     H53368   8.505   6.349   5.632 -0.6737 -0.5950  0.4284
  387MOL0     H53369   8.601   6.548   5.627 -1.9148  1.3655  0.4668
  387MOL0     H53370   8.804   6.688   5.690 -1.0022 -0.2330 -1.0256
  387MOL0     H53371   8.659   6.772   5.649 -0.0484  0.0405 -0.1863
  387MOL0     H53372   8.823   6.949   5.676 -0.1111  1.9141  0.9059
  387MOL0     H53373   8.729   6.942   5.821 -0.7082 -0.7073 -0.6828
  387MOL0     H53374   8.992   6.785   5.798  1.3049  0.7567 -0.0262
  387MOL0     H53375   8.914   6.855   5.944  1.8394 -3.3404 -0.5019
  387MOL0     H53376   9.021   7.033   5.727 -0.5596 -1.8146 -1.0239
  387MOL0     H53377   9.132   6.953   5.849 -1.6705 -5.0048  0.9073
  387MOL0     H53378   8.888   7.098   5.898 -1.4779  3.0293  2.8100
  387MOL0     H53379   9.001   7.062   6.025 -2.3288 -1.0290 -0.8253
  387MOL0     H53380   8.960   7.305   5.935 -0.6023  0.1225 -0.7393
  387MOL0     H53381   9.087   7.265   5.817  3.2528 -1.2328 -0.0733
  387MOL0     H53382   9.230   7.205   6.039 -1.5749 -2.2235 -0.0041
  387MOL0     H53383   9.092   7.290   6.116 -4.2383 -1.6307 -2.3955
  387MOL0     H53384   9.308   7.435   6.068  1.4802  3.6164 -2.3143
  387MOL0     H53385   9.148   7.491   6.010 -1.2025 -1.2523  0.7576
  387MOL0     H53386   8.595   6.567   6.060  1.0584  1.6843 -1.7216
  387MOL0     H53387   8.473   6.357   6.067 -0.7409 -1.2960  0.4122
  387MOL0     H53388   8.187   6.086   5.885 -2.9970  0.0508 -0.3433
  387MOL0     H53389   8.037   5.906   5.882  0.9350  3.2392  1.3808
  387MOL0     H53390   8.790   4.965   5.052 -1.9031  0.5543 -0.4268
  387MOL0     H53391   8.915   5.179   4.973  0.8985 -1.0691 -0.1197
  387MOL0     H53392   9.159   5.285   4.778  0.1019  0.8694  0.2451
  387MOL0     H53393   9.331   5.461   4.807  0.0356 -0.3448  0.6691
  387MOL0     H53394   9.391   5.673   4.852 -1.2908 -0.3812  0.7974
  387MOL0     H53395   9.512   5.568   4.745 -0.4581  0.6262 -4.1168
  387MOL0     H53396   9.494   5.862   4.771 -0.2538 -0.2883 -0.4105
  387MOL0     H53397   9.620   5.774   4.688 -2.0914 -2.4775 -2.5100
  387MOL0     H53398   9.678   5.869   4.921  0.1013  0.4626  0.0373
  387MOL0     H53399   9.536   5.777   4.988  1.2873  2.4384  1.6876
  387MOL0     H53400   9.647   5.561   4.931 -4.3035  2.3792 -2.7371
  387MOL0     H53401   9.750   5.648   5.051 -0.1601 -2.1173 -0.0537
  387MOL0     H53402   9.969   5.602   4.684  0.5016 -2.5297  0.3022
  387MOL0     H53403   9.167   5.687   4.487 -1.3691 -0.3378 -1.2988
  387MOL0     H53404   8.985   5.597   4.351  1.4150  1.3723  1.1045
  387MOL0     H53405   8.886   5.457   4.408 -1.9630  0.3873  0.3736
  387MOL0     H53406   8.888   5.612   4.500  1.0107  0.2048 -0.6609
  388MOL0     O53407   7.386   6.511   3.046  0.4777 -0.4131  0.4588
  388MOL0     C53408   7.391   6.563   3.157 -0.9666  0.0101  0.5078
  388MOL0     O53409   7.306   6.537   3.261  0.0784  0.0330 -0.8012
  388MOL0     C53410   7.220   6.432   3.239 -0.2369 -0.3481 -0.9977
  388MOL0     C53411   7.244   6.309   3.293 -0.4006  0.0632 -0.0426
  388MOL0     C53412   7.146   6.206   3.284  0.0396 -0.5975 -0.5477
  388MOL0     C53413   7.044   6.223   3.195  0.7384  0.1354 -0.4242
  388MOL0     O53414   6.951   6.127   3.163 -0.2774  0.1861  0.9783
  388MOL0     C53415   6.965   5.987   3.180 -0.6775 -0.3877 -0.9326
  388MOL0     C53416   7.002   5.922   3.053  0.1413 -0.1608  0.4054
  388MOL0     C53417   6.938   5.967   2.924 -0.4645 -0.1100  0.0812
  388MOL0     C53418   6.997   5.898   2.806  0.8128  0.7405 -0.5761
  388MOL0     C53419   6.971   5.971   2.672  0.7263  0.8555  0.3387
  388MOL0     C53420   7.028   5.879   2.557 -0.7170  1.1699  0.2684
  388MOL0     C53421   6.984   5.938   2.422 -0.1401  0.0971  0.3532
  388MOL0     C53422   7.082   6.040   2.356 -0.3545 -0.2676 -0.3390
  388MOL0     N53423   7.040   6.094   2.230  0.6472  0.0354  0.9995
  388MOL0     C53424   7.069   6.038   2.108  0.3777  0.1691 -0.0028
  388MOL0     C53425   7.015   6.123   2.011  0.8011  0.5190 -1.1211
  388MOL0     C53426   7.042   6.126   1.868 -0.4208 -0.5234  0.1307
  388MOL0     C53427   6.922   6.148   1.773  0.6218  0.1313 -0.2749
  388MOL0     C53428   6.800   6.059   1.795  0.1404 -0.0108 -0.8031
  388MOL0     C53429   6.716   6.010   1.684 -0.3137 -0.2804 -0.3827
  388MOL0     O53430   6.619   5.916   1.729  0.5001  0.7524  0.2324
  388MOL0     C53431   6.540   5.870   1.627  0.3918 -0.0050  0.3639
  388MOL0     C53432   6.414   5.917   1.618 -0.1824 -0.4213  0.1237
  388MOL0     C53433   6.311   5.874   1.531  0.4379  0.3103  0.3583
  388MOL0     C53434   6.178   5.947   1.531 -0.2753  0.3639  0.9829
  388MOL0     C53435   6.356   5.788   1.423 -0.0496 -0.7467  0.3607
  388MOL0     C53436   6.271   5.760   1.305 -0.9387  0.1528  0.0303
  388MOL0     O53437   6.301   5.640   1.239  0.9172 -0.4459 -0.2054
  388MOL0     C53438   6.241   5.600   1.122 -0.2772  0.2610 -0.7603
  388MOL0     C53439   6.101   5.579   1.125 -0.2788  0.4456  0.1089
  388MOL0     C53440   6.046   5.537   1.002 -0.2305  0.0858  0.0164
  388MOL0     C53441   6.118   5.531   0.878 -0.4560 -0.1926 -0.0811
  388MOL0     O53442   6.052   5.495   0.761 -0.8864  0.1804 -0.0037
  388MOL0     C53443   5.912   5.520   0.748 -0.0728 -0.5009 -0.6182
  388MOL0     C53444   5.874   5.512   0.602 -0.2394 -0.0667 -0.3235
  388MOL0     C53445   5.937   5.614   0.504 -0.1090  0.1131  0.4149
  388MOL0     C53446   5.903   5.763   0.532  0.2034 -0.0289  0.4854
  388MOL0     C53447   6.027   5.833   0.602  0.1617  0.9454  0.3778
  388MOL0     C53448   6.002   5.956   0.690 -0.4158 -0.3290 -0.1319
  388MOL0     C53449   5.953   5.917   0.835 -0.0862  0.0503  0.0142
  388MOL0     C53450   6.055   5.910   0.952 -0.6538  1.1461 -0.3132
  388MOL0    Cl53451   6.141   6.068   0.966 -0.0991  0.0298 -0.0371
  388MOL0     C53452   6.255   5.561   0.882 -0.6313  1.6856 -0.6509
  388MOL0     C53453   6.317   5.601   1.002 -0.4787  0.4223 -0.1994
  388MOL0     O53454   6.194   5.842   1.266 -0.0980  0.7217 -0.7454
  388MOL0     C53455   6.487   5.731   1.437  0.2359  0.4008 -0.3085
  388MOL0     C53456   6.574   5.766   1.541 -0.5353 -0.4836 -0.1198
  388MOL0     N53457   6.936   6.222   2.077  0.3290 -0.3023  0.1603
  388MOL0     N53458   6.951   6.197   2.202  0.1873 -0.0101 -0.5031
  388MOL0     C53459   7.007   6.345   3.152 -0.1200  0.3917  0.3518
  388MOL0     C53460   7.093   6.452   3.170  0.4323 -0.2726  0.7629
  388MOL0     C53461   7.491   6.667   3.172 -0.3624 -0.3087  0.4355
  388MOL0     C53462   7.474   6.789   3.107 -0.7759  2.0743  0.1216
  388MOL0     C53463   7.566   6.888   3.133 -0.3186 -0.4018 -0.6314
  388MOL0     C53464   7.686   6.872   3.209  0.0340 -0.4000  0.1648
  388MOL0     O53465   7.792   6.956   3.214 -0.5520  0.3297 -0.3989
  388MOL0     C53466   7.780   7.088   3.166  0.5495  0.2538 -0.0977
  388MOL0     C53467   7.719   7.180   3.275  0.4379 -0.8196  0.4344
  388MOL0     C53468   7.761   7.324   3.268 -0.6146 -0.0553  0.9702
  388MOL0     C53469   7.702   7.412   3.374  0.1897 -0.4866 -0.4902
  388MOL0     C53470   7.555   7.422   3.356  0.6042 -0.9611  0.7805
  388MOL0     C53471   7.433   7.431   3.346 -1.4419 -0.6083  0.5242
  388MOL0     C53472   7.710   6.743   3.262 -0.2831 -1.3905 -0.2618
  388MOL0     C53473   7.610   6.643   3.253 -0.3319 -0.8665  0.0438
  388MOL0     C53474   7.644   6.512   3.312  0.7299 -0.1051 -0.7216
  388MOL0     H53475   7.336   6.306   3.350 -1.7972  0.6352  2.3890
  388MOL0     H53476   7.162   6.119   3.347 -1.6467 -0.2987  0.3391
  388MOL0     H53477   6.876   5.944   3.227  1.0142  0.4461  3.4802
  388MOL0     H53478   7.045   5.978   3.254 -1.8806 -0.3862  0.3938
  388MOL0     H53479   7.111   5.928   3.043  0.1021  0.2754  0.2034
  388MOL0     H53480   6.977   5.816   3.051  0.0966 -0.1538 -1.4074
  388MOL0     H53481   6.830   5.958   2.940 -0.1106 -1.2898  2.0888
  388MOL0     H53482   6.967   6.071   2.904  0.0132 -0.1345  0.6420
  388MOL0     H53483   7.106   5.902   2.814  0.7990  2.5779 -0.7198
  388MOL0     H53484   6.959   5.796   2.803  2.1017  0.2688 -1.4282
  388MOL0     H53485   7.023   6.067   2.667  0.0787  1.1788 -0.2291
  388MOL0     H53486   6.863   5.977   2.658  0.4600  1.5932  2.3585
  388MOL0     H53487   7.137   5.888   2.552 -0.6927  0.6513 -0.2021
  388MOL0     H53488   7.006   5.772   2.568 -0.2402  1.0914  0.4914
  388MOL0     H53489   6.891   5.994   2.432  0.3702  0.7536  1.6535
  388MOL0     H53490   6.976   5.861   2.344  3.2921  0.8542 -0.9446
  388MOL0     H53491   7.074   6.124   2.425  1.3796 -1.1281  0.9915
  388MOL0     H53492   7.187   6.010   2.347  1.1308  4.1129  0.2064
  388MOL0     H53493   7.134   5.953   2.088  1.9621  1.6877 -1.6185
  388MOL0     H53494   7.086   6.029   1.844  0.6442 -0.4516  1.6733
  388MOL0     H53495   7.106   6.214   1.860 -0.4536 -0.2271  2.5113
  388MOL0     H53496   6.887   6.252   1.775 -0.8637 -0.3392 -0.5388
  388MOL0     H53497   6.963   6.131   1.673  1.7017  0.3737  0.1189
  388MOL0     H53498   6.836   5.966   1.841  2.2669  1.0335 -0.2138
  388MOL0     H53499   6.732   6.118   1.857 -0.9511 -1.4292 -0.6090
  388MOL0     H53500   6.670   6.095   1.633  2.5777 -0.4645 -3.6500
  388MOL0     H53501   6.773   5.952   1.612 -0.0545  1.8801 -2.0127
  388MOL0     H53502   6.390   6.004   1.679  1.3111  1.6697 -2.0939
  388MOL0     H53503   6.159   5.977   1.635 -2.2662 -0.2424  0.8247
  388MOL0     H53504   6.098   5.876   1.511  0.8201 -0.5699 -0.2760
  388MOL0     H53505   6.165   6.030   1.462  0.8553  0.8891  1.3715
  388MOL0     H53506   6.039   5.600   1.212 -1.0210  1.3226 -0.6086
  388MOL0     H53507   5.938   5.524   1.010 -0.1737 -0.6105 -0.3307
  388MOL0     H53508   5.844   5.465   0.814  1.3233  0.6513  1.9204
  388MOL0     H53509   5.903   5.625   0.778  2.5135 -0.3352 -0.1729
  388MOL0     H53510   5.885   5.413   0.557  0.5021  0.1319 -0.5929
  388MOL0     H53511   5.766   5.530   0.599 -0.4349 -1.1478 -0.0997
  388MOL0     H53512   5.890   5.583   0.411 -0.3964 -1.3244  1.0160
  388MOL0     H53513   6.044   5.594   0.513  0.0974  0.5222 -0.9939
  388MOL0     H53514   5.820   5.774   0.602 -2.1743 -1.6594 -1.9045
  388MOL0     H53515   5.889   5.810   0.434  0.9938 -1.3128 -0.2675
  388MOL0     H53516   6.081   5.766   0.669 -1.6297 -1.2206 -0.2214
  388MOL0     H53517   6.101   5.862   0.527  1.0992 -2.5590 -0.2622
  388MOL0     H53518   5.929   6.023   0.643 -0.5254 -0.8472 -0.7199
  388MOL0     H53519   6.098   6.007   0.685 -0.4543 -0.3600 -2.4027
  388MOL0     H53520   5.881   5.835   0.839 -3.8504  3.0555  0.2591
  388MOL0     H53521   5.878   5.995   0.852 -0.5180 -0.0815 -1.2291
  388MOL0     H53522   6.129   5.831   0.936 -0.6426  1.3856 -1.5499
  388MOL0     H53523   6.001   5.889   1.044 -0.2529  0.6905 -0.1804
  388MOL0     H53524   6.302   5.554   0.785  2.6047  2.3409  0.7339
  388MOL0     H53525   6.420   5.632   0.990  0.3218 -2.2880 -1.0936
  388MOL0     H53526   6.528   5.651   1.376 -0.6442 -0.6134  0.3810
  388MOL0     H53527   6.673   5.722   1.534  0.1100  1.1751 -2.8266
  388MOL0     H53528   6.917   6.358   3.092  1.6570  0.5060 -2.4641
  388MOL0     H53529   7.049   6.551   3.158 -3.1552 -1.7658  0.4975
  388MOL0     H53530   7.400   6.790   3.027 -0.4101  2.9036 -0.2184
  388MOL0     H53531   7.546   6.978   3.077 -1.7541  1.1439  2.1268
  388MOL0     H53532   7.878   7.123   3.135  0.2015 -1.2629 -3.3065
  388MOL0     H53533   7.721   7.086   3.074 -0.7050 -0.8285  0.6697
  388MOL0     H53534   7.767   7.168   3.373  4.3568 -2.9271 -1.4983
  388MOL0     H53535   7.611   7.170   3.281  0.3447  0.5470  1.6836
  388MOL0     H53536   7.870   7.338   3.273 -0.4397 -1.4072  1.3252
  388MOL0     H53537   7.721   7.359   3.173  1.2980 -2.3595 -0.8129
  388MOL0     H53538   7.742   7.514   3.378  0.8269 -0.5690 -2.9770
  388MOL0     H53539   7.720   7.375   3.475  0.9758  0.9074 -0.0980
  388MOL0     H53540   7.328   7.447   3.334 -1.1419 -0.6263 -3.0674
  388MOL0     H53541   7.807   6.735   3.309  0.4958  0.6677 -1.3710
  388MOL0     H53542   7.685   6.447   3.234 -3.3340 -2.4503 -1.2055
  388MOL0     H53543   7.710   6.515   3.399  0.7712 -1.9190 -0.6634
  388MOL0     H53544   7.557   6.458   3.351  1.4008  0.1393  1.1978
  389MOL0     O53545   6.568   5.547   0.615 -1.1211  0.2892 -0.3743
  389MOL0     C53546   6.572   5.624   0.712  0.5546 -0.8915  0.4620
  389MOL0     O53547   6.632   5.604   0.842 -0.0847  0.7651 -0.1703
  389MOL0     C53548   6.695   5.483   0.861 -0.1451  0.7775  0.1048
  389MOL0     C53549   6.782   5.426   0.769  0.7831 -0.0461  0.3246
  389MOL0     C53550   6.850   5.306   0.794  0.5059 -0.9572 -0.1587
  389MOL0     C53551   6.834   5.233   0.915  1.0609 -0.1100 -0.8301
  389MOL0     O53552   6.912   5.123   0.950  0.2455  0.0206  0.2354
  389MOL0     C53553   6.981   5.056   0.843  0.2478 -0.9724  0.5816
  389MOL0     C53554   7.043   4.928   0.901 -0.3082 -0.6919 -0.9096
  389MOL0     C53555   6.938   4.830   0.955 -0.0255 -0.1459  0.3060
  389MOL0     C53556   7.001   4.709   1.024  0.2293  0.9556 -1.0069
  389MOL0     C53557   6.910   4.585   1.027 -0.0282 -0.2906  0.7047
  389MOL0     C53558   6.979   4.458   1.003  0.1085 -0.7700  0.1907
  389MOL0     C53559   7.018   4.391   1.142  1.2266 -0.0417  1.8935
  389MOL0     C53560   7.108   4.490   1.224  0.5080 -0.2394  0.9617
  389MOL0     N53561   7.175   4.426   1.340 -0.3054 -0.3094 -0.4486
  389MOL0     C53562   7.300   4.369   1.327 -0.4944  0.6783  1.3544
  389MOL0     C53563   7.324   4.337   1.453 -0.5912  0.1136 -0.0667
  389MOL0     C53564   7.449   4.275   1.498  0.3822 -0.0354  0.9812
  389MOL0     C53565   7.531   4.341   1.608 -0.3390  0.1527  0.4421
  389MOL0     C53566   7.618   4.464   1.548 -0.9042 -0.2470 -0.2296
  389MOL0     C53567   7.746   4.412   1.488  0.0173 -1.2978  0.3791
  389MOL0     O53568   7.722   4.394   1.345  0.1514  0.3080 -0.3015
  389MOL0     C53569   7.802   4.295   1.279 -0.6275 -0.3031 -1.0119
  389MOL0     C53570   7.753   4.255   1.158  0.3046  0.2994  0.2003
  389MOL0     C53571   7.810   4.151   1.087 -0.1963  0.2096  0.4253
  389MOL0     C53572   7.744   4.085   0.969  0.6938  0.0201  0.2873
  389MOL0     C53573   7.926   4.095   1.132  0.4131 -0.2073  0.4669
  389MOL0     C53574   7.997   3.967   1.094 -0.1278  0.2981 -0.2867
  389MOL0     O53575   7.920   3.851   1.117  0.3794 -0.6922  0.7709
  389MOL0     C53576   7.973   3.733   1.070  0.9413 -1.1667 -0.6768
  389MOL0     C53577   7.943   3.688   0.943  0.5579  0.3041  0.1455
  389MOL0     C53578   8.008   3.571   0.896  0.0760  0.4219  0.0258
  389MOL0     C53579   8.078   3.493   0.989  0.8591 -0.2315  0.1729
  389MOL0     O53580   8.093   3.359   0.955  0.1112  0.4138  0.3039
  389MOL0     C53581   8.000   3.280   0.871 -0.0972 -0.2206  0.2109
  389MOL0     C53582   7.872   3.275   0.943  0.1892  1.1315  0.0761
  389MOL0     C53583   7.760   3.206   0.864 -0.0964 -0.0631 -0.8013
  389MOL0     C53584   7.630   3.252   0.921  0.7420 -0.6036 -0.4723
  389MOL0     C53585   7.516   3.170   0.864 -0.2027  0.5521 -0.1401
  389MOL0     C53586   7.390   3.218   0.932  1.0633 -0.8883 -0.2880
  389MOL0     C53587   7.271   3.116   0.932  0.1815  0.1245  0.1759
  389MOL0     C53588   7.229   3.081   0.788 -0.1642  0.4191 -1.2819
  389MOL0    Cl53589   7.160   2.922   0.805  0.0484  0.6466 -0.3686
  389MOL0     C53590   8.105   3.538   1.118 -0.0437 -0.5165 -0.8297
  389MOL0     C53591   8.058   3.663   1.154  0.2033 -0.6998 -0.0599
  389MOL0     O53592   8.116   3.968   1.048  0.0371  0.1459 -0.1870
  389MOL0     C53593   7.994   4.171   1.236 -1.0880  0.1853 -0.6742
  389MOL0     C53594   7.932   4.264   1.309 -0.6046 -0.4554 -0.4818
  389MOL0     N53595   7.211   4.373   1.531 -0.2361  0.1172  0.8736
  389MOL0     N53596   7.121   4.424   1.466  0.2648  0.5963  0.3346
  389MOL0     C53597   6.743   5.291   1.006 -0.1973  1.0392 -0.3980
  389MOL0     C53598   6.674   5.409   0.978 -0.2422 -0.1354 -0.1807
  389MOL0     C53599   6.507   5.753   0.683  0.4491 -0.3912 -0.7655
  389MOL0     C53600   6.498   5.850   0.795  0.2827  0.3788  0.9332
  389MOL0     C53601   6.449   5.982   0.775 -0.3284 -0.2874 -0.0758
  389MOL0     C53602   6.408   6.027   0.651  0.3869  0.2235  0.4604
  389MOL0     O53603   6.362   6.156   0.626 -0.1250  0.3206  0.1292
  389MOL0     C53604   6.370   6.267   0.725 -0.3284 -0.2637  0.6359
  389MOL0     C53605   6.410   6.390   0.648  0.2254 -0.0777  1.0351
  389MOL0     C53606   6.564   6.411   0.628  0.4174  0.7379 -0.5747
  389MOL0     C53607   6.598   6.522   0.529 -0.4966 -0.8336 -0.2115
  389MOL0     C53608   6.733   6.511   0.469 -0.2449  0.7955 -0.1309
  389MOL0     C53609   6.846   6.501   0.417  0.2590 -0.8055  0.1893
  389MOL0     C53610   6.419   5.941   0.545 -0.2577  1.0683  0.1095
  389MOL0     C53611   6.464   5.809   0.561  0.8502  0.1265  0.5371
  389MOL0     C53612   6.481   5.736   0.426 -0.1802 -0.8836 -0.2401
  389MOL0     H53613   6.801   5.475   0.673 -2.2061  2.6417  0.9198
  389MOL0     H53614   6.923   5.272   0.721  0.5023 -0.5695 -0.3408
  389MOL0     H53615   7.065   5.117   0.809 -0.6053  2.0578  3.3976
  389MOL0     H53616   6.911   5.036   0.761 -1.0255  0.0304  1.3928
  389MOL0     H53617   7.101   4.900   0.813  1.7710  3.4608 -1.1170
  389MOL0     H53618   7.112   4.945   0.984 -0.0121 -1.0816 -1.0761
  389MOL0     H53619   6.867   4.880   1.022 -0.4234  1.2943 -1.1374
  389MOL0     H53620   6.889   4.799   0.862  1.4953  0.0305 -0.5799
  389MOL0     H53621   7.088   4.683   0.963  1.2545 -4.6288  2.2222
  389MOL0     H53622   7.042   4.731   1.123 -2.5265 -2.0555  1.0184
  389MOL0     H53623   6.834   4.592   0.948  0.0720  1.2557  0.6983
  389MOL0     H53624   6.857   4.594   1.122 -1.5369  2.9036 -0.2735
  389MOL0     H53625   6.915   4.391   0.944  0.0404 -0.2687 -0.3048
  389MOL0     H53626   7.073   4.472   0.950 -0.0065  1.5139  0.4949
  389MOL0     H53627   7.070   4.296   1.128 -0.1288 -0.4309 -1.7233
  389MOL0     H53628   6.922   4.373   1.190  0.0734 -1.7579 -0.7816
  389MOL0     H53629   7.174   4.551   1.162  0.5012 -2.4827 -1.4793
  389MOL0     H53630   7.035   4.560   1.265 -1.1264 -2.5163  2.1600
  389MOL0     H53631   7.370   4.364   1.244  0.1047  1.4486  1.7950
  389MOL0     H53632   7.508   4.253   1.409 -1.5260 -1.9291  0.0975
  389MOL0     H53633   7.426   4.173   1.532  2.1607  0.1094  2.7720
  389MOL0     H53634   7.468   4.378   1.690  0.6662  2.1299  0.3682
  389MOL0     H53635   7.594   4.268   1.660 -1.7770 -0.6451  1.1521
  389MOL0     H53636   7.552   4.516   1.478 -2.5773  1.7056  2.5846
  389MOL0     H53637   7.644   4.538   1.624  0.2743 -1.0231  0.1551
  389MOL0     H53638   7.815   4.496   1.506 -0.8551 -0.6267  0.6804
  389MOL0     H53639   7.795   4.327   1.536  0.4838 -1.8059 -0.9433
  389MOL0     H53640   7.664   4.299   1.115  0.8995 -0.1005 -1.5573
  389MOL0     H53641   7.815   4.076   0.886 -1.8047  0.5202 -2.0476
  389MOL0     H53642   7.655   4.144   0.946  2.7591  3.7500  1.1162
  389MOL0     H53643   7.709   3.986   1.000 -1.3083  0.5700 -0.0691
  389MOL0     H53644   7.869   3.741   0.884  1.7862  2.5720  0.5008
  389MOL0     H53645   7.973   3.527   0.803 -0.2448  1.1130 -0.1870
  389MOL0     H53646   7.981   3.318   0.770 -0.2738 -1.6751 -0.3378
  389MOL0     H53647   8.037   3.177   0.864 -1.3052 -0.9482  3.1326
  389MOL0     H53648   7.886   3.235   1.044  2.9827  0.9930 -0.2946
  389MOL0     H53649   7.837   3.374   0.972 -0.2836  0.4234  2.1157
  389MOL0     H53650   7.770   3.097   0.864 -1.2652 -0.2819 -4.0659
  389MOL0     H53651   7.764   3.251   0.765  0.5695  2.5159  0.2947
  389MOL0     H53652   7.616   3.357   0.893 -0.8617 -1.5318 -3.5100
  389MOL0     H53653   7.624   3.254   1.030  0.9779  2.5389 -0.4155
  389MOL0     H53654   7.504   3.189   0.757  1.6529 -1.3820 -0.7535
  389MOL0     H53655   7.521   3.063   0.883 -0.9485  0.1007 -2.1641
  389MOL0     H53656   7.362   3.305   0.873  2.0994 -0.4201 -0.0956
  389MOL0     H53657   7.400   3.243   1.038 -4.5523 -0.5442  0.5088
  389MOL0     H53658   7.181   3.149   0.985 -1.3090 -0.6208 -1.7340
  389MOL0     H53659   7.305   3.025   0.981  1.0829 -0.4254 -1.3999
  389MOL0     H53660   7.321   3.072   0.729  1.8506 -3.2136  2.0163
  389MOL0     H53661   7.177   3.165   0.740 -0.4059  0.6492 -0.6328
  389MOL0     H53662   8.171   3.479   1.181  0.1137  0.6280  0.1111
  389MOL0     H53663   8.099   3.696   1.249  1.7590 -1.7099 -0.3488
  389MOL0     H53664   8.090   4.129   1.262 -2.8377 -5.1804 -1.6427
  389MOL0     H53665   7.973   4.319   1.393 -2.7195  1.2169 -0.4661
  389MOL0     H53666   6.724   5.247   1.104 -1.2897 -0.3090 -1.1844
  389MOL0     H53667   6.606   5.447   1.053  1.1813  1.6980  0.2798
  389MOL0     H53668   6.555   5.810   0.878  0.5106  0.6772  0.9190
  389MOL0     H53669   6.459   6.047   0.861 -2.6393 -0.0334  0.0682
  389MOL0     H53670   6.268   6.278   0.764 -2.1165 -2.8918 -2.7286
  389MOL0     H53671   6.437   6.243   0.807 -0.7479  0.1428  1.1105
  389MOL0     H53672   6.377   6.479   0.701  1.1603  1.2000 -0.4325
  389MOL0     H53673   6.360   6.393   0.550 -0.4869 -0.5491  1.3739
  389MOL0     H53674   6.614   6.423   0.725  1.3822  1.0726 -1.1111
  389MOL0     H53675   6.586   6.314   0.585 -0.0012  0.3264  0.1117
  389MOL0     H53676   6.585   6.619   0.577 -1.0104 -1.6655  1.4177
  389MOL0     H53677   6.535   6.520   0.440 -2.0395 -3.1353  0.8183
  389MOL0     H53678   6.941   6.499   0.368  1.4083 -5.2357  2.0949
  389MOL0     H53679   6.375   5.969   0.450 -2.2731  3.5188  1.6276
  389MOL0     H53680   6.431   5.787   0.344  2.8106 -2.1329 -3.0626
  389MOL0     H53681   6.587   5.722   0.404  0.3246 -0.8067  1.9186
  389MOL0     H53682   6.444   5.634   0.437  3.7692 -2.2628  2.1594
  390MOL0     O53683   1.206   1.358   6.619 -0.2909  0.1596  0.4052
  390MOL0     C53684   1.265   1.395   6.519 -0.3936 -0.1105 -0.7185
  390MOL0     O53685   1.371   1.332   6.462  0.6580 -0.3391 -0.3838
  390MOL0     C53686   1.439   1.237   6.522 -0.3649  0.2644 -0.0581
  390MOL0     C53687   1.378   1.109   6.559  0.2409 -0.4766  0.0716
  390MOL0     C53688   1.447   1.011   6.624 -1.1699 -0.2481 -0.5711
  390MOL0     C53689   1.588   1.027   6.631  0.0221 -0.3394 -0.0056
  390MOL0     O53690   1.673   0.938   6.690 -0.9429  0.2215  0.2985
  390MOL0     C53691   1.630   0.805   6.715  0.6445 -0.1096 -0.1069
  390MOL0     C53692   1.743   0.703   6.681  0.2445 -0.2335 -0.0466
  390MOL0     C53693   1.710   0.562   6.729  0.5693 -0.5837  0.6387
  390MOL0     C53694   1.825   0.465   6.707 -0.1809  0.6627 -0.1954
  390MOL0     C53695   1.827   0.336   6.793  0.4925  1.2972  0.3247
  390MOL0     C53696   1.950   0.243   6.772  0.5826 -0.4714  0.2004
  390MOL0     C53697   1.951   0.133   6.883 -0.2731  1.1173  0.1366
  390MOL0     C53698   1.850   0.025   6.841 -0.2015  0.1244  0.5598
  390MOL0     N53699   1.894  -0.092   6.921 -0.7174 -0.4264  0.7000
  390MOL0     C53700   1.894  -0.096   7.056 -0.4030 -0.4973  0.8583
  390MOL0     C53701   1.971  -0.199   7.091  0.7925 -1.2100 -0.4511
  390MOL0     C53702   2.007  -0.240   7.231 -0.7748 -1.2233  0.5202
  390MOL0     C53703   1.902  -0.227   7.345 -0.0692 -0.5203  0.0928
  390MOL0     C53704   1.913  -0.329   7.466 -0.2933  0.8622  0.4049
  390MOL0     C53705   1.853  -0.471   7.447 -0.1429  0.3989  0.8193
  390MOL0     O53706   1.914  -0.523   7.326  0.6388  0.4049 -0.0537
  390MOL0     C53707   1.824  -0.587   7.233  0.7583 -0.3070  0.4713
  390MOL0     C53708   1.873  -0.615   7.105 -0.7500  0.5829 -0.8572
  390MOL0     C53709   1.799  -0.695   7.013  0.4245 -0.4984 -0.4266
  390MOL0     C53710   1.866  -0.721   6.886 -0.8209 -0.6290 -1.2177
  390MOL0     C53711   1.677  -0.751   7.043  0.6335  0.0430  0.1721
  390MOL0     C53712   1.576  -0.818   6.954 -0.7324  0.2159  0.4322
  390MOL0     O53713   1.449  -0.844   7.001  0.1306  0.5190  0.6521
  390MOL0     C53714   1.361  -0.915   6.923 -0.2587 -0.0652  0.8823
  390MOL0     C53715   1.277  -0.845   6.838 -0.3742  0.1846  0.2882
  390MOL0     C53716   1.188  -0.915   6.754  0.0192 -0.1034 -0.1766
  390MOL0     C53717   1.184  -1.049   6.748 -1.0162  0.6311  0.6751
  390MOL0     O53718   1.088  -1.100   6.669  0.0220  1.2703  0.2358
  390MOL0     C53719   1.090  -1.236   6.636 -1.0645 -0.2124  0.2602
  390MOL0     C53720   0.981  -1.264   6.532  0.2229 -0.3795 -0.2845
  390MOL0     C53721   1.017  -1.376   6.442  0.4239 -0.5898  0.2013
  390MOL0     C53722   0.889  -1.413   6.351  0.8748 -0.4488 -0.2927
  390MOL0     C53723   0.917  -1.544   6.272  1.2470  0.8452 -0.5383
  390MOL0     C53724   0.790  -1.589   6.181  0.0622  0.9019  0.0406
  390MOL0     C53725   0.813  -1.714   6.099 -0.3147 -1.2766 -0.1214
  390MOL0     C53726   0.902  -1.677   5.976  0.1417  0.5626  0.1874
  390MOL0    Cl53727   0.922  -1.834   5.896 -0.2624 -0.0970  0.3428
  390MOL0     C53728   1.270  -1.119   6.836 -0.0746  1.0551  0.0105
  390MOL0     C53729   1.354  -1.054   6.927  0.2700 -0.7430 -0.0995
  390MOL0     O53730   1.613  -0.850   6.839  0.4333 -0.0031  0.4292
  390MOL0     C53731   1.632  -0.728   7.172  0.0191 -1.4926  0.0658
  390MOL0     C53732   1.703  -0.647   7.266 -0.3383 -1.3631  0.0175
  390MOL0     N53733   2.008  -0.257   6.968 -0.3039  0.9683  0.0065
  390MOL0     N53734   1.961  -0.197   6.866  0.7305  0.6725 -0.1333
  390MOL0     C53735   1.658   1.139   6.579  1.0328 -0.1376  0.2294
  390MOL0     C53736   1.581   1.244   6.528  0.2389  0.4754 -0.1225
  390MOL0     C53737   1.212   1.508   6.430 -0.4051 -0.1286  0.7086
  390MOL0     C53738   1.261   1.509   6.300  0.7273 -0.6787 -0.3713
  390MOL0     C53739   1.199   1.589   6.207 -0.3020  0.3047 -0.2255
  390MOL0     C53740   1.082   1.677   6.240 -0.8787 -0.0792  0.3402
  390MOL0     O53741   1.030   1.767   6.154  0.4083 -0.3311  0.1947
  390MOL0     C53742   1.118   1.871   6.106 -0.0815 -0.4615  0.6693
  390MOL0     C53743   1.062   1.916   5.971  0.5150  0.8473 -0.1748
  390MOL0     C53744   1.035   1.787   5.880  0.0661  0.2822  0.7552
  390MOL0     C53745   1.169   1.716   5.833  0.2004 -1.8842 -0.6921
  390MOL0     C53746   1.274   1.800   5.770 -0.3934  0.3231  0.3958
  390MOL0     C53747   1.345   1.880   5.705 -0.0292  0.3952 -0.5157
  390MOL0     C53748   1.054   1.685   6.375  0.3694  0.7625  0.3130
  390MOL0     C53749   1.112   1.603   6.471  0.4220 -0.1368 -0.1428
  390MOL0     C53750   1.066   1.608   6.623 -0.3417  0.3416 -0.7994
  390MOL0     H53751   1.272   1.099   6.538 -0.0007  1.0679  0.4502
  390MOL0     H53752   1.383   0.931   6.661  0.7303 -2.1839 -1.2318
  390MOL0     H53753   1.537   0.781   6.663 -0.3329  0.8722  1.0987
  390MOL0     H53754   1.602   0.790   6.820 -0.1174 -0.1717 -0.3073
  390MOL0     H53755   1.753   0.705   6.572  3.1693 -1.9700  0.0864
  390MOL0     H53756   1.839   0.729   6.726  0.7746  0.4613 -1.4886
  390MOL0     H53757   1.694   0.584   6.835 -2.8834 -0.8117  0.2958
  390MOL0     H53758   1.617   0.521   6.687  0.5335  0.9842 -0.9412
  390MOL0     H53759   1.821   0.427   6.605 -0.8354  0.6717 -0.1723
  390MOL0     H53760   1.919   0.517   6.730 -0.3106  0.3450  1.1297
  390MOL0     H53761   1.740   0.268   6.787  1.8297 -0.6401  1.5258
  390MOL0     H53762   1.819   0.369   6.897 -2.7480  1.9188 -0.0206
  390MOL0     H53763   1.954   0.204   6.670  1.0678 -1.5711  0.6205
  390MOL0     H53764   2.039   0.306   6.784  0.0718 -0.3144  4.9414
  390MOL0     H53765   1.931   0.171   6.984  0.4939  3.4455 -0.5198
  390MOL0     H53766   2.050   0.086   6.886 -0.7459 -0.0284  4.3735
  390MOL0     H53767   1.751   0.057   6.875 -1.5025 -0.8331 -2.0589
  390MOL0     H53768   1.845   0.008   6.733 -0.3287  2.4476  0.1365
  390MOL0     H53769   1.846  -0.029   7.127 -0.7218 -0.0956  0.2678
  390MOL0     H53770   2.092  -0.182   7.268 -1.0687 -0.5927  0.2199
  390MOL0     H53771   2.036  -0.345   7.225 -1.8071 -1.4490 -0.9810
  390MOL0     H53772   1.901  -0.123   7.380  2.8547  0.6104 -2.6248
  390MOL0     H53773   1.806  -0.246   7.295 -0.0165 -0.3438 -0.0782
  390MOL0     H53774   2.016  -0.329   7.504 -0.7832 -1.7146  1.9645
  390MOL0     H53775   1.851  -0.294   7.550 -1.5562 -2.7404  1.1590
  390MOL0     H53776   1.883  -0.544   7.523  0.6489 -1.3739 -1.1206
  390MOL0     H53777   1.744  -0.466   7.435 -0.2559 -3.3168 -1.2328
  390MOL0     H53778   1.961  -0.564   7.067  0.4575 -0.2967  0.6396
  390MOL0     H53779   1.814  -0.655   6.816  0.4702  1.0540 -0.6391
  390MOL0     H53780   1.869  -0.827   6.858  4.1881 -0.4090 -2.3880
  390MOL0     H53781   1.972  -0.696   6.882 -0.9379 -0.0091 -0.5021
  390MOL0     H53782   1.277  -0.737   6.834  2.6215  0.2326 -2.4338
  390MOL0     H53783   1.114  -0.869   6.688 -1.2406  1.2708  2.0612
  390MOL0     H53784   1.185  -1.261   6.589 -1.3157 -2.0217  0.6437
  390MOL0     H53785   1.070  -1.297   6.725  0.1306  2.7693  2.7705
  390MOL0     H53786   0.893  -1.288   6.594  2.0937  2.1685  3.8036
  390MOL0     H53787   0.955  -1.171   6.481  0.6639 -1.4511 -2.5572
  390MOL0     H53788   1.044  -1.460   6.506  3.8396 -0.5435 -1.0149
  390MOL0     H53789   1.093  -1.351   6.368 -2.7432 -2.3663 -4.1155
  390MOL0     H53790   0.879  -1.333   6.277 -1.1528 -1.9849 -1.7376
  390MOL0     H53791   0.797  -1.420   6.410  0.3998 -1.5421 -1.1406
  390MOL0     H53792   1.011  -1.549   6.217 -0.2549 -1.4394 -3.1260
  390MOL0     H53793   0.930  -1.622   6.348 -0.4572  1.3453  0.3124
  390MOL0     H53794   0.754  -1.506   6.119  2.3458  1.0933 -1.1334
  390MOL0     H53795   0.706  -1.620   6.244 -0.5133  0.3996 -0.9453
  390MOL0     H53796   0.713  -1.751   6.072  0.2053 -1.6199 -1.6980
  390MOL0     H53797   0.863  -1.795   6.154 -2.6160 -1.4041  1.9541
  390MOL0     H53798   1.002  -1.648   6.009  1.9162 -2.0083 -2.3913
  390MOL0     H53799   0.863  -1.601   5.907 -2.6409 -1.0842 -0.2117
  390MOL0     H53800   1.268  -1.227   6.828  0.8606  1.0496 -0.3081
  390MOL0     H53801   1.421  -1.106   6.994  0.5454  1.7095  1.6989
  390MOL0     H53802   1.534  -0.757   7.208 -0.6619  0.0776 -0.4407
  390MOL0     H53803   1.652  -0.616   7.357  1.0570 -2.6593  1.2696
  390MOL0     H53804   1.766   1.148   6.575  0.8751  1.4545 -1.2071
  390MOL0     H53805   1.622   1.332   6.480 -2.3207  0.8879 -1.7270
  390MOL0     H53806   1.341   1.445   6.265  0.9462 -1.5402  1.5713
  390MOL0     H53807   1.228   1.573   6.104  0.4005 -0.7443  0.1218
  390MOL0     H53808   1.123   1.960   6.168 -1.6915 -0.3242  0.6536
  390MOL0     H53809   1.218   1.826   6.101  1.1929  2.0388  2.0891
  390MOL0     H53810   1.123   1.990   5.918 -0.7294  3.8583  2.2813
  390MOL0     H53811   0.964   1.961   5.987  0.1979  0.1037  0.0543
  390MOL0     H53812   0.963   1.719   5.928  2.3864 -2.3466  0.7207
  390MOL0     H53813   0.979   1.817   5.791 -1.3544 -0.4070  1.3810
  390MOL0     H53814   1.141   1.638   5.761  1.8926 -3.1577 -0.0406
  390MOL0     H53815   1.221   1.685   5.924 -0.3661  2.5559  1.4159
  390MOL0     H53816   1.423   1.936   5.659  1.4747  0.7218  2.1894
  390MOL0     H53817   0.971   1.749   6.405 -1.8355 -1.2178 -1.2556
  390MOL0     H53818   1.012   1.516   6.647  0.0275  0.0591 -1.0332
  390MOL0     H53819   1.144   1.616   6.698  2.6959  1.0896 -3.7809
  390MOL0     H53820   1.003   1.697   6.624  0.2748  0.8494 -2.6644
  391MOL0     O53821  10.046  10.468   2.778 -0.3188  0.6040 -0.4256
  391MOL0     C53822  10.015  10.517   2.887  0.3362  0.4560  0.3558
  391MOL0     O53823  10.031  10.443   3.002  0.2848 -0.3719 -0.1707
  391MOL0     C53824  10.068  10.310   2.990 -0.6185  1.0306 -0.6080
  391MOL0     C53825  10.167  10.261   3.081 -0.1492  0.2919 -0.1091
  391MOL0     C53826  10.217  10.130   3.078 -0.0136  0.5374 -0.2561
  391MOL0     C53827  10.155  10.036   2.992 -0.3042  0.2059 -0.2983
  391MOL0     O53828  10.190   9.908   2.990  0.2697 -0.0788  0.1198
  391MOL0     C53829  10.106   9.836   3.084 -0.9856 -0.8114  0.2084
  391MOL0     C53830  10.197   9.729   3.147 -0.5944  0.0422 -1.1534
  391MOL0     C53831  10.122   9.636   3.229  1.3079  0.1887 -0.2012
  391MOL0     C53832  10.027   9.545   3.157  0.3733 -0.8087 -0.0343
  391MOL0     C53833   9.993   9.423   3.236  0.5904 -0.2067  0.0516
  391MOL0     C53834   9.918   9.451   3.373  0.2659  0.4889  0.6970
  391MOL0     C53835   9.868   9.313   3.427  0.7406 -1.1526  0.0340
  391MOL0     C53836   9.769   9.234   3.341 -0.8021 -0.3767 -0.1914
  391MOL0     N53837   9.660   9.321   3.277 -0.4715  0.6449 -0.2541
  391MOL0     C53838   9.523   9.297   3.296  0.9811 -0.8384  0.1711
  391MOL0     C53839   9.458   9.406   3.234  0.0201  1.1633  0.0315
  391MOL0     C53840   9.312   9.437   3.223  0.0326 -0.2141  0.9714
  391MOL0     C53841   9.230   9.484   3.340  0.4641 -0.4129  0.1045
  391MOL0     C53842   9.268   9.627   3.380 -0.4848 -0.4566 -0.1033
  391MOL0     C53843   9.188   9.693   3.490  0.1850  0.2695 -0.2612
  391MOL0     O53844   9.271   9.793   3.549  0.0851 -0.0586 -0.1727
  391MOL0     C53845   9.257   9.811   3.681  0.0788 -0.0089 -0.2568
  391MOL0     C53846   9.157   9.764   3.768 -0.3444  0.9772 -1.1190
  391MOL0     C53847   9.152   9.808   3.900  0.7182  0.1512  1.6755
  391MOL0     C53848   9.044   9.750   3.980  0.3005 -0.0772 -0.5025
  391MOL0     C53849   9.256   9.887   3.960  0.0911 -0.4205  0.5048
  391MOL0     C53850   9.265   9.923   4.094 -0.5096  0.1829  0.0778
  391MOL0     O53851   9.276  10.052   4.117 -0.2121  0.9546  0.1711
  391MOL0     C53852   9.280  10.111   4.242  0.1553 -0.1088  0.1962
  391MOL0     C53853   9.348  10.238   4.245  0.1079 -0.5522  0.0750
  391MOL0     C53854   9.350  10.311   4.360 -0.2395 -0.3643  0.3071
  391MOL0     C53855   9.295  10.267   4.476  0.5014  0.5921  0.3622
  391MOL0     O53856   9.313  10.345   4.585 -0.2564 -0.4921 -0.8845
  391MOL0     C53857   9.243  10.297   4.705 -0.2167 -1.0102 -0.1972
  391MOL0     C53858   9.228  10.414   4.804 -0.2214  0.9374  0.3012
  391MOL0     C53859   9.351  10.490   4.841  0.5287 -1.3934  1.1538
  391MOL0     C53860   9.455  10.414   4.914 -0.5751  0.3117 -0.3390
  391MOL0     C53861   9.577  10.502   4.962  0.4634  0.3997 -1.1873
  391MOL0     C53862   9.660  10.415   5.061  0.0498 -0.3163 -1.4345
  391MOL0     C53863   9.791  10.485   5.105 -0.1703 -0.4723  0.3235
  391MOL0     C53864   9.887  10.377   5.161 -0.4060  0.4531 -0.3233
  391MOL0    Cl53865   9.808  10.261   5.286  0.4236 -0.1706 -0.2848
  391MOL0     C53866   9.226  10.147   4.466 -0.5378  0.2498  0.0805
  391MOL0     C53867   9.221  10.067   4.356 -0.0157 -0.2398 -0.1726
  391MOL0     O53868   9.227   9.843   4.176 -0.2719 -0.3574 -0.0147
  391MOL0     C53869   9.339   9.934   3.867 -0.5420  0.1662 -0.1865
  391MOL0     C53870   9.346   9.900   3.737 -0.2802  1.0446  0.2294
  391MOL0     N53871   9.553   9.482   3.168 -1.0515  0.0229 -0.4884
  391MOL0     N53872   9.671   9.436   3.196 -0.4097 -0.1096 -0.1368
  391MOL0     C53873  10.059  10.082   2.904  0.0345  0.0225 -0.0514
  391MOL0     C53874  10.021  10.210   2.901 -0.9664  0.2046 -0.5929
  391MOL0     C53875   9.936  10.642   2.897 -0.2064  0.0601  0.0161
  391MOL0     C53876   9.822  10.643   2.983 -0.1843 -0.2117  0.2825
  391MOL0     C53877   9.732  10.749   2.978  0.1761 -0.2865  0.1276
  391MOL0     C53878   9.754  10.863   2.910 -0.4614  0.0085 -0.3613
  391MOL0     O53879   9.658  10.959   2.907 -0.2984 -0.1492 -0.0281
  391MOL0     C53880   9.650  11.037   2.785  0.3564  0.1653  0.7185
  391MOL0     C53881   9.514  11.100   2.762 -0.0486  0.2990 -0.8894
  391MOL0     C53882   9.417  10.984   2.730 -0.4542  1.1927 -0.0889
  391MOL0     C53883   9.275  11.039   2.676 -0.2370  0.0138  0.3994
  391MOL0     C53884   9.193  10.918   2.650 -0.3066  0.2098 -0.1244
  391MOL0     C53885   9.129  10.826   2.606  0.1646 -0.6893 -0.2924
  391MOL0     C53886   9.860  10.857   2.827 -0.2639 -0.0689  0.2726
  391MOL0     C53887   9.951  10.751   2.810  0.0724 -0.6153 -0.2613
  391MOL0     C53888  10.067  10.766   2.717  0.4126  0.3404  1.0303
  391MOL0     H53889  10.217  10.332   3.145  1.0342  3.8439 -4.4222
  391MOL0     H53890  10.304  10.095   3.132  0.4213 -0.8396 -1.7719
  391MOL0     H53891  10.024   9.788   3.030 -0.9985 -0.4760 -0.0727
  391MOL0     H53892  10.058   9.892   3.165 -3.2242 -1.4085 -0.6311
  391MOL0     H53893  10.235   9.676   3.059  0.9835  2.7226 -2.2009
  391MOL0     H53894  10.276   9.771   3.209 -2.9926  1.3361  1.2348
  391MOL0     H53895  10.189   9.569   3.284 -2.0303 -1.7347  1.9397
  391MOL0     H53896  10.062   9.687   3.305  3.3490  0.6136  1.2006
  391MOL0     H53897   9.932   9.599   3.147 -0.2102 -1.1983  2.6588
  391MOL0     H53898  10.073   9.514   3.062  1.3583 -0.1940  0.2303
  391MOL0     H53899  10.085   9.368   3.260  1.6740  2.0079  1.2252
  391MOL0     H53900   9.930   9.355   3.178 -1.8211  1.5153  0.4815
  391MOL0     H53901   9.987   9.492   3.448  0.1667  1.6415  0.1819
  391MOL0     H53902   9.842   9.529   3.360 -1.1503 -1.0462 -0.6922
  391MOL0     H53903   9.808   9.341   3.513 -1.6533 -0.1534 -1.8400
  391MOL0     H53904   9.961   9.263   3.456  2.6558  2.4203  0.7168
  391MOL0     H53905   9.814   9.173   3.262 -1.8433 -0.2632 -0.9013
  391MOL0     H53906   9.730   9.160   3.411  2.9501 -2.5982 -0.2022
  391MOL0     H53907   9.484   9.209   3.345 -0.6724 -0.9225 -1.2211
  391MOL0     H53908   9.263   9.341   3.204 -3.7648  1.9181 -1.4212
  391MOL0     H53909   9.297   9.492   3.129 -1.1120 -4.0619 -1.3163
  391MOL0     H53910   9.121   9.486   3.324  0.2155  0.1959  1.7088
  391MOL0     H53911   9.249   9.415   3.422 -2.1419 -1.6222 -0.1998
  391MOL0     H53912   9.374   9.613   3.405 -0.7074 -3.8438 -0.5230
  391MOL0     H53913   9.270   9.700   3.299  2.2311  0.5687  0.7824
  391MOL0     H53914   9.097   9.732   3.444 -0.4711 -2.9686 -2.0443
  391MOL0     H53915   9.172   9.614   3.564  1.6697 -0.0428 -0.2392
  391MOL0     H53916   9.080   9.691   3.743 -0.9902  1.3827 -0.3627
  391MOL0     H53917   8.946   9.752   3.930  0.6019 -1.6500 -1.2050
  391MOL0     H53918   9.034   9.796   4.079 -3.9149 -0.1858 -0.6847
  391MOL0     H53919   9.064   9.644   3.994  4.2845  0.4944 -0.7609
  391MOL0     H53920   9.398  10.279   4.157 -0.3489 -1.9766 -0.8922
  391MOL0     H53921   9.411  10.401   4.369 -0.6166 -0.0450 -0.2824
  391MOL0     H53922   9.142  10.267   4.676 -1.7167  0.4894  2.9763
  391MOL0     H53923   9.297  10.213   4.750 -1.2359 -1.7821 -0.3794
  391MOL0     H53924   9.152  10.482   4.765 -1.7023  0.3222  1.9774
  391MOL0     H53925   9.188  10.378   4.899  1.8401 -0.6360  0.6510
  391MOL0     H53926   9.334  10.581   4.899 -0.4867 -1.5843  1.1629
  391MOL0     H53927   9.389  10.532   4.747 -1.4643 -0.1947  0.8246
  391MOL0     H53928   9.491  10.333   4.850 -0.2254  1.6231 -1.8834
  391MOL0     H53929   9.409  10.360   4.996 -0.6600  1.1446  0.1736
  391MOL0     H53930   9.649  10.523   4.882  1.4768 -1.6167 -0.8739
  391MOL0     H53931   9.538  10.596   5.003  0.6983  0.2741 -0.6651
  391MOL0     H53932   9.676  10.312   5.027  0.5581 -1.0333  0.7977
  391MOL0     H53933   9.590  10.412   5.145 -0.1768  0.3033 -1.5978
  391MOL0     H53934   9.778  10.557   5.185  0.2833 -0.9344  0.8184
  391MOL0     H53935   9.844  10.521   5.016  0.0662 -2.7173 -0.5232
  391MOL0     H53936   9.983  10.414   5.199  0.1447 -0.7647 -0.4960
  391MOL0     H53937   9.907  10.306   5.080 -1.0457 -0.2340  0.1093
  391MOL0     H53938   9.217  10.093   4.560  2.6004 -0.9506 -0.1938
  391MOL0     H53939   9.181   9.966   4.358  0.5816 -0.4756 -0.1481
  391MOL0     H53940   9.418  10.006   3.889 -0.5455  1.3565 -3.5080
  391MOL0     H53941   9.435   9.933   3.684  1.5428 -2.0064  1.1361
  391MOL0     H53942   9.999  10.018   2.841 -3.5856  2.2350  0.7762
  391MOL0     H53943   9.963  10.233   2.813  0.2730 -0.9169 -1.7347
  391MOL0     H53944   9.812  10.553   3.043 -1.4184 -1.3916 -1.5753
  391MOL0     H53945   9.645  10.748   3.043  1.5383  3.2390  2.2648
  391MOL0     H53946   9.712  11.127   2.789 -0.6417  0.8347  1.9174
  391MOL0     H53947   9.687  10.982   2.698  1.8704  2.4869 -0.2118
  391MOL0     H53948   9.523  11.176   2.684 -0.9630 -0.9214 -2.2212
  391MOL0     H53949   9.480  11.149   2.854  0.2310  1.1559 -1.2332
  391MOL0     H53950   9.467  10.922   2.655  1.9719  1.0151  1.5753
  391MOL0     H53951   9.406  10.915   2.814  2.3631 -1.3282 -1.5830
  391MOL0     H53952   9.294  11.079   2.576  1.5593 -1.8154 -0.0480
  391MOL0     H53953   9.239  11.118   2.742  0.3408  0.5683  0.0580
  391MOL0     H53954   9.060  10.757   2.563  0.3770 -1.7351  0.9810
  391MOL0     H53955   9.884  10.937   2.757 -1.6911  1.2081  1.1872
  391MOL0     H53956  10.121  10.675   2.688  0.9807  1.0022 -0.0254
  391MOL0     H53957  10.029  10.801   2.621  3.2349  3.1574  0.7786
  391MOL0     H53958  10.138  10.840   2.754  0.4236  0.4729  0.7492
  392MOL0     O53959   8.817   4.230   0.177  0.3865  0.8326 -0.3223
  392MOL0     C53960   8.735   4.315   0.146  0.3881  0.1511 -0.1954
  392MOL0     O53961   8.624   4.304   0.067 -0.1691  0.2210  0.1892
  392MOL0     C53962   8.619   4.201  -0.024  0.6687 -1.1989 -0.2742
  392MOL0     C53963   8.495   4.191  -0.091  0.2402  0.2593  0.1755
  392MOL0     C53964   8.464   4.081  -0.170 -0.1059 -0.6854 -0.7909
  392MOL0     C53965   8.551   3.977  -0.191 -0.1142  0.0954  0.0486
  392MOL0     O53966   8.528   3.866  -0.263 -0.4441 -0.5177 -0.0991
  392MOL0     C53967   8.467   3.883  -0.386  0.6520  0.2324 -0.5889
  392MOL0     C53968   8.529   3.975  -0.488  0.3330  0.5804 -0.8399
  392MOL0     C53969   8.446   3.979  -0.615 -0.5021 -0.2783 -0.2220
  392MOL0     C53970   8.426   3.844  -0.690 -0.6443  0.7311 -0.4362
  392MOL0     C53971   8.372   3.876  -0.839 -0.2733 -0.1859 -0.5369
  392MOL0     C53972   8.235   3.954  -0.837 -0.9942 -0.0562  0.2206
  392MOL0     C53973   8.205   3.984  -0.978  0.4085  0.0080  0.6063
  392MOL0     C53974   8.056   4.001  -1.000  0.7358 -0.8329 -0.4492
  392MOL0     N53975   7.994   4.103  -0.915 -0.4316  0.3225  0.2401
  392MOL0     C53976   8.019   4.235  -0.915  0.6588  1.0556  0.8423
  392MOL0     C53977   7.970   4.280  -0.801 -0.5330  0.8156  0.6377
  392MOL0     C53978   7.977   4.419  -0.743 -0.3201  1.2698 -0.0214
  392MOL0     C53979   7.841   4.475  -0.718  0.1825 -0.5398 -0.4099
  392MOL0     C53980   7.769   4.512  -0.846 -0.6167 -0.9263 -0.4443
  392MOL0     C53981   7.801   4.659  -0.890  0.3409  0.0578  0.3453
  392MOL0     O53982   7.749   4.748  -0.787  0.7768 -0.2214 -0.4964
  392MOL0     C53983   7.617   4.778  -0.801  0.2015  0.8460  0.3255
  392MOL0     C53984   7.505   4.713  -0.731 -0.8791  0.0341  0.0048
  392MOL0     C53985   7.374   4.729  -0.761 -0.1724  1.3490  0.6858
  392MOL0     C53986   7.271   4.644  -0.688  0.7416  0.4831  0.1209
  392MOL0     C53987   7.349   4.832  -0.854  0.4742  0.1159 -0.1733
  392MOL0     C53988   7.222   4.892  -0.895  0.6224  0.6529 -0.1747
  392MOL0     O53989   7.215   5.011  -0.967  0.1039  0.3310 -0.4273
  392MOL0     C53990   7.096   5.076  -0.966 -1.1919  1.0355 -0.0809
  392MOL0     C53991   7.027   5.073  -1.086  0.8451  0.3872 -1.0541
  392MOL0     C53992   6.905   5.136  -1.108  0.3226  0.4540 -0.7452
  392MOL0     C53993   6.849   5.203  -0.992  0.5506  0.0851 -0.0927
  392MOL0     O53994   6.720   5.247  -0.973  0.6050 -0.2795  0.2739
  392MOL0     C53995   6.654   5.263  -1.098  0.8540  0.3733  1.1060
  392MOL0     C53996   6.525   5.352  -1.085  0.0100  0.8068 -0.2668
  392MOL0     C53997   6.546   5.476  -0.988 -0.3543  0.2151  0.7728
  392MOL0     C53998   6.437   5.574  -1.002  0.1336 -0.0217 -0.2494
  392MOL0     C53999   6.297   5.519  -1.002  1.1244 -0.0417 -0.2591
  392MOL0     C54000   6.197   5.623  -0.995  0.6275 -0.5597  0.5919
  392MOL0     C54001   6.065   5.571  -0.958 -0.6096  0.3811 -0.5078
  392MOL0     C54002   6.045   5.541  -0.804 -0.5139  0.5147  0.3015
  392MOL0    Cl54003   5.888   5.473  -0.758 -0.2270  0.2707  0.5121
  392MOL0     C54004   6.920   5.206  -0.872  0.2241 -0.5841  0.7252
  392MOL0     C54005   7.043   5.142  -0.861 -0.0726  0.1392 -0.2153
  392MOL0     O54006   7.126   4.815  -0.884  0.3986 -0.4778  0.7009
  392MOL0     C54007   7.455   4.884  -0.932 -0.1064 -0.2422 -0.8703
  392MOL0     C54008   7.588   4.861  -0.906 -0.2707 -0.4641  0.2380
  392MOL0     N54009   7.898   4.180  -0.736 -0.0456 -0.4688  0.5580
  392MOL0     N54010   7.927   4.076  -0.799  0.2246 -0.0209  0.4881
  392MOL0     C54011   8.674   3.988  -0.131  1.3121  0.8282 -0.9666
  392MOL0     C54012   8.708   4.085  -0.042  0.6004  0.1746  0.7455
  392MOL0     C54013   8.720   4.420   0.239 -0.9027 -0.4293  0.0542
  392MOL0     C54014   8.740   4.388   0.377  0.2113  0.5938 -1.0072
  392MOL0     C54015   8.754   4.484   0.481  0.8216 -1.2901 -0.7787
  392MOL0     C54016   8.721   4.618   0.452 -0.3677 -0.7483 -0.5286
  392MOL0     O54017   8.710   4.708   0.556 -0.1144 -0.6228  0.2816
  392MOL0     C54018   8.597   4.802   0.547 -0.8561  0.0301  0.4503
  392MOL0     C54019   8.465   4.727   0.568 -0.3674 -0.6998  0.3668
  392MOL0     C54020   8.336   4.819   0.570  0.0444 -0.0101  0.3919
  392MOL0     C54021   8.207   4.751   0.611  0.0678  0.8003 -0.8484
  392MOL0     C54022   8.193   4.792   0.752  0.7211  0.5788  0.4706
  392MOL0     C54023   8.170   4.819   0.870 -0.0938  1.8360  0.3110
  392MOL0     C54024   8.711   4.651   0.315  0.9637  0.4985 -0.0162
  392MOL0     C54025   8.708   4.558   0.214 -0.1240  0.2488 -0.1244
  392MOL0     C54026   8.670   4.605   0.070  0.1403  0.5482  0.2861
  392MOL0     H54027   8.414   4.261  -0.074 -1.1249 -1.7701  2.8737
  392MOL0     H54028   8.362   4.069  -0.205 -0.1685 -0.3838 -0.7131
  392MOL0     H54029   8.364   3.914  -0.367  0.5549 -0.5374  0.2023
  392MOL0     H54030   8.443   3.789  -0.436 -1.9325 -0.2916  1.3852
  392MOL0     H54031   8.529   4.080  -0.458  0.1966  0.9311 -2.0207
  392MOL0     H54032   8.630   3.935  -0.507  0.7817 -1.6572  4.4029
  392MOL0     H54033   8.344   4.013  -0.595 -0.8302  0.3005 -2.6205
  392MOL0     H54034   8.499   4.049  -0.680  2.6844 -1.7546  0.6113
  392MOL0     H54035   8.523   3.794  -0.693 -1.7008 -1.4053 -1.7502
  392MOL0     H54036   8.356   3.782  -0.633  0.0989 -0.4217 -0.7234
  392MOL0     H54037   8.358   3.790  -0.905 -0.3243  0.2111 -1.0466
  392MOL0     H54038   8.435   3.956  -0.880 -0.6434  1.2900  1.6019
  392MOL0     H54039   8.165   3.881  -0.794  0.8046 -2.1307 -0.1775
  392MOL0     H54040   8.227   4.041  -0.770  1.9121 -1.2232  2.2974
  392MOL0     H54041   8.246   3.922  -1.058 -0.7473 -0.1412  0.1197
  392MOL0     H54042   8.255   4.078  -1.003  3.0506 -1.1874  1.0542
  392MOL0     H54043   8.039   4.042  -1.100 -1.1687  0.1685  0.2332
  392MOL0     H54044   8.004   3.905  -0.992 -2.0722  0.3731 -2.4353
  392MOL0     H54045   8.075   4.287  -0.992  2.8755 -2.7356 -0.4080
  392MOL0     H54046   8.026   4.485  -0.815  0.7094  0.2195 -0.3189
  392MOL0     H54047   8.033   4.410  -0.650 -1.9942 -0.6519  0.9104
  392MOL0     H54048   7.782   4.405  -0.657 -1.3876 -1.0323 -2.4125
  392MOL0     H54049   7.849   4.566  -0.658 -1.1418 -0.9863  0.4846
  392MOL0     H54050   7.797   4.447  -0.929 -3.0075 -2.2434 -0.3174
  392MOL0     H54051   7.661   4.510  -0.828 -0.4043 -1.9012  0.9077
  392MOL0     H54052   7.908   4.674  -0.903 -0.0099  3.3582  0.3889
  392MOL0     H54053   7.756   4.679  -0.988  3.1596  1.9626 -0.6628
  392MOL0     H54054   7.521   4.642  -0.650 -2.7809  0.7041  1.0268
  392MOL0     H54055   7.208   4.711  -0.629 -1.6767 -3.2946  2.2167
  392MOL0     H54056   7.313   4.562  -0.629 -0.5067 -1.9407 -2.1696
  392MOL0     H54057   7.215   4.591  -0.765  0.9014  0.5835 -0.0666
  392MOL0     H54058   7.075   5.018  -1.167  1.1772  1.2547 -1.4558
  392MOL0     H54059   6.845   5.129  -1.198 -0.1672  0.5988 -0.4295
  392MOL0     H54060   6.722   5.317  -1.165  1.8553 -1.9397  0.1413
  392MOL0     H54061   6.627   5.169  -1.148 -0.1489  1.1991  0.0409
  392MOL0     H54062   6.502   5.379  -1.188  1.1796 -2.0459 -1.3657
  392MOL0     H54063   6.438   5.295  -1.051  0.8085 -0.3548 -0.1115
  392MOL0     H54064   6.644   5.523  -0.996 -1.6345  2.8869 -0.4825
  392MOL0     H54065   6.545   5.429  -0.889  0.8921 -2.7267 -0.4745
  392MOL0     H54066   6.444   5.613  -1.105  0.7277 -3.6321 -1.7315
  392MOL0     H54067   6.448   5.655  -0.929 -0.4634  2.6546 -2.9123
  392MOL0     H54068   6.279   5.476  -1.101  3.9083 -0.7627 -0.5316
  392MOL0     H54069   6.289   5.445  -0.922 -2.0339 -0.3182 -0.7031
  392MOL0     H54070   6.178   5.667  -1.093 -2.8000 -1.7794  0.5867
  392MOL0     H54071   6.228   5.698  -0.922  1.3407 -0.1328 -0.1261
  392MOL0     H54072   6.029   5.486  -1.016  1.2988 -0.8614  0.0263
  392MOL0     H54073   5.991   5.649  -0.977 -2.9104 -1.6191 -0.3802
  392MOL0     H54074   6.050   5.641  -0.758  0.4196  2.1090 -2.9888
  392MOL0     H54075   6.119   5.479  -0.752  0.8233  0.6845 -1.3173
  392MOL0     H54076   6.869   5.254  -0.789  2.5776  4.4989 -0.3537
  392MOL0     H54077   7.084   5.141  -0.761 -0.2058 -1.0466 -0.1536
  392MOL0     H54078   7.433   4.960  -1.006 -0.4473  1.0880  0.5578
  392MOL0     H54079   7.671   4.902  -0.963 -0.4926 -0.8258 -0.3492
  392MOL0     H54080   8.737   3.905  -0.159 -0.6323 -0.9858 -0.2126
  392MOL0     H54081   8.806   4.063  -0.001  1.0172  0.6572  0.0236
  392MOL0     H54082   8.756   4.283   0.400 -2.4813 -0.0645 -1.8472
  392MOL0     H54083   8.761   4.459   0.586 -1.4680  2.2786  0.4151
  392MOL0     H54084   8.599   4.884   0.620  1.3866  2.8050 -2.4066
  392MOL0     H54085   8.604   4.862   0.455 -2.0591 -0.8620 -0.2456
  392MOL0     H54086   8.465   4.677   0.666 -1.8526 -1.5673 -0.0467
  392MOL0     H54087   8.456   4.644   0.497 -1.8178  0.6486 -1.1034
  392MOL0     H54088   8.358   4.902   0.638  2.7544 -0.5771  0.3170
  392MOL0     H54089   8.322   4.869   0.473  0.7890  0.2233  0.3963
  392MOL0     H54090   8.205   4.643   0.595  0.0136  0.4378  1.3061
  392MOL0     H54091   8.131   4.798   0.547 -2.2001 -1.8712 -0.2786
  392MOL0     H54092   8.147   4.829   0.974  3.7952  0.5520  1.4491
  392MOL0     H54093   8.683   4.754   0.295 -1.0586  0.2447  1.2250
  392MOL0     H54094   8.757   4.582   0.008 -0.8402 -1.4371 -0.4336
  392MOL0     H54095   8.579   4.561   0.028  0.2647 -0.0545  0.6273
  392MOL0     H54096   8.669   4.713   0.054  1.8914  0.4161 -1.0500
  393MOL0     O54097   2.967   7.048   1.186  0.1681 -0.4436 -0.4255
  393MOL0     C54098   2.980   6.931   1.220  1.0797  0.7727 -0.1659
  393MOL0     O54099   3.095   6.889   1.298 -1.1088 -0.3804 -0.7713
  393MOL0     C54100   3.188   6.980   1.341  0.1931 -0.2902  0.0891
  393MOL0     C54101   3.281   7.050   1.262  0.5318  0.0500  0.1751
  393MOL0     C54102   3.378   7.133   1.322  0.6363 -0.3182 -0.3472
  393MOL0     C54103   3.400   7.139   1.455  0.5757  0.0289  0.1194
  393MOL0     O54104   3.492   7.205   1.533  0.1748 -0.3267  0.7283
  393MOL0     C54105   3.520   7.345   1.502 -0.8821  0.2686 -0.0366
  393MOL0     C54106   3.411   7.429   1.569  0.3171  0.0979 -0.5707
  393MOL0     C54107   3.431   7.576   1.529 -0.1699  0.3766 -0.3400
  393MOL0     C54108   3.337   7.661   1.606 -0.5021  0.1759 -0.2312
  393MOL0     C54109   3.370   7.811   1.605  0.3167 -0.2466  0.5359
  393MOL0     C54110   3.245   7.906   1.644  0.5709  0.2450 -0.4973
  393MOL0     C54111   3.266   8.043   1.588  0.6346 -1.0645  0.5403
  393MOL0     C54112   3.387   8.127   1.626  0.5353  0.0892 -0.3175
  393MOL0     N54113   3.393   8.157   1.774  0.7163 -0.1768  0.7164
  393MOL0     C54114   3.398   8.064   1.878  0.5164 -0.5623 -0.5772
  393MOL0     C54115   3.388   8.137   1.989 -0.2229  0.1586  0.0486
  393MOL0     C54116   3.367   8.089   2.125  0.7263 -0.7891 -0.5357
  393MOL0     C54117   3.482   8.098   2.232  0.5050 -0.1687  0.1822
  393MOL0     C54118   3.516   8.253   2.261  0.9848  0.0209 -0.0376
  393MOL0     C54119   3.606   8.276   2.384  0.2091  0.2858 -0.8054
  393MOL0     O54120   3.744   8.252   2.352 -0.3247  0.2411  0.2631
  393MOL0     C54121   3.827   8.205   2.454 -0.3719 -0.2746  0.1351
  393MOL0     C54122   3.965   8.225   2.430 -0.7022 -0.4314 -0.2110
  393MOL0     C54123   4.066   8.204   2.525 -0.4069  0.3884  0.7505
  393MOL0     C54124   4.208   8.246   2.486 -0.6992 -0.3448 -0.8733
  393MOL0     C54125   4.031   8.155   2.653 -0.0202  0.5967 -0.3438
  393MOL0     C54126   4.131   8.120   2.759 -0.7144 -1.0751  0.2370
  393MOL0     O54127   4.254   8.178   2.771 -0.9734 -0.3908  0.2686
  393MOL0     C54128   4.340   8.151   2.879  0.2167 -0.5234  0.6219
  393MOL0     C54129   4.476   8.144   2.853 -0.1210  0.5634  0.5052
  393MOL0     C54130   4.571   8.132   2.945  0.7664 -0.2250  0.2397
  393MOL0     C54131   4.529   8.108   3.081 -0.6640 -0.8003  0.4907
  393MOL0     O54132   4.617   8.081   3.187 -0.3385 -0.7379 -0.0317
  393MOL0     C54133   4.749   8.040   3.162 -0.0204  0.5414 -0.8615
  393MOL0     C54134   4.790   7.917   3.235 -0.0301  0.1591 -0.5801
  393MOL0     C54135   4.942   7.873   3.208 -0.1019  0.0473 -0.3196
  393MOL0     C54136   4.959   7.727   3.229 -0.0325 -0.3961 -0.3458
  393MOL0     C54137   5.110   7.675   3.226 -0.3020 -0.3019  0.3098
  393MOL0     C54138   5.178   7.704   3.087  0.4200 -0.4207 -0.1465
  393MOL0     C54139   5.113   7.648   2.950  0.3065 -0.1050 -0.1350
  393MOL0     C54140   5.222   7.606   2.840  0.8475  0.4374  0.2894
  393MOL0    Cl54141   5.344   7.744   2.812 -0.4403  0.5052  0.0124
  393MOL0     C54142   4.394   8.127   3.120  0.8105 -0.9387 -0.4816
  393MOL0     C54143   4.301   8.147   3.013  0.3897  0.1837  0.5570
  393MOL0     O54144   4.105   8.018   2.819  0.1858 -0.2772 -0.6317
  393MOL0     C54145   3.901   8.132   2.681 -1.0930  0.3315 -0.1869
  393MOL0     C54146   3.799   8.153   2.581  0.3665  0.1737 -0.6310
  393MOL0     N54147   3.404   8.274   1.960  0.1153  0.8550  0.1930
  393MOL0     N54148   3.409   8.281   1.829  0.6938 -0.5367 -1.2445
  393MOL0     C54149   3.310   7.071   1.536  0.2860  0.9104  0.2126
  393MOL0     C54150   3.196   7.002   1.482 -0.0224  0.2174  0.3971
  393MOL0     C54151   2.863   6.840   1.220  0.0790 -0.1039  0.5653
  393MOL0     C54152   2.769   6.872   1.120  0.4459 -0.1382 -0.4357
  393MOL0     C54153   2.653   6.801   1.093 -0.5786 -0.0811 -0.5207
  393MOL0     C54154   2.623   6.692   1.167  0.2343 -0.4338 -0.0298
  393MOL0     O54155   2.509   6.617   1.160  0.2722  0.2543  0.1042
  393MOL0     C54156   2.413   6.650   1.055 -0.0396 -0.1938 -0.6210
  393MOL0     C54157   2.279   6.574   1.079  0.0347 -0.3478 -0.6709
  393MOL0     C54158   2.160   6.620   0.983  0.8508  0.2011 -0.4954
  393MOL0     C54159   2.033   6.531   1.005 -0.1801  0.0344  0.3203
  393MOL0     C54160   1.963   6.565   1.128 -0.0503 -0.3462  0.3978
  393MOL0     C54161   1.892   6.599   1.231 -0.1466  0.3736 -0.3254
  393MOL0     C54162   2.720   6.650   1.260 -0.1180 -0.0010  0.1647
  393MOL0     C54163   2.841   6.721   1.289  0.4415 -0.5675 -0.6351
  393MOL0     C54164   2.928   6.671   1.395 -1.0639  0.4394 -1.0552
  393MOL0     H54165   3.273   7.039   1.154  0.4643  1.2048  0.0531
  393MOL0     H54166   3.428   7.211   1.266  2.1367 -0.9137  0.1047
  393MOL0     H54167   3.537   7.350   1.394  1.1236 -3.7459 -0.0790
  393MOL0     H54168   3.621   7.360   1.542 -0.3581 -2.8158  0.0070
  393MOL0     H54169   3.307   7.401   1.551 -0.9858  1.9297  2.9793
  393MOL0     H54170   3.426   7.412   1.676 -0.0956  0.6230 -0.4261
  393MOL0     H54171   3.536   7.602   1.547 -0.4805  0.3463  1.6943
  393MOL0     H54172   3.403   7.590   1.424  1.6067  2.5004 -0.6012
  393MOL0     H54173   3.232   7.647   1.577 -0.0043  0.9664 -2.6090
  393MOL0     H54174   3.362   7.631   1.708  1.7528  0.3876 -0.6745
  393MOL0     H54175   3.401   7.835   1.503 -1.9937 -4.0767 -1.3259
  393MOL0     H54176   3.454   7.845   1.666  1.2588  1.3233 -1.5563
  393MOL0     H54177   3.156   7.855   1.606 -0.8086  0.5689  2.0470
  393MOL0     H54178   3.229   7.911   1.752  2.1303  3.1726 -0.2935
  393MOL0     H54179   3.174   8.100   1.596 -0.0730 -2.1595  0.4112
  393MOL0     H54180   3.282   8.032   1.480  0.1498  2.1556  0.0644
  393MOL0     H54181   3.476   8.066   1.606  1.4710  0.0683  3.2394
  393MOL0     H54182   3.394   8.218   1.565 -0.8031  1.0922  0.9360
  393MOL0     H54183   3.404   7.956   1.891  2.7753 -0.4116 -0.0080
  393MOL0     H54184   3.316   7.993   2.132  0.1470 -0.4076  0.8167
  393MOL0     H54185   3.298   8.157   2.176  3.1891  2.2135 -0.8940
  393MOL0     H54186   3.458   8.047   2.325  1.0008 -1.8273 -0.5752
  393MOL0     H54187   3.575   8.053   2.197  0.7578  1.3302 -1.2090
  393MOL0     H54188   3.554   8.307   2.173  0.3352 -0.7457 -0.8035
  393MOL0     H54189   3.415   8.293   2.277  0.6887  0.2181 -2.0840
  393MOL0     H54190   3.593   8.382   2.407  0.7594  0.3833 -0.9450
  393MOL0     H54191   3.572   8.217   2.470 -0.6298  2.3211  0.3400
  393MOL0     H54192   3.991   8.265   2.333  2.3340 -3.2297 -0.7222
  393MOL0     H54193   4.281   8.185   2.539 -0.6646 -1.9176 -2.6468
  393MOL0     H54194   4.212   8.351   2.516 -3.6989  0.0792 -1.6417
  393MOL0     H54195   4.232   8.222   2.382  0.5745 -0.8601 -0.4767
  393MOL0     H54196   4.511   8.155   2.751 -1.8096  0.5367 -0.0909
  393MOL0     H54197   4.676   8.131   2.918  0.7343 -0.1668  0.1166
  393MOL0     H54198   4.767   8.013   3.057 -0.4534 -1.0316 -0.5601
  393MOL0     H54199   4.816   8.126   3.162 -1.4866  1.7396 -2.4594
  393MOL0     H54200   4.777   7.931   3.343 -1.4114 -2.0603 -0.3959
  393MOL0     H54201   4.714   7.844   3.207 -0.3946  1.3547 -3.0160
  393MOL0     H54202   5.005   7.931   3.276  0.6044  0.2224 -1.1081
  393MOL0     H54203   4.969   7.905   3.107  0.7961  1.8112  0.4345
  393MOL0     H54204   4.912   7.677   3.144  0.3823  0.6181 -1.1913
  393MOL0     H54205   4.905   7.688   3.316 -1.8677 -1.0082 -1.7041
  393MOL0     H54206   5.176   7.714   3.304  1.2883 -0.6629 -0.7815
  393MOL0     H54207   5.112   7.566   3.231  2.8232 -0.3964 -0.7434
  393MOL0     H54208   5.262   7.636   3.102 -1.2852 -2.5600  0.3889
  393MOL0     H54209   5.206   7.809   3.079  1.3201 -0.8060 -2.9597
  393MOL0     H54210   5.047   7.725   2.909  0.5212 -0.1692 -0.6094
  393MOL0     H54211   5.061   7.553   2.960  0.7715 -0.7261 -2.9093
  393MOL0     H54212   5.167   7.575   2.751 -1.3208  2.1570  0.9388
  393MOL0     H54213   5.269   7.517   2.883 -2.0673 -0.8433  1.0323
  393MOL0     H54214   4.370   8.106   3.224  0.4344  3.7803  0.6232
  393MOL0     H54215   4.198   8.161   3.043  0.2918  3.1055 -0.7655
  393MOL0     H54216   3.864   8.099   2.777  1.5583  3.2297  2.0312
  393MOL0     H54217   3.698   8.140   2.618  0.9404  1.5157  1.5691
  393MOL0     H54218   3.327   7.070   1.643 -1.0905  3.4777  0.5464
  393MOL0     H54219   3.137   6.955   1.561  4.3861 -1.9210  2.8065
  393MOL0     H54220   2.785   6.962   1.061 -0.4501  2.1152  2.4440
  393MOL0     H54221   2.584   6.836   1.017 -0.4180 -2.6818 -1.9618
  393MOL0     H54222   2.396   6.758   1.065 -0.1048 -0.3414  1.3089
  393MOL0     H54223   2.437   6.638   0.949  0.2268 -0.5737 -0.5196
  393MOL0     H54224   2.254   6.590   1.184  5.4550  0.1385  0.8001
  393MOL0     H54225   2.309   6.469   1.069 -1.1209 -0.5479 -2.8371
  393MOL0     H54226   2.133   6.723   1.009 -1.6171 -0.4740 -0.1594
  393MOL0     H54227   2.187   6.615   0.877 -1.5219 -0.6657 -1.1139
  393MOL0     H54228   2.053   6.424   0.999 -1.4510 -0.3420  2.0326
  393MOL0     H54229   1.962   6.546   0.922  1.2100 -3.1753 -1.6324
  393MOL0     H54230   1.839   6.629   1.319 -0.5645  2.1807 -1.1440
  393MOL0     H54231   2.690   6.569   1.326 -1.7048  0.3302 -0.0969
  393MOL0     H54232   2.881   6.584   1.440 -0.8254 -0.9124 -3.2736
  393MOL0     H54233   3.020   6.641   1.344 -1.1177  1.5036 -1.8127
  393MOL0     H54234   2.939   6.750   1.470 -3.0184 -0.6706  0.4929
  394MOL0     O54235   3.277   3.179   2.594  0.1956  0.0325  0.6692
  394MOL0     C54236   3.301   3.068   2.547 -0.2304  0.0541  0.5611
  394MOL0     O54237   3.401   2.987   2.591 -0.7669 -0.7419  0.3843
  394MOL0     C54238   3.474   3.016   2.704 -0.2657  0.0403  0.5272
  394MOL0     C54239   3.477   2.920   2.799 -0.7864 -0.1956  0.1214
  394MOL0     C54240   3.561   2.923   2.911 -0.2679 -0.1320  0.0029
  394MOL0     C54241   3.641   3.043   2.932 -0.2244 -0.1455  0.5728
  394MOL0     O54242   3.710   3.065   3.046  0.4062 -0.6817 -0.0956
  394MOL0     C54243   3.817   2.974   3.065  0.8016  0.0366  0.5760
  394MOL0     C54244   3.877   2.993   3.211  0.2798 -0.0049  0.3745
  394MOL0     C54245   3.982   2.895   3.247 -1.3011 -0.4440  0.6967
  394MOL0     C54246   4.004   2.867   3.397  0.7376 -0.3414  0.0958
  394MOL0     C54247   4.095   2.739   3.427  0.2377 -0.5870 -0.4852
  394MOL0     C54248   4.231   2.731   3.362 -0.0989  0.1365 -0.9629
  394MOL0     C54249   4.271   2.582   3.330 -0.8745  0.4359  0.6032
  394MOL0     C54250   4.404   2.574   3.262  0.4309 -0.1832  1.0388
  394MOL0     N54251   4.459   2.441   3.262  0.2733 -0.3975  0.5244
  394MOL0     C54252   4.404   2.346   3.181  0.4077  0.4703 -0.9370
  394MOL0     C54253   4.489   2.241   3.198  0.9388 -0.1732  0.1446
  394MOL0     C54254   4.454   2.102   3.151  0.8818 -0.3123 -0.2612
  394MOL0     C54255   4.563   2.001   3.194 -0.1452 -0.5284 -0.3314
  394MOL0     C54256   4.526   1.850   3.194  0.3923 -0.0132  0.1658
  394MOL0     C54257   4.434   1.811   3.303  0.4951  0.8667  0.1523
  394MOL0     O54258   4.425   1.666   3.276 -0.4538 -0.3834 -0.1223
  394MOL0     C54259   4.311   1.607   3.331 -0.0363  1.1598  0.2994
  394MOL0     C54260   4.302   1.628   3.463  0.6466  0.1560 -1.1022
  394MOL0     C54261   4.206   1.563   3.549  0.3829 -0.8283 -0.9752
  394MOL0     C54262   4.193   1.583   3.701 -0.3197  0.3649  0.7466
  394MOL0     C54263   4.116   1.476   3.474  0.2722 -0.1725  0.5493
  394MOL0     C54264   4.018   1.385   3.547  0.6739 -0.8660 -0.4743
  394MOL0     O54265   3.908   1.344   3.476 -0.9670 -0.8735  0.0743
  394MOL0     C54266   3.819   1.260   3.534  0.8669  0.3588  1.0416
  394MOL0     C54267   3.750   1.306   3.646 -0.1980 -0.4847 -0.6826
  394MOL0     C54268   3.651   1.231   3.716 -0.1378  0.5559  0.3793
  394MOL0     C54269   3.614   1.106   3.660 -1.0061 -0.0780  0.1623
  394MOL0     O54270   3.513   1.025   3.723  0.0072  0.0049  0.0182
  394MOL0     C54271   3.436   0.931   3.643 -0.7114 -0.2813  0.1639
  394MOL0     C54272   3.326   0.871   3.719  0.9939 -1.0680  0.6258
  394MOL0     C54273   3.230   0.965   3.780  0.1815 -0.0640  0.7192
  394MOL0     C54274   3.132   0.893   3.873  0.7331 -0.6328  0.6545
  394MOL0     C54275   3.011   0.979   3.901 -0.4020  0.2529  0.2201
  394MOL0     C54276   2.915   0.901   4.003 -0.1390  0.2491 -0.3125
  394MOL0     C54277   2.785   0.987   4.037 -0.8108  0.8001 -0.7893
  394MOL0     C54278   2.713   0.939   4.169  0.1113 -0.4475 -0.2068
  394MOL0    Cl54279   2.689   0.760   4.167 -0.2451  0.1048  0.2090
  394MOL0     C54280   3.672   1.076   3.536 -0.0634 -0.3562  0.0732
  394MOL0     C54281   3.773   1.139   3.473 -0.0011 -0.4724  0.0846
  394MOL0     O54282   4.043   1.352   3.666  0.4895  0.0840  0.3213
  394MOL0     C54283   4.121   1.460   3.338 -0.2549 -0.5982 -0.5537
  394MOL0     C54284   4.222   1.526   3.262  0.7907 -0.4888  0.3609
  394MOL0     N54285   4.589   2.276   3.281  0.5465  0.2186 -0.4219
  394MOL0     N54286   4.577   2.400   3.309  0.0131  0.5951  0.3861
  394MOL0     C54287   3.632   3.149   2.835  0.2689  0.3365 -1.1498
  394MOL0     C54288   3.548   3.122   2.721  0.0054 -0.9060  0.7424
  394MOL0     C54289   3.220   3.015   2.441  0.6225 -0.4279 -0.4992
  394MOL0     C54290   3.180   3.097   2.326 -0.1746  0.8469 -0.6656
  394MOL0     C54291   3.086   3.050   2.235 -0.8616 -0.3102  0.8609
  394MOL0     C54292   3.024   2.925   2.251 -0.5214  0.1324 -0.1738
  394MOL0     O54293   2.918   2.906   2.171 -0.1160 -0.3723 -0.1425
  394MOL0     C54294   2.845   2.785   2.157 -0.3950  0.5859 -0.3204
  394MOL0     C54295   2.725   2.797   2.063 -0.5816  1.0189  0.2483
  394MOL0     C54296   2.631   2.916   2.108  1.0399 -0.1820  0.1372
  394MOL0     C54297   2.563   2.889   2.239  0.2859 -0.2589  0.4549
  394MOL0     C54298   2.476   2.774   2.232  0.1387 -0.5303  0.3520
  394MOL0     C54299   2.402   2.676   2.226 -0.0335 -0.1084 -0.1108
  394MOL0     C54300   3.065   2.839   2.354  0.1515 -0.0547  0.3485
  394MOL0     C54301   3.162   2.886   2.447 -0.9419  0.3507  0.1937
  394MOL0     C54302   3.205   2.781   2.553  0.4808  0.7050  0.0631
  394MOL0     H54303   3.416   2.834   2.775 -2.0718  1.2310 -2.0709
  394MOL0     H54304   3.564   2.842   2.983 -0.9919 -1.1925 -1.1283
  394MOL0     H54305   3.896   2.986   2.991  1.2094  4.6650  1.4119
  394MOL0     H54306   3.772   2.875   3.061  0.9342 -0.0512  1.1340
  394MOL0     H54307   3.921   3.093   3.206 -2.1374  1.1495  1.1855
  394MOL0     H54308   3.798   3.002   3.286 -0.0525  1.9545 -0.1455
  394MOL0     H54309   3.952   2.800   3.203 -0.5874 -0.1731 -0.4082
  394MOL0     H54310   4.080   2.915   3.202 -1.2980 -1.0696  0.4113
  394MOL0     H54311   4.047   2.948   3.457 -0.5322 -1.1606  2.2290
  394MOL0     H54312   3.907   2.839   3.438  0.6742 -0.7374 -0.3143
  394MOL0     H54313   4.029   2.652   3.418 -0.5085 -0.1084  0.3014
  394MOL0     H54314   4.118   2.749   3.533  0.9600  0.8965 -0.7595
  394MOL0     H54315   4.224   2.798   3.275  1.2976  2.7973  0.8379
  394MOL0     H54316   4.308   2.762   3.434  1.3262 -2.2449 -1.3438
  394MOL0     H54317   4.204   2.544   3.252  1.3449  0.2664 -1.3443
  394MOL0     H54318   4.272   2.517   3.418  2.5273  0.1592  0.4703
  394MOL0     H54319   4.403   2.613   3.159 -0.6412 -3.4881 -0.3599
  394MOL0     H54320   4.465   2.641   3.322 -1.1470  2.1330  0.2063
  394MOL0     H54321   4.312   2.341   3.124  0.1386  1.3303 -0.6058
  394MOL0     H54322   4.454   2.099   3.041  0.4401 -0.1125 -0.2667
  394MOL0     H54323   4.361   2.076   3.201  0.5877  2.9160  1.1104
  394MOL0     H54324   4.647   2.022   3.127 -0.7721  1.4585 -0.5462
  394MOL0     H54325   4.600   2.021   3.295  1.4475 -2.6435 -0.4162
  394MOL0     H54326   4.474   1.832   3.099  0.0212 -0.0829  0.3816
  394MOL0     H54327   4.623   1.800   3.199 -1.2150 -3.5427 -0.9843
  394MOL0     H54328   4.474   1.825   3.404 -2.0163  0.3335  1.3064
  394MOL0     H54329   4.345   1.872   3.286  0.6452  2.5741  4.3532
  394MOL0     H54330   4.388   1.670   3.515 -1.9768  1.2539  2.7874
  394MOL0     H54331   4.234   1.683   3.713 -1.6892  1.0369  0.0917
  394MOL0     H54332   4.244   1.501   3.753 -0.6752 -1.1288 -1.1556
  394MOL0     H54333   4.091   1.599   3.737 -1.1980  1.3524 -1.9719
  394MOL0     H54334   3.789   1.403   3.674 -1.5431 -0.2208  0.3893
  394MOL0     H54335   3.602   1.279   3.800 -0.2696  1.1726 -0.0427
  394MOL0     H54336   3.386   0.985   3.561  2.1205 -0.7522 -2.0211
  394MOL0     H54337   3.497   0.855   3.594  0.2147  1.0650 -0.8539
  394MOL0     H54338   3.279   0.803   3.648  1.3098  0.8161 -1.5068
  394MOL0     H54339   3.365   0.813   3.803  0.3261 -1.1577  0.8779
  394MOL0     H54340   3.163   1.010   3.706 -3.8965 -2.4396  2.6231
  394MOL0     H54341   3.273   1.043   3.844 -0.8694 -0.4558  1.9328
  394MOL0     H54342   3.185   0.878   3.968  0.6793  2.7233  1.3421
  394MOL0     H54343   3.111   0.792   3.836  1.5138 -0.6705  0.3032
  394MOL0     H54344   3.048   1.078   3.930 -1.6785  0.4315  1.3724
  394MOL0     H54345   2.964   1.006   3.806  1.8161 -2.0631 -1.6682
  394MOL0     H54346   2.970   0.899   4.098  2.7196  3.6801 -1.6825
  394MOL0     H54347   2.891   0.801   3.966  1.2536 -0.6408  1.0708
  394MOL0     H54348   2.725   0.971   3.948  0.6774 -2.3010 -1.3685
  394MOL0     H54349   2.813   1.093   4.035  0.1926  0.5455 -1.8540
  394MOL0     H54350   2.628   1.007   4.165  1.1124  0.7905 -1.5559
  394MOL0     H54351   2.783   0.953   4.251  0.1635  2.5847 -0.6541
  394MOL0     H54352   3.646   0.985   3.483  4.1251 -0.9317 -1.4520
  394MOL0     H54353   3.819   1.105   3.381 -0.3216  1.6329 -0.9253
  394MOL0     H54354   4.046   1.408   3.280 -0.7558  1.6817 -2.1166
  394MOL0     H54355   4.225   1.509   3.155 -1.5563 -4.4754  0.7228
  394MOL0     H54356   3.673   3.246   2.860 -0.9629  0.7479 -0.6277
  394MOL0     H54357   3.538   3.201   2.647 -1.1417 -2.8006 -1.2529
  394MOL0     H54358   3.215   3.200   2.317 -0.0788  0.9768  0.8970
  394MOL0     H54359   3.063   3.105   2.144 -0.1291 -0.4458  0.5889
  394MOL0     H54360   2.904   2.703   2.115  1.8538  3.0212 -2.2725
  394MOL0     H54361   2.807   2.748   2.253 -0.0774  1.2323  0.0656
  394MOL0     H54362   2.659   2.710   2.065  0.6391  0.0269 -0.8875
  394MOL0     H54363   2.763   2.807   1.961  0.0624  3.2682  0.6533
  394MOL0     H54364   2.685   3.010   2.113  0.3613  0.4383 -2.3740
  394MOL0     H54365   2.549   2.922   2.035  1.7842  1.4409 -0.6029
  394MOL0     H54366   2.500   2.976   2.258 -1.7563 -1.5757  0.0396
  394MOL0     H54367   2.642   2.875   2.313  0.3543 -2.4678  0.0538
  394MOL0     H54368   2.339   2.591   2.209  0.0271 -0.0163 -0.8224
  394MOL0     H54369   3.020   2.740   2.361 -0.6704  0.2349 -0.6389
  394MOL0     H54370   3.311   2.759   2.535  0.5887 -0.3564  1.7452
  394MOL0     H54371   3.199   2.820   2.655  0.7232 -0.2271  0.4416
  394MOL0     H54372   3.151   2.690   2.527 -1.6250  2.3548 -1.6391
  395MOL0     O54373   2.817   1.927   1.096 -0.1694 -0.5481 -0.4988
  395MOL0     C54374   2.843   1.961   1.211 -0.6942 -0.4774 -0.3863
  395MOL0     O54375   2.959   1.934   1.278  0.6137  0.4252 -0.0060
  395MOL0     C54376   3.072   1.917   1.206 -0.9718 -0.2396  0.6381
  395MOL0     C54377   3.177   1.949   1.290  0.0333  0.3544 -0.0127
  395MOL0     C54378   3.311   1.935   1.250 -0.5250  0.1546  0.0577
  395MOL0     C54379   3.346   1.889   1.119  0.6311 -0.9098  0.3881
  395MOL0     O54380   3.471   1.901   1.073 -0.4619  0.0049 -0.3649
  395MOL0     C54381   3.492   1.913   0.928 -1.2972  0.2020  0.7940
  395MOL0     C54382   3.625   1.982   0.894  0.2749 -1.1098  0.6268
  395MOL0     C54383   3.750   1.914   0.938 -0.0355  0.4817  0.3124
  395MOL0     C54384   3.875   1.995   0.906  0.6379 -0.3583  0.6627
  395MOL0     C54385   3.998   1.950   0.974  0.7745  0.6469 -0.4851
  395MOL0     C54386   4.123   2.041   0.953 -0.1092 -0.0948 -0.1712
  395MOL0     C54387   4.244   2.032   1.047  0.7318 -0.7287 -0.4436
  395MOL0     C54388   4.305   1.888   1.049  0.1221 -0.2565 -1.0445
  395MOL0     N54389   4.375   1.850   0.926 -0.5479 -0.1053  0.6062
  395MOL0     C54390   4.506   1.866   0.897  0.8536  0.7208  0.4000
  395MOL0     C54391   4.519   1.824   0.769  0.4960 -0.6186 -0.4677
  395MOL0     C54392   4.643   1.819   0.689 -1.8114  0.3982 -0.0058
  395MOL0     C54393   4.754   1.918   0.732 -0.0153 -0.0144 -0.7833
  395MOL0     C54394   4.881   1.938   0.632 -0.4678 -0.2673 -0.2746
  395MOL0     C54395   4.988   2.026   0.702 -0.4750  0.5548 -0.3471
  395MOL0     O54396   5.089   1.960   0.783 -1.1027 -0.3156 -0.5207
  395MOL0     C54397   5.047   1.917   0.904 -0.7788  0.4217  0.1825
  395MOL0     C54398   4.961   1.985   0.983  0.1381  0.5163  0.5287
  395MOL0     C54399   4.915   1.942   1.108  2.0126 -0.5847  0.7492
  395MOL0     C54400   4.843   2.034   1.200  0.2181  0.4441  0.0661
  395MOL0     C54401   4.954   1.802   1.145  0.1766  0.2347  0.7734
  395MOL0     C54402   4.931   1.742   1.275  0.5193 -0.2733  0.2289
  395MOL0     O54403   5.025   1.651   1.323 -0.8194  0.5759 -0.5934
  395MOL0     C54404   4.995   1.558   1.427  0.1365 -0.4080 -0.6762
  395MOL0     C54405   5.003   1.422   1.393 -0.1965  0.2152 -0.8026
  395MOL0     C54406   4.966   1.327   1.485 -0.9266  0.0492 -0.0553
  395MOL0     C54407   4.917   1.366   1.613 -0.3062 -0.7959 -0.7296
  395MOL0     O54408   4.898   1.279   1.711 -0.2073 -0.0223 -0.8594
  395MOL0     C54409   4.856   1.145   1.682  0.7122  0.5882  0.0651
  395MOL0     C54410   4.805   1.084   1.809  0.0340 -0.2907 -1.0237
  395MOL0     C54411   4.732   0.956   1.786  0.2908  0.2922  0.9375
  395MOL0     C54412   4.656   0.911   1.906  0.3893  0.9040 -0.4829
  395MOL0     C54413   4.734   0.832   2.005  0.6492  0.3207  0.2649
  395MOL0     C54414   4.649   0.762   2.119  0.0989 -0.4055  0.2588
  395MOL0     C54415   4.516   0.845   2.137  0.5617  1.2027 -0.0231
  395MOL0     C54416   4.457   0.797   2.274 -0.2854 -0.3953 -0.5604
  395MOL0    Cl54417   4.445   0.622   2.289  0.0364 -0.3453 -0.4020
  395MOL0     C54418   4.917   1.503   1.648 -0.4876  1.2254  0.2658
  395MOL0     C54419   4.960   1.594   1.555  0.7680 -0.3861  1.1027
  395MOL0     O54420   4.836   1.787   1.339 -1.0195  0.1201 -0.0550
  395MOL0     C54421   5.036   1.732   1.055 -1.2018  1.0587 -0.8128
  395MOL0     C54422   5.089   1.784   0.936 -0.2116 -0.5443  0.0369
  395MOL0     N54423   4.398   1.789   0.714  0.9938  0.2469  0.6091
  395MOL0     N54424   4.309   1.814   0.808  0.2355  0.7517 -1.3604
  395MOL0     C54425   3.235   1.858   1.041 -0.1417  1.0154  0.4347
  395MOL0     C54426   3.103   1.862   1.078 -0.9139  0.0536 -0.1149
  395MOL0     C54427   2.733   2.009   1.311 -0.4328  0.1290 -0.1275
  395MOL0     C54428   2.769   2.082   1.421 -0.0130 -1.3622 -0.0669
  395MOL0     C54429   2.675   2.126   1.518  0.4841 -0.6064  0.6773
  395MOL0     C54430   2.537   2.106   1.507 -0.1292 -0.4594  0.8466
  395MOL0     O54431   2.436   2.169   1.580 -1.1036  0.3022 -0.5278
  395MOL0     C54432   2.432   2.128   1.721  0.6328 -0.1255  0.2552
  395MOL0     C54433   2.332   2.006   1.714 -0.6212 -0.1316  0.0232
  395MOL0     C54434   2.309   1.939   1.844 -0.0675 -0.6755  0.4653
  395MOL0     C54435   2.213   1.819   1.833  0.2143 -0.0733  0.5091
  395MOL0     C54436   2.199   1.772   1.965 -0.1270  0.8964 -1.9036
  395MOL0     C54437   2.190   1.739   2.081 -0.6817 -0.4210 -1.1149
  395MOL0     C54438   2.499   2.040   1.390  0.0934 -0.1811 -0.1771
  395MOL0     C54439   2.595   1.973   1.308  1.0338 -0.7921  1.0195
  395MOL0     C54440   2.544   1.876   1.201  0.6203  1.2838  0.1588
  395MOL0     H54441   3.170   2.003   1.384 -1.8901  0.3285 -0.1217
  395MOL0     H54442   3.384   1.978   1.317 -1.6216  1.0216  0.7463
  395MOL0     H54443   3.423   1.977   0.872  1.2219  1.4030 -1.1782
  395MOL0     H54444   3.479   1.813   0.885 -2.9938  0.8545 -0.3399
  395MOL0     H54445   3.616   1.993   0.786 -1.5884 -2.0746  0.6379
  395MOL0     H54446   3.615   2.081   0.940 -4.7438  0.3252 -2.6423
  395MOL0     H54447   3.758   1.887   1.044  2.7175  0.4056  0.1542
  395MOL0     H54448   3.757   1.822   0.879  3.8511  1.9144 -1.8267
  395MOL0     H54449   3.895   1.987   0.799 -0.7287  0.2614  0.3360
  395MOL0     H54450   3.851   2.096   0.941 -1.2108 -0.2379 -0.8069
  395MOL0     H54451   4.028   1.852   0.936  3.3085  1.8323 -1.7684
  395MOL0     H54452   3.975   1.946   1.081 -4.3036 -0.1129 -1.3684
  395MOL0     H54453   4.149   2.037   0.847 -3.6214 -2.6239 -1.1235
  395MOL0     H54454   4.085   2.141   0.976 -0.5282 -0.0852 -0.8687
  395MOL0     H54455   4.214   2.058   1.149 -3.3409  0.5825 -1.7680
  395MOL0     H54456   4.329   2.096   1.022  0.7623  0.8395  3.0353
  395MOL0     H54457   4.379   1.877   1.129 -0.2904  1.0838 -0.4561
  395MOL0     H54458   4.218   1.824   1.069  1.1292 -0.7327  2.4391
  395MOL0     H54459   4.585   1.879   0.970 -0.4922 -1.0418  2.2719
  395MOL0     H54460   4.636   1.817   0.579  3.0402 -2.8736 -0.5609
  395MOL0     H54461   4.679   1.725   0.730 -1.5969  1.0429  1.3322
  395MOL0     H54462   4.703   2.015   0.743  1.1164  0.4660  0.5559
  395MOL0     H54463   4.787   1.876   0.828  0.5600 -0.8111 -1.3193
  395MOL0     H54464   4.931   1.848   0.594  0.2432 -1.3641  2.9606
  395MOL0     H54465   4.854   1.997   0.543 -0.7271 -1.2917 -0.8967
  395MOL0     H54466   5.052   2.077   0.629  0.7099  0.1233  0.3664
  395MOL0     H54467   4.947   2.102   0.769  1.0873  1.8120 -0.7212
  395MOL0     H54468   4.947   2.091   0.967 -1.1580  0.6981  2.4979
  395MOL0     H54469   4.828   2.136   1.163  2.2905  1.2191  1.1658
  395MOL0     H54470   4.910   2.050   1.285 -2.6061  1.9229  2.1500
  395MOL0     H54471   4.745   1.991   1.219  0.2408  0.0331 -0.7202
  395MOL0     H54472   5.042   1.396   1.295 -1.2936  1.9470 -1.7513
  395MOL0     H54473   4.981   1.223   1.462  1.8635  0.8409 -2.3640
  395MOL0     H54474   4.771   1.157   1.614  0.1396  3.8275  1.1536
  395MOL0     H54475   4.943   1.092   1.641  1.6920  1.2788  1.1639
  395MOL0     H54476   4.890   1.062   1.874  0.4971  2.0272 -0.7471
  395MOL0     H54477   4.732   1.149   1.859  0.6578 -0.7976  0.5940
  395MOL0     H54478   4.801   0.876   1.757  1.8476  1.2381  1.8950
  395MOL0     H54479   4.656   0.978   1.710 -1.2052 -1.4891  1.8475
  395MOL0     H54480   4.570   0.851   1.875  2.2348 -0.8783 -2.4275
  395MOL0     H54481   4.614   0.998   1.957 -2.6442 -0.8238  0.2323
  395MOL0     H54482   4.780   0.755   1.942  0.3402 -0.2545  0.7382
  395MOL0     H54483   4.816   0.886   2.053  0.3380  1.4315 -0.4152
  395MOL0     H54484   4.709   0.772   2.209 -1.7572  2.2357  1.3354
  395MOL0     H54485   4.613   0.663   2.089 -3.6115  0.7074  0.4538
  395MOL0     H54486   4.447   0.807   2.061 -2.6888 -0.6879  3.4730
  395MOL0     H54487   4.533   0.953   2.138 -0.0304  1.3000  0.6035
  395MOL0     H54488   4.361   0.846   2.295 -1.7944 -3.1302 -0.5588
  395MOL0     H54489   4.526   0.824   2.355  1.1934  1.3305 -2.3093
  395MOL0     H54490   4.885   1.529   1.748  2.4720  1.5233  1.2431
  395MOL0     H54491   4.963   1.701   1.578  0.2141 -0.1686  0.2148
  395MOL0     H54492   5.088   1.646   1.095  1.1689  2.0915 -1.4926
  395MOL0     H54493   5.163   1.738   0.871 -1.0946 -0.7178 -0.8792
  395MOL0     H54494   3.265   1.823   0.942 -2.2712  0.2144  0.0309
  395MOL0     H54495   3.032   1.829   1.003  1.0036 -0.2115 -1.8994
  395MOL0     H54496   2.873   2.096   1.449  1.1554  0.1138 -4.3073
  395MOL0     H54497   2.713   2.182   1.603 -3.3398  1.2289  1.4262
  395MOL0     H54498   2.533   2.103   1.755  0.2129  0.5928  2.1628
  395MOL0     H54499   2.397   2.210   1.784  1.5941 -2.5125  4.2721
  395MOL0     H54500   2.366   1.931   1.640  0.3385  0.0025  0.3152
  395MOL0     H54501   2.235   2.049   1.688 -0.7658 -0.3081  0.2690
  395MOL0     H54502   2.405   1.913   1.890 -1.1503 -3.2393  1.4246
  395MOL0     H54503   2.269   2.023   1.903  0.6477  1.0477 -1.3826
  395MOL0     H54504   2.253   1.740   1.770 -1.8374 -1.5185  0.9133
  395MOL0     H54505   2.120   1.860   1.793 -0.5397 -0.6459  1.6269
  395MOL0     H54506   2.197   1.697   2.179  0.5765  2.3406  0.1014
  395MOL0     H54507   2.391   2.047   1.386 -0.0701  1.9455  3.6798
  395MOL0     H54508   2.568   1.912   1.100  1.4950  1.8135  0.5498
  395MOL0     H54509   2.590   1.777   1.208 -1.1153  0.2493 -1.6880
  395MOL0     H54510   2.436   1.868   1.215  0.8579 -1.3582  0.9942
  396MOL0     O54511   6.898   7.582   6.050 -0.1791 -0.9197  0.2150
  396MOL0     C54512   6.983   7.570   6.138  1.6758 -0.6547 -0.3945
  396MOL0     O54513   6.959   7.561   6.272 -0.4432  0.6873  0.4925
  396MOL0     C54514   6.840   7.537   6.330  0.8532 -1.0188  0.8385
  396MOL0     C54515   6.791   7.632   6.421  0.5819  0.0256 -1.6045
  396MOL0     C54516   6.679   7.603   6.506 -1.2648  0.5379 -0.0146
  396MOL0     C54517   6.605   7.488   6.488  0.5023 -0.4063  1.2534
  396MOL0     O54518   6.500   7.464   6.575  0.6187  0.8451 -1.1594
  396MOL0     C54519   6.370   7.441   6.516 -0.5597 -0.3565 -0.7450
  396MOL0     C54520   6.346   7.293   6.470  0.2551  0.3713  0.5988
  396MOL0     C54521   6.207   7.240   6.509 -0.1793  0.1094 -0.1074
  396MOL0     C54522   6.188   7.090   6.488  0.3614  0.9076  0.9174
  396MOL0     C54523   6.213   7.050   6.344 -0.8273 -0.6584  0.3291
  396MOL0     C54524   6.092   7.095   6.264  0.9912  0.3033  0.4075
  396MOL0     C54525   6.097   7.070   6.119 -0.2519 -0.1100 -0.2783
  396MOL0     C54526   5.973   7.124   6.042 -0.2782  0.1341 -0.5864
  396MOL0     N54527   5.975   7.271   6.058  0.8545  0.3382  0.6211
  396MOL0     C54528   6.055   7.359   5.987 -0.1159  0.2026  0.1956
  396MOL0     C54529   6.029   7.475   6.041  0.6513 -0.0100 -0.7920
  396MOL0     C54530   6.107   7.595   6.020  0.4289 -0.2590  0.3879
  396MOL0     C54531   6.243   7.589   6.087  0.4317  1.0472 -0.5344
  396MOL0     C54532   6.318   7.729   6.074  0.4052  1.4918 -0.4917
  396MOL0     C54533   6.444   7.738   6.155  0.2860  0.1681  0.8469
  396MOL0     O54534   6.402   7.733   6.290 -0.1396  0.0513  0.5753
  396MOL0     C54535   6.396   7.842   6.371 -0.0747 -0.2921 -0.2529
  396MOL0     C54536   6.425   7.973   6.330 -0.2641  0.2498  0.5307
  396MOL0     C54537   6.438   8.072   6.426 -0.1660 -0.2255  0.5910
  396MOL0     C54538   6.477   8.215   6.372  0.9470  0.3169  0.2079
  396MOL0     C54539   6.420   8.046   6.564 -0.2896  0.2910 -0.6924
  396MOL0     C54540   6.417   8.155   6.666  0.9019 -0.8098 -0.1097
  396MOL0     O54541   6.421   8.120   6.800  0.5156  0.3068  0.4845
  396MOL0     C54542   6.420   8.213   6.889 -0.4723 -0.2063  0.2733
  396MOL0     C54543   6.298   8.259   6.945  0.3130  0.8696  0.4340
  396MOL0     C54544   6.301   8.355   7.040 -0.7648  0.8598  0.3489
  396MOL0     C54545   6.422   8.415   7.074 -0.2504  1.4488  0.2938
  396MOL0     O54546   6.423   8.519   7.162 -0.0702 -0.4798  0.7528
  396MOL0     C54547   6.329   8.628   7.157 -0.7848  0.1994  0.9760
  396MOL0     C54548   6.389   8.770   7.121 -0.5632 -0.2003 -0.0577
  396MOL0     C54549   6.494   8.818   7.220 -0.5417  0.6210 -1.3601
  396MOL0     C54550   6.433   8.879   7.349 -0.6511  0.4081  0.2341
  396MOL0     C54551   6.532   8.890   7.468 -0.2345  0.0214  0.6751
  396MOL0     C54552   6.547   8.784   7.573  0.0176 -0.2929  0.2967
  396MOL0     C54553   6.602   8.659   7.526 -0.4495  0.1772 -0.3023
  396MOL0     C54554   6.675   8.581   7.641  0.3521  0.4655 -0.0208
  396MOL0    Cl54555   6.844   8.619   7.663  0.2454 -0.2079 -0.5989
  396MOL0     C54556   6.544   8.372   7.016  0.9121 -0.9109 -0.3793
  396MOL0     C54557   6.544   8.272   6.930 -0.3843  0.0224  0.1767
  396MOL0     O54558   6.408   8.270   6.625  0.2290 -0.1194  0.3850
  396MOL0     C54559   6.391   7.915   6.605 -0.5538 -0.4137 -0.3190
  396MOL0     C54560   6.392   7.809   6.509  0.1257 -0.6232 -0.5975
  396MOL0     N54561   5.924   7.459   6.142  0.3856 -0.3610 -0.1651
  396MOL0     N54562   5.893   7.338   6.144  0.8991 -0.2659  0.2632
  396MOL0     C54563   6.644   7.392   6.391 -0.3001  0.6576  0.0486
  396MOL0     C54564   6.754   7.425   6.308 -0.1697  0.2806  0.3957
  396MOL0     C54565   7.123   7.556   6.089  0.8974  0.7614  0.1932
  396MOL0     C54566   7.212   7.472   6.154  0.8656  0.7118 -1.0276
  396MOL0     C54567   7.335   7.450   6.105 -0.2186  0.8983 -0.0676
  396MOL0     C54568   7.387   7.500   5.982  1.6261  0.9823 -0.3744
  396MOL0     O54569   7.508   7.458   5.929  0.2764  0.3309  0.4699
  396MOL0     C54570   7.572   7.540   5.826  0.9332 -0.9178 -1.0074
  396MOL0     C54571   7.633   7.668   5.904  0.1170  0.6722 -0.1412
  396MOL0     C54572   7.722   7.626   6.022 -1.0923 -0.3536  0.3963
  396MOL0     C54573   7.681   7.689   6.156  0.0128 -0.5859  1.1050
  396MOL0     C54574   7.797   7.693   6.251  0.6756  0.8992 -0.1113
  396MOL0     C54575   7.891   7.709   6.321 -0.6743 -0.8519 -0.3801
  396MOL0     C54576   7.297   7.592   5.924  0.7594  0.1630 -0.0804
  396MOL0     C54577   7.161   7.609   5.968  0.1466  0.4617 -1.5184
  396MOL0     C54578   7.082   7.708   5.876 -0.4394  0.3923 -0.3399
  396MOL0     H54579   6.851   7.720   6.439  2.3398 -1.4623  0.2534
  396MOL0     H54580   6.667   7.679   6.584 -2.4384  1.5170 -1.0997
  396MOL0     H54581   6.347   7.509   6.433 -4.0768 -2.1827 -1.4405
  396MOL0     H54582   6.292   7.461   6.589  0.7889 -0.6997  0.8311
  396MOL0     H54583   6.351   7.291   6.361 -0.7590  1.6805  0.5146
  396MOL0     H54584   6.420   7.219   6.504 -0.1961 -2.5507 -3.9511
  396MOL0     H54585   6.178   7.263   6.612 -1.5441 -4.1746  0.6716
  396MOL0     H54586   6.139   7.299   6.447  0.3997  2.5164  1.4033
  396MOL0     H54587   6.249   7.042   6.565 -0.0436 -1.4797 -0.1486
  396MOL0     H54588   6.082   7.069   6.504  0.2474 -0.6765 -1.3954
  396MOL0     H54589   6.227   6.942   6.336 -2.0859 -0.9118  1.2362
  396MOL0     H54590   6.301   7.096   6.297 -2.3786  2.8860  0.5458
  396MOL0     H54591   5.995   7.067   6.305 -0.3570 -0.4913 -3.0186
  396MOL0     H54592   6.087   7.205   6.270 -0.7212  0.6934 -4.4068
  396MOL0     H54593   6.115   6.963   6.107 -1.4978  0.0013 -5.1659
  396MOL0     H54594   6.189   7.120   6.085 -2.0652  2.5860 -1.5951
  396MOL0     H54595   5.976   7.091   5.937  1.2633 -0.0200 -0.5237
  396MOL0     H54596   5.881   7.077   6.078  0.8814 -3.0248 -1.4211
  396MOL0     H54597   6.119   7.342   5.901 -1.2660 -0.0425 -0.6376
  396MOL0     H54598   6.047   7.681   6.051 -1.0380 -0.7944 -0.8275
  396MOL0     H54599   6.136   7.604   5.915  2.5480 -1.2920  0.8436
  396MOL0     H54600   6.240   7.560   6.193 -0.4939 -1.8112 -1.2324
  396MOL0     H54601   6.293   7.511   6.028 -1.3574 -1.1323  0.6422
  396MOL0     H54602   6.351   7.752   5.972  0.6034  0.6387 -0.6304
  396MOL0     H54603   6.256   7.808   6.117 -0.2331 -0.0233  1.5031
  396MOL0     H54604   6.524   7.672   6.122  1.1972  2.5480 -2.0512
  396MOL0     H54605   6.485   7.837   6.136 -2.7402  1.4261  0.3170
  396MOL0     H54606   6.435   8.004   6.227 -1.6453  5.3511  1.6696
  396MOL0     H54607   6.545   8.257   6.446 -0.3571  0.0758  1.5942
  396MOL0     H54608   6.394   8.282   6.350  1.3472  0.5035 -0.8105
  396MOL0     H54609   6.532   8.196   6.279  0.0504  3.1688 -1.0092
  396MOL0     H54610   6.201   8.215   6.924 -0.5448  3.8383 -2.7414
  396MOL0     H54611   6.208   8.383   7.088  1.9639  2.5529  5.4455
  396MOL0     H54612   6.233   8.600   7.112 -0.7265 -1.0565  1.6027
  396MOL0     H54613   6.309   8.649   7.262  0.2332  3.1344  0.6824
  396MOL0     H54614   6.446   8.763   7.029 -2.0507  0.1790 -1.0457
  396MOL0     H54615   6.311   8.846   7.109  0.2752  0.9168  1.2629
  396MOL0     H54616   6.554   8.899   7.178 -0.7069  0.1786 -2.4974
  396MOL0     H54617   6.565   8.736   7.238 -0.4741  1.2974  2.1432
  396MOL0     H54618   6.340   8.833   7.384  0.2393 -1.3629  0.3604
  396MOL0     H54619   6.405   8.980   7.316 -0.7339  0.3765  0.2058
  396MOL0     H54620   6.633   8.911   7.431  0.1035 -1.6432  0.5878
  396MOL0     H54621   6.491   8.978   7.519 -0.1570  0.5261 -0.1243
  396MOL0     H54622   6.456   8.767   7.631  2.0158 -1.1899  3.4271
  396MOL0     H54623   6.607   8.842   7.645 -2.3041  2.4102  0.2262
  396MOL0     H54624   6.670   8.659   7.440  0.1565 -4.2783 -0.0267
  396MOL0     H54625   6.509   8.615   7.491 -1.6600  1.8280  0.6873
  396MOL0     H54626   6.684   8.475   7.613  1.6714  0.5433  0.0575
  396MOL0     H54627   6.615   8.593   7.731 -0.3608  0.6528 -0.5120
  396MOL0     H54628   6.625   8.436   7.048  1.1620  0.1980 -3.0074
  396MOL0     H54629   6.642   8.248   6.891 -0.3084  2.3514 -1.2003
  396MOL0     H54630   6.378   7.893   6.711  3.1314  1.4661  0.7070
  396MOL0     H54631   6.381   7.707   6.543  0.0032 -1.1071 -2.0204
  396MOL0     H54632   6.587   7.299   6.385  0.5270  0.2451 -2.5457
  396MOL0     H54633   6.782   7.353   6.231  1.0639  1.1577  0.0059
  396MOL0     H54634   7.189   7.411   6.241 -0.1474 -1.0927 -2.4956
  396MOL0     H54635   7.393   7.378   6.161 -1.5290 -1.4625 -1.5699
  396MOL0     H54636   7.640   7.467   5.781 -1.2142 -4.6861  1.3104
  396MOL0     H54637   7.494   7.572   5.756 -1.3018  0.5451  1.8957
  396MOL0     H54638   7.548   7.724   5.944 -0.5917 -0.3523 -0.1578
  396MOL0     H54639   7.682   7.734   5.833 -0.8321  0.3972 -1.0830
  396MOL0     H54640   7.733   7.517   6.023  3.3794 -0.1176 -1.0719
  396MOL0     H54641   7.822   7.661   5.995 -1.9649 -0.2011 -3.1489
  396MOL0     H54642   7.590   7.651   6.203 -1.9574  2.9709  0.5466
  396MOL0     H54643   7.681   7.795   6.126  0.9060 -0.9229 -0.1302
  396MOL0     H54644   7.985   7.712   6.373 -0.7813  6.3764  0.5324
  396MOL0     H54645   7.326   7.661   5.845 -0.0127  3.2612  2.1499
  396MOL0     H54646   7.148   7.785   5.836  1.3014  0.1893  1.9434
  396MOL0     H54647   7.028   7.658   5.795  0.6451  2.9353 -2.7776
  396MOL0     H54648   7.007   7.757   5.939 -0.1076 -1.0307  1.2632
  397MOL0     O54649   4.418   5.622   5.210 -0.5821  0.4764  0.2192
  397MOL0     C54650   4.316   5.641   5.145  0.4944 -0.0923 -0.8413
  397MOL0     O54651   4.281   5.587   5.028  0.5112  0.8639  0.4389
  397MOL0     C54652   4.358   5.489   4.981  0.4699 -0.0091 -0.3168
  397MOL0     C54653   4.390   5.371   5.043  0.9416 -0.4425 -0.4937
  397MOL0     C54654   4.456   5.269   4.973 -0.0060 -0.1899  0.4511
  397MOL0     C54655   4.475   5.278   4.835 -0.5882 -0.3107 -0.5891
  397MOL0     O54656   4.521   5.169   4.754  0.0113 -0.2456 -0.0316
  397MOL0     C54657   4.600   5.070   4.815  0.1856  0.5238 -0.1492
  397MOL0     C54658   4.695   5.008   4.716  0.1098  0.6644 -0.5494
  397MOL0     C54659   4.806   5.093   4.663  0.1434 -0.2643 -0.4429
  397MOL0     C54660   4.935   5.032   4.635  0.0413  0.1754  0.5713
  397MOL0     C54661   4.933   4.954   4.501  0.2388  0.6609 -0.2272
  397MOL0     C54662   5.049   4.854   4.509 -0.4779  0.1909  0.2615
  397MOL0     C54663   5.033   4.767   4.395 -0.6358  0.1206 -0.0155
  397MOL0     C54664   5.139   4.658   4.396  0.2788  0.0554  0.5344
  397MOL0     N54665   5.148   4.577   4.277  0.8826  0.0403 -0.2706
  397MOL0     C54666   5.102   4.612   4.150 -0.6297 -0.5556  0.0369
  397MOL0     C54667   5.118   4.504   4.068 -0.1538 -0.4025 -0.4221
  397MOL0     C54668   5.078   4.489   3.925  0.2531 -0.6066  0.5480
  397MOL0     C54669   4.965   4.386   3.930  0.0578 -0.1545  0.3523
  397MOL0     C54670   4.834   4.453   3.974  0.1656 -0.5171 -0.4554
  397MOL0     C54671   4.718   4.348   3.954  0.3839  0.4949 -0.4573
  397MOL0     O54672   4.593   4.412   3.965 -0.4819 -0.5382  0.6186
  397MOL0     C54673   4.482   4.331   3.985  0.4158 -0.2636  0.5597
  397MOL0     C54674   4.430   4.246   3.891 -1.0746  0.0879  0.1611
  397MOL0     C54675   4.325   4.162   3.915  0.0316 -0.2313  0.2739
  397MOL0     C54676   4.270   4.084   3.800  0.2587 -0.1718  0.2111
  397MOL0     C54677   4.254   4.171   4.041  0.0385 -0.8650  0.8745
  397MOL0     C54678   4.132   4.100   4.085  0.0354  0.7320  0.2034
  397MOL0     O54679   4.117   3.978   4.032 -0.2736  0.2836 -0.3538
  397MOL0     C54680   4.035   3.896   4.094 -0.1541  0.0508  0.2859
  397MOL0     C54681   3.917   3.890   4.026 -0.0167 -0.5747 -0.0452
  397MOL0     C54682   3.813   3.797   4.062  0.0213  0.7932  0.2580
  397MOL0     C54683   3.843   3.726   4.183  0.3512  0.9048 -1.1580
  397MOL0     O54684   3.742   3.648   4.245 -0.2508 -0.3897  0.2208
  397MOL0     C54685   3.633   3.723   4.298  0.1316 -0.7496 -0.0206
  397MOL0     C54686   3.523   3.637   4.347 -0.3391 -0.7656 -0.0352
  397MOL0     C54687   3.553   3.551   4.464 -0.2359 -0.0357 -0.4682
  397MOL0     C54688   3.603   3.621   4.589  0.1151 -0.2726  0.1721
  397MOL0     C54689   3.563   3.547   4.707  1.2018  0.1510 -0.5520
  397MOL0     C54690   3.647   3.573   4.834  0.1867  0.3250  0.0230
  397MOL0     C54691   3.591   3.494   4.950 -0.1597 -0.0624  0.3982
  397MOL0     C54692   3.688   3.406   5.031  0.0447  0.8621 -0.3259
  397MOL0    Cl54693   3.733   3.244   4.948 -0.8140  0.3203 -0.2706
  397MOL0     C54694   3.962   3.736   4.256  0.2763  0.3476  0.6357
  397MOL0     C54695   4.063   3.814   4.209  0.4489  0.1119  0.2693
  397MOL0     O54696   4.043   4.166   4.139  0.1033  0.3774 -0.3615
  397MOL0     C54697   4.308   4.262   4.137 -0.1323  0.5973  0.0640
  397MOL0     C54698   4.424   4.342   4.102 -0.5610 -0.2757 -0.4676
  397MOL0     N54699   5.169   4.400   4.147  0.2678 -0.4965  1.1169
  397MOL0     N54700   5.192   4.451   4.263  0.8108  0.2361 -0.4576
  397MOL0     C54701   4.439   5.400   4.770  0.6218  0.6090  0.3299
  397MOL0     C54702   4.392   5.506   4.852 -0.6428  0.5439  0.2848
  397MOL0     C54703   4.226   5.745   5.205  0.7013  0.2475 -0.6507
  397MOL0     C54704   4.278   5.844   5.287  1.1159 -0.2167  0.3250
  397MOL0     C54705   4.191   5.941   5.337 -0.9411 -0.6148  0.6549
  397MOL0     C54706   4.057   5.949   5.304 -0.8132 -0.1471 -0.1561
  397MOL0     O54707   3.981   6.046   5.365  0.4690  0.2046 -0.5631
  397MOL0     C54708   3.934   6.134   5.261  0.1094  0.0282  0.1317
  397MOL0     C54709   3.919   6.279   5.306 -0.1317 -0.2772 -0.5750
  397MOL0     C54710   3.832   6.368   5.211 -0.5460 -0.4787 -0.3595
  397MOL0     C54711   3.797   6.503   5.274 -0.8494  0.0474 -1.0215
  397MOL0     C54712   3.712   6.595   5.191 -1.3731 -1.0126  0.0878
  397MOL0     C54713   3.631   6.664   5.143  0.3239 -0.2874  0.7040
  397MOL0     C54714   4.007   5.845   5.229  0.5681  0.5480  0.2616
  397MOL0     C54715   4.085   5.741   5.180  0.3561  0.1766 -0.1586
  397MOL0     C54716   4.015   5.623   5.118 -0.3227 -0.4301 -0.4537
  397MOL0     H54717   4.368   5.342   5.145  2.3529 -1.2261 -0.3904
  397MOL0     H54718   4.484   5.180   5.029 -0.7436 -3.7545 -4.2434
  397MOL0     H54719   4.537   4.990   4.854  0.8352 -0.3370 -0.8186
  397MOL0     H54720   4.660   5.107   4.898 -0.1955  1.3216 -0.2212
  397MOL0     H54721   4.748   4.927   4.767  2.9059  3.9655  2.3192
  397MOL0     H54722   4.645   4.967   4.628  0.2553  0.9942 -0.7890
  397MOL0     H54723   4.769   5.163   4.588  0.0305  2.5599  2.0558
  397MOL0     H54724   4.821   5.165   4.744 -0.2621 -0.1111 -0.4991
  397MOL0     H54725   5.000   5.119   4.629 -0.1544  0.3928  1.4716
  397MOL0     H54726   4.976   4.971   4.716  0.3066  0.6749  0.8185
  397MOL0     H54727   4.934   5.014   4.410 -0.5695  0.1362 -0.5908
  397MOL0     H54728   4.840   4.898   4.492 -1.1557  3.1492 -2.4438
  397MOL0     H54729   5.151   4.892   4.513 -1.0230  1.6252  1.8045
  397MOL0     H54730   5.035   4.806   4.606  1.0900  2.9048  1.9560
  397MOL0     H54731   5.053   4.833   4.310 -2.0321  1.4413  0.6548
  397MOL0     H54732   4.945   4.702   4.389 -0.7041 -0.1374  2.7448
  397MOL0     H54733   5.235   4.711   4.394  0.2430  0.0854 -0.6797
  397MOL0     H54734   5.119   4.591   4.480  3.9095 -0.0631  1.4778
  397MOL0     H54735   5.060   4.706   4.116 -1.8071 -0.7388  0.9136
  397MOL0     H54736   5.156   4.441   3.866  0.3501  0.0603  0.1211
  397MOL0     H54737   5.054   4.582   3.872 -1.5260 -1.7753 -0.8146
  397MOL0     H54738   4.955   4.351   3.827 -0.4617 -1.2313  0.7594
  397MOL0     H54739   4.988   4.300   3.992 -0.2816 -1.1701 -0.8879
  397MOL0     H54740   4.841   4.488   4.077  0.6366  0.4404 -0.8030
  397MOL0     H54741   4.800   4.539   3.916 -1.6811  0.8641  2.4188
  397MOL0     H54742   4.719   4.310   3.851 -2.3607 -2.0094  0.2742
  397MOL0     H54743   4.723   4.254   4.008 -3.5257  0.5467  0.3172
  397MOL0     H54744   4.471   4.258   3.792 -1.2497  0.6971  0.1599
  397MOL0     H54745   4.169   4.116   3.773  0.6250  1.2609  0.4523
  397MOL0     H54746   4.268   3.978   3.827  0.4618 -0.5319 -1.1045
  397MOL0     H54747   4.324   4.095   3.705 -0.4887 -1.8467 -0.4518
  397MOL0     H54748   3.897   3.952   3.939 -2.0891 -1.1137 -0.0241
  397MOL0     H54749   3.719   3.782   4.009  0.2182  2.4152 -0.6038
  397MOL0     H54750   3.668   3.794   4.373 -1.8843 -2.1502  2.3971
  397MOL0     H54751   3.576   3.774   4.220 -1.8531 -0.6663  1.4261
  397MOL0     H54752   3.439   3.701   4.375 -0.0259 -1.1756  2.0733
  397MOL0     H54753   3.498   3.578   4.259  2.7298  0.2336 -1.7316
  397MOL0     H54754   3.618   3.466   4.444  0.7490  0.4647  0.4906
  397MOL0     H54755   3.457   3.502   4.484 -0.4945  0.9362  0.8139
  397MOL0     H54756   3.544   3.713   4.582 -2.9330 -1.7796  3.1202
  397MOL0     H54757   3.710   3.638   4.600 -0.2418  0.6817  2.7835
  397MOL0     H54758   3.456   3.563   4.725  0.5687 -0.5542 -3.2392
  397MOL0     H54759   3.559   3.444   4.669  0.7121 -0.0615  0.0595
  397MOL0     H54760   3.661   3.680   4.852 -0.4107  0.8916 -2.4754
  397MOL0     H54761   3.748   3.534   4.819  0.2690  0.1235  1.0024
  397MOL0     H54762   3.512   3.428   4.916  0.4416 -0.4589 -0.2501
  397MOL0     H54763   3.546   3.568   5.017 -1.5285 -0.8934  0.4219
  397MOL0     H54764   3.654   3.401   5.135  1.0713 -1.5951 -0.0441
  397MOL0     H54765   3.788   3.451   5.041  0.0668  0.5773  0.9404
  397MOL0     H54766   3.972   3.693   4.355  0.5042 -2.0520 -0.3734
  397MOL0     H54767   4.157   3.827   4.262  1.0741 -0.0898 -0.7479
  397MOL0     H54768   4.258   4.277   4.233 -2.6407 -1.0403 -0.8665
  397MOL0     H54769   4.460   4.414   4.176  3.3505  0.7443 -3.0343
  397MOL0     H54770   4.457   5.415   4.664  3.0310  0.5154  0.6876
  397MOL0     H54771   4.366   5.604   4.815 -0.8349 -0.4602 -2.4750
  397MOL0     H54772   4.385   5.855   5.303  0.9045  2.4250  0.3387
  397MOL0     H54773   4.241   6.025   5.384  2.4983 -2.8966  1.4558
  397MOL0     H54774   3.990   6.133   5.167 -0.9721  1.4762 -0.5647
  397MOL0     H54775   3.831   6.108   5.235  0.0241 -0.5821  1.0067
  397MOL0     H54776   4.020   6.321   5.311 -0.9447  1.7367  3.3431
  397MOL0     H54777   3.876   6.278   5.407  0.6420 -0.7093 -0.2476
  397MOL0     H54778   3.867   6.382   5.108  2.5569  0.5435  0.7144
  397MOL0     H54779   3.734   6.321   5.197 -0.3925 -0.5166 -1.4298
  397MOL0     H54780   3.885   6.567   5.280 -0.3801 -0.5128 -1.7667
  397MOL0     H54781   3.747   6.490   5.371  0.6585 -2.5987 -0.4944
  397MOL0     H54782   3.561   6.734   5.102 -0.7630  0.7849  4.0825
  397MOL0     H54783   3.899   5.836   5.242  0.4803 -3.1033 -1.7096
  397MOL0     H54784   4.039   5.624   5.011 -0.2002  2.1783 -0.4792
  397MOL0     H54785   4.046   5.533   5.171 -1.3630 -0.2941  0.4112
  397MOL0     H54786   3.908   5.636   5.137  0.1753 -0.9434  3.3783
  398MOL0     O54787   9.157   8.023   2.025 -0.0748  0.7339  0.0478
  398MOL0     C54788   9.097   8.107   1.960  0.0141 -0.0641  0.3134
  398MOL0     O54789   9.157   8.180   1.863 -0.3634 -0.5428  0.2519
  398MOL0     C54790   9.288   8.155   1.815 -0.4372  0.6155 -0.3414
  398MOL0     C54791   9.394   8.132   1.899 -0.0573 -0.2500  0.3493
  398MOL0     C54792   9.517   8.076   1.853 -0.0083  1.3350 -0.5772
  398MOL0     C54793   9.529   8.044   1.714 -0.0947  0.6865 -0.6344
  398MOL0     O54794   9.634   7.990   1.640  0.4922 -0.0177  0.4447
  398MOL0     C54795   9.723   7.909   1.703 -0.1895 -0.3163  0.5337
  398MOL0     C54796   9.663   7.790   1.783 -0.6150  0.2382  0.4713
  398MOL0     C54797   9.782   7.698   1.806  1.3001  0.3129 -0.0028
  398MOL0     C54798   9.759   7.562   1.880  1.2414  0.1387  0.2782
  398MOL0     C54799   9.676   7.461   1.805  0.2853 -0.0644  0.1493
  398MOL0     C54800   9.708   7.318   1.846 -0.0110  0.0913  0.3575
  398MOL0     C54801   9.841   7.267   1.801  0.8145  1.0673  0.3721
  398MOL0     C54802   9.882   7.153   1.886 -0.1954 -0.5131 -0.3655
  398MOL0     N54803   9.806   7.033   1.859  0.4433 -0.0169  0.4537
  398MOL0     C54804   9.841   6.943   1.760 -0.2118 -0.4036  0.4781
  398MOL0     C54805   9.739   6.852   1.764 -0.7674  0.1914 -0.3961
  398MOL0     C54806   9.715   6.745   1.663  0.6312  0.1849  0.5684
  398MOL0     C54807   9.832   6.661   1.620  0.6958 -0.4548 -0.7932
  398MOL0     C54808   9.891   6.581   1.744  0.3824  0.0655 -0.6112
  398MOL0     C54809  10.009   6.490   1.709  0.7082  0.8387  0.0630
  398MOL0     O54810   9.964   6.362   1.661  1.1520  0.2813  0.2727
  398MOL0     C54811  10.001   6.244   1.717 -0.3729 -0.1143 -0.4965
  398MOL0     C54812  10.139   6.225   1.763 -0.5977 -0.6884  0.1878
  398MOL0     C54813  10.187   6.108   1.825  0.2440 -0.8746 -0.0019
  398MOL0     C54814  10.337   6.110   1.850 -0.4921  1.2718 -0.1481
  398MOL0     C54815  10.084   6.008   1.855  0.2303 -0.5590 -0.5737
  398MOL0     C54816  10.114   5.890   1.943  0.4239 -0.3581 -0.5835
  398MOL0     O54817  10.005   5.827   1.995 -0.0630 -0.3071 -0.1101
  398MOL0     C54818  10.021   5.715   2.073 -0.5829  1.0071 -0.4692
  398MOL0     C54819   9.932   5.701   2.181 -0.2212 -0.0281  0.1575
  398MOL0     C54820   9.921   5.576   2.252 -0.8715 -0.8028 -0.6742
  398MOL0     C54821  10.002   5.467   2.214  0.5889  0.7415  0.1762
  398MOL0     O54822   9.998   5.341   2.272 -0.1322 -0.1376 -0.8425
  398MOL0     C54823   9.859   5.285   2.281 -0.1389 -0.1006 -0.3729
  398MOL0     C54824   9.854   5.133   2.246 -0.2569 -0.3173 -0.1894
  398MOL0     C54825   9.944   5.064   2.347 -0.4591 -0.0627 -0.9147
  398MOL0     C54826   9.890   4.927   2.379  0.6575  1.0637 -0.5352
  398MOL0     C54827   9.775   4.937   2.479  0.0676  0.3308 -1.1970
  398MOL0     C54828   9.704   4.801   2.506  0.8504 -0.1355 -0.2266
  398MOL0     C54829   9.609   4.799   2.628  0.0332  0.8702  0.0174
  398MOL0     C54830   9.556   4.661   2.678 -0.0447 -0.1725 -0.0239
  398MOL0    Cl54831   9.456   4.687   2.825 -0.3632  0.4766 -0.1104
  398MOL0     C54832  10.101   5.483   2.114 -0.0739 -0.0532 -0.5030
  398MOL0     C54833  10.112   5.603   2.043  0.0314 -0.9418 -0.2632
  398MOL0     O54834  10.228   5.845   1.946 -0.0194 -0.0890 -0.2652
  398MOL0     C54835   9.947   6.030   1.822  0.2096 -0.0463 -0.4059
  398MOL0     C54836   9.907   6.142   1.747 -0.0225  0.0823  0.3633
  398MOL0     N54837   9.652   6.889   1.867 -0.6106 -0.6552  0.3161
  398MOL0     N54838   9.702   6.987   1.930 -0.6548  1.0705  0.1375
  398MOL0     C54839   9.418   8.077   1.631  0.7558 -0.1922  0.7841
  398MOL0     C54840   9.297   8.126   1.676 -1.0310 -0.7948  0.1186
  398MOL0     C54841   8.961   8.149   2.005  0.2682 -0.5777  0.7938
  398MOL0     C54842   8.908   8.260   1.932  0.5420 -0.5741 -0.1972
  398MOL0     C54843   8.770   8.302   1.971  0.6329  0.5469  0.0501
  398MOL0     C54844   8.690   8.229   2.060  0.0609  0.4298  1.0261
  398MOL0     O54845   8.557   8.259   2.087  0.1054  1.8175  0.4615
  398MOL0     C54846   8.492   8.378   2.051  0.4440 -0.6276  0.0906
  398MOL0     C54847   8.507   8.479   2.169  0.1061 -0.4350  0.1002
  398MOL0     C54848   8.434   8.609   2.143  0.6719  1.0606 -0.0827
  398MOL0     C54849   8.471   8.718   2.246 -0.9295 -0.1223  0.2897
  398MOL0     C54850   8.469   8.847   2.180 -0.3026 -0.7715 -0.4063
  398MOL0     C54851   8.468   8.962   2.134  0.6375  0.0734  0.0271
  398MOL0     C54852   8.743   8.125   2.124 -0.9971  0.6753  0.2336
  398MOL0     C54853   8.879   8.081   2.103 -0.4971  0.3126  0.5547
  398MOL0     C54854   8.921   7.963   2.183  0.2086 -1.0337  0.4660
  398MOL0     H54855   9.378   8.156   2.003  1.7501 -1.1672  0.8854
  398MOL0     H54856   9.591   8.055   1.929 -0.4990 -0.6123 -0.5755
  398MOL0     H54857   9.787   7.977   1.760  0.1043 -0.3830  0.2855
  398MOL0     H54858   9.792   7.875   1.625  1.7746 -0.2791  2.1717
  398MOL0     H54859   9.612   7.801   1.879 -2.2406  1.3836 -0.4696
  398MOL0     H54860   9.593   7.732   1.722  1.1635 -1.9361  0.3562
  398MOL0     H54861   9.817   7.664   1.708  1.9076 -0.6396  0.5316
  398MOL0     H54862   9.872   7.747   1.845  0.9973  3.1638 -2.5213
  398MOL0     H54863   9.859   7.517   1.879  1.1015 -0.4382 -3.8079
  398MOL0     H54864   9.740   7.571   1.988  0.9889 -2.5020  0.5220
  398MOL0     H54865   9.684   7.473   1.696  0.5626  2.5996  0.4002
  398MOL0     H54866   9.571   7.471   1.833  0.0433 -0.0702 -0.7140
  398MOL0     H54867   9.706   7.316   1.955  0.8552 -0.9516  0.3779
  398MOL0     H54868   9.637   7.243   1.811  2.5627 -1.8578 -1.0226
  398MOL0     H54869   9.916   7.346   1.795 -1.3707  3.5548  2.8348
  398MOL0     H54870   9.826   7.227   1.700 -0.4746 -0.9462  1.2965
  398MOL0     H54871   9.989   7.136   1.871  0.8255  2.2222  2.7923
  398MOL0     H54872   9.865   7.171   1.992  0.8232 -1.9198  0.0673
  398MOL0     H54873   9.918   6.951   1.683  1.2497  0.0978  1.9409
  398MOL0     H54874   9.677   6.799   1.576  0.3868 -0.6786  0.1292
  398MOL0     H54875   9.643   6.669   1.693 -0.4154 -0.3401 -2.9340
  398MOL0     H54876   9.793   6.583   1.553 -1.8910  0.0119  0.0425
  398MOL0     H54877   9.903   6.728   1.570 -1.1733  0.4062 -2.4154
  398MOL0     H54878   9.935   6.657   1.810  0.7201  0.3236 -1.1261
  398MOL0     H54879   9.820   6.525   1.806 -0.4965  4.0682  2.5131
  398MOL0     H54880  10.083   6.537   1.644 -0.0680 -1.6956 -2.8847
  398MOL0     H54881  10.068   6.459   1.796 -1.0681 -0.4818  0.8630
  398MOL0     H54882  10.201   6.312   1.746  1.0608 -1.4197  2.2140
  398MOL0     H54883  10.391   6.167   1.773  2.7896 -0.0721  0.9635
  398MOL0     H54884  10.369   6.007   1.833 -0.0031  1.3861  0.0424
  398MOL0     H54885  10.360   6.150   1.949  0.0798  1.5374 -0.3833
  398MOL0     H54886   9.870   5.783   2.213  0.2438 -0.3801  2.0614
  398MOL0     H54887   9.844   5.556   2.327 -2.5788  0.0081 -2.1385
  398MOL0     H54888   9.826   5.298   2.385  0.0550  2.1704 -0.5483
  398MOL0     H54889   9.784   5.338   2.222 -1.7892 -0.5089  1.2793
  398MOL0     H54890   9.752   5.098   2.236 -0.3167 -1.0445  2.3023
  398MOL0     H54891   9.902   5.133   2.147  2.7086 -0.7038  1.1180
  398MOL0     H54892   9.959   5.129   2.433  1.5642  2.5062 -3.0441
  398MOL0     H54893  10.050   5.056   2.319 -0.4075  1.3280 -1.1884
  398MOL0     H54894   9.974   4.875   2.425 -1.2517 -0.1625  1.8356
  398MOL0     H54895   9.858   4.869   2.291  1.4471 -0.7360  0.3020
  398MOL0     H54896   9.816   4.969   2.575  0.3336 -1.0206 -0.8406
  398MOL0     H54897   9.694   5.008   2.458  1.2581  2.0784 -0.0888
  398MOL0     H54898   9.779   4.727   2.535  0.6482  0.3588  1.6783
  398MOL0     H54899   9.655   4.761   2.417 -2.0623  0.0903  1.1715
  398MOL0     H54900   9.515   4.848   2.601 -0.0827 -0.0388 -1.3640
  398MOL0     H54901   9.664   4.839   2.713  0.0038  0.0373  0.4355
  398MOL0     H54902   9.644   4.599   2.700  1.2674  1.7015  0.2396
  398MOL0     H54903   9.502   4.615   2.594  0.6116  0.8232 -1.0169
  398MOL0     H54904  10.172   5.404   2.092 -0.0942 -1.1551  2.8199
  398MOL0     H54905  10.191   5.612   1.969 -0.3972  0.1203 -0.6159
  398MOL0     H54906   9.872   5.953   1.837  1.1558 -0.8011  0.6425
  398MOL0     H54907   9.802   6.156   1.722 -0.4086 -1.1256  1.2219
  398MOL0     H54908   9.414   8.046   1.527 -1.0551 -1.9906  1.3361
  398MOL0     H54909   9.201   8.129   1.624 -1.7777  0.1480  1.4996
  398MOL0     H54910   8.956   8.324   1.859  0.7604  0.2201  0.6175
  398MOL0     H54911   8.717   8.378   1.915 -0.1236  0.5279  0.7180
  398MOL0     H54912   8.524   8.438   1.965 -0.8583  3.6919  2.3559
  398MOL0     H54913   8.386   8.353   2.049  0.1425  0.2211  2.4061
  398MOL0     H54914   8.612   8.493   2.195 -0.5294  1.1260  2.0335
  398MOL0     H54915   8.460   8.445   2.262 -1.3503  1.6182  0.1692
  398MOL0     H54916   8.465   8.644   2.044 -0.3927 -1.1371 -1.2750
  398MOL0     H54917   8.325   8.598   2.146  0.7164 -0.2690 -1.7290
  398MOL0     H54918   8.571   8.706   2.288 -1.1000  1.6586  1.3143
  398MOL0     H54919   8.395   8.713   2.324 -0.2629  1.0029  1.0329
  398MOL0     H54920   8.480   9.066   2.110 -0.2434  0.7924  2.3732
  398MOL0     H54921   8.677   8.078   2.196 -2.4775  3.5541  0.9312
  398MOL0     H54922   8.830   7.902   2.191 -1.6481  1.2249 -1.7863
  398MOL0     H54923   8.986   7.896   2.125 -0.1967  0.5055 -1.9237
  398MOL0     H54924   8.964   8.006   2.274  0.6849  0.8811 -0.6186
  399MOL0     O54925   7.792   5.177  10.775  0.0646 -0.5114  0.6207
  399MOL0     C54926   7.880   5.254  10.730 -0.3257  0.0569  0.0721
  399MOL0     O54927   8.020   5.226  10.736 -0.0109  0.1663  0.5346
  399MOL0     C54928   8.068   5.123  10.818  0.0147  0.4754  0.4985
  399MOL0     C54929   8.016   4.990  10.816 -0.3933 -0.6672 -0.8643
  399MOL0     C54930   8.072   4.897  10.903 -0.5590 -0.0531  0.2521
  399MOL0     C54931   8.167   4.944  11.000  0.3440  1.0980  0.4716
  399MOL0     O54932   8.224   4.858  11.091  0.2034 -0.1437 -0.1486
  399MOL0     C54933   8.135   4.836  11.209 -0.2591  0.4768 -0.0618
  399MOL0     C54934   8.190   4.726  11.292 -0.2200 -0.0528  0.6152
  399MOL0     C54935   8.179   4.588  11.213  1.1327  0.0332  0.5719
  399MOL0     C54936   8.259   4.475  11.280 -0.1235 -0.6404 -0.7855
  399MOL0     C54937   8.256   4.344  11.207 -0.3548 -0.1763 -0.2810
  399MOL0     C54938   8.120   4.265  11.214 -0.0137  1.0311  0.1719
  399MOL0     C54939   8.136   4.142  11.117  0.0024  0.1578 -0.1993
  399MOL0     C54940   8.015   4.053  11.134  0.8067  0.5366  0.6817
  399MOL0     N54941   8.032   3.921  11.084  0.0531  0.0225  0.3615
  399MOL0     C54942   7.961   3.847  10.994 -0.5265  0.2977  0.4078
  399MOL0     C54943   8.025   3.729  10.996 -0.9135 -0.3690  0.0389
  399MOL0     C54944   7.991   3.615  10.900  0.7112 -0.3861 -0.3174
  399MOL0     C54945   8.063   3.644  10.762  1.2579  0.4495 -0.3412
  399MOL0     C54946   8.061   3.526  10.664  0.4541  0.6178  0.1533
  399MOL0     C54947   8.172   3.553  10.560  0.0047 -0.3436 -0.6337
  399MOL0     O54948   8.162   3.449  10.458  0.2150  0.4134  0.7471
  399MOL0     C54949   8.213   3.480  10.326  0.6996 -0.3942 -0.2032
  399MOL0     C54950   8.300   3.588  10.313 -0.2197 -0.9845  0.4251
  399MOL0     C54951   8.342   3.635  10.189  0.0507 -0.6640 -0.4638
  399MOL0     C54952   8.448   3.750  10.192 -0.5357  0.2087  0.3668
  399MOL0     C54953   8.321   3.549  10.074 -0.4732 -0.7010 -0.3006
  399MOL0     C54954   8.363   3.566   9.932 -0.3174  0.4606 -0.8915
  399MOL0     O54955   8.328   3.462   9.849  0.2745 -0.2187  0.5208
  399MOL0     C54956   8.403   3.453   9.728 -0.1053  0.0673 -0.3938
  399MOL0     C54957   8.331   3.441   9.607 -0.0863  0.2315  0.2425
  399MOL0     C54958   8.402   3.430   9.483 -0.0567 -0.3483 -0.3734
  399MOL0     C54959   8.540   3.434   9.477 -0.1642 -0.6748 -1.4217
  399MOL0     O54960   8.615   3.402   9.366  0.2695 -0.3805  0.7320
  399MOL0     C54961   8.564   3.391   9.237  0.6479 -0.0090 -0.7029
  399MOL0     C54962   8.663   3.328   9.144 -0.3851  0.5919 -0.1309
  399MOL0     C54963   8.798   3.400   9.143 -0.0948  0.1399 -0.6789
  399MOL0     C54964   8.913   3.313   9.102  0.7085  0.2991  0.8078
  399MOL0     C54965   9.030   3.401   9.075 -0.1191 -0.4967  0.2512
  399MOL0     C54966   9.150   3.335   9.011  0.2606 -0.3967 -0.1747
  399MOL0     C54967   9.231   3.249   9.101 -0.8345 -0.4390 -0.3456
  399MOL0     C54968   9.341   3.181   9.023 -1.0550  0.1483  0.2355
  399MOL0    Cl54969   9.408   3.044   9.131  0.2507 -0.1343 -0.0028
  399MOL0     C54970   8.608   3.460   9.598 -0.5910 -0.1358  0.2887
  399MOL0     C54971   8.541   3.453   9.720  1.1526  0.4360 -0.3372
  399MOL0     O54972   8.431   3.662   9.891 -0.4315  0.0675 -0.3914
  399MOL0     C54973   8.225   3.450  10.085  0.1438 -0.4015  0.8001
  399MOL0     C54974   8.167   3.419  10.205 -0.4186  0.3678 -0.2482
  399MOL0     N54975   8.139   3.735  11.075 -0.8470  0.1623 -1.3145
  399MOL0     N54976   8.134   3.842  11.135  0.0975 -0.3627 -0.7479
  399MOL0     C54977   8.220   5.072  10.996  0.0230 -0.2262  0.7753
  399MOL0     C54978   8.171   5.162  10.904  0.4650 -0.0113 -1.2163
  399MOL0     C54979   7.852   5.388  10.664 -1.0257 -0.0484 -0.3663
  399MOL0     C54980   7.961   5.445  10.588 -1.0173 -0.4741  0.2613
  399MOL0     C54981   7.953   5.560  10.521  0.3087 -0.1996  0.0689
  399MOL0     C54982   7.832   5.628  10.547 -0.3375 -0.3462 -0.0730
  399MOL0     O54983   7.823   5.765  10.544  0.1141  0.2320  0.1740
  399MOL0     C54984   7.894   5.821  10.431  0.7556  0.4396 -0.4874
  399MOL0     C54985   7.838   5.953  10.380 -0.3686  0.2808  0.6538
  399MOL0     C54986   7.921   6.037  10.274  0.9577 -0.1100 -0.1493
  399MOL0     C54987   7.922   6.175  10.317 -0.2897  0.3099  0.2047
  399MOL0     C54988   7.795   6.239  10.318  0.7512  0.1896  0.6739
  399MOL0     C54989   7.694   6.307  10.291 -1.2704  0.3362  0.3877
  399MOL0     C54990   7.723   5.569  10.598 -0.0141 -0.1853 -0.3218
  399MOL0     C54991   7.726   5.444  10.651  0.1628 -0.2795 -0.4121
  399MOL0     C54992   7.603   5.382  10.714 -0.4953  0.2000  0.7910
  399MOL0     H54993   7.933   4.942  10.766 -1.2011  0.1718 -0.3462
  399MOL0     H54994   8.050   4.790  10.901  0.5444 -0.2934  0.4897
  399MOL0     H54995   8.032   4.811  11.180  0.3183  1.8989 -3.9855
  399MOL0     H54996   8.137   4.933  11.259 -0.4244  0.4322  0.0301
  399MOL0     H54997   8.291   4.752  11.324 -0.3661  0.4062  0.7092
  399MOL0     H54998   8.136   4.705  11.384 -0.6354 -2.4870 -0.1045
  399MOL0     H54999   8.072   4.565  11.217  0.7184  1.1693 -2.0640
  399MOL0     H55000   8.223   4.610  11.116  1.6634  2.1674  1.2272
  399MOL0     H55001   8.362   4.507  11.292 -0.7799  1.1031  0.7315
  399MOL0     H55002   8.220   4.461  11.381  1.0601  1.7053  0.0753
  399MOL0     H55003   8.335   4.281  11.249 -2.2165 -1.7403  1.0819
  399MOL0     H55004   8.294   4.349  11.105  0.3470 -0.4786 -0.0418
  399MOL0     H55005   8.097   4.224  11.313 -4.6050  1.5796 -0.4655
  399MOL0     H55006   8.035   4.325  11.182 -0.7967  0.1453  0.5159
  399MOL0     H55007   8.222   4.090  11.161 -0.9694 -0.4441  1.0361
  399MOL0     H55008   8.142   4.183  11.016 -0.3657 -0.7167 -0.5870
  399MOL0     H55009   7.997   4.054  11.242  0.3594 -0.0468  0.6189
  399MOL0     H55010   7.926   4.089  11.082 -0.0511 -3.3461 -0.9175
  399MOL0     H55011   7.882   3.878  10.927  3.0071  0.7665 -4.0881
  399MOL0     H55012   7.885   3.598  10.878  0.6764 -0.4679 -0.0818
  399MOL0     H55013   8.033   3.518  10.929 -1.1327 -0.1730  3.7298
  399MOL0     H55014   8.011   3.723  10.706 -0.2487 -1.0829 -1.1751
  399MOL0     H55015   8.167   3.674  10.778  3.2321 -5.1391 -0.5884
  399MOL0     H55016   8.077   3.430  10.715 -1.4613  0.5050  0.6308
  399MOL0     H55017   7.958   3.524  10.628  0.3306  0.0076  0.5122
  399MOL0     H55018   8.153   3.652  10.516 -1.0209  0.9163  2.3207
  399MOL0     H55019   8.270   3.539  10.607 -0.5093  0.6076  0.8370
  399MOL0     H55020   8.319   3.650  10.400 -3.9016 -0.7373  1.2344
  399MOL0     H55021   8.453   3.794  10.292 -1.2071  2.3420 -0.4771
  399MOL0     H55022   8.441   3.833  10.120  0.1137 -2.0505 -2.4672
  399MOL0     H55023   8.546   3.704  10.175 -1.2457 -1.9644  1.8215
  399MOL0     H55024   8.223   3.457   9.610  0.1476  2.1530 -0.0228
  399MOL0     H55025   8.347   3.421   9.390  0.6512  0.5759 -0.9059
  399MOL0     H55026   8.471   3.333   9.244  0.7651 -0.1675 -0.4157
  399MOL0     H55027   8.544   3.495   9.212  1.4584  0.9450  2.2756
  399MOL0     H55028   8.658   3.224   9.177 -1.1362  0.4041 -0.8012
  399MOL0     H55029   8.629   3.333   9.040 -3.1435 -1.3660  0.5802
  399MOL0     H55030   8.819   3.457   9.234 -4.0914  1.5175 -0.4073
  399MOL0     H55031   8.790   3.483   9.072 -0.7117  1.1986  0.5872
  399MOL0     H55032   8.900   3.267   9.003 -1.0080  1.9562  0.2121
  399MOL0     H55033   8.919   3.242   9.185 -0.0620  1.7021  2.1157
  399MOL0     H55034   9.004   3.489   9.015  0.2621  1.8229  3.2080
  399MOL0     H55035   9.061   3.452   9.168  0.2507 -0.3432  0.0451
  399MOL0     H55036   9.218   3.410   8.969  0.3170 -0.0253  0.5710
  399MOL0     H55037   9.112   3.277   8.926  3.7859 -0.4869 -1.8912
  399MOL0     H55038   9.172   3.173   9.153  0.9062 -0.4087  1.8222
  399MOL0     H55039   9.285   3.303   9.179  0.7782 -2.8129  0.2902
  399MOL0     H55040   9.413   3.258   8.993 -0.6867 -0.3065 -0.0620
  399MOL0     H55041   9.315   3.142   8.925  0.7356 -0.6059  0.0260
  399MOL0     H55042   8.716   3.466   9.587 -0.6064  0.6578  0.4883
  399MOL0     H55043   8.606   3.455   9.807  2.5070  0.1184 -1.3042
  399MOL0     H55044   8.195   3.387  10.002 -1.9745  2.2641 -0.5991
  399MOL0     H55045   8.109   3.327  10.212 -0.1773  0.2756  0.6706
  399MOL0     H55046   8.314   5.093  11.046 -0.4810 -1.6167  2.4001
  399MOL0     H55047   8.205   5.265  10.914 -0.5355  0.1965  0.4637
  399MOL0     H55048   8.056   5.393  10.584  0.3337  1.7487 -4.8801
  399MOL0     H55049   8.025   5.612  10.459  1.7111  1.5175  2.9499
  399MOL0     H55050   7.995   5.850  10.460  0.9381 -1.4670  1.0171
  399MOL0     H55051   7.892   5.742  10.355  0.8126 -2.0212  1.8999
  399MOL0     H55052   7.822   6.018  10.466 -0.5284  2.4376 -0.9093
  399MOL0     H55053   7.739   5.922  10.343  0.1304 -1.0844  0.3951
  399MOL0     H55054   8.020   5.993  10.258 -0.5224 -4.5649  1.3758
  399MOL0     H55055   7.871   6.032  10.177 -0.9448 -0.7565  0.8221
  399MOL0     H55056   7.987   6.238  10.255  0.3935 -2.2951 -1.9727
  399MOL0     H55057   7.963   6.167  10.418 -0.9181 -2.7360  0.3400
  399MOL0     H55058   7.610   6.372  10.277 -1.1903  0.3110 -0.2358
  399MOL0     H55059   7.640   5.637  10.615  0.4909  0.1813  0.7718
  399MOL0     H55060   7.512   5.441  10.703 -1.5879 -1.4734  0.5478
  399MOL0     H55061   7.599   5.286  10.661  2.5682 -0.0867  0.9183
  399MOL0     H55062   7.606   5.354  10.820  1.4092 -0.7476  0.5269
  400MOL0     O55063   8.950   0.468   7.831  0.3048 -0.1895 -0.2130
  400MOL0     C55064   8.962   0.485   7.953  0.0712 -1.5067 -0.3535
  400MOL0     O55065   8.891   0.423   8.050 -0.2714  0.1584  0.8074
  400MOL0     C55066   8.804   0.313   8.014  0.5420  0.2176 -0.6833
  400MOL0     C55067   8.809   0.228   7.901 -0.8668  0.3437 -0.5934
  400MOL0     C55068   8.727   0.119   7.904  0.6421  0.0375 -0.0799
  400MOL0     C55069   8.635   0.093   8.005 -0.4366  0.6643 -0.3200
  400MOL0     O55070   8.557  -0.022   8.017 -0.1184 -0.6985  0.0173
  400MOL0     C55071   8.581  -0.141   7.943 -0.2848 -0.3280 -0.2692
  400MOL0     C55072   8.695  -0.217   7.995 -0.7608 -0.7725 -0.5473
  400MOL0     C55073   8.672  -0.267   8.142  0.6245  0.2286 -0.1354
  400MOL0     C55074   8.786  -0.355   8.196  0.5459  0.1995  1.2574
  400MOL0     C55075   8.908  -0.274   8.255  0.1828 -0.4613 -0.1989
  400MOL0     C55076   8.984  -0.194   8.145 -0.2801 -0.9977 -0.2001
  400MOL0     C55077   9.135  -0.157   8.186  1.4940  0.4839  0.5005
  400MOL0     C55078   9.139  -0.087   8.320 -0.5874 -0.6638  0.6585
  400MOL0     N55079   9.275  -0.067   8.370 -0.2185 -0.2845 -0.1206
  400MOL0     C55080   9.391  -0.032   8.301 -0.1218  0.4736 -0.1843
  400MOL0     C55081   9.490  -0.046   8.395  1.0637 -0.9813 -0.1931
  400MOL0     C55082   9.624   0.007   8.377 -0.3358 -1.1572 -0.2432
  400MOL0     C55083   9.644   0.144   8.431  0.5617  0.1941  0.0414
  400MOL0     C55084   9.790   0.181   8.441 -1.8246  0.4471  0.4050
  400MOL0     C55085   9.797   0.319   8.495 -0.8483 -0.1643  0.1655
  400MOL0     O55086   9.932   0.339   8.520  0.3470  0.2197 -0.1764
  400MOL0     C55087   9.987   0.453   8.474 -0.1425 -0.4055  0.2118
  400MOL0     C55088   9.962   0.574   8.528  1.0191 -0.0133 -0.3810
  400MOL0     C55089  10.026   0.687   8.484  0.1493 -0.1183  0.4886
  400MOL0     C55090   9.980   0.817   8.535  0.1120  0.3195 -0.1297
  400MOL0     C55091  10.115   0.685   8.372  0.0688 -0.1244 -0.0375
  400MOL0     C55092  10.192   0.809   8.326 -0.1372  0.0679 -0.7067
  400MOL0     O55093  10.244   0.796   8.202 -0.2142  0.4336  0.5095
  400MOL0     C55094  10.307   0.890   8.122  0.7044  0.1537 -0.2582
  400MOL0     C55095  10.325   1.028   8.150 -0.1479 -0.1444 -0.7751
  400MOL0     C55096  10.391   1.112   8.063  0.4908  0.1237  0.7581
  400MOL0     C55097  10.424   1.058   7.938 -0.6080 -0.1129 -0.2657
  400MOL0     O55098  10.473   1.155   7.861  0.4757  0.7180  0.2245
  400MOL0     C55099  10.511   1.123   7.726 -0.0600  0.8841  0.2527
  400MOL0     C55100  10.582   1.243   7.663  0.5139 -0.1325 -1.1061
  400MOL0     C55101  10.560   1.244   7.512  0.3976  0.2390 -0.1186
  400MOL0     C55102  10.623   1.129   7.433 -0.4376  1.2075  0.7028
  400MOL0     C55103  10.594   1.132   7.283  0.6832 -0.3728  0.2370
  400MOL0     C55104  10.670   1.254   7.211  0.1369 -0.9019 -0.2422
  400MOL0     C55105  10.674   1.228   7.060  0.5119 -0.7200 -0.2413
  400MOL0     C55106  10.716   1.363   7.007 -0.3401 -0.3043 -0.1646
  400MOL0    Cl55107  10.715   1.362   6.832 -0.1187 -0.4762  0.0153
  400MOL0     C55108  10.395   0.935   7.897 -0.6269  0.3549  1.0434
  400MOL0     C55109  10.345   0.844   7.992 -1.1905 -0.4215  0.2023
  400MOL0     O55110  10.191   0.914   8.392  0.1926 -0.2041 -0.8080
  400MOL0     C55111  10.151   0.557   8.332 -0.3056  0.4140 -0.4481
  400MOL0     C55112  10.081   0.446   8.372  0.8411 -0.1097 -0.5243
  400MOL0     N55113   9.442  -0.093   8.515  0.3750  0.5925 -0.4271
  400MOL0     N55114   9.316  -0.111   8.496  0.5098 -0.8109  0.1924
  400MOL0     C55115   8.621   0.186   8.104 -0.7476 -0.8459 -0.5962
  400MOL0     C55116   8.717   0.288   8.118  0.7645 -0.1843  1.0235
  400MOL0     C55117   9.071   0.579   8.009 -0.9281  0.2619 -0.2471
  400MOL0     C55118   9.082   0.578   8.146 -0.9965 -0.3701  0.7579
  400MOL0     C55119   9.163   0.675   8.209 -0.0942  0.1835  1.1704
  400MOL0     C55120   9.255   0.756   8.134  0.3416  0.7295  0.1015
  400MOL0     O55121   9.338   0.838   8.205 -0.0225  1.1679  0.2893
  400MOL0     C55122   9.447   0.904   8.137 -0.1026  0.4657 -0.1928
  400MOL0     C55123   9.529   1.003   8.220  0.6133  0.3504  0.2952
  400MOL0     C55124   9.601   0.949   8.346 -0.8801  0.0989  0.3333
  400MOL0     C55125   9.634   0.802   8.356 -0.7576 -1.0763  0.0559
  400MOL0     C55126   9.745   0.758   8.261 -0.1993  0.4663 -0.0321
  400MOL0     C55127   9.835   0.727   8.186 -0.5084 -0.3152  0.2903
  400MOL0     C55128   9.250   0.754   7.999  0.0149  0.2956 -0.3147
  400MOL0     C55129   9.163   0.658   7.935  0.9094  0.1370 -1.2991
  400MOL0     C55130   9.176   0.649   7.784 -0.1959 -0.8089  0.0278
  400MOL0     H55131   8.887   0.242   7.827  1.3361 -1.7718  1.1440
  400MOL0     H55132   8.735   0.051   7.820  0.9760 -0.3723  0.2805
  400MOL0     H55133   8.594  -0.102   7.842 -0.9415 -1.1095 -0.6606
  400MOL0     H55134   8.484  -0.193   7.946 -2.4778  3.3722  3.7550
  400MOL0     H55135   8.717  -0.301   7.929 -1.3068 -0.6343 -0.9122
  400MOL0     H55136   8.782  -0.154   7.980 -1.9247  0.8661 -0.7030
  400MOL0     H55137   8.670  -0.182   8.211 -1.3102 -0.1260  0.3073
  400MOL0     H55138   8.581  -0.328   8.137  0.8371 -0.0416 -4.8049
  400MOL0     H55139   8.740  -0.432   8.258 -2.3692 -3.0824 -4.1781
  400MOL0     H55140   8.829  -0.424   8.123  1.0366  0.5838  1.1743
  400MOL0     H55141   8.975  -0.347   8.302 -0.7819 -0.9377  0.4777
  400MOL0     H55142   8.880  -0.209   8.338 -0.0823 -1.7533  0.7649
  400MOL0     H55143   8.992  -0.249   8.050 -1.7321  0.2518 -1.0991
  400MOL0     H55144   8.924  -0.106   8.122  1.4884  0.4982  0.6784
  400MOL0     H55145   9.187  -0.101   8.107  3.1434 -0.4521  0.8718
  400MOL0     H55146   9.192  -0.250   8.196  1.5986  0.5343  0.3857
  400MOL0     H55147   9.087   0.008   8.316  1.1068  0.5237  3.5587
  400MOL0     H55148   9.094  -0.151   8.397  0.8501  0.1398  2.2440
  400MOL0     H55149   9.401  -0.000   8.197 -0.2976  0.1745 -0.2953
  400MOL0     H55150   9.655  -0.000   8.272  2.1706 -2.6536  0.5101
  400MOL0     H55151   9.702  -0.058   8.419  3.0542  1.5852 -1.7215
  400MOL0     H55152   9.591   0.210   8.361 -2.1782 -1.1642  0.7162
  400MOL0     H55153   9.594   0.149   8.528  0.7129 -0.4226  0.1555
  400MOL0     H55154   9.847   0.120   8.512 -0.1130  1.1270 -0.3421
  400MOL0     H55155   9.834   0.184   8.341 -2.6145  0.4709  0.0486
  400MOL0     H55156   9.765   0.389   8.417  0.2867  0.3122  0.1004
  400MOL0     H55157   9.732   0.321   8.583 -0.6073 -0.7708  0.3615
  400MOL0     H55158   9.884   0.591   8.602 -0.1923  1.0168 -1.8236
  400MOL0     H55159   9.906   0.811   8.616 -0.8114 -0.6611 -1.0170
  400MOL0     H55160   9.942   0.880   8.454 -0.2995  1.1050  0.6520
  400MOL0     H55161  10.060   0.874   8.584  0.2219  1.5022 -1.5879
  400MOL0     H55162  10.306   1.073   8.247  0.1295 -2.4472  0.4180
  400MOL0     H55163  10.404   1.219   8.075 -2.2003  1.3312 -4.0494
  400MOL0     H55164  10.571   1.032   7.718 -0.8321  0.5280 -2.6707
  400MOL0     H55165  10.410   1.104   7.690 -0.9833 -0.4735  3.2190
  400MOL0     H55166  10.544   1.341   7.695 -2.8450 -2.1725  1.8971
  400MOL0     H55167  10.690   1.235   7.677  0.2029 -2.4985  0.5321
  400MOL0     H55168  10.582   1.344   7.473  0.2811 -0.1145 -1.1336
  400MOL0     H55169  10.451   1.241   7.502  0.3062 -3.1621  0.4618
  400MOL0     H55170  10.592   1.031   7.471  1.0718 -0.6500 -2.4533
  400MOL0     H55171  10.732   1.136   7.436 -0.3210 -0.4419  3.1007
  400MOL0     H55172  10.628   1.042   7.230  0.9543  0.5474 -1.1920
  400MOL0     H55173  10.486   1.142   7.275  0.6688 -1.4777 -1.4421
  400MOL0     H55174  10.770   1.268   7.254  1.4387 -2.4299 -2.5984
  400MOL0     H55175  10.612   1.344   7.232 -2.4059 -1.6816 -3.2462
  400MOL0     H55176  10.571   1.210   7.026  0.5022  1.4467 -1.5277
  400MOL0     H55177  10.737   1.142   7.039 -2.8084 -3.0161 -1.6291
  400MOL0     H55178  10.816   1.382   7.049 -1.1996  3.0513  0.6833
  400MOL0     H55179  10.656   1.445   7.048  1.1051  0.0360  1.4201
  400MOL0     H55180  10.411   0.885   7.802 -0.7398  0.8991  0.7330
  400MOL0     H55181  10.333   0.744   7.952 -2.5139 -0.0214 -0.4373
  400MOL0     H55182  10.217   0.535   8.249  0.9657  1.1982  0.3334
  400MOL0     H55183  10.097   0.352   8.320  2.3799 -2.5847  3.8594
  400MOL0     H55184   8.548   0.159   8.179 -0.0694 -1.5612 -0.1791
  400MOL0     H55185   8.713   0.343   8.211 -0.1230  0.7291  0.4639
  400MOL0     H55186   9.020   0.521   8.213 -0.9373  3.5395  4.5429
  400MOL0     H55187   9.164   0.677   8.318 -0.7269  0.7367  1.1763
  400MOL0     H55188   9.518   0.845   8.078  0.5001  1.6388 -0.6784
  400MOL0     H55189   9.391   0.967   8.067 -3.3816 -1.3482  0.5798
  400MOL0     H55190   9.481   1.097   8.246 -0.8357 -0.2952  0.0852
  400MOL0     H55191   9.593   1.037   8.138 -2.1816  1.8122 -1.4760
  400MOL0     H55192   9.698   0.999   8.348 -0.0898 -1.3149 -0.4866
  400MOL0     H55193   9.546   0.982   8.434  1.6706  1.4871  1.5220
  400MOL0     H55194   9.548   0.745   8.319  0.8984 -1.2460 -4.1474
  400MOL0     H55195   9.661   0.774   8.458  0.7227  1.6142  0.4734
  400MOL0     H55196   9.926   0.690   8.142  0.3966  1.1867  0.8080
  400MOL0     H55197   9.310   0.817   7.934  0.0789 -0.5775 -1.1235
  400MOL0     H55198   9.267   0.707   7.763 -2.4706  3.1459  0.1635
  400MOL0     H55199   9.189   0.543   7.764 -2.2557 -1.0199 -0.4198
  400MOL0     H55200   9.097   0.688   7.719  1.1224 -0.1322 -1.2255
  401MOL0     O55201   8.131   9.773   0.965  1.1805  0.4657 -0.2024
  401MOL0     C55202   8.027   9.799   0.913  0.1749  0.4152 -0.3598
  401MOL0     O55203   7.997   9.897   0.829  0.5180 -0.7891 -0.2418
  401MOL0     C55204   8.110   9.955   0.771  0.0972 -0.6056 -0.1585
  401MOL0     C55205   8.194  10.044   0.842 -0.0835 -0.0210 -0.5048
  401MOL0     C55206   8.290  10.121   0.778  0.8969  0.1020  0.0235
  401MOL0     C55207   8.314  10.102   0.641  0.0938  0.7362  0.3442
  401MOL0     O55208   8.403  10.184   0.576  0.9725  0.2553 -0.7450
  401MOL0     C55209   8.529  10.218   0.642  0.6512  0.3960  0.4182
  401MOL0     C55210   8.620  10.297   0.537 -0.0599  0.2546 -0.1021
  401MOL0     C55211   8.565  10.435   0.504 -0.4649 -0.9993  0.7127
  401MOL0     C55212   8.631  10.516   0.389 -0.4194  0.0599 -1.2523
  401MOL0     C55213   8.568  10.653   0.383  0.4340  1.0247 -0.4818
  401MOL0     C55214   8.626  10.710   0.255 -0.1250 -0.0460 -0.0068
  401MOL0     C55215   8.560  10.846   0.218 -1.1311  1.3992  0.0572
  401MOL0     C55216   8.634  10.896   0.088  0.3676  0.9840 -0.0077
  401MOL0     N55217   8.580  11.032   0.059  0.4780  0.6622 -0.3782
  401MOL0     C55218   8.450  11.057   0.026 -0.2755 -1.0601  0.1209
  401MOL0     C55219   8.410  11.175   0.079 -0.3446 -0.4197  0.2697
  401MOL0     C55220   8.277  11.242   0.070  0.4448 -0.6344 -0.5690
  401MOL0     C55221   8.256  11.323  -0.061 -0.0521 -0.3085 -0.2166
  401MOL0     C55222   8.116  11.367  -0.063  0.5971 -0.9020 -0.4741
  401MOL0     C55223   8.084  11.449  -0.182 -0.8157  0.4341  0.0184
  401MOL0     O55224   8.106  11.372  -0.310 -0.2288 -0.0136  0.4294
  401MOL0     C55225   8.050  11.420  -0.426  0.0883  0.1001 -0.8486
  401MOL0     C55226   8.074  11.350  -0.548 -1.2253  0.6424  0.0674
  401MOL0     C55227   8.031  11.380  -0.675 -0.1034 -0.3409 -0.4500
  401MOL0     C55228   8.100  11.328  -0.795  0.1870  0.7559  0.6674
  401MOL0     C55229   7.940  11.491  -0.682  0.0026  0.7966  0.5551
  401MOL0     C55230   7.872  11.551  -0.812  0.5227 -0.0134  0.3670
  401MOL0     O55231   7.905  11.491  -0.932  0.3435 -1.1432 -0.5787
  401MOL0     C55232   7.861  11.547  -1.045 -0.2381  0.3241  0.3000
  401MOL0     C55233   7.732  11.550  -1.095 -1.0293 -0.7787 -0.9316
  401MOL0     C55234   7.708  11.588  -1.227  0.0878 -0.5226 -0.2197
  401MOL0     C55235   7.805  11.637  -1.305  0.0570 -0.1572  0.4424
  401MOL0     O55236   7.792  11.691  -1.431 -0.6937  0.3258  0.3198
  401MOL0     C55237   7.698  11.639  -1.523  0.5080  0.2737 -0.9738
  401MOL0     C55238   7.749  11.662  -1.670  0.0852  0.6715 -1.3235
  401MOL0     C55239   7.884  11.585  -1.696  0.2805 -0.2846 -0.9907
  401MOL0     C55240   7.986  11.682  -1.746  0.2568 -0.1199 -0.3331
  401MOL0     C55241   8.127  11.606  -1.784 -0.0579 -0.2763  0.4429
  401MOL0     C55242   8.208  11.667  -1.895 -0.7608  0.5875  0.3985
  401MOL0     C55243   8.241  11.804  -1.863 -1.4046 -0.1296 -0.2799
  401MOL0     C55244   8.354  11.859  -1.967 -0.3928 -0.1648  0.1996
  401MOL0    Cl55245   8.523  11.814  -1.918 -0.1794 -0.3826 -0.0355
  401MOL0     C55246   7.938  11.638  -1.258 -0.2770 -0.2262  0.1756
  401MOL0     C55247   7.968  11.582  -1.133  0.7087 -0.0943 -0.1514
  401MOL0     O55248   7.801  11.650  -0.808  0.5540  1.4786 -0.2023
  401MOL0     C55249   7.906  11.560  -0.563  0.7079  0.1537  0.2974
  401MOL0     C55250   7.965  11.530  -0.444 -0.7122 -0.0127 -0.0163
  401MOL0     N55251   8.525  11.228   0.128 -0.3164 -0.2839 -0.1784
  401MOL0     N55252   8.628  11.150   0.113  0.4692 -0.5279 -0.5121
  401MOL0     C55253   8.226  10.014   0.572 -0.6533  0.7669 -0.1767
  401MOL0     C55254   8.135   9.945   0.638  0.2277 -0.4072 -0.1345
  401MOL0     C55255   7.899   9.741   0.965 -0.9501  0.4692 -0.1636
  401MOL0     C55256   7.769   9.810   0.958 -0.6090  1.1425  0.1005
  401MOL0     C55257   7.648   9.736   0.980 -0.5109 -0.3201 -0.0614
  401MOL0     C55258   7.651   9.602   1.020 -0.3137  0.5543  0.3057
  401MOL0     O55259   7.543   9.520   1.062  0.4525  0.2010 -0.7129
  401MOL0     C55260   7.410   9.572   1.058 -0.8167  1.2910  0.7619
  401MOL0     C55261   7.303   9.488   1.131 -0.6421 -0.1174 -0.5731
  401MOL0     C55262   7.246   9.370   1.040 -0.0045 -0.1241  0.1111
  401MOL0     C55263   7.128   9.296   1.125 -0.2667 -0.2215 -0.2956
  401MOL0     C55264   7.053   9.205   1.030  0.1078 -0.2125 -0.5978
  401MOL0     C55265   6.977   9.138   0.959 -0.1973 -0.2935 -0.1085
  401MOL0     C55266   7.773   9.536   1.018 -0.9311  1.0611 -0.6658
  401MOL0     C55267   7.898   9.598   0.991 -0.3845 -0.8147  0.6760
  401MOL0     C55268   8.019   9.496   0.973 -0.8746 -0.0597 -0.2496
  401MOL0     H55269   8.164  10.061   0.945  1.9854 -2.1251  0.5321
  401MOL0     H55270   8.345  10.192   0.838  1.5372  1.1537 -1.7188
  401MOL0     H55271   8.583  10.128   0.672  0.5541  0.3453  0.4437
  401MOL0     H55272   8.511  10.287   0.725  0.9312  2.2832 -1.0263
  401MOL0     H55273   8.717  10.302   0.587 -0.6319 -0.0440  1.0507
  401MOL0     H55274   8.624  10.242   0.443  2.1333  1.5120 -0.8239
  401MOL0     H55275   8.456  10.429   0.496 -0.4162 -2.3520  0.8632
  401MOL0     H55276   8.576  10.489   0.599  0.2444 -0.9252  0.5903
  401MOL0     H55277   8.738  10.525   0.408  0.0184 -2.9930 -1.8031
  401MOL0     H55278   8.616  10.458   0.298  0.4932 -1.9383 -0.2054
  401MOL0     H55279   8.612  10.705   0.468  2.3501 -2.0586  0.5760
  401MOL0     H55280   8.458  10.645   0.383  0.3710  1.7814  0.6076
  401MOL0     H55281   8.735  10.714   0.263  0.0605 -2.4796 -0.6042
  401MOL0     H55282   8.607  10.639   0.174  2.8282 -1.1109  0.1248
  401MOL0     H55283   8.570  10.923   0.294  1.5745  1.5328 -0.3505
  401MOL0     H55284   8.451  10.836   0.215 -1.0829  0.8162  0.1713
  401MOL0     H55285   8.741  10.899   0.109  0.5374 -2.0160  0.0435
  401MOL0     H55286   8.611  10.822   0.010 -3.0995  2.1513 -0.2820
  401MOL0     H55287   8.374  10.992  -0.017 -1.0687 -0.2985  0.3340
  401MOL0     H55288   8.267  11.308   0.157  0.3085  0.1979 -1.1964
  401MOL0     H55289   8.189  11.177   0.073  0.7275 -1.0205 -0.6782
  401MOL0     H55290   8.313  11.417  -0.068 -0.5939 -0.1029 -3.1440
  401MOL0     H55291   8.283  11.257  -0.144 -0.1690 -0.1219 -0.4021
  401MOL0     H55292   8.046  11.283  -0.069  1.3114 -1.4559 -1.5976
  401MOL0     H55293   8.091  11.425   0.026 -2.0888 -1.8137 -0.5497
  401MOL0     H55294   7.981  11.481  -0.170 -0.3747  1.8081  0.3521
  401MOL0     H55295   8.151  11.536  -0.185  1.6442 -1.3664 -1.9856
  401MOL0     H55296   8.149  11.272  -0.535 -1.8567  0.1848  1.1016
  401MOL0     H55297   8.170  11.245  -0.781 -0.6775  0.2036  1.9269
  401MOL0     H55298   8.147  11.418  -0.836  1.8371 -1.0039 -1.5665
  401MOL0     H55299   8.027  11.290  -0.868  1.7723  2.0702 -1.7154
  401MOL0     H55300   7.640  11.529  -1.041  0.2488 -0.8868  1.3113
  401MOL0     H55301   7.607  11.604  -1.263  0.2800  1.9019  0.1246
  401MOL0     H55302   7.708  11.532  -1.502  3.5126  1.0832  3.0343
  401MOL0     H55303   7.604  11.687  -1.496  0.8446 -0.0716  1.0135
  401MOL0     H55304   7.667  11.637  -1.737 -5.0921 -0.0039  4.4376
  401MOL0     H55305   7.764  11.770  -1.681 -0.8153  1.0923  0.9896
  401MOL0     H55306   7.876  11.510  -1.776  1.8156  1.3350 -2.7845
  401MOL0     H55307   7.920  11.529  -1.610 -1.9121 -2.2206 -1.2449
  401MOL0     H55308   8.011  11.754  -1.667  3.9867  1.1568 -2.4336
  401MOL0     H55309   7.951  11.735  -1.834  0.0993 -0.2672 -0.3579
  401MOL0     H55310   8.186  11.603  -1.691 -1.9245 -0.4231  1.6699
  401MOL0     H55311   8.107  11.501  -1.808  0.2447 -0.2678  0.1425
  401MOL0     H55312   8.137  11.648  -1.977  1.0293 -4.2412 -0.3639
  401MOL0     H55313   8.297  11.614  -1.929 -1.4812 -0.6675  0.4027
  401MOL0     H55314   8.293  11.815  -1.767 -0.6099  2.5374 -0.9354
  401MOL0     H55315   8.149  11.861  -1.871 -1.3159 -0.0191 -0.5270
  401MOL0     H55316   8.342  11.965  -1.989 -0.5429 -0.1861  0.1811
  401MOL0     H55317   8.343  11.809  -2.064  2.4893  1.3865 -1.0429
  401MOL0     H55318   8.006  11.679  -1.332 -2.3075  2.0598 -0.5455
  401MOL0     H55319   8.070  11.575  -1.095  0.6927 -3.6408 -0.4356
  401MOL0     H55320   7.827  11.633  -0.561  2.5984  2.3592 -1.2701
  401MOL0     H55321   7.938  11.592  -0.360 -0.3473  0.6147 -0.3548
  401MOL0     H55322   8.239  10.002   0.465 -2.0250 -0.6774 -0.2192
  401MOL0     H55323   8.075   9.885   0.570 -0.2889  0.5745 -0.5699
  401MOL0     H55324   7.761   9.918   0.951 -2.2097  1.1755  1.8163
  401MOL0     H55325   7.552   9.789   0.980 -1.0855 -1.3449 -0.1241
  401MOL0     H55326   7.412   9.672   1.101 -0.9553  0.2061  3.5489
  401MOL0     H55327   7.375   9.586   0.956  0.8289  0.9804  0.1296
  401MOL0     H55328   7.222   9.557   1.154 -0.4259  0.2870 -1.0056
  401MOL0     H55329   7.338   9.446   1.226 -2.4999 -1.4225 -0.4125
  401MOL0     H55330   7.207   9.404   0.944 -0.6503 -1.5176 -0.1524
  401MOL0     H55331   7.323   9.298   1.009  0.5160 -0.3673  1.8391
  401MOL0     H55332   7.071   9.364   1.189  1.2095  0.3596  0.4376
  401MOL0     H55333   7.177   9.235   1.201  1.2677  3.3232  1.8319
  401MOL0     H55334   6.928   9.101   0.871  2.3731 -3.0343 -0.5659
  401MOL0     H55335   7.771   9.433   1.051 -1.2700  1.6948  1.4143
  401MOL0     H55336   7.988   9.393   0.956 -0.5695 -0.2327  0.2222
  401MOL0     H55337   8.094   9.515   0.896  1.0083 -1.7531  1.0766
  401MOL0     H55338   8.064   9.504   1.072 -2.3722 -0.2474  0.4871
  402MOL0     O55339  10.153   9.377   6.281  0.7903 -0.0177 -0.3088
  402MOL0     C55340  10.063   9.448   6.251 -0.0303  0.6695  0.6948
  402MOL0     O55341  10.052   9.500   6.129 -0.1498 -1.3853 -0.1894
  402MOL0     C55342  10.149   9.472   6.032  0.8256 -0.1798  0.2287
  402MOL0     C55343  10.121   9.382   5.924 -1.9728 -0.5150  0.1125
  402MOL0     C55344  10.220   9.352   5.828 -0.1251  0.2821 -0.1289
  402MOL0     C55345  10.343   9.411   5.844  0.0245  0.7887  0.1638
  402MOL0     O55346  10.437   9.391   5.751  0.5262  0.5751  0.0646
  402MOL0     C55347  10.526   9.282   5.779  0.2264 -0.1555 -0.1033
  402MOL0     C55348  10.636   9.257   5.674 -0.3229 -0.8202  0.1400
  402MOL0     C55349  10.540   9.226   5.544  0.2481 -0.2307 -0.7967
  402MOL0     C55350  10.639   9.200   5.428  0.3176 -0.4194 -0.2713
  402MOL0     C55351  10.700   9.323   5.365  0.5017  0.3487  0.7525
  402MOL0     C55352  10.777   9.287   5.246 -0.3649  0.7252  0.5550
  402MOL0     C55353  10.820   9.408   5.154 -0.3264  0.9173 -0.1736
  402MOL0     C55354  10.894   9.370   5.022 -0.5412  0.6404  0.3602
  402MOL0     N55355  10.890   9.490   4.928  0.2744 -0.6258  0.0319
  402MOL0     C55356  10.944   9.615   4.963  0.0471 -0.0127  0.0779
  402MOL0     C55357  10.947   9.690   4.853  0.2465  0.5031  0.6810
  402MOL0     C55358  10.979   9.840   4.849  0.2624 -0.0511 -0.2194
  402MOL0     C55359  11.077   9.897   4.955  0.3625  0.3438 -0.3954
  402MOL0     C55360  11.231   9.877   4.945 -0.3324 -0.1644 -0.2419
  402MOL0     C55361  11.286   9.796   4.830  0.1340  0.2010 -0.2008
  402MOL0     O55362  11.275   9.658   4.870  0.1866  0.1386  0.1533
  402MOL0     C55363  11.330   9.564   4.789  0.4148 -0.3558  0.0809
  402MOL0     C55364  11.298   9.432   4.817 -0.3552 -0.7667  0.3886
  402MOL0     C55365  11.341   9.325   4.741  1.6344 -0.4278  0.3494
  402MOL0     C55366  11.276   9.188   4.785 -0.9679  0.0715  0.3030
  402MOL0     C55367  11.430   9.345   4.637  0.1211 -0.7092  0.4476
  402MOL0     C55368  11.490   9.241   4.560  0.5606 -1.2107  0.1698
  402MOL0     O55369  11.535   9.274   4.436  0.1907  0.5856  0.2884
  402MOL0     C55370  11.621   9.192   4.372 -0.3617 -0.4143 -0.0390
  402MOL0     C55371  11.754   9.191   4.412  0.9960 -0.6713 -0.6653
  402MOL0     C55372  11.852   9.114   4.353 -0.1157  0.7810  0.9553
  402MOL0     C55373  11.817   9.036   4.243  0.0526 -0.3531  0.1866
  402MOL0     O55374  11.901   8.961   4.164 -0.0411 -0.1703 -0.8632
  402MOL0     C55375  12.037   8.951   4.198  0.6582  0.2187 -0.0515
  402MOL0     C55376  12.099   8.852   4.093  0.7043 -0.2074  0.3210
  402MOL0     C55377  12.250   8.823   4.117  0.0371  0.1164 -0.1475
  402MOL0     C55378  12.322   8.837   4.252 -0.4179 -0.4570 -0.2323
  402MOL0     C55379  12.472   8.795   4.238 -0.0135  0.3408  0.1166
  402MOL0     C55380  12.530   8.775   4.378  0.2735  0.4756  0.2543
  402MOL0     C55381  12.666   8.717   4.360 -0.9320  0.3345 -0.3815
  402MOL0     C55382  12.720   8.675   4.498  0.3380  0.2871  0.1627
  402MOL0    Cl55383  12.875   8.601   4.468 -0.0217  0.1481 -0.5851
  402MOL0     C55384  11.681   9.023   4.214  0.6448 -0.1745  0.3404
  402MOL0     C55385  11.579   9.106   4.270 -0.2761  0.4444  0.9947
  402MOL0     O55386  11.506   9.137   4.608 -0.2441  0.5220  0.5001
  402MOL0     C55387  11.466   9.480   4.615  0.5840  0.7072 -0.0272
  402MOL0     C55388  11.426   9.584   4.688 -0.3210 -0.4941  1.2219
  402MOL0     N55389  10.898   9.613   4.750 -0.1191  0.6862 -0.3428
  402MOL0     N55390  10.875   9.493   4.791  0.4015 -0.3997  0.0010
  402MOL0     C55391  10.374   9.498   5.953  0.7869 -0.3299 -0.1277
  402MOL0     C55392  10.281   9.528   6.048  0.3162  0.0590 -0.0803
  402MOL0     C55393   9.963   9.497   6.350  0.7287  0.4610  0.1433
  402MOL0     C55394   9.856   9.575   6.300 -0.3496  0.5718 -0.1209
  402MOL0     C55395   9.746   9.612   6.373 -0.3178 -0.8602  0.1848
  402MOL0     C55396   9.728   9.570   6.502 -1.1070  0.2850 -0.2593
  402MOL0     O55397   9.628   9.593   6.599  0.4159  0.5330  0.4322
  402MOL0     C55398   9.516   9.663   6.561  0.2670  0.4065 -0.3892
  402MOL0     C55399   9.450   9.755   6.665 -0.3299  0.3432 -0.0522
  402MOL0     C55400   9.550   9.855   6.717  0.8319  0.1533 -0.9153
  402MOL0     C55401   9.631   9.801   6.833  0.1491  0.5076 -0.2857
  402MOL0     C55402   9.731   9.903   6.890  0.1468  0.9238 -0.6021
  402MOL0     C55403   9.814   9.982   6.927  0.5885  0.0727 -0.3329
  402MOL0     C55404   9.839   9.492   6.554  0.0036 -0.0852  0.7720
  402MOL0     C55405   9.949   9.449   6.483 -0.4522 -0.6264 -0.1046
  402MOL0     C55406  10.029   9.341   6.533 -0.8095 -0.4751 -0.7951
  402MOL0     H55407  10.029   9.325   5.915 -0.1420 -3.6381 -0.4020
  402MOL0     H55408  10.221   9.284   5.744 -4.0143  1.2292 -1.1340
  402MOL0     H55409  10.467   9.191   5.781  1.2681 -0.8434  0.0600
  402MOL0     H55410  10.566   9.308   5.878 -0.7898  1.8354 -0.1680
  402MOL0     H55411  10.707   9.338   5.656 -1.4140 -0.0593 -0.9007
  402MOL0     H55412  10.707   9.176   5.693 -0.8251 -0.6312  3.2994
  402MOL0     H55413  10.474   9.141   5.566 -1.5547  1.4586  0.7256
  402MOL0     H55414  10.474   9.309   5.519  0.2926 -0.0244 -0.2431
  402MOL0     H55415  10.723   9.136   5.456  2.9151  0.8960 -4.2999
  402MOL0     H55416  10.585   9.155   5.344 -1.1387  2.5396 -1.0576
  402MOL0     H55417  10.761   9.372   5.441  1.9867  1.7906 -1.2887
  402MOL0     H55418  10.615   9.391   5.355 -0.3076 -0.7058  0.2816
  402MOL0     H55419  10.872   9.247   5.283  0.4229  1.6410 -0.4111
  402MOL0     H55420  10.731   9.209   5.184  2.5761 -0.1053 -0.8059
  402MOL0     H55421  10.894   9.463   5.213 -1.1120 -0.4913  2.2741
  402MOL0     H55422  10.731   9.472   5.153  0.7848  2.5152 -1.1025
  402MOL0     H55423  10.995   9.331   5.037 -2.0576 -3.3748  1.5714
  402MOL0     H55424  10.843   9.283   4.980  2.3733 -2.9177  3.4784
  402MOL0     H55425  10.983   9.644   5.060  2.0481 -0.0265 -0.6827
  402MOL0     H55426  10.880   9.888   4.847 -1.0404 -2.5061  0.4637
  402MOL0     H55427  11.017   9.856   4.748 -0.2767  0.4788 -0.3433
  402MOL0     H55428  11.050  10.001   4.977  3.9217  1.0937  1.1227
  402MOL0     H55429  11.050   9.848   5.049  3.4918 -2.1927 -0.6596
  402MOL0     H55430  11.268   9.978   4.925  0.0945 -0.1191  0.7048
  402MOL0     H55431  11.284   9.845   5.035  2.6381 -0.3746 -1.9239
  402MOL0     H55432  11.246   9.830   4.734  1.1279 -1.3656 -1.2226
  402MOL0     H55433  11.394   9.804   4.818  0.2282  0.0495  0.4880
  402MOL0     H55434  11.227   9.418   4.898  2.2410  1.2326  3.2233
  402MOL0     H55435  11.170   9.195   4.810 -1.4520 -1.6751 -1.0483
  402MOL0     H55436  11.328   9.152   4.874  1.9715  0.1408 -1.2621
  402MOL0     H55437  11.303   9.114   4.710  1.8766 -0.7371  1.9818
  402MOL0     H55438  11.773   9.253   4.499 -1.2253 -2.0592  0.9248
  402MOL0     H55439  11.950   9.115   4.399 -0.2056 -1.5550  1.3099
  402MOL0     H55440  12.095   9.044   4.197  0.4117  0.3789 -1.0200
  402MOL0     H55441  12.053   8.908   4.297 -2.1097 -0.4135  0.1999
  402MOL0     H55442  12.049   8.758   4.115  0.8857 -0.0034  1.6717
  402MOL0     H55443  12.071   8.894   3.996  2.1743  1.6833  0.6480
  402MOL0     H55444  12.304   8.883   4.043 -0.5168 -1.1173 -1.5887
  402MOL0     H55445  12.267   8.717   4.095  0.5564  0.0814  0.3891
  402MOL0     H55446  12.274   8.789   4.338  1.6588  0.7232  1.6934
  402MOL0     H55447  12.314   8.943   4.279 -0.4162 -0.2999 -0.8295
  402MOL0     H55448  12.478   8.699   4.185 -0.3192 -0.6020  1.7345
  402MOL0     H55449  12.542   8.856   4.180 -0.1413  0.0451 -0.3589
  402MOL0     H55450  12.473   8.695   4.425  3.6459 -2.1756  0.2499
  402MOL0     H55451  12.524   8.864   4.442  0.5579  2.2074 -1.9813
  402MOL0     H55452  12.735   8.774   4.297 -0.3487 -0.8143 -0.8038
  402MOL0     H55453  12.659   8.630   4.294 -0.6059 -0.4923  0.6439
  402MOL0     H55454  12.655   8.602   4.547  0.9077  0.6568  1.5133
  402MOL0     H55455  12.749   8.747   4.575  4.9413 -2.3970  1.3003
  402MOL0     H55456  11.669   8.948   4.137  0.8160  0.9717 -0.8396
  402MOL0     H55457  11.478   9.097   4.231  1.6426 -0.4452 -4.7665
  402MOL0     H55458  11.543   9.510   4.544  0.4878 -0.4865 -0.6570
  402MOL0     H55459  11.453   9.684   4.655  4.2845 -2.3689 -1.6091
  402MOL0     H55460  10.465   9.557   5.961  0.6791 -0.4202  2.7853
  402MOL0     H55461  10.297   9.599   6.128 -0.6405  1.6693 -1.2406
  402MOL0     H55462   9.859   9.614   6.199 -2.7029 -3.2310 -1.9389
  402MOL0     H55463   9.672   9.668   6.316  0.7456 -3.6293 -4.4498
  402MOL0     H55464   9.527   9.722   6.469 -1.3246  5.3033  2.2119
  402MOL0     H55465   9.441   9.587   6.538  1.4702 -1.2988  1.0282
  402MOL0     H55466   9.409   9.698   6.748 -3.2826  2.3574  0.0447
  402MOL0     H55467   9.363   9.803   6.618  0.6293  0.2900 -1.9713
  402MOL0     H55468   9.612   9.900   6.639  1.4737 -1.6191 -1.4879
  402MOL0     H55469   9.489   9.935   6.760 -1.7156 -2.2965  0.3622
  402MOL0     H55470   9.686   9.715   6.792 -0.6802 -0.8724  1.3655
  402MOL0     H55471   9.566   9.756   6.908 -2.0413  2.4181 -0.9420
  402MOL0     H55472   9.871  10.063   6.968  0.9213 -0.0113 -0.6247
  402MOL0     H55473   9.828   9.468   6.660 -1.0082  1.0205  0.9347
  402MOL0     H55474  10.125   9.377   6.569 -0.8659  0.7961 -1.8438
  402MOL0     H55475   9.979   9.306   6.624 -0.0585 -3.0906 -1.2988
  402MOL0     H55476  10.042   9.243   6.485 -1.3925 -3.4609  4.3804
  403MOL0     O55477   2.761   1.869   9.537 -0.2654 -0.0962  0.0520
  403MOL0     C55478   2.657   1.849   9.480 -0.4042  0.0163 -0.1077
  403MOL0     O55479   2.534   1.850   9.530  0.6076  0.2792 -0.1382
  403MOL0     C55480   2.511   1.839   9.675  0.2956 -1.1244  0.0628
  403MOL0     C55481   2.515   1.953   9.757  1.5275  0.2575 -1.1268
  403MOL0     C55482   2.489   1.920   9.891 -0.1884  0.0615  0.8718
  403MOL0     C55483   2.489   1.781   9.943  0.3011  0.1419 -1.1638
  403MOL0     O55484   2.486   1.767  10.079 -0.0725 -0.2721  0.2685
  403MOL0     C55485   2.438   1.648  10.145  0.1305 -0.4819 -0.5612
  403MOL0     C55486   2.366   1.677  10.266  0.1851  0.0822  0.1033
  403MOL0     C55487   2.355   1.562  10.375 -0.1709 -0.5146  1.1033
  403MOL0     C55488   2.255   1.590  10.488  0.2509 -0.2550  0.4089
  403MOL0     C55489   2.258   1.473  10.597 -0.2707 -0.2927  0.2375
  403MOL0     C55490   2.173   1.505  10.728  0.1995  0.3245 -0.0100
  403MOL0     C55491   2.243   1.613  10.823  0.9186 -0.6704  0.1701
  403MOL0     C55492   2.389   1.589  10.856  0.5521  0.1346  0.7964
  403MOL0     N55493   2.398   1.466  10.934  0.6784 -0.5848 -0.4151
  403MOL0     C55494   2.431   1.342  10.909 -0.9983 -1.0726  0.6310
  403MOL0     C55495   2.448   1.273  11.028 -0.5092 -0.6403  0.7262
  403MOL0     C55496   2.516   1.142  11.040  0.3130  0.3788  0.3817
  403MOL0     C55497   2.446   1.066  11.152 -0.3020 -0.0535 -0.3363
  403MOL0     C55498   2.330   0.993  11.085 -0.0276  0.3503 -0.5493
  403MOL0     C55499   2.227   0.925  11.181  0.6876 -0.5447 -0.0851
  403MOL0     O55500   2.099   0.912  11.115 -0.0588  0.2889  0.6700
  403MOL0     C55501   2.088   0.837  11.007  0.6244 -0.3570 -0.0521
  403MOL0     C55502   2.180   0.743  10.960 -0.2672  0.0719  0.3588
  403MOL0     C55503   2.158   0.665  10.841 -0.2067 -0.0487  0.6598
  403MOL0     C55504   2.259   0.556  10.802 -0.2798  0.2774 -0.5522
  403MOL0     C55505   2.031   0.683  10.775 -0.6932 -0.6648 -0.4949
  403MOL0     C55506   2.001   0.612  10.654 -1.2489  0.4456  0.3972
  403MOL0     O55507   1.877   0.576  10.642 -0.8305  0.4544  0.1389
  403MOL0     C55508   1.851   0.469  10.555  0.6915  0.8961 -0.3669
  403MOL0     C55509   1.715   0.441  10.540  0.1231 -0.0005 -0.7202
  403MOL0     C55510   1.679   0.326  10.478 -0.3205 -0.4790  0.4053
  403MOL0     C55511   1.771   0.237  10.419  0.6551  0.2623  1.1796
  403MOL0     O55512   1.735   0.133  10.340 -0.0777 -0.7331 -0.2325
  403MOL0     C55513   1.714   0.012  10.416 -0.3950  0.1969  0.0160
  403MOL0     C55514   1.581  -0.053  10.381  1.1299 -0.1558 -0.4232
  403MOL0     C55515   1.516  -0.129  10.497  0.1589 -0.6736 -0.2684
  403MOL0     C55516   1.588  -0.267  10.514  0.0122 -0.4383 -0.4708
  403MOL0     C55517   1.530  -0.347  10.632  0.5820  0.7515 -0.8337
  403MOL0     C55518   1.373  -0.370  10.628 -1.2152  0.4200  0.2604
  403MOL0     C55519   1.333  -0.486  10.708 -0.5623  0.4965 -0.4400
  403MOL0     C55520   1.184  -0.536  10.688 -1.0243 -0.7445 -0.0207
  403MOL0    Cl55521   1.126  -0.660  10.816  0.0240  0.0925  0.1958
  403MOL0     C55522   1.906   0.252  10.452  0.3388  0.4195 -0.3995
  403MOL0     C55523   1.942   0.365  10.527 -0.4662  0.0009  0.7567
  403MOL0     O55524   2.072   0.617  10.554  0.5718  0.1049  0.1615
  403MOL0     C55525   1.937   0.776  10.821 -0.4345  0.4868 -0.5333
  403MOL0     C55526   1.968   0.848  10.940  0.4402 -0.6912  0.9073
  403MOL0     N55527   2.400   1.354  11.126  0.5760 -0.5775  0.4074
  403MOL0     N55528   2.366   1.466  11.067 -0.1852 -0.5450  0.1977
  403MOL0     C55529   2.506   1.674   9.854 -0.1262 -0.3425  0.0242
  403MOL0     C55530   2.506   1.710   9.719  0.1218  0.1682 -0.1984
  403MOL0     C55531   2.657   1.835   9.327  0.2068 -0.9997  0.4793
  403MOL0     C55532   2.541   1.796   9.263  0.0561  0.4058 -0.3966
  403MOL0     C55533   2.531   1.772   9.123  0.3390  0.4980  0.0606
  403MOL0     C55534   2.634   1.776   9.041 -0.3172 -0.7544 -0.2583
  403MOL0     O55535   2.619   1.780   8.902  0.2457  0.1995 -0.1266
  403MOL0     C55536   2.693   1.679   8.835  0.6851 -0.2213 -0.2480
  403MOL0     C55537   2.602   1.550   8.827 -0.4187  0.5980  0.1711
  403MOL0     C55538   2.674   1.438   8.748 -0.4058 -0.3122  0.0646
  403MOL0     C55539   2.592   1.311   8.752  0.1446 -0.3692  0.1771
  403MOL0     C55540   2.609   1.229   8.624  0.1618  0.0446 -0.1507
  403MOL0     C55541   2.604   1.154   8.537  0.3027 -0.4734  0.4118
  403MOL0     C55542   2.753   1.818   9.096  0.2926  0.2864  0.1310
  403MOL0     C55543   2.771   1.843   9.238 -1.4572  0.2257  0.1119
  403MOL0     C55544   2.908   1.886   9.283 -1.6513  0.0569  0.3994
  403MOL0     H55545   2.500   2.053   9.717 -0.3577  0.1793 -0.7476
  403MOL0     H55546   2.485   2.002   9.962  1.5233 -0.4099  1.5856
  403MOL0     H55547   2.522   1.583  10.170  0.4240  0.2581  0.4147
  403MOL0     H55548   2.376   1.598  10.069 -0.9179  2.0537 -1.4645
  403MOL0     H55549   2.412   1.764  10.315 -0.5287 -0.2084  1.3212
  403MOL0     H55550   2.269   1.717  10.234  1.6247  4.1289  0.1279
  403MOL0     H55551   2.325   1.470  10.324  0.5418 -0.1674  0.0332
  403MOL0     H55552   2.453   1.557  10.423  0.5865 -2.3843 -0.4969
  403MOL0     H55553   2.280   1.679  10.546 -0.0294  0.9102 -1.1908
  403MOL0     H55554   2.155   1.606  10.445 -0.3544  0.4832  2.0158
  403MOL0     H55555   2.360   1.447  10.624  0.4214  0.5069 -1.4307
  403MOL0     H55556   2.208   1.384  10.558  1.4772 -0.3145 -2.1796
  403MOL0     H55557   2.070   1.537  10.709 -0.3446  0.8636  3.2446
  403MOL0     H55558   2.154   1.415  10.787 -1.9105  1.4901  1.2014
  403MOL0     H55559   2.195   1.623  10.920  2.6844  0.4401  0.9894
  403MOL0     H55560   2.234   1.710  10.772 -1.3383 -0.4911  0.8434
  403MOL0     H55561   2.459   1.578  10.773  0.1902  1.5311  0.2734
  403MOL0     H55562   2.415   1.680  10.912 -0.9442  3.2162 -3.0318
  403MOL0     H55563   2.460   1.303  10.812 -0.8698 -1.4268  0.8095
  403MOL0     H55564   2.617   1.142  11.081  0.2070 -2.0058  0.7704
  403MOL0     H55565   2.508   1.072  10.957  0.1660  0.4226  0.3588
  403MOL0     H55566   2.514   0.993  11.197  3.1792  4.0515  1.7799
  403MOL0     H55567   2.423   1.139  11.229  2.6653  1.5418 -0.8160
  403MOL0     H55568   2.279   1.065  11.021  0.2184 -0.0152 -1.1743
  403MOL0     H55569   2.370   0.907  11.030 -1.2816 -0.8314  0.3319
  403MOL0     H55570   2.258   0.823  11.203  0.1715 -0.3086  1.8917
  403MOL0     H55571   2.216   0.992  11.266 -0.0578 -1.0188  0.2016
  403MOL0     H55572   2.270   0.716  11.015  0.5657 -1.1742 -1.5362
  403MOL0     H55573   2.295   0.575  10.700  1.2843 -0.9971 -0.2752
  403MOL0     H55574   2.211   0.458  10.799  0.0144  0.1433 -1.8027
  403MOL0     H55575   2.348   0.549  10.865 -2.3115  0.5850  2.5957
  403MOL0     H55576   1.640   0.507  10.584  2.6744  1.1502  2.2322
  403MOL0     H55577   1.575   0.298  10.463 -0.2978  0.4125 -1.8780
  403MOL0     H55578   1.805  -0.044  10.391 -1.5142 -1.6348 -0.1513
  403MOL0     H55579   1.725   0.038  10.521  0.8732  0.3715 -0.1435
  403MOL0     H55580   1.511   0.027  10.355 -0.5479 -0.6689  2.1372
  403MOL0     H55581   1.590  -0.123  10.297 -4.4067 -2.0424  0.1063
  403MOL0     H55582   1.413  -0.148  10.463  0.3663 -0.4876 -1.0224
  403MOL0     H55583   1.518  -0.072  10.590  1.5404 -2.1559  0.6697
  403MOL0     H55584   1.693  -0.243  10.530 -0.0895  0.0879 -0.5909
  403MOL0     H55585   1.573  -0.309  10.414  2.9857 -1.5860 -0.5415
  403MOL0     H55586   1.578  -0.446  10.634  1.6469  1.2592 -0.6907
  403MOL0     H55587   1.560  -0.294  10.723 -1.0488 -1.4521  1.1158
  403MOL0     H55588   1.349  -0.378  10.521  0.7001  0.7791 -0.2533
  403MOL0     H55589   1.312  -0.285  10.658 -1.6402 -0.3559  1.6711
  403MOL0     H55590   1.356  -0.468  10.813 -0.2563  0.2065 -0.4547
  403MOL0     H55591   1.401  -0.567  10.679 -0.1491  1.7427 -3.3460
  403MOL0     H55592   1.177  -0.577  10.586  0.0118  0.6213 -0.6674
  403MOL0     H55593   1.120  -0.448  10.690 -0.5346 -0.3973  0.6611
  403MOL0     H55594   1.971   0.177  10.408 -2.9282 -2.6706 -0.3919
  403MOL0     H55595   2.043   0.365  10.566  1.9137  1.8191 -4.5064
  403MOL0     H55596   1.842   0.782  10.769  0.5713 -1.2405 -2.7803
  403MOL0     H55597   1.900   0.921  10.983 -1.6275 -1.3803 -0.9606
  403MOL0     H55598   2.529   1.572   9.884  1.9561 -0.4511 -1.6798
  403MOL0     H55599   2.522   1.631   9.646  0.5247 -1.4531  1.5612
  403MOL0     H55600   2.454   1.776   9.325 -0.8202 -1.4309 -2.0845
  403MOL0     H55601   2.435   1.745   9.080  0.4280  1.9371 -1.0960
  403MOL0     H55602   2.721   1.718   8.737  2.8191 -0.4811  0.2144
  403MOL0     H55603   2.785   1.641   8.880  1.7582  0.8489 -1.4433
  403MOL0     H55604   2.507   1.574   8.780  0.0424 -0.8297 -1.6064
  403MOL0     H55605   2.587   1.506   8.927  3.4380 -0.4051  0.4581
  403MOL0     H55606   2.696   1.469   8.645  1.1102  1.4962  0.8695
  403MOL0     H55607   2.770   1.407   8.792 -0.5396  0.3150  0.8103
  403MOL0     H55608   2.487   1.318   8.781 -0.2015 -1.9849 -0.5537
  403MOL0     H55609   2.621   1.237   8.827 -0.3754 -4.7657 -3.4788
  403MOL0     H55610   2.582   1.091   8.453  0.1244 -0.0523  0.1416
  403MOL0     H55611   2.838   1.842   9.033  1.8516 -1.8261  1.2999
  403MOL0     H55612   2.975   1.874   9.198  1.4026 -2.7401  2.9401
  403MOL0     H55613   2.925   1.989   9.318  2.6585 -1.8159  5.2234
  403MOL0     H55614   2.950   1.820   9.360  3.2428  0.0543 -1.8727
  404MOL0     O55615   8.467   0.978   3.334 -0.1280  0.2038 -0.2777
  404MOL0     C55616   8.523   1.071   3.395 -0.9962  0.3743  0.3336
  404MOL0     O55617   8.588   1.173   3.329 -0.2965  0.0316 -0.3516
  404MOL0     C55618   8.566   1.200   3.200 -0.2569 -0.6107 -0.2203
  404MOL0     C55619   8.668   1.272   3.129  0.1888 -0.2530  0.4450
  404MOL0     C55620   8.631   1.319   3.001  0.3143 -0.1026  0.2150
  404MOL0     C55621   8.517   1.275   2.929  0.2915  0.0913  0.4975
  404MOL0     O55622   8.497   1.312   2.792  0.9866  0.0410 -0.5511
  404MOL0     C55623   8.544   1.225   2.697 -0.6730 -0.2323  0.4111
  404MOL0     C55624   8.428   1.150   2.624  0.0024  0.4894  1.4582
  404MOL0     C55625   8.493   1.052   2.517  0.3582 -0.0462 -0.0300
  404MOL0     C55626   8.515   1.091   2.369  0.1382 -0.2543  0.2863
  404MOL0     C55627   8.624   0.994   2.309  0.4455  0.5933 -0.2291
  404MOL0     C55628   8.569   0.880   2.222  0.4676 -0.3992  0.2550
  404MOL0     C55629   8.501   0.927   2.095 -0.1926 -0.2674 -0.3838
  404MOL0     C55630   8.371   0.850   2.065 -0.2828  1.0629  0.4355
  404MOL0     N55631   8.338   0.859   1.922 -0.2164  0.0530 -1.6471
  404MOL0     C55632   8.249   0.950   1.871  0.4018 -0.7373  0.2454
  404MOL0     C55633   8.259   0.944   1.736 -0.2339 -0.6829  0.7247
  404MOL0     C55634   8.161   1.004   1.643 -0.0635  0.6561 -0.4410
  404MOL0     C55635   8.030   0.920   1.623  0.1561  1.3145 -0.3277
  404MOL0     C55636   8.061   0.788   1.542 -0.2601  0.7287 -0.4437
  404MOL0     C55637   7.940   0.686   1.555  0.4879 -0.3385  0.7626
  404MOL0     O55638   7.832   0.723   1.468  0.5871 -0.3911  0.1575
  404MOL0     C55639   7.819   0.718   1.335  0.6131  0.1593 -0.4878
  404MOL0     C55640   7.700   0.770   1.279  0.3424  0.2294  0.0052
  404MOL0     C55641   7.672   0.777   1.138  1.0664  0.3787 -0.2557
  404MOL0     C55642   7.536   0.828   1.094 -1.2470  0.8279 -0.6463
  404MOL0     C55643   7.782   0.740   1.057 -0.5896 -0.3993  0.0681
  404MOL0     C55644   7.792   0.766   0.910  0.1010 -1.1215 -0.3531
  404MOL0     O55645   7.702   0.728   0.818  0.3536 -0.4492 -0.3610
  404MOL0     C55646   7.616   0.627   0.845  0.4202 -0.0290  0.3265
  404MOL0     C55647   7.657   0.496   0.865 -0.6356 -0.9556 -0.3638
  404MOL0     C55648   7.581   0.379   0.866  1.2143 -0.4028  0.0126
  404MOL0     C55649   7.438   0.398   0.845 -0.3089  0.8123  0.7196
  404MOL0     O55650   7.359   0.280   0.832 -0.2879  0.1544 -0.2051
  404MOL0     C55651   7.220   0.296   0.808  1.1163 -0.2579  0.7597
  404MOL0     C55652   7.141   0.158   0.813  0.4188  0.6000 -0.1620
  404MOL0     C55653   7.121   0.079   0.950 -0.6594  0.1227 -0.1231
  404MOL0     C55654   7.086  -0.062   0.927  0.9858 -1.1451  0.3878
  404MOL0     C55655   7.098  -0.146   1.054 -0.9272 -0.7371 -0.3737
  404MOL0     C55656   6.993  -0.115   1.161 -0.1022 -0.6371  0.5748
  404MOL0     C55657   7.043  -0.185   1.291  0.6623 -0.2458  0.0183
  404MOL0     C55658   6.960  -0.176   1.411  1.0772  0.9988  0.0806
  404MOL0    Cl55659   6.888  -0.007   1.418  0.2360  0.3831 -0.4647
  404MOL0     C55660   7.393   0.525   0.810 -0.2509 -1.0536 -0.6427
  404MOL0     C55661   7.478   0.636   0.819 -0.3495  0.5219  0.1893
  404MOL0     O55662   7.890   0.826   0.878 -0.5706  0.5946 -0.1056
  404MOL0     C55663   7.905   0.696   1.111  0.3703  0.2089  0.1136
  404MOL0     C55664   7.914   0.674   1.251  0.7898  0.0058 -0.1727
  404MOL0     N55665   8.358   0.851   1.705 -0.5655  0.6200  0.3822
  404MOL0     N55666   8.394   0.797   1.819 -0.2352  0.5221 -0.4467
  404MOL0     C55667   8.421   1.195   2.989  0.6466 -0.8515 -0.1841
  404MOL0     C55668   8.440   1.173   3.134  0.1129 -0.3447  0.5420
  404MOL0     C55669   8.526   1.061   3.538  0.7505 -0.4012 -0.2278
  404MOL0     C55670   8.564   1.180   3.609  0.0572 -0.5039 -0.0859
  404MOL0     C55671   8.560   1.190   3.749  0.7021 -0.4976  0.1103
  404MOL0     C55672   8.529   1.079   3.833 -0.1019  0.3654  1.0554
  404MOL0     O55673   8.513   1.109   3.965 -0.2075 -0.4879  0.4623
  404MOL0     C55674   8.435   1.018   4.044 -0.1580  0.7227  0.5417
  404MOL0     C55675   8.415   1.085   4.177 -0.5725  0.3292  0.6382
  404MOL0     C55676   8.328   1.210   4.160 -0.1480  0.1953 -1.1646
  404MOL0     C55677   8.320   1.268   4.301  0.9254 -0.2326 -1.1397
  404MOL0     C55678   8.191   1.336   4.323 -0.8530  1.2385  0.0541
  404MOL0     C55679   8.083   1.376   4.355  0.4783  0.7689 -1.1276
  404MOL0     C55680   8.501   0.959   3.765  0.0166  0.3714 -0.2705
  404MOL0     C55681   8.488   0.953   3.625  0.1487  0.4220  0.1240
  404MOL0     C55682   8.424   0.827   3.571  0.1769 -0.5026 -0.8230
  404MOL0     H55683   8.761   1.294   3.180 -0.8275  1.4166  1.7277
  404MOL0     H55684   8.707   1.382   2.955  0.9538 -0.9352  0.1014
  404MOL0     H55685   8.609   1.164   2.760 -0.2922  2.0389  2.3700
  404MOL0     H55686   8.609   1.275   2.625 -1.5168  2.0574  1.1380
  404MOL0     H55687   8.369   1.088   2.692  3.3270 -4.0282  0.7369
  404MOL0     H55688   8.362   1.221   2.573  0.7917 -1.1105 -2.0323
  404MOL0     H55689   8.589   1.026   2.562  0.8672  1.8820  0.0655
  404MOL0     H55690   8.432   0.961   2.510  1.0165 -0.5462  0.5719
  404MOL0     H55691   8.418   1.084   2.320 -0.7789 -1.7713  2.1799
  404MOL0     H55692   8.556   1.192   2.364 -0.4466 -0.0667 -1.1423
  404MOL0     H55693   8.678   0.951   2.394 -1.2690  1.7114  1.5290
  404MOL0     H55694   8.689   1.053   2.244 -2.1594  2.1450 -1.6321
  404MOL0     H55695   8.653   0.828   2.175 -0.0868  0.2133 -1.5075
  404MOL0     H55696   8.506   0.810   2.277  1.8990  0.0944  2.6923
  404MOL0     H55697   8.576   0.924   2.015  1.9268 -2.7420  1.5359
  404MOL0     H55698   8.451   1.024   2.108 -2.6647 -1.8840  4.0335
  404MOL0     H55699   8.388   0.747   2.098 -0.9985  0.1154 -1.9946
  404MOL0     H55700   8.284   0.884   2.122 -0.6274  2.3625 -0.8220
  404MOL0     H55701   8.186   1.019   1.925 -1.8513 -1.9774 -0.6549
  404MOL0     H55702   8.208   1.006   1.544  0.8673  0.5441 -0.0046
  404MOL0     H55703   8.132   1.105   1.673 -1.7976  0.5186 -1.5285
  404MOL0     H55704   7.972   0.891   1.711  0.6130  2.1474  0.2591
  404MOL0     H55705   7.962   0.987   1.568 -1.8984  2.0117  2.7712
  404MOL0     H55706   8.081   0.808   1.436  0.6357 -1.1162 -0.6608
  404MOL0     H55707   8.148   0.731   1.577  0.1511  1.1122 -0.8312
  404MOL0     H55708   7.977   0.585   1.534 -1.0112 -0.7520 -0.0306
  404MOL0     H55709   7.902   0.686   1.657 -2.6406  2.6442 -0.2419
  404MOL0     H55710   7.631   0.804   1.356  1.0702 -5.7140  3.9543
  404MOL0     H55711   7.496   0.911   1.153 -0.7042 -0.2521  1.3359
  404MOL0     H55712   7.464   0.746   1.096  0.7227 -1.0219 -0.9457
  404MOL0     H55713   7.545   0.857   0.990  4.0707 -4.1591 -2.1204
  404MOL0     H55714   7.764   0.480   0.881 -0.7949 -0.4011  1.5239
  404MOL0     H55715   7.608   0.279   0.900 -1.5719 -0.3204  2.9073
  404MOL0     H55716   7.187   0.353   0.895  0.6900 -2.4605  2.1229
  404MOL0     H55717   7.204   0.350   0.715  1.1178  0.9229  1.4239
  404MOL0     H55718   7.043   0.156   0.764  0.7263 -0.0233 -0.7604
  404MOL0     H55719   7.198   0.099   0.741  1.0796  2.5409 -1.3005
  404MOL0     H55720   7.053   0.128   1.020  1.0347  0.4009  1.4055
  404MOL0     H55721   7.220   0.081   0.998  1.5512  1.9989 -4.1619
  404MOL0     H55722   7.155  -0.098   0.850 -0.5934  0.3537 -1.8703
  404MOL0     H55723   6.983  -0.080   0.894  1.2285 -0.8948 -0.5227
  404MOL0     H55724   7.104  -0.252   1.025 -0.6683 -0.3457 -1.8458
  404MOL0     H55725   7.198  -0.129   1.095 -1.0380 -1.2253  0.0984
  404MOL0     H55726   6.902  -0.160   1.119  0.5494 -0.6308 -0.9054
  404MOL0     H55727   6.981  -0.007   1.176  3.1299  0.1862 -1.8357
  404MOL0     H55728   7.141  -0.139   1.308  0.9965 -1.3701  1.3089
  404MOL0     H55729   7.058  -0.292   1.270  1.7799 -0.7635  2.9543
  404MOL0     H55730   7.022  -0.199   1.498  0.2052  1.3467  0.8083
  404MOL0     H55731   6.869  -0.236   1.408  1.3673  0.5743 -0.4270
  404MOL0     H55732   7.288   0.539   0.783 -1.4478  0.1548  3.7765
  404MOL0     H55733   7.447   0.728   0.769 -0.5188 -1.1102 -2.9972
  404MOL0     H55734   7.984   0.658   1.047 -2.0033 -1.3504 -2.0938
  404MOL0     H55735   8.003   0.621   1.284  1.4598  0.9194 -0.4588
  404MOL0     H55736   8.341   1.161   2.925  1.7157  2.5581 -3.7255
  404MOL0     H55737   8.365   1.131   3.200 -0.2367  2.3150  1.9551
  404MOL0     H55738   8.587   1.272   3.558 -1.1472 -1.0213 -1.6532
  404MOL0     H55739   8.577   1.285   3.798  2.2751 -0.9820  0.5611
  404MOL0     H55740   8.336   1.011   3.998 -0.1619  0.5389  0.5781
  404MOL0     H55741   8.483   0.920   4.054  2.3570  1.7200 -0.8196
  404MOL0     H55742   8.510   1.112   4.225 -0.9856  3.8798 -0.2322
  404MOL0     H55743   8.367   1.011   4.241 -0.8108  1.2533  1.5514
  404MOL0     H55744   8.367   1.275   4.081  0.8413  1.2248  0.1216
  404MOL0     H55745   8.229   1.178   4.128 -0.7277  1.3099 -0.5442
  404MOL0     H55746   8.408   1.333   4.302  0.8771 -0.1259 -2.2169
  404MOL0     H55747   8.329   1.196   4.383 -2.1811  1.9170  1.3298
  404MOL0     H55748   7.984   1.407   4.378  0.4565 -0.8140  1.1807
  404MOL0     H55749   8.479   0.869   3.822  0.8828 -0.0631 -0.6040
  404MOL0     H55750   8.495   0.770   3.511  0.4334  1.1101 -2.1053
  404MOL0     H55751   8.396   0.763   3.655 -0.7218  0.8259 -0.0643
  404MOL0     H55752   8.330   0.843   3.517  0.0567  1.4628 -0.0910
  405MOL0     O55753   0.417  10.419  11.209  0.4422  0.7781  0.6349
  405MOL0     C55754   0.397  10.516  11.276 -0.0993  0.1935  0.1247
  405MOL0     O55755   0.309  10.515  11.383 -0.0695  0.2606  0.7453
  405MOL0     C55756   0.307  10.405  11.469  0.2081 -0.6060 -0.0679
  405MOL0     C55757   0.264  10.279  11.434  0.0249  0.4361 -0.5462
  405MOL0     C55758   0.269  10.173  11.525  0.3104 -0.0989  0.0113
  405MOL0     C55759   0.297  10.184  11.661 -0.2545 -0.2397  0.9667
  405MOL0     O55760   0.299  10.074  11.747 -0.7285  0.7104  0.3220
  405MOL0     C55761   0.406   9.970  11.721  0.9953 -0.4908  0.1751
  405MOL0     C55762   0.388   9.862  11.841 -0.6268 -0.4915 -0.4092
  405MOL0     C55763   0.413   9.931  11.977 -0.4094  0.0429 -0.1426
  405MOL0     C55764   0.427   9.831  12.106  0.0969  1.1758  0.4434
  405MOL0     C55765   0.512   9.904  12.212 -0.6260  0.5003 -0.0851
  405MOL0     C55766   0.579   9.804  12.308  0.6179  0.5648  0.0118
  405MOL0     C55767   0.463   9.763  12.415 -0.4770  0.1066 -0.2226
  405MOL0     C55768   0.514   9.642  12.503  0.0156 -1.1661  0.3814
  405MOL0     N55769   0.549   9.511  12.430  0.0037 -0.1692 -0.3430
  405MOL0     C55770   0.453   9.433  12.368  0.2944 -0.1576 -0.3540
  405MOL0     C55771   0.528   9.325  12.330 -0.2645  0.1168  0.6228
  405MOL0     C55772   0.481   9.215  12.231  1.0432  0.1353 -0.1025
  405MOL0     C55773   0.495   9.075  12.289  0.0185 -0.3913 -0.3806
  405MOL0     C55774   0.552   8.978  12.187  0.3693 -0.3947 -0.3010
  405MOL0     C55775   0.457   8.935  12.078  0.4135  0.4269 -0.2668
  405MOL0     O55776   0.513   8.825  12.004  0.1600 -0.6448 -0.9000
  405MOL0     C55777   0.450   8.782  11.891 -0.5027  0.2201  0.1985
  405MOL0     C55778   0.531   8.709  11.809 -0.3639  0.4895  0.1795
  405MOL0     C55779   0.490   8.669  11.682 -1.6537  0.4461 -0.5444
  405MOL0     C55780   0.592   8.603  11.592  0.5657 -1.3453  0.3337
  405MOL0     C55781   0.353   8.678  11.654 -0.0892  0.0393  0.4529
  405MOL0     C55782   0.300   8.612  11.535  0.0923 -1.2312  1.3014
  405MOL0     O55783   0.166   8.567  11.550 -0.1952 -0.9032  0.7765
  405MOL0     C55784   0.085   8.547  11.438 -0.7812 -0.7655  0.4519
  405MOL0     C55785   0.108   8.455  11.337  0.0815 -0.6851  0.0140
  405MOL0     C55786   0.019   8.439  11.227 -0.5282 -0.6926 -0.6303
  405MOL0     C55787  -0.100   8.519  11.223  0.1262 -0.6338  0.0938
  405MOL0     O55788  -0.201   8.508  11.139  0.3967  0.2000 -0.0591
  405MOL0     C55789  -0.187   8.434  11.018 -0.6371  0.1696  0.1349
  405MOL0     C55790  -0.324   8.432  10.946  0.1227  0.2369 -0.3113
  405MOL0     C55791  -0.360   8.552  10.859 -0.6156 -0.0924  0.3818
  405MOL0     C55792  -0.293   8.688  10.912  0.9637 -0.3576 -0.5951
  405MOL0     C55793  -0.344   8.798  10.815  0.1825  0.3757 -0.6945
  405MOL0     C55794  -0.284   8.934  10.846 -0.6568 -0.1735  0.7530
  405MOL0     C55795  -0.320   9.027  10.730  0.1597  0.1069  0.2329
  405MOL0     C55796  -0.219   9.027  10.611  0.2610  0.5539  0.7830
  405MOL0    Cl55797  -0.262   9.121  10.470 -0.8104 -0.2136  0.0776
  405MOL0     C55798  -0.116   8.616  11.318 -0.1351  0.1710  0.8526
  405MOL0     C55799  -0.025   8.639  11.422 -0.6347  0.4582 -0.2144
  405MOL0     O55800   0.357   8.618  11.431  0.2611 -1.1648  0.4924
  405MOL0     C55801   0.264   8.746  11.735  0.1403  0.5120 -0.2575
  405MOL0     C55802   0.320   8.797  11.852 -0.0415 -0.7685 -0.1675
  405MOL0     N55803   0.655   9.331  12.367  0.3868  0.4039 -0.0715
  405MOL0     N55804   0.667   9.443  12.429  0.8144  0.0055  0.5018
  405MOL0     C55805   0.332  10.316  11.695  0.2345 -0.2800 -0.9005
  405MOL0     C55806   0.336  10.431  11.607 -0.1185  0.8722  0.7048
  405MOL0     C55807   0.451  10.647  11.233  0.7156  0.4706 -0.0782
  405MOL0     C55808   0.393  10.761  11.284  0.2288 -1.3373 -1.0261
  405MOL0     C55809   0.450  10.890  11.262 -0.4201  0.0281 -1.1484
  405MOL0     C55810   0.572  10.903  11.192 -0.3677  0.3123 -0.0489
  405MOL0     O55811   0.626  11.029  11.184  0.3500  0.1970  0.0700
  405MOL0     C55812   0.745  11.048  11.101 -0.6785 -0.1074 -0.0129
  405MOL0     C55813   0.770  11.201  11.105  0.8067  0.0775  0.2644
  405MOL0     C55814   0.663  11.284  11.035  0.4723  0.3570  0.0888
  405MOL0     C55815   0.716  11.415  10.993  0.7175 -1.2889 -0.1264
  405MOL0     C55816   0.602  11.507  10.954 -0.5363  0.1992 -0.2086
  405MOL0     C55817   0.513  11.590  10.918  0.3528 -0.6413 -0.6041
  405MOL0     C55818   0.618  10.791  11.122 -0.2652 -0.9973 -0.7047
  405MOL0     C55819   0.561  10.671  11.139 -0.2559  1.0776 -0.1415
  405MOL0     C55820   0.610  10.555  11.055 -0.7179  0.5175 -0.3712
  405MOL0     H55821   0.226  10.266  11.334  1.7535 -1.7977 -0.9890
  405MOL0     H55822   0.217  10.084  11.491 -1.4846  1.0533 -0.4100
  405MOL0     H55823   0.508  10.008  11.725  2.1066 -3.2520  0.5014
  405MOL0     H55824   0.379   9.917  11.629 -2.9575  0.2811  0.7083
  405MOL0     H55825   0.286   9.822  11.837  0.6760 -4.9651  3.1767
  405MOL0     H55826   0.453   9.777  11.817  1.8383  1.1455  0.1334
  405MOL0     H55827   0.499   9.997  11.961 -1.2699  1.5844  1.2531
  405MOL0     H55828   0.332  10.000  12.004 -1.7535 -1.1443 -1.0269
  405MOL0     H55829   0.333   9.790  12.144 -1.2670  1.8366 -1.9977
  405MOL0     H55830   0.479   9.739  12.076  2.2006  2.6704 -0.8191
  405MOL0     H55831   0.447   9.979  12.257  0.1611  2.7164 -2.4355
  405MOL0     H55832   0.597   9.960  12.172 -1.8594  1.4413 -1.4896
  405MOL0     H55833   0.619   9.721  12.249  1.0901  1.8496 -1.5395
  405MOL0     H55834   0.663   9.849  12.361 -0.0731 -0.1690  1.8410
  405MOL0     H55835   0.370   9.744  12.361  0.2598  0.3044 -1.6372
  405MOL0     H55836   0.448   9.844  12.487  0.0387 -2.1510  2.5908
  405MOL0     H55837   0.601   9.678  12.558  1.4334 -1.7181 -1.4131
  405MOL0     H55838   0.442   9.615  12.581 -0.3118 -1.9642 -0.1901
  405MOL0     H55839   0.349   9.460  12.353  1.5433  5.8235 -0.7262
  405MOL0     H55840   0.541   9.215  12.140 -0.7135 -2.9550 -1.4150
  405MOL0     H55841   0.376   9.235  12.206  1.5580  0.7813 -1.8975
  405MOL0     H55842   0.560   9.072  12.377  0.8403 -2.2982 -1.0051
  405MOL0     H55843   0.401   9.042  12.335 -0.6971 -0.4667 -1.8404
  405MOL0     H55844   0.647   9.010  12.143  1.6125 -1.6919  1.2904
  405MOL0     H55845   0.567   8.895  12.257  0.2001  1.0709  1.5406
  405MOL0     H55846   0.359   8.909  12.119  0.5866  0.4848  0.1888
  405MOL0     H55847   0.440   9.016  12.007  3.4261  1.1372 -0.2934
  405MOL0     H55848   0.631   8.691  11.847 -1.5684  0.7557  3.8391
  405MOL0     H55849   0.687   8.586  11.644  1.3277  1.3041 -0.0555
  405MOL0     H55850   0.619   8.677  11.516 -0.8296  0.0684  1.1378
  405MOL0     H55851   0.555   8.513  11.542  2.7431 -1.1469 -1.8271
  405MOL0     H55852   0.199   8.397  11.351  2.0630  1.9744 -0.9355
  405MOL0     H55853   0.044   8.362  11.154  2.2863  0.7959 -1.3781
  405MOL0     H55854  -0.104   8.466  10.955  2.6703 -2.3651  2.7790
  405MOL0     H55855  -0.172   8.326  11.034 -0.7591  0.1905  0.4096
  405MOL0     H55856  -0.322   8.350  10.874  1.1426  0.8820 -1.0496
  405MOL0     H55857  -0.409   8.421  11.014 -0.1377  1.4054 -0.4283
  405MOL0     H55858  -0.466   8.560  10.832 -0.7603 -0.1514  0.9240
  405MOL0     H55859  -0.308   8.534  10.764  3.5435  3.3516  1.6882
  405MOL0     H55860  -0.184   8.686  10.903  1.1737  2.1468  0.5390
  405MOL0     H55861  -0.335   8.711  11.010  0.6778  0.3209 -0.8675
  405MOL0     H55862  -0.325   8.771  10.711 -1.6381  3.0060 -1.8104
  405MOL0     H55863  -0.449   8.809  10.841 -0.4060 -1.0550 -2.2993
  405MOL0     H55864  -0.176   8.942  10.862 -0.6205  0.6534  0.1880
  405MOL0     H55865  -0.321   8.979  10.938  1.6982  2.3591  0.5941
  405MOL0     H55866  -0.341   9.131  10.755 -0.6013  0.1906 -0.6786
  405MOL0     H55867  -0.417   9.002  10.685 -0.2909  0.9854  0.6923
  405MOL0     H55868  -0.214   8.924  10.574 -3.2598 -0.2234  2.0255
  405MOL0     H55869  -0.118   9.056  10.641  0.0348  1.7398  0.4449
  405MOL0     H55870  -0.209   8.667  11.294 -1.7793 -2.1880  1.8638
  405MOL0     H55871  -0.052   8.721  11.489 -0.3946  0.9414 -0.7047
  405MOL0     H55872   0.166   8.779  11.702 -0.0179  0.4542  0.1548
  405MOL0     H55873   0.248   8.844  11.919  0.3091  0.9869 -0.9818
  405MOL0     H55874   0.344  10.327  11.803  1.1956 -1.5945 -0.8428
  405MOL0     H55875   0.347  10.533  11.640 -1.1445  1.7817 -1.5334
  405MOL0     H55876   0.317  10.771  11.362 -0.4602  1.6061 -1.9528
  405MOL0     H55877   0.419  10.986  11.301 -0.6293 -0.1579 -0.8478
  405MOL0     H55878   0.831  10.989  11.136 -0.2087  1.2557  1.2215
  405MOL0     H55879   0.723  11.010  11.001  3.4539 -1.1217 -0.7189
  405MOL0     H55880   0.867  11.204  11.054  0.6805  0.7906  0.0588
  405MOL0     H55881   0.777  11.227  11.211 -1.1807 -2.3851  1.1125
  405MOL0     H55882   0.628  11.232  10.945  1.4601  1.5196 -1.0122
  405MOL0     H55883   0.574  11.291  11.099 -0.8836 -4.3382 -0.8799
  405MOL0     H55884   0.771  11.394  10.901 -1.1128  1.0198 -1.8913
  405MOL0     H55885   0.771  11.477  11.064  0.0874 -2.7094  1.6716
  405MOL0     H55886   0.423  11.645  10.900  0.1090 -1.5127 -2.2079
  405MOL0     H55887   0.707  10.801  11.062 -0.9105 -0.2412 -1.5648
  405MOL0     H55888   0.627  10.464  11.113 -1.0153 -0.9029 -2.4213
  405MOL0     H55889   0.540  10.540  10.973 -0.4950 -3.0966 -0.0845
  405MOL0     H55890   0.708  10.573  11.009 -0.9334 -0.6216 -1.3208
  406MOL0     O55891   7.174   2.188  10.702  0.3230 -1.3336 -0.3311
  406MOL0     C55892   7.078   2.131  10.759 -0.4235 -0.7402  0.6352
  406MOL0     O55893   6.988   2.044  10.694 -1.1816 -0.5059 -0.0564
  406MOL0     C55894   7.037   2.010  10.576  0.3680  0.2799 -0.0496
  406MOL0     C55895   7.017   2.088  10.458 -0.1424 -0.4118  0.7204
  406MOL0     C55896   7.077   2.050  10.339 -0.5760 -0.4053  1.1517
  406MOL0     C55897   7.142   1.934  10.327  0.0029  0.3284  0.1272
  406MOL0     O55898   7.185   1.891  10.201  0.3108 -0.1794  0.7530
  406MOL0     C55899   7.300   1.804  10.208  0.1985 -0.0766  0.0554
  406MOL0     C55900   7.428   1.869  10.276  0.2870  0.4619  0.4732
  406MOL0     C55901   7.460   2.013  10.244  0.8956 -0.4181 -1.0235
  406MOL0     C55902   7.487   2.042  10.098 -0.5893  0.1078  0.0980
  406MOL0     C55903   7.433   2.186  10.067  0.7281 -0.3226  0.1860
  406MOL0     C55904   7.506   2.294  10.149  0.1376 -0.5363 -0.0626
  406MOL0     C55905   7.484   2.438  10.109  0.1085  0.2827  0.3251
  406MOL0     C55906   7.574   2.539  10.187 -0.9262 -0.0111  0.0355
  406MOL0     N55907   7.714   2.488  10.194 -0.2819 -0.0671 -0.4170
  406MOL0     C55908   7.783   2.462  10.306 -0.1672  0.3942 -0.0385
  406MOL0     C55909   7.911   2.433  10.267  0.9185 -0.2177  0.5496
  406MOL0     C55910   8.017   2.395  10.368  0.0335 -0.0189  0.1346
  406MOL0     C55911   8.163   2.398  10.306  0.6241 -0.2916 -0.1718
  406MOL0     C55912   8.276   2.411  10.413  1.0074  0.5474 -0.5695
  406MOL0     C55913   8.415   2.408  10.349  0.4136 -0.4112  0.3009
  406MOL0     O55914   8.421   2.439  10.204  0.9555  0.3502 -0.3889
  406MOL0     C55915   8.508   2.367  10.124  0.0130 -0.0236 -0.2240
  406MOL0     C55916   8.619   2.296  10.174 -0.5008 -0.5832  0.0781
  406MOL0     C55917   8.710   2.239  10.084  0.5211 -0.0847  0.3534
  406MOL0     C55918   8.849   2.200  10.133  0.3741 -0.1818  0.6538
  406MOL0     C55919   8.679   2.221   9.946  0.1361 -1.0295  0.4243
  406MOL0     C55920   8.767   2.171   9.836 -0.7764  0.1776  0.7025
  406MOL0     O55921   8.708   2.134   9.723 -0.0552 -0.6674  0.1312
  406MOL0     C55922   8.792   2.117   9.606 -0.6049  0.0905 -0.3824
  406MOL0     C55923   8.813   2.205   9.501  0.1036 -0.9420 -0.0358
  406MOL0     C55924   8.907   2.170   9.397  0.8348  0.2746  0.1007
  406MOL0     C55925   8.951   2.045   9.373 -0.2303  1.4284 -0.0687
  406MOL0     O55926   8.994   2.015   9.248  0.3401 -0.0397 -0.1587
  406MOL0     C55927   9.017   1.876   9.220 -0.2336 -0.6303 -0.4574
  406MOL0     C55928   9.105   1.860   9.093 -0.4219  0.1181 -0.3581
  406MOL0     C55929   9.153   1.726   9.048  0.0814 -0.5822  0.6299
  406MOL0     C55930   9.241   1.657   9.157 -1.0060 -0.7041  0.0962
  406MOL0     C55931   9.169   1.550   9.242 -0.7679  0.1081 -1.2357
  406MOL0     C55932   9.126   1.429   9.158  0.9108 -0.8898 -0.4816
  406MOL0     C55933   9.089   1.302   9.236  0.1865  0.7296 -0.6864
  406MOL0     C55934   9.042   1.203   9.139  0.3139  0.2896 -0.5563
  406MOL0    Cl55935   8.875   1.242   9.090  0.2771 -0.3542  0.0665
  406MOL0     C55936   8.914   1.955   9.481  0.7316 -0.2266 -0.4735
  406MOL0     C55937   8.846   1.990   9.594 -0.6901  0.3078  0.2261
  406MOL0     O55938   8.894   2.165   9.856  0.4573  0.7275 -0.4838
  406MOL0     C55939   8.568   2.293   9.900  0.6889  0.0384  0.4992
  406MOL0     C55940   8.491   2.368   9.983  0.6986  1.5642 -0.4460
  406MOL0     N55941   7.913   2.449  10.135 -0.1735  0.1824 -0.1123
  406MOL0     N55942   7.803   2.489  10.094  0.3190 -0.5524  0.4091
  406MOL0     C55943   7.148   1.843  10.441  0.2234  0.1358  0.5879
  406MOL0     C55944   7.097   1.886  10.565 -0.7309 -0.2421 -0.1607
  406MOL0     C55945   7.036   2.166  10.895  0.2885  0.0337  0.6594
  406MOL0     C55946   6.916   2.107  10.942  0.9395  0.0763 -0.0924
  406MOL0     C55947   6.868   2.132  11.071  1.0455  0.6857  0.8275
  406MOL0     C55948   6.932   2.214  11.156  0.6435 -0.3433  0.0384
  406MOL0     O55949   6.866   2.207  11.283 -0.4187  0.4025 -0.3767
  406MOL0     C55950   6.944   2.261  11.396 -0.4776  1.1141  0.5126
  406MOL0     C55951   7.017   2.161  11.476  0.3105  0.0939 -0.3417
  406MOL0     C55952   6.950   2.108  11.603  0.7718  0.0635 -0.3925
  406MOL0     C55953   7.026   2.021  11.697 -0.4009 -0.3682  0.3303
  406MOL0     C55954   7.134   2.100  11.757 -1.0976 -0.2516 -1.1231
  406MOL0     C55955   7.243   2.154  11.791  0.5060 -0.3478  0.0674
  406MOL0     C55956   7.034   2.288  11.104 -0.1683 -0.5760 -0.2284
  406MOL0     C55957   7.094   2.271  10.974  0.1172  0.6620  0.3942
  406MOL0     C55958   7.225   2.351  10.934 -0.4386  0.9957  0.0229
  406MOL0     H55959   6.972   2.182  10.488  2.6699  0.7003  1.6810
  406MOL0     H55960   7.061   2.124  10.261 -0.4580 -0.7014  0.8432
  406MOL0     H55961   7.317   1.783  10.102  3.3184  0.2526  0.3981
  406MOL0     H55962   7.276   1.709  10.256  0.4334 -0.3987 -0.4500
  406MOL0     H55963   7.414   1.841  10.381 -3.0418  1.6606  0.4555
  406MOL0     H55964   7.516   1.811  10.244 -0.6501  0.8117 -3.2178
  406MOL0     H55965   7.373   2.073  10.273  1.7797  0.4248 -0.0210
  406MOL0     H55966   7.546   2.038  10.307 -0.8779 -1.2946  1.9460
  406MOL0     H55967   7.594   2.030  10.082 -0.4911 -1.3063  1.5345
  406MOL0     H55968   7.426   1.976  10.035  0.6221  0.3568 -1.3768
  406MOL0     H55969   7.329   2.205  10.096  1.3448  0.0319  2.3688
  406MOL0     H55970   7.458   2.203   9.962  2.6707 -3.0258  0.1109
  406MOL0     H55971   7.487   2.275  10.255  0.0664  2.7272  0.6014
  406MOL0     H55972   7.613   2.281  10.131  0.5979  2.4973  0.1064
  406MOL0     H55973   7.379   2.462  10.128 -0.5907 -3.2679  1.7087
  406MOL0     H55974   7.509   2.440  10.003  1.8329 -2.3504  0.5951
  406MOL0     H55975   7.574   2.636  10.136  0.2799 -0.4256 -0.7996
  406MOL0     H55976   7.539   2.566  10.288  0.1850  1.7013  0.0063
  406MOL0     H55977   7.732   2.459  10.402  1.8328 -0.3916  1.0595
  406MOL0     H55978   8.001   2.290  10.393 -1.2914  0.4091  1.2017
  406MOL0     H55979   8.008   2.454  10.459  1.1837  4.9207 -2.5973
  406MOL0     H55980   8.176   2.304  10.252 -3.2210 -1.7907  1.1935
  406MOL0     H55981   8.172   2.488  10.244  0.5153 -1.0320 -1.2770
  406MOL0     H55982   8.261   2.504  10.468  2.3126 -0.3784  1.4644
  406MOL0     H55983   8.282   2.338  10.495  0.2930 -0.4206 -1.3493
  406MOL0     H55984   8.473   2.489  10.394  0.7256 -0.7281  0.4789
  406MOL0     H55985   8.460   2.309  10.361 -0.2664 -0.5204  2.2723
  406MOL0     H55986   8.642   2.286  10.280  0.9996  3.0378  0.2522
  406MOL0     H55987   8.867   2.092  10.128  3.5570  0.2979 -2.4987
  406MOL0     H55988   8.872   2.213  10.239  1.9246  0.8056  0.2343
  406MOL0     H55989   8.924   2.255  10.076 -1.3172  1.2329 -0.3310
  406MOL0     H55990   8.778   2.308   9.505  2.2880  0.0200 -2.5422
  406MOL0     H55991   8.918   2.249   9.323  2.2531 -1.4151 -1.6216
  406MOL0     H55992   9.080   1.828   9.295  2.3256 -0.4738 -2.3895
  406MOL0     H55993   8.928   1.819   9.193 -1.2807 -0.0916  1.6663
  406MOL0     H55994   9.054   1.906   9.008  0.5275  0.4535 -0.7529
  406MOL0     H55995   9.190   1.923   9.120  0.3457 -0.9121 -0.2903
  406MOL0     H55996   9.204   1.743   8.952 -1.3817 -0.4681 -0.1590
  406MOL0     H55997   9.060   1.674   9.027 -1.2139  2.3042 -1.4454
  406MOL0     H55998   9.290   1.734   9.216 -1.5903 -0.2285 -0.0247
  406MOL0     H55999   9.319   1.593   9.115 -1.7095 -1.5377  0.0172
  406MOL0     H56000   9.230   1.520   9.328 -1.0558  0.3580 -0.9457
  406MOL0     H56001   9.081   1.606   9.274 -0.7146  0.6801 -2.0518
  406MOL0     H56002   9.213   1.407   9.095  2.3447  0.2474  1.0261
  406MOL0     H56003   9.043   1.453   9.091 -0.8760  0.2348  2.0097
  406MOL0     H56004   9.020   1.322   9.318  1.4736 -1.4649  1.0691
  406MOL0     H56005   9.180   1.255   9.276 -1.0606 -2.1646 -1.0092
  406MOL0     H56006   9.048   1.106   9.188 -1.2092 -0.5490 -1.9606
  406MOL0     H56007   9.105   1.198   9.050 -0.7822  1.1874 -1.4110
  406MOL0     H56008   8.964   1.859   9.481  1.5523  0.0615  2.6997
  406MOL0     H56009   8.819   1.919   9.672 -2.1989  2.3538  1.6889
  406MOL0     H56010   8.529   2.292   9.799  0.7614 -0.0855  0.4725
  406MOL0     H56011   8.407   2.416   9.934  1.1110  1.0336 -1.7088
  406MOL0     H56012   7.200   1.749  10.428  0.7312  0.5670 -0.6216
  406MOL0     H56013   7.107   1.816  10.648 -1.1464 -0.3367 -0.1903
  406MOL0     H56014   6.860   2.028  10.893  1.5536 -0.4815  0.0848
  406MOL0     H56015   6.786   2.070  11.109 -0.6041  1.9026 -0.5701
  406MOL0     H56016   7.012   2.339  11.361  0.6731 -0.5716 -1.2033
  406MOL0     H56017   6.871   2.306  11.465 -1.1066  1.3268 -0.2685
  406MOL0     H56018   7.100   2.220  11.514  0.9136  0.3021 -1.9501
  406MOL0     H56019   7.049   2.076  11.415 -1.8640  2.1469 -4.7532
  406MOL0     H56020   6.912   2.191  11.664  1.9899 -0.6662  1.4308
  406MOL0     H56021   6.868   2.049  11.560  3.4507 -3.8321 -0.6611
  406MOL0     H56022   7.059   1.938  11.633 -1.7915 -1.7545  1.3510
  406MOL0     H56023   6.967   1.987  11.782 -1.4654 -0.2076 -0.3343
  406MOL0     H56024   7.328   2.212  11.822  0.5785 -0.2213 -0.3678
  406MOL0     H56025   7.080   2.362  11.169 -2.2929 -0.2984  1.0397
  406MOL0     H56026   7.268   2.419  11.008 -0.2652  0.0517  0.8075
  406MOL0     H56027   7.296   2.274  10.902 -0.0457  0.8458  1.1901
  406MOL0     H56028   7.202   2.404  10.841 -3.1059 -0.8407 -0.4663
  407MOL0     O56029   3.000   9.041   2.029  0.4322  0.6087  0.3097
  407MOL0     C56030   2.939   9.045   1.924 -1.0226 -0.0193 -0.0557
  407MOL0     O56031   2.805   9.021   1.912 -0.9529 -0.1453 -0.2455
  407MOL0     C56032   2.717   9.040   2.013 -0.8624 -0.1428  0.1452
  407MOL0     C56033   2.710   8.960   2.131  0.8500  0.1043 -0.2286
  407MOL0     C56034   2.601   8.962   2.214 -0.0526 -0.3601  0.4091
  407MOL0     C56035   2.506   9.072   2.209 -0.6693 -0.0905 -0.6277
  407MOL0     O56036   2.405   9.072   2.292  0.1645 -0.6901  0.0691
  407MOL0     C56037   2.315   9.185   2.293  0.3393  0.1276  0.0954
  407MOL0     C56038   2.189   9.171   2.377  0.3656  0.2386  0.6107
  407MOL0     C56039   2.208   9.167   2.524  0.3200  0.7075 -0.5425
  407MOL0     C56040   2.272   9.035   2.571  0.4433 -0.6468 -1.0366
  407MOL0     C56041   2.283   9.022   2.719 -0.2624 -0.4210 -0.2404
  407MOL0     C56042   2.392   9.126   2.773  0.0700  0.6046  0.9087
  407MOL0     C56043   2.430   9.102   2.916  0.1182 -0.3530 -0.7984
  407MOL0     C56044   2.321   9.094   3.016 -0.3858  0.6117  0.3194
  407MOL0     N56045   2.356   9.050   3.143 -0.4952  0.2734 -0.3757
  407MOL0     C56046   2.479   9.049   3.204  0.4486  0.0051  0.4095
  407MOL0     C56047   2.462   8.995   3.323  1.3566  0.9226 -0.0768
  407MOL0     C56048   2.571   8.974   3.418 -0.6030  0.6204 -0.2887
  407MOL0     C56049   2.683   8.882   3.367 -0.6401 -0.0814 -0.0871
  407MOL0     C56050   2.799   8.884   3.475  0.1266 -0.5339  0.3345
  407MOL0     C56051   2.763   8.848   3.626 -0.5919 -0.6497  0.3915
  407MOL0     O56052   2.875   8.856   3.701 -0.0308  0.3268 -0.6699
  407MOL0     C56053   2.856   8.844   3.839 -0.6749 -0.7636 -1.0288
  407MOL0     C56054   2.974   8.842   3.908  0.6575  0.3048  0.2280
  407MOL0     C56055   2.983   8.852   4.050  0.1755  0.1047 -0.7457
  407MOL0     C56056   3.120   8.855   4.107 -0.3951 -0.6789  0.1985
  407MOL0     C56057   2.861   8.849   4.119  0.2996 -1.2521 -0.5826
  407MOL0     C56058   2.849   8.839   4.270  0.1933  1.3422 -0.5281
  407MOL0     O56059   2.718   8.837   4.323 -0.0736 -0.7794  0.3311
  407MOL0     C56060   2.709   8.829   4.460  0.4452  1.6377  0.1298
  407MOL0     C56061   2.673   8.938   4.536 -0.4563  0.3404 -0.7558
  407MOL0     C56062   2.644   8.926   4.675 -0.0822 -0.1050 -0.0622
  407MOL0     C56063   2.648   8.793   4.733  0.1681 -1.0428 -0.6201
  407MOL0     O56064   2.612   8.771   4.869  0.2094 -0.1840  0.5834
  407MOL0     C56065   2.689   8.841   4.973 -0.0989 -0.1036 -0.6197
  407MOL0     C56066   2.651   8.771   5.107  0.2387 -0.4670  0.8171
  407MOL0     C56067   2.712   8.831   5.230 -0.0258 -0.2061 -0.0389
  407MOL0     C56068   2.646   8.786   5.352 -0.0512  0.7029 -0.5582
  407MOL0     C56069   2.702   8.843   5.479 -0.1598 -0.0468  0.6975
  407MOL0     C56070   2.613   8.801   5.613  0.6796 -0.4042 -0.0037
  407MOL0     C56071   2.673   8.847   5.748  0.5384 -0.2206 -0.3470
  407MOL0     C56072   2.676   9.000   5.760 -0.3182 -0.3696  0.3573
  407MOL0    Cl56073   2.683   9.048   5.933  0.0387 -0.2643  0.3141
  407MOL0     C56074   2.670   8.685   4.650 -0.3908  0.0809  0.4214
  407MOL0     C56075   2.701   8.702   4.515 -0.0396 -0.4495  0.1737
  407MOL0     O56076   2.949   8.829   4.342  0.6200 -0.0310  0.2264
  407MOL0     C56077   2.743   8.849   4.052 -0.3988 -0.3274  0.0209
  407MOL0     C56078   2.736   8.851   3.916  0.0959 -0.2804 -0.1460
  407MOL0     N56079   2.329   8.952   3.340  0.5129  0.0506 -0.4736
  407MOL0     N56080   2.263   8.985   3.231 -0.5302  0.8159  0.0240
  407MOL0     C56081   2.512   9.147   2.101 -0.6347 -0.7230  0.3771
  407MOL0     C56082   2.617   9.139   2.000  0.6768  0.2359 -0.2184
  407MOL0     C56083   3.015   9.054   1.796  0.7106  0.3055  0.6558
  407MOL0     C56084   2.967   8.969   1.694 -0.7252  0.0062 -0.3644
  407MOL0     C56085   3.033   8.965   1.573  0.2721 -0.3579 -0.6165
  407MOL0     C56086   3.139   9.055   1.541  0.4193 -0.1237  0.4426
  407MOL0     O56087   3.200   9.056   1.414 -0.1798 -0.1498  0.1514
  407MOL0     C56088   3.177   8.950   1.321 -0.0651  0.1115  0.2321
  407MOL0     C56089   3.224   8.991   1.184 -0.1804 -0.3492 -0.7275
  407MOL0     C56090   3.384   9.008   1.169 -0.1965  0.4056 -0.3922
  407MOL0     C56091   3.457   8.889   1.115  0.1980 -0.0053 -0.2430
  407MOL0     C56092   3.455   8.773   1.209  0.1374  1.2691  0.3874
  407MOL0     C56093   3.460   8.688   1.295  0.3056 -0.6500 -0.4864
  407MOL0     C56094   3.196   9.124   1.648  0.8696 -0.2081  0.3592
  407MOL0     C56095   3.133   9.127   1.771 -0.5675  0.3185  0.5093
  407MOL0     C56096   3.194   9.211   1.872  0.8038  1.0813 -0.3172
  407MOL0     H56097   2.780   8.878   2.150 -1.0705 -0.9629  2.9759
  407MOL0     H56098   2.595   8.892   2.297  1.7509 -1.9910 -0.7302
  407MOL0     H56099   2.272   9.179   2.192  0.1955  0.0750  0.1603
  407MOL0     H56100   2.371   9.275   2.320  6.2135 -2.9546 -0.4178
  407MOL0     H56101   2.120   9.250   2.346  0.9107  1.8301  3.1907
  407MOL0     H56102   2.155   9.076   2.334  1.3551  0.9507 -1.9757
  407MOL0     H56103   2.273   9.248   2.562  0.4385 -0.5155  2.0957
  407MOL0     H56104   2.110   9.174   2.572  0.3895 -0.4780 -0.2071
  407MOL0     H56105   2.189   8.966   2.553  0.4697 -1.2835  1.0761
  407MOL0     H56106   2.357   8.995   2.515 -1.1101 -2.0721 -2.4985
  407MOL0     H56107   2.311   8.918   2.738 -3.3769 -1.0252  1.7697
  407MOL0     H56108   2.188   9.040   2.771 -1.3777 -3.2159 -1.1458
  407MOL0     H56109   2.483   9.123   2.712 -0.1153  0.8671  0.6128
  407MOL0     H56110   2.365   9.231   2.758  0.2969  0.9661  2.7889
  407MOL0     H56111   2.488   9.193   2.935 -1.5600  0.6229 -0.0659
  407MOL0     H56112   2.503   9.021   2.913 -0.4393 -0.8507 -1.1319
  407MOL0     H56113   2.296   9.199   3.034  1.1412  1.1476 -0.4812
  407MOL0     H56114   2.234   9.033   2.989 -0.5098  0.9174  0.0116
  407MOL0     H56115   2.569   9.087   3.158 -0.4555  1.8119  0.0338
  407MOL0     H56116   2.531   8.923   3.506  0.4289 -2.5153 -1.4807
  407MOL0     H56117   2.618   9.070   3.441  0.2192 -0.3139  2.2304
  407MOL0     H56118   2.633   8.784   3.363  3.0070 -2.0857 -0.8539
  407MOL0     H56119   2.721   8.892   3.265 -0.2764  0.0732  0.0652
  407MOL0     H56120   2.874   8.812   3.443  0.9446  0.7044 -0.6099
  407MOL0     H56121   2.865   8.971   3.472  0.6663 -0.9785 -1.8595
  407MOL0     H56122   2.689   8.921   3.659 -3.0110 -2.1568 -1.3693
  407MOL0     H56123   2.714   8.751   3.633 -1.1867 -0.3168  0.9104
  407MOL0     H56124   3.058   8.842   3.840 -1.0555  1.9100 -2.0449
  407MOL0     H56125   3.157   8.752   4.114 -4.4091 -2.3734 -1.0200
  407MOL0     H56126   3.129   8.912   4.200  3.4048  0.0287 -0.4373
  407MOL0     H56127   3.195   8.908   4.048  0.8704 -0.5786  1.8168
  407MOL0     H56128   2.675   9.030   4.479 -0.0645 -0.9800 -2.9880
  407MOL0     H56129   2.611   9.007   4.739 -2.6419 -2.3616  1.6841
  407MOL0     H56130   2.796   8.838   4.951  0.3803  1.6780  1.1928
  407MOL0     H56131   2.663   8.947   4.977  0.7245  0.4337 -4.5973
  407MOL0     H56132   2.544   8.785   5.124 -0.7789 -3.5936 -1.9790
  407MOL0     H56133   2.680   8.666   5.095  1.7169  0.0511 -0.5191
  407MOL0     H56134   2.706   8.939   5.214 -0.0991 -0.0005  1.3283
  407MOL0     H56135   2.815   8.795   5.228 -0.2637 -1.0937  2.0908
  407MOL0     H56136   2.652   8.677   5.357 -2.4675  0.5503  0.2238
  407MOL0     H56137   2.541   8.817   5.358 -1.1528 -2.8940  3.7916
  407MOL0     H56138   2.807   8.815   5.496 -0.9471 -1.4077  4.1676
  407MOL0     H56139   2.699   8.950   5.456 -0.2725  0.0178  1.0045
  407MOL0     H56140   2.599   8.694   5.627 -1.7934  0.0761  1.9580
  407MOL0     H56141   2.511   8.840   5.613  0.4863 -0.8156  1.8365
  407MOL0     H56142   2.774   8.809   5.765 -0.5068 -1.3991  4.9348
  407MOL0     H56143   2.618   8.812   5.836  1.0807 -3.1568 -1.0595
  407MOL0     H56144   2.580   9.036   5.723 -1.3815 -2.1535  1.2154
  407MOL0     H56145   2.762   9.038   5.705  1.8858 -2.1872  2.3114
  407MOL0     H56146   2.663   8.590   4.702 -1.5813 -0.4715 -0.7043
  407MOL0     H56147   2.717   8.616   4.451  0.9011  3.0124 -4.8281
  407MOL0     H56148   2.646   8.840   4.099 -1.7343 -2.5019 -2.8167
  407MOL0     H56149   2.648   8.853   3.852 -0.3254  5.0410  0.1106
  407MOL0     H56150   2.444   9.229   2.081  0.2936 -0.2949 -1.1733
  407MOL0     H56151   2.624   9.203   1.913  0.9699 -1.2328 -1.3236
  407MOL0     H56152   2.891   8.892   1.710  0.5023 -1.1647  0.0460
  407MOL0     H56153   3.011   8.885   1.503  0.4328  0.3105 -1.4652
  407MOL0     H56154   3.214   8.851   1.349 -0.2508 -0.0376 -0.0600
  407MOL0     H56155   3.070   8.933   1.311  0.2122 -2.0523  0.4382
  407MOL0     H56156   3.179   9.086   1.154  0.4476  0.4854  0.8588
  407MOL0     H56157   3.195   8.905   1.123 -2.6936 -1.7044  2.1137
  407MOL0     H56158   3.399   9.099   1.111 -0.5150  2.3398  2.3827
  407MOL0     H56159   3.422   9.040   1.266 -0.0607  2.2679 -1.0261
  407MOL0     H56160   3.555   8.930   1.089  0.5232 -0.9073 -0.4603
  407MOL0     H56161   3.408   8.847   1.027 -0.4059  2.7082 -1.2948
  407MOL0     H56162   3.468   8.611   1.368  0.2556  0.1895  0.4153
  407MOL0     H56163   3.289   9.173   1.619 -0.0058 -0.4849 -3.4708
  407MOL0     H56164   3.223   9.141   1.951  3.9691  2.1766 -0.3475
  407MOL0     H56165   3.284   9.256   1.829  1.0460  2.3060  1.3791
  407MOL0     H56166   3.134   9.296   1.905 -1.4045  0.7988 -3.2003
  408MOL0     O56167   7.828   3.116   6.005 -0.4342 -0.3106  0.3217
  408MOL0     C56168   7.938   3.056   6.016  0.4072 -0.0541 -0.8995
  408MOL0     O56169   8.052   3.118   6.071 -0.4641  0.5036  0.2430
  408MOL0     C56170   8.036   3.218   6.160  0.3106 -0.6594  0.3964
  408MOL0     C56171   8.109   3.335   6.140 -0.1964  0.8938 -0.5285
  408MOL0     C56172   8.093   3.430   6.229 -0.6985 -0.4073 -0.8152
  408MOL0     C56173   8.011   3.424   6.346  0.4253  0.0634 -0.5306
  408MOL0     O56174   8.002   3.536   6.420  0.5331 -0.0318  0.2517
  408MOL0     C56175   7.991   3.509   6.560 -0.6815  0.6444 -0.4756
  408MOL0     C56176   7.993   3.636   6.639 -0.3966 -0.9325  0.0472
  408MOL0     C56177   8.140   3.691   6.654  0.3010  0.3123 -0.2711
  408MOL0     C56178   8.141   3.828   6.707  0.4966  0.2854 -0.2295
  408MOL0     C56179   8.286   3.868   6.744 -0.2780  0.7140 -0.4317
  408MOL0     C56180   8.309   4.018   6.772 -0.2132  0.1740  0.5256
  408MOL0     C56181   8.462   4.060   6.784  0.0790  0.3270  0.4933
  408MOL0     C56182   8.520   4.094   6.646  0.1974  0.6676  0.7965
  408MOL0     N56183   8.456   4.214   6.592 -1.2788 -0.0141  0.0440
  408MOL0     C56184   8.435   4.329   6.664 -1.1196  0.4492  1.5388
  408MOL0     C56185   8.359   4.409   6.580 -0.3545  0.2018  0.3363
  408MOL0     C56186   8.287   4.538   6.617 -0.5813  0.2686  0.5074
  408MOL0     C56187   8.247   4.529   6.759  0.5085  0.0014 -0.8636
  408MOL0     C56188   8.152   4.412   6.783 -0.4730 -0.1472  0.4845
  408MOL0     C56189   8.100   4.389   6.915 -0.3112  1.2114  0.1380
  408MOL0     O56190   8.203   4.364   7.008 -0.3695  0.3292  0.0319
  408MOL0     C56191   8.152   4.340   7.131 -0.3081  0.0397 -0.0630
  408MOL0     C56192   8.069   4.431   7.208  0.6053 -0.0137  0.2759
  408MOL0     C56193   8.041   4.414   7.341  0.5478 -0.2445 -0.5410
  408MOL0     C56194   7.955   4.527   7.405  0.0977  1.2397  0.0718
  408MOL0     C56195   8.088   4.300   7.395 -0.1287 -0.2580 -0.7704
  408MOL0     C56196   8.055   4.261   7.535 -0.1301  1.0916 -0.0443
  408MOL0     O56197   8.014   4.362   7.615  0.3545  0.5319 -0.0404
  408MOL0     C56198   7.972   4.327   7.742  0.1922 -0.4657 -0.2353
  408MOL0     C56199   7.874   4.231   7.781  0.3356  0.5147  0.1234
  408MOL0     C56200   7.853   4.209   7.923  0.6647  0.6597  0.0068
  408MOL0     C56201   7.900   4.286   8.023 -0.4190  0.4352 -0.2007
  408MOL0     O56202   7.868   4.247   8.152  0.0217 -0.1012 -0.0070
  408MOL0     C56203   7.897   4.348   8.249 -0.1879  0.1964 -0.1300
  408MOL0     C56204   7.816   4.343   8.379 -0.1953  0.4907  0.6044
  408MOL0     C56205   7.824   4.207   8.455  0.4888 -0.2817 -0.0296
  408MOL0     C56206   7.717   4.112   8.403 -0.5254 -0.6667  0.2449
  408MOL0     C56207   7.729   3.978   8.473  0.1677 -0.4817  0.7101
  408MOL0     C56208   7.602   3.892   8.458 -0.6519  0.4514  0.2206
  408MOL0     C56209   7.581   3.840   8.316 -0.8169  0.0154 -0.1105
  408MOL0     C56210   7.696   3.743   8.272  0.8711 -0.6587  0.6219
  408MOL0    Cl56211   7.696   3.698   8.097  0.1610 -0.1819 -0.0693
  408MOL0     C56212   7.990   4.393   7.978 -0.4811  0.2042  0.4057
  408MOL0     C56213   8.024   4.409   7.844  0.4763  0.3261 -0.4323
  408MOL0     O56214   8.050   4.143   7.558  0.3511  0.2016 -0.1260
  408MOL0     C56215   8.162   4.210   7.319  0.1846  0.4590  0.0181
  408MOL0     C56216   8.189   4.225   7.188 -0.3161  0.1504  0.9778
  408MOL0     N56217   8.355   4.340   6.459 -0.1752 -0.4953  0.4384
  408MOL0     N56218   8.399   4.225   6.472  0.3030  0.7736 -0.4560
  408MOL0     C56219   7.932   3.306   6.364  0.6174  0.3393 -0.9439
  408MOL0     C56220   7.954   3.200   6.276 -0.4902  0.0663  0.2874
  408MOL0     C56221   7.960   2.921   5.955  0.4504  0.2583 -0.5587
  408MOL0     C56222   8.072   2.847   5.996  0.3466  0.7407 -1.0785
  408MOL0     C56223   8.089   2.707   5.967 -0.3081 -0.0518  0.3519
  408MOL0     C56224   8.003   2.641   5.881 -0.3007 -0.3123 -0.1303
  408MOL0     O56225   8.027   2.517   5.830 -0.2991 -0.0376 -0.0805
  408MOL0     C56226   8.153   2.454   5.838  0.2526  0.3707 -0.3606
  408MOL0     C56227   8.178   2.355   5.740 -0.6398 -0.0422 -0.0826
  408MOL0     C56228   8.070   2.252   5.728  1.0628  0.1104  0.1347
  408MOL0     C56229   8.097   2.127   5.647 -0.2528 -0.4718  0.3860
  408MOL0     C56230   8.132   2.158   5.511 -0.5924  0.3861 -0.4984
  408MOL0     C56231   8.186   2.192   5.413 -0.3204  0.6896  0.4316
  408MOL0     C56232   7.894   2.713   5.839  0.9074 -0.5105 -0.1887
  408MOL0     C56233   7.871   2.848   5.866 -0.0329 -0.7679  0.8908
  408MOL0     C56234   7.758   2.921   5.790  0.1219  0.4407 -1.1129
  408MOL0     H56235   8.156   3.354   6.044 -1.6410  0.0741 -1.4483
  408MOL0     H56236   8.147   3.523   6.228 -0.9014 -0.2236  1.3503
  408MOL0     H56237   8.077   3.450   6.591  0.9781  2.2864 -1.7476
  408MOL0     H56238   7.909   3.443   6.591 -0.4833 -0.3794 -2.0063
  408MOL0     H56239   7.924   3.706   6.592  0.2761  0.2322  0.7402
  408MOL0     H56240   7.951   3.624   6.739  0.6663  2.4699  1.0318
  408MOL0     H56241   8.183   3.627   6.732  0.1756 -0.6306 -0.9537
  408MOL0     H56242   8.207   3.683   6.568 -0.5246 -1.4533 -0.7872
  408MOL0     H56243   8.102   3.895   6.629  1.1355  1.4847  0.4517
  408MOL0     H56244   8.098   3.828   6.808 -0.3379 -2.2727 -0.5051
  408MOL0     H56245   8.350   3.839   6.659 -0.3182 -3.3670  0.7260
  408MOL0     H56246   8.319   3.810   6.831 -2.4860  1.3960  0.9224
  408MOL0     H56247   8.276   4.068   6.680 -2.1125 -0.3218  0.8995
  408MOL0     H56248   8.268   4.053   6.867  3.7933 -1.1899  2.9781
  408MOL0     H56249   8.515   3.978   6.836  2.2618  1.7077  0.5790
  408MOL0     H56250   8.478   4.150   6.843  0.4861  1.8727 -1.8601
  408MOL0     H56251   8.628   4.112   6.655  0.2411 -0.5903  4.2559
  408MOL0     H56252   8.518   4.007   6.580  0.2061  2.0842 -1.1597
  408MOL0     H56253   8.469   4.348   6.765  3.1000 -2.2201  0.8659
  408MOL0     H56254   8.192   4.542   6.564  0.2498  1.1012 -0.9717
  408MOL0     H56255   8.348   4.623   6.588 -3.8326  2.2103 -1.1736
  408MOL0     H56256   8.329   4.531   6.831 -1.2736  2.2919  1.3242
  408MOL0     H56257   8.202   4.627   6.782 -0.4854 -0.7854  0.7355
  408MOL0     H56258   8.061   4.426   6.725 -0.3840 -1.4420 -0.0083
  408MOL0     H56259   8.200   4.321   6.744 -2.4189 -0.6247 -0.9222
  408MOL0     H56260   8.052   4.483   6.944 -0.2769  0.0846  4.4365
  408MOL0     H56261   8.028   4.306   6.918  0.5286  0.4303  4.2754
  408MOL0     H56262   8.034   4.523   7.163 -1.3826 -0.3070  1.0982
  408MOL0     H56263   7.874   4.483   7.465 -0.8294  1.4026 -1.0201
  408MOL0     H56264   7.911   4.592   7.329 -0.4969  1.9064  0.9709
  408MOL0     H56265   8.024   4.586   7.466  1.3027 -0.3980  0.3510
  408MOL0     H56266   7.824   4.159   7.717 -3.9678  0.0293  3.5275
  408MOL0     H56267   7.773   4.138   7.938  0.3455  1.5173  3.1084
  408MOL0     H56268   8.002   4.337   8.278 -1.6749 -0.3859  6.6941
  408MOL0     H56269   7.892   4.448   8.204  0.8584  0.2910 -0.0563
  408MOL0     H56270   7.858   4.418   8.448 -0.3435  0.4511  0.7392
  408MOL0     H56271   7.709   4.360   8.362 -1.2481 -5.0191 -0.1335
  408MOL0     H56272   7.800   4.216   8.561  0.3692 -2.2432  0.1581
  408MOL0     H56273   7.926   4.173   8.434 -0.7045 -1.8038 -4.4954
  408MOL0     H56274   7.720   4.108   8.294  2.9665  3.6713 -0.0970
  408MOL0     H56275   7.625   4.171   8.415  0.4730  1.2008 -0.7910
  408MOL0     H56276   7.819   3.923   8.444  0.3933  0.4021 -0.3457
  408MOL0     H56277   7.738   4.001   8.580 -2.0737 -4.5591  1.9978
  408MOL0     H56278   7.514   3.946   8.492 -0.8981  1.6984 -2.1971
  408MOL0     H56279   7.607   3.806   8.525 -2.7331  0.4461  0.4356
  408MOL0     H56280   7.558   3.913   8.238 -1.8804  1.5021  1.5259
  408MOL0     H56281   7.485   3.790   8.330 -1.2131  0.5087 -0.9749
  408MOL0     H56282   7.695   3.651   8.332 -1.2678 -1.9080 -1.1526
  408MOL0     H56283   7.792   3.794   8.286  1.6611 -2.6656  3.3691
  408MOL0     H56284   8.026   4.454   8.060  1.1583 -0.9808  0.6198
  408MOL0     H56285   8.096   4.486   7.819 -1.1842  2.4200  0.8137
  408MOL0     H56286   8.194   4.121   7.372 -1.7801  1.2661  2.7889
  408MOL0     H56287   8.252   4.157   7.133 -1.1560  1.2529 -1.4963
  408MOL0     H56288   7.878   3.292   6.457  0.6688  0.9326 -0.8229
  408MOL0     H56289   7.909   3.101   6.278 -0.3566  0.0133  0.9291
  408MOL0     H56290   8.145   2.888   6.065 -0.3050 -0.5485  0.4288
  408MOL0     H56291   8.185   2.676   6.007  0.8112  1.1922 -1.2345
  408MOL0     H56292   8.233   2.528   5.833 -1.2401  2.0223 -0.6091
  408MOL0     H56293   8.153   2.414   5.940 -2.0138  1.1198 -0.0143
  408MOL0     H56294   8.266   2.294   5.761  0.5838  1.5693 -0.3421
  408MOL0     H56295   8.190   2.410   5.647  2.0559  1.6914  1.1758
  408MOL0     H56296   8.036   2.222   5.827  0.4282  3.5514  1.1055
  408MOL0     H56297   7.984   2.306   5.686 -0.5191 -1.3391  1.3463
  408MOL0     H56298   8.002   2.073   5.654 -1.1071  1.0939  1.6399
  408MOL0     H56299   8.180   2.063   5.677  1.1679 -1.0582 -4.0942
  408MOL0     H56300   8.244   2.222   5.328 -1.4467  0.3855 -0.4627
  408MOL0     H56301   7.835   2.669   5.760  1.2322  1.4859 -1.6087
  408MOL0     H56302   7.678   2.937   5.861  1.2558  1.8695 -0.1031
  408MOL0     H56303   7.791   3.021   5.759  0.3627  0.1919 -1.6821
  408MOL0     H56304   7.728   2.860   5.704 -1.9490 -0.7098  0.3603
  409MOL0     O56305   9.255   7.856   9.041  0.1362 -0.1003  0.2632
  409MOL0     C56306   9.317   7.801   9.124 -0.1644  0.2639 -0.2631
  409MOL0     O56307   9.384   7.857   9.227 -0.4544  0.4530 -0.7300
  409MOL0     C56308   9.357   7.982   9.258 -0.3857 -0.5131  0.6090
  409MOL0     C56309   9.470   8.058   9.282 -0.8385  0.1685 -0.3828
  409MOL0     C56310   9.466   8.189   9.319 -0.7562 -0.5934 -0.1566
  409MOL0     C56311   9.342   8.254   9.341  1.0079 -0.1386 -0.0290
  409MOL0     O56312   9.337   8.387   9.356 -1.1160 -0.6953  0.4237
  409MOL0     C56313   9.232   8.444   9.442  0.2204 -1.2661  1.4599
  409MOL0     C56314   9.257   8.590   9.492 -0.5868  0.3338 -0.1305
  409MOL0     C56315   9.125   8.656   9.534 -0.9373 -0.2487  0.4974
  409MOL0     C56316   9.150   8.815   9.555 -0.2380  0.3843 -0.5102
  409MOL0     C56317   9.249   8.845   9.668  0.2609 -0.1913 -0.1233
  409MOL0     C56318   9.242   8.766   9.796  0.6391  0.3133  0.1395
  409MOL0     C56319   9.302   8.845   9.917  0.4709 -0.4679  0.1577
  409MOL0     C56320   9.279   8.789  10.058  0.8577  0.6176 -0.3202
  409MOL0     N56321   9.141   8.763  10.093  0.7753  0.4044  0.1481
  409MOL0     C56322   9.054   8.866  10.124 -0.9821 -0.9012  0.1820
  409MOL0     C56323   8.944   8.801  10.178  0.4689  0.2112  0.0059
  409MOL0     C56324   8.838   8.889  10.239  0.5989  0.8105 -0.0912
  409MOL0     C56325   8.860   8.936  10.383  0.0693 -0.1767 -0.5403
  409MOL0     C56326   8.731   8.968  10.457 -0.1120  0.1413 -0.5512
  409MOL0     C56327   8.683   9.112  10.445 -1.0430  0.5031  1.0252
  409MOL0     O56328   8.782   9.201  10.501 -0.6147 -0.5427 -0.2857
  409MOL0     C56329   8.776   9.332  10.467  0.0171 -0.5072 -0.6966
  409MOL0     C56330   8.662   9.406  10.423 -0.2072  0.1075 -0.0521
  409MOL0     C56331   8.669   9.549  10.394  0.1690  0.2861 -0.0132
  409MOL0     C56332   8.535   9.611  10.357  1.1111  0.2799  0.4644
  409MOL0     C56333   8.787   9.622  10.408 -0.2140 -0.6839 -0.1137
  409MOL0     C56334   8.799   9.770  10.376  0.6032  0.0243 -0.2581
  409MOL0     O56335   8.713   9.812  10.277 -0.1775  0.0470 -0.1974
  409MOL0     C56336   8.705   9.949  10.240  1.6545  0.4257 -0.0409
  409MOL0     C56337   8.575   9.976  10.189 -0.4382  0.1176 -0.2599
  409MOL0     C56338   8.554  10.107  10.146 -0.9997  0.5911 -0.1698
  409MOL0     C56339   8.648  10.206  10.140 -0.4598 -0.7432 -0.1858
  409MOL0     O56340   8.600  10.326  10.112 -0.1650 -0.0246  0.2733
  409MOL0     C56341   8.683  10.407  10.024  0.6448 -0.1441  0.1404
  409MOL0     C56342   8.766  10.509  10.106 -0.2039 -0.3736 -0.1498
  409MOL0     C56343   8.751  10.650  10.043 -0.3710  0.1873  0.0449
  409MOL0     C56344   8.831  10.753  10.116  0.4269 -0.4218  0.1278
  409MOL0     C56345   8.833  10.893  10.043  0.3848 -0.0842 -0.2264
  409MOL0     C56346   8.699  10.960  10.007 -0.0775  0.8481  0.0960
  409MOL0     C56347   8.724  11.118   9.976 -0.0689  0.0734  0.0288
  409MOL0     C56348   8.797  11.145   9.844 -0.2456 -0.7478 -0.0884
  409MOL0    Cl56349   8.729  11.051   9.711  0.5150  0.0324  0.2803
  409MOL0     C56350   8.767  10.178  10.186  0.8914  0.8051  0.9511
  409MOL0     C56351   8.797  10.052  10.246 -0.3922 -0.7459  0.4126
  409MOL0     O56352   8.883   9.834  10.438  0.6411 -0.3459  0.0632
  409MOL0     C56353   8.890   9.546  10.466 -0.1423  0.1645 -0.0365
  409MOL0     C56354   8.890   9.410  10.492 -0.1237  0.6349 -0.2025
  409MOL0     N56355   8.969   8.664  10.179  0.4988 -0.3383 -0.0272
  409MOL0     N56356   9.093   8.645  10.136 -0.6134 -0.4939 -0.9651
  409MOL0     C56357   9.221   8.178   9.317  1.1961  0.3023 -0.1120
  409MOL0     C56358   9.234   8.049   9.270  0.9326  0.0545 -0.3404
  409MOL0     C56359   9.306   7.650   9.143 -0.0775 -0.3793 -0.2395
  409MOL0     C56360   9.413   7.583   9.209  0.1627 -0.6859  0.0259
  409MOL0     C56361   9.422   7.449   9.205 -0.3341 -0.0349  0.5244
  409MOL0     C56362   9.317   7.380   9.155 -0.1380 -0.0698 -0.5832
  409MOL0     O56363   9.348   7.249   9.153  0.1925 -0.4539  0.6419
  409MOL0     C56364   9.272   7.155   9.074  0.4407 -1.1120 -0.2044
  409MOL0     C56365   9.333   7.017   9.079 -0.0026 -0.5527  0.5079
  409MOL0     C56366   9.253   6.908   9.018 -0.4021  0.1155 -0.3001
  409MOL0     C56367   9.150   6.872   9.124  0.2677 -0.1178 -0.1119
  409MOL0     C56368   9.076   6.758   9.083 -0.3482  0.7258 -0.2053
  409MOL0     C56369   9.009   6.662   9.056 -0.7127 -0.3600 -0.2459
  409MOL0     C56370   9.209   7.437   9.094 -0.1705 -0.0514 -0.1098
  409MOL0     C56371   9.208   7.573   9.081 -0.2505  0.5982 -0.6228
  409MOL0     C56372   9.105   7.625   8.992 -0.2777 -0.3123  0.1535
  409MOL0     H56373   9.570   8.015   9.280  0.5738  3.1629  0.2698
  409MOL0     H56374   9.550   8.253   9.342 -2.1793  1.2711  0.0873
  409MOL0     H56375   9.215   8.375   9.525 -1.4241  1.9749  4.0335
  409MOL0     H56376   9.138   8.439   9.386 -0.8915 -1.3973  3.2797
  409MOL0     H56377   9.328   8.591   9.575 -1.6611  0.9795  0.8042
  409MOL0     H56378   9.291   8.656   9.412  0.8672 -1.3580 -0.9826
  409MOL0     H56379   9.057   8.643   9.450  0.4845 -1.3680 -0.5295
  409MOL0     H56380   9.086   8.613   9.627 -1.2374  2.0946  1.5388
  409MOL0     H56381   9.188   8.870   9.468  1.7677 -0.5231 -0.2485
  409MOL0     H56382   9.050   8.850   9.582  0.4550  2.3167 -0.3454
  409MOL0     H56383   9.217   8.950   9.675  3.6806  1.3145 -3.4819
  409MOL0     H56384   9.347   8.856   9.620 -0.7145 -0.0497 -2.1956
  409MOL0     H56385   9.133   8.759   9.804  0.0013  1.1172 -4.7627
  409MOL0     H56386   9.286   8.666   9.797 -0.4386 -0.1742 -0.4202
  409MOL0     H56387   9.246   8.939   9.923  0.2735 -0.5513 -0.2850
  409MOL0     H56388   9.405   8.881   9.905  1.0744 -2.2563 -0.3436
  409MOL0     H56389   9.325   8.691  10.046  1.6912  0.5273  2.8151
  409MOL0     H56390   9.325   8.845  10.139  2.2728  1.9087 -1.9403
  409MOL0     H56391   9.081   8.971  10.117  2.8829 -1.6923  1.0639
  409MOL0     H56392   8.757   8.816  10.242  1.7231 -0.6229 -2.0807
  409MOL0     H56393   8.833   8.974  10.169 -1.2502 -0.2201 -1.2754
  409MOL0     H56394   8.907   8.852  10.436  0.4352 -0.1336 -0.7934
  409MOL0     H56395   8.936   9.013  10.396  2.6113 -2.7421  0.8993
  409MOL0     H56396   8.650   8.897  10.435 -1.0286  0.6262  1.0942
  409MOL0     H56397   8.754   8.948  10.562  0.1868 -2.7577 -1.1092
  409MOL0     H56398   8.671   9.128  10.338 -0.2746 -4.1048  0.0437
  409MOL0     H56399   8.587   9.124  10.496  0.3419 -0.5379  4.1411
  409MOL0     H56400   8.563   9.367  10.401 -0.6755  1.1593  0.1133
  409MOL0     H56401   8.524   9.697  10.424  0.4989 -0.6353  1.5820
  409MOL0     H56402   8.443   9.556  10.378  0.4127  1.0525 -0.4882
  409MOL0     H56403   8.540   9.626  10.249 -0.6337  2.0745  0.5642
  409MOL0     H56404   8.491   9.910  10.172  1.1028 -2.0474  0.0822
  409MOL0     H56405   8.459  10.137  10.105 -1.4030  0.3002  0.5343
  409MOL0     H56406   8.736  10.344   9.951 -1.1719 -3.5660  1.5332
  409MOL0     H56407   8.622  10.466   9.956  0.8453 -0.3500 -0.2250
  409MOL0     H56408   8.725  10.512  10.207 -1.0801 -1.8742 -0.4266
  409MOL0     H56409   8.870  10.476  10.101  0.2939  1.2682 -2.0767
  409MOL0     H56410   8.647  10.684  10.040 -0.7656 -0.2222  4.0923
  409MOL0     H56411   8.801  10.667   9.947  2.2997  1.9130  1.6240
  409MOL0     H56412   8.935  10.721  10.131  0.8123  1.0302  0.7251
  409MOL0     H56413   8.791  10.776  10.215 -0.1677  0.6117 -0.3453
  409MOL0     H56414   8.892  10.970  10.093  0.7924  2.1389 -3.7563
  409MOL0     H56415   8.877  10.879   9.943  0.4761 -0.3271 -0.1527
  409MOL0     H56416   8.621  10.956  10.084 -0.2777 -0.0899 -0.1397
  409MOL0     H56417   8.657  10.902   9.925 -2.1263 -0.8210  2.1950
  409MOL0     H56418   8.791  11.162  10.051  2.6933 -1.9107 -1.0958
  409MOL0     H56419   8.624  11.161   9.988 -0.4790 -1.0606  0.9341
  409MOL0     H56420   8.904  11.126   9.855 -0.0554 -0.8890 -1.8872
  409MOL0     H56421   8.785  11.252   9.826  2.1720 -0.4927 -0.5196
  409MOL0     H56422   8.847  10.250  10.176  1.4226  0.0151 -0.7448
  409MOL0     H56423   8.899  10.028  10.272 -0.5567 -2.6631 -0.5327
  409MOL0     H56424   8.972   9.609  10.500 -0.3315  0.5719 -0.3285
  409MOL0     H56425   8.981   9.360  10.523 -0.7812 -3.1249 -3.5058
  409MOL0     H56426   9.125   8.228   9.327  1.2163 -0.1329  3.4967
  409MOL0     H56427   9.153   7.981   9.244  1.4121 -0.8889  0.5396
  409MOL0     H56428   9.503   7.638   9.234  0.7302 -0.1629 -2.7617
  409MOL0     H56429   9.511   7.400   9.244 -0.0282 -1.5077 -1.7928
  409MOL0     H56430   9.167   7.159   9.105  1.7416 -0.0805  5.0023
  409MOL0     H56431   9.270   7.191   8.971  1.1697  0.8004  0.4037
  409MOL0     H56432   9.343   6.987   9.184  1.0019 -0.4262  0.4626
  409MOL0     H56433   9.435   7.027   9.042  0.6948 -4.9327  0.6457
  409MOL0     H56434   9.213   6.946   8.924 -1.3171 -1.4544 -0.5858
  409MOL0     H56435   9.323   6.825   9.008  1.5928  1.7025 -0.2614
  409MOL0     H56436   9.063   6.937   9.136 -0.9170 -1.6723  0.0642
  409MOL0     H56437   9.194   6.851   9.222  0.8295  2.4038  0.2485
  409MOL0     H56438   8.949   6.573   9.047  0.7977 -1.2741 -2.1870
  409MOL0     H56439   9.138   7.373   9.042 -1.2378  0.3912  0.7709
  409MOL0     H56440   9.028   7.554   8.959 -0.5769  0.6442 -1.2553
  409MOL0     H56441   9.056   7.716   9.027 -0.7329  0.3843 -2.1354
  409MOL0     H56442   9.156   7.659   8.902 -2.6661  0.7344 -0.8996
  410MOL0     O56443   0.619  10.277   3.209 -0.1310  0.0246 -0.2669
  410MOL0     C56444   0.506  10.265   3.255 -0.0819 -0.4033 -0.0626
  410MOL0     O56445   0.465  10.148   3.316  0.6746 -0.4264 -0.4195
  410MOL0     C56446   0.549  10.038   3.326  1.1154  0.2762  0.2142
  410MOL0     C56447   0.687  10.045   3.364  0.0139  0.1325  0.4278
  410MOL0     C56448   0.757   9.931   3.395  0.8545 -1.0962  0.7409
  410MOL0     C56449   0.696   9.805   3.386 -0.2975  0.6525  0.1846
  410MOL0     O56450   0.777   9.711   3.434 -0.2297  0.7374 -0.7879
  410MOL0     C56451   0.708   9.582   3.461 -0.5936  0.1167  0.0941
  410MOL0     C56452   0.802   9.482   3.526 -0.2975 -0.6288  0.5283
  410MOL0     C56453   0.846   9.527   3.668 -0.3270  0.0180  0.0985
  410MOL0     C56454   0.988   9.590   3.657  0.3496  0.1030  0.5238
  410MOL0     C56455   1.028   9.677   3.776  0.9917  0.3190 -0.4635
  410MOL0     C56456   0.994   9.614   3.918 -1.2856  0.7153  0.0083
  410MOL0     C56457   1.003   9.713   4.036 -0.0204 -0.4848  0.2387
  410MOL0     C56458   1.148   9.740   4.083  0.5819  0.5145  0.2575
  410MOL0     N56459   1.193   9.629   4.177 -0.3003  0.4141 -0.4178
  410MOL0     C56460   1.216   9.645   4.309  0.4441  0.1861 -0.1859
  410MOL0     C56461   1.302   9.545   4.342 -0.1595 -0.7013 -0.3422
  410MOL0     C56462   1.353   9.532   4.480 -0.9429 -0.1770 -0.1863
  410MOL0     C56463   1.227   9.506   4.571  0.3009  0.3477 -0.5274
  410MOL0     C56464   1.265   9.472   4.719  0.0410  0.0568 -0.2974
  410MOL0     C56465   1.346   9.340   4.744 -0.6883 -0.9708 -1.2566
  410MOL0     O56466   1.409   9.357   4.871 -0.6189 -0.5218  0.1316
  410MOL0     C56467   1.349   9.340   4.993 -0.2038 -0.4877  0.1096
  410MOL0     C56468   1.433   9.339   5.103  0.3386  0.5608  0.2693
  410MOL0     C56469   1.385   9.327   5.232  0.8936  0.1266 -0.6636
  410MOL0     C56470   1.480   9.322   5.351 -0.0716 -0.9575  0.4071
  410MOL0     C56471   1.245   9.320   5.247 -0.1320  0.3519 -0.0471
  410MOL0     C56472   1.171   9.316   5.378  1.9425 -0.6178  0.5882
  410MOL0     O56473   1.031   9.303   5.376  0.5243 -0.2928 -0.6868
  410MOL0     C56474   0.954   9.307   5.488  0.2157  0.4238 -0.7565
  410MOL0     C56475   0.890   9.190   5.529 -0.8979 -0.0845  0.1376
  410MOL0     C56476   0.826   9.178   5.648  0.5339 -0.2409  0.2050
  410MOL0     C56477   0.826   9.288   5.732 -0.0731 -0.3992  1.0222
  410MOL0     O56478   0.772   9.273   5.856  0.0639 -0.0006  1.0441
  410MOL0     C56479   0.845   9.303   5.976 -0.3071 -0.1354 -0.2440
  410MOL0     C56480   0.752   9.312   6.091  0.5475  0.2297 -0.0868
  410MOL0     C56481   0.642   9.414   6.076 -0.4159  0.2135 -0.1853
  410MOL0     C56482   0.591   9.477   6.208 -0.7799 -0.0523 -0.3515
  410MOL0     C56483   0.489   9.589   6.202 -0.7573 -1.2489 -0.5845
  410MOL0     C56484   0.448   9.645   6.339 -0.5347  0.6593  0.4840
  410MOL0     C56485   0.330   9.739   6.319 -0.1802 -0.0889 -0.0221
  410MOL0     C56486   0.292   9.815   6.434 -0.0754  0.1552 -0.4356
  410MOL0    Cl56487   0.392   9.955   6.461  0.3731 -0.1358  0.2369
  410MOL0     C56488   0.880   9.406   5.690 -0.6654  0.7694  0.3938
  410MOL0     C56489   0.948   9.417   5.574  1.1553 -0.0157 -0.0773
  410MOL0     O56490   1.237   9.329   5.474  0.6828 -0.2362 -0.4848
  410MOL0     C56491   1.164   9.326   5.133 -0.4630 -0.5360  0.4429
  410MOL0     C56492   1.208   9.321   5.006 -0.3287  0.0257 -0.4618
  410MOL0     N56493   1.332   9.468   4.235 -0.2650 -0.2977 -0.7557
  410MOL0     N56494   1.278   9.530   4.132 -0.2031  0.0689 -0.2920
  410MOL0     C56495   0.559   9.793   3.346 -0.0249 -0.3929  0.5352
  410MOL0     C56496   0.492   9.906   3.313 -0.5428 -0.7119 -0.0225
  410MOL0     C56497   0.425  10.391   3.277 -0.0008  0.1136 -0.1230
  410MOL0     C56498   0.376  10.416   3.404 -0.0848  0.4496 -0.7833
  410MOL0     C56499   0.307  10.534   3.435  0.7120 -0.0324  0.4457
  410MOL0     C56500   0.276  10.632   3.339  0.7004 -0.2785  0.5733
  410MOL0     O56501   0.201  10.745   3.363 -1.0684  0.5007  0.5492
  410MOL0     C56502   0.118  10.750   3.473  0.2847 -0.5356 -0.0502
  410MOL0     C56503   0.028  10.882   3.478  0.0698  0.1043  0.1871
  410MOL0     C56504   0.111  11.004   3.495 -0.3173  0.1530 -0.8113
  410MOL0     C56505   0.019  11.138   3.509 -0.1030  0.0449 -0.0933
  410MOL0     C56506   0.106  11.259   3.463  0.9409  0.1107 -0.6077
  410MOL0     C56507   0.170  11.352   3.422 -0.1020  0.0953  0.6971
  410MOL0     C56508   0.309  10.595   3.208 -0.4014  0.2917  0.4838
  410MOL0     C56509   0.387  10.479   3.172  0.1610  0.2856 -0.3230
  410MOL0     C56510   0.410  10.462   3.028  0.3010  0.8081  0.1900
  410MOL0     H56511   0.735  10.140   3.388 -0.2392 -0.2185  2.5257
  410MOL0     H56512   0.860   9.943   3.429  2.1265  0.6299 -3.1183
  410MOL0     H56513   0.678   9.546   3.362 -1.0970 -1.8638  0.9154
  410MOL0     H56514   0.628   9.602   3.532  0.3669  2.3646  0.6374
  410MOL0     H56515   0.757   9.383   3.526 -3.8187  0.7896 -0.9111
  410MOL0     H56516   0.889   9.463   3.462  2.3718  1.5583  3.2074
  410MOL0     H56517   0.773   9.593   3.716 -0.5179 -2.1030  2.9947
  410MOL0     H56518   0.858   9.434   3.725  1.2390  0.3681  0.3623
  410MOL0     H56519   1.069   9.517   3.644  3.0851  2.6291  2.0817
  410MOL0     H56520   0.988   9.665   3.578  0.2358 -1.4408 -1.0000
  410MOL0     H56521   0.985   9.777   3.766 -0.9941 -0.5045 -0.5542
  410MOL0     H56522   1.137   9.687   3.778  1.2329 -1.8622  1.4932
  410MOL0     H56523   0.889   9.585   3.918 -1.9099  2.6586  2.3477
  410MOL0     H56524   1.065   9.539   3.953  0.5965  2.7646  0.8564
  410MOL0     H56525   0.941   9.683   4.121 -0.1686 -1.0944 -0.0841
  410MOL0     H56526   0.954   9.805   4.002  0.5074 -0.2509  0.1135
  410MOL0     H56527   1.220   9.743   4.001  1.4793  2.6839  1.0458
  410MOL0     H56528   1.153   9.836   4.137 -0.7815  0.9890 -0.4024
  410MOL0     H56529   1.178   9.724   4.373  3.7542  1.0301  0.9089
  410MOL0     H56530   1.403   9.619   4.523 -2.8017 -0.3752  2.6014
  410MOL0     H56531   1.426   9.451   4.491  0.3637  1.1256  1.2671
  410MOL0     H56532   1.165   9.596   4.567  3.3766  2.7082  0.9574
  410MOL0     H56533   1.163   9.421   4.547 -1.7565  1.4943  0.6372
  410MOL0     H56534   1.325   9.550   4.768  0.2987 -1.1743  1.4650
  410MOL0     H56535   1.172   9.475   4.778 -1.3059 -1.8267 -2.1697
  410MOL0     H56536   1.274   9.258   4.745 -2.8971  0.8175  1.8924
  410MOL0     H56537   1.423   9.314   4.671 -1.2062 -1.6527 -1.5710
  410MOL0     H56538   1.540   9.338   5.082  0.1294 -1.1962 -0.8443
  410MOL0     H56539   1.482   9.227   5.405  2.2363 -1.4955 -0.5046
  410MOL0     H56540   1.467   9.403   5.424  2.2361 -0.5167  0.4075
  410MOL0     H56541   1.581   9.337   5.312 -0.5478  2.2468  0.1422
  410MOL0     H56542   0.893   9.101   5.467  0.0295  0.8017 -1.1421
  410MOL0     H56543   0.790   9.078   5.669  0.6836 -0.5939 -1.1492
  410MOL0     H56544   0.918   9.226   6.001 -0.3767 -0.1088  0.0379
  410MOL0     H56545   0.898   9.397   5.959 -0.9292 -0.3410 -4.3554
  410MOL0     H56546   0.700   9.218   6.111  1.9980 -0.7172 -0.5890
  410MOL0     H56547   0.809   9.346   6.179 -0.6754  1.1966  0.3537
  410MOL0     H56548   0.556   9.359   6.037 -0.5579 -1.0716  1.7986
  410MOL0     H56549   0.677   9.499   6.016 -1.9264  0.8879 -0.1576
  410MOL0     H56550   0.674   9.510   6.272  0.7174 -0.4267 -2.0123
  410MOL0     H56551   0.537   9.398   6.261  2.3669 -1.7083  0.6832
  410MOL0     H56552   0.524   9.672   6.138  0.1421 -1.1294  0.0363
  410MOL0     H56553   0.393   9.555   6.164 -2.6363  1.0981  1.7040
  410MOL0     H56554   0.531   9.712   6.364  0.6968 -0.7832  0.4034
  410MOL0     H56555   0.439   9.575   6.422  0.1615 -0.9043 -0.6965
  410MOL0     H56556   0.248   9.669   6.298 -0.3998  0.2063 -0.1515
  410MOL0     H56557   0.350   9.809   6.238  1.0769 -0.9859 -0.5225
  410MOL0     H56558   0.295   9.749   6.521  0.3568  1.4860  0.5991
  410MOL0     H56559   0.188   9.846   6.417 -0.2927 -1.9140 -3.7273
  410MOL0     H56560   0.873   9.490   5.758 -2.9599  0.8923  0.1070
  410MOL0     H56561   0.996   9.510   5.546 -0.3434 -0.0268 -2.9842
  410MOL0     H56562   1.057   9.333   5.145 -0.9841 -2.3056 -2.2164
  410MOL0     H56563   1.140   9.331   4.923  0.9641 -3.4943 -2.1420
  410MOL0     H56564   0.503   9.701   3.353 -2.2974  0.8793  0.0416
  410MOL0     H56565   0.390   9.904   3.274 -0.1187  1.2848 -1.4064
  410MOL0     H56566   0.397  10.350   3.488 -1.0006  1.1640  0.0375
  410MOL0     H56567   0.282  10.541   3.540  0.8297  1.5438  0.3877
  410MOL0     H56568   0.048  10.667   3.490  0.9378 -2.1212 -3.9464
  410MOL0     H56569   0.185  10.759   3.558 -0.2759 -0.5176  0.3974
  410MOL0     H56570  -0.036  10.854   3.562  2.6345  0.0131  2.2167
  410MOL0     H56571  -0.033  10.893   3.388  0.7024 -1.2370 -0.4364
  410MOL0     H56572   0.161  10.986   3.590  0.3639 -0.6522 -1.3114
  410MOL0     H56573   0.189  11.017   3.419  1.1573  0.4926  0.7136
  410MOL0     H56574  -0.020  11.150   3.611 -1.2745 -1.0242 -0.3900
  410MOL0     H56575  -0.072  11.121   3.451 -0.7291 -1.5047  1.2794
  410MOL0     H56576   0.222  11.427   3.367 -0.3819  0.5428  1.0390
  410MOL0     H56577   0.274  10.655   3.124  0.6952 -0.5243 -0.5916
  410MOL0     H56578   0.488  10.387   3.014 -1.4642 -0.9899 -0.5178
  410MOL0     H56579   0.316  10.431   2.982 -0.4767  0.4252  1.9274
  410MOL0     H56580   0.444  10.553   2.978 -1.3597 -0.7334 -4.1691
  411MOL0     O56581  10.745   7.075   5.314  0.4736  1.1541  0.9306
  411MOL0     C56582  10.667   7.022   5.236  1.1524 -0.6200  0.0767
  411MOL0     O56583  10.533   7.024   5.248 -0.3924  0.6156  0.1417
  411MOL0     C56584  10.464   7.056   5.360  1.0312 -0.3339 -0.3954
  411MOL0     C56585  10.334   7.101   5.324 -0.5335  0.0667 -0.2558
  411MOL0     C56586  10.246   7.153   5.430 -0.3078 -0.1341 -0.0008
  411MOL0     C56587  10.287   7.141   5.564  1.1625 -0.0704  0.5480
  411MOL0     O56588  10.205   7.170   5.670 -0.2056  0.5894 -0.2741
  411MOL0     C56589  10.095   7.084   5.708  0.2693  0.1306 -0.1737
  411MOL0     C56590   9.976   7.121   5.608 -1.3577  0.2553  0.3210
  411MOL0     C56591   9.835   7.083   5.659 -0.8041  0.2423 -0.7319
  411MOL0     C56592   9.761   7.188   5.748  0.6458  0.1248 -0.1302
  411MOL0     C56593   9.646   7.116   5.818  0.5353 -0.3860  0.2500
  411MOL0     C56594   9.685   7.019   5.923  0.4308  0.7195 -0.0978
  411MOL0     C56595   9.754   7.083   6.044 -0.1956 -0.0560  0.2008
  411MOL0     C56596   9.803   6.974   6.143 -0.6844  0.4500 -0.7180
  411MOL0     N56597   9.910   6.884   6.101  1.1187 -0.3972  0.6575
  411MOL0     C56598   9.950   6.778   6.178 -0.1347  0.9686 -1.0723
  411MOL0     C56599  10.066   6.740   6.128  0.4103  0.7999  0.3917
  411MOL0     C56600  10.134   6.621   6.196 -0.9131  0.3682  0.6861
  411MOL0     C56601  10.288   6.603   6.171  0.3524 -0.7091 -0.8982
  411MOL0     C56602  10.339   6.466   6.224  0.4602  0.1822  0.8341
  411MOL0     C56603  10.474   6.472   6.317  0.4092  0.1126  1.1124
  411MOL0     O56604  10.453   6.545   6.431 -0.1554 -0.5497 -1.1253
  411MOL0     C56605  10.562   6.554   6.509 -0.5891 -0.8442  0.1184
  411MOL0     C56606  10.537   6.616   6.631 -0.4960  0.4733 -1.2556
  411MOL0     C56607  10.630   6.616   6.739  0.2428  0.7668 -0.1235
  411MOL0     C56608  10.575   6.680   6.867 -0.3640  0.1766  0.9085
  411MOL0     C56609  10.763   6.574   6.709 -0.2786 -0.2825 -0.8312
  411MOL0     C56610  10.874   6.584   6.806  0.1124  0.2756  0.9046
  411MOL0     O56611  10.897   6.713   6.854 -0.1658  0.6423  0.2327
  411MOL0     C56612  11.014   6.748   6.910  0.0337 -0.8098 -0.2600
  411MOL0     C56613  11.044   6.886   6.909 -0.0883 -0.2953  0.0624
  411MOL0     C56614  11.164   6.945   6.967  0.8606 -0.0348  0.4459
  411MOL0     C56615  11.241   6.857   7.038 -0.5119 -0.2607 -0.1449
  411MOL0     O56616  11.341   6.922   7.108 -0.4255  0.5703  0.3294
  411MOL0     C56617  11.457   6.844   7.133  0.1060 -0.3055 -0.5872
  411MOL0     C56618  11.562   6.948   7.177 -0.3210 -0.0771  0.2314
  411MOL0     C56619  11.609   7.044   7.061  0.4979 -0.3458 -0.7854
  411MOL0     C56620  11.720   7.128   7.112 -0.4412  0.2263 -0.5717
  411MOL0     C56621  11.724   7.257   7.020 -0.6552 -0.0090  0.1278
  411MOL0     C56622  11.791   7.236   6.883  0.7824  0.3927 -0.1187
  411MOL0     C56623  11.786   7.359   6.792  1.0813 -0.0866  0.1667
  411MOL0     C56624  11.651   7.362   6.721 -0.1718 -0.8765  0.0535
  411MOL0    Cl56625  11.627   7.547   6.676  0.1612  0.0053  0.0684
  411MOL0     C56626  11.210   6.721   7.047 -0.0137 -0.2197  0.0713
  411MOL0     C56627  11.102   6.672   6.981 -0.3509  0.6359  1.1632
  411MOL0     O56628  10.946   6.490   6.824 -0.4836  0.7647  0.3133
  411MOL0     C56629  10.789   6.518   6.586  0.1686 -0.0940  0.2431
  411MOL0     C56630  10.690   6.506   6.486 -0.2784 -0.4590  0.1497
  411MOL0     N56631  10.096   6.830   6.024 -0.0542  0.0824  0.9530
  411MOL0     N56632  10.004   6.928   6.014  0.7530  0.4504  0.7967
  411MOL0     C56633  10.414   7.086   5.592  0.3355 -0.6816  0.0320
  411MOL0     C56634  10.503   7.048   5.496 -0.1356  0.9686 -0.4131
  411MOL0     C56635  10.716   6.969   5.109  0.3356 -0.0472  0.9106
  411MOL0     C56636  10.629   6.960   4.999  0.0357 -0.1988 -0.5435
  411MOL0     C56637  10.661   6.909   4.880 -0.1833 -0.0469  0.2132
  411MOL0     C56638  10.791   6.884   4.844 -1.5457  0.5385 -0.1542
  411MOL0     O56639  10.845   6.850   4.727 -0.0861 -0.1406  0.0231
  411MOL0     C56640  10.764   6.780   4.629  0.5284 -0.0227 -0.2652
  411MOL0     C56641  10.851   6.742   4.508  0.1719 -0.8925 -0.5810
  411MOL0     C56642  10.899   6.876   4.445  0.5989  0.1819  0.2119
  411MOL0     C56643  10.976   6.863   4.320  0.2911 -1.3472 -0.0318
  411MOL0     C56644  10.898   6.832   4.200  0.6779  0.4207 -0.3286
  411MOL0     C56645  10.822   6.804   4.107 -0.6552  0.0332 -0.6428
  411MOL0     C56646  10.889   6.898   4.953  0.5793 -0.0648  1.2669
  411MOL0     C56647  10.852   6.936   5.080 -0.6077 -0.2262  0.5635
  411MOL0     C56648  10.961   6.947   5.185 -0.4214  0.0281  0.3442
  411MOL0     H56649  10.314   7.118   5.218 -1.9880  3.1511  0.4080
  411MOL0     H56650  10.154   7.204   5.400 -1.6523 -1.8330  1.0495
  411MOL0     H56651  10.064   7.105   5.811  0.3702  2.2579 -0.5278
  411MOL0     H56652  10.134   6.983   5.698  0.9539  0.5693 -2.3856
  411MOL0     H56653   9.981   7.227   5.584 -0.7691  0.2589  0.4482
  411MOL0     H56654  10.000   7.064   5.518  2.7189  1.4138  0.4704
  411MOL0     H56655   9.773   7.073   5.570 -0.5531  1.1441 -1.0188
  411MOL0     H56656   9.847   6.987   5.710 -1.1090  0.4220 -0.3165
  411MOL0     H56657   9.839   7.228   5.815 -0.3121  2.2631 -0.2311
  411MOL0     H56658   9.721   7.270   5.688  1.7754 -0.4400 -1.7388
  411MOL0     H56659   9.586   7.072   5.738 -0.0920  3.2964 -1.5473
  411MOL0     H56660   9.576   7.190   5.859  0.9843  0.1025  0.1545
  411MOL0     H56661   9.594   6.964   5.949 -0.1958  1.7426 -0.0589
  411MOL0     H56662   9.757   6.947   5.883 -2.5028 -3.2606  1.1628
  411MOL0     H56663   9.693   7.156   6.098  0.2565  0.0552  0.5674
  411MOL0     H56664   9.845   7.132   6.010  0.5458 -0.7718  1.1006
  411MOL0     H56665   9.860   7.018   6.225  2.0979 -2.3919 -0.9039
  411MOL0     H56666   9.715   6.919   6.175 -0.2321  0.4291  0.5402
  411MOL0     H56667   9.883   6.726   6.245 -0.2273  2.0694 -0.2804
  411MOL0     H56668  10.087   6.533   6.152  1.5327 -0.4962 -0.3456
  411MOL0     H56669  10.122   6.616   6.305  2.1530  0.4821  1.1219
  411MOL0     H56670  10.318   6.608   6.066  1.5714  1.4717 -0.5114
  411MOL0     H56671  10.348   6.672   6.232  1.1395 -2.8966  0.9370
  411MOL0     H56672  10.263   6.417   6.286  1.7461 -1.8931  0.8588
  411MOL0     H56673  10.348   6.408   6.132 -0.4368  0.4480  0.5692
  411MOL0     H56674  10.497   6.370   6.348  3.8561  0.9706  1.7464
  411MOL0     H56675  10.546   6.525   6.255  0.8114  2.5603  3.5139
  411MOL0     H56676  10.438   6.656   6.654 -1.2357 -1.2779 -1.2506
  411MOL0     H56677  10.615   6.781   6.874  1.3017 -0.2537 -1.3554
  411MOL0     H56678  10.610   6.626   6.955 -1.1853 -2.8283 -0.4820
  411MOL0     H56679  10.466   6.667   6.860 -0.1216 -1.7084 -0.0040
  411MOL0     H56680  10.980   6.940   6.840  0.7046  0.1343 -0.3428
  411MOL0     H56681  11.196   7.047   6.951 -1.2339  0.4554 -1.0504
  411MOL0     H56682  11.439   6.752   7.190  0.6182 -0.8823 -1.3340
  411MOL0     H56683  11.501   6.796   7.045 -1.8679 -3.0648 -0.1992
  411MOL0     H56684  11.518   7.011   7.255 -1.6422  0.2950 -0.7665
  411MOL0     H56685  11.648   6.891   7.213 -0.7057 -2.5306 -2.3931
  411MOL0     H56686  11.519   7.098   7.029  0.5906  1.0626  1.0885
  411MOL0     H56687  11.645   6.989   6.974 -1.2965  1.0484 -2.5105
  411MOL0     H56688  11.812   7.072   7.132 -0.2656  1.5562  3.0134
  411MOL0     H56689  11.686   7.162   7.210 -1.4565  1.0021 -1.1775
  411MOL0     H56690  11.625   7.298   7.002  0.2953  1.5158 -2.0182
  411MOL0     H56691  11.782   7.330   7.078  2.9523 -2.5361  0.0274
  411MOL0     H56692  11.741   7.151   6.836  2.1338 -0.0226 -0.8687
  411MOL0     H56693  11.895   7.201   6.884  0.6065 -0.2961 -1.7932
  411MOL0     H56694  11.870   7.379   6.724  0.9900  1.0386  0.3614
  411MOL0     H56695  11.789   7.455   6.845 -1.4386  0.6425 -0.8947
  411MOL0     H56696  11.565   7.330   6.780 -2.1786  2.9135 -0.5780
  411MOL0     H56697  11.643   7.291   6.638 -0.8764  1.5629 -2.0591
  411MOL0     H56698  11.267   6.653   7.109  0.2424 -0.6259 -0.5985
  411MOL0     H56699  11.083   6.566   6.993  3.4166 -0.1292  1.7622
  411MOL0     H56700  10.885   6.473   6.560 -0.8413 -1.6186 -1.0457
  411MOL0     H56701  10.710   6.464   6.388  0.5262  0.2650 -0.0099
  411MOL0     H56702  10.436   7.062   5.696 -0.7846  1.1104  0.7474
  411MOL0     H56703  10.602   7.018   5.527 -0.5719  0.2489  0.3488
  411MOL0     H56704  10.523   6.986   5.005 -1.1185 -4.2874 -0.2346
  411MOL0     H56705  10.587   6.914   4.801 -0.6371  1.8947  0.7122
  411MOL0     H56706  10.737   6.686   4.679  3.7785 -1.2714 -0.6278
  411MOL0     H56707  10.678   6.836   4.592  0.9941 -0.8469 -2.8201
  411MOL0     H56708  10.790   6.694   4.431 -1.1525  3.9534 -2.9489
  411MOL0     H56709  10.941   6.685   4.535  0.1791 -1.6955 -2.1416
  411MOL0     H56710  10.821   6.949   4.423 -1.0043 -1.5384 -0.0270
  411MOL0     H56711  10.963   6.916   4.525 -0.8031 -0.7431  1.8512
  411MOL0     H56712  11.062   6.795   4.323  2.1557  0.8692 -0.6688
  411MOL0     H56713  11.009   6.966   4.301  0.1774 -1.0407  1.3706
  411MOL0     H56714  10.769   6.768   4.021  0.1188 -1.2166 -0.6320
  411MOL0     H56715  10.994   6.874   4.936 -0.4501 -4.3923 -0.1844
  411MOL0     H56716  11.038   6.871   5.170 -1.5266 -1.0486  0.0055
  411MOL0     H56717  11.019   7.040   5.190 -0.8029  0.2509  0.6914
  411MOL0     H56718  10.925   6.940   5.288  2.4346  2.0158  1.6334
  412MOL0     O56719  10.340   1.522   7.492 -0.0569  0.0953  0.2000
  412MOL0     C56720  10.394   1.577   7.588 -0.4902 -0.5567  0.1253
  412MOL0     O56721  10.494   1.662   7.584 -0.2600  0.2538  0.3804
  412MOL0     C56722  10.565   1.664   7.460  0.8170  0.0766  0.9064
  412MOL0     C56723  10.695   1.624   7.448 -0.0414  0.2235 -0.2491
  412MOL0     C56724  10.758   1.635   7.323  0.7285 -0.3427  0.2248
  412MOL0     C56725  10.701   1.706   7.216  0.4482  0.4401  0.1819
  412MOL0     O56726  10.761   1.699   7.097 -0.7822 -0.2436  0.1433
  412MOL0     C56727  10.693   1.760   6.985 -0.4604 -0.2217  0.1402
  412MOL0     C56728  10.798   1.760   6.870 -0.3272 -0.2586 -0.1541
  412MOL0     C56729  10.730   1.802   6.732 -0.6664 -0.6924 -0.4894
  412MOL0     C56730  10.664   1.679   6.671  0.1331  0.6935 -0.9733
  412MOL0     C56731  10.586   1.733   6.544 -0.6308 -0.1499  0.7360
  412MOL0     C56732  10.679   1.778   6.425 -0.7104 -1.4007 -0.3793
  412MOL0     C56733  10.587   1.820   6.312 -0.4920  0.2510  0.7069
  412MOL0     C56734  10.661   1.849   6.179  0.1469  0.0607  0.5649
  412MOL0     N56735  10.744   1.971   6.187 -0.1471  0.8557 -0.3595
  412MOL0     C56736  10.701   2.098   6.156  0.0703  0.3915  0.0155
  412MOL0     C56737  10.812   2.177   6.165 -0.8742 -1.4686  0.6630
  412MOL0     C56738  10.802   2.332   6.161  1.4388  0.0205  0.1711
  412MOL0     C56739  10.736   2.389   6.284  0.3751  0.0804 -0.7807
  412MOL0     C56740  10.590   2.358   6.316  0.1898 -0.2568  0.8123
  412MOL0     C56741  10.525   2.468   6.400 -0.9862 -0.6040  0.4296
  412MOL0     O56742  10.410   2.403   6.472  0.5853 -0.1336  0.3084
  412MOL0     C56743  10.421   2.313   6.571 -0.0454 -0.3316 -0.7660
  412MOL0     C56744  10.532   2.282   6.643 -0.0378 -0.8497  0.5069
  412MOL0     C56745  10.529   2.196   6.749 -0.9731 -0.2005 -0.1975
  412MOL0     C56746  10.670   2.184   6.804  0.1617  0.3390 -0.8020
  412MOL0     C56747  10.410   2.132   6.787  0.7096 -0.3270 -0.2776
  412MOL0     C56748  10.397   2.034   6.895  0.5432 -0.4019 -0.1293
  412MOL0     O56749  10.291   1.961   6.886  0.0322 -0.1425  0.4261
  412MOL0     C56750  10.272   1.848   6.964  0.2725 -0.1803 -0.2494
  412MOL0     C56751  10.160   1.840   7.058 -0.5712 -0.6878 -0.7325
  412MOL0     C56752  10.125   1.721   7.119  0.2165 -0.1694 -0.2520
  412MOL0     C56753  10.202   1.608   7.105  0.0736  0.7848 -0.1573
  412MOL0     O56754  10.162   1.501   7.189  0.0051  0.2378 -0.5099
  412MOL0     C56755  10.229   1.371   7.175 -0.1488 -1.0861 -1.3420
  412MOL0     C56756  10.168   1.299   7.064 -0.4174 -0.2020  0.5951
  412MOL0     C56757  10.019   1.287   7.069 -0.1979  0.4809  0.4054
  412MOL0     C56758   9.970   1.148   6.987  0.3835 -0.6704 -0.6531
  412MOL0     C56759   9.996   1.138   6.834  0.6448 -0.0905 -0.9283
  412MOL0     C56760   9.972   0.992   6.790  0.4587 -0.3008  0.5113
  412MOL0     C56761   9.983   0.968   6.636  0.0853 -0.6061 -0.2652
  412MOL0     C56762   9.968   0.819   6.610 -0.7506 -0.2096 -0.6967
  412MOL0    Cl56763  10.133   0.750   6.619 -0.1689  0.0247 -0.3099
  412MOL0     C56764  10.308   1.614   7.024 -1.3819 -0.3348 -0.6821
  412MOL0     C56765  10.336   1.728   6.951 -0.4525 -0.1182  0.3514
  412MOL0     O56766  10.483   2.028   6.978 -0.3772 -0.1044  0.2119
  412MOL0     C56767  10.296   2.170   6.719  0.2830 -0.7982 -0.1831
  412MOL0     C56768  10.303   2.254   6.607 -0.4587 -0.4631 -0.1237
  412MOL0     N56769  10.916   2.098   6.198 -0.0607  0.4270  0.9877
  412MOL0     N56770  10.878   1.970   6.212  0.0502  0.2936  0.3993
  412MOL0     C56771  10.565   1.754   7.229 -0.9356 -0.1046  0.6859
  412MOL0     C56772  10.500   1.724   7.350  0.0126 -0.1054 -0.6473
  412MOL0     C56773  10.349   1.537   7.728  0.3075 -0.6718  0.6636
  412MOL0     C56774  10.426   1.589   7.836 -0.0572  0.0411 -0.3351
  412MOL0     C56775  10.397   1.568   7.968 -0.1535  0.0488  0.7538
  412MOL0     C56776  10.294   1.486   7.997 -0.8120  0.5510  0.3237
  412MOL0     O56777  10.272   1.476   8.136  0.5302  0.2454 -0.0529
  412MOL0     C56778  10.184   1.376   8.180 -0.5711  0.8674 -0.0107
  412MOL0     C56779  10.159   1.385   8.329  0.1439  0.0714 -0.1710
  412MOL0     C56780  10.073   1.271   8.401  0.2842 -0.4378 -0.2845
  412MOL0     C56781   9.919   1.313   8.406  0.1448  0.9954  0.2735
  412MOL0     C56782   9.860   1.301   8.261 -0.1513  0.4211  0.2827
  412MOL0     C56783   9.810   1.290   8.154 -0.0628  1.0372  0.1044
  412MOL0     C56784  10.217   1.430   7.896  0.0743  0.1532 -0.0038
  412MOL0     C56785  10.252   1.448   7.763  0.6416  0.1411  0.5829
  412MOL0     C56786  10.165   1.383   7.651  0.7529  0.8971  0.7291
  412MOL0     H56787  10.740   1.565   7.527 -0.2762 -0.5002 -0.6358
  412MOL0     H56788  10.861   1.606   7.308  0.2957 -1.7430 -0.1846
  412MOL0     H56789  10.658   1.861   7.008  0.7268  0.0296  0.8935
  412MOL0     H56790  10.609   1.690   6.975 -1.5387  0.6852  2.1351
  412MOL0     H56791  10.880   1.825   6.901  0.5010 -2.3864  2.4921
  412MOL0     H56792  10.840   1.659   6.867  2.7222  0.8358  1.1900
  412MOL0     H56793  10.655   1.881   6.740  0.6377  0.7617 -1.7630
  412MOL0     H56794  10.809   1.845   6.670  1.4033 -1.4098  1.5241
  412MOL0     H56795  10.745   1.610   6.645 -0.7495 -0.9430  0.3761
  412MOL0     H56796  10.597   1.634   6.745  1.3947 -0.0640 -0.2468
  412MOL0     H56797  10.534   1.824   6.577  1.7485  1.4830  0.2667
  412MOL0     H56798  10.521   1.655   6.504  0.0265 -0.5142  0.3491
  412MOL0     H56799  10.752   1.853   6.458 -2.6485  0.2033  0.5045
  412MOL0     H56800  10.729   1.683   6.405 -2.7027 -2.9805  1.6620
  412MOL0     H56801  10.517   1.900   6.338 -2.2060 -0.2921 -1.7753
  412MOL0     H56802  10.524   1.734   6.286  3.9962 -3.2420  0.2996
  412MOL0     H56803  10.724   1.763   6.154 -2.4723 -1.6844 -0.5753
  412MOL0     H56804  10.582   1.853   6.103 -0.2630  0.5932  1.0174
  412MOL0     H56805  10.597   2.125   6.143  0.1587  1.7351  1.7107
  412MOL0     H56806  10.745   2.365   6.073  0.0842  2.1351  1.7494
  412MOL0     H56807  10.902   2.375   6.154  0.5836  1.8280 -3.6785
  412MOL0     H56808  10.804   2.360   6.365  1.4328 -1.0190 -2.0136
  412MOL0     H56809  10.745   2.497   6.268  2.3129  0.4211  1.9149
  412MOL0     H56810  10.545   2.337   6.218  0.8937  0.9505  0.2195
  412MOL0     H56811  10.593   2.257   6.359  1.6498 -1.2745 -1.4319
  412MOL0     H56812  10.604   2.501   6.468 -0.0595  1.6552 -1.6060
  412MOL0     H56813  10.494   2.552   6.337 -1.0609 -0.9993 -0.0695
  412MOL0     H56814  10.621   2.341   6.619 -0.0099 -0.2058  2.0511
  412MOL0     H56815  10.695   2.268   6.870  2.5696 -1.6991  1.1281
  412MOL0     H56816  10.738   2.173   6.719 -0.6555  3.6597 -2.0266
  412MOL0     H56817  10.672   2.091   6.863 -3.8302  1.0486  0.7744
  412MOL0     H56818  10.116   1.936   7.082  3.9274  1.6805 -0.8008
  412MOL0     H56819  10.052   1.713   7.199  0.4805 -0.8610 -0.0760
  412MOL0     H56820  10.336   1.372   7.149 -0.0742  0.2713 -1.0576
  412MOL0     H56821  10.226   1.310   7.266  0.6494 -0.0805 -0.6148
  412MOL0     H56822  10.179   1.358   6.973 -0.2467  0.4925  1.0580
  412MOL0     H56823  10.211   1.199   7.050 -0.4733 -0.0905 -0.4573
  412MOL0     H56824   9.970   1.373   7.024 -1.6543 -0.8086 -0.5881
  412MOL0     H56825   9.995   1.274   7.175  0.3780 -1.7851  0.3147
  412MOL0     H56826   9.865   1.131   7.015  0.6303 -0.4617  0.4718
  412MOL0     H56827  10.018   1.063   7.037  1.5523  1.0358  1.3050
  412MOL0     H56828   9.938   1.210   6.775  0.7973  1.0056  0.2201
  412MOL0     H56829  10.099   1.165   6.806  0.8053  1.8922  1.3050
  412MOL0     H56830   9.873   0.957   6.819  0.1860  0.4358  0.4934
  412MOL0     H56831  10.039   0.929   6.848  1.8961  1.2647  0.6267
  412MOL0     H56832  10.078   1.011   6.604 -1.5902  0.2742 -4.7512
  412MOL0     H56833   9.908   1.022   6.578 -0.5705  0.4260  1.4573
  412MOL0     H56834   9.917   0.800   6.515  1.3176 -2.0902 -1.5489
  412MOL0     H56835   9.922   0.769   6.695  1.6620  0.3450  1.0488
  412MOL0     H56836  10.377   1.530   7.019 -2.3203 -1.1946  0.1589
  412MOL0     H56837  10.420   1.725   6.882 -2.6237  0.9490 -2.5587
  412MOL0     H56838  10.198   2.130   6.746  0.0011 -1.4008 -1.9926
  412MOL0     H56839  10.216   2.265   6.543 -2.2135 -1.5120  1.9524
  412MOL0     H56840  10.505   1.803   7.153 -2.5974 -2.8745  0.0640
  412MOL0     H56841  10.398   1.758   7.362 -0.9597 -3.1197  0.6726
  412MOL0     H56842  10.514   1.651   7.823 -1.3174  2.5597  1.9538
  412MOL0     H56843  10.462   1.607   8.046 -2.3879 -1.7133  3.6682
  412MOL0     H56844  10.088   1.390   8.130 -1.6857 -4.0797  0.2872
  412MOL0     H56845  10.211   1.275   8.150  0.7175  0.4692  2.3149
  412MOL0     H56846  10.106   1.477   8.354  0.1306 -0.1294  0.5422
  412MOL0     H56847  10.253   1.391   8.385 -1.4380 -1.9863  2.9732
  412MOL0     H56848  10.074   1.177   8.346 -4.7464  0.2339 -2.0006
  412MOL0     H56849  10.108   1.260   8.504  1.3570 -0.6472 -0.6596
  412MOL0     H56850   9.904   1.413   8.447 -1.1554  0.4432  1.2002
  412MOL0     H56851   9.868   1.235   8.463 -0.2071  1.8593  1.1710
  412MOL0     H56852   9.742   1.270   8.074  1.4460 -3.7128 -0.2887
  412MOL0     H56853  10.125   1.372   7.907  0.1166  0.0169 -0.3605
  412MOL0     H56854  10.234   1.318   7.597  1.5821  1.8971  0.5529
  412MOL0     H56855  10.098   1.310   7.697 -0.7286  1.8393  0.1314
  412MOL0     H56856  10.109   1.451   7.587  1.7083  0.9070 -0.1154
  413MOL0     O56857   1.053  11.043   7.598 -0.1979  0.2229 -0.7593
  413MOL0     C56858   1.116  10.986   7.685  1.4169 -0.4640  0.0377
  413MOL0     O56859   1.077  10.868   7.740  0.1179  1.0305  0.8577
  413MOL0     C56860   0.948  10.816   7.697  0.0367 -0.0754 -0.7207
  413MOL0     C56861   0.922  10.761   7.569  0.3067 -0.8060  0.0602
  413MOL0     C56862   0.796  10.705   7.530  0.3072 -0.0758  0.2039
  413MOL0     C56863   0.708  10.691   7.634  1.8240  0.3650 -0.3424
  413MOL0     O56864   0.579  10.635   7.619 -0.8642 -0.4205 -0.7934
  413MOL0     C56865   0.519  10.589   7.500  0.3283 -0.7300  0.2751
  413MOL0     C56866   0.397  10.523   7.560  0.4135  0.8261 -0.4104
  413MOL0     C56867   0.298  10.453   7.457 -0.5438 -0.1577 -0.5966
  413MOL0     C56868   0.188  10.388   7.533  0.7433  0.0300  0.1042
  413MOL0     C56869   0.103  10.276   7.460  0.3420 -0.0463 -0.4549
  413MOL0     C56870   0.189  10.165   7.389 -0.6140 -0.1742 -0.3742
  413MOL0     C56871   0.098  10.056   7.335 -0.8226 -1.2360 -0.2197
  413MOL0     C56872   0.186   9.948   7.282  0.0671  1.1057 -0.1982
  413MOL0     N56873   0.267   9.977   7.159 -0.5685 -0.3259 -0.4292
  413MOL0     C56874   0.243  10.078   7.070  0.4605  0.5489  0.3700
  413MOL0     C56875   0.348  10.079   6.982  0.8540  0.5502 -0.0999
  413MOL0     C56876   0.375  10.153   6.853 -0.3079 -0.0410  0.6256
  413MOL0     C56877   0.241  10.215   6.799 -0.2905  0.5663  0.2540
  413MOL0     C56878   0.128  10.126   6.747  0.6031 -0.0477  0.1680
  413MOL0     C56879  -0.007  10.206   6.746 -0.2887  0.3440  0.3285
  413MOL0     O56880  -0.097  10.189   6.638  0.3383 -0.2478  0.8923
  413MOL0     C56881  -0.155  10.069   6.603  0.5764  0.2306  0.3360
  413MOL0     C56882  -0.259  10.005   6.677  0.1663 -0.4829  0.0744
  413MOL0     C56883  -0.284   9.869   6.648 -0.3436 -0.0150 -0.1254
  413MOL0     C56884  -0.393   9.812   6.729 -0.7492  0.1806 -0.2723
  413MOL0     C56885  -0.208   9.800   6.546  0.4638 -0.0669  0.5589
  413MOL0     C56886  -0.209   9.659   6.514 -0.3055  0.7907 -0.9886
  413MOL0     O56887  -0.133   9.616   6.415  0.0660 -0.2366  0.3867
  413MOL0     C56888  -0.125   9.487   6.373 -0.1360  0.4479 -0.4690
  413MOL0     C56889  -0.002   9.431   6.382  1.3321 -0.4129 -0.0926
  413MOL0     C56890   0.003   9.288   6.371 -0.7163 -0.0728 -0.0991
  413MOL0     C56891  -0.104   9.210   6.337  0.4063  0.8724  0.4062
  413MOL0     O56892  -0.084   9.074   6.308 -0.5668  0.1206  0.3433
  413MOL0     C56893  -0.179   8.995   6.240  1.1073  0.5440  0.5893
  413MOL0     C56894  -0.134   8.851   6.209 -0.1346 -0.3459 -0.1018
  413MOL0     C56895  -0.007   8.854   6.124 -0.0008 -0.1512  0.0051
  413MOL0     C56896   0.098   8.761   6.182 -0.3313 -0.0275  0.7487
  413MOL0     C56897   0.047   8.614   6.167 -1.0810 -0.0174 -0.1862
  413MOL0     C56898   0.156   8.509   6.226  0.4025 -0.8704  0.9631
  413MOL0     C56899   0.256   8.481   6.109 -0.1781 -0.3272 -1.0023
  413MOL0     C56900   0.356   8.372   6.153 -0.9786 -0.1527 -0.1001
  413MOL0    Cl56901   0.407   8.400   6.324 -0.4465 -0.1835 -0.4005
  413MOL0     C56902  -0.225   9.272   6.311 -0.5796  0.4482 -1.5795
  413MOL0     C56903  -0.239   9.409   6.327  0.2987 -0.2596 -0.0816
  413MOL0     O56904  -0.263   9.587   6.590 -0.4369  1.2728 -0.2503
  413MOL0     C56905  -0.133   9.878   6.461 -1.3258 -0.3014  0.5830
  413MOL0     C56906  -0.107  10.015   6.485  0.5302  0.2347 -1.0898
  413MOL0     N56907   0.440   9.992   7.036  0.8583  0.4156 -0.0688
  413MOL0     N56908   0.400   9.938   7.142 -0.1220  0.8050  0.4464
  413MOL0     C56909   0.732  10.726   7.767 -0.5790  0.6717  0.0619
  413MOL0     C56910   0.855  10.783   7.794  1.1265 -0.3741 -0.5716
  413MOL0     C56911   1.234  11.048   7.748 -0.2758  0.3231  0.5470
  413MOL0     C56912   1.249  11.189   7.740  1.1222 -0.2472 -0.3981
  413MOL0     C56913   1.354  11.264   7.808 -0.4964  0.7554  1.0973
  413MOL0     C56914   1.455  11.186   7.867 -0.1869  0.0332 -0.0358
  413MOL0     O56915   1.573  11.248   7.918 -0.0378  0.5136  0.6358
  413MOL0     C56916   1.600  11.387   7.942  0.5456  0.4674  0.1783
  413MOL0     C56917   1.695  11.421   7.834  0.2753  0.4647  0.4656
  413MOL0     C56918   1.713  11.574   7.808 -0.6054  1.2098 -0.5919
  413MOL0     C56919   1.799  11.615   7.690 -1.0132  1.7293  0.3875
  413MOL0     C56920   1.941  11.578   7.695  0.4646 -0.7435  0.1335
  413MOL0     C56921   2.059  11.543   7.671  0.8703 -0.5596  0.0617
  413MOL0     C56922   1.445  11.047   7.865 -0.3675 -0.0273 -0.3482
  413MOL0     C56923   1.340  10.973   7.815 -0.6094 -0.6548 -0.7114
  413MOL0     C56924   1.347  10.819   7.839  0.5927 -0.5902 -0.1454
  413MOL0     H56925   1.001  10.788   7.499  1.3547  1.2708  1.8891
  413MOL0     H56926   0.769  10.665   7.433  0.4909 -1.8461  0.8444
  413MOL0     H56927   0.580  10.521   7.441 -2.1231 -3.8393  1.0262
  413MOL0     H56928   0.488  10.667   7.430  0.8302 -0.7061  0.0776
  413MOL0     H56929   0.430  10.447   7.631 -2.1151 -0.8701 -0.9103
  413MOL0     H56930   0.343  10.600   7.616  1.8013  0.4834  1.5024
  413MOL0     H56931   0.270  10.523   7.378  0.8181  2.4045  1.0667
  413MOL0     H56932   0.341  10.369   7.401  1.3163 -1.4025  2.4763
  413MOL0     H56933   0.233  10.325   7.610 -0.4886 -4.6129 -2.5705
  413MOL0     H56934   0.125  10.463   7.581  1.0513 -0.3245  1.0937
  413MOL0     H56935   0.037  10.318   7.383 -0.9595 -0.1363  0.5798
  413MOL0     H56936   0.050  10.221   7.538  2.1973  1.3692  1.9315
  413MOL0     H56937   0.260  10.200   7.314  0.5917 -0.2667  0.6961
  413MOL0     H56938   0.265  10.137   7.462  0.4814  2.5088 -0.3820
  413MOL0     H56939   0.041  10.095   7.250  2.0621 -1.3531 -2.3530
  413MOL0     H56940   0.037  10.022   7.419  2.1927 -2.1648  1.7513
  413MOL0     H56941   0.258   9.917   7.359  1.2324 -3.4489 -2.7527
  413MOL0     H56942   0.127   9.859   7.259  2.0277 -0.6344  1.1144
  413MOL0     H56943   0.148  10.126   7.050  0.9911  1.2781 -0.4569
  413MOL0     H56944   0.419  10.088   6.777 -1.3084  0.4317 -0.3781
  413MOL0     H56945   0.440  10.235   6.885 -0.5431 -0.3105  1.8565
  413MOL0     H56946   0.201  10.277   6.880 -1.0147  0.3677  0.0512
  413MOL0     H56947   0.280  10.273   6.715  2.6131 -1.7732 -0.1734
  413MOL0     H56948   0.163  10.083   6.652 -1.3384  1.2293 -1.2034
  413MOL0     H56949   0.119  10.040   6.814 -2.5421  0.2408  0.2561
  413MOL0     H56950  -0.060  10.191   6.840 -0.3616 -1.5257  0.0213
  413MOL0     H56951   0.025  10.311   6.736  0.4334 -0.0383 -2.2709
  413MOL0     H56952  -0.302  10.070   6.753 -0.9572  0.4422 -1.2945
  413MOL0     H56953  -0.420   9.879   6.812 -1.2706 -0.5548  0.1679
  413MOL0     H56954  -0.354   9.721   6.776  0.9627  1.0858  0.1529
  413MOL0     H56955  -0.481   9.786   6.669 -1.1350  2.0430 -0.5806
  413MOL0     H56956   0.092   9.482   6.402  1.1242 -0.4912  1.1238
  413MOL0     H56957   0.095   9.231   6.366 -0.6993 -0.2755  1.7126
  413MOL0     H56958  -0.275   8.986   6.293 -0.5290  3.0008 -1.6864
  413MOL0     H56959  -0.211   9.042   6.147  0.5157 -1.8064 -0.4576
  413MOL0     H56960  -0.125   8.802   6.306 -1.9046  0.5500  0.5619
  413MOL0     H56961  -0.214   8.799   6.156 -0.5541  1.4352 -1.3333
  413MOL0     H56962   0.045   8.950   6.121  0.7069 -0.5323 -0.1634
  413MOL0     H56963  -0.034   8.826   6.022  3.0819 -2.4569 -0.3171
  413MOL0     H56964   0.115   8.776   6.289 -1.3667  0.8485  0.8032
  413MOL0     H56965   0.196   8.797   6.148  0.1644 -0.1341  1.9953
  413MOL0     H56966  -0.050   8.592   6.212  0.7175 -0.4736  3.8765
  413MOL0     H56967   0.035   8.595   6.059 -0.6380  1.0240 -0.4309
  413MOL0     H56968   0.112   8.421   6.275  0.8045 -2.3977 -1.2437
  413MOL0     H56969   0.202   8.553   6.315 -2.4023 -1.6258  2.9166
  413MOL0     H56970   0.309   8.569   6.073 -0.6685  1.8445  2.9776
  413MOL0     H56971   0.198   8.445   6.023 -1.1517 -1.8154  0.2174
  413MOL0     H56972   0.444   8.376   6.089 -0.0402  0.4570  1.1850
  413MOL0     H56973   0.300   8.278   6.147 -1.0659 -0.1533  0.5952
  413MOL0     H56974  -0.316   9.218   6.289 -2.2819  1.3096  2.3727
  413MOL0     H56975  -0.334   9.456   6.306 -0.6675 -2.5557 -1.1274
  413MOL0     H56976  -0.086   9.830   6.375  1.3466  1.0904  1.1705
  413MOL0     H56977  -0.044  10.081   6.427 -0.2991  0.5179 -1.6876
  413MOL0     H56978   0.661  10.708   7.847  1.0702  0.3191  1.4973
  413MOL0     H56979   0.883  10.800   7.898  2.9216  3.2410 -1.4777
  413MOL0     H56980   1.163  11.246   7.703 -2.5819 -4.8377  0.1979
  413MOL0     H56981   1.366  11.371   7.798  1.4246  0.3668 -1.7735
  413MOL0     H56982   1.508  11.445   7.950  1.3612  1.5800  2.7742
  413MOL0     H56983   1.648  11.402   8.039  1.2497  2.1045 -0.3824
  413MOL0     H56984   1.637  11.386   7.748 -2.8906 -1.6482  3.1981
  413MOL0     H56985   1.785  11.361   7.849 -0.9664 -1.9363 -1.0573
  413MOL0     H56986   1.616  11.625   7.805 -0.0325  2.3058 -1.0248
  413MOL0     H56987   1.778  11.602   7.891  0.7078  2.9546 -2.1424
  413MOL0     H56988   1.797  11.724   7.682 -1.3689  1.6188 -1.6287
  413MOL0     H56989   1.762  11.578   7.594 -1.9619 -0.3933  1.4918
  413MOL0     H56990   2.160  11.513   7.654  0.0590 -2.5142 -1.7849
  413MOL0     H56991   1.529  11.008   7.921 -0.0923 -0.4724 -1.0589
  413MOL0     H56992   1.446  10.785   7.870  1.0612 -1.7417 -2.6332
  413MOL0     H56993   1.266  10.771   7.894 -0.5085  0.6608 -0.5985
  413MOL0     H56994   1.333  10.776   7.739 -3.0278  1.4226 -0.7063
  414MOL0     O56995  11.103   2.432   2.146 -1.1734  0.7474 -0.0779
  414MOL0     C56996  11.197   2.356   2.110  0.2155 -0.2272  0.2251
  414MOL0     O56997  11.268   2.274   2.190 -1.3210  0.5477  0.3397
  414MOL0     C56998  11.248   2.280   2.324  0.3105 -0.3568 -0.7900
  414MOL0     C56999  11.245   2.402   2.392  0.0664  0.9189  0.2328
  414MOL0     C57000  11.240   2.413   2.535  0.2742 -0.5166 -0.3518
  414MOL0     C57001  11.239   2.298   2.616 -0.7171 -0.5369  1.3683
  414MOL0     O57002  11.227   2.322   2.747  0.0748  0.3971  0.2497
  414MOL0     C57003  11.228   2.210   2.836  0.8728  0.5108  0.0242
  414MOL0     C57004  11.106   2.234   2.930  0.5420  0.4743 -0.9156
  414MOL0     C57005  10.977   2.164   2.886  0.0154  0.5867 -0.2609
  414MOL0     C57006  10.858   2.254   2.891 -0.1537 -0.1929 -1.3882
  414MOL0     C57007  10.735   2.185   2.835  0.6214  0.4331  1.0566
  414MOL0     C57008  10.624   2.290   2.821  0.1619  0.4932  0.3064
  414MOL0     C57009  10.493   2.243   2.762 -0.1586  0.2179 -0.1926
  414MOL0     C57010  10.499   2.192   2.615 -1.0486 -0.9932  0.1104
  414MOL0     N57011  10.375   2.114   2.578 -0.0310  0.0954  0.2656
  414MOL0     C57012  10.240   2.159   2.575 -0.1459  0.0600  0.7766
  414MOL0     C57013  10.164   2.072   2.517 -0.5145 -0.1121  0.7593
  414MOL0     C57014  10.013   2.098   2.491  0.4367  0.5285  0.0403
  414MOL0     C57015   9.937   2.064   2.620  0.0394 -1.5868 -0.3152
  414MOL0     C57016   9.933   1.923   2.666 -0.1625  0.0910  0.2904
  414MOL0     C57017   9.795   1.905   2.728 -0.5470 -0.3825  0.1570
  414MOL0     O57018   9.764   2.005   2.829  0.2786  0.3845 -0.0836
  414MOL0     C57019   9.836   2.005   2.944 -0.4181  0.1523  0.4545
  414MOL0     C57020   9.904   1.893   2.990  0.2668 -1.1863 -0.5386
  414MOL0     C57021   9.983   1.895   3.106  0.1264  0.5041 -0.0314
  414MOL0     C57022  10.069   1.778   3.125  0.0316  0.0279  0.4653
  414MOL0     C57023   9.979   1.997   3.197 -0.8216 -0.2912  0.1824
  414MOL0     C57024  10.038   2.007   3.334  0.1327  0.0990  0.0977
  414MOL0     O57025  10.117   1.900   3.380  0.0751 -0.2492 -0.3638
  414MOL0     C57026  10.146   1.891   3.513  0.9151 -0.1627 -0.4794
  414MOL0     C57027  10.257   1.962   3.569 -0.0323  1.2441 -0.0565
  414MOL0     C57028  10.290   1.941   3.706  0.2242 -0.1937 -1.0040
  414MOL0     C57029  10.216   1.855   3.787  0.1267 -0.6137 -0.1878
  414MOL0     O57030  10.237   1.829   3.919 -0.0224 -0.7111 -0.5695
  414MOL0     C57031  10.330   1.921   3.985 -0.4196  0.1824  0.2237
  414MOL0     C57032  10.355   1.872   4.126 -0.5454 -0.2393  0.4380
  414MOL0     C57033  10.439   1.977   4.206 -0.2643  1.0591 -1.1577
  414MOL0     C57034  10.514   1.912   4.316 -0.2277  0.1802  0.3620
  414MOL0     C57035  10.531   2.023   4.422 -0.8290  0.0183 -0.9320
  414MOL0     C57036  10.656   1.990   4.504  0.8053  0.9661 -0.7957
  414MOL0     C57037  10.633   2.061   4.640 -1.0491  0.5384 -0.0411
  414MOL0     C57038  10.774   2.078   4.708  0.6229 -0.1315  0.3598
  414MOL0    Cl57039  10.763   2.139   4.871  0.5262  0.0693  0.1749
  414MOL0     C57040  10.113   1.778   3.728  0.3820  0.8241  0.2927
  414MOL0     C57041  10.066   1.799   3.593  0.5333  0.0511  0.3710
  414MOL0     O57042  10.041   2.117   3.381  0.6027 -0.6191 -0.0343
  414MOL0     C57043   9.890   2.100   3.165 -0.1033  0.3242 -0.6398
  414MOL0     C57044   9.830   2.108   3.037 -0.1703 -0.5415 -0.8301
  414MOL0     N57045  10.248   1.966   2.480 -0.0597  0.7888  0.8944
  414MOL0     N57046  10.368   1.990   2.532  0.1855  0.0709  0.5327
  414MOL0     C57047  11.249   2.171   2.546 -0.6473 -0.0253 -0.7632
  414MOL0     C57048  11.250   2.170   2.404 -0.3422 -0.4603  0.3501
  414MOL0     C57049  11.217   2.356   1.962 -0.3588  0.6054 -0.5021
  414MOL0     C57050  11.264   2.232   1.906  0.5768 -0.2406  0.8052
  414MOL0     C57051  11.261   2.217   1.771 -0.2565 -0.9589 -1.4903
  414MOL0     C57052  11.233   2.309   1.678  0.0743  0.4579  0.3634
  414MOL0     O57053  11.241   2.269   1.545  0.4660  0.0482 -0.6771
  414MOL0     C57054  11.239   2.376   1.449 -0.8202 -0.1402  0.3753
  414MOL0     C57055  11.364   2.463   1.441  0.0926  0.5167 -0.0737
  414MOL0     C57056  11.496   2.375   1.428  0.4722 -0.3307  0.0509
  414MOL0     C57057  11.630   2.447   1.450 -0.0392  1.0180 -0.3138
  414MOL0     C57058  11.726   2.346   1.489 -0.2510 -0.5299  0.1323
  414MOL0     C57059  11.808   2.270   1.533  0.8586 -0.0868 -0.6295
  414MOL0     C57060  11.207   2.440   1.728  0.5066 -0.2575 -0.1574
  414MOL0     C57061  11.189   2.457   1.869  0.4281  0.8548  1.0444
  414MOL0     C57062  11.143   2.591   1.918  0.6690 -0.1844  0.6132
  414MOL0     H57063  11.255   2.498   2.341  3.8218 -0.4272 -1.9018
  414MOL0     H57064  11.226   2.513   2.576  0.9572 -1.4176  2.2992
  414MOL0     H57065  11.319   2.215   2.896  0.5961 -2.9631  0.9386
  414MOL0     H57066  11.214   2.111   2.791 -1.0862  0.2968  0.9792
  414MOL0     H57067  11.117   2.200   3.033 -0.9684  3.3269  0.2983
  414MOL0     H57068  11.097   2.341   2.948  0.3817  0.1216  1.3967
  414MOL0     H57069  10.991   2.132   2.783  1.3672  1.8829 -0.5252
  414MOL0     H57070  10.963   2.077   2.951 -2.3610  0.6567 -0.5859
  414MOL0     H57071  10.838   2.274   2.997  0.9769  0.2053 -1.2393
  414MOL0     H57072  10.883   2.341   2.830 -2.2376 -0.8911 -3.3786
  414MOL0     H57073  10.702   2.107   2.905 -1.1381 -3.6693 -3.6983
  414MOL0     H57074  10.755   2.139   2.738  2.4609  1.2899  0.9974
  414MOL0     H57075  10.608   2.333   2.920  1.1286 -1.2214  1.2445
  414MOL0     H57076  10.665   2.360   2.748  0.2177 -0.6667 -0.8013
  414MOL0     H57077  10.422   2.324   2.781 -1.3247 -1.1904  1.7138
  414MOL0     H57078  10.461   2.154   2.815  1.0306  0.4597  0.9865
  414MOL0     H57079  10.521   2.272   2.543  0.5243 -1.2493  0.2825
  414MOL0     H57080  10.583   2.124   2.600 -1.7457 -1.6856 -0.7854
  414MOL0     H57081  10.218   2.264   2.596 -2.6647 -0.4617  1.0879
  414MOL0     H57082   9.971   2.039   2.409 -1.2394 -0.2699  1.4129
  414MOL0     H57083  10.003   2.202   2.460  0.0357  0.6019  0.4184
  414MOL0     H57084   9.981   2.129   2.696 -1.0967 -1.2684  0.0884
  414MOL0     H57085   9.841   2.116   2.605  2.9991  4.7068 -0.6188
  414MOL0     H57086   9.928   1.853   2.582  0.9102 -1.1480  1.2001
  414MOL0     H57087  10.017   1.904   2.733  0.3196  1.5457  0.1269
  414MOL0     H57088   9.721   1.911   2.647 -1.1312  0.0608  0.7032
  414MOL0     H57089   9.783   1.802   2.763 -1.6563 -0.3488 -0.0827
  414MOL0     H57090   9.898   1.804   2.928 -2.8027 -1.8963  0.5980
  414MOL0     H57091  10.000   1.703   3.166 -0.7257  0.2999 -0.2704
  414MOL0     H57092  10.158   1.796   3.185  1.3347  1.7198 -1.8490
  414MOL0     H57093  10.103   1.752   3.025 -0.7574 -1.1807  0.4904
  414MOL0     H57094  10.322   2.028   3.513  4.8578 -2.5733  0.4619
  414MOL0     H57095  10.370   2.000   3.748 -1.3251 -0.4879  2.7606
  414MOL0     H57096  10.428   1.929   3.938  0.2703  1.2377  1.7883
  414MOL0     H57097  10.281   2.018   3.998  2.6780  1.8588  0.2239
  414MOL0     H57098  10.265   1.851   4.185  0.0323  1.0090  1.8208
  414MOL0     H57099  10.417   1.783   4.114 -1.2090 -0.6064 -0.3787
  414MOL0     H57100  10.374   2.052   4.253 -2.3181 -2.6934  2.7013
  414MOL0     H57101  10.510   2.030   4.142 -0.0907  2.3974  0.1014
  414MOL0     H57102  10.608   1.879   4.270  0.6516  2.4519  0.4208
  414MOL0     H57103  10.453   1.835   4.363  1.5219  0.2265  2.9093
  414MOL0     H57104  10.537   2.123   4.379 -1.2840  1.5093  2.2380
  414MOL0     H57105  10.440   2.019   4.482  1.0549  0.2015  2.1462
  414MOL0     H57106  10.741   2.040   4.457  0.2337  2.8169  0.0440
  414MOL0     H57107  10.676   1.883   4.515 -4.9177 -0.2326  2.1450
  414MOL0     H57108  10.578   1.998   4.710  0.2841 -1.1001 -0.4015
  414MOL0     H57109  10.589   2.161   4.626 -0.0949  1.0315  0.3495
  414MOL0     H57110  10.836   2.144   4.647 -0.4677  1.1548  0.5981
  414MOL0     H57111  10.801   1.972   4.715 -2.9923 -1.5545 -3.3372
  414MOL0     H57112  10.063   1.701   3.786  1.6654 -0.7418 -0.5954
  414MOL0     H57113   9.975   1.752   3.556 -0.3233 -0.5629  3.0260
  414MOL0     H57114   9.871   2.185   3.230  2.5571  0.2830  0.2984
  414MOL0     H57115   9.758   2.187   3.022  0.7395  0.7769  1.2726
  414MOL0     H57116  11.263   2.078   2.600 -1.3944 -0.5586 -1.4686
  414MOL0     H57117  11.269   2.071   2.364 -0.0505 -0.2967  0.0720
  414MOL0     H57118  11.295   2.145   1.963  1.3815 -0.7469 -0.3479
  414MOL0     H57119  11.284   2.123   1.722  1.5703 -0.0755 -2.4100
  414MOL0     H57120  11.223   2.319   1.357  1.0572 -0.1139 -0.0225
  414MOL0     H57121  11.159   2.449   1.461  0.7461  1.7080  0.1525
  414MOL0     H57122  11.367   2.520   1.534 -0.3995 -1.7000  1.3924
  414MOL0     H57123  11.356   2.526   1.352  1.3620  1.1833  0.2524
  414MOL0     H57124  11.490   2.288   1.494  1.1551  0.5799  1.3551
  414MOL0     H57125  11.481   2.335   1.328  1.8497 -1.1617  0.1581
  414MOL0     H57126  11.618   2.517   1.533  0.9613 -0.5575  1.2237
  414MOL0     H57127  11.667   2.503   1.363 -4.5247  3.8479 -0.7403
  414MOL0     H57128  11.876   2.198   1.574  0.9134  0.8838  1.1017
  414MOL0     H57129  11.182   2.524   1.665 -1.1066  1.2283  2.2757
  414MOL0     H57130  11.224   2.630   1.981  2.4817  1.6369 -2.6022
  414MOL0     H57131  11.130   2.657   1.832 -1.0778 -1.1632  0.0882
  414MOL0     H57132  11.055   2.591   1.983  0.9564  0.7816  1.0239
  415MOL0     O57133   8.360   0.147   7.589 -0.1465 -0.6711 -0.2115
  415MOL0     C57134   8.351   0.188   7.697 -0.4081 -0.6374 -1.2374
  415MOL0     O57135   8.423   0.299   7.746  0.0620  0.0109  0.0563
  415MOL0     C57136   8.494   0.380   7.656  0.1675 -0.8332 -0.3969
  415MOL0     C57137   8.610   0.434   7.703  0.6364  0.3460 -0.1135
  415MOL0     C57138   8.679   0.532   7.625 -0.4332 -0.2768 -0.2458
  415MOL0     C57139   8.642   0.568   7.496 -1.0414 -0.0108 -0.2561
  415MOL0     O57140   8.704   0.655   7.413 -0.4963 -0.8337  0.5415
  415MOL0     C57141   8.798   0.752   7.466 -0.3647  0.5814  0.7459
  415MOL0     C57142   8.843   0.855   7.356  0.1902 -0.5080  0.7487
  415MOL0     C57143   8.978   0.831   7.283  0.4721  0.3447 -0.6193
  415MOL0     C57144   8.988   0.906   7.151 -0.0583 -0.4675  0.4317
  415MOL0     C57145   9.131   0.911   7.089  0.5783  0.5631 -0.2394
  415MOL0     C57146   9.132   1.015   6.972  0.2963 -0.6016  1.3400
  415MOL0     C57147   9.262   1.012   6.899  0.0219  0.5686  1.0514
  415MOL0     C57148   9.320   0.873   6.855 -0.3109  0.4315  0.0898
  415MOL0     N57149   9.419   0.871   6.754  0.1705  0.0253  0.4575
  415MOL0     C57150   9.388   0.840   6.626  0.5857 -0.2542  0.2426
  415MOL0     C57151   9.508   0.832   6.576  0.1203 -1.1631 -0.2281
  415MOL0     C57152   9.538   0.800   6.431 -0.3100  1.1135 -0.6817
  415MOL0     C57153   9.587   0.655   6.417  0.7904 -0.4151 -0.7308
  415MOL0     C57154   9.592   0.611   6.279 -0.3612  0.9104  0.0766
  415MOL0     C57155   9.457   0.582   6.217  0.2574 -0.2750 -0.3724
  415MOL0     O57156   9.351   0.558   6.310  0.0455  0.7805  0.5949
  415MOL0     C57157   9.231   0.552   6.251  0.8160 -0.7010 -0.0728
  415MOL0     C57158   9.120   0.573   6.332  0.4467  0.4654  0.0466
  415MOL0     C57159   8.995   0.588   6.273 -0.3413 -0.3227  0.3730
  415MOL0     C57160   8.882   0.611   6.368  0.6649  0.8686  0.1858
  415MOL0     C57161   8.976   0.579   6.129  0.1534  0.0472 -0.9537
  415MOL0     C57162   8.847   0.589   6.062  0.8126  0.7143  0.3209
  415MOL0     O57163   8.834   0.546   5.936 -0.1316 -0.1410  0.4963
  415MOL0     C57164   8.711   0.528   5.884 -0.0895  0.7171  0.3727
  415MOL0     C57165   8.613   0.448   5.944 -0.1501  0.1421 -0.0750
  415MOL0     C57166   8.485   0.438   5.895  0.9878  0.4500 -0.3828
  415MOL0     C57167   8.452   0.494   5.777  0.4511  0.5584  1.2609
  415MOL0     O57168   8.322   0.472   5.736  0.5537  0.7178 -0.3324
  415MOL0     C57169   8.275   0.513   5.610  0.5066  0.1471  0.4377
  415MOL0     C57170   8.148   0.414   5.580 -0.4865 -0.0584 -0.6853
  415MOL0     C57171   8.043   0.411   5.692 -1.1742  0.2020  1.1274
  415MOL0     C57172   7.971   0.276   5.678  0.0001  0.1121 -0.0205
  415MOL0     C57173   8.036   0.147   5.740  0.0029 -1.2436  0.3645
  415MOL0     C57174   8.086   0.184   5.880  0.2635 -0.2747 -0.7822
  415MOL0     C57175   8.123   0.062   5.956 -0.7821 -1.1653  0.0626
  415MOL0     C57176   8.166   0.083   6.099  0.4093 -0.2111  0.8809
  415MOL0    Cl57177   8.264   0.220   6.141 -0.1406 -0.1932 -0.1750
  415MOL0     C57178   8.548   0.582   5.717 -0.5176 -0.1626  0.2341
  415MOL0     C57179   8.671   0.594   5.772 -0.5470  0.1638 -1.2721
  415MOL0     O57180   8.759   0.623   6.135  0.0606  0.0961 -0.5765
  415MOL0     C57181   9.087   0.558   6.047  0.4110  0.0127 -1.0465
  415MOL0     C57182   9.210   0.540   6.110  0.5371  1.2862 -0.2568
  415MOL0     N57183   9.614   0.858   6.667 -0.3870  0.0311  0.2000
  415MOL0     N57184   9.551   0.891   6.778 -0.7082  0.8268 -0.2951
  415MOL0     C57185   8.524   0.506   7.453  0.2078  0.4093  0.4628
  415MOL0     C57186   8.448   0.424   7.534 -0.5013  0.8331  0.7811
  415MOL0     C57187   8.262   0.122   7.800 -0.0794  0.6317 -0.3197
  415MOL0     C57188   8.286   0.143   7.932 -0.0426  0.2177 -0.5576
  415MOL0     C57189   8.204   0.100   8.042 -0.8241 -0.8926 -0.4948
  415MOL0     C57190   8.112   0.016   8.022  0.4618 -0.5735 -0.3297
  415MOL0     O57191   8.047  -0.030   8.139  0.3186 -0.2959 -0.4096
  415MOL0     C57192   7.903  -0.063   8.117  0.4141 -0.0008  1.0319
  415MOL0     C57193   7.825  -0.100   8.246 -0.0399 -0.1348 -0.3587
  415MOL0     C57194   7.831   0.006   8.362  0.0450 -0.2382  0.3374
  415MOL0     C57195   7.756  -0.051   8.483  0.6469 -0.3262 -0.3411
  415MOL0     C57196   7.736   0.053   8.584 -0.0449  0.4085  0.8964
  415MOL0     C57197   7.720   0.150   8.653 -0.3721 -1.4776  0.1703
  415MOL0     C57198   8.072  -0.003   7.884 -0.7521  0.2635 -0.2024
  415MOL0     C57199   8.148   0.041   7.779  0.2540  0.4498 -0.2170
  415MOL0     C57200   8.090   0.017   7.647  0.6759  1.2017 -0.1311
  415MOL0     H57201   8.642   0.404   7.802 -0.6329 -1.0813 -0.0766
  415MOL0     H57202   8.760   0.584   7.675 -1.9530  2.7960 -0.7574
  415MOL0     H57203   8.884   0.713   7.521 -1.9654  0.1820  3.1098
  415MOL0     H57204   8.740   0.812   7.538 -0.5170 -0.6935  1.7127
  415MOL0     H57205   8.765   0.847   7.279 -0.3081  0.5051  1.1294
  415MOL0     H57206   8.854   0.957   7.393 -0.2522 -1.0709  2.5246
  415MOL0     H57207   9.057   0.844   7.358  0.1167 -1.1544  0.0569
  415MOL0     H57208   8.976   0.723   7.264 -0.7370  0.1884  0.2720
  415MOL0     H57209   8.926   0.848   7.083 -1.1738  2.4992 -1.2400
  415MOL0     H57210   8.962   1.012   7.153  1.6237  0.1663 -3.0121
  415MOL0     H57211   9.145   0.816   7.037 -1.3134  0.7703 -1.2292
  415MOL0     H57212   9.196   0.949   7.168 -1.6886  1.2651  1.3608
  415MOL0     H57213   9.058   0.991   6.895 -1.4969  2.2098  2.0374
  415MOL0     H57214   9.120   1.119   7.005 -1.1299 -0.4470  0.4196
  415MOL0     H57215   9.337   1.058   6.965  1.8367  0.2302 -0.6889
  415MOL0     H57216   9.251   1.066   6.805 -1.2216 -2.1037 -0.4308
  415MOL0     H57217   9.365   0.848   6.951 -0.7884 -4.0834 -0.6648
  415MOL0     H57218   9.243   0.799   6.831  0.3448  0.1449 -1.2140
  415MOL0     H57219   9.294   0.817   6.577 -0.7086  0.1842  2.4024
  415MOL0     H57220   9.615   0.867   6.392  0.9512 -1.6456 -3.3727
  415MOL0     H57221   9.448   0.817   6.372  1.4835 -0.9914 -4.4072
  415MOL0     H57222   9.695   0.659   6.434  0.6496  0.5141 -0.0327
  415MOL0     H57223   9.548   0.579   6.485  0.8944 -0.8255 -1.1155
  415MOL0     H57224   9.645   0.682   6.216  0.6125  0.0517 -0.1101
  415MOL0     H57225   9.637   0.511   6.270 -3.3600 -0.3349 -3.3054
  415MOL0     H57226   9.436   0.677   6.167  2.1030  0.2992 -0.1501
  415MOL0     H57227   9.464   0.493   6.154 -1.6754 -1.5135  1.0457
  415MOL0     H57228   9.132   0.581   6.439 -0.3013 -1.3367  0.3021
  415MOL0     H57229   8.854   0.716   6.375  2.1426  1.2787  0.1588
  415MOL0     H57230   8.930   0.596   6.466  2.5870  3.5961 -0.2313
  415MOL0     H57231   8.801   0.540   6.348 -2.6514  4.4086 -0.1239
  415MOL0     H57232   8.642   0.388   6.029  1.4264  0.1987 -0.5220
  415MOL0     H57233   8.423   0.367   5.948  2.3912  0.1186  0.9012
  415MOL0     H57234   8.253   0.620   5.602 -1.7265 -0.3139 -0.3634
  415MOL0     H57235   8.351   0.498   5.534  1.0845  0.1834  1.0023
  415MOL0     H57236   8.101   0.448   5.487  1.9559  0.8698 -1.6434
  415MOL0     H57237   8.195   0.315   5.569  4.1803  1.9186 -0.7016
  415MOL0     H57238   7.970   0.492   5.681 -1.2622  0.4962  3.3734
  415MOL0     H57239   8.080   0.431   5.793  0.1098 -0.5289  0.8156
  415MOL0     H57240   7.947   0.258   5.573 -1.8949  0.0674  0.3975
  415MOL0     H57241   7.874   0.287   5.727 -0.4009 -4.2498  0.5553
  415MOL0     H57242   7.953   0.077   5.753 -1.4889  0.5054  0.6392
  415MOL0     H57243   8.110   0.104   5.672 -1.7324  0.1928 -2.5998
  415MOL0     H57244   8.009   0.236   5.938  1.1854  2.3829 -1.7943
  415MOL0     H57245   8.168   0.256   5.885  0.8100 -0.9572  2.4981
  415MOL0     H57246   8.207   0.017   5.902 -0.4958 -1.4390  0.7247
  415MOL0     H57247   8.046  -0.014   5.941 -1.1573 -0.3954 -2.2997
  415MOL0     H57248   8.193  -0.017   6.134 -4.8343 -2.8905 -1.6230
  415MOL0     H57249   8.074   0.109   6.152  0.1685 -0.0077  0.3648
  415MOL0     H57250   8.523   0.628   5.621 -2.0228  2.3338  1.7250
  415MOL0     H57251   8.733   0.666   5.720  0.5686  1.1968  1.3163
  415MOL0     H57252   9.063   0.551   5.941 -2.1237  1.4229 -0.6473
  415MOL0     H57253   9.291   0.535   6.038 -0.8761 -2.4272 -1.8024
  415MOL0     H57254   8.506   0.533   7.349 -0.9131 -2.9681 -0.3604
  415MOL0     H57255   8.353   0.380   7.504 -0.7499  1.6515  0.3274
  415MOL0     H57256   8.370   0.206   7.959  1.3476 -2.0679  0.8212
  415MOL0     H57257   8.243   0.125   8.141  1.5321 -0.0348 -1.5587
  415MOL0     H57258   7.854   0.021   8.066  2.1441  0.4167 -0.0209
  415MOL0     H57259   7.900  -0.152   8.054  0.1490  0.3658  0.5140
  415MOL0     H57260   7.860  -0.195   8.286 -1.3312 -0.2527  0.5421
  415MOL0     H57261   7.719  -0.108   8.220 -0.8074 -0.0494  2.4211
  415MOL0     H57262   7.937   0.026   8.378  0.2564  2.4559 -3.1347
  415MOL0     H57263   7.778   0.096   8.330 -1.8399 -1.9603 -1.7871
  415MOL0     H57264   7.800  -0.142   8.524 -0.8222 -0.5888  0.7356
  415MOL0     H57265   7.657  -0.071   8.441  0.3352 -0.3633  0.3995
  415MOL0     H57266   7.696   0.232   8.718 -0.6573 -1.1552 -0.3331
  415MOL0     H57267   7.985  -0.067   7.871  1.1181 -2.0907 -2.4309
  415MOL0     H57268   8.160  -0.042   7.588 -3.6732 -3.6939 -1.1101
  415MOL0     H57269   7.999  -0.041   7.661  2.7720 -1.8916  2.0258
  415MOL0     H57270   8.064   0.103   7.585 -0.8937  3.2024  3.0310
  416MOL0     O57271   0.100  10.112   9.382 -0.4104 -0.4631 -0.7354
  416MOL0     C57272   0.193  10.076   9.461 -0.1650 -0.3398  0.2347
  416MOL0     O57273   0.246   9.940   9.453  0.0335  0.0988  0.1477
  416MOL0     C57274   0.157   9.836   9.413 -0.2043 -0.2287  0.6502
  416MOL0     C57275   0.019   9.824   9.451 -0.4630  0.8666  0.4213
  416MOL0     C57276  -0.051   9.710   9.398 -0.2517 -0.1586  0.5472
  416MOL0     C57277   0.014   9.612   9.323  0.5309  0.5977 -0.0239
  416MOL0     O57278  -0.058   9.510   9.273 -0.2485 -0.0377  0.1544
  416MOL0     C57279  -0.107   9.407   9.361  0.6440  0.0312  0.6885
  416MOL0     C57280  -0.251   9.439   9.406 -0.6928  0.6666 -0.3431
  416MOL0     C57281  -0.338   9.321   9.426 -1.0076  0.2880  1.1994
  416MOL0     C57282  -0.392   9.256   9.297  0.3469 -0.8285  0.7956
  416MOL0     C57283  -0.473   9.128   9.303  0.5718  0.1075  0.4201
  416MOL0     C57284  -0.596   9.130   9.391  0.8916 -0.0238  0.7073
  416MOL0     C57285  -0.676   9.003   9.372  0.1924  0.1314  0.9710
  416MOL0     C57286  -0.786   9.010   9.477 -0.1078 -0.1648  0.4844
  416MOL0     N57287  -0.836   8.873   9.515  0.6828  0.4780 -0.2890
  416MOL0     C57288  -0.922   8.848   9.623  0.7926  0.1596 -0.3082
  416MOL0     C57289  -0.952   8.715   9.605 -0.4152 -0.1166 -0.7744
  416MOL0     C57290  -1.052   8.636   9.689  0.8131  0.5630 -0.4458
  416MOL0     C57291  -1.187   8.634   9.610  0.8591  0.8716 -0.3240
  416MOL0     C57292  -1.313   8.585   9.691 -0.0431  0.7301  0.1769
  416MOL0     C57293  -1.342   8.642   9.827 -0.0052  0.3985 -0.0430
  416MOL0     O57294  -1.396   8.777   9.800 -0.4488 -0.2108  0.0871
  416MOL0     C57295  -1.366   8.878   9.888 -0.5695  1.3702 -0.7187
  416MOL0     C57296  -1.405   9.007   9.852  1.1225 -0.0817  0.0807
  416MOL0     C57297  -1.417   9.111   9.944 -1.3119 -0.3528 -0.8847
  416MOL0     C57298  -1.477   9.246   9.898  0.1822 -0.6932 -0.2441
  416MOL0     C57299  -1.368   9.088  10.074  0.6270 -0.6684 -0.4955
  416MOL0     C57300  -1.381   9.193  10.182 -0.1648  0.1182 -0.0975
  416MOL0     O57301  -1.268   9.205  10.266 -0.1592 -0.2496  0.2679
  416MOL0     C57302  -1.272   9.316  10.346  0.9650  0.9666 -0.1728
  416MOL0     C57303  -1.336   9.309  10.466 -0.9249 -0.2706  0.8396
  416MOL0     C57304  -1.322   9.413  10.558 -0.1696  0.1863  0.0271
  416MOL0     C57305  -1.230   9.525  10.536 -0.0864 -0.5522  0.2277
  416MOL0     O57306  -1.226   9.636  10.614 -0.3042  0.3093  0.0648
  416MOL0     C57307  -1.333   9.672  10.709  0.6073 -0.0213  1.0990
  416MOL0     C57308  -1.467   9.707  10.634 -0.1850 -0.0366  0.5249
  416MOL0     C57309  -1.577   9.741  10.733  0.7572  0.6914  0.6039
  416MOL0     C57310  -1.714   9.752  10.663 -0.4461 -0.0191  0.4937
  416MOL0     C57311  -1.820   9.741  10.775 -0.5485  0.3427  1.3179
  416MOL0     C57312  -1.964   9.785  10.746  0.2026  0.4714  0.0866
  416MOL0     C57313  -2.067   9.720  10.836  0.9665 -0.8610 -0.2941
  416MOL0     C57314  -2.208   9.779  10.832  0.4535 -0.0345  0.0133
  416MOL0    Cl57315  -2.269   9.763  10.661 -0.2323  0.1122  0.3372
  416MOL0     C57316  -1.170   9.525  10.411 -0.2731 -0.1299 -0.6547
  416MOL0     C57317  -1.181   9.417  10.315 -0.4229  0.1094 -0.4140
  416MOL0     O57318  -1.478   9.273  10.188  0.8106 -0.1109 -0.3362
  416MOL0     C57319  -1.323   8.959  10.115 -0.2107 -0.0007  0.3821
  416MOL0     C57320  -1.329   8.857  10.025  0.5504  1.3125  0.0303
  416MOL0     N57321  -0.876   8.663   9.498  0.0906  0.4982  0.1130
  416MOL0     N57322  -0.801   8.753   9.459  0.0393 -0.8166 -0.5537
  416MOL0     C57323   0.147   9.620   9.290  1.0101  0.3247 -0.6525
  416MOL0     C57324   0.217   9.733   9.338  0.5092  1.0224 -0.1585
  416MOL0     C57325   0.264  10.180   9.542  0.5281 -0.2649 -0.8795
  416MOL0     C57326   0.405  10.153   9.556  0.1488 -0.2010  0.4132
  416MOL0     C57327   0.493  10.244   9.611 -0.0882 -0.0569 -0.1368
  416MOL0     C57328   0.441  10.371   9.635  0.2771  0.7009 -0.5659
  416MOL0     O57329   0.514  10.451   9.712 -0.0455  0.3984  0.0982
  416MOL0     C57330   0.538  10.581   9.657 -0.2081  0.3024  0.1377
  416MOL0     C57331   0.679  10.605   9.617 -0.0326 -0.5748  0.8425
  416MOL0     C57332   0.788  10.579   9.726 -0.0050 -0.1686 -0.4556
  416MOL0     C57333   0.944  10.560   9.684 -0.6003  0.2146  0.2263
  416MOL0     C57334   0.969  10.435   9.622 -0.2631 -0.9887 -0.0697
  416MOL0     C57335   0.988  10.324   9.572  0.5946 -0.3671  0.5429
  416MOL0     C57336   0.301  10.392   9.638 -1.0957 -0.6011  0.2475
  416MOL0     C57337   0.209  10.299   9.589 -0.9190 -0.3564 -0.1311
  416MOL0     C57338   0.065  10.328   9.562  0.5713  0.4476 -1.0048
  416MOL0     H57339  -0.029   9.912   9.495  1.2424  3.0535 -1.8300
  416MOL0     H57340  -0.159   9.700   9.407 -0.0748 -1.1946  1.6370
  416MOL0     H57341  -0.042   9.400   9.449 -0.4880  0.4087  1.5742
  416MOL0     H57342  -0.096   9.316   9.302 -0.2254  0.3367  0.0358
  416MOL0     H57343  -0.249   9.503   9.495  2.7146  1.4946 -0.8996
  416MOL0     H57344  -0.305   9.506   9.338  0.0037  0.9355 -0.6390
  416MOL0     H57345  -0.288   9.241   9.481  0.1552  0.4574  0.4193
  416MOL0     H57346  -0.429   9.361   9.472  0.7638  4.7063  1.3682
  416MOL0     H57347  -0.460   9.327   9.250  1.2555 -1.3642 -1.4276
  416MOL0     H57348  -0.313   9.245   9.222  1.0265  6.7741 -0.3048
  416MOL0     H57349  -0.406   9.055   9.350  0.3861  0.3074  0.9949
  416MOL0     H57350  -0.493   9.088   9.203 -0.7069  2.5881 -0.4063
  416MOL0     H57351  -0.562   9.137   9.494  4.2176 -1.4768 -0.1551
  416MOL0     H57352  -0.661   9.215   9.370  0.2723  0.0845  2.8848
  416MOL0     H57353  -0.614   8.913   9.385 -0.1747 -0.4924 -1.1687
  416MOL0     H57354  -0.718   8.983   9.273 -0.7194  0.4860  1.2786
  416MOL0     H57355  -0.753   9.065   9.565  1.6185  0.9497 -0.7842
  416MOL0     H57356  -0.871   9.065   9.434  0.0124 -0.3536 -0.0094
  416MOL0     H57357  -0.975   8.917   9.688 -1.1322 -1.9160  0.4664
  416MOL0     H57358  -1.063   8.687   9.785  1.0132  3.5892 -1.9177
  416MOL0     H57359  -1.010   8.539   9.716  0.6889  1.5832  4.4487
  416MOL0     H57360  -1.202   8.736   9.574 -4.4595  1.2738  2.1642
  416MOL0     H57361  -1.178   8.573   9.521 -1.5279  1.7013 -1.2048
  416MOL0     H57362  -1.400   8.581   9.626  0.1652  0.0233 -0.0731
  416MOL0     H57363  -1.297   8.477   9.703 -2.2791  0.4757  1.2727
  416MOL0     H57364  -1.421   8.582   9.874  2.3834 -2.6604  0.3795
  416MOL0     H57365  -1.255   8.631   9.892 -0.2929  3.1648  0.9430
  416MOL0     H57366  -1.433   9.010   9.747  0.3049  5.3268  0.1707
  416MOL0     H57367  -1.585   9.241   9.909  0.0874  1.1635 -0.0516
  416MOL0     H57368  -1.446   9.260   9.794 -0.4929  0.0799 -0.3441
  416MOL0     H57369  -1.436   9.329   9.957 -1.0703  0.8290 -1.4532
  416MOL0     H57370  -1.413   9.233  10.479 -0.5633 -1.3589 -2.5625
  416MOL0     H57371  -1.380   9.413  10.649  3.4760 -1.3277  2.6305
  416MOL0     H57372  -1.358   9.593  10.781 -1.9390  0.9556  1.3984
  416MOL0     H57373  -1.314   9.763  10.766 -2.4103  2.9847 -2.1570
  416MOL0     H57374  -1.446   9.794  10.571 -1.0355  0.4862  0.9612
  416MOL0     H57375  -1.499   9.624  10.570  0.8033 -1.1821  1.4652
  416MOL0     H57376  -1.567   9.843  10.771 -0.6478  1.1803 -0.2703
  416MOL0     H57377  -1.586   9.675  10.820 -1.6572  2.1353  1.5615
  416MOL0     H57378  -1.726   9.677  10.585  1.8849 -0.4211  0.4610
  416MOL0     H57379  -1.716   9.852  10.618  0.0955 -0.8435 -1.4562
  416MOL0     H57380  -1.822   9.632  10.787  1.1675  0.0399 -0.6398
  416MOL0     H57381  -1.799   9.794  10.868 -4.0335  2.3671  1.1258
  416MOL0     H57382  -1.980   9.764  10.640 -1.7499 -3.6094  0.9837
  416MOL0     H57383  -1.984   9.892  10.756  1.5353  0.9171 -1.5646
  416MOL0     H57384  -2.026   9.720  10.937  2.0394  1.0707 -0.6734
  416MOL0     H57385  -2.071   9.621  10.790  1.0723 -1.6061  1.2676
  416MOL0     H57386  -2.204   9.880  10.875 -0.6993 -0.0956  0.2988
  416MOL0     H57387  -2.274   9.724  10.899 -0.0229  2.1235  1.4262
  416MOL0     H57388  -1.117   9.618  10.391  0.5771 -0.5653 -0.4960
  416MOL0     H57389  -1.121   9.423  10.225  2.5796  2.3269  1.5207
  416MOL0     H57390  -1.293   8.946  10.219  1.7932 -0.1977 -0.1911
  416MOL0     H57391  -1.295   8.758  10.055 -2.6974  0.2660  0.6664
  416MOL0     H57392   0.202   9.542   9.239 -3.4959 -2.4583 -1.7652
  416MOL0     H57393   0.323   9.734   9.314  0.1229 -1.6020 -2.5354
  416MOL0     H57394   0.449  10.058   9.528 -1.4152 -0.1359 -2.7249
  416MOL0     H57395   0.600  10.234   9.628  0.1342  0.2291 -1.2969
  416MOL0     H57396   0.487  10.598   9.562 -0.1390 -0.9411 -0.1365
  416MOL0     H57397   0.494  10.659   9.721 -0.5806  1.6614 -1.6990
  416MOL0     H57398   0.688  10.711   9.589 -3.7238  0.0589  1.6329
  416MOL0     H57399   0.697  10.532   9.537  3.1221 -0.9481  1.7425
  416MOL0     H57400   0.793  10.671   9.785  0.4845 -0.7707  0.4749
  416MOL0     H57401   0.755  10.492   9.784 -0.4677  0.9323  0.9824
  416MOL0     H57402   1.011  10.555   9.770  1.6017 -3.2586 -1.4584
  416MOL0     H57403   0.990  10.639   9.625 -0.7797 -0.9188 -1.5363
  416MOL0     H57404   1.006  10.232   9.521 -1.6385  0.4054 -1.8569
  416MOL0     H57405   0.270  10.491   9.670  1.7688  0.5540 -0.1874
  416MOL0     H57406   0.056  10.333   9.453 -3.2259 -2.6254 -1.0547
  416MOL0     H57407  -0.000  10.249   9.601  0.0531  2.2070  1.9678
  416MOL0     H57408   0.031  10.421   9.607 -1.0233 -1.1044  1.2341
  417MOL0     O57409   0.358   7.391   9.116  0.0235 -0.7201  0.1354
  417MOL0     C57410   0.371   7.269   9.091  0.3582  0.1302  0.1270
  417MOL0     O57411   0.283   7.194   9.033 -0.1961 -0.8695 -0.2947
  417MOL0     C57412   0.165   7.250   8.981  0.0679  0.8725 -1.0906
  417MOL0     C57413   0.128   7.250   8.839 -0.6321 -0.0730 -0.5841
  417MOL0     C57414  -0.003   7.292   8.798 -0.9110  1.0933 -0.5921
  417MOL0     C57415  -0.087   7.341   8.896 -0.3864 -0.3506  0.1199
  417MOL0     O57416  -0.200   7.409   8.857  0.2847  0.2000 -0.1982
  417MOL0     C57417  -0.193   7.491   8.738 -0.0764  0.0373  1.0774
  417MOL0     C57418  -0.323   7.571   8.722 -0.5049  0.5315 -0.6027
  417MOL0     C57419  -0.297   7.706   8.792 -0.1744 -1.1309  0.0272
  417MOL0     C57420  -0.284   7.692   8.943 -1.1628  0.9049  0.2600
  417MOL0     C57421  -0.260   7.822   9.019  0.1176 -0.2851  0.4661
  417MOL0     C57422  -0.221   7.800   9.166  0.3073  1.1848  0.4486
  417MOL0     C57423  -0.074   7.751   9.185  0.0122 -0.9281  0.6708
  417MOL0     C57424  -0.014   7.808   9.319  0.0863  0.2781  0.5606
  417MOL0     N57425   0.134   7.783   9.334 -1.4862 -0.8631  0.7400
  417MOL0     C57426   0.228   7.729   9.243 -0.2679 -0.1044 -0.7232
  417MOL0     C57427   0.342   7.728   9.314  0.1580 -0.0806 -0.5074
  417MOL0     C57428   0.471   7.669   9.258  0.5014  0.4287 -0.7091
  417MOL0     C57429   0.607   7.733   9.318 -0.7698 -0.2785  0.1613
  417MOL0     C57430   0.729   7.660   9.274 -0.0714 -0.0693 -1.0013
  417MOL0     C57431   0.759   7.657   9.133  0.6739  0.5363  0.8891
  417MOL0     O57432   0.887   7.587   9.122  0.5921  0.3966  0.3952
  417MOL0     C57433   0.915   7.520   9.005 -0.0855 -0.2007 -0.0642
  417MOL0     C57434   1.019   7.424   9.026  0.1015 -0.0746  0.0470
  417MOL0     C57435   1.050   7.337   8.928  0.4115  0.3755  0.7979
  417MOL0     C57436   1.158   7.242   8.964  0.1417  0.0017  0.3904
  417MOL0     C57437   0.990   7.339   8.805  2.2137 -0.2225 -0.2892
  417MOL0     C57438   1.038   7.268   8.684 -0.8334 -0.3608 -0.2157
  417MOL0     O57439   0.957   7.253   8.577 -0.4018  0.9720  0.3926
  417MOL0     C57440   1.011   7.264   8.452  1.0435 -0.7450 -0.0321
  417MOL0     C57441   1.017   7.386   8.372 -0.6355 -0.6095 -0.6683
  417MOL0     C57442   1.073   7.387   8.244 -0.1771 -0.0268  0.8232
  417MOL0     C57443   1.120   7.266   8.183 -0.1665  0.6635 -0.1106
  417MOL0     O57444   1.169   7.255   8.054  0.3089  0.2268 -1.0693
  417MOL0     C57445   1.189   7.374   7.982 -0.7761 -0.2112 -0.6635
  417MOL0     C57446   1.262   7.336   7.860 -0.2615 -0.2133 -0.2216
  417MOL0     C57447   1.168   7.280   7.761  0.4857  0.2338 -0.1084
  417MOL0     C57448   1.261   7.212   7.656 -0.3740  0.0830 -0.5766
  417MOL0     C57449   1.167   7.176   7.543  0.5845  1.6406 -0.3371
  417MOL0     C57450   1.143   7.281   7.449  0.1823  0.4406 -0.1856
  417MOL0     C57451   1.080   7.212   7.324 -0.0909 -0.1513 -1.3046
  417MOL0     C57452   1.087   7.315   7.212 -0.0654 -0.4971 -0.0478
  417MOL0    Cl57453   0.986   7.461   7.238  0.0952 -0.6582  0.7879
  417MOL0     C57454   1.094   7.148   8.254 -0.7747 -0.1041 -0.0218
  417MOL0     C57455   1.051   7.152   8.392  0.1118 -0.9297  1.0250
  417MOL0     O57456   1.156   7.229   8.694 -0.0369  0.2445 -0.7746
  417MOL0     C57457   0.882   7.425   8.783 -1.5978 -0.8927 -0.7045
  417MOL0     C57458   0.845   7.515   8.881 -0.7308 -0.3403  0.4057
  417MOL0     N57459   0.319   7.774   9.447  1.2183 -0.4261 -1.0522
  417MOL0     N57460   0.190   7.807   9.456 -0.2318  0.2980 -0.2827
  417MOL0     C57461  -0.047   7.337   9.028 -1.1183  0.5426 -0.0706
  417MOL0     C57462   0.072   7.295   9.078 -0.4526  0.1105  1.0657
  417MOL0     C57463   0.499   7.203   9.116  0.2410 -0.0054 -0.1130
  417MOL0     C57464   0.608   7.289   9.127 -0.8693  0.0853  0.0054
  417MOL0     C57465   0.722   7.220   9.157 -0.2399 -0.0969 -1.1026
  417MOL0     C57466   0.738   7.086   9.186  0.1851  0.4401 -0.7239
  417MOL0     O57467   0.868   7.047   9.211 -0.5357  0.1786  0.4086
  417MOL0     C57468   0.897   6.907   9.199  0.2337 -1.5649  0.7314
  417MOL0     C57469   1.050   6.900   9.206  0.3959 -0.4599 -0.5014
  417MOL0     C57470   1.110   6.959   9.332  0.4419 -0.5960 -0.3059
  417MOL0     C57471   1.127   7.117   9.344  0.1388  0.0045 -0.3336
  417MOL0     C57472   1.263   7.164   9.321  0.5551  0.2926  0.5185
  417MOL0     C57473   1.367   7.219   9.315 -0.0722 -0.8076 -0.0896
  417MOL0     C57474   0.628   7.001   9.175 -0.1316  0.1436 -0.6893
  417MOL0     C57475   0.510   7.055   9.135  0.0626 -0.5597 -0.9099
  417MOL0     C57476   0.385   6.972   9.136 -0.1244 -0.7033 -0.5220
  417MOL0     H57477   0.198   7.207   8.767  1.5595 -0.4104  1.5986
  417MOL0     H57478  -0.043   7.282   8.698 -1.9644 -2.1505  0.0473
  417MOL0     H57479  -0.184   7.431   8.647  2.0022  1.4498  0.3009
  417MOL0     H57480  -0.106   7.556   8.747  0.8485 -1.1880  1.3171
  417MOL0     H57481  -0.342   7.591   8.616 -0.6840 -0.3045 -0.7374
  417MOL0     H57482  -0.407   7.518   8.768 -0.1633 -0.9618 -1.6217
  417MOL0     H57483  -0.204   7.755   8.760 -2.1838  1.8152 -1.7753
  417MOL0     H57484  -0.383   7.770   8.770  1.2623  0.8374 -0.1129
  417MOL0     H57485  -0.380   7.651   8.978  0.3492 -2.7679  0.4807
  417MOL0     H57486  -0.203   7.622   8.964 -1.8769 -0.1492 -0.3807
  417MOL0     H57487  -0.347   7.888   9.016  3.0339  3.9213 -1.6740
  417MOL0     H57488  -0.180   7.876   8.968 -2.2753  2.1665 -0.9717
  417MOL0     H57489  -0.218   7.902   9.206  0.0294  2.1271 -1.7633
  417MOL0     H57490  -0.296   7.737   9.215  2.6201  0.5461  3.4049
  417MOL0     H57491  -0.006   7.792   9.109  1.4019  1.7771  3.1330
  417MOL0     H57492  -0.070   7.642   9.188 -1.3063 -1.1669 -2.4148
  417MOL0     H57493  -0.034   7.916   9.322 -0.2288  0.2449 -0.1480
  417MOL0     H57494  -0.074   7.777   9.406 -0.3391 -0.0500  0.1557
  417MOL0     H57495   0.213   7.702   9.139  0.4185 -0.7405 -0.6583
  417MOL0     H57496   0.464   7.669   9.148 -1.5632  1.0117 -0.6290
  417MOL0     H57497   0.473   7.564   9.286  0.5544  0.0288 -2.1210
  417MOL0     H57498   0.614   7.839   9.294 -1.5986 -0.3641 -0.5047
  417MOL0     H57499   0.608   7.726   9.427  1.6795 -0.4317  0.1729
  417MOL0     H57500   0.817   7.700   9.326  0.4174 -0.2812 -1.6540
  417MOL0     H57501   0.724   7.559   9.315 -2.8263 -0.2497 -1.5316
  417MOL0     H57502   0.680   7.602   9.083  0.1907  1.3541  0.7269
  417MOL0     H57503   0.769   7.758   9.090  3.3771  0.5406  1.3505
  417MOL0     H57504   1.075   7.429   9.119 -0.2457 -0.8691  0.2999
  417MOL0     H57505   1.195   7.246   9.067  0.9848 -1.4174  0.1695
  417MOL0     H57506   1.244   7.273   8.904 -0.3584 -0.7536 -0.7488
  417MOL0     H57507   1.134   7.138   8.938  3.4403 -0.7600 -0.1375
  417MOL0     H57508   0.973   7.479   8.406 -2.2761 -1.6725  0.3125
  417MOL0     H57509   1.073   7.487   8.202 -0.3103  0.0269  0.9503
  417MOL0     H57510   1.099   7.431   7.955 -0.3871  0.9863  0.4599
  417MOL0     H57511   1.250   7.451   8.030 -0.3239 -1.3311  0.5988
  417MOL0     H57512   1.305   7.429   7.823 -0.8071  0.2098  0.1789
  417MOL0     H57513   1.342   7.267   7.887  0.5197  1.1966  1.2384
  417MOL0     H57514   1.095   7.347   7.716 -1.1224  0.1193  2.1706
  417MOL0     H57515   1.109   7.197   7.801 -1.6586  1.4653 -0.5655
  417MOL0     H57516   1.301   7.125   7.709 -1.3228  0.6335  1.1324
  417MOL0     H57517   1.352   7.263   7.624  0.3718 -0.8293  0.0299
  417MOL0     H57518   1.229   7.103   7.489  0.4209  1.3176 -0.0935
  417MOL0     H57519   1.081   7.110   7.563  0.8454  1.6076  0.7279
  417MOL0     H57520   1.238   7.330   7.428  0.7701 -0.3992  0.4890
  417MOL0     H57521   1.077   7.360   7.486  0.9271  0.6252  0.7565
  417MOL0     H57522   0.977   7.184   7.347 -0.7650  1.6507 -1.9276
  417MOL0     H57523   1.147   7.129   7.298  0.2606  0.0467 -1.0352
  417MOL0     H57524   1.059   7.265   7.119  0.2812  2.3304 -1.8050
  417MOL0     H57525   1.195   7.334   7.205  0.0347 -0.2772  1.6421
  417MOL0     H57526   1.128   7.055   8.210  0.4794  0.0518  0.5955
  417MOL0     H57527   1.031   7.065   8.454 -1.1772 -0.2037  1.6711
  417MOL0     H57528   0.812   7.411   8.701 -5.2186 -2.3545  2.3415
  417MOL0     H57529   0.752   7.570   8.870  0.6479  1.8718 -0.7587
  417MOL0     H57530  -0.116   7.371   9.104 -3.0086 -1.8990 -0.6106
  417MOL0     H57531   0.092   7.315   9.183  1.2748  0.4784  0.6999
  417MOL0     H57532   0.594   7.395   9.107 -2.2938 -0.3428 -1.4431
  417MOL0     H57533   0.813   7.269   9.190  0.1359 -2.4261  1.7706
  417MOL0     H57534   0.872   6.856   9.293  1.0684  0.1164  1.9272
  417MOL0     H57535   0.854   6.859   9.110 -0.2790  0.8344 -0.3898
  417MOL0     H57536   1.105   6.934   9.118 -0.0391  1.3314 -0.1143
  417MOL0     H57537   1.063   6.791   9.210 -0.0836 -0.5720 -1.6571
  417MOL0     H57538   1.058   6.924   9.421  3.0207  0.0719  1.5703
  417MOL0     H57539   1.207   6.913   9.352  0.3210 -0.6790  0.0913
  417MOL0     H57540   1.112   7.136   9.451 -1.7405  0.3293 -0.6321
  417MOL0     H57541   1.058   7.183   9.291 -1.2003  1.0728  2.5171
  417MOL0     H57542   1.463   7.263   9.325 -0.3989 -0.1642  0.2527
  417MOL0     H57543   0.638   6.894   9.192  1.1425 -0.3981 -4.0498
  417MOL0     H57544   0.399   6.879   9.192 -1.8768 -0.6578  0.0493
  417MOL0     H57545   0.303   7.029   9.181  1.1232 -0.2285  1.2555
  417MOL0     H57546   0.366   6.941   9.033  0.7015 -1.8435 -0.3492
  418MOL0     O57547   6.405   9.701   8.643 -0.1509 -0.0957 -0.0194
  418MOL0     C57548   6.309   9.779   8.643 -0.7115  0.4782  0.7162
  418MOL0     O57549   6.197   9.762   8.567 -0.0133 -0.1792 -0.4449
  418MOL0     C57550   6.202   9.673   8.466 -0.6623 -0.5940 -0.3455
  418MOL0     C57551   6.237   9.717   8.340  0.5452  0.8159  0.2710
  418MOL0     C57552   6.240   9.617   8.232 -0.1165 -0.1449 -0.3534
  418MOL0     C57553   6.185   9.487   8.259  0.0230 -0.5044  0.0832
  418MOL0     O57554   6.173   9.412   8.157 -0.5775 -0.2197  0.8066
  418MOL0     C57555   6.172   9.265   8.164 -0.6376  0.0370 -0.0268
  418MOL0     C57556   6.314   9.223   8.166  0.7464 -0.7293 -0.6161
  418MOL0     C57557   6.369   9.211   8.305 -0.5902 -0.7350 -0.0052
  418MOL0     C57558   6.517   9.165   8.289 -0.3478  0.2698  0.1283
  418MOL0     C57559   6.581   9.114   8.417 -0.3403  0.2188  0.7841
  418MOL0     C57560   6.636   9.240   8.504 -0.3727 -0.1503 -0.6817
  418MOL0     C57561   6.718   9.191   8.620 -0.5875 -0.4122  0.1793
  418MOL0     C57562   6.760   9.294   8.717 -0.2897 -0.3072 -0.4380
  418MOL0     N57563   6.825   9.410   8.650  0.1488 -0.2853 -0.3903
  418MOL0     C57564   6.771   9.529   8.606 -0.1212 -0.8672 -0.4609
  418MOL0     C57565   6.889   9.588   8.562  0.5963 -0.1363  0.6843
  418MOL0     C57566   6.895   9.739   8.523 -0.1780  0.0606  0.1879
  418MOL0     C57567   6.961   9.758   8.385  0.1672  0.6216  0.6346
  418MOL0     C57568   6.869   9.716   8.268 -0.6131  0.2952  0.2478
  418MOL0     C57569   6.939   9.740   8.138 -0.8446 -0.5939  0.7082
  418MOL0     O57570   6.991   9.872   8.135  0.1370  0.5475 -0.4243
  418MOL0     C57571   6.956   9.959   8.038  0.3742 -0.4857 -0.2057
  418MOL0     C57572   6.902   9.921   7.916 -0.2786  0.3783  0.5321
  418MOL0     C57573   6.855  10.018   7.828 -0.1862  0.0094 -0.5405
  418MOL0     C57574   6.789   9.958   7.703 -0.3736 -0.0598 -0.4345
  418MOL0     C57575   6.864  10.154   7.859  1.1858 -0.8199  0.1954
  418MOL0     C57576   6.804  10.258   7.773 -0.5378 -0.5870  0.6420
  418MOL0     O57577   6.849  10.291   7.648  0.2263 -0.3666 -0.6724
  418MOL0     C57578   6.971  10.237   7.608  0.8377 -0.0621 -0.7443
  418MOL0     C57579   6.982  10.164   7.490 -0.3740  1.0070  0.4338
  418MOL0     C57580   7.102  10.136   7.434 -0.3716  1.0848 -0.3859
  418MOL0     C57581   7.217  10.177   7.509 -0.0484 -1.5536 -0.1525
  418MOL0     O57582   7.335  10.138   7.468 -0.4050  0.1084  0.7034
  418MOL0     C57583   7.387  10.215   7.364 -0.9430 -1.4372  0.4653
  418MOL0     C57584   7.447  10.354   7.399 -0.4145 -0.0606 -0.5673
  418MOL0     C57585   7.558  10.340   7.512  1.1956  0.2451  0.0884
  418MOL0     C57586   7.604  10.483   7.540  0.5360 -0.8091  0.0312
  418MOL0     C57587   7.498  10.572   7.613 -0.4879 -0.4433 -0.7751
  418MOL0     C57588   7.533  10.725   7.602 -0.1093 -0.1874  0.2308
  418MOL0     C57589   7.407  10.809   7.636  0.1655 -0.5402 -0.0069
  418MOL0     C57590   7.425  10.964   7.639  0.3146 -0.0051  0.1639
  418MOL0    Cl57591   7.471  11.041   7.487  0.0047 -0.0125  0.0818
  418MOL0     C57592   7.205  10.251   7.633 -0.6209 -0.2015 -0.0612
  418MOL0     C57593   7.085  10.281   7.680  0.6488 -0.3083 -0.5657
  418MOL0     O57594   6.718  10.319   7.830  0.3132 -0.2000 -0.6416
  418MOL0     C57595   6.920  10.187   7.983  0.5928 -1.5757  0.3294
  418MOL0     C57596   6.961  10.090   8.066  0.0828  0.6189 -0.2690
  418MOL0     N57597   6.997   9.514   8.573 -0.4961  0.3443  0.0629
  418MOL0     N57598   6.960   9.402   8.627 -0.7461 -1.0568 -0.7954
  418MOL0     C57599   6.156   9.450   8.395  0.4771 -1.1079  0.4533
  418MOL0     C57600   6.149   9.547   8.493 -0.5029 -0.2942 -0.4529
  418MOL0     C57601   6.312   9.890   8.749 -0.0118 -1.2920  0.4970
  418MOL0     C57602   6.195   9.920   8.814 -0.0012  0.7635  0.7665
  418MOL0     C57603   6.189  10.017   8.908 -0.0721  0.5212 -0.4456
  418MOL0     C57604   6.297  10.100   8.949  0.8685  0.3552 -0.5005
  418MOL0     O57605   6.276  10.182   9.060 -0.4694 -0.7894 -0.1288
  418MOL0     C57606   6.373  10.281   9.076  0.3386  0.7805 -0.1640
  418MOL0     C57607   6.376  10.386   8.968 -0.3194  0.8891 -0.3209
  418MOL0     C57608   6.506  10.463   8.988 -0.3300 -0.4719  1.2249
  418MOL0     C57609   6.573  10.542   8.876  0.3223  0.2983  0.1153
  418MOL0     C57610   6.593  10.456   8.756  0.7473 -0.7287 -0.2589
  418MOL0     C57611   6.599  10.379   8.663  0.5832  0.4063  0.1705
  418MOL0     C57612   6.417  10.077   8.880 -0.0451  0.0552 -0.3420
  418MOL0     C57613   6.424   9.972   8.784  0.1369 -0.0948 -0.9906
  418MOL0     C57614   6.546   9.974   8.687  0.2905  0.2757 -0.6544
  418MOL0     H57615   6.259   9.819   8.311  2.6032 -0.0765 -1.5560
  418MOL0     H57616   6.286   9.649   8.138  2.3958 -3.0155 -0.2464
  418MOL0     H57617   6.140   9.215   8.073 -0.7008 -1.1178  0.6131
  418MOL0     H57618   6.122   9.219   8.250 -0.0586  0.9157  0.8048
  418MOL0     H57619   6.316   9.122   8.126  0.7200 -0.6633 -0.7807
  418MOL0     H57620   6.378   9.284   8.102 -0.5839 -0.2714 -1.5369
  418MOL0     H57621   6.371   9.309   8.354 -0.0211 -0.7588  0.0256
  418MOL0     H57622   6.312   9.134   8.356 -3.4702  2.1958  1.5992
  418MOL0     H57623   6.514   9.082   8.217 -3.0525  0.4771 -0.0823
  418MOL0     H57624   6.580   9.247   8.254  0.7855  0.5932  2.7563
  418MOL0     H57625   6.663   9.050   8.384 -1.2330  0.5892 -2.4815
  418MOL0     H57626   6.509   9.051   8.469 -2.1277  1.3417 -0.2419
  418MOL0     H57627   6.691   9.306   8.436  3.5522  0.4410  2.6721
  418MOL0     H57628   6.543   9.279   8.545 -0.3725 -0.0527 -0.7725
  418MOL0     H57629   6.809   9.150   8.576 -2.4104  0.0551 -4.6007
  418MOL0     H57630   6.670   9.117   8.685 -1.0892  0.4752  0.8472
  418MOL0     H57631   6.672   9.335   8.767  1.5152  0.2088  2.5571
  418MOL0     H57632   6.828   9.247   8.788  0.8621  2.0949  0.1590
  418MOL0     H57633   6.675   9.577   8.616  0.8377  0.7773  1.4957
  418MOL0     H57634   6.957   9.799   8.591  2.2043  0.0253 -1.7943
  418MOL0     H57635   6.793   9.777   8.525  0.8153  3.0354 -0.7615
  418MOL0     H57636   6.989   9.863   8.377  0.0375  0.7206  1.4057
  418MOL0     H57637   7.053   9.699   8.371 -0.6594 -0.5709  0.0141
  418MOL0     H57638   6.844   9.610   8.277  0.1544  0.1171  0.3545
  418MOL0     H57639   6.778   9.777   8.270 -2.5324 -2.4266  1.6695
  418MOL0     H57640   7.023   9.672   8.122 -0.1316  0.5223 -0.4666
  418MOL0     H57641   6.866   9.712   8.061  2.1554 -1.9560 -1.8576
  418MOL0     H57642   6.910   9.822   7.872  4.4601  1.0269 -0.5896
  418MOL0     H57643   6.861   9.913   7.634  0.1201 -1.5180  0.9860
  418MOL0     H57644   6.739  10.046   7.662  0.3717  1.8506  2.4472
  418MOL0     H57645   6.711   9.886   7.729 -0.1959 -0.1216 -0.0637
  418MOL0     H57646   6.899  10.137   7.426 -0.0333 -0.1643  0.4723
  418MOL0     H57647   7.111  10.090   7.336 -1.6297  3.1213 -1.5112
  418MOL0     H57648   7.464  10.150   7.322  0.9458  2.3723 -2.5331
  418MOL0     H57649   7.309  10.226   7.289  1.1297  1.1190 -1.4982
  418MOL0     H57650   7.490  10.405   7.312  0.1243  1.1263  0.3753
  418MOL0     H57651   7.357  10.400   7.441 -0.0543  0.9780 -0.8871
  418MOL0     H57652   7.643  10.281   7.475 -0.2521 -2.6241  1.0329
  418MOL0     H57653   7.532  10.281   7.600  1.2090  1.5272  0.9704
  418MOL0     H57654   7.645  10.545   7.460 -0.7028 -0.9781 -0.7633
  418MOL0     H57655   7.696  10.480   7.599  0.9870  0.2155 -0.5959
  418MOL0     H57656   7.398  10.553   7.574  0.5601 -1.8812 -2.9894
  418MOL0     H57657   7.511  10.543   7.718  3.1169  0.4739 -0.8195
  418MOL0     H57658   7.574  10.758   7.507  2.1904  0.3592  1.3312
  418MOL0     H57659   7.611  10.756   7.672 -1.0159 -1.8107  2.0672
  418MOL0     H57660   7.369  10.772   7.731 -1.3905  2.3908  0.6346
  418MOL0     H57661   7.321  10.799   7.569 -0.9769  2.5887  0.8088
  418MOL0     H57662   7.490  10.998   7.721  2.6071  0.7178 -1.8290
  418MOL0     H57663   7.326  11.010   7.652  1.5347  3.2359 -0.8290
  418MOL0     H57664   7.296  10.278   7.687  0.2004 -2.7669 -0.0086
  418MOL0     H57665   7.081  10.341   7.770 -1.4059  0.8427 -1.3563
  418MOL0     H57666   6.923  10.291   8.013 -0.7801 -1.0046 -1.3479
  418MOL0     H57667   6.986  10.115   8.169 -0.5855  1.2048 -0.2401
  418MOL0     H57668   6.119   9.360   8.443 -1.9820  0.1843  1.1220
  418MOL0     H57669   6.116   9.529   8.595 -1.2215  1.1148 -0.4183
  418MOL0     H57670   6.101   9.872   8.788 -0.9966  2.2278  1.4822
  418MOL0     H57671   6.098  10.037   8.965  2.0629  2.0825  2.7473
  418MOL0     H57672   6.341  10.335   9.165  1.0288  1.2292 -0.1788
  418MOL0     H57673   6.469  10.234   9.097  0.0744 -0.6709 -1.9379
  418MOL0     H57674   6.296  10.461   8.973 -2.8288 -1.3280 -2.8940
  418MOL0     H57675   6.385  10.344   8.867  0.0274  1.3826 -0.4943
  418MOL0     H57676   6.485  10.549   9.053 -0.5448  0.9171 -0.6204
  418MOL0     H57677   6.580  10.395   9.032 -0.1244 -0.9579  0.1676
  418MOL0     H57678   6.672  10.584   8.897  0.3327  2.0228 -2.7612
  418MOL0     H57679   6.517  10.634   8.856 -0.8606 -0.3804  0.2031
  418MOL0     H57680   6.600  10.307   8.584 -3.8225 -2.5922  2.4675
  418MOL0     H57681   6.516  10.108   8.910 -0.4984  0.1927  1.0751
  418MOL0     H57682   6.590   9.875   8.704 -2.9642 -0.8359  2.3359
  418MOL0     H57683   6.508   9.979   8.585  0.0038  0.8645 -0.5236
  418MOL0     H57684   6.611  10.056   8.719 -2.7091  1.6227  2.6897
  419MOL0     O57685   4.879   9.741   9.046  0.0597  0.1427  0.1190
  419MOL0     C57686   4.831   9.810   8.953  0.5985 -0.6900 -0.1108
  419MOL0     O57687   4.884   9.933   8.912 -0.0781 -0.2635  0.6741
  419MOL0     C57688   4.971  10.000   8.994  0.8627  0.0213  0.1551
  419MOL0     C57689   5.107  10.013   8.957  0.2736 -0.0179  0.5936
  419MOL0     C57690   5.205  10.076   9.032  0.5037  1.3630 -0.1765
  419MOL0     C57691   5.170  10.128   9.154 -0.6093  0.5986  0.4776
  419MOL0     O57692   5.275  10.186   9.227 -0.1880  0.1602 -0.5650
  419MOL0     C57693   5.232  10.301   9.300  0.0339  0.7667  0.3347
  419MOL0     C57694   5.355  10.391   9.295 -0.0382  0.0552  0.2060
  419MOL0     C57695   5.383  10.446   9.154  0.3252  0.0701  0.0577
  419MOL0     C57696   5.496  10.540   9.153 -0.6299  0.0242  0.1930
  419MOL0     C57697   5.470  10.649   9.045  0.1965  0.7598  0.2146
  419MOL0     C57698   5.473  10.585   8.905 -0.2818 -0.6010 -0.7194
  419MOL0     C57699   5.497  10.691   8.804 -0.3357  0.4706 -0.1921
  419MOL0     C57700   5.549  10.637   8.665 -0.3928  0.7890  0.2176
  419MOL0     N57701   5.421  10.590   8.596  0.0118  0.2694  0.0707
  419MOL0     C57702   5.357  10.468   8.628  0.4963 -0.6317 -0.2561
  419MOL0     C57703   5.238  10.462   8.551 -0.5433  0.0084 -0.7211
  419MOL0     C57704   5.121  10.363   8.561  0.6014 -0.7141  0.1413
  419MOL0     C57705   5.027  10.383   8.676  0.1085  0.4092 -0.1212
  419MOL0     C57706   4.909  10.276   8.689 -0.2251  0.5472 -1.4224
  419MOL0     C57707   4.819  10.313   8.814  0.4862  0.5883 -0.0090
  419MOL0     O57708   4.682  10.274   8.795  0.1084  0.5519 -0.5115
  419MOL0     C57709   4.638  10.192   8.896 -0.1812 -0.0924  0.3058
  419MOL0     C57710   4.647  10.203   9.040 -0.6719  0.3768  0.2948
  419MOL0     C57711   4.582  10.112   9.131  0.1545  0.4696  0.8062
  419MOL0     C57712   4.580  10.157   9.275 -0.6022 -0.1064  0.2336
  419MOL0     C57713   4.506  10.006   9.082 -0.0304  0.8611  0.0809
  419MOL0     C57714   4.443   9.905   9.164 -0.2812  0.5096 -0.0268
  419MOL0     O57715   4.360   9.813   9.103  0.2024 -0.2631  0.6419
  419MOL0     C57716   4.310   9.704   9.168  1.3603  0.1496  0.0808
  419MOL0     C57717   4.183   9.659   9.132  0.6659  0.4619 -0.1065
  419MOL0     C57718   4.117   9.559   9.201  0.5197  0.7965 -0.8175
  419MOL0     C57719   4.182   9.491   9.307 -1.1429 -0.5349 -0.5155
  419MOL0     O57720   4.113   9.388   9.362  0.1964  0.0005  0.2800
  419MOL0     C57721   4.171   9.289   9.450 -0.2321  0.7820 -0.3656
  419MOL0     C57722   4.143   9.150   9.406 -0.7027 -0.0691  0.9244
  419MOL0     C57723   4.211   9.115   9.269 -0.7417 -0.8726  0.7215
  419MOL0     C57724   4.173   8.975   9.216  0.2432 -0.4689 -0.4692
  419MOL0     C57725   4.254   8.930   9.093  0.0444  0.5392 -0.3193
  419MOL0     C57726   4.393   8.872   9.137  0.0171 -0.1878 -1.0515
  419MOL0     C57727   4.477   8.839   9.020  0.1820 -0.8475 -0.8488
  419MOL0     C57728   4.600   8.757   9.071  0.0526  0.2386 -0.4379
  419MOL0    Cl57729   4.713   8.747   8.925 -0.0803  0.1689 -0.6569
  419MOL0     C57730   4.322   9.524   9.330 -0.0434 -0.5968 -0.1976
  419MOL0     C57731   4.386   9.631   9.262  0.3158 -0.6715  0.3060
  419MOL0     O57732   4.490   9.892   9.278  0.0515  0.3158  0.5525
  419MOL0     C57733   4.496  10.000   8.946  0.4287 -0.2303 -0.0824
  419MOL0     C57734   4.560  10.088   8.855  0.2763  0.0454  1.1714
  419MOL0     N57735   5.237  10.573   8.465 -0.4498 -0.6185 -0.6146
  419MOL0     N57736   5.343  10.652   8.496 -0.7424 -0.4929 -0.3993
  419MOL0     C57737   5.029  10.112   9.194 -0.6149 -0.9210  0.7276
  419MOL0     C57738   4.937  10.037   9.126 -0.6565  0.1798 -0.4559
  419MOL0     C57739   4.719   9.748   8.877 -0.3653  0.3334  0.9180
  419MOL0     C57740   4.622   9.662   8.945 -0.6175  0.6895  1.0119
  419MOL0     C57741   4.502   9.608   8.878 -0.4614 -0.4101  0.8605
  419MOL0     C57742   4.476   9.637   8.743 -0.9527 -0.9602  0.4788
  419MOL0     O57743   4.371   9.605   8.665  0.1675 -0.3765 -0.6332
  419MOL0     C57744   4.302   9.481   8.680 -0.3025 -0.0478  1.1798
  419MOL0     C57745   4.182   9.503   8.766 -0.6824 -0.4323 -0.1585
  419MOL0     C57746   4.120   9.369   8.811 -0.0855 -0.4955 -0.2344
  419MOL0     C57747   3.987   9.402   8.872  0.6740 -0.6264  0.4541
  419MOL0     C57748   3.934   9.280   8.941  0.5248  0.9069  0.7841
  419MOL0     C57749   3.900   9.180   9.005 -0.3947  0.7747  0.5538
  419MOL0     C57750   4.570   9.723   8.681  0.5433 -0.7567  0.0781
  419MOL0     C57751   4.694   9.768   8.735  0.5509  0.1898 -0.2814
  419MOL0     C57752   4.796   9.846   8.655  0.2798  0.3607  0.1018
  419MOL0     H57753   5.133   9.980   8.858  0.3659 -2.0375  1.2496
  419MOL0     H57754   5.310  10.069   9.008  0.3038 -0.0886 -0.7439
  419MOL0     H57755   5.221  10.258   9.400 -1.5143  2.1231  0.7939
  419MOL0     H57756   5.136  10.347   9.277 -0.1347 -0.8084 -2.5305
  419MOL0     H57757   5.349  10.481   9.356  1.2373  0.1094  0.2804
  419MOL0     H57758   5.434  10.323   9.327 -1.0791 -0.1836  2.4159
  419MOL0     H57759   5.399  10.371   9.075  2.5430  0.9568 -0.4192
  419MOL0     H57760   5.289  10.497   9.132 -0.4804 -0.0713  2.7688
  419MOL0     H57761   5.522  10.587   9.248  1.2836 -3.0334  1.3136
  419MOL0     H57762   5.587  10.484   9.129 -0.3923  1.4853 -2.8883
  419MOL0     H57763   5.538  10.735   9.052 -1.4112  2.0925  0.0934
  419MOL0     H57764   5.369  10.688   9.059 -0.1097  0.0337  0.0686
  419MOL0     H57765   5.549  10.506   8.904  1.7761  1.2149  0.8920
  419MOL0     H57766   5.377  10.539   8.882 -1.9535  0.3774  3.3388
  419MOL0     H57767   5.571  10.754   8.855 -2.9711  1.9350  2.1164
  419MOL0     H57768   5.413  10.754   8.774  0.1445  0.2417 -2.1397
  419MOL0     H57769   5.607  10.713   8.612  0.0507 -0.8086 -1.6991
  419MOL0     H57770   5.622  10.558   8.681 -1.1338  0.0733  0.1594
  419MOL0     H57771   5.392  10.391   8.696 -2.1865 -2.3145 -0.6232
  419MOL0     H57772   5.165  10.263   8.567 -0.3454 -1.2695 -1.6305
  419MOL0     H57773   5.050  10.365   8.479 -1.7022  0.7132  2.0354
  419MOL0     H57774   5.088  10.370   8.766 -2.2063 -0.7575  1.3792
  419MOL0     H57775   4.983  10.482   8.663 -2.6321 -0.3060  2.5230
  419MOL0     H57776   4.846  10.278   8.599 -0.5306 -1.4267 -1.2866
  419MOL0     H57777   4.945  10.174   8.702  0.1371  0.7953 -0.4483
  419MOL0     H57778   4.850  10.275   8.911 -0.9301 -0.2236  0.1583
  419MOL0     H57779   4.821  10.421   8.834  0.3737  0.5063  0.4396
  419MOL0     H57780   4.696  10.293   9.076 -0.3685  0.6486 -0.7554
  419MOL0     H57781   4.608  10.263   9.273  1.0890 -0.3274 -5.2631
  419MOL0     H57782   4.646  10.081   9.318 -0.0267 -1.3575 -2.5851
  419MOL0     H57783   4.484  10.152   9.325  0.1848  0.5125  1.8757
  419MOL0     H57784   4.127   9.703   9.050  1.7846  2.8244  0.3257
  419MOL0     H57785   4.021   9.530   9.161  0.5038  1.2547 -1.1214
  419MOL0     H57786   4.277   9.300   9.473 -0.5614  3.4170  0.2090
  419MOL0     H57787   4.115   9.314   9.541 -2.9819 -2.3960 -0.9845
  419MOL0     H57788   4.172   9.092   9.494  3.0977  2.4975  1.6046
  419MOL0     H57789   4.035   9.156   9.391 -0.5173 -0.3746 -0.8257
  419MOL0     H57790   4.320   9.118   9.273 -0.6048 -3.3192  0.2566
  419MOL0     H57791   4.173   9.178   9.188 -0.2180 -0.8226  0.5116
  419MOL0     H57792   4.065   8.974   9.197  0.3908 -3.8663 -1.7779
  419MOL0     H57793   4.187   8.899   9.293  0.1110  2.4795  2.6990
  419MOL0     H57794   4.198   8.861   9.029 -0.5669 -0.2234  0.9858
  419MOL0     H57795   4.273   9.021   9.034  2.6248 -0.2760 -0.8651
  419MOL0     H57796   4.390   8.781   9.197  3.1080  0.4168  0.2020
  419MOL0     H57797   4.452   8.935   9.204 -2.8716  0.2173  1.3258
  419MOL0     H57798   4.516   8.931   8.974 -1.1671 -0.8930 -2.1638
  419MOL0     H57799   4.428   8.784   8.938 -1.1059  0.9119 -1.3083
  419MOL0     H57800   4.582   8.660   9.116  0.3938  1.4191  2.4493
  419MOL0     H57801   4.645   8.811   9.155 -0.3690 -1.6485  1.0713
  419MOL0     H57802   4.382   9.476   9.406  0.1076  0.0063  0.0741
  419MOL0     H57803   4.492   9.654   9.265 -0.0949  1.3141  1.3728
  419MOL0     H57804   4.441   9.918   8.900 -0.2936  1.3027 -2.0838
  419MOL0     H57805   4.531  10.075   8.752 -3.4389 -0.1436  2.0664
  419MOL0     H57806   5.000  10.151   9.291 -3.5683 -0.5444 -0.2179
  419MOL0     H57807   4.843  10.022   9.179 -0.0231  1.9532  1.2850
  419MOL0     H57808   4.648   9.639   9.047  3.4440 -2.6281 -0.4905
  419MOL0     H57809   4.440   9.538   8.933 -2.5948  0.3955 -0.4236
  419MOL0     H57810   4.270   9.428   8.589 -0.8591 -1.6061  2.2404
  419MOL0     H57811   4.373   9.409   8.720  1.8358  0.4083 -1.4789
  419MOL0     H57812   4.099   9.552   8.714 -0.3654 -0.0457 -0.3052
  419MOL0     H57813   4.206   9.552   8.860  0.4349  0.6247 -0.9563
  419MOL0     H57814   4.092   9.306   8.726 -1.8917 -0.2401  0.1468
  419MOL0     H57815   4.180   9.311   8.882 -1.0685  1.0470  1.9541
  419MOL0     H57816   3.902   9.427   8.807 -0.5049 -0.7335  1.9024
  419MOL0     H57817   3.986   9.475   8.953 -0.8938  1.9369 -1.7269
  419MOL0     H57818   3.867   9.093   9.058 -0.0098  0.0166 -0.4209
  419MOL0     H57819   4.554   9.748   8.577  0.5757 -0.3444  0.1713
  419MOL0     H57820   4.762   9.950   8.648 -2.0674 -0.1900  1.8830
  419MOL0     H57821   4.896   9.837   8.698 -0.7006 -2.1734  2.1405
  419MOL0     H57822   4.783   9.812   8.552 -2.2883 -0.6101  0.6534
  420MOL0     O57823  11.027   5.695   6.175  0.2698  0.1701 -0.1157
  420MOL0     C57824  11.048   5.584   6.120 -0.1112  0.5713 -0.2936
  420MOL0     O57825  11.177   5.533   6.091 -0.5884 -0.2292 -0.2833
  420MOL0     C57826  11.287   5.623   6.079  0.0547  0.2075 -0.2405
  420MOL0     C57827  11.408   5.582   6.131  0.1756  0.0651 -0.1410
  420MOL0     C57828  11.521   5.662   6.095  0.7505  0.3449 -0.5099
  420MOL0     C57829  11.512   5.771   6.010 -0.5184 -0.5819 -0.1764
  420MOL0     O57830  11.618   5.849   5.969  0.2312  0.3839  0.6142
  420MOL0     C57831  11.744   5.806   6.019  0.5323 -0.1712  0.1197
  420MOL0     C57832  11.858   5.902   5.975  0.3454 -0.2192  0.2907
  420MOL0     C57833  11.889   5.873   5.828 -0.5429 -0.3419  0.0549
  420MOL0     C57834  11.932   6.013   5.765 -0.0662  0.9522 -0.0066
  420MOL0     C57835  12.000   6.005   5.630 -0.0747 -0.0544  0.7842
  420MOL0     C57836  12.119   5.901   5.626 -0.7116  0.2412 -1.0198
  420MOL0     C57837  12.223   5.923   5.507 -0.4036  0.9030 -1.2151
  420MOL0     C57838  12.335   5.824   5.508 -0.8806 -0.0063  0.6746
  420MOL0     N57839  12.441   5.846   5.608  0.2738 -0.1816  0.4318
  420MOL0     C57840  12.512   5.740   5.665 -1.2615 -0.2423  0.0225
  420MOL0     C57841  12.614   5.810   5.734  0.4856 -0.9222  0.5832
  420MOL0     C57842  12.729   5.758   5.806  0.6566  0.3090  0.2503
  420MOL0     C57843  12.831   5.736   5.700 -0.8099 -0.4837  0.5632
  420MOL0     C57844  12.948   5.662   5.754 -1.2792 -0.4920 -1.3006
  420MOL0     C57845  13.023   5.718   5.875 -0.4130  0.1568  0.4950
  420MOL0     O57846  13.103   5.842   5.873 -0.2936 -0.8172 -0.1231
  420MOL0     C57847  13.132   5.898   5.993  0.3262  0.5137  0.2606
  420MOL0     C57848  13.075   6.021   6.028  0.0360 -0.5649 -0.2917
  420MOL0     C57849  13.111   6.097   6.141 -0.0225 -0.2888  0.2410
  420MOL0     C57850  13.018   6.213   6.172 -0.3174 -0.2901  0.3129
  420MOL0     C57851  13.216   6.048   6.224  0.9883 -0.7977  0.4542
  420MOL0     C57852  13.277   6.134   6.327 -0.3088  0.4121  0.1813
  420MOL0     O57853  13.336   6.054   6.424 -0.7482  0.2023  0.2276
  420MOL0     C57854  13.430   6.107   6.508  1.1129  0.4404 -0.5787
  420MOL0     C57855  13.569   6.067   6.521  0.4723 -0.8886 -0.3243
  420MOL0     C57856  13.637   6.130   6.627 -0.4401  0.1551 -0.2610
  420MOL0     C57857  13.596   6.234   6.707  0.1145 -0.9247 -0.1575
  420MOL0     O57858  13.700   6.308   6.776 -0.9284  0.1701 -0.3600
  420MOL0     C57859  13.658   6.423   6.852 -0.4960  0.5648  0.1658
  420MOL0     C57860  13.784   6.499   6.905  0.9313 -0.2243 -0.2794
  420MOL0     C57861  13.911   6.435   6.966 -0.7332 -0.4431 -0.2892
  420MOL0     C57862  14.008   6.548   7.012 -0.7149 -0.4471 -0.0948
  420MOL0     C57863  14.118   6.487   7.095 -0.0118 -0.7609 -0.5132
  420MOL0     C57864  14.071   6.435   7.227  0.2544  0.9871 -0.3665
  420MOL0     C57865  14.195   6.398   7.309 -0.1158  0.2507 -0.5050
  420MOL0     C57866  14.155   6.353   7.437 -0.8310  0.1920 -1.1263
  420MOL0    Cl57867  14.306   6.347   7.540 -0.1871  0.2522 -0.0501
  420MOL0     C57868  13.465   6.269   6.701 -0.3600 -0.6935  0.2019
  420MOL0     C57869  13.390   6.213   6.594  0.2815  0.1790  0.7049
  420MOL0     O57870  13.278   6.256   6.320 -0.5599 -0.2181  0.5157
  420MOL0     C57871  13.279   5.932   6.187  0.4880  0.4082  1.3205
  420MOL0     C57872  13.237   5.856   6.071 -0.0953 -0.3360 -0.5203
  420MOL0     N57873  12.594   5.947   5.724  0.9129 -0.1739  0.5064
  420MOL0     N57874  12.495   5.971   5.640  0.2389  0.1570 -0.9604
  420MOL0     C57875  11.395   5.797   5.949  0.9944  0.1748  0.2916
  420MOL0     C57876  11.278   5.727   5.981 -0.1749 -0.2580  0.0868
  420MOL0     C57877  10.924   5.491   6.092  0.1181 -0.0038 -0.4366
  420MOL0     C57878  10.940   5.378   6.006  0.2552 -0.9921 -0.0796
  420MOL0     C57879  10.832   5.300   5.968  0.2851  0.9350  0.7720
  420MOL0     C57880  10.704   5.329   6.014 -0.7087  0.1525 -0.3955
  420MOL0     O57881  10.594   5.269   5.960 -0.4383  0.3238  0.0634
  420MOL0     C57882  10.587   5.286   5.822 -0.6341 -0.4283 -0.7327
  420MOL0     C57883  10.615   5.428   5.769 -0.4431  0.5593  0.0947
  420MOL0     C57884  10.581   5.437   5.619 -0.1689 -0.3354 -0.5405
  420MOL0     C57885  10.676   5.495   5.507 -0.3367  0.9113  0.1666
  420MOL0     C57886  10.802   5.430   5.492  0.5224  0.1198 -0.0032
  420MOL0     C57887  10.915   5.364   5.485  0.9147 -0.1274 -0.4261
  420MOL0     C57888  10.692   5.437   6.103  0.1658 -0.8226 -0.3851
  420MOL0     C57889  10.795   5.520   6.137 -0.5255 -0.4361  0.1752
  420MOL0     C57890  10.758   5.634   6.233  0.3348  0.5488  0.3111
  420MOL0     H57891  11.413   5.498   6.199  0.2037  0.7518  0.7335
  420MOL0     H57892  11.615   5.626   6.136  0.0241 -0.1401  0.7769
  420MOL0     H57893  11.770   5.701   6.001  6.3033  0.3250  3.3880
  420MOL0     H57894  11.741   5.813   6.128  0.5853  0.0471  0.1072
  420MOL0     H57895  11.830   6.007   5.993  0.6236  0.0676 -0.8451
  420MOL0     H57896  11.956   5.880   6.017  0.7226 -2.2236 -1.4696
  420MOL0     H57897  11.972   5.802   5.822  1.7672  1.6788  3.9069
  420MOL0     H57898  11.803   5.836   5.771 -0.4944 -0.2194 -0.1008
  420MOL0     H57899  11.846   6.081   5.768  0.8976  2.4681 -3.0162
  420MOL0     H57900  12.001   6.066   5.831  1.2758  1.0174 -1.4221
  420MOL0     H57901  12.029   6.102   5.588 -2.1547  0.4558  0.4049
  420MOL0     H57902  11.917   5.975   5.564 -0.0597  0.0309  0.7251
  420MOL0     H57903  12.175   5.922   5.718  1.1848  1.9506 -2.4660
  420MOL0     H57904  12.096   5.794   5.623  0.6043 -0.0880 -0.3904
  420MOL0     H57905  12.254   6.027   5.522 -1.1767  0.7679  1.9264
  420MOL0     H57906  12.175   5.919   5.409 -4.7736 -0.3738  0.7414
  420MOL0     H57907  12.289   5.725   5.523 -4.9549  1.0210 -2.8420
  420MOL0     H57908  12.384   5.819   5.411 -1.6466 -1.0128  0.3150
  420MOL0     H57909  12.502   5.633   5.659 -0.2271 -0.3445 -0.0480
  420MOL0     H57910  12.696   5.666   5.856 -2.9762  1.2605 -0.1061
  420MOL0     H57911  12.755   5.831   5.883 -0.2023  1.9806 -0.9875
  420MOL0     H57912  12.788   5.689   5.611 -2.2034 -0.0444  0.9744
  420MOL0     H57913  12.862   5.840   5.685  0.3684 -0.7944  0.7271
  420MOL0     H57914  12.921   5.557   5.771  0.3227 -0.7366  0.0157
  420MOL0     H57915  13.025   5.665   5.677 -0.6668 -0.2078 -0.6891
  420MOL0     H57916  12.951   5.720   5.957 -2.7419  0.9885 -1.4398
  420MOL0     H57917  13.089   5.640   5.914  0.9040  0.4256 -1.0762
  420MOL0     H57918  12.990   6.049   5.967  0.6696 -1.4567 -1.6460
  420MOL0     H57919  13.011   6.217   6.281 -3.1976  1.8588  0.1853
  420MOL0     H57920  12.918   6.188   6.135  1.6024 -2.2080 -4.2889
  420MOL0     H57921  13.063   6.305   6.134  1.0281 -0.2823  1.8526
  420MOL0     H57922  13.612   5.994   6.454  4.7231  1.8338 -0.9467
  420MOL0     H57923  13.743   6.110   6.643 -0.6526 -0.7075  0.1273
  420MOL0     H57924  13.594   6.491   6.796 -0.4798  0.9649  0.6319
  420MOL0     H57925  13.617   6.379   6.943  2.4851 -1.7096  0.5802
  420MOL0     H57926  13.818   6.539   6.809 -0.6330 -2.1112 -1.7232
  420MOL0     H57927  13.743   6.576   6.971 -0.0706 -0.3226 -0.7556
  420MOL0     H57928  13.966   6.379   6.890  0.8292  0.6027  0.0200
  420MOL0     H57929  13.883   6.371   7.050  2.1760  1.1960  2.1663
  420MOL0     H57930  13.952   6.630   7.059  0.5373  1.8524 -2.3653
  420MOL0     H57931  14.060   6.596   6.929  2.8201  1.0778  2.7024
  420MOL0     H57932  14.160   6.407   7.035  0.7780  1.8758 -3.7542
  420MOL0     H57933  14.180   6.575   7.114 -0.2462 -0.5512 -0.6981
  420MOL0     H57934  14.017   6.341   7.220  0.2138  0.7409  2.3850
  420MOL0     H57935  14.013   6.511   7.281 -2.1212  0.5331 -2.1254
  420MOL0     H57936  14.254   6.490   7.318 -1.2647  0.7764  3.1291
  420MOL0     H57937  14.258   6.321   7.265 -1.1194 -1.6503  1.2304
  420MOL0     H57938  14.115   6.251   7.430 -1.2199  0.3044 -0.6130
  420MOL0     H57939  14.093   6.418   7.500  1.9851 -0.4145  2.6033
  420MOL0     H57940  13.431   6.360   6.749  0.6874 -0.8372  1.2718
  420MOL0     H57941  13.300   6.273   6.585 -0.1772 -0.6330 -0.3208
  420MOL0     H57942  13.378   5.907   6.224  0.2112 -2.5904  0.3053
  420MOL0     H57943  13.304   5.784   6.025  2.9347 -0.1444  3.1207
  420MOL0     H57944  11.387   5.877   5.875 -2.5396 -0.7575 -0.5221
  420MOL0     H57945  11.185   5.760   5.935 -0.0817 -1.1900 -0.8014
  420MOL0     H57946  11.032   5.348   5.958 -0.2715 -1.0713 -1.0663
  420MOL0     H57947  10.859   5.210   5.914  1.1936  0.3057  2.2155
  420MOL0     H57948  10.654   5.218   5.769 -0.5209  0.9915 -2.5387
  420MOL0     H57949  10.481   5.275   5.799 -0.5100  2.3502 -3.2204
  420MOL0     H57950  10.721   5.451   5.787 -0.6799  1.9121 -0.1251
  420MOL0     H57951  10.571   5.511   5.825  1.7669  0.4962  2.1198
  420MOL0     H57952  10.560   5.338   5.577 -1.7725 -0.3136  0.1347
  420MOL0     H57953  10.502   5.510   5.602 -1.5697 -1.8606 -0.8180
  420MOL0     H57954  10.696   5.603   5.514  2.4898  0.3865  1.9775
  420MOL0     H57955  10.617   5.488   5.415  1.3790 -0.1114 -0.9108
  420MOL0     H57956  11.003   5.305   5.478  0.0764 -1.3044 -1.4069
  420MOL0     H57957  10.589   5.466   6.123 -0.2863 -2.0328 -0.8902
  420MOL0     H57958  10.818   5.637   6.324 -1.6282  1.1583  1.6530
  420MOL0     H57959  10.782   5.731   6.189 -1.0019  0.2638 -1.1311
  420MOL0     H57960  10.658   5.632   6.277 -0.3245 -1.7869 -1.1079
  421MOL0     O57961  11.255   3.646  11.377 -0.8186 -1.2306 -0.5541
  421MOL0     C57962  11.347   3.728  11.411  0.3998 -0.0479  0.3473
  421MOL0     O57963  11.473   3.692  11.442 -0.2225  0.3696  0.7215
  421MOL0     C57964  11.511   3.562  11.444  1.0705  0.0964  0.3298
  421MOL0     C57965  11.582   3.520  11.551  0.7008  0.2374 -0.1006
  421MOL0     C57966  11.616   3.383  11.561 -1.4225  0.5140 -0.3324
  421MOL0     C57967  11.573   3.289  11.471  0.4501 -0.1704 -0.4340
  421MOL0     O57968  11.603   3.159  11.501 -0.0575  0.1149  0.3971
  421MOL0     C57969  11.488   3.082  11.460  0.2739  0.4876 -0.3211
  421MOL0     C57970  11.490   2.962  11.566  0.6657  0.8209 -0.2524
  421MOL0     C57971  11.354   2.889  11.557 -0.8570  0.5378 -0.0535
  421MOL0     C57972  11.376   2.752  11.630  0.1476 -0.6952 -0.6007
  421MOL0     C57973  11.240   2.678  11.656  0.3163  0.3221  0.7504
  421MOL0     C57974  11.161   2.660  11.527  0.0780 -0.2213  0.2952
  421MOL0     C57975  11.050   2.553  11.534 -0.4217  0.3561 -0.3921
  421MOL0     C57976  10.952   2.549  11.414 -0.4528 -0.9145 -0.0939
  421MOL0     N57977  10.847   2.660  11.410  0.4429 -0.0512  0.2687
  421MOL0     C57978  10.853   2.771  11.337 -0.0441 -0.2243 -0.3851
  421MOL0     C57979  10.770   2.858  11.409 -0.0431  0.2091  0.4826
  421MOL0     C57980  10.748   2.995  11.359  0.0043 -0.2875  0.9610
  421MOL0     C57981  10.754   3.091  11.476 -0.2398  0.3589  0.5810
  421MOL0     C57982  10.893   3.093  11.554 -0.3935  0.7064 -0.3880
  421MOL0     C57983  10.996   3.166  11.465 -0.8073  0.8661  0.1444
  421MOL0     O57984  11.010   3.301  11.505  0.1864 -0.3445  0.2372
  421MOL0     C57985  11.097   3.335  11.605  0.0076 -0.5235 -0.7312
  421MOL0     C57986  11.171   3.257  11.703  0.1216 -0.5281  0.2884
  421MOL0     C57987  11.268   3.305  11.791  0.9412 -0.9143  0.4723
  421MOL0     C57988  11.315   3.210  11.885  0.4227  0.6702  0.1283
  421MOL0     C57989  11.298   3.447  11.780  0.3553 -0.2074 -1.2061
  421MOL0     C57990  11.395   3.511  11.880  1.0612  0.6021 -0.3015
  421MOL0     O57991  11.379   3.639  11.898 -0.5956 -0.1254 -0.4168
  421MOL0     C57992  11.466   3.698  11.994 -0.0796 -1.1259 -0.5266
  421MOL0     C57993  11.605   3.718  11.977 -0.6834 -0.3831  0.4968
  421MOL0     C57994  11.686   3.788  12.070  0.1843  0.9369 -1.0331
  421MOL0     C57995  11.635   3.846  12.183  0.2298 -0.0997 -0.2916
  421MOL0     O57996  11.717   3.919  12.257  0.4196  0.1003 -0.8579
  421MOL0     C57997  11.684   4.060  12.273 -0.2880  0.7603  0.2293
  421MOL0     C57998  11.785   4.126  12.369 -0.0609 -0.9974  0.1458
  421MOL0     C57999  11.931   4.122  12.316  0.1348  0.0143 -0.1192
  421MOL0     C58000  11.966   4.219  12.209 -0.4705 -0.3496  0.4241
  421MOL0     C58001  12.119   4.216  12.198  1.1691 -0.0382 -1.0996
  421MOL0     C58002  12.172   4.270  12.072  0.6212 -0.0607 -0.2030
  421MOL0     C58003  12.317   4.253  12.039  0.3274  1.1508 -0.9985
  421MOL0     C58004  12.355   4.303  11.903  0.9607 -0.3589 -1.0692
  421MOL0    Cl58005  12.539   4.273  11.892  0.5747  0.6562 -0.1524
  421MOL0     C58006  11.493   3.830  12.198 -0.4600 -0.9092 -0.1284
  421MOL0     C58007  11.417   3.762  12.109  0.5108  0.0470  1.0679
  421MOL0     O58008  11.457   3.437  11.956 -1.1152 -0.0815 -0.1104
  421MOL0     C58009  11.225   3.526  11.688 -0.2551  0.4806  0.3883
  421MOL0     C58010  11.125   3.471  11.608 -0.1474  0.8856  0.1122
  421MOL0     N58011  10.710   2.798  11.518 -0.8025 -0.2584  0.4752
  421MOL0     N58012  10.755   2.681  11.506 -0.8239  0.3230  0.4744
  421MOL0     C58013  11.513   3.327  11.348  0.4301  0.0154 -0.1453
  421MOL0     C58014  11.481   3.470  11.335 -0.5882  0.5338  0.1352
  421MOL0     C58015  11.314   3.871  11.435  0.0073  0.3031  0.0633
  421MOL0     C58016  11.414   3.957  11.489  0.4171 -0.3061  0.6761
  421MOL0     C58017  11.389   4.092  11.522  0.6009  0.8855 -0.0797
  421MOL0     C58018  11.272   4.148  11.492 -0.1635  0.1240 -0.0820
  421MOL0     O58019  11.255   4.272  11.541 -0.8016 -0.0812  0.5148
  421MOL0     C58020  11.135   4.351  11.524 -0.1100 -0.5699  0.0767
  421MOL0     C58021  11.128   4.414  11.385 -1.6314  0.2178 -0.7679
  421MOL0     C58022  11.012   4.494  11.380  0.0316  0.1117 -0.1049
  421MOL0     C58023  11.005   4.557  11.238  0.3585 -0.4322 -0.3897
  421MOL0     C58024  10.892   4.646  11.232 -0.2956  0.9042 -0.1327
  421MOL0     C58025  10.799   4.723  11.222 -0.4470  0.7632 -0.1739
  421MOL0     C58026  11.187   4.072  11.421 -0.4488  0.9816  0.7346
  421MOL0     C58027  11.201   3.938  11.380 -0.4513  0.1092 -0.1352
  421MOL0     C58028  11.083   3.881  11.308 -0.0984  0.2345  0.0390
  421MOL0     H58029  11.605   3.592  11.629 -1.0748  0.0374  0.6494
  421MOL0     H58030  11.687   3.348  11.635  0.0606  0.6241 -1.6449
  421MOL0     H58031  11.472   3.038  11.361 -2.0826 -0.9341  0.5990
  421MOL0     H58032  11.396   3.134  11.487  0.9490  0.6138  1.9479
  421MOL0     H58033  11.566   2.889  11.537 -3.4673 -3.1335 -2.5930
  421MOL0     H58034  11.501   3.007  11.665 -2.8979  0.6722  0.3391
  421MOL0     H58035  11.288   2.948  11.621 -0.0992  0.8513  0.4536
  421MOL0     H58036  11.324   2.879  11.452 -1.7634  0.2586  0.2245
  421MOL0     H58037  11.422   2.688  11.555 -0.8536 -1.7333 -0.3570
  421MOL0     H58038  11.416   2.765  11.731 -0.7929 -2.2562  0.0109
  421MOL0     H58039  11.176   2.722  11.733 -0.7229 -0.0628  0.1406
  421MOL0     H58040  11.264   2.577  11.691 -1.4447  0.4294  2.3885
  421MOL0     H58041  11.126   2.759  11.498 -1.9775 -0.9052  0.2697
  421MOL0     H58042  11.232   2.617  11.456  0.9911 -0.5528  1.3647
  421MOL0     H58043  10.996   2.570  11.628  3.0879  2.9619  1.3553
  421MOL0     H58044  11.100   2.456  11.537  3.8398  2.3181 -0.7012
  421MOL0     H58045  11.007   2.561  11.320  3.6534 -2.5229  1.8599
  421MOL0     H58046  10.891   2.458  11.416  0.2009 -1.3649  1.9856
  421MOL0     H58047  10.908   2.779  11.244  1.3855  0.7402  0.5019
  421MOL0     H58048  10.652   3.002  11.307  0.5655 -4.7342 -1.2260
  421MOL0     H58049  10.824   3.011  11.281 -0.4118 -2.7937 -0.0619
  421MOL0     H58050  10.744   3.192  11.436  2.1560  1.7398  3.1100
  421MOL0     H58051  10.672   3.064  11.543  0.8204 -2.4938  0.9073
  421MOL0     H58052  10.883   3.160  11.640 -2.1210 -0.6732  0.5561
  421MOL0     H58053  10.923   2.994  11.589 -2.9544  0.9145  2.8785
  421MOL0     H58054  11.092   3.113  11.458  0.2905  2.6733  0.9752
  421MOL0     H58055  10.956   3.171  11.364 -2.1170  0.7982  0.6456
  421MOL0     H58056  11.147   3.151  11.713 -4.5964  0.3386  0.5172
  421MOL0     H58057  11.421   3.213  11.910  0.3409 -2.7204  1.3930
  421MOL0     H58058  11.292   3.107  11.854 -0.8834  0.8886  0.3142
  421MOL0     H58059  11.258   3.226  11.977 -0.7975  0.7749 -0.6325
  421MOL0     H58060  11.648   3.687  11.882 -0.8066  3.8657 -1.1916
  421MOL0     H58061  11.793   3.802  12.063 -0.0774  2.7807 -1.8927
  421MOL0     H58062  11.693   4.101  12.171  5.1799 -0.0092  0.1251
  421MOL0     H58063  11.579   4.067  12.303 -1.0445 -5.9421  0.5986
  421MOL0     H58064  11.749   4.227  12.389 -2.4515 -1.5407 -1.0292
  421MOL0     H58065  11.768   4.086  12.470 -0.6185 -0.0109  0.4615
  421MOL0     H58066  11.952   4.022  12.278 -3.7276 -0.2612 -2.0182
  421MOL0     H58067  11.989   4.161  12.400 -0.1131 -0.3592  0.2261
  421MOL0     H58068  11.941   4.320  12.242 -0.3043 -0.4382  0.8280
  421MOL0     H58069  11.910   4.186  12.121 -2.0169  0.3475  1.1215
  421MOL0     H58070  12.165   4.265  12.284 -2.0976 -1.2071  1.5485
  421MOL0     H58071  12.146   4.110  12.192  1.3404  0.0732 -3.3845
  421MOL0     H58072  12.146   4.375  12.084  2.5532  0.4396 -0.0592
  421MOL0     H58073  12.109   4.246  11.986 -1.3580  2.0946  0.5571
  421MOL0     H58074  12.342   4.149  12.062 -2.1520  1.2097  2.7965
  421MOL0     H58075  12.372   4.306  12.117  1.4794 -1.5214  0.1273
  421MOL0     H58076  12.329   4.408  11.890  0.5223 -0.2914  0.2432
  421MOL0     H58077  12.298   4.256  11.822 -1.4250  1.0209 -0.2864
  421MOL0     H58078  11.443   3.876  12.282 -2.5815 -2.5032 -0.4406
  421MOL0     H58079  11.311   3.766  12.133  0.0824 -1.1917 -0.4572
  421MOL0     H58080  11.245   3.633  11.681 -0.1743  0.4263 -0.2711
  421MOL0     H58081  11.077   3.539  11.539  0.1176  0.8889 -0.0716
  421MOL0     H58082  11.497   3.253  11.271  3.3402  0.1037 -0.9717
  421MOL0     H58083  11.421   3.514  11.256 -1.8538  1.2996  1.4604
  421MOL0     H58084  11.502   3.907  11.528 -0.5083 -2.2040  0.4242
  421MOL0     H58085  11.470   4.155  11.558  2.2079 -0.4617 -1.1520
  421MOL0     H58086  11.043   4.293  11.541 -0.1799 -0.9429 -1.4342
  421MOL0     H58087  11.135   4.428  11.602  1.3359 -0.9968  0.5307
  421MOL0     H58088  11.125   4.322  11.326  3.8747 -0.4655 -0.4602
  421MOL0     H58089  11.223   4.456  11.352 -0.1016 -0.1378  2.6902
  421MOL0     H58090  10.937   4.418  11.400  0.3534  0.5502  3.3684
  421MOL0     H58091  11.002   4.578  11.450  0.5132 -0.1796  0.3252
  421MOL0     H58092  11.005   4.469  11.173  0.3716 -1.0527  0.4427
  421MOL0     H58093  11.100   4.605  11.211  0.8697 -0.9336  0.4670
  421MOL0     H58094  10.729   4.804  11.225 -2.7923 -1.1714  2.0835
  421MOL0     H58095  11.091   4.118  11.400 -1.4350  0.1582  3.1100
  421MOL0     H58096  10.990   3.938  11.307 -0.8412 -0.9371 -0.7054
  421MOL0     H58097  11.101   3.850  11.205 -0.3774  1.2602 -0.3292
  421MOL0     H58098  11.056   3.792  11.366  0.5742  0.4122  0.6466
  422MOL0     O58099   5.860   7.103   0.814 -0.6633 -1.4458  0.2804
  422MOL0     C58100   5.952   7.023   0.833 -0.7605  0.1507 -0.7215
  422MOL0     O58101   5.929   6.889   0.850  0.1503  0.9606  0.5339
  422MOL0     C58102   5.807   6.853   0.912 -0.1783  0.4629 -0.1599
  422MOL0     C58103   5.680   6.882   0.866 -0.3127 -0.5369 -0.5419
  422MOL0     C58104   5.556   6.853   0.934 -0.1177 -0.7692  0.4538
  422MOL0     C58105   5.559   6.799   1.059  0.4262 -0.8114  0.7341
  422MOL0     O58106   5.441   6.759   1.112 -0.3535 -0.9737  0.4851
  422MOL0     C58107   5.441   6.753   1.258  0.5902 -0.4111  0.6771
  422MOL0     C58108   5.305   6.715   1.322 -1.4710 -1.2275  0.3683
  422MOL0     C58109   5.229   6.605   1.249  0.6377  0.2462 -0.4800
  422MOL0     C58110   5.079   6.609   1.286  0.9021 -0.1783  0.5794
  422MOL0     C58111   5.004   6.498   1.221  0.6039 -0.6105  1.4450
  422MOL0     C58112   5.020   6.357   1.289 -0.6342  0.1338  0.1595
  422MOL0     C58113   4.951   6.239   1.210  0.3388 -0.5251  0.0463
  422MOL0     C58114   4.979   6.095   1.261 -0.2792  0.7066  0.3141
  422MOL0     N58115   4.948   6.011   1.146 -0.9936 -0.6974  1.1339
  422MOL0     C58116   5.040   5.952   1.051  0.2770 -0.7199  0.6947
  422MOL0     C58117   4.949   5.896   0.966 -1.2051  0.8113 -0.2615
  422MOL0     C58118   4.993   5.811   0.849 -0.9158  0.4015  0.1152
  422MOL0     C58119   4.910   5.811   0.718 -0.2220  0.1942 -0.3810
  422MOL0     C58120   4.962   5.720   0.603 -0.2457  0.0017 -0.1002
  422MOL0     C58121   5.076   5.788   0.531 -0.2993  0.7886 -0.6931
  422MOL0     O58122   5.129   5.680   0.454 -0.6130  0.3019 -0.2033
  422MOL0     C58123   5.099   5.663   0.320  0.1894 -0.4126  0.3017
  422MOL0     C58124   5.189   5.596   0.236 -0.1415  0.1316  0.1022
  422MOL0     C58125   5.162   5.575   0.102  0.1759 -1.2324  0.1572
  422MOL0     C58126   5.267   5.502   0.026 -0.2762  0.0011 -0.4179
  422MOL0     C58127   5.041   5.619   0.049  0.9737  0.9723 -1.1846
  422MOL0     C58128   5.006   5.595  -0.095 -0.4860  0.8186 -0.7791
  422MOL0     O58129   5.105   5.615  -0.191  0.2976  0.6673  0.2430
  422MOL0     C58130   5.067   5.550  -0.307  0.9756 -0.3693  0.6648
  422MOL0     C58131   5.016   5.630  -0.412  0.4679 -0.1248 -0.0431
  422MOL0     C58132   4.956   5.573  -0.522  0.6393 -0.5911 -0.3499
  422MOL0     C58133   4.971   5.436  -0.539  0.3401  0.0563  0.1347
  422MOL0     O58134   4.939   5.386  -0.663  0.1621 -0.2585  0.0624
  422MOL0     C58135   4.801   5.420  -0.709 -0.2065 -0.3588 -0.0613
  422MOL0     C58136   4.777   5.316  -0.823 -0.1054 -0.1492 -1.0358
  422MOL0     C58137   4.626   5.307  -0.856 -0.4130  0.5744  0.3849
  422MOL0     C58138   4.584   5.164  -0.912  0.4349  0.1365  0.2791
  422MOL0     C58139   4.429   5.151  -0.899 -1.1450 -0.1954  0.1327
  422MOL0     C58140   4.357   5.249  -0.991  1.0763 -0.3148  0.9355
  422MOL0     C58141   4.206   5.225  -0.966 -0.1175 -0.8403 -0.4358
  422MOL0     C58142   4.108   5.288  -1.062  0.7531 -0.2816  0.2081
  422MOL0    Cl58143   4.121   5.208  -1.224 -0.0756  0.0629 -0.1205
  422MOL0     C58144   5.017   5.350  -0.440 -0.1323  0.2888  0.6772
  422MOL0     C58145   5.073   5.411  -0.319  0.4973 -0.0256  0.7505
  422MOL0     O58146   4.886   5.575  -0.120 -0.2412 -0.0693 -0.5081
  422MOL0     C58147   4.951   5.691   0.138 -0.2861  0.1092  0.0601
  422MOL0     C58148   4.977   5.714   0.271  0.1000  0.3327 -0.7575
  422MOL0     N58149   4.821   5.898   1.012  0.4073 -0.8086  0.1943
  422MOL0     N58150   4.823   5.963   1.124  0.3186  0.3061  0.9267
  422MOL0     C58151   5.682   6.771   1.104  0.1192 -0.2342  0.7385
  422MOL0     C58152   5.803   6.793   1.035 -0.1566  0.1211 -0.2821
  422MOL0     C58153   6.096   7.063   0.810 -0.4522  0.4582 -0.7817
  422MOL0     C58154   6.177   6.964   0.742  0.5872  0.2091  0.0490
  422MOL0     C58155   6.300   6.996   0.694 -0.8046 -0.2406  0.8000
  422MOL0     C58156   6.344   7.128   0.703  0.3735 -0.4456  0.0676
  422MOL0     O58157   6.479   7.156   0.669  0.9031  0.4547 -0.2012
  422MOL0     C58158   6.518   7.287   0.637 -0.2192  0.4645  0.0445
  422MOL0     C58159   6.646   7.282   0.556 -0.5949 -0.1527 -0.1069
  422MOL0     C58160   6.635   7.351   0.421 -0.3891 -0.2797  0.2411
  422MOL0     C58161   6.777   7.352   0.365  0.7381 -0.5357 -0.1909
  422MOL0     C58162   6.780   7.397   0.220  0.1072  0.0817 -0.8203
  422MOL0     C58163   6.795   7.431   0.101 -0.1457  0.4846 -0.0487
  422MOL0     C58164   6.264   7.229   0.756 -0.0150  0.6622 -0.2568
  422MOL0     C58165   6.141   7.198   0.816  0.1183  0.1122  0.3925
  422MOL0     C58166   6.061   7.319   0.868 -0.4652 -0.2337  0.6108
  422MOL0     H58167   5.670   6.939   0.774  1.9663  0.2048 -0.3938
  422MOL0     H58168   5.458   6.881   0.897 -0.5027 -0.7910  1.4142
  422MOL0     H58169   5.462   6.855   1.292 -1.4136  0.8890 -1.7224
  422MOL0     H58170   5.518   6.686   1.298  3.8084  2.5498 -0.0888
  422MOL0     H58171   5.330   6.690   1.426  1.0669  3.8234  1.2834
  422MOL0     H58172   5.252   6.811   1.317  2.8342  1.4594  0.9535
  422MOL0     H58173   5.235   6.623   1.142 -1.8663  0.9243 -0.5668
  422MOL0     H58174   5.271   6.507   1.272 -1.1843 -0.5350 -0.3398
  422MOL0     H58175   5.071   6.606   1.395  2.1044 -1.0363  0.6678
  422MOL0     H58176   5.036   6.708   1.268  2.3668  0.4568  0.4739
  422MOL0     H58177   5.025   6.480   1.115 -1.2901 -0.4026  0.9851
  422MOL0     H58178   4.901   6.536   1.218  1.8864  3.2494  0.1480
  422MOL0     H58179   5.127   6.333   1.292 -0.7552 -0.5746 -0.6841
  422MOL0     H58180   4.979   6.361   1.390 -1.9173  1.2669 -0.3643
  422MOL0     H58181   4.981   6.253   1.105  1.4493 -0.0382  0.4161
  422MOL0     H58182   4.842   6.239   1.215 -0.1351 -1.0577 -4.8609
  422MOL0     H58183   5.084   6.081   1.291  0.7446  0.7289 -2.8569
  422MOL0     H58184   4.915   6.068   1.346 -0.5884 -4.9369 -1.2562
  422MOL0     H58185   5.147   5.940   1.052  0.2456 -1.2948 -0.7404
  422MOL0     H58186   5.013   5.715   0.898  0.3945  1.2900  1.4261
  422MOL0     H58187   5.094   5.847   0.826 -1.0000  0.3537 -0.3356
  422MOL0     H58188   4.806   5.793   0.748  0.0328  0.4698  0.7320
  422MOL0     H58189   4.912   5.913   0.680 -0.2235  0.4580  0.3047
  422MOL0     H58190   5.005   5.626   0.637  3.6968  0.6241 -2.6495
  422MOL0     H58191   4.890   5.708   0.522  3.3338  3.9556 -4.4485
  422MOL0     H58192   5.047   5.881   0.481 -0.2328  2.1738  1.6857
  422MOL0     H58193   5.150   5.819   0.606  0.9209 -0.6834 -1.2278
  422MOL0     H58194   5.273   5.539   0.277  0.2909 -0.5095 -1.5960
  422MOL0     H58195   5.204   5.440  -0.039 -0.6233  1.2053 -1.2716
  422MOL0     H58196   5.330   5.435   0.086  2.1219  1.5404 -1.0941
  422MOL0     H58197   5.338   5.567  -0.025 -1.6429  0.7649 -1.4002
  422MOL0     H58198   5.003   5.737  -0.395 -0.0202 -0.1319 -0.3519
  422MOL0     H58199   4.924   5.640  -0.601  3.2076  0.6051 -0.4663
  422MOL0     H58200   4.731   5.407  -0.626  1.1198  1.1877  1.3833
  422MOL0     H58201   4.781   5.520  -0.748  2.0002 -0.2641 -1.0722
  422MOL0     H58202   4.841   5.355  -0.903  1.7927  0.6849  0.8165
  422MOL0     H58203   4.817   5.217  -0.798 -1.4285 -0.5234 -0.3369
  422MOL0     H58204   4.599   5.384  -0.929 -0.7251 -0.9733 -1.2204
  422MOL0     H58205   4.564   5.318  -0.767 -1.0598  0.4206 -0.0391
  422MOL0     H58206   4.634   5.085  -0.856 -2.7514 -1.4739  1.0693
  422MOL0     H58207   4.616   5.173  -1.016 -0.6058 -0.2789 -0.0852
  422MOL0     H58208   4.400   5.049  -0.927  3.0106 -1.6162  0.3205
  422MOL0     H58209   4.403   5.181  -0.797 -2.4100  0.7872 -0.4533
  422MOL0     H58210   4.381   5.240  -1.098 -0.3308 -0.4911  0.6042
  422MOL0     H58211   4.382   5.354  -0.973 -2.7172  1.1797 -1.1619
  422MOL0     H58212   4.198   5.252  -0.861  2.5838 -1.0978 -0.0965
  422MOL0     H58213   4.203   5.116  -0.979 -0.0937 -0.7866 -0.9117
  422MOL0     H58214   4.129   5.396  -1.063 -1.3512  0.2403  2.5554
  422MOL0     H58215   4.009   5.281  -1.017  0.4325 -1.9137 -0.6736
  422MOL0     H58216   5.019   5.243  -0.459  3.0324  0.0372  1.8386
  422MOL0     H58217   5.119   5.361  -0.235 -3.1628 -1.6593  2.0338
  422MOL0     H58218   4.868   5.734   0.083  0.2535  0.3585 -0.5709
  422MOL0     H58219   4.897   5.764   0.325 -2.0567 -1.8017 -1.8022
  422MOL0     H58220   5.695   6.722   1.200 -1.2660 -0.4430  0.8401
  422MOL0     H58221   5.899   6.770   1.080  0.1465  3.7688  1.2442
  422MOL0     H58222   6.137   6.864   0.745 -0.2833  0.5659  2.6971
  422MOL0     H58223   6.359   6.922   0.640 -1.0071  0.4870 -0.4585
  422MOL0     H58224   6.449   7.335   0.567 -0.4345  2.0584  1.2903
  422MOL0     H58225   6.545   7.343   0.727 -0.7336 -1.9950  1.8395
  422MOL0     H58226   6.663   7.176   0.534 -1.5392 -0.7550  1.8713
  422MOL0     H58227   6.716   7.331   0.624 -0.3314 -1.2286  0.4208
  422MOL0     H58228   6.566   7.301   0.351  1.3362 -1.9136 -0.3800
  422MOL0     H58229   6.598   7.451   0.442  1.1672  0.0944  1.4098
  422MOL0     H58230   6.828   7.255   0.361 -1.4499 -1.7221 -0.8521
  422MOL0     H58231   6.845   7.419   0.418  0.2525  1.5938 -2.0953
  422MOL0     H58232   6.824   7.455   0.001  2.3820  1.1950  0.7704
  422MOL0     H58233   6.301   7.329   0.777 -2.3134  1.6502 -0.6498
  422MOL0     H58234   5.966   7.327   0.814 -0.9304 -2.2900  1.0564
  422MOL0     H58235   6.050   7.296   0.974 -2.1018 -1.0349  0.2941
  422MOL0     H58236   6.114   7.413   0.850  1.2550 -1.7391 -3.0482
  423MOL0     O58237   3.365  10.928   1.606 -0.0813  0.1547 -0.7775
  423MOL0     C58238   3.466  10.995   1.640  0.1539 -0.5784  0.4605
  423MOL0     O58239   3.595  10.959   1.615  0.5491 -0.2061  0.1058
  423MOL0     C58240   3.619  10.841   1.548  1.0329  0.7218  0.5828
  423MOL0     C58241   3.632  10.842   1.412 -0.4697  0.5438  0.2796
  423MOL0     C58242   3.681  10.728   1.345  0.0454 -0.6945  0.3707
  423MOL0     C58243   3.724  10.614   1.419  0.3338  1.1251 -0.1069
  423MOL0     O58244   3.783  10.500   1.368 -0.8428  0.0608 -0.4399
  423MOL0     C58245   3.838  10.515   1.234 -0.7083  0.2393 -0.5891
  423MOL0     C58246   3.746  10.451   1.130  0.2008 -0.3079  0.1211
  423MOL0     C58247   3.683  10.318   1.174 -0.3826  0.0697  0.2745
  423MOL0     C58248   3.607  10.249   1.058 -0.7115 -0.4979 -0.0380
  423MOL0     C58249   3.536  10.124   1.102  0.6878 -0.3231  0.4073
  423MOL0     C58250   3.491  10.044   0.985 -0.0317 -0.7016  0.0138
  423MOL0     C58251   3.421   9.911   1.030  0.5865  0.5239 -0.9396
  423MOL0     C58252   3.523   9.804   1.071  0.2246 -0.6418  0.1359
  423MOL0     N58253   3.484   9.660   1.080 -1.1842 -0.1383  0.3930
  423MOL0     C58254   3.362   9.609   1.046  0.5751 -0.3064 -0.3849
  423MOL0     C58255   3.381   9.480   1.017  0.0835  0.0409 -0.9781
  423MOL0     C58256   3.277   9.378   1.006 -1.0971  0.7484  0.0238
  423MOL0     C58257   3.141   9.409   1.067  0.3963  0.2051  0.7704
  423MOL0     C58258   3.163   9.372   1.217  1.3808 -0.4412 -0.4203
  423MOL0     C58259   3.026   9.373   1.285  0.4780 -0.0647  0.4329
  423MOL0     O58260   2.922   9.475   1.245  0.1510 -1.3232 -0.3533
  423MOL0     C58261   2.937   9.611   1.273  0.6420  1.0490 -0.3090
  423MOL0     C58262   2.844   9.697   1.221  0.4305  0.4531 -0.2833
  423MOL0     C58263   2.831   9.835   1.263 -0.8164 -0.1088 -0.4412
  423MOL0     C58264   2.723   9.926   1.198 -0.4049  0.4893 -0.1708
  423MOL0     C58265   2.940   9.888   1.344  0.1986  0.9075 -0.6323
  423MOL0     C58266   2.956  10.030   1.390 -0.0903  1.0006 -0.3703
  423MOL0     O58267   2.848  10.107   1.380 -0.2707  0.1611 -0.3779
  423MOL0     C58268   2.854  10.227   1.442  0.1098 -0.1442 -0.3558
  423MOL0     C58269   2.854  10.241   1.578 -0.0678  0.6523 -0.6020
  423MOL0     C58270   2.854  10.358   1.648 -0.0749 -0.7137 -0.3146
  423MOL0     C58271   2.853  10.479   1.576 -0.6464 -0.4129 -0.2705
  423MOL0     O58272   2.852  10.604   1.632  0.2238  0.0450 -0.2453
  423MOL0     C58273   2.893  10.627   1.771 -0.9777 -0.0807 -0.0171
  423MOL0     C58274   3.049  10.621   1.778 -0.6298 -0.3021 -1.1675
  423MOL0     C58275   3.109  10.614   1.924 -0.0976 -0.0952 -0.9578
  423MOL0     C58276   3.093  10.745   2.009 -0.1645  0.0934  0.6188
  423MOL0     C58277   3.119  10.878   1.935  0.0203  0.3516 -0.2941
  423MOL0     C58278   3.117  10.997   2.037  0.5754 -0.1452  1.0217
  423MOL0     C58279   3.157  11.130   1.973  0.3909 -1.0734  0.4920
  423MOL0     C58280   3.204  11.238   2.068  0.4804 -0.5319 -0.6050
  423MOL0    Cl58281   3.105  11.246   2.216  0.0267 -0.2562 -0.4487
  423MOL0     C58282   2.843  10.475   1.437 -0.2235 -0.8867  0.1723
  423MOL0     C58283   2.843  10.349   1.367 -0.7305  0.1692 -0.0980
  423MOL0     O58284   3.057  10.062   1.442 -0.8657 -0.5771  0.3880
  423MOL0     C58285   3.036   9.800   1.393 -0.8637  0.3502 -0.6824
  423MOL0     C58286   3.032   9.662   1.359  0.8883  0.4234  0.0902
  423MOL0     N58287   3.517   9.449   1.018 -0.5131 -0.2289 -0.2744
  423MOL0     N58288   3.579   9.560   1.062  0.0039 -0.2096  0.4011
  423MOL0     C58289   3.723  10.624   1.559  0.2778 -0.8885 -0.3677
  423MOL0     C58290   3.658  10.735   1.623 -0.4748  0.3788 -0.4730
  423MOL0     C58291   3.447  11.135   1.694 -1.3621  0.2582  0.1837
  423MOL0     C58292   3.332  11.213   1.651  0.6288  0.0024  0.2564
  423MOL0     C58293   3.315  11.342   1.702 -0.0241  0.5303  0.3473
  423MOL0     C58294   3.413  11.404   1.783  0.2879  0.2979  0.6798
  423MOL0     O58295   3.398  11.531   1.823  0.1813 -0.8033 -0.0399
  423MOL0     C58296   3.442  11.564   1.955 -0.3966 -0.2911 -0.4587
  423MOL0     C58297   3.567  11.638   1.985 -0.4810 -0.7394 -0.2587
  423MOL0     C58298   3.575  11.781   1.936  0.4359  0.7994  0.2502
  423MOL0     C58299   3.526  11.891   2.027  0.6890 -0.1375  0.3837
  423MOL0     C58300   3.518  12.034   1.977 -0.0326 -0.3218 -0.3743
  423MOL0     C58301   3.519  12.144   1.919 -0.4147 -0.2682  0.0358
  423MOL0     C58302   3.529  11.326   1.812  0.4201  0.3723 -0.9634
  423MOL0     C58303   3.547  11.194   1.778 -0.3495  0.2008 -0.3830
  423MOL0     C58304   3.666  11.118   1.830  0.4731  0.6868 -0.4080
  423MOL0     H58305   3.616  10.928   1.347  1.9885 -1.0232 -2.6664
  423MOL0     H58306   3.688  10.726   1.236 -0.0449 -3.0179  0.3758
  423MOL0     H58307   3.936  10.465   1.236 -0.2736  1.0118  2.1807
  423MOL0     H58308   3.856  10.620   1.209  1.3332  0.1452  0.2820
  423MOL0     H58309   3.659  10.515   1.111  0.1667 -0.0474  1.0904
  423MOL0     H58310   3.812  10.427   1.047  1.7797  2.2430  0.5297
  423MOL0     H58311   3.759  10.252   1.219  0.0546  1.3679  1.5224
  423MOL0     H58312   3.613  10.329   1.257  0.9795 -0.1916  1.5020
  423MOL0     H58313   3.544  10.323   1.008  0.4952  1.1496  0.8264
  423MOL0     H58314   3.684  10.205   0.993 -3.2106 -4.4949 -0.7018
  423MOL0     H58315   3.451  10.144   1.168  0.0707  0.7515 -0.6649
  423MOL0     H58316   3.615  10.065   1.150  2.1197 -0.7361 -2.3067
  423MOL0     H58317   3.424  10.103   0.921  2.9040  1.5951 -1.2439
  423MOL0     H58318   3.571  10.030   0.910 -2.1593 -0.6945 -2.3966
  423MOL0     H58319   3.378   9.870   0.938  1.2936  0.6010 -1.3178
  423MOL0     H58320   3.349   9.918   1.112  1.9405 -1.2880  0.4857
  423MOL0     H58321   3.608   9.794   1.002  0.5236 -4.3793  0.8580
  423MOL0     H58322   3.553   9.830   1.173  1.5197  0.2310 -0.4269
  423MOL0     H58323   3.265   9.657   1.051  0.6312 -0.3328  2.1299
  423MOL0     H58324   3.309   9.280   1.043 -0.8872  0.9544  0.3818
  423MOL0     H58325   3.256   9.380   0.898  0.4949 -0.6086 -0.3477
  423MOL0     H58326   3.105   9.512   1.064  0.3856  0.1801 -0.0019
  423MOL0     H58327   3.059   9.347   1.030 -2.4879  1.3839  4.5086
  423MOL0     H58328   3.218   9.280   1.236  1.6685  0.4394  4.0320
  423MOL0     H58329   3.214   9.452   1.272 -0.4248 -0.4682  1.4190
  423MOL0     H58330   2.993   9.275   1.251  0.6732  0.8406 -2.6368
  423MOL0     H58331   3.030   9.366   1.394  1.0393 -0.9499  0.3674
  423MOL0     H58332   2.770   9.654   1.154  1.1475  0.1085 -0.8667
  423MOL0     H58333   2.763  10.013   1.145 -2.2773  2.1390  0.9595
  423MOL0     H58334   2.657   9.968   1.275 -2.2772 -0.1754 -1.3449
  423MOL0     H58335   2.667   9.882   1.115  0.5543 -0.3088 -0.4123
  423MOL0     H58336   2.873  10.152   1.637 -1.1123  0.0256 -1.1792
  423MOL0     H58337   2.859  10.352   1.756 -0.1541  1.5822 -0.1354
  423MOL0     H58338   2.855  10.723   1.808  2.2388  0.6267  1.8298
  423MOL0     H58339   2.852  10.545   1.831  0.7813 -1.3541 -0.4993
  423MOL0     H58340   3.079  10.529   1.727 -0.4552 -1.3818  0.7682
  423MOL0     H58341   3.091  10.710   1.731 -1.8896 -0.1939 -2.1515
  423MOL0     H58342   3.218  10.605   1.925 -0.0484  0.1854 -2.1467
  423MOL0     H58343   3.053  10.534   1.973 -3.6668  1.3188 -2.3624
  423MOL0     H58344   3.153  10.737   2.100 -1.0509  0.8718  1.2849
  423MOL0     H58345   2.989  10.753   2.041 -0.0558  0.9560  0.7649
  423MOL0     H58346   3.219  10.858   1.895 -0.7321 -2.2403 -1.0971
  423MOL0     H58347   3.045  10.895   1.856 -0.1085  0.3775 -0.1690
  423MOL0     H58348   3.190  10.972   2.115  1.0938 -3.0047 -0.2377
  423MOL0     H58349   3.015  11.006   2.074 -0.2691 -0.4676 -1.0681
  423MOL0     H58350   3.075  11.165   1.909 -0.7897  0.2770  2.6279
  423MOL0     H58351   3.244  11.134   1.907 -0.3449  1.1427 -0.4634
  423MOL0     H58352   3.201  11.338   2.022  0.0573  0.0551  0.6444
  423MOL0     H58353   3.307  11.221   2.100  0.9723  1.6691 -0.8292
  423MOL0     H58354   2.829  10.570   1.386  1.5667 -0.3616  0.5874
  423MOL0     H58355   2.840  10.345   1.258  2.3325  1.3077 -0.3234
  423MOL0     H58356   3.109   9.824   1.470 -1.5894 -2.0518  0.8550
  423MOL0     H58357   3.112   9.598   1.397  1.0611  1.5128  1.6912
  423MOL0     H58358   3.762  10.536   1.610  2.5183  0.9400  1.3420
  423MOL0     H58359   3.644  10.730   1.731 -0.3924 -0.1917 -0.4851
  423MOL0     H58360   3.257  11.170   1.585  0.8343  0.9891 -0.6460
  423MOL0     H58361   3.230  11.407   1.685  0.0333  1.1611  2.3321
  423MOL0     H58362   3.361  11.631   1.986 -0.2686 -0.6350  0.6520
  423MOL0     H58363   3.433  11.486   2.031  3.2166  1.9171  2.5231
  423MOL0     H58364   3.656  11.582   1.954  1.3734  0.4780  2.4714
  423MOL0     H58365   3.580  11.631   2.093 -2.3570 -1.4744 -0.0336
  423MOL0     H58366   3.682  11.803   1.925  1.1262 -1.4851  1.6504
  423MOL0     H58367   3.524  11.797   1.841 -0.0388  1.6492  0.6382
  423MOL0     H58368   3.587  11.880   2.117  2.2507  3.2564 -0.0961
  423MOL0     H58369   3.428  11.860   2.065  0.8978  1.2816  2.2341
  423MOL0     H58370   3.508  12.232   1.859 -1.3301  2.5685  4.0092
  423MOL0     H58371   3.607  11.388   1.858  0.2636  0.6594 -1.0805
  423MOL0     H58372   3.686  11.154   1.932 -2.0790  0.0508  0.3966
  423MOL0     H58373   3.648  11.012   1.847 -4.3689  1.7074  3.1162
  423MOL0     H58374   3.754  11.134   1.767  0.1707 -0.3546 -1.1020
  424MOL0     O58375   2.127   0.187   0.213 -0.3971 -0.0388 -0.1122
  424MOL0     C58376   2.190   0.099   0.149 -0.1052  0.5570 -0.7514
  424MOL0     O58377   2.142   0.019   0.053  0.8496 -0.7730  0.7418
  424MOL0     C58378   2.011   0.019   0.030 -0.1839  0.1133  0.2296
  424MOL0     C58379   1.933  -0.086   0.085  0.7880  0.8594  0.2375
  424MOL0     C58380   1.795  -0.080   0.072 -0.3539 -0.0943  0.7363
  424MOL0     C58381   1.727   0.015  -0.019 -0.8609 -0.3173 -0.0823
  424MOL0     O58382   1.591   0.010  -0.052 -0.5396 -0.5793  0.1894
  424MOL0     C58383   1.513  -0.098   0.007  0.1743 -0.9355  0.6311
  424MOL0     C58384   1.377  -0.098  -0.065  0.2910 -0.2603  0.6221
  424MOL0     C58385   1.293   0.028  -0.047 -0.0337 -0.1095 -0.8043
  424MOL0     C58386   1.172   0.040  -0.145 -0.1825 -0.8150 -0.0412
  424MOL0     C58387   1.111   0.177  -0.154  0.2915  0.3783 -0.5401
  424MOL0     C58388   1.015   0.193  -0.267  0.0385 -1.3724  0.0862
  424MOL0     C58389   0.914   0.086  -0.265  0.3520  0.2945 -0.4418
  424MOL0     C58390   0.824   0.102  -0.141  0.3454 -0.3692 -0.4977
  424MOL0     N58391   0.701   0.040  -0.168 -0.0294  0.3191 -0.2826
  424MOL0     C58392   0.598   0.091  -0.250  0.3165  0.1561  0.9386
  424MOL0     C58393   0.504  -0.004  -0.263  0.2062  0.3193 -0.2729
  424MOL0     C58394   0.369   0.011  -0.329 -0.2215 -0.3881  0.2007
  424MOL0     C58395   0.263   0.027  -0.225  0.5769  1.2619 -0.4730
  424MOL0     C58396   0.290   0.140  -0.133 -0.3227 -0.1235 -1.1232
  424MOL0     C58397   0.156   0.195  -0.080 -0.9519 -0.4628  0.8027
  424MOL0     O58398   0.186   0.321  -0.014  0.0121  0.0426  1.0225
  424MOL0     C58399   0.185   0.327   0.123  0.9792 -0.6955  0.1364
  424MOL0     C58400   0.285   0.410   0.177  0.3148 -0.2811 -0.2657
  424MOL0     C58401   0.302   0.424   0.316  0.2573  0.2271 -0.3070
  424MOL0     C58402   0.424   0.490   0.379  0.0233 -1.2215 -0.1678
  424MOL0     C58403   0.210   0.359   0.404 -1.0747  0.5699  0.9001
  424MOL0     C58404   0.220   0.388   0.546  0.1156 -0.2242  0.3017
  424MOL0     O58405   0.208   0.522   0.586  0.9787  0.2908  0.3155
  424MOL0     C58406   0.161   0.553   0.708  0.1947 -0.1191  0.5879
  424MOL0     C58407   0.025   0.557   0.752  0.2072  0.1999  1.0113
  424MOL0     C58408  -0.009   0.582   0.890 -0.2142  0.1361  0.3425
  424MOL0     C58409   0.095   0.617   0.975 -0.8723  0.6200  0.3715
  424MOL0     O58410   0.044   0.644   1.097 -0.1003 -0.3438  0.1360
  424MOL0     C58411   0.142   0.668   1.201  0.2208  0.7668  0.6068
  424MOL0     C58412   0.090   0.635   1.341 -0.4848 -0.3761  0.4703
  424MOL0     C58413   0.046   0.753   1.439 -0.1102 -0.0758 -0.8237
  424MOL0     C58414  -0.017   0.871   1.375  0.8523  0.4208 -0.2151
  424MOL0     C58415  -0.155   0.855   1.314 -0.0002 -0.3802 -0.2941
  424MOL0     C58416  -0.228   1.001   1.309 -0.2769  0.1438  0.2686
  424MOL0     C58417  -0.365   0.981   1.252  0.4306  0.9080  0.6242
  424MOL0     C58418  -0.427   1.113   1.206 -0.1354  0.3804 -0.6508
  424MOL0    Cl58419  -0.427   1.247   1.328  0.7729 -0.3224 -0.1549
  424MOL0     C58420   0.232   0.607   0.937 -0.7035  0.1713  0.8354
  424MOL0     C58421   0.263   0.583   0.800  0.1728 -0.3498  0.5874
  424MOL0     O58422   0.216   0.295   0.621 -0.6653 -0.2186  0.3117
  424MOL0     C58423   0.104   0.287   0.349  0.0288  0.3729  0.8965
  424MOL0     C58424   0.091   0.265   0.208 -0.2339  0.0831 -0.1953
  424MOL0     N58425   0.557  -0.116  -0.203 -0.0366  0.2217  0.4250
  424MOL0     N58426   0.664  -0.089  -0.135 -0.0487 -0.0261 -0.3535
  424MOL0     C58427   1.807   0.117  -0.080  0.3157  0.4146  0.3756
  424MOL0     C58428   1.947   0.117  -0.055 -0.1782  0.4144  1.1977
  424MOL0     C58429   2.327   0.089   0.182  0.1121 -0.1701 -0.2640
  424MOL0     C58430   2.370   0.100   0.318 -1.0478 -0.5254 -0.1683
  424MOL0     C58431   2.504   0.081   0.351 -0.5945  0.6054  0.1216
  424MOL0     C58432   2.598   0.053   0.252  0.7653 -0.0996  0.5513
  424MOL0     O58433   2.732   0.018   0.272 -0.2286 -0.3184  0.3319
  424MOL0     C58434   2.784  -0.049   0.390  0.4093  0.6070  0.0495
  424MOL0     C58435   2.863  -0.177   0.348  0.1616 -0.1317  0.5753
  424MOL0     C58436   2.779  -0.269   0.252 -0.6944  0.0329  0.6061
  424MOL0     C58437   2.829  -0.418   0.283  0.8846 -0.3953 -0.7152
  424MOL0     C58438   2.765  -0.507   0.183 -0.5604  0.4013  0.1131
  424MOL0     C58439   2.736  -0.579   0.094  0.5576  0.0726 -0.1828
  424MOL0     C58440   2.558   0.051   0.129 -0.2424 -0.0090 -0.0993
  424MOL0     C58441   2.427   0.069   0.083  0.8924  0.6691 -0.2431
  424MOL0     C58442   2.417   0.066  -0.068  0.1001  0.1956 -0.1960
  424MOL0     H58443   1.984  -0.170   0.132 -0.9869  0.3084  1.2464
  424MOL0     H58444   1.738  -0.147   0.135  0.3659  0.9540  2.5988
  424MOL0     H58445   1.504  -0.078   0.114  1.7288  0.3325  0.5627
  424MOL0     H58446   1.558  -0.195  -0.017  0.5580  0.0870 -3.6603
  424MOL0     H58447   1.393  -0.126  -0.169  3.0685 -0.9494  1.1658
  424MOL0     H58448   1.313  -0.178  -0.028  0.1368 -0.6101 -0.3639
  424MOL0     H58449   1.263   0.032   0.058 -0.9508 -2.0714 -0.9558
  424MOL0     H58450   1.353   0.116  -0.070 -2.2176  1.4339 -0.9448
  424MOL0     H58451   1.196   0.000  -0.244 -2.1492 -0.2333 -0.8116
  424MOL0     H58452   1.092  -0.024  -0.105 -2.2755  2.1195  0.7711
  424MOL0     H58453   1.194   0.245  -0.173  0.8065 -0.0220  0.2101
  424MOL0     H58454   1.065   0.208  -0.059  3.7818 -1.0082  1.7855
  424MOL0     H58455   0.951   0.282  -0.263  0.0673 -1.4163  2.5927
  424MOL0     H58456   1.068   0.207  -0.362  0.9211 -1.7945  0.5093
  424MOL0     H58457   0.963  -0.010  -0.286  1.7907  0.7322  0.7605
  424MOL0     H58458   0.856   0.107  -0.355 -0.8720  2.8253  0.8443
  424MOL0     H58459   0.870   0.055  -0.054 -1.9818 -1.4444  0.2505
  424MOL0     H58460   0.812   0.209  -0.123 -1.6448 -0.3593 -1.5209
  424MOL0     H58461   0.588   0.194  -0.282  1.5889  0.8004  2.4621
  424MOL0     H58462   0.333  -0.079  -0.381 -1.5268  0.0774  0.2548
  424MOL0     H58463   0.369   0.097  -0.398  3.7040 -1.4095 -1.3383
  424MOL0     H58464   0.169   0.049  -0.277 -0.7126 -0.8254  0.8146
  424MOL0     H58465   0.259  -0.068  -0.172  2.5373  1.1311 -0.4869
  424MOL0     H58466   0.354   0.112  -0.048  0.7778  2.9189 -0.8235
  424MOL0     H58467   0.332   0.230  -0.179 -0.6107  1.5198  1.6099
  424MOL0     H58468   0.095   0.218  -0.168 -0.3079  0.2872  0.5424
  424MOL0     H58469   0.092   0.128  -0.022 -2.7148  0.8150  0.4114
  424MOL0     H58470   0.349   0.472   0.116 -0.0435 -0.8003 -1.1975
  424MOL0     H58471   0.399   0.584   0.428 -1.4607 -2.5511  1.7718
  424MOL0     H58472   0.489   0.512   0.294 -0.8090  1.5863 -0.1644
  424MOL0     H58473   0.475   0.426   0.451  3.4973  2.5316  1.0906
  424MOL0     H58474  -0.062   0.555   0.688  1.1298  3.1428 -0.4970
  424MOL0     H58475  -0.110   0.576   0.929  0.5173 -0.3190  2.2673
  424MOL0     H58476   0.242   0.624   1.194  0.8114  1.7648  2.1791
  424MOL0     H58477   0.159   0.776   1.202  1.0579  0.6855 -1.0621
  424MOL0     H58478   0.006   0.565   1.334 -1.4571  0.7490  0.5279
  424MOL0     H58479   0.166   0.583   1.400  1.2065  1.3184 -0.1386
  424MOL0     H58480   0.136   0.779   1.494  0.3826 -3.3284  0.1135
  424MOL0     H58481  -0.027   0.714   1.511  1.1271  2.4101  1.9575
  424MOL0     H58482   0.042   0.923   1.300  2.7879 -2.8264 -1.1522
  424MOL0     H58483  -0.036   0.941   1.457  0.9305 -0.7977  0.8884
  424MOL0     H58484  -0.153   0.816   1.211 -0.4770 -0.8163 -0.1354
  424MOL0     H58485  -0.207   0.778   1.370  1.9841  0.7529  3.4316
  424MOL0     H58486  -0.178   1.066   1.238 -1.6226  1.3524  0.3758
  424MOL0     H58487  -0.228   1.052   1.406  3.6815 -1.7475  1.4842
  424MOL0     H58488  -0.437   0.940   1.323  0.2720  2.5059  1.4520
  424MOL0     H58489  -0.373   0.917   1.164  0.0317  1.0356  0.5639
  424MOL0     H58490  -0.522   1.117   1.153  0.5088 -0.1034 -1.8667
  424MOL0     H58491  -0.361   1.134   1.121  0.0923 -3.8499 -1.7186
  424MOL0     H58492   0.323   0.618   0.995 -0.7188 -0.1896  0.9337
  424MOL0     H58493   0.364   0.597   0.762  0.8336  0.6560  2.5238
  424MOL0     H58494   0.030   0.267   0.426 -0.7344 -1.2517 -0.2256
  424MOL0     H58495  -0.003   0.217   0.184  0.0254 -1.3394  1.4387
  424MOL0     H58496   1.759   0.179  -0.155 -0.1214 -1.8128 -1.3122
  424MOL0     H58497   2.007   0.202  -0.085 -2.6190  1.7292 -0.2604
  424MOL0     H58498   2.293   0.108   0.394 -1.3085 -0.2736 -0.4554
  424MOL0     H58499   2.532   0.069   0.455  0.0684 -1.4811 -0.2584
  424MOL0     H58500   2.846   0.028   0.437 -1.3461  2.0661  0.0905
  424MOL0     H58501   2.700  -0.077   0.454  2.0694 -3.5154  0.7243
  424MOL0     H58502   2.892  -0.240   0.433  0.0630  0.0543  0.7475
  424MOL0     H58503   2.954  -0.141   0.298  0.9787 -2.6330  0.1005
  424MOL0     H58504   2.674  -0.264   0.281 -1.9786 -1.3123 -3.2724
  424MOL0     H58505   2.791  -0.232   0.150 -3.0723 -0.8794 -0.0732
  424MOL0     H58506   2.799  -0.447   0.384  1.4055  0.3106 -0.3496
  424MOL0     H58507   2.938  -0.432   0.284  0.9343 -0.0347  0.4473
  424MOL0     H58508   2.714  -0.660   0.027 -2.2066  2.3565 -2.2355
  424MOL0     H58509   2.637   0.012   0.065 -3.3709 -3.7065 -2.1729
  424MOL0     H58510   2.319   0.089  -0.112  1.3978  1.4582 -2.6113
  424MOL0     H58511   2.473   0.151  -0.108  2.0686 -0.4040  1.1230
  424MOL0     H58512   2.456  -0.031  -0.102 -2.6269 -1.6589  1.5483
  425MOL0     O58513   0.512   2.375   9.810  0.2450 -0.0702  0.3332
  425MOL0     C58514   0.594   2.462   9.844 -0.3904 -0.7116  0.7757
  425MOL0     O58515   0.560   2.580   9.902 -0.9962  0.8621  0.3368
  425MOL0     C58516   0.427   2.600   9.914  0.0939  0.4568  0.1386
  425MOL0     C58517   0.357   2.568  10.039  0.9981 -0.3949  0.8764
  425MOL0     C58518   0.220   2.601  10.038  0.5589  0.2203 -1.1342
  425MOL0     C58519   0.155   2.656   9.934  0.5999  0.1222 -0.3988
  425MOL0     O58520   0.024   2.693   9.956  0.4060  0.9457  0.0152
  425MOL0     C58521  -0.044   2.766   9.852 -0.4345  0.1260 -0.2844
  425MOL0     C58522  -0.096   2.679   9.731 -0.7326  0.7464 -0.2185
  425MOL0     C58523  -0.199   2.766   9.652 -0.3883 -0.7771 -0.8861
  425MOL0     C58524  -0.343   2.776   9.712  0.1106 -0.3521 -0.0035
  425MOL0     C58525  -0.449   2.860   9.629  0.3673  0.1943 -0.1419
  425MOL0     C58526  -0.442   3.006   9.667  0.1796 -0.0425  0.5915
  425MOL0     C58527  -0.559   3.083   9.599 -0.0071  0.7407 -0.0744
  425MOL0     C58528  -0.566   3.224   9.642 -0.3719  0.0107 -0.5847
  425MOL0     N58529  -0.697   3.287   9.609  0.2304  0.3512 -0.1061
  425MOL0     C58530  -0.712   3.383   9.513  0.3635 -0.7871 -0.5843
  425MOL0     C58531  -0.836   3.438   9.544  0.1716  0.0605  0.5364
  425MOL0     C58532  -0.894   3.555   9.471 -0.0095 -0.5746  0.0875
  425MOL0     C58533  -0.855   3.667   9.570  0.9114 -0.0181  0.5587
  425MOL0     C58534  -0.946   3.787   9.549  0.2328  0.3477 -0.1215
  425MOL0     C58535  -0.889   3.894   9.458  0.5859 -0.2628 -0.1508
  425MOL0     O58536  -0.919   3.887   9.311  0.6548 -0.5497 -0.7740
  425MOL0     C58537  -0.811   3.922   9.233 -0.3945  0.9833 -0.0292
  425MOL0     C58538  -0.765   3.836   9.127  0.0711 -0.5122 -0.3717
  425MOL0     C58539  -0.644   3.863   9.047  0.1245 -0.4879 -0.1227
  425MOL0     C58540  -0.610   3.766   8.940 -0.2261  0.0231  1.0024
  425MOL0     C58541  -0.582   3.987   9.066  0.2149  0.4547 -0.4180
  425MOL0     C58542  -0.462   4.022   8.982 -0.1056  0.7475 -0.0465
  425MOL0     O58543  -0.372   3.925   8.951 -0.2067  1.2225 -0.3175
  425MOL0     C58544  -0.274   3.969   8.868  0.1075 -0.0943  0.2547
  425MOL0     C58545  -0.273   3.927   8.734  0.5145  0.9468  0.1699
  425MOL0     C58546  -0.169   3.950   8.646 -0.0575  0.3705  0.4076
  425MOL0     C58547  -0.066   4.040   8.687 -0.2210 -0.1160 -0.3157
  425MOL0     O58548   0.028   4.078   8.599 -0.0326  0.5738 -0.2648
  425MOL0     C58549  -0.022   4.153   8.481  0.3569  0.7595 -1.5876
  425MOL0     C58550   0.093   4.191   8.396 -0.5994  0.2076  0.1913
  425MOL0     C58551   0.168   4.067   8.343 -0.0988  0.2571  0.0758
  425MOL0     C58552   0.277   4.099   8.244 -0.7361 -0.3637 -0.8310
  425MOL0     C58553   0.400   4.168   8.319  0.1744 -0.3428  0.9016
  425MOL0     C58554   0.503   4.243   8.225 -0.2145 -0.1706 -0.6989
  425MOL0     C58555   0.636   4.274   8.283 -0.0370  0.3857 -0.0765
  425MOL0     C58556   0.730   4.358   8.183  0.8939  0.3974 -0.1400
  425MOL0    Cl58557   0.694   4.530   8.177  0.2375 -0.1398 -0.1893
  425MOL0     C58558  -0.071   4.101   8.817 -0.0342 -0.0531 -0.1362
  425MOL0     C58559  -0.163   4.044   8.914  0.0110 -0.1584 -0.7942
  425MOL0     O58560  -0.468   4.139   8.943 -0.1128 -0.2849 -0.3665
  425MOL0     C58561  -0.628   4.080   9.162  0.1709  1.4752 -0.0722
  425MOL0     C58562  -0.745   4.049   9.244  0.5297  0.5463  0.4657
  425MOL0     N58563  -0.899   3.361   9.650 -1.3739  0.2407  0.6860
  425MOL0     N58564  -0.798   3.285   9.694  0.3885 -0.6508  0.3791
  425MOL0     C58565   0.229   2.688   9.819 -0.3480  0.5883 -0.1934
  425MOL0     C58566   0.360   2.669   9.809  0.1399 -0.0849  0.0319
  425MOL0     C58567   0.741   2.441   9.800 -1.1065  0.3642  0.4684
  425MOL0     C58568   0.765   2.371   9.688  0.7295  0.8949 -0.0928
  425MOL0     C58569   0.892   2.336   9.651  0.4927  0.0704 -0.3590
  425MOL0     C58570   1.003   2.384   9.721 -0.0725  0.0357  0.0728
  425MOL0     O58571   1.137   2.357   9.684 -0.0289 -0.9199  0.1306
  425MOL0     C58572   1.152   2.214   9.672 -0.5523  0.0599  0.1444
  425MOL0     C58573   1.279   2.193   9.585 -0.5068  0.3140  0.8739
  425MOL0     C58574   1.400   2.276   9.630 -0.1095 -0.4655 -0.1467
  425MOL0     C58575   1.427   2.281   9.778 -0.4454  0.0755 -1.4179
  425MOL0     C58576   1.567   2.322   9.809  0.1152 -0.4047  0.2650
  425MOL0     C58577   1.677   2.360   9.843 -0.2204 -0.0597 -0.2058
  425MOL0     C58578   0.981   2.466   9.828  0.7871  0.9281 -0.6804
  425MOL0     C58579   0.852   2.495   9.862 -0.3009  0.0557 -1.0030
  425MOL0     C58580   0.834   2.580   9.984 -0.0948 -0.5907  0.2428
  425MOL0     H58581   0.422   2.521  10.111  1.8252  0.3754  0.6513
  425MOL0     H58582   0.161   2.577  10.126  0.0561  1.1337 -1.2179
  425MOL0     H58583   0.030   2.838   9.814  1.8019 -1.4704  0.8360
  425MOL0     H58584  -0.126   2.819   9.902 -0.3107  0.0755 -0.0288
  425MOL0     H58585  -0.007   2.660   9.670 -0.5245  3.2039 -0.8194
  425MOL0     H58586  -0.129   2.581   9.767  1.8714 -0.1255 -0.0021
  425MOL0     H58587  -0.150   2.859   9.625  1.2671 -0.9080  1.4027
  425MOL0     H58588  -0.213   2.709   9.560 -2.2961 -0.5450 -0.7934
  425MOL0     H58589  -0.376   2.673   9.728 -2.2285  0.7409  3.2655
  425MOL0     H58590  -0.340   2.809   9.816 -0.9392 -1.4442  0.3905
  425MOL0     H58591  -0.549   2.827   9.658  0.1547 -0.0964 -1.1511
  425MOL0     H58592  -0.430   2.832   9.525 -0.6935 -4.2633  0.6154
  425MOL0     H58593  -0.455   3.024   9.775  0.8079  0.8444  0.5282
  425MOL0     H58594  -0.345   3.053   9.645  1.5386 -0.6497  4.3751
  425MOL0     H58595  -0.661   3.052   9.625 -0.4476  1.1331 -1.2867
  425MOL0     H58596  -0.546   3.074   9.491  0.5551 -2.4492  0.1703
  425MOL0     H58597  -0.549   3.221   9.751  1.2307 -0.5717 -0.8244
  425MOL0     H58598  -0.485   3.287   9.604 -2.0972  3.0133  0.4299
  425MOL0     H58599  -0.641   3.411   9.437  0.4577 -1.2496 -0.6700
  425MOL0     H58600  -1.002   3.548   9.455  0.0628 -2.1807  0.2074
  425MOL0     H58601  -0.856   3.573   9.370 -2.0955  0.6753 -0.5531
  425MOL0     H58602  -0.859   3.636   9.675 -2.9006 -2.3641 -0.0683
  425MOL0     H58603  -0.749   3.689   9.555  1.1122  0.3957  2.3377
  425MOL0     H58604  -1.042   3.760   9.505  0.8384 -0.6374 -0.8698
  425MOL0     H58605  -0.955   3.828   9.650 -0.8517  1.4928 -0.6522
  425MOL0     H58606  -0.933   3.989   9.489 -1.2140 -1.6244  1.7597
  425MOL0     H58607  -0.781   3.885   9.473  0.8221 -0.6938 -1.8999
  425MOL0     H58608  -0.831   3.750   9.119 -2.3002  0.6619  3.6122
  425MOL0     H58609  -0.687   3.691   8.921  1.7254 -1.6400 -0.8175
  425MOL0     H58610  -0.525   3.710   8.980 -1.3358 -1.3226  1.5642
  425MOL0     H58611  -0.595   3.810   8.841 -0.2700  1.6494  1.6822
  425MOL0     H58612  -0.360   3.876   8.694 -0.5388  1.4967  1.6600
  425MOL0     H58613  -0.157   3.904   8.548 -0.1773 -1.4702  1.2193
  425MOL0     H58614  -0.093   4.088   8.428  0.9302  0.6542 -2.2464
  425MOL0     H58615  -0.086   4.239   8.505 -1.6601 -1.4151  1.6011
  425MOL0     H58616   0.054   4.247   8.311  1.5995  2.3938  0.5277
  425MOL0     H58617   0.155   4.250   8.464  2.4053 -2.6200  0.1900
  425MOL0     H58618   0.099   4.006   8.284  0.5804  1.6387 -2.3322
  425MOL0     H58619   0.205   4.012   8.429 -0.2030 -2.4145 -1.4808
  425MOL0     H58620   0.227   4.163   8.172 -3.2323 -2.6218 -1.2431
  425MOL0     H58621   0.330   4.017   8.195 -0.9050  0.4157 -2.3677
  425MOL0     H58622   0.369   4.241   8.394 -2.9161 -0.1526 -0.4299
  425MOL0     H58623   0.444   4.087   8.378 -1.1080 -0.9318  1.0676
  425MOL0     H58624   0.456   4.332   8.182 -1.2313 -0.0601  0.5986
  425MOL0     H58625   0.527   4.179   8.140 -0.8501  2.1339 -2.7251
  425MOL0     H58626   0.686   4.179   8.302  1.8525  1.8757  3.3713
  425MOL0     H58627   0.614   4.324   8.378  2.0874 -1.8022  1.7185
  425MOL0     H58628   0.718   4.317   8.082 -2.3103  0.2088  0.2261
  425MOL0     H58629   0.837   4.357   8.207  0.8755 -0.0712 -0.0695
  425MOL0     H58630  -0.012   4.185   8.851  2.0963 -2.0883  1.5656
  425MOL0     H58631  -0.170   4.093   9.011 -2.4156 -0.8551 -0.5606
  425MOL0     H58632  -0.591   4.182   9.176 -2.0829  1.8922  5.5052
  425MOL0     H58633  -0.783   4.135   9.298 -0.2280  0.1489  0.5794
  425MOL0     H58634   0.187   2.735   9.731 -2.8226 -4.5465 -2.1578
  425MOL0     H58635   0.399   2.698   9.713  0.1243  0.7141  0.2580
  425MOL0     H58636   0.687   2.338   9.620 -0.4918  0.1905  1.5773
  425MOL0     H58637   0.892   2.268   9.566 -2.3232  1.3862 -1.5785
  425MOL0     H58638   1.165   2.167   9.770 -0.8220  0.2409  0.2684
  425MOL0     H58639   1.074   2.156   9.621  1.0173 -1.6687 -0.4140
  425MOL0     H58640   1.247   2.230   9.487  2.5702 -0.0238 -0.3593
  425MOL0     H58641   1.297   2.085   9.580 -0.4061  0.3688 -0.1723
  425MOL0     H58642   1.484   2.239   9.572  1.7843  1.2710  1.3360
  425MOL0     H58643   1.373   2.376   9.596  0.3656 -0.6842 -1.1977
  425MOL0     H58644   1.420   2.179   9.818 -1.7304  0.9460  0.7382
  425MOL0     H58645   1.355   2.344   9.831 -0.3016 -0.9166  0.0219
  425MOL0     H58646   1.770   2.408   9.865  0.4519 -0.8052 -1.3452
  425MOL0     H58647   1.063   2.521   9.873  0.0810  2.5524 -1.2766
  425MOL0     H58648   0.922   2.591  10.049 -0.1352 -1.1831  0.3992
  425MOL0     H58649   0.821   2.681   9.944 -3.3561 -2.2491 -3.4943
  425MOL0     H58650   0.756   2.552  10.055  0.9768  0.9391  2.1317
  426MOL0     O58651   4.148   8.158   1.092 -0.4940 -0.7852 -0.0006
  426MOL0     C58652   4.094   8.098   1.185  0.4901  0.3739  0.3521
  426MOL0     O58653   3.957   8.061   1.183 -0.3455  0.0571  0.2502
  426MOL0     C58654   3.882   8.076   1.070  0.4746  0.3411 -0.3171
  426MOL0     C58655   3.832   8.201   1.040 -0.1436 -0.0823  0.0698
  426MOL0     C58656   3.740   8.216   0.947  0.0154 -0.3156 -0.8089
  426MOL0     C58657   3.700   8.118   0.857 -0.3827  0.3178  0.0878
  426MOL0     O58658   3.594   8.150   0.776 -0.7098 -0.6426  0.2966
  426MOL0     C58659   3.579   8.084   0.648  0.4034  0.1559 -0.7888
  426MOL0     C58660   3.708   8.127   0.572 -0.4131  0.4050  0.0448
  426MOL0     C58661   3.704   8.083   0.426  0.7626 -0.5791 -0.2207
  426MOL0     C58662   3.826   8.128   0.349  0.0027 -0.3045 -0.7481
  426MOL0     C58663   3.823   8.094   0.196 -0.5308 -0.7197  0.2295
  426MOL0     C58664   3.690   8.139   0.126  0.0978  0.5663 -0.3520
  426MOL0     C58665   3.683   8.127  -0.027  0.0769 -0.3448  0.3771
  426MOL0     C58666   3.604   8.007  -0.079  0.4795 -0.5013 -0.2774
  426MOL0     N58667   3.608   7.985  -0.226 -0.0074 -0.7421  0.2155
  426MOL0     C58668   3.531   8.055  -0.311  0.5007 -0.4677  0.6525
  426MOL0     C58669   3.571   8.029  -0.435 -0.0505  0.1118 -0.1945
  426MOL0     C58670   3.485   8.053  -0.552 -0.0029  0.5020 -0.4052
  426MOL0     C58671   3.393   7.941  -0.589 -1.5191  0.0118 -0.2266
  426MOL0     C58672   3.277   7.993  -0.685 -0.2422 -0.1409 -0.5811
  426MOL0     C58673   3.208   7.885  -0.761 -0.0151 -0.3344  0.4427
  426MOL0     O58674   3.099   7.931  -0.847 -0.3789  0.5984  0.3569
  426MOL0     C58675   3.019   7.830  -0.908 -0.9310  0.1040 -0.1365
  426MOL0     C58676   2.888   7.856  -0.941 -0.4008  0.3548 -0.1339
  426MOL0     C58677   2.805   7.753  -0.982  0.4620  0.3771 -0.2259
  426MOL0     C58678   2.661   7.789  -0.997  0.4647 -0.8137  0.3013
  426MOL0     C58679   2.853   7.627  -1.018 -0.2776 -0.3572 -0.0055
  426MOL0     C58680   2.768   7.514  -1.063 -0.1194  1.4258 -0.3540
  426MOL0     O58681   2.842   7.417  -1.130 -0.0675  0.3551  0.4050
  426MOL0     C58682   2.767   7.322  -1.186  0.3583 -0.2143 -0.6017
  426MOL0     C58683   2.717   7.333  -1.321 -0.3607  0.8216 -0.1118
  426MOL0     C58684   2.651   7.226  -1.384 -0.4088  0.1430 -0.0401
  426MOL0     C58685   2.618   7.116  -1.305  0.2989  0.0341 -0.2767
  426MOL0     O58686   2.534   7.020  -1.360 -0.2701 -0.1623 -0.6361
  426MOL0     C58687   2.415   6.996  -1.279  0.5322  0.8439  0.2719
  426MOL0     C58688   2.393   6.847  -1.265 -0.5564 -0.5912 -0.5451
  426MOL0     C58689   2.442   6.758  -1.378 -0.1761 -0.1143 -1.3715
  426MOL0     C58690   2.353   6.785  -1.497 -1.0999 -1.0750  0.4216
  426MOL0     C58691   2.393   6.688  -1.612  0.1816  0.6500 -0.9197
  426MOL0     C58692   2.294   6.706  -1.724 -0.2742  0.7509  0.1360
  426MOL0     C58693   2.173   6.630  -1.676  0.4468  0.0569 -1.0094
  426MOL0     C58694   2.079   6.608  -1.801  0.3606  0.5358 -0.0241
  426MOL0    Cl58695   1.983   6.759  -1.855  0.2415  0.3131 -0.3266
  426MOL0     C58696   2.671   7.096  -1.177  0.1832 -0.5700  0.1744
  426MOL0     C58697   2.750   7.199  -1.119 -0.2011  0.8957  0.7639
  426MOL0     O58698   2.643   7.505  -1.038  0.4532 -0.1736 -0.4116
  426MOL0     C58699   2.992   7.610  -0.997  0.2246  1.1182 -1.3958
  426MOL0     C58700   3.065   7.702  -0.938  0.4454 -0.1714 -0.5026
  426MOL0     N58701   3.688   7.952  -0.426  0.0468  0.6882  0.4584
  426MOL0     N58702   3.705   7.936  -0.298 -0.5256  0.9784  0.3322
  426MOL0     C58703   3.754   7.990   0.890  0.4978 -0.3666  0.1672
  426MOL0     C58704   3.842   7.962   0.994 -0.4589 -0.3241 -0.0534
  426MOL0     C58705   4.184   8.062   1.304 -0.2611 -0.2987 -0.7553
  426MOL0     C58706   4.133   7.954   1.375  0.6217  0.6605 -1.0901
  426MOL0     C58707   4.199   7.885   1.483  0.4277 -0.8238  0.0737
  426MOL0     C58708   4.328   7.926   1.516 -0.2239 -0.3871 -0.2382
  426MOL0     O58709   4.407   7.872   1.612 -0.3660 -0.6189 -0.3680
  426MOL0     C58710   4.371   7.741   1.654  0.1033  0.8952 -0.7274
  426MOL0     C58711   4.463   7.682   1.761 -0.9563  0.7187 -0.8990
  426MOL0     C58712   4.612   7.692   1.719 -0.1431  0.8714 -0.0494
  426MOL0     C58713   4.691   7.611   1.819  0.2291  0.4735  0.4260
  426MOL0     C58714   4.706   7.680   1.946  1.1740 -0.2632 -0.1333
  426MOL0     C58715   4.720   7.725   2.063 -0.7602 -0.3687  0.1951
  426MOL0     C58716   4.378   8.033   1.453 -0.9692 -0.6497 -0.0872
  426MOL0     C58717   4.316   8.104   1.344  0.3256 -0.4117 -0.4949
  426MOL0     C58718   4.398   8.207   1.279  0.4282 -0.0594 -0.5714
  426MOL0     H58719   3.871   8.285   1.095  2.1675  0.4767 -2.2155
  426MOL0     H58720   3.690   8.313   0.944  0.3541 -0.1411 -0.7719
  426MOL0     H58721   3.490   8.122   0.596  1.7801  1.6222 -2.1627
  426MOL0     H58722   3.572   7.976   0.667 -1.3850  0.3977  0.1129
  426MOL0     H58723   3.719   8.234   0.591 -4.5749  1.0257 -0.2408
  426MOL0     H58724   3.795   8.073   0.612  0.1571  0.7539 -0.6986
  426MOL0     H58725   3.693   7.976   0.439 -0.5296 -0.2796  1.3996
  426MOL0     H58726   3.608   8.117   0.385 -0.3763 -4.0948 -0.7883
  426MOL0     H58727   3.832   8.236   0.364 -0.5932 -0.3088 -0.4725
  426MOL0     H58728   3.913   8.070   0.381 -0.4448 -2.3401 -2.8897
  426MOL0     H58729   3.837   7.986   0.186 -0.7043 -1.4556  5.5100
  426MOL0     H58730   3.906   8.149   0.149  1.0748 -2.7750  0.5252
  426MOL0     H58731   3.606   8.080   0.164  0.5431  0.8524  1.1434
  426MOL0     H58732   3.675   8.244   0.152 -1.0651  1.1006 -2.9114
  426MOL0     H58733   3.784   8.137  -0.068 -0.4607  0.8061 -0.7554
  426MOL0     H58734   3.628   8.216  -0.062 -0.8797 -1.2204 -0.4211
  426MOL0     H58735   3.645   7.918  -0.030  1.0340 -0.7719 -1.1852
  426MOL0     H58736   3.498   8.016  -0.054  0.4424 -1.4461 -0.0596
  426MOL0     H58737   3.438   8.107  -0.290  1.2485  1.6064 -0.8232
  426MOL0     H58738   3.558   8.058  -0.634  0.3060  0.3082 -0.1463
  426MOL0     H58739   3.433   8.149  -0.544  0.0843  0.4379  1.2797
  426MOL0     H58740   3.453   7.869  -0.644 -0.9162  0.7104 -0.4934
  426MOL0     H58741   3.359   7.883  -0.503 -0.2038 -0.8641 -0.2794
  426MOL0     H58742   3.198   8.035  -0.623 -0.7597 -0.1682 -1.2091
  426MOL0     H58743   3.322   8.067  -0.752  0.7177  1.4282  1.6744
  426MOL0     H58744   3.286   7.849  -0.829  0.1016 -3.2886  1.9946
  426MOL0     H58745   3.183   7.805  -0.692  1.6576 -0.6290  0.7505
  426MOL0     H58746   2.844   7.954  -0.925 -1.2822 -0.2029  1.0308
  426MOL0     H58747   2.638   7.773  -1.103 -1.1281 -1.0318  0.6550
  426MOL0     H58748   2.652   7.894  -0.970  2.0315 -0.5732  0.0001
  426MOL0     H58749   2.605   7.728  -0.926 -1.8018  0.4604 -0.2994
  426MOL0     H58750   2.732   7.430  -1.368 -2.0456  1.7697  1.1717
  426MOL0     H58751   2.614   7.223  -1.486  0.7238 -1.1171 -0.4474
  426MOL0     H58752   2.421   7.036  -1.177 -1.3827  3.4967 -0.5447
  426MOL0     H58753   2.328   7.036  -1.331  0.3340 -0.0535 -0.1042
  426MOL0     H58754   2.453   6.817  -1.178  0.9109 -1.3951 -1.7888
  426MOL0     H58755   2.295   6.827  -1.221  0.1162 -0.3499  1.1706
  426MOL0     H58756   2.433   6.653  -1.352 -0.9997 -0.0648 -1.4104
  426MOL0     H58757   2.544   6.789  -1.403 -0.3679 -0.5425 -2.7736
  426MOL0     H58758   2.338   6.889  -1.526 -1.9293 -1.3160 -0.0664
  426MOL0     H58759   2.257   6.751  -1.456 -0.6308  0.0202  2.5770
  426MOL0     H58760   2.494   6.718  -1.641  1.2518 -0.2612  1.5866
  426MOL0     H58761   2.405   6.585  -1.579  1.2888  0.6264 -1.3624
  426MOL0     H58762   2.332   6.663  -1.817 -0.9007 -2.5357  1.2660
  426MOL0     H58763   2.257   6.809  -1.726 -1.7761  0.2539  0.7177
  426MOL0     H58764   2.128   6.676  -1.588  4.2379 -1.8169  2.2600
  426MOL0     H58765   2.197   6.529  -1.644  1.9969  0.1074 -1.9041
  426MOL0     H58766   2.007   6.527  -1.784 -0.2691  0.4028 -2.8129
  426MOL0     H58767   2.134   6.562  -1.884  0.2086 -0.0612  0.1998
  426MOL0     H58768   2.638   7.003  -1.130 -2.8190  0.0256 -0.5544
  426MOL0     H58769   2.800   7.192  -1.023  3.3372 -0.9902 -1.0336
  426MOL0     H58770   3.034   7.514  -1.025 -1.1866  0.2015 -0.5070
  426MOL0     H58771   3.172   7.686  -0.928  0.5879  0.5374 -0.7722
  426MOL0     H58772   3.717   7.910   0.827  3.1859 -0.0877 -1.9525
  426MOL0     H58773   3.894   7.869   1.012  1.6593  1.0033  1.1550
  426MOL0     H58774   4.031   7.927   1.349 -0.7802  3.7575  0.5340
  426MOL0     H58775   4.151   7.800   1.530  1.8881 -2.2658 -0.9006
  426MOL0     H58776   4.269   7.740   1.694  0.8760  1.2874  1.3959
  426MOL0     H58777   4.377   7.680   1.564 -2.1188 -0.2297 -0.1862
  426MOL0     H58778   4.447   7.574   1.764  3.7245 -0.1554  0.4723
  426MOL0     H58779   4.437   7.724   1.859  0.8478 -2.1037  0.9510
  426MOL0     H58780   4.628   7.630   1.631  1.7961 -2.1904  2.2660
  426MOL0     H58781   4.650   7.795   1.715  0.6808  0.6819  1.8707
  426MOL0     H58782   4.794   7.604   1.784  1.4222  2.9411  3.1185
  426MOL0     H58783   4.651   7.511   1.841 -0.1268  0.4920 -0.0951
  426MOL0     H58784   4.741   7.763   2.161  1.7694  0.1367 -0.4678
  426MOL0     H58785   4.481   8.062   1.472 -0.9025 -0.8334 -0.1679
  426MOL0     H58786   4.463   8.149   1.214 -0.7189  0.1928 -1.9934
  426MOL0     H58787   4.344   8.279   1.215  0.3430 -0.9209 -1.4875
  426MOL0     H58788   4.461   8.263   1.349  0.3656 -1.9157  1.0560
  427MOL0     O58789   1.320   9.334  10.264 -0.2857 -0.3549  0.2727
  427MOL0     C58790   1.231   9.265  10.222 -0.4813  0.0917 -0.3599
  427MOL0     O58791   1.210   9.235  10.097  0.0896  0.5879  0.0685
  427MOL0     C58792   1.313   9.255  10.012 -0.3066 -1.1361 -0.6610
  427MOL0     C58793   1.421   9.169   9.998 -0.5046 -0.9968 -0.0323
  427MOL0     C58794   1.517   9.189   9.900 -0.4351  0.4914 -0.3510
  427MOL0     C58795   1.492   9.289   9.803  0.1642 -0.3858 -0.0859
  427MOL0     O58796   1.580   9.298   9.700  0.5126  0.5284 -0.1788
  427MOL0     C58797   1.571   9.413   9.611 -0.2006  0.6512  0.6845
  427MOL0     C58798   1.503   9.377   9.482  0.9101 -0.0682  0.2381
  427MOL0     C58799   1.457   9.244   9.426  0.7614 -0.4717 -0.8401
  427MOL0     C58800   1.401   9.255   9.292  0.1798 -0.0066  0.6053
  427MOL0     C58801   1.387   9.127   9.212  0.9028 -0.7193 -1.1614
  427MOL0     C58802   1.313   9.016   9.280 -0.5237 -0.0718  0.5124
  427MOL0     C58803   1.274   8.889   9.191  0.2455 -0.6773  0.2359
  427MOL0     C58804   1.201   8.786   9.283  0.2730  0.5286  0.3281
  427MOL0     N58805   1.072   8.818   9.331  0.0103  0.3484 -0.5969
  427MOL0     C58806   0.989   8.931   9.295 -1.3615  0.2266  0.1210
  427MOL0     C58807   0.901   8.935   9.403  0.2542 -0.6931 -0.6878
  427MOL0     C58808   0.801   9.051   9.429  0.4771  0.7061 -0.3701
  427MOL0     C58809   0.770   9.056   9.586  0.7745  0.2316  0.5475
  427MOL0     C58810   0.712   9.188   9.622 -0.0289 -0.1679  0.5007
  427MOL0     C58811   0.692   9.205   9.769 -0.5412 -0.0184  0.4826
  427MOL0     O58812   0.826   9.235   9.824 -0.1905 -1.2920  0.1115
  427MOL0     C58813   0.828   9.299   9.945  0.1607  0.0748 -0.1873
  427MOL0     C58814   0.898   9.419   9.969  0.8137  0.9528  0.0612
  427MOL0     C58815   0.892   9.495  10.091 -0.2667 -0.5845  0.2152
  427MOL0     C58816   0.951   9.636  10.091 -0.1053  0.7924  0.4437
  427MOL0     C58817   0.846   9.436  10.211  0.8217  0.6673  0.5347
  427MOL0     C58818   0.845   9.479  10.346 -0.5790 -0.6928  0.5842
  427MOL0     O58819   0.867   9.621  10.365  0.0350  0.6458 -0.4816
  427MOL0     C58820   0.887   9.667  10.495  0.0491  0.0011 -0.3326
  427MOL0     C58821   1.003   9.710  10.543  0.9958 -0.0600 -0.6574
  427MOL0     C58822   1.030   9.773  10.663  1.0109 -0.6555 -0.2418
  427MOL0     C58823   0.921   9.794  10.751 -0.0216 -0.3855 -0.3641
  427MOL0     O58824   0.948   9.850  10.867  0.8436 -0.2077 -0.9796
  427MOL0     C58825   0.905   9.779  10.986  0.4316 -0.3351  0.8376
  427MOL0     C58826   0.935   9.870  11.091 -0.0611 -0.8487  0.6312
  427MOL0     C58827   1.081   9.870  11.123 -0.2415  0.6721 -0.1323
  427MOL0     C58828   1.139  10.001  11.093  0.0554 -1.3173  0.1590
  427MOL0     C58829   1.292  10.014  11.101 -0.1192 -0.2719  0.2719
  427MOL0     C58830   1.335  10.164  11.105 -0.7598  0.1353 -0.1096
  427MOL0     C58831   1.498  10.162  11.111  1.5257  0.3989 -0.6584
  427MOL0     C58832   1.546  10.268  11.205 -0.0849 -0.8824  0.3928
  427MOL0    Cl58833   1.476  10.445  11.203  0.1008 -0.0608 -0.0623
  427MOL0     C58834   0.796   9.749  10.707  0.3252 -0.3401 -0.6896
  427MOL0     C58835   0.780   9.686  10.581  0.3195 -0.1326  0.2187
  427MOL0     O58836   0.828   9.395  10.432 -1.0616  0.1451 -0.6342
  427MOL0     C58837   0.794   9.298  10.192  0.4625 -0.2277  0.0871
  427MOL0     C58838   0.789   9.232  10.066  0.2702  0.2678 -0.7628
  427MOL0     N58839   0.909   8.813   9.468  0.1683 -0.3274  0.5919
  427MOL0     N58840   1.015   8.752   9.430 -0.3997  0.3647  0.1432
  427MOL0     C58841   1.382   9.384   9.818  0.0504  0.0154 -0.0208
  427MOL0     C58842   1.294   9.359   9.923  0.0935 -0.8260 -0.6206
  427MOL0     C58843   1.153   9.192  10.327  0.3231  0.0252 -0.1233
  427MOL0     C58844   1.093   9.066  10.293 -0.0448  0.6662 -0.5609
  427MOL0     C58845   1.031   8.998  10.388 -0.4426 -0.8045  0.7011
  427MOL0     C58846   0.993   9.046  10.512  0.1799  0.8286 -0.4488
  427MOL0     O58847   0.907   8.975  10.590 -0.4048 -0.3702 -0.0809
  427MOL0     C58848   0.917   8.980  10.729 -0.4415  0.0078 -0.9299
  427MOL0     C58849   1.048   8.959  10.806 -0.3258 -0.2812 -0.1529
  427MOL0     C58850   1.110   8.831  10.761  0.6241  0.4209  0.2041
  427MOL0     C58851   1.029   8.701  10.813 -0.6454 -1.2349  0.3479
  427MOL0     C58852   0.995   8.704  10.951  0.4324  0.4003  0.0816
  427MOL0     C58853   0.976   8.702  11.071  0.2432 -0.0968 -0.6648
  427MOL0     C58854   1.032   9.176  10.538 -0.3175 -0.0683  0.0688
  427MOL0     C58855   1.121   9.251  10.453 -0.2383 -0.0987 -1.2859
  427MOL0     C58856   1.168   9.388  10.487 -0.0639  0.1775  0.3053
  427MOL0     H58857   1.418   9.076  10.055  0.8889  0.3236  2.3514
  427MOL0     H58858   1.591   9.114   9.873 -1.9774 -1.3829  0.3781
  427MOL0     H58859   1.674   9.442   9.585  1.1284 -3.0627  1.0857
  427MOL0     H58860   1.530   9.507   9.648  0.8782  0.9707  1.1316
  427MOL0     H58861   1.419   9.448   9.482  0.5174 -0.4998  1.6688
  427MOL0     H58862   1.580   9.405   9.410  2.5876 -2.0420  1.1755
  427MOL0     H58863   1.545   9.180   9.419  1.1546 -0.1597  0.7243
  427MOL0     H58864   1.374   9.203   9.485  1.6484  1.9219  2.3857
  427MOL0     H58865   1.307   9.311   9.293 -1.3561 -2.3903 -0.6778
  427MOL0     H58866   1.467   9.322   9.235  0.9690 -0.9773  0.3564
  427MOL0     H58867   1.486   9.082   9.201  1.2766 -0.5270  0.9649
  427MOL0     H58868   1.350   9.150   9.112  2.1230  0.1194 -1.4410
  427MOL0     H58869   1.388   8.992   9.357  3.4551  0.9692 -2.7018
  427MOL0     H58870   1.226   9.049   9.337 -1.8460 -1.5861 -0.5593
  427MOL0     H58871   1.366   8.837   9.166 -1.2624 -3.0050 -0.7737
  427MOL0     H58872   1.211   8.917   9.106  0.1889  1.4638  0.9177
  427MOL0     H58873   1.188   8.698   9.218 -0.5067 -0.3215  1.6051
  427MOL0     H58874   1.257   8.751   9.370 -1.0703 -1.3718  0.4813
  427MOL0     H58875   1.013   8.991   9.208  4.3063 -3.2254 -1.2789
  427MOL0     H58876   0.714   9.034   9.365 -0.6652  0.6873  1.1279
  427MOL0     H58877   0.857   9.142   9.405  1.4294  0.7499  1.7887
  427MOL0     H58878   0.691   8.985   9.613 -1.5073  2.0661 -0.8901
  427MOL0     H58879   0.856   9.024   9.646  1.4590 -0.5639 -0.7995
  427MOL0     H58880   0.759   9.282   9.591 -0.3585 -0.1015  0.1990
  427MOL0     H58881   0.611   9.188   9.580 -0.4802  0.6777  1.5427
  427MOL0     H58882   0.629   9.283   9.811 -0.6684  0.5504 -0.7228
  427MOL0     H58883   0.663   9.108   9.810  0.2188 -0.5484 -0.1853
  427MOL0     H58884   0.952   9.454   9.882 -0.4815 -2.7599 -2.5095
  427MOL0     H58885   1.050   9.638  10.138 -0.6508  2.0433  1.5951
  427MOL0     H58886   0.893   9.708  10.148 -1.9105 -1.9568  2.3405
  427MOL0     H58887   0.961   9.666   9.986  5.1605 -1.2236  0.0443
  427MOL0     H58888   1.086   9.691  10.475 -1.7475 -2.4373 -3.6985
  427MOL0     H58889   1.131   9.811  10.672  1.5563 -2.1740  0.3799
  427MOL0     H58890   0.797   9.769  10.974  0.3571  1.7361 -0.7717
  427MOL0     H58891   0.949   9.680  11.002  0.3608 -0.4682  0.2317
  427MOL0     H58892   0.899   9.971  11.073  1.3765  0.2920  3.5680
  427MOL0     H58893   0.873   9.839  11.176 -1.0121 -1.3005 -0.1977
  427MOL0     H58894   1.134   9.790  11.071  1.1610  1.5311 -0.0794
  427MOL0     H58895   1.090   9.845  11.229 -2.2559 -1.9578 -0.4832
  427MOL0     H58896   1.087  10.072  11.159  1.7098 -0.7470  0.9021
  427MOL0     H58897   1.102  10.028  10.993  0.0680 -2.4704 -0.1669
  427MOL0     H58898   1.338   9.968  11.189 -0.8462 -2.1654 -0.2915
  427MOL0     H58899   1.342   9.972  11.013  1.1322 -2.3475  1.8753
  427MOL0     H58900   1.286  10.208  11.192 -0.3464  3.1208 -1.2747
  427MOL0     H58901   1.310  10.220  11.015  1.7980 -1.2641 -1.7960
  427MOL0     H58902   1.544  10.169  11.013 -0.9743  1.8496 -1.8239
  427MOL0     H58903   1.541  10.068  11.147 -1.3075 -2.3870 -3.8050
  427MOL0     H58904   1.655  10.277  11.194 -0.0990 -0.4728  0.5592
  427MOL0     H58905   1.528  10.238  11.309 -0.6909 -0.9906  0.2563
  427MOL0     H58906   0.711   9.777  10.768 -0.4206  0.7984 -2.1839
  427MOL0     H58907   0.676   9.664  10.558 -0.5991  1.7412  2.2396
  427MOL0     H58908   0.761   9.239  10.276  0.3861  1.7934  1.5366
  427MOL0     H58909   0.755   9.130  10.057  0.0240 -0.0578  2.6376
  427MOL0     H58910   1.356   9.462   9.748 -0.7835 -0.9345 -0.7906
  427MOL0     H58911   1.213   9.429   9.940  2.2911  2.0259 -1.1869
  427MOL0     H58912   1.113   9.010  10.202  0.7438  0.2617 -0.1518
  427MOL0     H58913   1.011   8.894  10.363 -3.0222 -0.4128  0.8295
  427MOL0     H58914   0.874   9.073  10.768  2.5297  0.1026  2.6172
  427MOL0     H58915   0.849   8.905  10.768 -0.2133  0.3411  0.1549
  427MOL0     H58916   1.019   8.967  10.911 -3.0555 -3.6190 -0.4961
  427MOL0     H58917   1.114   9.041  10.775  0.6332 -1.0316 -0.1048
  427MOL0     H58918   1.100   8.839  10.652 -2.2329  2.5008  0.5056
  427MOL0     H58919   1.214   8.816  10.790  0.1737 -1.6638  0.8997
  427MOL0     H58920   1.101   8.618  10.810  1.0076  0.1789 -1.2415
  427MOL0     H58921   0.951   8.680  10.740  0.4984  0.1485 -1.3570
  427MOL0     H58922   0.954   8.711  11.176  0.7069  3.1975 -0.7270
  427MOL0     H58923   1.015   9.225  10.633  0.7753  1.3462 -0.4163
  427MOL0     H58924   1.116   9.415  10.580 -0.7642 -0.3754  0.0738
  427MOL0     H58925   1.276   9.408  10.485 -0.6301  3.8920 -1.7321
  427MOL0     H58926   1.129   9.457  10.412 -1.2203 -0.5667  0.2050
  428MOL0     O58927   5.425   1.157   4.969  0.0141 -0.1441  0.1978
  428MOL0     C58928   5.332   1.083   4.977 -0.4745 -0.8974 -0.2401
  428MOL0     O58929   5.257   1.063   5.084 -0.1174  0.0428 -0.2924
  428MOL0     C58930   5.259   1.165   5.174 -0.0481  0.4984 -0.7970
  428MOL0     C58931   5.201   1.289   5.139  1.0258 -0.0498  0.1951
  428MOL0     C58932   5.172   1.383   5.228  0.3737 -0.4172  0.0628
  428MOL0     C58933   5.210   1.353   5.362  0.1095 -0.1011  0.9368
  428MOL0     O58934   5.205   1.449   5.468 -0.7021 -0.5783  0.1870
  428MOL0     C58935   5.183   1.587   5.451 -0.6807 -0.7643 -0.8103
  428MOL0     C58936   5.238   1.668   5.560 -0.2087 -0.7876  0.4105
  428MOL0     C58937   5.182   1.635   5.705  0.2271 -0.4505 -0.1558
  428MOL0     C58938   5.033   1.664   5.715  0.8251 -0.0598  0.7693
  428MOL0     C58939   5.000   1.812   5.722  0.2071  0.3905 -0.0440
  428MOL0     C58940   4.852   1.859   5.694  0.6672  0.2036  1.0912
  428MOL0     C58941   4.790   1.787   5.576  0.2255 -0.1285 -0.5271
  428MOL0     C58942   4.647   1.833   5.541  0.5331 -0.3326 -0.7796
  428MOL0     N58943   4.623   1.976   5.525 -0.0880 -0.2998 -0.4134
  428MOL0     C58944   4.506   2.050   5.562  0.4765  0.1694  0.2723
  428MOL0     C58945   4.518   2.168   5.497  0.0443  0.3947 -0.0789
  428MOL0     C58946   4.412   2.276   5.478 -0.0780  0.1679  0.7733
  428MOL0     C58947   4.399   2.376   5.587  0.5818 -0.1729  0.3194
  428MOL0     C58948   4.488   2.369   5.705 -0.1695  0.0774 -0.3566
  428MOL0     C58949   4.439   2.488   5.799  0.3697  0.1815  0.0568
  428MOL0     O58950   4.535   2.533   5.893  0.1990 -0.3076 -0.0924
  428MOL0     C58951   4.503   2.642   5.966 -0.4780  0.5795  0.1951
  428MOL0     C58952   4.432   2.750   5.931  0.0412 -0.3540  0.5326
  428MOL0     C58953   4.389   2.846   6.027 -0.1042  0.6904 -0.6942
  428MOL0     C58954   4.299   2.958   5.973  0.1752 -0.6738 -0.2009
  428MOL0     C58955   4.435   2.835   6.163 -0.5844  0.3344 -0.8078
  428MOL0     C58956   4.380   2.925   6.276  0.2828  0.6280  0.5419
  428MOL0     O58957   4.450   2.937   6.387  0.1668  1.0239 -0.3131
  428MOL0     C58958   4.394   2.974   6.509  0.8232 -0.9663  0.3674
  428MOL0     C58959   4.462   3.052   6.594 -0.2557  0.3220 -0.2296
  428MOL0     C58960   4.419   3.072   6.726  1.3194  0.2744  0.5783
  428MOL0     C58961   4.303   3.012   6.778  0.3702 -0.0055  0.5515
  428MOL0     O58962   4.293   3.014   6.917  0.4459 -0.1878  0.1684
  428MOL0     C58963   4.177   2.970   6.987 -0.0275  1.2672 -0.7872
  428MOL0     C58964   4.162   3.058   7.110  0.2963 -0.8191 -0.0395
  428MOL0     C58965   4.195   2.993   7.243 -0.1740  0.3658  0.7381
  428MOL0     C58966   4.083   2.896   7.295  0.5781  0.0862  0.7732
  428MOL0     C58967   4.112   2.831   7.433 -0.3657  0.8472 -0.5710
  428MOL0     C58968   4.082   2.917   7.548 -0.0399  0.2871  0.4071
  428MOL0     C58969   4.076   2.841   7.682 -0.8229 -0.5748  0.4327
  428MOL0     C58970   4.187   2.747   7.710  0.1320 -0.5354  0.0872
  428MOL0    Cl58971   4.339   2.822   7.691  0.6956  0.2444  0.2145
  428MOL0     C58972   4.231   2.940   6.686  0.7784 -0.8566 -0.2315
  428MOL0     C58973   4.277   2.919   6.551  0.1978 -0.4407  0.1930
  428MOL0     O58974   4.269   2.967   6.258 -0.5774 -0.2225  1.0944
  428MOL0     C58975   4.528   2.738   6.191 -1.1729 -0.5126 -0.7287
  428MOL0     C58976   4.564   2.641   6.096  0.4927  0.4464  0.1598
  428MOL0     N58977   4.646   2.173   5.442  1.1807  0.2495  0.1836
  428MOL0     N58978   4.701   2.059   5.455 -0.3684 -0.5109  0.6224
  428MOL0     C58979   5.260   1.229   5.410 -0.9453 -0.7452  0.1307
  428MOL0     C58980   5.286   1.136   5.308 -0.4471  0.2259 -0.0490
  428MOL0     C58981   5.285   1.011   4.860 -0.0206 -0.5914 -0.5029
  428MOL0     C58982   5.278   0.877   4.866  0.7791  0.1525  1.3388
  428MOL0     C58983   5.256   0.800   4.751 -0.6530  0.3177 -0.2702
  428MOL0     C58984   5.216   0.853   4.634 -0.4809 -0.5944 -0.6819
  428MOL0     O58985   5.183   0.773   4.529 -0.0338  0.1071  0.4834
  428MOL0     C58986   5.196   0.834   4.393  0.2899 -0.3249  0.0046
  428MOL0     C58987   5.167   0.718   4.299 -0.4432 -0.5164  0.8046
  428MOL0     C58988   5.049   0.631   4.322  0.6586  0.0535 -0.8232
  428MOL0     C58989   4.920   0.694   4.271 -0.7995 -0.3916  0.1453
  428MOL0     C58990   4.822   0.598   4.241 -0.4953  0.2805 -0.6280
  428MOL0     C58991   4.730   0.520   4.224  0.5312  0.3345  1.2387
  428MOL0     C58992   5.215   0.994   4.629 -0.3675 -0.2524 -0.0526
  428MOL0     C58993   5.252   1.077   4.737 -0.5112  0.3110 -0.7346
  428MOL0     C58994   5.248   1.226   4.714  0.3930 -0.3839  0.6622
  428MOL0     H58995   5.177   1.305   5.034 -0.4966  0.2495  0.5681
  428MOL0     H58996   5.135   1.482   5.204 -0.1793 -1.1719 -2.4925
  428MOL0     H58997   5.074   1.592   5.444 -0.7456  1.4212  0.5886
  428MOL0     H58998   5.227   1.632   5.362  1.7643  0.8602  1.0472
  428MOL0     H58999   5.346   1.657   5.555 -0.0779  0.4518  0.0443
  428MOL0     H59000   5.211   1.767   5.521 -4.2067 -2.5657 -1.9536
  428MOL0     H59001   5.192   1.526   5.712  0.6246 -0.3029  2.4161
  428MOL0     H59002   5.237   1.681   5.787  0.7088 -2.4848  0.7290
  428MOL0     H59003   4.976   1.612   5.638  1.0561 -0.5873  0.9519
  428MOL0     H59004   4.990   1.618   5.804  0.0425 -0.3609  0.2430
  428MOL0     H59005   5.055   1.867   5.645 -1.1344 -0.6588 -1.8379
  428MOL0     H59006   5.039   1.853   5.816 -1.0397  0.5910  0.4006
  428MOL0     H59007   4.788   1.844   5.781 -0.6557  1.5987  0.4098
  428MOL0     H59008   4.847   1.967   5.672 -1.4183  0.0714  0.7067
  428MOL0     H59009   4.791   1.681   5.603 -2.8800  0.2494  1.5733
  428MOL0     H59010   4.852   1.793   5.486  1.3791 -2.5424  0.0311
  428MOL0     H59011   4.620   1.782   5.449  2.3481  1.8210 -2.6516
  428MOL0     H59012   4.581   1.804   5.623 -1.9978 -2.2181 -3.3046
  428MOL0     H59013   4.422   2.000   5.609 -0.7839 -1.3949 -3.3025
  428MOL0     H59014   4.317   2.222   5.465  0.6112 -0.6358 -1.3569
  428MOL0     H59015   4.425   2.322   5.380  1.0380  3.5291  2.3618
  428MOL0     H59016   4.417   2.476   5.547  2.5052 -0.3093  0.7709
  428MOL0     H59017   4.292   2.377   5.612  0.4535  1.6022 -0.1841
  428MOL0     H59018   4.484   2.266   5.744  1.1159 -0.5860 -1.8496
  428MOL0     H59019   4.592   2.399   5.691 -0.4002  3.0840  2.9962
  428MOL0     H59020   4.419   2.569   5.727  1.7165  0.7392  0.2859
  428MOL0     H59021   4.340   2.466   5.842 -0.1209 -3.5350 -2.4748
  428MOL0     H59022   4.393   2.764   5.831 -0.9577  0.7854  1.0554
  428MOL0     H59023   4.198   2.940   6.011  0.4347 -1.8682 -0.0301
  428MOL0     H59024   4.286   2.957   5.864 -0.0702 -5.3418 -0.3246
  428MOL0     H59025   4.338   3.055   6.004 -0.9888 -0.8912  2.2100
  428MOL0     H59026   4.558   3.085   6.556  0.5089 -2.0992 -0.5835
  428MOL0     H59027   4.465   3.149   6.787  2.1265  1.4286 -1.3825
  428MOL0     H59028   4.095   2.979   6.915  1.9340 -0.6374 -3.4462
  428MOL0     H59029   4.188   2.870   7.030 -2.3953  0.5317 -1.7427
  428MOL0     H59030   4.236   3.139   7.103 -0.7036 -0.0368 -2.4737
  428MOL0     H59031   4.057   3.088   7.120  1.0054  1.9886 -0.1621
  428MOL0     H59032   4.204   3.074   7.315 -3.8812  2.7793 -1.2333
  428MOL0     H59033   4.295   2.948   7.236  0.6961  2.2800 -0.1062
  428MOL0     H59034   4.073   2.815   7.222  3.2153 -0.3878  0.8286
  428MOL0     H59035   3.992   2.957   7.300 -0.0238 -0.7234  0.1302
  428MOL0     H59036   4.040   2.749   7.434 -0.8133  1.2028 -1.7818
  428MOL0     H59037   4.209   2.780   7.435 -2.0208 -2.5578  0.3423
  428MOL0     H59038   3.990   2.974   7.536 -0.2085 -0.2857 -1.2576
  428MOL0     H59039   4.165   2.987   7.568 -1.3879  1.3294  2.9444
  428MOL0     H59040   3.983   2.783   7.680 -1.4903  0.4810 -1.2523
  428MOL0     H59041   4.074   2.919   7.758  1.9669  1.4707 -1.4020
  428MOL0     H59042   4.182   2.660   7.645  1.3093  0.3936 -1.3085
  428MOL0     H59043   4.166   2.708   7.810 -0.6276 -1.9717 -0.6080
  428MOL0     H59044   4.141   2.889   6.719  0.0166 -0.0727 -1.0200
  428MOL0     H59045   4.209   2.874   6.479 -0.1487 -2.6507  1.8198
  428MOL0     H59046   4.567   2.731   6.292  0.0439 -0.1391 -1.1492
  428MOL0     H59047   4.640   2.569   6.123  3.4142  2.6006 -1.7968
  428MOL0     H59048   5.281   1.214   5.516 -3.9534 -3.2622  0.5257
  428MOL0     H59049   5.330   1.038   5.327  0.7030  0.4109 -1.6075
  428MOL0     H59050   5.310   0.828   4.958 -0.2299 -2.1608  0.5253
  428MOL0     H59051   5.257   0.692   4.762  2.1429  0.3714  0.8165
  428MOL0     H59052   5.123   0.915   4.392  0.9205  0.2454 -0.1590
  428MOL0     H59053   5.298   0.865   4.368  0.6410 -2.0047 -0.8372
  428MOL0     H59054   5.251   0.650   4.317 -0.8494 -1.4763 -0.7605
  428MOL0     H59055   5.176   0.758   4.198 -3.4298  1.7135  1.2935
  428MOL0     H59056   5.058   0.531   4.279  0.0218  0.4798 -2.0024
  428MOL0     H59057   5.047   0.610   4.429  3.7079  1.3275 -0.4319
  428MOL0     H59058   4.938   0.759   4.184 -2.3128  1.6501  1.2627
  428MOL0     H59059   4.880   0.756   4.351 -0.0080  0.8505 -0.3841
  428MOL0     H59060   4.654   0.451   4.191  0.2646  2.0418 -2.2053
  428MOL0     H59061   5.189   1.045   4.537  3.5695  2.8568  0.2557
  428MOL0     H59062   5.266   1.251   4.609  2.0427  1.0668  1.2388
  428MOL0     H59063   5.152   1.270   4.745 -1.5249 -1.4282 -3.1344
  428MOL0     H59064   5.328   1.284   4.761  1.7152  0.5079 -2.3944
  429MOL0     O59065   0.276   5.208   9.360 -0.5439  0.5242 -0.6828
  429MOL0     C59066   0.344   5.246   9.449 -0.1498 -0.0015 -0.2648
  429MOL0     O59067   0.476   5.238   9.460  0.4716  0.8361 -0.3089
  429MOL0     C59068   0.555   5.196   9.352  0.2843 -0.2951 -0.8985
  429MOL0     C59069   0.527   5.231   9.218 -0.0149 -0.1911 -0.5461
  429MOL0     C59070   0.614   5.191   9.118 -0.0928 -0.4669  0.6995
  429MOL0     C59071   0.731   5.111   9.138  0.2081 -0.4648 -0.2311
  429MOL0     O59072   0.822   5.070   9.045  0.1956  0.0548  0.0694
  429MOL0     C59073   0.795   5.080   8.900 -0.3523 -0.0578 -0.2225
  429MOL0     C59074   0.910   5.076   8.809  0.0207  0.5906 -0.1024
  429MOL0     C59075   1.010   5.188   8.824 -0.1961  0.4652  0.4103
  429MOL0     C59076   0.990   5.306   8.725 -0.1694 -0.0077 -0.9538
  429MOL0     C59077   1.102   5.410   8.757  0.8060  0.3777  0.6860
  429MOL0     C59078   1.130   5.507   8.636 -0.0739  0.3864 -1.1829
  429MOL0     C59079   1.223   5.441   8.534 -0.4076  0.7219 -0.8980
  429MOL0     C59080   1.248   5.494   8.395  0.5934 -0.3839 -0.0070
  429MOL0     N59081   1.323   5.401   8.305 -0.0045  0.1686  0.2363
  429MOL0     C59082   1.283   5.364   8.182 -0.8021  0.6842  0.2041
  429MOL0     C59083   1.381   5.281   8.134  0.0004  0.7504 -0.7084
  429MOL0     C59084   1.380   5.218   8.004  0.0000 -0.1537  0.9447
  429MOL0     C59085   1.453   5.305   7.902 -0.1978  0.1311  0.0397
  429MOL0     C59086   1.358   5.425   7.857  1.5278  0.5080  0.2925
  429MOL0     C59087   1.396   5.439   7.711 -0.1708 -1.0987  0.0211
  429MOL0     O59088   1.339   5.340   7.629 -0.8331  0.2956  0.5842
  429MOL0     C59089   1.226   5.358   7.557 -0.9505  0.2785  1.2121
  429MOL0     C59090   1.134   5.462   7.579 -0.0287  0.8102  0.1752
  429MOL0     C59091   1.038   5.492   7.487 -0.5582 -0.3181  0.1774
  429MOL0     C59092   0.970   5.620   7.509  0.1597  0.2786  0.5415
  429MOL0     C59093   1.017   5.405   7.382  0.8589 -0.8017 -0.4110
  429MOL0     C59094   0.923   5.434   7.268  0.1895  0.5242 -0.2119
  429MOL0     O59095   0.860   5.331   7.217  0.7302  0.5616 -0.1027
  429MOL0     C59096   0.753   5.337   7.127  0.1594 -0.4171 -0.4445
  429MOL0     C59097   0.673   5.449   7.095  0.1527 -0.0991 -0.4039
  429MOL0     C59098   0.554   5.442   7.008 -0.1965 -0.2603 -0.0242
  429MOL0     C59099   0.533   5.324   6.942  0.8225 -0.2725  0.8266
  429MOL0     O59100   0.436   5.339   6.850 -0.3095 -0.0728  0.1356
  429MOL0     C59101   0.304   5.346   6.902 -0.1378 -0.7877  0.3388
  429MOL0     C59102   0.220   5.361   6.774 -0.3350 -0.1108 -0.8675
  429MOL0     C59103   0.075   5.324   6.825 -0.3143  0.1495  0.2266
  429MOL0     C59104  -0.015   5.305   6.712  0.6857 -0.6553 -0.0539
  429MOL0     C59105  -0.043   5.433   6.640 -0.3130  0.2658  0.4536
  429MOL0     C59106  -0.155   5.520   6.702 -0.1328 -0.4590  0.3108
  429MOL0     C59107  -0.297   5.483   6.670 -0.7128 -0.0752 -0.1974
  429MOL0     C59108  -0.356   5.574   6.560  0.3252 -1.1237 -0.5291
  429MOL0    Cl59109  -0.534   5.535   6.551 -0.5277 -0.0956 -0.0500
  429MOL0     C59110   0.614   5.218   6.961 -0.5631  0.0413  0.4111
  429MOL0     C59111   0.713   5.224   7.067  0.4477  0.5071 -0.2115
  429MOL0     O59112   0.911   5.548   7.227 -0.1684 -0.0712 -0.4111
  429MOL0     C59113   1.090   5.286   7.369 -0.3411 -0.4822 -0.3887
  429MOL0     C59114   1.198   5.266   7.453 -0.1115  0.1578 -0.2891
  429MOL0     N59115   1.487   5.281   8.226 -0.7714 -0.7043  0.1035
  429MOL0     N59116   1.449   5.362   8.320 -0.1676  0.0804  0.8067
  429MOL0     C59117   0.752   5.073   9.273  0.5944 -0.3673 -1.4593
  429MOL0     C59118   0.659   5.113   9.373 -0.3266  1.2177  0.6575
  429MOL0     C59119   0.276   5.303   9.562 -0.8388 -0.1329  0.2803
  429MOL0     C59120   0.343   5.291   9.692  0.2136 -0.0102  0.0367
  429MOL0     C59121   0.298   5.379   9.790  0.0412  1.5414  0.4651
  429MOL0     C59122   0.188   5.458   9.783  0.5449 -0.1559  0.2023
  429MOL0     O59123   0.159   5.526   9.900 -0.3130 -0.1083 -0.5227
  429MOL0     C59124   0.049   5.617   9.910  0.5532  0.1367  0.6830
  429MOL0     C59125  -0.084   5.556   9.946 -0.9791  0.8209 -0.1545
  429MOL0     C59126  -0.168   5.671   9.995  0.6019 -0.8925  0.9253
  429MOL0     C59127  -0.237   5.654  10.131 -1.3920  0.2390  0.4216
  429MOL0     C59128  -0.297   5.777  10.174 -0.1370 -0.6149 -0.2482
  429MOL0     C59129  -0.364   5.859  10.230 -0.8641 -0.5094  0.7149
  429MOL0     C59130   0.121   5.466   9.664  0.7096  0.6916 -0.1250
  429MOL0     C59131   0.170   5.395   9.550  1.0081  0.8412 -0.2742
  429MOL0     C59132   0.084   5.419   9.428  0.5631 -0.4844  0.6847
  429MOL0     H59133   0.454   5.306   9.189  2.2251  2.1745 -0.4349
  429MOL0     H59134   0.584   5.213   9.016 -0.2788  1.8466  1.1896
  429MOL0     H59135   0.764   5.183   8.879  0.8226  0.0555 -1.5326
  429MOL0     H59136   0.717   5.010   8.868 -2.7926  1.3983  2.0770
  429MOL0     H59137   0.956   4.977   8.817 -1.5033 -0.7051 -4.5098
  429MOL0     H59138   0.876   5.064   8.706  0.3103 -3.4342  0.0804
  429MOL0     H59139   1.013   5.220   8.929 -0.9597 -1.7218  1.1596
  429MOL0     H59140   1.105   5.135   8.815 -1.3650 -1.6230 -0.4154
  429MOL0     H59141   1.016   5.269   8.626  1.8211 -2.8246  0.4573
  429MOL0     H59142   0.890   5.349   8.735  0.2815  0.6479  1.5537
  429MOL0     H59143   1.198   5.360   8.777  1.2493 -0.2847 -2.5737
  429MOL0     H59144   1.068   5.467   8.844 -2.2615  1.2359 -0.9312
  429MOL0     H59145   1.032   5.534   8.594 -1.3515  0.4062  1.5553
  429MOL0     H59146   1.174   5.600   8.673  0.6623 -0.1331 -0.7139
  429MOL0     H59147   1.199   5.335   8.523  1.0364  0.3419 -0.5902
  429MOL0     H59148   1.316   5.441   8.592 -1.6734 -1.6863  1.3155
  429MOL0     H59149   1.152   5.516   8.348  1.6112  2.6072 -0.9263
  429MOL0     H59150   1.298   5.591   8.399 -4.6713  2.8085 -1.9951
  429MOL0     H59151   1.186   5.378   8.137  0.2732  1.6788 -1.9681
  429MOL0     H59152   1.283   5.179   7.972  0.4941  0.2790 -1.2119
  429MOL0     H59153   1.437   5.124   8.005 -0.1614 -0.2521  1.0429
  429MOL0     H59154   1.547   5.341   7.945 -0.2992  1.5215 -0.8417
  429MOL0     H59155   1.469   5.239   7.816  3.3593  0.6571  0.1342
  429MOL0     H59156   1.250   5.408   7.857  1.6547 -0.5496 -1.1893
  429MOL0     H59157   1.377   5.519   7.910  2.5973  1.4914 -1.6967
  429MOL0     H59158   1.376   5.543   7.687 -0.0175 -1.6416 -2.7800
  429MOL0     H59159   1.506   5.433   7.705 -0.1314 -1.7005  1.0167
  429MOL0     H59160   1.140   5.538   7.657 -0.3185  0.4247  0.5789
  429MOL0     H59161   0.865   5.605   7.485  0.4172  1.1943 -1.3531
  429MOL0     H59162   1.020   5.698   7.452 -0.6421  1.8072  1.8596
  429MOL0     H59163   0.968   5.664   7.609 -1.7821  2.2647 -0.3045
  429MOL0     H59164   0.696   5.546   7.139 -0.9470  0.7251 -1.5649
  429MOL0     H59165   0.490   5.528   6.990 -0.4403  0.0075  1.8668
  429MOL0     H59166   0.278   5.260   6.964 -1.8834 -0.3389  0.2775
  429MOL0     H59167   0.284   5.442   6.949 -0.5215 -1.0504  0.7114
  429MOL0     H59168   0.229   5.460   6.730  2.0625  0.6100  1.0108
  429MOL0     H59169   0.258   5.288   6.702 -3.0226 -1.6723 -0.8648
  429MOL0     H59170   0.045   5.401   6.897 -0.8996 -2.4823  3.0304
  429MOL0     H59171   0.082   5.231   6.883  1.3124 -0.7420 -1.2907
  429MOL0     H59172  -0.109   5.264   6.750  1.3836 -2.2839 -0.0242
  429MOL0     H59173   0.017   5.222   6.650 -0.5585  1.0477 -3.2106
  429MOL0     H59174   0.048   5.494   6.633  1.6173 -2.3686  0.9335
  429MOL0     H59175  -0.067   5.388   6.543 -0.3010 -0.5515  0.8186
  429MOL0     H59176  -0.136   5.624   6.675  4.2993 -1.2455 -0.4042
  429MOL0     H59177  -0.151   5.514   6.811 -2.6732  2.4702  0.6982
  429MOL0     H59178  -0.358   5.497   6.759 -0.1964  1.3854 -0.0567
  429MOL0     H59179  -0.314   5.379   6.640 -0.9682 -0.4951  1.3491
  429MOL0     H59180  -0.315   5.549   6.462  0.4091  2.8602 -1.6738
  429MOL0     H59181  -0.329   5.678   6.583  4.2008 -2.1984  0.5854
  429MOL0     H59182   0.590   5.128   6.905  0.8380  1.3119 -2.3618
  429MOL0     H59183   0.759   5.127   7.082 -1.2177 -0.5565 -1.5742
  429MOL0     H59184   1.063   5.223   7.285 -0.0329  1.0732 -1.7177
  429MOL0     H59185   1.263   5.179   7.441 -0.5170 -0.2399  0.3361
  429MOL0     H59186   0.842   5.016   9.298  0.1801  0.4142  2.4135
  429MOL0     H59187   0.691   5.070   9.467 -0.9190  1.8412  1.1543
  429MOL0     H59188   0.428   5.229   9.719  0.8454  1.7269  2.2432
  429MOL0     H59189   0.349   5.365   9.885 -1.2046 -0.5565  0.8903
  429MOL0     H59190   0.072   5.677   9.999 -1.4645 -1.8187  2.6332
  429MOL0     H59191   0.030   5.667   9.814 -1.9682 -0.3841  0.8429
  429MOL0     H59192  -0.063   5.489  10.030 -1.0042  0.2879 -0.5644
  429MOL0     H59193  -0.124   5.510   9.855  4.0261  3.6541 -4.3863
  429MOL0     H59194  -0.122   5.770   9.994 -1.6291  0.2065 -0.1150
  429MOL0     H59195  -0.248   5.680   9.921  0.9355  0.7567  0.7264
  429MOL0     H59196  -0.146   5.637  10.191 -0.1567  2.6371 -0.6276
  429MOL0     H59197  -0.302   5.567  10.142 -0.2170 -0.3901  3.5737
  429MOL0     H59198  -0.430   5.937  10.261 -2.0123 -1.6160  1.1367
  429MOL0     H59199   0.037   5.532   9.645  0.6716 -0.0226 -2.9194
  429MOL0     H59200   0.148   5.457   9.347 -2.2494 -0.4427 -1.6989
  429MOL0     H59201   0.041   5.324   9.395 -0.1435  0.3809 -1.0396
  429MOL0     H59202   0.008   5.494   9.450 -0.6622 -1.0233 -1.4441
  430MOL0     O59203   8.269   5.551   5.014  0.3363 -0.2521  0.2862
  430MOL0     C59204   8.351   5.468   5.046 -0.1873 -0.2514  0.2805
  430MOL0     O59205   8.443   5.413   4.959  0.0873 -0.8891  0.0931
  430MOL0     C59206   8.442   5.439   4.824 -0.7819  0.3870 -0.5004
  430MOL0     C59207   8.343   5.506   4.746  0.1279  0.0090 -0.5743
  430MOL0     C59208   8.370   5.537   4.608 -0.3459 -0.4037  0.5395
  430MOL0     C59209   8.493   5.505   4.551 -0.6899 -0.1305 -0.7207
  430MOL0     O59210   8.535   5.539   4.432 -0.3931  0.0772  0.2776
  430MOL0     C59211   8.453   5.596   4.333 -0.6528  0.4065 -0.0539
  430MOL0     C59212   8.539   5.697   4.253 -0.0051 -1.1013  0.0938
  430MOL0     C59213   8.630   5.621   4.152  0.6307 -0.3991 -0.1151
  430MOL0     C59214   8.691   5.720   4.060 -0.2924 -0.5144  0.2117
  430MOL0     C59215   8.817   5.666   3.996 -0.0366  0.1145  0.1650
  430MOL0     C59216   8.905   5.776   3.942 -0.5376  0.2338 -0.3396
  430MOL0     C59217   8.882   5.827   3.800  0.3954  0.0256 -0.2814
  430MOL0     C59218   8.903   5.720   3.697 -0.1326 -0.0377  0.1084
  430MOL0     N59219   8.805   5.729   3.590 -0.1368  0.2706  0.6726
  430MOL0     C59220   8.671   5.732   3.605 -0.0583  0.5108 -0.0204
  430MOL0     C59221   8.627   5.769   3.480 -0.1045 -0.9673  0.2638
  430MOL0     C59222   8.485   5.764   3.435  0.6874  0.2218 -0.4125
  430MOL0     C59223   8.424   5.620   3.441 -0.4961 -0.7847 -0.6250
  430MOL0     C59224   8.274   5.626   3.407 -0.0784  0.5000  0.8625
  430MOL0     C59225   8.212   5.490   3.439 -0.1871  1.3048 -0.1364
  430MOL0     O59226   8.192   5.476   3.585 -0.2963 -0.6374  0.4147
  430MOL0     C59227   8.175   5.349   3.613  0.4924 -0.1329  0.2414
  430MOL0     C59228   8.267   5.253   3.575 -0.6450  0.2542 -0.8374
  430MOL0     C59229   8.240   5.112   3.579 -0.2858 -0.3186 -0.1624
  430MOL0     C59230   8.347   5.037   3.506  0.3693 -0.3088 -0.7677
  430MOL0     C59231   8.109   5.072   3.615  0.3888  0.7824  0.0483
  430MOL0     C59232   8.068   4.931   3.605 -1.2391 -1.8269 -0.3860
  430MOL0     O59233   7.943   4.907   3.625  0.4018  0.7608 -0.3909
  430MOL0     C59234   7.927   4.785   3.693  0.0322  0.0456  0.0971
  430MOL0     C59235   7.860   4.682   3.612  0.1064 -0.3155 -0.5731
  430MOL0     C59236   7.834   4.560   3.680 -0.1165 -0.9172  0.5160
  430MOL0     C59237   7.866   4.547   3.816 -0.5648 -0.5983  0.8702
  430MOL0     O59238   7.830   4.429   3.875  0.4111  0.3881 -0.0591
  430MOL0     C59239   7.888   4.391   4.001 -0.1469 -0.7604 -0.7761
  430MOL0     C59240   7.829   4.266   4.056 -0.2791  0.3126 -0.7877
  430MOL0     C59241   7.877   4.226   4.194 -0.4248  0.2184 -0.4749
  430MOL0     C59242   8.022   4.196   4.206  0.3349 -0.6055 -0.1588
  430MOL0     C59243   8.050   4.157   4.347 -0.8338 -0.9773 -1.0262
  430MOL0     C59244   8.197   4.127   4.347  0.2196 -0.5433 -0.1599
  430MOL0     C59245   8.253   4.056   4.471 -0.0976  0.6917 -0.1308
  430MOL0     C59246   8.194   3.925   4.498  0.7617  0.6189  0.3171
  430MOL0    Cl59247   8.336   3.840   4.592 -0.0847  0.3494  0.2547
  430MOL0     C59248   7.918   4.651   3.883 -0.5774 -0.2958 -0.2784
  430MOL0     C59249   7.944   4.770   3.831 -0.1178 -0.1408 -0.0919
  430MOL0     O59250   8.149   4.845   3.570  0.3602 -0.6702 -0.1179
  430MOL0     C59251   8.020   5.171   3.661  1.2375  0.3403 -0.5063
  430MOL0     C59252   8.050   5.306   3.660 -0.1675 -0.1528 -0.3831
  430MOL0     N59253   8.738   5.783   3.398 -0.1821  0.6381  0.1132
  430MOL0     N59254   8.844   5.753   3.465 -0.3908  0.3978 -0.9179
  430MOL0     C59255   8.586   5.446   4.631  0.0804  0.1249 -1.1185
  430MOL0     C59256   8.560   5.404   4.761 -0.3182 -0.6705  0.3593
  430MOL0     C59257   8.379   5.446   5.192  0.0317 -0.9044 -0.4090
  430MOL0     C59258   8.465   5.342   5.229  0.3564  0.3059 -0.3443
  430MOL0     C59259   8.501   5.305   5.364 -0.3857 -0.4246 -0.4918
  430MOL0     C59260   8.448   5.387   5.461  0.1839 -0.6807 -0.4221
  430MOL0     O59261   8.470   5.365   5.595  0.0611  0.0199 -0.6887
  430MOL0     C59262   8.598   5.301   5.635 -1.1096  0.8228  0.5972
  430MOL0     C59263   8.575   5.204   5.752 -0.1551  0.4029  0.3559
  430MOL0     C59264   8.511   5.267   5.868  0.4838 -0.1855 -0.2508
  430MOL0     C59265   8.488   5.171   5.988 -0.0342  0.1576  0.5055
  430MOL0     C59266   8.416   5.042   5.951 -0.0486  0.2997  0.1677
  430MOL0     C59267   8.363   4.940   5.898  1.0919 -0.0822 -0.7549
  430MOL0     C59268   8.365   5.490   5.435  0.6500 -0.7459 -0.1067
  430MOL0     C59269   8.326   5.522   5.301  0.1625 -0.2152 -0.5361
  430MOL0     C59270   8.223   5.634   5.274 -0.7143 -0.1326  0.5553
  430MOL0     H59271   8.252   5.543   4.790  1.0866 -1.6060  3.1014
  430MOL0     H59272   8.298   5.590   4.547  1.9808  0.5266 -1.5311
  430MOL0     H59273   8.364   5.647   4.370  0.1364  0.6521  1.5896
  430MOL0     H59274   8.421   5.517   4.264  3.5569 -2.9574  1.3680
  430MOL0     H59275   8.466   5.751   4.193 -2.5826 -3.3003  1.0689
  430MOL0     H59276   8.605   5.767   4.306 -1.7851  1.0614 -0.4106
  430MOL0     H59277   8.705   5.587   4.225 -1.3568 -0.1093  2.1949
  430MOL0     H59278   8.590   5.542   4.088  0.2881  0.8056 -1.4210
  430MOL0     H59279   8.625   5.741   3.976  1.6026  2.6689 -0.6505
  430MOL0     H59280   8.727   5.811   4.109  0.7814 -1.1668  0.6893
  430MOL0     H59281   8.790   5.593   3.919  0.6876 -1.1720  1.0762
  430MOL0     H59282   8.880   5.613   4.068  0.1964 -0.1401 -0.2192
  430MOL0     H59283   8.910   5.863   4.008  2.6912 -1.1704  1.4766
  430MOL0     H59284   8.999   5.719   3.941 -1.9581 -2.2940  0.5734
  430MOL0     H59285   8.959   5.901   3.773 -0.7232  1.2566 -0.2031
  430MOL0     H59286   8.790   5.886   3.796  0.1709 -0.0018  2.5501
  430MOL0     H59287   9.007   5.718   3.662 -0.2739 -2.1806 -0.3722
  430MOL0     H59288   8.898   5.621   3.744 -0.5228 -1.2863 -2.4148
  430MOL0     H59289   8.609   5.698   3.686  0.2259 -0.3506 -0.1578
  430MOL0     H59290   8.482   5.798   3.331  0.5724  0.0834 -0.4547
  430MOL0     H59291   8.429   5.831   3.501  0.4562  1.6276 -1.9654
  430MOL0     H59292   8.473   5.558   3.365 -1.2803  0.8576 -2.5935
  430MOL0     H59293   8.448   5.579   3.539 -1.9372  1.8891  0.9569
  430MOL0     H59294   8.215   5.703   3.458 -3.0555 -0.8656 -0.2924
  430MOL0     H59295   8.259   5.647   3.301 -1.9540 -1.8722  0.5597
  430MOL0     H59296   8.112   5.504   3.396 -0.2667  2.1333  0.3034
  430MOL0     H59297   8.271   5.414   3.386  0.5989  2.0932 -0.4092
  430MOL0     H59298   8.359   5.283   3.525 -0.3466 -1.4080 -1.3540
  430MOL0     H59299   8.315   4.994   3.410  1.8640  0.3810 -1.6114
  430MOL0     H59300   8.376   4.953   3.570 -2.2124 -0.4107  0.3864
  430MOL0     H59301   8.437   5.098   3.494  1.1571 -1.1850  0.5498
  430MOL0     H59302   7.839   4.699   3.507 -0.2134 -0.1953 -0.4908
  430MOL0     H59303   7.775   4.481   3.636 -1.7550 -1.1059  2.8623
  430MOL0     H59304   7.997   4.386   3.998 -0.0653  0.4988 -0.5017
  430MOL0     H59305   7.866   4.464   4.080  3.4067 -0.0198 -0.3100
  430MOL0     H59306   7.720   4.272   4.048 -0.4622  3.3638  1.8075
  430MOL0     H59307   7.857   4.186   3.987 -0.8464 -0.5011 -0.1022
  430MOL0     H59308   7.827   4.136   4.229 -1.7745  1.0448 -0.2056
  430MOL0     H59309   7.850   4.314   4.253 -0.2258 -0.9936  1.5269
  430MOL0     H59310   8.065   4.296   4.196  1.3782 -0.9026  1.0890
  430MOL0     H59311   8.054   4.142   4.116 -3.1726 -1.7833 -0.8388
  430MOL0     H59312   8.015   4.221   4.428 -0.2171 -0.2321 -1.3368
  430MOL0     H59313   8.000   4.064   4.373 -0.3959 -0.4276  2.3049
  430MOL0     H59314   8.240   4.226   4.330 -4.7603  3.5471  6.4212
  430MOL0     H59315   8.219   4.053   4.269  1.2163 -2.4323  1.8177
  430MOL0     H59316   8.248   4.106   4.568 -2.8263 -3.2149  2.0233
  430MOL0     H59317   8.358   4.037   4.448 -1.0606 -2.9933 -2.2502
  430MOL0     H59318   8.167   3.878   4.403 -2.8298 -0.0369  1.4788
  430MOL0     H59319   8.103   3.921   4.560  1.3742 -0.9541  1.1752
  430MOL0     H59320   7.930   4.652   3.991 -2.6762  0.6339  0.0075
  430MOL0     H59321   7.986   4.855   3.883  0.9492 -1.2480  0.9217
  430MOL0     H59322   7.917   5.152   3.688  1.4739 -0.4878 -0.1607
  430MOL0     H59323   7.977   5.379   3.693 -0.8672 -0.1201 -1.9298
  430MOL0     H59324   8.685   5.421   4.595  0.8483  0.9736  0.3221
  430MOL0     H59325   8.639   5.352   4.814  0.2231 -2.1027 -1.7535
  430MOL0     H59326   8.474   5.260   5.160 -3.2405 -2.6667  2.3188
  430MOL0     H59327   8.561   5.217   5.385  0.2423  0.5370  2.1237
  430MOL0     H59328   8.656   5.255   5.554 -0.1244 -2.2267  2.8311
  430MOL0     H59329   8.664   5.378   5.674  1.3998 -0.2511 -1.2358
  430MOL0     H59330   8.675   5.175   5.785  0.2844  2.4347  0.9632
  430MOL0     H59331   8.519   5.120   5.711 -2.5368  3.4405 -3.3583
  430MOL0     H59332   8.568   5.354   5.903 -2.4933  1.9429 -0.2001
  430MOL0     H59333   8.417   5.297   5.820 -0.0211 -1.1911  0.0706
  430MOL0     H59334   8.442   5.215   6.077 -2.5906  1.9674 -1.5614
  430MOL0     H59335   8.587   5.138   6.023  0.6662 -0.0977 -1.5935
  430MOL0     H59336   8.314   4.851   5.864 -0.7373 -0.0641  1.5678
  430MOL0     H59337   8.329   5.555   5.514  3.4573  0.5133  0.2553
  430MOL0     H59338   8.144   5.592   5.212 -0.8393 -1.2141  1.4173
  430MOL0     H59339   8.182   5.678   5.365  0.6436 -1.1806  1.7231
  430MOL0     H59340   8.278   5.714   5.223 -1.6872 -1.8828 -3.7067
  431MOL0     O59341   4.333   6.068   8.025  0.0845  0.8963 -0.0330
  431MOL0     C59342   4.369   6.187   8.028 -0.4153  0.1127  0.4357
  431MOL0     O59343   4.357   6.269   8.137 -0.7001 -0.2211 -0.7280
  431MOL0     C59344   4.294   6.219   8.251 -0.4793 -0.4258 -0.1130
  431MOL0     C59345   4.166   6.260   8.288  0.0795  0.3867 -0.2792
  431MOL0     C59346   4.113   6.207   8.410  0.1688 -1.1468  0.0638
  431MOL0     C59347   4.186   6.134   8.506 -0.5274 -0.3137  1.0942
  431MOL0     O59348   4.134   6.084   8.622 -1.0890  0.0301  0.4961
  431MOL0     C59349   4.013   6.121   8.691 -0.8431  0.8439  1.1616
  431MOL0     C59350   4.013   6.038   8.820  0.4348  0.4915  0.2098
  431MOL0     C59351   4.033   5.886   8.788  0.0458 -0.2123 -0.9207
  431MOL0     C59352   4.048   5.802   8.921  0.7311 -1.0751 -0.0820
  431MOL0     C59353   4.020   5.653   8.890 -0.1574  0.6041  0.0421
  431MOL0     C59354   4.005   5.558   9.017  0.0447 -1.0020  0.1603
  431MOL0     C59355   4.086   5.597   9.139 -0.5656  0.4157  1.1375
  431MOL0     C59356   4.018   5.529   9.266 -0.0278 -0.1726  0.4300
  431MOL0     N59357   4.064   5.394   9.282 -0.2912  0.3247  0.5523
  431MOL0     C59358   4.190   5.359   9.323 -0.0964 -0.2498  0.7476
  431MOL0     C59359   4.192   5.223   9.317 -0.3457  0.3172 -0.3589
  431MOL0     C59360   4.313   5.141   9.338  0.0185  0.5495  0.2510
  431MOL0     C59361   4.428   5.201   9.266  0.5855  0.4719  0.3501
  431MOL0     C59362   4.535   5.098   9.269 -0.3733  0.5900  1.2089
  431MOL0     C59363   4.509   4.949   9.253  0.4513  0.4160  0.4728
  431MOL0     O59364   4.641   4.895   9.258  0.3281  0.5635  0.0718
  431MOL0     C59365   4.653   4.761   9.293  0.2730  0.3608  0.5208
  431MOL0     C59366   4.779   4.715   9.337 -0.8570 -0.3744 -0.0917
  431MOL0     C59367   4.799   4.589   9.388 -0.2980 -0.4653  0.5061
  431MOL0     C59368   4.934   4.546   9.433 -0.8828  0.2111 -0.2797
  431MOL0     C59369   4.688   4.498   9.394 -0.8470 -0.4270 -0.0551
  431MOL0     C59370   4.687   4.368   9.468 -0.6435  0.5600  0.7162
  431MOL0     O59371   4.713   4.368   9.605  0.1436  0.1921 -0.0154
  431MOL0     C59372   4.739   4.250   9.670 -0.2259 -0.3234 -1.1425
  431MOL0     C59373   4.720   4.261   9.809  0.1551 -0.2133 -0.2751
  431MOL0     C59374   4.752   4.152   9.895 -0.3175  0.2624 -0.4075
  431MOL0     C59375   4.777   4.025   9.843  0.2157  0.1035 -0.7959
  431MOL0     O59376   4.777   3.922   9.935 -0.2537  0.0810  0.0851
  431MOL0     C59377   4.759   3.783   9.894 -0.2361 -0.3149  0.4613
  431MOL0     C59378   4.707   3.697  10.013  0.6815 -0.3904 -0.3198
  431MOL0     C59379   4.703   3.537   9.996 -1.0715 -0.4129  0.5572
  431MOL0     C59380   4.633   3.503   9.861  0.0509 -0.2464 -0.7281
  431MOL0     C59381   4.621   3.352   9.851  0.3080  0.2822  1.2003
  431MOL0     C59382   4.761   3.300   9.799  1.9716  0.3680 -0.5506
  431MOL0     C59383   4.750   3.147   9.762  0.0394 -0.5595  0.4440
  431MOL0     C59384   4.866   3.118   9.680 -0.2331  0.0638  0.1019
  431MOL0    Cl59385   5.013   3.143   9.782 -0.3447  0.0039  0.1144
  431MOL0     C59386   4.801   4.015   9.702  1.0519 -0.3901  0.3413
  431MOL0     C59387   4.783   4.126   9.622  0.1967 -0.5560 -0.4748
  431MOL0     O59388   4.661   4.268   9.393  0.4819 -0.2524 -0.5129
  431MOL0     C59389   4.569   4.531   9.332 -0.0233 -1.3415  0.0593
  431MOL0     C59390   4.552   4.661   9.280  0.7553  0.3437  0.0663
  431MOL0     N59391   4.067   5.179   9.285  0.1891 -0.7123 -0.9118
  431MOL0     N59392   4.000   5.278   9.248  0.8374  0.0251  0.6733
  431MOL0     C59393   4.316   6.092   8.461  0.1318 -0.6525  0.3058
  431MOL0     C59394   4.367   6.127   8.335 -0.9537  0.8642 -0.5858
  431MOL0     C59395   4.450   6.244   7.913  0.5360  1.2179 -0.2281
  431MOL0     C59396   4.445   6.385   7.884 -0.6566  0.0469  0.9369
  431MOL0     C59397   4.507   6.437   7.762 -0.2792 -0.1731  0.1881
  431MOL0     C59398   4.587   6.350   7.688 -1.3120 -0.0045  0.0299
  431MOL0     O59399   4.680   6.384   7.594  0.3218  0.3580  0.9504
  431MOL0     C59400   4.673   6.502   7.524  0.0786 -0.4721  0.5168
  431MOL0     C59401   4.761   6.621   7.590  0.1896 -0.3975 -0.5106
  431MOL0     C59402   4.725   6.747   7.510 -0.5067  0.4411 -0.1967
  431MOL0     C59403   4.832   6.853   7.527 -0.6111 -0.2657  0.2652
  431MOL0     C59404   4.801   6.976   7.446 -0.5863 -0.2357  0.4196
  431MOL0     C59405   4.770   7.067   7.379 -0.6313  0.4736  0.1476
  431MOL0     C59406   4.604   6.218   7.727  0.3090  0.2668  0.0206
  431MOL0     C59407   4.525   6.157   7.827 -0.1349 -0.8580 -0.0322
  431MOL0     C59408   4.557   6.000   7.836 -0.7637 -1.1472  0.6564
  431MOL0     H59409   4.108   6.328   8.225 -0.1128 -0.3235 -0.8772
  431MOL0     H59410   4.014   6.241   8.438  0.0907 -0.6514 -0.7798
  431MOL0     H59411   3.933   6.110   8.617  1.9355 -1.6384 -1.8003
  431MOL0     H59412   4.017   6.227   8.718 -1.1467  0.8142  1.3348
  431MOL0     H59413   4.087   6.078   8.890  0.2772 -0.8643  1.1848
  431MOL0     H59414   3.917   6.038   8.872  0.1130 -1.6499 -0.3066
  431MOL0     H59415   3.938   5.850   8.747 -0.8826 -0.8695  1.6300
  431MOL0     H59416   4.118   5.874   8.721 -0.3548  0.4983 -1.5879
  431MOL0     H59417   4.149   5.820   8.959 -1.0162 -1.1751  5.6574
  431MOL0     H59418   3.992   5.850   9.002  3.7864  0.8233  1.0583
  431MOL0     H59419   4.093   5.604   8.826 -0.0737 -0.7528  1.1291
  431MOL0     H59420   3.925   5.638   8.837  0.0271 -1.0535  0.1262
  431MOL0     H59421   3.898   5.553   9.040  0.1605 -0.2050  0.9079
  431MOL0     H59422   4.038   5.456   8.995  0.8677 -0.6797 -0.1384
  431MOL0     H59423   4.070   5.703   9.159 -0.0105  0.7133  0.0879
  431MOL0     H59424   4.192   5.593   9.112 -1.3314 -3.2128 -2.1548
  431MOL0     H59425   4.046   5.590   9.353 -0.2902  0.1064  0.3197
  431MOL0     H59426   3.910   5.535   9.250  0.1506  4.3512 -0.2313
  431MOL0     H59427   4.273   5.421   9.355  0.5171 -1.4168  1.5164
  431MOL0     H59428   4.285   5.047   9.291 -0.0735  2.0842 -3.0896
  431MOL0     H59429   4.327   5.134   9.446 -1.4785  0.0758  0.4314
  431MOL0     H59430   4.397   5.222   9.163 -1.4404 -0.7179  0.6532
  431MOL0     H59431   4.453   5.300   9.305 -2.1515  1.1561  0.5833
  431MOL0     H59432   4.586   5.126   9.176 -1.2637 -0.8621  0.2223
  431MOL0     H59433   4.596   5.122   9.356 -2.3849  1.1818  2.5163
  431MOL0     H59434   4.451   4.911   9.336  1.5847 -0.5040  0.8652
  431MOL0     H59435   4.459   4.922   9.160  1.5718 -0.7271  0.1765
  431MOL0     H59436   4.852   4.795   9.334 -1.3922  0.2618  2.2733
  431MOL0     H59437   4.973   4.458   9.382 -2.0198 -0.2422 -0.4065
  431MOL0     H59438   4.924   4.527   9.540  4.1722  0.0085  0.3707
  431MOL0     H59439   5.003   4.630   9.421 -0.7566  0.0168 -0.9422
  431MOL0     H59440   4.679   4.354   9.848 -1.4933 -1.1816  0.3943
  431MOL0     H59441   4.748   4.167  10.002  1.4850  3.4121 -0.6582
  431MOL0     H59442   4.701   3.782   9.801  0.4622 -0.4813  0.0205
  431MOL0     H59443   4.856   3.741   9.864 -1.3988 -1.2152 -2.3875
  431MOL0     H59444   4.770   3.721  10.099 -1.7010  2.3430  0.8493
  431MOL0     H59445   4.608   3.731  10.046  0.3965 -0.8588 -0.6740
  431MOL0     H59446   4.643   3.491  10.075  1.4899 -1.8130  1.8228
  431MOL0     H59447   4.801   3.488   9.991  1.1698  3.7647 -2.2793
  431MOL0     H59448   4.690   3.560   9.787 -2.9410  0.7654 -2.4361
  431MOL0     H59449   4.533   3.547   9.856  0.8772  1.6141 -1.5801
  431MOL0     H59450   4.610   3.297   9.945 -0.5321 -4.7074 -1.4682
  431MOL0     H59451   4.538   3.314   9.790  1.6080  1.0230 -1.1553
  431MOL0     H59452   4.837   3.292   9.877  0.2170 -4.2013  1.0764
  431MOL0     H59453   4.788   3.358   9.711  2.5958  0.2055 -0.4667
  431MOL0     H59454   4.651   3.126   9.720  0.0187  0.8021 -0.2453
  431MOL0     H59455   4.747   3.083   9.850 -2.2609 -3.9515 -1.8399
  431MOL0     H59456   4.875   3.178   9.590  0.5626 -0.0861  0.0776
  431MOL0     H59457   4.855   3.009   9.671 -0.9056  0.2084 -0.9189
  431MOL0     H59458   4.844   3.924   9.662  3.9036  1.0685 -0.1353
  431MOL0     H59459   4.807   4.125   9.516  1.2177 -1.6360 -0.2523
  431MOL0     H59460   4.480   4.470   9.324 -0.0231 -1.3610  0.2079
  431MOL0     H59461   4.460   4.693   9.232  2.2643  1.6439 -2.0923
  431MOL0     H59462   4.368   6.015   8.518  1.4429 -0.1009 -0.1168
  431MOL0     H59463   4.459   6.084   8.297 -1.0577 -0.5000  0.6420
  431MOL0     H59464   4.394   6.460   7.944 -1.2097  0.7710 -0.3839
  431MOL0     H59465   4.491   6.540   7.731 -2.4731 -1.2074 -2.6404
  431MOL0     H59466   4.695   6.485   7.419 -2.0177  0.5241 -0.1439
  431MOL0     H59467   4.569   6.535   7.515  1.6177  4.9719 -1.2854
  431MOL0     H59468   4.864   6.597   7.565  0.7566  1.2077  0.1664
  431MOL0     H59469   4.747   6.632   7.698  0.3885 -1.3313 -0.3759
  431MOL0     H59470   4.708   6.722   7.405 -0.1177 -3.0044  0.4396
  431MOL0     H59471   4.628   6.782   7.547 -0.1521 -0.4184  1.7016
  431MOL0     H59472   4.931   6.812   7.504 -1.2285 -1.5302 -0.2136
  431MOL0     H59473   4.823   6.891   7.629 -1.9707  3.8087 -1.1598
  431MOL0     H59474   4.754   7.144   7.307  0.0914  0.9511  0.4861
  431MOL0     H59475   4.669   6.151   7.671 -0.1704  0.7587 -1.1531
  431MOL0     H59476   4.533   5.959   7.934  0.2575 -0.2675  1.2935
  431MOL0     H59477   4.520   5.951   7.746 -0.6884  4.6402 -3.0917
  431MOL0     H59478   4.665   5.989   7.822 -0.0803  3.4303  0.8441
  432MOL0     O59479   5.751   0.112  10.921  0.4137  0.2351  0.4224
  432MOL0     C59480   5.654   0.112  11.002 -0.2508  0.3713  0.0498
  432MOL0     O59481   5.567   0.010  11.016  0.0099  0.5226 -0.0327
  432MOL0     C59482   5.567  -0.101  10.940 -0.3878  0.5411 -0.0916
  432MOL0     C59483   5.453  -0.173  10.960 -0.0208 -0.2681  0.4604
  432MOL0     C59484   5.433  -0.296  10.899 -0.7986 -0.3286  0.0067
  432MOL0     C59485   5.536  -0.343  10.813  0.1360 -0.9296 -0.7976
  432MOL0     O59486   5.538  -0.464  10.753  0.1376 -0.3400  0.1162
  432MOL0     C59487   5.455  -0.571  10.778  0.3928 -0.4471 -0.7081
  432MOL0     C59488   5.535  -0.692  10.741 -0.3272  0.0805 -0.6998
  432MOL0     C59489   5.462  -0.821  10.713 -0.0325 -0.7083 -0.2212
  432MOL0     C59490   5.548  -0.908  10.615  0.1259 -0.0829  0.1762
  432MOL0     C59491   5.469  -1.040  10.578  0.4487  0.0572  0.1799
  432MOL0     C59492   5.356  -1.023  10.473 -0.7451 -0.4649 -0.3234
  432MOL0     C59493   5.281  -1.156  10.437 -0.9865  0.2139  0.2702
  432MOL0     C59494   5.172  -1.142  10.325  0.1778  0.4423 -0.7495
  432MOL0     N59495   5.247  -1.099  10.207  0.0223 -0.4420  0.5434
  432MOL0     C59496   5.242  -1.159  10.080 -0.5974 -0.0321  0.4404
  432MOL0     C59497   5.303  -1.078   9.993 -0.5831 -0.2599  0.0402
  432MOL0     C59498   5.343  -1.092   9.851  0.0318 -0.0264 -0.0966
  432MOL0     C59499   5.370  -0.958   9.769  0.2903 -0.6741  0.7937
  432MOL0     C59500   5.243  -0.867   9.715 -1.2599 -0.0602 -0.2967
  432MOL0     C59501   5.279  -0.771   9.605 -0.6687  0.3466 -0.2929
  432MOL0     O59502   5.384  -0.674   9.638  0.4050 -0.6599  0.0990
  432MOL0     C59503   5.336  -0.558   9.704 -1.0626  0.0240  0.5548
  432MOL0     C59504   5.433  -0.461   9.727 -0.8756 -0.6456  0.2869
  432MOL0     C59505   5.400  -0.339   9.792 -0.0068  0.4723 -0.8217
  432MOL0     C59506   5.512  -0.252   9.815  0.3536 -0.2659  0.1158
  432MOL0     C59507   5.264  -0.326   9.845  0.5955  0.2872 -0.3559
  432MOL0     C59508   5.221  -0.207   9.912 -0.1242 -0.5717 -0.0286
  432MOL0     O59509   5.316  -0.114   9.954 -0.5402  0.8220 -0.4810
  432MOL0     C59510   5.295   0.011   9.991 -0.9017 -0.8697 -0.6335
  432MOL0     C59511   5.197   0.093   9.949 -0.7660 -0.0154 -0.1406
  432MOL0     C59512   5.191   0.221  10.007  0.8200 -0.3386 -0.0541
  432MOL0     C59513   5.269   0.269  10.108 -0.8057  0.6481 -0.4403
  432MOL0     O59514   5.241   0.390  10.161  0.8411  0.0273 -0.4149
  432MOL0     C59515   5.359   0.470  10.188  1.8547  0.2933 -0.4961
  432MOL0     C59516   5.318   0.614  10.209  0.1426 -0.0953 -0.7661
  432MOL0     C59517   5.418   0.709  10.281 -0.4921  0.1517 -0.3593
  432MOL0     C59518   5.518   0.753  10.182 -0.3594  0.1599 -0.1334
  432MOL0     C59519   5.600   0.862  10.260 -0.3717 -0.4441 -0.8573
  432MOL0     C59520   5.707   0.938  10.167 -0.3635 -0.0688  0.5285
  432MOL0     C59521   5.817   0.851  10.100  0.3233  0.0134 -0.2954
  432MOL0     C59522   5.913   0.776  10.193 -0.1069 -0.2062 -0.2818
  432MOL0    Cl59523   6.064   0.730  10.101  0.4244 -0.1723 -0.4167
  432MOL0     C59524   5.377   0.184  10.142  0.0853 -0.9791  0.1706
  432MOL0     C59525   5.387   0.063  10.085 -0.9330  0.0754 -0.4412
  432MOL0     O59526   5.100  -0.191   9.929  0.1721 -1.1448 -0.4022
  432MOL0     C59527   5.173  -0.428   9.834  0.7277  1.7632  0.1575
  432MOL0     C59528   5.207  -0.541   9.763 -0.3691 -0.1172 -0.4072
  432MOL0     N59529   5.318  -0.952  10.055 -0.3122  0.5072  0.0461
  432MOL0     N59530   5.282  -0.964  10.172  0.6024  0.7009 -0.8525
  432MOL0     C59531   5.645  -0.264  10.783  0.1222  0.6186 -0.1187
  432MOL0     C59532   5.666  -0.144  10.844 -0.6447  1.1595  0.9006
  432MOL0     C59533   5.639   0.238  11.092 -0.0159 -0.5333 -0.0824
  432MOL0     C59534   5.563   0.207  11.210  0.6782 -0.3879 -0.5667
  432MOL0     C59535   5.540   0.298  11.316 -0.7296  0.1619 -0.4158
  432MOL0     C59536   5.606   0.422  11.318  1.2617 -0.6064  0.3712
  432MOL0     O59537   5.589   0.503  11.431  0.1314  0.5338 -0.7525
  432MOL0     C59538   5.655   0.633  11.448 -0.1984 -0.3513  0.2792
  432MOL0     C59539   5.674   0.636  11.602  0.5207  0.4095 -0.3820
  432MOL0     C59540   5.766   0.528  11.677 -0.0867  0.4689  0.2120
  432MOL0     C59541   5.780   0.567  11.830 -0.2376 -0.5640  0.6991
  432MOL0     C59542   5.860   0.693  11.846 -0.0334 -0.2371 -0.0523
  432MOL0     C59543   5.940   0.787  11.819 -0.6101  0.6699  0.7570
  432MOL0     C59544   5.683   0.457  11.204  0.5178 -0.3597 -0.8562
  432MOL0     C59545   5.709   0.370  11.098  0.5836 -0.2871  0.2832
  432MOL0     C59546   5.817   0.403  10.999  0.2524  0.0486 -0.8146
  432MOL0     H59547   5.371  -0.141  11.024 -0.9770  0.0021 -0.8501
  432MOL0     H59548   5.343  -0.352  10.922 -0.1465 -1.1230  0.6656
  432MOL0     H59549   5.369  -0.561  10.711  0.7814 -1.1612 -1.3238
  432MOL0     H59550   5.419  -0.571  10.881 -0.7669  0.2617 -1.0938
  432MOL0     H59551   5.584  -0.667  10.646  1.7789 -1.6511 -0.1295
  432MOL0     H59552   5.613  -0.708  10.816  0.0361  1.2318 -0.8096
  432MOL0     H59553   5.446  -0.875  10.807  2.4833  0.6706  1.1144
  432MOL0     H59554   5.363  -0.797  10.673  0.9172  2.8204 -0.8062
  432MOL0     H59555   5.569  -0.856  10.521  0.8744  1.8557  1.3579
  432MOL0     H59556   5.635  -0.944  10.671  0.6616  1.0353  0.0826
  432MOL0     H59557   5.433  -1.087  10.670 -2.2489  0.9998 -0.2968
  432MOL0     H59558   5.547  -1.107  10.543 -1.0730 -2.1346  0.8001
  432MOL0     H59559   5.271  -0.960  10.502 -0.8501 -0.6363 -0.2633
  432MOL0     H59560   5.410  -0.990  10.384 -0.1885 -0.5255 -0.0067
  432MOL0     H59561   5.230  -1.193  10.526  1.2909  2.3433  2.6465
  432MOL0     H59562   5.368  -1.221  10.420 -0.8403  0.6778 -0.8788
  432MOL0     H59563   5.126  -1.238  10.300  2.0198 -0.1418 -2.1290
  432MOL0     H59564   5.097  -1.067  10.351  0.5512  0.3739  0.5752
  432MOL0     H59565   5.197  -1.258  10.072 -4.0095  1.4857 -1.3488
  432MOL0     H59566   5.265  -1.151   9.800  0.4321 -0.4839 -0.1856
  432MOL0     H59567   5.432  -1.154   9.852 -0.5295 -0.9295  2.8875
  432MOL0     H59568   5.442  -0.901   9.828  1.4494 -1.8766  0.5933
  432MOL0     H59569   5.433  -0.979   9.682  1.6460  3.3887  0.5862
  432MOL0     H59570   5.163  -0.924   9.667  1.4510 -2.1962 -2.6821
  432MOL0     H59571   5.193  -0.818   9.799  0.5337  1.7699 -0.2091
  432MOL0     H59572   5.307  -0.835   9.520 -1.6851  1.6578 -1.6578
  432MOL0     H59573   5.184  -0.721   9.581 -1.3614 -1.4833 -1.6082
  432MOL0     H59574   5.534  -0.478   9.689 -0.8863 -0.7567  0.3069
  432MOL0     H59575   5.522  -0.150   9.777  0.9880 -0.6990 -0.9475
  432MOL0     H59576   5.601  -0.287   9.761 -0.7324  2.2803 -3.6752
  432MOL0     H59577   5.521  -0.244   9.924 -3.8753 -0.4537  0.6292
  432MOL0     H59578   5.130   0.061   9.870 -2.1583 -2.2464  1.8057
  432MOL0     H59579   5.118   0.296   9.979  3.1291  2.6331  1.3771
  432MOL0     H59580   5.407   0.432  10.279  2.8731 -0.6307 -1.3990
  432MOL0     H59581   5.434   0.458  10.110  2.2087 -1.9886  0.1173
  432MOL0     H59582   5.272   0.659  10.120 -1.4687 -0.6760 -0.2684
  432MOL0     H59583   5.234   0.615  10.279  1.8585  3.8516  1.6139
  432MOL0     H59584   5.479   0.654  10.353  0.6393  1.0141 -0.6359
  432MOL0     H59585   5.359   0.793  10.321 -3.7784 -1.9000 -0.4953
  432MOL0     H59586   5.471   0.799  10.095 -0.1829 -1.3037 -1.0293
  432MOL0     H59587   5.580   0.668  10.154 -0.6457 -1.0310  2.5497
  432MOL0     H59588   5.527   0.938  10.289  2.6017  2.0927  0.5144
  432MOL0     H59589   5.650   0.818  10.347  0.3705  0.2558 -0.9151
  432MOL0     H59590   5.766   1.020  10.208 -1.8861  1.1525  0.3965
  432MOL0     H59591   5.646   0.989  10.092  0.8377  3.8243  1.9382
  432MOL0     H59592   5.888   0.903  10.034  0.0244 -0.9636 -1.4104
  432MOL0     H59593   5.766   0.767  10.053  0.0665 -0.5674  0.9807
  432MOL0     H59594   5.862   0.695  10.246 -2.1940  0.0525 -1.7780
  432MOL0     H59595   5.944   0.851  10.267  4.1245 -0.4602 -1.5269
  432MOL0     H59596   5.458   0.211  10.209  1.8448  0.8932 -2.5465
  432MOL0     H59597   5.480   0.011  10.102  1.2186  3.7605  0.1992
  432MOL0     H59598   5.072  -0.425   9.873  0.4330  4.0477 -0.5823
  432MOL0     H59599   5.130  -0.617   9.759  2.3632 -3.1890  0.7387
  432MOL0     H59600   5.714  -0.308  10.711 -0.3607 -1.3757  0.5634
  432MOL0     H59601   5.750  -0.085  10.810 -0.2970  1.0023  1.4775
  432MOL0     H59602   5.506   0.115  11.216  0.3470 -0.2415 -1.4080
  432MOL0     H59603   5.466   0.262  11.387 -3.1214  1.1903 -2.2280
  432MOL0     H59604   5.751   0.638  11.395 -1.1826  0.9933 -1.4628
  432MOL0     H59605   5.585   0.708  11.411 -2.9442 -2.3641  1.0160
  432MOL0     H59606   5.570   0.637  11.635  0.3214  2.6283 -0.9461
  432MOL0     H59607   5.717   0.735  11.621 -0.2830  0.7677 -0.3784
  432MOL0     H59608   5.733   0.424  11.680  2.0453 -0.2413  0.9187
  432MOL0     H59609   5.856   0.518  11.616 -0.5053 -1.6558 -0.1352
  432MOL0     H59610   5.828   0.493  11.895  0.5897 -0.3786  0.3168
  432MOL0     H59611   5.679   0.575  11.871  0.1362 -0.2440  1.5872
  432MOL0     H59612   6.004   0.866  11.785 -0.2097 -0.3305 -0.9177
  432MOL0     H59613   5.726   0.557  11.196  0.5683 -0.5127 -3.3616
  432MOL0     H59614   5.845   0.508  11.014  1.1622 -0.2670 -0.1910
  432MOL0     H59615   5.894   0.332  11.032  0.4059  0.7791  0.4954
  432MOL0     H59616   5.788   0.403  10.894 -1.4741 -0.5437 -0.3711
  433MOL0     O59617   4.985  10.037   7.213  0.0631  0.1980  0.5496
  433MOL0     C59618   5.007   9.921   7.178  0.0226  0.0599 -0.2459
  433MOL0     O59619   5.083   9.885   7.072 -0.2744 -0.5563 -0.7157
  433MOL0     C59620   5.194   9.956   7.036 -0.4961  0.1144  0.7820
  433MOL0     C59621   5.295   9.966   7.130 -1.3777  0.5644 -0.5127
  433MOL0     C59622   5.409  10.039   7.106 -0.7253 -0.1666  0.0301
  433MOL0     C59623   5.439  10.085   6.974  0.7267 -0.5124 -0.3286
  433MOL0     O59624   5.569  10.122   6.953 -0.0491  0.2246  0.4111
  433MOL0     C59625   5.606  10.132   6.812  0.5069 -0.7495 -0.4114
  433MOL0     C59626   5.743  10.212   6.812  0.5052  1.0256  0.4490
  433MOL0     C59627   5.817  10.182   6.682  0.2085  0.1638  0.2324
  433MOL0     C59628   5.951  10.264   6.658  0.1812  0.8179 -0.2648
  433MOL0     C59629   6.043  10.251   6.778 -0.4607  0.2382 -0.7285
  433MOL0     C59630   6.167  10.348   6.752  0.3238  0.4809 -0.1545
  433MOL0     C59631   6.246  10.308   6.627 -0.1147  0.1207  0.5363
  433MOL0     C59632   6.290  10.161   6.634 -0.7380 -0.0348 -0.1125
  433MOL0     N59633   6.378  10.108   6.514  0.8410  0.2419 -0.2037
  433MOL0     C59634   6.320  10.081   6.391 -0.9377  0.1610 -0.0789
  433MOL0     C59635   6.414  10.051   6.293 -0.5405 -0.1129  0.6508
  433MOL0     C59636   6.404  10.030   6.148 -0.9153 -0.4498 -0.2724
  433MOL0     C59637   6.533  10.055   6.069 -0.1370  0.0775  0.3920
  433MOL0     C59638   6.497  10.043   5.914 -0.3295 -0.3088  0.4793
  433MOL0     C59639   6.615  10.060   5.821 -0.4346 -0.0224  0.1611
  433MOL0     O59640   6.601  10.193   5.764 -0.5634  0.3175  0.2683
  433MOL0     C59641   6.560  10.215   5.641  0.0298  0.6255  0.6877
  433MOL0     C59642   6.479  10.321   5.625  0.1514 -0.0411 -0.5352
  433MOL0     C59643   6.428  10.366   5.500  0.1954 -0.6138 -0.4137
  433MOL0     C59644   6.338  10.495   5.501 -0.3537 -0.6752 -0.3431
  433MOL0     C59645   6.473  10.296   5.379 -0.3490  0.0745 -1.3922
  433MOL0     C59646   6.434  10.336   5.239 -0.3913 -0.3248 -0.2832
  433MOL0     O59647   6.497  10.280   5.135  0.7079 -0.2812  0.1090
  433MOL0     C59648   6.448  10.297   5.007 -0.0486  0.7682 -0.4893
  433MOL0     C59649   6.309  10.282   4.961 -0.7101  0.1445 -0.7943
  433MOL0     C59650   6.268  10.294   4.828  0.3464 -0.2556 -0.2744
  433MOL0     C59651   6.362  10.335   4.734 -0.5313 -0.0017 -0.2923
  433MOL0     O59652   6.310  10.373   4.606 -0.0913  0.4991 -0.0905
  433MOL0     C59653   6.395  10.376   4.494  0.6069 -0.4540 -0.5858
  433MOL0     C59654   6.468  10.521   4.464 -0.3103  0.4833 -0.5652
  433MOL0     C59655   6.492  10.538   4.316  0.4369 -0.3013 -0.1611
  433MOL0     C59656   6.564  10.661   4.283 -0.1570  0.8792 -0.7417
  433MOL0     C59657   6.602  10.655   4.132 -0.3865  0.6938  0.5756
  433MOL0     C59658   6.625  10.781   4.055 -0.2482 -0.0055 -0.1211
  433MOL0     C59659   6.496  10.864   4.043  0.2762 -0.3440 -1.1273
  433MOL0     C59660   6.500  10.977   3.936 -0.5858  0.8140  0.0224
  433MOL0    Cl59661   6.395  11.104   3.999  0.5093  0.1912 -0.6708
  433MOL0     C59662   6.494  10.349   4.775 -0.3146 -0.6598 -0.0100
  433MOL0     C59663   6.540  10.329   4.908 -0.5985  1.0065  0.6487
  433MOL0     O59664   6.327  10.405   5.230  0.6229 -0.1829 -1.3907
  433MOL0     C59665   6.565  10.195   5.402 -0.1717 -0.8953  0.7876
  433MOL0     C59666   6.602  10.145   5.526  0.1657 -0.3944 -0.9787
  433MOL0     N59667   6.528  10.056   6.370 -0.4082 -0.2894  0.2892
  433MOL0     N59668   6.511  10.073   6.495  0.0990 -0.5528 -0.4342
  433MOL0     C59669   5.333  10.085   6.880  0.2973  0.0826 -0.1898
  433MOL0     C59670   5.209  10.026   6.913 -0.0660  0.0132  0.1297
  433MOL0     C59671   4.946   9.811   7.253  0.3954  0.3165 -0.0359
  433MOL0     C59672   4.978   9.803   7.389 -0.4122  0.1818  0.0100
  433MOL0     C59673   4.932   9.704   7.469  1.7455  0.2267 -0.1238
  433MOL0     C59674   4.857   9.596   7.410 -0.3709  0.6955  0.6391
  433MOL0     O59675   4.820   9.489   7.484 -0.2151 -0.3217 -0.5297
  433MOL0     C59676   4.681   9.445   7.488 -0.0294  0.5662  0.3393
  433MOL0     C59677   4.655   9.394   7.633  1.0338  0.7971  1.0791
  433MOL0     C59678   4.751   9.273   7.659 -0.1920  0.4293  0.3623
  433MOL0     C59679   4.732   9.228   7.807 -0.0026  0.4876 -0.2363
  433MOL0     C59680   4.859   9.187   7.873 -1.4803  0.5828  1.2593
  433MOL0     C59681   4.967   9.151   7.919  0.5455  0.1420  0.5300
  433MOL0     C59682   4.829   9.605   7.277  0.2125  0.2180  0.8772
  433MOL0     C59683   4.871   9.712   7.199  0.0813  1.0496  0.5068
  433MOL0     C59684   4.829   9.713   7.050 -0.8592 -0.6617  0.1234
  433MOL0     H59685   5.298   9.904   7.219  0.3464 -3.1200 -2.9114
  433MOL0     H59686   5.494  10.045   7.174  1.6504  0.9856 -2.7980
  433MOL0     H59687   5.536  10.186   6.748  2.6484  2.4206 -0.3447
  433MOL0     H59688   5.610  10.029   6.777  0.2259 -0.7915 -0.3192
  433MOL0     H59689   5.736  10.321   6.819 -0.6930  0.8961  1.6728
  433MOL0     H59690   5.805  10.171   6.892  5.0770  0.7841 -2.7909
  433MOL0     H59691   5.839  10.076   6.692 -0.6559 -0.1607 -1.1043
  433MOL0     H59692   5.744  10.193   6.601 -1.1350  3.0176  1.6599
  433MOL0     H59693   5.995  10.239   6.561  1.0039  0.6805  0.1342
  433MOL0     H59694   5.916  10.367   6.655  0.0171  0.9946  3.2506
  433MOL0     H59695   6.080  10.149   6.792  1.1192  0.4067 -3.0858
  433MOL0     H59696   5.990  10.282   6.869  1.1455  2.1998 -0.3949
  433MOL0     H59697   6.131  10.451   6.760 -2.8432 -0.6532  3.4166
  433MOL0     H59698   6.228  10.325   6.840 -0.3238 -1.4931 -0.1760
  433MOL0     H59699   6.342  10.361   6.627  1.1323 -1.9798 -0.1810
  433MOL0     H59700   6.185  10.320   6.537  2.2015 -0.3184 -1.1938
  433MOL0     H59701   6.341  10.139   6.728 -2.2438 -1.9143  0.3157
  433MOL0     H59702   6.198  10.102   6.634 -0.7585 -0.0429  1.5804
  433MOL0     H59703   6.213  10.095   6.375 -1.3176 -0.0485  1.9673
  433MOL0     H59704   6.335  10.103   6.105  0.2940  0.1795 -1.1907
  433MOL0     H59705   6.384   9.922   6.146  3.0180 -1.4181  1.7600
  433MOL0     H59706   6.582  10.149   6.095  1.1682 -0.2361 -0.8125
  433MOL0     H59707   6.613   9.986   6.099  1.9620  2.1414 -0.1956
  433MOL0     H59708   6.449   9.947   5.892  0.4108 -0.5981  0.0799
  433MOL0     H59709   6.421  10.121   5.902 -0.2316 -0.5063 -1.9916
  433MOL0     H59710   6.708  10.068   5.878  0.5282  2.2338 -1.5514
  433MOL0     H59711   6.629   9.980   5.747 -1.3409  0.6404 -0.7639
  433MOL0     H59712   6.448  10.373   5.715 -1.9013 -0.6397 -0.8506
  433MOL0     H59713   6.356  10.549   5.595 -1.7261  2.1472 -1.5791
  433MOL0     H59714   6.232  10.465   5.495  0.0328 -2.1878 -0.1454
  433MOL0     H59715   6.358  10.557   5.414  0.3347 -0.7939 -0.2723
  433MOL0     H59716   6.246  10.233   5.036  1.6901  2.2181  2.9130
  433MOL0     H59717   6.165  10.270   4.805 -0.3107 -0.3474  2.4405
  433MOL0     H59718   6.470  10.297   4.509  0.5243  0.0026  3.2939
  433MOL0     H59719   6.347  10.343   4.401 -1.6442 -2.8126  1.2522
  433MOL0     H59720   6.396  10.589   4.510 -0.5794 -0.5070  0.5451
  433MOL0     H59721   6.566  10.518   4.514 -0.4965  2.3259 -0.0141
  433MOL0     H59722   6.398  10.547   4.262  0.7322  1.3840 -0.4445
  433MOL0     H59723   6.543  10.449   4.277  0.6008 -0.1472 -0.2991
  433MOL0     H59724   6.654  10.675   4.343 -0.2456 -0.1712 -0.3332
  433MOL0     H59725   6.496  10.743   4.303 -3.9886 -2.2090  0.1534
  433MOL0     H59726   6.695  10.597   4.129  0.1661  1.5972 -0.0863
  433MOL0     H59727   6.526  10.598   4.078  0.7109  0.8294 -1.1776
  433MOL0     H59728   6.661  10.785   3.952  0.1904  1.6777  0.0700
  433MOL0     H59729   6.700  10.839   4.109 -0.8057  1.9766 -1.3590
  433MOL0     H59730   6.482  10.919   4.136 -1.7493  1.5899 -2.4674
  433MOL0     H59731   6.410  10.802   4.019 -0.1081  0.6546 -2.4315
  433MOL0     H59732   6.460  10.947   3.839  0.6755 -2.7205  0.4514
  433MOL0     H59733   6.599  11.015   3.913 -0.5028 -1.8699 -5.6651
  433MOL0     H59734   6.572  10.369   4.702  0.3835  1.4244  1.2384
  433MOL0     H59735   6.646  10.339   4.928 -0.0136  0.4162 -1.8987
  433MOL0     H59736   6.619  10.165   5.313 -1.8732  0.9275 -0.9601
  433MOL0     H59737   6.673  10.064   5.536 -2.5788 -3.0575 -1.5687
  433MOL0     H59738   5.339  10.134   6.783  1.8674  0.0962 -0.1082
  433MOL0     H59739   5.134  10.009   6.836  0.0865  2.0036 -0.5172
  433MOL0     H59740   5.029   9.880   7.445 -1.9071  0.6441  0.8044
  433MOL0     H59741   4.967   9.699   7.571  1.9038 -1.5660 -0.2305
  433MOL0     H59742   4.615   9.527   7.457  0.4184  1.0130  0.5611
  433MOL0     H59743   4.659   9.364   7.418 -0.8450  1.5008 -0.5185
  433MOL0     H59744   4.549   9.368   7.642  0.1605  2.7151 -2.1478
  433MOL0     H59745   4.663   9.471   7.710 -4.0218  1.4468  1.3475
  433MOL0     H59746   4.720   9.192   7.593  0.8797 -1.9530  2.5933
  433MOL0     H59747   4.856   9.301   7.646 -0.4642  1.4676  0.3295
  433MOL0     H59748   4.670   9.138   7.811  0.9054 -0.2428 -1.8211
  433MOL0     H59749   4.700   9.312   7.870 -1.4124  0.5565 -1.0015
  433MOL0     H59750   5.069   9.126   7.941  0.9505 -2.7657 -3.5188
  433MOL0     H59751   4.776   9.517   7.241 -0.9931 -0.5504  4.2035
  433MOL0     H59752   4.737   9.655   7.035 -0.0234 -1.6355 -1.6398
  433MOL0     H59753   4.788   9.810   7.022  0.1602  0.0642  1.0759
  433MOL0     H59754   4.913   9.683   6.986  0.5778  4.2193 -0.6992
  434MOL0     O59755   8.865   7.725   2.553  0.3075 -0.3123  0.2861
  434MOL0     C59756   8.923   7.754   2.655  0.0091 -0.0971 -0.3699
  434MOL0     O59757   9.022   7.674   2.717  0.3878 -0.6510  0.0788
  434MOL0     C59758   9.075   7.575   2.640 -0.2769  1.1241  0.8344
  434MOL0     C59759   9.031   7.437   2.653 -0.3893 -0.4879  0.2228
  434MOL0     C59760   9.107   7.337   2.578  0.2578  0.9519  0.1904
  434MOL0     C59761   9.212   7.365   2.498  0.5005  0.6233  0.9677
  434MOL0     O59762   9.280   7.282   2.420  0.4769  0.7456 -0.0376
  434MOL0     C59763   9.252   7.139   2.428 -0.5774  0.2148  0.2044
  434MOL0     C59764   9.380   7.068   2.380  0.2914 -0.0879 -0.2182
  434MOL0     C59765   9.345   6.920   2.342 -1.2751  0.4080  0.4815
  434MOL0     C59766   9.475   6.866   2.252 -0.4431  0.3034  0.1780
  434MOL0     C59767   9.428   6.731   2.216 -0.3162  0.7159 -0.0711
  434MOL0     C59768   9.535   6.654   2.126  0.0831 -0.2476 -0.3206
  434MOL0     C59769   9.473   6.537   2.046  0.3698 -0.2642  0.3789
  434MOL0     C59770   9.586   6.453   1.994 -0.0894 -0.6532  0.5977
  434MOL0     N59771   9.541   6.352   1.897 -0.9569 -0.2508  0.0565
  434MOL0     C59772   9.458   6.253   1.935  0.3970 -0.5888 -0.2306
  434MOL0     C59773   9.421   6.192   1.822 -1.0563 -0.2736  0.8712
  434MOL0     C59774   9.332   6.070   1.832 -1.1684 -0.2928  0.2015
  434MOL0     C59775   9.412   5.958   1.898  0.3391 -0.6051  0.1257
  434MOL0     C59776   9.550   5.917   1.832 -0.6735 -0.6665 -0.2989
  434MOL0     C59777   9.547   5.860   1.692 -0.8905  0.4782  0.5356
  434MOL0     O59778   9.662   5.772   1.659  0.8190 -0.2602  0.2354
  434MOL0     C59779   9.661   5.717   1.533 -0.8784  0.9549  0.5395
  434MOL0     C59780   9.779   5.653   1.494  0.5652  1.1760 -1.1301
  434MOL0     C59781   9.805   5.599   1.365 -0.7437 -0.1355  0.0482
  434MOL0     C59782   9.935   5.537   1.335 -0.0268 -0.5040  0.0119
  434MOL0     C59783   9.704   5.601   1.274  0.2914  0.5512 -0.8898
  434MOL0     C59784   9.706   5.562   1.131 -0.6628  0.8856 -0.3923
  434MOL0     O59785   9.593   5.556   1.068 -0.1780  0.6249  1.2101
  434MOL0     C59786   9.593   5.494   0.938  0.3361  0.1877 -0.7222
  434MOL0     C59787   9.684   5.394   0.898 -0.0684  0.1565 -0.3506
  434MOL0     C59788   9.661   5.328   0.779  0.7341 -0.4513  0.5865
  434MOL0     C59789   9.551   5.360   0.699  0.4578  0.6931  0.7414
  434MOL0     O59790   9.533   5.303   0.577 -0.3214  0.1715  0.0631
  434MOL0     C59791   9.492   5.166   0.565  0.6682  0.1011 -0.5132
  434MOL0     C59792   9.347   5.145   0.547  0.8897  0.4624  0.9812
  434MOL0     C59793   9.322   4.985   0.546  0.8089 -1.0788 -0.8095
  434MOL0     C59794   9.171   4.987   0.483 -0.0907 -0.1393 -0.0680
  434MOL0     C59795   9.087   4.859   0.497  0.2447 -0.0150 -0.0837
  434MOL0     C59796   9.046   4.827   0.638  0.7794  0.0687 -0.4134
  434MOL0     C59797   8.927   4.916   0.681 -0.1767  0.4181 -0.1807
  434MOL0     C59798   8.889   4.904   0.835 -0.4767  0.5120 -0.1877
  434MOL0    Cl59799   8.748   5.013   0.840  0.0057  0.2370 -0.0866
  434MOL0     C59800   9.454   5.459   0.736 -0.1375 -0.8218  0.1458
  434MOL0     C59801   9.478   5.533   0.862  0.8509  0.4596 -0.1344
  434MOL0     O59802   9.822   5.555   1.084  0.7140  0.5628  0.4764
  434MOL0     C59803   9.574   5.653   1.319 -0.0510  0.6129  0.4612
  434MOL0     C59804   9.556   5.701   1.443  0.4242 -0.5194  0.9511
  434MOL0     N59805   9.497   6.234   1.714  0.4546  0.0295 -0.1893
  434MOL0     N59806   9.569   6.340   1.761  0.3417  0.7859 -1.0415
  434MOL0     C59807   9.240   7.506   2.476  0.8473  0.3607 -0.5452
  434MOL0     C59808   9.178   7.607   2.552  0.7191  0.4839 -0.2339
  434MOL0     C59809   8.882   7.880   2.727 -0.1959 -0.4673 -0.3615
  434MOL0     C59810   8.942   7.893   2.855 -0.3097 -0.9312 -1.1613
  434MOL0     C59811   8.909   8.012   2.937 -0.8133  0.1020  0.0886
  434MOL0     C59812   8.825   8.115   2.885  0.3831  0.1070  0.0312
  434MOL0     O59813   8.785   8.226   2.954  0.1751  0.4850 -0.1740
  434MOL0     C59814   8.887   8.302   3.018 -0.7840 -0.7662 -0.4844
  434MOL0     C59815   8.828   8.441   3.041  0.1323  0.2328  0.2107
  434MOL0     C59816   8.703   8.427   3.133  1.1886 -0.6846 -0.0327
  434MOL0     C59817   8.673   8.561   3.202 -0.1201 -0.4621 -0.2886
  434MOL0     C59818   8.742   8.546   3.329 -0.1508  0.3923 -0.6328
  434MOL0     C59819   8.832   8.551   3.418  0.2462 -1.1056  0.0872
  434MOL0     C59820   8.765   8.096   2.761  0.1760  0.7205  0.8026
  434MOL0     C59821   8.792   7.983   2.682  0.4871  0.5504  0.1430
  434MOL0     C59822   8.709   7.968   2.563 -0.5913 -0.4920 -0.8095
  434MOL0     H59823   8.936   7.423   2.703 -0.0107  1.1531  1.4896
  434MOL0     H59824   9.087   7.230   2.585  0.7603  0.9387  2.1846
  434MOL0     H59825   9.171   7.113   2.359 -0.4321 -0.8138  0.4165
  434MOL0     H59826   9.225   7.105   2.529 -2.5439  0.7332 -0.0897
  434MOL0     H59827   9.420   7.118   2.292  0.3974  1.5702  0.7263
  434MOL0     H59828   9.455   7.077   2.459  0.8470  2.1221 -0.9131
  434MOL0     H59829   9.320   6.856   2.427 -3.2716 -0.2138 -0.5237
  434MOL0     H59830   9.263   6.931   2.271  0.8096 -1.2062 -2.3614
  434MOL0     H59831   9.493   6.933   2.167 -0.8629 -2.8064 -2.5390
  434MOL0     H59832   9.568   6.867   2.310 -0.9809 -1.1955  1.1174
  434MOL0     H59833   9.329   6.730   2.169  0.1166  0.6097 -1.0066
  434MOL0     H59834   9.427   6.687   2.316 -1.9664 -0.9800 -0.7670
  434MOL0     H59835   9.580   6.729   2.060 -3.2850  1.4135 -0.9581
  434MOL0     H59836   9.610   6.612   2.193  0.2667  3.6710  2.2709
  434MOL0     H59837   9.419   6.581   1.961  0.3003  0.0021  0.5609
  434MOL0     H59838   9.401   6.480   2.105 -0.2538 -0.7134 -0.7675
  434MOL0     H59839   9.654   6.521   1.942  0.7782 -2.8527 -1.2979
  434MOL0     H59840   9.643   6.399   2.071  1.9862  0.4055 -0.1131
  434MOL0     H59841   9.438   6.225   2.038 -1.0904 -2.1201 -0.8850
  434MOL0     H59842   9.299   6.038   1.733  3.1499  0.5513 -1.7355
  434MOL0     H59843   9.242   6.085   1.892 -2.0524 -2.7252 -0.3990
  434MOL0     H59844   9.417   5.976   2.006 -2.0786 -1.2442  0.3847
  434MOL0     H59845   9.345   5.872   1.905  0.1106 -0.3356  1.8064
  434MOL0     H59846   9.622   5.999   1.828 -0.6785 -0.5536  1.1958
  434MOL0     H59847   9.600   5.845   1.897  3.0688  1.1647 -0.8792
  434MOL0     H59848   9.455   5.802   1.681 -0.1330 -1.1098  2.1450
  434MOL0     H59849   9.551   5.946   1.624  0.0862 -0.0682 -0.1190
  434MOL0     H59850   9.862   5.673   1.562 -2.7541  2.4610  2.9741
  434MOL0     H59851  10.001   5.575   1.256  2.0890 -1.2996  1.3038
  434MOL0     H59852   9.921   5.437   1.293 -0.3029  0.0925 -1.3766
  434MOL0     H59853   9.995   5.531   1.426  0.8452 -0.0937 -0.5178
  434MOL0     H59854   9.767   5.351   0.953  0.8271  0.4251 -1.4754
  434MOL0     H59855   9.733   5.252   0.751 -1.4102 -2.6027  0.4969
  434MOL0     H59856   9.545   5.114   0.485 -2.7269 -4.3430 -0.2700
  434MOL0     H59857   9.525   5.118   0.657  2.0206  1.0419 -0.4791
  434MOL0     H59858   9.283   5.180   0.628 -0.3692 -0.9810  0.6613
  434MOL0     H59859   9.321   5.203   0.457  1.5990 -0.9106 -0.1474
  434MOL0     H59860   9.336   4.951   0.648 -0.8182  0.9993  0.2009
  434MOL0     H59861   9.387   4.930   0.477  1.0374 -3.8646  1.4784
  434MOL0     H59862   9.171   5.022   0.380  0.1097 -2.2189 -0.8291
  434MOL0     H59863   9.115   5.062   0.541 -1.3272  0.4925 -1.9843
  434MOL0     H59864   8.997   4.862   0.436 -0.8272 -0.5642  1.3994
  434MOL0     H59865   9.157   4.790   0.448  1.1707  1.3000 -0.6544
  434MOL0     H59866   9.135   4.846   0.699  1.6717  0.7978 -1.8794
  434MOL0     H59867   9.025   4.720   0.644  0.7449  0.1563  1.8195
  434MOL0     H59868   8.851   4.908   0.603 -0.7084  0.9405  0.2700
  434MOL0     H59869   8.948   5.023   0.677 -1.7977  0.8945  1.9186
  434MOL0     H59870   8.971   4.944   0.896  0.7316  0.3030 -1.6101
  434MOL0     H59871   8.856   4.803   0.858 -0.4011 -0.3392 -3.3781
  434MOL0     H59872   9.370   5.487   0.673 -0.6061 -0.3636  0.9628
  434MOL0     H59873   9.423   5.614   0.909  2.1314  0.5996  1.1967
  434MOL0     H59874   9.488   5.661   1.253  0.0723  0.5185  0.2869
  434MOL0     H59875   9.454   5.736   1.459 -0.0938 -1.9946  1.0691
  434MOL0     H59876   9.313   7.535   2.402 -0.5560  1.2714 -1.6430
  434MOL0     H59877   9.197   7.709   2.520  1.7868  0.3406 -0.0987
  434MOL0     H59878   9.015   7.830   2.906  0.9485  3.3340  3.0426
  434MOL0     H59879   8.959   8.024   3.033  3.2643 -1.0623 -1.6500
  434MOL0     H59880   8.921   8.260   3.113  2.2979 -1.0787 -1.6234
  434MOL0     H59881   8.977   8.308   2.957  0.4761 -2.1136  1.1616
  434MOL0     H59882   8.802   8.475   2.940 -1.8846 -1.5981  0.0428
  434MOL0     H59883   8.906   8.505   3.084 -0.4455  1.9872 -1.2568
  434MOL0     H59884   8.621   8.405   3.065  2.1428  3.2290 -2.8355
  434MOL0     H59885   8.701   8.341   3.200 -2.1087  1.2014  2.6004
  434MOL0     H59886   8.565   8.568   3.212 -0.0053  2.5566 -0.4307
  434MOL0     H59887   8.713   8.644   3.143  0.0416 -1.0069 -0.9616
  434MOL0     H59888   8.898   8.568   3.501  1.2238 -2.0630 -0.4535
  434MOL0     H59889   8.694   8.171   2.727  1.4222  1.4931 -0.1873
  434MOL0     H59890   8.765   7.947   2.472  0.0478 -0.5964 -0.4027
  434MOL0     H59891   8.639   7.887   2.584 -0.5571 -0.5340 -0.8593
  434MOL0     H59892   8.664   8.066   2.546 -0.2411 -0.0739  0.5252
  435MOL0     O59893   3.839  11.412  10.066 -0.1158 -0.2046 -0.4587
  435MOL0     C59894   3.927  11.379   9.992  0.4572  0.3681  0.6909
  435MOL0     O59895   3.923  11.268   9.911  0.4345 -0.0860  0.3549
  435MOL0     C59896   3.794  11.216   9.898 -0.1461 -0.6947 -0.0959
  435MOL0     C59897   3.685  11.294   9.876  0.8001 -0.7999  0.3896
  435MOL0     C59898   3.561  11.244   9.879 -0.0096  1.1439 -0.0107
  435MOL0     C59899   3.537  11.107   9.896  0.0872 -0.5132  0.2586
  435MOL0     O59900   3.405  11.063   9.893  0.7101 -0.4284 -0.3820
  435MOL0     C59901   3.386  10.930   9.943 -0.3247 -0.9521  0.1412
  435MOL0     C59902   3.226  10.908   9.926 -0.0329 -0.5900  0.4520
  435MOL0     C59903   3.133  10.948  10.047  0.3107 -0.2158  0.0452
  435MOL0     C59904   3.142  11.101  10.091  0.6817 -0.2658 -0.2449
  435MOL0     C59905   3.048  11.124  10.205 -0.0981  0.7004  0.1457
  435MOL0     C59906   3.023  11.274  10.220 -0.5838 -0.2561 -0.9702
  435MOL0     C59907   3.021  11.339  10.359 -0.3940 -0.3593 -1.0075
  435MOL0     C59908   3.009  11.486  10.326 -0.1542  1.4317  0.7471
  435MOL0     N59909   2.865  11.530  10.294  1.0636 -0.2260 -1.0173
  435MOL0     C59910   2.824  11.548  10.170  0.5716  0.6441 -0.3529
  435MOL0     C59911   2.700  11.610  10.169 -0.0779  0.4647  0.3184
  435MOL0     C59912   2.637  11.667  10.039 -0.0484  0.1810  0.1595
  435MOL0     C59913   2.496  11.610  10.020  0.6076  0.3481  0.7638
  435MOL0     C59914   2.406  11.698   9.935  0.2187  0.2930  0.4470
  435MOL0     C59915   2.298  11.612   9.882  0.7405  0.3027 -0.1561
  435MOL0     O59916   2.202  11.600   9.990  0.6910 -0.2121  0.4482
  435MOL0     C59917   2.079  11.547   9.960 -0.0763 -1.0248 -0.3415
  435MOL0     C59918   2.038  11.475   9.853 -0.9236 -0.2290  0.7526
  435MOL0     C59919   1.904  11.432   9.834  0.8548  0.7213  0.3362
  435MOL0     C59920   1.868  11.388   9.694 -0.0002  0.9027 -0.6954
  435MOL0     C59921   1.808  11.449   9.942  0.0128 -0.8452  0.4831
  435MOL0     C59922   1.665  11.403   9.941  0.3036  1.1347 -0.0479
  435MOL0     O59923   1.594  11.394  10.061 -0.7145 -0.8042 -0.8522
  435MOL0     C59924   1.469  11.349  10.063  0.0324 -0.5013  0.0228
  435MOL0     C59925   1.435  11.233  10.138 -0.1431 -0.7086  0.0081
  435MOL0     C59926   1.306  11.186  10.158  0.4817 -0.2642 -0.4640
  435MOL0     C59927   1.198  11.261  10.107 -0.1892 -0.1895  0.4808
  435MOL0     O59928   1.069  11.224  10.133 -1.2082 -0.2961 -0.3276
  435MOL0     C59929   0.993  11.182  10.022 -0.4223 -0.3259 -0.1066
  435MOL0     C59930   0.874  11.284   9.985 -0.1568  0.3832  0.1353
  435MOL0     C59931   0.781  11.235   9.882  0.3070  0.6671 -0.8351
  435MOL0     C59932   0.722  11.103   9.915  0.8629  0.0416  1.0254
  435MOL0     C59933   0.620  11.062   9.798  0.0257  0.7346 -1.0625
  435MOL0     C59934   0.516  10.957   9.842  0.2316  0.2109 -0.4612
  435MOL0     C59935   0.393  11.024   9.916  0.4639  0.5237  0.7751
  435MOL0     C59936   0.292  10.904   9.948 -0.3091 -0.1862  0.4541
  435MOL0    Cl59937   0.184  10.959  10.077  0.5610 -0.2750 -0.1802
  435MOL0     C59938   1.240  11.369  10.024  0.8966 -1.3697 -0.5112
  435MOL0     C59939   1.366  11.414   9.999  1.0230 -0.4023  0.4133
  435MOL0     O59940   1.608  11.374   9.829  0.2034 -0.3757 -0.2640
  435MOL0     C59941   1.854  11.517  10.052  0.2200 -0.3769 -0.2206
  435MOL0     C59942   1.977  11.579  10.052  0.3674  0.5592  0.1578
  435MOL0     N59943   2.665  11.623  10.299 -0.6564  0.3499 -0.4367
  435MOL0     N59944   2.765  11.579  10.368  0.2427  0.3664 -1.2362
  435MOL0     C59945   3.656  11.027   9.906  0.4544 -0.8635  0.3009
  435MOL0     C59946   3.782  11.082   9.919 -0.2887  0.1300  0.7666
  435MOL0     C59947   4.043  11.463   9.968 -0.2619  0.1235  0.2180
  435MOL0     C59948   4.171  11.419   9.986 -0.2866  1.0709  0.1884
  435MOL0     C59949   4.282  11.501   9.968  0.3860  0.9229  0.2437
  435MOL0     C59950   4.271  11.631   9.914  0.0784  0.1327 -0.2094
  435MOL0     O59951   4.384  11.706   9.908 -0.7411 -0.3757 -0.5547
  435MOL0     C59952   4.386  11.840   9.874 -0.2060 -0.6088  0.1897
  435MOL0     C59953   4.524  11.895   9.917 -1.0252  0.4715 -0.2723
  435MOL0     C59954   4.634  11.826   9.833  0.0137 -0.0523 -1.0530
  435MOL0     C59955   4.765  11.899   9.820 -0.4363 -0.3569 -0.3164
  435MOL0     C59956   4.853  11.805   9.743 -0.9963 -0.0007  0.2766
  435MOL0     C59957   4.906  11.716   9.680 -0.5786 -0.1603 -0.3340
  435MOL0     C59958   4.142  11.680   9.896 -0.3839 -0.4100  0.4468
  435MOL0     C59959   4.037  11.596   9.924  0.4397 -0.1987  0.2288
  435MOL0     C59960   3.892  11.640   9.870 -0.3610 -0.1435  1.2617
  435MOL0     H59961   3.684  11.400   9.852  1.7228 -0.3635  2.1165
  435MOL0     H59962   3.477  11.308   9.856  2.0074  2.9956 -2.9144
  435MOL0     H59963   3.420  10.913  10.046  1.4973  0.8285 -0.1098
  435MOL0     H59964   3.430  10.854   9.878 -0.8414  0.4735 -1.9639
  435MOL0     H59965   3.192  10.938   9.827  0.0551 -3.2627 -0.4624
  435MOL0     H59966   3.223  10.800   9.907 -0.1455 -0.6843  0.9861
  435MOL0     H59967   3.029  10.932  10.018 -0.3467  3.8851 -0.5003
  435MOL0     H59968   3.165  10.883  10.128  4.1207  1.3693 -0.0006
  435MOL0     H59969   3.246  11.112  10.124  0.2386 -2.6431  2.3531
  435MOL0     H59970   3.127  11.169  10.007  3.4412  1.5913  0.6221
  435MOL0     H59971   3.090  11.099  10.303 -1.9146  1.7041  1.2507
  435MOL0     H59972   2.950  11.079  10.187  1.0505 -1.0557 -2.2170
  435MOL0     H59973   3.102  11.323  10.162 -0.6527 -1.7176 -2.3542
  435MOL0     H59974   2.927  11.301  10.175 -0.8026  1.8439  0.5849
  435MOL0     H59975   3.113  11.317  10.413 -0.8859 -1.5619 -0.6255
  435MOL0     H59976   2.939  11.306  10.424  0.0430  1.0801  0.3352
  435MOL0     H59977   3.051  11.544  10.409  2.1037  1.9134 -0.6557
  435MOL0     H59978   3.086  11.512  10.253  0.9171 -1.0543  0.9268
  435MOL0     H59979   2.876  11.533  10.077  1.0865 -3.7718  0.4155
  435MOL0     H59980   2.688  11.640   9.946 -1.8231 -1.5194 -0.3574
  435MOL0     H59981   2.636  11.776  10.056 -2.5765 -0.0536  2.0408
  435MOL0     H59982   2.499  11.510   9.978  0.5303  2.0784 -3.9452
  435MOL0     H59983   2.440  11.613  10.114  0.0401  0.9058  0.4175
  435MOL0     H59984   2.350  11.779   9.982  1.0861  0.5145  1.1268
  435MOL0     H59985   2.448  11.739   9.843 -1.3600  0.4115 -0.2555
  435MOL0     H59986   2.258  11.669   9.798  0.7860  0.1872 -0.2578
  435MOL0     H59987   2.334  11.517   9.842 -0.3608  0.9002 -2.7945
  435MOL0     H59988   2.121  11.470   9.783 -2.1543  1.6573 -0.9839
  435MOL0     H59989   1.805  11.299   9.694 -2.1079  2.3225 -1.4198
  435MOL0     H59990   1.958  11.370   9.634 -0.8688 -0.3423 -1.6856
  435MOL0     H59991   1.801  11.462   9.649  0.0986  1.5575  0.2054
  435MOL0     H59992   1.518  11.188  10.193  0.2189 -0.5943 -0.4381
  435MOL0     H59993   1.297  11.095  10.216  2.9901  0.9927  2.1555
  435MOL0     H59994   1.063  11.180   9.938 -0.7683 -1.5685 -0.3914
  435MOL0     H59995   0.950  11.085  10.046 -0.9680 -0.1951 -0.5167
  435MOL0     H59996   0.822  11.302  10.079  1.3376  1.9334  0.7030
  435MOL0     H59997   0.921  11.381   9.969 -1.5251  1.7577  3.5772
  435MOL0     H59998   0.830  11.224   9.785  3.2461  1.5549  0.4249
  435MOL0     H59999   0.698  11.306   9.874 -0.8912 -0.4193  1.2268
  435MOL0     H60000   0.672  11.110  10.012 -0.6317  1.5137  0.1879
  435MOL0     H60001   0.804  11.035   9.940  2.8645  2.4038  1.2960
  435MOL0     H60002   0.570  11.149   9.757 -0.0495  1.5083  0.5835
  435MOL0     H60003   0.682  11.016   9.720  1.3330 -0.5616  0.6550
  435MOL0     H60004   0.570  10.880   9.898 -0.6992 -1.0229 -1.1869
  435MOL0     H60005   0.494  10.891   9.758  3.7992 -3.7727  1.3434
  435MOL0     H60006   0.351  11.109   9.861  1.2337  1.8381  2.1449
  435MOL0     H60007   0.432  11.054  10.014  0.7214  0.7108  0.6160
  435MOL0     H60008   0.326  10.801   9.965 -0.8726 -0.3645  0.5164
  435MOL0     H60009   0.240  10.895   9.852  0.8538 -2.1894 -0.0446
  435MOL0     H60010   1.165  11.433   9.978  4.1051  1.6035 -2.0601
  435MOL0     H60011   1.392  11.495   9.933 -0.7183  0.7093  1.0126
  435MOL0     H60012   1.792  11.535  10.139  1.3884  0.4076  0.4728
  435MOL0     H60013   1.998  11.653  10.128  5.2270 -1.1102  0.7407
  435MOL0     H60014   3.649  10.920   9.924  2.5211 -0.9637  0.7371
  435MOL0     H60015   3.876  11.031   9.939 -0.4821 -0.9766 -0.9045
  435MOL0     H60016   4.193  11.320  10.024  2.2604  0.4707 -2.4762
  435MOL0     H60017   4.385  11.467   9.976  0.5966  1.6749  0.8534
  435MOL0     H60018   4.371  11.863   9.768 -0.2519 -1.9163 -0.0976
  435MOL0     H60019   4.308  11.895   9.928 -0.5666  2.2039 -2.8200
  435MOL0     H60020   4.541  11.885  10.024  0.9367 -0.5873 -0.6420
  435MOL0     H60021   4.537  12.003   9.913 -0.5494  0.5877  2.4855
  435MOL0     H60022   4.649  11.731   9.885 -0.0236  0.1419 -0.6866
  435MOL0     H60023   4.607  11.798   9.730  1.7671  1.3062 -1.9448
  435MOL0     H60024   4.800  11.924   9.921 -3.9367  4.1194  0.1298
  435MOL0     H60025   4.761  11.997   9.772  3.6778  0.9563  1.6140
  435MOL0     H60026   4.960  11.641   9.625  0.2681  2.2688 -3.0773
  435MOL0     H60027   4.106  11.775   9.857 -2.5569 -0.7240  1.5284
  435MOL0     H60028   3.896  11.748   9.855 -0.9695  0.0111  2.1075
  435MOL0     H60029   3.870  11.577   9.783 -1.3508  2.5819 -0.5851
  435MOL0     H60030   3.814  11.630   9.947  0.3145  1.6596  2.2449
  436MOL0     O60031   3.153   0.258   8.310  0.8864  0.2014 -0.2228
  436MOL0     C60032   3.149   0.251   8.427 -0.0508 -0.7480 -1.4919
  436MOL0     O60033   3.061   0.310   8.510 -0.2477  0.0959  0.4251
  436MOL0     C60034   2.962   0.385   8.443 -0.6182  0.8441 -0.2197
  436MOL0     C60035   2.884   0.335   8.344 -0.7827 -0.2968  0.0812
  436MOL0     C60036   2.783   0.400   8.288 -0.1740  0.6449 -0.3992
  436MOL0     C60037   2.755   0.529   8.333 -0.3068 -0.2360  0.3197
  436MOL0     O60038   2.660   0.610   8.262 -0.6655  0.4312  0.0643
  436MOL0     C60039   2.706   0.641   8.131  0.7966 -0.7503  0.4935
  436MOL0     C60040   2.751   0.788   8.124  0.5642  0.2294 -0.3434
  436MOL0     C60041   2.844   0.819   8.001 -0.6613  0.8785  0.8740
  436MOL0     C60042   2.915   0.949   8.010 -0.4001  0.2762 -0.7048
  436MOL0     C60043   3.021   0.955   7.903 -0.2225  0.4963  0.3319
  436MOL0     C60044   2.956   0.986   7.774 -0.1841 -0.2421 -0.0451
  436MOL0     C60045   3.064   1.014   7.667 -0.3112  0.0676  0.2184
  436MOL0     C60046   3.015   1.060   7.525 -0.2182  0.3861  1.0084
  436MOL0     N60047   2.994   1.209   7.501  0.4401  0.1630 -0.4656
  436MOL0     C60048   3.093   1.304   7.495 -0.5788 -0.1176  0.9206
  436MOL0     C60049   3.035   1.425   7.501  0.6498 -0.4862 -0.1027
  436MOL0     C60050   3.098   1.559   7.527  0.4556  0.3020  1.5516
  436MOL0     C60051   3.087   1.633   7.395 -0.0483 -0.1706  0.1061
  436MOL0     C60052   3.191   1.587   7.295 -0.4187  0.7220 -0.2339
  436MOL0     C60053   3.211   1.696   7.187 -0.8524  0.2608 -1.0084
  436MOL0     O60054   3.270   1.635   7.064  0.1173 -0.8252 -0.8619
  436MOL0     C60055   3.189   1.630   6.958  0.4188  0.7461 -0.1571
  436MOL0     C60056   3.054   1.667   6.944 -0.9176 -0.3016 -0.9162
  436MOL0     C60057   2.983   1.641   6.829  0.0096 -0.0039  0.2132
  436MOL0     C60058   2.844   1.699   6.823 -0.6635  0.7847  0.1143
  436MOL0     C60059   3.038   1.580   6.716  0.6548 -0.1655 -0.4165
  436MOL0     C60060   2.977   1.576   6.571  0.0239  0.0059  0.3004
  436MOL0     O60061   3.063   1.511   6.478  0.5490 -0.8887  0.0986
  436MOL0     C60062   3.019   1.507   6.352  0.1798 -0.1457  0.2042
  436MOL0     C60063   2.962   1.390   6.307  0.2018  0.1436 -0.0659
  436MOL0     C60064   2.910   1.379   6.173 -0.7255  0.3083 -0.8162
  436MOL0     C60065   2.920   1.480   6.088 -0.8906 -0.6477  0.3390
  436MOL0     O60066   2.870   1.461   5.956  0.2458  0.3762 -0.5222
  436MOL0     C60067   2.782   1.565   5.901 -0.2653 -0.5093  0.0250
  436MOL0     C60068   2.720   1.518   5.759 -0.7311 -0.3230 -0.1187
  436MOL0     C60069   2.693   1.374   5.735  0.4085  0.7553  0.4289
  436MOL0     C60070   2.715   1.337   5.584 -0.1818 -0.7196 -0.3692
  436MOL0     C60071   2.658   1.212   5.538  1.0636  0.2447 -0.9668
  436MOL0     C60072   2.697   1.093   5.623  0.1561  0.0443  0.4371
  436MOL0     C60073   2.690   0.955   5.558  0.3544  0.5265  0.0932
  436MOL0     C60074   2.768   0.857   5.647 -0.4970 -0.2936 -0.1610
  436MOL0    Cl60075   2.702   0.830   5.813 -0.2321 -0.2272 -0.4740
  436MOL0     C60076   2.992   1.599   6.128  0.2855  0.3104  0.1524
  436MOL0     C60077   3.042   1.609   6.256  0.5259  0.1246  0.0171
  436MOL0     O60078   2.855   1.613   6.553  0.0221  0.2928  0.8536
  436MOL0     C60079   3.162   1.516   6.736 -0.0861 -0.7024 -0.0674
  436MOL0     C60080   3.240   1.547   6.857 -0.2579  0.6969  0.2806
  436MOL0     N60081   2.903   1.407   7.508  0.0423  0.8016 -0.4819
  436MOL0     N60082   2.876   1.275   7.503  0.1605 -0.0731  0.3848
  436MOL0     C60083   2.837   0.593   8.427 -0.5016  0.3038 -0.9016
  436MOL0     C60084   2.932   0.509   8.497  0.5814 -0.1115 -0.2479
  436MOL0     C60085   3.264   0.174   8.480 -0.8967  0.3977  0.2174
  436MOL0     C60086   3.329   0.078   8.394 -0.2071 -0.7414 -0.0582
  436MOL0     C60087   3.427  -0.014   8.435  0.1695 -1.0976 -0.5810
  436MOL0     C60088   3.474  -0.005   8.568 -0.9484  0.8520  0.0192
  436MOL0     O60089   3.571  -0.089   8.614 -0.7105 -0.0404 -0.3195
  436MOL0     C60090   3.525  -0.201   8.696  0.4532  0.5487 -0.0412
  436MOL0     C60091   3.493  -0.324   8.609 -0.7842  0.4723 -0.6334
  436MOL0     C60092   3.446  -0.438   8.703 -0.0726 -0.4775  0.2643
  436MOL0     C60093   3.470  -0.575   8.627  0.0039 -0.0854 -0.0800
  436MOL0     C60094   3.447  -0.682   8.724  0.1524  0.3389  0.5792
  436MOL0     C60095   3.421  -0.758   8.817  0.2165 -0.2043 -0.3381
  436MOL0     C60096   3.426   0.094   8.651  0.8550  0.2009  0.1792
  436MOL0     C60097   3.316   0.174   8.618 -0.6758  0.6603 -0.0425
  436MOL0     C60098   3.248   0.257   8.723 -0.2315 -0.2979 -0.6536
  436MOL0     H60099   2.893   0.238   8.297 -0.1130  0.1584 -0.7590
  436MOL0     H60100   2.733   0.350   8.205  0.6759  0.3748 -0.7579
  436MOL0     H60101   2.613   0.620   8.076 -1.2297  0.5304  3.1791
  436MOL0     H60102   2.782   0.582   8.079  0.2059 -0.0595 -1.2193
  436MOL0     H60103   2.662   0.851   8.132  0.5347  0.6486 -3.1349
  436MOL0     H60104   2.815   0.793   8.213 -2.2937 -2.1526  2.0846
  436MOL0     H60105   2.918   0.740   7.983  0.9383  2.7295 -1.2564
  436MOL0     H60106   2.785   0.813   7.909 -0.1697 -1.0235  0.6275
  436MOL0     H60107   2.842   1.030   8.007 -1.5788 -0.5003  2.8874
  436MOL0     H60108   2.962   0.955   8.109 -2.6450 -1.8320  0.6032
  436MOL0     H60109   3.089   0.869   7.906 -2.2942 -1.2727 -0.3899
  436MOL0     H60110   3.073   1.045   7.938 -1.0190  0.0443  2.9462
  436MOL0     H60111   2.892   0.905   7.738 -0.7101 -0.3771  1.1743
  436MOL0     H60112   2.895   1.074   7.795 -1.6620 -0.5147 -2.6912
  436MOL0     H60113   3.118   0.921   7.650 -2.0373 -0.4627 -3.3413
  436MOL0     H60114   3.137   1.083   7.711 -0.9577 -1.0099  3.2235
  436MOL0     H60115   3.085   1.019   7.452 -0.6248  0.0267  0.8165
  436MOL0     H60116   2.914   1.018   7.519 -0.9158  1.8468  1.9255
  436MOL0     H60117   3.197   1.281   7.512 -0.5202 -1.0118 -0.4500
  436MOL0     H60118   3.204   1.544   7.548  0.1885 -1.8785  1.5577
  436MOL0     H60119   3.050   1.611   7.610  0.3373 -1.8243  2.8994
  436MOL0     H60120   2.991   1.619   7.346  0.3227 -3.8210  0.1788
  436MOL0     H60121   3.113   1.736   7.423  0.9630  0.1652 -1.8708
  436MOL0     H60122   3.282   1.561   7.351  0.6756  4.5792  0.0786
  436MOL0     H60123   3.161   1.494   7.246  4.6872  0.0396 -2.7840
  436MOL0     H60124   3.113   1.745   7.185 -0.4863  1.0669 -0.1917
  436MOL0     H60125   3.285   1.764   7.231 -0.5328 -1.0213  0.4928
  436MOL0     H60126   3.002   1.712   7.027  1.6589 -0.8055  1.0956
  436MOL0     H60127   2.777   1.625   6.779 -1.2608  0.9628  0.7014
  436MOL0     H60128   2.853   1.794   6.769  3.5321  1.2894  1.3663
  436MOL0     H60129   2.804   1.709   6.925  1.0245 -1.6721  1.1205
  436MOL0     H60130   2.958   1.306   6.375  4.8342 -1.7253 -1.7500
  436MOL0     H60131   2.852   1.292   6.143  0.1201 -1.0828  1.3549
  436MOL0     H60132   2.697   1.581   5.967  0.5828  1.5620  0.6822
  436MOL0     H60133   2.847   1.651   5.882  1.5668 -1.6323  0.8472
  436MOL0     H60134   2.621   1.563   5.760  0.1174  1.6544 -0.7756
  436MOL0     H60135   2.767   1.561   5.670 -2.5615  0.0569 -0.9495
  436MOL0     H60136   2.587   1.369   5.761 -0.7659  3.8357 -2.8741
  436MOL0     H60137   2.753   1.308   5.798 -1.6810 -3.6192 -1.7498
  436MOL0     H60138   2.823   1.331   5.566 -0.5402 -0.9777 -2.7081
  436MOL0     H60139   2.682   1.420   5.522  0.3440 -0.5199 -0.3924
  436MOL0     H60140   2.549   1.213   5.535  0.9691  2.0771  0.9018
  436MOL0     H60141   2.697   1.203   5.437 -0.5105  0.5092 -1.6202
  436MOL0     H60142   2.646   1.093   5.719  1.1310  1.0833  0.9886
  436MOL0     H60143   2.804   1.109   5.641 -0.1216  1.2121  1.1608
  436MOL0     H60144   2.722   0.952   5.453  2.2917 -1.7178  0.6771
  436MOL0     H60145   2.583   0.932   5.562  0.6325 -0.6584  2.4402
  436MOL0     H60146   2.873   0.884   5.658 -0.6645  0.4800 -0.4104
  436MOL0     H60147   2.761   0.758   5.601  1.1894 -0.8100  0.6065
  436MOL0     H60148   3.018   1.674   6.054  1.9955 -0.2167  0.1629
  436MOL0     H60149   3.102   1.698   6.275  1.9983 -0.1014 -2.9580
  436MOL0     H60150   3.209   1.457   6.659 -0.6310 -3.2897  1.4774
  436MOL0     H60151   3.342   1.516   6.874 -0.0143  1.0693 -0.4730
  436MOL0     H60152   2.809   0.695   8.452 -3.2287 -0.3870 -0.8276
  436MOL0     H60153   2.978   0.547   8.588 -2.4610 -0.6115  1.6515
  436MOL0     H60154   3.287   0.077   8.293  0.0162  0.9167 -0.1984
  436MOL0     H60155   3.454  -0.095   8.368  1.8784  0.2186 -1.5828
  436MOL0     H60156   3.606  -0.233   8.762 -0.9621 -0.0107  1.4904
  436MOL0     H60157   3.446  -0.176   8.768  1.1696  1.9512  0.3013
  436MOL0     H60158   3.590  -0.351   8.567 -0.3712 -0.3384  0.7704
  436MOL0     H60159   3.413  -0.311   8.535 -0.9202  1.4491 -0.3291
  436MOL0     H60160   3.503  -0.437   8.796 -2.0974 -4.2823  1.7495
  436MOL0     H60161   3.343  -0.423   8.736  0.3029  0.7385  0.9363
  436MOL0     H60162   3.576  -0.576   8.600  0.1551  0.3409  0.4787
  436MOL0     H60163   3.406  -0.593   8.540  0.0315 -1.4925  0.1665
  436MOL0     H60164   3.399  -0.815   8.905 -0.3287  1.4707  0.6529
  436MOL0     H60165   3.466   0.115   8.750  0.0718 -1.3795  0.8591
  436MOL0     H60166   3.271   0.360   8.694 -0.2550 -0.2514 -0.5105
  436MOL0     H60167   3.141   0.237   8.714  0.2605 -3.0405 -1.2322
  436MOL0     H60168   3.282   0.234   8.825 -1.0818  1.5598  0.0867
  437MOL0     O60169   9.765   9.586   0.207 -0.5781 -0.5508  0.1265
  437MOL0     C60170   9.688   9.608   0.300  0.3047  0.2398 -0.0403
  437MOL0     O60171   9.710   9.601   0.430  0.0939 -0.3341  0.5350
  437MOL0     C60172   9.837   9.593   0.476  0.5436  0.6689  0.4687
  437MOL0     C60173   9.865   9.499   0.573 -0.7706  0.0911 -0.0727
  437MOL0     C60174  10.008   9.477   0.602  0.0642  0.8902  1.2208
  437MOL0     C60175  10.113   9.539   0.547 -0.3161  0.8224 -0.4507
  437MOL0     O60176  10.235   9.520   0.601 -0.5389 -0.5533 -0.6534
  437MOL0     C60177  10.343   9.473   0.521  0.3628 -0.9735  0.4519
  437MOL0     C60178  10.412   9.595   0.460 -0.4726  0.5309 -0.0087
  437MOL0     C60179  10.545   9.570   0.396  0.0969  0.9748 -0.4622
  437MOL0     C60180  10.570   9.667   0.280 -0.7670  0.0234 -0.5541
  437MOL0     C60181  10.531   9.627   0.144  0.6413 -0.1963 -0.9198
  437MOL0     C60182  10.502   9.745   0.054 -1.2779  0.3231 -0.5775
  437MOL0     C60183  10.629   9.829   0.010  1.4510 -0.1132 -0.2917
  437MOL0     C60184  10.605   9.935  -0.097  0.3886  0.4217  0.4227
  437MOL0     N60185  10.480  10.004  -0.071 -0.3288 -0.6672  0.1116
  437MOL0     C60186  10.476  10.130  -0.005 -0.6521 -0.7157  0.0393
  437MOL0     C60187  10.352  10.179  -0.031  0.6441 -0.0582 -0.1413
  437MOL0     C60188  10.296  10.320   0.006 -0.2719  0.9206  0.0567
  437MOL0     C60189  10.159  10.311   0.058  0.2039  0.2892 -0.9030
  437MOL0     C60190  10.093  10.449   0.097 -0.5996  0.1846 -1.3822
  437MOL0     C60191   9.963  10.414   0.170 -0.8310  0.6912 -0.0183
  437MOL0     O60192   9.874  10.374   0.067  0.1609  0.0735 -0.0122
  437MOL0     C60193   9.750  10.331   0.096  0.9465  0.2710 -1.0044
  437MOL0     C60194   9.737  10.223   0.182 -0.1023 -0.0566  0.7867
  437MOL0     C60195   9.609  10.167   0.197 -0.8078  0.0307  0.2909
  437MOL0     C60196   9.603  10.032   0.276  0.7375 -0.4325 -0.3905
  437MOL0     C60197   9.493  10.230   0.137  0.3789  0.7829  0.7500
  437MOL0     C60198   9.349  10.168   0.145  0.3439  0.4248  0.3589
  437MOL0     O60199   9.256  10.224   0.067  0.2779  0.2868 -0.3840
  437MOL0     C60200   9.125  10.215   0.110 -0.2812  0.4843  0.1613
  437MOL0     C60201   9.072  10.259   0.229  0.2252 -0.2929 -0.4721
  437MOL0     C60202   8.937  10.255   0.267 -0.1646 -0.2458  0.0960
  437MOL0     C60203   8.841  10.206   0.173 -1.1808  0.0011  0.2680
  437MOL0     O60204   8.706  10.210   0.199 -0.0417 -0.2051  0.1219
  437MOL0     C60205   8.616  10.207   0.089  0.1560  0.4705 -0.5847
  437MOL0     C60206   8.480  10.245   0.154 -0.1174  0.0754  0.2439
  437MOL0     C60207   8.385  10.219   0.033  0.5135  0.0175 -0.2066
  437MOL0     C60208   8.243  10.208   0.081 -0.0029 -0.6915 -0.2692
  437MOL0     C60209   8.138  10.153  -0.014 -0.6952 -0.2939  0.1539
  437MOL0     C60210   7.993  10.143   0.033 -0.1699 -0.0606  0.1062
  437MOL0     C60211   7.932  10.283   0.052  0.1552  0.3600  0.5414
  437MOL0     C60212   7.795  10.315   0.005 -0.3442  0.1603  0.7060
  437MOL0    Cl60213   7.673  10.211   0.069  0.3348  0.5987  0.4025
  437MOL0     C60214   8.893  10.147   0.051 -0.1356  0.2655 -1.0316
  437MOL0     C60215   9.035  10.147   0.020  0.0952  0.2151 -0.1967
  437MOL0     O60216   9.321  10.086   0.237  0.1732  0.1887  0.5966
  437MOL0     C60217   9.511  10.348   0.067 -0.4797  0.1278 -0.7224
  437MOL0     C60218   9.643  10.406   0.054  0.0908 -1.2076  0.2561
  437MOL0     N60219  10.282  10.097  -0.115  0.0109 -1.1694 -0.3969
  437MOL0     N60220  10.360   9.994  -0.137  0.9308 -0.5122  0.3514
  437MOL0     C60221  10.085   9.642   0.456 -0.4460  0.4538 -0.0182
  437MOL0     C60222   9.950   9.667   0.423 -0.4266 -0.1044  0.0478
  437MOL0     C60223   9.547   9.657   0.263 -0.1081 -0.3096  0.2953
  437MOL0     C60224   9.464   9.723   0.359  0.4647 -0.4218 -0.6129
  437MOL0     C60225   9.327   9.768   0.339  0.0732  1.8163 -0.0646
  437MOL0     C60226   9.265   9.725   0.224 -0.9153 -0.5114 -0.1218
  437MOL0     O60227   9.135   9.727   0.185 -0.2376  0.6969 -0.5803
  437MOL0     C60228   9.047   9.801   0.270 -0.1479 -0.4816  0.0172
  437MOL0     C60229   8.896   9.797   0.241 -1.1772  0.6174 -1.4136
  437MOL0     C60230   8.808   9.886   0.332 -0.3489  0.1739 -0.6387
  437MOL0     C60231   8.810   9.852   0.482  0.6899  0.4970 -0.5759
  437MOL0     C60232   8.779   9.710   0.490  0.0451  0.4025  0.2120
  437MOL0     C60233   8.752   9.589   0.503 -0.2033  0.3988  0.1249
  437MOL0     C60234   9.347   9.654   0.134 -0.1445  0.1617  0.3217
  437MOL0     C60235   9.484   9.625   0.142 -0.4684 -0.7851  0.0274
  437MOL0     C60236   9.546   9.577   0.010 -0.9700 -0.1709  1.2429
  437MOL0     H60237   9.793   9.433   0.620  0.6569 -1.3564  0.1739
  437MOL0     H60238  10.022   9.403   0.680  2.7614  1.7135  1.6183
  437MOL0     H60239  10.291   9.408   0.450 -2.9465  0.5116  1.2975
  437MOL0     H60240  10.400   9.408   0.588 -2.9524 -3.1328  1.4350
  437MOL0     H60241  10.355   9.626   0.372  2.9092 -0.0067 -2.6387
  437MOL0     H60242  10.423   9.671   0.537 -0.7243  1.9780 -1.3579
  437MOL0     H60243  10.627   9.595   0.465  1.1617  1.7988 -1.9608
  437MOL0     H60244  10.560   9.466   0.365 -3.1406  0.6832 -1.4101
  437MOL0     H60245  10.525   9.765   0.298 -0.4648  0.9590 -4.1464
  437MOL0     H60246  10.679   9.674   0.281 -0.8249  1.9378 -2.0589
  437MOL0     H60247  10.452   9.551   0.142  1.1389 -0.7310 -2.4713
  437MOL0     H60248  10.609   9.570   0.093 -1.1127 -2.0068 -1.7083
  437MOL0     H60249  10.469   9.702  -0.041 -0.0441  0.2559 -0.9977
  437MOL0     H60250  10.429   9.816   0.093  1.4687  3.6452 -1.0012
  437MOL0     H60251  10.692   9.750  -0.032  0.6902 -1.5837  1.1913
  437MOL0     H60252  10.679   9.884   0.089  0.5030  2.0824 -1.1435
  437MOL0     H60253  10.696   9.996  -0.097  1.6345 -1.3008 -1.6424
  437MOL0     H60254  10.591   9.891  -0.196 -1.9455  1.3686  0.2526
  437MOL0     H60255  10.549  10.187   0.052  0.0910 -2.3368  0.7534
  437MOL0     H60256  10.306  10.383  -0.083 -0.0933  2.6476  1.2512
  437MOL0     H60257  10.355  10.356   0.090  0.1650 -0.0956  0.1984
  437MOL0     H60258  10.102  10.267  -0.025 -2.7042  1.7601  0.1828
  437MOL0     H60259  10.143  10.238   0.138  0.2204  1.1919 -0.0572
  437MOL0     H60260  10.154  10.506   0.167 -3.6046  1.2734  0.5176
  437MOL0     H60261  10.071  10.516   0.012 -3.3992  0.6792 -0.3712
  437MOL0     H60262   9.973  10.334   0.244  1.3517 -0.6577 -1.6475
  437MOL0     H60263   9.923  10.500   0.225  1.5591  1.3724  0.7356
  437MOL0     H60264   9.826  10.176   0.222  2.3735  1.0010 -2.9448
  437MOL0     H60265   9.579   9.947   0.212  1.2446 -1.4934  0.7842
  437MOL0     H60266   9.533  10.033   0.360 -0.0832 -0.5192 -1.0554
  437MOL0     H60267   9.704  10.004   0.306 -0.3634 -2.4855  1.7256
  437MOL0     H60268   9.140  10.310   0.297 -2.6256  2.4169  0.6074
  437MOL0     H60269   8.892  10.283   0.362 -1.8357 -0.2088 -0.6631
  437MOL0     H60270   8.655  10.276   0.013  3.2580  0.9101  1.2543
  437MOL0     H60271   8.595  10.113   0.037 -0.2430  1.8580 -3.1072
  437MOL0     H60272   8.452  10.172   0.230 -0.6376 -0.8243 -0.7802
  437MOL0     H60273   8.482  10.351   0.179  1.0360  0.5888 -1.7822
  437MOL0     H60274   8.395  10.124  -0.019 -1.2653 -0.8954  1.0007
  437MOL0     H60275   8.396  10.296  -0.044  1.2353  0.1964  0.0643
  437MOL0     H60276   8.203  10.304   0.115 -0.2723 -0.4791 -1.1649
  437MOL0     H60277   8.253  10.159   0.179  2.0302  0.5778  0.2249
  437MOL0     H60278   8.147  10.214  -0.104  2.0366 -1.7116 -0.6677
  437MOL0     H60279   8.154  10.047  -0.035  0.4680  0.0119 -0.5941
  437MOL0     H60280   7.989  10.085   0.125 -0.8043 -2.1287 -1.1693
  437MOL0     H60281   7.926  10.092  -0.037 -0.3887  2.4004 -1.6351
  437MOL0     H60282   7.989  10.357  -0.006 -2.8229  2.6794  0.2994
  437MOL0     H60283   7.939  10.313   0.157 -2.8903  2.6837  0.2372
  437MOL0     H60284   7.807  10.314  -0.104  2.0124  0.0211  0.9053
  437MOL0     H60285   7.766  10.417   0.033 -1.9441 -1.3731  5.6273
  437MOL0     H60286   8.833  10.102  -0.028 -0.7844 -0.7140 -0.0193
  437MOL0     H60287   9.076  10.096  -0.066 -0.1593  1.6212 -1.1737
  437MOL0     H60288   9.430  10.405   0.022 -0.7622  0.2636 -0.0651
  437MOL0     H60289   9.658  10.501   0.005  0.0200 -0.9102  0.8028
  437MOL0     H60290  10.155   9.707   0.403 -1.0410  0.2978 -1.0199
  437MOL0     H60291   9.944   9.754   0.358  2.8818  1.3783  1.5022
  437MOL0     H60292   9.505   9.764   0.451 -1.9590  3.7766 -1.1706
  437MOL0     H60293   9.267   9.824   0.410  0.5979  0.5694  1.4290
  437MOL0     H60294   9.074   9.762   0.369 -1.2215  1.0154  0.9318
  437MOL0     H60295   9.090   9.902   0.268  2.5740 -1.5034  1.2830
  437MOL0     H60296   8.864   9.694   0.257  1.3808 -0.0156  0.1935
  437MOL0     H60297   8.882   9.819   0.135 -0.9579 -0.8719 -1.7659
  437MOL0     H60298   8.837   9.990   0.314 -3.8049  1.0477 -2.1486
  437MOL0     H60299   8.703   9.881   0.299  0.0750  1.0760 -2.2153
  437MOL0     H60300   8.735   9.909   0.536  0.8954  0.5173 -0.3075
  437MOL0     H60301   8.903   9.871   0.537 -1.0808  0.2300  2.7551
  437MOL0     H60302   8.706   9.494   0.519 -1.4735  0.5600 -2.1062
  437MOL0     H60303   9.303   9.618   0.041 -1.3667 -0.2168  1.0132
  437MOL0     H60304   9.543   9.468   0.007 -1.2438 -0.2054  2.4700
  437MOL0     H60305   9.495   9.614  -0.080 -3.9383 -4.1030  1.0029
  437MOL0     H60306   9.651   9.605   0.001 -1.2110  0.3309 -0.4539
  438MOL0     O60307   2.028   2.875   2.529 -0.2687 -0.3682  0.3220
  438MOL0     C60308   2.058   2.919   2.419  0.0348  0.5940  0.0265
  438MOL0     O60309   2.175   2.983   2.383 -0.2630  0.1887  0.1398
  438MOL0     C60310   2.284   2.995   2.466  0.4474 -0.1642 -0.9168
  438MOL0     C60311   2.347   2.882   2.531 -0.2836  0.6339 -0.8463
  438MOL0     C60312   2.473   2.905   2.599  0.2999 -1.0074 -0.5937
  438MOL0     C60313   2.525   3.039   2.594 -0.3821 -0.3831  0.1360
  438MOL0     O60314   2.653   3.051   2.643  0.3482 -0.3026  0.0661
  438MOL0     C60315   2.751   3.100   2.555  0.4018  1.1158  0.8881
  438MOL0     C60316   2.853   3.171   2.641  1.0264 -0.0589  0.8446
  438MOL0     C60317   2.786   3.294   2.699  0.6474  0.2134  0.4848
  438MOL0     C60318   2.885   3.393   2.759 -0.1637  0.0356  0.9676
  438MOL0     C60319   2.821   3.514   2.826 -0.3145  0.0282 -1.1948
  438MOL0     C60320   2.918   3.559   2.935 -0.0853 -0.6086  0.7193
  438MOL0     C60321   2.865   3.685   3.001 -0.1728 -0.4692  0.8654
  438MOL0     C60322   2.904   3.685   3.151 -0.5790  0.6010 -0.5229
  438MOL0     N60323   2.994   3.796   3.179  0.0788  0.1697 -0.0082
  438MOL0     C60324   3.132   3.785   3.191  0.6539  0.2429  0.4421
  438MOL0     C60325   3.166   3.912   3.185  0.4577 -0.5027 -0.0567
  438MOL0     C60326   3.309   3.962   3.177  0.5049  0.4885 -0.4280
  438MOL0     C60327   3.369   3.912   3.043  0.6473 -0.1511 -0.0618
  438MOL0     C60328   3.341   4.008   2.932 -0.2015 -0.2967 -0.6675
  438MOL0     C60329   3.398   3.951   2.797 -0.2182  0.9299  0.6509
  438MOL0     O60330   3.361   4.020   2.683 -0.5705  0.0225  0.1991
  438MOL0     C60331   3.233   4.010   2.636  0.9795 -0.5152 -0.4534
  438MOL0     C60332   3.193   4.104   2.541  0.3238  0.2125  0.5954
  438MOL0     C60333   3.073   4.091   2.483  0.3424 -0.1748  0.8161
  438MOL0     C60334   3.046   4.186   2.376  0.0577 -0.5814 -0.8036
  438MOL0     C60335   2.975   3.999   2.528  0.0163 -0.1677  0.1675
  438MOL0     C60336   2.845   3.996   2.459  0.1777  0.1276 -0.0951
  438MOL0     O60337   2.837   3.984   2.325 -0.0645  0.0782 -0.1050
  438MOL0     C60338   2.725   3.977   2.265  0.7724 -0.7549 -0.4716
  438MOL0     C60339   2.639   3.865   2.277 -0.4048  0.2017  0.2319
  438MOL0     C60340   2.518   3.859   2.226  0.8627 -0.9941 -0.0815
  438MOL0     C60341   2.462   3.965   2.157  0.5959 -0.7154  0.3742
  438MOL0     O60342   2.327   3.971   2.118  0.2165 -0.3015  0.7012
  438MOL0     C60343   2.248   4.096   2.097 -0.2700 -0.5992 -0.3337
  438MOL0     C60344   2.110   4.065   2.154  0.5024 -0.1634 -0.7328
  438MOL0     C60345   2.012   4.172   2.111 -0.1364  0.7042 -0.7460
  438MOL0     C60346   2.001   4.215   1.965  0.4808  0.7710 -0.3877
  438MOL0     C60347   1.852   4.242   1.919 -0.2164 -0.6111 -0.9929
  438MOL0     C60348   1.844   4.264   1.770  0.6836  0.1508  0.5451
  438MOL0     C60349   1.747   4.387   1.741 -0.6194  0.7568  0.6421
  438MOL0     C60350   1.702   4.374   1.599  0.6467 -0.6189 -0.2056
  438MOL0    Cl60351   1.594   4.501   1.576  0.2852 -0.2980 -0.2726
  438MOL0     C60352   2.537   4.086   2.147 -0.2752 -0.9164 -0.5513
  438MOL0     C60353   2.676   4.087   2.195  0.2289 -0.9154  0.3152
  438MOL0     O60354   2.745   4.018   2.530 -0.3500 -0.0071 -0.3325
  438MOL0     C60355   3.003   3.923   2.635 -0.2897 -0.8947  0.4649
  438MOL0     C60356   3.130   3.924   2.687  0.3462 -0.2236  0.7352
  438MOL0     N60357   3.063   3.997   3.183 -0.0840 -0.6476 -0.2504
  438MOL0     N60358   2.954   3.924   3.184 -0.4639  0.4022  0.1347
  438MOL0     C60359   2.459   3.150   2.548 -0.2559 -0.2022  0.3461
  438MOL0     C60360   2.337   3.125   2.481  0.0271  0.2087  0.2188
  438MOL0     C60361   1.964   2.903   2.312  0.4403  0.1306  0.1233
  438MOL0     C60362   2.021   2.869   2.187  0.2214  0.3999  0.1007
  438MOL0     C60363   1.935   2.866   2.076  0.6356  0.4095  0.6002
  438MOL0     C60364   1.796   2.892   2.090 -0.4619 -0.0529  0.4013
  438MOL0     O60365   1.710   2.894   1.985  0.7911  0.3868 -0.2206
  438MOL0     C60366   1.746   2.926   1.853 -0.5083  0.2699 -0.5099
  438MOL0     C60367   1.659   3.024   1.790  0.3464  0.1050 -0.8018
  438MOL0     C60368   1.509   2.971   1.744 -0.6951  0.4967  0.3763
  438MOL0     C60369   1.429   3.093   1.700  0.4202 -0.6113  0.5425
  438MOL0     C60370   1.284   3.051   1.677 -1.0663  0.3512 -0.4317
  438MOL0     C60371   1.173   3.017   1.662  0.3750  0.6141  0.4082
  438MOL0     C60372   1.744   2.912   2.213 -0.1046 -0.3189  0.7252
  438MOL0     C60373   1.821   2.923   2.325 -0.6120 -0.1352 -0.6521
  438MOL0     C60374   1.740   2.942   2.456 -0.5161 -0.3652 -0.4882
  438MOL0     H60375   2.304   2.783   2.533 -0.5050  0.6124  3.5219
  438MOL0     H60376   2.524   2.829   2.657  2.7894 -0.6346 -2.1161
  438MOL0     H60377   2.700   3.163   2.483  0.5119  1.4710  1.1204
  438MOL0     H60378   2.794   3.010   2.509 -0.7645  0.3378  1.2797
  438MOL0     H60379   2.878   3.109   2.727 -0.0901 -1.1107  0.4528
  438MOL0     H60380   2.942   3.192   2.581  0.6548  2.7072  1.1439
  438MOL0     H60381   2.729   3.351   2.624 -0.9927  0.4451  1.8349
  438MOL0     H60382   2.717   3.268   2.780  1.0060 -0.9691  0.4171
  438MOL0     H60383   2.954   3.332   2.817  2.3597  2.4500  0.6769
  438MOL0     H60384   2.942   3.429   2.673 -0.0162  0.4676  1.2413
  438MOL0     H60385   2.725   3.505   2.878 -0.4938  2.3217 -1.0183
  438MOL0     H60386   2.797   3.590   2.752  0.6107  1.7793  0.2257
  438MOL0     H60387   2.921   3.485   3.016 -0.7156 -2.7694 -1.1280
  438MOL0     H60388   3.014   3.576   2.886 -1.1552 -1.6192 -1.9595
  438MOL0     H60389   2.756   3.692   2.995 -0.2021 -1.4563 -0.1135
  438MOL0     H60390   2.905   3.773   2.949 -1.0447  0.4902  1.7964
  438MOL0     H60391   2.809   3.696   3.204 -1.3409  4.3892 -2.3798
  438MOL0     H60392   2.960   3.598   3.187  2.4655  2.0979 -1.2853
  438MOL0     H60393   3.198   3.699   3.195 -0.6632 -0.8371 -0.1422
  438MOL0     H60394   3.369   3.926   3.260  0.1999  0.4553 -0.2179
  438MOL0     H60395   3.303   4.072   3.183  0.3970  0.3914  2.3996
  438MOL0     H60396   3.477   3.896   3.054  0.6860 -0.2014 -0.5052
  438MOL0     H60397   3.330   3.813   3.020 -2.5353  0.6185  1.4274
  438MOL0     H60398   3.235   4.033   2.925 -0.4402 -1.2031 -0.4599
  438MOL0     H60399   3.396   4.099   2.955 -3.2101  1.5701 -0.2790
  438MOL0     H60400   3.507   3.949   2.803 -0.2056  1.3680  0.6033
  438MOL0     H60401   3.367   3.847   2.790 -0.5116  1.1023 -1.0203
  438MOL0     H60402   3.250   4.185   2.496  1.5447  0.3073  2.1898
  438MOL0     H60403   2.978   4.261   2.418  1.1171  0.3421 -0.6968
  438MOL0     H60404   3.002   4.137   2.288  0.0080  2.3379 -2.5483
  438MOL0     H60405   3.132   4.242   2.339 -1.7257  0.9051 -3.0170
  438MOL0     H60406   2.670   3.782   2.339 -0.3570 -0.4119 -0.5912
  438MOL0     H60407   2.447   3.777   2.234 -1.9963  1.4474  1.4390
  438MOL0     H60408   2.300   4.186   2.134 -1.5015  0.1238 -0.3229
  438MOL0     H60409   2.259   4.105   1.988  1.4182 -0.1778 -0.1712
  438MOL0     H60410   2.082   3.962   2.130 -1.3434  0.4276 -1.2977
  438MOL0     H60411   2.107   4.076   2.263  0.4493 -0.9231 -0.6507
  438MOL0     H60412   2.034   4.265   2.165  2.8697  0.7914 -1.9290
  438MOL0     H60413   1.916   4.126   2.135  0.9819 -1.6228 -0.4788
  438MOL0     H60414   2.023   4.132   1.898 -0.0430  1.4043 -1.3879
  438MOL0     H60415   2.068   4.298   1.939  2.5105 -0.6924 -0.0595
  438MOL0     H60416   1.781   4.163   1.946 -1.3539  0.5117 -0.5480
  438MOL0     H60417   1.810   4.331   1.968 -0.0307 -0.6978 -0.6785
  438MOL0     H60418   1.814   4.175   1.713  1.0823 -1.2773  2.4578
  438MOL0     H60419   1.941   4.287   1.725  1.1556 -1.9994  0.3281
  438MOL0     H60420   1.812   4.474   1.757 -0.4888  1.1666 -1.7916
  438MOL0     H60421   1.663   4.383   1.811  1.5970  2.5963  3.6931
  438MOL0     H60422   1.641   4.284   1.591 -1.6957  0.2033  4.5634
  438MOL0     H60423   1.787   4.373   1.530  0.0298  1.6908 -1.0963
  438MOL0     H60424   2.516   4.160   2.071  4.4163  1.9136  0.5092
  438MOL0     H60425   2.735   4.175   2.174 -0.6640  0.2667  2.4636
  438MOL0     H60426   2.932   3.848   2.669  0.6838 -1.8947  0.3523
  438MOL0     H60427   3.158   3.852   2.764 -0.4077  2.0152  3.2514
  438MOL0     H60428   2.495   3.251   2.562 -0.5784 -0.2009  1.2290
  438MOL0     H60429   2.289   3.221   2.462  1.6657  2.0511  4.0878
  438MOL0     H60430   2.127   2.855   2.167 -0.2922 -2.0945 -1.2979
  438MOL0     H60431   1.972   2.851   1.976 -1.2837  1.0604 -0.2699
  438MOL0     H60432   1.845   2.972   1.861  1.0840 -2.5413 -2.2905
  438MOL0     H60433   1.760   2.838   1.789  1.1203  0.0352  0.1313
  438MOL0     H60434   1.691   3.052   1.689  2.0005  1.9082  0.1608
  438MOL0     H60435   1.656   3.119   1.843 -0.6116  0.8087 -2.0427
  438MOL0     H60436   1.527   2.908   1.656 -1.0723  3.0793 -1.6832
  438MOL0     H60437   1.455   2.914   1.819  1.4771 -0.9902  0.9117
  438MOL0     H60438   1.461   3.124   1.601  0.0311 -3.8569 -0.7152
  438MOL0     H60439   1.440   3.172   1.776 -1.0563 -0.4134  0.5879
  438MOL0     H60440   1.069   2.992   1.653  1.3737 -3.6172 -2.3401
  438MOL0     H60441   1.638   2.932   2.218  0.5082  3.3771  2.5123
  438MOL0     H60442   1.633   2.945   2.430 -0.5047 -6.1737 -2.5859
  438MOL0     H60443   1.758   2.869   2.535 -0.9958  1.9753  1.9217
  438MOL0     H60444   1.755   3.038   2.505 -0.8469 -1.4767  1.9487
  439MOL0     O60445   1.803   0.012   2.514 -0.6358 -0.1609 -0.0387
  439MOL0     C60446   1.874  -0.025   2.427 -0.3636 -0.1425 -0.2565
  439MOL0     O60447   1.890   0.033   2.301 -0.4982 -0.0451  1.4656
  439MOL0     C60448   1.834   0.159   2.280 -0.5282 -0.0385 -0.7360
  439MOL0     C60449   1.916   0.274   2.320 -0.7371 -0.2341 -0.2391
  439MOL0     C60450   1.873   0.403   2.305  1.2844  0.1726 -0.5292
  439MOL0     C60451   1.748   0.428   2.246 -0.7779  0.8986  0.2489
  439MOL0     O60452   1.717   0.560   2.229  0.6429  0.2458 -0.4157
  439MOL0     C60453   1.586   0.601   2.196  0.3041 -0.2471 -0.4272
  439MOL0     C60454   1.562   0.612   2.042  0.5894  0.6608 -0.3197
  439MOL0     C60455   1.442   0.696   2.007 -0.8189 -0.4172  0.5087
  439MOL0     C60456   1.302   0.656   2.073 -0.3598 -0.5469  0.4342
  439MOL0     C60457   1.261   0.514   2.060 -0.1315 -0.7918  0.3175
  439MOL0     C60458   1.113   0.486   2.112 -0.1608  0.7009 -0.2717
  439MOL0     C60459   1.062   0.336   2.098 -0.4996  0.4006  0.0330
  439MOL0     C60460   0.943   0.324   2.191  0.2010  0.3126  0.3000
  439MOL0     N60461   0.878   0.198   2.169  0.6961 -0.5130 -1.2176
  439MOL0     C60462   0.785   0.166   2.076  0.4765  0.1970 -0.1873
  439MOL0     C60463   0.748   0.040   2.105  0.1093 -0.4593 -1.2923
  439MOL0     C60464   0.635  -0.022   2.028 -1.0236  0.2452  0.0129
  439MOL0     C60465   0.504   0.044   2.068 -1.0685  0.7684 -0.1682
  439MOL0     C60466   0.382  -0.042   2.034 -0.4242 -0.0371 -0.7019
  439MOL0     C60467   0.251   0.031   2.028 -0.3501 -1.1202  0.2670
  439MOL0     O60468   0.149  -0.064   1.993  0.1943  0.3911 -0.3328
  439MOL0     C60469   0.019  -0.024   1.981 -0.3198 -1.0776  0.7457
  439MOL0     C60470  -0.037   0.113   1.960  0.7220  0.9832  0.0288
  439MOL0     C60471  -0.177   0.128   1.919 -1.0712 -0.8192 -0.4849
  439MOL0     C60472  -0.220   0.277   1.883 -1.0275  0.5921 -0.4862
  439MOL0     C60473  -0.258   0.019   1.896  0.8786 -0.1026 -0.2603
  439MOL0     C60474  -0.410   0.034   1.896  0.2992  0.7109  0.0885
  439MOL0     O60475  -0.465   0.160   1.899 -0.5719 -0.3039  0.0233
  439MOL0     C60476  -0.596   0.184   1.903  0.4217  0.3331 -0.1851
  439MOL0     C60477  -0.675   0.178   2.022  0.5169  0.5682  0.7545
  439MOL0     C60478  -0.814   0.198   2.025 -0.5130  0.1241 -0.4747
  439MOL0     C60479  -0.882   0.223   1.907  0.7299  0.7047 -0.2628
  439MOL0     O60480  -1.021   0.243   1.915 -0.8534 -0.0950  0.6550
  439MOL0     C60481  -1.082   0.329   1.813 -0.9675  0.1684 -0.5939
  439MOL0     C60482  -1.224   0.302   1.833  0.6142  1.8857 -0.2587
  439MOL0     C60483  -1.277   0.377   1.956 -0.7343 -0.5667 -0.2289
  439MOL0     C60484  -1.432   0.393   1.953 -0.2156  0.0226 -0.6784
  439MOL0     C60485  -1.491   0.463   2.067  0.0979  0.1957  0.5347
  439MOL0     C60486  -1.451   0.608   2.064 -0.4647 -0.1029  0.3993
  439MOL0     C60487  -1.531   0.693   2.163 -0.3348  0.2935  0.4132
  439MOL0     C60488  -1.459   0.818   2.195  0.8872  0.2739 -0.1479
  439MOL0    Cl60489  -1.547   0.910   2.318  0.6343  0.2691  0.4518
  439MOL0     C60490  -0.810   0.218   1.786  0.7553 -0.0010  0.5825
  439MOL0     C60491  -0.674   0.192   1.782 -0.1571  0.0472 -0.2170
  439MOL0     O60492  -0.476  -0.063   1.868 -0.2118  0.0814 -0.2424
  439MOL0     C60493  -0.204  -0.105   1.927 -0.0180  0.1540 -0.4997
  439MOL0     C60494  -0.071  -0.129   1.974  1.2543 -0.2958 -0.0010
  439MOL0     N60495   0.840  -0.010   2.205 -0.0950 -0.4332  0.1542
  439MOL0     N60496   0.919   0.090   2.241 -0.6279 -0.1702  0.4611
  439MOL0     C60497   1.668   0.316   2.208 -1.1999 -0.2961 -0.1169
  439MOL0     C60498   1.707   0.181   2.230  0.0063 -0.1502 -0.9307
  439MOL0     C60499   1.954  -0.145   2.449 -1.8340 -0.1636 -0.4557
  439MOL0     C60500   2.018  -0.198   2.336 -0.8873  0.4420 -0.1855
  439MOL0     C60501   2.097  -0.315   2.348  0.4943  0.9042 -0.1602
  439MOL0     C60502   2.115  -0.383   2.471 -0.2068 -0.5078 -0.6520
  439MOL0     O60503   2.190  -0.493   2.470 -0.0207  0.2461 -0.8603
  439MOL0     C60504   2.169  -0.595   2.573  0.2341 -0.5506 -0.3048
  439MOL0     C60505   2.235  -0.725   2.528  0.1597  0.5729  0.4845
  439MOL0     C60506   2.251  -0.837   2.637 -0.4854  0.2595  0.1333
  439MOL0     C60507   2.348  -0.957   2.594  0.2921  0.0001 -0.2150
  439MOL0     C60508   2.297  -1.014   2.473 -0.4531 -0.6204  0.7066
  439MOL0     C60509   2.274  -1.050   2.357 -0.4110  0.8164 -0.4121
  439MOL0     C60510   2.052  -0.332   2.582  0.2839 -0.2794  0.6820
  439MOL0     C60511   1.979  -0.214   2.576  0.8634  0.0529  0.4829
  439MOL0     C60512   1.932  -0.163   2.709  0.6372 -0.7762 -0.5447
  439MOL0     H60513   2.013   0.246   2.361 -1.5232 -1.8707  0.5941
  439MOL0     H60514   1.933   0.489   2.333  0.1634  1.5381 -2.0778
  439MOL0     H60515   1.557   0.701   2.230 -1.8320  0.4517 -3.7549
  439MOL0     H60516   1.515   0.532   2.244 -0.6834  1.2705  0.3708
  439MOL0     H60517   1.651   0.665   2.006  2.1174 -1.3009  0.4114
  439MOL0     H60518   1.553   0.516   1.991  2.5903  0.9893 -1.3885
  439MOL0     H60519   1.468   0.798   2.037 -1.8653  0.5980 -1.7687
  439MOL0     H60520   1.424   0.695   1.899  1.2590  0.4167  0.1041
  439MOL0     H60521   1.305   0.678   2.180  0.1322 -0.0029  0.3152
  439MOL0     H60522   1.236   0.719   2.013  0.6177 -0.1073 -0.2070
  439MOL0     H60523   1.327   0.464   2.132  2.2649  2.5598  0.6671
  439MOL0     H60524   1.287   0.485   1.958  0.6408 -1.7331  0.7644
  439MOL0     H60525   1.096   0.521   2.215  1.2579 -0.7800  0.5215
  439MOL0     H60526   1.041   0.542   2.053  1.2264 -0.4069 -3.2269
  439MOL0     H60527   1.145   0.272   2.130 -1.8662 -1.3175  0.2390
  439MOL0     H60528   1.035   0.311   1.995  0.7905  3.1183 -1.0605
  439MOL0     H60529   0.980   0.330   2.294  0.0617 -1.0639  0.4574
  439MOL0     H60530   0.878   0.411   2.177  1.2342  0.8860 -1.2196
  439MOL0     H60531   0.745   0.238   2.004  1.6883  2.1549  1.0288
  439MOL0     H60532   0.641  -0.124   2.066 -0.2785  0.5835  0.8417
  439MOL0     H60533   0.666  -0.022   1.923  1.7993  0.2816  0.7704
  439MOL0     H60534   0.501   0.066   2.176 -1.3897  1.8367 -0.3846
  439MOL0     H60535   0.496   0.139   2.014 -0.7286 -1.1005 -3.8004
  439MOL0     H60536   0.394  -0.082   1.933  2.2626  2.3493 -1.4452
  439MOL0     H60537   0.376  -0.124   2.106  4.0024  2.3317  2.8751
  439MOL0     H60538   0.234   0.074   2.127  2.5740 -0.9102  0.7764
  439MOL0     H60539   0.269   0.111   1.956 -0.6605  1.3245  2.7401
  439MOL0     H60540   0.036   0.193   1.959  1.8991  0.1348 -4.4095
  439MOL0     H60541  -0.285   0.308   1.965 -2.1049 -2.4323 -0.0897
  439MOL0     H60542  -0.272   0.279   1.787 -1.5985 -1.2694 -0.2479
  439MOL0     H60543  -0.135   0.345   1.870  1.0031 -2.0339 -1.9059
  439MOL0     H60544  -0.634   0.155   2.120 -0.4196  0.0563  1.0406
  439MOL0     H60545  -0.868   0.195   2.118  1.2646 -0.1081  0.5964
  439MOL0     H60546  -1.062   0.437   1.815 -2.7113  0.5157 -0.2727
  439MOL0     H60547  -1.048   0.300   1.713  2.6947  2.8104 -0.3492
  439MOL0     H60548  -1.274   0.338   1.742 -1.2203  0.8605  0.2894
  439MOL0     H60549  -1.247   0.195   1.841 -2.8678  2.4669 -0.6454
  439MOL0     H60550  -1.242   0.480   1.948  2.2680 -1.5475 -0.6700
  439MOL0     H60551  -1.228   0.326   2.039 -2.0882 -2.0917 -0.3204
  439MOL0     H60552  -1.459   0.288   1.957 -0.4545  0.0525 -1.3358
  439MOL0     H60553  -1.465   0.436   1.858  2.0666 -2.6671 -2.8915
  439MOL0     H60554  -1.600   0.462   2.059  0.1429  1.7856 -1.1023
  439MOL0     H60555  -1.460   0.407   2.156  1.2675 -1.3956 -0.8313
  439MOL0     H60556  -1.468   0.648   1.963 -1.1759 -2.2272 -0.3684
  439MOL0     H60557  -1.342   0.613   2.077  0.4788 -1.3432 -4.8532
  439MOL0     H60558  -1.549   0.635   2.254  4.9950 -3.1425 -0.2868
  439MOL0     H60559  -1.631   0.718   2.124 -1.0209  0.8506  2.4003
  439MOL0     H60560  -1.451   0.876   2.103 -0.3046  2.0727  0.8203
  439MOL0     H60561  -1.357   0.799   2.232  1.4053  3.6591  0.4649
  439MOL0     H60562  -0.865   0.221   1.693 -2.4011 -5.1360  1.8848
  439MOL0     H60563  -0.627   0.169   1.687  0.7392 -0.1925  0.2709
  439MOL0     H60564  -0.262  -0.197   1.930 -0.9970  0.7318 -0.9946
  439MOL0     H60565  -0.031  -0.227   1.997 -0.1195 -1.2382 -1.4333
  439MOL0     H60566   1.579   0.340   2.152  1.2062  2.9622 -2.9717
  439MOL0     H60567   1.640   0.102   2.196  0.6575 -2.0255  1.7717
  439MOL0     H60568   2.007  -0.152   2.239 -1.2504 -0.1842 -0.4448
  439MOL0     H60569   2.157  -0.354   2.266 -1.7326  1.5471 -2.2029
  439MOL0     H60570   2.221  -0.556   2.661 -1.7054  2.4130 -0.3191
  439MOL0     H60571   2.068  -0.613   2.611  0.7889 -1.3783  0.8401
  439MOL0     H60572   2.334  -0.707   2.485  0.8306  1.3402  2.2347
  439MOL0     H60573   2.177  -0.770   2.447 -3.4586  3.6914  1.0378
  439MOL0     H60574   2.309  -0.796   2.720  0.3274 -1.2394  0.3412
  439MOL0     H60575   2.147  -0.858   2.666 -1.4053  2.6825 -1.1008
  439MOL0     H60576   2.328  -1.018   2.682 -1.0410  3.5868  2.1707
  439MOL0     H60577   2.451  -0.920   2.587  0.0410  0.7982  0.2282
  439MOL0     H60578   2.259  -1.077   2.255 -3.7930 -2.3748  0.6717
  439MOL0     H60579   2.084  -0.367   2.680 -2.1890 -0.6241  1.4359
  439MOL0     H60580   1.825  -0.141   2.700  0.9192  0.1577 -1.8750
  439MOL0     H60581   1.953  -0.236   2.787  2.2445 -2.3407 -2.3377
  439MOL0     H60582   1.984  -0.072   2.738  0.9241 -1.0085 -0.3200
  440MOL0     O60583   9.894   7.599   7.477  0.2417 -0.1626  1.1089
  440MOL0     C60584   9.869   7.480   7.483  0.4275  0.2035  0.5212
  440MOL0     O60585   9.918   7.390   7.385  0.3816  0.5193  0.1582
  440MOL0     C60586   9.971   7.423   7.266 -0.3096 -0.0840 -0.3205
  440MOL0     C60587  10.058   7.331   7.215 -0.3784 -0.4496 -0.4024
  440MOL0     C60588  10.121   7.337   7.091 -0.6178 -0.1403  0.0112
  440MOL0     C60589  10.099   7.451   7.010 -0.0341  0.3815 -0.2303
  440MOL0     O60590  10.165   7.459   6.889 -0.3212  0.4320  0.3080
  440MOL0     C60591  10.222   7.583   6.865 -0.0304  0.9293 -0.1858
  440MOL0     C60592  10.288   7.594   6.729  0.1136  0.6975 -0.2520
  440MOL0     C60593  10.402   7.499   6.719  0.2737  0.0734  0.5232
  440MOL0     C60594  10.470   7.525   6.579  0.1299 -0.4045  0.5994
  440MOL0     C60595  10.585   7.433   6.552  0.2045 -0.2315  0.4786
  440MOL0     C60596  10.712   7.469   6.633  0.4548 -0.3060  0.3777
  440MOL0     C60597  10.832   7.372   6.633 -0.2790  0.7210  0.5094
  440MOL0     C60598  10.969   7.437   6.656 -0.3521 -0.3086  0.6261
  440MOL0     N60599  11.076   7.337   6.654  0.1312  0.3875  0.1038
  440MOL0     C60600  11.107   7.241   6.568 -0.2980  0.4032 -0.1090
  440MOL0     C60601  11.189   7.152   6.631 -0.1542 -0.0150 -1.5239
  440MOL0     C60602  11.227   7.017   6.591 -0.3095 -0.4064 -0.5090
  440MOL0     C60603  11.380   6.990   6.571 -0.3911 -0.1386 -0.4384
  440MOL0     C60604  11.448   6.960   6.709  0.2890  0.3462  0.1190
  440MOL0     C60605  11.595   6.923   6.694 -0.1696  0.4909 -0.6291
  440MOL0     O60606  11.684   7.025   6.635 -0.0574 -0.0836 -0.8891
  440MOL0     C60607  11.815   6.980   6.593  0.5698 -0.3138 -0.2363
  440MOL0     C60608  11.880   6.856   6.620 -0.1033  0.2132  0.4687
  440MOL0     C60609  12.010   6.827   6.570 -0.2567 -0.4012 -0.6972
  440MOL0     C60610  12.067   6.691   6.607  0.5726 -0.0469 -0.0325
  440MOL0     C60611  12.088   6.931   6.508 -0.1212  0.4562  1.0135
  440MOL0     C60612  12.226   6.916   6.454 -1.4585  0.9388  0.2554
  440MOL0     O60613  12.280   7.014   6.381 -0.2180 -0.2988 -0.4003
  440MOL0     C60614  12.408   7.003   6.362 -0.1418 -0.0837 -0.3449
  440MOL0     C60615  12.462   7.013   6.233 -0.5250  0.4847  1.0664
  440MOL0     C60616  12.595   7.024   6.210 -0.9163 -0.3976  0.1551
  440MOL0     C60617  12.686   7.019   6.319  0.8465 -0.2546  0.5915
  440MOL0     O60618  12.819   7.052   6.318  0.3112  0.4687 -0.5449
  440MOL0     C60619  12.880   7.103   6.204 -0.2863  0.3200 -0.0891
  440MOL0     C60620  13.023   7.167   6.241 -0.2388  1.1309  0.3283
  440MOL0     C60621  13.084   7.256   6.144  0.7502  0.1275 -1.1871
  440MOL0     C60622  13.024   7.398   6.156  0.0798  0.2520  0.2726
  440MOL0     C60623  13.113   7.501   6.082 -0.2192  0.3568  0.5663
  440MOL0     C60624  13.042   7.636   6.056  0.0180  0.0968 -0.0528
  440MOL0     C60625  13.141   7.747   6.009  1.2795 -0.4995 -1.0138
  440MOL0     C60626  13.063   7.871   5.956 -0.3734  0.4844  0.2564
  440MOL0    Cl60627  12.976   7.954   6.085  0.0920 -0.3393 -0.1494
  440MOL0     C60628  12.639   6.991   6.449 -0.7359 -0.9419 -0.8032
  440MOL0     C60629  12.497   6.997   6.476  0.0367 -0.7721 -0.0322
  440MOL0     O60630  12.280   6.810   6.482 -1.0996  0.3226  0.3901
  440MOL0     C60631  12.014   7.059   6.480 -0.1460  0.4937  0.2898
  440MOL0     C60632  11.884   7.080   6.525 -1.0938 -0.3088  0.7458
  440MOL0     N60633  11.228   7.216   6.745  0.0878  0.2258 -0.4769
  440MOL0     N60634  11.160   7.324   6.758  0.6580 -0.1817 -0.5061
  440MOL0     C60635   9.999   7.535   7.053 -0.1847 -0.8599  0.4566
  440MOL0     C60636   9.944   7.525   7.179 -0.7257 -0.2772 -0.0431
  440MOL0     C60637   9.796   7.432   7.596  0.6449  0.1062  0.0364
  440MOL0     C60638   9.823   7.303   7.638 -1.1915 -0.4705 -0.6994
  440MOL0     C60639   9.770   7.253   7.752 -0.2768  0.3952  0.3472
  440MOL0     C60640   9.696   7.327   7.839  1.0182 -0.1586 -1.0939
  440MOL0     O60641   9.631   7.270   7.947 -0.9350  0.8204  0.2244
  440MOL0     C60642   9.623   7.350   8.073 -0.4452 -0.6913  0.1248
  440MOL0     C60643   9.581   7.246   8.178 -0.4054  0.0368  0.8948
  440MOL0     C60644   9.530   7.326   8.308  0.2790 -0.3479  0.0040
  440MOL0     C60645   9.394   7.396   8.286 -0.1697  0.4489  0.7821
  440MOL0     C60646   9.293   7.306   8.216  0.0745  0.2957 -0.1720
  440MOL0     C60647   9.215   7.230   8.160  0.0285  0.4511  0.1101
  440MOL0     C60648   9.666   7.453   7.798 -0.1849 -0.7709 -0.5728
  440MOL0     C60649   9.714   7.516   7.678 -1.1365  0.1686  0.0288
  440MOL0     C60650   9.667   7.660   7.662 -0.0873 -0.7383 -0.0448
  440MOL0     H60651  10.080   7.254   7.288  2.4337  2.0638  1.6109
  440MOL0     H60652  10.188   7.260   7.056  0.6638  1.0940 -0.3249
  440MOL0     H60653  10.302   7.593   6.939 -0.2072 -1.7003  0.4458
  440MOL0     H60654  10.147   7.662   6.863  0.4830  1.4896  1.2037
  440MOL0     H60655  10.218   7.573   6.647  2.7194 -4.3437 -1.6422
  440MOL0     H60656  10.323   7.697   6.725 -0.8558  1.1146  1.2217
  440MOL0     H60657  10.469   7.522   6.803 -0.3205  0.2080  0.9645
  440MOL0     H60658  10.360   7.401   6.743 -2.2788  0.8333 -0.5407
  440MOL0     H60659  10.398   7.507   6.499 -0.1329  3.3236 -0.1868
  440MOL0     H60660  10.503   7.629   6.570 -1.0903 -0.1952 -5.5002
  440MOL0     H60661  10.614   7.432   6.447 -1.9084 -2.9563 -0.1835
  440MOL0     H60662  10.551   7.330   6.566 -1.4970 -0.1108 -2.0594
  440MOL0     H60663  10.740   7.562   6.583  0.4551 -0.2607  0.4623
  440MOL0     H60664  10.678   7.496   6.733 -1.2460  3.1452 -0.9892
  440MOL0     H60665  10.831   7.327   6.534 -0.2195  0.8023  0.4717
  440MOL0     H60666  10.806   7.287   6.698 -1.1783  0.0047 -0.7423
  440MOL0     H60667  10.988   7.518   6.585 -0.3181 -0.8731 -0.0185
  440MOL0     H60668  10.975   7.486   6.754  0.9232  1.2193 -0.1720
  440MOL0     H60669  11.054   7.218   6.476 -2.4931 -5.6756  2.1394
  440MOL0     H60670  11.178   6.994   6.495  2.1793 -0.5046 -1.8339
  440MOL0     H60671  11.186   6.959   6.674 -1.2041 -0.7212 -1.1548
  440MOL0     H60672  11.396   6.903   6.506  3.2812 -0.9771  1.2566
  440MOL0     H60673  11.424   7.077   6.521 -0.4421  1.4693  2.1324
  440MOL0     H60674  11.452   7.061   6.751 -1.6962  2.1118 -3.4255
  440MOL0     H60675  11.402   6.889   6.778 -2.0595  3.9225  2.5605
  440MOL0     H60676  11.635   6.917   6.795 -0.8890  4.4413  0.0849
  440MOL0     H60677  11.613   6.824   6.652  4.2452 -0.3065  2.4587
  440MOL0     H60678  11.837   6.770   6.670  1.0168 -0.9943 -0.5585
  440MOL0     H60679  12.000   6.631   6.669  5.2330 -4.2050  1.6728
  440MOL0     H60680  12.158   6.710   6.666  0.8560  1.1167 -0.8029
  440MOL0     H60681  12.076   6.632   6.515 -4.7160  0.3075 -1.0936
  440MOL0     H60682  12.392   7.020   6.150  1.6987 -1.4952 -1.1392
  440MOL0     H60683  12.635   7.036   6.110 -2.9829 -2.0670 -0.9498
  440MOL0     H60684  12.886   7.039   6.115  3.4350  0.3194 -0.0075
  440MOL0     H60685  12.807   7.177   6.169 -1.3264 -0.9342 -0.6641
  440MOL0     H60686  13.016   7.218   6.338  1.1461  1.3083  0.3583
  440MOL0     H60687  13.087   7.081   6.263 -2.7482 -1.1450 -0.7059
  440MOL0     H60688  13.072   7.227   6.039 -1.3791  3.7757 -2.1131
  440MOL0     H60689  13.191   7.255   6.166  0.0839 -1.2007  2.7925
  440MOL0     H60690  13.020   7.420   6.263 -2.3731 -1.2608  0.5765
  440MOL0     H60691  12.918   7.391   6.131  0.6914 -0.9659 -2.3432
  440MOL0     H60692  13.203   7.516   6.142  0.9203  0.0776 -0.9979
  440MOL0     H60693  13.147   7.459   5.987  1.6213 -0.0635  1.3697
  440MOL0     H60694  12.995   7.670   6.149  0.0195  1.3775 -0.4915
  440MOL0     H60695  12.976   7.622   5.970  2.6204  0.5141 -2.2428
  440MOL0     H60696  13.199   7.713   5.923  0.9960  4.1006 -3.2987
  440MOL0     H60697  13.205   7.779   6.091 -2.5695  1.0299  1.6944
  440MOL0     H60698  13.001   7.838   5.873 -0.0450  0.5583 -0.0226
  440MOL0     H60699  13.139   7.940   5.917 -0.7347  1.0876  0.6073
  440MOL0     H60700  12.700   6.986   6.538  1.3012  3.5391 -1.6796
  440MOL0     H60701  12.458   7.001   6.577  0.0671  0.0842 -0.0471
  440MOL0     H60702  12.063   7.141   6.428 -0.5654  0.4127 -0.2396
  440MOL0     H60703  11.839   7.175   6.494  0.4990 -0.1984 -1.4534
  440MOL0     H60704   9.961   7.613   6.988  0.4005  0.2983  1.4846
  440MOL0     H60705   9.872   7.596   7.219 -1.7900 -1.1927 -0.3131
  440MOL0     H60706   9.907   7.246   7.601  0.8327 -0.0978  2.9226
  440MOL0     H60707   9.794   7.150   7.779 -1.6231 -0.1144 -0.3214
  440MOL0     H60708   9.722   7.382   8.106 -0.1741 -2.1572  0.7583
  440MOL0     H60709   9.558   7.437   8.056 -3.0447 -2.4501  0.6365
  440MOL0     H60710   9.675   7.189   8.184  0.4586  0.8699 -2.3715
  440MOL0     H60711   9.509   7.172   8.143 -0.7594  1.3433 -1.3462
  440MOL0     H60712   9.532   7.245   8.382 -0.6560  1.6153  2.2934
  440MOL0     H60713   9.610   7.396   8.337 -0.0109  0.9734 -2.1407
  440MOL0     H60714   9.401   7.495   8.241 -1.3102  0.5347  0.7602
  440MOL0     H60715   9.354   7.414   8.386 -2.4439  1.1466 -0.1947
  440MOL0     H60716   9.160   7.147   8.121  1.4760 -0.5233  0.0969
  440MOL0     H60717   9.597   7.505   7.864  1.1464  0.9203 -0.4584
  440MOL0     H60718   9.751   7.725   7.635 -0.7616  0.0122 -0.3517
  440MOL0     H60719   9.598   7.663   7.577 -0.6729 -0.2566  0.4408
  440MOL0     H60720   9.633   7.706   7.755 -0.1614 -1.3913  0.2617
  441MOL0     O60721   7.841   3.887   4.503 -0.5449  1.2970 -0.5522
  441MOL0     C60722   7.779   3.823   4.590  0.1093 -0.0763  0.0949
  441MOL0     O60723   7.689   3.718   4.563 -0.5506  0.5860 -0.2054
  441MOL0     C60724   7.640   3.688   4.438 -0.4329 -0.1954  0.4046
  441MOL0     C60725   7.582   3.569   4.415  0.2365  0.2781 -0.4078
  441MOL0     C60726   7.529   3.531   4.299 -0.0385  0.7769  0.9112
  441MOL0     C60727   7.531   3.613   4.188  0.2821 -0.2617 -0.1692
  441MOL0     O60728   7.501   3.578   4.059  0.0466  0.0305 -1.1667
  441MOL0     C60729   7.370   3.516   4.043  0.4613 -0.4881  0.0398
  441MOL0     C60730   7.252   3.609   4.070 -0.6676 -0.4850  0.1701
  441MOL0     C60731   7.111   3.558   4.037  0.5218 -0.8785 -0.6489
  441MOL0     C60732   7.078   3.580   3.889  0.5778 -0.1898  0.0629
  441MOL0     C60733   6.935   3.545   3.850 -0.0512  0.6648 -0.2324
  441MOL0     C60734   6.904   3.591   3.704 -1.0463 -0.9460 -0.8243
  441MOL0     C60735   6.756   3.595   3.678  0.7616  0.4346 -0.6387
  441MOL0     C60736   6.719   3.610   3.525  0.1993  0.0441  0.6470
  441MOL0     N60737   6.572   3.634   3.491  0.3908  1.1884  0.2150
  441MOL0     C60738   6.495   3.736   3.531  0.0767 -1.1807 -0.0803
  441MOL0     C60739   6.396   3.752   3.438  0.7516 -0.0820 -0.1332
  441MOL0     C60740   6.300   3.865   3.414 -0.5494  0.6908  0.0362
  441MOL0     C60741   6.157   3.813   3.408  0.6318 -0.9002 -0.1816
  441MOL0     C60742   6.048   3.916   3.443 -0.2520  0.2007 -0.2347
  441MOL0     C60743   6.046   4.033   3.350 -0.1898 -0.0096 -0.5243
  441MOL0     O60744   6.155   4.114   3.382 -0.8359  0.1360 -0.3717
  441MOL0     C60745   6.152   4.231   3.325  0.5191 -0.7542  0.1252
  441MOL0     C60746   6.083   4.339   3.375 -0.4456 -0.3644 -0.1828
  441MOL0     C60747   6.077   4.465   3.313 -0.5753 -0.8056 -0.2876
  441MOL0     C60748   6.014   4.579   3.389 -0.8806  0.4819 -0.0602
  441MOL0     C60749   6.133   4.484   3.180  0.1566  0.4103 -0.8555
  441MOL0     C60750   6.162   4.619   3.124  0.7791  0.0231  0.6020
  441MOL0     O60751   6.205   4.622   2.992  0.3267 -0.6398  0.6702
  441MOL0     C60752   6.252   4.736   2.931  1.2810  0.6349  0.7361
  441MOL0     C60753   6.192   4.859   2.950  0.6882 -0.1699  0.2550
  441MOL0     C60754   6.240   4.971   2.884 -0.5784 -0.3035 -0.5108
  441MOL0     C60755   6.350   4.959   2.801  0.9370 -1.0324  0.4944
  441MOL0     O60756   6.401   5.074   2.751  0.0158 -0.2545 -0.1102
  441MOL0     C60757   6.527   5.068   2.689  0.9984  0.4269 -0.0410
  441MOL0     C60758   6.607   5.201   2.686  0.6121  0.5805  0.2211
  441MOL0     C60759   6.664   5.230   2.823 -0.1153  0.0851  0.5205
  441MOL0     C60760   6.794   5.152   2.838 -0.1732 -0.2303 -0.6676
  441MOL0     C60761   6.879   5.223   2.936  0.0219  0.1245  0.5026
  441MOL0     C60762   7.015   5.151   2.959 -0.9931  0.7455 -1.1522
  441MOL0     C60763   7.104   5.251   3.032 -0.0027 -0.4175 -0.4874
  441MOL0     C60764   7.264   5.205   3.040 -0.5554 -0.6471 -0.7713
  441MOL0    Cl60765   7.290   5.106   3.179 -0.1995 -0.3594 -0.1071
  441MOL0     C60766   6.397   4.833   2.772  0.1006  0.4027  0.3997
  441MOL0     C60767   6.358   4.719   2.842 -0.7757 -0.7920 -0.7023
  441MOL0     O60768   6.160   4.721   3.189  0.6847  0.4307  0.5918
  441MOL0     C60769   6.187   4.363   3.120 -0.4969 -0.3764  0.4859
  441MOL0     C60770   6.203   4.246   3.196 -0.0539 -0.8146  0.4188
  441MOL0     N60771   6.417   3.652   3.341 -0.9427  0.2517 -0.0889
  441MOL0     N60772   6.515   3.574   3.377  0.0482 -0.3071 -0.0823
  441MOL0     C60773   7.589   3.739   4.208  0.4548 -0.0578  0.4737
  441MOL0     C60774   7.638   3.773   4.330  0.1162  0.3403  0.1224
  441MOL0     C60775   7.811   3.852   4.737 -0.6735  0.7264 -1.3986
  441MOL0     C60776   7.912   3.963   4.767  1.6271  0.4052  1.2957
  441MOL0     C60777   7.953   3.976   4.900  0.2221  0.3182  0.3665
  441MOL0     C60778   7.915   3.889   5.001  0.7592  0.3185  0.1167
  441MOL0     O60779   7.975   3.904   5.128 -0.0110  0.3260  0.2893
  441MOL0     C60780   7.935   3.822   5.244  0.6389  0.6472  0.8220
  441MOL0     C60781   7.985   3.881   5.367  0.7816 -0.1125  0.4160
  441MOL0     C60782   7.870   3.943   5.455 -0.0085 -0.5350 -0.1394
  441MOL0     C60783   7.912   4.053   5.553  0.0835  0.0514  1.1085
  441MOL0     C60784   7.994   4.025   5.671  0.1261  0.1863  0.0163
  441MOL0     C60785   8.057   4.007   5.772 -0.2268  0.1374 -0.1965
  441MOL0     C60786   7.819   3.787   4.970 -0.7805 -0.3900 -0.0815
  441MOL0     C60787   7.761   3.773   4.841  1.0648 -0.5059 -0.4699
  441MOL0     C60788   7.651   3.663   4.831 -0.4756 -0.2230 -0.6236
  441MOL0     H60789   7.601   3.510   4.505  0.7098  0.5801 -0.3082
  441MOL0     H60790   7.498   3.433   4.265 -2.7541  2.4746 -1.9708
  441MOL0     H60791   7.353   3.426   4.102  0.4547 -0.9655 -0.6779
  441MOL0     H60792   7.372   3.482   3.939  4.3278 -0.4911 -0.0209
  441MOL0     H60793   7.252   3.619   4.179 -0.9933  2.3666 -0.0208
  441MOL0     H60794   7.269   3.711   4.033  0.9086 -1.7880 -3.1285
  441MOL0     H60795   7.103   3.456   4.074  2.1943  0.4628  4.1592
  441MOL0     H60796   7.048   3.620   4.103 -1.1802 -0.3960 -2.6290
  441MOL0     H60797   7.105   3.683   3.866  2.2265 -0.0224  2.4145
  441MOL0     H60798   7.138   3.512   3.828  0.2144 -0.3341 -0.1369
  441MOL0     H60799   6.866   3.592   3.921 -2.0437 -2.8781  0.4308
  441MOL0     H60800   6.915   3.439   3.870  0.1454  1.2236  3.9727
  441MOL0     H60801   6.942   3.692   3.688 -3.4982  0.9516  3.3810
  441MOL0     H60802   6.966   3.532   3.636  0.7673  0.9308 -0.8638
  441MOL0     H60803   6.719   3.681   3.734 -1.5415 -0.0663 -1.2709
  441MOL0     H60804   6.706   3.510   3.727  0.2300  1.9104  1.5078
  441MOL0     H60805   6.778   3.698   3.496 -0.4587  0.2588 -0.0646
  441MOL0     H60806   6.761   3.530   3.463  0.6473  2.5630 -2.5362
  441MOL0     H60807   6.505   3.813   3.607 -0.0934  1.1702 -2.2966
  441MOL0     H60808   6.334   3.898   3.315  3.1206 -2.3032  0.0834
  441MOL0     H60809   6.306   3.937   3.496 -1.4108 -0.8691  1.5293
  441MOL0     H60810   6.138   3.778   3.306  0.8350  1.1183 -0.9692
  441MOL0     H60811   6.137   3.741   3.487 -0.5749  1.6275  1.9596
  441MOL0     H60812   5.951   3.871   3.421 -1.3615  3.1284 -1.9129
  441MOL0     H60813   6.060   3.949   3.547  2.9087  1.5037 -0.8913
  441MOL0     H60814   6.047   3.995   3.248 -0.9149  0.9851 -0.9178
  441MOL0     H60815   5.957   4.096   3.359  0.5680  0.8266  4.5756
  441MOL0     H60816   6.054   4.326   3.479 -0.8651 -1.9916 -0.4800
  441MOL0     H60817   5.954   4.636   3.318 -0.1718 -0.9404 -1.9050
  441MOL0     H60818   6.092   4.647   3.425 -0.2379 -0.9373  1.3556
  441MOL0     H60819   5.971   4.539   3.481 -0.1306  0.2083  0.1758
  441MOL0     H60820   6.100   4.876   3.006  1.4940 -1.4056  2.0625
  441MOL0     H60821   6.189   5.062   2.917  1.8328 -0.3923  4.4379
  441MOL0     H60822   6.586   5.001   2.751 -1.1027 -4.0493 -2.4002
  441MOL0     H60823   6.517   5.032   2.586 -3.0831  0.2006  0.2623
  441MOL0     H60824   6.690   5.184   2.617  0.0910 -0.3449 -0.1992
  441MOL0     H60825   6.528   5.268   2.651 -0.0950 -1.7106 -2.9814
  441MOL0     H60826   6.592   5.195   2.897 -1.1044  0.1465 -0.3784
  441MOL0     H60827   6.671   5.338   2.835 -0.2618  0.2168 -0.4771
  441MOL0     H60828   6.848   5.143   2.743  1.1248 -0.2623  0.0544
  441MOL0     H60829   6.765   5.051   2.868 -0.1264 -0.2056 -0.5425
  441MOL0     H60830   6.883   5.331   2.918 -0.0789 -0.1115 -1.0824
  441MOL0     H60831   6.820   5.219   3.027  1.1029  0.2958  1.2339
  441MOL0     H60832   7.061   5.141   2.860  2.9732  3.1164  0.2045
  441MOL0     H60833   7.000   5.055   3.009 -0.4604  2.3656  2.3919
  441MOL0     H60834   7.056   5.275   3.128  0.0240 -0.2393 -0.5182
  441MOL0     H60835   7.105   5.342   2.971  1.3296 -1.0369 -1.4576
  441MOL0     H60836   7.325   5.295   3.051 -0.2323 -1.0287  0.8706
  441MOL0     H60837   7.295   5.156   2.948  2.4939  0.9506 -0.7129
  441MOL0     H60838   6.479   4.825   2.701  2.0686  1.1552  2.4705
  441MOL0     H60839   6.413   4.626   2.831  1.5044  0.4080  0.1014
  441MOL0     H60840   6.236   4.373   3.024 -1.4887 -3.8406 -0.5313
  441MOL0     H60841   6.262   4.169   3.147 -0.9133 -0.5639 -1.0768
  441MOL0     H60842   7.591   3.812   4.128 -2.3380 -1.3289 -0.9000
  441MOL0     H60843   7.669   3.877   4.335 -3.2436  1.3857  1.6676
  441MOL0     H60844   7.936   4.019   4.677 -0.2704 -0.5754  0.0989
  441MOL0     H60845   8.032   4.043   4.932  1.2958 -1.4599  1.6383
  441MOL0     H60846   7.826   3.812   5.245  0.7769 -1.5576  2.4229
  441MOL0     H60847   7.977   3.722   5.228  1.4602  1.1007  0.0915
  441MOL0     H60848   8.055   3.963   5.350  0.7530 -0.1583  0.0703
  441MOL0     H60849   8.028   3.802   5.428  0.5301 -2.6831 -2.5115
  441MOL0     H60850   7.787   3.981   5.396  0.2310 -2.8153 -2.0908
  441MOL0     H60851   7.825   3.862   5.514  1.6744 -0.4099  1.4260
  441MOL0     H60852   7.824   4.106   5.591  0.9240  0.4516  2.5595
  441MOL0     H60853   7.973   4.125   5.498  1.3757 -1.4972  0.4388
  441MOL0     H60854   8.120   3.988   5.856  0.1844 -0.6292 -0.6647
  441MOL0     H60855   7.787   3.727   5.055  2.9652 -1.5508  0.7000
  441MOL0     H60856   7.555   3.701   4.797  0.2481  2.2593 -0.0564
  441MOL0     H60857   7.690   3.580   4.770  0.1054 -0.2365 -0.2465
  441MOL0     H60858   7.630   3.639   4.936 -2.4709  3.4027 -0.0457
  442MOL0     O60859   2.487   7.850   2.603 -0.6290 -0.2960  0.4134
  442MOL0     C60860   2.604   7.849   2.635 -0.0881  0.1983 -0.2839
  442MOL0     O60861   2.660   7.930   2.735  0.3066 -0.1453  0.8881
  442MOL0     C60862   2.567   8.004   2.810  0.9085 -0.2105  0.5539
  442MOL0     C60863   2.549   8.144   2.793  0.1183  0.2054 -0.3469
  442MOL0     C60864   2.461   8.212   2.872  0.0333  0.2433  0.0512
  442MOL0     C60865   2.376   8.146   2.958  0.0831 -1.6808  0.3112
  442MOL0     O60866   2.296   8.224   3.042 -0.0823  1.1803 -0.1977
  442MOL0     C60867   2.274   8.173   3.179 -0.3739  0.2932  0.2588
  442MOL0     C60868   2.186   8.276   3.256  0.3097  0.1583  0.2049
  442MOL0     C60869   2.181   8.224   3.409 -0.5439 -0.5266  0.2515
  442MOL0     C60870   2.041   8.173   3.448 -0.1624 -0.0528 -0.1426
  442MOL0     C60871   1.930   8.269   3.432 -0.3267 -0.2470  0.1291
  442MOL0     C60872   1.797   8.216   3.506  0.6192  0.3261  0.2096
  442MOL0     C60873   1.681   8.312   3.458 -0.2662 -0.5121  0.2764
  442MOL0     C60874   1.690   8.439   3.528 -1.1118 -0.3614 -0.4498
  442MOL0     N60875   1.563   8.499   3.526  0.4014 -0.2070 -0.0932
  442MOL0     C60876   1.452   8.478   3.614 -0.8757  1.1539  0.4618
  442MOL0     C60877   1.346   8.559   3.577  0.1962 -0.9328  0.0988
  442MOL0     C60878   1.213   8.572   3.656 -0.3063 -0.2889  0.8394
  442MOL0     C60879   1.085   8.579   3.571  0.7103 -1.0362 -0.5113
  442MOL0     C60880   0.970   8.639   3.648  0.3840 -1.3574  0.9834
  442MOL0     C60881   0.839   8.646   3.569 -0.3571  0.3660 -0.5251
  442MOL0     O60882   0.747   8.718   3.650 -0.9096  0.5026 -0.0872
  442MOL0     C60883   0.613   8.727   3.600 -0.0150  0.7030 -0.3277
  442MOL0     C60884   0.512   8.752   3.694  0.0754 -0.7468 -0.2405
  442MOL0     C60885   0.375   8.739   3.665 -1.7816  0.2506 -0.0217
  442MOL0     C60886   0.293   8.752   3.783  0.3697  0.6078  0.2794
  442MOL0     C60887   0.341   8.708   3.524 -0.1272  0.2841 -0.7166
  442MOL0     C60888   0.200   8.723   3.488 -0.4209  1.0785  0.1406
  442MOL0     O60889   0.119   8.799   3.564  0.1942 -0.2106  0.3805
  442MOL0     C60890  -0.008   8.815   3.526 -0.1033 -1.0971  0.1566
  442MOL0     C60891  -0.064   8.940   3.566 -0.6115 -0.1119 -0.0492
  442MOL0     C60892  -0.201   8.964   3.554  0.4437 -0.4007 -0.7653
  442MOL0     C60893  -0.279   8.863   3.496 -0.0007  0.2537  0.0203
  442MOL0     O60894  -0.407   8.888   3.482  0.5746 -0.5043 -0.1681
  442MOL0     C60895  -0.462   8.884   3.350 -0.0984  0.9414  1.0276
  442MOL0     C60896  -0.603   8.943   3.349 -0.5122 -0.7132  0.9882
  442MOL0     C60897  -0.719   8.863   3.294  0.3411  0.8726  0.5309
  442MOL0     C60898  -0.844   8.916   3.339 -0.3558 -0.1963  0.5831
  442MOL0     C60899  -0.968   8.827   3.313 -0.5477 -0.2343  0.7028
  442MOL0     C60900  -0.956   8.755   3.183 -0.1140  0.0567 -0.2953
  442MOL0     C60901  -1.063   8.638   3.185 -0.3285 -1.3353  0.1512
  442MOL0     C60902  -1.049   8.553   3.063 -0.5749  0.2846 -0.3892
  442MOL0    Cl60903  -1.183   8.444   3.020 -0.1851  0.0481  0.7771
  442MOL0     C60904  -0.227   8.740   3.457 -0.2214 -0.2710 -0.3423
  442MOL0     C60905  -0.093   8.725   3.462  0.0810  0.0710 -0.0497
  442MOL0     O60906   0.174   8.682   3.372  0.2795 -0.7843  0.7023
  442MOL0     C60907   0.446   8.675   3.438  0.4586  0.1908 -0.7347
  442MOL0     C60908   0.582   8.690   3.467 -0.2873 -0.8501 -0.5015
  442MOL0     N60909   1.402   8.634   3.475  0.4311  0.7727  0.4398
  442MOL0     N60910   1.523   8.594   3.439  0.4898  1.0204 -0.9630
  442MOL0     C60911   2.369   8.006   2.961 -1.4337 -0.7415 -0.2182
  442MOL0     C60912   2.473   7.935   2.883 -0.2976  1.2862 -0.0055
  442MOL0     C60913   2.693   7.754   2.558 -0.4472 -0.8949  0.4889
  442MOL0     C60914   2.817   7.724   2.615 -0.4338 -0.1236 -0.5527
  442MOL0     C60915   2.899   7.620   2.567  0.3767 -0.7560 -0.5929
  442MOL0     C60916   2.858   7.553   2.454  1.0516 -0.9104 -0.0317
  442MOL0     O60917   2.950   7.471   2.395  0.1444  0.1322 -0.4214
  442MOL0     C60918   2.925   7.324   2.405 -0.4943 -0.2240  0.0009
  442MOL0     C60919   3.045   7.249   2.348 -0.4252  0.8442  0.9009
  442MOL0     C60920   3.163   7.242   2.442 -0.5578 -0.2954 -0.6495
  442MOL0     C60921   3.271   7.139   2.395 -0.9308 -0.4780  1.1930
  442MOL0     C60922   3.327   7.081   2.514  0.0111 -0.3724 -0.0008
  442MOL0     C60923   3.365   7.016   2.615  0.9987  0.0136  0.7518
  442MOL0     C60924   2.741   7.587   2.383 -0.5863  0.5149 -0.3638
  442MOL0     C60925   2.660   7.686   2.440  0.0265 -1.4248 -0.3161
  442MOL0     C60926   2.545   7.728   2.359  0.0134  0.5671  1.3236
  442MOL0     H60927   2.612   8.202   2.728 -0.6769  1.0752 -0.3520
  442MOL0     H60928   2.455   8.320   2.883 -2.7875 -0.0544  3.8969
  442MOL0     H60929   2.373   8.167   3.225 -0.0799  0.5681 -0.3237
  442MOL0     H60930   2.228   8.073   3.180 -0.1159  0.1725  1.5651
  442MOL0     H60931   2.227   8.377   3.264 -0.3725  0.2840  3.2000
  442MOL0     H60932   2.086   8.273   3.211  0.5062 -0.6954 -0.2010
  442MOL0     H60933   2.257   8.149   3.434  0.4744  1.0624  2.2173
  442MOL0     H60934   2.200   8.314   3.467 -2.3800  0.0633  0.0065
  442MOL0     H60935   2.025   8.089   3.381 -0.6668  1.9047 -2.6562
  442MOL0     H60936   2.047   8.149   3.555  0.8357  1.9204  0.3085
  442MOL0     H60937   1.908   8.283   3.326  1.5887  3.1950  0.0397
  442MOL0     H60938   1.952   8.368   3.473  1.2308 -0.8336  0.7939
  442MOL0     H60939   1.779   8.114   3.469  0.3362  0.6164 -0.4716
  442MOL0     H60940   1.797   8.219   3.615 -1.0125 -0.0169  0.2342
  442MOL0     H60941   1.588   8.263   3.490 -2.2822  2.6435 -0.3188
  442MOL0     H60942   1.679   8.328   3.350 -2.5233 -1.2672  0.1568
  442MOL0     H60943   1.734   8.421   3.627  0.8718 -1.6322 -1.5143
  442MOL0     H60944   1.749   8.516   3.478 -3.4905  1.3168 -0.8397
  442MOL0     H60945   1.454   8.408   3.698  0.8477  2.2700  1.4270
  442MOL0     H60946   1.215   8.668   3.708 -2.9645  1.3911 -1.8836
  442MOL0     H60947   1.195   8.488   3.724 -2.3137 -0.9432 -0.4017
  442MOL0     H60948   1.095   8.643   3.483 -2.5922  2.1019  1.1600
  442MOL0     H60949   1.052   8.483   3.530  0.8272 -0.9101 -0.9138
  442MOL0     H60950   0.967   8.579   3.740 -1.0649 -1.9801  0.5510
  442MOL0     H60951   0.993   8.742   3.677 -1.5520 -1.0701  1.6366
  442MOL0     H60952   0.851   8.699   3.474  0.0096  2.9839  0.8804
  442MOL0     H60953   0.795   8.546   3.558  0.0163  0.1818 -0.3474
  442MOL0     H60954   0.547   8.761   3.796 -0.8252  0.1383 -0.0003
  442MOL0     H60955   0.360   8.744   3.870  0.7355  0.1073 -0.0459
  442MOL0     H60956   0.217   8.673   3.774 -0.1054  1.0857  0.0443
  442MOL0     H60957   0.247   8.851   3.780 -0.3668  0.2736 -3.2044
  442MOL0     H60958  -0.005   9.013   3.620 -0.6880 -0.5346  0.6175
  442MOL0     H60959  -0.242   9.054   3.600 -0.4495 -1.0707 -0.2306
  442MOL0     H60960  -0.414   8.939   3.269 -2.3766 -0.5836 -1.5676
  442MOL0     H60961  -0.463   8.783   3.308  0.3610  1.4458 -0.2479
  442MOL0     H60962  -0.635   8.977   3.448  0.1230  0.2583  0.8735
  442MOL0     H60963  -0.588   9.035   3.292 -1.8833 -0.3331  1.2141
  442MOL0     H60964  -0.705   8.759   3.323  2.2391  1.0833  0.5189
  442MOL0     H60965  -0.713   8.864   3.185  0.3509  2.6405  0.5106
  442MOL0     H60966  -0.863   9.013   3.294  1.2905  0.1924  0.6862
  442MOL0     H60967  -0.843   8.929   3.447 -2.7746 -1.8192  0.8998
  442MOL0     H60968  -0.973   8.758   3.398  1.0907 -0.3837  0.7086
  442MOL0     H60969  -1.060   8.887   3.309 -0.0726  0.5612 -3.7528
  442MOL0     H60970  -0.864   8.695   3.185 -1.8437 -2.8021  0.3592
  442MOL0     H60971  -0.977   8.832   3.108  0.6818 -0.2158 -0.8105
  442MOL0     H60972  -1.163   8.676   3.163 -0.6570 -1.6132  1.1084
  442MOL0     H60973  -1.060   8.583   3.279 -1.6297  0.2304  1.1588
  442MOL0     H60974  -0.957   8.497   3.084 -0.8956  0.7004  2.6728
  442MOL0     H60975  -1.031   8.621   2.979  0.3109  2.3780  1.3645
  442MOL0     H60976  -0.295   8.663   3.422 -1.1910  0.5639 -0.3300
  442MOL0     H60977  -0.059   8.626   3.433  1.0389  0.1523  0.7471
  442MOL0     H60978   0.410   8.635   3.344 -1.8971 -0.6885  0.4631
  442MOL0     H60979   0.659   8.667   3.394  3.9964  1.3064  2.8807
  442MOL0     H60980   2.283   7.955   3.003 -0.8263 -2.1424 -0.6125
  442MOL0     H60981   2.494   7.830   2.871  3.1148  1.9651 -1.0576
  442MOL0     H60982   2.857   7.779   2.699  4.6219 -1.2635 -1.8626
  442MOL0     H60983   2.996   7.596   2.610  0.4129 -3.8268 -2.1116
  442MOL0     H60984   2.899   7.282   2.502  0.9531  0.5305  0.7473
  442MOL0     H60985   2.850   7.297   2.329 -0.1152  3.7661 -2.0348
  442MOL0     H60986   3.077   7.298   2.255  2.3916 -3.2034 -0.5280
  442MOL0     H60987   3.005   7.150   2.326 -1.3056  0.8631  2.3330
  442MOL0     H60988   3.201   7.343   2.459  0.3808 -0.5820 -0.9884
  442MOL0     H60989   3.119   7.221   2.540 -2.1393 -1.1691 -1.5092
  442MOL0     H60990   3.346   7.186   2.330 -1.0260  0.8958  2.0373
  442MOL0     H60991   3.236   7.056   2.333  0.9898  0.0108 -0.6626
  442MOL0     H60992   3.386   6.951   2.697  2.0161 -1.1274 -0.3851
  442MOL0     H60993   2.724   7.529   2.293 -0.2345  0.3885 -0.3505
  442MOL0     H60994   2.445   7.710   2.399 -0.6689  1.9317  0.3025
  442MOL0     H60995   2.540   7.837   2.346  0.9301  0.5275  0.5546
  442MOL0     H60996   2.555   7.675   2.264 -2.0001 -0.7364  1.7749
  443MOL0     O60997   5.291   8.884   9.175 -0.3587  0.0523  0.0394
  443MOL0     C60998   5.329   8.777   9.142 -0.0657  0.6573  0.6791
  443MOL0     O60999   5.295   8.718   9.027 -0.4835 -0.2991 -0.5304
  443MOL0     C61000   5.219   8.794   8.936  0.5465  0.4412 -0.4214
  443MOL0     C61001   5.099   8.868   8.962 -0.9382  0.1576 -0.3510
  443MOL0     C61002   5.019   8.923   8.864  0.1432  0.5154 -0.2614
  443MOL0     C61003   5.043   8.889   8.733 -0.2638 -0.4037  0.2921
  443MOL0     O61004   4.941   8.927   8.645 -0.1570 -0.2241  0.8667
  443MOL0     C61005   4.929   8.877   8.507  0.2030  0.3399 -0.4062
  443MOL0     C61006   4.843   8.957   8.415  1.0109  0.1876 -0.5151
  443MOL0     C61007   4.842   8.903   8.268 -0.0347  0.2429 -0.5252
  443MOL0     C61008   4.798   8.760   8.255 -0.2466  0.2129 -0.2908
  443MOL0     C61009   4.763   8.729   8.108 -0.0236  0.4957  0.2590
  443MOL0     C61010   4.782   8.585   8.077  0.9164 -0.0877  0.4857
  443MOL0     C61011   4.750   8.538   7.937 -0.0279 -0.4112  0.3578
  443MOL0     C61012   4.736   8.379   7.939 -1.2730 -0.2337 -0.3761
  443MOL0     N61013   4.657   8.338   7.824  0.6790 -0.4925  0.1686
  443MOL0     C61014   4.520   8.333   7.817  1.5102  0.1251  0.0664
  443MOL0     C61015   4.500   8.227   7.728 -1.1683  1.1833 -0.6877
  443MOL0     C61016   4.366   8.187   7.664 -0.1731  1.0227 -0.9818
  443MOL0     C61017   4.296   8.066   7.719 -0.1702  0.3128 -0.4003
  443MOL0     C61018   4.383   7.941   7.689  0.2721  0.3404 -0.0917
  443MOL0     C61019   4.320   7.809   7.733 -0.1260  1.0673  0.3234
  443MOL0     O61020   4.349   7.717   7.627  0.5319 -0.2549  0.5455
  443MOL0     C61021   4.307   7.586   7.621  0.5546 -0.0024  0.0880
  443MOL0     C61022   4.319   7.527   7.495 -0.1950  0.7709 -0.2222
  443MOL0     C61023   4.286   7.392   7.471 -0.2124 -0.4789 -0.1077
  443MOL0     C61024   4.307   7.331   7.333 -1.0492 -0.3310 -0.5981
  443MOL0     C61025   4.251   7.313   7.583  0.9681  0.1041 -0.0551
  443MOL0     C61026   4.223   7.167   7.578  0.6920  0.1839 -0.0133
  443MOL0     O61027   4.260   7.097   7.692 -0.1033 -0.0199  0.7549
  443MOL0     C61028   4.240   6.955   7.692 -0.3660  0.2682 -0.3532
  443MOL0     C61029   4.220   6.886   7.810 -0.9907 -0.1364  0.1656
  443MOL0     C61030   4.193   6.752   7.812  0.4160  0.3107 -0.4798
  443MOL0     C61031   4.193   6.664   7.707  0.1311 -0.8896 -1.1773
  443MOL0     O61032   4.188   6.531   7.717 -0.5090 -1.0045 -0.4324
  443MOL0     C61033   4.124   6.453   7.622  0.1927 -0.6125 -0.5737
  443MOL0     C61034   4.055   6.327   7.682 -0.0160 -0.0511  0.2101
  443MOL0     C61035   4.014   6.354   7.825  0.6005 -0.0805  0.1758
  443MOL0     C61036   3.902   6.254   7.874 -0.2515  0.0176 -0.3778
  443MOL0     C61037   3.855   6.302   8.010  0.0667 -0.1786  0.6721
  443MOL0     C61038   3.749   6.214   8.084 -0.7878 -0.2265 -0.6924
  443MOL0     C61039   3.616   6.211   8.011  0.2361 -1.5591 -0.4852
  443MOL0     C61040   3.544   6.347   8.033 -1.0121 -0.8010  0.6099
  443MOL0    Cl61041   3.395   6.327   7.942 -0.4238 -0.1592  0.0015
  443MOL0     C61042   4.227   6.731   7.585  0.0715  0.1304  0.7755
  443MOL0     C61043   4.260   6.868   7.579  0.7311  1.1421  0.5897
  443MOL0     O61044   4.172   7.124   7.480  0.8781 -0.6740  0.0479
  443MOL0     C61045   4.229   7.373   7.708  1.4992  0.3173 -0.4146
  443MOL0     C61046   4.264   7.509   7.730  0.6019 -0.0292  0.8469
  443MOL0     N61047   4.621   8.209   7.658  0.2229 -0.0040  1.0485
  443MOL0     N61048   4.713   8.271   7.725  0.5062  0.2555  1.5521
  443MOL0     C61049   5.169   8.832   8.697 -0.4672 -0.2863 -0.6429
  443MOL0     C61050   5.245   8.775   8.800 -1.0419  0.1425  0.3200
  443MOL0     C61051   5.415   8.697   9.235 -0.4380 -0.8604 -0.0849
  443MOL0     C61052   5.474   8.584   9.174 -0.2604  0.3120  0.1053
  443MOL0     C61053   5.555   8.498   9.254 -0.5065  0.1324  0.9332
  443MOL0     C61054   5.585   8.518   9.384  0.4852 -1.1771 -0.7751
  443MOL0     O61055   5.661   8.425   9.445  0.4745 -0.2067 -0.0560
  443MOL0     C61056   5.797   8.475   9.453  0.2117  0.0463  0.0946
  443MOL0     C61057   5.881   8.364   9.499  0.6676  0.3381 -0.2430
  443MOL0     C61058   5.974   8.299   9.385 -0.2066 -0.6921 -0.8765
  443MOL0     C61059   5.910   8.200   9.296  0.5605 -0.1143 -0.3525
  443MOL0     C61060   5.820   8.104   9.363  1.3362  0.0510 -0.3290
  443MOL0     C61061   5.754   8.010   9.416  0.1326 -0.0357  0.6577
  443MOL0     C61062   5.517   8.629   9.446 -0.4343 -0.0628  0.3427
  443MOL0     C61063   5.445   8.728   9.375 -0.4697 -0.0514 -0.1382
  443MOL0     C61064   5.404   8.855   9.440  1.0709 -0.5229 -0.6765
  443MOL0     H61065   5.072   8.878   9.067  2.4426 -4.2689  1.2679
  443MOL0     H61066   4.925   8.976   8.877  0.8316  1.6824  0.1590
  443MOL0     H61067   4.877   8.782   8.521  1.4362 -0.4626 -1.0145
  443MOL0     H61068   5.025   8.855   8.458  0.2682 -2.2375  0.7253
  443MOL0     H61069   4.738   8.952   8.446  1.4247  0.0315  0.9314
  443MOL0     H61070   4.869   9.062   8.402 -2.6230  0.9736 -2.8882
  443MOL0     H61071   4.766   8.964   8.218 -0.0774  2.2025  1.7254
  443MOL0     H61072   4.939   8.926   8.223  0.8391  0.1345  1.2073
  443MOL0     H61073   4.884   8.704   8.292 -0.0005  2.4005  2.8837
  443MOL0     H61074   4.712   8.736   8.318  0.1378 -0.4953 -0.0255
  443MOL0     H61075   4.829   8.790   8.046 -1.5279 -0.3719 -2.3613
  443MOL0     H61076   4.659   8.756   8.090 -0.5418  1.8147  4.1319
  443MOL0     H61077   4.883   8.554   8.103  1.0133  1.5973  2.3979
  443MOL0     H61078   4.724   8.533   8.154  1.7886 -0.9909  0.5522
  443MOL0     H61079   4.825   8.557   7.860  0.8480 -1.4143  0.9421
  443MOL0     H61080   4.660   8.594   7.908  1.6982  0.9976 -2.7350
  443MOL0     H61081   4.834   8.334   7.921 -1.9253 -0.8955 -2.5316
  443MOL0     H61082   4.681   8.331   8.021  0.1548 -2.1450 -0.4676
  443MOL0     H61083   4.453   8.392   7.878  0.6513  0.6942 -1.3562
  443MOL0     H61084   4.359   8.172   7.556 -1.3076  0.1108 -0.7985
  443MOL0     H61085   4.298   8.268   7.690 -0.3046  0.6519 -0.1416
  443MOL0     H61086   4.284   8.076   7.827  1.2688  0.7598 -0.2669
  443MOL0     H61087   4.200   8.050   7.669 -2.2094  0.1389  3.2763
  443MOL0     H61088   4.399   7.929   7.581  3.2798  0.4422  0.2594
  443MOL0     H61089   4.484   7.959   7.726 -0.4665  3.3961  0.6531
  443MOL0     H61090   4.352   7.769   7.830  2.8001 -1.8177 -1.6335
  443MOL0     H61091   4.212   7.819   7.751 -0.3775  1.9829 -1.5254
  443MOL0     H61092   4.346   7.596   7.416 -0.0564  4.4911  2.7595
  443MOL0     H61093   4.233   7.256   7.302 -0.9276 -0.5877 -0.2852
  443MOL0     H61094   4.407   7.287   7.344 -1.2086 -0.0819  4.4459
  443MOL0     H61095   4.307   7.405   7.253 -3.3485 -1.0856 -1.3572
  443MOL0     H61096   4.223   6.947   7.900 -1.2404  1.8032 -1.0945
  443MOL0     H61097   4.169   6.716   7.911  3.3426  0.3573  0.3379
  443MOL0     H61098   4.046   6.511   7.573 -0.7556 -1.5963 -0.2840
  443MOL0     H61099   4.183   6.419   7.537  2.4792  1.9876 -0.1557
  443MOL0     H61100   3.975   6.289   7.619  1.3835  2.5731 -3.4905
  443MOL0     H61101   4.130   6.248   7.671 -1.4923 -1.2082 -2.3130
  443MOL0     H61102   3.969   6.453   7.825  0.1229 -0.2955  0.7198
  443MOL0     H61103   4.096   6.360   7.897  0.6424  5.0008  0.0551
  443MOL0     H61104   3.940   6.152   7.886  2.7144  0.9990 -0.5204
  443MOL0     H61105   3.827   6.255   7.795 -0.6264 -2.2419 -0.1070
  443MOL0     H61106   3.946   6.298   8.070  2.2787  2.1529 -2.1946
  443MOL0     H61107   3.821   6.405   7.998  0.5459 -0.2026 -1.2674
  443MOL0     H61108   3.747   6.249   8.187  2.3836 -0.4438 -0.4687
  443MOL0     H61109   3.785   6.111   8.087  0.3172  0.0870  3.8092
  443MOL0     H61110   3.554   6.129   8.049  2.8740 -3.7916 -0.6738
  443MOL0     H61111   3.635   6.188   7.906  3.8314 -0.4834 -0.2162
  443MOL0     H61112   3.596   6.428   7.982 -2.7973  0.3113  0.4902
  443MOL0     H61113   3.528   6.362   8.140 -1.1468 -1.1179  0.6361
  443MOL0     H61114   4.239   6.676   7.492 -0.2080  1.5214 -0.1066
  443MOL0     H61115   4.296   6.911   7.487 -0.7385 -3.0301 -2.2031
  443MOL0     H61116   4.206   7.323   7.802 -1.2556  3.0457  0.5234
  443MOL0     H61117   4.247   7.548   7.830 -1.8023 -0.0753  0.5215
  443MOL0     H61118   5.192   8.817   8.592 -0.0871  0.7878 -0.7243
  443MOL0     H61119   5.339   8.725   8.777 -0.5634  1.3406 -0.3979
  443MOL0     H61120   5.473   8.562   9.068  0.9996  2.6992 -0.4554
  443MOL0     H61121   5.608   8.407   9.226  1.3705  1.3769  0.2718
  443MOL0     H61122   5.837   8.507   9.357  2.0885 -1.3326  0.3652
  443MOL0     H61123   5.803   8.564   9.517 -1.6645  0.3969 -0.1627
  443MOL0     H61124   5.814   8.286   9.537  0.4604  0.2544 -0.7707
  443MOL0     H61125   5.945   8.403   9.578  1.8501  1.4769 -1.6883
  443MOL0     H61126   6.017   8.383   9.330 -0.5711  0.7375  0.9010
  443MOL0     H61127   6.054   8.241   9.433 -0.3815 -0.9240 -0.8609
  443MOL0     H61128   5.980   8.149   9.229  1.1034  3.4171 -2.7806
  443MOL0     H61129   5.850   8.248   9.218 -0.9106 -3.1568 -1.2494
  443MOL0     H61130   5.710   7.914   9.436 -0.6218  0.1921  0.1319
  443MOL0     H61131   5.540   8.656   9.548 -2.6564  0.3125  0.7940
  443MOL0     H61132   5.296   8.845   9.451  0.7500  0.5237 -2.5281
  443MOL0     H61133   5.459   8.873   9.532  1.9848 -0.0795 -1.2930
  443MOL0     H61134   5.414   8.941   9.373 -1.5057  1.3601  1.1601
  444MOL0     O61135   5.850  10.496   9.407 -0.6241 -0.1798  1.2668
  444MOL0     C61136   5.907  10.386   9.411 -0.2564 -0.7156 -0.1368
  444MOL0     O61137   6.041  10.371   9.441 -0.1184 -0.0454 -0.1191
  444MOL0     C61138   6.128  10.465   9.482 -1.0704 -0.5830  0.6939
  444MOL0     C61139   6.198  10.430   9.603 -0.2004 -0.1432 -0.0183
  444MOL0     C61140   6.307  10.502   9.649 -1.4622  0.0441  0.1187
  444MOL0     C61141   6.358  10.609   9.569 -0.0273 -0.0672 -0.3615
  444MOL0     O61142   6.477  10.674   9.611 -0.4183 -0.2393 -0.0144
  444MOL0     C61143   6.497  10.680   9.755 -0.5290 -0.2397  0.3251
  444MOL0     C61144   6.589  10.796   9.792  0.7670 -0.6253  0.0544
  444MOL0     C61145   6.716  10.824   9.710  0.2406  0.8329 -0.1824
  444MOL0     C61146   6.677  10.904   9.585 -0.1611 -0.2444 -0.1652
  444MOL0     C61147   6.798  10.977   9.512  0.0853  0.1774 -0.3692
  444MOL0     C61148   6.917  10.877   9.495  0.5400 -0.7191  0.1989
  444MOL0     C61149   6.992  10.901   9.372 -0.2970 -0.5405  0.2163
  444MOL0     C61150   7.051  11.032   9.351  0.1100  0.0112 -0.1205
  444MOL0     N61151   7.172  11.050   9.427  0.4398  0.1531  0.0256
  444MOL0     C61152   7.179  11.075   9.559  0.4066  0.1967  0.1634
  444MOL0     C61153   7.307  11.050   9.594  0.1717 -0.3582  0.0267
  444MOL0     C61154   7.353  11.051   9.740  0.5759  0.5377  0.2179
  444MOL0     C61155   7.499  11.042   9.756 -0.3368  0.0194 -0.2837
  444MOL0     C61156   7.567  11.178   9.759  0.2200 -1.1812 -0.6948
  444MOL0     C61157   7.709  11.170   9.800  0.4304  0.7992  0.0420
  444MOL0     O61158   7.790  11.079   9.718 -0.8486  0.3926 -0.0005
  444MOL0     C61159   7.829  11.114   9.593  0.8110  0.4455 -0.7278
  444MOL0     C61160   7.937  11.198   9.574 -0.3829 -0.5800  0.5293
  444MOL0     C61161   7.987  11.229   9.448  0.3183  0.3340  0.1041
  444MOL0     C61162   8.108  11.318   9.438 -0.6384  0.8297 -0.5631
  444MOL0     C61163   7.914  11.179   9.340 -0.3513  0.5576 -0.3117
  444MOL0     C61164   7.932  11.212   9.199 -0.6562 -0.1626 -0.1713
  444MOL0     O61165   7.839  11.180   9.112 -0.4238  0.0990  0.2501
  444MOL0     C61166   7.865  11.170   8.979 -0.2568  1.0556  0.0385
  444MOL0     C61167   7.872  11.043   8.916  0.0296 -0.1064  0.3377
  444MOL0     C61168   7.903  11.036   8.782 -0.2209 -1.0278  0.0477
  444MOL0     C61169   7.918  11.151   8.707 -0.2183 -0.4643  0.5705
  444MOL0     O61170   7.949  11.149   8.573 -0.9180 -0.2840  0.1197
  444MOL0     C61171   8.075  11.073   8.561  0.0629 -0.1875 -0.3014
  444MOL0     C61172   8.065  11.020   8.421  0.0536 -0.2606 -1.3028
  444MOL0     C61173   8.100  11.119   8.308  1.3144  0.8410  0.1574
  444MOL0     C61174   8.030  11.096   8.172 -0.3433 -0.2347  0.1023
  444MOL0     C61175   8.096  11.163   8.048  0.4059  0.4022  0.7508
  444MOL0     C61176   8.227  11.089   8.004  0.9468 -0.2389  0.5921
  444MOL0     C61177   8.256  11.147   7.864  0.8043  0.1944  0.1685
  444MOL0     C61178   8.397  11.106   7.806  0.1067 -0.5592  0.5197
  444MOL0    Cl61179   8.477  11.226   7.702  0.3391 -0.1716  0.7074
  444MOL0     C61180   7.918  11.278   8.770  0.1228  0.7500  0.5164
  444MOL0     C61181   7.882  11.283   8.907  1.2067  0.2791 -0.0450
  444MOL0     O61182   8.032  11.274   9.165  0.1077  0.0856 -0.4841
  444MOL0     C61183   7.796  11.107   9.361 -0.3969 -0.1844 -0.0083
  444MOL0     C61184   7.750  11.072   9.482  0.2287  0.3458 -0.1558
  444MOL0     N61185   7.378  11.016   9.488 -1.2182  0.2926 -0.5818
  444MOL0     N61186   7.297  11.015   9.383 -0.3486 -0.6618  0.6415
  444MOL0     C61187   6.283  10.648   9.453 -0.9950 -0.4720  0.4319
  444MOL0     C61188   6.169  10.587   9.414  0.0768  0.3734 -0.7243
  444MOL0     C61189   5.832  10.269   9.367  0.0731  0.5765  0.3095
  444MOL0     C61190   5.894  10.181   9.276  0.0987 -0.2065  0.8137
  444MOL0     C61191   5.826  10.063   9.240 -0.0676  0.6459 -0.2237
  444MOL0     C61192   5.687  10.045   9.252  0.5350 -0.2103 -0.0560
  444MOL0     O61193   5.626   9.931   9.193  0.0392 -0.5961  0.9429
  444MOL0     C61194   5.479   9.916   9.190  0.0689 -0.0260  0.7603
  444MOL0     C61195   5.418   9.829   9.297  0.5136  0.5109  0.1525
  444MOL0     C61196   5.270   9.796   9.271 -1.0052  0.6088 -0.3426
  444MOL0     C61197   5.244   9.692   9.165 -0.6947  0.2285  0.2501
  444MOL0     C61198   5.327   9.571   9.155 -0.3471  0.1539 -0.9603
  444MOL0     C61199   5.388   9.465   9.156  0.2552  0.1417  0.6276
  444MOL0     C61200   5.624  10.140   9.328 -0.0364  1.2703  0.0682
  444MOL0     C61201   5.695  10.241   9.396  0.2243  0.1825 -0.1436
  444MOL0     C61202   5.636  10.322   9.504  0.1512  0.4674 -0.7407
  444MOL0     H61203   6.172  10.343   9.663 -2.8635  2.7839  3.5700
  444MOL0     H61204   6.354  10.468   9.741 -0.2502  0.0868 -0.4638
  444MOL0     H61205   6.545  10.583   9.771 -1.9811 -1.2694 -1.1924
  444MOL0     H61206   6.402  10.698   9.806 -0.6867  1.5149 -0.5034
  444MOL0     H61207   6.539  10.892   9.809  0.7489 -0.8411  1.3094
  444MOL0     H61208   6.615  10.765   9.894 -0.4185 -2.2391 -0.0981
  444MOL0     H61209   6.762  10.886   9.788  0.3564 -1.1722  1.4238
  444MOL0     H61210   6.775  10.735   9.689  1.2378  1.5324 -0.4030
  444MOL0     H61211   6.639  10.831   9.513  0.3446 -2.4650  1.6707
  444MOL0     H61212   6.591  10.968   9.603  2.2215  2.4741  2.7489
  444MOL0     H61213   6.835  11.070   9.556 -1.2949  2.2848 -3.3769
  444MOL0     H61214   6.769  11.010   9.412  0.5205  0.7159 -0.3225
  444MOL0     H61215   6.988  10.885   9.578  0.9043 -1.0508 -0.0823
  444MOL0     H61216   6.888  10.772   9.483  6.0718 -2.2202 -4.1726
  444MOL0     H61217   6.914  10.891   9.296 -0.2302  0.7540 -0.0466
  444MOL0     H61218   7.079  10.835   9.358  1.8323  2.5899 -3.2131
  444MOL0     H61219   7.079  11.037   9.245  1.5853 -0.2987  0.2295
  444MOL0     H61220   6.973  11.106   9.372 -1.1808 -1.3038 -0.1492
  444MOL0     H61221   7.092  11.092   9.622 -1.1115  1.0853 -2.0680
  444MOL0     H61222   7.305  10.962   9.782  0.0336  0.5124 -0.4425
  444MOL0     H61223   7.321  11.145   9.786  1.1807  0.4718  0.7810
  444MOL0     H61224   7.513  10.996   9.855 -2.7340  0.3573  0.2836
  444MOL0     H61225   7.537  10.967   9.686 -0.3941  0.3519 -0.6717
  444MOL0     H61226   7.568  11.225   9.660 -1.1770  0.4783  0.0258
  444MOL0     H61227   7.513  11.244   9.827  0.3636 -2.1641  0.4028
  444MOL0     H61228   7.752  11.269   9.781  1.8523  0.1364 -0.3334
  444MOL0     H61229   7.713  11.144   9.906 -1.6572 -0.1301 -0.0597
  444MOL0     H61230   7.996  11.226   9.661 -2.5561 -0.9813  2.2464
  444MOL0     H61231   8.074  11.413   9.395 -0.5522  1.6742  1.1406
  444MOL0     H61232   8.184  11.282   9.368  0.4502  0.2901  0.8347
  444MOL0     H61233   8.157  11.342   9.533 -2.3749  1.7581  0.1509
  444MOL0     H61234   7.848  10.955   8.975 -2.1538  0.4871  0.4234
  444MOL0     H61235   7.884  10.946   8.724 -2.7500  0.5717 -1.8363
  444MOL0     H61236   8.164  11.129   8.589  0.3224 -0.6953 -0.1202
  444MOL0     H61237   8.077  10.989   8.631  0.3088 -1.0765 -1.3527
  444MOL0     H61238   8.136  10.937   8.414 -0.7570 -1.1645  0.5812
  444MOL0     H61239   7.966  10.978   8.402  0.1981 -0.4729 -1.6166
  444MOL0     H61240   8.208  11.135   8.296  1.4702 -0.3741 -0.1959
  444MOL0     H61241   8.059  11.214   8.343  2.4707  1.1474  0.7524
  444MOL0     H61242   7.928  11.137   8.175  0.6187  2.4922 -1.0940
  444MOL0     H61243   8.018  10.990   8.147 -1.7447  0.0158 -0.4070
  444MOL0     H61244   8.032  11.146   7.961  0.2519  0.0785  0.9262
  444MOL0     H61245   8.111  11.270   8.065 -2.7856  1.7135 -3.2079
  444MOL0     H61246   8.210  10.981   8.001 -2.5598  0.2189  0.2019
  444MOL0     H61247   8.304  11.123   8.074  0.0242 -0.0131  1.5087
  444MOL0     H61248   8.249  11.256   7.867 -1.4703  0.0899  0.9632
  444MOL0     H61249   8.186  11.112   7.787  2.2735 -0.1831 -1.0475
  444MOL0     H61250   8.394  11.013   7.749  1.3870 -1.5240  1.9595
  444MOL0     H61251   8.461  11.087   7.892 -1.8025 -1.9708  1.7074
  444MOL0     H61252   7.943  11.369   8.716 -0.1113 -0.7253 -2.2447
  444MOL0     H61253   7.871  11.382   8.951  1.6161 -0.2095  1.2047
  444MOL0     H61254   7.729  11.068   9.284 -0.1908  1.4397 -1.0720
  444MOL0     H61255   7.661  11.010   9.487 -0.9595  1.9334 -0.5569
  444MOL0     H61256   6.313  10.739   9.402 -2.6942  0.7244  1.4468
  444MOL0     H61257   6.135  10.607   9.313 -1.1947  0.8601 -0.2290
  444MOL0     H61258   5.999  10.186   9.249 -0.2523 -1.1698 -0.8778
  444MOL0     H61259   5.878   9.987   9.182 -2.0188 -1.6201  0.8616
  444MOL0     H61260   5.437  10.017   9.187 -1.5911 -0.6846  1.1178
  444MOL0     H61261   5.461   9.870   9.092 -0.8367 -2.0150  1.7980
  444MOL0     H61262   5.431   9.877   9.395  0.7986 -2.1487  1.5183
  444MOL0     H61263   5.473   9.735   9.297 -0.0959  0.1347 -1.1087
  444MOL0     H61264   5.232   9.754   9.365  0.5972 -1.3506 -0.4867
  444MOL0     H61265   5.218   9.891   9.258 -2.3173  0.0969  0.9464
  444MOL0     H61266   5.256   9.762   9.081 -3.4284  3.1426  2.0522
  444MOL0     H61267   5.141   9.658   9.158  0.4747 -4.9603  3.0787
  444MOL0     H61268   5.419   9.363   9.166  0.0866  0.0928  0.6570
  444MOL0     H61269   5.519  10.125   9.351 -0.6626  3.2274 -1.2441
  444MOL0     H61270   5.628  10.424   9.466  3.9698  0.2416 -2.6112
  444MOL0     H61271   5.543  10.274   9.536 -0.7678  2.3822 -0.4321
  444MOL0     H61272   5.709  10.318   9.586 -1.0516 -2.6405  0.3368
  445MOL0     O61273   6.703   3.190   6.435 -0.2989  0.5258 -0.3391
  445MOL0     C61274   6.793   3.109   6.431  0.7657  0.1882 -0.8280
  445MOL0     O61275   6.916   3.129   6.372 -0.7796 -0.2541  0.1603
  445MOL0     C61276   6.959   3.252   6.336 -0.0555 -0.6892  0.7337
  445MOL0     C61277   7.094   3.287   6.344  0.7032 -0.4228 -0.6933
  445MOL0     C61278   7.125   3.418   6.299 -0.4285  0.6521  0.2043
  445MOL0     C61279   7.030   3.505   6.242 -0.4519  0.4094 -0.2530
  445MOL0     O61280   7.049   3.631   6.209  0.7312  0.0261 -1.4093
  445MOL0     C61281   7.182   3.686   6.212 -0.2226 -0.0806 -0.3373
  445MOL0     C61282   7.181   3.812   6.123 -0.3493 -1.0890 -0.1715
  445MOL0     C61283   7.124   3.801   5.980  0.0401 -0.0981  0.2449
  445MOL0     C61284   7.124   3.943   5.915 -0.1800  0.4118 -0.7105
  445MOL0     C61285   7.092   3.933   5.765  0.3434 -0.7244 -0.0579
  445MOL0     C61286   7.218   3.964   5.665  0.0039 -0.1896 -0.9722
  445MOL0     C61287   7.193   3.932   5.521  1.2017 -0.7063  0.5796
  445MOL0     C61288   7.308   3.972   5.420 -0.5812  0.6382  0.4034
  445MOL0     N61289   7.321   4.113   5.396  0.1334 -0.4495  0.0506
  445MOL0     C61290   7.404   4.195   5.473 -1.1602  0.4549  0.7780
  445MOL0     C61291   7.378   4.321   5.438  0.6868 -1.3371 -0.0195
  445MOL0     C61292   7.439   4.444   5.489 -0.5079 -1.1135 -1.1557
  445MOL0     C61293   7.367   4.514   5.607  0.0315 -1.0727  0.4167
  445MOL0     C61294   7.435   4.645   5.655  0.2522  0.1564 -0.5025
  445MOL0     C61295   7.347   4.732   5.750  0.1209  1.2630  0.7586
  445MOL0     O61296   7.309   4.641   5.850  1.1500  0.7142 -0.4640
  445MOL0     C61297   7.259   4.698   5.969 -0.4102  0.3824  0.7782
  445MOL0     C61298   7.302   4.621   6.082 -0.6340  0.2178 -0.6598
  445MOL0     C61299   7.258   4.657   6.214  0.6665  0.3475 -0.0457
  445MOL0     C61300   7.325   4.589   6.338  0.6483  1.1671  1.3289
  445MOL0     C61301   7.162   4.764   6.230 -0.3883 -0.4784 -0.2758
  445MOL0     C61302   7.105   4.804   6.369 -0.3928  0.8639 -0.5067
  445MOL0     O61303   7.005   4.900   6.365 -0.1157 -0.6078 -0.9065
  445MOL0     C61304   6.943   4.931   6.483  1.2917 -0.1825  0.6118
  445MOL0     C61305   6.802   4.928   6.473 -0.9701 -0.7987  0.6894
  445MOL0     C61306   6.724   4.966   6.582  0.0606 -0.7060  0.6290
  445MOL0     C61307   6.778   5.028   6.694 -0.7445  0.1518  0.3546
  445MOL0     O61308   6.708   5.071   6.799 -0.3222 -0.2865 -0.2796
  445MOL0     C61309   6.559   5.083   6.779 -0.3389  0.7191  1.3539
  445MOL0     C61310   6.514   5.130   6.912  0.6883 -0.8114 -0.7600
  445MOL0     C61311   6.363   5.153   6.930  0.2864 -0.2585  0.2338
  445MOL0     C61312   6.333   5.190   7.078  0.6955  0.4596  1.0241
  445MOL0     C61313   6.178   5.202   7.110  0.6495  0.7523  0.1788
  445MOL0     C61314   6.134   5.356   7.123 -0.3742 -0.0349 -0.8239
  445MOL0     C61315   5.988   5.380   7.141 -0.6655  0.1137  1.0634
  445MOL0     C61316   5.947   5.513   7.198  0.3590 -0.2415 -0.7806
  445MOL0    Cl61317   5.999   5.645   7.092 -0.3840 -0.0420  0.4865
  445MOL0     C61318   6.911   5.036   6.709  0.3211 -0.2923  0.4385
  445MOL0     C61319   6.996   4.978   6.606 -0.5630 -0.0941 -0.3257
  445MOL0     O61320   7.145   4.746   6.473  0.4432  0.3444 -0.1253
  445MOL0     C61321   7.126   4.835   6.112  0.0345  0.0085 -0.2907
  445MOL0     C61322   7.176   4.803   5.983  0.2822 -0.5095 -0.4753
  445MOL0     N61323   7.284   4.317   5.332 -0.2556 -0.0109  0.6166
  445MOL0     N61324   7.255   4.185   5.306 -0.0987  0.2561  0.2373
  445MOL0     C61325   6.901   3.464   6.210  0.7775  0.2398 -0.7596
  445MOL0     C61326   6.870   3.332   6.260  0.2708  0.9525 -0.7939
  445MOL0     C61327   6.773   2.985   6.511  0.2150  0.0714 -0.4171
  445MOL0     C61328   6.638   2.950   6.542  0.0835  0.1827  0.5586
  445MOL0     C61329   6.601   2.827   6.602  0.3557 -0.0856  0.0049
  445MOL0     C61330   6.700   2.732   6.627  0.5663  0.2793  0.9402
  445MOL0     O61331   6.679   2.604   6.672 -0.2457 -0.3958  0.0787
  445MOL0     C61332   6.640   2.596   6.809 -0.1734  0.0948  0.9594
  445MOL0     C61333   6.762   2.588   6.903  1.2902  0.1161 -0.1708
  445MOL0     C61334   6.712   2.586   7.050  0.9448 -0.2700  0.6600
  445MOL0     C61335   6.622   2.702   7.075  0.4715  0.1686  1.0451
  445MOL0     C61336   6.629   2.729   7.214 -0.4972 -0.4168 -0.6994
  445MOL0     C61337   6.628   2.750   7.332 -0.6709  0.1753 -0.8664
  445MOL0     C61338   6.836   2.762   6.595 -0.0901 -0.7089  0.1252
  445MOL0     C61339   6.876   2.885   6.529 -0.4860 -0.1257  0.0020
  445MOL0     C61340   7.022   2.917   6.509 -0.9943  0.6295 -0.1081
  445MOL0     H61341   7.175   3.230   6.387 -1.9128 -0.9951  4.2026
  445MOL0     H61342   7.227   3.446   6.321 -0.1067 -0.6327  0.4718
  445MOL0     H61343   7.251   3.610   6.173  2.9520 -0.5032  5.0679
  445MOL0     H61344   7.204   3.716   6.315 -2.1641 -2.5966  0.9295
  445MOL0     H61345   7.117   3.891   6.165 -1.0851 -1.4315 -0.6132
  445MOL0     H61346   7.280   3.857   6.124 -1.2789  1.1562  2.2999
  445MOL0     H61347   7.177   3.731   5.915 -0.8480  0.0263 -0.6405
  445MOL0     H61348   7.021   3.767   5.990  0.2659 -0.5562  1.0523
  445MOL0     H61349   7.052   4.003   5.971  0.2662 -0.1816  0.5408
  445MOL0     H61350   7.228   3.976   5.929  0.0842 -1.3666  2.6064
  445MOL0     H61351   7.005   3.990   5.731  1.2502 -1.0565 -3.2705
  445MOL0     H61352   7.048   3.835   5.743 -2.6483  0.7250 -0.9680
  445MOL0     H61353   7.242   4.070   5.678  0.3747 -0.0851 -2.3796
  445MOL0     H61354   7.308   3.911   5.700  1.5130  1.9279 -1.4640
  445MOL0     H61355   7.095   3.972   5.492  0.4285 -0.9096  2.7434
  445MOL0     H61356   7.189   3.823   5.513 -1.1941 -0.5978 -0.6458
  445MOL0     H61357   7.408   3.952   5.459  0.2025  4.7253  0.8759
  445MOL0     H61358   7.294   3.927   5.321 -2.2404  0.1280  0.8404
  445MOL0     H61359   7.489   4.176   5.538 -0.8712  2.3289  1.0157
  445MOL0     H61360   7.447   4.517   5.409 -2.8721  0.7714  0.1962
  445MOL0     H61361   7.536   4.410   5.527 -1.4121 -3.6500 -0.9301
  445MOL0     H61362   7.274   4.554   5.568  0.3152  4.4021  4.2615
  445MOL0     H61363   7.340   4.451   5.693 -5.4400  1.6438  1.1227
  445MOL0     H61364   7.515   4.612   5.722 -0.7615  0.7390  1.0574
  445MOL0     H61365   7.475   4.698   5.568 -1.2968 -3.2613 -3.5284
  445MOL0     H61366   7.400   4.817   5.795  2.5143 -0.0870  0.6794
  445MOL0     H61367   7.261   4.767   5.692 -0.2513 -1.2143 -0.2799
  445MOL0     H61368   7.361   4.530   6.070 -3.8571 -2.3957  1.5229
  445MOL0     H61369   7.249   4.549   6.406 -2.2658 -0.0274 -2.3022
  445MOL0     H61370   7.387   4.668   6.382  0.7864  1.6458  0.3054
  445MOL0     H61371   7.395   4.511   6.307 -1.7915 -1.3998  1.8315
  445MOL0     H61372   6.746   4.905   6.383 -1.1758 -0.0413  0.6211
  445MOL0     H61373   6.616   4.961   6.574 -0.1062  2.2463 -0.2314
  445MOL0     H61374   6.540   5.155   6.698 -0.3352 -0.9158 -0.1472
  445MOL0     H61375   6.497   4.997   6.752  0.8827 -0.4350  2.1207
  445MOL0     H61376   6.540   5.050   6.982  3.3637 -0.5665 -1.3706
  445MOL0     H61377   6.584   5.211   6.933  3.8721 -2.6542 -3.2717
  445MOL0     H61378   6.314   5.057   6.909  1.0689 -1.6226  3.9068
  445MOL0     H61379   6.329   5.227   6.857  1.0088  0.6451  0.7844
  445MOL0     H61380   6.370   5.284   7.120 -1.0478 -0.0356  4.0135
  445MOL0     H61381   6.373   5.106   7.137 -1.1771 -2.4704 -1.5437
  445MOL0     H61382   6.122   5.145   7.035  0.1217  3.0449 -1.2680
  445MOL0     H61383   6.154   5.152   7.205  0.4873 -1.9045 -1.1489
  445MOL0     H61384   6.162   5.407   7.030 -3.5730  0.4122 -1.6834
  445MOL0     H61385   6.186   5.395   7.210  0.0047 -1.9750 -0.1384
  445MOL0     H61386   5.950   5.304   7.211 -1.7459  1.9942  2.6093
  445MOL0     H61387   5.939   5.370   7.044  0.0539 -3.4595  0.9148
  445MOL0     H61388   5.996   5.521   7.296  0.9633 -1.6202 -0.9458
  445MOL0     H61389   5.838   5.523   7.209  0.1688 -2.9010  0.6170
  445MOL0     H61390   6.959   5.082   6.794  0.7395 -2.6479  1.5677
  445MOL0     H61391   7.103   4.977   6.622 -0.2811 -1.5932 -1.9558
  445MOL0     H61392   7.056   4.916   6.131  0.4579 -0.3435  3.4967
  445MOL0     H61393   7.129   4.858   5.901 -0.4418 -3.2541 -2.0266
  445MOL0     H61394   6.827   3.521   6.155 -2.4376 -2.9463 -0.0765
  445MOL0     H61395   6.777   3.282   6.235  1.2111 -1.7126  0.6517
  445MOL0     H61396   6.559   3.021   6.518  0.7071  0.6788 -0.0704
  445MOL0     H61397   6.496   2.825   6.627  0.1987  0.1631 -0.6149
  445MOL0     H61398   6.572   2.675   6.841  2.4141  1.3839  3.6803
  445MOL0     H61399   6.590   2.499   6.820 -0.9007  0.3401 -0.0205
  445MOL0     H61400   6.813   2.682   6.882 -1.3367  2.9934  4.4070
  445MOL0     H61401   6.826   2.500   6.888  0.0013 -0.7449 -0.8141
  445MOL0     H61402   6.669   2.491   7.083 -0.5337 -0.6452 -2.0723
  445MOL0     H61403   6.801   2.591   7.113  2.1564 -1.3295 -0.8889
  445MOL0     H61404   6.520   2.684   7.039  0.0804 -0.4289  2.3806
  445MOL0     H61405   6.659   2.788   7.019 -3.6848  1.5813  0.1340
  445MOL0     H61406   6.631   2.761   7.439 -1.9841  0.5169 -0.8504
  445MOL0     H61407   6.918   2.693   6.613  0.9631  1.0510  2.7488
  445MOL0     H61408   7.055   2.887   6.409 -0.0915  0.5767  0.1971
  445MOL0     H61409   7.046   3.018   6.542  0.0652  0.5607 -0.6473
  445MOL0     H61410   7.077   2.861   6.585 -1.5899 -0.8583 -0.7180
  446MOL0     O61411   1.187   2.585   7.346 -0.0917 -0.4960  0.3075
  446MOL0     C61412   1.192   2.706   7.325  0.2659  0.5247  0.0192
  446MOL0     O61413   1.294   2.782   7.346 -0.4572  0.4702 -0.3632
  446MOL0     C61414   1.381   2.744   7.450 -0.0901  0.3487  0.7963
  446MOL0     C61415   1.522   2.751   7.428 -0.9011  0.0281 -0.1950
  446MOL0     C61416   1.609   2.724   7.537 -0.1326 -0.6038  0.4675
  446MOL0     C61417   1.553   2.702   7.662 -0.8318 -0.5754  0.9831
  446MOL0     O61418   1.632   2.671   7.769 -0.6126 -0.0105  0.1416
  446MOL0     C61419   1.779   2.655   7.765  0.0470  0.0678 -0.1495
  446MOL0     C61420   1.842   2.669   7.907 -0.4074  0.8619 -0.3221
  446MOL0     C61421   1.825   2.551   8.007 -0.7702  0.4891  0.2099
  446MOL0     C61422   1.844   2.582   8.149  0.2102  0.0985 -0.2446
  446MOL0     C61423   1.792   2.497   8.264 -0.5076  0.1154  0.4600
  446MOL0     C61424   1.837   2.355   8.265 -0.8409  0.0241 -0.2779
  446MOL0     C61425   1.787   2.275   8.390  0.6690 -0.3669  0.6296
  446MOL0     C61426   1.848   2.318   8.523  0.8855  0.4960 -0.6499
  446MOL0     N61427   1.804   2.238   8.642 -0.2241  0.3336  0.1821
  446MOL0     C61428   1.773   2.104   8.650  0.5079  0.2682  0.4938
  446MOL0     C61429   1.743   2.080   8.777  0.5870  0.2943 -0.2638
  446MOL0     C61430   1.710   1.943   8.845  0.2456 -0.0910  1.2111
  446MOL0     C61431   1.604   1.942   8.956  0.6465 -0.7543  0.1731
  446MOL0     C61432   1.479   2.020   8.912 -0.6787 -0.3922  0.0196
  446MOL0     C61433   1.366   2.009   9.016  0.0601  0.1834  0.7747
  446MOL0     O61434   1.261   2.114   8.967 -0.5367  1.0359 -0.1662
  446MOL0     C61435   1.142   2.115   9.026  0.9783 -1.0363 -0.1426
  446MOL0     C61436   1.107   2.026   9.127  0.9557 -0.3809 -0.9906
  446MOL0     C61437   0.988   2.049   9.203  0.1618  0.4424 -0.0849
  446MOL0     C61438   0.952   1.960   9.315  0.3473  0.2742 -1.1609
  446MOL0     C61439   0.899   2.163   9.177 -0.6102  0.4731  0.5995
  446MOL0     C61440   0.778   2.199   9.259  0.9050 -0.2688 -0.1902
  446MOL0     O61441   0.691   2.102   9.305 -0.4044  0.9648 -0.5002
  446MOL0     C61442   0.575   2.121   9.375 -0.4805  0.1402  0.3604
  446MOL0     C61443   0.516   2.002   9.426  1.4771  0.1272 -0.6486
  446MOL0     C61444   0.410   2.011   9.525  0.9103  0.2041 -0.3515
  446MOL0     C61445   0.356   2.135   9.552 -0.6186  0.1082 -0.5089
  446MOL0     O61446   0.241   2.128   9.630  0.1001 -0.0165 -0.0316
  446MOL0     C61447   0.164   2.245   9.641 -0.0394  0.1528  0.7163
  446MOL0     C61448   0.038   2.213   9.727  1.1536  0.0086  0.0126
  446MOL0     C61449   0.038   2.271   9.871 -0.5686  0.2820 -0.9642
  446MOL0     C61450  -0.099   2.297   9.944 -0.5862  0.1540  0.0765
  446MOL0     C61451  -0.087   2.358  10.084 -0.4134  0.5457  0.4813
  446MOL0     C61452  -0.038   2.244  10.191  0.5520  0.4720 -0.3769
  446MOL0     C61453  -0.140   2.125  10.207  0.2220 -0.1627 -0.4929
  446MOL0     C61454  -0.170   2.085  10.352  0.5214  0.0345 -0.0672
  446MOL0    Cl61455  -0.306   1.965  10.347 -0.2846  0.1018 -0.4111
  446MOL0     C61456   0.414   2.250   9.504  0.0791 -0.1936  0.0471
  446MOL0     C61457   0.526   2.245   9.408  0.3435 -0.4395 -0.5352
  446MOL0     O61458   0.780   2.316   9.300 -0.6155  0.1404  0.1981
  446MOL0     C61459   0.935   2.240   9.066 -0.0376  0.4157 -0.3765
  446MOL0     C61460   1.052   2.220   8.991  0.3958  0.1780  0.2031
  446MOL0     N61461   1.751   2.207   8.845  0.2264  0.7738  0.6530
  446MOL0     N61462   1.786   2.299   8.768 -0.2467  0.1478 -0.3666
  446MOL0     C61463   1.413   2.694   7.675 -0.7629 -0.2652 -0.2723
  446MOL0     C61464   1.325   2.719   7.571 -0.0408  0.4135 -0.6195
  446MOL0     C61465   1.096   2.752   7.219  0.3797  0.0807  0.1640
  446MOL0     C61466   1.139   2.793   7.093  0.6175  0.4641  0.5741
  446MOL0     C61467   1.049   2.845   6.991 -0.9060 -0.0890 -0.6906
  446MOL0     C61468   0.912   2.863   7.036  0.0573 -0.5011 -0.4175
  446MOL0     O61469   0.822   2.942   6.983  0.9034  0.2255  0.3114
  446MOL0     C61470   0.854   3.031   6.878 -0.1473 -0.4390 -0.2103
  446MOL0     C61471   0.718   3.102   6.844 -0.1509  0.6430  0.1434
  446MOL0     C61472   0.707   3.188   6.719 -0.5952 -0.3815 -0.4347
  446MOL0     C61473   0.575   3.255   6.690 -0.7730 -0.1688  0.0143
  446MOL0     C61474   0.478   3.151   6.652  0.7204 -0.2735 -0.0253
  446MOL0     C61475   0.421   3.047   6.619 -0.1755 -0.8230  0.0354
  446MOL0     C61476   0.873   2.821   7.165  0.5306  1.1471 -0.3740
  446MOL0     C61477   0.961   2.756   7.247  0.3351 -1.0747 -0.7457
  446MOL0     C61478   0.910   2.683   7.369 -0.1829  0.1198 -0.7895
  446MOL0     H61479   1.563   2.789   7.335  2.3596 -2.9412 -0.1767
  446MOL0     H61480   1.714   2.737   7.510 -0.8343 -0.3068 -2.4672
  446MOL0     H61481   1.839   2.721   7.701  1.5856 -0.5662  0.5671
  446MOL0     H61482   1.809   2.553   7.739  1.6367  0.0991  1.3405
  446MOL0     H61483   1.950   2.686   7.897  0.1044 -1.9498 -0.3127
  446MOL0     H61484   1.796   2.752   7.962 -0.1690 -0.3079  1.7248
  446MOL0     H61485   1.726   2.504   7.996  0.4925 -1.7897 -3.0322
  446MOL0     H61486   1.894   2.472   7.976 -1.3227  0.7115 -1.7349
  446MOL0     H61487   1.953   2.587   8.164  0.2628 -0.9325 -0.2506
  446MOL0     H61488   1.810   2.686   8.159  4.1207  1.5905 -0.4265
  446MOL0     H61489   1.683   2.502   8.258 -0.3930  0.7757 -1.5597
  446MOL0     H61490   1.815   2.543   8.361  1.0184 -0.0068  0.1792
  446MOL0     H61491   1.804   2.308   8.172 -1.1063  1.7270 -1.0684
  446MOL0     H61492   1.946   2.348   8.273 -0.8236 -0.2756 -0.7668
  446MOL0     H61493   1.811   2.170   8.375  2.1581 -0.0251  0.4523
  446MOL0     H61494   1.678   2.280   8.392  0.7104  1.3181  0.2193
  446MOL0     H61495   1.956   2.316   8.508  1.0247  2.9289 -0.3431
  446MOL0     H61496   1.805   2.418   8.540  0.4308  0.1352  0.3724
  446MOL0     H61497   1.766   2.031   8.570 -0.2867  1.8841 -0.9967
  446MOL0     H61498   1.797   1.898   8.894  0.4149  0.6783  1.6435
  446MOL0     H61499   1.674   1.886   8.759 -1.7176  1.9093  0.5947
  446MOL0     H61500   1.583   1.837   8.976  1.3263 -0.4509  2.8216
  446MOL0     H61501   1.646   1.995   9.042  1.0851 -1.9978  0.7354
  446MOL0     H61502   1.501   2.123   8.883 -0.6223 -0.3156  0.3238
  446MOL0     H61503   1.448   1.981   8.815 -0.1299  2.4417 -1.4007
  446MOL0     H61504   1.338   1.904   9.025 -1.9856  0.7107  1.1451
  446MOL0     H61505   1.405   2.047   9.111 -0.4074 -1.4839  1.6817
  446MOL0     H61506   1.172   1.942   9.148  1.5762  1.1380  5.5301
  446MOL0     H61507   1.024   1.879   9.334 -1.0587 -0.6088  0.8662
  446MOL0     H61508   0.854   1.913   9.301 -0.7342  2.9434 -3.2551
  446MOL0     H61509   0.931   2.012   9.409 -1.8944 -0.3538 -1.2394
  446MOL0     H61510   0.568   1.911   9.395 -2.9361 -2.1208 -2.3565
  446MOL0     H61511   0.353   1.925   9.557 -0.0024  0.9022 -0.0488
  446MOL0     H61512   0.229   2.311   9.699 -0.7938  0.2390  1.4770
  446MOL0     H61513   0.145   2.283   9.540  4.9817 -5.0522 -2.8843
  446MOL0     H61514  -0.057   2.257   9.694  1.1972 -0.6251 -0.9799
  446MOL0     H61515   0.026   2.104   9.727  1.0831 -0.0877  3.5496
  446MOL0     H61516   0.096   2.364   9.866  1.4164 -0.9685 -2.4329
  446MOL0     H61517   0.088   2.200   9.937 -0.5190 -0.0048 -1.3126
  446MOL0     H61518  -0.156   2.203   9.941  2.2765 -1.7345  1.1631
  446MOL0     H61519  -0.162   2.361   9.881  1.1093  1.0536 -0.7604
  446MOL0     H61520  -0.027   2.449  10.075  2.3510 -1.1129  1.0816
  446MOL0     H61521  -0.189   2.388  10.112  0.2352  1.1404  2.3253
  446MOL0     H61522  -0.020   2.291  10.288  1.3917 -0.2260 -0.1828
  446MOL0     H61523   0.058   2.204  10.157  0.2123  0.6244 -1.5626
  446MOL0     H61524  -0.093   2.038  10.159  3.5499  1.1409  0.1068
  446MOL0     H61525  -0.229   2.149  10.148  1.0950 -1.1065 -2.2977
  446MOL0     H61526  -0.192   2.161  10.428  1.7355 -1.1227  1.5052
  446MOL0     H61527  -0.084   2.034  10.396  0.5706  0.2782  0.1221
  446MOL0     H61528   0.363   2.340   9.536 -2.7726 -2.2345  1.7230
  446MOL0     H61529   0.569   2.337   9.370 -0.0300  0.5522  1.2999
  446MOL0     H61530   0.862   2.317   9.042  0.3549  1.8160  2.5022
  446MOL0     H61531   1.079   2.289   8.912  2.2448  1.0045  1.4872
  446MOL0     H61532   1.371   2.646   7.763 -0.1899 -1.4717 -0.6294
  446MOL0     H61533   1.219   2.727   7.593  0.1476  1.5872 -0.0305
  446MOL0     H61534   1.242   2.770   7.065  0.7803 -2.2142  2.8765
  446MOL0     H61535   1.073   2.889   6.895 -3.3571 -0.7431 -1.6807
  446MOL0     H61536   0.913   3.112   6.921 -2.4340  0.4203  1.5148
  446MOL0     H61537   0.902   2.974   6.798 -1.5545 -2.5556  0.3777
  446MOL0     H61538   0.718   3.178   6.923 -1.9411  1.6905 -0.7862
  446MOL0     H61539   0.634   3.034   6.856  0.0878 -0.2539 -2.5692
  446MOL0     H61540   0.785   3.265   6.724 -0.0658 -0.9772  0.9281
  446MOL0     H61541   0.741   3.123   6.638 -2.2719 -1.6272 -0.1795
  446MOL0     H61542   0.589   3.312   6.597  1.4324 -0.7450 -0.0566
  446MOL0     H61543   0.554   3.323   6.773  1.0489 -0.3250  0.6439
  446MOL0     H61544   0.370   2.956   6.593 -0.0521 -1.5912  2.2337
  446MOL0     H61545   0.772   2.837   7.200 -0.9510 -3.0379 -2.1589
  446MOL0     H61546   0.921   2.578   7.338  1.8346 -0.9431  2.9336
  446MOL0     H61547   0.954   2.714   7.464  0.2910 -0.0753 -0.9418
  446MOL0     H61548   0.803   2.700   7.373 -0.1975 -0.2444  0.7231
  447MOL0     O61549   4.821   0.609   0.430 -0.1405 -0.3580  0.0352
  447MOL0     C61550   4.913   0.584   0.509 -0.2753  1.2591 -0.1352
  447MOL0     O61551   4.974   0.462   0.525  0.5031 -0.6039  0.0509
  447MOL0     C61552   4.909   0.371   0.451 -0.3876  0.4820  0.4334
  447MOL0     C61553   4.937   0.359   0.315 -0.8483  0.3652  0.6063
  447MOL0     C61554   4.872   0.260   0.244  0.5706 -0.2169 -0.3879
  447MOL0     C61555   4.792   0.167   0.303  0.2230  1.1124  0.4867
  447MOL0     O61556   4.747   0.058   0.234  0.1797  0.4600 -0.0413
  447MOL0     C61557   4.841  -0.036   0.171  0.5104 -0.2315 -0.2627
  447MOL0     C61558   4.772  -0.138   0.078  0.5377 -0.1979  0.3677
  447MOL0     C61559   4.716  -0.078  -0.062  0.0208  1.0078 -1.0448
  447MOL0     C61560   4.670  -0.187  -0.155 -0.4810  0.9306  0.6158
  447MOL0     C61561   4.776  -0.214  -0.271 -0.7073 -0.5178  0.2552
  447MOL0     C61562   4.717  -0.299  -0.391 -0.5885  0.0581  0.1206
  447MOL0     C61563   4.779  -0.261  -0.528 -0.3470  0.0707 -0.8539
  447MOL0     C61564   4.904  -0.340  -0.569  0.7671 -0.5052  0.2129
  447MOL0     N61565   4.986  -0.283  -0.676 -1.3126  0.0966 -0.0970
  447MOL0     C61566   4.991  -0.152  -0.717  0.1299 -0.1676  0.6573
  447MOL0     C61567   5.079  -0.140  -0.819 -0.1331  0.0561  0.3491
  447MOL0     C61568   5.089  -0.018  -0.909  0.6178  0.4316 -0.3558
  447MOL0     C61569   5.220  -0.026  -0.997 -0.2336 -0.2367 -0.1990
  447MOL0     C61570   5.343  -0.026  -0.912 -0.0932  0.3940  0.3717
  447MOL0     C61571   5.338   0.080  -0.802 -1.2492 -0.0941  0.3340
  447MOL0     O61572   5.326   0.194  -0.880  0.8136  0.1329  0.2390
  447MOL0     C61573   5.354   0.322  -0.832  0.1273 -0.0231  1.1489
  447MOL0     C61574   5.318   0.428  -0.915 -0.8030 -0.8959 -0.3282
  447MOL0     C61575   5.352   0.564  -0.871 -0.6346 -0.0070 -0.3342
  447MOL0     C61576   5.287   0.675  -0.944  0.5674  1.0464 -0.0066
  447MOL0     C61577   5.429   0.592  -0.756 -0.5754  0.3107  0.9445
  447MOL0     C61578   5.481   0.717  -0.702  0.4452  0.1929  0.1870
  447MOL0     O61579   5.571   0.715  -0.612 -0.0014 -0.1516 -0.2853
  447MOL0     C61580   5.644   0.835  -0.582 -0.3854 -0.1585  0.4751
  447MOL0     C61581   5.777   0.839  -0.616  0.6419 -0.0754 -0.9325
  447MOL0     C61582   5.854   0.950  -0.573 -0.2889  0.1551 -0.6286
  447MOL0     C61583   5.787   1.059  -0.523  1.1158 -0.1690 -0.4179
  447MOL0     O61584   5.868   1.162  -0.491 -0.1574 -0.3129 -0.3132
  447MOL0     C61585   5.822   1.285  -0.429 -0.6417  0.3122 -0.4801
  447MOL0     C61586   5.838   1.278  -0.282  0.3098  0.2217 -0.0567
  447MOL0     C61587   5.770   1.395  -0.214 -0.1380  0.2744  0.4892
  447MOL0     C61588   5.819   1.405  -0.076 -0.0667 -0.5833 -0.1774
  447MOL0     C61589   5.955   1.468  -0.041 -0.0279  0.9005  0.5995
  447MOL0     C61590   6.001   1.582  -0.133  0.3993  0.2246 -0.8040
  447MOL0     C61591   6.152   1.606  -0.100 -0.2017 -0.3174 -0.3069
  447MOL0     C61592   6.220   1.696  -0.208 -0.6835  0.1953 -0.5051
  447MOL0    Cl61593   6.166   1.877  -0.179 -0.0648  0.3838 -0.0062
  447MOL0     C61594   5.651   1.056  -0.475 -0.3476  0.0239  0.8060
  447MOL0     C61595   5.585   0.943  -0.508 -0.1220  0.2861 -0.2201
  447MOL0     O61596   5.435   0.818  -0.746 -0.6195 -0.2228 -0.1275
  447MOL0     C61597   5.460   0.481  -0.685 -0.3144 -0.0725  0.2784
  447MOL0     C61598   5.423   0.348  -0.719  0.0429 -0.2284  0.4548
  447MOL0     N61599   5.139  -0.268  -0.843 -0.2190  0.1484  0.7529
  447MOL0     N61600   5.082  -0.349  -0.756 -0.5188  0.4354  0.0749
  447MOL0     C61601   4.783   0.162   0.437  0.5313  0.1155  0.4331
  447MOL0     C61602   4.833   0.274   0.516  0.3035  0.8224  0.4217
  447MOL0     C61603   4.985   0.699   0.578 -0.3647  1.5249 -0.1610
  447MOL0     C61604   5.119   0.664   0.619 -1.2325 -0.9219  0.5923
  447MOL0     C61605   5.198   0.765   0.683 -0.0048 -1.0303 -0.6954
  447MOL0     C61606   5.140   0.887   0.723 -0.0804 -0.3698  0.2043
  447MOL0     O61607   5.204   0.986   0.787  1.0932 -0.2748 -0.2267
  447MOL0     C61608   5.349   0.985   0.811 -0.7025 -0.4461 -0.4635
  447MOL0     C61609   5.371   0.937   0.951 -0.2867 -0.8557 -0.0770
  447MOL0     C61610   5.519   0.918   0.969  0.3447 -0.0005  0.6223
  447MOL0     C61611   5.548   0.885   1.117  0.4984  0.2394  0.5304
  447MOL0     C61612   5.685   0.850   1.138  0.1481 -0.5239 -1.4134
  447MOL0     C61613   5.796   0.849   1.186 -0.0106  0.2762  0.1099
  447MOL0     C61614   5.005   0.910   0.699 -1.1667 -0.2236 -0.1663
  447MOL0     C61615   4.932   0.820   0.622 -0.6345  0.2444  0.5925
  447MOL0     C61616   4.780   0.857   0.594 -0.9620  0.6760 -0.0705
  447MOL0     H61617   4.992   0.445   0.278 -0.8432  0.9815  2.0005
  447MOL0     H61618   4.901   0.253   0.140  2.4655  2.6945 -0.1647
  447MOL0     H61619   4.910  -0.089   0.237 -0.2791 -0.8893  0.0344
  447MOL0     H61620   4.911   0.023   0.110 -0.2261 -0.3578 -1.2595
  447MOL0     H61621   4.841  -0.221   0.064 -0.4858 -0.6519 -2.4985
  447MOL0     H61622   4.692  -0.179   0.141  0.7501  0.2356  0.9291
  447MOL0     H61623   4.628  -0.016  -0.046  0.5426  2.1080 -2.2535
  447MOL0     H61624   4.799  -0.018  -0.101 -0.0297  1.4035 -0.5538
  447MOL0     H61625   4.660  -0.282  -0.101  1.2944 -0.3355 -1.1121
  447MOL0     H61626   4.573  -0.163  -0.198 -0.4503  3.5207  1.8387
  447MOL0     H61627   4.866  -0.265  -0.235 -3.0055 -2.7359  3.4748
  447MOL0     H61628   4.797  -0.110  -0.295  1.3991 -0.6614  1.2511
  447MOL0     H61629   4.731  -0.407  -0.377  0.8041  0.2560  0.4758
  447MOL0     H61630   4.609  -0.286  -0.402 -0.8003 -2.2916 -1.2415
  447MOL0     H61631   4.804  -0.156  -0.515 -1.9930  0.2633  1.4855
  447MOL0     H61632   4.707  -0.273  -0.609  1.3954 -2.7059 -2.1632
  447MOL0     H61633   4.961  -0.355  -0.477 -0.9445  0.1291  1.4282
  447MOL0     H61634   4.860  -0.432  -0.608  0.5597 -0.4892  0.4113
  447MOL0     H61635   4.918  -0.075  -0.694 -0.9781 -1.5229  1.8868
  447MOL0     H61636   5.094   0.075  -0.850  2.0059  1.0364 -1.3625
  447MOL0     H61637   4.996   0.002  -0.963 -0.9887  2.2665  2.7825
  447MOL0     H61638   5.220  -0.109  -1.068  1.5340  1.0840 -1.8519
  447MOL0     H61639   5.219   0.062  -1.062  2.2968  0.0387  0.0387
  447MOL0     H61640   5.362  -0.121  -0.861  1.0130  0.3326 -0.1036
  447MOL0     H61641   5.424  -0.008  -0.984 -1.7660 -0.0877 -1.7184
  447MOL0     H61642   5.286   0.069  -0.706  0.2049 -1.2055  1.0495
  447MOL0     H61643   5.438   0.070  -0.758 -1.2212 -2.0620 -0.0519
  447MOL0     H61644   5.281   0.405  -1.014 -0.9415 -0.2116 -0.4426
  447MOL0     H61645   5.208   0.635  -1.009 -0.9330  1.3087  1.5893
  447MOL0     H61646   5.361   0.731  -1.003 -0.5684  1.4952 -1.0547
  447MOL0     H61647   5.240   0.747  -0.877 -1.8704  1.2936 -1.8328
  447MOL0     H61648   5.833   0.757  -0.660  2.5634  0.3372  0.6482
  447MOL0     H61649   5.961   0.953  -0.595 -0.3360 -2.6071 -1.6655
  447MOL0     H61650   5.891   1.366  -0.456  0.1746 -0.1137  0.2772
  447MOL0     H61651   5.718   1.301  -0.459 -0.2792  0.6042 -1.6461
  447MOL0     H61652   5.793   1.185  -0.248  2.0222 -0.9794 -0.9028
  447MOL0     H61653   5.942   1.266  -0.249  0.6749 -0.2716 -1.3130
  447MOL0     H61654   5.661   1.391  -0.219 -0.5539  3.1977  3.4662
  447MOL0     H61655   5.795   1.486  -0.269  1.0209  0.1408  0.7623
  447MOL0     H61656   5.812   1.305  -0.031 -0.7996 -1.3825 -1.9689
  447MOL0     H61657   5.747   1.464  -0.018 -1.5939 -2.8548  0.4016
  447MOL0     H61658   5.957   1.498   0.065 -4.1715  1.5699  0.6347
  447MOL0     H61659   6.021   1.383  -0.061 -1.5324  0.4424 -3.1417
  447MOL0     H61660   5.941   1.670  -0.107  1.9827  0.9644  0.5179
  447MOL0     H61661   5.993   1.569  -0.241 -0.1951 -0.0212 -0.7338
  447MOL0     H61662   6.215   1.517  -0.091  1.7620  1.0830  0.5883
  447MOL0     H61663   6.151   1.659  -0.004 -3.1062 -1.9880  0.6896
  447MOL0     H61664   6.183   1.676  -0.309  0.1613  0.0441 -0.8024
  447MOL0     H61665   6.326   1.669  -0.194 -0.6728 -0.3395 -1.5183
  447MOL0     H61666   5.606   1.139  -0.422 -0.4216 -0.2081  1.1132
  447MOL0     H61667   5.486   0.911  -0.477 -1.0109 -2.0323 -4.6694
  447MOL0     H61668   5.519   0.488  -0.594  0.9058  2.3106 -0.6211
  447MOL0     H61669   5.454   0.263  -0.659 -1.5090 -1.1774 -0.0405
  447MOL0     H61670   4.723   0.087   0.487 -2.4728  2.9564  1.4436
  447MOL0     H61671   4.822   0.283   0.623  0.8258 -0.4058  0.5992
  447MOL0     H61672   5.177   0.575   0.598  0.0713  0.1580 -0.5668
  447MOL0     H61673   5.295   0.730   0.715  0.4585  0.4393 -0.4207
  447MOL0     H61674   5.408   0.927   0.738  0.1617  1.6744 -1.5461
  447MOL0     H61675   5.381   1.089   0.799  1.5813 -1.1422 -0.9441
  447MOL0     H61676   5.322   0.840   0.955 -2.0560 -0.1648 -2.3823
  447MOL0     H61677   5.322   1.006   1.021 -0.0184 -1.0481  0.3018
  447MOL0     H61678   5.555   0.835   0.907  2.3597  1.4037 -0.2140
  447MOL0     H61679   5.576   1.008   0.947 -0.9242  0.5445 -0.5426
  447MOL0     H61680   5.487   0.799   1.145 -0.5344  0.8006  0.0424
  447MOL0     H61681   5.511   0.968   1.179  0.2508  0.1294  0.5317
  447MOL0     H61682   5.897   0.861   1.221  0.6638 -1.5699 -1.0326
  447MOL0     H61683   4.960   1.002   0.736 -2.9718 -0.2795 -2.0215
  447MOL0     H61684   4.758   0.858   0.487 -0.6142 -1.7839 -0.2298
  447MOL0     H61685   4.716   0.773   0.625 -4.4919  2.0526 -2.8480
  447MOL0     H61686   4.745   0.943   0.652 -2.7546  0.8038 -1.2599
  448MOL0     O61687   2.187   0.205   2.073 -0.4599  0.0815  0.1151
  448MOL0     C61688   2.265   0.298   2.048 -0.7015 -0.3544 -0.7491
  448MOL0     O61689   2.392   0.282   2.009 -0.2559 -0.2131 -0.2259
  448MOL0     C61690   2.435   0.173   1.946 -0.1799  0.5758 -0.1851
  448MOL0     C61691   2.543   0.110   2.000 -0.1403 -1.0463 -0.3734
  448MOL0     C61692   2.580  -0.012   1.949 -0.3635 -1.1866 -0.2375
  448MOL0     C61693   2.518  -0.081   1.849  0.9065 -0.2875 -0.3554
  448MOL0     O61694   2.560  -0.210   1.819  0.2308  0.1284  0.8305
  448MOL0     C61695   2.514  -0.275   1.699 -0.5464 -1.0116 -0.7147
  448MOL0     C61696   2.564  -0.426   1.696  0.2766 -0.2196  0.0781
  448MOL0     C61697   2.709  -0.418   1.642 -0.1107 -0.1254 -0.1126
  448MOL0     C61698   2.760  -0.550   1.593 -0.6399 -0.7704  0.3459
  448MOL0     C61699   2.894  -0.526   1.517  0.2859  0.2647 -0.8155
  448MOL0     C61700   2.943  -0.666   1.470  0.9872  0.1386  0.2164
  448MOL0     C61701   3.077  -0.647   1.404  0.4251 -0.8659 -0.2778
  448MOL0     C61702   3.067  -0.591   1.256  0.0459  0.3793  0.4473
  448MOL0     N61703   3.203  -0.565   1.206  0.0571  0.4733  0.2717
  448MOL0     C61704   3.295  -0.647   1.150 -0.8734  0.9257 -0.7338
  448MOL0     C61705   3.394  -0.559   1.120 -0.8300  0.6944  0.4893
  448MOL0     C61706   3.516  -0.602   1.053 -0.7129  0.4132  0.1668
  448MOL0     C61707   3.607  -0.489   1.004  0.3301  0.9521  0.4068
  448MOL0     C61708   3.753  -0.544   0.969 -0.0268 -0.2179  0.5926
  448MOL0     C61709   3.850  -0.438   0.917  1.3658  0.1101  0.0088
  448MOL0     O61710   3.884  -0.342   1.020  0.1016 -1.0809  0.1933
  448MOL0     C61711   3.970  -0.240   1.007  0.0008 -1.2602  0.0486
  448MOL0     C61712   4.065  -0.221   0.910 -0.0839  0.8494 -0.0927
  448MOL0     C61713   4.162  -0.121   0.919  0.1348 -0.1580  0.5936
  448MOL0     C61714   4.283  -0.123   0.818  0.1092  0.2279 -0.0540
  448MOL0     C61715   4.148  -0.024   1.026 -0.8091  0.6246  0.7640
  448MOL0     C61716   4.245   0.089   1.050 -0.0864  0.2818 -0.1752
  448MOL0     O61717   4.227   0.152   1.167  0.5064 -0.0003 -0.5457
  448MOL0     C61718   4.308   0.250   1.214  0.6740 -0.0496  0.2649
  448MOL0     C61719   4.407   0.222   1.313  0.3689  0.3655  1.0213
  448MOL0     C61720   4.487   0.316   1.353 -0.6945  0.2293  0.5330
  448MOL0     C61721   4.478   0.444   1.312  0.7174  0.1810  0.4317
  448MOL0     O61722   4.578   0.531   1.345  0.2333  0.6192 -0.6297
  448MOL0     C61723   4.583   0.662   1.294  0.0430 -0.1585  0.5953
  448MOL0     C61724   4.691   0.743   1.361  0.0099 -0.9759  0.4242
  448MOL0     C61725   4.832   0.674   1.354 -0.0725 -0.1151 -0.2111
  448MOL0     C61726   4.882   0.679   1.499 -0.5009 -0.5649 -0.6393
  448MOL0     C61727   5.017   0.611   1.517  0.2451  0.7334 -0.1169
  448MOL0     C61728   5.131   0.700   1.474  0.0254  0.4549 -0.6392
  448MOL0     C61729   5.194   0.640   1.343 -0.4942 -1.3544 -0.1186
  448MOL0     C61730   5.285   0.527   1.377 -0.0803 -0.6085  0.4480
  448MOL0    Cl61731   5.442   0.601   1.442  0.3238  0.4304  0.2401
  448MOL0     C61732   4.378   0.478   1.220 -0.4060  0.0886 -0.3061
  448MOL0     C61733   4.290   0.381   1.171  0.3705  0.5684  0.8643
  448MOL0     O61734   4.328   0.119   0.962 -0.1073  0.4340  0.1812
  448MOL0     C61735   4.038  -0.035   1.109  1.0765  0.9726 -0.7984
  448MOL0     C61736   3.952  -0.144   1.100  0.3812 -0.3695  0.3850
  448MOL0     N61737   3.357  -0.426   1.150 -0.0964 -0.3921 -0.3597
  448MOL0     N61738   3.239  -0.433   1.199 -0.0991  0.3052 -1.5383
  448MOL0     C61739   2.416  -0.014   1.791  0.4728 -0.1319 -1.1597
  448MOL0     C61740   2.369   0.102   1.843  0.3780 -0.4551 -0.3218
  448MOL0     C61741   2.219   0.440   2.063 -1.0492  0.0187 -0.1817
  448MOL0     C61742   2.082   0.459   2.039  0.6057 -0.1711  0.6323
  448MOL0     C61743   2.021   0.584   2.046 -0.1247  0.8646 -0.3475
  448MOL0     C61744   2.089   0.695   2.091 -0.1795  0.3089  0.8073
  448MOL0     O61745   2.037   0.816   2.132 -0.5155 -0.4540  0.0354
  448MOL0     C61746   1.898   0.828   2.149  0.6797 -0.4264 -0.3183
  448MOL0     C61747   1.845   0.973   2.163  0.3577  0.4964 -0.5903
  448MOL0     C61748   1.841   1.047   2.024  0.4354  0.4812 -0.4901
  448MOL0     C61749   1.692   1.055   1.977 -0.0799  0.4591  0.0908
  448MOL0     C61750   1.624   1.163   2.032  0.5320 -0.3381  0.6974
  448MOL0     C61751   1.583   1.273   2.069 -0.5780  0.7418 -0.0703
  448MOL0     C61752   2.227   0.682   2.113 -0.4235 -0.5408  0.4045
  448MOL0     C61753   2.298   0.557   2.093  0.1678  0.2239 -0.0973
  448MOL0     C61754   2.457   0.569   2.105  1.1479 -0.7202  0.7498
  448MOL0     H61755   2.606   0.146   2.081  0.3402  1.0493 -1.6057
  448MOL0     H61756   2.671  -0.059   1.985  1.8283  2.2466 -0.7338
  448MOL0     H61757   2.569  -0.221   1.621  2.8697 -0.5047  1.8411
  448MOL0     H61758   2.407  -0.278   1.679 -0.3527 -0.0210 -2.0122
  448MOL0     H61759   2.570  -0.467   1.798 -0.1278 -0.8079 -0.1317
  448MOL0     H61760   2.494  -0.473   1.626  2.4739 -0.3581 -2.1507
  448MOL0     H61761   2.705  -0.348   1.558  0.0689  1.3107  1.0504
  448MOL0     H61762   2.776  -0.392   1.725 -1.1664 -1.8392  1.3615
  448MOL0     H61763   2.773  -0.623   1.673 -2.7383 -2.7506 -0.9956
  448MOL0     H61764   2.694  -0.598   1.520  0.6301 -2.1488  0.0490
  448MOL0     H61765   2.970  -0.483   1.582 -0.4723 -0.3651  0.5252
  448MOL0     H61766   2.876  -0.450   1.440  0.1952  0.8632 -0.2139
  448MOL0     H61767   2.949  -0.727   1.561  0.2113 -0.2675  0.0074
  448MOL0     H61768   2.864  -0.707   1.407  0.0292 -0.9630  2.0410
  448MOL0     H61769   3.127  -0.744   1.397  1.6750 -0.2701  0.2488
  448MOL0     H61770   3.137  -0.590   1.475 -0.3182  1.2268 -1.2225
  448MOL0     H61771   3.009  -0.670   1.207 -2.0016  1.0417  1.6866
  448MOL0     H61772   3.031  -0.489   1.243  1.2979  0.8362  0.3951
  448MOL0     H61773   3.294  -0.755   1.142 -3.5680  0.9633 -2.3523
  448MOL0     H61774   3.494  -0.658   0.962 -0.8096  0.7220  0.0015
  448MOL0     H61775   3.571  -0.677   1.112 -1.0113  0.0264 -0.0469
  448MOL0     H61776   3.557  -0.443   0.918  0.7904  0.5730 -0.0707
  448MOL0     H61777   3.625  -0.426   1.092 -1.4716 -0.0812  1.5809
  448MOL0     H61778   3.799  -0.590   1.056  2.7539  0.4879 -0.4056
  448MOL0     H61779   3.737  -0.614   0.886 -0.3410  2.2041 -1.5181
  448MOL0     H61780   3.932  -0.506   0.892  0.2394 -2.5553  2.9375
  448MOL0     H61781   3.818  -0.385   0.826  0.3004 -1.5934 -0.6402
  448MOL0     H61782   4.082  -0.294   0.832  0.3325 -2.0033  2.5014
  448MOL0     H61783   4.273  -0.042   0.746 -2.5978 -1.6254 -2.0115
  448MOL0     H61784   4.284  -0.213   0.755 -1.5093  1.6512 -2.2387
  448MOL0     H61785   4.376  -0.112   0.874  0.4779 -5.8815  1.2601
  448MOL0     H61786   4.423   0.118   1.341  0.7774 -0.2547 -1.3202
  448MOL0     H61787   4.566   0.291   1.424  0.7540  1.0824 -0.7038
  448MOL0     H61788   4.605   0.669   1.187 -1.0118  1.2396  0.4367
  448MOL0     H61789   4.485   0.710   1.304  0.2720  0.3355  0.4774
  448MOL0     H61790   4.699   0.842   1.314 -0.8036 -1.2546 -0.3452
  448MOL0     H61791   4.671   0.765   1.466  1.0814  3.2473 -0.0700
  448MOL0     H61792   4.901   0.726   1.286 -0.0678  1.9053  1.2614
  448MOL0     H61793   4.821   0.574   1.311 -2.1984  1.5415 -4.0385
  448MOL0     H61794   4.812   0.619   1.559  0.9219 -3.1327 -1.3863
  448MOL0     H61795   4.879   0.781   1.537 -2.7675 -1.1907  1.0907
  448MOL0     H61796   5.030   0.604   1.625 -1.5865  0.3955  0.1098
  448MOL0     H61797   5.016   0.509   1.477 -0.0692  0.3296  0.8865
  448MOL0     H61798   5.208   0.698   1.551  1.0594 -4.7077 -1.4621
  448MOL0     H61799   5.097   0.803   1.458  0.0166  0.4712 -0.5180
  448MOL0     H61800   5.247   0.726   1.302 -0.2362 -0.8323  1.2588
  448MOL0     H61801   5.117   0.610   1.272  0.2217 -0.7687 -1.1638
  448MOL0     H61802   5.306   0.480   1.281 -2.5594 -2.1041  0.5449
  448MOL0     H61803   5.237   0.464   1.453  0.3260  3.8478  4.9690
  448MOL0     H61804   4.350   0.572   1.173  1.1678  1.0626  0.6100
  448MOL0     H61805   4.210   0.392   1.098  0.8013 -3.1122 -0.3908
  448MOL0     H61806   4.019   0.042   1.183  3.5060  0.2578  0.7025
  448MOL0     H61807   3.864  -0.144   1.164 -0.5923 -2.7576 -0.8438
  448MOL0     H61808   2.356  -0.056   1.710 -1.4681 -0.5003  0.3978
  448MOL0     H61809   2.273   0.136   1.806  1.8826  2.0463 -2.2974
  448MOL0     H61810   2.027   0.365   2.035 -1.7375  1.0195  2.3507
  448MOL0     H61811   1.913   0.587   2.041 -0.1208  1.4233 -0.1019
  448MOL0     H61812   1.840   0.778   2.070 -0.5073  0.5864 -0.1217
  448MOL0     H61813   1.858   0.769   2.232 -0.8377  0.9545 -0.0060
  448MOL0     H61814   1.912   1.035   2.224 -1.2637  2.2977 -0.5438
  448MOL0     H61815   1.749   0.962   2.215 -0.8715  1.9033 -2.4560
  448MOL0     H61816   1.867   1.153   2.034  2.0912  0.0013  0.6860
  448MOL0     H61817   1.890   0.979   1.954  0.6684 -1.5220  1.5120
  448MOL0     H61818   1.632   0.968   2.003  0.1370  0.5558  0.9324
  448MOL0     H61819   1.700   1.054   1.868 -0.6738 -0.6191  0.0445
  448MOL0     H61820   1.538   1.366   2.098 -1.0717  0.5292 -0.1315
  448MOL0     H61821   2.280   0.775   2.129 -0.8470 -0.2063 -0.1108
  448MOL0     H61822   2.505   0.542   2.010 -0.3383 -0.5449 -0.0813
  448MOL0     H61823   2.495   0.669   2.125  3.1724 -0.9485 -1.4743
  448MOL0     H61824   2.497   0.498   2.178  1.2346 -4.5188 -2.5909
  449MOL0     O61825   6.790   2.980   5.024  0.0869 -0.2577 -0.0913
  449MOL0     C61826   6.688   3.011   4.975 -0.2988 -0.4139 -0.2486
  449MOL0     O61827   6.673   3.132   4.912 -0.2445 -0.6760  0.6182
  449MOL0     C61828   6.787   3.203   4.873  0.0036 -0.5241  0.4104
  449MOL0     C61829   6.863   3.171   4.754 -0.2029 -0.3904 -0.2298
  449MOL0     C61830   6.977   3.244   4.716 -0.4573 -0.4006  0.8301
  449MOL0     C61831   7.025   3.346   4.802 -0.6125  0.6006  0.5901
  449MOL0     O61832   7.134   3.427   4.763 -0.1958  0.1459  0.1928
  449MOL0     C61833   7.201   3.377   4.635 -0.5741 -1.1089 -0.2385
  449MOL0     C61834   7.281   3.504   4.593  1.2237  0.7014 -0.0812
  449MOL0     C61835   7.182   3.618   4.537 -0.6188  0.4805 -0.1738
  449MOL0     C61836   7.254   3.750   4.502  0.3801  0.1210 -0.1639
  449MOL0     C61837   7.164   3.816   4.393  0.3171  0.8928  0.0957
  449MOL0     C61838   7.233   3.929   4.324  0.0057  0.2817  0.5127
  449MOL0     C61839   7.127   4.000   4.241  0.0048  1.0626  0.3756
  449MOL0     C61840   7.188   4.116   4.168 -0.2629 -0.2190  0.2694
  449MOL0     N61841   7.317   4.087   4.093  0.3837  0.2602 -0.1471
  449MOL0     C61842   7.331   4.006   3.981 -0.4192 -0.4477  0.1230
  449MOL0     C61843   7.467   3.996   3.971  0.3902  0.4006  0.9994
  449MOL0     C61844   7.510   3.877   3.879  0.4229 -1.1851 -1.0386
  449MOL0     C61845   7.492   3.888   3.724  0.1206  0.3972 -0.3977
  449MOL0     C61846   7.600   3.994   3.663 -0.2689  1.5694 -0.0820
  449MOL0     C61847   7.590   4.137   3.712  0.8653  0.0531 -0.1117
  449MOL0     O61848   7.456   4.185   3.689 -1.3079 -0.8210  0.1448
  449MOL0     C61849   7.452   4.321   3.710  0.0338  0.6017 -0.2015
  449MOL0     C61850   7.480   4.374   3.830 -0.7093 -0.5441 -0.1280
  449MOL0     C61851   7.490   4.514   3.856 -0.0326  0.0046 -0.4068
  449MOL0     C61852   7.503   4.563   3.995  0.0289  0.7542  0.6133
  449MOL0     C61853   7.473   4.605   3.743  0.0395 -0.9365  0.4969
  449MOL0     C61854   7.485   4.762   3.756  0.0500  0.0634 -1.1917
  449MOL0     O61855   7.530   4.841   3.646  0.5007  0.0406  0.2404
  449MOL0     C61856   7.506   4.971   3.647  0.6420  0.2785 -0.9740
  449MOL0     C61857   7.615   5.062   3.672 -1.3449 -0.7085  0.4221
  449MOL0     C61858   7.596   5.198   3.683 -0.1952  0.4338  0.2405
  449MOL0     C61859   7.474   5.247   3.644  0.1507  0.3168 -0.4628
  449MOL0     O61860   7.459   5.382   3.641  0.2476  0.1315  0.7627
  449MOL0     C61861   7.446   5.438   3.511 -0.0645  0.8406  0.2949
  449MOL0     C61862   7.580   5.469   3.458  0.6044 -0.2702  0.8182
  449MOL0     C61863   7.657   5.568   3.551 -0.3262  0.0051 -0.0338
  449MOL0     C61864   7.807   5.568   3.527 -0.0351  0.2233 -1.1271
  449MOL0     C61865   7.883   5.630   3.649 -0.2414  0.4655 -0.6931
  449MOL0     C61866   7.838   5.764   3.692 -0.5074 -0.7587 -0.5818
  449MOL0     C61867   7.933   5.831   3.802 -0.1553  0.0706  1.1475
  449MOL0     C61868   7.901   5.978   3.801 -0.8218  0.3388  0.4604
  449MOL0    Cl61869   7.963   6.054   3.641  0.4975  0.0758  0.3504
  449MOL0     C61870   7.366   5.156   3.601  0.6677 -0.3043 -0.1583
  449MOL0     C61871   7.387   5.021   3.606  0.1381 -0.5776  0.8598
  449MOL0     O61872   7.465   4.809   3.866  1.3188 -0.7153 -0.5364
  449MOL0     C61873   7.463   4.550   3.611 -0.9028 -0.2594 -0.3208
  449MOL0     C61874   7.448   4.408   3.596 -0.1127 -0.2089 -0.5222
  449MOL0     N61875   7.530   4.063   4.068 -1.0979 -0.4926 -0.3406
  449MOL0     N61876   7.435   4.106   4.142  0.2831 -0.9723  0.9191
  449MOL0     C61877   6.961   3.376   4.913  1.1537  0.2835  1.1750
  449MOL0     C61878   6.844   3.303   4.951  1.3069  0.8809  0.0429
  449MOL0     C61879   6.584   2.902   4.985 -0.4481 -1.1390  0.7228
  449MOL0     C61880   6.596   2.796   5.077  0.6076  0.6933  0.3239
  449MOL0     C61881   6.506   2.683   5.083  0.4912 -0.5968 -0.8180
  449MOL0     C61882   6.385   2.691   5.005  0.1128 -0.4559 -0.6748
  449MOL0     O61883   6.270   2.608   5.019  0.1671 -0.1083 -0.3026
  449MOL0     C61884   6.283   2.487   5.090  0.5346 -0.0329  0.0622
  449MOL0     C61885   6.274   2.524   5.241 -0.8252  0.4021  0.2362
  449MOL0     C61886   6.330   2.413   5.317  0.2760  0.0571 -0.8049
  449MOL0     C61887   6.327   2.463   5.465 -0.1334  0.5251  0.6642
  449MOL0     C61888   6.398   2.367   5.551 -0.3678  0.6677 -0.0630
  449MOL0     C61889   6.468   2.296   5.620 -0.8596  0.2865  0.5438
  449MOL0     C61890   6.368   2.801   4.917 -0.2889 -0.3919  0.1352
  449MOL0     C61891   6.468   2.898   4.903  0.0646 -0.1502 -1.3537
  449MOL0     C61892   6.428   3.003   4.796 -0.1878 -0.3845  0.2289
  449MOL0     H61893   6.813   3.098   4.690 -2.7776 -1.4843  2.8154
  449MOL0     H61894   7.015   3.202   4.624 -0.0059 -0.6150  1.1086
  449MOL0     H61895   7.132   3.356   4.553 -1.1659 -0.7633  0.1633
  449MOL0     H61896   7.255   3.283   4.647  1.9497  0.0708 -1.5082
  449MOL0     H61897   7.324   3.551   4.682  0.6557  0.6143  0.2475
  449MOL0     H61898   7.347   3.466   4.514  0.7179  0.1973 -0.2690
  449MOL0     H61899   7.120   3.584   4.454  0.7925  0.3775 -1.2139
  449MOL0     H61900   7.107   3.634   4.615 -3.4165  0.1961 -2.6567
  449MOL0     H61901   7.267   3.825   4.580 -0.2458  3.0035 -2.6653
  449MOL0     H61902   7.352   3.732   4.458  0.2133  0.5984 -0.7332
  449MOL0     H61903   7.067   3.833   4.441  0.2884 -0.4255  0.5380
  449MOL0     H61904   7.140   3.751   4.308  0.8669 -0.3510  0.8680
  449MOL0     H61905   7.266   3.995   4.405 -0.2607  0.0110  0.8482
  449MOL0     H61906   7.318   3.892   4.267  0.7200 -1.4197  2.5299
  449MOL0     H61907   7.054   4.055   4.300 -2.8846 -1.0080 -1.0344
  449MOL0     H61908   7.075   3.935   4.170 -3.5105  1.3841  2.4634
  449MOL0     H61909   7.106   4.161   4.111 -2.7621 -1.8905  2.3626
  449MOL0     H61910   7.215   4.196   4.238 -3.3058  1.7387 -0.6062
  449MOL0     H61911   7.250   3.956   3.929 -1.7628 -0.2884  1.9667
  449MOL0     H61912   7.474   3.782   3.918  1.3734 -1.6042 -1.1595
  449MOL0     H61913   7.618   3.885   3.892  0.2882  1.2987 -0.9220
  449MOL0     H61914   7.520   3.790   3.685  2.0003  1.4175 -1.7744
  449MOL0     H61915   7.386   3.906   3.704 -1.0388 -3.4800  1.3642
  449MOL0     H61916   7.700   3.955   3.682  0.2049  2.3806 -0.8336
  449MOL0     H61917   7.581   3.996   3.556 -3.0528 -0.4304  0.2639
  449MOL0     H61918   7.605   4.147   3.820 -3.2938 -1.0640  0.7718
  449MOL0     H61919   7.667   4.195   3.661  0.5905  0.2993 -0.2508
  449MOL0     H61920   7.500   4.305   3.911  0.4058 -1.2721 -0.9826
  449MOL0     H61921   7.420   4.629   4.018 -1.7202 -0.8755 -0.6732
  449MOL0     H61922   7.603   4.603   4.012  1.6645 -1.1235 -3.3396
  449MOL0     H61923   7.489   4.486   4.071  4.8032  0.2554  1.2931
  449MOL0     H61924   7.715   5.021   3.681 -0.8201  0.6546  0.9457
  449MOL0     H61925   7.683   5.255   3.712  1.8878 -2.5918  0.3566
  449MOL0     H61926   7.384   5.388   3.436 -0.6202  1.4103  0.3704
  449MOL0     H61927   7.393   5.533   3.505  1.7904  1.8445 -0.9350
  449MOL0     H61928   7.626   5.372   3.441  1.3187 -0.0211  1.2966
  449MOL0     H61929   7.577   5.514   3.358  1.8348  0.4542  1.0917
  449MOL0     H61930   7.630   5.541   3.654 -2.2131 -0.1076 -0.5144
  449MOL0     H61931   7.626   5.670   3.528 -0.4403 -0.2556 -1.0444
  449MOL0     H61932   7.820   5.623   3.433  0.7114  3.1336  0.5404
  449MOL0     H61933   7.841   5.465   3.515 -0.8281 -0.1006 -0.6895
  449MOL0     H61934   7.869   5.556   3.729 -1.3047 -0.0540 -1.3397
  449MOL0     H61935   7.991   5.637   3.631  0.0742  3.0908  1.5530
  449MOL0     H61936   7.732   5.766   3.720  0.0769 -0.4004  1.8554
  449MOL0     H61937   7.844   5.828   3.603 -0.8773 -0.7253 -0.5858
  449MOL0     H61938   8.035   5.815   3.768 -0.6280  0.9648 -0.8514
  449MOL0     H61939   7.921   5.784   3.901 -2.1787 -0.0800  0.8798
  449MOL0     H61940   7.961   6.036   3.872  2.1379 -1.9163 -0.0252
  449MOL0     H61941   7.794   6.000   3.815 -1.4679 -3.2900  2.4253
  449MOL0     H61942   7.273   5.206   3.577  0.3094  0.3922  2.4087
  449MOL0     H61943   7.301   4.960   3.581 -2.3569  1.7887  3.0676
  449MOL0     H61944   7.456   4.626   3.534 -0.1562 -0.4573 -0.5955
  449MOL0     H61945   7.454   4.357   3.500  0.9681  1.5261 -1.4357
  449MOL0     H61946   6.987   3.460   4.976 -1.8003  1.0376  1.5399
  449MOL0     H61947   6.799   3.335   5.044 -0.1976 -0.0095 -0.3468
  449MOL0     H61948   6.691   2.788   5.128 -0.8688 -5.2774  3.0702
  449MOL0     H61949   6.528   2.599   5.148  1.3949  1.8690  2.3181
  449MOL0     H61950   6.201   2.418   5.068 -0.0530  0.7075 -0.1387
  449MOL0     H61951   6.380   2.443   5.064 -0.1234 -0.6116 -1.5416
  449MOL0     H61952   6.169   2.527   5.271 -0.5104 -2.4108  1.9893
  449MOL0     H61953   6.328   2.615   5.268 -1.5581  0.6653  0.8388
  449MOL0     H61954   6.271   2.322   5.305  1.6806 -1.3764  2.0532
  449MOL0     H61955   6.435   2.394   5.291  2.0986  3.4648  2.8484
  449MOL0     H61956   6.220   2.482   5.483 -0.8478 -0.1465 -2.2985
  449MOL0     H61957   6.373   2.562   5.468 -0.8919  1.0448 -2.1185
  449MOL0     H61958   6.533   2.255   5.694 -1.2675  1.9337  1.8824
  449MOL0     H61959   6.272   2.808   4.868 -0.3849  2.9547  0.5420
  449MOL0     H61960   6.411   3.095   4.852 -2.1777 -0.7766  0.3738
  449MOL0     H61961   6.504   3.008   4.717 -2.2947  2.9833 -1.8583
  449MOL0     H61962   6.327   2.998   4.752 -1.2087  2.1339  2.0061
  450MOL0     O61963   9.852   0.441   6.724  0.1195 -0.1334  0.1307
  450MOL0     C61964   9.741   0.418   6.773  0.4896 -0.2062 -0.7344
  450MOL0     O61965   9.646   0.360   6.694  0.1584 -0.4286  0.3861
  450MOL0     C61966   9.512   0.370   6.729 -0.9825 -0.8339 -0.1254
  450MOL0     C61967   9.424   0.286   6.658 -0.1514  0.6365 -0.6054
  450MOL0     C61968   9.286   0.294   6.665 -0.0849 -0.0900  0.8699
  450MOL0     C61969   9.225   0.389   6.748 -0.0252  0.5930 -0.6673
  450MOL0     O61970   9.093   0.382   6.744  0.8576  0.0086  0.0581
  450MOL0     C61971   9.004   0.499   6.753 -0.6116  0.2550  0.4308
  450MOL0     C61972   8.957   0.529   6.894  0.0016 -0.5430  0.0319
  450MOL0     C61973   8.831   0.459   6.936  0.0456 -1.6139 -0.3156
  450MOL0     C61974   8.796   0.467   7.090 -0.4465 -0.0878 -0.0503
  450MOL0     C61975   8.695   0.364   7.138 -0.9313 -0.7409 -0.7493
  450MOL0     C61976   8.565   0.373   7.063 -1.1882  0.5816 -0.1596
  450MOL0     C61977   8.473   0.250   7.094  0.6410  0.4165  0.6766
  450MOL0     C61978   8.325   0.268   7.045  0.7680 -0.0276 -0.2095
  450MOL0     N61979   8.253   0.358   7.144 -0.4630 -0.0661 -0.3458
  450MOL0     C61980   8.152   0.320   7.231  0.1340  0.0669 -0.9222
  450MOL0     C61981   8.125   0.428   7.306  0.4875  1.0565  0.4189
  450MOL0     C61982   8.018   0.443   7.414 -0.0840 -0.3860  0.0111
  450MOL0     C61983   8.075   0.431   7.553 -0.5154  0.3328  0.0077
  450MOL0     C61984   7.952   0.417   7.646 -1.1317 -0.1167 -0.1275
  450MOL0     C61985   7.990   0.389   7.791 -0.9687 -0.4977  0.0888
  450MOL0     O61986   8.032   0.510   7.854  0.0888 -0.5694  0.3576
  450MOL0     C61987   8.110   0.479   7.960 -0.4210  0.8384  0.0420
  450MOL0     C61988   8.044   0.429   8.071 -0.3786  0.2304  0.8766
  450MOL0     C61989   8.121   0.405   8.183  0.5357  0.5907  0.3270
  450MOL0     C61990   8.055   0.329   8.297 -0.3250 -0.2217 -0.3737
  450MOL0     C61991   8.260   0.433   8.193  0.6301 -0.7761  0.7227
  450MOL0     C61992   8.342   0.417   8.321  0.3934 -0.0512  0.0792
  450MOL0     O61993   8.292   0.445   8.454  1.4024  0.5962  0.2018
  450MOL0     C61994   8.368   0.439   8.564  0.6041 -0.4742 -0.5327
  450MOL0     C61995   8.308   0.405   8.688  0.6826 -0.7571  0.5101
  450MOL0     C61996   8.388   0.396   8.803  0.0277 -0.2990 -0.4084
  450MOL0     C61997   8.522   0.433   8.801  0.3440 -0.5065  0.1948
  450MOL0     O61998   8.615   0.418   8.906  0.2114  0.0143  0.1854
  450MOL0     C61999   8.566   0.400   9.039  0.5632  0.2897  0.1400
  450MOL0     C62000   8.685   0.387   9.129 -0.2342  0.1895 -0.1907
  450MOL0     C62001   8.668   0.313   9.259  1.5046 -0.0311  0.2582
  450MOL0     C62002   8.779   0.339   9.362  0.2454 -0.0470  0.9480
  450MOL0     C62003   8.928   0.314   9.309  0.0192 -0.5324 -0.3273
  450MOL0     C62004   9.032   0.308   9.419 -0.8043 -0.8553  0.3046
  450MOL0     C62005   9.176   0.314   9.365  0.0588 -1.0716 -0.1883
  450MOL0     C62006   9.221   0.190   9.274 -0.1353 -0.3634 -0.0808
  450MOL0    Cl62007   9.331   0.090   9.361  0.7622 -0.6057  0.5387
  450MOL0     C62008   8.581   0.465   8.684  0.1675  0.3454  0.4954
  450MOL0     C62009   8.504   0.473   8.563  1.3241 -0.4492 -0.2356
  450MOL0     O62010   8.462   0.371   8.297  0.4053 -0.6553  0.2047
  450MOL0     C62011   8.319   0.489   8.075  0.1427 -0.4382  0.2280
  450MOL0     C62012   8.243   0.503   7.955 -1.0759 -0.4330 -0.6211
  450MOL0     N62013   8.203   0.531   7.249  0.3741 -0.1189 -0.8543
  450MOL0     N62014   8.273   0.485   7.154 -0.0861 -0.5017 -0.6030
  450MOL0     C62015   9.304   0.486   6.815 -0.0098  0.2408  0.0525
  450MOL0     C62016   9.444   0.483   6.792  0.2934 -0.4459 -0.0941
  450MOL0     C62017   9.720   0.423   6.917  0.2981  1.1445 -0.0058
  450MOL0     C62018   9.667   0.307   6.980 -0.1198  0.1619 -0.8250
  450MOL0     C62019   9.646   0.300   7.113 -0.2898  1.0740 -0.1615
  450MOL0     C62020   9.680   0.402   7.206  0.1677 -0.0375 -0.1258
  450MOL0     O62021   9.663   0.398   7.347  0.5565  0.2323  0.0780
  450MOL0     C62022   9.619   0.280   7.413  0.1981  0.1839  0.3964
  450MOL0     C62023   9.734   0.177   7.413  0.0862  0.8616  0.1214
  450MOL0     C62024   9.852   0.209   7.505 -0.0922  0.4125  0.2756
  450MOL0     C62025   9.820   0.281   7.644 -0.3509 -1.4683  0.4848
  450MOL0     C62026   9.734   0.196   7.720  0.3497  0.3792  0.8055
  450MOL0     C62027   9.669   0.125   7.798  0.0188 -0.4594 -0.0909
  450MOL0     C62028   9.734   0.521   7.143  0.4813 -0.4000  0.4263
  450MOL0     C62029   9.750   0.536   7.005  0.8871  0.3370  0.6286
  450MOL0     C62030   9.810   0.662   6.951 -0.3628 -1.2200 -0.5741
  450MOL0     H62031   9.465   0.213   6.589 -0.2698 -2.0696  1.9864
  450MOL0     H62032   9.225   0.227   6.605  1.6318 -0.8737 -0.0667
  450MOL0     H62033   8.913   0.486   6.692  0.0082  3.1763 -1.3188
  450MOL0     H62034   9.057   0.583   6.707  2.1011 -1.0632  0.9942
  450MOL0     H62035   9.034   0.508   6.968 -1.6779  3.6843  3.4501
  450MOL0     H62036   8.937   0.636   6.907  1.5569 -0.3623  1.2115
  450MOL0     H62037   8.755   0.498   6.867 -0.8097 -2.7628 -0.0533
  450MOL0     H62038   8.838   0.354   6.909 -3.1595 -1.3684 -2.7530
  450MOL0     H62039   8.888   0.459   7.149 -0.1958 -1.8427 -0.6345
  450MOL0     H62040   8.751   0.564   7.115 -0.4915 -0.5155  1.6835
  450MOL0     H62041   8.673   0.384   7.243 -0.1655  1.9226 -1.0457
  450MOL0     H62042   8.728   0.260   7.131  0.6565 -0.2179 -1.3261
  450MOL0     H62043   8.520   0.470   7.087 -2.0378  0.0638  0.3946
  450MOL0     H62044   8.579   0.372   6.955  1.4788 -0.3726  0.1065
  450MOL0     H62045   8.474   0.237   7.203  2.7226 -3.0205  0.4109
  450MOL0     H62046   8.530   0.161   7.068 -0.8882 -1.9606  4.5181
  450MOL0     H62047   8.311   0.308   6.944 -1.6992  2.3446  0.9242
  450MOL0     H62048   8.282   0.168   7.050 -1.9174  1.1145  2.9230
  450MOL0     H62049   8.107   0.222   7.238  1.6327 -0.6308 -0.7576
  450MOL0     H62050   7.936   0.372   7.396  0.4174 -0.7128 -1.0208
  450MOL0     H62051   7.987   0.548   7.408  0.6275  0.0836  2.7702
  450MOL0     H62052   8.135   0.342   7.574 -1.1802  0.0711  0.8421
  450MOL0     H62053   8.148   0.509   7.575 -0.0167 -0.0747 -0.1841
  450MOL0     H62054   7.896   0.511   7.648 -0.6858  0.1556  2.4029
  450MOL0     H62055   7.885   0.336   7.616 -2.2856  0.3360  1.1441
  450MOL0     H62056   7.902   0.352   7.844  0.2022 -2.2884  0.8612
  450MOL0     H62057   8.066   0.311   7.787  2.1536  2.2965  0.8540
  450MOL0     H62058   7.936   0.418   8.065 -0.5798  2.3157 -1.1540
  450MOL0     H62059   7.968   0.266   8.275 -2.7993  1.8326  2.6297
  450MOL0     H62060   8.019   0.408   8.364 -1.6978  0.1678 -1.5222
  450MOL0     H62061   8.128   0.263   8.345 -0.1776  0.7104  0.7193
  450MOL0     H62062   8.209   0.367   8.710 -0.7075  3.1052  1.6919
  450MOL0     H62063   8.340   0.369   8.897 -2.4934  2.4123 -0.7487
  450MOL0     H62064   8.494   0.478   9.066  1.3704  0.9578  0.4208
  450MOL0     H62065   8.514   0.304   9.039 -3.4031  2.2148  1.8251
  450MOL0     H62066   8.767   0.332   9.083 -0.8950  0.0222 -1.1915
  450MOL0     H62067   8.721   0.488   9.151 -0.1791 -0.0419  0.8261
  450MOL0     H62068   8.658   0.207   9.231  0.5603  0.3646 -1.0069
  450MOL0     H62069   8.576   0.347   9.306 -1.0558 -2.1191 -2.7468
  450MOL0     H62070   8.749   0.289   9.455 -0.5457 -2.2416 -0.4189
  450MOL0     H62071   8.776   0.444   9.395 -0.1743  0.7049 -1.3196
  450MOL0     H62072   8.917   0.222   9.251 -1.9354  0.6058 -1.8913
  450MOL0     H62073   8.950   0.398   9.243 -2.6708  0.9895  0.5629
  450MOL0     H62074   9.020   0.207   9.459  5.7175 -2.7676 -1.2699
  450MOL0     H62075   9.015   0.394   9.484  1.8243 -0.2967  0.3771
  450MOL0     H62076   9.241   0.305   9.453  0.0945 -2.0390 -0.3125
  450MOL0     H62077   9.188   0.410   9.314  0.6584 -0.6723  0.6787
  450MOL0     H62078   9.267   0.230   9.184 -0.6027  1.7827  0.5724
  450MOL0     H62079   9.127   0.144   9.241 -0.4944  0.5571 -0.3808
  450MOL0     H62080   8.688   0.479   8.683  0.3443 -0.9461  0.0549
  450MOL0     H62081   8.560   0.498   8.474  2.1598  1.4399  0.7645
  450MOL0     H62082   8.426   0.509   8.075 -0.2570  2.0427 -1.3183
  450MOL0     H62083   8.293   0.517   7.859 -0.3913 -3.2166 -0.7740
  450MOL0     H62084   9.257   0.564   6.874 -2.7982  1.6225 -3.5733
  450MOL0     H62085   9.506   0.560   6.837 -0.8584  0.7864 -0.5821
  450MOL0     H62086   9.636   0.212   6.939 -1.7530 -0.8000  2.3589
  450MOL0     H62087   9.603   0.205   7.141  3.0500 -1.2585 -2.1740
  450MOL0     H62088   9.577   0.294   7.513 -1.6204 -0.2955 -0.2665
  450MOL0     H62089   9.542   0.230   7.353 -0.8226 -1.1884  2.7017
  450MOL0     H62090   9.774   0.169   7.312 -0.0308  0.1196  0.1271
  450MOL0     H62091   9.687   0.084   7.445 -1.2117  0.9603 -1.3790
  450MOL0     H62092   9.902   0.115   7.530 -1.4381  0.0188  1.6798
  450MOL0     H62093   9.923   0.265   7.445  0.1629  2.2584  2.1925
  450MOL0     H62094   9.769   0.377   7.639  2.1874  0.2117  3.4286
  450MOL0     H62095   9.909   0.313   7.699 -1.2660 -0.5094  1.4375
  450MOL0     H62096   9.608   0.068   7.865  2.9925 -1.3581  2.0307
  450MOL0     H62097   9.775   0.601   7.205 -1.9139  0.2663  1.2782
  450MOL0     H62098   9.733   0.690   6.878 -3.0297 -0.2773  2.3608
  450MOL0     H62099   9.831   0.737   7.027  3.5168 -1.5250 -1.1761
  450MOL0     H62100   9.896   0.643   6.887  0.0659  2.3660 -1.2652
  451MOL0     O62101   0.746  10.487   3.717 -0.7102  0.0074  0.4531
  451MOL0     C62102   0.756  10.606   3.718  0.4858 -0.7040 -1.0031
  451MOL0     O62103   0.831  10.673   3.799 -0.0625 -0.0720  0.2685
  451MOL0     C62104   0.867  10.630   3.928  0.8278  0.6694 -0.2336
  451MOL0     C62105   0.809  10.508   3.989 -0.0587  0.7286  0.4518
  451MOL0     C62106   0.861  10.462   4.109 -0.1351 -0.1428  0.0521
  451MOL0     C62107   0.975  10.528   4.163 -1.4356 -0.3941 -0.5205
  451MOL0     O62108   1.039  10.501   4.288  0.1005 -0.2217 -0.5942
  451MOL0     C62109   0.966  10.422   4.385 -0.2300 -1.2373 -0.8736
  451MOL0     C62110   1.058  10.357   4.484 -0.0475  0.1353  0.7098
  451MOL0     C62111   1.140  10.462   4.561  0.0769 -0.1189 -0.4433
  451MOL0     C62112   1.232  10.400   4.650  0.0499  0.2707 -0.3983
  451MOL0     C62113   1.294  10.489   4.753  1.3758 -0.1634  0.0329
  451MOL0     C62114   1.386  10.409   4.841  0.2674 -0.3544 -0.5322
  451MOL0     C62115   1.444  10.494   4.962 -0.3442 -0.0616  0.1041
  451MOL0     C62116   1.489  10.397   5.074 -0.2479 -0.7731  0.6440
  451MOL0     N62117   1.617  10.451   5.117 -0.4978  0.8193 -0.1503
  451MOL0     C62118   1.726  10.425   5.039  0.9672  0.3529 -0.7240
  451MOL0     C62119   1.829  10.473   5.106 -0.0620 -0.0031  0.2466
  451MOL0     C62120   1.974  10.474   5.070 -0.2133  0.3001  0.1970
  451MOL0     C62121   1.996  10.517   4.924 -0.4975 -0.2676 -0.4205
  451MOL0     C62122   1.935  10.654   4.889 -1.0912  0.0701  0.0204
  451MOL0     C62123   1.990  10.722   4.755  0.5172  0.1623 -0.3043
  451MOL0     O62124   1.892  10.833   4.717 -0.5633  0.1058  0.6835
  451MOL0     C62125   1.892  10.950   4.782  0.5462 -0.1764  1.4046
  451MOL0     C62126   1.784  11.031   4.768 -0.1335 -0.3333 -0.5901
  451MOL0     C62127   1.788  11.167   4.816  0.7005  0.0207 -0.1734
  451MOL0     C62128   1.658  11.241   4.820  0.0946 -0.9361  0.6206
  451MOL0     C62129   1.903  11.221   4.872 -0.0566 -0.7816  0.6714
  451MOL0     C62130   1.911  11.358   4.924 -0.2725 -0.4085 -0.3256
  451MOL0     O62131   1.810  11.451   4.924 -0.2024 -0.6849  0.4966
  451MOL0     C62132   1.828  11.586   4.898 -0.0823 -0.2611 -0.2602
  451MOL0     C62133   1.947  11.649   4.863 -0.7205 -0.7155  0.1682
  451MOL0     C62134   1.951  11.787   4.841 -0.2136 -0.5760  0.1233
  451MOL0     C62135   1.839  11.867   4.849 -0.3359  0.4715  0.0932
  451MOL0     O62136   1.863  12.001   4.819 -0.0241  0.3788 -0.0817
  451MOL0     C62137   1.762  12.101   4.800 -0.6224 -0.1108 -0.3056
  451MOL0     C62138   1.819  12.231   4.761  0.1610 -0.4593 -0.0687
  451MOL0     C62139   1.931  12.227   4.648  0.6153 -0.4759  0.4095
  451MOL0     C62140   1.914  12.306   4.521  0.4366 -0.4339  0.4725
  451MOL0     C62141   2.059  12.350   4.466  0.1319 -0.3936 -0.0744
  451MOL0     C62142   2.156  12.241   4.435  0.3274  0.8672  0.0123
  451MOL0     C62143   2.143  12.155   4.308  0.3172 -0.1967 -0.0344
  451MOL0     C62144   2.260  12.071   4.270 -1.0055 -0.0251 -0.2563
  451MOL0    Cl62145   2.399  12.177   4.225  0.0929  0.2114  0.3821
  451MOL0     C62146   1.721  11.804   4.882  0.4566  0.0862 -0.8286
  451MOL0     C62147   1.719  11.665   4.910  0.4902 -0.3460  1.2892
  451MOL0     O62148   2.021  11.382   4.983  1.0620 -0.6854 -0.3110
  451MOL0     C62149   2.013  11.135   4.869  0.5894  0.2824  0.2598
  451MOL0     C62150   2.009  11.002   4.835 -0.3072 -0.0870  0.4647
  451MOL0     N62151   1.776  10.548   5.215  0.3441  0.2218 -1.0572
  451MOL0     N62152   1.650  10.535   5.216 -0.0151 -0.4866  0.8069
  451MOL0     C62153   1.023  10.638   4.094 -0.4540 -0.7369  0.5117
  451MOL0     C62154   0.967  10.699   3.983  0.6916 -0.5001 -0.7125
  451MOL0     C62155   0.706  10.685   3.601 -0.1964 -0.0104  1.6806
  451MOL0     C62156   0.713  10.620   3.468  1.0779 -0.0708 -0.3147
  451MOL0     C62157   0.663  10.680   3.357  0.5666  0.0510 -0.5152
  451MOL0     C62158   0.613  10.807   3.373 -0.3606 -0.8902  0.1291
  451MOL0     O62159   0.576  10.884   3.262  1.1988 -1.5863 -0.1831
  451MOL0     C62160   0.619  10.845   3.129 -0.0670 -0.2070  0.5335
  451MOL0     C62161   0.594  10.968   3.040  0.4624  0.9879  0.3887
  451MOL0     C62162   0.603  10.929   2.889  1.3141  0.2262  0.9290
  451MOL0     C62163   0.581  11.049   2.796 -0.1466 -0.2575  0.5922
  451MOL0     C62164   0.702  11.133   2.770 -0.4636 -0.1086  0.1659
  451MOL0     C62165   0.787  11.214   2.729 -0.4703  0.1807 -0.5806
  451MOL0     C62166   0.607  10.874   3.500 -0.4729 -0.9752 -0.4935
  451MOL0     C62167   0.656  10.812   3.612  0.4939 -1.1528  0.3654
  451MOL0     C62168   0.628  10.890   3.746 -0.2477 -0.4426 -0.6855
  451MOL0     H62169   0.726  10.456   3.942  0.5690 -0.2676  0.4205
  451MOL0     H62170   0.819  10.379   4.165 -0.3981  1.6527  2.6936
  451MOL0     H62171   0.927  10.336   4.328  2.7575 -0.8837 -3.7799
  451MOL0     H62172   0.890  10.485   4.430 -1.1457  0.1262 -4.0159
  451MOL0     H62173   1.014  10.285   4.554 -0.0105 -0.9241 -0.3355
  451MOL0     H62174   1.131  10.294   4.433  0.0777 -1.3727  2.6178
  451MOL0     H62175   1.192  10.527   4.491 -2.1593  1.7872 -0.4693
  451MOL0     H62176   1.073  10.523   4.623 -1.0739 -3.5751  2.0412
  451MOL0     H62177   1.177  10.327   4.710  1.2407 -2.1624 -2.0906
  451MOL0     H62178   1.306  10.337   4.600 -1.0967 -0.3886 -1.3433
  451MOL0     H62179   1.228  10.551   4.814 -1.5414 -3.3216  0.3646
  451MOL0     H62180   1.362  10.564   4.710  2.2932 -1.2105 -0.3775
  451MOL0     H62181   1.318  10.332   4.879 -1.4654 -0.4908 -3.5908
  451MOL0     H62182   1.468  10.354   4.793  0.8712 -1.5982  1.7551
  451MOL0     H62183   1.362  10.554   5.001 -0.9010 -0.8107  0.0988
  451MOL0     H62184   1.521  10.571   4.950  0.9216 -1.0179  1.7530
  451MOL0     H62185   1.408  10.406   5.148  0.1684 -2.1430  1.2970
  451MOL0     H62186   1.506  10.293   5.047 -1.7674 -1.3011  1.5388
  451MOL0     H62187   1.730  10.371   4.945 -1.3835  1.0019 -1.2417
  451MOL0     H62188   2.010  10.371   5.080  0.5511  0.2453 -2.2467
  451MOL0     H62189   2.035  10.537   5.135 -0.5476 -1.6161  2.4614
  451MOL0     H62190   2.098  10.530   4.886 -1.5033  2.1337 -2.5848
  451MOL0     H62191   1.950  10.445   4.855  1.2005 -1.7791 -0.0526
  451MOL0     H62192   1.826  10.646   4.883 -1.2825  1.3955  1.2961
  451MOL0     H62193   1.954  10.720   4.974  0.7017 -1.0493  0.5357
  451MOL0     H62194   2.090  10.766   4.756  0.1114  1.2073 -1.8891
  451MOL0     H62195   1.979  10.646   4.677 -0.5743  2.6610 -2.7618
  451MOL0     H62196   1.691  11.003   4.720  0.4103 -3.2429 -0.1194
  451MOL0     H62197   1.569  11.177   4.818  0.2106 -1.0949 -0.7175
  451MOL0     H62198   1.646  11.293   4.724 -0.6764 -0.8774  0.7358
  451MOL0     H62199   1.634  11.318   4.894  2.0101 -0.1604  0.4754
  451MOL0     H62200   2.032  11.583   4.850  0.2421  0.2652  1.2742
  451MOL0     H62201   2.045  11.826   4.802 -0.7226  2.1907  1.4198
  451MOL0     H62202   1.711  12.071   4.708  0.2827 -2.0488 -0.2235
  451MOL0     H62203   1.704  12.110   4.893 -0.3805 -3.5830  0.3268
  451MOL0     H62204   1.736  12.284   4.713  0.6293 -1.9715 -2.7811
  451MOL0     H62205   1.852  12.286   4.849 -0.4194 -0.7122  0.3199
  451MOL0     H62206   1.937  12.121   4.622  0.3588 -0.5924  0.8184
  451MOL0     H62207   2.016  12.259   4.708 -0.4568 -0.3626  1.9353
  451MOL0     H62208   1.863  12.398   4.551 -0.6383 -0.8452 -0.0518
  451MOL0     H62209   1.854  12.248   4.450 -0.2804 -1.3054  1.7673
  451MOL0     H62210   2.045  12.409   4.375 -0.9946 -0.5255 -0.0071
  451MOL0     H62211   2.103  12.409   4.547  2.2971  0.3986 -1.7437
  451MOL0     H62212   2.155  12.181   4.527  0.1081  1.1864  0.2194
  451MOL0     H62213   2.255  12.287   4.432  1.1404 -0.8310 -0.5330
  451MOL0     H62214   2.113  12.222   4.228  0.7118  0.0807  0.0428
  451MOL0     H62215   2.049  12.100   4.323 -1.5603  2.5770 -0.9196
  451MOL0     H62216   2.230  12.011   4.183  1.8585  0.0189 -1.4070
  451MOL0     H62217   2.305  12.007   4.346  0.0064 -0.9048 -1.5307
  451MOL0     H62218   1.624  11.852   4.883 -1.2333 -2.3263  6.0497
  451MOL0     H62219   1.629  11.608   4.931 -0.0969  0.3717  0.7628
  451MOL0     H62220   2.106  11.169   4.914  0.4690  0.9712  0.0141
  451MOL0     H62221   2.109  10.959   4.835  0.3148  1.2992  1.1392
  451MOL0     H62222   1.106  10.686   4.145 -0.7201  1.2360 -0.7748
  451MOL0     H62223   1.018  10.784   3.939  0.7386 -1.0121 -1.6770
  451MOL0     H62224   0.747  10.517   3.455  3.5611  0.2772  2.2396
  451MOL0     H62225   0.656  10.624   3.264  1.2589 -2.7137  0.9975
  451MOL0     H62226   0.725  10.828   3.111  0.0208 -0.1522  0.9863
  451MOL0     H62227   0.563  10.757   3.096 -1.1614  0.2289  1.1792
  451MOL0     H62228   0.661  11.054   3.050 -0.7191  2.7731 -4.3174
  451MOL0     H62229   0.494  11.009   3.053 -1.4014 -2.5060 -1.4529
  451MOL0     H62230   0.698  10.880   2.867  1.6742  1.0699  0.5637
  451MOL0     H62231   0.515  10.865   2.877  0.5740  0.7594  2.9654
  451MOL0     H62232   0.494  11.112   2.815 -1.6625 -2.0818 -0.0194
  451MOL0     H62233   0.560  11.014   2.694  1.2678  1.0797 -0.2022
  451MOL0     H62234   0.851  11.290   2.688 -0.0290 -0.5478 -1.2720
  451MOL0     H62235   0.565  10.975   3.500  0.5928 -0.5222 -0.6525
  451MOL0     H62236   0.600  10.823   3.827  0.4053  1.3074  1.0534
  451MOL0     H62237   0.719  10.942   3.777  0.3033 -1.6817 -0.1547
  451MOL0     H62238   0.546  10.962   3.731  0.3798 -0.0293 -2.4350
  452MOL0     O62239   6.382   6.322   5.990  0.6244  0.4645  0.5210
  452MOL0     C62240   6.378   6.388   5.886 -0.0054 -0.4371  0.5456
  452MOL0     O62241   6.479   6.463   5.827  0.6096 -0.6077 -0.0627
  452MOL0     C62242   6.601   6.476   5.892  0.3937  0.8527  0.2052
  452MOL0     C62243   6.617   6.573   5.990  0.8016  0.2678 -0.4597
  452MOL0     C62244   6.744   6.609   6.036  0.6607  0.5174  0.4877
  452MOL0     C62245   6.856   6.525   5.996 -0.4859 -0.3263 -0.6149
  452MOL0     O62246   6.979   6.535   6.060 -0.2899 -0.4336  0.8853
  452MOL0     C62247   6.990   6.610   6.184 -0.9255  0.5213  0.6487
  452MOL0     C62248   7.103   6.527   6.254  0.2327 -0.3690 -0.4645
  452MOL0     C62249   7.101   6.578   6.404  0.5111 -0.2304  0.3233
  452MOL0     C62250   7.234   6.535   6.486 -0.4951  0.4813 -0.0820
  452MOL0     C62251   7.238   6.561   6.642  1.6165  0.5049  0.3719
  452MOL0     C62252   7.122   6.486   6.713  0.0076 -0.2509 -0.4608
  452MOL0     C62253   7.066   6.565   6.836 -0.2457  0.2755  0.3243
  452MOL0     C62254   6.959   6.481   6.911  0.6647  0.1187  0.3075
  452MOL0     N62255   7.012   6.368   6.982  0.2248  0.8795 -0.1608
  452MOL0     C62256   7.051   6.253   6.919  0.2961  0.1723 -0.2524
  452MOL0     C62257   7.152   6.205   6.989  0.1390  0.2270  0.8134
  452MOL0     C62258   7.228   6.077   6.949  0.3364 -0.8966 -1.4454
  452MOL0     C62259   7.376   6.063   6.988 -0.0361 -0.1351 -0.1897
  452MOL0     C62260   7.478   6.139   6.902  0.9793 -0.0580  0.1127
  452MOL0     C62261   7.476   6.088   6.759 -1.1332 -0.5428  0.5120
  452MOL0     O62262   7.607   6.103   6.693 -0.3249 -0.1002  0.0205
  452MOL0     C62263   7.673   6.227   6.703 -0.3180  0.6732  0.3248
  452MOL0     C62264   7.809   6.215   6.743 -0.7772  0.0096  0.9390
  452MOL0     C62265   7.889   6.334   6.767  0.0311  0.6939 -0.1104
  452MOL0     C62266   8.037   6.312   6.799  0.5261  0.0270 -0.1444
  452MOL0     C62267   7.829   6.469   6.748 -0.4741  0.4726  0.1889
  452MOL0     C62268   7.898   6.593   6.774 -0.2458 -0.2504 -0.1678
  452MOL0     O62269   7.852   6.706   6.708 -0.2359  0.5193  0.1236
  452MOL0     C62270   7.889   6.833   6.735 -0.7396  0.1815 -0.1186
  452MOL0     C62271   7.874   6.885   6.862 -0.0220  0.2171  0.5716
  452MOL0     C62272   7.922   7.017   6.892  0.5781  0.0248  0.0930
  452MOL0     C62273   7.979   7.099   6.793 -0.0644 -0.7107  0.1531
  452MOL0     O62274   8.015   7.227   6.799 -0.3066 -0.3182  0.1817
  452MOL0     C62275   7.980   7.295   6.920  1.0275 -0.3228  0.0784
  452MOL0     C62276   7.995   7.444   6.912 -0.1121 -1.5335 -1.1287
  452MOL0     C62277   7.889   7.521   6.824  0.0729  0.3260 -0.5241
  452MOL0     C62278   7.913   7.674   6.815  0.4510 -0.4064 -0.4910
  452MOL0     C62279   7.767   7.721   6.760 -0.7041  0.9600  0.1578
  452MOL0     C62280   7.758   7.869   6.790  0.6524  0.8973  0.2201
  452MOL0     C62281   7.779   7.962   6.669 -0.2364  0.2966 -1.1105
  452MOL0     C62282   7.921   7.977   6.631  0.3388 -0.1284 -0.2249
  452MOL0    Cl62283   7.925   8.090   6.493  0.0828  0.4156 -0.0129
  452MOL0     C62284   7.987   7.044   6.668 -0.5829 -0.5336  0.4944
  452MOL0     C62285   7.948   6.913   6.640 -0.4777  0.2551  0.5212
  452MOL0     O62286   7.994   6.594   6.855  0.3375  0.4287 -0.1315
  452MOL0     C62287   7.693   6.474   6.713  0.1088 -1.1751 -0.0338
  452MOL0     C62288   7.615   6.354   6.700  0.8824 -1.5264  0.2442
  452MOL0     N62289   7.169   6.283   7.097 -0.7735 -0.5694  0.7023
  452MOL0     N62290   7.091   6.381   7.094  0.2739 -0.8920 -0.0995
  452MOL0     C62291   6.835   6.423   5.897  0.1738 -1.1192 -1.1256
  452MOL0     C62292   6.710   6.403   5.845  0.1686 -0.4226 -0.2690
  452MOL0     C62293   6.256   6.369   5.800  0.8487  0.0516 -0.0285
  452MOL0     C62294   6.267   6.398   5.664  0.6090  0.2898 -1.4675
  452MOL0     C62295   6.149   6.380   5.591  0.2015  0.4292  0.9487
  452MOL0     C62296   6.031   6.347   5.642  1.0800 -1.1510 -0.1415
  452MOL0     O62297   5.928   6.316   5.552 -0.0547 -1.0428 -0.8593
  452MOL0     C62298   5.780   6.317   5.592 -0.4255 -0.7916 -0.8878
  452MOL0     C62299   5.705   6.243   5.478  0.6282  0.0730  0.5606
  452MOL0     C62300   5.732   6.092   5.479 -0.8841 -0.2688 -0.2396
  452MOL0     C62301   5.649   6.041   5.366  0.5004  0.6156 -0.0791
  452MOL0     C62302   5.637   5.887   5.366  0.2451  0.3863 -0.9690
  452MOL0     C62303   5.626   5.766   5.357 -0.3394 -0.0993 -0.1959
  452MOL0     C62304   6.011   6.328   5.780  0.1507  0.2105  0.1594
  452MOL0     C62305   6.127   6.325   5.862  0.4248 -0.5915 -0.2596
  452MOL0     C62306   6.108   6.291   6.015 -0.0744 -0.4761 -0.4856
  452MOL0     H62307   6.536   6.631   6.032  2.1117  1.0182  1.1659
  452MOL0     H62308   6.753   6.696   6.100 -0.1118  1.2805 -0.4006
  452MOL0     H62309   6.899   6.616   6.246 -0.0170 -1.1985  2.2459
  452MOL0     H62310   7.035   6.701   6.143 -0.6249  0.2847  0.4528
  452MOL0     H62311   7.069   6.423   6.254 -1.2906  0.1026 -1.3493
  452MOL0     H62312   7.198   6.550   6.207 -0.1014  2.4417  0.0447
  452MOL0     H62313   7.091   6.686   6.415 -0.4239 -0.0027 -2.1340
  452MOL0     H62314   7.015   6.521   6.441 -0.3528 -0.0736 -1.3350
  452MOL0     H62315   7.267   6.431   6.486  1.9884  0.9445  4.7045
  452MOL0     H62316   7.322   6.585   6.443 -0.1890  1.0462  1.1370
  452MOL0     H62317   7.226   6.666   6.666  4.4527  0.5862  1.8326
  452MOL0     H62318   7.333   6.532   6.688  0.9388  0.4539  1.7981
  452MOL0     H62319   7.042   6.468   6.640 -2.9614  1.6665  2.0540
  452MOL0     H62320   7.167   6.392   6.746  0.6119 -0.1518 -0.9882
  452MOL0     H62321   7.034   6.666   6.809 -0.1843  0.0086 -0.7837
  452MOL0     H62322   7.144   6.584   6.910  1.5777  2.1972 -1.9282
  452MOL0     H62323   6.913   6.556   6.976  1.3434 -0.1478  1.1195
  452MOL0     H62324   6.891   6.451   6.831  1.6594  0.2671 -0.6082
  452MOL0     H62325   7.004   6.207   6.832  0.0280  0.0447 -0.0381
  452MOL0     H62326   7.213   6.075   6.841 -3.3197 -0.8715 -1.0687
  452MOL0     H62327   7.173   5.989   6.986 -0.8740 -0.0838 -1.2363
  452MOL0     H62328   7.386   6.082   7.095  0.9887  0.3374 -0.3572
  452MOL0     H62329   7.393   5.957   6.968 -0.7840 -0.5432  1.2409
  452MOL0     H62330   7.458   6.246   6.901  3.2452  0.4815 -3.0587
  452MOL0     H62331   7.583   6.131   6.930  1.5335 -1.5931 -2.1585
  452MOL0     H62332   7.463   5.980   6.761  2.5746 -1.1154  2.1639
  452MOL0     H62333   7.393   6.136   6.705  0.1293  2.0687  0.7079
  452MOL0     H62334   7.860   6.120   6.757  3.6742  2.0537  0.4021
  452MOL0     H62335   8.051   6.322   6.907 -2.9249  0.3012  0.3985
  452MOL0     H62336   8.109   6.385   6.760  2.4609 -0.0065  3.0220
  452MOL0     H62337   8.075   6.213   6.773  2.8280  0.6513  0.5771
  452MOL0     H62338   7.844   6.815   6.940 -1.3047 -1.4941 -1.3649
  452MOL0     H62339   7.926   7.040   6.998  2.0190  0.5103 -0.0387
  452MOL0     H62340   7.877   7.267   6.945  0.7969 -2.5428 -2.8432
  452MOL0     H62341   8.049   7.257   6.996  0.8146  0.5074  0.6936
  452MOL0     H62342   7.994   7.491   7.011 -1.1910 -1.9291 -0.9346
  452MOL0     H62343   8.097   7.461   6.874  0.1591  1.9003  0.6892
  452MOL0     H62344   7.793   7.488   6.864  1.6802  0.0501  3.6112
  452MOL0     H62345   7.902   7.474   6.726 -3.8289 -0.6724 -0.7010
  452MOL0     H62346   8.001   7.708   6.761 -0.0317  2.4158  0.3179
  452MOL0     H62347   7.929   7.710   6.917 -1.1279  2.3021 -1.1091
  452MOL0     H62348   7.758   7.675   6.662  1.1866 -1.5623  1.0469
  452MOL0     H62349   7.690   7.668   6.816 -1.7931  0.1092 -2.0412
  452MOL0     H62350   7.826   7.898   6.871  0.1165 -1.2324  1.5104
  452MOL0     H62351   7.654   7.879   6.822 -0.3504  1.0294 -2.6982
  452MOL0     H62352   7.734   8.056   6.701 -1.0529 -1.0506  2.0607
  452MOL0     H62353   7.720   7.920   6.587 -1.9649 -1.2943  0.8404
  452MOL0     H62354   7.976   7.883   6.619  0.7150  0.1238 -0.5105
  452MOL0     H62355   7.972   8.033   6.710 -0.1245  0.2971 -0.2265
  452MOL0     H62356   8.028   7.116   6.598 -1.7480  0.2783  0.6097
  452MOL0     H62357   7.959   6.881   6.537  0.0529  1.1909  0.2787
  452MOL0     H62358   7.640   6.568   6.704 -0.7523 -1.8179 -2.6049
  452MOL0     H62359   7.515   6.368   6.660  1.5806  1.0423 -0.7904
  452MOL0     H62360   6.922   6.374   5.855 -0.1642 -1.8016 -1.0296
  452MOL0     H62361   6.709   6.326   5.768  1.9206 -0.0834 -0.6618
  452MOL0     H62362   6.358   6.430   5.613  0.9811 -1.3815 -1.9313
  452MOL0     H62363   6.158   6.391   5.483  1.2165 -0.5829  0.9150
  452MOL0     H62364   5.762   6.261   5.684 -2.8922  1.4214  0.1098
  452MOL0     H62365   5.750   6.421   5.610 -1.8087 -0.9223 -2.1574
  452MOL0     H62366   5.729   6.270   5.375  1.4013  0.6067  0.8704
  452MOL0     H62367   5.599   6.271   5.478  0.8018  1.2929 -2.9292
  452MOL0     H62368   5.837   6.083   5.452  0.6316  4.6478  2.5661
  452MOL0     H62369   5.719   6.037   5.573  3.9664 -0.5767  0.4871
  452MOL0     H62370   5.680   6.073   5.266  2.0767 -2.7811 -0.8213
  452MOL0     H62371   5.551   6.090   5.373  0.7634  1.1538 -0.1123
  452MOL0     H62372   5.607   5.662   5.367 -0.0918  0.0844  3.3123
  452MOL0     H62373   5.917   6.303   5.827  0.5026  3.7021  3.1490
  452MOL0     H62374   6.140   6.367   6.087  0.8567 -0.8218 -0.5245
  452MOL0     H62375   6.006   6.267   6.045 -0.3839  1.3370  0.0178
  452MOL0     H62376   6.158   6.194   6.023  0.6341 -0.0926 -0.1677
  453MOL0     O62377  11.319   5.541   7.177 -0.6092  0.5472 -0.0003
  453MOL0     C62378  11.290   5.427   7.213  0.0443 -0.4217 -0.1911
  453MOL0     O62379  11.367   5.344   7.298  0.3556 -0.3416  1.0977
  453MOL0     C62380  11.484   5.409   7.345  0.2156  1.1526 -0.3736
  453MOL0     C62381  11.605   5.401   7.274  0.2426  0.4401 -0.5741
  453MOL0     C62382  11.725   5.451   7.333 -0.5424 -0.6886 -0.2933
  453MOL0     C62383  11.723   5.517   7.459 -0.7628 -0.1688 -0.7597
  453MOL0     O62384  11.836   5.548   7.530  0.1001  0.3759 -0.8944
  453MOL0     C62385  11.958   5.558   7.453  0.3551 -0.4962 -0.4578
  453MOL0     C62386  12.062   5.643   7.527 -0.0957  0.0186 -0.3756
  453MOL0     C62387  12.165   5.710   7.430 -0.8155 -0.1256 -0.5650
  453MOL0     C62388  12.250   5.809   7.507  0.7100 -0.5263  0.1384
  453MOL0     C62389  12.200   5.948   7.502 -0.5500 -0.5155  0.1237
  453MOL0     C62390  12.267   6.043   7.601  0.3142  0.1607  0.1448
  453MOL0     C62391  12.259   6.181   7.550  0.4812 -0.7354  0.1470
  453MOL0     C62392  12.380   6.259   7.619  1.1086 -0.1511  0.1298
  453MOL0     N62393  12.383   6.232   7.770 -0.0852 -0.2447 -1.2267
  453MOL0     C62394  12.479   6.176   7.846  0.4516 -0.5012 -0.0982
  453MOL0     C62395  12.439   6.166   7.970 -0.1269  0.4892 -0.2892
  453MOL0     C62396  12.515   6.109   8.084 -0.7868  0.8530  0.8352
  453MOL0     C62397  12.617   6.216   8.138  0.4476 -0.0183  0.7798
  453MOL0     C62398  12.751   6.158   8.139  0.1204 -0.3398 -0.0739
  453MOL0     C62399  12.862   6.252   8.193  0.0507 -0.0934 -0.0716
  453MOL0     O62400  12.923   6.333   8.096 -0.2980 -0.4531 -0.6466
  453MOL0     C62401  13.010   6.273   8.009  0.1796 -0.0819  0.5868
  453MOL0     C62402  13.056   6.353   7.902 -0.1117  0.6714  0.0272
  453MOL0     C62403  13.148   6.306   7.808 -0.6218 -1.4158 -0.4920
  453MOL0     C62404  13.207   6.409   7.706 -0.0729 -0.8420  1.1006
  453MOL0     C62405  13.194   6.172   7.818  0.2778  0.6240  0.1170
  453MOL0     C62406  13.302   6.115   7.733  0.0397  0.4243 -0.3106
  453MOL0     O62407  13.274   5.984   7.691 -0.4611 -0.5550 -0.0384
  453MOL0     C62408  13.360   5.911   7.626 -0.4061  0.7864  0.1091
  453MOL0     C62409  13.305   5.796   7.548  0.3146  0.1085 -0.9791
  453MOL0     C62410  13.389   5.719   7.469 -0.0243 -0.2785  0.2444
  453MOL0     C62411  13.526   5.754   7.444 -0.4981 -0.1693  0.5721
  453MOL0     O62412  13.609   5.676   7.374 -0.1099 -0.3960 -0.2443
  453MOL0     C62413  13.580   5.662   7.229 -0.6162  0.7367 -0.1109
  453MOL0     C62414  13.531   5.784   7.161 -0.1499  0.5811  0.6827
  453MOL0     C62415  13.385   5.786   7.121  0.0621  0.3998 -0.2506
  453MOL0     C62416  13.349   5.881   7.005 -0.5229  0.3116 -0.3746
  453MOL0     C62417  13.187   5.872   6.978 -0.0096  0.5674 -0.1081
  453MOL0     C62418  13.158   5.951   6.851  0.2929 -0.5951 -0.0137
  453MOL0     C62419  13.002   5.961   6.831 -0.5456  0.9226  0.2219
  453MOL0     C62420  12.941   5.996   6.695 -0.5709 -0.1394  0.3081
  453MOL0    Cl62421  12.766   5.934   6.703  0.0060  0.0262 -0.3524
  453MOL0     C62422  13.581   5.855   7.520  0.6051 -0.0631 -0.7047
  453MOL0     C62423  13.497   5.930   7.615 -0.2318  0.3407  0.4156
  453MOL0     O62424  13.409   6.179   7.724 -0.0355 -0.7108  0.0879
  453MOL0     C62425  13.134   6.085   7.907  0.2557 -0.3533  1.0295
  453MOL0     C62426  13.050   6.138   8.009  0.2628  0.1392 -1.3787
  453MOL0     N62427  12.305   6.190   7.968 -0.1180 -1.0716 -0.9007
  453MOL0     N62428  12.274   6.237   7.856 -0.2406 -0.2986  0.3192
  453MOL0     C62429  11.603   5.542   7.517 -0.4286 -0.1568  1.1139
  453MOL0     C62430  11.487   5.488   7.467 -0.5177  0.3199  0.5220
  453MOL0     C62431  11.179   5.371   7.142 -0.2138 -0.2490 -0.9970
  453MOL0     C62432  11.056   5.449   7.141 -0.1119  0.0701 -0.1002
  453MOL0     C62433  10.938   5.387   7.095  0.6545 -0.0700  0.5785
  453MOL0     C62434  10.926   5.247   7.074  0.1267  0.2796  0.6327
  453MOL0     O62435  10.805   5.185   7.060 -0.9907 -0.1904  0.0540
  453MOL0     C62436  10.710   5.253   6.974  0.0131 -0.5716  0.6911
  453MOL0     C62437  10.587   5.180   6.916 -0.4363  0.2768  1.1132
  453MOL0     C62438  10.503   5.100   7.018  0.4786  0.5995  0.0475
  453MOL0     C62439  10.391   5.185   7.093 -0.1984 -0.2185 -0.2147
  453MOL0     C62440  10.272   5.189   7.014 -0.2465 -1.0820  0.1196
  453MOL0     C62441  10.176   5.213   6.945  0.8535 -0.9403  0.1608
  453MOL0     C62442  11.043   5.181   7.074 -0.2056 -0.4705  0.6896
  453MOL0     C62443  11.170   5.237   7.088 -1.1894 -0.1589 -0.6153
  453MOL0     C62444  11.298   5.150   7.053 -0.1234 -0.1589 -0.7361
  453MOL0     H62445  11.620   5.365   7.172  1.0489  2.0935 -1.0792
  453MOL0     H62446  11.823   5.421   7.296 -1.0435 -4.4271  0.9128
  453MOL0     H62447  11.946   5.614   7.360 -0.0235 -0.4908 -0.4086
  453MOL0     H62448  12.000   5.460   7.429  0.7466 -0.3286 -0.4669
  453MOL0     H62449  12.010   5.723   7.579  1.5602  0.6025  0.4665
  453MOL0     H62450  12.105   5.574   7.600 -3.8040 -1.8848  0.2247
  453MOL0     H62451  12.225   5.627   7.392 -1.1473 -0.3220 -0.6623
  453MOL0     H62452  12.113   5.762   7.349 -2.5051 -1.0653 -0.1214
  453MOL0     H62453  12.257   5.775   7.611 -2.2893 -1.0945  0.2502
  453MOL0     H62454  12.353   5.814   7.472  0.5575 -0.8193 -0.3703
  453MOL0     H62455  12.094   5.939   7.527  0.1455 -0.6227  3.6081
  453MOL0     H62456  12.222   5.976   7.399  0.1448 -0.9480  0.1469
  453MOL0     H62457  12.215   6.047   7.697  2.8867 -0.6998  1.6687
  453MOL0     H62458  12.369   6.012   7.625  0.0098  1.0720  2.9464
  453MOL0     H62459  12.164   6.228   7.576  1.8355  2.1811  0.2619
  453MOL0     H62460  12.269   6.195   7.441 -1.5476  0.5351  0.0721
  453MOL0     H62461  12.477   6.228   7.579  0.8793  0.0147 -0.5607
  453MOL0     H62462  12.372   6.367   7.605 -1.3368 -0.3967 -0.7120
  453MOL0     H62463  12.580   6.156   7.809  1.6092  0.8999  2.0974
  453MOL0     H62464  12.568   6.017   8.057 -0.7036  0.0202  3.5049
  453MOL0     H62465  12.438   6.087   8.159 -1.3100  3.3324  1.1085
  453MOL0     H62466  12.603   6.303   8.073  2.0407 -2.0605 -2.5687
  453MOL0     H62467  12.602   6.246   8.242  0.7205  0.2570  0.7393
  453MOL0     H62468  12.739   6.075   8.209 -0.3127  0.5381  0.9325
  453MOL0     H62469  12.777   6.120   8.040  2.5143 -2.1823  1.1443
  453MOL0     H62470  12.827   6.313   8.276  1.5402 -0.6139  0.9817
  453MOL0     H62471  12.940   6.193   8.241  0.9697 -0.6613 -2.1642
  453MOL0     H62472  13.028   6.457   7.907  3.4342  1.7920 -0.4207
  453MOL0     H62473  13.152   6.503   7.706 -2.8526 -2.3403  2.9273
  453MOL0     H62474  13.187   6.364   7.608  1.2351  2.0362 -0.6271
  453MOL0     H62475  13.309   6.429   7.741 -1.3264  1.3849  3.8345
  453MOL0     H62476  13.198   5.778   7.552  0.1098  0.3689 -3.4864
  453MOL0     H62477  13.340   5.628   7.433  0.8051 -1.2930  1.6052
  453MOL0     H62478  13.656   5.626   7.159 -1.9446 -0.1496 -1.1377
  453MOL0     H62479  13.504   5.584   7.223  0.2908 -0.3312  1.3083
  453MOL0     H62480  13.555   5.870   7.225  0.7305  0.5929  0.3536
  453MOL0     H62481  13.586   5.806   7.069 -0.6360 -1.0721 -0.0385
  453MOL0     H62482  13.331   5.812   7.212  0.0087 -3.0216  0.8482
  453MOL0     H62483  13.347   5.688   7.089 -0.2753  0.6597 -0.6619
  453MOL0     H62484  13.411   5.848   6.921  0.7880  2.6756 -0.4269
  453MOL0     H62485  13.371   5.985   7.031 -3.8150  1.1225 -0.4662
  453MOL0     H62486  13.148   5.770   6.974 -1.2800  1.0665 -1.9477
  453MOL0     H62487  13.133   5.911   7.064  0.2052  0.0771  0.2541
  453MOL0     H62488  13.211   5.900   6.770 -1.6980 -2.1311 -0.4348
  453MOL0     H62489  13.201   6.050   6.864  0.4547 -0.8074  1.2018
  453MOL0     H62490  12.962   6.028   6.907  2.3144  0.7297  2.0355
  453MOL0     H62491  12.969   5.862   6.866  1.5262  0.6041  1.4270
  453MOL0     H62492  12.987   5.949   6.608  3.3518  0.4997  1.8220
  453MOL0     H62493  12.936   6.105   6.694  0.2353 -0.0786  1.1214
  453MOL0     H62494  13.688   5.876   7.518  0.4721  1.1001  1.4644
  453MOL0     H62495  13.557   6.001   7.672  2.8782 -0.9592 -1.0208
  453MOL0     H62496  13.149   5.978   7.900  2.5649 -0.0950  1.1762
  453MOL0     H62497  13.018   6.072   8.089  0.5856  1.7891  0.1747
  453MOL0     H62498  11.614   5.605   7.604  0.2366 -0.5810  1.3426
  453MOL0     H62499  11.397   5.496   7.527 -0.2988 -1.2903  1.1062
  453MOL0     H62500  11.065   5.554   7.167  0.7553 -0.3343  1.3177
  453MOL0     H62501  10.855   5.454   7.076 -0.5486 -2.3814 -3.4247
  453MOL0     H62502  10.665   5.324   7.044  1.3133  0.8987  0.0916
  453MOL0     H62503  10.769   5.301   6.895  4.8566 -0.5916  3.8514
  453MOL0     H62504  10.627   5.111   6.842 -0.9231  3.0733 -1.9837
  453MOL0     H62505  10.527   5.254   6.862 -0.4588 -0.7871 -0.3603
  453MOL0     H62506  10.453   5.016   6.970  2.0993  0.5473 -1.6458
  453MOL0     H62507  10.570   5.055   7.092  1.6494 -1.1153 -1.9644
  453MOL0     H62508  10.420   5.290   7.108  1.4273 -0.3338 -2.1358
  453MOL0     H62509  10.373   5.137   7.190 -1.1986  3.2220  1.4683
  453MOL0     H62510  10.107   5.243   6.869  1.4590 -0.9616 -0.4047
  453MOL0     H62511  11.039   5.074   7.054  2.7456 -0.2647 -1.8275
  453MOL0     H62512  11.271   5.054   7.009  2.1960 -1.1802 -0.0718
  453MOL0     H62513  11.363   5.198   6.980  1.2380 -0.2481  0.3802
  453MOL0     H62514  11.362   5.125   7.138 -0.2556 -1.6281 -1.0431
  454MOL0     O62515   9.338   3.350   1.739  0.9107  0.2961 -0.6564
  454MOL0     C62516   9.365   3.464   1.784 -0.7265  1.7171  0.0240
  454MOL0     O62517   9.474   3.483   1.870  0.6187 -0.7548  0.3927
  454MOL0     C62518   9.540   3.361   1.901 -0.0379 -0.7162  0.2268
  454MOL0     C62519   9.660   3.345   1.835  0.5721 -0.7379 -0.0094
  454MOL0     C62520   9.740   3.234   1.865 -0.5194  0.1136 -0.2775
  454MOL0     C62521   9.688   3.129   1.943 -0.1551 -0.3738  1.0846
  454MOL0     O62522   9.747   3.000   1.937  0.3184 -0.5694 -0.0892
  454MOL0     C62523   9.742   2.913   2.052 -0.3749  1.5993  0.0334
  454MOL0     C62524   9.636   2.805   2.025 -0.2946 -1.1124  0.7191
  454MOL0     C62525   9.632   2.686   2.129  0.1338 -1.2837  0.2345
  454MOL0     C62526   9.534   2.574   2.085  0.3043 -0.5433  0.2080
  454MOL0     C62527   9.450   2.496   2.191  0.2703  0.3947  0.1430
  454MOL0     C62528   9.530   2.426   2.307 -0.3032  0.9389 -0.8167
  454MOL0     C62529   9.515   2.269   2.304 -0.7457 -0.3253 -0.3039
  454MOL0     C62530   9.380   2.221   2.360 -0.2514 -0.9085 -0.1341
  454MOL0     N62531   9.384   2.073   2.384  0.6491  0.4024  0.2861
  454MOL0     C62532   9.428   2.017   2.498 -0.5160  0.2315  0.0219
  454MOL0     C62533   9.400   1.888   2.486 -0.2164 -0.7102  0.5664
  454MOL0     C62534   9.451   1.785   2.588  0.1231  0.0551 -1.1810
  454MOL0     C62535   9.378   1.812   2.724  0.3197 -0.2547  0.2120
  454MOL0     C62536   9.445   1.734   2.848  0.2815  0.1574  0.4004
  454MOL0     C62537   9.356   1.708   2.968 -0.6292  0.3862  0.1396
  454MOL0     O62538   9.317   1.826   3.032  0.7243  0.1775  0.1116
  454MOL0     C62539   9.399   1.906   3.113 -0.1667 -0.2118  0.1901
  454MOL0     C62540   9.369   2.035   3.136 -0.1782 -0.1630 -0.3824
  454MOL0     C62541   9.425   2.111   3.240 -0.8212 -0.2627 -0.6035
  454MOL0     C62542   9.381   2.254   3.257 -0.3511 -0.4449  0.3870
  454MOL0     C62543   9.533   2.053   3.321  0.5543  0.0263  0.8185
  454MOL0     C62544   9.606   2.139   3.426 -0.0534 -0.3006 -0.9262
  454MOL0     O62545   9.654   2.063   3.523  0.1167  0.2927 -0.0249
  454MOL0     C62546   9.724   2.103   3.636  0.1813 -0.9366  0.0329
  454MOL0     C62547   9.858   2.068   3.658  1.2011  0.1074  0.6879
  454MOL0     C62548   9.922   2.125   3.761  0.3408 -0.3101  0.4082
  454MOL0     C62549   9.856   2.208   3.856 -0.2081 -0.4804  0.2998
  454MOL0     O62550   9.928   2.258   3.960  0.6275  0.1978  0.0116
  454MOL0     C62551  10.048   2.324   3.923 -0.6264  0.0186 -0.0276
  454MOL0     C62552  10.083   2.399   4.055 -0.3880  0.0212 -0.6821
  454MOL0     C62553  10.105   2.299   4.175 -0.7140 -0.1884 -0.1334
  454MOL0     C62554  10.125   2.377   4.311 -0.5226 -0.0370  0.1640
  454MOL0     C62555  10.183   2.289   4.420 -0.1710  0.1812 -0.0891
  454MOL0     C62556  10.199   2.351   4.548  0.7067 -0.0543 -0.6491
  454MOL0     C62557  10.331   2.424   4.560 -0.5952  0.4078 -0.5332
  454MOL0     C62558  10.383   2.455   4.700 -0.0993  1.3446  1.1315
  454MOL0    Cl62559  10.250   2.452   4.835 -0.2307 -0.8441  0.2705
  454MOL0     C62560   9.719   2.237   3.831 -0.1085 -0.0427  0.4407
  454MOL0     C62561   9.654   2.182   3.728  0.6412 -0.3123  0.9555
  454MOL0     O62562   9.605   2.261   3.431 -0.0253 -0.2349  0.6845
  454MOL0     C62563   9.565   1.916   3.297 -0.6444 -0.6088 -0.4916
  454MOL0     C62564   9.494   1.843   3.195 -0.4949  0.4040 -0.2425
  454MOL0     N62565   9.326   1.867   2.370 -0.2310 -0.3729 -0.0914
  454MOL0     N62566   9.307   1.978   2.313  1.4495 -0.1018  0.2606
  454MOL0     C62567   9.572   3.158   2.016 -0.3017 -0.1277  0.3495
  454MOL0     C62568   9.494   3.268   1.993 -1.0749  1.4251 -0.6102
  454MOL0     C62569   9.295   3.575   1.725  0.8872 -0.2521 -0.1292
  454MOL0     C62570   9.334   3.625   1.597 -1.0820 -0.1027  0.6242
  454MOL0     C62571   9.271   3.738   1.540  0.1373  0.1988 -0.8121
  454MOL0     C62572   9.164   3.792   1.605 -0.5662  0.6116 -0.7726
  454MOL0     O62573   9.109   3.900   1.539 -0.4572 -0.0384 -0.9769
  454MOL0     C62574   8.971   3.929   1.552 -0.2943 -0.7592 -0.3602
  454MOL0     C62575   8.935   4.008   1.427  0.4059 -0.7003  0.4367
  454MOL0     C62576   9.045   4.117   1.413 -0.4289  0.1612  0.0093
  454MOL0     C62577   9.008   4.232   1.312 -0.1933 -0.0102 -0.3942
  454MOL0     C62578   8.950   4.348   1.391 -0.9196  0.5695  1.0202
  454MOL0     C62579   8.905   4.433   1.458 -1.0563 -0.7987  0.1091
  454MOL0     C62580   9.114   3.742   1.727  0.3090 -0.8646  0.1099
  454MOL0     C62581   9.188   3.643   1.790  0.5575 -0.2877 -0.6986
  454MOL0     C62582   9.161   3.597   1.935 -0.4519 -1.4736  0.4650
  454MOL0     H62583   9.692   3.426   1.770 -1.8025 -1.5643 -2.4239
  454MOL0     H62584   9.836   3.221   1.817 -1.3761  1.0138 -2.3701
  454MOL0     H62585   9.729   2.969   2.145  0.6071 -2.0087  2.5635
  454MOL0     H62586   9.835   2.856   2.050 -1.3230 -0.0412  0.4248
  454MOL0     H62587   9.539   2.855   2.025 -0.7508 -1.9697  0.9660
  454MOL0     H62588   9.652   2.772   1.922 -1.7210  2.6808 -0.8906
  454MOL0     H62589   9.730   2.644   2.154  1.1142  1.5792  1.5304
  454MOL0     H62590   9.599   2.718   2.228 -0.8982 -1.3660 -0.0691
  454MOL0     H62591   9.463   2.628   2.022 -0.9660 -0.1936  1.8704
  454MOL0     H62592   9.587   2.502   2.022  0.1510 -0.2096 -0.3038
  454MOL0     H62593   9.394   2.423   2.131  0.2587  1.2438 -0.9166
  454MOL0     H62594   9.388   2.575   2.234  2.1601  1.8052  0.3930
  454MOL0     H62595   9.637   2.443   2.289 -0.7132  2.6418 -1.8325
  454MOL0     H62596   9.484   2.471   2.395 -1.7054 -1.0363 -0.4729
  454MOL0     H62597   9.594   2.225   2.365  0.1871  1.6840  0.0156
  454MOL0     H62598   9.529   2.237   2.201 -0.6278 -0.7816 -0.1482
  454MOL0     H62599   9.349   2.268   2.454  0.2326 -1.7358  0.4569
  454MOL0     H62600   9.297   2.245   2.293 -2.0570 -2.9217  1.2762
  454MOL0     H62601   9.487   2.072   2.570  1.9089 -0.2503 -1.4823
  454MOL0     H62602   9.558   1.804   2.600 -0.4192  1.7208  1.9976
  454MOL0     H62603   9.442   1.687   2.541  2.0651 -1.5244  1.4941
  454MOL0     H62604   9.382   1.919   2.746  3.2044  0.3079 -2.3607
  454MOL0     H62605   9.273   1.784   2.708  0.7295 -0.7064 -2.0390
  454MOL0     H62606   9.465   1.632   2.813 -0.7936 -0.8266  2.4786
  454MOL0     H62607   9.539   1.784   2.874  2.1922 -2.3117 -1.2081
  454MOL0     H62608   9.273   1.646   2.935 -0.3785  0.2261 -0.1980
  454MOL0     H62609   9.421   1.645   3.030 -0.2091  1.2930  0.6480
  454MOL0     H62610   9.298   2.086   3.072 -2.2576 -1.4366  0.7718
  454MOL0     H62611   9.467   2.314   3.225  0.6404 -0.1055  3.3479
  454MOL0     H62612   9.368   2.291   3.359 -0.0228  4.4335 -1.0629
  454MOL0     H62613   9.300   2.283   3.191  0.2965  0.8474  0.1176
  454MOL0     H62614   9.903   2.010   3.578  1.2915  1.2900 -0.1591
  454MOL0     H62615  10.025   2.089   3.757 -0.6423 -3.2493 -2.0386
  454MOL0     H62616  10.121   2.249   3.890  0.9745  1.5530 -0.1270
  454MOL0     H62617  10.031   2.396   3.842 -0.8726  2.0100  1.6943
  454MOL0     H62618  10.175   2.456   4.040 -0.7647  0.6974 -0.4550
  454MOL0     H62619  10.009   2.478   4.073  2.4828  3.0427 -1.1012
  454MOL0     H62620  10.194   2.244   4.143 -0.3292  0.9683 -1.1452
  454MOL0     H62621  10.020   2.233   4.188 -1.7273  0.9135 -0.9556
  454MOL0     H62622  10.028   2.424   4.334 -0.6851  0.2564 -1.0520
  454MOL0     H62623  10.195   2.460   4.296  0.4066 -1.1533 -2.0195
  454MOL0     H62624  10.116   2.202   4.419 -3.4651  2.5378 -1.4330
  454MOL0     H62625  10.281   2.255   4.384 -0.7111  0.1530 -1.6104
  454MOL0     H62626  10.191   2.273   4.625 -1.7611  1.8158  1.1734
  454MOL0     H62627  10.112   2.410   4.579  2.6550  1.6580  1.9914
  454MOL0     H62628  10.323   2.518   4.504 -0.1868  0.0823 -1.1549
  454MOL0     H62629  10.417   2.374   4.514  0.2605  1.2607  0.1338
  454MOL0     H62630  10.437   2.550   4.710  0.9259  0.9443 -0.2468
  454MOL0     H62631  10.463   2.387   4.731  1.3058  2.2359 -0.3718
  454MOL0     H62632   9.674   2.300   3.907  1.6383  2.1626 -0.2353
  454MOL0     H62633   9.551   2.197   3.698  1.5174  0.4244 -2.0324
  454MOL0     H62634   9.633   1.858   3.358 -0.5056 -0.7571 -0.7886
  454MOL0     H62635   9.524   1.740   3.182 -1.8362  0.1457 -1.6463
  454MOL0     H62636   9.524   3.086   2.081  2.2455 -0.4436  2.0412
  454MOL0     H62637   9.394   3.280   2.032 -0.9470 -0.2027  0.3428
  454MOL0     H62638   9.423   3.576   1.560 -0.2837  0.9358  1.1254
  454MOL0     H62639   9.314   3.771   1.446  2.0985  1.8428  0.5759
  454MOL0     H62640   8.906   3.841   1.545 -2.4063  0.8818 -3.2529
  454MOL0     H62641   8.959   3.981   1.648 -0.5623 -2.5726  0.6382
  454MOL0     H62642   8.840   4.057   1.450  0.2852 -0.6276 -0.2060
  454MOL0     H62643   8.933   3.950   1.335  0.2579 -1.1717  0.7304
  454MOL0     H62644   9.089   4.152   1.506  0.1309  3.0970 -1.2392
  454MOL0     H62645   9.128   4.066   1.364 -1.0779  0.3581 -1.3490
  454MOL0     H62646   8.935   4.198   1.237 -0.4587 -0.8198  0.2088
  454MOL0     H62647   9.095   4.267   1.256 -0.1215 -0.5158 -0.6053
  454MOL0     H62648   8.851   4.509   1.512  1.9994  0.9313  0.9695
  454MOL0     H62649   9.033   3.784   1.785  2.1663  3.5702 -0.0742
  454MOL0     H62650   9.167   3.488   1.945 -0.5633 -1.6453 -1.1495
  454MOL0     H62651   9.253   3.631   1.984  0.8071  0.5951 -2.9690
  454MOL0     H62652   9.077   3.650   1.980  2.7239 -0.0143  5.5814
  455MOL0     O62653   1.173  11.030   2.132 -0.7548  0.0704  0.2148
  455MOL0     C62654   1.218  11.122   2.068 -0.2433 -0.5296  0.1757
  455MOL0     O62655   1.241  11.245   2.117  0.1867  0.0582  0.3434
  455MOL0     C62656   1.208  11.275   2.244  0.2989  0.7382 -0.5264
  455MOL0     C62657   1.118  11.382   2.275  0.3659  0.7026 -0.2666
  455MOL0     C62658   1.086  11.394   2.407  0.8726  0.6807 -0.5227
  455MOL0     C62659   1.148  11.322   2.510 -0.4194 -0.3130  0.9277
  455MOL0     O62660   1.115  11.347   2.644 -0.0555 -0.1271 -0.3602
  455MOL0     C62661   1.198  11.320   2.758 -0.6244 -0.3642  0.2260
  455MOL0     C62662   1.141  11.221   2.852 -0.0694  0.1872  0.0475
  455MOL0     C62663   1.218  11.178   2.975  0.1692 -0.0724  1.2083
  455MOL0     C62664   1.133  11.096   3.069 -0.4219 -0.4975 -0.2355
  455MOL0     C62665   1.221  11.018   3.158 -0.1336  0.5493  0.1836
  455MOL0     C62666   1.316  11.099   3.246  1.0723 -0.4761  0.5707
  455MOL0     C62667   1.383  11.013   3.356 -0.8344  0.3754  0.3428
  455MOL0     C62668   1.469  10.890   3.320 -0.7669 -0.0724 -0.0762
  455MOL0     N62669   1.576  10.902   3.223  0.5677  0.7712 -0.4287
  455MOL0     C62670   1.542  10.887   3.092 -0.3780  0.5073  0.3418
  455MOL0     C62671   1.659  10.831   3.039  0.1908  0.3089  0.2974
  455MOL0     C62672   1.672  10.791   2.897 -0.1427  0.4165 -0.8153
  455MOL0     C62673   1.769  10.884   2.830  0.8015 -0.1672 -0.4769
  455MOL0     C62674   1.729  11.028   2.820  1.0567  0.2197 -0.2209
  455MOL0     C62675   1.660  11.071   2.693 -0.4182 -0.3543  1.7857
  455MOL0     O62676   1.759  11.078   2.595 -0.8868 -0.4590  0.2331
  455MOL0     C62677   1.724  11.121   2.468 -0.3613  0.4375 -0.2901
  455MOL0     C62678   1.798  11.080   2.367  0.2346  0.2866  0.5736
  455MOL0     C62679   1.769  11.130   2.236  0.6026 -0.7189  1.1169
  455MOL0     C62680   1.878  11.085   2.127  1.6009  0.1866 -1.0308
  455MOL0     C62681   1.673  11.230   2.210  1.0301  0.5343 -0.4481
  455MOL0     C62682   1.655  11.300   2.078 -0.3067 -0.3908 -0.1460
  455MOL0     O62683   1.712  11.239   1.971  0.0395 -0.0266 -0.5976
  455MOL0     C62684   1.701  11.263   1.836 -0.3024 -0.4063 -0.4180
  455MOL0     C62685   1.650  11.383   1.785 -1.1138  0.8560 -0.5240
  455MOL0     C62686   1.624  11.402   1.652 -0.1379 -0.5034 -0.9948
  455MOL0     C62687   1.662  11.305   1.566  0.2153 -0.3946 -0.6602
  455MOL0     O62688   1.656  11.317   1.428  0.0650 -0.6051  0.0280
  455MOL0     C62689   1.775  11.263   1.365  0.4872  0.9012 -0.4113
  455MOL0     C62690   1.754  11.303   1.219 -0.0844  0.2829 -0.2541
  455MOL0     C62691   1.767  11.451   1.208  0.3729  0.3989  0.6232
  455MOL0     C62692   1.770  11.482   1.055  0.2783  0.5526 -1.4378
  455MOL0     C62693   1.774  11.640   1.039  0.6796  0.2864  0.4982
  455MOL0     C62694   1.644  11.688   0.969  0.0563  0.4015 -0.2508
  455MOL0     C62695   1.657  11.830   0.934  0.2891 -0.2653 -0.3786
  455MOL0     C62696   1.539  11.864   0.836 -0.0507  0.3235  0.1591
  455MOL0    Cl62697   1.510  12.033   0.844  0.2040  0.0230  0.1090
  455MOL0     C62698   1.704  11.180   1.617  0.4282 -0.3321 -0.1649
  455MOL0     C62699   1.733  11.158   1.749 -0.2634 -0.5588  0.0279
  455MOL0     O62700   1.588  11.404   2.072  0.3998  0.0543 -0.7204
  455MOL0     C62701   1.589  11.265   2.317 -0.1676 -0.0565 -0.3959
  455MOL0     C62702   1.617  11.210   2.448  0.0159 -0.5077 -0.0344
  455MOL0     N62703   1.757  10.822   3.132  0.6828  0.4532  0.0797
  455MOL0     N62704   1.704  10.865   3.243 -0.5776  0.2877 -0.7927
  455MOL0     C62705   1.237  11.221   2.477 -0.3231 -0.0030 -0.6902
  455MOL0     C62706   1.272  11.207   2.346  0.1645 -0.1102 -0.2582
  455MOL0     C62707   1.252  11.099   1.923  0.1349  0.1163  0.0058
  455MOL0     C62708   1.302  11.204   1.848  0.1898 -0.0603 -1.1694
  455MOL0     C62709   1.316  11.192   1.706  0.2672 -0.3383 -0.4723
  455MOL0     C62710   1.282  11.073   1.632 -0.1358 -0.2880 -0.5455
  455MOL0     O62711   1.271  11.049   1.497 -0.1659  0.7043 -0.1508
  455MOL0     C62712   1.316  11.154   1.405  0.5009  0.6158  0.2748
  455MOL0     C62713   1.356  11.102   1.269 -0.1448  0.2445  0.3444
  455MOL0     C62714   1.334  11.200   1.148  0.6453 -0.3980  1.2131
  455MOL0     C62715   1.410  11.163   1.021 -0.4014 -0.0892  0.1279
  455MOL0     C62716   1.382  11.256   0.912  0.4549 -0.3178 -0.0548
  455MOL0     C62717   1.334  11.348   0.850 -0.5281  0.0732 -0.0058
  455MOL0     C62718   1.249  10.975   1.717 -0.2684  0.0430  0.3734
  455MOL0     C62719   1.232  10.984   1.859  0.1018  0.5672  1.5267
  455MOL0     C62720   1.204  10.854   1.931 -0.0984 -0.0669  0.2083
  455MOL0     H62721   1.055  11.434   2.203 -2.4433 -0.7828  0.9817
  455MOL0     H62722   1.015  11.472   2.434  0.2293 -0.0697 -0.0308
  455MOL0     H62723   1.186  11.407   2.822 -1.3968 -0.9201  0.8609
  455MOL0     H62724   1.303  11.298   2.740 -1.2004 -3.3495 -0.0844
  455MOL0     H62725   1.037  11.242   2.881 -0.5158 -0.6795 -0.8313
  455MOL0     H62726   1.120  11.129   2.797  2.4186 -0.6739  0.4287
  455MOL0     H62727   1.310  11.129   2.941  0.7822  3.4088 -3.1175
  455MOL0     H62728   1.254  11.264   3.031 -0.4975  0.6645  0.5246
  455MOL0     H62729   1.072  11.159   3.134  0.9422 -0.6975  1.3077
  455MOL0     H62730   1.072  11.022   3.016 -0.2122 -1.7078  1.1536
  455MOL0     H62731   1.279  10.946   3.100  2.4695  1.2228  1.7356
  455MOL0     H62732   1.155  10.960   3.223 -0.0250  1.5819  1.2527
  455MOL0     H62733   1.403  11.133   3.189 -0.3522  0.7911 -0.9357
  455MOL0     H62734   1.268  11.187   3.290  2.3385  1.9756 -2.5355
  455MOL0     H62735   1.301  10.984   3.423 -1.0289 -2.4555 -0.9530
  455MOL0     H62736   1.445  11.090   3.402  1.0188 -0.5857 -0.4749
  455MOL0     H62737   1.523  10.853   3.408  1.5141  2.9344 -0.0525
  455MOL0     H62738   1.401  10.811   3.286 -0.2124 -0.9471  0.7830
  455MOL0     H62739   1.446  10.907   3.046 -1.9556  1.2450  3.6543
  455MOL0     H62740   1.576  10.797   2.845 -0.2829  5.8661 -0.5071
  455MOL0     H62741   1.703  10.687   2.885  1.2270  0.8003 -0.7382
  455MOL0     H62742   1.862  10.880   2.887 -0.1706  1.7325  1.3725
  455MOL0     H62743   1.792  10.852   2.728 -0.5800  1.9740 -1.5251
  455MOL0     H62744   1.657  11.063   2.895  0.2154  0.0049 -0.9158
  455MOL0     H62745   1.818  11.091   2.830  0.4906  1.1967 -1.0413
  455MOL0     H62746   1.579  11.005   2.659 -1.6967  2.3658 -1.0030
  455MOL0     H62747   1.627  11.175   2.705  0.7828  0.0043  2.0160
  455MOL0     H62748   1.879  11.010   2.388 -0.9772 -1.0045  1.1032
  455MOL0     H62749   1.945  11.008   2.167 -1.2550 -2.0032 -0.1161
  455MOL0     H62750   1.929  11.176   2.095 -0.8256  1.6824 -0.9430
  455MOL0     H62751   1.830  11.034   2.043 -1.5348  0.3370  0.5281
  455MOL0     H62752   1.623  11.469   1.846 -1.6078  1.0437 -0.9988
  455MOL0     H62753   1.584  11.492   1.606  0.6246 -0.2355 -1.1504
  455MOL0     H62754   1.866  11.308   1.406 -0.8956  1.7432  1.9698
  455MOL0     H62755   1.775  11.154   1.365 -1.4287  0.8348 -2.1263
  455MOL0     H62756   1.845  11.255   1.183  0.5641 -0.5832  2.3014
  455MOL0     H62757   1.657  11.264   1.187  0.7641 -0.0452 -2.6106
  455MOL0     H62758   1.864  11.485   1.245  0.1269  1.0883  0.6488
  455MOL0     H62759   1.685  11.501   1.261 -0.3032  0.3296 -0.3232
  455MOL0     H62760   1.676  11.445   1.012 -2.4241  3.9801  0.9472
  455MOL0     H62761   1.852  11.437   0.998  1.7488  2.0052 -0.5543
  455MOL0     H62762   1.785  11.685   1.138  0.4802 -1.1016  1.1779
  455MOL0     H62763   1.866  11.662   0.984  1.2052 -1.7721  0.4863
  455MOL0     H62764   1.561  11.670   1.038  1.2998  1.2665  1.5481
  455MOL0     H62765   1.622  11.627   0.880 -1.1753 -0.4120  0.5803
  455MOL0     H62766   1.757  11.847   0.893  0.2243  3.2274  0.5664
  455MOL0     H62767   1.646  11.892   1.023  1.3586 -1.3822  0.5591
  455MOL0     H62768   1.448  11.807   0.857  1.0140 -0.9954  1.4754
  455MOL0     H62769   1.553  11.838   0.731 -1.7854  0.1939 -0.0621
  455MOL0     H62770   1.712  11.094   1.552  5.0013  0.3909 -0.9141
  455MOL0     H62771   1.767  11.062   1.788 -0.1398 -0.6066 -0.1911
  455MOL0     H62772   1.506  11.335   2.314  1.4180  1.9077 -0.3659
  455MOL0     H62773   1.572  11.250   2.538  3.0817  1.9953  0.5361
  455MOL0     H62774   1.282  11.156   2.552 -0.6261  1.2552  0.6126
  455MOL0     H62775   1.346  11.134   2.315  0.3288 -1.8662  3.7111
  455MOL0     H62776   1.316  11.300   1.897 -1.0419  0.1573 -1.1938
  455MOL0     H62777   1.330  11.283   1.650  1.1651 -0.4339 -0.4176
  455MOL0     H62778   1.244  11.236   1.393 -1.7903 -1.4653 -1.0191
  455MOL0     H62779   1.397  11.207   1.457  0.4253 -0.2159  1.2565
  455MOL0     H62780   1.292  11.025   1.226  0.0559  0.9593 -1.3207
  455MOL0     H62781   1.463  11.077   1.264 -0.6502 -1.9010 -1.6972
  455MOL0     H62782   1.229  11.200   1.118  1.1785  0.7431 -0.8559
  455MOL0     H62783   1.360  11.301   1.179  0.0688  0.4285 -0.8662
  455MOL0     H62784   1.382  11.062   0.991 -4.0075  0.9479 -0.4087
  455MOL0     H62785   1.518  11.163   1.042 -0.3646 -4.0133  0.6573
  455MOL0     H62786   1.310  11.438   0.797 -1.6012 -0.8010 -1.0628
  455MOL0     H62787   1.235  10.878   1.671 -2.3031  1.0508 -1.3199
  455MOL0     H62788   1.223  10.768   1.865  2.4657  0.6848 -0.1586
  455MOL0     H62789   1.266  10.835   2.019  1.5338 -3.0733 -1.4062
  455MOL0     H62790   1.100  10.858   1.964  0.1171  1.6223  0.7820
  456MOL0     O62791   7.104   7.702   2.500 -0.2027 -0.2232  0.0687
  456MOL0     C62792   7.199   7.778   2.522  0.1429 -0.9393 -0.2310
  456MOL0     O62793   7.254   7.809   2.654 -0.1384  1.2231 -0.1143
  456MOL0     C62794   7.184   7.765   2.762  0.1331  0.3095  0.3911
  456MOL0     C62795   7.205   7.646   2.824  0.5282  0.3652  0.1627
  456MOL0     C62796   7.147   7.608   2.941 -0.3636  0.2603 -0.0408
  456MOL0     C62797   7.043   7.693   2.987 -0.8356 -0.4211 -0.1968
  456MOL0     O62798   6.974   7.630   3.092 -0.2340  0.0107  0.5908
  456MOL0     C62799   6.958   7.705   3.216  0.0370 -0.5431 -0.0387
  456MOL0     C62800   6.894   7.624   3.333  0.2149  0.2809 -0.0040
  456MOL0     C62801   6.778   7.545   3.300 -0.0825  0.3230 -0.3716
  456MOL0     C62802   6.697   7.499   3.426  0.2822 -0.3977  0.1492
  456MOL0     C62803   6.761   7.365   3.472 -0.6292  0.9827 -0.2567
  456MOL0     C62804   6.663   7.281   3.564  0.0039  0.5602  0.0329
  456MOL0     C62805   6.710   7.143   3.607 -0.9540  1.4579 -0.2460
  456MOL0     C62806   6.641   7.101   3.736 -0.2725 -0.3760 -0.1049
  456MOL0     N62807   6.519   7.031   3.699  0.2756  0.9665  0.3151
  456MOL0     C62808   6.396   7.083   3.724 -0.0489  0.0031 -0.1689
  456MOL0     C62809   6.309   7.000   3.669  0.5202 -0.0251 -0.3463
  456MOL0     C62810   6.159   7.000   3.653  0.4710  0.4013 -0.0771
  456MOL0     C62811   6.121   7.061   3.517  0.7477 -0.4262 -0.2162
  456MOL0     C62812   5.970   7.069   3.476 -0.2571  0.1914  0.4805
  456MOL0     C62813   5.902   6.940   3.465  1.7557 -0.3205  0.5555
  456MOL0     O62814   5.760   6.965   3.447  0.0639  0.0454  0.4585
  456MOL0     C62815   5.726   7.046   3.346  0.0447  0.6550  1.0241
  456MOL0     C62816   5.603   7.119   3.355 -0.6031  0.0031 -0.4044
  456MOL0     C62817   5.540   7.184   3.249 -0.9138 -0.3154  0.7088
  456MOL0     C62818   5.410   7.238   3.282  0.3566  0.0617  0.1985
  456MOL0     C62819   5.616   7.191   3.130  0.3089 -0.0738  0.9089
  456MOL0     C62820   5.557   7.248   3.003  0.4273  0.0035 -0.8002
  456MOL0     O62821   5.610   7.200   2.896  0.4034 -0.2943  0.1019
  456MOL0     C62822   5.593   7.270   2.781 -1.0319  0.0727 -0.3102
  456MOL0     C62823   5.473   7.273   2.716 -0.0692 -0.0654  0.1871
  456MOL0     C62824   5.449   7.348   2.605 -0.4951  0.2189  0.0420
  456MOL0     C62825   5.563   7.407   2.546 -0.0556  0.3206  0.7013
  456MOL0     O62826   5.542   7.475   2.428 -0.4167  0.8442 -0.0363
  456MOL0     C62827   5.434   7.568   2.435  0.4609 -0.7550 -0.2280
  456MOL0     C62828   5.491   7.707   2.485  0.1935  0.2610 -0.5257
  456MOL0     C62829   5.595   7.764   2.397 -0.5028  0.0322  0.4101
  456MOL0     C62830   5.614   7.913   2.431 -0.4914 -0.4315 -0.2885
  456MOL0     C62831   5.503   7.996   2.360 -1.2067  1.0675 -0.6418
  456MOL0     C62832   5.529   8.141   2.395 -0.2067 -0.1166 -0.1178
  456MOL0     C62833   5.407   8.238   2.358  0.4956 -0.2958 -0.0984
  456MOL0     C62834   5.456   8.385   2.399 -0.5376 -0.3068  0.2813
  456MOL0    Cl62835   5.451   8.412   2.576  0.2302 -0.3384 -0.3833
  456MOL0     C62836   5.696   7.408   2.609  0.3199  1.1544 -0.6064
  456MOL0     C62837   5.703   7.341   2.730 -0.5628  0.5614 -0.1746
  456MOL0     O62838   5.471   7.333   3.006  0.0181  0.2685 -0.1908
  456MOL0     C62839   5.734   7.112   3.113  1.1439 -0.6741 -0.7085
  456MOL0     C62840   5.794   7.049   3.223 -0.8692  0.6711  0.0391
  456MOL0     N62841   6.378   6.894   3.609 -0.0730  1.0645 -0.6955
  456MOL0     N62842   6.503   6.911   3.633 -0.2006 -0.1107 -0.1115
  456MOL0     C62843   7.023   7.821   2.937  0.7931  1.5855  0.1357
  456MOL0     C62844   7.102   7.853   2.825 -0.1165 -0.4931  0.4423
  456MOL0     C62845   7.266   7.843   2.405  0.0960  1.7651 -0.4468
  456MOL0     C62846   7.358   7.948   2.436  0.6259 -0.3382 -0.2989
  456MOL0     C62847   7.422   8.027   2.343  0.0983  0.0081 -0.0099
  456MOL0     C62848   7.384   8.000   2.211 -1.1797  0.6778 -0.5004
  456MOL0     O62849   7.437   8.075   2.113  0.6928  0.5798 -0.0205
  456MOL0     C62850   7.359   8.181   2.075 -0.5047  0.0082 -0.7668
  456MOL0     C62851   7.435   8.275   1.982 -0.8511 -0.5136  0.5430
  456MOL0     C62852   7.548   8.342   2.050  0.4161  0.6405  0.3992
  456MOL0     C62853   7.514   8.472   2.128  0.3357  1.0707 -0.5040
  456MOL0     C62854   7.469   8.575   2.041 -0.2313 -0.3931  0.2733
  456MOL0     C62855   7.440   8.663   1.968  0.4438 -0.9364  0.8107
  456MOL0     C62856   7.287   7.900   2.167  0.0113  0.0290  0.1078
  456MOL0     C62857   7.228   7.823   2.263 -0.6281 -0.3256 -0.3673
  456MOL0     C62858   7.123   7.724   2.217 -0.6101  0.0974  0.2224
  456MOL0     H62859   7.279   7.588   2.770  0.6190  0.5533  0.0833
  456MOL0     H62860   7.169   7.516   2.994  2.1890  1.2622  0.8351
  456MOL0     H62861   6.892   7.787   3.187 -0.0045 -1.7713 -3.9921
  456MOL0     H62862   7.051   7.751   3.254 -1.7773  1.1746  2.7060
  456MOL0     H62863   6.967   7.548   3.363  0.1212 -0.2102 -0.9651
  456MOL0     H62864   6.864   7.700   3.405 -1.4569  1.5862 -1.9675
  456MOL0     H62865   6.711   7.613   3.246 -0.3249 -0.3894 -0.9769
  456MOL0     H62866   6.802   7.462   3.233  0.7049 -0.3684  0.7453
  456MOL0     H62867   6.703   7.570   3.509 -1.4424  0.3630 -0.3383
  456MOL0     H62868   6.592   7.490   3.399 -0.2562  2.2842  1.0924
  456MOL0     H62869   6.857   7.369   3.523  0.7737 -1.3737 -2.4299
  456MOL0     H62870   6.772   7.298   3.385 -1.3863 -1.3578  1.3364
  456MOL0     H62871   6.634   7.348   3.645 -0.2046  0.0167  0.4144
  456MOL0     H62872   6.566   7.260   3.518  0.8448 -2.3312 -0.6531
  456MOL0     H62873   6.819   7.137   3.615 -1.0515  1.8300  2.0535
  456MOL0     H62874   6.679   7.074   3.528  0.9339  0.4735 -0.1808
  456MOL0     H62875   6.707   7.034   3.791  0.0884 -0.3646 -0.5185
  456MOL0     H62876   6.624   7.190   3.797  2.1481 -0.9058  1.5057
  456MOL0     H62877   6.379   7.175   3.778 -0.0733 -0.1677  0.1199
  456MOL0     H62878   6.110   7.039   3.743  0.5321 -2.5260  1.3432
  456MOL0     H62879   6.132   6.894   3.648  3.2243 -0.4250  0.7588
  456MOL0     H62880   6.148   7.167   3.512 -0.8061  0.0903  1.2382
  456MOL0     H62881   6.175   7.001   3.443 -1.5091 -5.2010  1.6087
  456MOL0     H62882   5.913   7.131   3.547 -1.6243  0.3215 -0.6819
  456MOL0     H62883   5.965   7.135   3.390 -5.0494  1.1069  1.1462
  456MOL0     H62884   5.942   6.892   3.375 -1.0415 -0.4904 -0.7050
  456MOL0     H62885   5.911   6.873   3.551  2.1383 -0.1118  0.6835
  456MOL0     H62886   5.553   7.124   3.451 -0.7168  1.9755 -0.5186
  456MOL0     H62887   5.332   7.180   3.231 -0.1919  0.1009  0.9847
  456MOL0     H62888   5.400   7.345   3.257 -0.5561  0.7584  3.1196
  456MOL0     H62889   5.393   7.230   3.390  2.1858  0.0927  0.5059
  456MOL0     H62890   5.390   7.218   2.758 -2.2579  2.1049 -1.0745
  456MOL0     H62891   5.353   7.341   2.554  0.5688  1.3786 -2.2940
  456MOL0     H62892   5.396   7.588   2.334  0.1807  0.7936  0.1611
  456MOL0     H62893   5.339   7.544   2.483  1.6984  0.7000  3.2927
  456MOL0     H62894   5.410   7.781   2.482  1.3939  1.6193 -0.7753
  456MOL0     H62895   5.533   7.698   2.585 -1.2867  2.4317  0.3739
  456MOL0     H62896   5.569   7.748   2.292 -2.3742  0.7338  0.7276
  456MOL0     H62897   5.688   7.708   2.411 -0.4092 -0.1846 -0.9348
  456MOL0     H62898   5.707   7.946   2.385 -0.1394  1.4508  1.6553
  456MOL0     H62899   5.627   7.931   2.538  0.5620 -1.7511 -0.1748
  456MOL0     H62900   5.508   7.981   2.252  1.5643  2.8691 -0.8529
  456MOL0     H62901   5.409   7.972   2.410 -0.6742  1.9441  0.8244
  456MOL0     H62902   5.614   8.180   2.338 -1.2506 -0.1616 -1.7482
  456MOL0     H62903   5.549   8.149   2.503 -4.1996 -2.6863  1.0435
  456MOL0     H62904   5.308   8.205   2.392 -0.5899  2.0044 -0.8264
  456MOL0     H62905   5.400   8.237   2.248  0.2568  0.9469 -0.1056
  456MOL0     H62906   5.391   8.454   2.345 -0.5302 -0.1758  0.4351
  456MOL0     H62907   5.556   8.406   2.360 -0.4913  2.1218  1.4837
  456MOL0     H62908   5.783   7.457   2.567  0.6560  0.3541 -0.8686
  456MOL0     H62909   5.797   7.334   2.784 -0.0705 -0.9418 -1.1733
  456MOL0     H62910   5.788   7.109   3.019  0.1249 -0.0362 -1.3304
  456MOL0     H62911   5.880   6.987   3.199 -0.3431  1.2958  0.3038
  456MOL0     H62912   6.958   7.890   2.989 -4.5301 -1.4409 -1.7675
  456MOL0     H62913   7.097   7.958   2.797  0.2651 -0.6162 -0.1201
  456MOL0     H62914   7.393   7.976   2.535  2.8715 -2.9531 -0.2481
  456MOL0     H62915   7.499   8.101   2.363  0.1720 -0.0356 -0.1351
  456MOL0     H62916   7.267   8.144   2.028 -1.3483 -1.5237  1.8879
  456MOL0     H62917   7.317   8.246   2.152 -0.4295 -1.6021  0.6965
  456MOL0     H62918   7.367   8.340   1.926 -0.4597 -2.1016 -1.9482
  456MOL0     H62919   7.471   8.223   1.893 -1.1338 -0.5825  0.4660
  456MOL0     H62920   7.592   8.269   2.119  0.8490  0.2208 -0.3127
  456MOL0     H62921   7.631   8.372   1.985  1.9870  1.2031  2.5609
  456MOL0     H62922   7.604   8.505   2.180  0.7957 -0.4692 -0.2719
  456MOL0     H62923   7.447   8.446   2.210  2.0196  0.6352  0.7841
  456MOL0     H62924   7.395   8.752   1.929 -1.9271 -2.1044  0.6788
  456MOL0     H62925   7.265   7.890   2.062  1.8519  0.2746 -0.3410
  456MOL0     H62926   7.099   7.731   2.111 -2.3061 -1.5762  0.4525
  456MOL0     H62927   7.164   7.627   2.248 -0.0856  1.2832  3.5767
  456MOL0     H62928   7.026   7.746   2.262 -0.3302  2.7115 -0.2788
  457MOL0     O62929  10.693   4.824   4.035 -0.3456  0.0986 -0.0458
  457MOL0     C62930  10.632   4.883   3.953 -0.8160  0.6174 -0.6345
  457MOL0     O62931  10.535   4.979   3.980  0.3717 -0.3805  0.5339
  457MOL0     C62932  10.486   5.010   4.102  0.4832  0.0608 -0.0531
  457MOL0     C62933  10.563   5.034   4.221 -0.5693 -0.1284 -0.4306
  457MOL0     C62934  10.491   5.070   4.329  0.9202  0.1782 -0.8325
  457MOL0     C62935  10.350   5.073   4.334 -0.2294 -0.3142  0.7629
  457MOL0     O62936  10.279   5.106   4.449  0.0898 -0.1937  0.5201
  457MOL0     C62937  10.343   5.125   4.580  0.5011 -0.3217  0.0012
  457MOL0     C62938  10.234   5.179   4.678  0.8472  0.4650 -0.4175
  457MOL0     C62939  10.280   5.273   4.787 -0.3450  0.4128  0.5374
  457MOL0     C62940  10.149   5.295   4.880 -0.8503  0.4833 -0.9255
  457MOL0     C62941  10.144   5.182   4.986  0.2007 -0.1453 -0.5801
  457MOL0     C62942  10.021   5.198   5.079  0.0819 -0.4131 -0.3653
  457MOL0     C62943   9.886   5.196   4.994  1.4373  0.0672  0.5031
  457MOL0     C62944   9.765   5.142   5.080 -0.0474  0.4166 -0.1835
  457MOL0     N62945   9.640   5.148   5.008  0.1935  0.0985 -0.0663
  457MOL0     C62946   9.575   5.043   4.954 -0.2751  0.3247  0.4701
  457MOL0     C62947   9.467   5.098   4.893  0.4742 -0.1284  0.5080
  457MOL0     C62948   9.349   5.030   4.813 -0.0988  0.4437 -0.7699
  457MOL0     C62949   9.379   5.008   4.665 -0.5010 -0.0915 -0.0907
  457MOL0     C62950   9.269   4.930   4.589 -0.6149  0.8584 -0.5041
  457MOL0     C62951   9.332   4.865   4.463 -0.3170 -0.4093 -1.0620
  457MOL0     O62952   9.416   4.954   4.391 -0.5020 -0.1747 -0.1774
  457MOL0     C62953   9.494   4.898   4.292 -1.0505  0.8276  0.6327
  457MOL0     C62954   9.506   4.755   4.258  0.0594 -0.2422 -0.2991
  457MOL0     C62955   9.613   4.703   4.172  0.6227 -0.8750  0.2831
  457MOL0     C62956   9.628   4.560   4.175  0.9689  0.4013 -0.0802
  457MOL0     C62957   9.694   4.801   4.104  0.3384  0.4441 -0.0800
  457MOL0     C62958   9.779   4.774   3.980  0.4278 -0.5497  0.9316
  457MOL0     O62959   9.803   4.878   3.893  0.3052  0.4257 -0.1215
  457MOL0     C62960   9.922   4.880   3.814  0.0791  1.1088 -0.0698
  457MOL0     C62961  10.049   4.849   3.861 -0.5848  0.1792 -0.5679
  457MOL0     C62962  10.139   4.843   3.763 -0.2194  0.4582  0.0124
  457MOL0     C62963  10.120   4.864   3.626 -0.6922  0.0480  0.5936
  457MOL0     O62964  10.229   4.880   3.544 -0.5233  0.7183  0.4746
  457MOL0     C62965  10.319   4.765   3.540 -0.3066  0.1422 -0.2539
  457MOL0     C62966  10.256   4.636   3.491  0.3988  0.7701  0.1305
  457MOL0     C62967  10.178   4.662   3.359 -1.0570 -0.2684  0.3663
  457MOL0     C62968  10.263   4.719   3.245  0.5710 -0.0631  0.0049
  457MOL0     C62969  10.219   4.861   3.214  0.5183  0.3530  0.4380
  457MOL0     C62970  10.292   4.912   3.091 -0.2797 -0.2360  0.1433
  457MOL0     C62971  10.234   5.039   3.033 -0.3967  0.0072  0.1727
  457MOL0     C62972  10.254   5.037   2.880  1.0675 -0.7453  0.9432
  457MOL0    Cl62973  10.187   4.893   2.798 -0.0560 -0.2620  0.4310
  457MOL0     C62974   9.996   4.906   3.589  0.3916  1.0854  0.3001
  457MOL0     C62975   9.896   4.907   3.682 -0.4034  0.7603 -0.0336
  457MOL0     O62976   9.803   4.658   3.948 -1.0478 -0.2230  0.4443
  457MOL0     C62977   9.690   4.935   4.142  0.6537  0.4552  0.0871
  457MOL0     C62978   9.597   4.979   4.236  0.7448  0.8759 -0.0985
  457MOL0     N62979   9.474   5.236   4.910  0.0441 -0.6614 -0.2282
  457MOL0     N62980   9.567   5.266   4.983 -1.3561 -0.6458 -0.3929
  457MOL0     C62981  10.273   5.052   4.219  0.6569  0.2231  0.2199
  457MOL0     C62982  10.343   5.014   4.102 -0.3304 -0.6467  0.6446
  457MOL0     C62983  10.663   4.878   3.805 -0.1038 -0.3431 -0.6153
  457MOL0     C62984  10.618   4.978   3.710  0.2989 -0.2687 -1.1830
  457MOL0     C62985  10.645   4.978   3.576 -0.5180 -0.2374  0.1459
  457MOL0     C62986  10.726   4.874   3.524 -0.9717  0.4492  0.0542
  457MOL0     O62987  10.763   4.866   3.391  0.8395  0.5189 -0.6361
  457MOL0     C62988  10.664   4.909   3.297  0.0642 -0.1726 -0.3554
  457MOL0     C62989  10.720   4.914   3.158  0.8571 -0.2902  0.1385
  457MOL0     C62990  10.761   4.774   3.095 -0.1284  0.6463  0.3461
  457MOL0     C62991  10.647   4.663   3.101 -0.8219  0.4712 -0.1255
  457MOL0     C62992  10.680   4.532   3.037  0.1226 -0.2569 -0.5101
  457MOL0     C62993  10.725   4.435   2.979 -0.5326 -0.7468 -0.1380
  457MOL0     C62994  10.775   4.773   3.615 -0.4873  0.1201 -0.5347
  457MOL0     C62995  10.744   4.777   3.753 -0.6757 -0.3120 -0.6327
  457MOL0     C62996  10.786   4.661   3.835  0.1298  0.9808 -0.8043
  457MOL0     H62997  10.670   5.021   4.228 -0.5097  0.4524 -0.1419
  457MOL0     H62998  10.536   5.110   4.419 -1.7302  2.1640 -0.2823
  457MOL0     H62999  10.423   5.198   4.563  0.8894 -1.1168 -1.7474
  457MOL0     H63000  10.389   5.030   4.608 -0.1190 -1.1086 -1.5467
  457MOL0     H63001  10.155   5.228   4.621  0.9759 -0.8150 -1.7526
  457MOL0     H63002  10.186   5.094   4.727  2.3849  0.5912  1.4324
  457MOL0     H63003  10.363   5.235   4.845  1.1862  1.0327 -1.1431
  457MOL0     H63004  10.312   5.370   4.746  1.7406  0.5054  2.2092
  457MOL0     H63005  10.151   5.386   4.940  1.5753 -1.5543  2.4376
  457MOL0     H63006  10.059   5.288   4.818 -3.7264 -0.0902  2.9531
  457MOL0     H63007  10.238   5.177   5.043 -1.5833 -1.0927  2.5049
  457MOL0     H63008  10.134   5.085   4.937  1.1654  0.0370 -1.1576
  457MOL0     H63009  10.020   5.112   5.146 -3.4342  0.4398  0.8888
  457MOL0     H63010  10.027   5.286   5.144  2.9992 -0.0673 -0.9412
  457MOL0     H63011   9.883   5.113   4.924 -4.0981  1.5257 -1.5340
  457MOL0     H63012   9.865   5.283   4.931 -0.9359  0.0153  1.1005
  457MOL0     H63013   9.766   5.040   5.121 -3.5329  0.1082 -0.5414
  457MOL0     H63014   9.761   5.208   5.167  0.9538 -0.4184  0.5146
  457MOL0     H63015   9.618   4.944   4.945  0.0392  0.5037 -0.0490
  457MOL0     H63016   9.255   5.085   4.819 -1.0265 -1.1290 -0.3649
  457MOL0     H63017   9.316   4.938   4.862 -2.6749  1.3200 -0.7112
  457MOL0     H63018   9.406   5.106   4.626  0.8658 -0.8299 -1.1141
  457MOL0     H63019   9.473   4.953   4.652  1.9837  4.0663 -1.6160
  457MOL0     H63020   9.222   4.850   4.647  1.2120 -0.0998 -0.2575
  457MOL0     H63021   9.190   4.998   4.557 -1.4293  0.9234  1.5020
  457MOL0     H63022   9.401   4.789   4.501 -1.1207 -0.7270 -0.2038
  457MOL0     H63023   9.257   4.821   4.397  1.4460  1.2497 -4.4398
  457MOL0     H63024   9.451   4.677   4.308  2.3640 -1.3071  0.7353
  457MOL0     H63025   9.560   4.516   4.248 -1.3219  2.7355 -0.6715
  457MOL0     H63026   9.731   4.528   4.192  0.7828  1.2832  3.3956
  457MOL0     H63027   9.599   4.526   4.075  1.9714  0.6261 -0.4627
  457MOL0     H63028  10.058   4.842   3.969  0.8903  0.5471 -0.6484
  457MOL0     H63029  10.240   4.832   3.803 -0.8560 -1.3066  1.2359
  457MOL0     H63030  10.402   4.799   3.479  0.2517 -0.2320  0.2834
  457MOL0     H63031  10.363   4.735   3.636 -2.4571 -0.2086  0.6860
  457MOL0     H63032  10.338   4.565   3.484  0.0014  0.4273 -1.5101
  457MOL0     H63033  10.180   4.605   3.564 -0.1578  1.4388 -0.1555
  457MOL0     H63034  10.090   4.726   3.371  0.1354  1.4901  0.2015
  457MOL0     H63035  10.148   4.561   3.331 -2.4762 -0.2005  1.5203
  457MOL0     H63036  10.252   4.658   3.155 -1.3002  2.1467 -1.3560
  457MOL0     H63037  10.370   4.730   3.268  1.6496  1.3510 -4.6233
  457MOL0     H63038  10.111   4.853   3.198  0.6297 -2.7206  0.5306
  457MOL0     H63039  10.234   4.928   3.299 -1.9441  0.8021  0.6165
  457MOL0     H63040  10.300   4.833   3.016 -1.8036 -0.2534 -0.0383
  457MOL0     H63041  10.396   4.927   3.120 -0.0821 -3.0105  1.1750
  457MOL0     H63042  10.274   5.135   3.066  1.2442 -0.5561 -0.0563
  457MOL0     H63043  10.126   5.037   3.050 -0.3745  1.3211  0.5432
  457MOL0     H63044  10.362   5.050   2.868  0.8159  2.1369  1.1101
  457MOL0     H63045  10.197   5.122   2.841  2.0136  0.2218  1.5854
  457MOL0     H63046   9.978   4.935   3.486 -0.1634 -1.7360 -0.4617
  457MOL0     H63047   9.791   4.923   3.661 -1.0071  0.6452  2.5025
  457MOL0     H63048   9.766   5.002   4.102 -0.4957  0.2891 -2.5690
  457MOL0     H63049   9.597   5.084   4.263 -0.2240  0.5587  1.2429
  457MOL0     H63050  10.165   5.041   4.228  0.5540 -3.4937 -2.9107
  457MOL0     H63051  10.287   4.985   4.014  0.8048  1.1043 -0.7267
  457MOL0     H63052  10.549   5.054   3.744 -0.7330 -1.6104 -0.1373
  457MOL0     H63053  10.602   5.063   3.524 -0.7982  0.5518  1.5983
  457MOL0     H63054  10.584   4.837   3.316  0.7162 -1.1190 -1.1367
  457MOL0     H63055  10.633   5.012   3.316 -0.5528  0.1058 -2.5932
  457MOL0     H63056  10.812   4.972   3.170 -0.8145  2.6255 -0.3722
  457MOL0     H63057  10.646   4.950   3.087 -1.6254 -5.6779 -0.5155
  457MOL0     H63058  10.805   4.772   2.995  3.1670 -1.4033  1.6753
  457MOL0     H63059  10.843   4.745   3.161 -0.0164  0.1414 -0.0147
  457MOL0     H63060  10.554   4.701   3.058  1.0596  1.4905 -3.6468
  457MOL0     H63061  10.637   4.632   3.206  2.2860  0.2617  0.2203
  457MOL0     H63062  10.753   4.348   2.923  0.2431  0.6702 -2.0706
  457MOL0     H63063  10.833   4.692   3.572 -0.1713  0.1400 -0.1568
  457MOL0     H63064  10.812   4.573   3.775  0.6070 -0.5209  1.4861
  457MOL0     H63065  10.874   4.675   3.898  0.0840  0.9766 -0.7374
  457MOL0     H63066  10.707   4.630   3.905 -1.7458  3.8545 -1.4696
  458MOL0     O63067   4.907   9.968   6.619  0.2064 -0.6679  0.8799
  458MOL0     C63068   4.884  10.086   6.605  0.0694  0.7728  0.8690
  458MOL0     O63069   4.849  10.174   6.703 -0.4417 -0.0271 -0.1630
  458MOL0     C63070   4.773  10.117   6.804 -1.4133 -0.9898 -0.7337
  458MOL0     C63071   4.652  10.048   6.783 -0.1901 -0.7310 -0.3418
  458MOL0     C63072   4.574  10.016   6.894 -0.4272  0.4538  0.0569
  458MOL0     C63073   4.608  10.054   7.021 -0.6581 -0.4313 -0.5993
  458MOL0     O63074   4.516  10.004   7.122 -0.9264 -0.3378  0.4859
  458MOL0     C63075   4.576   9.924   7.230 -0.4598 -0.7078 -0.4247
  458MOL0     C63076   4.462   9.888   7.330 -0.0730  0.6012 -0.8441
  458MOL0     C63077   4.525   9.816   7.460  0.1223  0.2363 -0.6509
  458MOL0     C63078   4.431   9.825   7.571 -0.1070  1.0440  0.8355
  458MOL0     C63079   4.290   9.757   7.552 -0.1340  0.1619  0.4345
  458MOL0     C63080   4.303   9.603   7.520  1.1154 -0.1217  0.2392
  458MOL0     C63081   4.166   9.543   7.512 -0.0211  0.2258  0.7377
  458MOL0     C63082   4.171   9.398   7.547  0.0267  0.6533 -0.2231
  458MOL0     N63083   4.219   9.315   7.433  0.1774 -0.9094  1.4291
  458MOL0     C63084   4.154   9.242   7.336 -0.3590  0.2973 -0.2493
  458MOL0     C63085   4.253   9.154   7.301 -0.0722 -0.6620 -0.5351
  458MOL0     C63086   4.241   9.055   7.199 -0.4597 -0.5027  0.9098
  458MOL0     C63087   4.161   8.926   7.222  1.0106 -0.7750  0.3068
  458MOL0     C63088   4.181   8.868   7.351 -0.1722  0.0143 -0.3797
  458MOL0     C63089   4.066   8.772   7.382  0.4907 -0.0883 -0.0087
  458MOL0     O63090   3.935   8.836   7.371  0.4994 -0.6477  0.0730
  458MOL0     C63091   3.909   8.957   7.440 -0.3901  0.1944 -0.0404
  458MOL0     C63092   3.925   8.971   7.580 -0.8248  0.9333 -0.6150
  458MOL0     C63093   3.887   9.086   7.649  0.4402 -0.1036  0.9264
  458MOL0     C63094   3.910   9.090   7.796  0.3115  0.0119  0.2153
  458MOL0     C63095   3.826   9.187   7.570  0.2772  0.2566  0.8445
  458MOL0     C63096   3.774   9.316   7.619 -0.3675  0.2195  0.1376
  458MOL0     O63097   3.734   9.417   7.532  0.3538 -0.0345 -0.1075
  458MOL0     C63098   3.747   9.550   7.558  0.2158 -0.1382  0.1141
  458MOL0     C63099   3.838   9.600   7.640 -0.1879  0.4769 -0.1456
  458MOL0     C63100   3.851   9.740   7.662  0.2914  0.4549 -0.1973
  458MOL0     C63101   3.773   9.830   7.590  0.1133  0.3231  0.7414
  458MOL0     O63102   3.782   9.966   7.583 -0.1767 -0.4378 -0.0610
  458MOL0     C63103   3.780  10.041   7.707 -1.7334  0.9114  0.4785
  458MOL0     C63104   3.689  10.165   7.687  0.2370 -0.3689  0.2151
  458MOL0     C63105   3.726  10.289   7.597  0.5167  0.1372 -0.0825
  458MOL0     C63106   3.839  10.373   7.655  0.1473  0.4788 -0.1272
  458MOL0     C63107   3.790  10.458   7.775  0.3869 -0.8366 -0.6530
  458MOL0     C63108   3.737  10.598   7.729 -0.1428  0.3412  0.2548
  458MOL0     C63109   3.665  10.686   7.827 -0.4033  0.7764  0.8776
  458MOL0     C63110   3.755  10.758   7.926  0.0185  0.8169  0.1185
  458MOL0    Cl63111   3.824  10.893   7.841  0.4558  0.0382 -0.3381
  458MOL0     C63112   3.689   9.774   7.499 -0.0316  0.2749 -0.1326
  458MOL0     C63113   3.665   9.640   7.488  0.3631 -0.4659  0.1203
  458MOL0     O63114   3.758   9.327   7.741 -0.5056  0.4852 -0.1254
  458MOL0     C63115   3.805   9.175   7.433  0.1146  0.3716 -0.7580
  458MOL0     C63116   3.851   9.057   7.370 -0.3212 -0.1932 -0.0079
  458MOL0     N63117   4.374   9.196   7.360 -0.4217 -0.6390  0.5811
  458MOL0     N63118   4.353   9.295   7.431 -0.1644 -0.8711  0.1101
  458MOL0     C63119   4.728  10.120   7.048  0.5217  0.4293 -0.5354
  458MOL0     C63120   4.812  10.146   6.931  1.1775 -0.6551 -0.2295
  458MOL0     C63121   4.876  10.143   6.472 -0.0085  0.3588 -0.3513
  458MOL0     C63122   4.788  10.083   6.379 -0.2119 -0.2256  0.5087
  458MOL0     C63123   4.801  10.128   6.250  0.1701 -0.8398 -0.5474
  458MOL0     C63124   4.868  10.244   6.213  0.1247 -0.1046  0.1683
  458MOL0     O63125   4.877  10.308   6.092  0.8892 -0.0851  0.3633
  458MOL0     C63126   4.764  10.291   6.006 -1.2385  0.4707 -0.0591
  458MOL0     C63127   4.805  10.378   5.890  0.2363  0.5486  0.8063
  458MOL0     C63128   4.800  10.524   5.933 -0.0856 -0.5513  0.5913
  458MOL0     C63129   4.828  10.618   5.807 -0.5747 -1.0913 -0.4860
  458MOL0     C63130   4.976  10.610   5.786  0.5318  0.8424  0.2848
  458MOL0     C63131   5.099  10.617   5.770  0.0646  0.6847 -1.0365
  458MOL0     C63132   4.945  10.300   6.310  0.0583  0.0591  1.3765
  458MOL0     C63133   4.952  10.261   6.444  0.3321 -0.7144  0.5100
  458MOL0     C63134   5.047  10.331   6.540  0.2384 -0.3104 -0.1921
  458MOL0     H63135   4.622  10.022   6.682 -2.2581 -2.4964  0.6521
  458MOL0     H63136   4.482   9.958   6.885 -1.2048  1.4586  1.1048
  458MOL0     H63137   4.657   9.973   7.285  0.6910 -0.8431 -1.9572
  458MOL0     H63138   4.620   9.827   7.205 -0.3462 -0.6627 -0.4023
  458MOL0     H63139   4.414   9.975   7.375  1.4023  0.5760  0.9141
  458MOL0     H63140   4.387   9.825   7.283  0.8239 -0.1383 -1.3229
  458MOL0     H63141   4.520   9.709   7.438 -1.5934 -0.3809  2.2482
  458MOL0     H63142   4.625   9.850   7.488  0.7517  0.0270 -2.4563
  458MOL0     H63143   4.485   9.776   7.653  1.7657 -0.6711 -1.2868
  458MOL0     H63144   4.407   9.929   7.595 -1.5665  1.2564 -1.2598
  458MOL0     H63145   4.228   9.796   7.470 -1.9413 -0.9357  1.2119
  458MOL0     H63146   4.240   9.762   7.649 -2.1846  0.4833 -0.5936
  458MOL0     H63147   4.353   9.591   7.423  0.3408  1.9653 -0.4577
  458MOL0     H63148   4.364   9.559   7.600  0.4471 -0.1874  0.7145
  458MOL0     H63149   4.125   9.544   7.411 -2.2452  0.0262  1.5935
  458MOL0     H63150   4.096   9.585   7.585 -0.9049  4.6944 -2.2552
  458MOL0     H63151   4.243   9.369   7.624  0.5960 -2.7653 -1.8670
  458MOL0     H63152   4.067   9.371   7.568  0.0090 -0.2899 -1.4179
  458MOL0     H63153   4.051   9.243   7.304 -1.8736 -2.2052  3.7579
  458MOL0     H63154   4.341   9.014   7.186 -0.5508 -1.5159  3.0277
  458MOL0     H63155   4.207   9.098   7.104 -3.6210  0.4205  2.3273
  458MOL0     H63156   4.055   8.945   7.206 -0.1796 -5.4052  1.1465
  458MOL0     H63157   4.202   8.854   7.151  0.1447 -2.8765  1.8335
  458MOL0     H63158   4.276   8.816   7.365 -1.0727 -1.8791 -0.9681
  458MOL0     H63159   4.175   8.939   7.434  1.4435  0.0935 -0.2835
  458MOL0     H63160   4.081   8.691   7.310  2.8755  1.9196 -1.9455
  458MOL0     H63161   4.070   8.722   7.479  0.3871  0.0169  0.0500
  458MOL0     H63162   3.976   8.890   7.631 -0.9217  1.6479  0.6516
  458MOL0     H63163   3.813   9.078   7.844  1.3942  0.0510  2.5413
  458MOL0     H63164   3.958   9.175   7.845 -1.6877  0.8397  0.8355
  458MOL0     H63165   3.960   8.997   7.824 -1.5741 -1.4375 -0.9888
  458MOL0     H63166   3.905   9.529   7.688 -2.1121 -1.9801 -0.8758
  458MOL0     H63167   3.931   9.789   7.716  1.2190  0.8265 -1.8183
  458MOL0     H63168   3.745   9.980   7.791  4.7527  0.1495  3.2747
  458MOL0     H63169   3.885  10.063   7.728 -1.6550  0.7029  0.3132
  458MOL0     H63170   3.588  10.134   7.657 -0.2835  2.3535 -1.1196
  458MOL0     H63171   3.671  10.193   7.791 -0.5854  0.7800 -0.2153
  458MOL0     H63172   3.641  10.357   7.606  1.1735  0.8642  0.8239
  458MOL0     H63173   3.747  10.243   7.500 -1.3166 -1.3942  0.1880
  458MOL0     H63174   3.890  10.436   7.581  0.7214 -0.3523 -0.4541
  458MOL0     H63175   3.915  10.302   7.688 -0.4509  1.4112  3.7021
  458MOL0     H63176   3.709  10.408   7.829  0.1457  1.8496  1.6698
  458MOL0     H63177   3.873  10.457   7.846  1.0501 -1.7947 -1.4206
  458MOL0     H63178   3.664  10.586   7.649 -1.4385 -0.5203  1.5023
  458MOL0     H63179   3.824  10.649   7.687 -0.5546 -0.6962 -1.9478
  458MOL0     H63180   3.586  10.624   7.870 -1.5761 -0.2866 -2.4989
  458MOL0     H63181   3.602  10.759   7.775 -0.1634 -1.1251 -2.3832
  458MOL0     H63182   3.835  10.693   7.962  1.0447  2.0782  0.1794
  458MOL0     H63183   3.694  10.793   8.011 -0.3416 -0.7824  0.5453
  458MOL0     H63184   3.657   9.842   7.421 -1.7420  0.0937  0.3735
  458MOL0     H63185   3.592   9.607   7.416  0.3873  0.3436 -0.2811
  458MOL0     H63186   3.753   9.257   7.385 -1.9055  1.7140  3.2300
  458MOL0     H63187   3.838   9.040   7.263  0.5271  2.4309 -0.6021
  458MOL0     H63188   4.767  10.137   7.147  2.6785 -1.1898 -1.0392
  458MOL0     H63189   4.903  10.201   6.949  0.3924  1.1453 -1.3938
  458MOL0     H63190   4.742   9.986   6.391 -1.2694  0.3151  1.0259
  458MOL0     H63191   4.744  10.069   6.179 -0.0704 -5.0286  2.7216
  458MOL0     H63192   4.757  10.190   5.964  0.8895  0.9393 -1.7784
  458MOL0     H63193   4.670  10.327   6.048 -0.0869  3.9900 -0.1399
  458MOL0     H63194   4.720  10.356   5.824 -1.2102  0.3220  2.6726
  458MOL0     H63195   4.902  10.349   5.848  1.1025  2.8146  1.1391
  458MOL0     H63196   4.702  10.547   5.976 -0.7334  0.3488 -1.2721
  458MOL0     H63197   4.875  10.540   6.011 -0.0349 -0.1207  0.4599
  458MOL0     H63198   4.799  10.719   5.837 -0.6013 -0.5082 -2.2931
  458MOL0     H63199   4.760  10.598   5.724 -2.1756 -0.7447  0.7111
  458MOL0     H63200   5.205  10.620   5.757  0.0046 -2.1354 -3.0196
  458MOL0     H63201   4.993  10.388   6.268  1.9131 -1.7418 -0.5485
  458MOL0     H63202   4.986  10.400   6.600 -1.2982 -3.3250  1.9967
  458MOL0     H63203   5.094  10.255   6.603  0.5800  0.0708  0.0202
  458MOL0     H63204   5.123  10.389   6.486 -0.2975 -1.2456 -2.0314
  459MOL0     O63205   9.848  10.896   9.392 -0.0937 -0.3568  0.3144
  459MOL0     C63206   9.869  10.796   9.326  0.2183  0.0980  0.9360
  459MOL0     O63207   9.808  10.760   9.214  0.3164 -0.3205 -0.4000
  459MOL0     C63208   9.701  10.820   9.169 -0.0141  0.1126  1.0088
  459MOL0     C63209   9.700  10.856   9.031  0.3278  0.1370 -0.9421
  459MOL0     C63210   9.585  10.920   8.978  0.2360 -0.4824 -0.4832
  459MOL0     C63211   9.472  10.933   9.053 -0.2453  0.3539  0.1936
  459MOL0     O63212   9.365  10.971   8.983  0.1967  0.6355  0.2694
  459MOL0     C63213   9.245  10.885   8.993  0.0608 -0.4440 -0.2995
  459MOL0     C63214   9.140  10.900   8.883  0.6821 -0.7250  0.2837
  459MOL0     C63215   9.168  10.797   8.771  0.1840 -0.6803  0.3867
  459MOL0     C63216   9.300  10.817   8.707  0.0127  0.0579  0.2624
  459MOL0     C63217   9.338  10.699   8.611 -0.7489  1.2525 -1.4846
  459MOL0     C63218   9.269  10.703   8.472  0.7939  0.3038  0.2724
  459MOL0     C63219   9.292  10.835   8.384 -0.1109  0.4259 -0.9266
  459MOL0     C63220   9.243  10.834   8.234  0.0935 -0.6739  0.7946
  459MOL0     N63221   9.100  10.817   8.221 -0.3271  0.0935 -0.4761
  459MOL0     C63222   9.018  10.722   8.272 -0.0638 -0.6951 -0.8289
  459MOL0     C63223   8.896  10.758   8.231 -0.4341  1.5815  0.4881
  459MOL0     C63224   8.787  10.674   8.257  0.3718  0.1930 -0.0365
  459MOL0     C63225   8.707  10.715   8.384 -0.2010 -0.5439  0.2104
  459MOL0     C63226   8.624  10.846   8.354 -0.0173 -1.1270 -0.1227
  459MOL0     C63227   8.499  10.861   8.448 -0.9716  0.0543  0.6201
  459MOL0     O63228   8.435  10.730   8.462  1.0291  0.2513  0.4665
  459MOL0     C63229   8.341  10.711   8.560  0.1380 -0.3079  1.4771
  459MOL0     C63230   8.301  10.581   8.574 -0.4321 -0.0527 -0.5757
  459MOL0     C63231   8.200  10.535   8.662 -0.1374  0.4439  0.3207
  459MOL0     C63232   8.175  10.391   8.645 -0.6139  0.2838 -0.2518
  459MOL0     C63233   8.141  10.630   8.749  0.3777  0.8396 -0.3493
  459MOL0     C63234   8.032  10.598   8.835  1.1456 -0.1483 -0.4743
  459MOL0     O63235   7.986  10.471   8.847 -0.7136 -0.2803 -0.0464
  459MOL0     C63236   7.933  10.422   8.962  0.7557 -0.5621  0.0249
  459MOL0     C63237   7.986  10.300   9.009  0.4085  0.4199  0.5800
  459MOL0     C63238   7.945  10.256   9.138  0.3607  0.9007  0.0203
  459MOL0     C63239   7.846  10.328   9.217  0.0439 -0.5133 -0.5064
  459MOL0     O63240   7.801  10.288   9.332  0.3708  0.8510 -0.1706
  459MOL0     C63241   7.750  10.158   9.350 -0.7093  0.5674  0.6411
  459MOL0     C63242   7.639  10.184   9.444  0.4284  0.3882  0.1526
  459MOL0     C63243   7.584  10.054   9.497  0.3339  0.0807 -0.9105
  459MOL0     C63244   7.671   9.954   9.575  0.3793 -1.4771  0.6973
  459MOL0     C63245   7.577   9.857   9.655  1.0756 -0.3396  0.8531
  459MOL0     C63246   7.668   9.752   9.722  0.1449 -0.1222 -0.1429
  459MOL0     C63247   7.590   9.688   9.835 -0.2470 -0.2930 -0.2504
  459MOL0     C63248   7.488   9.586   9.793  0.0727  0.2924  1.0148
  459MOL0    Cl63249   7.341   9.674   9.757  0.1002  0.1156 -0.2036
  459MOL0     C63250   7.793  10.446   9.158  0.2333 -0.1242  0.6155
  459MOL0     C63251   7.832  10.481   9.034 -0.2380  0.3208 -0.4427
  459MOL0     O63252   7.985  10.688   8.910 -0.3207 -0.4622 -0.5505
  459MOL0     C63253   8.199  10.760   8.741  0.6733 -1.0907  0.0692
  459MOL0     C63254   8.285  10.801   8.651 -0.3846  0.0991  0.8522
  459MOL0     N63255   8.898  10.878   8.161  0.4398 -0.1906  0.0119
  459MOL0     N63256   9.023  10.895   8.144 -0.0787  1.2377  0.2479
  459MOL0     C63257   9.474  10.893   9.180  0.7937  0.2899 -0.5431
  459MOL0     C63258   9.584  10.842   9.240  0.7002 -0.2481  1.1408
  459MOL0     C63259   9.979  10.709   9.372 -0.3320 -0.1290  0.4713
  459MOL0     C63260   9.960  10.574   9.333 -0.3702 -0.4990 -1.3419
  459MOL0     C63261  10.058  10.481   9.375 -0.6021 -0.1440 -0.1399
  459MOL0     C63262  10.178  10.524   9.433  1.2884  0.1685 -0.4559
  459MOL0     O63263  10.272  10.442   9.469 -0.4401 -0.0315  0.7167
  459MOL0     C63264  10.362  10.396   9.363  0.0533 -0.1549 -0.2468
  459MOL0     C63265  10.497  10.347   9.430 -0.5762  0.3801  0.0670
  459MOL0     C63266  10.579  10.451   9.524  0.5028  0.1353 -0.1113
  459MOL0     C63267  10.727  10.403   9.565  0.7199  0.0171  0.5349
  459MOL0     C63268  10.726  10.372   9.705  0.0675 -0.5958 -0.3724
  459MOL0     C63269  10.715  10.338   9.818 -0.1558 -0.3228 -0.6476
  459MOL0     C63270  10.199  10.659   9.463  0.3280  0.7929 -0.4872
  459MOL0     C63271  10.104  10.756   9.433  0.0351  0.5367 -0.2404
  459MOL0     C63272  10.139  10.900   9.449  0.2039  0.0070 -0.4286
  459MOL0     H63273   9.778  10.825   8.963 -1.5519 -4.6559 -1.3294
  459MOL0     H63274   9.576  10.937   8.871 -0.4407  2.4513 -0.0510
  459MOL0     H63275   9.195  10.910   9.087  0.4923  2.5123 -0.7680
  459MOL0     H63276   9.280  10.781   8.997  1.3487  0.0056  1.7978
  459MOL0     H63277   9.035  10.908   8.911  0.6527  2.2748 -0.4292
  459MOL0     H63278   9.155  11.002   8.847  0.4051 -0.7715  0.0295
  459MOL0     H63279   9.173  10.696   8.813  3.0507 -0.3657  1.0455
  459MOL0     H63280   9.094  10.794   8.692  0.1289 -2.0611  0.4591
  459MOL0     H63281   9.301  10.910   8.649 -1.1176 -1.6912 -2.8365
  459MOL0     H63282   9.374  10.809   8.787 -1.5110  0.2572  1.7471
  459MOL0     H63283   9.326  10.597   8.648  2.7940  0.4359 -2.2225
  459MOL0     H63284   9.447  10.705   8.601 -0.0012 -2.1933  2.0882
  459MOL0     H63285   9.298  10.627   8.400 -2.2555  0.1524 -0.9735
  459MOL0     H63286   9.163  10.678   8.488  0.5398  1.3296  0.3055
  459MOL0     H63287   9.400  10.855   8.389 -0.5999  3.1805  2.7684
  459MOL0     H63288   9.247  10.925   8.427 -0.1578  1.5035 -3.0950
  459MOL0     H63289   9.274  10.931   8.195  2.8356 -2.6842 -2.6207
  459MOL0     H63290   9.273  10.754   8.165 -1.1903 -0.8779  0.4583
  459MOL0     H63291   9.045  10.629   8.323  1.6993  1.3284  2.2705
  459MOL0     H63292   8.813  10.570   8.277  2.1242 -0.3735 -4.2365
  459MOL0     H63293   8.720  10.664   8.171  0.1641  2.8582 -0.2758
  459MOL0     H63294   8.651  10.628   8.421  1.3053 -2.6740 -2.1765
  459MOL0     H63295   8.783  10.734   8.460  3.4971 -3.6804 -2.3005
  459MOL0     H63296   8.686  10.936   8.355  0.0780 -1.1938 -0.0085
  459MOL0     H63297   8.602  10.837   8.247 -1.1163  2.7882 -0.3765
  459MOL0     H63298   8.524  10.896   8.549 -1.3024  2.9114 -0.2150
  459MOL0     H63299   8.432  10.936   8.405 -0.4126 -0.0015 -0.3745
  459MOL0     H63300   8.346  10.514   8.502 -1.5045  0.3981 -1.7017
  459MOL0     H63301   8.243  10.346   8.572 -0.0067  0.6811  0.0571
  459MOL0     H63302   8.074  10.375   8.607 -0.2112 -1.1119 -0.7950
  459MOL0     H63303   8.184  10.344   8.743 -1.2277 -0.4011 -0.5130
  459MOL0     H63304   8.058  10.242   8.952 -2.1767  0.4346 -3.0526
  459MOL0     H63305   7.993  10.174   9.192  0.8174  0.9441 -0.3141
  459MOL0     H63306   7.712  10.109   9.259 -0.8814  0.2365  0.8893
  459MOL0     H63307   7.830  10.087   9.372 -0.5744  0.3666 -0.4403
  459MOL0     H63308   7.672  10.247   9.527 -0.6630  0.8379  0.2518
  459MOL0     H63309   7.558  10.228   9.386  0.7836 -4.1917 -4.5926
  459MOL0     H63310   7.540   9.997   9.415  0.8630 -0.1947 -1.0047
  459MOL0     H63311   7.504  10.086   9.566  1.0142 -1.7023  0.8093
  459MOL0     H63312   7.741  10.008   9.640 -0.3626 -1.1469  1.2363
  459MOL0     H63313   7.736   9.896   9.509 -2.1846 -1.8602 -1.6708
  459MOL0     H63314   7.514   9.911   9.725 -1.0813 -3.0838  1.2128
  459MOL0     H63315   7.510   9.802   9.588  3.8923 -2.7563 -0.2193
  459MOL0     H63316   7.751   9.814   9.758 -2.1208  2.0357  1.8305
  459MOL0     H63317   7.710   9.685   9.647 -0.6051  1.8552 -2.4462
  459MOL0     H63318   7.554   9.763   9.906 -0.2713  0.2868 -0.8596
  459MOL0     H63319   7.664   9.639   9.899  0.8221 -1.3162 -2.1589
  459MOL0     H63320   7.467   9.514   9.873 -1.9988  0.6932  0.8944
  459MOL0     H63321   7.531   9.535   9.706 -0.9295  0.1567  0.5794
  459MOL0     H63322   7.712  10.502   9.205 -0.6771 -0.2841 -0.6999
  459MOL0     H63323   7.791  10.570   8.987 -2.7587  1.3353  3.2300
  459MOL0     H63324   8.159  10.846   8.793 -2.2021  0.1315 -3.6753
  459MOL0     H63325   8.323  10.902   8.641  3.1132 -1.1850 -0.8635
  459MOL0     H63326   9.381  10.898   9.237  1.1301  1.4525 -0.0671
  459MOL0     H63327   9.562  10.814   9.342 -3.8268 -0.8829  0.2084
  459MOL0     H63328   9.868  10.544   9.284 -1.7397 -1.4335  1.5465
  459MOL0     H63329  10.048  10.375   9.353 -4.2090  0.8351 -4.7699
  459MOL0     H63330  10.310  10.319   9.305 -2.8033  0.7033  1.0009
  459MOL0     H63331  10.383  10.479   9.295 -0.9552  1.2760  1.1090
  459MOL0     H63332  10.564  10.306   9.355 -1.2391  0.0493 -0.3539
  459MOL0     H63333  10.474  10.257   9.488 -0.8821  0.1017 -0.4744
  459MOL0     H63334  10.580  10.549   9.475  0.4044 -0.0046 -0.3997
  459MOL0     H63335  10.515  10.454   9.612 -0.9501 -1.0356 -1.0681
  459MOL0     H63336  10.802  10.482   9.554  2.7119 -1.8258  0.3005
  459MOL0     H63337  10.749  10.310   9.514  0.9459  0.7752 -0.7838
  459MOL0     H63338  10.726  10.309   9.920  1.6983 -3.0373 -1.4913
  459MOL0     H63339  10.280  10.692   9.527  0.0520 -1.3830  1.1147
  459MOL0     H63340  10.081  10.958   9.378 -1.6116 -1.3126 -0.0993
  459MOL0     H63341  10.108  10.937   9.548  3.0717  0.8188  0.2594
  459MOL0     H63342  10.243  10.932   9.441 -0.4875  2.0438 -1.9451
  460MOL0     O63343   4.260  10.131  11.302 -0.1386  0.8726 -0.4787
  460MOL0     C63344   4.226  10.142  11.421 -0.0521 -0.2244 -0.2865
  460MOL0     O63345   4.197  10.261  11.478  1.1895 -0.1533  0.9275
  460MOL0     C63346   4.175  10.369  11.401  0.3025  0.5081  1.4662
  460MOL0     C63347   4.226  10.486  11.444 -0.7639 -0.3261  0.1295
  460MOL0     C63348   4.183  10.609  11.385 -0.6856 -0.2919 -0.7274
  460MOL0     C63349   4.092  10.611  11.278  0.7448 -0.2186  0.4076
  460MOL0     O63350   4.024  10.726  11.231  0.7124 -0.1908  0.4075
  460MOL0     C63351   4.000  10.836  11.326 -0.0120 -0.6616 -0.3911
  460MOL0     C63352   3.864  10.913  11.303  0.5756  0.4645 -0.0120
  460MOL0     C63353   3.857  11.028  11.416 -0.2119  1.0155  1.2403
  460MOL0     C63354   3.715  11.061  11.436  0.8644 -0.8459 -0.8873
  460MOL0     C63355   3.686  11.212  11.472 -0.1955 -0.3678  0.2940
  460MOL0     C63356   3.756  11.244  11.603 -0.2544  0.4114 -0.0819
  460MOL0     C63357   3.689  11.202  11.736  0.3488 -0.3374  0.3243
  460MOL0     C63358   3.758  11.247  11.866 -0.2801  0.3061  0.4844
  460MOL0     N63359   3.672  11.206  11.980 -1.1133 -0.2106  0.3720
  460MOL0     C63360   3.537  11.226  11.988  0.4050 -0.7265  0.1633
  460MOL0     C63361   3.501  11.196  12.112 -0.9034  0.1798 -0.3746
  460MOL0     C63362   3.371  11.201  12.189 -0.4863 -0.5342  0.7025
  460MOL0     C63363   3.327  11.062  12.242  0.0571 -1.5115 -0.7309
  460MOL0     C63364   3.204  11.070  12.342 -0.3008  0.0431  0.6034
  460MOL0     C63365   3.082  11.144  12.277 -0.0185 -0.4673  0.7998
  460MOL0     O63366   3.029  11.091  12.149 -0.7360  0.0349 -0.7298
  460MOL0     C63367   3.021  10.956  12.135  0.7598  0.2083 -0.8182
  460MOL0     C63368   3.000  10.866  12.248 -0.4745  0.0523 -0.1614
  460MOL0     C63369   2.999  10.722  12.233  0.7676 -0.7809  0.0381
  460MOL0     C63370   2.979  10.642  12.362 -0.2270  0.0576 -0.1522
  460MOL0     C63371   3.012  10.667  12.100 -0.5580 -1.6116  0.1304
  460MOL0     C63372   3.029  10.520  12.076  0.3818 -0.0657 -0.5610
  460MOL0     O63373   3.081  10.490  11.953 -0.3092  0.0939  0.9334
  460MOL0     C63374   3.098  10.361  11.892  0.7925 -0.8544  0.2570
  460MOL0     C63375   3.224  10.310  11.855 -0.3868  0.4637  0.1560
  460MOL0     C63376   3.243  10.182  11.801 -0.3025 -0.5913  0.2222
  460MOL0     C63377   3.134  10.108  11.787  0.3150  0.2620 -0.0913
  460MOL0     O63378   3.163   9.989  11.741  0.5120  0.4436  0.5725
  460MOL0     C63379   3.055   9.889  11.745 -0.5875  0.0696  0.2399
  460MOL0     C63380   3.132   9.752  11.726 -0.1202 -0.4021  0.2719
  460MOL0     C63381   3.043   9.637  11.731  0.3490 -0.5137 -0.2366
  460MOL0     C63382   3.122   9.512  11.703 -0.7344 -1.1271  0.2951
  460MOL0     C63383   3.031   9.394  11.681  0.2772  0.0369  0.9150
  460MOL0     C63384   2.946   9.383  11.555  0.5980  0.1735  0.4398
  460MOL0     C63385   2.855   9.254  11.550 -0.2353  0.2781 -0.2975
  460MOL0     C63386   2.946   9.137  11.500 -0.5716  0.1587  0.1238
  460MOL0    Cl63387   2.994   9.149  11.328 -0.2333 -0.3519 -0.3424
  460MOL0     C63388   3.002  10.158  11.814  1.1504 -0.0885  0.3104
  460MOL0     C63389   2.985  10.284  11.875  0.5159  0.6357 -0.4402
  460MOL0     O63390   3.012  10.438  12.165  0.2292 -0.5178  0.1859
  460MOL0     C63391   3.024  10.759  11.993  0.2558  0.3618 -0.1987
  460MOL0     C63392   3.032  10.897  12.010 -0.2235 -1.0389 -0.0199
  460MOL0     N63393   3.607  11.141  12.176 -1.0303  0.1444 -1.1407
  460MOL0     N63394   3.706  11.145  12.098 -0.8901 -0.2632  0.6252
  460MOL0     C63395   4.037  10.487  11.236  0.9221 -0.8224  0.7205
  460MOL0     C63396   4.082  10.369  11.294 -0.1387 -0.2372 -0.4546
  460MOL0     C63397   4.172  10.023  11.487  0.8685 -0.0102 -0.1310
  460MOL0     C63398   4.036  10.024  11.540  0.2253 -0.3117  0.2997
  460MOL0     C63399   3.974   9.909  11.598 -0.8027 -0.5523 -0.6156
  460MOL0     C63400   4.054   9.797  11.599  0.5506  0.4466  0.2492
  460MOL0     O63401   4.012   9.670  11.642  0.6329 -0.2565 -0.5109
  460MOL0     C63402   3.884   9.659  11.719  0.2090 -0.4254  0.7118
  460MOL0     C63403   3.911   9.677  11.867 -0.6723  0.6270 -0.3294
  460MOL0     C63404   3.993   9.568  11.947  0.2286  0.0935 -0.9311
  460MOL0     C63405   3.934   9.420  11.945 -0.0048 -0.0556  0.3242
  460MOL0     C63406   3.799   9.414  12.016  0.5895 -0.0543  0.5230
  460MOL0     C63407   3.695   9.428  12.074 -0.2200 -0.6808 -0.3375
  460MOL0     C63408   4.178   9.787  11.551 -0.0076  0.5611  0.1173
  460MOL0     C63409   4.239   9.896  11.491  0.0176 -0.5936 -0.0389
  460MOL0     C63410   4.377   9.867  11.436 -0.1547 -0.4419  0.5464
  460MOL0     H63411   4.291  10.478  11.530 -2.9765 -2.5786  1.7004
  460MOL0     H63412   4.240  10.698  11.412 -0.4970  0.6133 -3.6854
  460MOL0     H63413   4.088  10.899  11.316  1.6511 -2.8560 -0.2868
  460MOL0     H63414   3.993  10.796  11.427 -0.2974 -2.9567 -1.2548
  460MOL0     H63415   3.864  10.970  11.210 -0.2983  3.4644  1.6763
  460MOL0     H63416   3.782  10.841  11.303  2.2019 -1.4719 -0.1899
  460MOL0     H63417   3.920  11.002  11.502 -0.7578 -2.8438  0.6632
  460MOL0     H63418   3.913  11.109  11.368  0.0176  0.5083  0.6386
  460MOL0     H63419   3.675  11.053  11.334 -1.0497 -2.0537 -0.0857
  460MOL0     H63420   3.648  10.998  11.494  1.0365  0.1431  0.4287
  460MOL0     H63421   3.580  11.239  11.477  0.1518  1.9275 -2.2515
  460MOL0     H63422   3.739  11.273  11.399  1.8047 -1.8167  0.4522
  460MOL0     H63423   3.852  11.193  11.615  1.7857  4.0902  1.0531
  460MOL0     H63424   3.779  11.351  11.606  0.9188  0.1808  3.0806
  460MOL0     H63425   3.682  11.093  11.737 -2.4654 -0.2718 -0.7472
  460MOL0     H63426   3.592  11.253  11.729 -0.9088 -2.6255 -0.2503
  460MOL0     H63427   3.852  11.192  11.879 -0.3649  0.3693  1.4018
  460MOL0     H63428   3.777  11.354  11.882 -1.4708  0.3006  2.1459
  460MOL0     H63429   3.480  11.274  11.910  0.8577 -0.2210  0.1342
  460MOL0     H63430   3.297  11.259  12.133 -1.7693 -2.9130 -0.2058
  460MOL0     H63431   3.390  11.265  12.275 -0.9949  0.5435  0.0330
  460MOL0     H63432   3.313  10.994  12.157 -0.9063 -2.4273  0.1442
  460MOL0     H63433   3.416  11.017  12.287  0.6916  1.6573  1.5122
  460MOL0     H63434   3.181  10.968  12.374 -1.7510 -0.7595 -2.5939
  460MOL0     H63435   3.236  11.131  12.427  2.9899  1.3134 -1.3565
  460MOL0     H63436   3.003  11.146  12.353  0.6712 -3.4449  1.7077
  460MOL0     H63437   3.108  11.244  12.240 -1.7154 -0.1951  0.2657
  460MOL0     H63438   2.996  10.905  12.349  1.1659  0.2401 -0.1312
  460MOL0     H63439   2.942  10.703  12.445 -2.5900 -0.2153 -0.9407
  460MOL0     H63440   3.071  10.592  12.394 -0.0906  0.4320  0.0456
  460MOL0     H63441   2.894  10.574  12.351  0.1788  0.0158 -4.7467
  460MOL0     H63442   3.307  10.371  11.888 -1.3419  0.8214  2.0605
  460MOL0     H63443   3.341  10.152  11.766  0.7373  2.9919 -0.3285
  460MOL0     H63444   3.004   9.903  11.841 -1.2838 -0.3285 -0.0688
  460MOL0     H63445   2.986   9.890  11.660 -0.6194  3.7717  0.1313
  460MOL0     H63446   3.180   9.752  11.628 -0.9552 -0.3790 -0.1535
  460MOL0     H63447   3.212   9.740  11.799  0.1436 -1.0336 -0.1152
  460MOL0     H63448   2.980   9.636  11.642  3.3405 -1.5848 -2.4992
  460MOL0     H63449   2.996   9.653  11.829  1.3022  0.8120  0.0412
  460MOL0     H63450   3.185   9.496  11.791 -0.8423 -1.1838  0.3625
  460MOL0     H63451   3.194   9.521  11.621  0.8667 -1.1970  1.6304
  460MOL0     H63452   3.104   9.313  11.678  0.8524  0.5697 -0.3750
  460MOL0     H63453   2.980   9.358  11.771  1.0640 -2.0507  0.5751
  460MOL0     H63454   3.011   9.409  11.471 -0.3080  4.0208  0.7548
  460MOL0     H63455   2.882   9.472  11.553  1.4959  0.8633  1.6694
  460MOL0     H63456   2.773   9.254  11.478  0.8229 -0.1200 -1.5367
  460MOL0     H63457   2.813   9.218  11.645  0.0500 -0.2086 -0.3521
  460MOL0     H63458   2.878   9.051  11.506 -0.2900 -0.1669 -0.9491
  460MOL0     H63459   3.027   9.125  11.571 -2.7709  1.0415  2.9597
  460MOL0     H63460   2.909  10.107  11.792  2.2590 -1.3484 -1.8302
  460MOL0     H63461   2.884  10.317  11.897  0.8946  1.0507  0.6799
  460MOL0     H63462   3.019  10.732  11.888  0.1189  2.1345 -0.6829
  460MOL0     H63463   3.031  10.965  11.926 -1.9504 -1.3257 -0.2715
  460MOL0     H63464   3.952  10.501  11.169  1.0032  1.7496  1.0717
  460MOL0     H63465   4.029  10.278  11.267 -4.1912  2.0229 -0.9765
  460MOL0     H63466   3.978  10.116  11.547  1.2838  0.2338  2.7512
  460MOL0     H63467   3.874   9.934  11.631  0.8977  3.7968  2.0291
  460MOL0     H63468   3.812   9.734  11.686 -0.8732 -0.6794  2.3744
  460MOL0     H63469   3.842   9.564  11.686 -1.3429  0.7730 -0.9198
  460MOL0     H63470   3.813   9.671  11.915 -0.7977  1.1618 -0.5129
  460MOL0     H63471   3.962   9.772  11.889 -0.4663  0.2540  0.8660
  460MOL0     H63472   4.094   9.563  11.906 -0.1900  1.6646 -2.3226
  460MOL0     H63473   4.000   9.600  12.051  1.0521  0.7847 -1.1911
  460MOL0     H63474   4.008   9.355  11.991  0.0718  0.8597  1.5407
  460MOL0     H63475   3.928   9.386  11.841 -0.3871  2.0147 -0.3744
  460MOL0     H63476   3.600   9.452  12.118 -0.4442  4.1958 -2.8142
  460MOL0     H63477   4.239   9.697  11.550 -0.4689  0.2335  0.9598
  460MOL0     H63478   4.371   9.847  11.328 -0.0929 -1.1603  0.6728
  460MOL0     H63479   4.449   9.947  11.455 -1.1845  0.9870 -1.1741
  460MOL0     H63480   4.420   9.773  11.472  1.5251  0.4912  1.0802
  461MOL0     O63481  10.593   7.247   2.681  0.0454 -0.3216 -0.1814
  461MOL0     C63482  10.590   7.298   2.788  0.1004 -0.8826 -0.7405
  461MOL0     O63483  10.626   7.431   2.814 -0.2066 -0.5773  0.4884
  461MOL0     C63484  10.692   7.503   2.721 -0.2941 -0.7209 -0.2961
  461MOL0     C63485  10.832   7.479   2.703  0.5359  0.6500 -0.6976
  461MOL0     C63486  10.917   7.544   2.600  0.3963 -0.6990 -0.4057
  461MOL0     C63487  10.854   7.649   2.531 -0.5564 -0.4433 -0.4233
  461MOL0     O63488  10.936   7.702   2.437 -0.5380  0.6545 -0.0180
  461MOL0     C63489  10.897   7.826   2.377  0.2473 -0.2675 -0.3282
  461MOL0     C63490  11.028   7.880   2.316 -0.0170  0.4257  1.2222
  461MOL0     C63491  11.005   8.020   2.257 -0.4658  0.1071  0.3903
  461MOL0     C63492  11.127   8.052   2.181  0.4507  0.1256 -0.1544
  461MOL0     C63493  11.136   8.199   2.159  0.6598  1.2628  0.2182
  461MOL0     C63494  11.231   8.234   2.041 -0.0008 -0.4551  0.6019
  461MOL0     C63495  11.237   8.381   1.985  0.4711 -0.3392  0.6506
  461MOL0     C63496  11.290   8.479   2.090  0.1534  0.3320 -0.2726
  461MOL0     N63497  11.181   8.529   2.176 -0.4498  0.4520 -0.0024
  461MOL0     C63498  11.083   8.607   2.125 -0.2176 -0.5265 -0.0288
  461MOL0     C63499  11.008   8.629   2.232 -0.7964 -0.3626 -0.1098
  461MOL0     C63500  10.891   8.731   2.243 -0.1467 -0.4016 -1.2185
  461MOL0     C63501  10.933   8.882   2.234 -0.1731  1.0784 -0.3378
  461MOL0     C63502  10.998   8.930   2.362 -0.4159  0.0435  0.6689
  461MOL0     C63503  11.075   9.062   2.330  0.2471  0.5451  0.2221
  461MOL0     O63504  11.152   9.106   2.444 -0.1673  0.2690  0.2969
  461MOL0     C63505  11.097   9.199   2.526  0.9238 -0.5346 -0.6591
  461MOL0     C63506  10.960   9.237   2.535  0.2447 -0.6817 -0.4696
  461MOL0     C63507  10.914   9.339   2.627 -0.8943  0.1895  1.1887
  461MOL0     C63508  10.766   9.360   2.624 -0.1506  0.2736  0.4340
  461MOL0     C63509  11.015   9.398   2.713 -0.2145 -0.3985 -1.1058
  461MOL0     C63510  10.987   9.492   2.834  0.7686 -0.0565 -0.4662
  461MOL0     O63511  10.911   9.599   2.803 -0.6014 -0.1807  0.0895
  461MOL0     C63512  10.861   9.686   2.892  0.0455 -0.1249 -0.0803
  461MOL0     C63513  10.928   9.802   2.931 -0.0297  0.0697  0.0890
  461MOL0     C63514  10.869   9.888   3.022  1.0912 -0.2823 -0.9059
  461MOL0     C63515  10.734   9.855   3.077 -0.4791 -0.0164  0.0483
  461MOL0     O63516  10.678   9.950   3.159 -0.1555 -0.0629 -0.1780
  461MOL0     C63517  10.570   9.917   3.239 -0.1006  0.3036 -0.0475
  461MOL0     C63518  10.600   9.963   3.379  0.4161 -0.2170  0.5729
  461MOL0     C63519  10.495   9.909   3.477 -0.1273  1.1598 -0.7328
  461MOL0     C63520  10.351   9.967   3.463  0.1236 -0.2855  0.6672
  461MOL0     C63521  10.243   9.892   3.530 -0.1752 -0.6041 -0.2476
  461MOL0     C63522  10.138   9.994   3.591  0.4895 -0.5611 -0.3667
  461MOL0     C63523  10.057  10.058   3.479 -0.5932  0.3135  0.9578
  461MOL0     C63524   9.949  10.147   3.527 -0.0191 -0.1106 -0.0945
  461MOL0    Cl63525   9.862  10.198   3.388 -0.0966  0.7255 -0.2623
  461MOL0     C63526  10.674   9.738   3.024  0.6607  0.6491  0.1303
  461MOL0     C63527  10.739   9.653   2.935 -0.6530 -0.8586 -0.0415
  461MOL0     O63528  11.020   9.459   2.953 -0.4265  0.1392  0.0728
  461MOL0     C63529  11.148   9.360   2.712 -0.8319  0.6120  0.2678
  461MOL0     C63530  11.184   9.262   2.617 -0.3284 -0.2786 -0.2142
  461MOL0     N63531  11.059   8.565   2.345  0.2252 -0.3656  0.3354
  461MOL0     N63532  11.163   8.504   2.306  0.3802 -0.0477 -0.6655
  461MOL0     C63533  10.714   7.673   2.542  0.7819 -0.0158 -0.5389
  461MOL0     C63534  10.629   7.603   2.637 -0.4191 -0.3022  0.0713
  461MOL0     C63535  10.547   7.227   2.909  0.8828 -0.7773 -0.3310
  461MOL0     C63536  10.570   7.290   3.035 -0.1054  0.0063 -0.0681
  461MOL0     C63537  10.518   7.231   3.159  0.4064 -0.4405  0.4161
  461MOL0     C63538  10.438   7.117   3.164  0.8097 -0.0939  0.4763
  461MOL0     O63539  10.392   7.058   3.282  0.2302  0.0427 -0.6559
  461MOL0     C63540  10.253   7.036   3.316  0.5723  0.0301 -0.3793
  461MOL0     C63541  10.208   7.183   3.360  0.9299  0.3193 -0.2458
  461MOL0     C63542  10.061   7.183   3.416  0.3461 -0.3491 -0.0154
  461MOL0     C63543  10.020   7.070   3.509 -0.4194  0.3862 -0.2255
  461MOL0     C63544   9.909   7.099   3.597 -0.4251  0.7491 -0.3198
  461MOL0     C63545   9.827   7.154   3.663 -0.1675 -0.1721 -0.3128
  461MOL0     C63546  10.416   7.054   3.041  0.9622  0.3965  0.1322
  461MOL0     C63547  10.464   7.108   2.918  0.2079 -0.1221  0.0357
  461MOL0     C63548  10.439   7.029   2.793  1.3609  0.9014  0.3865
  461MOL0     H63549  10.872   7.403   2.770 -0.8813  2.0660  1.8892
  461MOL0     H63550  11.018   7.516   2.571  0.3874  0.6364 -1.8393
  461MOL0     H63551  10.869   7.897   2.455  0.2705  1.0092 -1.4565
  461MOL0     H63552  10.824   7.805   2.299  1.8603 -1.9780 -1.4874
  461MOL0     H63553  11.112   7.876   2.386  0.5236 -1.2255  0.5381
  461MOL0     H63554  11.051   7.802   2.244 -0.7599  0.2048  1.2182
  461MOL0     H63555  10.917   8.015   2.192 -0.8891  1.2541  0.8541
  461MOL0     H63556  10.987   8.095   2.334  1.0942  1.9542 -0.9410
  461MOL0     H63557  11.219   8.023   2.232 -0.4702  0.0445  1.5202
  461MOL0     H63558  11.128   8.006   2.081 -4.7342  1.9684 -1.3524
  461MOL0     H63559  11.163   8.247   2.253  2.0852 -0.6314  0.8548
  461MOL0     H63560  11.041   8.231   2.115 -0.1857 -0.3246  0.8038
  461MOL0     H63561  11.330   8.205   2.079  2.7014  1.4141 -4.1620
  461MOL0     H63562  11.215   8.159   1.963  1.3851 -1.6948  1.4460
  461MOL0     H63563  11.140   8.404   1.941  1.7225  0.3220 -1.9605
  461MOL0     H63564  11.302   8.375   1.897 -1.0500 -0.0235 -0.5286
  461MOL0     H63565  11.369   8.438   2.153 -0.3583 -0.6520 -0.2516
  461MOL0     H63566  11.342   8.564   2.045  1.6050  0.3077  1.2532
  461MOL0     H63567  11.075   8.639   2.021  1.1357 -3.0116 -0.9940
  461MOL0     H63568  10.845   8.723   2.341 -0.8898 -0.7172 -1.5852
  461MOL0     H63569  10.804   8.709   2.181 -0.1801 -0.7587 -1.0440
  461MOL0     H63570  11.006   8.892   2.152 -0.3107 -1.2972 -0.8203
  461MOL0     H63571  10.842   8.935   2.205 -1.8232 -2.1833 -1.5112
  461MOL0     H63572  10.931   8.943   2.448 -0.4716  1.3280  0.4533
  461MOL0     H63573  11.072   8.866   2.411 -0.1610  1.8390  2.8293
  461MOL0     H63574  11.153   9.034   2.258  2.5300 -1.7438  3.2887
  461MOL0     H63575  11.021   9.149   2.291 -0.9148 -0.3897 -0.2771
  461MOL0     H63576  10.894   9.179   2.472  0.4319  0.5433 -1.8655
  461MOL0     H63577  10.747   9.465   2.599  0.1296  0.2997  0.3244
  461MOL0     H63578  10.718   9.336   2.719 -0.1929 -0.2283  0.2873
  461MOL0     H63579  10.728   9.292   2.548 -2.4805  1.8316  0.1037
  461MOL0     H63580  11.007   9.844   2.870 -1.6306  3.8619  0.3375
  461MOL0     H63581  10.928   9.978   3.038  0.6912  0.2440 -2.2936
  461MOL0     H63582  10.482   9.973   3.205 -2.6411 -1.7631  2.5778
  461MOL0     H63583  10.540   9.812   3.241  2.2275 -0.4120  1.0333
  461MOL0     H63584  10.695   9.919   3.412 -0.3324 -1.5269  1.0503
  461MOL0     H63585  10.606  10.071   3.390 -3.3902 -0.1568  4.1273
  461MOL0     H63586  10.524   9.936   3.580 -1.5854  0.6589 -0.1714
  461MOL0     H63587  10.487   9.801   3.462  0.0925  0.5207  2.8174
  461MOL0     H63588  10.317   9.969   3.360  0.1117 -0.6128  0.6646
  461MOL0     H63589  10.354  10.073   3.489 -2.0322 -0.7409  3.2057
  461MOL0     H63590  10.204   9.815   3.463  1.7685 -0.4016 -1.7096
  461MOL0     H63591  10.292   9.835   3.610  2.2382  1.5142 -0.0707
  461MOL0     H63592  10.192  10.076   3.640  0.1264  1.1650 -2.6724
  461MOL0     H63593  10.070   9.935   3.652 -0.1858 -0.0495 -0.6051
  461MOL0     H63594  10.005   9.976   3.428  0.5264 -1.3357  2.3579
  461MOL0     H63595  10.118  10.108   3.403 -1.3481 -0.5702 -0.2649
  461MOL0     H63596   9.989  10.230   3.586 -0.8946 -0.0561  0.4369
  461MOL0     H63597   9.882  10.102   3.601  0.2931  2.9397  2.2139
  461MOL0     H63598  10.572   9.716   3.056  1.5782 -0.2716  2.6476
  461MOL0     H63599  10.692   9.568   2.887  0.4161 -0.7009 -1.4037
  461MOL0     H63600  11.219   9.412   2.775  2.0042 -1.0141 -1.3638
  461MOL0     H63601  11.286   9.227   2.614 -0.1596  0.1617  0.1941
  461MOL0     H63602  10.669   7.738   2.468  2.8446  2.9590  0.6513
  461MOL0     H63603  10.522   7.624   2.634 -0.7543 -1.6807 -4.2077
  461MOL0     H63604  10.624   7.384   3.044  0.6746 -0.4053 -0.4111
  461MOL0     H63605  10.522   7.286   3.252 -0.8763  0.3735  0.0114
  461MOL0     H63606  10.185   7.002   3.237  1.0483 -0.7214 -0.4666
  461MOL0     H63607  10.247   6.963   3.397 -0.8285  1.9998  1.4025
  461MOL0     H63608  10.200   7.251   3.275 -1.7795  0.4006 -0.0140
  461MOL0     H63609  10.277   7.219   3.437 -0.9070 -0.3496  1.8252
  461MOL0     H63610  10.053   7.286   3.451 -1.7389  0.0732 -1.5092
  461MOL0     H63611   9.981   7.179   3.340  1.3961  0.1635 -1.1772
  461MOL0     H63612  10.099   7.043   3.579 -1.1932  0.5757  0.7408
  461MOL0     H63613  10.005   6.981   3.446 -0.3507  0.7686 -0.7911
  461MOL0     H63614   9.759   7.209   3.725 -0.9731  0.6002 -1.8206
  461MOL0     H63615  10.355   6.964   3.043 -0.2039  1.1876  0.8343
  461MOL0     H63616  10.391   7.086   2.714 -2.4598 -0.6993  1.3485
  461MOL0     H63617  10.538   6.992   2.765 -0.2426 -1.7998 -2.3365
  461MOL0     H63618  10.373   6.944   2.812 -1.5312  2.4975 -1.8571
  462MOL0     O63619   9.320   8.443   6.173 -0.0408 -0.6644  0.0489
  462MOL0     C63620   9.309   8.422   6.054  0.1539 -0.9135  0.0778
  462MOL0     O63621   9.194   8.371   5.991  0.7705 -0.3749 -0.3403
  462MOL0     C63622   9.087   8.337   6.073 -0.6759 -0.9661  0.0376
  462MOL0     C63623   8.998   8.442   6.110 -0.6380  0.3609  0.0103
  462MOL0     C63624   8.893   8.408   6.192 -0.2736  0.3338  0.1193
  462MOL0     C63625   8.869   8.274   6.225 -0.4699 -0.8974 -0.5033
  462MOL0     O63626   8.746   8.233   6.280  0.2735 -0.8247 -0.2699
  462MOL0     C63627   8.658   8.181   6.179 -1.4148 -0.4208 -0.0032
  462MOL0     C63628   8.515   8.197   6.212  0.9986 -0.4531 -0.5909
  462MOL0     C63629   8.453   8.334   6.203  1.3423  0.2653  0.4778
  462MOL0     C63630   8.467   8.399   6.067 -0.1937 -0.0222  0.2587
  462MOL0     C63631   8.361   8.514   6.045  0.5723  0.0168  0.1785
  462MOL0     C63632   8.347   8.569   5.906  0.0632  0.2162  0.7269
  462MOL0     C63633   8.300   8.455   5.809 -0.5688 -1.1661 -0.0627
  462MOL0     C63634   8.200   8.509   5.710  0.6156  1.0794  0.3393
  462MOL0     N63635   8.164   8.389   5.615 -0.6558  0.6623  0.5943
  462MOL0     C63636   8.204   8.363   5.478 -0.1730 -0.0695 -0.4105
  462MOL0     C63637   8.135   8.250   5.445  0.8110 -0.8628  0.2240
  462MOL0     C63638   8.146   8.166   5.319  0.0431 -0.8914  0.0980
  462MOL0     C63639   8.204   8.247   5.192 -0.3149  0.4221  0.3461
  462MOL0     C63640   8.102   8.343   5.149  1.1668 -0.5412  0.3355
  462MOL0     C63641   8.142   8.410   5.015 -0.4297  1.6569 -0.7797
  462MOL0     O63642   8.045   8.493   4.960  0.4196 -0.2129  0.6444
  462MOL0     C63643   7.992   8.453   4.838  0.1064  0.2613 -0.4802
  462MOL0     C63644   7.864   8.388   4.834 -0.5507 -0.4282  0.9206
  462MOL0     C63645   7.816   8.335   4.718  0.2186  0.9085  0.2632
  462MOL0     C63646   7.686   8.261   4.728 -0.0263 -0.2917  0.6385
  462MOL0     C63647   7.892   8.333   4.603  0.0338  0.0423 -0.6923
  462MOL0     C63648   7.841   8.274   4.467 -0.8465  0.1898 -0.0045
  462MOL0     O63649   7.713   8.279   4.453 -0.0457  0.2912 -0.6672
  462MOL0     C63650   7.663   8.242   4.332 -0.1618  0.0114 -0.2976
  462MOL0     C63651   7.665   8.327   4.225  0.2322  0.3899  0.1766
  462MOL0     C63652   7.605   8.281   4.104 -1.1655 -0.5734 -0.6807
  462MOL0     C63653   7.541   8.158   4.084  0.6683  0.1741  0.1196
  462MOL0     O63654   7.459   8.137   3.976  0.5982  0.0428 -0.1663
  462MOL0     C63655   7.510   8.171   3.851  0.3495 -0.2179  0.3770
  462MOL0     C63656   7.563   8.052   3.772 -0.5976 -0.2499  0.2421
  462MOL0     C63657   7.555   8.067   3.620  0.5732  0.3155 -0.1314
  462MOL0     C63658   7.514   7.935   3.559  0.4620 -0.3027  0.3763
  462MOL0     C63659   7.471   7.936   3.408 -1.0348 -0.7946 -0.0456
  462MOL0     C63660   7.446   7.797   3.355 -0.7114 -0.1859 -0.2652
  462MOL0     C63661   7.388   7.800   3.215  0.2507  0.0828 -0.5085
  462MOL0     C63662   7.491   7.817   3.106 -0.4661  0.2518 -0.3327
  462MOL0    Cl63663   7.608   7.691   3.094  0.1010  0.0219 -0.1003
  462MOL0     C63664   7.540   8.075   4.198 -0.2453  0.1949 -0.1467
  462MOL0     C63665   7.596   8.113   4.322 -0.2538 -1.0464 -1.3269
  462MOL0     O63666   7.928   8.223   4.393  0.3704  0.1611  0.6748
  462MOL0     C63667   8.020   8.396   4.614  0.1958 -0.0517 -0.5695
  462MOL0     C63668   8.071   8.453   4.729 -0.1256  0.5472  0.0368
  462MOL0     N63669   8.050   8.215   5.552  0.2158 -0.5441 -0.0995
  462MOL0     N63670   8.066   8.300   5.647 -0.2518  0.2350  0.4492
  462MOL0     C63671   8.964   8.179   6.190  1.0653  0.5046  0.6470
  462MOL0     C63672   9.071   8.213   6.107 -0.0791  0.0376 -0.2177
  462MOL0     C63673   9.410   8.475   5.966  0.2128  0.3103  0.1162
  462MOL0     C63674   9.377   8.490   5.827  0.0438 -0.5260  0.3794
  462MOL0     C63675   9.469   8.521   5.726  0.1538  1.3173  0.3884
  462MOL0     C63676   9.602   8.542   5.752  0.2624 -0.5622 -0.7731
  462MOL0     O63677   9.679   8.567   5.646  0.3638 -0.2602  0.0394
  462MOL0     C63678   9.808   8.628   5.674 -0.2556 -0.1511 -0.5306
  462MOL0     C63679   9.902   8.604   5.556 -0.2460 -0.2923 -0.4399
  462MOL0     C63680   9.926   8.457   5.495  0.2502  0.1800 -0.8947
  462MOL0     C63681   9.986   8.474   5.356  0.5455 -0.9298  0.0537
  462MOL0     C63682  10.125   8.503   5.354 -0.0312 -0.3562  0.0706
  462MOL0     C63683  10.244   8.526   5.346  0.1748  0.1686 -1.0900
  462MOL0     C63684   9.639   8.527   5.887  0.0991 -0.1632 -0.4732
  462MOL0     C63685   9.545   8.495   5.989  0.1395 -0.4575  0.1742
  462MOL0     C63686   9.604   8.469   6.127  0.4289  0.6517  1.3802
  462MOL0     H63687   9.004   8.546   6.081  0.3996  0.1207 -0.7290
  462MOL0     H63688   8.822   8.486   6.215  2.2213  1.6950  4.1713
  462MOL0     H63689   8.673   8.072   6.176  2.5096 -0.0042  0.1692
  462MOL0     H63690   8.676   8.231   6.084 -0.9003 -1.9594 -0.7624
  462MOL0     H63691   8.467   8.132   6.139 -0.4819  0.9635 -0.9503
  462MOL0     H63692   8.496   8.158   6.313  1.1929 -0.2118 -0.4596
  462MOL0     H63693   8.349   8.313   6.229  0.8129 -0.0995 -1.6923
  462MOL0     H63694   8.491   8.408   6.274 -3.6246  2.6540  1.0142
  462MOL0     H63695   8.566   8.441   6.049 -0.6570  0.5460 -1.1049
  462MOL0     H63696   8.432   8.313   6.008 -0.4795 -0.0443  0.4583
  462MOL0     H63697   8.395   8.596   6.109  0.6016 -0.9543  1.4541
  462MOL0     H63698   8.259   8.480   6.063 -1.0217  3.4877 -1.3710
  462MOL0     H63699   8.262   8.637   5.908 -0.9304 -0.5311 -3.9844
  462MOL0     H63700   8.440   8.617   5.873  0.7817 -3.7882 -4.3333
  462MOL0     H63701   8.238   8.389   5.870 -1.0706  4.0004  6.1167
  462MOL0     H63702   8.391   8.417   5.762 -0.0384  0.6378 -0.5843
  462MOL0     H63703   8.115   8.541   5.770  1.0410  0.0949  1.5145
  462MOL0     H63704   8.241   8.594   5.653  2.0796  0.0916 -0.1438
  462MOL0     H63705   8.275   8.423   5.424  0.0512 -0.4382 -0.5303
  462MOL0     H63706   8.045   8.131   5.297 -0.5048 -0.6908  2.0528
  462MOL0     H63707   8.219   8.085   5.326 -0.4587 -1.4038 -0.4536
  462MOL0     H63708   8.288   8.302   5.235 -0.3702 -0.9660  2.3466
  462MOL0     H63709   8.239   8.178   5.115  5.2609  1.2944  1.6483
  462MOL0     H63710   8.005   8.292   5.149  1.0856 -0.3916 -0.2399
  462MOL0     H63711   8.089   8.422   5.223 -1.8585 -0.8034  0.2295
  462MOL0     H63712   8.226   8.474   5.042 -1.6438  2.2336  1.9802
  462MOL0     H63713   8.179   8.337   4.942 -3.4806 -0.4347 -0.4510
  462MOL0     H63714   7.803   8.385   4.924  1.2267 -0.9895  2.1688
  462MOL0     H63715   7.646   8.241   4.828  0.2924  2.6992  1.4795
  462MOL0     H63716   7.694   8.163   4.682  3.4622  0.4562 -0.6593
  462MOL0     H63717   7.614   8.329   4.681 -1.8896  0.8686  4.6675
  462MOL0     H63718   7.703   8.429   4.230 -4.1843  2.3226 -0.5623
  462MOL0     H63719   7.588   8.357   4.028  0.7187  0.7280  0.1291
  462MOL0     H63720   7.421   8.210   3.800 -1.1800  0.2308  3.1974
  462MOL0     H63721   7.584   8.252   3.840  2.2832 -1.9895 -0.4041
  462MOL0     H63722   7.668   8.044   3.802 -1.6870 -0.1939  4.8510
  462MOL0     H63723   7.520   7.955   3.800 -0.7440 -0.9277 -2.1237
  462MOL0     H63724   7.643   8.116   3.577 -1.2299  1.2795 -3.0193
  462MOL0     H63725   7.472   8.136   3.597  1.1416  0.9890 -0.2015
  462MOL0     H63726   7.434   7.897   3.623  0.3172  0.5592  0.7117
  462MOL0     H63727   7.586   7.856   3.582  0.8633 -0.0832 -0.1199
  462MOL0     H63728   7.380   7.996   3.404 -0.4315  0.1304 -0.4462
  462MOL0     H63729   7.544   7.996   3.352 -0.8641 -1.2244 -0.2844
  462MOL0     H63730   7.355   7.780   3.412 -0.1412  0.7842  0.9971
  462MOL0     H63731   7.522   7.720   3.376  1.8817  2.8491  2.5721
  462MOL0     H63732   7.307   7.873   3.208  0.0144  0.1638  2.1138
  462MOL0     H63733   7.333   7.707   3.198 -0.7020  0.5421 -0.0306
  462MOL0     H63734   7.551   7.907   3.118  2.5864 -1.7046 -0.0046
  462MOL0     H63735   7.448   7.818   3.006 -0.3101  0.1942 -0.3999
  462MOL0     H63736   7.486   7.981   4.192 -0.8552  0.5240  0.0668
  462MOL0     H63737   7.598   8.035   4.397 -0.5631  2.8312  3.1926
  462MOL0     H63738   8.070   8.384   4.519  0.0031  1.4388 -0.8797
  462MOL0     H63739   8.172   8.492   4.725  0.8619 -1.7773  0.4840
  462MOL0     H63740   8.934   8.077   6.209  1.7383  0.4707  1.6354
  462MOL0     H63741   9.136   8.134   6.071  1.9318  1.0570  0.9770
  462MOL0     H63742   9.276   8.479   5.789  0.5676  3.4359 -2.8533
  462MOL0     H63743   9.439   8.522   5.621 -1.3781 -1.4698  0.7141
  462MOL0     H63744   9.797   8.734   5.698  0.3613 -0.3568  0.6849
  462MOL0     H63745   9.854   8.585   5.763 -3.2043  1.0083  1.7155
  462MOL0     H63746   9.999   8.645   5.587 -1.8345  1.9609  1.9846
  462MOL0     H63747   9.862   8.678   5.486 -0.9522 -0.2619 -0.0214
  462MOL0     H63748   9.981   8.390   5.562 -3.7500 -0.5354  2.0301
  462MOL0     H63749   9.828   8.409   5.491  0.6951 -1.0523  1.3082
  462MOL0     H63750   9.933   8.550   5.298 -2.6713 -0.1538  3.6213
  462MOL0     H63751   9.977   8.374   5.311  2.5517 -2.0178  1.8870
  462MOL0     H63752  10.350   8.526   5.333 -0.1337  3.0202 -5.1870
  462MOL0     H63753   9.734   8.561   5.926 -1.9030  2.6126  2.4409
  462MOL0     H63754   9.544   8.384   6.160  1.4468 -0.7239 -0.1395
  462MOL0     H63755   9.709   8.441   6.111 -0.2904 -0.0096 -4.1172
  462MOL0     H63756   9.593   8.556   6.192 -3.8849  2.3278 -1.1815
  463MOL0     O63757   9.098   6.308   3.788  0.1763 -0.2927  0.0281
  463MOL0     C63758   9.135   6.192   3.774 -0.1776  0.4703  0.1253
  463MOL0     O63759   9.156   6.134   3.658  0.1409  0.8946 -0.3565
  463MOL0     C63760   9.089   6.178   3.544  0.6063 -0.0442 -0.6090
  463MOL0     C63761   9.123   6.308   3.486 -0.2962 -0.6365  0.0536
  463MOL0     C63762   9.061   6.358   3.368 -0.2980 -0.8882  0.8471
  463MOL0     C63763   8.953   6.278   3.315 -0.6612 -0.5034  0.1375
  463MOL0     O63764   8.882   6.332   3.211  0.3101 -0.8024 -0.9366
  463MOL0     C63765   8.784   6.239   3.166 -0.2625 -0.7775 -0.4422
  463MOL0     C63766   8.707   6.279   3.039  0.5387  0.5846 -0.4545
  463MOL0     C63767   8.604   6.164   2.993  0.8328  0.1697 -0.2228
  463MOL0     C63768   8.686   6.069   2.893 -0.0127  0.5553  0.1741
  463MOL0     C63769   8.593   5.988   2.802 -0.1634  0.3682 -0.5137
  463MOL0     C63770   8.495   5.880   2.866 -0.3036 -0.5781  0.3011
  463MOL0     C63771   8.426   5.786   2.771  0.4160 -0.4732 -0.5361
  463MOL0     C63772   8.309   5.726   2.838 -0.0051 -0.5499 -0.6857
  463MOL0     N63773   8.238   5.640   2.747  0.3398 -0.2681 -0.6881
  463MOL0     C63774   8.182   5.674   2.627  0.6284  0.3868 -0.2843
  463MOL0     C63775   8.166   5.558   2.553  0.0716 -0.0771 -0.8781
  463MOL0     C63776   8.096   5.544   2.412 -0.9927 -0.1353 -0.3934
  463MOL0     C63777   8.073   5.397   2.355 -0.0133  0.0740  0.0028
  463MOL0     C63778   8.193   5.309   2.353 -0.1557 -0.9579 -0.0321
  463MOL0     C63779   8.186   5.212   2.233 -0.2700 -0.0679  0.6995
  463MOL0     O63780   8.239   5.295   2.127 -0.5013  0.7431  0.1834
  463MOL0     C63781   8.227   5.252   2.001  0.1106  0.8547  0.0258
  463MOL0     C63782   8.286   5.132   1.963 -0.1576  0.0103  0.5703
  463MOL0     C63783   8.295   5.086   1.830 -1.0307  0.5274 -0.2239
  463MOL0     C63784   8.381   4.967   1.796  0.8975 -0.6875 -0.3334
  463MOL0     C63785   8.234   5.165   1.729  0.5121 -0.2347 -0.2192
  463MOL0     C63786   8.233   5.126   1.585 -0.2683 -0.1056  0.2384
  463MOL0     O63787   8.281   5.219   1.482  0.2299 -1.0841  0.1461
  463MOL0     C63788   8.249   5.192   1.353  0.2649 -0.0111  0.2518
  463MOL0     C63789   8.119   5.182   1.296 -0.5308 -0.6079 -0.7935
  463MOL0     C63790   8.103   5.179   1.157 -0.5279  0.0167 -0.1453
  463MOL0     C63791   8.212   5.174   1.066  1.0904 -0.1693  0.0365
  463MOL0     O63792   8.176   5.164   0.937  0.0906 -0.7034 -0.4722
  463MOL0     C63793   8.259   5.228   0.838  0.8917  0.3689 -0.5058
  463MOL0     C63794   8.177   5.218   0.713  0.2690 -0.2036  0.5301
  463MOL0     C63795   8.252   5.290   0.602  0.4937 -0.6726 -0.0105
  463MOL0     C63796   8.151   5.302   0.480 -0.9063 -0.7750 -0.4997
  463MOL0     C63797   8.205   5.390   0.365 -0.1328 -1.0726  0.0152
  463MOL0     C63798   8.349   5.368   0.319  0.9007 -0.4560 -0.2388
  463MOL0     C63799   8.379   5.437   0.184  0.6888  0.5111  0.4518
  463MOL0     C63800   8.344   5.581   0.170  0.0083 -0.8579  1.1010
  463MOL0    Cl63801   8.377   5.701   0.298 -0.2129 -0.0823 -0.2280
  463MOL0     C63802   8.338   5.178   1.125 -1.0004 -0.1670  0.1372
  463MOL0     C63803   8.358   5.185   1.261 -0.0428  1.2326  0.5667
  463MOL0     O63804   8.194   5.015   1.562  0.5382  0.0698  0.3239
  463MOL0     C63805   8.159   5.273   1.770 -0.3253 -0.0101 -0.5172
  463MOL0     C63806   8.162   5.316   1.902  0.5922 -0.1533  0.6603
  463MOL0     N63807   8.212   5.464   2.637 -0.3508 -0.1120  1.2306
  463MOL0     N63808   8.245   5.514   2.756 -0.1742  0.6812  0.3017
  463MOL0     C63809   8.925   6.150   3.372  0.0680  0.5843 -0.9841
  463MOL0     C63810   8.989   6.103   3.483  0.2324  0.6917  0.4041
  463MOL0     C63811   9.158   6.097   3.891 -0.6640 -0.8422  0.2727
  463MOL0     C63812   9.247   5.991   3.871  0.2797  0.4381 -0.3837
  463MOL0     C63813   9.265   5.897   3.974 -0.8109  0.4554  0.0566
  463MOL0     C63814   9.216   5.923   4.110 -0.0979  1.3281  0.2551
  463MOL0     O63815   9.257   5.836   4.213 -0.3989 -0.4449  0.1937
  463MOL0     C63816   9.400   5.807   4.219  0.4871 -0.3675 -0.7820
  463MOL0     C63817   9.465   5.901   4.322 -0.4547 -0.1134 -0.3436
  463MOL0     C63818   9.619   5.911   4.307  1.1856  0.3924 -0.5191
  463MOL0     C63819   9.646   6.021   4.200  0.1348 -0.1358 -0.2376
  463MOL0     C63820   9.635   6.162   4.257 -0.5438 -0.2642  0.4278
  463MOL0     C63821   9.645   6.279   4.299 -0.1997 -0.3104  0.7324
  463MOL0     C63822   9.131   6.031   4.125  0.1556  0.2536  0.3067
  463MOL0     C63823   9.099   6.113   4.014 -0.6805 -0.5910 -0.3130
  463MOL0     C63824   8.988   6.209   4.050  0.1988 -0.0854 -0.2780
  463MOL0     H63825   9.198   6.365   3.540  0.5630 -2.1602  0.5433
  463MOL0     H63826   9.076   6.460   3.335 -3.7080  0.1855  2.1362
  463MOL0     H63827   8.711   6.230   3.247 -2.2368  1.4760 -1.8753
  463MOL0     H63828   8.827   6.139   3.151  2.5467  0.4237 -1.0636
  463MOL0     H63829   8.644   6.365   3.063 -1.0358 -1.1121  2.1362
  463MOL0     H63830   8.785   6.301   2.966  0.8860  4.0365  0.7843
  463MOL0     H63831   8.576   6.109   3.083  0.8791 -1.8508 -1.3882
  463MOL0     H63832   8.521   6.203   2.933 -1.1191 -1.8826  0.9993
  463MOL0     H63833   8.737   6.144   2.833 -1.8317  1.0081 -0.8955
  463MOL0     H63834   8.755   6.003   2.945 -1.6993  0.0862  1.9347
  463MOL0     H63835   8.653   5.941   2.724  0.1222 -0.3016  0.1076
  463MOL0     H63836   8.521   6.048   2.745 -1.6070 -2.6036 -2.0648
  463MOL0     H63837   8.548   5.804   2.924  0.8896  0.0154  0.0338
  463MOL0     H63838   8.432   5.935   2.936  3.4599  4.0744  0.5948
  463MOL0     H63839   8.503   5.719   2.730  1.8965 -0.4612  1.9998
  463MOL0     H63840   8.392   5.847   2.686 -1.0325  0.8073  0.9170
  463MOL0     H63841   8.355   5.658   2.911  2.6541 -0.9145 -2.5563
  463MOL0     H63842   8.244   5.793   2.894  3.2262  2.2070  0.1278
  463MOL0     H63843   8.161   5.779   2.607  1.5847  0.6141 -0.1597
  463MOL0     H63844   8.167   5.593   2.345  0.8536 -2.8840 -0.6095
  463MOL0     H63845   8.007   5.608   2.418  2.5587  5.3415  1.2903
  463MOL0     H63846   8.003   5.334   2.411 -1.2663  1.2288 -0.2290
  463MOL0     H63847   8.034   5.423   2.256 -4.8173 -1.7742  1.1135
  463MOL0     H63848   8.290   5.358   2.350  1.0590 -3.0678  1.5174
  463MOL0     H63849   8.190   5.246   2.442 -0.6599 -3.8593 -1.9296
  463MOL0     H63850   8.230   5.112   2.243 -0.1951 -0.2545 -1.1613
  463MOL0     H63851   8.078   5.201   2.217 -0.3003  0.5395  0.4463
  463MOL0     H63852   8.334   5.068   2.037 -2.4581 -2.8106 -0.2022
  463MOL0     H63853   8.467   4.964   1.864  1.4030 -2.2035 -1.0109
  463MOL0     H63854   8.425   4.971   1.696  2.7094 -0.2024  0.4481
  463MOL0     H63855   8.327   4.875   1.821 -1.4563  0.7695  0.2737
  463MOL0     H63856   8.036   5.186   1.367  0.5223 -3.0041  0.7145
  463MOL0     H63857   8.001   5.175   1.121 -0.3821 -0.8208 -0.4856
  463MOL0     H63858   8.281   5.331   0.867  1.3245  0.1108  0.1142
  463MOL0     H63859   8.359   5.184   0.839  2.2585  3.0748 -2.9979
  463MOL0     H63860   8.177   5.112   0.686  1.8119 -0.9240  3.0215
  463MOL0     H63861   8.073   5.249   0.724  0.5209  1.1812 -0.7728
  463MOL0     H63862   8.343   5.231   0.587 -0.7933 -2.5138 -0.8811
  463MOL0     H63863   8.284   5.391   0.627  0.9280 -0.3516 -1.7659
  463MOL0     H63864   8.049   5.334   0.502 -0.1758  3.7611 -2.7084
  463MOL0     H63865   8.146   5.206   0.427  0.2440  0.9766 -4.1245
  463MOL0     H63866   8.138   5.379   0.280  0.9842 -1.4108 -0.8431
  463MOL0     H63867   8.196   5.496   0.393  2.4460 -0.2918 -1.6962
  463MOL0     H63868   8.380   5.264   0.303 -0.7975 -1.0567  0.1536
  463MOL0     H63869   8.415   5.405   0.398  0.6189  0.7152 -0.5291
  463MOL0     H63870   8.318   5.389   0.107 -1.3633  2.4791  0.7394
  463MOL0     H63871   8.486   5.422   0.165  0.7497  1.2175  0.2232
  463MOL0     H63872   8.238   5.596   0.149 -0.1403  2.2355  3.2553
  463MOL0     H63873   8.400   5.618   0.083 -2.5917  2.6576  0.6966
  463MOL0     H63874   8.431   5.164   1.071  0.0235  0.8995  1.5302
  463MOL0     H63875   8.458   5.208   1.296  0.4075  0.4519 -0.1931
  463MOL0     H63876   8.098   5.324   1.696  1.5669  1.9279 -0.8327
  463MOL0     H63877   8.101   5.403   1.925  0.3073 -0.6483  1.8873
  463MOL0     H63878   8.849   6.082   3.334  0.3690 -0.5709  0.3891
  463MOL0     H63879   8.975   6.000   3.514  1.7162 -0.0586 -1.2349
  463MOL0     H63880   9.298   5.972   3.777  2.0576 -2.0726  0.9768
  463MOL0     H63881   9.320   5.806   3.952  0.8853  1.2069  1.0238
  463MOL0     H63882   9.412   5.704   4.254  1.0821 -0.1987 -0.4706
  463MOL0     H63883   9.452   5.819   4.123  0.1368 -2.3048 -1.2651
  463MOL0     H63884   9.442   5.863   4.421  0.4570 -0.2885 -0.1909
  463MOL0     H63885   9.420   6.000   4.316  2.0240  1.2135  1.4443
  463MOL0     H63886   9.667   5.924   4.404  0.2299 -3.2245  0.5694
  463MOL0     H63887   9.658   5.816   4.270 -0.4298 -1.3609  1.9674
  463MOL0     H63888   9.584   6.002   4.112 -0.2001  0.7440 -0.2055
  463MOL0     H63889   9.749   6.008   4.168  0.2138  0.4959 -0.2374
  463MOL0     H63890   9.646   6.379   4.336 -0.2924  1.3137 -3.2168
  463MOL0     H63891   9.101   6.047   4.228 -2.0752  0.1891 -0.2783
  463MOL0     H63892   8.988   6.303   3.994  0.0482 -1.0134 -1.8871
  463MOL0     H63893   8.888   6.165   4.042  0.1036  0.3188 -1.4718
  463MOL0     H63894   9.016   6.245   4.150 -2.9119  0.3996  0.5295
  464MOL0     O63895   7.387   8.643  10.995 -1.4727  0.2025  0.5644
  464MOL0     C63896   7.304   8.576  10.932  0.7410 -0.4705  0.6682
  464MOL0     O63897   7.180   8.626  10.907  0.2618  0.0295 -0.0385
  464MOL0     C63898   7.140   8.745  10.962  0.5597 -0.0096 -0.5254
  464MOL0     C63899   7.172   8.866  10.902  0.5130 -0.5323 -0.2653
  464MOL0     C63900   7.142   8.988  10.964 -0.0370  0.4792 -0.9349
  464MOL0     C63901   7.081   8.987  11.089  0.2545  0.2399  0.7949
  464MOL0     O63902   7.030   9.107  11.141 -0.9598 -0.8345  0.4070
  464MOL0     C63903   7.122   9.222  11.117  0.1726  0.4631 -0.2697
  464MOL0     C63904   7.086   9.331  11.225 -0.0868 -0.5652 -0.1845
  464MOL0     C63905   7.166   9.460  11.205 -0.0463 -0.1667 -0.2551
  464MOL0     C63906   7.319   9.447  11.219 -0.1719  0.4475  0.2409
  464MOL0     C63907   7.379   9.578  11.203 -0.8758  0.0749 -0.2955
  464MOL0     C63908   7.381   9.635  11.057 -0.5628 -1.1652  0.5392
  464MOL0     C63909   7.463   9.546  10.965  0.7050  0.1061 -0.3807
  464MOL0     C63910   7.618   9.579  10.990 -0.3274 -0.0428  0.9878
  464MOL0     N63911   7.656   9.717  10.962  0.2564 -0.6937  0.3359
  464MOL0     C63912   7.640   9.788  10.845  0.2955  0.1105  0.4931
  464MOL0     C63913   7.698   9.904  10.867  0.2119 -0.4534 -0.5091
  464MOL0     C63914   7.682  10.026  10.785  0.0208 -0.0384  0.4862
  464MOL0     C63915   7.755  10.157  10.835  0.6952  0.1371 -0.4517
  464MOL0     C63916   7.744  10.276  10.737  0.1405 -1.3298  0.3717
  464MOL0     C63917   7.818  10.381  10.797  0.1449 -0.9216  0.0531
  464MOL0     O63918   7.956  10.346  10.764 -0.2996 -0.5261 -0.0126
  464MOL0     C63919   8.066  10.408  10.823 -0.2283 -1.0228 -0.6687
  464MOL0     C63920   8.062  10.525  10.893  1.1209  0.7090  0.0434
  464MOL0     C63921   8.172  10.598  10.932 -0.5213 -0.2802 -0.4838
  464MOL0     C63922   8.155  10.730  11.000 -0.0863 -0.4892  0.0903
  464MOL0     C63923   8.296  10.537  10.916 -0.6815 -0.8225  0.5471
  464MOL0     C63924   8.437  10.604  10.958  0.4251 -0.2894  1.1276
  464MOL0     O63925   8.556  10.554  10.904  0.1038 -0.1381 -0.0098
  464MOL0     C63926   8.677  10.598  10.949 -0.4338 -0.6455  0.0965
  464MOL0     C63927   8.775  10.503  10.968 -0.5682 -0.5620 -0.4475
  464MOL0     C63928   8.905  10.536  10.997  0.0373  0.5731 -0.1501
  464MOL0     C63929   8.951  10.663  11.031  0.4035  0.4757 -0.4754
  464MOL0     O63930   9.075  10.672  11.080  0.7249 -0.6055  0.2646
  464MOL0     C63931   9.128  10.810  11.103 -0.7854 -0.1765 -0.0698
  464MOL0     C63932   9.256  10.796  11.187  0.3451  0.6766 -0.1859
  464MOL0     C63933   9.380  10.717  11.122 -0.8434  0.1988 -0.0456
  464MOL0     C63934   9.480  10.675  11.224 -0.4091  0.2816 -0.1694
  464MOL0     C63935   9.606  10.632  11.144  0.5879 -0.0576  0.3217
  464MOL0     C63936   9.726  10.643  11.232  0.6882 -0.2004 -0.2096
  464MOL0     C63937   9.765  10.799  11.250  0.1789  0.9471 -0.2694
  464MOL0     C63938   9.920  10.804  11.302  0.3684  0.1441 -0.0213
  464MOL0    Cl63939   9.923  10.722  11.466  0.3070 -0.1452 -0.0795
  464MOL0     C63940   8.847  10.762  11.019  0.2428 -0.4164  0.8172
  464MOL0     C63941   8.716  10.738  10.977  0.3822  0.3234 -0.5908
  464MOL0     O63942   8.439  10.684  11.049 -0.5822 -1.0916 -1.0362
  464MOL0     C63943   8.306  10.409  10.860 -0.5748  0.1868 -0.4814
  464MOL0     C63944   8.190  10.342  10.815  0.4916 -0.6432 -0.2341
  464MOL0     N63945   7.744   9.909  11.002  0.5798  0.5573  0.3026
  464MOL0     N63946   7.721   9.799  11.055  0.8761  0.1835  0.2463
  464MOL0     C63947   7.055   8.867  11.151  0.5595 -0.0329 -0.2628
  464MOL0     C63948   7.084   8.749  11.090 -0.4516 -0.2434  0.3692
  464MOL0     C63949   7.338   8.450  10.870 -0.6679 -0.0422  0.4486
  464MOL0     C63950   7.257   8.407  10.762  0.8666  0.4024 -0.0627
  464MOL0     C63951   7.264   8.271  10.723 -0.3347  0.8233 -0.2593
  464MOL0     C63952   7.350   8.178  10.785 -0.0312  0.3611 -0.5293
  464MOL0     O63953   7.347   8.045  10.744 -0.3963  0.1007 -0.2300
  464MOL0     C63954   7.413   7.930  10.803  0.3748 -0.2426 -0.1631
  464MOL0     C63955   7.552   7.909  10.747  0.3319 -0.5443 -0.0409
  464MOL0     C63956   7.549   7.856  10.606  1.0702  0.0299  0.2759
  464MOL0     C63957   7.693   7.823  10.567 -0.4213 -0.7387  0.7192
  464MOL0     C63958   7.697   7.779  10.425  0.2351  0.1281  0.0121
  464MOL0     C63959   7.695   7.732  10.314 -0.6452 -0.7267 -0.6716
  464MOL0     C63960   7.437   8.233  10.879 -0.4025  0.7715 -0.2991
  464MOL0     C63961   7.438   8.360  10.920  1.0533 -0.5122  0.6426
  464MOL0     C63962   7.542   8.394  11.028 -0.4457 -0.3149 -0.2146
  464MOL0     H63963   7.229   8.858  10.809 -0.4289  0.4938 -0.9531
  464MOL0     H63964   7.156   9.081  10.911 -0.8528  0.4773 -1.1549
  464MOL0     H63965   7.112   9.265  11.017 -1.0452  0.1830 -0.2833
  464MOL0     H63966   7.223   9.184  11.136  0.5886  0.4916 -2.2137
  464MOL0     H63967   6.981   9.362  11.232 -0.0244 -0.4516  0.3003
  464MOL0     H63968   7.111   9.285  11.321  0.5553  1.3609  0.6119
  464MOL0     H63969   7.140   9.495  11.105 -2.3283 -0.8883  0.0341
  464MOL0     H63970   7.126   9.531  11.278  3.6388  1.4637  0.4356
  464MOL0     H63971   7.331   9.408  11.321 -2.1684  1.1272  0.7795
  464MOL0     H63972   7.371   9.373  11.157  4.0387  1.3915  2.3041
  464MOL0     H63973   7.483   9.584  11.234 -1.3152 -1.9444  1.8462
  464MOL0     H63974   7.323   9.644  11.270  0.8374  1.7995 -0.4878
  464MOL0     H63975   7.282   9.634  11.010  0.0270 -0.1784 -0.7969
  464MOL0     H63976   7.420   9.737  11.061 -2.1630 -0.4054 -1.6070
  464MOL0     H63977   7.443   9.569  10.861 -1.1296 -2.7912 -0.7627
  464MOL0     H63978   7.450   9.438  10.980  1.5830  0.2425  1.7544
  464MOL0     H63979   7.632   9.545  11.093  1.4733  0.1603  0.8435
  464MOL0     H63980   7.675   9.510  10.927 -4.0242 -1.7998 -0.7622
  464MOL0     H63981   7.571   9.759  10.767 -0.3049  0.1354  1.0029
  464MOL0     H63982   7.573  10.036  10.779 -0.1817 -0.2510  2.7828
  464MOL0     H63983   7.724  10.010  10.685 -1.0645  3.6768 -0.7229
  464MOL0     H63984   7.706  10.186  10.929  0.5848  0.5686 -0.6407
  464MOL0     H63985   7.859  10.131  10.856  0.6266 -0.2167 -0.5350
  464MOL0     H63986   7.777  10.256  10.635 -3.0987  0.6750 -1.2289
  464MOL0     H63987   7.640  10.309  10.727  0.6726  0.2182 -0.2875
  464MOL0     H63988   7.788  10.473  10.747 -0.4341 -1.6131 -0.9100
  464MOL0     H63989   7.795  10.399  10.902  2.8007  0.0860  0.5446
  464MOL0     H63990   7.965  10.574  10.904  0.6834  0.0715 -0.8194
  464MOL0     H63991   8.220  10.724  11.088  2.3457 -0.4498 -1.6007
  464MOL0     H63992   8.055  10.746  11.040  0.9563  2.1886  1.8606
  464MOL0     H63993   8.187  10.817  10.941  2.8281 -1.4728  0.0367
  464MOL0     H63994   8.744  10.401  10.945 -2.2080 -0.8371  2.4938
  464MOL0     H63995   8.973  10.452  11.002  1.4335  1.4957 -2.1998
  464MOL0     H63996   9.152  10.854  11.006  0.1566 -1.2605 -0.3452
  464MOL0     H63997   9.059  10.877  11.155  1.3321 -0.1525  3.0503
  464MOL0     H63998   9.300  10.895  11.202  2.9559 -0.4731  0.4134
  464MOL0     H63999   9.232  10.743  11.280 -4.9383  1.7242 -0.6449
  464MOL0     H64000   9.430  10.779  11.047  2.3856  0.2894  2.0047
  464MOL0     H64001   9.338  10.628  11.073  3.2260 -0.3694 -2.9849
  464MOL0     H64002   9.452  10.598  11.296  0.3611 -0.5228 -0.7133
  464MOL0     H64003   9.510  10.766  11.278 -0.5463  2.0220 -2.8374
  464MOL0     H64004   9.598  10.531  11.105  2.8244  1.0190 -3.4426
  464MOL0     H64005   9.619  10.698  11.058 -0.8253  0.0407  0.1571
  464MOL0     H64006   9.824  10.613  11.193 -0.5053 -2.1512 -1.9718
  464MOL0     H64007   9.706  10.593  11.327  2.5537 -0.7804 -0.0644
  464MOL0     H64008   9.706  10.857  11.322  2.0275  2.5355  0.0535
  464MOL0     H64009   9.756  10.841  11.149  1.6624  0.5863 -0.5748
  464MOL0     H64010   9.956  10.907  11.317 -0.4870  0.3325  0.7907
  464MOL0     H64011   9.995  10.757  11.239  1.2080 -0.7741  1.6111
  464MOL0     H64012   8.871  10.862  11.051 -0.7114  0.7516 -1.8162
  464MOL0     H64013   8.637  10.810  10.959  0.5307  0.4416 -0.7708
  464MOL0     H64014   8.404  10.365  10.845  0.6079  2.4871  0.0839
  464MOL0     H64015   8.181  10.244  10.770 -2.7833 -0.7412  0.4284
  464MOL0     H64016   7.003   8.855  11.245  1.0311  0.6614  0.0905
  464MOL0     H64017   7.061   8.655  11.139  1.1741 -1.6954 -1.4687
  464MOL0     H64018   7.181   8.474  10.723 -1.8003 -1.5748  1.3535
  464MOL0     H64019   7.198   8.238  10.643  0.6469  1.2640 -1.2814
  464MOL0     H64020   7.413   7.936  10.912  1.3115 -4.0405  0.2097
  464MOL0     H64021   7.347   7.844  10.787 -0.4998 -0.2903  3.0330
  464MOL0     H64022   7.607   7.840  10.811  1.3383  1.6660  1.5843
  464MOL0     H64023   7.610   8.001  10.755 -0.3437 -0.1168  0.0037
  464MOL0     H64024   7.490   7.764  10.613  3.8175 -1.7583  2.0273
  464MOL0     H64025   7.497   7.927  10.542 -1.8861 -3.0082 -0.9873
  464MOL0     H64026   7.743   7.751  10.632  0.6421  0.4321  1.2624
  464MOL0     H64027   7.764   7.905  10.586  0.7765 -2.2380  3.3968
  464MOL0     H64028   7.680   7.687  10.218  1.5115  2.0431 -2.4704
  464MOL0     H64029   7.506   8.159  10.920 -2.2168  0.2727  2.0970
  464MOL0     H64030   7.601   8.479  10.992 -0.9205 -0.7516 -2.1819
  464MOL0     H64031   7.494   8.428  11.120  3.6394 -0.1687  2.0384
  464MOL0     H64032   7.615   8.315  11.044  1.0390  0.1903 -3.5838
  465MOL0     O64033  10.484  10.629   8.239 -0.4270 -0.3464  0.4363
  465MOL0     C64034  10.487  10.584   8.126  1.1743  0.1801 -0.0736
  465MOL0     O64035  10.415  10.472   8.093 -0.0120  0.7003  0.3511
  465MOL0     C64036  10.323  10.411   8.177 -1.2607 -0.9546  0.2784
  465MOL0     C64037  10.240  10.483   8.257 -1.2630  0.0695 -0.1788
  465MOL0     C64038  10.160  10.416   8.346 -0.2604 -0.3761 -0.2444
  465MOL0     C64039  10.157  10.277   8.346 -0.4320 -0.6562 -0.4739
  465MOL0     O64040  10.074  10.209   8.430 -0.0591  1.0933  0.0851
  465MOL0     C64041  10.089  10.240   8.565 -0.1296  0.3225 -0.4451
  465MOL0     C64042   9.982  10.175   8.661  0.3455 -0.5710 -0.2314
  465MOL0     C64043  10.011  10.033   8.669 -0.0694  0.4739 -0.1046
  465MOL0     C64044   9.922   9.960   8.768 -0.5139 -1.1118  0.4933
  465MOL0     C64045   9.959   9.810   8.796  0.0259 -0.5392  0.6136
  465MOL0     C64046   9.842   9.746   8.863  0.9058  0.8834  0.4935
  465MOL0     C64047   9.810   9.613   8.786  0.5300  0.3370  0.3457
  465MOL0     C64048   9.703   9.646   8.677  0.6927  0.0549  0.1998
  465MOL0     N64049   9.656   9.523   8.618  0.1138 -0.0413  0.9683
  465MOL0     C64050   9.704   9.484   8.490  0.0002  0.6212 -0.8463
  465MOL0     C64051   9.610   9.411   8.436  0.1134 -0.3617  0.3858
  465MOL0     C64052   9.612   9.368   8.292 -0.0640  0.3963 -0.5006
  465MOL0     C64053   9.471   9.358   8.236 -0.2217 -0.2635 -0.4334
  465MOL0     C64054   9.485   9.329   8.084 -0.0360  0.1584  0.8307
  465MOL0     C64055   9.354   9.299   8.024 -0.1506 -0.0104 -0.0722
  465MOL0     O64056   9.290   9.426   7.999  0.3443 -0.1937 -0.4037
  465MOL0     C64057   9.174   9.425   7.921  0.3027  1.3439 -0.2675
  465MOL0     C64058   9.120   9.307   7.865 -0.1054  0.2262  0.0524
  465MOL0     C64059   9.015   9.306   7.772 -0.2137  0.1493 -0.4449
  465MOL0     C64060   8.957   9.172   7.715 -0.1265  0.3929  0.0108
  465MOL0     C64061   8.965   9.432   7.734 -0.0895 -0.2014 -0.1972
  465MOL0     C64062   8.851   9.457   7.646 -0.0630  0.2464 -1.0798
  465MOL0     O64063   8.741   9.385   7.679  0.3935 -0.5429 -0.4296
  465MOL0     C64064   8.631   9.420   7.608  0.9305  0.3384 -0.9992
  465MOL0     C64065   8.631   9.397   7.468 -0.3011  0.8291 -0.5811
  465MOL0     C64066   8.534   9.453   7.409  0.7039  0.4632  0.5138
  465MOL0     C64067   8.433   9.543   7.460  0.4385 -0.2971  0.1234
  465MOL0     O64068   8.329   9.585   7.382 -0.5296 -1.1578 -0.2885
  465MOL0     C64069   8.248   9.696   7.425  0.1924  0.2150  0.4902
  465MOL0     C64070   8.317   9.816   7.354 -0.1517  0.1441 -1.0287
  465MOL0     C64071   8.333   9.807   7.199 -0.0236  0.3342  0.2029
  465MOL0     C64072   8.472   9.755   7.152 -0.6230 -0.0491 -0.5501
  465MOL0     C64073   8.509   9.758   7.002  0.4219 -0.1635 -0.2149
  465MOL0     C64074   8.487   9.887   6.923 -0.3520  0.4475 -1.5083
  465MOL0     C64075   8.526   9.892   6.774 -0.0545 -0.5729  0.1200
  465MOL0     C64076   8.510  10.032   6.707  0.4069 -0.6336  0.2048
  465MOL0    Cl64077   8.329  10.061   6.710  0.4649 -0.3650 -0.1044
  465MOL0     C64078   8.444   9.571   7.591  0.4999  0.4048 -1.2651
  465MOL0     C64079   8.541   9.506   7.669 -0.2741  0.2260 -0.2237
  465MOL0     O64080   8.852   9.555   7.569 -0.2661 -0.0376  0.0326
  465MOL0     C64081   9.012   9.550   7.797  0.0750 -0.7592  1.0105
  465MOL0     C64082   9.117   9.541   7.887  0.0166 -0.5273  0.2134
  465MOL0     N64083   9.505   9.403   8.533  0.9332 -0.0788 -0.1824
  465MOL0     N64084   9.530   9.461   8.643  0.1807  0.5601  0.4650
  465MOL0     C64085  10.242  10.210   8.264  1.0086  0.3591  0.2080
  465MOL0     C64086  10.330  10.275   8.185  0.0165 -0.2708  0.2003
  465MOL0     C64087  10.577  10.646   8.024 -1.5690 -0.2147  0.1140
  465MOL0     C64088  10.616  10.569   7.911 -0.4610  1.0188 -0.6328
  465MOL0     C64089  10.702  10.614   7.810  0.3647  0.0719  0.9202
  465MOL0     C64090  10.746  10.748   7.810 -0.8710 -0.4665  0.4994
  465MOL0     O64091  10.829  10.800   7.707 -0.5157  0.0355 -0.1769
  465MOL0     C64092  10.861  10.716   7.595 -0.2112 -0.3630 -0.5746
  465MOL0     C64093  10.759  10.704   7.474 -0.4540  0.4314 -0.0101
  465MOL0     C64094  10.794  10.588   7.378  0.4043 -0.1336  0.1451
  465MOL0     C64095  10.709  10.576   7.256 -0.5541  0.1015 -0.1984
  465MOL0     C64096  10.754  10.473   7.163  0.0792 -0.2961  0.4336
  465MOL0     C64097  10.779  10.389   7.080 -0.3751 -0.4736  0.1665
  465MOL0     C64098  10.719  10.826   7.919  0.3174 -1.1353  0.6840
  465MOL0     C64099  10.640  10.779   8.033 -0.6496  0.8096  0.3987
  465MOL0     C64100  10.612  10.875   8.144  0.8625  0.7344  0.7469
  465MOL0     H64101  10.228  10.591   8.253  1.3011  0.4900  0.8589
  465MOL0     H64102  10.090  10.472   8.407  0.8322  0.6573  0.1200
  465MOL0     H64103  10.084  10.345   8.593  1.4232 -0.2727  2.3896
  465MOL0     H64104  10.191  10.208   8.589 -0.5321  0.6819  1.9301
  465MOL0     H64105   9.984  10.213   8.763  0.5425 -0.7834 -0.1542
  465MOL0     H64106   9.889  10.199   8.609  0.8547 -1.0030 -1.3759
  465MOL0     H64107  10.002   9.983   8.572 -0.1790 -1.1066  0.6895
  465MOL0     H64108  10.117  10.016   8.691 -0.3232  0.4018  1.0973
  465MOL0     H64109   9.928  10.002   8.869 -1.1268 -3.7513  1.7106
  465MOL0     H64110   9.824   9.958   8.720 -0.6145  2.0041  0.3632
  465MOL0     H64111  10.050   9.801   8.857  0.7540 -1.5767 -0.5623
  465MOL0     H64112   9.978   9.758   8.701 -2.0350  0.2794 -0.3180
  465MOL0     H64113   9.867   9.722   8.967  0.1077  2.1395  1.0016
  465MOL0     H64114   9.746   9.798   8.867 -0.9806 -2.3367  3.6349
  465MOL0     H64115   9.759   9.532   8.839 -0.1080  1.0971  0.9209
  465MOL0     H64116   9.886   9.562   8.726 -1.7101 -0.2815 -2.1707
  465MOL0     H64117   9.612   9.682   8.727  0.6055 -0.0947  0.1488
  465MOL0     H64118   9.730   9.715   8.596 -2.3311 -0.2269 -1.2071
  465MOL0     H64119   9.795   9.514   8.440  0.2112 -0.2991 -1.0359
  465MOL0     H64120   9.651   9.266   8.287 -0.1872  0.2522  1.1046
  465MOL0     H64121   9.664   9.443   8.232  0.6581  0.1955 -0.1342
  465MOL0     H64122   9.416   9.280   8.289  1.9396  0.3754  3.0663
  465MOL0     H64123   9.415   9.452   8.250 -1.5793 -1.2998  1.5977
  465MOL0     H64124   9.524   9.418   8.033  0.1343  0.0410  0.7572
  465MOL0     H64125   9.545   9.238   8.077 -0.6227 -0.1080 -1.7098
  465MOL0     H64126   9.361   9.249   7.927  0.8106 -2.1658  1.0452
  465MOL0     H64127   9.293   9.242   8.094  0.1141  1.3279  1.3173
  465MOL0     H64128   9.153   9.208   7.896  0.2038  0.4286  0.3840
  465MOL0     H64129   9.013   9.089   7.756  0.7061  0.8665 -0.1469
  465MOL0     H64130   8.970   9.168   7.606 -1.0709 -0.2429 -0.0960
  465MOL0     H64131   8.852   9.160   7.742  0.7578 -1.1829  3.1603
  465MOL0     H64132   8.716   9.353   7.418 -1.8309 -1.6207 -1.2075
  465MOL0     H64133   8.528   9.452   7.301 -3.5662 -0.6499  0.5629
  465MOL0     H64134   8.152   9.697   7.372  1.4942 -0.5853 -2.0995
  465MOL0     H64135   8.233   9.693   7.533  4.4731 -1.4096  1.2166
  465MOL0     H64136   8.254   9.902   7.378  0.9811  0.8161 -0.3828
  465MOL0     H64137   8.410   9.835   7.408 -0.5007 -0.7910 -0.0758
  465MOL0     H64138   8.334   9.908   7.159 -2.2083  0.8418  1.2527
  465MOL0     H64139   8.249   9.751   7.156  0.6997  0.0829 -0.9015
  465MOL0     H64140   8.485   9.648   7.175  0.4861  0.0293 -0.7981
  465MOL0     H64141   8.547   9.803   7.215 -0.0488 -1.9813  0.3301
  465MOL0     H64142   8.617   9.738   6.998  0.5689  0.6922 -0.5885
  465MOL0     H64143   8.458   9.674   6.954  2.1088 -4.0543  4.0736
  465MOL0     H64144   8.542   9.964   6.977  2.4565 -2.9776  1.0187
  465MOL0     H64145   8.379   9.898   6.917 -0.4586 -0.3988 -1.2579
  465MOL0     H64146   8.480   9.816   6.710  2.7795 -2.9952  0.7496
  465MOL0     H64147   8.633   9.871   6.776  0.2214  0.6815 -0.2868
  465MOL0     H64148   8.541  10.031   6.602  0.3760 -0.6976  0.1954
  465MOL0     H64149   8.567  10.112   6.755  1.8164 -0.8862 -0.9874
  465MOL0     H64150   8.377   9.642   7.638 -0.6312  0.0048 -2.2327
  465MOL0     H64151   8.553   9.510   7.777 -0.5661 -2.6788 -0.0069
  465MOL0     H64152   8.988   9.648   7.757  4.8291 -0.3507 -1.6786
  465MOL0     H64153   9.158   9.636   7.921 -0.8307 -0.8199  2.1408
  465MOL0     H64154  10.244  10.102   8.268 -0.3851  0.2844 -0.4773
  465MOL0     H64155  10.397  10.222   8.119 -3.0658 -1.2977 -2.3632
  465MOL0     H64156  10.589  10.463   7.910  0.3775  0.7965 -1.3941
  465MOL0     H64157  10.721  10.542   7.731  1.3771  1.5694 -0.2483
  465MOL0     H64158  10.954  10.755   7.552 -0.4769 -0.3534 -1.1339
  465MOL0     H64159  10.888  10.616   7.632  0.6657 -0.8130 -2.3195
  465MOL0     H64160  10.749  10.803   7.429 -2.3842  2.1006  3.7091
  465MOL0     H64161  10.664  10.671   7.516  0.5625  0.1996  2.2647
  465MOL0     H64162  10.899  10.610   7.357  0.1632  2.5971  1.4579
  465MOL0     H64163  10.795  10.497   7.439 -0.0434  0.1085  0.5239
  465MOL0     H64164  10.699  10.673   7.207  0.2718 -1.0738 -2.9057
  465MOL0     H64165  10.612  10.540   7.292  0.2556 -2.2867 -0.2077
  465MOL0     H64166  10.799  10.315   7.005  0.3869 -1.0093  0.8820
  465MOL0     H64167  10.749  10.931   7.913 -1.5288 -0.4952  1.8527
  465MOL0     H64168  10.659  10.827   8.231  1.3274  1.0407  0.6726
  465MOL0     H64169  10.659  10.973   8.131  2.4709  0.2785  2.5886
  465MOL0     H64170  10.504  10.890   8.152  0.5312 -0.4071 -1.0973
  466MOL0     O64171   9.192   8.546  11.322 -0.9172 -0.6309  0.5376
  466MOL0     C64172   9.083   8.544  11.266  0.1024 -1.5194 -0.6065
  466MOL0     O64173   8.995   8.642  11.276  0.2712 -1.4622 -0.0740
  466MOL0     C64174   9.040   8.747  11.340  0.1783 -1.6542  0.0373
  466MOL0     C64175   9.041   8.742  11.484  0.5211  0.3833 -0.5395
  466MOL0     C64176   9.087   8.853  11.559  0.5852 -0.3843 -0.8354
  466MOL0     C64177   9.125   8.970  11.496  0.2052  0.3876 -0.5960
  466MOL0     O64178   9.146   9.082  11.572 -0.0785  0.1127  0.1742
  466MOL0     C64179   9.284   9.121  11.572 -0.1063 -0.0460 -0.1025
  466MOL0     C64180   9.300   9.242  11.657  0.0045 -0.1868 -0.4707
  466MOL0     C64181   9.258   9.205  11.802 -0.0741  0.2441 -0.4034
  466MOL0     C64182   9.216   9.341  11.853  0.0227  0.2708  0.1193
  466MOL0     C64183   9.193   9.352  12.003 -0.4866 -0.8730  0.5713
  466MOL0     C64184   9.323   9.360  12.084  0.8207  0.6339 -0.2125
  466MOL0     C64185   9.288   9.336  12.227 -0.3700 -0.2191 -0.6086
  466MOL0     C64186   9.179   9.417  12.294  0.9073  1.1027  0.5354
  466MOL0     N64187   9.210   9.563  12.283  0.1558  0.0840  0.9615
  466MOL0     C64188   9.303   9.630  12.357  0.2199 -0.6269  0.0356
  466MOL0     C64189   9.289   9.763  12.323 -0.6914  0.9859  0.9134
  466MOL0     C64190   9.369   9.869  12.382 -0.4962 -0.5718 -0.2079
  466MOL0     C64191   9.518   9.883  12.339  0.0437 -0.8938  0.6812
  466MOL0     C64192   9.603   9.807  12.444  0.5970 -1.6673 -0.4911
  466MOL0     C64193   9.754   9.799  12.413 -0.1557  0.4556  0.2909
  466MOL0     O64194   9.827   9.744  12.519 -0.0945  0.6537  0.2007
  466MOL0     C64195   9.964   9.756  12.509  0.5879 -0.0251 -0.4960
  466MOL0     C64196  10.038   9.778  12.625  1.1269 -0.4305 -0.0748
  466MOL0     C64197  10.180   9.787  12.621 -0.0540  0.4197 -0.2142
  466MOL0     C64198  10.248   9.797  12.756  1.0191 -0.4720 -0.7950
  466MOL0     C64199  10.252   9.782  12.498  0.3102  0.9786 -0.4009
  466MOL0     C64200  10.403   9.771  12.477 -0.1664  0.6029  0.9403
  466MOL0     O64201  10.444   9.724  12.349  0.1359 -0.9273  0.3389
  466MOL0     C64202  10.582   9.715  12.320 -0.5482 -0.6721 -0.6805
  466MOL0     C64203  10.631   9.799  12.216 -1.2228 -0.0266  0.0013
  466MOL0     C64204  10.766   9.816  12.183  0.0706 -0.1159 -0.5193
  466MOL0     C64205  10.859   9.741  12.254 -0.3133 -0.6774 -0.0096
  466MOL0     O64206  10.993   9.730  12.237  0.0989 -0.1745  0.3469
  466MOL0     C64207  11.070   9.834  12.184  1.2909  0.0505  0.1263
  466MOL0     C64208  11.077   9.959  12.277 -0.3276  0.0380 -0.4036
  466MOL0     C64209  11.170   9.948  12.402 -1.3222  0.0034 -0.5648
  466MOL0     C64210  11.116   9.862  12.513  0.1580  0.2546  0.4241
  466MOL0     C64211  10.987   9.920  12.582  0.6024  1.0500 -0.6433
  466MOL0     C64212  11.028   9.986  12.708  1.0867 -1.1305  0.7280
  466MOL0     C64213  10.890  10.017  12.779 -0.0006  0.1778 -0.5033
  466MOL0     C64214  10.910  10.074  12.928  0.5839  0.6880 -0.0738
  466MOL0    Cl64215  10.998  10.237  12.949  0.2353  0.9054  0.4338
  466MOL0     C64216  10.809   9.664  12.365  0.3322 -0.3629  0.1927
  466MOL0     C64217  10.676   9.650  12.397  0.3781 -0.8701 -0.3651
  466MOL0     O64218  10.479   9.800  12.568 -0.5157 -0.3991 -0.3708
  466MOL0     C64219  10.168   9.763  12.384 -0.5042  0.0071  0.4370
  466MOL0     C64220  10.032   9.745  12.387  0.1957 -0.2012  0.2011
  466MOL0     N64221   9.181   9.774  12.233  0.2255  0.3975  0.5259
  466MOL0     N64222   9.131   9.654  12.215 -0.1377 -0.3228 -1.0597
  466MOL0     C64223   9.133   8.970  11.353 -0.8383  1.0013  0.0228
  466MOL0     C64224   9.088   8.862  11.276 -1.1611 -0.6444 -0.0779
  466MOL0     C64225   9.037   8.427  11.188  1.2062  0.4095 -0.1408
  466MOL0     C64226   8.919   8.444  11.118 -0.1818  0.4730  1.0592
  466MOL0     C64227   8.858   8.336  11.053  0.7961  0.1351 -0.1527
  466MOL0     C64228   8.915   8.209  11.062 -0.1758  0.2443  0.2958
  466MOL0     O64229   8.844   8.115  10.994  0.3247  0.0897 -0.2896
  466MOL0     C64230   8.911   8.032  10.904 -0.1268  1.1914 -0.0680
  466MOL0     C64231   8.802   7.937  10.846  0.5144 -0.4915  0.9940
  466MOL0     C64232   8.698   8.026  10.767  0.6047 -0.0258 -0.4926
  466MOL0     C64233   8.597   7.928  10.701  0.7829  0.0456 -0.4027
  466MOL0     C64234   8.489   7.868  10.789 -0.0171 -0.1613  0.4336
  466MOL0     C64235   8.422   7.805  10.867  0.0941 -0.4422  0.2008
  466MOL0     C64236   9.034   8.191  11.121 -0.1060  0.3468 -1.1671
  466MOL0     C64237   9.095   8.298  11.190 -0.3803  0.9592  0.1214
  466MOL0     C64238   9.220   8.269  11.269  0.3816 -0.7043  0.0250
  466MOL0     H64239   9.011   8.647  11.526  1.2789  0.4557  0.1968
  466MOL0     H64240   9.073   8.850  11.667 -1.7289 -0.1848 -1.0758
  466MOL0     H64241   9.310   9.145  11.469  1.3781  0.2294  0.3018
  466MOL0     H64242   9.365   9.053  11.599  0.1144  0.7807  1.4827
  466MOL0     H64243   9.400   9.283  11.670 -1.0894  2.0126  1.6824
  466MOL0     H64244   9.235   9.321  11.620 -0.2117  1.1297  2.4398
  466MOL0     H64245   9.172   9.138  11.811 -2.8712  3.6070 -0.0069
  466MOL0     H64246   9.344   9.171  11.860 -0.5408 -0.1682  0.0580
  466MOL0     H64247   9.298   9.408  11.827  0.6029 -1.6870 -3.7962
  466MOL0     H64248   9.130   9.387  11.803 -1.7591  0.6122  3.2208
  466MOL0     H64249   9.136   9.267  12.041  1.2541 -1.4285  2.0933
  466MOL0     H64250   9.149   9.450  12.025 -0.5623 -0.4152 -1.3775
  466MOL0     H64251   9.407   9.292  12.066  0.1439 -0.2895  0.0405
  466MOL0     H64252   9.365   9.460  12.067  1.2573  0.4020 -0.5283
  466MOL0     H64253   9.373   9.371  12.286 -1.0583 -0.6556  0.6900
  466MOL0     H64254   9.266   9.232  12.253  2.4826 -1.3348 -2.2217
  466MOL0     H64255   9.091   9.395  12.233  2.4808  2.3998 -2.4159
  466MOL0     H64256   9.161   9.391  12.398 -0.4587  0.9677  0.2853
  466MOL0     H64257   9.375   9.592  12.428 -0.6814 -0.8532  0.8461
  466MOL0     H64258   9.372   9.858  12.491  0.3983 -2.3704 -0.3716
  466MOL0     H64259   9.321   9.965  12.362 -2.9441 -1.9449 -1.3837
  466MOL0     H64260   9.528   9.852  12.235 -2.6476 -2.1183  0.7298
  466MOL0     H64261   9.545   9.989  12.344 -1.2401 -0.5845  1.7159
  466MOL0     H64262   9.588   9.862  12.537  1.9198 -1.5971 -0.2924
  466MOL0     H64263   9.553   9.710  12.448 -3.0280  0.0961  0.1631
  466MOL0     H64264   9.773   9.738  12.323 -0.3940 -0.2366  0.6985
  466MOL0     H64265   9.783   9.900  12.384  0.8812  0.1550  0.2266
  466MOL0     H64266   9.981   9.775  12.717  2.9995 -2.1614  1.1092
  466MOL0     H64267  10.257   9.899  12.796 -2.4641 -0.4825  0.2961
  466MOL0     H64268  10.340   9.738  12.754 -0.2359 -2.4885 -1.0527
  466MOL0     H64269  10.193   9.738  12.829  1.1187 -0.8518 -1.0207
  466MOL0     H64270  10.543   9.848  12.174 -1.6506  0.6199  1.5733
  466MOL0     H64271  10.798   9.891  12.111 -1.0288 -0.7105 -1.6655
  466MOL0     H64272  11.172   9.800  12.163 -0.5263 -3.9625 -3.9963
  466MOL0     H64273  11.026   9.862  12.088 -0.3523  0.3052  0.9229
  466MOL0     H64274  11.125  10.028  12.207  3.0762 -4.2270 -2.7407
  466MOL0     H64275  10.983  10.005  12.310  1.2320  1.4217  2.5609
  466MOL0     H64276  11.203  10.042  12.445  1.3229 -1.2722  0.3973
  466MOL0     H64277  11.259   9.898  12.362 -2.3490 -1.2104 -1.4496
  466MOL0     H64278  11.191   9.838  12.588  2.4124  0.6411 -1.6002
  466MOL0     H64279  11.093   9.765  12.466  3.1948 -0.1465 -0.4587
  466MOL0     H64280  10.940   9.989  12.511  3.0775  2.2692 -1.2284
  466MOL0     H64281  10.921   9.842  12.620  0.4230  2.6010  2.5281
  466MOL0     H64282  11.080  10.078  12.679  1.1246 -0.9531  1.3376
  466MOL0     H64283  11.099   9.926  12.765  0.3719 -1.7903  0.9385
  466MOL0     H64284  10.825   9.929  12.781  2.8746 -2.1214 -0.9413
  466MOL0     H64285  10.834  10.092  12.723 -0.5252 -1.8011 -2.7896
  466MOL0     H64286  10.965  10.002  12.990  2.5355 -1.3826 -3.8492
  466MOL0     H64287  10.812  10.090  12.973  1.4032  3.2686  0.9997
  466MOL0     H64288  10.882   9.604  12.419  0.1490 -0.2278  0.5948
  466MOL0     H64289  10.645   9.590  12.483 -1.2933  1.8122  1.0427
  466MOL0     H64290  10.223   9.763  12.290  4.6877  0.9705  3.1490
  466MOL0     H64291   9.983   9.732  12.291  0.8337 -0.4754 -0.0905
  466MOL0     H64292   9.180   9.062  11.319 -0.2550  1.0032  0.7968
  466MOL0     H64293   9.080   8.863  11.168  1.4508 -0.5343 -0.3135
  466MOL0     H64294   8.870   8.541  11.112  2.5094  1.9122  1.1394
  466MOL0     H64295   8.763   8.344  11.001  1.2802  1.2554 -0.9133
  466MOL0     H64296   8.971   8.079  10.826 -0.2294  4.2223  1.5171
  466MOL0     H64297   8.983   7.977  10.965  1.7361  2.9962 -0.5215
  466MOL0     H64298   8.757   7.872  10.922  0.8216 -0.5582  1.1194
  466MOL0     H64299   8.857   7.870  10.779  0.6013  0.3477  0.2044
  466MOL0     H64300   8.641   8.083  10.841  0.9936 -2.3845  1.7980
  466MOL0     H64301   8.742   8.092  10.691 -0.7588  1.8673  0.2897
  466MOL0     H64302   8.648   7.844  10.654 -2.0165 -2.7335  1.1367
  466MOL0     H64303   8.539   7.975  10.621  1.4931 -1.2630 -1.7351
  466MOL0     H64304   8.372   7.751  10.945  0.2989 -0.3388  0.4071
  466MOL0     H64305   9.087   8.096  11.116  2.9141  1.8635 -0.1146
  466MOL0     H64306   9.233   8.161  11.257 -5.1690 -1.4440 -2.3226
  466MOL0     H64307   9.304   8.328  11.231 -0.8693 -0.2473 -2.2208
  466MOL0     H64308   9.199   8.292  11.374  0.3681  2.2340 -0.5293
  467MOL0     O64309   7.613   1.660   0.647 -0.3406  0.3567 -0.7714
  467MOL0     C64310   7.656   1.735   0.732  0.2171 -0.4549 -0.5896
  467MOL0     O64311   7.732   1.697   0.838 -0.5859 -0.6488 -0.0412
  467MOL0     C64312   7.747   1.569   0.884  0.5062  1.0474  0.4401
  467MOL0     C64313   7.864   1.547   0.951 -0.3561 -0.2844 -0.0610
  467MOL0     C64314   7.894   1.428   1.004  0.6292  1.0995  0.0422
  467MOL0     C64315   7.791   1.332   1.016  0.6281 -0.2444 -0.8345
  467MOL0     O64316   7.825   1.218   1.076 -0.4474  0.2643 -0.2895
  467MOL0     C64317   7.795   1.209   1.219 -0.1434  0.3569  0.6116
  467MOL0     C64318   7.891   1.100   1.284  0.1083  0.3052  0.4969
  467MOL0     C64319   8.029   1.132   1.259 -0.9879 -0.2297 -0.6760
  467MOL0     C64320   8.088   1.031   1.160 -0.1673  0.2778  0.3594
  467MOL0     C64321   8.203   1.097   1.077 -1.0078  0.6041 -0.0604
  467MOL0     C64322   8.323   1.128   1.177  0.0538  1.4303  0.2799
  467MOL0     C64323   8.448   1.177   1.107  0.0116  0.1186  0.0682
  467MOL0     C64324   8.557   1.177   1.207 -0.7245 -0.7964  1.3458
  467MOL0     N64325   8.527   1.254   1.324 -0.5640 -0.0317 -1.4170
  467MOL0     C64326   8.485   1.199   1.448  0.8655 -0.9719  0.9637
  467MOL0     C64327   8.465   1.309   1.518 -0.3772 -0.2963  0.2964
  467MOL0     C64328   8.416   1.305   1.654 -0.3085  0.9124  0.7154
  467MOL0     C64329   8.486   1.401   1.746 -0.3814  0.3410 -0.2997
  467MOL0     C64330   8.473   1.355   1.891 -0.4972 -0.0027  0.6860
  467MOL0     C64331   8.554   1.434   1.980  0.2151 -0.0464  0.5485
  467MOL0     O64332   8.480   1.549   2.017  0.7611 -0.4155  0.0605
  467MOL0     C64333   8.464   1.578   2.151 -0.9182  0.5041 -0.3894
  467MOL0     C64334   8.342   1.631   2.176 -0.1927 -0.6527 -0.8495
  467MOL0     C64335   8.308   1.694   2.307 -0.3096  0.7882  0.5869
  467MOL0     C64336   8.177   1.762   2.309 -0.5813  0.0368  0.2684
  467MOL0     C64337   8.395   1.666   2.411 -0.2942 -0.0203  0.1004
  467MOL0     C64338   8.366   1.705   2.553  0.0611  0.7768  0.5209
  467MOL0     O64339   8.467   1.674   2.635  0.5775  0.0047 -0.0357
  467MOL0     C64340   8.465   1.701   2.773 -1.4566 -0.1688  0.9250
  467MOL0     C64341   8.567   1.767   2.816 -0.3333  0.5912  0.2161
  467MOL0     C64342   8.584   1.805   2.942 -0.0021 -0.0201 -0.7946
  467MOL0     C64343   8.496   1.751   3.041 -0.4736  0.9977 -0.0769
  467MOL0     O64344   8.508   1.794   3.167  0.0429  0.2493  0.3486
  467MOL0     C64345   8.523   1.681   3.253 -0.4768 -0.0039  1.1170
  467MOL0     C64346   8.589   1.744   3.380  0.7131 -0.4349  0.6021
  467MOL0     C64347   8.541   1.655   3.499 -0.5128  0.0379 -0.2156
  467MOL0     C64348   8.623   1.698   3.624  0.0374  0.9801  0.6861
  467MOL0     C64349   8.602   1.618   3.752  1.5266  0.8165  0.5471
  467MOL0     C64350   8.708   1.642   3.855 -0.1655  0.9500 -0.3258
  467MOL0     C64351   8.677   1.599   3.999  1.1860 -0.5785  0.1273
  467MOL0     C64352   8.731   1.466   4.033  0.1488 -0.1285 -0.2708
  467MOL0    Cl64353   8.901   1.455   4.001 -0.3330 -0.0879 -0.0140
  467MOL0     C64354   8.397   1.659   3.001 -0.1559  0.2031  1.1523
  467MOL0     C64355   8.382   1.633   2.864  1.3108 -0.0897 -0.3615
  467MOL0     O64356   8.269   1.774   2.581  0.8504  0.4358  0.7976
  467MOL0     C64357   8.519   1.604   2.385 -1.0138  0.4654 -0.4266
  467MOL0     C64358   8.556   1.564   2.254  0.7747 -0.2882  0.2758
  467MOL0     N64359   8.479   1.422   1.435 -0.7370 -0.4459  0.5187
  467MOL0     N64360   8.529   1.385   1.320  0.6318 -0.0974 -0.5810
  467MOL0     C64361   7.666   1.350   0.956  0.0343 -0.2512 -0.1304
  467MOL0     C64362   7.647   1.468   0.881 -0.0049 -0.5280 -0.3088
  467MOL0     C64363   7.605   1.874   0.743 -0.4512 -0.3722 -0.4409
  467MOL0     C64364   7.630   1.960   0.858  0.5196 -0.7853  0.3030
  467MOL0     C64365   7.603   2.096   0.841  0.3265  0.2921 -0.6566
  467MOL0     C64366   7.542   2.152   0.736  0.0626  0.3976  0.6424
  467MOL0     O64367   7.532   2.286   0.719  0.4950  0.4790  0.0941
  467MOL0     C64368   7.519   2.372   0.829 -0.3050 -0.0445 -0.9190
  467MOL0     C64369   7.579   2.512   0.785  0.0313 -0.4298  0.8855
  467MOL0     C64370   7.545   2.623   0.897  0.7538  0.1934  0.0683
  467MOL0     C64371   7.583   2.762   0.856 -0.0483 -1.2364 -0.7523
  467MOL0     C64372   7.728   2.780   0.883  0.7077 -0.7605  0.2531
  467MOL0     C64373   7.851   2.801   0.889 -0.2090 -0.2588  0.5055
  467MOL0     C64374   7.518   2.069   0.629 -0.2940  0.1166 -0.2185
  467MOL0     C64375   7.532   1.932   0.634 -0.6107 -0.9952 -0.3965
  467MOL0     C64376   7.470   1.858   0.521 -0.6592 -0.3759 -0.5154
  467MOL0     H64377   7.922   1.637   0.969 -0.9000  0.0765 -0.0910
  467MOL0     H64378   7.982   1.406   1.063  0.4668 -1.3409 -0.5423
  467MOL0     H64379   7.691   1.175   1.228  0.3606 -1.1357  1.0411
  467MOL0     H64380   7.810   1.298   1.280 -2.1342  0.8525  0.4462
  467MOL0     H64381   7.881   1.097   1.393 -0.2104 -2.7308  0.4543
  467MOL0     H64382   7.864   1.001   1.247  3.7411  0.1625 -2.3553
  467MOL0     H64383   8.054   1.232   1.221  1.6811 -0.5070  0.1358
  467MOL0     H64384   8.089   1.119   1.350 -1.7215  2.8533  0.3544
  467MOL0     H64385   8.120   0.941   1.214  0.2031  1.4919  2.2608
  467MOL0     H64386   8.015   1.003   1.083  0.7584  3.1981 -1.7563
  467MOL0     H64387   8.159   1.187   1.033 -0.9153 -0.1964 -1.8806
  467MOL0     H64388   8.236   1.032   0.996 -1.9926 -0.4543  0.3553
  467MOL0     H64389   8.285   1.204   1.246 -0.1977 -0.4324  2.3296
  467MOL0     H64390   8.344   1.033   1.228  0.1315  2.0884  1.5073
  467MOL0     H64391   8.417   1.277   1.078  0.3420  0.1367 -0.2301
  467MOL0     H64392   8.472   1.106   1.027  1.3058 -0.2549  0.7423
  467MOL0     H64393   8.568   1.073   1.237  2.2263 -0.6546  0.9744
  467MOL0     H64394   8.647   1.219   1.163 -1.0974  1.0675  2.2564
  467MOL0     H64395   8.469   1.095   1.474  0.6488 -0.9840  0.7846
  467MOL0     H64396   8.421   1.201   1.688 -3.7565 -0.1423 -1.4496
  467MOL0     H64397   8.308   1.325   1.644 -0.8095 -2.1373 -1.1108
  467MOL0     H64398   8.593   1.402   1.722  0.5365 -1.2515  3.0315
  467MOL0     H64399   8.448   1.503   1.734  1.7931  1.5551  2.0373
  467MOL0     H64400   8.368   1.358   1.924 -1.4646 -0.6677 -2.0418
  467MOL0     H64401   8.511   1.253   1.894 -1.6518 -0.4584  3.8970
  467MOL0     H64402   8.574   1.371   2.067 -2.3136 -1.2210  0.3721
  467MOL0     H64403   8.651   1.456   1.934 -1.3817 -1.6438 -4.2023
  467MOL0     H64404   8.271   1.649   2.097 -0.7189 -0.3545 -0.3162
  467MOL0     H64405   8.120   1.754   2.402 -1.8630  2.8903 -0.1642
  467MOL0     H64406   8.109   1.715   2.237  0.6107  1.9907 -2.2952
  467MOL0     H64407   8.182   1.869   2.290 -0.8474  0.0507  0.2689
  467MOL0     H64408   8.644   1.799   2.746  0.1666  0.9518  0.9122
  467MOL0     H64409   8.660   1.878   2.968  1.0821 -0.8033 -1.6830
  467MOL0     H64410   8.424   1.638   3.274  0.7230 -3.1857  0.7839
  467MOL0     H64411   8.575   1.596   3.208 -0.9376 -0.1615  0.8673
  467MOL0     H64412   8.697   1.758   3.384  0.6603 -0.3391  3.2833
  467MOL0     H64413   8.544   1.844   3.386  0.1524 -0.6232 -0.2397
  467MOL0     H64414   8.576   1.553   3.479  0.4787  0.8755 -3.3337
  467MOL0     H64415   8.433   1.666   3.513 -0.5548 -0.5389 -0.0235
  467MOL0     H64416   8.587   1.796   3.655 -1.7697  0.9069 -1.0301
  467MOL0     H64417   8.728   1.704   3.595  0.0401  2.7714  0.9680
  467MOL0     H64418   8.504   1.652   3.788  0.1885 -0.8674 -1.3133
  467MOL0     H64419   8.600   1.509   3.741 -1.0114  0.8813 -0.3783
  467MOL0     H64420   8.747   1.744   3.852 -0.1602  0.9691  0.2682
  467MOL0     H64421   8.796   1.589   3.816  2.0349  3.6741  0.5751
  467MOL0     H64422   8.569   1.599   4.014  0.9878 -1.8268 -1.0944
  467MOL0     H64423   8.730   1.670   4.064  0.5782 -0.3727  0.3982
  467MOL0     H64424   8.670   1.398   3.973  0.4707 -0.0052 -0.7402
  467MOL0     H64425   8.708   1.436   4.136 -1.4289 -0.8722 -0.7971
  467MOL0     H64426   8.338   1.621   3.084  0.1981 -0.0480  1.2974
  467MOL0     H64427   8.303   1.567   2.831 -0.1439  0.7890  1.1624
  467MOL0     H64428   8.592   1.578   2.460  1.1933 -0.2613 -2.6766
  467MOL0     H64429   8.652   1.514   2.239  0.2160 -1.2932 -0.0568
  467MOL0     H64430   7.583   1.280   0.959 -0.5608  0.4466 -0.1250
  467MOL0     H64431   7.551   1.484   0.834 -0.8162 -2.7745  0.4826
  467MOL0     H64432   7.673   1.922   0.950 -1.3408 -0.1323  1.4984
  467MOL0     H64433   7.637   2.151   0.927 -0.3656  0.5167 -0.5231
  467MOL0     H64434   7.413   2.371   0.854  0.1503  4.4171  2.2882
  467MOL0     H64435   7.579   2.336   0.913  2.7916  2.2276 -1.9451
  467MOL0     H64436   7.531   2.538   0.690  0.5231  2.2573  1.2763
  467MOL0     H64437   7.685   2.495   0.767  0.0212 -2.0798  2.2068
  467MOL0     H64438   7.437   2.620   0.911  0.8479  0.0542  0.8159
  467MOL0     H64439   7.579   2.582   0.993 -1.0214 -3.6144 -0.7009
  467MOL0     H64440   7.532   2.830   0.926  1.5803 -0.5110 -0.2246
  467MOL0     H64441   7.540   2.785   0.758 -0.6226  0.1112 -0.2177
  467MOL0     H64442   7.955   2.820   0.905  0.2952 -1.1099 -1.4356
  467MOL0     H64443   7.478   2.115   0.538 -1.9583  0.3824  0.6096
  467MOL0     H64444   7.415   1.936   0.467 -2.1760  0.9445  2.6907
  467MOL0     H64445   7.551   1.811   0.465 -0.0152 -1.0793  0.9821
  467MOL0     H64446   7.393   1.784   0.546 -1.0484 -0.8367 -2.8211
  468MOL0     O64447  10.777   5.903   8.307 -0.5738 -0.2374  0.6615
  468MOL0     C64448  10.862   5.994   8.309  0.2180  0.4158 -0.1659
  468MOL0     O64449  10.971   5.998   8.224  0.6568 -0.9571 -0.4424
  468MOL0     C64450  10.975   5.900   8.125  0.8634 -0.1185  0.2144
  468MOL0     C64451  10.979   5.762   8.163  0.1099  0.0888  0.2567
  468MOL0     C64452  10.984   5.659   8.061 -0.3016  0.1250  0.7377
  468MOL0     C64453  10.984   5.697   7.930 -0.0141 -0.0486  0.2496
  468MOL0     O64454  10.997   5.598   7.834 -0.5905 -0.3161  0.1651
  468MOL0     C64455  11.068   5.633   7.714 -0.6246  0.2235 -0.2101
  468MOL0     C64456  11.095   5.507   7.630 -0.1070 -1.2300  0.6050
  468MOL0     C64457  10.973   5.451   7.539 -0.8061 -0.1635 -0.5889
  468MOL0     C64458  10.998   5.295   7.551 -0.1535 -0.8862  0.3319
  468MOL0     C64459  10.892   5.211   7.479  1.0799  0.5099 -0.4938
  468MOL0     C64460  10.748   5.235   7.528  0.0052 -0.5006  0.2531
  468MOL0     C64461  10.708   5.227   7.675  0.4676 -0.4662 -0.4888
  468MOL0     C64462  10.764   5.099   7.757  0.7109 -1.1603 -0.3501
  468MOL0     N64463  10.750   4.964   7.701 -0.8000 -0.3077 -0.3540
  468MOL0     C64464  10.630   4.891   7.696 -0.2377 -0.8181  0.5328
  468MOL0     C64465  10.662   4.763   7.660  0.7006  0.5615  1.3408
  468MOL0     C64466  10.576   4.635   7.652  0.0540 -1.0843  0.4032
  468MOL0     C64467  10.478   4.623   7.782 -0.1717  0.1728 -0.1334
  468MOL0     C64468  10.480   4.479   7.839  0.0885 -0.7962  0.0500
  468MOL0     C64469  10.369   4.465   7.947  0.6975 -0.7140  0.2217
  468MOL0     O64470  10.383   4.349   8.033 -0.3239  0.0103 -0.4107
  468MOL0     C64471  10.323   4.361   8.156 -0.0180  0.0000 -0.1392
  468MOL0     C64472  10.187   4.331   8.170  0.3362 -1.2287  0.0095
  468MOL0     C64473  10.121   4.325   8.290  0.1214 -0.4172  1.2607
  468MOL0     C64474   9.966   4.298   8.289  0.1078  0.3898 -0.4794
  468MOL0     C64475  10.199   4.356   8.408 -0.4053 -0.2358 -1.4053
  468MOL0     C64476  10.151   4.355   8.545  0.3519 -0.8161  0.8602
  468MOL0     O64477  10.220   4.439   8.627 -0.8105 -0.5067  0.3600
  468MOL0     C64478  10.174   4.477   8.753  0.0836 -0.4702 -0.3829
  468MOL0     C64479  10.045   4.519   8.771 -0.5001  0.5387  0.5982
  468MOL0     C64480  10.007   4.570   8.895  0.3708 -0.4215  0.7820
  468MOL0     C64481  10.087   4.570   9.001 -1.2908 -0.1903  0.0789
  468MOL0     O64482  10.037   4.597   9.126 -0.0263  0.6934 -0.0495
  468MOL0     C64483  10.124   4.583   9.242 -0.9087 -1.1271  0.1649
  468MOL0     C64484  10.045   4.592   9.370  0.0753 -0.7304  0.2059
  468MOL0     C64485   9.972   4.721   9.387 -0.6710  0.1291  0.1393
  468MOL0     C64486   9.921   4.756   9.533  0.0114  0.2328 -1.1928
  468MOL0     C64487   9.853   4.898   9.554  0.6900 -1.1105 -0.4311
  468MOL0     C64488   9.698   4.905   9.517 -0.6990 -0.1959 -0.1406
  468MOL0     C64489   9.645   5.053   9.516 -0.7882  0.1196 -0.7850
  468MOL0     C64490   9.503   5.068   9.467  0.0390 -0.2726  0.1217
  468MOL0    Cl64491   9.450   5.240   9.463 -0.2300 -0.0225  0.0945
  468MOL0     C64492  10.224   4.542   8.976  0.1674  0.3224 -0.9312
  468MOL0     C64493  10.273   4.498   8.854 -0.9762  0.0901 -0.2698
  468MOL0     O64494  10.048   4.290   8.575 -0.0871  0.1948 -0.2654
  468MOL0     C64495  10.331   4.396   8.394 -0.0411  0.2367 -0.0846
  468MOL0     C64496  10.399   4.388   8.273  0.1065  0.7510 -0.5811
  468MOL0     N64497  10.791   4.764   7.632  0.7963  0.0167 -0.2440
  468MOL0     N64498  10.846   4.883   7.657  0.7699  0.4734  0.7616
  468MOL0     C64499  10.984   5.828   7.901  0.4450 -0.6052  0.3778
  468MOL0     C64500  10.978   5.929   7.994  0.3123 -0.2931 -0.1712
  468MOL0     C64501  10.851   6.105   8.408 -0.7462 -0.3733  0.0684
  468MOL0     C64502  10.738   6.114   8.485 -0.5030 -0.6784  0.5865
  468MOL0     C64503  10.723   6.210   8.584  0.3940 -0.0974  0.5215
  468MOL0     C64504  10.820   6.308   8.606  0.0460  0.4445 -0.7011
  468MOL0     O64505  10.789   6.390   8.719  0.4325 -0.6556  0.4766
  468MOL0     C64506  10.849   6.525   8.715 -0.6632  0.6091  0.6162
  468MOL0     C64507  10.769   6.621   8.624  0.1030 -0.6918 -0.3129
  468MOL0     C64508  10.848   6.742   8.598 -0.0697  0.3899 -0.2123
  468MOL0     C64509  10.798   6.839   8.492 -0.3920 -0.9846 -0.6397
  468MOL0     C64510  10.894   6.951   8.470 -0.1123 -0.4555 -0.6125
  468MOL0     C64511  10.980   7.034   8.471  0.0320  0.1778 -0.0604
  468MOL0     C64512  10.934   6.305   8.529 -0.7788  0.0214  1.5294
  468MOL0     C64513  10.954   6.208   8.431  0.9385  0.2320  0.0876
  468MOL0     C64514  11.091   6.211   8.361  0.2349 -0.8110 -0.2476
  468MOL0     H64515  10.975   5.733   8.268 -0.2875 -1.5262 -0.1644
  468MOL0     H64516  11.004   5.555   8.084  0.8099  0.8071  3.2057
  468MOL0     H64517  11.167   5.665   7.747  1.0949 -1.4381 -3.2723
  468MOL0     H64518  11.026   5.716   7.656  0.4084 -1.9779 -4.5783
  468MOL0     H64519  11.155   5.566   7.560 -1.7012  0.7973  0.8667
  468MOL0     H64520  11.143   5.433   7.695 -1.6989 -1.8964  1.0905
  468MOL0     H64521  10.878   5.468   7.591  1.3401  0.1451  3.6966
  468MOL0     H64522  10.972   5.474   7.432 -0.5262  2.5092 -0.0854
  468MOL0     H64523  11.091   5.265   7.501  1.1116  0.5515  1.7360
  468MOL0     H64524  11.001   5.261   7.655  0.9807 -0.9816  0.2808
  468MOL0     H64525  10.930   5.109   7.490 -1.8116 -0.8935 -2.2750
  468MOL0     H64526  10.883   5.230   7.371 -2.4183  0.0761 -0.4029
  468MOL0     H64527  10.728   5.332   7.481 -0.3874  1.2022  3.6222
  468MOL0     H64528  10.687   5.171   7.463 -1.7908  1.4285 -0.0876
  468MOL0     H64529  10.599   5.229   7.681  0.3963  4.6323  1.6550
  468MOL0     H64530  10.742   5.322   7.718 -1.8982 -0.1222  0.7645
  468MOL0     H64531  10.872   5.110   7.764  0.8395 -2.2543 -0.3953
  468MOL0     H64532  10.723   5.092   7.858  1.8334  1.2446  0.3429
  468MOL0     H64533  10.531   4.924   7.726 -0.2880 -1.7651  1.4837
  468MOL0     H64534  10.651   4.556   7.643  2.9063  1.6611 -2.4098
  468MOL0     H64535  10.515   4.634   7.561 -1.6504 -2.2011  1.4988
  468MOL0     H64536  10.524   4.688   7.857  0.6604  2.0753 -2.1605
  468MOL0     H64537  10.376   4.646   7.749 -0.4777 -1.2267 -0.2296
  468MOL0     H64538  10.474   4.397   7.767  1.4829 -1.5745  0.7555
  468MOL0     H64539  10.578   4.459   7.884  0.1210  3.4654  2.3884
  468MOL0     H64540  10.382   4.549   8.016 -0.7756 -1.1930  1.1011
  468MOL0     H64541  10.270   4.473   7.902  0.1071 -0.9108  1.4693
  468MOL0     H64542  10.150   4.299   8.073 -1.7234 -0.4894  0.5011
  468MOL0     H64543   9.933   4.272   8.188  2.2563 -2.3314 -0.6048
  468MOL0     H64544   9.916   4.390   8.321  0.0378  1.2723 -2.9269
  468MOL0     H64545   9.935   4.207   8.342 -0.8712 -1.1760 -3.5319
  468MOL0     H64546   9.967   4.525   8.696 -3.4762 -2.8006  3.0774
  468MOL0     H64547   9.908   4.610   8.916  1.2016  2.6470 -0.5634
  468MOL0     H64548  10.206   4.511   9.240 -0.8156 -1.0638  1.1192
  468MOL0     H64549  10.188   4.671   9.225  2.2447 -3.7224 -3.1298
  468MOL0     H64550   9.971   4.513   9.386 -1.4114  0.4662 -0.4980
  468MOL0     H64551  10.115   4.574   9.451 -0.7847 -1.2961  0.8421
  468MOL0     H64552   9.881   4.711   9.326 -0.6659 -2.8113  0.4270
  468MOL0     H64553  10.030   4.800   9.338 -0.5450 -0.4630 -0.7012
  468MOL0     H64554  10.012   4.742   9.592  0.0355  0.3831 -1.1948
  468MOL0     H64555   9.849   4.676   9.550  1.5958 -0.8348  0.9808
  468MOL0     H64556   9.849   4.933   9.657 -1.4001  1.8742 -1.3996
  468MOL0     H64557   9.914   4.961   9.489  1.0410 -0.5948  0.3940
  468MOL0     H64558   9.647   4.843   9.591 -0.7461 -0.1497 -0.1342
  468MOL0     H64559   9.670   4.863   9.420  0.0420  3.3668 -2.0878
  468MOL0     H64560   9.707   5.119   9.454 -0.8358 -0.2978 -1.2807
  468MOL0     H64561   9.657   5.091   9.618  0.1077 -0.8078 -0.5211
  468MOL0     H64562   9.438   5.014   9.536  1.0354 -0.3997  0.9977
  468MOL0     H64563   9.484   5.014   9.374  0.4554  1.1861 -0.8536
  468MOL0     H64564  10.306   4.541   9.049  0.2403  2.7511 -0.8757
  468MOL0     H64565  10.378   4.478   8.841 -1.0321 -0.2797 -0.1894
  468MOL0     H64566  10.395   4.432   8.474 -1.4154  0.4439  0.9542
  468MOL0     H64567  10.504   4.414   8.281  1.0031 -2.8564  2.0569
  468MOL0     H64568  10.973   5.851   7.796 -2.7282 -0.3538  0.6590
  468MOL0     H64569  10.986   6.033   7.963  2.4776  0.6164  2.9830
  468MOL0     H64570  10.668   6.031   8.474  1.2436 -2.2843  1.0488
  468MOL0     H64571  10.632   6.207   8.643  1.3153 -0.5424  1.9779
  468MOL0     H64572  10.845   6.559   8.819 -2.5616 -3.7416  2.1991
  468MOL0     H64573  10.950   6.514   8.675 -0.1678 -3.8068  2.4467
  468MOL0     H64574  10.678   6.645   8.681  1.6536  1.5180  1.3592
  468MOL0     H64575  10.737   6.581   8.527 -0.9390  1.8912 -1.1257
  468MOL0     H64576  10.851   6.801   8.690 -2.6780  0.6102 -0.1841
  468MOL0     H64577  10.949   6.710   8.573  0.4348 -0.5164  2.6119
  468MOL0     H64578  10.703   6.881   8.524 -0.4063 -1.2906 -0.2856
  468MOL0     H64579  10.774   6.794   8.396  0.1339  0.0287 -1.2745
  468MOL0     H64580  11.069   7.092   8.483  0.3622 -0.1554 -0.8535
  468MOL0     H64581  11.015   6.376   8.546 -2.7000  2.9627 -0.6294
  468MOL0     H64582  11.144   6.117   8.379  1.7189  0.2909  1.6593
  468MOL0     H64583  11.070   6.219   8.254 -0.1876 -2.9031 -0.3642
  468MOL0     H64584  11.155   6.293   8.395 -0.5326 -1.5874  3.5364
  469MOL0     O64585   2.619   2.352   7.642  0.6607  0.4350 -0.0672
  469MOL0     C64586   2.719   2.417   7.609 -0.3091  0.7942  0.3565
  469MOL0     O64587   2.848   2.364   7.598 -0.1758 -0.3085 -0.3313
  469MOL0     C64588   2.858   2.225   7.596  0.7072  0.2418  0.0010
  469MOL0     C64589   2.927   2.139   7.688  0.2434 -0.3694  0.2411
  469MOL0     C64590   2.927   1.999   7.684  0.2968  0.0219 -0.4475
  469MOL0     C64591   2.853   1.937   7.586  0.8919 -0.4029  0.7708
  469MOL0     O64592   2.856   1.802   7.578  0.7618 -0.2946 -0.6398
  469MOL0     C64593   2.760   1.731   7.501 -1.0430  0.4850  0.3157
  469MOL0     C64594   2.623   1.713   7.564  0.4244  0.8399 -0.9091
  469MOL0     C64595   2.637   1.596   7.672  0.8667  0.0490 -0.1332
  469MOL0     C64596   2.491   1.551   7.719  0.2701 -0.4607  0.0696
  469MOL0     C64597   2.484   1.408   7.782 -1.2991  0.1679  1.1541
  469MOL0     C64598   2.339   1.340   7.813 -0.6028  1.0437  0.7354
  469MOL0     C64599   2.270   1.424   7.921 -0.0288  0.8567  1.2721
  469MOL0     C64600   2.146   1.358   7.975 -0.1065  0.5088  0.3054
  469MOL0     N64601   2.048   1.340   7.874  0.6369  0.7108 -0.0452
  469MOL0     C64602   2.013   1.417   7.765 -0.4816  0.0798 -1.0804
  469MOL0     C64603   1.920   1.337   7.710 -0.2088 -0.8039  0.1618
  469MOL0     C64604   1.826   1.377   7.596 -0.0462 -0.0348 -0.6097
  469MOL0     C64605   1.682   1.418   7.645 -0.2640  0.4777 -0.5389
  469MOL0     C64606   1.597   1.492   7.536  0.1728 -0.1210 -0.0697
  469MOL0     C64607   1.637   1.642   7.493 -0.7472 -0.2773  1.2174
  469MOL0     O64608   1.761   1.643   7.431  0.1339 -0.3284 -0.1244
  469MOL0     C64609   1.780   1.713   7.317  0.0282 -0.3771  0.0866
  469MOL0     C64610   1.877   1.672   7.231 -0.4312  0.8917 -0.0801
  469MOL0     C64611   1.902   1.731   7.105 -0.7229  0.3353  1.0007
  469MOL0     C64612   2.018   1.692   7.014  0.1571  0.6874 -0.3265
  469MOL0     C64613   1.828   1.845   7.068  0.5958 -0.2965 -0.4131
  469MOL0     C64614   1.809   1.913   6.936  0.1070  0.1532  0.0254
  469MOL0     O64615   1.724   2.026   6.927  0.3278 -0.1203 -0.1351
  469MOL0     C64616   1.727   2.092   6.815 -0.1290 -0.1471  0.6595
  469MOL0     C64617   1.756   2.225   6.818 -1.1934 -0.7143 -0.2489
  469MOL0     C64618   1.752   2.300   6.698 -0.3440 -0.1243  0.1860
  469MOL0     C64619   1.725   2.246   6.580  0.6719 -0.3027 -0.9683
  469MOL0     O64620   1.743   2.320   6.470  0.1168  0.0944 -0.1924
  469MOL0     C64621   1.830   2.258   6.371  0.7655 -0.6065 -0.9719
  469MOL0     C64622   1.902   2.374   6.303  0.7357  0.4065  0.0667
  469MOL0     C64623   2.014   2.329   6.220  1.0390  0.4066  0.4843
  469MOL0     C64624   2.151   2.298   6.290 -0.5353  0.5656 -0.6013
  469MOL0     C64625   2.277   2.272   6.216 -0.8258  0.1614 -0.0552
  469MOL0     C64626   2.295   2.348   6.079 -0.0515 -0.2897 -0.2415
  469MOL0     C64627   2.421   2.301   5.997 -0.4591 -0.1925 -0.4613
  469MOL0     C64628   2.512   2.419   5.972 -0.4370 -0.0131 -1.2082
  469MOL0    Cl64629   2.588   2.473   6.135 -0.3498  0.1373  0.7407
  469MOL0     C64630   1.678   2.114   6.574  0.0877 -0.1432 -0.0063
  469MOL0     C64631   1.676   2.039   6.692  1.2675  0.7116 -0.2832
  469MOL0     O64632   1.875   1.869   6.846 -0.1286  0.1739  0.3123
  469MOL0     C64633   1.734   1.894   7.167 -0.3992  0.6155  0.4052
  469MOL0     C64634   1.706   1.828   7.290  0.7167 -0.6093 -0.8488
  469MOL0     N64635   1.896   1.213   7.779  0.8289 -0.0249  0.1270
  469MOL0     N64636   1.970   1.225   7.878 -0.9271  0.8934  0.1819
  469MOL0     C64637   2.779   2.016   7.500 -0.2862 -0.7091  0.6864
  469MOL0     C64638   2.782   2.153   7.501 -0.2722 -0.6674  0.5997
  469MOL0     C64639   2.710   2.556   7.568  0.1537 -0.9491  0.4810
  469MOL0     C64640   2.811   2.645   7.613 -0.1534  0.7204  0.0090
  469MOL0     C64641   2.815   2.777   7.565 -0.4060 -0.2724 -1.3492
  469MOL0     C64642   2.705   2.833   7.493  0.2201 -0.4232  0.6166
  469MOL0     O64643   2.688   2.963   7.434 -0.8681  0.1843 -0.3713
  469MOL0     C64644   2.764   3.062   7.499 -0.4623 -0.4241 -0.0687
  469MOL0     C64645   2.700   3.194   7.483  0.4354 -0.8591 -0.7983
  469MOL0     C64646   2.577   3.223   7.576  0.0743 -0.5318 -0.8464
  469MOL0     C64647   2.613   3.224   7.727 -0.6377  0.2682  0.2467
  469MOL0     C64648   2.496   3.284   7.803 -1.5023 -0.1116  1.2900
  469MOL0     C64649   2.418   3.332   7.879  0.5168  0.5487  0.6323
  469MOL0     C64650   2.603   2.745   7.461  0.7596 -1.0120 -0.0590
  469MOL0     C64651   2.604   2.610   7.488 -0.1737  1.2021 -0.8525
  469MOL0     C64652   2.494   2.518   7.420 -0.0374  0.1574 -0.0690
  469MOL0     H64653   2.981   2.194   7.764  0.0854 -2.8337  2.2594
  469MOL0     H64654   2.983   1.935   7.753 -0.6963 -1.8778 -1.3136
  469MOL0     H64655   2.805   1.632   7.486  2.3494  2.2784 -3.1885
  469MOL0     H64656   2.748   1.763   7.397  0.8855 -1.2746 -0.5221
  469MOL0     H64657   2.583   1.802   7.613  0.6040 -0.1262  1.0785
  469MOL0     H64658   2.551   1.692   7.484 -1.6667  0.0874  1.0738
  469MOL0     H64659   2.679   1.507   7.624  3.4925  1.5731 -0.8668
  469MOL0     H64660   2.710   1.623   7.749  0.7863 -1.8854  0.6909
  469MOL0     H64661   2.441   1.622   7.785 -1.2698  0.5863 -2.1309
  469MOL0     H64662   2.432   1.548   7.627 -1.7758 -2.3082  1.3676
  469MOL0     H64663   2.535   1.420   7.878 -0.1118  1.0432  0.4523
  469MOL0     H64664   2.530   1.337   7.712 -1.5694 -0.6737  1.8164
  469MOL0     H64665   2.288   1.337   7.717  3.1416  2.5154 -1.5134
  469MOL0     H64666   2.355   1.236   7.841  2.5624  1.0409 -0.7012
  469MOL0     H64667   2.244   1.522   7.880  1.8103  0.8433 -0.0394
  469MOL0     H64668   2.335   1.447   8.007 -0.9352 -0.9799  2.4988
  469MOL0     H64669   2.180   1.259   8.006  4.3676  0.2339 -4.1959
  469MOL0     H64670   2.111   1.417   8.060  1.6852  1.7377  0.2518
  469MOL0     H64671   2.054   1.515   7.740  0.9826  0.0574  1.0026
  469MOL0     H64672   1.819   1.293   7.526 -1.8166  1.3773 -2.2046
  469MOL0     H64673   1.875   1.457   7.540  2.2330  1.1623  2.7177
  469MOL0     H64674   1.636   1.324   7.677  0.8198 -0.0038 -0.3338
  469MOL0     H64675   1.687   1.473   7.740  4.5278  1.1582 -0.9252
  469MOL0     H64676   1.579   1.429   7.448  1.6527  1.6431 -1.7512
  469MOL0     H64677   1.502   1.499   7.588  0.0153  1.7059 -0.5089
  469MOL0     H64678   1.561   1.699   7.438 -0.3117  0.9644  1.8459
  469MOL0     H64679   1.648   1.698   7.587  2.6735  0.9172  0.2228
  469MOL0     H64680   1.948   1.596   7.262  0.6865  1.2078 -1.7462
  469MOL0     H64681   1.976   1.636   6.930 -3.6801 -2.6922  3.3965
  469MOL0     H64682   2.077   1.610   7.057 -2.3173 -3.1829 -3.5615
  469MOL0     H64683   2.077   1.779   6.984 -1.8138  2.3617  0.4267
  469MOL0     H64684   1.807   2.268   6.903 -1.7163 -1.2510  0.3529
  469MOL0     H64685   1.804   2.396   6.692 -0.0217 -0.3222 -0.2697
  469MOL0     H64686   1.895   2.185   6.419 -1.0805 -1.4170  0.4333
  469MOL0     H64687   1.789   2.197   6.290  0.1393 -4.5760  2.0301
  469MOL0     H64688   1.830   2.430   6.242 -2.7135  0.5425  3.8068
  469MOL0     H64689   1.948   2.437   6.379 -0.5818 -1.1739  2.3312
  469MOL0     H64690   2.034   2.413   6.152  2.2094  2.2822  2.9959
  469MOL0     H64691   1.983   2.239   6.166 -3.0411  0.7280  1.8901
  469MOL0     H64692   2.134   2.204   6.343 -0.5259  0.6715 -0.4092
  469MOL0     H64693   2.174   2.371   6.368  0.3575  3.0595 -2.9934
  469MOL0     H64694   2.357   2.295   6.287 -1.4662  0.7807  0.4833
  469MOL0     H64695   2.279   2.164   6.198 -0.4726 -0.7002  4.0887
  469MOL0     H64696   2.313   2.454   6.097 -0.1595 -0.3211  0.0509
  469MOL0     H64697   2.204   2.340   6.018 -0.9249 -1.0630  1.1079
  469MOL0     H64698   2.407   2.264   5.895 -1.0605 -3.0392  0.5751
  469MOL0     H64699   2.478   2.231   6.058 -1.7348  1.1074  2.3920
  469MOL0     H64700   2.467   2.501   5.915 -2.7734 -1.3028 -1.3547
  469MOL0     H64701   2.592   2.385   5.905  2.0764  1.1906  1.0301
  469MOL0     H64702   1.660   2.067   6.478  0.1427 -0.6867  0.2454
  469MOL0     H64703   1.647   1.935   6.702  1.8016  0.5729 -0.1140
  469MOL0     H64704   1.693   1.992   7.150 -1.7929  1.1252  5.1861
  469MOL0     H64705   1.642   1.866   7.368  0.1331  0.7087 -1.9272
  469MOL0     H64706   2.718   1.973   7.421  1.8778  0.2371 -1.6696
  469MOL0     H64707   2.732   2.203   7.419 -1.5823 -2.3432  0.3161
  469MOL0     H64708   2.899   2.602   7.660 -1.1715 -1.2894  0.1739
  469MOL0     H64709   2.905   2.835   7.585 -0.5658 -0.5235  0.2116
  469MOL0     H64710   2.784   3.037   7.604  3.2961 -1.1028 -0.7907
  469MOL0     H64711   2.859   3.076   7.446  0.6779 -0.2755  1.9069
  469MOL0     H64712   2.664   3.210   7.381  3.0873 -1.2969 -1.8744
  469MOL0     H64713   2.777   3.268   7.506 -1.0458  0.0746  1.6137
  469MOL0     H64714   2.531   3.319   7.550  0.8800  0.8189  2.2200
  469MOL0     H64715   2.511   3.138   7.561 -0.3891 -0.5738  1.1144
  469MOL0     H64716   2.708   3.277   7.731  2.1791 -3.6390 -4.4150
  469MOL0     H64717   2.639   3.123   7.763 -2.1582 -1.8447 -3.9015
  469MOL0     H64718   2.339   3.372   7.939 -0.6908  2.4488 -2.0157
  469MOL0     H64719   2.522   2.774   7.394  0.1127 -0.6464  0.8676
  469MOL0     H64720   2.482   2.554   7.318  2.9939 -1.3191 -1.0737
  469MOL0     H64721   2.525   2.415   7.398 -0.3824  0.6819 -3.6812
  469MOL0     H64722   2.404   2.533   7.480  0.7275 -1.4420  1.5726
  470MOL0     O64723   3.357   1.614   6.457  0.4591 -0.6096  0.3300
  470MOL0     C64724   3.425   1.513   6.462 -0.6572  0.2021 -0.0387
  470MOL0     O64725   3.536   1.492   6.546 -0.9443 -0.2856  0.4028
  470MOL0     C64726   3.565   1.578   6.648  0.1703 -0.0281 -0.3108
  470MOL0     C64727   3.593   1.710   6.621 -0.3451  0.2295 -0.8222
  470MOL0     C64728   3.654   1.787   6.720  0.1584 -0.1770  0.6663
  470MOL0     C64729   3.692   1.728   6.846 -0.4254 -0.3654  0.1775
  470MOL0     O64730   3.752   1.800   6.949 -0.3245  0.1054  0.1627
  470MOL0     C64731   3.713   1.934   6.961 -0.2394 -0.6677 -0.0971
  470MOL0     C64732   3.819   2.004   7.036 -0.1101 -0.4612 -1.3662
  470MOL0     C64733   3.916   2.066   6.934  0.6307 -0.7886 -0.3869
  470MOL0     C64734   4.002   1.989   6.834 -0.0998 -0.2940  0.5396
  470MOL0     C64735   4.087   2.084   6.739 -1.0105 -0.1497  0.0517
  470MOL0     C64736   4.193   2.004   6.654 -0.4694  0.1940 -0.9762
  470MOL0     C64737   4.141   1.950   6.520 -0.2790 -0.1068  0.0770
  470MOL0     C64738   4.247   1.895   6.420  0.4178 -0.0822  0.4113
  470MOL0     N64739   4.196   1.868   6.286 -1.0683  0.3568  0.6586
  470MOL0     C64740   4.238   1.764   6.203 -1.0450  0.4017 -0.9822
  470MOL0     C64741   4.173   1.783   6.084 -0.9194  0.1154  0.3042
  470MOL0     C64742   4.201   1.719   5.948  0.4138 -0.5495  0.2737
  470MOL0     C64743   4.120   1.600   5.914  0.5741 -1.3358 -0.3940
  470MOL0     C64744   3.977   1.643   5.913  0.2515  0.3326 -0.6278
  470MOL0     C64745   3.903   1.537   5.842  0.1085 -0.1404 -0.2010
  470MOL0     O64746   3.920   1.578   5.702 -0.3143  0.2001 -0.6439
  470MOL0     C64747   3.836   1.522   5.608 -0.5868  0.2784 -0.7793
  470MOL0     C64748   3.751   1.406   5.628  0.6443 -0.4636 -0.4568
  470MOL0     C64749   3.672   1.359   5.525 -1.1500  0.2427 -0.4886
  470MOL0     C64750   3.587   1.236   5.544  0.7681 -0.2942 -0.5284
  470MOL0     C64751   3.679   1.418   5.397 -0.8914  0.6923 -0.2786
  470MOL0     C64752   3.596   1.371   5.280 -0.5147 -0.6543 -0.3845
  470MOL0     O64753   3.659   1.350   5.164  0.0796  0.4529  0.6694
  470MOL0     C64754   3.593   1.314   5.045 -0.4749 -0.4062 -0.6406
  470MOL0     C64755   3.500   1.206   5.039 -0.5178 -0.1735 -0.7631
  470MOL0     C64756   3.430   1.171   4.925 -0.5234  0.3774  0.2371
  470MOL0     C64757   3.456   1.237   4.806  1.3699  0.0782  0.3059
  470MOL0     O64758   3.383   1.171   4.704 -0.0922 -0.8428  0.3842
  470MOL0     C64759   3.343   1.266   4.599 -0.1574  0.2413  0.9096
  470MOL0     C64760   3.200   1.234   4.552 -0.4394  0.4980  0.0478
  470MOL0     C64761   3.082   1.286   4.641 -0.4395  0.2776 -0.7493
  470MOL0     C64762   3.079   1.443   4.620 -0.0972  0.3888  1.0291
  470MOL0     C64763   2.953   1.505   4.658 -0.0165  0.1179 -0.9029
  470MOL0     C64764   2.950   1.654   4.676  0.4722 -0.5314  0.2766
  470MOL0     C64765   2.808   1.714   4.706 -0.3346  0.1802  0.4319
  470MOL0     C64766   2.826   1.846   4.777  0.0398 -0.9188  0.7138
  470MOL0    Cl64767   2.844   1.968   4.635 -0.5969  0.8752  0.1042
  470MOL0     C64768   3.552   1.337   4.802  0.7354 -0.6864  0.1790
  470MOL0     C64769   3.616   1.385   4.925 -0.1861  1.3017  0.1073
  470MOL0     O64770   3.477   1.391   5.288  0.4005  1.1497 -0.4905
  470MOL0     C64771   3.763   1.524   5.378  0.1300  0.2533  0.6004
  470MOL0     C64772   3.838   1.575   5.480  0.1263 -0.5345 -0.2589
  470MOL0     N64773   4.091   1.895   6.106 -0.1712 -0.2513 -0.3874
  470MOL0     N64774   4.096   1.928   6.228  0.3882  0.5247 -0.0607
  470MOL0     C64775   3.669   1.595   6.861 -0.1841 -1.0726 -0.4798
  470MOL0     C64776   3.606   1.523   6.772  0.3861  0.2723  0.2611
  470MOL0     C64777   3.387   1.402   6.377  0.0775  0.0150 -0.6824
  470MOL0     C64778   3.314   1.427   6.255 -0.1146 -0.2998  0.4634
  470MOL0     C64779   3.281   1.321   6.165 -0.3958  0.7296 -0.0546
  470MOL0     C64780   3.346   1.197   6.176 -0.6971  0.4154  0.5270
  470MOL0     O64781   3.343   1.085   6.089  0.4279  0.5176  0.2755
  470MOL0     C64782   3.211   1.075   6.022 -0.6708 -0.2121  0.2874
  470MOL0     C64783   3.182   0.938   5.977  0.1958 -0.6780 -0.2826
  470MOL0     C64784   3.288   0.885   5.883  0.2344 -0.6158 -0.4682
  470MOL0     C64785   3.267   0.733   5.852 -0.3842 -1.3373 -0.1104
  470MOL0     C64786   3.381   0.679   5.783  0.7143  0.1260  0.2130
  470MOL0     C64787   3.479   0.613   5.752 -1.0606 -0.7336  0.1495
  470MOL0     C64788   3.423   1.170   6.291 -0.7492  0.1239  0.2452
  470MOL0     C64789   3.442   1.269   6.385 -0.5381  0.5736  0.5599
  470MOL0     C64790   3.520   1.228   6.505 -0.6248  0.9507  0.2624
  470MOL0     H64791   3.560   1.761   6.531 -1.3804  0.3087 -0.4096
  470MOL0     H64792   3.690   1.887   6.695 -2.7062  0.2946 -2.2729
  470MOL0     H64793   3.620   1.934   7.019 -0.9386 -1.3040 -1.2016
  470MOL0     H64794   3.704   1.989   6.867  0.4620  1.9888  1.2864
  470MOL0     H64795   3.773   2.085   7.093  2.1177 -0.3808  0.4425
  470MOL0     H64796   3.885   1.945   7.100  1.1118 -0.8055 -2.8818
  470MOL0     H64797   3.862   2.142   6.878  2.4035 -0.4657 -1.7262
  470MOL0     H64798   3.989   2.119   6.997  0.6488 -2.8980  1.5371
  470MOL0     H64799   4.072   1.925   6.887  0.9254  1.1471  0.9877
  470MOL0     H64800   3.926   1.932   6.779 -2.0630 -0.1721  2.9655
  470MOL0     H64801   4.137   2.164   6.795  1.0920 -1.1269 -0.3083
  470MOL0     H64802   4.015   2.134   6.675  0.7006  1.2185 -0.8914
  470MOL0     H64803   4.281   2.065   6.631 -0.9129  0.7483 -1.2303
  470MOL0     H64804   4.234   1.917   6.707  2.1216  1.3450 -0.9583
  470MOL0     H64805   4.086   2.038   6.482  2.5488  2.1029  0.7669
  470MOL0     H64806   4.065   1.874   6.538 -0.7304 -0.1437 -1.7080
  470MOL0     H64807   4.321   1.973   6.401  0.6471 -0.1999  0.8268
  470MOL0     H64808   4.295   1.807   6.464  0.1143 -0.8948 -0.8384
  470MOL0     H64809   4.322   1.697   6.220 -2.1051 -0.7402 -0.1180
  470MOL0     H64810   4.306   1.692   5.936  0.4133 -0.7915  0.8107
  470MOL0     H64811   4.175   1.796   5.874 -0.1251 -1.9577 -1.0758
  470MOL0     H64812   4.162   1.566   5.819  0.5994 -0.6537 -0.6302
  470MOL0     H64813   4.140   1.525   5.991 -0.2879 -0.1377  1.0647
  470MOL0     H64814   3.932   1.648   6.013  4.0851 -2.9072  1.5746
  470MOL0     H64815   3.967   1.738   5.861  1.9576  0.4016 -0.8601
  470MOL0     H64816   3.949   1.440   5.865 -2.9823 -1.6527  0.1075
  470MOL0     H64817   3.798   1.540   5.872 -0.1869  4.5983 -1.0138
  470MOL0     H64818   3.741   1.363   5.727 -0.4572 -0.2911 -0.4799
  470MOL0     H64819   3.605   1.162   5.465  0.9808 -1.6406  0.7329
  470MOL0     H64820   3.479   1.252   5.555  0.8657 -0.3496  0.6345
  470MOL0     H64821   3.610   1.183   5.637 -1.2195 -0.6126 -0.1757
  470MOL0     H64822   3.472   1.147   5.126  0.3421  1.3178  0.5699
  470MOL0     H64823   3.373   1.079   4.920 -1.3916  0.9434 -3.2489
  470MOL0     H64824   3.334   1.371   4.631  1.2303  0.7204 -0.1661
  470MOL0     H64825   3.412   1.255   4.515 -1.5479  1.8460 -0.5247
  470MOL0     H64826   3.197   1.274   4.451 -0.9398 -4.2037 -2.0366
  470MOL0     H64827   3.187   1.129   4.524 -0.0220  1.0331 -2.3390
  470MOL0     H64828   3.092   1.256   4.746 -1.0848 -2.6727 -1.4412
  470MOL0     H64829   2.987   1.245   4.605 -0.1776 -0.3226 -0.7635
  470MOL0     H64830   3.087   1.471   4.514  2.8133  0.6766  1.2497
  470MOL0     H64831   3.168   1.480   4.672  0.8585 -0.8833  0.3255
  470MOL0     H64832   2.894   1.465   4.575  1.9423 -0.4576 -2.0603
  470MOL0     H64833   2.918   1.463   4.753 -0.8411  0.1868 -1.1693
  470MOL0     H64834   2.985   1.705   4.586  2.3503  5.0465  3.6710
  470MOL0     H64835   3.013   1.672   4.764  2.5222 -1.9122 -0.8071
  470MOL0     H64836   2.746   1.655   4.776  0.0892  2.1753  2.6292
  470MOL0     H64837   2.753   1.709   4.612 -0.3087 -0.8313  0.4529
  470MOL0     H64838   2.910   1.875   4.841  0.2244  3.7395 -1.2405
  470MOL0     H64839   2.734   1.879   4.828 -0.5171 -0.2559 -0.6570
  470MOL0     H64840   3.575   1.383   4.707  0.7737 -0.7097  0.1770
  470MOL0     H64841   3.687   1.466   4.911  1.1673  0.6114  2.5012
  470MOL0     H64842   3.760   1.567   5.278 -1.6287  0.5018  0.7342
  470MOL0     H64843   3.903   1.657   5.451  3.1407 -2.9061 -0.8418
  470MOL0     H64844   3.705   1.534   6.943 -0.8314 -2.5760 -1.2699
  470MOL0     H64845   3.598   1.418   6.799 -0.2634  0.7119  1.9000
  470MOL0     H64846   3.272   1.521   6.222 -0.0776 -0.9450 -1.6315
  470MOL0     H64847   3.224   1.340   6.075  0.0807 -4.1068 -1.6129
  470MOL0     H64848   3.124   1.117   6.074 -2.1317  0.7932 -2.7491
  470MOL0     H64849   3.211   1.140   5.934 -0.0206 -0.3013  0.2205
  470MOL0     H64850   3.084   0.928   5.930  0.2946 -0.7053 -0.4842
  470MOL0     H64851   3.173   0.871   6.063 -1.6818 -0.5029 -0.3004
  470MOL0     H64852   3.269   0.935   5.787 -2.5900 -2.2128 -0.8750
  470MOL0     H64853   3.389   0.896   5.921  0.6186 -1.7625 -1.0955
  470MOL0     H64854   3.185   0.724   5.781 -2.4287  2.4305  1.4821
  470MOL0     H64855   3.241   0.675   5.942 -1.6247 -1.4392 -0.5213
  470MOL0     H64856   3.566   0.563   5.715 -2.1869 -2.1492 -0.6826
  470MOL0     H64857   3.469   1.072   6.294 -0.8997 -0.0822 -2.0825
  470MOL0     H64858   3.517   1.119   6.513  2.6711  0.8310  1.4115
  470MOL0     H64859   3.627   1.251   6.493 -0.0306 -1.5746  0.0729
  470MOL0     H64860   3.501   1.279   6.600  1.9943 -1.3341  2.2010
  471MOL0     O64861  11.037   1.487   3.813 -0.5397  0.1065 -0.0277
  471MOL0     C64862  10.918   1.515   3.836 -0.1339 -0.4301 -0.8879
  471MOL0     O64863  10.828   1.437   3.900 -0.5533  0.0539 -0.2343
  471MOL0     C64864  10.860   1.327   3.972  1.2890 -0.1540  0.1034
  471MOL0     C64865  10.986   1.297   4.024 -0.0264  0.4934 -0.4782
  471MOL0     C64866  11.016   1.175   4.092  0.0999 -0.5151 -0.6649
  471MOL0     C64867  10.921   1.084   4.132 -0.7905  0.0157  0.3546
  471MOL0     O64868  10.939   0.979   4.216  0.0633  0.1411  0.0695
  471MOL0     C64869  11.075   0.960   4.261  0.0669 -0.6775  0.5138
  471MOL0     C64870  11.093   0.840   4.354  0.7005  0.1023 -0.6133
  471MOL0     C64871  10.986   0.831   4.459  1.1576  0.2726  0.1882
  471MOL0     C64872  11.026   0.760   4.581 -0.7506  0.1707  0.7515
  471MOL0     C64873  10.911   0.751   4.679  0.0638 -0.6871  0.5110
  471MOL0     C64874  10.965   0.719   4.816  0.4988  0.3125  0.6750
  471MOL0     C64875  10.859   0.700   4.930  0.5323  0.0757  0.3985
  471MOL0     C64876  10.869   0.571   5.008 -0.1682  0.1236 -0.5690
  471MOL0     N64877  10.749   0.547   5.096  0.5487  0.5859 -0.4442
  471MOL0     C64878  10.711   0.622   5.204  0.5420  0.7290 -0.3192
  471MOL0     C64879  10.598   0.554   5.256  1.0398 -0.4439  0.6545
  471MOL0     C64880  10.503   0.605   5.363  1.0724  0.8801  0.0489
  471MOL0     C64881  10.478   0.511   5.484  0.1916  0.7522  0.3806
  471MOL0     C64882  10.603   0.451   5.545  0.3940  0.6120 -0.1328
  471MOL0     C64883  10.686   0.558   5.617  0.9025 -0.7681  0.0348
  471MOL0     O64884  10.803   0.501   5.682 -0.4020 -1.4927  0.1923
  471MOL0     C64885  10.814   0.487   5.816 -0.9592 -0.6407 -0.0748
  471MOL0     C64886  10.715   0.429   5.892  0.0497  0.5964 -0.1516
  471MOL0     C64887  10.724   0.421   6.033  0.2448 -0.7512 -1.5628
  471MOL0     C64888  10.604   0.367   6.117  0.5802  0.5188  0.3527
  471MOL0     C64889  10.838   0.472   6.100  0.1511  0.0836 -0.2086
  471MOL0     C64890  10.848   0.485   6.250  0.0887  0.2904 -0.4579
  471MOL0     O64891  10.922   0.587   6.299  0.7586  0.0571 -0.3372
  471MOL0     C64892  10.961   0.592   6.430 -0.0992 -0.4567 -0.4627
  471MOL0     C64893  11.026   0.501   6.506 -1.1974  0.5798  0.0499
  471MOL0     C64894  11.095   0.544   6.616 -0.4030  0.3706 -0.6432
  471MOL0     C64895  11.098   0.681   6.657 -1.0661 -0.3074 -0.7076
  471MOL0     O64896  11.188   0.705   6.757 -0.1962  1.1875  0.3019
  471MOL0     C64897  11.198   0.841   6.807 -0.0942  0.2720  0.2371
  471MOL0     C64898  11.292   0.867   6.923  0.2804  0.3640 -0.7286
  471MOL0     C64899  11.238   0.793   7.040  0.2522 -0.6029 -0.4068
  471MOL0     C64900  11.340   0.807   7.155  0.9229 -0.1900  0.6076
  471MOL0     C64901  11.282   0.724   7.276 -0.2842 -0.8482  0.4119
  471MOL0     C64902  11.357   0.752   7.404  0.3353  0.3013 -0.2916
  471MOL0     C64903  11.511   0.758   7.390 -0.0723 -0.5897 -0.6027
  471MOL0     C64904  11.583   0.637   7.328  0.1111  0.7553 -1.4253
  471MOL0    Cl64905  11.761   0.682   7.327 -0.0276  0.3519  0.0607
  471MOL0     C64906  11.009   0.773   6.595  0.3288 -1.2763 -1.1832
  471MOL0     C64907  10.948   0.722   6.477 -0.2426 -0.4848 -0.5066
  471MOL0     O64908  10.812   0.387   6.324  0.5564 -0.3525  0.1300
  471MOL0     C64909  10.937   0.537   6.018  1.3637 -0.2167 -0.3487
  471MOL0     C64910  10.925   0.542   5.885  0.0958  0.6987  0.5368
  471MOL0     N64911  10.592   0.431   5.192  0.5947 -0.0637 -0.3187
  471MOL0     N64912  10.678   0.434   5.086  0.3737 -0.2183 -0.5497
  471MOL0     C64913  10.790   1.124   4.096 -0.2582 -0.1888  0.7736
  471MOL0     C64914  10.755   1.243   4.021  0.3201 -0.5483  0.5828
  471MOL0     C64915  10.868   1.639   3.780 -0.4615 -0.2057 -0.4404
  471MOL0     C64916  10.726   1.665   3.794 -0.6561 -0.0468  0.5323
  471MOL0     C64917  10.665   1.759   3.715  0.2525  0.2493  0.0791
  471MOL0     C64918  10.737   1.831   3.630  0.8753 -0.2689  0.3277
  471MOL0     O64919  10.657   1.926   3.567  0.0517 -0.1548 -0.1331
  471MOL0     C64920  10.705   2.025   3.469  0.5710  0.4536 -0.6511
  471MOL0     C64921  10.667   2.161   3.534  0.3382  0.1129  0.5330
  471MOL0     C64922  10.701   2.169   3.684 -0.6723  1.2303  0.5564
  471MOL0     C64923  10.655   2.300   3.741 -0.9601 -0.7053  0.4158
  471MOL0     C64924  10.645   2.291   3.884  0.2043 -0.3946 -0.4944
  471MOL0     C64925  10.657   2.273   4.004  0.5968  0.2853  0.4730
  471MOL0     C64926  10.876   1.817   3.612  0.8506 -0.5079 -0.3295
  471MOL0     C64927  10.941   1.718   3.693  0.8900  0.0998 -0.1929
  471MOL0     C64928  11.092   1.726   3.687  0.3761 -0.3837 -0.4167
  471MOL0     H64929  11.066   1.366   4.000 -1.5286  2.0666 -1.2276
  471MOL0     H64930  11.122   1.153   4.102  0.6482  2.6260  2.3628
  471MOL0     H64931  11.108   1.054   4.305 -0.5067  0.0813 -0.6413
  471MOL0     H64932  11.129   0.939   4.168 -3.0901 -0.8955 -1.4185
  471MOL0     H64933  11.098   0.745   4.299 -0.4831 -0.9955  1.0642
  471MOL0     H64934  11.191   0.836   4.403  1.2196 -3.0494 -1.6668
  471MOL0     H64935  10.956   0.933   4.485 -0.1208  0.2697 -1.1677
  471MOL0     H64936  10.904   0.771   4.418  0.2699  0.9172  0.9710
  471MOL0     H64937  11.064   0.663   4.547 -1.6137  0.5185 -1.3763
  471MOL0     H64938  11.116   0.799   4.630  0.6877 -1.9403 -0.0524
  471MOL0     H64939  10.837   0.678   4.645  0.4548 -2.0024  2.2989
  471MOL0     H64940  10.861   0.846   4.695  0.7340  0.0116 -1.2855
  471MOL0     H64941  11.031   0.632   4.817 -0.6247 -0.8247 -3.3909
  471MOL0     H64942  11.028   0.806   4.839  0.7111  0.3110  0.1335
  471MOL0     H64943  10.760   0.730   4.895  0.3705 -1.7758 -0.8538
  471MOL0     H64944  10.875   0.780   5.003 -1.2363  1.7580 -0.9577
  471MOL0     H64945  10.894   0.487   4.942  0.6889 -0.0360 -0.0648
  471MOL0     H64946  10.945   0.570   5.087 -0.5851 -2.1977 -0.1169
  471MOL0     H64947  10.751   0.721   5.224  0.4729  1.0279 -1.5731
  471MOL0     H64948  10.411   0.617   5.305 -0.2862 -1.2320  1.6423
  471MOL0     H64949  10.528   0.706   5.399 -2.0236  1.9162 -0.3575
  471MOL0     H64950  10.398   0.535   5.555  0.5477  2.4627  0.2462
  471MOL0     H64951  10.434   0.424   5.433  2.3645 -0.5442  0.6067
  471MOL0     H64952  10.560   0.381   5.617  0.8005 -2.3507 -2.5292
  471MOL0     H64953  10.662   0.393   5.473  0.3168  0.3560  0.0079
  471MOL0     H64954  10.726   0.626   5.541 -0.8024  2.0229  1.4448
  471MOL0     H64955  10.626   0.619   5.686 -1.3891 -1.1034 -1.5297
  471MOL0     H64956  10.627   0.398   5.838 -2.0242  1.8278  2.3060
  471MOL0     H64957  10.549   0.442   6.174  0.2314  1.6582 -1.3893
  471MOL0     H64958  10.629   0.271   6.164  0.7398 -1.5259 -3.4918
  471MOL0     H64959  10.527   0.343   6.043  1.7508 -0.7751 -0.5061
  471MOL0     H64960  11.038   0.405   6.457  0.8886 -0.9546  3.2173
  471MOL0     H64961  11.153   0.478   6.680 -2.1322 -0.4277  0.1642
  471MOL0     H64962  11.235   0.902   6.725  1.0092  0.5654  0.9302
  471MOL0     H64963  11.094   0.860   6.836  0.4694  1.0204  1.8713
  471MOL0     H64964  11.382   0.812   6.895 -2.1043 -3.7284 -1.2180
  471MOL0     H64965  11.299   0.974   6.943 -3.7221  0.6882 -0.1237
  471MOL0     H64966  11.209   0.691   7.012 -0.6109  0.2154 -2.8446
  471MOL0     H64967  11.147   0.847   7.069  2.3957  2.3447  1.3699
  471MOL0     H64968  11.350   0.911   7.188 -0.8387  0.5607 -1.0056
  471MOL0     H64969  11.438   0.765   7.131  1.7499 -0.2351  3.6944
  471MOL0     H64970  11.181   0.764   7.290  0.4807  0.5788  2.2083
  471MOL0     H64971  11.294   0.617   7.259  1.7643 -0.8177  1.3794
  471MOL0     H64972  11.337   0.672   7.476  0.1711 -2.1519 -2.9119
  471MOL0     H64973  11.322   0.848   7.442 -1.2433 -0.5971  0.6034
  471MOL0     H64974  11.551   0.770   7.491  2.3603  1.7702 -1.7108
  471MOL0     H64975  11.540   0.850   7.337  1.9457  0.0962  1.5417
  471MOL0     H64976  11.552   0.611   7.227  0.1897  1.2057 -1.5689
  471MOL0     H64977  11.576   0.552   7.397  5.4665  1.1955  0.1382
  471MOL0     H64978  11.008   0.879   6.617  0.6079 -1.6007  0.5703
  471MOL0     H64979  10.888   0.796   6.424 -1.1774 -0.0404  1.0857
  471MOL0     H64980  11.032   0.577   6.051  0.7134  0.9084  0.2077
  471MOL0     H64981  11.007   0.577   5.823  2.4651 -2.1602  1.7459
  471MOL0     H64982  10.704   1.065   4.127  0.8707 -2.5942 -0.4483
  471MOL0     H64983  10.653   1.264   3.990  0.1725 -1.5114  0.3865
  471MOL0     H64984  10.664   1.611   3.865 -0.6938 -0.2479  0.3477
  471MOL0     H64985  10.558   1.773   3.729  0.4687 -0.5235  3.1092
  471MOL0     H64986  10.814   2.018   3.455  0.4252 -0.2138 -1.4884
  471MOL0     H64987  10.651   2.006   3.376  0.6308 -0.9952 -0.4095
  471MOL0     H64988  10.558   2.163   3.542  0.3885  4.0025  3.0125
  471MOL0     H64989  10.712   2.243   3.479  0.9750 -0.8411 -0.3968
  471MOL0     H64990  10.649   2.090   3.739 -1.2247  1.1077 -0.1357
  471MOL0     H64991  10.808   2.145   3.693 -1.5110 -5.3308 -1.3798
  471MOL0     H64992  10.558   2.332   3.702  0.0017  4.6456  1.5624
  471MOL0     H64993  10.730   2.375   3.712 -0.9226 -0.3045  1.4898
  471MOL0     H64994  10.656   2.262   4.111  1.4701 -2.9816  0.2426
  471MOL0     H64995  10.940   1.878   3.549  1.1175 -2.0544 -1.6106
  471MOL0     H64996  11.138   1.766   3.778  2.0493  0.5058 -1.6163
  471MOL0     H64997  11.126   1.624   3.669 -0.7466 -1.4680  2.7610
  471MOL0     H64998  11.129   1.792   3.608  1.9505  1.0379  1.4086
  472MOL0     O64999   9.920   8.951  10.933  0.2414  0.4201 -0.0421
  472MOL0     C65000   9.921   9.043  11.012  0.3566  0.5736  0.8858
  472MOL0     O65001   9.835   9.152  11.011 -0.1134  1.1490  0.0685
  472MOL0     C65002   9.761   9.171  10.900  0.0842 -0.6579 -0.0217
  472MOL0     C65003   9.808   9.249  10.791  0.2026 -0.4125  0.2675
  472MOL0     C65004   9.720   9.293  10.689 -0.5992  0.4746  0.0559
  472MOL0     C65005   9.579   9.258  10.690  0.7004  0.1868 -0.4592
  472MOL0     O65006   9.484   9.287  10.597 -0.4250 -0.1916 -0.1534
  472MOL0     C65007   9.514   9.395  10.516 -0.7430  0.0412 -0.7325
  472MOL0     C65008   9.390   9.440  10.452  0.0151 -0.0948 -0.0755
  472MOL0     C65009   9.317   9.341  10.362 -0.1029 -0.5177 -0.0656
  472MOL0     C65010   9.203   9.389  10.283 -0.3289 -0.4730  0.2947
  472MOL0     C65011   9.101   9.281  10.238 -0.0321  0.3901  0.3467
  472MOL0     C65012   9.004   9.345  10.134  0.5308 -0.0999 -0.8341
  472MOL0     C65013   9.070   9.395  10.011 -0.0948  0.0485  0.0506
  472MOL0     C65014   9.139   9.294   9.916  0.4122  0.5151 -0.0120
  472MOL0     N65015   9.043   9.215   9.825 -0.4076  0.2223 -0.4670
  472MOL0     C65016   9.042   9.224   9.692  0.2602  0.6856  0.7863
  472MOL0     C65017   8.950   9.132   9.641 -1.1439  0.6597  0.1955
  472MOL0     C65018   8.936   9.096   9.494  0.0797 -0.1368  0.1358
  472MOL0     C65019   8.868   9.200   9.405  0.2189  0.2485  0.6481
  472MOL0     C65020   8.737   9.254   9.463 -0.1037  0.6866  0.3318
  472MOL0     C65021   8.746   9.350   9.577  0.1031  0.0788 -0.5012
  472MOL0     O65022   8.778   9.475   9.524  0.0268  0.2789 -0.3056
  472MOL0     C65023   8.754   9.592   9.595  0.3124 -0.0283  0.1206
  472MOL0     C65024   8.704   9.607   9.721  1.0989  0.4255  0.3727
  472MOL0     C65025   8.707   9.729   9.792 -1.4611  0.6633 -0.1088
  472MOL0     C65026   8.689   9.709   9.941 -0.1675  0.6535  0.2040
  472MOL0     C65027   8.766   9.846   9.731  0.4145 -0.1705 -0.4446
  472MOL0     C65028   8.790   9.971   9.800 -0.0396 -0.3562 -0.0712
  472MOL0     O65029   8.862  10.065   9.731  0.3168  0.2895 -0.5746
  472MOL0     C65030   8.913  10.175   9.790 -0.8930  0.1602  0.8388
  472MOL0     C65031   8.902  10.292   9.716 -0.1578  0.4545  0.1808
  472MOL0     C65032   8.969  10.409   9.757  0.1926 -0.5834  0.2526
  472MOL0     C65033   9.038  10.415   9.873  0.3765 -0.1924 -0.1323
  472MOL0     O65034   9.102  10.533   9.907 -0.2128  0.0293  0.4940
  472MOL0     C65035   9.204  10.540  10.005  0.3605  0.3003 -0.8946
  472MOL0     C65036   9.263  10.680  10.006 -0.4833  0.0045  1.0623
  472MOL0     C65037   9.380  10.701  10.102  0.1715  0.2471  0.3802
  472MOL0     C65038   9.347  10.667  10.256 -0.6358  0.5812  0.3007
  472MOL0     C65039   9.453  10.717  10.360 -0.3588 -0.4434  0.7572
  472MOL0     C65040   9.603  10.704  10.322  0.2020  0.2243  0.7738
  472MOL0     C65041   9.681  10.792  10.422 -0.4799 -0.1845  0.1493
  472MOL0     C65042   9.819  10.735  10.426 -0.7754  0.3455  0.3383
  472MOL0    Cl65043   9.948  10.835  10.526  0.2579  0.1286 -0.3947
  472MOL0     C65044   9.044  10.299   9.954 -0.0453  0.0669 -1.2255
  472MOL0     C65045   8.984  10.183   9.908  0.0507  0.6147  0.0450
  472MOL0     O65046   8.747   9.988   9.909 -0.1765  0.2954  0.2501
  472MOL0     C65047   8.803   9.830   9.595 -0.9015  1.2487  0.3237
  472MOL0     C65048   8.793   9.714   9.531  0.0280 -0.2954  0.2535
  472MOL0     N65049   8.892   9.071   9.756 -0.0632 -0.5262 -0.1245
  472MOL0     N65050   8.949   9.118   9.857 -0.0251 -0.8896  0.8995
  472MOL0     C65051   9.538   9.189  10.807  0.5450  0.3308  0.4646
  472MOL0     C65052   9.631   9.156  10.907  0.7264  0.3506  0.6706
  472MOL0     C65053  10.025   9.050  11.114  0.3110  0.0418  0.5409
  472MOL0     C65054  10.046   8.949  11.207 -0.6820  0.8244  0.0702
  472MOL0     C65055  10.143   8.960  11.304  0.3796 -0.1237  0.3219
  472MOL0     C65056  10.231   9.071  11.302 -0.3932 -0.2564 -1.3677
  472MOL0     O65057  10.323   9.072  11.398  0.4928  0.4233 -0.5557
  472MOL0     C65058  10.458   9.099  11.369  0.1048  1.1351 -0.4976
  472MOL0     C65059  10.540   9.075  11.489 -0.7679 -0.0789 -0.7730
  472MOL0     C65060  10.505   9.169  11.617  1.0551 -0.6036  0.0196
  472MOL0     C65061  10.601   9.153  11.732 -0.0090  0.4647 -0.0346
  472MOL0     C65062  10.733   9.189  11.693 -0.5810 -0.4421 -0.3168
  472MOL0     C65063  10.848   9.219  11.668 -0.1062  0.5066  0.1869
  472MOL0     C65064  10.216   9.176  11.214  1.3123  0.2625 -0.2477
  472MOL0     C65065  10.106   9.169  11.123  0.0231 -0.0889  0.0199
  472MOL0     C65066  10.105   9.287  11.019 -0.0268  0.1579  0.3672
  472MOL0     H65067   9.909   9.288  10.791 -0.0707  0.3132  0.7854
  472MOL0     H65068   9.760   9.361  10.614 -0.1839  1.2042  0.9145
  472MOL0     H65069   9.592   9.364  10.446  0.3707 -0.6180  0.7354
  472MOL0     H65070   9.553   9.477  10.577 -1.8306  0.5987 -0.7622
  472MOL0     H65071   9.321   9.475  10.530 -1.3161 -1.4085 -0.6231
  472MOL0     H65072   9.415   9.527  10.390  0.8439 -0.4685 -0.2833
  472MOL0     H65073   9.398   9.305  10.297 -0.0192  0.3713 -0.4613
  472MOL0     H65074   9.277   9.262  10.427 -0.3895  2.2989  3.5062
  472MOL0     H65075   9.160   9.468  10.345  1.1406  0.4861  0.1371
  472MOL0     H65076   9.255   9.430  10.197 -1.0634 -1.8403 -0.8494
  472MOL0     H65077   9.042   9.232  10.316 -3.4857 -3.0333 -3.8839
  472MOL0     H65078   9.162   9.205  10.189 -0.5352  1.7930 -2.6990
  472MOL0     H65079   8.947   9.263  10.089  0.7804 -1.6914  1.5494
  472MOL0     H65080   8.944   9.423  10.181  2.4296  0.9686 -0.0888
  472MOL0     H65081   9.145   9.471  10.035 -0.5766 -0.2951  2.9542
  472MOL0     H65082   8.991   9.446   9.955 -0.5766 -2.4493 -1.7535
  472MOL0     H65083   9.211   9.350   9.856  1.6740 -0.0963  0.8832
  472MOL0     H65084   9.189   9.210   9.966 -1.2741 -2.1047 -2.3871
  472MOL0     H65085   9.104   9.289   9.631  1.7054 -0.1415  1.3129
  472MOL0     H65086   8.896   8.994   9.489  0.8637 -0.7879  3.9304
  472MOL0     H65087   9.036   9.083   9.450  0.9368 -2.7709  2.5714
  472MOL0     H65088   8.945   9.275   9.385  0.0610 -0.0081 -1.0731
  472MOL0     H65089   8.846   9.155   9.308  5.7205 -2.1531  0.1653
  472MOL0     H65090   8.683   9.299   9.380 -0.3514 -0.0013  0.1091
  472MOL0     H65091   8.682   9.170   9.507  2.0809  0.9271  3.9786
  472MOL0     H65092   8.649   9.363   9.626  1.4222  5.2650  1.3211
  472MOL0     H65093   8.817   9.334   9.659 -0.4931  0.7282  0.1563
  472MOL0     H65094   8.684   9.513   9.772 -3.2767  2.0848  2.2710
  472MOL0     H65095   8.785   9.724   9.992 -0.4979 -1.9569  1.7436
  472MOL0     H65096   8.664   9.606   9.968  0.0574  0.5772  0.1252
  472MOL0     H65097   8.613   9.776   9.981 -1.7031 -0.6644 -0.4072
  472MOL0     H65098   8.835  10.301   9.632 -2.5619  2.3180  2.1433
  472MOL0     H65099   8.960  10.497   9.694 -3.0210 -2.3154 -1.9800
  472MOL0     H65100   9.154  10.522  10.101  0.8962 -0.6553 -0.7835
  472MOL0     H65101   9.277  10.459   9.994  3.6261  2.9860 -0.5214
  472MOL0     H65102   9.291  10.702   9.903 -1.3774  1.2338  1.0613
  472MOL0     H65103   9.187  10.757  10.022 -0.1789  0.8032 -1.0315
  472MOL0     H65104   9.416  10.804  10.090  0.3429  0.2074  0.5408
  472MOL0     H65105   9.460  10.634  10.067 -1.4930 -1.8269  0.3474
  472MOL0     H65106   9.339  10.559  10.269 -1.8098 -0.0848 -4.3046
  472MOL0     H65107   9.253  10.719  10.276 -1.7244 -1.3487  0.4479
  472MOL0     H65108   9.427  10.821  10.384  1.9910  0.2221  0.6708
  472MOL0     H65109   9.426  10.660  10.450 -1.5521 -0.0704  0.6525
  472MOL0     H65110   9.626  10.729  10.217  1.2949 -0.6606  0.7766
  472MOL0     H65111   9.635  10.601  10.341  0.0074  0.5119  2.8440
  472MOL0     H65112   9.635  10.791  10.521 -1.1180  0.6828 -0.1290
  472MOL0     H65113   9.702  10.893  10.386 -0.5896 -0.1518  0.1778
  472MOL0     H65114   9.867  10.726  10.328 -1.6323  0.3757 -0.0959
  472MOL0     H65115   9.808  10.632  10.462  0.6672 -0.4568 -1.3955
  472MOL0     H65116   9.104  10.300  10.044  0.1101  0.2425 -1.3285
  472MOL0     H65117   8.989  10.094   9.970 -1.1743 -0.3938 -1.2467
  472MOL0     H65118   8.854   9.912   9.547  1.3648 -0.0183  0.4060
  472MOL0     H65119   8.825   9.704   9.428 -1.0012 -0.2665 -0.0851
  472MOL0     H65120   9.438   9.150  10.826  1.1009 -2.9314 -2.2819
  472MOL0     H65121   9.588   9.110  10.996 -1.9373  2.1130  0.4151
  472MOL0     H65122   9.988   8.859  11.193  2.0808 -0.8295 -1.9662
  472MOL0     H65123  10.145   8.886  11.383 -2.0947 -0.3271  0.2696
  472MOL0     H65124  10.486   9.030  11.288  3.2068  1.5983  0.0492
  472MOL0     H65125  10.470   9.201  11.332  2.2760  0.9900 -0.3259
  472MOL0     H65126  10.638   9.114  11.460 -0.9315  1.2297  0.3116
  472MOL0     H65127  10.541   8.968  11.513 -0.3746  0.1472  0.3060
  472MOL0     H65128  10.498   9.270  11.576 -2.3533 -0.9870 -0.6080
  472MOL0     H65129  10.411   9.153  11.670  1.5598  1.9327  1.8639
  472MOL0     H65130  10.610   9.051  11.772 -1.9271  0.2014 -0.2171
  472MOL0     H65131  10.571   9.214  11.818 -0.2888  2.0781 -1.2310
  472MOL0     H65132  10.951   9.232  11.639  0.9247 -0.2975  3.1172
  472MOL0     H65133  10.298   9.247  11.217  1.2145  0.4859 -1.8688
  472MOL0     H65134  10.012   9.344  11.015 -0.3647 -0.2387  1.8075
  472MOL0     H65135  10.189   9.356  11.035  1.6047 -1.5712 -0.3304
  472MOL0     H65136  10.122   9.233  10.926  1.2749 -0.3555  0.8671
  473MOL0     O65137   7.368  11.144   0.701  0.3426  0.1549 -0.2393
  473MOL0     C65138   7.463  11.163   0.624 -0.0830 -0.0581 -0.6412
  473MOL0     O65139   7.530  11.067   0.558  0.3847  0.3576  0.3488
  473MOL0     C65140   7.511  10.941   0.589 -0.2061  0.3029 -1.2245
  473MOL0     C65141   7.577  10.886   0.697  0.5719  0.3404 -1.0423
  473MOL0     C65142   7.562  10.752   0.735 -0.0101  0.1748 -0.1861
  473MOL0     C65143   7.484  10.668   0.657 -0.7558 -0.0031  1.1045
  473MOL0     O65144   7.494  10.534   0.699 -0.3401  1.0233  0.9064
  473MOL0     C65145   7.454  10.427   0.602  0.0615 -1.0720 -0.6136
  473MOL0     C65146   7.545  10.307   0.641  0.0713 -0.0145 -0.6875
  473MOL0     C65147   7.487  10.227   0.765  0.0853 -0.1405  0.4580
  473MOL0     C65148   7.553  10.259   0.899  0.7271  0.0331  0.1066
  473MOL0     C65149   7.488  10.167   1.014  0.3572 -0.3545  0.6698
  473MOL0     C65150   7.347  10.216   1.066  0.4985  0.5387  0.0526
  473MOL0     C65151   7.342  10.358   1.091  0.0866 -0.8051 -0.5053
  473MOL0     C65152   7.246  10.406   1.201  0.3218  0.3078 -1.0885
  473MOL0     N65153   7.281  10.352   1.337  0.2703 -0.1618 -0.0517
  473MOL0     C65154   7.200  10.279   1.420  0.8394  0.2405 -0.8784
  473MOL0     C65155   7.273  10.243   1.523 -0.4571  0.4128  0.0203
  473MOL0     C65156   7.216  10.160   1.642 -0.4081 -0.7315 -0.1669
  473MOL0     C65157   7.266  10.227   1.776  0.3499 -1.2457  0.8208
  473MOL0     C65158   7.222  10.169   1.908 -0.0455  0.1267 -0.4568
  473MOL0     C65159   7.294  10.228   2.031 -1.7646  1.1426  0.3073
  473MOL0     O65160   7.429  10.189   2.012 -0.1188 -0.2931 -0.3084
  473MOL0     C65161   7.493  10.140   2.124 -0.2243 -0.8681 -0.2462
  473MOL0     C65162   7.551  10.233   2.213 -1.1082  0.3083 -0.4623
  473MOL0     C65163   7.631  10.196   2.324 -0.2098  0.5769 -0.8303
  473MOL0     C65164   7.689  10.309   2.408 -0.1339 -0.0182  0.6999
  473MOL0     C65165   7.628  10.060   2.363 -0.5001 -0.0501  0.5941
  473MOL0     C65166   7.697  10.001   2.488  1.0142 -0.3811  0.0825
  473MOL0     O65167   7.720   9.870   2.478  0.2615  0.4356  0.1361
  473MOL0     C65168   7.823   9.825   2.558 -0.0532  0.3352 -0.2497
  473MOL0     C65169   7.931   9.894   2.610  0.9342  0.0399 -0.0808
  473MOL0     C65170   8.030   9.819   2.672 -0.1020 -0.5725 -0.3672
  473MOL0     C65171   8.021   9.680   2.685  0.7087 -0.2405 -0.0490
  473MOL0     O65172   8.124   9.607   2.727 -0.3752 -0.3315  0.6432
  473MOL0     C65173   8.210   9.669   2.826  0.3318  0.1352  0.7235
  473MOL0     C65174   8.269   9.564   2.927 -0.2087 -1.1049  0.8185
  473MOL0     C65175   8.275   9.623   3.072 -1.0115 -0.0041  0.4603
  473MOL0     C65176   8.268   9.518   3.186 -0.0407 -1.0760  0.1032
  473MOL0     C65177   8.399   9.453   3.220  0.0952 -0.1201 -0.3002
  473MOL0     C65178   8.397   9.385   3.356 -0.0381 -0.2190 -0.2329
  473MOL0     C65179   8.284   9.277   3.385 -0.3570  0.1375  0.8037
  473MOL0     C65180   8.293   9.170   3.283  0.5609  0.5932 -0.4659
  473MOL0    Cl65181   8.448   9.096   3.250  0.1869  0.0552 -0.3714
  473MOL0     C65182   7.906   9.617   2.631  0.3384  0.0286  1.3051
  473MOL0     C65183   7.809   9.686   2.568  0.9793  0.6555 -0.6185
  473MOL0     O65184   7.714  10.073   2.595 -0.5651 -0.4585  0.4502
  473MOL0     C65185   7.557   9.965   2.271  0.3769  0.1678  0.6052
  473MOL0     C65186   7.495  10.006   2.156  0.0290  0.7903 -0.0259
  473MOL0     N65187   7.399  10.296   1.505 -0.3032  0.0412  1.1006
  473MOL0     N65188   7.406  10.360   1.391  0.4088  0.1971 -0.0641
  473MOL0     C65189   7.427  10.720   0.540  0.3005  0.2899  0.1446
  473MOL0     C65190   7.425  10.857   0.522  0.1603 -0.0381  0.2390
  473MOL0     C65191   7.484  11.303   0.581  0.9680  0.0315  0.1043
  473MOL0     C65192   7.569  11.321   0.467  0.7727  0.6806 -0.1211
  473MOL0     C65193   7.609  11.456   0.432  0.1236 -0.9891 -0.5823
  473MOL0     C65194   7.582  11.563   0.505  0.2070  0.1312  0.3199
  473MOL0     O65195   7.622  11.679   0.445 -0.1246 -0.6229  0.0491
  473MOL0     C65196   7.668  11.779   0.533  0.2452 -0.7581 -0.2472
  473MOL0     C65197   7.671  11.910   0.461 -0.0055  0.2747  0.0741
  473MOL0     C65198   7.545  11.953   0.388 -0.2332  0.4575  0.6101
  473MOL0     C65199   7.422  11.975   0.482 -1.1378 -0.4454  0.9797
  473MOL0     C65200   7.312  11.893   0.461  0.0745  0.4253 -0.1586
  473MOL0     C65201   7.207  11.835   0.427  0.3841 -1.0845  0.1844
  473MOL0     C65202   7.513  11.547   0.630 -0.3583 -0.2993  0.4308
  473MOL0     C65203   7.470  11.418   0.669  1.3766 -0.6674 -0.1343
  473MOL0     C65204   7.420  11.398   0.804  0.0138  0.0372  0.3154
  473MOL0     H65205   7.647  10.940   0.759 -1.0208 -1.2661  2.4485
  473MOL0     H65206   7.624  10.724   0.820  0.7127  1.6120 -0.2084
  473MOL0     H65207   7.486  10.467   0.506 -1.9788 -0.7323 -1.1991
  473MOL0     H65208   7.345  10.418   0.596 -0.6758  2.2344  3.4274
  473MOL0     H65209   7.534  10.241   0.555 -0.3912 -0.3879 -0.3470
  473MOL0     H65210   7.651  10.331   0.657  0.8119 -3.4541  0.4621
  473MOL0     H65211   7.382  10.256   0.776  0.3174  2.4870 -2.6314
  473MOL0     H65212   7.483  10.119   0.743 -2.7509 -0.1753  0.7988
  473MOL0     H65213   7.657  10.241   0.872  0.8821  2.9549 -1.5826
  473MOL0     H65214   7.555  10.366   0.919 -0.8085  0.2269 -0.6457
  473MOL0     H65215   7.554  10.178   1.101  2.9051  0.4106 -1.2615
  473MOL0     H65216   7.490  10.059   0.997  3.3795 -0.4136  1.0215
  473MOL0     H65217   7.283  10.194   0.981  1.2974  1.1979 -0.7396
  473MOL0     H65218   7.309  10.157   1.151  1.8268 -4.6261 -2.5232
  473MOL0     H65219   7.339  10.412   0.996  2.6475 -2.9583 -1.9338
  473MOL0     H65220   7.436  10.381   1.141  0.0268  0.2419 -0.8351
  473MOL0     H65221   7.247  10.515   1.209 -2.6926  0.4658 -1.7093
  473MOL0     H65222   7.147  10.378   1.165  0.7403  1.7865 -3.5866
  473MOL0     H65223   7.098  10.254   1.391  0.4025  3.4613 -2.5895
  473MOL0     H65224   7.261  10.061   1.637 -0.8087 -0.9677  0.6901
  473MOL0     H65225   7.107  10.165   1.632 -0.3055  0.8430 -0.8116
  473MOL0     H65226   7.374  10.218   1.766  0.1396 -2.5915 -0.7080
  473MOL0     H65227   7.250  10.334   1.764  2.8427 -1.0300 -1.5758
  473MOL0     H65228   7.114  10.179   1.920 -0.3228 -0.7688 -1.9940
  473MOL0     H65229   7.237  10.061   1.907  1.7035  0.3087 -2.8593
  473MOL0     H65230   7.291  10.337   2.044 -2.8572  0.9826  1.6030
  473MOL0     H65231   7.254  10.182   2.122 -1.9155 -1.1786 -0.8553
  473MOL0     H65232   7.550  10.340   2.193 -5.0570  0.4109 -0.4404
  473MOL0     H65233   7.676  10.406   2.358  0.6172  0.4817  1.4569
  473MOL0     H65234   7.798  10.303   2.415 -0.0342 -0.6987 -1.0499
  473MOL0     H65235   7.641  10.310   2.506 -0.6019 -1.6152  0.5185
  473MOL0     H65236   7.940  10.002   2.611 -0.6285  0.2683  2.9312
  473MOL0     H65237   8.114   9.883   2.699 -0.8940 -0.4271  1.9104
  473MOL0     H65238   8.299   9.706   2.773  2.3149 -1.6247  2.6256
  473MOL0     H65239   8.154   9.743   2.883 -4.1093 -1.6219 -0.9513
  473MOL0     H65240   8.207   9.474   2.924  1.0951 -2.0564  0.9926
  473MOL0     H65241   8.370   9.538   2.893  0.2056  0.5137  0.7680
  473MOL0     H65242   8.187   9.689   3.074 -0.6631  0.5250 -0.7385
  473MOL0     H65243   8.365   9.684   3.082 -0.4706 -1.0805  2.9571
  473MOL0     H65244   8.195   9.439   3.169  2.1610 -3.1739 -0.2733
  473MOL0     H65245   8.237   9.576   3.273 -0.7117 -2.7045  0.9804
  473MOL0     H65246   8.425   9.384   3.139 -1.0414 -0.7806 -0.1344
  473MOL0     H65247   8.474   9.532   3.224 -0.0411 -0.0423  1.9528
  473MOL0     H65248   8.381   9.460   3.435 -0.3596 -1.3451  0.7980
  473MOL0     H65249   8.502   9.363   3.376  0.0277 -0.3515 -0.7118
  473MOL0     H65250   8.183   9.317   3.375  0.5190  2.7194  1.4518
  473MOL0     H65251   8.291   9.237   3.487 -1.5584 -0.4526  0.6665
  473MOL0     H65252   8.255   9.200   3.185 -0.4194  1.2666  0.1056
  473MOL0     H65253   8.218   9.093   3.306 -0.7221  1.9898  0.2325
  473MOL0     H65254   7.891   9.509   2.632 -2.2523  0.0940 -2.9376
  473MOL0     H65255   7.732   9.628   2.518  0.6472  1.4152 -1.0108
  473MOL0     H65256   7.557   9.857   2.283  1.4343  0.1582  0.5663
  473MOL0     H65257   7.455   9.929   2.092  1.2852  0.9495 -1.0527
  473MOL0     H65258   7.364  10.657   0.478 -1.3483  4.1098 -2.3774
  473MOL0     H65259   7.354  10.892   0.447  2.4063  0.2932 -1.8932
  473MOL0     H65260   7.613  11.235   0.417 -0.5671  0.0178 -0.2143
  473MOL0     H65261   7.686  11.469   0.356  0.7788  0.7783  0.3437
  473MOL0     H65262   7.599  11.786   0.618  0.7377 -1.0334  0.1755
  473MOL0     H65263   7.767  11.754   0.571  0.2638 -0.9760 -0.4347
  473MOL0     H65264   7.757  11.902   0.393  0.4713 -2.8882  0.8834
  473MOL0     H65265   7.695  11.989   0.533 -0.9137 -2.0179  3.0687
  473MOL0     H65266   7.560  12.046   0.332 -2.5892 -0.2036 -1.2518
  473MOL0     H65267   7.516  11.881   0.311 -0.5126  2.3080 -1.0854
  473MOL0     H65268   7.381  12.076   0.467  1.3309  0.3347 -1.1597
  473MOL0     H65269   7.454  11.977   0.587  3.2885  4.4002 -0.0095
  473MOL0     H65270   7.116  11.786   0.401 -0.0648  0.7413 -1.9959
  473MOL0     H65271   7.484  11.635   0.687 -1.2265 -0.4900  0.2815
  473MOL0     H65272   7.493  11.330   0.849  1.2209  0.8787 -0.3200
  473MOL0     H65273   7.412  11.492   0.860 -2.4427  1.2888 -1.9150
  473MOL0     H65274   7.319  11.357   0.813 -0.7700  2.2094  2.6962
  474MOL0     O65275   4.173   1.958   5.185 -0.7089 -0.1453 -0.0132
  474MOL0     C65276   4.293   1.987   5.202 -0.0601 -0.0621  0.2207
  474MOL0     O65277   4.378   1.900   5.256 -0.1799 -0.0977 -1.0632
  474MOL0     C65278   4.344   1.789   5.330  0.0700  0.0184  0.5530
  474MOL0     C65279   4.275   1.801   5.451  0.2508  0.5533 -0.4382
  474MOL0     C65280   4.262   1.687   5.527  0.3018 -0.1288  0.1747
  474MOL0     C65281   4.325   1.569   5.497  0.5095  0.3355 -0.7926
  474MOL0     O65282   4.309   1.468   5.588  0.7203 -0.0415  0.0175
  474MOL0     C65283   4.292   1.338   5.533 -0.3705 -0.1458 -0.1938
  474MOL0     C65284   4.285   1.237   5.647  0.6648  0.3369 -0.7979
  474MOL0     C65285   4.411   1.226   5.732  0.9059  0.6871 -0.4165
  474MOL0     C65286   4.396   1.281   5.880 -0.3891 -1.1537  0.6226
  474MOL0     C65287   4.306   1.206   5.975  0.3029  0.2170 -1.0194
  474MOL0     C65288   4.345   1.055   5.981 -0.5055 -1.0726  0.6362
  474MOL0     C65289   4.253   0.993   6.094  0.1020 -0.3188  0.9360
  474MOL0     C65290   4.327   0.994   6.230  0.6632 -0.9243  0.5108
  474MOL0     N65291   4.235   0.987   6.349  0.0162  0.7740 -0.3920
  474MOL0     C65292   4.147   1.091   6.385 -0.3059 -0.1752 -0.3044
  474MOL0     C65293   4.082   1.050   6.492  0.3880  0.0085  0.0007
  474MOL0     C65294   3.970   1.146   6.541  0.1164  1.4795  0.8958
  474MOL0     C65295   3.923   1.112   6.684  0.2500 -0.9165  0.5768
  474MOL0     C65296   3.787   1.177   6.725 -0.4800  0.5163  0.3501
  474MOL0     C65297   3.763   1.161   6.873 -0.1606 -0.1261  0.6095
  474MOL0     O65298   3.647   1.229   6.922 -0.6364 -0.3922 -0.7851
  474MOL0     C65299   3.594   1.200   7.046 -0.3684  0.8836  0.1806
  474MOL0     C65300   3.675   1.127   7.141 -0.1551  0.3164 -0.0530
  474MOL0     C65301   3.630   1.094   7.274 -1.5378 -1.0544 -0.5787
  474MOL0     C65302   3.706   0.999   7.374  0.0493 -0.1687  0.3659
  474MOL0     C65303   3.503   1.155   7.309 -0.5578  0.3485  1.2437
  474MOL0     C65304   3.454   1.155   7.442  0.1082 -0.0367  0.1167
  474MOL0     O65305   3.548   1.198   7.535  0.6529 -0.6469  0.0407
  474MOL0     C65306   3.532   1.178   7.671 -0.7843  0.3956  0.0620
  474MOL0     C65307   3.572   1.274   7.755 -0.1206 -0.7240  0.5460
  474MOL0     C65308   3.548   1.272   7.893 -0.7035  0.4981 -1.3816
  474MOL0     C65309   3.490   1.155   7.942  0.3415  0.5260 -0.1022
  474MOL0     O65310   3.456   1.155   8.077 -0.0672 -0.0133  0.8110
  474MOL0     C65311   3.324   1.113   8.116  0.1960 -0.3328  0.8067
  474MOL0     C65312   3.297   1.111   8.267  0.2905 -0.6339 -0.4700
  474MOL0     C65313   3.165   1.042   8.311 -0.2289  0.5061 -1.1561
  474MOL0     C65314   3.132   1.035   8.463 -0.2249 -0.0030  0.7864
  474MOL0     C65315   3.017   0.951   8.514  0.2201 -0.4047 -0.4074
  474MOL0     C65316   2.977   0.968   8.658  0.7683 -0.4433  0.1272
  474MOL0     C65317   3.084   0.994   8.747 -0.8637 -0.2197  0.2447
  474MOL0     C65318   3.046   1.016   8.887  0.9566 -0.1937 -0.0231
  474MOL0    Cl65319   2.912   1.134   8.902  0.0617 -0.1312  0.0400
  474MOL0     C65320   3.464   1.042   7.864  0.0675 -0.2319 -0.6094
  474MOL0     C65321   3.486   1.053   7.728 -1.0436 -0.0709 -0.3971
  474MOL0     O65322   3.348   1.105   7.466 -0.9335 -0.6429  0.0756
  474MOL0     C65323   3.427   1.231   7.213  0.0877  0.4385 -0.6154
  474MOL0     C65324   3.476   1.252   7.086  0.5202  0.5216  0.3616
  474MOL0     N65325   4.125   0.921   6.530  0.0604 -0.9484  0.2127
  474MOL0     N65326   4.214   0.883   6.438 -1.3125 -0.6915 -0.1150
  474MOL0     C65327   4.381   1.559   5.371 -0.1699  0.2424 -0.2899
  474MOL0     C65328   4.390   1.668   5.279 -0.1180 -0.6208  0.9012
  474MOL0     C65329   4.356   2.122   5.168 -0.4419  0.4674 -0.4468
  474MOL0     C65330   4.499   2.132   5.147 -0.7009 -0.5214  0.2030
  474MOL0     C65331   4.562   2.253   5.111  0.1855  0.1353  0.3409
  474MOL0     C65332   4.485   2.358   5.080  0.2784 -0.3770  0.0092
  474MOL0     O65333   4.553   2.469   5.039  0.1818  0.3688 -0.5132
  474MOL0     C65334   4.504   2.609   5.045 -0.4870  0.8094 -0.3431
  474MOL0     C65335   4.454   2.658   5.183  0.7338 -0.0128  0.2231
  474MOL0     C65336   4.400   2.797   5.185  0.1987 -0.0503  0.4129
  474MOL0     C65337   4.510   2.898   5.177 -0.3126 -0.2620  0.8706
  474MOL0     C65338   4.464   3.042   5.172  0.3940  1.1516 -1.0785
  474MOL0     C65339   4.435   3.157   5.166 -0.0375 -0.8905  0.3298
  474MOL0     C65340   4.343   2.359   5.092 -0.7203  0.7202  0.3343
  474MOL0     C65341   4.285   2.236   5.141  0.4571 -0.1909  0.4162
  474MOL0     C65342   4.130   2.247   5.152 -0.0970 -0.3334  0.5497
  474MOL0     H65343   4.212   1.887   5.475  0.7345  1.2828 -1.7060
  474MOL0     H65344   4.223   1.694   5.628  0.4626 -0.2013  0.2412
  474MOL0     H65345   4.374   1.299   5.472  0.0463 -1.7237  1.2883
  474MOL0     H65346   4.209   1.339   5.462  1.2296  2.8847 -2.2082
  474MOL0     H65347   4.202   1.266   5.712  0.0257  0.0923 -1.4968
  474MOL0     H65348   4.272   1.134   5.614 -0.3110 -0.1416  0.9627
  474MOL0     H65349   4.449   1.124   5.746  0.2645  0.5451  0.3251
  474MOL0     H65350   4.494   1.281   5.686  1.4750 -1.5750 -2.3279
  474MOL0     H65351   4.496   1.293   5.921 -0.8666  0.1990  1.4236
  474MOL0     H65352   4.347   1.377   5.863  0.6348 -0.8679 -0.9384
  474MOL0     H65353   4.213   1.226   5.922  1.7499 -0.0146 -3.8178
  474MOL0     H65354   4.294   1.254   6.072 -3.5672  0.1229 -1.3069
  474MOL0     H65355   4.329   1.013   5.881  0.3998  0.2175 -0.0897
  474MOL0     H65356   4.451   1.051   6.007 -0.4061  1.9428  1.0697
  474MOL0     H65357   4.232   0.887   6.075 -1.1822 -0.0641  0.8137
  474MOL0     H65358   4.162   1.053   6.096  0.1302 -0.0017 -2.1933
  474MOL0     H65359   4.399   0.912   6.223  0.0929 -1.2938 -2.3776
  474MOL0     H65360   4.383   1.087   6.242  0.1273 -0.4670 -0.4260
  474MOL0     H65361   4.126   1.178   6.324  1.8995  1.3076  0.9470
  474MOL0     H65362   3.885   1.150   6.472 -0.3903  0.3111  1.4226
  474MOL0     H65363   3.999   1.251   6.535 -2.8554  2.3381 -2.7602
  474MOL0     H65364   3.921   1.003   6.692 -1.7508 -0.8661  1.4391
  474MOL0     H65365   3.994   1.153   6.756  0.3736  1.6666 -0.8827
  474MOL0     H65366   3.782   1.281   6.691 -1.9407  0.8750  1.5610
  474MOL0     H65367   3.700   1.129   6.679  0.7295 -0.6930 -0.7444
  474MOL0     H65368   3.775   1.055   6.895  0.0433  0.4122  3.3565
  474MOL0     H65369   3.841   1.207   6.934  0.9885 -1.0963 -0.0820
  474MOL0     H65370   3.774   1.093   7.113 -0.1674 -0.0881  0.3847
  474MOL0     H65371   3.781   1.056   7.430  1.1221 -0.9218 -0.2660
  474MOL0     H65372   3.759   0.922   7.317  0.5540 -0.3470  1.0595
  474MOL0     H65373   3.641   0.946   7.443  0.7117 -1.3546  0.1007
  474MOL0     H65374   3.613   1.362   7.708  1.1396 -0.9684  1.1602
  474MOL0     H65375   3.564   1.354   7.963  3.2080  0.5570 -2.1013
  474MOL0     H65376   3.259   1.185   8.067  1.4464  1.4856  1.6989
  474MOL0     H65377   3.302   1.019   8.065 -1.7719 -1.6272  3.7834
  474MOL0     H65378   3.386   1.059   8.305  0.5160 -0.7383 -1.1294
  474MOL0     H65379   3.294   1.217   8.292 -0.4275 -0.3087 -1.8247
  474MOL0     H65380   3.183   0.940   8.275 -2.3370 -1.2835  2.3224
  474MOL0     H65381   3.079   1.086   8.259 -0.4224  0.6105 -0.7489
  474MOL0     H65382   3.116   1.136   8.501  0.0123 -0.6975  2.9073
  474MOL0     H65383   3.221   0.995   8.512  0.9190 -2.8516 -3.1172
  474MOL0     H65384   2.931   0.962   8.448 -2.0689 -0.3532  2.4188
  474MOL0     H65385   3.073   0.857   8.503 -0.5600 -1.2054  1.8917
  474MOL0     H65386   2.923   0.879   8.690  0.0005  0.3221  1.0067
  474MOL0     H65387   2.907   1.052   8.660  0.3737 -0.7132 -1.2350
  474MOL0     H65388   3.125   1.091   8.717 -2.1337 -0.2472 -1.6850
  474MOL0     H65389   3.164   0.919   8.738  0.2964  0.9512  0.4199
  474MOL0     H65390   3.131   1.045   8.951  1.1538  0.1387 -0.4323
  474MOL0     H65391   3.001   0.931   8.940 -0.2308  1.0959  1.1205
  474MOL0     H65392   3.416   0.956   7.911 -0.4921 -0.7839 -2.1421
  474MOL0     H65393   3.473   0.978   7.650  2.9633  2.0963 -3.5276
  474MOL0     H65394   3.330   1.268   7.243  0.5809 -0.3046  2.2498
  474MOL0     H65395   3.407   1.301   7.018  1.0359  2.0275  0.9008
  474MOL0     H65396   4.399   1.460   5.331 -1.5517 -0.6518  1.1675
  474MOL0     H65397   4.427   1.656   5.178  0.6368  1.6116  0.8593
  474MOL0     H65398   4.561   2.043   5.154  0.6744  0.4312  0.6093
  474MOL0     H65399   4.668   2.252   5.091  0.1192  0.2296 -0.0324
  474MOL0     H65400   4.586   2.678   5.022  0.8162 -0.6576 -0.1900
  474MOL0     H65401   4.429   2.616   4.965 -0.3820 -2.7426 -0.8966
  474MOL0     H65402   4.530   2.645   5.261  0.0256 -0.7173  0.8256
  474MOL0     H65403   4.372   2.593   5.218  1.8049 -0.2991  2.4081
  474MOL0     H65404   4.339   2.809   5.095 -0.6395 -1.8400  0.6943
  474MOL0     H65405   4.335   2.822   5.269  0.2264 -0.7802  0.6621
  474MOL0     H65406   4.561   2.876   5.084  0.9403  0.3187  1.4016
  474MOL0     H65407   4.582   2.893   5.259  0.5987  3.0441  0.4290
  474MOL0     H65408   4.420   3.263   5.160  0.9024 -0.7572  0.2162
  474MOL0     H65409   4.288   2.443   5.053  0.6009  0.7961 -1.5407
  474MOL0     H65410   4.093   2.206   5.247  1.3565  0.3512  1.4674
  474MOL0     H65411   4.099   2.352   5.151 -2.9127 -1.0591 -2.2463
  474MOL0     H65412   4.074   2.195   5.075  0.1111 -1.0065  0.8468
  475MOL0     O65413  10.567   3.743   2.070 -0.2033 -0.5806 -0.1232
  475MOL0     C65414  10.625   3.825   1.996 -0.6576  0.6455  0.1114
  475MOL0     O65415  10.572   3.947   1.949  0.2637  0.0521 -0.6212
  475MOL0     C65416  10.504   4.024   2.036 -0.1863  0.3001  0.4976
  475MOL0     C65417  10.561   4.148   2.048  0.8864 -0.0778 -0.8449
  475MOL0     C65418  10.484   4.248   2.117  0.3742  0.3065  0.4729
  475MOL0     C65419  10.367   4.212   2.190 -0.3217 -0.3653  0.4145
  475MOL0     O65420  10.289   4.307   2.260 -0.2326  0.6227 -0.0930
  475MOL0     C65421  10.335   4.438   2.304  0.5586 -0.5428 -0.0902
  475MOL0     C65422  10.256   4.478   2.424  0.8279  0.1030 -0.2286
  475MOL0     C65423  10.285   4.383   2.535  0.9185  0.3693  0.8646
  475MOL0     C65424  10.198   4.422   2.654 -0.0303  0.0000  0.0584
  475MOL0     C65425  10.197   4.310   2.763  0.5625 -0.5733 -0.0817
  475MOL0     C65426  10.117   4.195   2.716  0.3118 -0.2836 -0.0177
  475MOL0     C65427   9.971   4.231   2.700 -0.1955 -0.6313  0.8381
  475MOL0     C65428   9.874   4.121   2.721  0.0387  0.4188 -0.0119
  475MOL0     N65429   9.736   4.170   2.703 -0.6480 -0.9050 -0.9168
  475MOL0     C65430   9.647   4.190   2.806 -0.8486 -0.3113  0.1136
  475MOL0     C65431   9.541   4.240   2.751  0.4499 -1.3272  0.4225
  475MOL0     C65432   9.408   4.259   2.809  0.7662  0.3580 -0.3431
  475MOL0     C65433   9.412   4.314   2.950 -0.6591 -0.4294 -1.7655
  475MOL0     C65434   9.263   4.319   3.015  0.2317 -0.2235 -0.5772
  475MOL0     C65435   9.268   4.374   3.154  0.1816 -0.1909  0.5526
  475MOL0     O65436   9.344   4.495   3.147 -0.4809 -0.1007 -0.2970
  475MOL0     C65437   9.333   4.583   3.250  0.2018 -0.1080  0.2410
  475MOL0     C65438   9.241   4.588   3.353 -0.2283  0.1522 -0.5026
  475MOL0     C65439   9.243   4.681   3.455  1.1116  0.6766 -0.2881
  475MOL0     C65440   9.149   4.668   3.569  0.5935  0.2105 -0.0458
  475MOL0     C65441   9.334   4.783   3.451 -0.4746  0.1487  0.2590
  475MOL0     C65442   9.356   4.881   3.563  0.2369 -0.0002  0.3001
  475MOL0     O65443   9.489   4.928   3.572  0.3228 -0.0471 -0.2786
  475MOL0     C65444   9.512   5.027   3.668  0.3470 -0.3168 -0.0680
  475MOL0     C65445   9.472   5.035   3.803 -0.1188  0.1618  0.6861
  475MOL0     C65446   9.525   5.128   3.886  0.3766 -0.3848 -0.2943
  475MOL0     C65447   9.624   5.214   3.849  0.8501 -0.1018 -1.0103
  475MOL0     O65448   9.675   5.286   3.953 -0.3229 -0.5882  0.6036
  475MOL0     C65449   9.776   5.391   3.925 -0.4100  0.0772 -0.0477
  475MOL0     C65450   9.918   5.323   3.931 -0.6211 -0.2191  0.2077
  475MOL0     C65451  10.025   5.419   3.883 -0.5796  0.5995 -0.0359
  475MOL0     C65452  10.153   5.336   3.872 -0.3675  0.4741 -0.1119
  475MOL0     C65453  10.283   5.416   3.866  0.1931  0.4594  0.3055
  475MOL0     C65454  10.405   5.317   3.864 -0.4070 -0.8518  0.6777
  475MOL0     C65455  10.533   5.390   3.901  0.0481  0.3327  0.8000
  475MOL0     C65456  10.566   5.513   3.811  0.0196 -0.5082  0.8066
  475MOL0    Cl65457  10.587   5.470   3.636  0.1552 -0.2332 -0.0690
  475MOL0     C65458   9.664   5.209   3.719 -0.2298 -0.2920 -0.0306
  475MOL0     C65459   9.610   5.115   3.630 -0.1368  0.1924  0.9940
  475MOL0     O65460   9.259   4.925   3.622  0.5565 -0.1827  0.8313
  475MOL0     C65461   9.418   4.790   3.346 -0.2570 -0.6632  0.0097
  475MOL0     C65462   9.423   4.695   3.244  0.2974  0.2594  0.1727
  475MOL0     N65463   9.559   4.266   2.617 -0.7180  0.3534  0.3602
  475MOL0     N65464   9.661   4.207   2.586  0.1515  0.1158 -0.1936
  475MOL0     C65465  10.313   4.084   2.179  0.9330  0.2721  0.9822
  475MOL0     C65466  10.380   3.994   2.092  0.1260  0.4102 -0.2710
  475MOL0     C65467  10.756   3.780   1.936 -0.6955 -0.7156 -0.3849
  475MOL0     C65468  10.833   3.877   1.876 -0.5126 -0.5261  0.0245
  475MOL0     C65469  10.961   3.858   1.829 -0.3495 -0.5667 -0.7425
  475MOL0     C65470  11.028   3.728   1.841  0.3963 -0.4104 -1.2281
  475MOL0     O65471  11.157   3.702   1.791  0.1644  0.1314 -0.2232
  475MOL0     C65472  11.249   3.819   1.778  1.1655 -0.5008 -0.1146
  475MOL0     C65473  11.382   3.751   1.774 -1.4350  0.4324  0.2842
  475MOL0     C65474  11.415   3.665   1.645  0.4212  0.4788 -1.1073
  475MOL0     C65475  11.397   3.736   1.516  0.2905  0.1800 -0.6256
  475MOL0     C65476  11.465   3.651   1.418  0.8078  0.4526 -0.6343
  475MOL0     C65477  11.523   3.589   1.341 -0.1527  1.2907 -0.3742
  475MOL0     C65478  10.954   3.624   1.901  0.5924 -0.2265  0.2498
  475MOL0     C65479  10.821   3.651   1.954 -0.1308  0.0775  1.2749
  475MOL0     C65480  10.752   3.539   2.020  0.0509 -0.7777  0.1989
  475MOL0     H65481  10.650   4.188   2.001  0.6102  1.9694  0.3008
  475MOL0     H65482  10.530   4.346   2.123  2.2690 -0.4892 -0.2400
  475MOL0     H65483  10.312   4.508   2.223 -1.5116  0.5003  1.2952
  475MOL0     H65484  10.440   4.425   2.329  0.4028  1.0328  1.6274
  475MOL0     H65485  10.289   4.578   2.454  4.1570 -1.1620  0.8493
  475MOL0     H65486  10.155   4.477   2.383  0.8837 -0.2995 -0.3652
  475MOL0     H65487  10.259   4.281   2.504  1.0741 -0.4358  3.2071
  475MOL0     H65488  10.389   4.390   2.568  1.0077 -0.9755  0.9280
  475MOL0     H65489  10.245   4.508   2.702  0.7004 -0.1584 -0.3611
  475MOL0     H65490  10.096   4.443   2.620 -0.6215  1.9835  2.7154
  475MOL0     H65491  10.146   4.355   2.849  1.7115  3.3375 -1.2238
  475MOL0     H65492  10.300   4.286   2.791  0.6882  0.3785  0.3357
  475MOL0     H65493  10.152   4.152   2.622 -2.0610  0.1235 -1.1447
  475MOL0     H65494  10.118   4.124   2.799 -0.1374 -0.0900  0.1552
  475MOL0     H65495   9.959   4.272   2.599  0.1580  1.0762  1.4595
  475MOL0     H65496   9.942   4.304   2.775  0.0954  1.1214 -0.6828
  475MOL0     H65497   9.894   4.047   2.642  0.3781 -1.0439  1.3966
  475MOL0     H65498   9.887   4.050   2.804 -0.2742  1.4012  0.8939
  475MOL0     H65499   9.669   4.158   2.908  3.6079 -0.4215 -0.6631
  475MOL0     H65500   9.360   4.160   2.809 -1.5152  1.3787  0.8273
  475MOL0     H65501   9.362   4.335   2.745  0.1843 -0.2123 -0.6110
  475MOL0     H65502   9.484   4.267   3.018 -3.5329 -1.7792  0.6090
  475MOL0     H65503   9.453   4.415   2.950  0.3684 -0.6547  2.6062
  475MOL0     H65504   9.192   4.379   2.957  0.2781  1.7359  1.2885
  475MOL0     H65505   9.226   4.216   3.021  2.8944 -1.4215 -2.4729
  475MOL0     H65506   9.164   4.394   3.179  1.0048  2.4215  2.3912
  475MOL0     H65507   9.302   4.308   3.234 -1.4587 -0.8942  0.6956
  475MOL0     H65508   9.171   4.505   3.354  0.2845 -0.3007 -0.9458
  475MOL0     H65509   9.197   4.700   3.662 -1.5028  1.4242  0.6775
  475MOL0     H65510   9.127   4.563   3.590 -2.1023  0.9787  1.4010
  475MOL0     H65511   9.050   4.712   3.555 -0.0542 -1.0563  0.3450
  475MOL0     H65512   9.407   4.959   3.846 -1.6316  2.5193  2.8834
  475MOL0     H65513   9.486   5.127   3.987  0.6451 -2.2608 -0.1614
  475MOL0     H65514   9.761   5.438   3.827 -0.3225  1.5559  0.6170
  475MOL0     H65515   9.767   5.465   4.005 -0.6879  0.5491 -0.5015
  475MOL0     H65516   9.937   5.283   4.031  1.8567 -1.7758 -0.7999
  475MOL0     H65517   9.911   5.235   3.867  1.1291  1.8738 -3.1876
  475MOL0     H65518  10.040   5.509   3.942  0.2171  2.0860 -2.3830
  475MOL0     H65519  10.014   5.454   3.780  2.1065  1.0750 -0.2162
  475MOL0     H65520  10.147   5.264   3.790  2.8382 -0.2490  0.1545
  475MOL0     H65521  10.160   5.277   3.964 -2.4302  1.9633  1.0796
  475MOL0     H65522  10.283   5.455   3.764 -0.7643  0.1546  0.1849
  475MOL0     H65523  10.295   5.494   3.942  1.5985 -0.4771  1.1056
  475MOL0     H65524  10.424   5.277   3.764  1.6015 -2.7947  1.7513
  475MOL0     H65525  10.383   5.223   3.917  1.0810 -0.8493  1.3315
  475MOL0     H65526  10.614   5.319   3.883  0.6290  1.4837 -1.5952
  475MOL0     H65527  10.536   5.405   4.009 -0.4292  1.6517  0.6435
  475MOL0     H65528  10.664   5.553   3.841  0.7208 -1.1728 -0.5205
  475MOL0     H65529  10.486   5.587   3.823 -1.9893 -2.2982 -0.7217
  475MOL0     H65530   9.745   5.264   3.671  0.0243 -1.1306 -0.5833
  475MOL0     H65531   9.646   5.104   3.528 -1.6123 -0.2714  0.5070
  475MOL0     H65532   9.501   4.859   3.347 -0.9985  0.2611 -0.5047
  475MOL0     H65533   9.490   4.705   3.159  0.0512  1.2814  0.0878
  475MOL0     H65534  10.217   4.056   2.221  0.6779  3.2104  2.6208
  475MOL0     H65535  10.349   3.892   2.069 -0.9645  0.5225  0.6103
  475MOL0     H65536  10.797   3.978   1.860  0.7114 -0.0422  0.1705
  475MOL0     H65537  11.011   3.945   1.788 -0.9538  0.4152  0.5103
  475MOL0     H65538  11.235   3.872   1.684 -2.1282 -2.0805 -0.6828
  475MOL0     H65539  11.242   3.894   1.858 -4.4127  2.7390 -3.0375
  475MOL0     H65540  11.383   3.673   1.851 -1.5806 -3.8307 -3.6138
  475MOL0     H65541  11.466   3.820   1.787 -2.4914  1.3134  3.0193
  475MOL0     H65542  11.517   3.629   1.661  0.4001  0.9255  0.1089
  475MOL0     H65543  11.351   3.576   1.648  0.2810  0.6087  0.6809
  475MOL0     H65544  11.445   3.834   1.510  1.4383 -0.3846 -0.8595
  475MOL0     H65545  11.291   3.740   1.487 -0.1024 -1.4503  0.4608
  475MOL0     H65546  11.593   3.530   1.285 -2.1175 -0.4612 -1.1258
  475MOL0     H65547  11.003   3.528   1.907  3.0200  0.7844 -1.6981
  475MOL0     H65548  10.652   3.504   1.991  0.9344 -1.5799 -2.0432
  475MOL0     H65549  10.813   3.450   2.001 -1.9905 -2.5684  1.4754
  475MOL0     H65550  10.753   3.559   2.128 -0.2308 -0.3264  0.1204
  476MOL0     O65551   7.213   4.789  10.245 -0.4218 -0.1281 -0.3140
  476MOL0     C65552   7.151   4.680  10.242  0.9051 -0.1523 -0.5065
  476MOL0     O65553   7.027   4.660  10.207 -0.2602 -0.1482  1.0948
  476MOL0     C65554   6.958   4.763  10.152 -0.1392  0.0126 -0.4563
  476MOL0     C65555   6.979   4.807  10.023  0.2521  0.0162 -0.1842
  476MOL0     C65556   6.910   4.908   9.973 -0.8637  1.0069  0.3413
  476MOL0     C65557   6.804   4.968  10.043 -0.0222  0.0744 -0.2790
  476MOL0     O65558   6.726   5.062   9.983  0.4179 -0.6398  0.3612
  476MOL0     C65559   6.660   5.171  10.043  0.4823 -0.2952 -0.5029
  476MOL0     C65560   6.603   5.283   9.953  0.6168  0.1686 -0.5954
  476MOL0     C65561   6.700   5.379   9.882  1.7799 -0.3384  0.3982
  476MOL0     C65562   6.731   5.317   9.740 -0.0964  0.1616 -0.1270
  476MOL0     C65563   6.844   5.401   9.680  0.8407 -1.1057 -0.2297
  476MOL0     C65564   6.985   5.348   9.696  0.0453 -0.0964  0.2583
  476MOL0     C65565   7.082   5.470   9.663  0.1850 -0.7852  0.1030
  476MOL0     C65566   7.121   5.546   9.786  0.1458 -0.0341 -0.6310
  476MOL0     N65567   7.188   5.455   9.871 -0.4336 -0.3020 -0.7181
  476MOL0     C65568   7.148   5.425  10.006  0.9913  0.2960  0.1870
  476MOL0     C65569   7.229   5.325  10.047 -0.9506  1.1989  0.8719
  476MOL0     C65570   7.216   5.235  10.169  0.6521  0.2709  0.3897
  476MOL0     C65571   7.348   5.257  10.243 -0.2755  0.5929  0.1715
  476MOL0     C65572   7.472   5.193  10.166  0.6169 -0.7366  0.5997
  476MOL0     C65573   7.610   5.188  10.238 -0.3909 -0.7036 -0.7202
  476MOL0     O65574   7.596   5.096  10.347 -0.2349 -0.1551 -0.4828
  476MOL0     C65575   7.634   4.969  10.313  0.7693  0.0887 -0.2796
  476MOL0     C65576   7.764   4.935  10.331 -0.1211 -0.3603 -0.0339
  476MOL0     C65577   7.819   4.812  10.329  0.6322  0.1872  0.5345
  476MOL0     C65578   7.967   4.796  10.337  0.4686 -0.3589  0.5088
  476MOL0     C65579   7.736   4.703  10.316 -0.7732 -0.7184 -0.3957
  476MOL0     C65580   7.786   4.562  10.323 -0.5687 -0.4896  0.6983
  476MOL0     O65581   7.728   4.487  10.226 -0.6470  0.0764  0.1905
  476MOL0     C65582   7.718   4.346  10.224 -0.5048  0.1232  0.4049
  476MOL0     C65583   7.625   4.293  10.133  0.6136 -0.1261 -0.5627
  476MOL0     C65584   7.606   4.162  10.116 -0.6567  1.0303 -0.0546
  476MOL0     C65585   7.675   4.063  10.183 -0.7722 -0.3395 -0.6938
  476MOL0     O65586   7.646   3.929  10.169 -0.0738  0.1164 -0.0119
  476MOL0     C65587   7.755   3.845  10.194 -0.0415  0.7658  0.7126
  476MOL0     C65588   7.728   3.788  10.336 -0.9793 -0.5934  0.4355
  476MOL0     C65589   7.658   3.655  10.340  0.6259 -0.0897  0.7275
  476MOL0     C65590   7.648   3.595  10.482  0.0591 -0.2259  0.4674
  476MOL0     C65591   7.596   3.453  10.485  0.6704  0.3131  0.0732
  476MOL0     C65592   7.440   3.450  10.466  0.3922  0.4273 -0.5187
  476MOL0     C65593   7.370   3.483  10.601  0.2851  0.3736 -0.5583
  476MOL0     C65594   7.220   3.493  10.563 -1.3894  0.0810 -1.1819
  476MOL0    Cl65595   7.120   3.421  10.688 -0.3415 -0.0223  0.0451
  476MOL0     C65596   7.765   4.113  10.286 -0.3751 -0.1758 -0.3832
  476MOL0     C65597   7.792   4.252  10.294  0.2325  0.8723 -0.6784
  476MOL0     O65598   7.875   4.529  10.403  1.1442  0.4028 -0.1372
  476MOL0     C65599   7.598   4.724  10.304  0.0080  0.4468  0.5230
  476MOL0     C65600   7.548   4.857  10.312 -0.0523  0.3929  0.0787
  476MOL0     N65601   7.300   5.278   9.936  0.0978  0.1506  0.5187
  476MOL0     N65602   7.281   5.359   9.838  0.0995  0.2562  0.0530
  476MOL0     C65603   6.777   4.922  10.174 -0.0506 -0.6152 -0.7148
  476MOL0     C65604   6.855   4.821  10.227  0.8966 -0.2648 -0.0160
  476MOL0     C65605   7.232   4.572  10.300  0.5455  0.0833 -0.1887
  476MOL0     C65606   7.300   4.594  10.429 -0.3189 -0.5825  0.8135
  476MOL0     C65607   7.384   4.501  10.489  0.2629 -0.1431 -0.2790
  476MOL0     C65608   7.408   4.376  10.418  0.2448 -0.1828  0.2300
  476MOL0     O65609   7.465   4.264  10.475  0.5746  0.0563 -0.1238
  476MOL0     C65610   7.512   4.268  10.609 -0.5573  0.2095 -0.2098
  476MOL0     C65611   7.587   4.134  10.650  0.1173 -0.5115 -0.4828
  476MOL0     C65612   7.497   4.012  10.687 -0.4864  0.9611 -0.7627
  476MOL0     C65613   7.574   3.903  10.773  0.0730  0.4590 -0.7129
  476MOL0     C65614   7.581   3.943  10.918  0.4061  0.3815  0.2424
  476MOL0     C65615   7.587   3.979  11.034  0.5784  0.3972  0.5962
  476MOL0     C65616   7.348   4.358  10.288  0.6515  0.0769 -0.6091
  476MOL0     C65617   7.271   4.456  10.224 -0.3360  0.4414  0.7148
  476MOL0     C65618   7.234   4.437  10.075  0.8802  0.4791 -0.1449
  476MOL0     H65619   7.060   4.766   9.963 -0.4733 -0.6566 -0.7234
  476MOL0     H65620   6.946   4.950   9.879  2.1122 -0.0473  0.9064
  476MOL0     H65621   6.705   5.236  10.119 -0.3294  1.9774 -1.8637
  476MOL0     H65622   6.569   5.127  10.085  0.3790 -0.8042 -1.2550
  476MOL0     H65623   6.543   5.231   9.877 -2.0446 -1.8390  2.5870
  476MOL0     H65624   6.528   5.341  10.009 -1.2925  0.3815 -3.1676
  476MOL0     H65625   6.659   5.481   9.876  3.8875  1.0470  4.7931
  476MOL0     H65626   6.792   5.388   9.941  1.4019  2.5617  0.6942
  476MOL0     H65627   6.762   5.212   9.749  0.9829  0.2144 -2.5564
  476MOL0     H65628   6.644   5.326   9.674  0.5798  5.6905 -0.7060
  476MOL0     H65629   6.837   5.501   9.725 -1.6991 -1.3161  0.0006
  476MOL0     H65630   6.835   5.424   9.573  4.6486  3.1916  0.0487
  476MOL0     H65631   7.006   5.299   9.792  1.0895 -0.0132  0.0927
  476MOL0     H65632   6.994   5.269   9.621 -0.2604 -1.4309  1.5791
  476MOL0     H65633   7.033   5.535   9.590 -0.6955 -1.4017  0.1283
  476MOL0     H65634   7.173   5.436   9.611 -0.9501  0.0789 -2.6071
  476MOL0     H65635   7.192   5.624   9.756 -2.4193  1.7412 -2.4831
  476MOL0     H65636   7.027   5.586   9.827 -0.0185  1.0070 -1.9692
  476MOL0     H65637   7.066   5.476  10.056 -1.0439 -2.5215 -0.0480
  476MOL0     H65638   7.208   5.129  10.147  2.8990  0.2022 -0.3542
  476MOL0     H65639   7.138   5.262  10.240  1.6838  1.9962  0.9485
  476MOL0     H65640   7.367   5.363  10.263  2.2371  0.9826 -3.2688
  476MOL0     H65641   7.332   5.210  10.340  0.1000  2.8860  1.4347
  476MOL0     H65642   7.446   5.093  10.131  2.1805 -1.4304  1.3166
  476MOL0     H65643   7.489   5.256  10.077  1.2250 -0.6678  0.7610
  476MOL0     H65644   7.687   5.153  10.169  0.7673 -0.7218  0.5333
  476MOL0     H65645   7.639   5.291  10.260  0.8051 -0.5773 -2.6547
  476MOL0     H65646   7.833   5.018  10.339 -1.0298  0.9761 -3.7932
  476MOL0     H65647   7.999   4.818  10.439  2.7165  1.8538 -0.5541
  476MOL0     H65648   8.008   4.879  10.278 -0.9341  1.0198  1.3787
  476MOL0     H65649   7.993   4.698  10.295 -3.5608 -0.6576 -1.8195
  476MOL0     H65650   7.551   4.342  10.070  1.5524  2.5044  0.2477
  476MOL0     H65651   7.524   4.121  10.058  0.7478 -2.6051  0.2670
  476MOL0     H65652   7.731   3.770  10.119 -1.4500 -0.6696  2.5022
  476MOL0     H65653   7.856   3.886  10.179  0.2831 -1.2436 -5.2452
  476MOL0     H65654   7.823   3.773  10.390 -1.9423 -0.1672  2.3474
  476MOL0     H65655   7.672   3.857  10.401  0.5507 -0.5233  1.7674
  476MOL0     H65656   7.725   3.585  10.288  3.5640  1.1491  2.6050
  476MOL0     H65657   7.566   3.663  10.281 -0.5557 -2.8669  1.9967
  476MOL0     H65658   7.587   3.667  10.536  1.5579 -0.5008  2.6873
  476MOL0     H65659   7.748   3.606  10.525 -0.1947  1.0587  0.7450
  476MOL0     H65660   7.649   3.391  10.412  0.9376  1.2847 -0.5748
  476MOL0     H65661   7.604   3.401  10.581  3.1236 -0.6203 -0.5777
  476MOL0     H65662   7.409   3.348  10.443 -0.0940  0.2663  0.7732
  476MOL0     H65663   7.416   3.513  10.379  3.0743  1.4343 -0.6405
  476MOL0     H65664   7.409   3.573  10.650  0.3232 -1.2142  2.5778
  476MOL0     H65665   7.387   3.399  10.668  2.5520  0.8471 -0.4466
  476MOL0     H65666   7.191   3.430  10.479 -0.4013 -2.8144  0.4949
  476MOL0     H65667   7.197   3.599  10.549  0.7991  0.4155 -2.7593
  476MOL0     H65668   7.825   4.057  10.356  0.3040 -0.8354 -1.4626
  476MOL0     H65669   7.855   4.284  10.377 -1.3994 -0.6839  1.2811
  476MOL0     H65670   7.527   4.645  10.288 -1.0501  1.7669 -1.7541
  476MOL0     H65671   7.442   4.869  10.331  0.3500  1.5081  1.8057
  476MOL0     H65672   6.686   4.949  10.226 -0.6864 -1.1164 -1.5603
  476MOL0     H65673   6.830   4.782  10.325  0.1124 -1.1750 -0.5574
  476MOL0     H65674   7.275   4.685  10.483 -0.7103  0.7006 -1.3548
  476MOL0     H65675   7.431   4.522  10.584 -0.6518  0.8427 -0.0280
  476MOL0     H65676   7.589   4.346  10.611  0.4919 -0.6327 -2.8626
  476MOL0     H65677   7.435   4.281  10.685  1.5369  0.7554  1.9519
  476MOL0     H65678   7.637   4.154  10.745 -1.7745  2.6635 -0.0178
  476MOL0     H65679   7.655   4.111  10.566 -0.8110  0.8443 -1.6561
  476MOL0     H65680   7.418   4.050  10.752 -0.2413  2.7317 -1.4452
  476MOL0     H65681   7.470   3.967  10.591 -0.0508 -0.1663 -0.3672
  476MOL0     H65682   7.671   3.882  10.726  0.0391 -1.9823  0.1430
  476MOL0     H65683   7.517   3.809  10.771  1.0019 -0.1198 -2.9582
  476MOL0     H65684   7.592   4.007  11.138  0.1714 -0.4816  0.8696
  476MOL0     H65685   7.367   4.264  10.237 -1.2680 -1.1658  0.8261
  476MOL0     H65686   7.184   4.340  10.067  2.3716 -0.3073 -0.3649
  476MOL0     H65687   7.163   4.516  10.048 -0.8784 -0.4344  1.5747
  476MOL0     H65688   7.318   4.439  10.005  0.5998  0.2387 -0.4913
  477MOL0     O65689   2.706   8.210   1.239 -0.0124  0.6682  0.3109
  477MOL0     C65690   2.598   8.210   1.177  0.4678 -0.4686  0.3060
  477MOL0     O65691   2.559   8.300   1.074  0.6932 -0.5533  0.5264
  477MOL0     C65692   2.638   8.352   0.975 -1.0757  0.4456 -0.3987
  477MOL0     C65693   2.776   8.325   0.962  0.0179  0.2710 -0.3384
  477MOL0     C65694   2.862   8.407   0.887 -0.2535  1.0227  0.1075
  477MOL0     C65695   2.815   8.523   0.821  0.0766 -0.6144 -0.7810
  477MOL0     O65696   2.890   8.607   0.746  0.0146  0.2818 -0.5896
  477MOL0     C65697   2.993   8.558   0.662  0.7739 -0.1228  0.7487
  477MOL0     C65698   2.946   8.585   0.511  0.5435  0.3152  0.2578
  477MOL0     C65699   2.809   8.518   0.487  0.6657  0.1192 -0.0724
  477MOL0     C65700   2.806   8.371   0.509 -0.1931 -0.1743  0.5510
  477MOL0     C65701   2.647   8.336   0.505 -0.9097 -1.1580 -0.0354
  477MOL0     C65702   2.616   8.206   0.580  0.5785  0.0836  0.2686
  477MOL0     C65703   2.465   8.200   0.619 -0.1650 -0.4947 -0.6252
  477MOL0     C65704   2.359   8.207   0.508  0.3641  0.0537  0.6722
  477MOL0     N65705   2.227   8.161   0.553  0.5959  0.2728  0.3951
  477MOL0     C65706   2.181   8.030   0.554 -0.1949 -0.7782 -0.3826
  477MOL0     C65707   2.055   8.038   0.616 -1.4640  0.1364 -0.7735
  477MOL0     C65708   1.965   7.929   0.661 -0.5428 -1.2055 -0.2828
  477MOL0     C65709   2.007   7.847   0.779 -0.2465  1.8733  0.7913
  477MOL0     C65710   2.024   7.935   0.908 -0.7449  0.1333  0.2019
  477MOL0     C65711   1.896   8.010   0.950 -0.4658 -0.3725 -0.3300
  477MOL0     O65712   1.806   7.909   0.982  0.4421 -0.9524 -0.5327
  477MOL0     C65713   1.672   7.935   1.009 -1.1498  0.4127  0.3228
  477MOL0     C65714   1.582   7.831   1.035 -0.5477  0.5009  0.1038
  477MOL0     C65715   1.446   7.857   1.073  0.2132 -0.5743  0.0148
  477MOL0     C65716   1.364   7.733   1.109 -0.3041 -0.0496 -0.0405
  477MOL0     C65717   1.403   7.993   1.091 -0.0493  0.0797 -0.1537
  477MOL0     C65718   1.273   8.010   1.144 -0.5586 -0.4061  0.4350
  477MOL0     O65719   1.154   7.993   1.057 -0.5137  0.3781 -0.1230
  477MOL0     C65720   1.031   7.996   1.110 -0.4988  0.7467 -0.8237
  477MOL0     C65721   0.976   8.107   1.149  0.1611  0.4918 -0.5159
  477MOL0     C65722   0.849   8.111   1.212 -0.7592  0.2505 -0.3962
  477MOL0     C65723   0.778   7.992   1.213 -0.0671  0.0571 -0.1622
  477MOL0     O65724   0.647   8.009   1.257 -0.3987 -0.7204  0.4341
  477MOL0     C65725   0.550   7.923   1.205  0.3972  0.1662  0.5503
  477MOL0     C65726   0.406   7.954   1.237 -0.1918  0.6592  0.1604
  477MOL0     C65727   0.379   7.965   1.392 -1.1456  0.1527  0.4431
  477MOL0     C65728   0.279   7.863   1.448 -0.1186 -0.3343  0.3526
  477MOL0     C65729   0.247   7.916   1.590  0.0302 -0.1617 -0.5423
  477MOL0     C65730   0.207   7.797   1.686 -0.9756 -0.2318 -0.4469
  477MOL0     C65731   0.087   7.834   1.780  0.6159  0.1108 -0.7333
  477MOL0     C65732   0.057   7.703   1.860  0.6763  1.0562  0.7799
  477MOL0    Cl65733  -0.044   7.749   1.996 -0.0199 -0.2796 -0.4130
  477MOL0     C65734   0.837   7.874   1.162  0.2986  0.3635  1.2875
  477MOL0     C65735   0.961   7.878   1.113  0.4205 -0.0170  0.8385
  477MOL0     O65736   1.275   8.050   1.261 -0.4857 -0.4205 -0.4045
  477MOL0     C65737   1.499   8.091   1.062 -1.0442 -0.1877  0.7023
  477MOL0     C65738   1.631   8.064   1.026 -0.3754 -0.1175  1.3769
  477MOL0     N65739   2.045   8.173   0.657  0.6603 -0.4684 -0.9737
  477MOL0     N65740   2.149   8.244   0.626  0.0148  0.3226  0.5004
  477MOL0     C65741   2.675   8.544   0.835 -0.7206 -0.1620 -0.6309
  477MOL0     C65742   2.593   8.458   0.903  0.5701 -0.7553  0.3364
  477MOL0     C65743   2.496   8.119   1.225 -0.5455  0.9032 -0.5614
  477MOL0     C65744   2.500   8.078   1.363 -0.0818 -0.2140 -0.2665
  477MOL0     C65745   2.391   7.992   1.412 -0.9120 -0.7227  0.6687
  477MOL0     C65746   2.296   7.928   1.327 -0.4766 -0.4900 -0.3256
  477MOL0     O65747   2.206   7.838   1.366  1.4438  0.2491 -0.3336
  477MOL0     C65748   2.205   7.786   1.502  0.0554  0.0241  0.5453
  477MOL0     C65749   2.254   7.641   1.489 -0.5332 -0.3295 -0.3282
  477MOL0     C65750   2.257   7.569   1.613  0.7280 -0.1766  0.5233
  477MOL0     C65751   2.295   7.424   1.584  0.2889  0.0722 -0.1647
  477MOL0     C65752   2.288   7.350   1.710  0.2931  0.3160 -0.2366
  477MOL0     C65753   2.281   7.304   1.825 -0.0073  0.2958  0.1217
  477MOL0     C65754   2.297   7.976   1.195 -0.1825  0.8996  0.8882
  477MOL0     C65755   2.391   8.063   1.143 -0.3341 -0.5545 -0.7113
  477MOL0     C65756   2.395   8.090   0.989  0.4896  0.0778 -0.3287
  477MOL0     H65757   2.823   8.250   1.025 -1.4267 -3.0476 -2.8699
  477MOL0     H65758   2.966   8.375   0.883 -0.7341 -0.9386  1.8268
  477MOL0     H65759   3.009   8.451   0.676  1.1434 -0.2561 -0.5080
  477MOL0     H65760   3.092   8.604   0.665  0.2217  1.7988 -3.1196
  477MOL0     H65761   2.941   8.692   0.489 -0.0669  0.2967  0.2937
  477MOL0     H65762   3.018   8.536   0.445  0.2477  2.0613 -1.4306
  477MOL0     H65763   2.726   8.570   0.535  1.5139  2.3670 -0.8977
  477MOL0     H65764   2.801   8.528   0.379  1.2231  2.0615  0.0309
  477MOL0     H65765   2.862   8.320   0.430 -2.7618 -0.3770 -1.2753
  477MOL0     H65766   2.839   8.343   0.609 -0.7377  0.0114  0.7898
  477MOL0     H65767   2.609   8.334   0.402  1.2827  0.7214 -0.9823
  477MOL0     H65768   2.601   8.417   0.561  1.7754  0.8840 -0.5637
  477MOL0     H65769   2.641   8.129   0.506  0.9589  2.0194 -1.7224
  477MOL0     H65770   2.687   8.191   0.661  1.5110  0.2005 -0.5120
  477MOL0     H65771   2.436   8.278   0.691  2.7704  0.0950  0.0777
  477MOL0     H65772   2.457   8.100   0.663  1.9666  0.0249  1.1630
  477MOL0     H65773   2.347   8.310   0.473 -2.1621  0.7140  3.1348
  477MOL0     H65774   2.395   8.148   0.423 -0.2620  0.0983  0.3734
  477MOL0     H65775   2.230   7.945   0.508  2.3940  0.5397 -0.2352
  477MOL0     H65776   1.962   7.865   0.573  0.0951 -1.9450  0.2268
  477MOL0     H65777   1.861   7.962   0.674 -0.3974  0.1863 -2.2240
  477MOL0     H65778   1.929   7.772   0.794  2.4615 -0.9995  1.7982
  477MOL0     H65779   2.098   7.797   0.745 -2.3482  0.4450 -3.5249
  477MOL0     H65780   2.051   7.889   1.003 -3.4751  1.4453  1.7263
  477MOL0     H65781   2.094   8.015   0.881 -0.5118  0.2525  1.1237
  477MOL0     H65782   1.916   8.070   1.038  3.1295 -4.2923  1.8679
  477MOL0     H65783   1.870   8.071   0.863 -1.9091 -4.1321 -2.8095
  477MOL0     H65784   1.614   7.730   1.010 -3.5233 -0.4205 -0.3966
  477MOL0     H65785   1.260   7.745   1.077  0.2017  1.6396 -1.1481
  477MOL0     H65786   1.373   7.702   1.214  1.5120 -3.3667 -1.0116
  477MOL0     H65787   1.412   7.646   1.063  2.6753  0.7995  1.1778
  477MOL0     H65788   1.033   8.199   1.151  1.0946 -0.0829 -0.0315
  477MOL0     H65789   0.805   8.203   1.249  0.7110  0.0685  2.0645
  477MOL0     H65790   0.572   7.926   1.098  0.3321  1.7712  0.5623
  477MOL0     H65791   0.573   7.820   1.234 -0.6041 -1.8256 -4.6625
  477MOL0     H65792   0.372   8.048   1.192 -2.7027 -0.6749 -0.9778
  477MOL0     H65793   0.349   7.872   1.192  0.8574  0.3226 -0.5721
  477MOL0     H65794   0.345   8.066   1.416 -0.5928  0.0336  1.8237
  477MOL0     H65795   0.476   7.965   1.444 -1.2219 -0.8169  0.5985
  477MOL0     H65796   0.325   7.764   1.464 -1.6132 -1.2888 -0.9600
  477MOL0     H65797   0.182   7.858   1.397 -0.6643  0.8761  1.2334
  477MOL0     H65798   0.342   7.953   1.630  0.8406 -2.0387 -0.6614
  477MOL0     H65799   0.164   7.988   1.586 -1.3838 -1.7490 -0.8823
  477MOL0     H65800   0.292   7.771   1.749 -0.1347  0.6999 -1.1658
  477MOL0     H65801   0.180   7.704   1.636 -0.4648 -2.4951  3.1366
  477MOL0     H65802  -0.007   7.871   1.737 -1.7083 -2.9761  1.3086
  477MOL0     H65803   0.120   7.911   1.851  0.7592 -1.3960  0.8801
  477MOL0     H65804   0.140   7.654   1.911 -0.6584  2.0095  4.1735
  477MOL0     H65805   0.018   7.618   1.802  0.2063  1.3948  0.5897
  477MOL0     H65806   0.777   7.784   1.155 -1.8306  1.6433  2.1739
  477MOL0     H65807   1.004   7.787   1.073 -2.2119  0.0922 -2.7264
  477MOL0     H65808   1.466   8.194   1.076 -3.1581 -0.7237  0.0787
  477MOL0     H65809   1.693   8.150   1.002  1.0325 -1.2233  0.9393
  477MOL0     H65810   2.635   8.637   0.795 -0.4712  0.0517 -0.3989
  477MOL0     H65811   2.487   8.481   0.908  0.3161 -0.1127 -4.0898
  477MOL0     H65812   2.574   8.107   1.437  0.8683 -0.6718 -1.0286
  477MOL0     H65813   2.401   7.959   1.514  0.8019 -4.2612 -0.4884
  477MOL0     H65814   2.260   7.833   1.584 -1.1514 -2.5575  3.0047
  477MOL0     H65815   2.096   7.789   1.510 -0.4047  1.8753 -3.7413
  477MOL0     H65816   2.359   7.637   1.458 -0.5914 -1.4753 -0.4194
  477MOL0     H65817   2.191   7.589   1.417 -2.3929  2.6554 -1.0316
  477MOL0     H65818   2.327   7.625   1.676 -1.2720  2.0355  0.9284
  477MOL0     H65819   2.156   7.586   1.652  1.1780  4.6682  0.2408
  477MOL0     H65820   2.400   7.428   1.553  0.8489 -2.3918  1.1340
  477MOL0     H65821   2.231   7.370   1.513  0.9447 -2.9388  1.3608
  477MOL0     H65822   2.259   7.271   1.925  1.3866  1.3929  0.8267
  477MOL0     H65823   2.215   7.938   1.135  1.8367 -1.2302 -0.7236
  477MOL0     H65824   2.339   8.018   0.929  1.9452  0.3891 -2.1644
  477MOL0     H65825   2.372   8.196   0.974  0.7016 -0.1217 -2.3715
  477MOL0     H65826   2.493   8.074   0.942  0.3247  0.1957 -0.7155
  478MOL0     O65827   7.009   8.485  10.036 -0.2947 -0.3360  0.4922
  478MOL0     C65828   6.942   8.407  10.094 -0.0022  0.3736 -0.1658
  478MOL0     O65829   6.874   8.299  10.042 -0.0924 -0.4559  0.1631
  478MOL0     C65830   6.904   8.267   9.914  0.2031  0.0847 -0.3774
  478MOL0     C65831   6.860   8.337   9.801 -0.1623 -0.3225  0.8987
  478MOL0     C65832   6.888   8.301   9.673 -0.3358 -0.5193 -0.3147
  478MOL0     C65833   6.948   8.178   9.657  0.0076  0.6899  1.2848
  478MOL0     O65834   6.973   8.140   9.531  0.4781 -0.4575  0.0738
  478MOL0     C65835   7.108   8.126   9.495 -0.1621  0.5143 -0.4656
  478MOL0     C65836   7.128   8.005   9.402  0.5424 -0.3588  0.2474
  478MOL0     C65837   7.281   7.990   9.386 -0.8091  0.2864 -1.3845
  478MOL0     C65838   7.308   7.870   9.302  0.4880 -0.4091  0.0729
  478MOL0     C65839   7.455   7.831   9.316  0.8184 -0.1004  0.0775
  478MOL0     C65840   7.479   7.698   9.247 -0.3167  0.3869  0.6162
  478MOL0     C65841   7.617   7.637   9.265  0.1840 -0.4035  0.4484
  478MOL0     C65842   7.729   7.730   9.214  1.0919  1.3788  0.1911
  478MOL0     N65843   7.716   7.785   9.078 -0.1911 -0.3818  0.4918
  478MOL0     C65844   7.704   7.704   8.967 -0.5650  0.1806 -0.2847
  478MOL0     C65845   7.678   7.787   8.866 -0.5548 -0.5050 -0.0762
  478MOL0     C65846   7.649   7.757   8.725 -0.3290  0.1194 -0.0443
  478MOL0     C65847   7.499   7.785   8.694  0.1215  0.0741 -0.4824
  478MOL0     C65848   7.418   7.661   8.676 -0.1198  0.2611  0.1452
  478MOL0     C65849   7.266   7.694   8.648  0.6155 -0.0401 -0.3345
  478MOL0     O65850   7.237   7.793   8.550 -0.1831 -0.7969  0.5229
  478MOL0     C65851   7.235   7.764   8.415  0.7812 -1.1298 -0.6856
  478MOL0     C65852   7.204   7.866   8.320  0.2441 -0.0782  0.1175
  478MOL0     C65853   7.187   7.835   8.183  0.1604  0.5933 -0.5219
  478MOL0     C65854   7.139   7.942   8.094  0.4713 -0.1025  0.2179
  478MOL0     C65855   7.212   7.701   8.133 -0.7049 -0.8304 -0.6430
  478MOL0     C65856   7.174   7.644   7.997 -0.3928  0.6782  0.0719
  478MOL0     O65857   7.169   7.735   7.892 -0.0151  0.5635 -0.1924
  478MOL0     C65858   7.105   7.696   7.778  0.6864 -0.4017  0.7840
  478MOL0     C65859   6.974   7.650   7.778 -1.0099 -0.8320 -0.4609
  478MOL0     C65860   6.910   7.611   7.663  0.6240  0.5359  0.3898
  478MOL0     C65861   6.979   7.632   7.538 -0.5860 -0.8169  0.3346
  478MOL0     O65862   6.908   7.601   7.426 -0.1341  0.1444  0.2506
  478MOL0     C65863   6.960   7.594   7.289 -0.6135 -0.5665 -1.1957
  478MOL0     C65864   6.838   7.550   7.202  0.7413 -0.7117 -0.7438
  478MOL0     C65865   6.873   7.484   7.071  0.4146  0.2508  0.5249
  478MOL0     C65866   6.748   7.484   6.988  0.5674  0.4438 -0.0790
  478MOL0     C65867   6.776   7.432   6.853 -0.6970 -0.0434  0.8179
  478MOL0     C65868   6.758   7.273   6.840  0.5218  0.2596 -0.9989
  478MOL0     C65869   6.767   7.234   6.692 -0.1594 -1.4556  0.7060
  478MOL0     C65870   6.729   7.082   6.677  0.3749 -0.9415 -1.0734
  478MOL0    Cl65871   6.875   6.996   6.725  0.0942 -0.1233  0.6848
  478MOL0     C65872   7.117   7.688   7.538  0.8317  0.0158 -0.1849
  478MOL0     C65873   7.179   7.719   7.659 -0.1699  1.5010 -0.1605
  478MOL0     O65874   7.151   7.524   7.991  0.7061  0.3231 -0.5344
  478MOL0     C65875   7.256   7.614   8.227 -0.0211  0.3214  0.2178
  478MOL0     C65876   7.262   7.630   8.367  0.1713  0.2108  0.1698
  478MOL0     N65877   7.674   7.915   8.924  0.7363  0.0215 -0.2251
  478MOL0     N65878   7.696   7.914   9.049  0.1204  0.5986  0.1672
  478MOL0     C65879   6.985   8.090   9.768  0.7392 -0.1474  0.0484
  478MOL0     C65880   6.968   8.142   9.892 -0.0220  0.3180 -0.4854
  478MOL0     C65881   6.930   8.430  10.240  0.5626  0.5821 -0.2765
  478MOL0     C65882   6.884   8.317  10.318 -1.0970 -0.1329  0.5181
  478MOL0     C65883   6.873   8.312  10.448  0.3873 -0.6941 -0.1355
  478MOL0     C65884   6.895   8.424  10.521 -0.1315 -0.2023  0.8141
  478MOL0     O65885   6.877   8.397  10.651 -0.2580  0.5925 -0.1404
  478MOL0     C65886   6.869   8.502  10.746 -0.0222  0.6396 -0.1926
  478MOL0     C65887   6.844   8.439  10.898  0.1672 -0.5958  0.0792
  478MOL0     C65888   6.794   8.539  10.999  0.7771 -0.1238 -0.0550
  478MOL0     C65889   6.647   8.563  11.023  0.3031 -0.9209  0.0145
  478MOL0     C65890   6.578   8.439  11.063  0.7572  1.0481  0.1826
  478MOL0     C65891   6.506   8.348  11.094  0.5146 -0.0093 -0.2770
  478MOL0     C65892   6.912   8.549  10.458 -0.0024  0.4622 -0.2231
  478MOL0     C65893   6.929   8.551  10.313  0.3071  0.5122  0.5325
  478MOL0     C65894   6.943   8.684  10.245  0.8946  0.0759  0.0140
  478MOL0     H65895   6.815   8.432   9.830  1.5017  0.0419  2.4091
  478MOL0     H65896   6.865   8.374   9.596  0.6608  2.7238  2.2418
  478MOL0     H65897   7.164   8.122   9.589 -3.0869 -0.4965  1.3588
  478MOL0     H65898   7.135   8.220   9.444  3.0875  0.7174  1.3579
  478MOL0     H65899   7.081   7.921   9.455 -2.8028  0.2580 -1.4469
  478MOL0     H65900   7.071   8.016   9.309  0.8668  1.4886  0.2394
  478MOL0     H65901   7.328   8.077   9.339 -1.5260 -0.0867 -2.8829
  478MOL0     H65902   7.311   7.968   9.488  1.8445  1.3131 -1.8667
  478MOL0     H65903   7.254   7.780   9.335  2.4769 -2.0304 -0.8598
  478MOL0     H65904   7.287   7.897   9.199  0.5557 -1.3047 -0.1821
  478MOL0     H65905   7.490   7.825   9.420  0.9021 -0.0970  0.0488
  478MOL0     H65906   7.500   7.911   9.256  0.8540  1.8978  2.5673
  478MOL0     H65907   7.401   7.623   9.263 -1.1627  1.1516  0.2271
  478MOL0     H65908   7.464   7.709   9.139  0.8530 -2.7835  0.0224
  478MOL0     H65909   7.632   7.541   9.215 -2.6996 -0.3885 -0.6369
  478MOL0     H65910   7.639   7.627   9.372 -3.0162 -2.0498  1.0851
  478MOL0     H65911   7.734   7.816   9.281  2.3021  1.0428  0.5446
  478MOL0     H65912   7.822   7.673   9.214 -1.0854 -2.7580  4.1008
  478MOL0     H65913   7.717   7.596   8.969  5.1361  0.5333 -0.8482
  478MOL0     H65914   7.665   7.650   8.706  0.6786  0.4382 -1.1049
  478MOL0     H65915   7.725   7.808   8.665 -0.4532  1.3482  0.8058
  478MOL0     H65916   7.445   7.842   8.770 -0.3651 -0.8795 -0.0972
  478MOL0     H65917   7.493   7.833   8.595 -1.9161  1.2715  0.1824
  478MOL0     H65918   7.461   7.601   8.595  1.8737  1.6290  0.1033
  478MOL0     H65919   7.432   7.607   8.770  1.2928  0.9153  0.3314
  478MOL0     H65920   7.199   7.609   8.636 -1.7445  1.6436  0.3052
  478MOL0     H65921   7.236   7.749   8.737  0.6144 -0.2490 -0.2072
  478MOL0     H65922   7.173   7.963   8.359 -0.1019 -0.6793  1.3785
  478MOL0     H65923   7.212   7.975   8.019  1.1150  0.4176  1.0601
  478MOL0     H65924   7.090   8.031   8.136 -3.0019 -2.1391  0.9210
  478MOL0     H65925   7.058   7.904   8.030 -0.8235  0.6775  1.3384
  478MOL0     H65926   6.919   7.646   7.872 -0.6149 -4.1054 -0.2608
  478MOL0     H65927   6.810   7.569   7.657  2.1009 -3.5303  0.9722
  478MOL0     H65928   7.012   7.685   7.257  0.9567 -1.7613 -2.1535
  478MOL0     H65929   7.048   7.529   7.285  1.2248  1.7576 -0.9719
  478MOL0     H65930   6.765   7.486   7.251 -0.6777 -0.2166 -2.1111
  478MOL0     H65931   6.797   7.651   7.186  0.4306 -0.9480 -1.4785
  478MOL0     H65932   6.914   7.384   7.080  3.6253  1.4392  0.5146
  478MOL0     H65933   6.944   7.546   7.014 -0.2502  0.4076 -0.1395
  478MOL0     H65934   6.722   7.590   6.983  0.2368  0.3774  0.1718
  478MOL0     H65935   6.658   7.433   7.025  2.1812 -0.1469  3.3453
  478MOL0     H65936   6.706   7.475   6.782 -0.9604 -1.0533  0.4424
  478MOL0     H65937   6.876   7.468   6.826  0.6969 -2.6254  2.1638
  478MOL0     H65938   6.656   7.255   6.876  0.6465  0.0983 -0.7286
  478MOL0     H65939   6.832   7.220   6.899  0.4172 -0.4138 -1.4663
  478MOL0     H65940   6.866   7.256   6.650 -0.7146 -0.0147  0.1072
  478MOL0     H65941   6.685   7.280   6.637  0.2316 -1.6268 -0.0425
  478MOL0     H65942   6.718   7.055   6.572  1.8522 -3.1850 -0.7155
  478MOL0     H65943   6.639   7.048   6.729 -1.1567  0.3178 -2.7587
  478MOL0     H65944   7.155   7.716   7.441  4.5709 -1.2901  0.7462
  478MOL0     H65945   7.270   7.776   7.657 -0.4613  1.9885 -2.3406
  478MOL0     H65946   7.275   7.509   8.205  0.4916  0.1485  1.3910
  478MOL0     H65947   7.298   7.545   8.424  2.7904 -0.3080 -2.0346
  478MOL0     H65948   7.038   7.997   9.756  0.2331 -0.1332 -3.3848
  478MOL0     H65949   7.007   8.079   9.971 -1.1182 -2.1310 -1.7929
  478MOL0     H65950   6.846   8.237  10.256  0.0480  0.7182 -1.3515
  478MOL0     H65951   6.845   8.221  10.500 -1.9539 -0.0392 -0.1417
  478MOL0     H65952   6.959   8.563  10.751  1.1490 -1.0008 -0.5798
  478MOL0     H65953   6.786   8.571  10.726 -2.4360 -2.6123 -2.2595
  478MOL0     H65954   6.934   8.390  10.937 -1.9715 -3.6065  1.5715
  478MOL0     H65955   6.778   8.352  10.896  1.2573 -1.6599  3.3293
  478MOL0     H65956   6.827   8.510  11.099 -0.6386 -2.2345 -0.1278
  478MOL0     H65957   6.858   8.625  10.977 -2.3316  1.7149 -2.8225
  478MOL0     H65958   6.605   8.604  10.931  1.5796  1.1834  0.2895
  478MOL0     H65959   6.625   8.650  11.087  0.6336 -0.2255 -0.8044
  478MOL0     H65960   6.445   8.266  11.125 -1.8099  2.0057  0.8382
  478MOL0     H65961   6.920   8.638  10.520  3.2992  0.2199 -0.0927
  478MOL0     H65962   7.046   8.694  10.210  0.2879 -0.3190 -1.9775
  478MOL0     H65963   6.882   8.699  10.155  4.8134  1.1062 -2.7199
  478MOL0     H65964   6.931   8.767  10.316  0.3314 -0.4145  0.5048
  479MOL0     O65965   8.573   2.492   5.847 -0.0909 -0.5050  0.3423
  479MOL0     C65966   8.519   2.512   5.739  0.3318 -0.2587 -1.1310
  479MOL0     O65967   8.523   2.427   5.643 -0.2009 -0.3693  0.4267
  479MOL0     C65968   8.582   2.305   5.652  1.0204  0.9862 -0.4125
  479MOL0     C65969   8.703   2.280   5.709 -0.1593  0.7732  0.2814
  479MOL0     C65970   8.740   2.146   5.732  0.3759 -0.0841  0.4715
  479MOL0     C65971   8.664   2.037   5.680 -0.7481 -0.0388 -0.3987
  479MOL0     O65972   8.712   1.909   5.700 -0.3219  0.0363 -0.2396
  479MOL0     C65973   8.650   1.798   5.635  0.1405  0.0913  0.0492
  479MOL0     C65974   8.719   1.668   5.664  0.2586 -0.4660  0.9020
  479MOL0     C65975   8.694   1.615   5.803 -0.0341  0.6181 -0.4521
  479MOL0     C65976   8.750   1.474   5.815  0.1712 -0.1772 -0.1376
  479MOL0     C65977   8.687   1.358   5.731 -0.4901 -0.5311  0.8926
  479MOL0     C65978   8.566   1.304   5.808 -0.8607 -0.1114  0.1229
  479MOL0     C65979   8.475   1.232   5.724  0.6449  0.0602  0.5153
  479MOL0     C65980   8.543   1.110   5.655 -0.7498 -0.0728 -0.0251
  479MOL0     N65981   8.451   1.021   5.590 -0.4398 -0.3562  0.5196
  479MOL0     C65982   8.325   1.052   5.558  0.0411  1.5211 -0.4357
  479MOL0     C65983   8.270   0.931   5.531 -0.7385  0.7202 -0.8861
  479MOL0     C65984   8.126   0.907   5.479  0.3697 -0.1269 -0.1919
  479MOL0     C65985   8.034   0.873   5.596  0.0988  0.2804 -0.2669
  479MOL0     C65986   7.907   0.962   5.607  0.6904 -0.3022  0.2873
  479MOL0     C65987   7.960   1.100   5.664 -1.0628 -0.5871  0.1970
  479MOL0     O65988   7.852   1.192   5.683  0.4309  0.4580 -0.0576
  479MOL0     C65989   7.798   1.249   5.576 -0.9457 -0.5374 -0.8107
  479MOL0     C65990   7.680   1.322   5.602 -0.2889 -0.6305 -0.0747
  479MOL0     C65991   7.620   1.396   5.500 -0.0902 -1.0340 -0.0849
  479MOL0     C65992   7.502   1.486   5.536 -0.2908  0.8146  0.6568
  479MOL0     C65993   7.669   1.387   5.365 -0.1148 -0.2342 -0.0510
  479MOL0     C65994   7.625   1.472   5.236 -0.7025 -0.0198 -0.2753
  479MOL0     O65995   7.712   1.465   5.130  0.8242 -0.2317 -0.1380
  479MOL0     C65996   7.680   1.539   5.023 -0.6526 -0.3418 -0.0384
  479MOL0     C65997   7.639   1.479   4.915 -0.2116 -0.6086  0.8859
  479MOL0     C65998   7.631   1.551   4.797 -0.3260  0.3692 -0.2930
  479MOL0     C65999   7.658   1.688   4.785  0.2741  0.1093 -0.5271
  479MOL0     O66000   7.647   1.761   4.673 -0.1719  0.0220  0.3934
  479MOL0     C66001   7.531   1.754   4.591  0.5886 -0.1292  0.0980
  479MOL0     C66002   7.562   1.829   4.455 -0.8528  0.4461 -1.4291
  479MOL0     C66003   7.647   1.735   4.360  0.2238  0.2319 -0.6778
  479MOL0     C66004   7.573   1.611   4.290 -1.1515 -0.2415 -0.9375
  479MOL0     C66005   7.445   1.655   4.225 -0.4364  0.4304  0.5201
  479MOL0     C66006   7.476   1.728   4.095 -0.7479 -0.2623 -0.7655
  479MOL0     C66007   7.343   1.746   4.013  0.9111 -0.3451  0.1804
  479MOL0     C66008   7.364   1.797   3.872  0.3006  0.2633  0.8164
  479MOL0    Cl66009   7.445   1.964   3.869  0.0594  0.0786  0.0475
  479MOL0     C66010   7.704   1.753   4.909  1.2475 -0.2911  0.1387
  479MOL0     C66011   7.719   1.681   5.028 -0.3260  0.0281 -0.0896
  479MOL0     O66012   7.513   1.523   5.233  0.1779 -0.3133  0.6281
  479MOL0     C66013   7.787   1.323   5.349  0.0382  0.0709  0.2580
  479MOL0     C66014   7.855   1.255   5.450 -0.6475 -0.1935  0.0584
  479MOL0     N66015   8.366   0.835   5.544 -0.1476  0.5564  0.3485
  479MOL0     N66016   8.479   0.889   5.585  0.6574 -0.0215 -0.4333
  479MOL0     C66017   8.553   2.074   5.605  0.7867 -0.4952 -0.2318
  479MOL0     C66018   8.516   2.209   5.590  0.3209 -0.2295 -0.3277
  479MOL0     C66019   8.445   2.639   5.729  0.1103 -0.5115  0.0658
  479MOL0     C66020   8.351   2.652   5.624  0.6948  0.9518  1.2005
  479MOL0     C66021   8.277   2.760   5.603  0.2799 -0.5896  0.2474
  479MOL0     C66022   8.291   2.869   5.692  0.5319  0.3031 -0.3446
  479MOL0     O66023   8.219   2.988   5.680  0.4954  0.2080  0.1115
  479MOL0     C66024   8.081   2.978   5.647 -0.2693 -0.3670  0.3114
  479MOL0     C66025   8.055   3.028   5.507 -0.1579 -0.5347  0.9901
  479MOL0     C66026   7.924   2.982   5.458 -0.1916  0.3631  0.3561
  479MOL0     C66027   7.912   2.856   5.361 -0.4325 -0.0088 -0.2949
  479MOL0     C66028   7.952   2.734   5.436  0.1903  0.0769  0.3541
  479MOL0     C66029   7.988   2.641   5.505 -0.5377  0.7512 -0.6878
  479MOL0     C66030   8.391   2.861   5.788 -0.0208 -0.0480 -0.3919
  479MOL0     C66031   8.476   2.754   5.807 -0.9155 -0.0342 -0.0961
  479MOL0     C66032   8.590   2.764   5.904 -0.6303  0.2767 -0.0375
  479MOL0     H66033   8.778   2.355   5.731  0.7511  0.6641 -2.1285
  479MOL0     H66034   8.836   2.137   5.783 -1.1917 -0.9467  3.4909
  479MOL0     H66035   8.644   1.821   5.528 -2.1592  0.7803  0.2579
  479MOL0     H66036   8.543   1.791   5.659  0.1642  1.0808  0.4738
  479MOL0     H66037   8.683   1.596   5.590 -1.3536 -0.5887  1.7462
  479MOL0     H66038   8.826   1.688   5.654 -0.1972  2.0077  0.0967
  479MOL0     H66039   8.743   1.681   5.875  2.3645 -0.2342 -1.1948
  479MOL0     H66040   8.588   1.617   5.827  0.1304 -2.8409  1.1796
  479MOL0     H66041   8.854   1.476   5.782  0.4727  1.0332  0.8471
  479MOL0     H66042   8.726   1.456   5.920 -2.0476  3.9316  0.2514
  479MOL0     H66043   8.762   1.279   5.726  1.7493  1.5427 -0.3701
  479MOL0     H66044   8.675   1.401   5.631  3.6410  0.8566  0.8366
  479MOL0     H66045   8.601   1.238   5.888 -1.6489 -0.9081 -0.1734
  479MOL0     H66046   8.520   1.387   5.862  0.1976  0.7789 -0.2926
  479MOL0     H66047   8.434   1.303   5.652  0.9695  3.6844  3.6515
  479MOL0     H66048   8.395   1.188   5.784  0.3639 -0.0572  0.0662
  479MOL0     H66049   8.600   1.153   5.572  2.3869 -1.7877  1.0628
  479MOL0     H66050   8.607   1.064   5.731 -1.1970  0.3113  0.5942
  479MOL0     H66051   8.281   1.151   5.552  1.1776  2.0511 -0.2681
  479MOL0     H66052   8.121   0.830   5.401 -1.9458  1.9133 -2.2538
  479MOL0     H66053   8.094   1.003   5.438 -0.1639 -0.5086 -0.6904
  479MOL0     H66054   8.000   0.771   5.572  0.1074 -0.3814  2.2393
  479MOL0     H66055   8.085   0.870   5.693 -2.3976 -0.0639  1.1288
  479MOL0     H66056   7.871   0.982   5.506 -2.2511 -1.0219  1.0996
  479MOL0     H66057   7.827   0.921   5.669  1.5736 -1.3693  0.7736
  479MOL0     H66058   8.016   1.087   5.757  3.2364 -0.1630 -2.0980
  479MOL0     H66059   8.033   1.146   5.597  0.9136 -0.1985  2.4867
  479MOL0     H66060   7.631   1.304   5.698  0.2865 -0.2660  0.2915
  479MOL0     H66061   7.426   1.450   5.467  1.5906 -1.3830 -0.4043
  479MOL0     H66062   7.530   1.591   5.521  1.5768 -0.1615 -4.8113
  479MOL0     H66063   7.475   1.469   5.641  0.5730  1.2052  0.9580
  479MOL0     H66064   7.621   1.372   4.921  2.5443 -1.3429 -1.4279
  479MOL0     H66065   7.601   1.492   4.710 -0.6466  1.5089 -0.9746
  479MOL0     H66066   7.510   1.648   4.573  0.9732 -0.3330  0.8015
  479MOL0     H66067   7.440   1.794   4.636 -0.1655 -0.4870 -1.0524
  479MOL0     H66068   7.470   1.867   4.411 -0.8364  3.6369  0.9424
  479MOL0     H66069   7.621   1.918   4.478  1.7435 -1.1821 -1.3363
  479MOL0     H66070   7.738   1.703   4.411  2.1360  1.1037 -3.2988
  479MOL0     H66071   7.680   1.798   4.277  1.6587 -0.9774 -1.0817
  479MOL0     H66072   7.559   1.533   4.366  1.3974  0.7221  0.6597
  479MOL0     H66073   7.642   1.569   4.216  0.8443 -1.0125  1.2200
  479MOL0     H66074   7.391   1.562   4.207 -0.9383  0.3570  2.2090
  479MOL0     H66075   7.378   1.720   4.282 -1.9928 -0.2551 -0.4881
  479MOL0     H66076   7.553   1.674   4.039  0.4694  0.8813 -0.2250
  479MOL0     H66077   7.525   1.823   4.114 -1.0948  0.0241 -1.2870
  479MOL0     H66078   7.271   1.812   4.062  1.9202  2.6558 -2.0711
  479MOL0     H66079   7.305   1.644   4.007  0.5918 -0.4912  3.2408
  479MOL0     H66080   7.273   1.801   3.812  2.0424 -3.9694 -2.6160
  479MOL0     H66081   7.428   1.727   3.817 -0.9629 -0.1043 -0.2133
  479MOL0     H66082   7.723   1.860   4.916  0.4524 -0.2115  1.1823
  479MOL0     H66083   7.751   1.733   5.117 -2.7357  0.1728  0.7680
  479MOL0     H66084   7.820   1.300   5.248  1.7618  0.2380  0.7583
  479MOL0     H66085   7.941   1.194   5.425  1.2613  2.4670 -0.3116
  479MOL0     H66086   8.491   1.989   5.579  1.5069 -1.7433  1.8548
  479MOL0     H66087   8.420   2.224   5.541  0.5444 -3.8230 -2.1692
  479MOL0     H66088   8.335   2.564   5.563  0.7057  3.2676 -2.4774
  479MOL0     H66089   8.209   2.773   5.519  0.3392  3.2509  0.6080
  479MOL0     H66090   8.048   2.874   5.649  1.4123 -0.9262  1.5487
  479MOL0     H66091   8.031   3.033   5.727  1.5353  0.7322  0.7567
  479MOL0     H66092   8.135   3.001   5.436 -0.3488  1.4731 -0.0639
  479MOL0     H66093   8.059   3.138   5.509 -0.8730 -0.3316 -2.4723
  479MOL0     H66094   7.863   2.952   5.544 -0.6758  4.2148  1.5692
  479MOL0     H66095   7.870   3.064   5.411 -3.7752 -2.5512 -1.1086
  479MOL0     H66096   7.979   2.872   5.276 -0.5529 -0.5861 -0.4969
  479MOL0     H66097   7.809   2.845   5.329 -1.2585 -0.1690  2.1984
  479MOL0     H66098   8.020   2.560   5.569 -0.6814  0.4172 -1.0343
  479MOL0     H66099   8.408   2.944   5.856  2.4137 -0.5146 -0.3209
  479MOL0     H66100   8.666   2.739   5.829 -2.6891 -1.3612 -1.6844
  479MOL0     H66101   8.598   2.864   5.947  1.5332  0.1861 -0.1034
  479MOL0     H66102   8.585   2.688   5.982 -2.5314 -1.0098 -1.3198
  480MOL0     O66103   5.593   0.303   9.164  0.0520 -1.0147 -0.4164
  480MOL0     C66104   5.517   0.269   9.255  0.6367  0.0415  0.2674
  480MOL0     O66105   5.396   0.328   9.285 -0.1603  0.1143 -0.2416
  480MOL0     C66106   5.354   0.427   9.203 -0.2275  0.5485 -0.0933
  480MOL0     C66107   5.366   0.563   9.241  0.0167  0.1490  0.4149
  480MOL0     C66108   5.311   0.660   9.159 -0.0988  0.6681 -0.4072
  480MOL0     C66109   5.256   0.633   9.038  1.4109 -0.9033  0.3205
  480MOL0     O66110   5.190   0.728   8.960  0.3485  0.2629  0.4783
  480MOL0     C66111   5.184   0.874   8.992 -0.3387 -0.1192  0.4633
  480MOL0     C66112   5.316   0.937   8.952 -0.1025 -0.1093 -0.1366
  480MOL0     C66113   5.312   1.025   8.830 -0.3784 -0.3921  0.4184
  480MOL0     C66114   5.330   0.952   8.699  0.1311  0.3494  0.4913
  480MOL0     C66115   5.363   1.053   8.589 -0.2529  0.4462 -0.0395
  480MOL0     C66116   5.244   1.101   8.514  0.3847 -2.2344 -0.1933
  480MOL0     C66117   5.297   1.211   8.419  0.1827  0.3649  0.3142
  480MOL0     C66118   5.205   1.222   8.291 -0.3129 -0.0780 -0.1257
  480MOL0     N66119   5.209   1.118   8.181 -0.8573 -0.0139 -0.5470
  480MOL0     C66120   5.302   1.022   8.174 -0.1167  0.7306 -0.0484
  480MOL0     C66121   5.256   0.942   8.080 -0.0064 -0.4882 -0.4379
  480MOL0     C66122   5.309   0.805   8.047  0.2376  0.3740 -0.4702
  480MOL0     C66123   5.324   0.770   7.899  0.1566  0.4741 -0.3319
  480MOL0     C66124   5.355   0.627   7.887 -1.4535 -0.0749  0.3647
  480MOL0     C66125   5.447   0.595   7.768 -0.2169 -0.2306  0.2171
  480MOL0     O66126   5.567   0.673   7.776 -0.0925  0.0641  0.0734
  480MOL0     C66127   5.682   0.605   7.801 -0.1437 -0.0669 -1.1047
  480MOL0     C66128   5.694   0.518   7.918  0.5534 -0.0543  0.3074
  480MOL0     C66129   5.828   0.473   7.951  1.3703  0.5059 -1.4178
  480MOL0     C66130   5.852   0.405   8.084  0.1987 -0.2408 -0.1875
  480MOL0     C66131   5.938   0.506   7.876  0.3355 -0.4626  0.8261
  480MOL0     C66132   6.078   0.463   7.882  0.4341 -0.6152  0.3077
  480MOL0     O66133   6.098   0.332   7.920 -0.7889  0.7884  0.0075
  480MOL0     C66134   6.229   0.293   7.939  0.2883 -0.8297  0.2048
  480MOL0     C66135   6.262   0.176   7.880 -0.0762  0.5722 -0.3110
  480MOL0     C66136   6.396   0.129   7.877 -0.5307  0.2946 -0.0989
  480MOL0     C66137   6.503   0.203   7.935  0.9505 -0.1769  0.7303
  480MOL0     O66138   6.629   0.161   7.915  0.3236 -0.1245 -0.1553
  480MOL0     C66139   6.674   0.083   8.018  0.8338 -0.7353 -0.4314
  480MOL0     C66140   6.828   0.079   8.009  1.6428  0.3507 -0.3252
  480MOL0     C66141   6.885   0.051   7.868 -0.0696  0.6039 -0.3650
  480MOL0     C66142   6.818  -0.075   7.805 -0.3959  0.4561 -0.4493
  480MOL0     C66143   6.879  -0.127   7.677  0.4860 -0.5272 -0.5344
  480MOL0     C66144   7.012  -0.207   7.692 -0.5887  0.1894  0.0636
  480MOL0     C66145   7.095  -0.223   7.568  1.0109  0.0523  0.6713
  480MOL0     C66146   7.231  -0.284   7.584  0.0990  0.4701 -0.4386
  480MOL0    Cl66147   7.339  -0.167   7.677 -0.3016 -0.3079  0.2013
  480MOL0     C66148   6.457   0.321   8.008  0.2740  0.4383  0.4643
  480MOL0     C66149   6.324   0.362   8.007  1.3470 -0.3498  0.2184
  480MOL0     O66150   6.166   0.547   7.859 -0.1978 -0.4131  0.1635
  480MOL0     C66151   5.908   0.572   7.760 -0.6818  0.1340  0.2733
  480MOL0     C66152   5.788   0.626   7.720 -0.0598 -0.1944 -0.1996
  480MOL0     N66153   5.154   1.004   8.014  0.8849 -0.2030 -0.6512
  480MOL0     N66154   5.121   1.108   8.082  0.2711  0.3200 -0.5124
  480MOL0     C66155   5.229   0.500   9.003 -0.1290 -0.4904 -0.4716
  480MOL0     C66156   5.291   0.399   9.082 -0.7197  0.6757 -0.8531
  480MOL0     C66157   5.560   0.161   9.352  0.6313 -0.1835  0.2719
  480MOL0     C66158   5.548   0.025   9.320 -0.3807 -0.4633 -0.5684
  480MOL0     C66159   5.601  -0.069   9.400  0.0943  0.6023  0.6919
  480MOL0     C66160   5.670  -0.047   9.512  0.7094 -0.3154  0.3387
  480MOL0     O66161   5.728  -0.146   9.592  0.4403  0.4194  0.3597
  480MOL0     C66162   5.802  -0.243   9.511 -0.7149  0.2576  1.0117
  480MOL0     C66163   5.933  -0.285   9.577 -0.2078  0.7752 -0.2434
  480MOL0     C66164   6.052  -0.187   9.578 -0.5231 -0.5089 -0.3484
  480MOL0     C66165   6.117  -0.168   9.440 -0.0982 -0.1295  0.0014
  480MOL0     C66166   6.049  -0.068   9.357  0.9963  0.9755  0.3565
  480MOL0     C66167   5.996   0.018   9.297 -0.0032  0.3080  0.7732
  480MOL0     C66168   5.695   0.093   9.539 -0.1001  1.0183 -0.2468
  480MOL0     C66169   5.645   0.194   9.461  0.7475  0.0586 -0.3514
  480MOL0     C66170   5.661   0.341   9.485  0.0981  0.9016 -0.0673
  480MOL0     H66171   5.420   0.577   9.334 -0.8899  3.8145  0.5593
  480MOL0     H66172   5.319   0.762   9.194 -3.7476  1.2797 -0.9038
  480MOL0     H66173   5.151   0.872   9.096 -1.7829 -1.1848 -0.0001
  480MOL0     H66174   5.092   0.909   8.945 -0.0223  1.4122  0.9124
  480MOL0     H66175   5.346   1.005   9.033 -0.9059  0.7530 -0.5489
  480MOL0     H66176   5.396   0.863   8.940  0.0611  0.3079 -1.8215
  480MOL0     H66177   5.224   1.086   8.809  0.3533 -0.0280 -1.9598
  480MOL0     H66178   5.398   1.092   8.828 -1.2782  0.9596 -4.0215
  480MOL0     H66179   5.410   0.878   8.700  0.6129  0.8394 -0.4592
  480MOL0     H66180   5.240   0.892   8.685  0.1290  0.3334  0.5713
  480MOL0     H66181   5.429   1.001   8.519 -0.5516 -0.3820  0.2915
  480MOL0     H66182   5.425   1.134   8.630 -1.7846  0.7020  1.9064
  480MOL0     H66183   5.200   1.019   8.458 -3.5933  0.2089 -1.0888
  480MOL0     H66184   5.172   1.146   8.584  1.4164 -1.0802  0.1593
  480MOL0     H66185   5.398   1.190   8.382  0.6344  0.6060  1.3760
  480MOL0     H66186   5.304   1.307   8.470  0.0682  0.6955 -0.2807
  480MOL0     H66187   5.102   1.229   8.327  0.3288  1.6481  1.5518
  480MOL0     H66188   5.229   1.320   8.251  0.6569 -0.2677 -0.0258
  480MOL0     H66189   5.386   1.011   8.242 -1.7133  1.2807  2.0919
  480MOL0     H66190   5.242   0.736   8.100 -1.1799  3.0474  1.4392
  480MOL0     H66191   5.406   0.799   8.096 -0.9951  3.0601  2.6030
  480MOL0     H66192   5.232   0.786   7.841 -0.3993 -1.4194 -0.0400
  480MOL0     H66193   5.400   0.836   7.858 -0.0026  1.4476  0.9006
  480MOL0     H66194   5.411   0.600   7.977 -0.5247 -0.8023 -0.4060
  480MOL0     H66195   5.276   0.554   7.868  1.9901 -3.7710 -1.2966
  480MOL0     H66196   5.455   0.486   7.767 -1.1448 -0.3048  0.2485
  480MOL0     H66197   5.390   0.625   7.680  0.4494  1.1681  0.2427
  480MOL0     H66198   5.612   0.504   7.988  1.6703  0.3251  1.7369
  480MOL0     H66199   5.773   0.424   8.157  1.1288 -2.3723  1.4757
  480MOL0     H66200   5.953   0.427   8.120  0.6240 -2.4612  0.1119
  480MOL0     H66201   5.860   0.298   8.066  1.9404  0.2240 -2.8423
  480MOL0     H66202   6.183   0.118   7.834  2.5080 -0.2073 -4.2087
  480MOL0     H66203   6.423   0.032   7.836  4.3674  1.1376  0.4990
  480MOL0     H66204   6.647   0.121   8.116 -1.1296  0.2672 -1.3098
  480MOL0     H66205   6.648  -0.023   8.012 -1.2616 -0.3993  1.7180
  480MOL0     H66206   6.854   0.178   8.047 -1.6152  0.3741  2.3996
  480MOL0     H66207   6.878   0.005   8.074 -2.3230 -0.4034  2.2277
  480MOL0     H66208   6.994   0.036   7.871  0.1812  2.3144  0.0892
  480MOL0     H66209   6.865   0.126   7.790  1.0404  0.5307 -0.7413
  480MOL0     H66210   6.718  -0.044   7.774  0.1465  0.0460 -2.7909
  480MOL0     H66211   6.813  -0.158   7.875  0.7040  1.5049  0.9355
  480MOL0     H66212   6.809  -0.179   7.611 -1.3423  2.0137 -0.7321
  480MOL0     H66213   6.909  -0.039   7.620  3.4305 -1.3148 -0.4106
  480MOL0     H66214   6.984  -0.309   7.722  3.3000 -1.1382 -0.2889
  480MOL0     H66215   7.063  -0.166   7.780 -3.2414  1.9774  0.8959
  480MOL0     H66216   7.095  -0.126   7.517  1.1145 -0.3671 -0.1411
  480MOL0     H66217   7.053  -0.288   7.491  1.7668  0.8863 -0.4757
  480MOL0     H66218   7.269  -0.296   7.482 -0.3260  2.8880 -0.9640
  480MOL0     H66219   7.203  -0.377   7.634 -0.8810  1.6672  1.3344
  480MOL0     H66220   6.534   0.375   8.063  0.3054  0.5942  0.2715
  480MOL0     H66221   6.306   0.449   8.068  1.3454 -1.2742  1.5789
  480MOL0     H66222   5.991   0.592   7.694 -1.2435 -1.4407 -0.9681
  480MOL0     H66223   5.776   0.699   7.641  2.6271  0.6433  0.1046
  480MOL0     H66224   5.172   0.484   8.912 -2.6476  0.7471  0.8039
  480MOL0     H66225   5.296   0.298   9.043  2.5428  1.6750 -3.4987
  480MOL0     H66226   5.488   0.005   9.231 -1.2095  2.0045 -0.6426
  480MOL0     H66227   5.579  -0.173   9.379 -1.2899  0.6713  1.6347
  480MOL0     H66228   5.746  -0.335   9.498 -0.3814  0.3774 -2.0563
  480MOL0     H66229   5.813  -0.203   9.410  2.6385 -0.4860  0.9559
  480MOL0     H66230   5.970  -0.380   9.536 -1.3785  0.2622 -0.1612
  480MOL0     H66231   5.915  -0.289   9.684 -0.1377  1.0066 -0.2235
  480MOL0     H66232   6.023  -0.092   9.624 -2.8838 -0.2015 -2.2783
  480MOL0     H66233   6.122  -0.233   9.648  1.4850 -2.1166 -3.2190
  480MOL0     H66234   6.126  -0.268   9.398 -2.4872 -0.9889  1.3506
  480MOL0     H66235   6.219  -0.128   9.452  1.1182 -2.8369 -0.4917
  480MOL0     H66236   5.936   0.084   9.238  0.4608  0.1556  0.1154
  480MOL0     H66237   5.765   0.107   9.621 -0.3732 -2.5813  0.8213
  480MOL0     H66238   5.564   0.390   9.498 -1.1964 -1.0835 -1.6671
  480MOL0     H66239   5.723   0.354   9.574  1.3409  1.3829 -0.9787
  480MOL0     H66240   5.707   0.397   9.403  0.0576 -1.7190 -1.9956
  481MOL0     O66241   4.120   1.587  10.114  0.3342  0.8748  0.2246
  481MOL0     C66242   4.042   1.543  10.028  0.6076 -0.5195 -0.6730
  481MOL0     O66243   4.032   1.414  10.001 -0.0315 -0.1411 -0.3120
  481MOL0     C66244   4.046   1.316  10.104  0.0941 -0.0553  0.0032
  481MOL0     C66245   4.098   1.192  10.068 -0.0515  0.3826  0.6197
  481MOL0     C66246   4.092   1.083  10.150  0.0409  1.0778  0.0790
  481MOL0     C66247   4.041   1.090  10.282 -0.4955 -0.5638  0.4350
  481MOL0     O66248   4.021   0.980  10.367  1.2214 -0.0337  0.0016
  481MOL0     C66249   4.117   0.872  10.362  0.4433 -0.2416  0.2430
  481MOL0     C66250   4.177   0.829  10.508 -0.5011 -0.2945  0.4385
  481MOL0     C66251   4.277   0.934  10.570 -0.2781 -0.1772 -0.6272
  481MOL0     C66252   4.272   0.919  10.724  0.1326  0.2652  0.4376
  481MOL0     C66253   4.370   1.020  10.784  0.2088 -0.7720 -0.0835
  481MOL0     C66254   4.381   1.005  10.944 -0.4233  1.3132  0.2207
  481MOL0     C66255   4.274   1.072  11.028 -0.5500  0.3209 -0.0883
  481MOL0     C66256   4.309   1.052  11.181 -0.1721 -0.3320  0.4869
  481MOL0     N66257   4.199   1.093  11.270 -0.1183 -0.0381 -0.3308
  481MOL0     C66258   4.064   1.060  11.282  0.6819  0.1520  0.0912
  481MOL0     C66259   4.009   1.145  11.378  0.3156 -0.1521  0.9094
  481MOL0     C66260   3.864   1.133  11.410 -0.2915  0.1501  0.1748
  481MOL0     C66261   3.779   1.221  11.317  0.0320  0.5359 -0.6112
  481MOL0     C66262   3.815   1.375  11.332  0.6319 -0.0806 -0.7681
  481MOL0     C66263   3.728   1.463  11.240  0.2458 -1.5590 -0.7149
  481MOL0     O66264   3.714   1.421  11.106 -0.3472  0.0858  0.7510
  481MOL0     C66265   3.629   1.480  11.015 -1.2962 -0.0211  0.4641
  481MOL0     C66266   3.556   1.595  11.053 -0.7204  0.5944  0.7213
  481MOL0     C66267   3.472   1.655  10.958  0.2474 -0.3915 -0.7784
  481MOL0     C66268   3.401   1.777  11.007  0.2947 -0.8389 -0.3466
  481MOL0     C66269   3.461   1.610  10.822  0.6538 -0.9004  0.1688
  481MOL0     C66270   3.362   1.659  10.725 -0.3362  0.6180  0.4959
  481MOL0     O66271   3.396   1.656  10.593  0.3500  0.4027  0.1703
  481MOL0     C66272   3.301   1.703  10.499 -0.0109 -0.1518 -0.2910
  481MOL0     C66273   3.272   1.600  10.401 -0.7420 -0.5436 -0.0736
  481MOL0     C66274   3.188   1.627  10.290  0.1831 -0.1620  1.1989
  481MOL0     C66275   3.153   1.769  10.274  0.1041  0.1194 -0.3464
  481MOL0     O66276   3.071   1.816  10.167 -0.5098  0.0394  0.3250
  481MOL0     C66277   3.017   1.726  10.075  0.0420 -0.4028  0.4160
  481MOL0     C66278   2.955   1.825   9.963  1.2001  0.4902  0.5957
  481MOL0     C66279   2.936   1.738   9.839 -0.0315 -0.2598 -0.1765
  481MOL0     C66280   3.052   1.649   9.802  0.0874  0.0961  0.2228
  481MOL0     C66281   3.038   1.609   9.650  0.6716 -0.2829 -0.3520
  481MOL0     C66282   2.915   1.533   9.623 -0.1502  0.2930  0.3810
  481MOL0     C66283   2.883   1.525   9.473  0.2379  0.1323  0.2008
  481MOL0     C66284   2.733   1.511   9.433  0.7911  1.1849  0.3057
  481MOL0    Cl66285   2.698   1.347   9.478  0.2538 -0.1470  0.0632
  481MOL0     C66286   3.186   1.869  10.367  0.0005  0.3073  0.6005
  481MOL0     C66287   3.260   1.833  10.483 -0.0348 -0.4600  0.2869
  481MOL0     O66288   3.245   1.689  10.771 -1.1062 -0.1200  0.3652
  481MOL0     C66289   3.552   1.516  10.788 -0.1245 -0.4548 -0.0278
  481MOL0     C66290   3.627   1.442  10.876  0.3848  0.1988 -0.3812
  481MOL0     N66291   4.116   1.228  11.430  0.3940  1.1722  0.5041
  481MOL0     N66292   4.224   1.191  11.365 -0.7365 -0.4111  0.4547
  481MOL0     C66293   3.994   1.220  10.326  0.3769  0.1851  0.5170
  481MOL0     C66294   4.002   1.334  10.239  0.3773 -0.5013  0.3072
  481MOL0     C66295   3.958   1.643   9.958  0.4712  0.2435 -0.1369
  481MOL0     C66296   3.922   1.599   9.827 -0.0945 -1.2659 -0.1168
  481MOL0     C66297   3.835   1.681   9.757  0.2280  0.0962  0.3623
  481MOL0     C66298   3.793   1.809   9.809  0.0324  0.4458 -0.4740
  481MOL0     O66299   3.722   1.884   9.723  0.0056  0.0486  0.6522
  481MOL0     C66300   3.762   2.015   9.690  0.2511 -0.2918  0.6208
  481MOL0     C66301   3.677   2.042   9.567 -0.1489  0.3981 -0.5302
  481MOL0     C66302   3.713   2.180   9.519 -0.3619 -0.1331 -0.1871
  481MOL0     C66303   3.600   2.240   9.433 -1.9483 -0.2040 -0.1435
  481MOL0     C66304   3.648   2.326   9.327 -0.6820  0.2228  0.3838
  481MOL0     C66305   3.701   2.407   9.252 -0.4014  0.0881  0.4117
  481MOL0     C66306   3.831   1.847   9.935 -0.6081  0.0116  0.4470
  481MOL0     C66307   3.914   1.763  10.014  0.3281  0.5063  0.6314
  481MOL0     C66308   3.926   1.796  10.162  0.8035  0.0613  0.3008
  481MOL0     H66309   4.130   1.183   9.965 -0.9731  1.0812  0.2596
  481MOL0     H66310   4.134   0.987  10.123  0.2881  0.5380  2.1954
  481MOL0     H66311   4.207   0.899  10.305 -0.4011 -1.6369 -1.8690
  481MOL0     H66312   4.060   0.795  10.309  0.9873  0.5335 -1.5704
  481MOL0     H66313   4.093   0.812  10.575  1.3729 -2.8568  2.3396
  481MOL0     H66314   4.231   0.737  10.483  2.9128  1.3423  1.1534
  481MOL0     H66315   4.381   0.918  10.540  0.9101  3.4320  1.0501
  481MOL0     H66316   4.237   1.032  10.543 -1.3932 -0.3075  0.4871
  481MOL0     H66317   4.167   0.925  10.753  0.0819 -1.0249  0.5586
  481MOL0     H66318   4.297   0.817  10.753  1.8927  0.7177  0.6163
  481MOL0     H66319   4.344   1.124  10.759 -3.4161 -1.0598  1.8204
  481MOL0     H66320   4.470   0.994  10.749  2.0618  1.2985  3.1192
  481MOL0     H66321   4.384   0.899  10.971  1.6641  0.6311 -2.3184
  481MOL0     H66322   4.480   1.047  10.963 -0.2378  1.0361 -0.1195
  481MOL0     H66323   4.173   1.033  11.019 -0.4415  0.1616 -0.6545
  481MOL0     H66324   4.263   1.175  10.993 -1.2490  0.4240  0.4107
  481MOL0     H66325   4.326   0.945  11.195 -1.2435 -0.5698  0.1185
  481MOL0     H66326   4.395   1.116  11.202 -1.3220  1.1951  0.7602
  481MOL0     H66327   4.008   0.976  11.242 -1.0804  0.7523  1.1912
  481MOL0     H66328   3.828   1.166  11.508  0.3025  4.0196 -0.7349
  481MOL0     H66329   3.833   1.031  11.389 -1.1296  0.5387 -0.5549
  481MOL0     H66330   3.799   1.171  11.221  2.7288 -1.3446  0.7931
  481MOL0     H66331   3.671   1.217  11.335  0.3819  1.3326  1.9562
  481MOL0     H66332   3.803   1.414  11.434 -2.1904  1.9235 -1.7471
  481MOL0     H66333   3.916   1.392  11.292 -0.8489  5.8860 -2.8897
  481MOL0     H66334   3.630   1.476  11.286  0.4611  0.9604 -0.8482
  481MOL0     H66335   3.781   1.558  11.241  1.0918 -2.0222 -0.6933
  481MOL0     H66336   3.556   1.645  11.149 -1.3917  0.2357  0.9140
  481MOL0     H66337   3.301   1.744  11.037 -0.4039  1.3675 -0.1125
  481MOL0     H66338   3.401   1.852  10.928  5.2771 -1.2090 -1.0217
  481MOL0     H66339   3.459   1.818  11.091  0.5547 -1.3154 -0.2846
  481MOL0     H66340   3.322   1.505  10.410 -0.2835 -0.1685  1.7225
  481MOL0     H66341   3.167   1.545  10.222 -0.5224  1.6735 -0.9404
  481MOL0     H66342   3.095   1.668  10.025 -0.2670  1.3233 -2.2717
  481MOL0     H66343   2.944   1.661  10.123 -1.7954 -0.2717 -1.9875
  481MOL0     H66344   2.860   1.875   9.988 -0.5048 -2.7570  1.1127
  481MOL0     H66345   3.018   1.913   9.945 -1.8851  2.6211 -0.8168
  481MOL0     H66346   2.929   1.803   9.752 -1.3672  0.6547  0.5752
  481MOL0     H66347   2.850   1.675   9.867  1.0949 -1.0865  1.6058
  481MOL0     H66348   3.056   1.558   9.862  0.8400  0.2162  0.3644
  481MOL0     H66349   3.144   1.707   9.812  1.4602 -2.0978  0.8034
  481MOL0     H66350   3.041   1.699   9.589 -4.2168 -0.6972 -1.6448
  481MOL0     H66351   3.118   1.538   9.627  0.1873 -1.6603  1.8787
  481MOL0     H66352   2.835   1.591   9.669 -0.1781  0.8571 -0.3464
  481MOL0     H66353   2.914   1.436   9.673  0.5492 -0.9502 -1.8405
  481MOL0     H66354   2.939   1.438   9.438  2.7292  1.7425 -0.0504
  481MOL0     H66355   2.913   1.606   9.406 -0.4540 -0.8517 -1.3573
  481MOL0     H66356   2.717   1.518   9.325  3.1806  0.2944 -0.1785
  481MOL0     H66357   2.666   1.578   9.487  2.5152  2.2270  1.2291
  481MOL0     H66358   3.151   1.969  10.342  3.0726  2.2887  3.3953
  481MOL0     H66359   3.286   1.916  10.547  0.8982 -0.6670  0.1868
  481MOL0     H66360   3.555   1.467  10.691 -2.0866 -2.0378  0.6605
  481MOL0     H66361   3.689   1.364  10.832 -0.5928 -0.9488  0.2220
  481MOL0     H66362   3.947   1.220  10.423 -0.5539  1.3723  0.0949
  481MOL0     H66363   3.960   1.429  10.269 -3.4549 -1.4552 -1.4675
  481MOL0     H66364   3.954   1.503   9.789  0.4505 -2.5793  3.2849
  481MOL0     H66365   3.794   1.655   9.660  0.5510  1.8251 -0.2723
  481MOL0     H66366   3.746   2.079   9.777  0.7014  0.7294 -0.0373
  481MOL0     H66367   3.871   2.019   9.680  0.4011 -0.8059  1.9035
  481MOL0     H66368   3.571   2.031   9.593 -0.7284  0.8528 -2.5018
  481MOL0     H66369   3.715   1.969   9.495 -0.9088 -1.3437  0.7636
  481MOL0     H66370   3.735   2.240   9.608  2.7512 -0.1390 -0.8597
  481MOL0     H66371   3.807   2.180   9.463  1.3542 -1.0944  2.5100
  481MOL0     H66372   3.531   2.290   9.502  0.6340  1.0650  1.6772
  481MOL0     H66373   3.547   2.155   9.387 -3.0689 -0.1183  0.9489
  481MOL0     H66374   3.741   2.481   9.186 -0.5250 -0.4524 -0.2831
  481MOL0     H66375   3.802   1.946   9.970 -3.3329  0.0796 -1.6472
  481MOL0     H66376   3.926   1.707  10.225  3.0426  0.0218  0.2995
  481MOL0     H66377   4.030   1.828  10.171  0.9667  0.0302 -1.2127
  481MOL0     H66378   3.858   1.872  10.202 -0.6772 -1.2203  0.3304
  482MOL0     O66379   4.419  10.800   0.514 -0.2925 -0.3070  0.7906
  482MOL0     C66380   4.311  10.854   0.526 -0.6290  0.5565 -0.5582
  482MOL0     O66381   4.291  10.938   0.637 -0.2489  0.4964  0.0869
  482MOL0     C66382   4.389  10.950   0.736 -0.7817  0.1771 -0.0869
  482MOL0     C66383   4.430  10.835   0.806 -0.2566 -0.2291 -0.0483
  482MOL0     C66384   4.540  10.833   0.887 -0.8196  0.7589  1.0791
  482MOL0     C66385   4.618  10.956   0.915  0.5096  0.5287  0.8131
  482MOL0     O66386   4.729  10.954   1.007  0.1199  0.2265 -0.2606
  482MOL0     C66387   4.857  11.005   0.967  0.3210  0.4372  0.0531
  482MOL0     C66388   4.897  11.144   1.029  0.3879  0.6690 -0.7591
  482MOL0     C66389   5.039  11.166   1.001  0.7819  0.4519 -0.5174
  482MOL0     C66390   5.097  11.298   1.063  0.7766  0.2045 -0.3201
  482MOL0     C66391   5.243  11.333   1.029 -0.4267  0.4941  0.0267
  482MOL0     C66392   5.285  11.464   1.097 -0.1402  0.4961  0.7794
  482MOL0     C66393   5.427  11.508   1.067 -0.3274  0.3610  0.8977
  482MOL0     C66394   5.426  11.578   0.939 -0.1774  0.0732 -0.0274
  482MOL0     N66395   5.381  11.723   0.953  0.1421  1.1715  0.7251
  482MOL0     C66396   5.255  11.766   0.932  0.5167  0.0388 -0.1948
  482MOL0     C66397   5.264  11.898   0.968  0.4463  0.3016  0.3817
  482MOL0     C66398   5.167  12.015   0.953 -0.0730  0.8513 -0.0770
  482MOL0     C66399   5.041  11.971   0.876 -0.6557 -0.2411  0.6968
  482MOL0     C66400   4.911  12.052   0.907 -0.7008 -0.1968  0.3208
  482MOL0     C66401   4.919  12.191   0.962  0.4896 -0.4507 -0.4811
  482MOL0     O66402   4.806  12.268   0.920 -0.5544 -0.1908  0.0824
  482MOL0     C66403   4.790  12.389   0.974 -0.1373 -0.4105  0.1992
  482MOL0     C66404   4.877  12.465   1.052 -0.3452 -0.2278 -0.0686
  482MOL0     C66405   4.841  12.578   1.117  0.3204 -0.0555  0.1550
  482MOL0     C66406   4.942  12.635   1.209 -0.3158  0.6978 -0.3894
  482MOL0     C66407   4.701  12.617   1.115 -0.3198 -0.4475  0.3233
  482MOL0     C66408   4.635  12.710   1.204 -0.1346  0.5213 -0.1365
  482MOL0     O66409   4.696  12.741   1.326  1.0493 -0.1774 -0.4562
  482MOL0     C66410   4.635  12.839   1.406  0.1128 -0.3280  0.3090
  482MOL0     C66411   4.528  12.802   1.488 -0.6284  0.3204 -0.8469
  482MOL0     C66412   4.477  12.891   1.582 -0.0172 -0.1081  0.8422
  482MOL0     C66413   4.524  13.021   1.587  0.5999 -0.1903  0.2488
  482MOL0     O66414   4.449  13.092   1.672  0.0003  0.3295 -0.0700
  482MOL0     C66415   4.482  13.222   1.714  0.9666  0.6371 -0.1267
  482MOL0     C66416   4.591  13.224   1.818 -0.0073  0.3819  0.0472
  482MOL0     C66417   4.619  13.361   1.881  0.9542  0.1586 -0.3418
  482MOL0     C66418   4.663  13.460   1.765  0.0471  0.6076 -0.1251
  482MOL0     C66419   4.773  13.553   1.808 -0.1014  0.7649 -0.0184
  482MOL0     C66420   4.728  13.676   1.874 -1.1504 -0.4817 -0.1264
  482MOL0     C66421   4.691  13.657   2.021  0.0498 -0.3335 -0.5239
  482MOL0     C66422   4.634  13.776   2.088 -0.3539  0.2569 -0.7081
  482MOL0    Cl66423   4.731  13.915   2.048  0.1192 -0.0585 -0.2458
  482MOL0     C66424   4.616  13.073   1.490  0.5055  0.0630 -0.0877
  482MOL0     C66425   4.669  12.975   1.402 -0.1860 -0.0774 -0.6496
  482MOL0     O66426   4.537  12.771   1.156  0.2195  0.0148 -0.3850
  482MOL0     C66427   4.619  12.552   1.030 -0.6608  0.4005  1.2170
  482MOL0     C66428   4.665  12.446   0.951  0.0385 -0.2771 -0.0997
  482MOL0     N66429   5.386  11.931   1.017 -0.2823  0.4457  0.1997
  482MOL0     N66430   5.454  11.824   1.005  0.4295  0.4950 -0.1396
  482MOL0     C66431   4.575  11.069   0.837  0.3020 -0.2866 -0.2562
  482MOL0     C66432   4.457  11.062   0.754 -0.1512 -0.2978 -0.5891
  482MOL0     C66433   4.206  10.813   0.426  0.3987 -0.7863 -0.0014
  482MOL0     C66434   4.232  10.720   0.331  0.1314  0.2300  0.8780
  482MOL0     C66435   4.140  10.696   0.230  0.7781  0.0659  0.1008
  482MOL0     C66436   4.019  10.756   0.215  0.5767 -0.5528 -0.7498
  482MOL0     O66437   3.931  10.744   0.117 -0.2813  0.4340 -0.3294
  482MOL0     C66438   3.917  10.600   0.090 -0.2576 -0.2497 -0.2087
  482MOL0     C66439   3.797  10.587  -0.006  0.1994  1.0599  0.4130
  482MOL0     C66440   3.745  10.439  -0.009  0.5246  0.1394  0.6478
  482MOL0     C66441   3.625  10.426  -0.109  0.7162 -0.4757 -0.4074
  482MOL0     C66442   3.492  10.445  -0.040 -1.3467  0.5557  0.2843
  482MOL0     C66443   3.388  10.468   0.018 -0.5163 -0.6722 -0.2172
  482MOL0     C66444   4.002  10.853   0.312 -0.8322 -0.5143 -0.2571
  482MOL0     C66445   4.082  10.883   0.423 -0.4502  0.2448  0.3928
  482MOL0     C66446   4.046  10.985   0.524 -0.1404  0.3711  0.5566
  482MOL0     H66447   4.363  10.751   0.796 -0.0993 -0.5333  1.2361
  482MOL0     H66448   4.567  10.740   0.936 -0.1925  0.5181  0.2953
  482MOL0     H66449   4.861  11.014   0.858  0.1014 -2.2591 -0.2597
  482MOL0     H66450   4.933  10.932   0.996 -0.2718 -0.3666 -0.3637
  482MOL0     H66451   4.845  11.232   0.989 -1.3311  0.2977  0.5006
  482MOL0     H66452   4.884  11.152   1.137 -2.2869  1.3137 -1.0513
  482MOL0     H66453   5.102  11.080   1.027  0.7405  0.9237  1.3188
  482MOL0     H66454   5.048  11.180   0.893  1.1043 -1.9812 -0.8545
  482MOL0     H66455   5.039  11.378   1.015  3.8122  1.9949 -1.3123
  482MOL0     H66456   5.080  11.309   1.171 -0.6527  3.4379 -0.7535
  482MOL0     H66457   5.261  11.348   0.922  2.3177  4.1666  0.7970
  482MOL0     H66458   5.313  11.257   1.066 -0.1620  1.5111  1.7192
  482MOL0     H66459   5.208  11.537   1.071  0.0874  1.4889  2.7080
  482MOL0     H66460   5.288  11.434   1.202 -4.0163 -1.3067  0.5549
  482MOL0     H66461   5.495  11.422   1.067 -0.4548  0.2538  0.1967
  482MOL0     H66462   5.463  11.579   1.142  4.7782  1.0078 -1.7595
  482MOL0     H66463   5.533  11.584   0.914 -0.0858 -0.0530  0.3196
  482MOL0     H66464   5.370  11.527   0.860 -1.3824 -0.0284  0.8635
  482MOL0     H66465   5.167  11.716   0.893  0.7878 -0.2719 -0.4151
  482MOL0     H66466   5.207  12.097   0.893  0.6742  0.0949 -0.6244
  482MOL0     H66467   5.146  12.058   1.051 -0.4100  0.1138  0.1842
  482MOL0     H66468   5.073  11.966   0.771 -2.1192 -0.7531  0.2433
  482MOL0     H66469   5.009  11.868   0.897 -0.7910 -0.7345 -1.5681
  482MOL0     H66470   4.856  12.062   0.813  0.1764 -1.8620 -0.4041
  482MOL0     H66471   4.857  12.002   0.988 -0.5468 -1.7101 -0.4672
  482MOL0     H66472   4.934  12.172   1.069 -0.4650  1.1480 -0.0371
  482MOL0     H66473   5.015  12.227   0.924  0.5338  0.2332  0.2575
  482MOL0     H66474   4.978  12.426   1.052 -0.4082 -0.7526  3.6816
  482MOL0     H66475   4.940  12.744   1.214 -0.2464  0.7265  4.8511
  482MOL0     H66476   5.040  12.592   1.189  0.2457  0.9269  1.6625
  482MOL0     H66477   4.928  12.599   1.312 -0.0712  3.3068  0.6346
  482MOL0     H66478   4.469  12.712   1.476 -1.3984  0.6848  0.0844
  482MOL0     H66479   4.387  12.866   1.637 -1.6336 -0.6865 -1.8981
  482MOL0     H66480   4.498  13.282   1.623 -2.7972  1.5375 -0.3592
  482MOL0     H66481   4.387  13.259   1.754 -0.2090 -1.1998 -1.0836
  482MOL0     H66482   4.556  13.158   1.898 -1.0463  0.7145 -0.1138
  482MOL0     H66483   4.689  13.192   1.781  1.1829  0.5413  2.8002
  482MOL0     H66484   4.710  13.354   1.941 -0.7736 -1.1284  2.3446
  482MOL0     H66485   4.537  13.410   1.934  0.3027 -1.3159  0.0828
  482MOL0     H66486   4.566  13.497   1.731 -0.3052 -0.2096 -0.0497
  482MOL0     H66487   4.713  13.403   1.685  1.2501  0.1712  0.9030
  482MOL0     H66488   4.842  13.496   1.871 -0.5805 -2.1307 -1.9433
  482MOL0     H66489   4.838  13.579   1.724  1.0890  3.1740  1.5153
  482MOL0     H66490   4.630  13.704   1.834 -0.4648  0.0059 -1.5290
  482MOL0     H66491   4.803  13.755   1.864  0.4785 -2.1621 -2.0177
  482MOL0     H66492   4.782  13.635   2.078  1.1088  0.9294 -1.6807
  482MOL0     H66493   4.617  13.577   2.035 -1.8331  1.2197 -1.2223
  482MOL0     H66494   4.623  13.762   2.196  0.0772 -0.4104 -0.7401
  482MOL0     H66495   4.538  13.793   2.039 -1.0404  0.7394  0.7712
  482MOL0     H66496   4.652  13.175   1.492 -1.3035  0.7424  0.4572
  482MOL0     H66497   4.744  12.996   1.326 -0.3286 -0.4779 -0.9023
  482MOL0     H66498   4.518  12.588   1.013 -0.5077  0.5912  0.6953
  482MOL0     H66499   4.601  12.395   0.879  1.3281 -4.4075  1.3967
  482MOL0     H66500   4.635  11.159   0.846 -2.6261  1.7575  0.1703
  482MOL0     H66501   4.434  11.159   0.711 -2.5968  0.4693  2.1161
  482MOL0     H66502   4.330  10.675   0.320  0.9071  1.6261  1.8570
  482MOL0     H66503   4.173  10.627   0.153  1.4269  2.9594 -2.4321
  482MOL0     H66504   4.003  10.553   0.042  1.9296  1.1265  2.1390
  482MOL0     H66505   3.902  10.547   0.184 -1.0749  1.4575  0.6741
  482MOL0     H66506   3.824  10.611  -0.109 -0.4302 -1.0524 -0.2906
  482MOL0     H66507   3.713  10.650   0.023 -1.5810  0.3751 -2.7950
  482MOL0     H66508   3.818  10.372  -0.056 -0.6657 -0.0205 -1.0890
  482MOL0     H66509   3.711  10.413   0.092 -0.7212  0.7833  0.4087
  482MOL0     H66510   3.625  10.323  -0.146  0.4711 -1.4663  2.1708
  482MOL0     H66511   3.636  10.501  -0.188 -0.0140  0.7670  0.6176
  482MOL0     H66512   3.304  10.493   0.079 -0.3028 -2.6154  0.9474
  482MOL0     H66513   3.903  10.897   0.309 -1.7192 -2.4518 -2.1216
  482MOL0     H66514   4.100  11.078   0.504 -1.5778  0.8751 -1.2280
  482MOL0     H66515   3.948  11.022   0.494  0.7855  1.1199 -1.7321
  482MOL0     H66516   4.036  10.946   0.626 -0.8746  0.6822  0.6064
  483MOL0     O66517   8.068   5.118   8.981  0.4588  0.9582 -0.5787
  483MOL0     C66518   8.055   5.019   9.049  0.2541 -0.8649 -0.3878
  483MOL0     O66519   7.939   4.953   9.074  0.6380  0.2067  0.1367
  483MOL0     C66520   7.822   4.965   8.999  0.1304 -0.5087  1.0986
  483MOL0     C66521   7.722   4.890   9.046  0.3804 -0.5794 -0.2026
  483MOL0     C66522   7.604   4.881   8.978  0.2123 -0.2987  0.0776
  483MOL0     C66523   7.592   4.940   8.850  0.2351  0.0646  0.7757
  483MOL0     O66524   7.481   4.950   8.768 -0.2944 -0.3747 -0.2551
  483MOL0     C66525   7.385   4.851   8.768  0.7495  0.4796 -0.5943
  483MOL0     C66526   7.423   4.712   8.725 -0.3450 -0.1544 -0.6907
  483MOL0     C66527   7.306   4.621   8.684 -0.6001 -1.1584  0.0593
  483MOL0     C66528   7.362   4.498   8.603  0.1853 -0.2802 -0.1081
  483MOL0     C66529   7.259   4.383   8.584  0.1468  0.3838 -1.0381
  483MOL0     C66530   7.293   4.260   8.511  0.1132  0.4205 -0.2453
  483MOL0     C66531   7.170   4.168   8.499 -0.0102  0.0934  0.3377
  483MOL0     C66532   7.115   4.090   8.629  0.8247  0.6160  0.3951
  483MOL0     N66533   7.220   3.998   8.673  0.2131  0.4854  0.2717
  483MOL0     C66534   7.322   4.032   8.764  1.4889 -0.4480  0.0148
  483MOL0     C66535   7.390   3.917   8.784  0.4181  0.2077 -0.4346
  483MOL0     C66536   7.518   3.888   8.861  1.1043 -0.1395  0.3284
  483MOL0     C66537   7.522   3.932   9.011  0.3216 -0.3993 -1.6507
  483MOL0     C66538   7.667   3.899   9.066  0.2884 -0.1676  0.4225
  483MOL0     C66539   7.682   3.949   9.209 -0.0211 -0.1831  0.3406
  483MOL0     O66540   7.587   3.878   9.284  0.2425 -0.0214 -0.3350
  483MOL0     C66541   7.524   3.941   9.392 -0.8327 -0.3842  0.0883
  483MOL0     C66542   7.595   4.009   9.497 -1.3025 -0.5560 -0.5991
  483MOL0     C66543   7.529   4.078   9.599  0.7353 -0.4826  0.0517
  483MOL0     C66544   7.621   4.130   9.704  0.6953 -0.2605 -0.1956
  483MOL0     C66545   7.391   4.081   9.606  0.4760 -0.9203 -0.4066
  483MOL0     C66546   7.310   4.167   9.700 -0.8658 -0.0758 -0.1546
  483MOL0     O66547   7.175   4.154   9.675 -0.4175 -0.3226  0.0321
  483MOL0     C66548   7.093   4.222   9.759 -0.2061 -0.5903  0.0493
  483MOL0     C66549   7.048   4.340   9.697  0.9606  1.3386  0.3712
  483MOL0     C66550   6.953   4.419   9.763 -0.7203 -1.1259  0.2616
  483MOL0     C66551   6.908   4.384   9.887 -0.1343 -0.6303 -0.0309
  483MOL0     O66552   6.830   4.450   9.975 -0.2717 -0.9895  0.3786
  483MOL0     C66553   6.742   4.550   9.929  0.4166 -0.3247  0.5191
  483MOL0     C66554   6.627   4.544  10.017  0.2058 -0.3786 -0.1184
  483MOL0     C66555   6.527   4.649   9.964  0.8773 -0.6994  0.0629
  483MOL0     C66556   6.414   4.678  10.061 -0.5244  0.5938  0.0041
  483MOL0     C66557   6.296   4.759  10.008 -0.0742  0.2341  0.2505
  483MOL0     C66558   6.312   4.909  10.006  0.0131  1.1339  0.6851
  483MOL0     C66559   6.246   4.958  10.141 -0.4776 -0.2297  0.2750
  483MOL0     C66560   6.199   5.102  10.143  0.8370  0.1076 -0.3028
  483MOL0    Cl66561   6.329   5.220  10.132 -0.4625 -0.0706 -0.2059
  483MOL0     C66562   6.952   4.266   9.947 -1.1046  0.1528 -0.4310
  483MOL0     C66563   7.051   4.188   9.883 -0.4988  0.3299  0.2281
  483MOL0     O66564   7.363   4.251   9.771 -0.2381  0.1416 -0.6312
  483MOL0     C66565   7.326   4.006   9.504  0.4848 -0.2211  0.3373
  483MOL0     C66566   7.388   3.928   9.401  0.4958 -1.3514 -0.4075
  483MOL0     N66567   7.331   3.819   8.703  0.6829 -0.2922  0.2710
  483MOL0     N66568   7.240   3.868   8.639  0.6332  0.2217 -0.2659
  483MOL0     C66569   7.698   5.007   8.800 -0.6028  0.0858  0.5844
  483MOL0     C66570   7.819   5.016   8.866  0.7297  1.0799  0.7310
  483MOL0     C66571   8.168   4.961   9.130 -0.3894  0.1150  0.1814
  483MOL0     C66572   8.132   4.836   9.201  0.6594 -0.2128  0.9051
  483MOL0     C66573   8.220   4.768   9.284  0.1001 -0.9832  0.0095
  483MOL0     C66574   8.355   4.812   9.286  0.1269 -0.3410  0.8657
  483MOL0     O66575   8.453   4.748   9.351 -0.2297 -0.1866 -0.1319
  483MOL0     C66576   8.418   4.679   9.472 -0.3596 -0.4580 -0.0079
  483MOL0     C66577   8.549   4.670   9.545 -0.1036 -0.0138 -0.3774
  483MOL0     C66578   8.524   4.634   9.687  0.3359  0.2827 -0.1134
  483MOL0     C66579   8.660   4.599   9.762 -0.0216  0.1775  0.3623
  483MOL0     C66580   8.747   4.715   9.784 -0.2020  0.0384  0.2485
  483MOL0     C66581   8.829   4.806   9.787 -0.2952 -0.7823 -1.0415
  483MOL0     C66582   8.392   4.927   9.207  0.2265  0.3773 -0.6143
  483MOL0     C66583   8.300   5.004   9.141  0.0206  0.2274 -0.2209
  483MOL0     C66584   8.355   5.122   9.069  0.2302  0.0478 -0.4619
  483MOL0     H66585   7.736   4.849   9.146  1.3309  0.5952  0.1694
  483MOL0     H66586   7.518   4.828   9.015  0.8064 -2.8653 -1.9554
  483MOL0     H66587   7.312   4.866   8.688 -3.7659 -4.2213  2.0308
  483MOL0     H66588   7.333   4.850   8.864 -0.5241 -0.4229 -1.2540
  483MOL0     H66589   7.476   4.731   8.631  1.2005 -5.0135 -1.1001
  483MOL0     H66590   7.480   4.674   8.810 -0.9794  0.1667 -0.1126
  483MOL0     H66591   7.261   4.587   8.778  2.0514 -1.7991  1.1965
  483MOL0     H66592   7.224   4.662   8.624 -2.0767 -2.1669  1.3265
  483MOL0     H66593   7.390   4.527   8.502 -0.0453 -2.3548 -0.8239
  483MOL0     H66594   7.450   4.459   8.656 -0.5075 -1.8674 -0.0712
  483MOL0     H66595   7.177   4.429   8.527  1.9315  5.5495 -0.0002
  483MOL0     H66596   7.229   4.370   8.689 -2.5827  0.7637 -1.6904
  483MOL0     H66597   7.314   4.297   8.410 -1.8731  3.3465  0.2572
  483MOL0     H66598   7.383   4.206   8.541 -0.9352 -1.2110  0.0553
  483MOL0     H66599   7.190   4.090   8.425  0.3048 -1.5652  2.1015
  483MOL0     H66600   7.095   4.231   8.451  2.1627  2.7501  0.1813
  483MOL0     H66601   7.100   4.164   8.708 -1.6724  0.3485  0.2519
  483MOL0     H66602   7.022   4.034   8.611  0.5939  1.2724 -0.5314
  483MOL0     H66603   7.331   4.131   8.806 -1.2870 -0.1389  0.0567
  483MOL0     H66604   7.588   3.947   8.802 -0.3287 -1.7607 -3.3220
  483MOL0     H66605   7.547   3.782   8.855  2.2780  0.2144 -5.0901
  483MOL0     H66606   7.516   4.041   9.016  0.6549 -0.3246 -2.7294
  483MOL0     H66607   7.439   3.896   9.073  0.8009 -0.9035 -1.2879
  483MOL0     H66608   7.681   3.791   9.083 -0.7743 -0.1921  1.1983
  483MOL0     H66609   7.750   3.930   9.001 -0.5804 -2.8667 -2.1998
  483MOL0     H66610   7.785   3.931   9.243  0.3132 -1.4160 -1.1903
  483MOL0     H66611   7.663   4.056   9.222 -1.0746 -0.3383  0.1564
  483MOL0     H66612   7.704   4.007   9.498 -1.2523 -2.9866  1.8818
  483MOL0     H66613   7.683   4.205   9.654  0.1719 -0.5732 -1.3608
  483MOL0     H66614   7.685   4.051   9.743 -1.4435 -0.8920  2.2806
  483MOL0     H66615   7.572   4.167   9.795  1.1730 -0.0816 -0.0118
  483MOL0     H66616   7.081   4.368   9.598  0.2126  0.7794 -0.0472
  483MOL0     H66617   6.917   4.504   9.705  2.1069  2.1356  2.8521
  483MOL0     H66618   6.791   4.648   9.922 -1.7120  0.7722  0.0525
  483MOL0     H66619   6.701   4.526   9.830  0.8024 -1.4032  0.6129
  483MOL0     H66620   6.577   4.448  10.026 -1.5250  0.6323  1.7532
  483MOL0     H66621   6.650   4.584  10.116  0.7251 -2.8478  0.8407
  483MOL0     H66622   6.475   4.608   9.877 -0.0584 -1.0090  0.7489
  483MOL0     H66623   6.587   4.736   9.936  3.8819 -1.8952  2.2492
  483MOL0     H66624   6.458   4.739  10.140  1.1093  0.2243 -0.5786
  483MOL0     H66625   6.387   4.578  10.096 -0.2415  0.7719  0.7472
  483MOL0     H66626   6.274   4.719   9.909  0.8783  0.1730  0.0547
  483MOL0     H66627   6.204   4.744  10.066  0.1172  0.0222  0.4989
  483MOL0     H66628   6.249   4.931   9.920 -1.4679  1.2921  1.7741
  483MOL0     H66629   6.418   4.935   9.998  0.3475 -0.5738 -1.2414
  483MOL0     H66630   6.324   4.947  10.216  1.3901  0.1269 -1.5147
  483MOL0     H66631   6.152   4.905  10.162 -0.1882 -0.6637  0.4832
  483MOL0     H66632   6.140   5.126  10.232 -0.3931  1.6659 -1.4675
  483MOL0     H66633   6.144   5.115  10.050 -1.0301 -3.3875  0.1695
  483MOL0     H66634   6.920   4.214  10.037 -1.1881 -1.2896 -1.2593
  483MOL0     H66635   7.085   4.096   9.930 -0.3512  0.3594  0.1805
  483MOL0     H66636   7.218   3.998   9.508  0.0956  3.5621  1.8071
  483MOL0     H66637   7.323   3.877   9.330  2.8248 -3.2112 -1.3147
  483MOL0     H66638   7.699   5.052   8.701 -1.4521  3.7155  2.0540
  483MOL0     H66639   7.904   5.071   8.825 -0.0053  1.7691  0.0983
  483MOL0     H66640   8.036   4.786   9.195  0.5414 -0.2098  2.5175
  483MOL0     H66641   8.173   4.694   9.348  0.0209  1.8057  3.4731
  483MOL0     H66642   8.335   4.722   9.530  0.4011 -1.3917  1.8700
  483MOL0     H66643   8.392   4.574   9.463  3.0581 -1.2816 -1.7966
  483MOL0     H66644   8.597   4.768   9.534  0.1042 -0.1974 -1.1769
  483MOL0     H66645   8.617   4.605   9.490 -0.1104  2.7436 -4.0314
  483MOL0     H66646   8.484   4.722   9.739  0.0327  0.8346 -1.2513
  483MOL0     H66647   8.453   4.551   9.695 -0.6147  1.2352  2.7371
  483MOL0     H66648   8.716   4.531   9.696  0.9969 -0.9410  2.2914
  483MOL0     H66649   8.645   4.550   9.858  1.1717  3.3867  2.3588
  483MOL0     H66650   8.892   4.892   9.778 -1.1463 -0.3335 -3.5869
  483MOL0     H66651   8.495   4.963   9.209  0.8298  0.1426 -6.7286
  483MOL0     H66652   8.456   5.142   9.106 -0.0298 -0.6151  0.6626
  483MOL0     H66653   8.361   5.107   8.961 -0.3797  1.0016 -0.6356
  483MOL0     H66654   8.292   5.211   9.082 -0.3558 -0.6734  2.4918
  484MOL0     O66655   8.175   0.992   3.814  0.4129  0.0686  0.1818
  484MOL0     C66656   8.082   1.022   3.739 -0.2301 -0.0723 -0.1343
  484MOL0     O66657   8.020   1.146   3.733  0.4797 -0.5171 -0.9804
  484MOL0     C66658   8.059   1.244   3.810 -0.1601 -0.1484 -0.4798
  484MOL0     C66659   8.004   1.280   3.935 -0.4600  0.5425 -0.0642
  484MOL0     C66660   8.046   1.391   4.001 -0.3518 -0.9969  0.5444
  484MOL0     C66661   8.167   1.455   3.962  0.0965  0.1487  0.1404
  484MOL0     O66662   8.225   1.562   4.027  0.4648  0.1582 -0.2944
  484MOL0     C66663   8.147   1.630   4.131 -0.3618 -0.1404 -0.6742
  484MOL0     C66664   8.203   1.763   4.168 -0.2188 -0.2538 -0.6015
  484MOL0     C66665   8.164   1.814   4.312 -0.8250 -0.0573 -0.3879
  484MOL0     C66666   8.025   1.871   4.313  0.1104 -0.6873  0.5856
  484MOL0     C66667   7.986   1.947   4.442 -0.4179  0.7044 -0.5044
  484MOL0     C66668   8.025   1.883   4.578  0.3762 -0.8431 -0.1736
  484MOL0     C66669   7.958   1.944   4.704  0.0837 -0.8445  0.0550
  484MOL0     C66670   7.999   2.089   4.723 -0.2586  0.1973 -0.4273
  484MOL0     N66671   7.937   2.150   4.847 -0.3454 -0.6629  0.4205
  484MOL0     C66672   7.907   2.281   4.866 -0.6940 -0.0418 -0.2994
  484MOL0     C66673   7.858   2.277   4.993 -0.9717  0.2832  0.4866
  484MOL0     C66674   7.817   2.402   5.069 -1.0281 -0.2204 -0.0700
  484MOL0     C66675   7.931   2.460   5.161 -1.0757  0.4592 -0.4858
  484MOL0     C66676   8.044   2.535   5.079 -0.9532 -0.1232  0.9906
  484MOL0     C66677   8.177   2.549   5.160 -0.3054 -0.4661  0.0477
  484MOL0     O66678   8.259   2.645   5.096  0.4745  0.7541 -0.1539
  484MOL0     C66679   8.285   2.763   5.157 -0.0285  0.4813 -0.5587
  484MOL0     C66680   8.237   2.876   5.100  0.2032 -0.1101  0.4184
  484MOL0     C66681   8.276   3.003   5.151  0.9135 -0.2491  0.4679
  484MOL0     C66682   8.231   3.129   5.069 -0.0700  0.2613 -0.2752
  484MOL0     C66683   8.347   3.003   5.279 -0.8695 -0.2335 -0.0015
  484MOL0     C66684   8.390   3.137   5.336  0.7201 -0.1586  0.1158
  484MOL0     O66685   8.483   3.124   5.441 -0.2122 -0.2997  0.4868
  484MOL0     C66686   8.548   3.233   5.501  0.2835  0.3078 -0.4131
  484MOL0     C66687   8.570   3.234   5.632  0.0251 -0.3211 -0.0416
  484MOL0     C66688   8.648   3.332   5.690  0.2143 -1.0336 -0.0767
  484MOL0     C66689   8.704   3.439   5.615 -0.7704 -0.4304  0.2028
  484MOL0     O66690   8.798   3.531   5.665 -0.4283  0.3106 -0.3451
  484MOL0     C66691   8.831   3.527   5.801  0.6237 -0.1598 -0.8868
  484MOL0     C66692   8.959   3.613   5.826  0.1948 -0.2163  0.1186
  484MOL0     C66693   9.000   3.616   5.972  0.5017 -0.7787  0.2171
  484MOL0     C66694   8.911   3.708   6.061 -0.3183  0.1270  0.4929
  484MOL0     C66695   8.993   3.835   6.095  0.3602 -0.4347  0.0496
  484MOL0     C66696   9.112   3.811   6.191 -0.7193 -1.0391  1.0088
  484MOL0     C66697   9.076   3.770   6.337  0.4636 -0.0530  1.1560
  484MOL0     C66698   9.120   3.879   6.426  0.3586  0.0011  0.1287
  484MOL0    Cl66699   9.296   3.918   6.424  0.0190 -0.4535  0.2892
  484MOL0     C66700   8.685   3.435   5.475  0.1053  0.2879 -0.3561
  484MOL0     C66701   8.605   3.338   5.414  0.2544  0.1438  0.2299
  484MOL0     O66702   8.335   3.246   5.306 -0.9512 -0.4153  0.7963
  484MOL0     C66703   8.389   2.884   5.332  0.8179  0.1419  0.7308
  484MOL0     C66704   8.367   2.758   5.271 -0.1725 -0.0244 -0.6106
  484MOL0     N66705   7.846   2.148   5.045  0.3905 -1.0085  0.2248
  484MOL0     N66706   7.899   2.077   4.956 -0.2049 -0.3388 -0.2254
  484MOL0     C66707   8.233   1.415   3.855 -0.0274  0.3173 -0.3447
  484MOL0     C66708   8.182   1.310   3.777  0.6348  0.4060  0.4860
  484MOL0     C66709   8.031   0.908   3.663 -0.2504 -0.8023  0.6410
  484MOL0     C66710   8.039   0.777   3.724 -0.2129 -0.5050  0.6287
  484MOL0     C66711   8.020   0.664   3.656 -0.8086  0.8451  0.3111
  484MOL0     C66712   7.978   0.672   3.520  0.1750  1.9807 -0.5377
  484MOL0     O66713   7.965   0.555   3.446  0.0860  0.3670 -0.0450
  484MOL0     C66714   7.826   0.524   3.413 -0.3495  0.3843  0.0497
  484MOL0     C66715   7.823   0.450   3.283  0.1587  0.0058 -1.0874
  484MOL0     C66716   7.927   0.337   3.279  0.7936  0.3437 -0.1976
  484MOL0     C66717   8.013   0.333   3.159 -0.0212 -1.1695 -0.0163
  484MOL0     C66718   7.927   0.326   3.042  0.7891  0.1214 -0.0929
  484MOL0     C66719   7.836   0.327   2.959 -0.4516  0.4930 -0.2096
  484MOL0     C66720   7.983   0.791   3.454 -0.0924 -0.5555 -0.3166
  484MOL0     C66721   8.006   0.911   3.526  0.1868  0.5950  0.0209
  484MOL0     C66722   8.025   1.046   3.464 -0.1778 -0.3671  0.8114
  484MOL0     H66723   7.922   1.233   3.986  0.0328  0.2248  0.4475
  484MOL0     H66724   7.990   1.421   4.088 -0.0923 -2.2952  1.1883
  484MOL0     H66725   8.175   1.584   4.227  2.9416  2.1758 -0.3489
  484MOL0     H66726   8.038   1.633   4.121 -0.6861 -0.5825  1.9230
  484MOL0     H66727   8.311   1.764   4.147  0.0226 -2.3264  0.3181
  484MOL0     H66728   8.148   1.824   4.096  1.1110 -0.1455 -1.5820
  484MOL0     H66729   8.165   1.739   4.391 -1.4779  1.7459  1.4195
  484MOL0     H66730   8.234   1.891   4.345  1.2053 -2.2597  0.7198
  484MOL0     H66731   7.999   1.931   4.226 -1.8110 -3.7558 -1.1243
  484MOL0     H66732   7.950   1.791   4.308 -3.1613  2.2522 -2.8816
  484MOL0     H66733   7.877   1.952   4.434 -0.3635  1.1193 -1.0001
  484MOL0     H66734   8.030   2.046   4.430  4.2762 -0.7610  2.0939
  484MOL0     H66735   7.996   1.778   4.586 -0.2102 -0.5516  2.5172
  484MOL0     H66736   8.133   1.884   4.595  0.2151 -0.1361  0.9227
  484MOL0     H66737   7.999   1.884   4.786  2.5631  3.0574  1.9593
  484MOL0     H66738   7.849   1.933   4.705 -0.4608  2.9255 -0.8876
  484MOL0     H66739   8.107   2.099   4.726  0.0780 -2.7231  1.6871
  484MOL0     H66740   7.967   2.143   4.633 -2.1072 -1.3629 -0.7798
  484MOL0     H66741   7.926   2.377   4.820  2.3916 -1.0272 -1.3278
  484MOL0     H66742   7.729   2.377   5.128 -2.1924 -0.0031 -1.6434
  484MOL0     H66743   7.788   2.479   4.997 -0.9752 -1.6058 -1.6315
  484MOL0     H66744   7.890   2.533   5.231  0.9353 -0.0216  1.2845
  484MOL0     H66745   7.981   2.381   5.218  0.8705  1.6769 -0.4188
  484MOL0     H66746   8.081   2.470   4.999 -0.4899  0.5158  0.6753
  484MOL0     H66747   8.010   2.634   5.050  1.6779  1.1185  1.7438
  484MOL0     H66748   8.156   2.582   5.262 -1.3108  2.9155 -1.0973
  484MOL0     H66749   8.239   2.462   5.182  1.1489  0.4534 -0.2993
  484MOL0     H66750   8.164   2.864   5.020 -1.9391  1.4000  2.0180
  484MOL0     H66751   8.314   3.201   5.058 -0.1056  0.4635  0.6730
  484MOL0     H66752   8.151   3.175   5.128  1.3201 -1.1043  2.9393
  484MOL0     H66753   8.190   3.102   4.971 -0.6339  2.2915 -0.6581
  484MOL0     H66754   8.514   3.159   5.688 -0.9407  0.5694  0.2132
  484MOL0     H66755   8.666   3.318   5.797 -2.3871 -0.4653  0.5096
  484MOL0     H66756   8.742   3.569   5.848  2.6994  2.6373  0.8760
  484MOL0     H66757   8.841   3.425   5.840 -0.7255  0.2715  0.6857
  484MOL0     H66758   9.043   3.578   5.765  0.7235 -1.8456  1.6675
  484MOL0     H66759   8.939   3.718   5.804 -0.7536 -0.5287 -0.5664
  484MOL0     H66760   9.099   3.663   5.970  2.1280 -3.8894 -1.2679
  484MOL0     H66761   9.012   3.515   6.013  2.5892 -0.7866 -0.2623
  484MOL0     H66762   8.888   3.655   6.154  1.5654 -0.1366  0.8531
  484MOL0     H66763   8.820   3.729   6.006  1.1221  0.0127 -2.0895
  484MOL0     H66764   9.038   3.888   6.010  1.4522 -1.6827 -0.1803
  484MOL0     H66765   8.925   3.905   6.145 -0.4284  0.8616 -2.6405
  484MOL0     H66766   9.188   3.889   6.180 -1.3072 -0.5892 -0.0591
  484MOL0     H66767   9.170   3.721   6.167  1.5628  0.0477  2.1993
  484MOL0     H66768   9.133   3.680   6.362  1.5362 -0.0894 -1.1862
  484MOL0     H66769   8.967   3.767   6.350  0.3336 -1.7127 -0.1280
  484MOL0     H66770   9.099   3.849   6.529  0.4861 -0.7281 -0.0509
  484MOL0     H66771   9.071   3.973   6.399  1.6317  0.2711 -1.4453
  484MOL0     H66772   8.747   3.508   5.423  1.8029 -0.4903  0.4776
  484MOL0     H66773   8.585   3.364   5.311  0.7377  0.2687  0.1629
  484MOL0     H66774   8.444   2.893   5.424  1.9718  0.4979  0.0207
  484MOL0     H66775   8.412   2.664   5.304 -1.2167 -1.8109 -3.8571
  484MOL0     H66776   8.331   1.459   3.839 -0.1986  0.5689 -0.7201
  484MOL0     H66777   8.229   1.277   3.686  0.0372 -3.8550  1.5117
  484MOL0     H66778   8.086   0.755   3.819 -0.0871 -2.1967  0.2041
  484MOL0     H66779   8.039   0.577   3.718  3.5133  1.9104  0.8302
  484MOL0     H66780   7.780   0.467   3.494 -0.6363  3.6178  2.3873
  484MOL0     H66781   7.763   0.613   3.402  1.6612  1.8140 -0.4416
  484MOL0     H66782   7.846   0.523   3.205 -0.9556  0.7178 -0.7758
  484MOL0     H66783   7.725   0.405   3.263 -0.6683  1.4669 -0.4892
  484MOL0     H66784   7.987   0.338   3.371 -0.2126  2.7698  0.5235
  484MOL0     H66785   7.863   0.248   3.284  1.4758 -0.1140  3.1479
  484MOL0     H66786   8.073   0.242   3.172  1.5815 -0.1124  0.2675
  484MOL0     H66787   8.084   0.416   3.158 -0.1963 -0.9222  2.2392
  484MOL0     H66788   7.764   0.323   2.880 -0.9997  1.8232  0.1832
  484MOL0     H66789   7.989   0.771   3.347  1.8471 -1.0644 -0.1508
  484MOL0     H66790   8.129   1.078   3.475  0.3570 -1.5485 -0.4337
  484MOL0     H66791   8.020   1.034   3.355 -0.1007  0.4484  0.7162
  484MOL0     H66792   7.948   1.112   3.505  0.7958  0.6678  1.0073
  485MOL0     O66793   9.297   5.064   6.595 -0.1784  0.7212 -0.0512
  485MOL0     C66794   9.177   5.087   6.585  0.4268  0.3323  0.2079
  485MOL0     O66795   9.099   5.027   6.482  0.1951 -0.5295 -0.0595
  485MOL0     C66796   9.169   4.945   6.400  0.4467  1.2083 -0.3502
  485MOL0     C66797   9.226   4.979   6.281  0.5459 -0.8280  0.2444
  485MOL0     C66798   9.291   4.876   6.203 -0.4362 -0.6671  0.6455
  485MOL0     C66799   9.316   4.757   6.252 -0.2166 -0.1920 -1.1579
  485MOL0     O66800   9.408   4.673   6.187  1.4432  0.6991  1.0647
  485MOL0     C66801   9.496   4.609   6.283  1.4580 -0.8838 -0.4860
  485MOL0     C66802   9.566   4.518   6.183  0.2108 -0.5314 -0.2355
  485MOL0     C66803   9.494   4.420   6.095 -0.3186 -0.8959  0.0302
  485MOL0     C66804   9.576   4.393   5.967  0.3179 -0.3219  0.1746
  485MOL0     C66805   9.513   4.286   5.896  0.2465  0.1249 -0.0210
  485MOL0     C66806   9.574   4.262   5.764 -0.1346  0.2498  0.5549
  485MOL0     C66807   9.533   4.134   5.690  0.2668  1.1054 -0.0162
  485MOL0     C66808   9.627   4.120   5.557 -0.6371 -0.4655  0.6752
  485MOL0     N66809   9.617   4.229   5.452 -0.0759  0.3223 -0.4522
  485MOL0     C66810   9.506   4.304   5.433 -0.3319 -0.2705 -0.1724
  485MOL0     C66811   9.544   4.422   5.377 -0.0299 -1.0687  0.8407
  485MOL0     C66812   9.453   4.537   5.334  0.1306 -0.7262  0.0441
  485MOL0     C66813   9.410   4.529   5.183 -0.1686 -0.2172  0.3406
  485MOL0     C66814   9.475   4.627   5.085  0.6445 -0.5610  0.0294
  485MOL0     C66815   9.616   4.575   5.033  0.1023 -0.8994 -0.0506
  485MOL0     O66816   9.668   4.685   4.957 -0.0209 -0.5565  0.3212
  485MOL0     C66817   9.805   4.667   4.928  0.5686 -0.0008 -0.5322
  485MOL0     C66818   9.872   4.545   4.913  0.0138 -0.2111  0.8354
  485MOL0     C66819  10.007   4.539   4.888 -0.4997 -0.1664  0.8087
  485MOL0     C66820  10.077   4.406   4.883 -0.3326 -0.6991 -0.4349
  485MOL0     C66821  10.082   4.663   4.888 -0.1552 -0.0132 -0.3732
  485MOL0     C66822  10.225   4.664   4.908  0.5500 -0.3301 -0.0050
  485MOL0     O66823  10.277   4.788   4.879 -0.2631  0.1666 -0.2022
  485MOL0     C66824  10.411   4.813   4.861  0.9965  0.0612 -0.2616
  485MOL0     C66825  10.482   4.729   4.782 -1.7383 -0.3486 -0.2767
  485MOL0     C66826  10.619   4.761   4.757 -0.3538 -0.8630  0.7954
  485MOL0     C66827  10.670   4.888   4.787  0.4779  1.1915 -0.5603
  485MOL0     O66828  10.798   4.915   4.763  0.0565 -0.4459  0.6959
  485MOL0     C66829  10.864   5.035   4.819 -0.6162  0.5062 -1.2343
  485MOL0     C66830  10.874   5.038   4.972  1.0896  0.0004 -0.0774
  485MOL0     C66831  10.858   5.160   5.054 -0.1568  0.2627 -1.1874
  485MOL0     C66832  10.928   5.287   5.001  0.1934  0.6930  0.0214
  485MOL0     C66833  10.921   5.404   5.102 -0.5994  1.0296 -0.2942
  485MOL0     C66834  10.983   5.520   5.028  0.0309 -0.1725 -0.2278
  485MOL0     C66835  11.009   5.648   5.110  0.2784 -1.1136  0.0718
  485MOL0     C66836  10.885   5.721   5.180 -0.2657  0.4796 -0.0721
  485MOL0    Cl66837  10.935   5.856   5.286 -0.4909 -0.2960 -0.6316
  485MOL0     C66838  10.591   4.968   4.858  0.6201  0.6710  1.2931
  485MOL0     C66839  10.460   4.937   4.886  0.9452  0.4805 -0.2382
  485MOL0     O66840  10.286   4.574   4.963  0.2873  1.0146  0.2130
  485MOL0     C66841  10.007   4.784   4.884  0.5117  0.2214 -0.5934
  485MOL0     C66842   9.873   4.786   4.910  1.0910 -0.7844  1.2400
  485MOL0     N66843   9.682   4.420   5.365 -0.1097 -0.4010  0.0212
  485MOL0     N66844   9.722   4.311   5.424 -0.6673  0.5700 -0.0836
  485MOL0     C66845   9.248   4.714   6.367  0.0223 -0.0972 -0.1745
  485MOL0     C66846   9.173   4.805   6.441  0.3342 -0.8162  0.2298
  485MOL0     C66847   9.111   5.180   6.689  0.2135 -0.1043  0.5656
  485MOL0     C66848   8.979   5.146   6.719  0.0356  0.8574  0.0787
  485MOL0     C66849   8.908   5.211   6.821 -0.0771  0.4669 -0.7888
  485MOL0     C66850   8.975   5.311   6.890 -0.9263 -0.0670  0.0625
  485MOL0     O66851   8.929   5.377   7.003  0.2175 -0.1655 -0.2312
  485MOL0     C66852   8.786   5.374   7.040 -0.0460 -0.4073  0.1383
  485MOL0     C66853   8.744   5.282   7.153 -0.1659  0.5347 -1.2350
  485MOL0     C66854   8.632   5.337   7.233 -0.3782  0.7591 -0.5457
  485MOL0     C66855   8.609   5.251   7.364  0.8553  0.1286  0.3606
  485MOL0     C66856   8.483   5.286   7.427 -0.2926  0.9033  0.5800
  485MOL0     C66857   8.386   5.331   7.476  1.3859  0.6470 -0.6462
  485MOL0     C66858   9.103   5.362   6.852  0.2374 -1.3795  0.0352
  485MOL0     C66859   9.173   5.291   6.752 -0.5460  0.3222  0.0058
  485MOL0     C66860   9.318   5.328   6.742  0.0109  0.1701  0.3646
  485MOL0     H66861   9.228   5.081   6.245 -0.8225 -0.6792  0.5275
  485MOL0     H66862   9.333   4.897   6.105  1.3616 -3.4436  0.7403
  485MOL0     H66863   9.436   4.551   6.353  1.7031 -0.5547  0.0022
  485MOL0     H66864   9.553   4.688   6.332  1.5585 -0.9065 -0.5653
  485MOL0     H66865   9.630   4.585   6.125  2.6704 -1.3939  1.2874
  485MOL0     H66866   9.633   4.452   6.239  0.5101  0.2321  0.3195
  485MOL0     H66867   9.468   4.332   6.156  0.1757  0.1936  1.9098
  485MOL0     H66868   9.403   4.473   6.065 -0.2587  0.7323  2.4113
  485MOL0     H66869   9.576   4.484   5.907 -1.0304  0.8867  1.9156
  485MOL0     H66870   9.678   4.368   5.997 -0.2133  0.5548  3.0117
  485MOL0     H66871   9.416   4.327   5.867  0.6146  1.2009  0.2185
  485MOL0     H66872   9.496   4.208   5.971  0.1732  2.3677  2.4468
  485MOL0     H66873   9.549   4.352   5.707 -2.4618  0.5333  1.8779
  485MOL0     H66874   9.682   4.248   5.771  0.3224  1.1295 -2.9566
  485MOL0     H66875   9.429   4.149   5.661 -0.0133  1.2477  0.9929
  485MOL0     H66876   9.548   4.049   5.758 -1.0699  1.2869  0.5371
  485MOL0     H66877   9.734   4.124   5.583 -0.0142  0.7039 -1.8014
  485MOL0     H66878   9.600   4.024   5.512  0.7933 -0.0954 -1.1064
  485MOL0     H66879   9.404   4.270   5.451 -0.5608 -0.7923 -2.2063
  485MOL0     H66880   9.499   4.631   5.364  0.8352 -0.8722 -0.5493
  485MOL0     H66881   9.362   4.533   5.395 -0.9813  1.3994 -1.3373
  485MOL0     H66882   9.434   4.429   5.145 -0.7081 -1.4412  2.9454
  485MOL0     H66883   9.301   4.537   5.182 -0.2284 -0.7958  1.2733
  485MOL0     H66884   9.413   4.642   4.996  2.6162 -2.0163 -1.7024
  485MOL0     H66885   9.487   4.727   5.126 -0.6082 -0.1535 -0.5504
  485MOL0     H66886   9.673   4.567   5.126 -0.4182  3.4206  0.8254
  485MOL0     H66887   9.606   4.478   4.983  2.7341 -0.4152 -1.7277
  485MOL0     H66888   9.806   4.459   4.909 -3.5270  2.3254 -0.7014
  485MOL0     H66889  10.012   4.323   4.855 -0.8703 -0.9676  1.4898
  485MOL0     H66890  10.105   4.386   4.986 -2.4674 -1.0801  0.1291
  485MOL0     H66891  10.159   4.405   4.810  0.1061 -3.6322 -0.0385
  485MOL0     H66892  10.437   4.637   4.748  0.2624 -0.9157 -1.4811
  485MOL0     H66893  10.682   4.704   4.690  1.1024  1.3010  0.2064
  485MOL0     H66894  10.967   5.030   4.781 -0.3995  1.3959 -0.7963
  485MOL0     H66895  10.810   5.124   4.785 -1.3023  0.6126  0.0795
  485MOL0     H66896  10.804   4.961   5.005  0.3569  0.5273 -0.3784
  485MOL0     H66897  10.976   5.004   4.995  1.4434  1.4725  0.5934
  485MOL0     H66898  10.899   5.133   5.152 -1.3083 -4.9137 -1.8728
  485MOL0     H66899  10.752   5.172   5.080  0.4249 -0.0937  1.6332
  485MOL0     H66900  10.887   5.313   4.904 -2.6059  1.0652  1.2179
  485MOL0     H66901  11.035   5.268   4.988  0.2049  0.2436  0.6978
  485MOL0     H66902  10.815   5.414   5.126 -0.6735 -0.5078  0.0586
  485MOL0     H66903  10.996   5.382   5.179  2.0429  0.1216 -2.9360
  485MOL0     H66904  10.913   5.538   4.946 -4.3472 -0.7061  2.9938
  485MOL0     H66905  11.081   5.484   4.997 -0.8509 -0.1597 -3.3827
  485MOL0     H66906  11.047   5.726   5.044 -0.2264 -1.2045 -0.3348
  485MOL0     H66907  11.077   5.629   5.194  0.3536  1.7337  0.7673
  485MOL0     H66908  10.825   5.650   5.239 -2.9389  0.8213 -2.1709
  485MOL0     H66909  10.809   5.747   5.105 -1.6175  0.8269  1.3606
  485MOL0     H66910  10.624   5.066   4.890 -0.2458  0.6853  2.1848
  485MOL0     H66911  10.384   4.999   4.934 -0.5157 -0.8109 -0.8149
  485MOL0     H66912  10.055   4.880   4.864 -0.4875  1.4676  2.4098
  485MOL0     H66913   9.822   4.882   4.912 -1.7669 -1.6704 -4.6062
  485MOL0     H66914   9.243   4.612   6.404  1.7264  0.1819  0.9635
  485MOL0     H66915   9.121   4.788   6.534  1.8849 -1.5184  1.0069
  485MOL0     H66916   8.936   5.064   6.662  0.7861 -0.1781  0.9669
  485MOL0     H66917   8.808   5.179   6.849  0.9732 -2.2064  0.2138
  485MOL0     H66918   8.761   5.474   7.078 -0.6073 -1.3516  2.4186
  485MOL0     H66919   8.728   5.340   6.954 -1.7793 -1.2891  1.5895
  485MOL0     H66920   8.821   5.274   7.230  0.2685 -0.4668 -1.7508
  485MOL0     H66921   8.724   5.181   7.116  1.5780 -0.6955  0.9622
  485MOL0     H66922   8.638   5.445   7.249 -0.2190  0.5342  1.0824
  485MOL0     H66923   8.542   5.322   7.173 -0.7868  0.9405  0.0120
  485MOL0     H66924   8.697   5.263   7.427 -0.7285  1.5072  2.4478
  485MOL0     H66925   8.603   5.146   7.334  2.9269  0.3767 -1.1166
  485MOL0     H66926   8.299   5.370   7.526 -0.5896 -2.7678 -1.0780
  485MOL0     H66927   9.151   5.452   6.891  1.9272 -1.2575 -2.1407
  485MOL0     H66928   9.357   5.310   6.641 -1.5993  0.2887 -0.3040
  485MOL0     H66929   9.344   5.427   6.779 -0.6819  0.1735  0.8558
  485MOL0     H66930   9.385   5.260   6.795  1.9477  1.2318 -0.5791
  486MOL0     O66931   7.307  11.071   1.296  0.6244  0.2866 -0.7111
  486MOL0     C66932   7.284  10.964   1.244 -0.6201  0.5243 -0.2003
  486MOL0     O66933   7.166  10.899   1.241  0.2418  0.1402 -0.2545
  486MOL0     C66934   7.084  10.922   1.353 -0.1829 -0.2206  0.2789
  486MOL0     C66935   7.129  10.900   1.482 -1.0257  0.4080 -1.1162
  486MOL0     C66936   7.056  10.933   1.593 -0.0069 -0.0679 -0.4563
  486MOL0     C66937   6.927  10.989   1.582  0.0211  0.5794 -0.0283
  486MOL0     O66938   6.843  11.002   1.688  0.2162  0.3191  0.0303
  486MOL0     C66939   6.913  11.056   1.803  0.3569 -0.0215 -0.0783
  486MOL0     C66940   6.805  11.102   1.896 -0.0750 -0.1269 -0.4822
  486MOL0     C66941   6.711  11.220   1.847  0.0572  1.2717  0.0734
  486MOL0     C66942   6.799  11.352   1.826 -0.2440 -1.3092 -0.8976
  486MOL0     C66943   6.695  11.472   1.815 -0.4171  1.7494 -0.4739
  486MOL0     C66944   6.759  11.610   1.803 -0.1823 -0.1542 -0.2522
  486MOL0     C66945   6.658  11.709   1.741  0.5752  0.3974 -1.0496
  486MOL0     C66946   6.564  11.753   1.850  0.2405  0.7319 -0.2851
  486MOL0     N66947   6.436  11.816   1.789  0.0207 -0.4698 -0.6016
  486MOL0     C66948   6.304  11.772   1.800  0.3036  0.1560  0.8090
  486MOL0     C66949   6.236  11.876   1.747  0.2184  0.5543 -0.2486
  486MOL0     C66950   6.087  11.869   1.739  0.5735 -0.2136 -0.1710
  486MOL0     C66951   6.017  11.990   1.801 -0.4002 -0.0501  0.1226
  486MOL0     C66952   6.048  12.007   1.949  0.2454 -0.1143 -0.7972
  486MOL0     C66953   5.989  12.135   2.009 -0.6930 -0.4559 -0.7144
  486MOL0     O66954   5.843  12.139   2.013 -0.7075  0.5356  0.3111
  486MOL0     C66955   5.778  12.257   2.043  0.0760  0.1395 -0.8055
  486MOL0     C66956   5.828  12.387   2.072  0.1396 -0.9656 -0.4557
  486MOL0     C66957   5.748  12.497   2.096 -0.3633  0.4506 -0.9537
  486MOL0     C66958   5.828  12.619   2.108  0.6097 -0.0192  1.1660
  486MOL0     C66959   5.608  12.490   2.086 -0.3264  0.7621 -0.2939
  486MOL0     C66960   5.517  12.607   2.117 -0.0590 -0.2931  0.2002
  486MOL0     O66961   5.384  12.588   2.075  0.0881  0.4800  0.3225
  486MOL0     C66962   5.277  12.669   2.115  0.1161 -0.0611 -0.0479
  486MOL0     C66963   5.161  12.601   2.163  0.2150  0.8288 -0.5463
  486MOL0     C66964   5.051  12.676   2.189 -0.3967  0.7189  1.1641
  486MOL0     C66965   5.056  12.818   2.182  0.8150  0.3566 -0.0070
  486MOL0     O66966   4.940  12.876   2.215 -0.2032  0.1286 -0.2082
  486MOL0     C66967   4.840  12.916   2.107 -0.2784  0.1681 -0.3470
  486MOL0     C66968   4.782  13.060   2.148  0.5136  0.4061 -0.2161
  486MOL0     C66969   4.883  13.174   2.141 -0.2725  0.0333 -0.0131
  486MOL0     C66970   4.946  13.187   1.996  0.3859 -0.1550 -0.2138
  486MOL0     C66971   5.054  13.295   1.990  0.4737 -0.4238  0.2099
  486MOL0     C66972   5.087  13.356   1.853 -0.7339  0.9145  0.3152
  486MOL0     C66973   5.155  13.489   1.865 -0.5218 -1.3636  0.3986
  486MOL0     C66974   5.230  13.536   1.741  1.0055 -0.4911 -0.5441
  486MOL0    Cl66975   5.108  13.518   1.596 -0.4821 -0.0202 -0.4362
  486MOL0     C66976   5.160  12.880   2.127 -0.4096  0.1455  0.8798
  486MOL0     C66977   5.272  12.808   2.102 -1.0687 -0.1161 -0.1420
  486MOL0     O66978   5.549  12.696   2.193  0.2654 -0.0691 -0.0982
  486MOL0     C66979   5.554  12.362   2.047 -0.1380 -0.1206 -0.0923
  486MOL0     C66980   5.638  12.254   2.040  0.1728  0.0296  0.1825
  486MOL0     N66981   6.316  11.971   1.709  0.0331 -0.7856 -0.2368
  486MOL0     N66982   6.438  11.943   1.738 -0.1579  0.1773 -0.0144
  486MOL0     C66983   6.873  11.017   1.463 -0.2741  0.1643 -0.0124
  486MOL0     C66984   6.954  10.971   1.352 -0.4584 -0.6291 -0.3892
  486MOL0     C66985   7.409  10.883   1.214 -0.0438  0.4169  0.5686
  486MOL0     C66986   7.423  10.757   1.266 -0.8539  0.5810  0.0461
  486MOL0     C66987   7.542  10.681   1.245  0.2520  0.0603 -0.0806
  486MOL0     C66988   7.639  10.728   1.154  0.5760  0.4220 -0.3146
  486MOL0     O66989   7.747  10.647   1.121  0.2122 -0.4613  0.7255
  486MOL0     C66990   7.879  10.692   1.108  0.3571  0.0342  0.8571
  486MOL0     C66991   7.938  10.655   0.972 -0.1314 -1.0019  0.5607
  486MOL0     C66992   7.899  10.517   0.929  0.5679 -0.0729  0.4220
  486MOL0     C66993   7.949  10.480   0.794 -1.0041  0.2450 -0.1812
  486MOL0     C66994   7.927  10.341   0.759 -0.2899  0.3468  0.5886
  486MOL0     C66995   7.909  10.224   0.734 -0.2830  0.9004  0.1381
  486MOL0     C66996   7.615  10.852   1.096 -0.3717 -0.4773 -0.8179
  486MOL0     C66997   7.505  10.926   1.116  0.1303  0.6642  0.1804
  486MOL0     C66998   7.490  11.059   1.040  0.8062 -0.0369 -0.3360
  486MOL0     H66999   7.234  10.877   1.497 -0.5202  3.5103  1.1898
  486MOL0     H67000   7.094  10.908   1.691  1.2418 -0.6283 -1.0690
  486MOL0     H67001   6.997  11.123   1.786 -0.2198  1.1677  1.4826
  486MOL0     H67002   6.950  10.970   1.861 -1.8535  0.7328  2.6713
  486MOL0     H67003   6.741  11.014   1.911  0.5302 -0.5948 -0.6333
  486MOL0     H67004   6.856  11.127   1.989 -1.6569 -0.4619  0.5309
  486MOL0     H67005   6.662  11.189   1.754  0.1614  2.3715 -0.3583
  486MOL0     H67006   6.642  11.242   1.928 -0.8981 -1.6061  0.1565
  486MOL0     H67007   6.864  11.364   1.913 -2.8153  1.4143  0.8467
  486MOL0     H67008   6.860  11.345   1.735 -1.6906 -0.3434 -1.9738
  486MOL0     H67009   6.628  11.463   1.902 -0.3324 -3.9139 -0.5650
  486MOL0     H67010   6.642  11.456   1.721  0.2879 -1.1150 -0.4902
  486MOL0     H67011   6.796  11.652   1.896  3.0332  1.9091 -2.2561
  486MOL0     H67012   6.844  11.597   1.735 -0.6935  1.9998 -1.3983
  486MOL0     H67013   6.603  11.658   1.662  0.1205  0.6644 -0.9079
  486MOL0     H67014   6.709  11.794   1.695  0.8282  1.6228  1.3017
  486MOL0     H67015   6.525  11.667   1.905  0.8685  0.8846  0.4055
  486MOL0     H67016   6.615  11.827   1.912  0.1268 -1.5637  2.7610
  486MOL0     H67017   6.264  11.687   1.854 -1.6735  0.3618 -0.2613
  486MOL0     H67018   6.048  11.783   1.793  0.6532  0.5772  1.1717
  486MOL0     H67019   6.046  11.853   1.639  0.5532  0.3011 -0.2492
  486MOL0     H67020   6.052  12.076   1.742  0.5682 -1.7545 -1.9094
  486MOL0     H67021   5.909  11.976   1.811 -0.7992  2.3924 -0.1674
  486MOL0     H67022   6.005  11.928   2.011  0.6310  2.1714  2.6922
  486MOL0     H67023   6.155  12.000   1.970 -0.0625 -2.1455  0.3899
  486MOL0     H67024   6.031  12.129   2.109 -0.1382 -3.3352 -1.0501
  486MOL0     H67025   6.029  12.223   1.958 -2.7469 -0.0742 -1.7919
  486MOL0     H67026   5.936  12.385   2.076  0.2234  1.7335  1.1832
  486MOL0     H67027   5.834  12.657   2.210 -4.1584 -2.4822  2.6479
  486MOL0     H67028   5.779  12.691   2.042  1.9166 -0.1924 -0.0455
  486MOL0     H67029   5.926  12.605   2.061  2.4080  1.2745  4.2444
  486MOL0     H67030   5.150  12.493   2.165 -1.5589  0.8464 -3.6173
  486MOL0     H67031   4.956  12.631   2.214  0.2944  0.2133  3.0656
  486MOL0     H67032   4.883  12.906   2.007 -0.6202 -0.7357 -0.4192
  486MOL0     H67033   4.750  12.854   2.113 -2.4082  3.0751 -0.1670
  486MOL0     H67034   4.705  13.082   2.074  2.5442 -0.0526 -2.5896
  486MOL0     H67035   4.736  13.044   2.246 -0.2243 -1.8151 -0.8549
  486MOL0     H67036   4.970  13.159   2.205  2.0265  4.7077 -1.5752
  486MOL0     H67037   4.829  13.266   2.165 -4.1888 -2.1600  0.4115
  486MOL0     H67038   4.873  13.221   1.922 -0.0017  1.9562  1.0699
  486MOL0     H67039   4.985  13.093   1.956  0.5675  0.3103 -1.1548
  486MOL0     H67040   5.003  13.379   2.038  1.1072 -0.2601  0.5944
  486MOL0     H67041   5.141  13.255   2.043  2.0555  1.4189 -0.8754
  486MOL0     H67042   4.998  13.369   1.790  1.6615  3.6277 -2.9195
  486MOL0     H67043   5.152  13.288   1.797 -1.9002  0.4165 -0.4633
  486MOL0     H67044   5.225  13.489   1.950  0.9695 -0.8479 -0.7879
  486MOL0     H67045   5.073  13.560   1.875 -1.3859 -2.4780  1.5560
  486MOL0     H67046   5.323  13.481   1.723  0.9379 -1.0422  0.7169
  486MOL0     H67047   5.261  13.638   1.763  0.0033 -0.3882  0.4300
  486MOL0     H67048   5.152  12.985   2.099 -0.8235 -0.0500  0.2163
  486MOL0     H67049   5.363  12.849   2.059 -1.5321  0.1014 -0.9343
  486MOL0     H67050   5.447  12.343   2.045 -0.4588  0.8342  2.9744
  486MOL0     H67051   5.602  12.153   2.025  2.3993 -0.8788  0.5384
  486MOL0     H67052   6.779  11.070   1.454 -0.1521  0.6977  1.5334
  486MOL0     H67053   6.918  10.990   1.251  3.3870  1.3411 -1.5631
  486MOL0     H67054   7.339  10.710   1.316 -3.9412  5.6661  0.3129
  486MOL0     H67055   7.554  10.583   1.291  1.3884  0.1958 -0.0659
  486MOL0     H67056   7.884  10.800   1.117 -3.2865  0.3094  0.9393
  486MOL0     H67057   7.948  10.660   1.187  1.1776  1.8948  0.9369
  486MOL0     H67058   8.046  10.655   0.990 -0.1929 -0.1064  0.9559
  486MOL0     H67059   7.917  10.721   0.887 -0.2114 -2.1871 -0.3613
  486MOL0     H67060   7.919  10.440   1.004 -1.8277 -0.6539  0.5437
  486MOL0     H67061   7.789  10.512   0.926  0.5198  0.9618 -0.6762
  486MOL0     H67062   8.058  10.484   0.800 -1.0429  0.9985  0.1451
  486MOL0     H67063   7.907  10.548   0.718  2.4972  0.7838 -1.8084
  486MOL0     H67064   7.894  10.120   0.710  0.9912  0.6653  0.2737
  486MOL0     H67065   7.693  10.886   1.029  1.1215 -2.5827 -0.2606
  486MOL0     H67066   7.552  11.127   1.099  0.4813 -1.4315  1.7262
  486MOL0     H67067   7.508  11.049   0.932 -2.2049 -2.7220 -0.7489
  486MOL0     H67068   7.382  11.079   1.046  0.5338 -1.3488 -0.5077
  487MOL0     O67069   4.347   9.119   4.056  0.3263 -0.0636  0.9443
  487MOL0     C67070   4.459   9.117   4.098  0.4911 -0.1898  0.6091
  487MOL0     O67071   4.493   9.093   4.232 -0.2007  0.9302  0.0362
  487MOL0     C67072   4.415   9.119   4.347 -0.1073 -0.4704 -0.0429
  487MOL0     C67073   4.432   9.225   4.438  0.2134  0.0700 -0.0655
  487MOL0     C67074   4.336   9.237   4.541 -0.3281 -0.8385  0.7723
  487MOL0     C67075   4.219   9.161   4.544 -0.0315  0.4711  0.1869
  487MOL0     O67076   4.122   9.179   4.637  0.3537  0.0841 -0.5001
  487MOL0     C67077   4.123   9.131   4.774  0.4864  0.0894 -0.5865
  487MOL0     C67078   3.982   9.095   4.815  0.6806  0.1335 -0.3883
  487MOL0     C67079   3.940   8.977   4.728  0.2616 -0.4683  0.3007
  487MOL0     C67080   3.807   8.923   4.776  0.0894 -0.2278  0.0412
  487MOL0     C67081   3.760   8.821   4.675  0.9140  0.2001 -1.2619
  487MOL0     C67082   3.650   8.720   4.701 -0.1692 -0.5480  0.3700
  487MOL0     C67083   3.672   8.617   4.816 -0.2070 -0.0173 -0.7602
  487MOL0     C67084   3.589   8.488   4.794  0.3876  0.4405  0.0302
  487MOL0     N67085   3.655   8.402   4.698 -0.7291  0.2681  0.4541
  487MOL0     C67086   3.615   8.401   4.565  0.8306 -0.8710  0.5172
  487MOL0     C67087   3.714   8.326   4.504 -0.4684  0.5017 -0.6334
  487MOL0     C67088   3.708   8.285   4.363  0.2296  0.6203  0.4067
  487MOL0     C67089   3.576   8.280   4.276  0.8764  0.0011 -0.3402
  487MOL0     C67090   3.463   8.202   4.345 -0.4424 -0.1738  0.9063
  487MOL0     C67091   3.496   8.053   4.341 -0.8367  1.2983 -0.3405
  487MOL0     O67092   3.466   7.992   4.219 -0.0985  0.8172 -0.1714
  487MOL0     C67093   3.513   7.860   4.195 -1.1092 -0.8177 -0.9085
  487MOL0     C67094   3.629   7.805   4.245  0.9733 -0.3953 -0.0431
  487MOL0     C67095   3.663   7.671   4.214  0.0447 -0.7196  0.1209
  487MOL0     C67096   3.785   7.600   4.274  0.0003  0.3034  0.1499
  487MOL0     C67097   3.582   7.600   4.119 -0.0463 -0.5462 -0.1125
  487MOL0     C67098   3.604   7.460   4.105  0.8978  0.6294  0.4461
  487MOL0     O67099   3.639   7.411   3.976  0.4868  0.3050 -0.2952
  487MOL0     C67100   3.671   7.272   3.966 -0.6630 -0.4644  0.2307
  487MOL0     C67101   3.801   7.233   4.000  0.0774 -0.4559  1.1899
  487MOL0     C67102   3.840   7.096   3.975  0.3080  1.1896  0.3798
  487MOL0     C67103   3.734   7.007   3.922 -0.8178 -0.0540 -0.4189
  487MOL0     O67104   3.752   6.876   3.896 -0.9671  0.1148 -0.5761
  487MOL0     C67105   3.761   6.799   4.017 -0.9952  0.0148 -0.0286
  487MOL0     C67106   3.633   6.742   4.059 -0.0385 -0.5947  0.2461
  487MOL0     C67107   3.637   6.663   4.187  0.0500  0.8297 -0.0753
  487MOL0     C67108   3.725   6.530   4.157  0.7265 -0.5688  0.6596
  487MOL0     C67109   3.706   6.429   4.264 -0.2204  0.0524  0.5247
  487MOL0     C67110   3.785   6.297   4.255  0.1521  1.5569  0.0860
  487MOL0     C67111   3.720   6.197   4.164  0.7697 -0.6819 -0.1091
  487MOL0     C67112   3.776   6.050   4.186  0.1771 -1.0692  0.3016
  487MOL0    Cl67113   3.696   5.969   4.321  0.0842  0.0091 -0.1872
  487MOL0     C67114   3.610   7.057   3.889  1.0778 -0.2553  0.5625
  487MOL0     C67115   3.578   7.189   3.921  0.1208  0.4075 -0.5750
  487MOL0     O67116   3.567   7.385   4.198 -0.2177  0.2750  1.0935
  487MOL0     C67117   3.472   7.662   4.065 -0.4954 -0.3279  0.1276
  487MOL0     C67118   3.441   7.790   4.104  0.6076 -0.7625  0.3953
  487MOL0     N67119   3.809   8.290   4.602 -0.0563  0.1918  0.6176
  487MOL0     N67120   3.767   8.328   4.713  0.9472 -0.6094  0.1419
  487MOL0     C67121   4.195   9.074   4.441  0.4295  0.6524 -0.3533
  487MOL0     C67122   4.296   9.051   4.345 -1.0964 -0.6457 -0.0679
  487MOL0     C67123   4.574   9.127   3.993  0.8862  1.0757 -0.4246
  487MOL0     C67124   4.701   9.159   4.039 -0.2321 -0.4648 -0.1167
  487MOL0     C67125   4.814   9.164   3.955  0.4354  0.3096  0.8751
  487MOL0     C67126   4.793   9.141   3.816 -0.0724 -0.0826  0.2732
  487MOL0     O67127   4.912   9.159   3.748  0.6181  0.3888  0.2252
  487MOL0     C67128   4.925   9.091   3.619  0.3654 -0.3890 -0.1195
  487MOL0     C67129   5.071   9.091   3.574  0.0012 -0.1451 -0.6115
  487MOL0     C67130   5.099   8.997   3.454 -0.6426 -0.6471 -0.5354
  487MOL0     C67131   5.026   9.026   3.318 -0.0542  0.6337 -0.0138
  487MOL0     C67132   4.937   8.912   3.286  0.0558 -0.4907 -0.5282
  487MOL0     C67133   4.869   8.818   3.271  0.1906  0.0788  0.2664
  487MOL0     C67134   4.674   9.097   3.768 -0.2865 -0.9129  0.1423
  487MOL0     C67135   4.558   9.098   3.851  0.0657 -0.2311 -0.0783
  487MOL0     C67136   4.430   9.047   3.794 -0.2049  0.1084  0.7339
  487MOL0     H67137   4.518   9.291   4.435 -0.9397  1.9391  2.9007
  487MOL0     H67138   4.345   9.322   4.607  0.7301 -1.1032  0.9891
  487MOL0     H67139   4.153   9.211   4.842 -0.8700 -0.1817  0.3775
  487MOL0     H67140   4.187   9.042   4.782  0.3197  0.1038  1.7128
  487MOL0     H67141   3.968   9.064   4.919 -1.2957 -1.5933 -1.0912
  487MOL0     H67142   3.913   9.179   4.801 -0.7795 -1.1943 -1.4161
  487MOL0     H67143   3.942   9.001   4.621 -0.5243 -2.3596 -0.1770
  487MOL0     H67144   4.004   8.888   4.729 -0.7655 -1.2368 -0.4627
  487MOL0     H67145   3.821   8.873   4.872  3.9005  0.2549 -0.1173
  487MOL0     H67146   3.739   9.009   4.780 -0.6258 -0.5396 -3.0105
  487MOL0     H67147   3.843   8.757   4.640  1.2918  0.1945 -0.3778
  487MOL0     H67148   3.726   8.877   4.588  1.3819  0.8575 -1.0281
  487MOL0     H67149   3.577   8.790   4.744  2.5297  2.2445  0.7287
  487MOL0     H67150   3.604   8.682   4.610 -1.5335  2.6244 -0.4167
  487MOL0     H67151   3.651   8.659   4.915  3.6199  0.3632  0.0655
  487MOL0     H67152   3.777   8.588   4.830 -0.4346 -0.4292  0.1366
  487MOL0     H67153   3.567   8.441   4.890  0.7555  0.4328  0.1125
  487MOL0     H67154   3.489   8.506   4.754 -0.5385 -4.0233 -0.2545
  487MOL0     H67155   3.530   8.450   4.517  3.7414  1.5387 -2.6551
  487MOL0     H67156   3.753   8.185   4.361  2.2244  1.2726 -4.8769
  487MOL0     H67157   3.768   8.349   4.297 -0.2724  2.7895  1.9379
  487MOL0     H67158   3.542   8.383   4.265  3.6286  0.9513 -0.6262
  487MOL0     H67159   3.594   8.231   4.180 -2.8790  0.0847 -1.2480
  487MOL0     H67160   3.450   8.239   4.447 -0.0410  0.6063  0.6852
  487MOL0     H67161   3.372   8.212   4.285  0.4959 -0.8533 -0.6842
  487MOL0     H67162   3.597   8.030   4.377 -1.2543 -0.3641 -0.1564
  487MOL0     H67163   3.432   8.005   4.415  0.6161  1.8830  1.3599
  487MOL0     H67164   3.691   7.861   4.314  0.8892  0.9183 -0.9976
  487MOL0     H67165   3.843   7.546   4.199 -0.4741 -0.1598  0.1111
  487MOL0     H67166   3.770   7.526   4.353  0.8349  0.1063  0.1310
  487MOL0     H67167   3.850   7.669   4.329 -0.4751  0.7344  0.1807
  487MOL0     H67168   3.869   7.303   4.048 -0.5079 -0.4443  2.0187
  487MOL0     H67169   3.939   7.058   3.999 -0.0478  0.7865  1.2419
  487MOL0     H67170   3.834   6.724   3.987 -1.7291 -1.0503  0.7827
  487MOL0     H67171   3.798   6.866   4.095  1.5522 -0.5686 -0.6461
  487MOL0     H67172   3.563   6.821   4.088  0.9707  0.2314  0.4585
  487MOL0     H67173   3.581   6.689   3.978 -1.1100  0.8138 -0.0263
  487MOL0     H67174   3.537   6.641   4.226  0.7858 -1.2889  0.7452
  487MOL0     H67175   3.689   6.725   4.262  0.0642  0.5528  0.1458
  487MOL0     H67176   3.832   6.553   4.148  0.7692  0.1802  2.5259
  487MOL0     H67177   3.689   6.495   4.060 -1.1592  3.9653 -0.5329
  487MOL0     H67178   3.741   6.475   4.357  3.4333  2.1779 -1.6515
  487MOL0     H67179   3.601   6.400   4.272 -0.4443  0.8065  0.4025
  487MOL0     H67180   3.792   6.250   4.353  0.5176 -1.5085 -1.2910
  487MOL0     H67181   3.885   6.313   4.214  1.2805  0.0359  2.0541
  487MOL0     H67182   3.745   6.225   4.061  0.3882  1.9723  0.4451
  487MOL0     H67183   3.611   6.189   4.171  0.9494 -3.4237  0.7428
  487MOL0     H67184   3.883   6.027   4.187 -0.4848 -4.8535 -1.0777
  487MOL0     H67185   3.741   5.999   4.096  0.7616 -2.5953  0.9061
  487MOL0     H67186   3.534   6.990   3.851 -0.5753  0.3503  2.6700
  487MOL0     H67187   3.476   7.223   3.906 -0.7242 -1.5702  0.2889
  487MOL0     H67188   3.401   7.604   4.007  1.0171  0.7645 -3.0397
  487MOL0     H67189   3.346   7.829   4.066  1.5745  0.0995 -1.2687
  487MOL0     H67190   4.097   9.031   4.426  1.5197 -1.9045 -0.6891
  487MOL0     H67191   4.279   8.985   4.260 -0.3307  0.4590 -1.1251
  487MOL0     H67192   4.717   9.181   4.144  0.0705  0.8226 -0.4212
  487MOL0     H67193   4.913   9.190   3.991  1.0632 -1.5048  0.5530
  487MOL0     H67194   4.883   8.994   3.647 -0.8344  0.9080  3.0768
  487MOL0     H67195   4.857   9.136   3.546 -2.0260 -3.0972  0.2627
  487MOL0     H67196   5.134   9.064   3.660 -0.8651 -2.1566 -0.5462
  487MOL0     H67197   5.098   9.191   3.540 -2.4448  1.6810  2.3243
  487MOL0     H67198   5.208   8.999   3.441 -0.2925 -0.0504  2.0173
  487MOL0     H67199   5.080   8.894   3.485  3.3412 -2.5158 -3.3354
  487MOL0     H67200   5.099   9.038   3.237 -2.0212 -3.6921 -2.8102
  487MOL0     H67201   4.964   9.116   3.316 -1.4263 -0.2692 -1.9076
  487MOL0     H67202   4.788   8.754   3.242  0.2613  0.0958  0.0260
  487MOL0     H67203   4.664   9.064   3.665  1.1395  0.0222 -0.3414
  487MOL0     H67204   4.428   9.017   3.689 -2.5353 -1.8022  1.2234
  487MOL0     H67205   4.414   8.948   3.839 -0.5963  0.0309  0.4367
  487MOL0     H67206   4.342   9.111   3.804 -3.5751 -4.2694  2.6818
  488MOL0     O67207   3.114  10.601   2.576  0.0901 -0.6187  0.7508
  488MOL0     C67208   3.114  10.543   2.466 -0.6849  0.1993 -0.7738
  488MOL0     O67209   3.042  10.573   2.354 -0.0801 -0.3528  0.0500
  488MOL0     C67210   2.987  10.697   2.340  0.2700  0.1806 -0.2486
  488MOL0     C67211   2.862  10.700   2.278 -0.0878  0.8971  0.1747
  488MOL0     C67212   2.795  10.813   2.241 -1.0661 -0.2378 -0.9010
  488MOL0     C67213   2.851  10.932   2.288  0.4232 -0.4741  0.7909
  488MOL0     O67214   2.778  11.046   2.264 -0.5187 -0.5692 -0.4298
  488MOL0     C67215   2.689  11.058   2.151  0.2111 -0.3694  0.2288
  488MOL0     C67216   2.637  11.202   2.146 -0.1512 -0.0121 -0.3763
  488MOL0     C67217   2.579  11.255   2.275 -0.5980  0.5018  0.2469
  488MOL0     C67218   2.532  11.401   2.267 -0.1513 -0.0945 -1.4507
  488MOL0     C67219   2.436  11.449   2.384 -0.3709 -0.2140 -0.8111
  488MOL0     C67220   2.403  11.597   2.378  0.9677  0.5054 -0.3513
  488MOL0     C67221   2.312  11.629   2.497 -0.1125 -0.4817  0.5618
  488MOL0     C67222   2.326  11.775   2.519  0.2137  0.3340 -0.1786
  488MOL0     N67223   2.237  11.832   2.623  0.1208 -0.5155  0.6044
  488MOL0     C67224   2.208  11.784   2.755  0.2287  0.0804  0.8448
  488MOL0     C67225   2.088  11.847   2.788  0.5222  0.9432 -0.1943
  488MOL0     C67226   2.018  11.810   2.916 -0.0755 -0.2594  1.0483
  488MOL0     C67227   1.887  11.878   2.938  0.5375 -0.2489  0.1658
  488MOL0     C67228   1.774  11.825   2.843 -0.1287  0.4043  0.3362
  488MOL0     C67229   1.644  11.883   2.901  0.2396 -0.3562  0.5737
  488MOL0     O67230   1.611  11.812   3.016 -0.2662 -0.5118  0.5357
  488MOL0     C67231   1.500  11.836   3.074  0.8665  0.9512 -0.2209
  488MOL0     C67232   1.498  11.778   3.201 -0.4739 -0.2890  0.3589
  488MOL0     C67233   1.401  11.805   3.306 -1.0225  0.7670 -0.1065
  488MOL0     C67234   1.419  11.728   3.442 -0.3574 -0.2338  0.8839
  488MOL0     C67235   1.301  11.895   3.280  0.7795  1.1492  0.3205
  488MOL0     C67236   1.189  11.924   3.379 -0.9787 -0.7278  0.2835
  488MOL0     O67237   1.147  11.829   3.469  0.5400 -0.0242 -0.3621
  488MOL0     C67238   1.041  11.857   3.553  0.1884 -0.2845 -0.4759
  488MOL0     C67239   1.046  11.856   3.693 -0.0572 -1.3235 -0.4660
  488MOL0     C67240   0.930  11.889   3.766  0.1918 -0.0193  0.1793
  488MOL0     C67241   0.802  11.906   3.717 -0.3950 -0.2678  0.1155
  488MOL0     O67242   0.695  11.955   3.791  0.6147  0.5664 -0.0475
  488MOL0     C67243   0.691  12.095   3.792 -0.6575 -0.2364 -0.3521
  488MOL0     C67244   0.758  12.159   3.922 -0.3995  0.0317  0.2061
  488MOL0     C67245   0.678  12.126   4.055 -0.0816 -0.0652  0.2482
  488MOL0     C67246   0.550  12.213   4.088  0.3301 -0.1815 -1.3747
  488MOL0     C67247   0.475  12.176   4.221 -0.2374  0.4056 -0.0469
  488MOL0     C67248   0.344  12.237   4.237  1.3289 -0.2635 -0.9861
  488MOL0     C67249   0.347  12.391   4.275  0.2961  0.2217  0.4146
  488MOL0     C67250   0.214  12.446   4.342  0.1224  0.4760 -0.0168
  488MOL0    Cl67251   0.237  12.403   4.511 -0.4589  0.0824 -0.4834
  488MOL0     C67252   0.797  11.898   3.575  0.0794  0.8845 -0.1839
  488MOL0     C67253   0.911  11.870   3.491  0.8052 -0.0791 -0.0433
  488MOL0     O67254   1.137  12.035   3.360  0.3655  0.1935  0.7982
  488MOL0     C67255   1.298  11.945   3.144 -1.3267  0.0494  0.3528
  488MOL0     C67256   1.395  11.925   3.049  0.2083 -0.0923  0.6402
  488MOL0     N67257   2.059  11.948   2.697 -0.2528  0.1444  0.3182
  488MOL0     N67258   2.146  11.924   2.597 -0.8036 -0.2481  0.2040
  488MOL0     C67259   2.978  10.933   2.360 -0.4077  0.0187 -0.9692
  488MOL0     C67260   3.049  10.813   2.385 -1.2763  0.3364 -0.8401
  488MOL0     C67261   3.197  10.421   2.447  1.1325  0.2756 -0.8900
  488MOL0     C67262   3.206  10.335   2.558 -0.8181  0.8998 -0.2418
  488MOL0     C67263   3.287  10.220   2.564  0.3393 -0.4116  0.6008
  488MOL0     C67264   3.349  10.185   2.445 -0.6879  0.2686  0.0178
  488MOL0     O67265   3.435  10.070   2.437 -0.2167 -0.6820  0.9186
  488MOL0     C67266   3.567  10.088   2.400  0.2383 -1.2483  0.4684
  488MOL0     C67267   3.609   9.978   2.308 -1.0650 -0.2243 -0.5134
  488MOL0     C67268   3.583   9.840   2.372 -0.4658 -0.4035 -0.5816
  488MOL0     C67269   3.644   9.729   2.292  0.1549 -0.3344 -0.3226
  488MOL0     C67270   3.572   9.706   2.167 -0.0114  0.1766 -0.4986
  488MOL0     C67271   3.519   9.676   2.064  1.1322 -0.2291  0.2584
  488MOL0     C67272   3.333  10.269   2.330 -0.3008  1.0868  0.1709
  488MOL0     C67273   3.265  10.392   2.332 -0.0467  1.5403 -0.3794
  488MOL0     C67274   3.281  10.476   2.217 -0.4818  0.9217 -0.8348
  488MOL0     H67275   2.820  10.603   2.254 -0.3528  0.8119  0.9718
  488MOL0     H67276   2.704  10.816   2.182 -2.1830 -2.6410  0.5273
  488MOL0     H67277   2.610  10.983   2.158 -0.1253 -0.2403 -1.6757
  488MOL0     H67278   2.734  11.046   2.052 -1.2974  1.1492 -0.6874
  488MOL0     H67279   2.724  11.267   2.133 -1.0387  0.9192 -1.9227
  488MOL0     H67280   2.569  11.198   2.061  1.1104 -2.3185 -1.3564
  488MOL0     H67281   2.494  11.205   2.323  0.9116 -2.6699 -0.1800
  488MOL0     H67282   2.666  11.237   2.339  0.5083 -2.1359 -1.8387
  488MOL0     H67283   2.619  11.467   2.266 -1.5417  1.8211 -0.9903
  488MOL0     H67284   2.483  11.402   2.169 -0.1351  1.0604 -1.4642
  488MOL0     H67285   2.489  11.434   2.479 -1.2784  0.7928 -0.1176
  488MOL0     H67286   2.343  11.393   2.396 -1.4203  1.6393  0.1557
  488MOL0     H67287   2.497  11.650   2.394  1.0388 -0.1771  1.7836
  488MOL0     H67288   2.357  11.625   2.283 -0.6663 -0.5410  0.0787
  488MOL0     H67289   2.337  11.574   2.588  1.9150  0.0758  0.3861
  488MOL0     H67290   2.211  11.591   2.476 -0.4711  0.4335  0.5630
  488MOL0     H67291   2.429  11.797   2.550 -0.3179  5.9352 -1.2318
  488MOL0     H67292   2.304  11.819   2.421  1.0351 -1.1602 -1.0770
  488MOL0     H67293   2.271  11.708   2.802  2.0748 -2.8978 -5.3911
  488MOL0     H67294   2.091  11.844   2.991  0.7086  1.8419 -0.5832
  488MOL0     H67295   2.019  11.700   2.920 -0.9344 -0.4064 -1.3641
  488MOL0     H67296   1.868  11.857   3.044 -0.2732  2.5572  0.6704
  488MOL0     H67297   1.904  11.986   2.934 -1.0838  0.0627  0.7047
  488MOL0     H67298   1.800  11.858   2.741 -0.5651  0.6411  0.2995
  488MOL0     H67299   1.776  11.716   2.852  2.3332  0.5330  2.4109
  488MOL0     H67300   1.640  11.992   2.914 -0.3837 -0.4801  1.5041
  488MOL0     H67301   1.573  11.868   2.820  0.9463 -1.8777  0.1943
  488MOL0     H67302   1.574  11.709   3.234 -2.3144 -0.8509  3.8241
  488MOL0     H67303   1.522  11.694   3.458 -0.3551  0.4932  2.6711
  488MOL0     H67304   1.367  11.634   3.463  2.0890 -1.4795  1.7530
  488MOL0     H67305   1.388  11.799   3.520 -0.1892  2.9572 -1.7566
  488MOL0     H67306   1.144  11.840   3.736  0.3629 -0.3377 -1.0384
  488MOL0     H67307   0.940  11.899   3.873  2.3693 -2.6610  0.3149
  488MOL0     H67308   0.745  12.138   3.707 -0.3654 -0.2750 -0.1901
  488MOL0     H67309   0.592  12.139   3.782 -1.7807 -1.9600  2.1759
  488MOL0     H67310   0.854  12.110   3.941  0.0954  2.3505  5.2639
  488MOL0     H67311   0.791  12.262   3.906  4.0465 -1.1912 -0.0786
  488MOL0     H67312   0.750  12.140   4.136 -1.1490  0.6375  1.0971
  488MOL0     H67313   0.644  12.022   4.050 -3.0322  0.8556 -2.2820
  488MOL0     H67314   0.486  12.195   4.002 -0.9529  0.5174 -0.5955
  488MOL0     H67315   0.596  12.312   4.094  0.4192 -0.3027  2.3481
  488MOL0     H67316   0.462  12.068   4.223  2.5618 -0.0026  1.1135
  488MOL0     H67317   0.535  12.211   4.305 -0.0002 -0.1800  0.0321
  488MOL0     H67318   0.285  12.186   4.313  2.7380 -0.0319  0.2842
  488MOL0     H67319   0.287  12.226   4.144 -0.6211 -1.6451  0.3013
  488MOL0     H67320   0.346  12.447   4.180 -0.2031  1.7414  1.2743
  488MOL0     H67321   0.435  12.428   4.328 -0.0958  2.7623 -0.5435
  488MOL0     H67322   0.123  12.394   4.313  0.3022  1.6903 -3.2154
  488MOL0     H67323   0.201  12.554   4.331  0.2136  0.8073  2.6812
  488MOL0     H67324   0.701  11.927   3.532 -1.2923 -0.3610  1.8505
  488MOL0     H67325   0.904  11.856   3.384  1.5317  1.0585 -0.2551
  488MOL0     H67326   1.230  12.027   3.125  1.2625  2.2888  0.1288
  488MOL0     H67327   1.391  11.976   2.953 -2.5692  0.4496  0.9724
  488MOL0     H67328   3.017  11.024   2.404  0.7743 -0.5292 -0.8705
  488MOL0     H67329   3.136  10.801   2.449 -1.3157  0.1143 -0.8291
  488MOL0     H67330   3.159  10.358   2.653  1.6828 -1.1260  1.6104
  488MOL0     H67331   3.280  10.171   2.661 -2.4715  2.9650  2.3233
  488MOL0     H67332   3.586  10.183   2.351 -0.0919 -1.9786 -1.1335
  488MOL0     H67333   3.624  10.078   2.493  0.0813 -0.8662  0.6095
  488MOL0     H67334   3.718   9.987   2.295 -1.0038 -0.1321  0.0532
  488MOL0     H67335   3.568   9.987   2.207 -1.2472 -2.7942 -0.7493
  488MOL0     H67336   3.625   9.851   2.473  1.5559  0.9513 -1.5061
  488MOL0     H67337   3.476   9.818   2.380 -1.1678  1.6463 -3.1471
  488MOL0     H67338   3.636   9.635   2.346 -2.0400  0.3549  0.6761
  488MOL0     H67339   3.747   9.763   2.276 -0.4871  2.0158  0.1215
  488MOL0     H67340   3.496   9.654   1.962 -1.5689 -1.2968  1.0086
  488MOL0     H67341   3.378  10.239   2.236 -0.0400  3.3635 -0.5066
  488MOL0     H67342   3.182  10.507   2.185 -0.9151 -0.2074 -0.6420
  488MOL0     H67343   3.339  10.565   2.245  1.3429 -0.7360  1.0526
  488MOL0     H67344   3.331  10.427   2.132  2.5175 -1.1189  1.8530
  489MOL0     O67345   5.882   9.726   8.198  0.4026 -0.1098  0.2887
  489MOL0     C67346   5.804   9.691   8.282 -0.1554  1.1393  0.2998
  489MOL0     O67347   5.706   9.600   8.266 -0.0404  0.3806  0.6524
  489MOL0     C67348   5.717   9.528   8.148  0.3453 -0.2628 -0.5129
  489MOL0     C67349   5.829   9.438   8.127  1.0743  0.2179 -0.5596
  489MOL0     C67350   5.821   9.354   8.011 -0.2670 -0.8085 -0.2312
  489MOL0     C67351   5.719   9.364   7.927  0.5785 -0.7497 -0.3438
  489MOL0     O67352   5.731   9.280   7.818  0.3372  0.2779  0.0705
  489MOL0     C67353   5.677   9.309   7.683 -0.4144  0.0050  0.2850
  489MOL0     C67354   5.761   9.236   7.576  0.9951  0.1987  0.9949
  489MOL0     C67355   5.711   9.255   7.436 -0.4222  0.1890  0.5903
  489MOL0     C67356   5.657   9.132   7.367  1.0105 -0.0044 -1.0406
  489MOL0     C67357   5.666   9.143   7.215  0.3310  0.3895 -1.1499
  489MOL0     C67358   5.538   9.097   7.142 -0.4898  0.3406  0.4939
  489MOL0     C67359   5.520   8.943   7.168  0.1085 -0.8968 -0.3957
  489MOL0     C67360   5.441   8.873   7.049  0.0932 -0.2062 -0.6526
  489MOL0     N67361   5.501   8.880   6.922 -0.3142  1.3291  0.7774
  489MOL0     C67362   5.623   8.835   6.886 -0.0238  0.7897 -0.2979
  489MOL0     C67363   5.640   8.861   6.762  0.1117 -0.0493  0.0774
  489MOL0     C67364   5.755   8.828   6.672  0.7982 -0.8637 -0.9034
  489MOL0     C67365   5.759   8.686   6.637  0.0056 -0.4777  1.3354
  489MOL0     C67366   5.810   8.663   6.496 -0.3214 -0.0415  0.7168
  489MOL0     C67367   5.813   8.518   6.454 -0.1506 -0.5717  0.3539
  489MOL0     O67368   5.684   8.476   6.440 -0.2523 -0.4910 -0.7813
  489MOL0     C67369   5.659   8.345   6.464  0.1883  1.2709  0.4841
  489MOL0     C67370   5.611   8.306   6.591  0.3200  1.3357 -0.3671
  489MOL0     C67371   5.596   8.171   6.628 -0.6625 -0.4835  0.3988
  489MOL0     C67372   5.524   8.144   6.754 -0.0410  0.6315 -0.1525
  489MOL0     C67373   5.624   8.067   6.526 -0.3831  0.8525 -0.1462
  489MOL0     C67374   5.616   7.928   6.556  0.5390 -0.1127  0.0392
  489MOL0     O67375   5.558   7.849   6.459 -0.1773  0.1224 -0.0009
  489MOL0     C67376   5.563   7.715   6.465  0.4443  0.2219 -0.5137
  489MOL0     C67377   5.451   7.644   6.512 -0.3070  0.8667  0.6399
  489MOL0     C67378   5.455   7.505   6.517 -0.0845  0.3093  0.3825
  489MOL0     C67379   5.561   7.431   6.471  0.2495  0.5513  1.2963
  489MOL0     O67380   5.580   7.294   6.490 -0.1342  0.2027  0.3596
  489MOL0     C67381   5.705   7.232   6.449  1.0577 -0.2668 -0.8090
  489MOL0     C67382   5.698   7.085   6.498  0.2031  0.3412 -0.8896
  489MOL0     C67383   5.583   7.020   6.413 -1.4094 -0.2648 -0.8174
  489MOL0     C67384   5.568   6.870   6.448  0.4143  0.3088 -0.6275
  489MOL0     C67385   5.460   6.795   6.372 -0.0621 -1.3217  0.5230
  489MOL0     C67386   5.420   6.646   6.419 -0.3119 -0.1240  1.0029
  489MOL0     C67387   5.358   6.649   6.560  0.3505  0.0883 -0.3740
  489MOL0     C67388   5.276   6.516   6.598 -0.9021  0.3351 -0.3028
  489MOL0    Cl67389   5.392   6.375   6.621 -0.0601  0.4545  0.3889
  489MOL0     C67390   5.664   7.501   6.409  0.0671 -0.3493 -0.5376
  489MOL0     C67391   5.672   7.640   6.423 -1.0640  0.4976  0.5594
  489MOL0     O67392   5.665   7.890   6.666  0.3388 -0.4600  0.0380
  489MOL0     C67393   5.674   8.106   6.401 -0.2235  0.6755  0.3488
  489MOL0     C67394   5.687   8.246   6.365  0.4833  1.0199 -0.4463
  489MOL0     N67395   5.534   8.936   6.716  0.9088  0.7602  0.4936
  489MOL0     N67396   5.444   8.947   6.811  0.8796 -0.0153  0.1269
  489MOL0     C67397   5.615   9.454   7.943  0.2189  0.8338 -0.0566
  489MOL0     C67398   5.614   9.535   8.055 -0.5792  0.0755  0.4707
  489MOL0     C67399   5.808   9.746   8.419 -0.0366  0.2242  0.2981
  489MOL0     C67400   5.724   9.689   8.522 -0.1581 -0.2440 -0.0553
  489MOL0     C67401   5.729   9.729   8.657 -0.3159  0.3050 -0.8552
  489MOL0     C67402   5.814   9.827   8.693  0.7511 -0.1424 -0.1590
  489MOL0     O67403   5.825   9.876   8.823 -0.4880  1.0986 -0.2343
  489MOL0     C67404   5.768   9.799   8.934 -0.1301 -0.1667  0.1820
  489MOL0     C67405   5.826   9.669   8.979 -0.2175  0.5502  0.2639
  489MOL0     C67406   5.737   9.590   9.086  0.4175 -1.0991 -0.3705
  489MOL0     C67407   5.809   9.450   9.087  0.9196 -0.7483 -0.3697
  489MOL0     C67408   5.759   9.361   9.195 -0.7537  0.1320 -0.2845
  489MOL0     C67409   5.719   9.300   9.287  0.3976  0.1856 -0.1303
  489MOL0     C67410   5.889   9.895   8.590  0.3759 -0.0410 -0.1712
  489MOL0     C67411   5.884   9.860   8.457  0.5174  0.0595 -0.4671
  489MOL0     C67412   5.952   9.955   8.366  0.5191  0.5471 -0.1586
  489MOL0     H67413   5.911   9.452   8.196 -0.0601  0.6785  0.7424
  489MOL0     H67414   5.900   9.280   8.008 -1.3072 -1.9873  0.4658
  489MOL0     H67415   5.687   9.418   7.670 -0.0928 -0.1943 -1.3398
  489MOL0     H67416   5.574   9.277   7.666  0.2533 -1.2743 -1.6811
  489MOL0     H67417   5.865   9.269   7.579  0.2374  2.9083  0.1583
  489MOL0     H67418   5.753   9.129   7.597 -1.4470  0.0484 -0.2853
  489MOL0     H67419   5.656   9.348   7.426  0.1977  0.6414  1.2446
  489MOL0     H67420   5.803   9.266   7.378  0.1262 -0.5675  1.2843
  489MOL0     H67421   5.707   9.040   7.398 -1.9539 -2.5069 -3.0090
  489MOL0     H67422   5.557   9.109   7.406  1.0345  1.3517 -0.1126
  489MOL0     H67423   5.759   9.099   7.177 -0.0489  0.6368 -2.4156
  489MOL0     H67424   5.678   9.247   7.182  1.7179 -0.1798 -2.5665
  489MOL0     H67425   5.451   9.161   7.156  0.2696  2.1943 -2.3453
  489MOL0     H67426   5.554   9.102   7.034 -1.5106 -3.6967 -0.0367
  489MOL0     H67427   5.467   8.924   7.261 -2.8813 -2.5857 -2.2582
  489MOL0     H67428   5.622   8.905   7.176  0.7358  0.9372  1.0332
  489MOL0     H67429   5.416   8.768   7.066  1.2194 -0.5065 -0.8170
  489MOL0     H67430   5.345   8.926   7.047 -0.3718 -0.8071  1.8699
  489MOL0     H67431   5.696   8.788   6.951  3.1631  2.1884 -2.5999
  489MOL0     H67432   5.850   8.855   6.720  1.8169 -1.6029 -2.4134
  489MOL0     H67433   5.751   8.897   6.587 -1.5631  0.4898  0.1997
  489MOL0     H67434   5.813   8.634   6.716  2.5104  1.7675  1.2235
  489MOL0     H67435   5.660   8.641   6.629 -0.5945  0.9198  0.5187
  489MOL0     H67436   5.752   8.734   6.436 -1.2229 -2.4243 -1.3985
  489MOL0     H67437   5.916   8.685   6.482  0.1070 -1.7845  1.0606
  489MOL0     H67438   5.871   8.516   6.361 -0.0613  3.5494  0.1432
  489MOL0     H67439   5.866   8.464   6.533 -0.0782 -0.5313  0.3335
  489MOL0     H67440   5.582   8.390   6.652  2.0045  1.6022  0.1229
  489MOL0     H67441   5.600   8.135   6.832  1.1048  2.3943 -1.0050
  489MOL0     H67442   5.474   8.046   6.752  1.2490 -0.0835  0.9806
  489MOL0     H67443   5.454   8.226   6.768 -2.0509 -0.7242 -1.7165
  489MOL0     H67444   5.371   7.706   6.550  0.4064  1.7832  0.6679
  489MOL0     H67445   5.385   7.446   6.575 -2.0025  2.9630  0.9770
  489MOL0     H67446   5.724   7.231   6.341  2.7443 -3.7494 -0.6255
  489MOL0     H67447   5.784   7.283   6.505 -0.5618  1.9030 -0.3962
  489MOL0     H67448   5.784   7.019   6.484 -0.7962 -1.1514 -0.2426
  489MOL0     H67449   5.682   7.080   6.606 -1.9886 -0.6484 -1.2019
  489MOL0     H67450   5.605   7.027   6.306 -1.8539 -2.0444 -1.0507
  489MOL0     H67451   5.490   7.072   6.438 -0.0983  0.7786  2.3480
  489MOL0     H67452   5.556   6.856   6.556  3.3859  1.2150 -0.0920
  489MOL0     H67453   5.662   6.820   6.423 -0.0607 -0.9753  0.0581
  489MOL0     H67454   5.370   6.854   6.390  0.2289 -0.3958 -0.8852
  489MOL0     H67455   5.473   6.794   6.263 -4.2254  0.2567 -0.1477
  489MOL0     H67456   5.510   6.584   6.425 -1.6534 -2.1413  1.3142
  489MOL0     H67457   5.348   6.615   6.343 -0.6343  1.7626  0.4928
  489MOL0     H67458   5.294   6.738   6.570 -1.9734 -1.5518  0.1534
  489MOL0     H67459   5.432   6.671   6.637 -0.4226 -0.2348  0.4785
  489MOL0     H67460   5.216   6.483   6.514  1.3816 -2.7751 -0.8651
  489MOL0     H67461   5.222   6.532   6.692  0.8548  0.3229  0.7754
  489MOL0     H67462   5.747   7.445   6.368 -1.6096 -3.8144  0.3656
  489MOL0     H67463   5.761   7.684   6.379 -3.1382 -0.0610 -5.0149
  489MOL0     H67464   5.710   8.023   6.341 -2.8252 -2.8356  3.2348
  489MOL0     H67465   5.742   8.272   6.275  0.0773 -2.7310 -1.9904
  489MOL0     H67466   5.549   9.471   7.859  1.0022  1.9024 -0.4794
  489MOL0     H67467   5.547   9.620   8.060  1.6611  2.4071 -3.4555
  489MOL0     H67468   5.660   9.605   8.494 -0.1661 -0.7187  1.3050
  489MOL0     H67469   5.658   9.676   8.721 -0.7949  0.4307 -1.2728
  489MOL0     H67470   5.768   9.862   9.023  3.0603  0.0656  0.1515
  489MOL0     H67471   5.665   9.773   8.909  0.9118 -3.8008 -0.9958
  489MOL0     H67472   5.923   9.696   9.021  0.9494 -0.0894 -1.8461
  489MOL0     H67473   5.834   9.609   8.887  1.4128  0.0486  0.6936
  489MOL0     H67474   5.746   9.630   9.187  3.4173 -3.7286  0.5868
  489MOL0     H67475   5.632   9.601   9.057  0.2512 -2.6543 -0.4393
  489MOL0     H67476   5.914   9.476   9.099  1.1273 -2.2585  1.6679
  489MOL0     H67477   5.793   9.393   8.995  1.8704 -1.3830 -0.1576
  489MOL0     H67478   5.674   9.253   9.372  1.2476 -2.4423 -1.0583
  489MOL0     H67479   5.953   9.977   8.620 -0.6826  1.3399 -1.5169
  489MOL0     H67480   5.901   9.961   8.269  3.5233  0.1829 -1.8680
  489MOL0     H67481   5.961  10.057   8.404  0.5521  0.9765 -1.2741
  489MOL0     H67482   6.046   9.903   8.346  0.1778 -1.2378  2.3523
  490MOL0     O67483   4.962   1.816   6.716  0.2975 -0.0865  0.3195
  490MOL0     C67484   4.985   1.731   6.630 -1.1358  0.3029 -0.0809
  490MOL0     O67485   4.894   1.648   6.566  1.0760  0.2359  0.2369
  490MOL0     C67486   4.764   1.639   6.606 -0.3364 -0.6056 -0.2298
  490MOL0     C67487   4.676   1.749   6.605  0.1135  0.4349  0.0912
  490MOL0     C67488   4.546   1.730   6.647 -0.2461 -0.0493  0.0861
  490MOL0     C67489   4.483   1.605   6.657 -1.1905  0.0887 -0.1733
  490MOL0     O67490   4.350   1.606   6.688 -0.2068 -0.1366  0.0687
  490MOL0     C67491   4.309   1.539   6.810  0.9898 -0.0109 -0.5635
  490MOL0     C67492   4.177   1.597   6.861 -0.8142 -0.0252  0.2693
  490MOL0     C67493   4.064   1.628   6.764  0.1680  0.4070  0.4675
  490MOL0     C67494   4.009   1.501   6.694 -0.6307 -0.5975 -0.0689
  490MOL0     C67495   3.919   1.538   6.576 -0.3729 -0.1230 -0.0404
  490MOL0     C67496   3.987   1.562   6.441  0.7865  0.4823  0.6825
  490MOL0     C67497   3.896   1.625   6.332 -0.7040  0.4330  0.8531
  490MOL0     C67498   3.777   1.540   6.284 -0.0528  0.5385  0.1414
  490MOL0     N67499   3.805   1.436   6.186  0.4758  0.3197  0.3487
  490MOL0     C67500   3.706   1.348   6.147  0.6394 -0.3992 -0.1939
  490MOL0     C67501   3.774   1.242   6.108 -0.0752 -0.6566  1.0505
  490MOL0     C67502   3.713   1.126   6.051 -0.4578 -0.8801  0.3223
  490MOL0     C67503   3.809   1.017   6.009  0.3605  0.3132  0.6430
  490MOL0     C67504   3.763   0.951   5.870  0.4263  1.1280  0.2934
  490MOL0     C67505   3.866   0.854   5.824 -0.3124  0.7665  0.4837
  490MOL0     O67506   3.986   0.913   5.771  0.2271 -0.0937 -0.5672
  490MOL0     C67507   3.970   0.969   5.648 -0.8324 -1.0805  0.4527
  490MOL0     C67508   3.993   0.903   5.524 -0.2298  0.2624  0.4702
  490MOL0     C67509   4.002   0.959   5.394 -0.0758 -0.5602  0.3921
  490MOL0     C67510   4.042   0.864   5.275  0.3033 -0.5333  0.3953
  490MOL0     C67511   3.968   1.099   5.392 -0.0003 -0.3330  0.5754
  490MOL0     C67512   3.965   1.182   5.264 -0.6324  0.4629  1.2072
  490MOL0     O67513   4.001   1.309   5.270 -0.3047 -0.4766  0.1836
  490MOL0     C67514   4.006   1.397   5.165 -0.5247  0.1072 -0.0209
  490MOL0     C67515   4.032   1.531   5.204 -0.1846 -0.6332  0.0581
  490MOL0     C67516   4.027   1.636   5.113  0.1722 -0.5356  0.3286
  490MOL0     C67517   4.011   1.608   4.974 -0.0062 -0.0784  0.8248
  490MOL0     O67518   4.039   1.690   4.869  0.6673  0.1929 -0.2826
  490MOL0     C67519   4.061   1.832   4.892 -0.0570  0.1076  0.8583
  490MOL0     C67520   4.032   1.912   4.762  0.7266 -0.1092 -0.6277
  490MOL0     C67521   4.028   2.062   4.784  0.3477  0.8567  0.1513
  490MOL0     C67522   4.027   2.149   4.647  1.0780 -0.0392  0.4311
  490MOL0     C67523   3.893   2.127   4.570  0.1832 -0.5423 -0.3764
  490MOL0     C67524   3.896   2.214   4.446 -0.3228 -0.0447  0.2050
  490MOL0     C67525   4.007   2.163   4.351  0.1565  0.0227  0.1100
  490MOL0     C67526   4.126   2.266   4.345  0.4400 -0.4597  0.6021
  490MOL0    Cl67527   4.059   2.415   4.263  0.2265 -0.3970  0.1175
  490MOL0     C67528   3.985   1.476   4.936  0.0909 -0.2089 -0.2225
  490MOL0     C67529   3.979   1.376   5.034 -0.2931 -0.1390 -0.3026
  490MOL0     O67530   3.940   1.119   5.165 -0.1525 -0.5622 -0.0758
  490MOL0     C67531   3.963   1.170   5.519  0.5134  0.3357 -0.1697
  490MOL0     C67532   3.957   1.105   5.645 -0.2537 -0.0240 -0.3600
  490MOL0     N67533   3.914   1.272   6.104  0.4501 -0.5952 -0.6851
  490MOL0     N67534   3.922   1.398   6.135 -0.5697  0.0691  0.1899
  490MOL0     C67535   4.566   1.494   6.657 -0.0980 -0.4956  0.5915
  490MOL0     C67536   4.704   1.514   6.626  0.5061 -0.6264  0.0560
  490MOL0     C67537   5.131   1.700   6.584 -0.5811 -0.3344 -0.2626
  490MOL0     C67538   5.160   1.571   6.540 -0.3257  0.1339 -0.6884
  490MOL0     C67539   5.283   1.542   6.481 -0.3911  0.0691  0.9374
  490MOL0     C67540   5.378   1.642   6.464  0.3440 -0.2607 -0.1530
  490MOL0     O67541   5.481   1.610   6.375 -0.7200 -0.5264 -0.0966
  490MOL0     C67542   5.602   1.694   6.347  0.5407 -0.3557 -1.4641
  490MOL0     C67543   5.607   1.723   6.195 -0.6675  0.1772 -0.9818
  490MOL0     C67544   5.742   1.774   6.159  0.4308  0.0941  0.6772
  490MOL0     C67545   5.764   1.771   6.003 -1.2050  0.0275 -0.9340
  490MOL0     C67546   5.903   1.769   5.967 -0.1558 -0.8199  0.4561
  490MOL0     C67547   6.014   1.762   5.926  0.9283  0.3945  0.1151
  490MOL0     C67548   5.355   1.770   6.528 -0.2748  0.0081  1.0719
  490MOL0     C67549   5.233   1.805   6.584 -0.1208  0.8730 -0.5641
  490MOL0     C67550   5.225   1.940   6.632  0.4483 -0.1960 -0.6634
  490MOL0     H67551   4.713   1.848   6.580 -0.0476  0.5580  0.3379
  490MOL0     H67552   4.483   1.818   6.660 -0.6298 -0.5790  2.1272
  490MOL0     H67553   4.389   1.556   6.883  1.3368  1.8035 -1.3050
  490MOL0     H67554   4.295   1.436   6.777 -0.9193 -0.8397  2.4305
  490MOL0     H67555   4.136   1.529   6.936 -1.1465 -1.7879 -1.4200
  490MOL0     H67556   4.200   1.686   6.919 -2.6411 -0.7805  2.2992
  490MOL0     H67557   3.984   1.676   6.822  0.6537  1.4754  0.2886
  490MOL0     H67558   4.103   1.693   6.685 -1.8541  0.1917 -0.7848
  490MOL0     H67559   4.075   1.416   6.671 -1.1895 -0.9305 -0.4854
  490MOL0     H67560   3.943   1.477   6.778 -1.1564  0.1200 -0.2710
  490MOL0     H67561   3.851   1.615   6.613 -0.6016 -1.5906  2.9088
  490MOL0     H67562   3.854   1.451   6.560 -1.6646  0.8923 -0.4613
  490MOL0     H67563   4.076   1.625   6.450  2.8135 -2.4145  2.1674
  490MOL0     H67564   4.017   1.467   6.397 -0.1512  0.8574 -0.9034
  490MOL0     H67565   3.954   1.653   6.243 -3.1355  0.4270 -0.8181
  490MOL0     H67566   3.845   1.715   6.368 -1.6929 -0.1228  0.8779
  490MOL0     H67567   3.741   1.489   6.373 -0.4126  0.0209 -0.2889
  490MOL0     H67568   3.696   1.601   6.242  2.5734  4.2714  0.0262
  490MOL0     H67569   3.600   1.366   6.160  0.6980 -0.8933  1.1350
  490MOL0     H67570   3.650   1.160   5.968  0.8061 -0.8313 -0.6583
  490MOL0     H67571   3.643   1.083   6.123  0.1164  1.2201  2.2615
  490MOL0     H67572   3.913   1.048   5.992  1.6189 -4.2238 -1.4061
  490MOL0     H67573   3.815   0.937   6.083  0.9865 -1.1482 -0.9238
  490MOL0     H67574   3.668   0.898   5.877  0.0092  1.8137 -0.1220
  490MOL0     H67575   3.749   1.037   5.804  1.7420  0.6554 -0.6477
  490MOL0     H67576   3.886   0.785   5.906 -0.2769  2.4962  1.9817
  490MOL0     H67577   3.828   0.786   5.747  2.1369 -0.9373  0.6601
  490MOL0     H67578   4.019   0.798   5.516  1.3061  0.7592 -2.1047
  490MOL0     H67579   4.137   0.817   5.303 -0.6836 -2.6977  0.2924
  490MOL0     H67580   4.057   0.914   5.179  2.7937 -0.8248  0.5503
  490MOL0     H67581   3.983   0.773   5.278  1.3790 -1.2591  0.0363
  490MOL0     H67582   4.056   1.557   5.307  1.4012  2.1968 -0.9212
  490MOL0     H67583   4.053   1.738   5.141 -1.7158 -0.3720  1.6436
  490MOL0     H67584   3.996   1.866   4.973  0.3905  1.5766  0.6331
  490MOL0     H67585   4.162   1.845   4.933  0.5523 -0.3760 -0.4363
  490MOL0     H67586   4.116   1.883   4.699  0.5612  3.4515 -2.7464
  490MOL0     H67587   3.940   1.880   4.712  0.8172 -0.0148 -0.8574
  490MOL0     H67588   4.121   2.089   4.835  2.0461 -2.3750 -0.9836
  490MOL0     H67589   3.932   2.089   4.830 -1.7798  0.5369 -3.7251
  490MOL0     H67590   4.112   2.097   4.601  0.5861 -0.4095 -0.0648
  490MOL0     H67591   4.040   2.250   4.687 -0.9650  0.5499 -0.2915
  490MOL0     H67592   3.884   2.021   4.545 -1.7836 -0.4675 -0.1356
  490MOL0     H67593   3.804   2.155   4.627  1.3698  1.9861  0.3753
  490MOL0     H67594   3.905   2.317   4.481  0.1783 -0.1749  0.4701
  490MOL0     H67595   3.803   2.202   4.389  1.0874 -1.3897 -1.9654
  490MOL0     H67596   3.973   2.151   4.248 -2.0899  2.1122  0.5257
  490MOL0     H67597   4.041   2.066   4.389 -3.1891 -1.3482 -0.0433
  490MOL0     H67598   4.203   2.241   4.272 -0.4453  1.8143 -1.2387
  490MOL0     H67599   4.169   2.270   4.446 -3.2058 -0.1459  2.3382
  490MOL0     H67600   3.992   1.450   4.831 -0.5519 -1.0305 -0.0708
  490MOL0     H67601   3.978   1.281   4.982  0.9531 -1.2296  1.5856
  490MOL0     H67602   3.932   1.274   5.522 -2.4255 -0.1107 -5.2920
  490MOL0     H67603   3.934   1.169   5.729 -3.2697 -1.4408  0.0484
  490MOL0     H67604   4.532   1.396   6.686 -5.1176  0.8539  0.1605
  490MOL0     H67605   4.768   1.427   6.615  1.7663  0.3909 -0.9130
  490MOL0     H67606   5.097   1.484   6.555  0.6848 -1.0461 -2.8376
  490MOL0     H67607   5.299   1.444   6.438 -0.7293 -0.0677  1.1180
  490MOL0     H67608   5.604   1.790   6.400 -5.3343 -1.5265  1.6802
  490MOL0     H67609   5.696   1.646   6.375  0.4076  1.2426  2.2311
  490MOL0     H67610   5.525   1.784   6.158 -1.1573  0.0587 -0.1065
  490MOL0     H67611   5.580   1.624   6.156 -1.7517 -0.1882  0.6028
  490MOL0     H67612   5.748   1.879   6.190 -0.8238  0.3320  0.1658
  490MOL0     H67613   5.820   1.722   6.215 -0.6344 -1.0582  1.1331
  490MOL0     H67614   5.712   1.861   5.970 -1.8710  0.5636  1.3745
  490MOL0     H67615   5.714   1.686   5.955  2.3375 -1.0774 -3.1305
  490MOL0     H67616   6.095   1.748   5.858 -0.5380 -0.3079 -1.5875
  490MOL0     H67617   5.428   1.850   6.525 -0.5704  0.5368  4.2771
  490MOL0     H67618   5.176   1.952   6.729  2.5852 -2.8479  0.8601
  490MOL0     H67619   5.321   1.993   6.633  0.0667  0.6023  2.0683
  490MOL0     H67620   5.169   1.990   6.552  1.8604  1.1408 -0.8693
  491MOL0     O67621  10.316  10.052   3.989 -1.2218 -0.0597 -0.6293
  491MOL0     C67622  10.293  10.165   3.938  0.1694 -0.3217 -0.5780
  491MOL0     O67623  10.393  10.249   3.881 -0.1661 -1.0679  0.3162
  491MOL0     C67624  10.519  10.195   3.887  0.2055  0.0490  0.8703
  491MOL0     C67625  10.606  10.215   3.988 -0.6185 -0.0775 -0.3415
  491MOL0     C67626  10.740  10.200   3.975  0.3632  0.6268  0.6420
  491MOL0     C67627  10.799  10.169   3.850  0.4710  0.6738  0.5393
  491MOL0     O67628  10.933  10.156   3.819 -0.0366  0.2455  0.0466
  491MOL0     C67629  11.032  10.242   3.898 -0.4110  0.1670  1.3586
  491MOL0     C67630  11.172  10.260   3.837  1.0001  0.3980  0.2694
  491MOL0     C67631  11.220  10.406   3.799 -0.6411  0.1385 -0.2039
  491MOL0     C67632  11.225  10.508   3.917 -0.2943 -0.1139  0.5568
  491MOL0     C67633  11.329  10.621   3.886 -0.3925 -0.7821 -0.0610
  491MOL0     C67634  11.473  10.575   3.907 -0.5744 -0.2758  0.7026
  491MOL0     C67635  11.572  10.690   3.917  0.6761 -0.0626  0.4369
  491MOL0     C67636  11.718  10.641   3.893 -0.9066  0.1833 -0.3234
  491MOL0     N67637  11.817  10.750   3.906 -0.1729 -0.4602  0.1918
  491MOL0     C67638  11.803  10.887   3.871  0.7721 -0.3465  0.4036
  491MOL0     C67639  11.904  10.948   3.936 -0.0858 -0.4224 -0.5056
  491MOL0     C67640  11.935  11.095   3.924  0.2072 -0.2349 -0.1857
  491MOL0     C67641  11.874  11.173   4.038  0.8762  0.3036 -0.4507
  491MOL0     C67642  11.915  11.317   4.058  0.0337  0.3746  0.6098
  491MOL0     C67643  11.906  11.410   3.936  0.3001 -0.5686 -0.2840
  491MOL0     O67644  11.937  11.544   3.986  0.6230  0.3474 -0.5408
  491MOL0     C67645  11.932  11.649   3.904 -0.4644  0.2223  0.8048
  491MOL0     C67646  11.919  11.637   3.765  0.1981 -0.3217  0.8329
  491MOL0     C67647  11.933  11.747   3.680 -1.1481 -0.1839  0.7432
  491MOL0     C67648  11.931  11.710   3.526 -0.5667 -0.2675  0.0570
  491MOL0     C67649  11.936  11.877   3.747 -0.4780  0.1980  0.2784
  491MOL0     C67650  11.912  12.000   3.668 -1.2259 -0.9875 -0.4052
  491MOL0     O67651  11.900  12.117   3.744 -0.2451 -0.2131 -0.8237
  491MOL0     C67652  11.845  12.233   3.702 -0.4514  0.0851 -0.3994
  491MOL0     C67653  11.852  12.354   3.780 -0.5201 -0.3936 -0.3679
  491MOL0     C67654  11.792  12.471   3.734  0.6823 -0.0388  0.0321
  491MOL0     C67655  11.722  12.477   3.613 -0.8424  0.6305 -0.0875
  491MOL0     O67656  11.651  12.593   3.586  0.0551 -0.0007  0.5520
  491MOL0     C67657  11.601  12.629   3.456 -0.5102  0.6887  0.7177
  491MOL0     C67658  11.495  12.752   3.457  0.0301 -0.5441  0.1663
  491MOL0     C67659  11.571  12.884   3.465 -0.3682  0.8015  0.0026
  491MOL0     C67660  11.476  13.009   3.472 -0.2946  0.4492  0.2270
  491MOL0     C67661  11.566  13.133   3.492  0.3024  0.1195 -0.4193
  491MOL0     C67662  11.474  13.242   3.529 -0.3560 -0.1057  0.7675
  491MOL0     C67663  11.540  13.377   3.536  0.5734 -0.6383 -0.8641
  491MOL0     C67664  11.450  13.466   3.614  0.2759  0.4662 -0.6298
  491MOL0    Cl67665  11.467  13.412   3.786  0.1033 -0.1803 -0.0953
  491MOL0     C67666  11.725  12.367   3.528 -0.1975 -0.3254 -0.4818
  491MOL0     C67667  11.792  12.254   3.570 -0.6457  0.1215 -0.2048
  491MOL0     O67668  11.917  11.998   3.548 -0.7116 -0.3088  0.2587
  491MOL0     C67669  11.955  11.882   3.881 -0.5744  0.5133  0.2549
  491MOL0     C67670  11.953  11.767   3.967 -0.5026 -0.4686 -0.1813
  491MOL0     N67671  11.959  10.852   4.021 -0.0175 -0.4461 -0.7760
  491MOL0     N67672  11.918  10.732   4.001 -0.2696 -0.4524 -0.2440
  491MOL0     C67673  10.710  10.151   3.745  1.3745  0.1248 -0.1779
  491MOL0     C67674  10.571  10.163   3.755  0.4525 -0.6058  0.3562
  491MOL0     C67675  10.153  10.231   3.948  0.7187  0.3170  1.0922
  491MOL0     C67676  10.147  10.368   3.902  0.0861 -0.3319 -0.1872
  491MOL0     C67677  10.023  10.424   3.895  0.5362 -0.2924 -0.9812
  491MOL0     C67678   9.904  10.362   3.931 -1.8138 -0.8991  0.1722
  491MOL0     O67679   9.798  10.445   3.933 -0.0333  0.5481 -0.1302
  491MOL0     C67680   9.667  10.402   3.987 -0.3119 -0.8253 -0.3660
  491MOL0     C67681   9.602  10.320   3.870 -0.5673  0.3109 -0.9701
  491MOL0     C67682   9.617  10.393   3.732 -0.0678  0.1123  0.3313
  491MOL0     C67683   9.547  10.531   3.738 -0.5483  0.1017 -0.6297
  491MOL0     C67684   9.544  10.580   3.599 -0.5827  0.1714 -0.5920
  491MOL0     C67685   9.540  10.604   3.479  0.2895 -0.6531  0.2905
  491MOL0     C67686   9.911  10.225   3.980 -0.1796 -0.1336  0.6899
  491MOL0     C67687  10.035  10.158   3.979  0.1944 -0.6554 -0.8001
  491MOL0     C67688  10.033  10.021   4.045 -0.7555 -0.6989  0.5869
  491MOL0     H67689  10.560  10.245   4.082 -2.8820 -1.7945 -0.7991
  491MOL0     H67690  10.796  10.212   4.067 -0.1353  2.4592  0.7487
  491MOL0     H67691  11.047  10.182   3.988 -0.4100 -2.0828 -0.0450
  491MOL0     H67692  10.988  10.339   3.923  2.8474  1.6719  1.7472
  491MOL0     H67693  11.251  10.216   3.899  1.9443 -0.3649 -1.3930
  491MOL0     H67694  11.176  10.204   3.743  1.7620  4.6448 -2.5435
  491MOL0     H67695  11.321  10.401   3.756 -0.5435 -2.1793  0.1908
  491MOL0     H67696  11.154  10.454   3.726  0.7583  1.2732 -0.7862
  491MOL0     H67697  11.121  10.542   3.926 -0.5551 -0.9876  1.0338
  491MOL0     H67698  11.262  10.448   4.001  4.2855 -2.0012 -2.4414
  491MOL0     H67699  11.316  10.705   3.955  0.3094 -0.7433  0.0314
  491MOL0     H67700  11.322  10.659   3.783  1.9076 -0.3285 -0.1049
  491MOL0     H67701  11.480  10.511   3.996 -0.6915  0.9100  1.5915
  491MOL0     H67702  11.495  10.514   3.820  0.0612 -1.3327  1.5799
  491MOL0     H67703  11.562  10.744   4.011 -3.6890 -3.6775  2.4101
  491MOL0     H67704  11.537  10.755   3.837 -0.9885 -0.3575  0.8935
  491MOL0     H67705  11.747  10.557   3.958 -2.6483 -1.1989 -1.2608
  491MOL0     H67706  11.726  10.597   3.793  0.0953  0.0915 -0.2128
  491MOL0     H67707  11.733  10.927   3.799  2.2234  0.2858 -0.6914
  491MOL0     H67708  11.888  11.122   3.829 -2.0519 -2.0000  0.3497
  491MOL0     H67709  12.041  11.113   3.944 -0.2485  0.3342  1.9904
  491MOL0     H67710  11.766  11.170   4.026  0.6052  0.4014  1.5883
  491MOL0     H67711  11.895  11.117   4.130  1.2887 -3.9891 -2.9160
  491MOL0     H67712  11.850  11.356   4.136  0.0689  1.3115  0.1811
  491MOL0     H67713  12.016  11.316   4.102  0.7751  0.7559 -0.9962
  491MOL0     H67714  11.984  11.373   3.869 -0.1793 -0.8023 -0.7247
  491MOL0     H67715  11.805  11.396   3.894 -0.5185 -0.2902  1.4999
  491MOL0     H67716  11.915  11.546   3.707 -4.3761 -0.6645  1.3141
  491MOL0     H67717  11.830  11.715   3.485 -0.1935  1.1974 -0.7387
  491MOL0     H67718  11.961  11.608   3.502 -0.5651 -0.2331 -0.0839
  491MOL0     H67719  12.007  11.773   3.479  0.7719 -0.5243  1.7769
  491MOL0     H67720  11.896  12.356   3.879 -4.8827  2.4016  1.7815
  491MOL0     H67721  11.807  12.558   3.798  1.7558 -0.2181  0.0436
  491MOL0     H67722  11.690  12.653   3.396 -1.1904  1.8850  0.1506
  491MOL0     H67723  11.550  12.542   3.414 -0.0727  0.3296  0.9216
  491MOL0     H67724  11.435  12.760   3.366 -2.4709  0.9846  1.8456
  491MOL0     H67725  11.428  12.742   3.543 -0.0964 -2.2950 -0.0863
  491MOL0     H67726  11.646  12.889   3.386 -0.0261  0.7503  0.3212
  491MOL0     H67727  11.626  12.886   3.560  0.5627 -2.9366 -0.2875
  491MOL0     H67728  11.422  12.993   3.565  3.7786 -0.0892  2.7440
  491MOL0     H67729  11.413  13.017   3.383 -0.9595  1.1392  0.7481
  491MOL0     H67730  11.640  13.103   3.566 -0.1360 -1.6431 -0.6481
  491MOL0     H67731  11.602  13.153   3.390  5.0609 -2.8547  0.3604
  491MOL0     H67732  11.416  13.207   3.615 -0.2442 -2.7425 -0.1481
  491MOL0     H67733  11.407  13.248   3.443 -0.0857 -3.6678  0.1716
  491MOL0     H67734  11.565  13.416   3.437 -0.1472  1.6904 -0.1833
  491MOL0     H67735  11.635  13.386   3.591  0.0500  4.4150 -0.2742
  491MOL0     H67736  11.347  13.460   3.578  0.1395 -0.9014 -0.0761
  491MOL0     H67737  11.481  13.570   3.601 -2.6901  1.2357 -2.6800
  491MOL0     H67738  11.677  12.364   3.430 -1.0507  5.5349 -0.6243
  491MOL0     H67739  11.780  12.167   3.505 -0.1256 -0.1997  0.1164
  491MOL0     H67740  11.979  11.981   3.921 -0.8643  0.3638  0.8014
  491MOL0     H67741  11.949  11.774   4.075  0.6132 -2.1528  0.0112
  491MOL0     H67742  10.745  10.145   3.642  0.0165 -1.6743 -0.5875
  491MOL0     H67743  10.498  10.175   3.676 -1.6531  2.2862  2.5495
  491MOL0     H67744  10.230  10.433   3.876 -0.6569  0.2164 -1.2579
  491MOL0     H67745  10.010  10.526   3.860 -1.8384 -0.2244 -0.0603
  491MOL0     H67746   9.675  10.340   4.077  0.2141 -0.2988 -0.0462
  491MOL0     H67747   9.599  10.485   4.008 -0.1087 -1.0008  1.0615
  491MOL0     H67748   9.500  10.291   3.897 -0.1903  1.7790  2.5556
  491MOL0     H67749   9.662  10.230   3.852  0.1687  0.8608 -1.3226
  491MOL0     H67750   9.720  10.406   3.697  0.2951 -4.0194 -0.6702
  491MOL0     H67751   9.567  10.332   3.657  1.6776 -0.8537 -0.0934
  491MOL0     H67752   9.606  10.605   3.794 -0.4596  0.1064 -0.7280
  491MOL0     H67753   9.447  10.531   3.781 -1.6082 -1.2988 -2.9510
  491MOL0     H67754   9.524  10.618   3.374 -0.2730 -3.1997 -0.0418
  491MOL0     H67755   9.830  10.162   4.014  1.0287 -1.8358  0.5461
  491MOL0     H67756  10.063   9.937   3.981 -2.8317 -1.1988  0.1912
  491MOL0     H67757  10.106  10.022   4.126  0.2979  1.9370 -0.2810
  491MOL0     H67758   9.932   9.990   4.077 -1.1503 -0.5547 -0.4889
  492MOL0     O67759   4.108   5.793   9.492 -0.7363 -0.0037  0.9237
  492MOL0     C67760   4.152   5.901   9.443 -0.4454 -0.3173 -0.9312
  492MOL0     O67761   4.275   5.952   9.470 -1.0593 -0.8589 -0.1410
  492MOL0     C67762   4.357   5.853   9.518 -0.1732 -0.2983 -0.9353
  492MOL0     C67763   4.387   5.740   9.443 -0.5132 -0.0849  0.5294
  492MOL0     C67764   4.470   5.639   9.495 -0.2684  0.6754  0.9055
  492MOL0     C67765   4.516   5.634   9.628 -0.6189 -0.6265  0.6863
  492MOL0     O67766   4.592   5.531   9.682  0.3548 -0.2459  0.1184
  492MOL0     C67767   4.571   5.403   9.629 -0.1188 -0.3788 -0.3010
  492MOL0     C67768   4.658   5.297   9.683  0.2176  0.4362 -0.4423
  492MOL0     C67769   4.679   5.174   9.590 -0.2846 -1.0727 -0.1020
  492MOL0     C67770   4.757   5.070   9.667  0.0189 -0.2367 -0.5592
  492MOL0     C67771   4.674   4.971   9.747  0.4974 -0.5500 -0.0808
  492MOL0     C67772   4.734   4.839   9.779  0.1528  0.5732 -0.6725
  492MOL0     C67773   4.649   4.775   9.890 -0.0421 -0.7046  0.3673
  492MOL0     C67774   4.661   4.621   9.887  0.1295 -0.5772  0.3805
  492MOL0     N67775   4.803   4.585   9.895 -0.2616  0.1210  0.1735
  492MOL0     C67776   4.882   4.610  10.003  0.3603  0.6910 -0.2389
  492MOL0     C67777   5.006   4.577   9.962 -0.5077 -0.3124 -0.2001
  492MOL0     C67778   5.132   4.597  10.048  0.8289 -0.1910  1.1157
  492MOL0     C67779   5.218   4.478  10.064 -0.4240 -0.0817  0.2965
  492MOL0     C67780   5.334   4.477   9.960  0.5898  1.2406 -0.5390
  492MOL0     C67781   5.403   4.345   9.976 -0.2492  1.1916 -0.3130
  492MOL0     O67782   5.484   4.350  10.098 -0.6698  0.1402 -0.1931
  492MOL0     C67783   5.624   4.325  10.089 -0.5289  0.7356  0.1834
  492MOL0     C67784   5.691   4.336  10.216 -0.0126  0.7643 -0.0110
  492MOL0     C67785   5.822   4.309  10.230 -0.1855  0.4124 -0.0068
  492MOL0     C67786   5.888   4.328  10.362 -0.5215 -0.6964 -0.4958
  492MOL0     C67787   5.891   4.255  10.115  0.2812 -0.6943  0.2088
  492MOL0     C67788   6.031   4.213  10.122  0.2977 -0.7724 -0.7481
  492MOL0     O67789   6.078   4.147  10.008  0.1474  0.1290  0.8952
  492MOL0     C67790   6.199   4.086  10.026  0.7746  0.9755  0.5520
  492MOL0     C67791   6.312   4.147   9.968  1.0768  0.1073  0.0395
  492MOL0     C67792   6.442   4.089   9.966  0.6332  0.1056 -0.4711
  492MOL0     C67793   6.455   3.955  10.003  0.7215 -0.2186  0.5676
  492MOL0     O67794   6.570   3.887   9.984 -0.7688  1.3404  0.6160
  492MOL0     C67795   6.695   3.924  10.028 -1.3817 -0.1712  0.0673
  492MOL0     C67796   6.797   3.812  10.004 -0.2621  0.2627  0.7022
  492MOL0     C67797   6.747   3.675  10.052 -0.1657  0.4592  0.2344
  492MOL0     C67798   6.847   3.575  10.111  0.0305 -0.6698 -0.5398
  492MOL0     C67799   6.915   3.484  10.013 -0.0987  0.3151  0.0253
  492MOL0     C67800   7.041   3.404  10.051  1.9363  0.2374 -0.8566
  492MOL0     C67801   7.079   3.320   9.929 -0.2447 -0.5026  0.8277
  492MOL0     C67802   7.207   3.240   9.952  0.5327 -0.3534 -0.1285
  492MOL0    Cl67803   7.345   3.333  10.033  0.3863 -0.1049  0.6780
  492MOL0     C67804   6.340   3.889  10.067 -0.2412  0.5207 -0.6434
  492MOL0     C67805   6.211   3.956  10.081  0.9871 -0.6810 -0.4138
  492MOL0     O67806   6.110   4.231  10.214  0.5942 -0.3333  0.1659
  492MOL0     C67807   5.833   4.264   9.990  0.2933 -0.2608 -0.0115
  492MOL0     C67808   5.696   4.298   9.973 -0.0360 -0.3128  0.1931
  492MOL0     N67809   5.001   4.537   9.830  0.6635 -0.5209 -0.4439
  492MOL0     N67810   4.883   4.545   9.794  0.3333  0.1012 -0.1458
  492MOL0     C67811   4.483   5.744   9.703  1.1256  0.3315 -0.6051
  492MOL0     C67812   4.410   5.858   9.651 -0.1459 -0.4755 -0.0088
  492MOL0     C67813   4.074   5.988   9.360  0.0780 -0.3565  0.7881
  492MOL0     C67814   4.139   6.090   9.287  0.3508 -1.1143 -0.9095
  492MOL0     C67815   4.067   6.178   9.207 -0.6751 -0.1207  0.4437
  492MOL0     C67816   3.936   6.157   9.191 -0.5609 -0.1535 -0.6581
  492MOL0     O67817   3.877   6.245   9.103  0.3166  0.0603 -0.0614
  492MOL0     C67818   3.735   6.246   9.087 -0.8689 -0.8685 -0.3202
  492MOL0     C67819   3.685   6.132   9.004 -0.6109  0.3062  0.4984
  492MOL0     C67820   3.533   6.136   8.991  0.1025 -0.3192  1.0759
  492MOL0     C67821   3.485   6.249   8.895 -0.5365 -0.5585 -0.6318
  492MOL0     C67822   3.335   6.237   8.865 -0.2552 -0.0002 -0.4553
  492MOL0     C67823   3.218   6.235   8.836  0.6661  0.0477 -0.7936
  492MOL0     C67824   3.866   6.052   9.262 -0.4688  0.4320 -0.2956
  492MOL0     C67825   3.934   5.970   9.348  0.7321 -0.1724 -0.0056
  492MOL0     C67826   3.848   5.868   9.427  0.9669 -0.3895  0.9098
  492MOL0     H67827   4.356   5.708   9.344 -1.5729 -0.4090  0.9411
  492MOL0     H67828   4.485   5.555   9.428 -4.6317  2.2682 -2.6258
  492MOL0     H67829   4.599   5.404   9.523  0.4072  1.3416 -0.1869
  492MOL0     H67830   4.471   5.363   9.648  0.9048 -2.1272  1.8051
  492MOL0     H67831   4.756   5.340   9.703  0.5350 -0.1413 -0.7439
  492MOL0     H67832   4.613   5.277   9.781 -1.1797  2.3873 -0.6304
  492MOL0     H67833   4.581   5.139   9.558 -0.4267 -0.1759 -0.6807
  492MOL0     H67834   4.750   5.201   9.512 -2.6734  0.1055 -1.9699
  492MOL0     H67835   4.812   5.009   9.595  1.7706 -1.6897  1.8625
  492MOL0     H67836   4.832   5.119   9.728  2.3139 -0.0890 -3.3022
  492MOL0     H67837   4.586   4.956   9.683  0.6289 -0.1057 -0.3728
  492MOL0     H67838   4.642   5.026   9.836  0.3753 -2.6795  1.2556
  492MOL0     H67839   4.753   4.773   9.694 -0.9367 -1.8085  0.8341
  492MOL0     H67840   4.838   4.851   9.813  0.9892 -0.3069 -2.7435
  492MOL0     H67841   4.545   4.806   9.877  0.8388  1.4470 -2.8434
  492MOL0     H67842   4.684   4.819   9.984  1.5980 -2.1796  0.4979
  492MOL0     H67843   4.608   4.584   9.975  0.5452  0.7365  1.2095
  492MOL0     H67844   4.604   4.583   9.801 -0.8886  1.6879 -0.0206
  492MOL0     H67845   4.852   4.624  10.107 -1.8594 -4.0043  0.0087
  492MOL0     H67846   5.093   4.621  10.147  3.2200  0.9786  1.8551
  492MOL0     H67847   5.188   4.682  10.005  1.0804 -0.2645  1.3005
  492MOL0     H67848   5.260   4.482  10.165 -1.0770 -4.3828  0.9254
  492MOL0     H67849   5.163   4.384  10.055 -1.5721  0.1419  3.4857
  492MOL0     H67850   5.286   4.481   9.861  0.6725 -1.2968 -0.7430
  492MOL0     H67851   5.406   4.557   9.978  2.4201 -0.2758 -0.8467
  492MOL0     H67852   5.331   4.263   9.971 -1.4492  2.0233  2.1047
  492MOL0     H67853   5.467   4.331   9.888  4.3519 -0.2992  2.8750
  492MOL0     H67854   5.637   4.363  10.306 -0.0652 -1.1543  0.5917
  492MOL0     H67855   5.952   4.415  10.344 -1.8429  0.6795  1.1043
  492MOL0     H67856   5.958   4.245  10.373  0.6928  0.5243  1.3561
  492MOL0     H67857   5.818   4.332  10.446  0.3913 -0.5013  0.2752
  492MOL0     H67858   6.283   4.248   9.940 -0.3661  0.1265  1.4466
  492MOL0     H67859   6.525   4.149   9.930 -1.4318  4.4661  1.3001
  492MOL0     H67860   6.726   4.011   9.969 -0.2277  1.6743  3.2013
  492MOL0     H67861   6.681   3.953  10.132 -2.2258  1.3564 -0.4356
  492MOL0     H67862   6.800   3.809   9.894  0.6004 -0.0517  0.7206
  492MOL0     H67863   6.887   3.846  10.055  0.2174 -0.7115  0.5444
  492MOL0     H67864   6.704   3.613   9.973 -0.4582  0.2778  0.5328
  492MOL0     H67865   6.680   3.671  10.139  1.2038 -2.2423  1.2790
  492MOL0     H67866   6.807   3.504  10.184  1.4143  0.7100  1.6772
  492MOL0     H67867   6.917   3.627  10.178  1.8458 -1.4495 -1.7544
  492MOL0     H67868   6.839   3.416   9.974  0.2757 -1.0577  1.5712
  492MOL0     H67869   6.949   3.544   9.928 -2.1404  1.3741 -0.0961
  492MOL0     H67870   7.024   3.329  10.129 -1.3681 -0.6037 -2.1861
  492MOL0     H67871   7.132   3.461  10.071  1.9865 -0.0549 -0.2109
  492MOL0     H67872   7.093   3.399   9.855 -0.2719 -1.7688 -0.5756
  492MOL0     H67873   6.998   3.250   9.904  0.2513 -0.3564 -1.3837
  492MOL0     H67874   7.234   3.217   9.849 -0.3502  1.6639 -0.8587
  492MOL0     H67875   7.177   3.148  10.004  1.0918  1.0138  2.8077
  492MOL0     H67876   6.362   3.790  10.108  1.1390  1.1217  0.1281
  492MOL0     H67877   6.120   3.927  10.132  1.7080  0.6741  1.7838
  492MOL0     H67878   5.888   4.239   9.899  0.1567  0.8549 -0.4284
  492MOL0     H67879   5.663   4.292   9.870 -0.7780  0.6325  0.3673
  492MOL0     H67880   4.527   5.743   9.803  0.5189  1.7232 -0.3017
  492MOL0     H67881   4.379   5.948   9.703  2.6092 -0.6016  2.0608
  492MOL0     H67882   4.242   6.116   9.304 -0.4931  1.5444  0.7248
  492MOL0     H67883   4.115   6.252   9.143 -2.2331  0.7153  0.1938
  492MOL0     H67884   3.684   6.247   9.184 -1.5247 -1.8954 -0.6349
  492MOL0     H67885   3.697   6.337   9.041 -0.3944 -0.2320  0.5269
  492MOL0     H67886   3.716   6.036   9.048  0.4073  0.0859 -0.6633
  492MOL0     H67887   3.739   6.148   8.911 -1.5046 -0.5404 -0.1829
  492MOL0     H67888   3.489   6.051   8.937  1.7720 -0.0736 -0.8089
  492MOL0     H67889   3.481   6.153   9.086 -0.2145  3.0854  0.4095
  492MOL0     H67890   3.548   6.258   8.806  1.6553  0.1353  0.8984
  492MOL0     H67891   3.499   6.351   8.933 -3.3430  0.2079 -1.3631
  492MOL0     H67892   3.113   6.249   8.824  0.2655 -0.9293  1.1480
  492MOL0     H67893   3.758   6.040   9.253 -0.3889 -1.1511  0.4989
  492MOL0     H67894   3.741   5.886   9.413  1.1805 -0.8637 -1.9968
  492MOL0     H67895   3.867   5.764   9.401 -1.8512 -0.3208 -1.9294
  492MOL0     H67896   3.876   5.877   9.533 -0.8411 -0.3319  1.4121
  493MOL0     O67897   8.744   6.084   4.274  0.7449 -0.3284 -0.0725
  493MOL0     C67898   8.695   6.171   4.345 -0.4244 -0.4005  0.1982
  493MOL0     O67899   8.767   6.253   4.422  0.0345  0.5125  0.2288
  493MOL0     C67900   8.896   6.235   4.455  0.4607  0.2242  0.1529
  493MOL0     C67901   8.972   6.356   4.470  0.1415 -0.0932  1.0988
  493MOL0     C67902   9.109   6.355   4.496 -0.6269  1.2157  0.4065
  493MOL0     C67903   9.172   6.225   4.487 -0.4208 -0.2659  0.7521
  493MOL0     O67904   9.301   6.208   4.495 -0.0602  0.7757 -0.3141
  493MOL0     C67905   9.386   6.300   4.578 -0.2395  0.1340 -0.7874
  493MOL0     C67906   9.359   6.283   4.727 -0.2822 -0.2179 -0.0530
  493MOL0     C67907   9.456   6.347   4.821 -0.2336 -1.0210  0.3557
  493MOL0     C67908   9.419   6.314   4.963  0.9588  0.4795  0.4841
  493MOL0     C67909   9.490   6.197   5.022 -0.1901  1.0118 -0.5524
  493MOL0     C67910   9.589   6.234   5.144 -0.1737  0.4474  0.0057
  493MOL0     C67911   9.732   6.265   5.104 -0.9812  0.0400  0.8270
  493MOL0     C67912   9.812   6.283   5.235  0.2955  0.4329  0.1028
  493MOL0     N67913   9.951   6.330   5.207  0.2733 -0.7905 -0.7411
  493MOL0     C67914  10.023   6.415   5.291  0.2145  0.3215  0.0486
  493MOL0     C67915  10.148   6.418   5.229 -0.0646 -0.3840 -0.7554
  493MOL0     C67916  10.257   6.511   5.280 -0.1869  0.3340 -0.6860
  493MOL0     C67917  10.383   6.499   5.202 -0.4017 -0.1533 -1.0398
  493MOL0     C67918  10.483   6.617   5.236  0.5850  0.8028 -0.1887
  493MOL0     C67919  10.612   6.617   5.153  0.4539  1.1126  0.3457
  493MOL0     O67920  10.677   6.492   5.155  0.2797 -1.0942 -0.2393
  493MOL0     C67921  10.732   6.477   5.026  0.2460 -0.9423 -0.5795
  493MOL0     C67922  10.867   6.516   5.010 -0.0807 -0.4125 -0.2462
  493MOL0     C67923  10.935   6.495   4.887  1.1969 -0.8990 -0.6147
  493MOL0     C67924  11.082   6.526   4.882  0.0038  0.0700 -0.9200
  493MOL0     C67925  10.862   6.448   4.773 -0.5895  0.2159  0.1511
  493MOL0     C67926  10.936   6.412   4.636  0.3632  0.3552  0.4620
  493MOL0     O67927  10.873   6.336   4.547  0.1040 -0.2543  0.3764
  493MOL0     C67928  10.943   6.249   4.468 -0.7508 -0.2990  0.7177
  493MOL0     C67929  10.940   6.111   4.488 -0.2041  0.3356 -0.3582
  493MOL0     C67930  11.009   6.026   4.400 -0.1414 -1.1250 -0.3361
  493MOL0     C67931  11.088   6.082   4.301 -0.9103  0.9413 -0.0117
  493MOL0     O67932  11.168   6.010   4.215  0.1646  0.6116 -0.5511
  493MOL0     C67933  11.250   5.904   4.278 -0.3606  0.2715 -0.6603
  493MOL0     C67934  11.339   5.963   4.392  0.4402 -0.5641 -0.2503
  493MOL0     C67935  11.433   6.066   4.322 -0.2715  0.9178  0.4752
  493MOL0     C67936  11.542   6.134   4.419  0.0313 -0.6901  0.1588
  493MOL0     C67937  11.480   6.237   4.520 -0.2267  0.3318  0.4467
  493MOL0     C67938  11.458   6.168   4.655  0.4086 -0.1314 -0.2045
  493MOL0     C67939  11.411   6.264   4.764  0.0499 -0.7406 -0.3391
  493MOL0     C67940  11.410   6.203   4.900  0.6014 -0.2199  0.3050
  493MOL0    Cl67941  11.277   6.269   4.996  0.0446 -0.3229  0.4020
  493MOL0     C67942  11.093   6.224   4.285 -0.4895 -0.4469 -0.0660
  493MOL0     C67943  11.023   6.311   4.370 -0.2967 -0.0672  0.8153
  493MOL0     O67944  11.041   6.465   4.607 -0.0060 -0.2345 -0.4355
  493MOL0     C67945  10.729   6.416   4.791 -0.0747  0.7415 -0.3728
  493MOL0     C67946  10.665   6.429   4.918  0.0918 -0.0200  0.3432
  493MOL0     N67947  10.151   6.322   5.129 -0.7493 -0.5914 -0.1058
  493MOL0     N67948  10.029   6.274   5.109 -0.5832 -0.1422  0.2073
  493MOL0     C67949   9.095   6.106   4.478  0.1378 -0.5265  0.0479
  493MOL0     C67950   8.959   6.106   4.464  0.7887 -0.7519 -0.3412
  493MOL0     C67951   8.547   6.210   4.345  0.3648  0.0278  0.0775
  493MOL0     C67952   8.502   6.302   4.443 -0.1937  0.7758 -0.5999
  493MOL0     C67953   8.368   6.342   4.449  0.1305 -0.7913 -1.1795
  493MOL0     C67954   8.279   6.308   4.349  0.6431  0.1220  0.2972
  493MOL0     O67955   8.153   6.368   4.330  0.1574 -0.3810  0.7375
  493MOL0     C67956   8.134   6.496   4.397 -0.1592  0.6993  0.0127
  493MOL0     C67957   8.000   6.563   4.361  0.9288  0.4082 -0.4747
  493MOL0     C67958   7.978   6.706   4.412 -0.5026  0.2143 -0.3415
  493MOL0     C67959   7.964   6.734   4.567 -0.0561 -0.2096  0.0816
  493MOL0     C67960   8.019   6.860   4.610  0.5458 -0.7138  0.1151
  493MOL0     C67961   8.077   6.965   4.635 -0.5961  0.5952 -0.3507
  493MOL0     C67962   8.324   6.219   4.248  0.0826 -0.6551 -0.7693
  493MOL0     C67963   8.456   6.171   4.243 -0.2899  0.4255 -0.3998
  493MOL0     C67964   8.500   6.103   4.111  0.8534  0.4042 -0.1590
  493MOL0     H67965   8.929   6.455   4.474  0.5578  0.2158 -0.9638
  493MOL0     H67966   9.172   6.444   4.493 -0.1772  0.8883 -0.0048
  493MOL0     H67967   9.377   6.404   4.545  0.0204  0.6759  0.7297
  493MOL0     H67968   9.491   6.277   4.563  1.2980  3.5252  2.9076
  493MOL0     H67969   9.261   6.326   4.745 -0.5086 -1.7286  3.0269
  493MOL0     H67970   9.362   6.176   4.749 -2.8665 -0.0789  1.2819
  493MOL0     H67971   9.560   6.317   4.804  1.0799  2.1699  1.8698
  493MOL0     H67972   9.457   6.456   4.811  1.8663 -1.1347 -1.4825
  493MOL0     H67973   9.467   6.397   5.016  0.6874  0.4854  0.7189
  493MOL0     H67974   9.311   6.311   4.979  0.3791 -4.9211 -2.1454
  493MOL0     H67975   9.555   6.142   4.952  2.9590  2.2645  1.1537
  493MOL0     H67976   9.418   6.120   5.049  0.1202  0.9057 -0.0052
  493MOL0     H67977   9.551   6.318   5.202 -0.5958 -0.3418  0.9036
  493MOL0     H67978   9.593   6.147   5.210 -2.9214 -0.7126 -1.1972
  493MOL0     H67979   9.733   6.356   5.043  1.1661 -0.1633  0.4855
  493MOL0     H67980   9.775   6.189   5.038  1.5911  0.4303  1.9219
  493MOL0     H67981   9.750   6.343   5.302 -3.1876 -1.1589 -1.4452
  493MOL0     H67982   9.820   6.187   5.286 -1.3945  1.5803  2.7219
  493MOL0     H67983  10.001   6.474   5.380  3.4340  1.4759  0.2102
  493MOL0     H67984  10.275   6.485   5.385  0.5667  1.5687 -0.4915
  493MOL0     H67985  10.225   6.616   5.276  1.3716  0.9991  1.8090
  493MOL0     H67986  10.428   6.401   5.221  0.1166 -0.4736 -3.5883
  493MOL0     H67987  10.378   6.491   5.093  1.4786  2.6297 -1.4401
  493MOL0     H67988  10.425   6.708   5.227  0.1181  0.2778 -4.2306
  493MOL0     H67989  10.509   6.592   5.339  1.9154 -1.5930 -1.0117
  493MOL0     H67990  10.587   6.654   5.054  2.2301 -0.1365 -0.6221
  493MOL0     H67991  10.673   6.694   5.201  1.9158  0.0355  0.2761
  493MOL0     H67992  10.918   6.558   5.096  1.9711  1.7426 -2.3430
  493MOL0     H67993  11.146   6.445   4.846  0.1163  0.3616 -1.3978
  493MOL0     H67994  11.121   6.547   4.982 -1.5077  0.0319 -0.3037
  493MOL0     H67995  11.100   6.611   4.814 -4.0785 -0.5248 -3.0873
  493MOL0     H67996  10.884   6.063   4.568 -1.3697  2.9156  0.4861
  493MOL0     H67997  11.000   5.919   4.418  2.5060 -1.2590  0.6210
  493MOL0     H67998  11.175   5.830   4.307  1.8686 -1.8765 -0.0607
  493MOL0     H67999  11.314   5.861   4.200  0.6123 -0.9751  0.7804
  493MOL0     H68000  11.281   6.016   4.468  1.0111  0.3683 -0.4544
  493MOL0     H68001  11.401   5.880   4.427  0.9118 -0.4167 -0.7218
  493MOL0     H68002  11.366   6.143   4.284 -2.3738 -1.9392 -2.1632
  493MOL0     H68003  11.476   6.024   4.230 -0.2210  3.0103 -0.5187
  493MOL0     H68004  11.610   6.185   4.350 -0.6947 -0.8520 -0.6832
  493MOL0     H68005  11.585   6.050   4.475  0.3434  0.5398  1.8229
  493MOL0     H68006  11.548   6.323   4.522 -0.4538  0.5064  0.6321
  493MOL0     H68007  11.384   6.278   4.485 -0.8225 -1.6184 -0.3389
  493MOL0     H68008  11.554   6.134   4.697  1.9868  5.1678  1.2659
  493MOL0     H68009  11.387   6.087   4.639 -1.1290  1.8283 -4.9119
  493MOL0     H68010  11.311   6.306   4.751  1.0380  1.8865 -0.2178
  493MOL0     H68011  11.485   6.345   4.765 -1.9444  1.2879 -2.5201
  493MOL0     H68012  11.506   6.226   4.947  0.5637 -2.3446  1.5679
  493MOL0     H68013  11.391   6.096   4.887 -2.8492  0.5563 -2.7261
  493MOL0     H68014  11.161   6.266   4.212  0.1600 -1.0445  0.1759
  493MOL0     H68015  11.011   6.416   4.345 -0.9486 -0.8603 -2.7326
  493MOL0     H68016  10.678   6.366   4.709 -0.1005 -2.3838  1.4146
  493MOL0     H68017  10.564   6.390   4.925  0.3998 -0.6368  1.4355
  493MOL0     H68018   9.146   6.010   4.484  4.4675  1.5918  0.8153
  493MOL0     H68019   8.890   6.023   4.452 -1.6630  1.0459  0.5182
  493MOL0     H68020   8.557   6.351   4.524 -1.6207  0.2116  0.7582
  493MOL0     H68021   8.346   6.411   4.529  1.0119  0.7623 -2.2264
  493MOL0     H68022   8.149   6.471   4.503 -1.3173  1.1730  0.3004
  493MOL0     H68023   8.214   6.562   4.361 -0.5113  3.0657  3.1250
  493MOL0     H68024   7.921   6.498   4.402  0.9567  0.7773  0.1714
  493MOL0     H68025   7.991   6.553   4.252  1.7350 -3.3065 -0.3496
  493MOL0     H68026   8.069   6.759   4.381 -1.6691  2.2211 -0.4553
  493MOL0     H68027   7.898   6.755   4.357 -0.6872  0.1573 -0.1246
  493MOL0     H68028   8.001   6.648   4.624  0.1328  1.1753  2.1299
  493MOL0     H68029   7.856   6.744   4.581  0.1102  0.6342  0.8225
  493MOL0     H68030   8.140   7.048   4.659 -0.1768  0.0472  0.4806
  493MOL0     H68031   8.258   6.183   4.170 -2.1732 -0.5822  1.0053
  493MOL0     H68032   8.410   6.042   4.096  0.1825  0.3530  3.2753
  493MOL0     H68033   8.517   6.180   4.035  2.4625  1.2964  1.0315
  493MOL0     H68034   8.591   6.042   4.100  1.4962  1.3173  0.0205
  494MOL0     O68035  10.582   2.457   4.296  0.4723  0.2063 -0.3872
  494MOL0     C68036  10.555   2.565   4.346 -0.0336 -0.4318  0.1294
  494MOL0     O68037  10.473   2.660   4.291  0.1288  0.4391 -0.0291
  494MOL0     C68038  10.404   2.653   4.176  0.2213 -0.3724 -0.0695
  494MOL0     C68039  10.424   2.557   4.073  0.0756  0.8244 -0.4699
  494MOL0     C68040  10.398   2.575   3.940 -0.3314 -0.6711 -0.1001
  494MOL0     C68041  10.327   2.689   3.897  0.7983 -0.5386  0.5348
  494MOL0     O68042  10.288   2.713   3.764  0.3649  0.0400  0.1058
  494MOL0     C68043  10.211   2.832   3.729 -0.2503  0.9368 -0.4057
  494MOL0     C68044  10.170   2.817   3.584  0.7927  0.4029 -0.1973
  494MOL0     C68045  10.057   2.914   3.540  0.2642  0.0924 -0.4343
  494MOL0     C68046  10.012   2.860   3.401 -0.4486  0.0513 -1.1425
  494MOL0     C68047   9.903   2.939   3.331 -0.0843  0.6127  0.2685
  494MOL0     C68048   9.857   2.869   3.210  1.1898 -0.0838  0.1984
  494MOL0     C68049   9.722   2.936   3.161 -0.1134  0.0705  0.5206
  494MOL0     C68050   9.670   2.883   3.031 -0.5391  0.1522  0.1551
  494MOL0     N68051   9.765   2.910   2.913 -0.5365 -0.3371  0.1176
  494MOL0     C68052   9.828   3.032   2.886  0.4845  0.8755 -0.1622
  494MOL0     C68053   9.922   3.001   2.793  0.0368  0.4738 -0.5198
  494MOL0     C68054  10.011   3.099   2.712  0.1841  0.4670  0.0176
  494MOL0     C68055  10.030   3.234   2.768  0.3575 -0.7142 -0.4303
  494MOL0     C68056   9.904   3.335   2.762 -0.1201 -0.3153  0.2723
  494MOL0     C68057   9.942   3.481   2.720 -0.3684  0.0811 -0.4458
  494MOL0     O68058   9.991   3.562   2.826 -0.4223  0.3027 -0.3677
  494MOL0     C68059   9.911   3.647   2.893  0.1315  0.6042  0.0765
  494MOL0     C68060   9.973   3.730   2.987 -0.2062  0.4939  0.5423
  494MOL0     C68061   9.899   3.824   3.066  0.5593 -0.5976  0.7781
  494MOL0     C68062   9.984   3.916   3.148 -0.1731 -0.2210 -0.2339
  494MOL0     C68063   9.758   3.836   3.041 -1.2169 -0.0620 -0.3055
  494MOL0     C68064   9.672   3.949   3.094  0.1200 -0.1288 -0.0860
  494MOL0     O68065   9.537   3.924   3.083 -0.1593  0.5992 -0.2588
  494MOL0     C68066   9.447   3.979   3.177 -0.2512  0.0545  0.1493
  494MOL0     C68067   9.312   3.988   3.154  0.0381 -0.2886 -0.4648
  494MOL0     C68068   9.218   4.055   3.235 -0.4268  0.5306 -1.2075
  494MOL0     C68069   9.260   4.096   3.361 -0.1899  0.6542  0.0973
  494MOL0     O68070   9.164   4.123   3.440  0.7154  0.3204  0.0934
  494MOL0     C68071   9.190   4.206   3.560  0.2070 -0.0029  0.3654
  494MOL0     C68072   9.061   4.261   3.619 -0.5922  0.3712 -0.0747
  494MOL0     C68073   9.065   4.292   3.771  0.3448 -0.0389 -0.3057
  494MOL0     C68074   8.927   4.334   3.839  0.6341 -0.2629 -0.0628
  494MOL0     C68075   8.945   4.382   3.980 -0.7169 -0.0606  0.1476
  494MOL0     C68076   8.810   4.416   4.041 -0.0131 -0.2701  0.1855
  494MOL0     C68077   8.832   4.441   4.192  0.8837  0.2922  0.3773
  494MOL0     C68078   8.698   4.464   4.257  0.6175 -0.4534 -0.3228
  494MOL0    Cl68079   8.590   4.318   4.256 -0.0182  0.1227 -0.6390
  494MOL0     C68080   9.398   4.092   3.393  0.1718  0.2310 -0.1470
  494MOL0     C68081   9.489   4.050   3.297 -1.4230 -0.2258 -0.3166
  494MOL0     O68082   9.720   4.057   3.133  0.3299 -0.7371 -0.1686
  494MOL0     C68083   9.697   3.751   2.955  0.3528  0.3106  0.1689
  494MOL0     C68084   9.768   3.650   2.886  0.1319 -1.2178 -0.0242
  494MOL0     N68085   9.917   2.861   2.768  0.3837 -0.0461  0.6306
  494MOL0     N68086   9.818   2.812   2.827  0.5252 -0.2380  0.5065
  494MOL0     C68087  10.284   2.783   4.005  0.0085  0.4122  0.3167
  494MOL0     C68088  10.335   2.773   4.142 -0.9522  0.1058  0.1237
  494MOL0     C68089  10.620   2.596   4.480  0.8527 -0.7423 -0.5821
  494MOL0     C68090  10.557   2.705   4.552  0.0983  0.8203  0.1816
  494MOL0     C68091  10.620   2.753   4.663  0.4491  0.9836  0.1139
  494MOL0     C68092  10.740   2.708   4.711  0.0811  0.0339 -0.5574
  494MOL0     O68093  10.786   2.748   4.836  0.6116 -0.1689  0.0202
  494MOL0     C68094  10.811   2.635   4.929 -0.4656 -0.2781  0.3266
  494MOL0     C68095  10.671   2.593   4.981 -0.5569 -0.0767 -0.3755
  494MOL0     C68096  10.662   2.517   5.112  0.6202  0.4238 -0.3066
  494MOL0     C68097  10.517   2.462   5.145  0.2047  0.3199 -0.0711
  494MOL0     C68098  10.426   2.580   5.168 -0.5545  1.0982 -0.0296
  494MOL0     C68099  10.345   2.661   5.200 -0.0381  0.2005 -0.4174
  494MOL0     C68100  10.799   2.601   4.643  0.5804 -0.0582 -0.2156
  494MOL0     C68101  10.735   2.543   4.531 -0.7348  0.5915  0.0030
  494MOL0     C68102  10.823   2.437   4.461  0.7499 -0.3791  0.0112
  494MOL0     H68103  10.495   2.477   4.092 -1.2160 -0.9083 -2.5050
  494MOL0     H68104  10.414   2.495   3.868  2.3105 -0.6195  0.3447
  494MOL0     H68105  10.260   2.928   3.750 -1.4475  1.0907  1.9393
  494MOL0     H68106  10.113   2.826   3.777  0.6873 -2.1517  1.3551
  494MOL0     H68107  10.256   2.824   3.516 -0.0404  3.0613 -1.1248
  494MOL0     H68108  10.130   2.717   3.564 -1.1876  1.0662  0.2539
  494MOL0     H68109   9.972   2.918   3.610 -1.1250 -1.3905 -1.9352
  494MOL0     H68110  10.101   3.013   3.541 -0.8269  0.5988  1.1536
  494MOL0     H68111  10.096   2.847   3.333  3.0103 -0.4011  2.8229
  494MOL0     H68112   9.962   2.763   3.416  2.7731 -1.7886 -1.3720
  494MOL0     H68113   9.942   3.036   3.299  0.6574  1.7965  4.2849
  494MOL0     H68114   9.826   2.961   3.405  0.3943  1.1677  0.6102
  494MOL0     H68115   9.934   2.875   3.132  1.2694 -0.7343  0.2204
  494MOL0     H68116   9.832   2.764   3.228 -1.0480 -0.0195 -1.8819
  494MOL0     H68117   9.723   3.045   3.172 -2.7234  0.5605 -2.6874
  494MOL0     H68118   9.650   2.919   3.242 -3.2943  2.3632 -1.6203
  494MOL0     H68119   9.651   2.776   3.040 -1.5336  0.2452 -0.6128
  494MOL0     H68120   9.572   2.929   3.017 -1.9086 -2.3275  1.0438
  494MOL0     H68121   9.799   3.125   2.935 -3.7249 -1.1060  1.5685
  494MOL0     H68122   9.978   3.111   2.608 -1.0052  4.3733  0.6906
  494MOL0     H68123  10.107   3.047   2.705 -0.1660 -0.0043 -2.4777
  494MOL0     H68124  10.066   3.241   2.872 -2.1863  3.2982  0.4007
  494MOL0     H68125  10.113   3.287   2.721 -1.4904  0.5557 -2.4174
  494MOL0     H68126   9.839   3.281   2.692  0.9850 -1.7454  0.2793
  494MOL0     H68127   9.850   3.343   2.856  0.4179  0.0503  0.5538
  494MOL0     H68128  10.031   3.467   2.658  0.0136 -1.6588  0.4618
  494MOL0     H68129   9.864   3.518   2.653 -1.1892 -0.7877  0.0118
  494MOL0     H68130  10.081   3.730   2.996  0.0742  2.9128 -1.6696
  494MOL0     H68131   9.937   3.947   3.242  1.5133 -1.3607  1.0420
  494MOL0     H68132   9.986   4.005   3.084  4.1710 -0.8693 -1.3034
  494MOL0     H68133  10.083   3.882   3.180  0.8664  0.0306 -2.9378
  494MOL0     H68134   9.278   3.931   3.068  2.5897 -0.9286 -1.1496
  494MOL0     H68135   9.115   4.067   3.204 -0.4840 -2.6858 -2.5960
  494MOL0     H68136   9.244   4.142   3.630 -0.1414 -1.0849 -0.3367
  494MOL0     H68137   9.246   4.298   3.539 -1.2868  1.3102  1.8442
  494MOL0     H68138   9.038   4.350   3.560  0.3969 -1.3043 -3.2319
  494MOL0     H68139   8.981   4.188   3.607  0.7385 -0.9882 -1.1009
  494MOL0     H68140   9.128   4.380   3.784 -0.1861 -0.0126  2.6461
  494MOL0     H68141   9.107   4.200   3.813 -1.5048 -0.4482  0.7823
  494MOL0     H68142   8.854   4.254   3.829 -1.0770  1.3618 -1.4396
  494MOL0     H68143   8.883   4.417   3.781 -1.2835 -3.6376 -3.9639
  494MOL0     H68144   8.988   4.301   4.039 -4.0086 -0.4106  2.3029
  494MOL0     H68145   9.012   4.468   3.988 -2.1935  0.9327  3.7714
  494MOL0     H68146   8.745   4.331   4.015  0.0455 -0.6360  1.1860
  494MOL0     H68147   8.776   4.504   3.986 -0.7968 -0.4452  0.3759
  494MOL0     H68148   8.901   4.524   4.208  2.0981 -0.6439  0.1424
  494MOL0     H68149   8.874   4.356   4.247 -1.3248  0.1723  1.9980
  494MOL0     H68150   8.641   4.548   4.216  0.1990  1.1613  3.1521
  494MOL0     H68151   8.704   4.500   4.361  0.5448 -1.6189  0.1019
  494MOL0     H68152   9.432   4.117   3.493 -1.7300 -0.1652  0.6449
  494MOL0     H68153   9.592   4.070   3.325 -1.9810  0.2197  1.5401
  494MOL0     H68154   9.588   3.755   2.956  0.2543 -1.5595  1.3189
  494MOL0     H68155   9.715   3.576   2.827 -3.9823  2.2665 -1.2514
  494MOL0     H68156  10.212   2.856   3.971  1.1384  0.2620 -2.7297
  494MOL0     H68157  10.313   2.851   4.214  0.3114  2.5433 -1.9686
  494MOL0     H68158  10.470   2.743   4.500 -0.6523 -1.8726 -0.6772
  494MOL0     H68159  10.569   2.836   4.711 -0.9976  0.8339 -1.0990
  494MOL0     H68160  10.871   2.561   4.875  0.4920  1.2054 -0.7298
  494MOL0     H68161  10.867   2.676   5.013 -2.6361  0.9135  1.2594
  494MOL0     H68162  10.634   2.524   4.905 -1.0850 -3.4211  2.6543
  494MOL0     H68163  10.618   2.689   4.987 -1.6293 -0.4103 -3.1457
  494MOL0     H68164  10.728   2.431   5.098  1.2882  0.8653  0.0775
  494MOL0     H68165  10.701   2.579   5.193  1.5633  0.1585 -0.5415
  494MOL0     H68166  10.513   2.393   5.230 -2.1263 -0.4365 -0.7270
  494MOL0     H68167  10.490   2.399   5.059  1.8557  0.6320 -0.8680
  494MOL0     H68168  10.273   2.733   5.232 -1.9437 -1.6735 -0.2373
  494MOL0     H68169  10.885   2.543   4.674  0.1262 -0.7284 -0.1788
  494MOL0     H68170  10.888   2.478   4.383 -0.5309  2.6246  0.3877
  494MOL0     H68171  10.887   2.387   4.535 -4.4561 -2.2394  3.8633
  494MOL0     H68172  10.759   2.359   4.420 -2.2328  1.5898  0.6419
  495MOL0     O68173   9.306   2.166  11.382 -0.0639 -0.0341  0.6008
  495MOL0     C68174   9.357   2.062  11.416 -1.1650 -0.0573 -0.5976
  495MOL0     O68175   9.296   1.949  11.469 -0.0035  0.6462 -0.6901
  495MOL0     C68176   9.162   1.953  11.501  0.2828 -0.4632 -0.1750
  495MOL0     C68177   9.121   1.882  11.609  0.0494 -0.3961 -0.0109
  495MOL0     C68178   8.981   1.887  11.652 -1.0029 -0.2503 -0.1029
  495MOL0     C68179   8.886   1.956  11.580 -0.0842 -0.0134  0.4094
  495MOL0     O68180   8.762   1.954  11.628  0.3820  0.4000 -0.4707
  495MOL0     C68181   8.665   1.905  11.539  0.5313  0.1024 -0.4257
  495MOL0     C68182   8.560   1.862  11.633  0.8175  0.3882 -0.0787
  495MOL0     C68183   8.435   1.807  11.560  0.5459 -0.7572  0.3316
  495MOL0     C68184   8.307   1.817  11.650 -0.0409  0.0551 -0.2427
  495MOL0     C68185   8.222   1.686  11.652 -0.5101 -0.4811  0.0860
  495MOL0     C68186   8.187   1.623  11.515 -0.3668 -1.7173  0.2137
  495MOL0     C68187   8.065   1.530  11.524  0.0773  0.2004 -0.1311
  495MOL0     C68188   8.032   1.488  11.386  0.3304  0.3156  0.0339
  495MOL0     N68189   7.894   1.432  11.362  0.8181 -0.2269  0.2530
  495MOL0     C68190   7.834   1.320  11.426 -0.7435 -0.8180 -0.6038
  495MOL0     C68191   7.723   1.306  11.346  1.2060  0.6390 -0.4141
  495MOL0     C68192   7.597   1.217  11.380  0.0395 -0.3443  0.6126
  495MOL0     C68193   7.639   1.085  11.445  0.3740 -0.3392 -1.0853
  495MOL0     C68194   7.703   0.979  11.358  0.2781 -0.2966 -0.3132
  495MOL0     C68195   7.631   0.854  11.331 -0.4459 -0.2487 -0.1829
  495MOL0     O68196   7.576   0.803  11.454  0.1492 -0.7356 -0.0936
  495MOL0     C68197   7.522   0.679  11.452 -0.2216  0.3107 -0.2891
  495MOL0     C68198   7.456   0.620  11.343 -0.5814  0.6651 -0.4040
  495MOL0     C68199   7.373   0.505  11.348 -0.6929  0.0465  0.1814
  495MOL0     C68200   7.311   0.447  11.224  0.5497  1.1535 -0.2391
  495MOL0     C68201   7.366   0.431  11.472  0.5115 -0.3170  0.1197
  495MOL0     C68202   7.304   0.293  11.492 -0.1617  0.0596  0.3817
  495MOL0     O68203   7.338   0.236  11.615  0.4733 -0.4062 -0.3293
  495MOL0     C68204   7.279   0.118  11.665  0.2338  0.4094 -0.3923
  495MOL0     C68205   7.363   0.039  11.757 -0.0660  0.0154 -0.0066
  495MOL0     C68206   7.303  -0.070  11.819 -0.0358  0.2088  0.1159
  495MOL0     C68207   7.180  -0.122  11.770  0.3865 -0.1897  0.0770
  495MOL0     O68208   7.131  -0.245  11.811  0.2668  0.0270 -0.9360
  495MOL0     C68209   6.998  -0.258  11.862  0.0029  0.2510 -0.0087
  495MOL0     C68210   7.003  -0.335  12.000  0.1767 -0.2901 -0.3184
  495MOL0     C68211   7.065  -0.469  11.995  0.9117  0.8323  0.3922
  495MOL0     C68212   6.961  -0.580  11.981 -0.0880 -0.1488  0.1410
  495MOL0     C68213   7.026  -0.713  11.933  0.3373  1.0708  0.0219
  495MOL0     C68214   6.925  -0.830  11.909  0.0892 -0.9423 -0.8014
  495MOL0     C68215   6.879  -0.840  11.770  0.5974 -0.0307  0.0519
  495MOL0     C68216   6.796  -0.965  11.759  0.3022 -0.0490  0.1210
  495MOL0    Cl68217   6.829  -1.106  11.866  0.0325  0.0902  0.2951
  495MOL0     C68218   7.104  -0.043  11.681  0.6839  0.3410  0.0738
  495MOL0     C68219   7.152   0.077  11.635  1.1022 -0.0586  0.1977
  495MOL0     O68220   7.242   0.232  11.402 -0.1051 -0.1110 -1.3675
  495MOL0     C68221   7.444   0.485  11.577 -0.5536  0.3489 -0.1617
  495MOL0     C68222   7.511   0.610  11.571  0.3512  0.1763  0.9098
  495MOL0     N68223   7.730   1.389  11.229  0.1553 -0.0383 -0.3705
  495MOL0     N68224   7.834   1.461  11.242 -1.1162  0.2326 -0.3398
  495MOL0     C68225   8.928   2.026  11.462  0.5490 -0.7135 -0.1192
  495MOL0     C68226   9.064   2.028  11.432  0.3805 -0.2445  1.0815
  495MOL0     C68227   9.505   2.041  11.387 -0.6174  0.0578 -0.3254
  495MOL0     C68228   9.549   1.911  11.359 -1.3304 -0.4405  1.1118
  495MOL0     C68229   9.680   1.885  11.304 -0.2006  0.3404 -0.1419
  495MOL0     C68230   9.783   1.977  11.322 -0.9404  0.4128 -0.1535
  495MOL0     O68231   9.916   1.932  11.303 -0.6883 -0.6277 -0.0112
  495MOL0     C68232  10.020   2.019  11.363  0.3438 -0.8803  0.7080
  495MOL0     C68233  10.148   1.986  11.291 -0.2793  0.7837  0.4073
  495MOL0     C68234  10.215   1.864  11.361 -0.4188 -0.6605 -0.4602
  495MOL0     C68235  10.367   1.863  11.319 -0.6525  0.2258 -0.0920
  495MOL0     C68236  10.397   1.857  11.174 -0.4713  0.4268 -0.1649
  495MOL0     C68237  10.427   1.877  11.057 -0.5754 -0.7487 -0.3767
  495MOL0     C68238   9.741   2.106  11.364  0.1127 -0.7999 -0.0380
  495MOL0     C68239   9.604   2.142  11.392  0.4232  0.3687  0.0338
  495MOL0     C68240   9.580   2.289  11.414  0.2241  0.3747 -0.8579
  495MOL0     H68241   9.200   1.824  11.656 -0.7435 -0.6510  1.0628
  495MOL0     H68242   8.938   1.829  11.732 -0.4829 -0.3306  0.1235
  495MOL0     H68243   8.713   1.830  11.475 -1.0352  1.5340 -3.5067
  495MOL0     H68244   8.624   1.973  11.463 -1.4074 -0.3654  0.1297
  495MOL0     H68245   8.604   1.801  11.713 -0.1322 -0.4409 -0.1660
  495MOL0     H68246   8.517   1.948  11.685 -2.9763 -0.2028 -1.8607
  495MOL0     H68247   8.410   1.869  11.474 -2.7636 -2.6034 -0.2147
  495MOL0     H68248   8.439   1.703  11.526 -2.0335 -2.1303  3.6865
  495MOL0     H68249   8.331   1.847  11.753  4.5069  3.4431 -1.9165
  495MOL0     H68250   8.241   1.887  11.597  0.8242  2.2885  1.4721
  495MOL0     H68251   8.139   1.690  11.723  2.0590  0.8856  3.3205
  495MOL0     H68252   8.286   1.605  11.690 -2.1483 -1.2537  1.3308
  495MOL0     H68253   8.167   1.716  11.462 -2.2339 -0.5863  2.7024
  495MOL0     H68254   8.271   1.566  11.475  0.8908 -0.5826  1.1574
  495MOL0     H68255   7.984   1.572  11.585 -1.0241  1.0011 -2.0194
  495MOL0     H68256   8.097   1.444  11.582 -3.1510 -0.6001  0.6856
  495MOL0     H68257   8.050   1.568  11.313  1.6864 -1.1643 -1.3241
  495MOL0     H68258   8.106   1.415  11.352  1.5384  1.1781  0.7240
  495MOL0     H68259   7.872   1.272  11.515  2.0645  2.2753  0.0733
  495MOL0     H68260   7.532   1.200  11.294 -0.7242 -0.2949  1.1693
  495MOL0     H68261   7.534   1.274  11.449 -2.6963 -3.0197  0.5244
  495MOL0     H68262   7.712   1.101  11.525  1.1422 -2.0886 -1.3926
  495MOL0     H68263   7.551   1.044  11.496  0.2345  1.3661  0.1377
  495MOL0     H68264   7.719   1.017  11.256 -2.0214  1.7439 -0.0085
  495MOL0     H68265   7.796   0.944  11.405  0.3288 -1.5549 -1.2901
  495MOL0     H68266   7.543   0.873  11.269  0.4978  3.3836 -0.5999
  495MOL0     H68267   7.690   0.776  11.282 -1.5707 -1.3993  0.2355
  495MOL0     H68268   7.453   0.678  11.251  0.2695 -0.5950 -1.2670
  495MOL0     H68269   7.334   0.512  11.139 -0.3045  0.7218 -0.8126
  495MOL0     H68270   7.203   0.447  11.239  0.7336  0.4487  1.1928
  495MOL0     H68271   7.335   0.344  11.196 -3.5195 -1.0413  3.2470
  495MOL0     H68272   7.458   0.084  11.784  2.1341 -2.8944 -2.0678
  495MOL0     H68273   7.364  -0.117  11.894 -0.9051 -0.1349  0.6228
  495MOL0     H68274   6.939  -0.167  11.878 -2.2720 -1.2465  0.6529
  495MOL0     H68275   6.935  -0.305  11.786  0.1596  1.0856 -0.6753
  495MOL0     H68276   7.062  -0.258  12.051  1.9220 -1.0553 -1.1139
  495MOL0     H68277   6.915  -0.346  12.064  1.6166 -2.5844  1.4321
  495MOL0     H68278   7.120  -0.480  12.089  0.1053  1.9667  1.0232
  495MOL0     H68279   7.131  -0.480  11.908 -0.5453 -2.5924 -0.4434
  495MOL0     H68280   6.889  -0.548  11.905 -0.5875  3.2610  1.8402
  495MOL0     H68281   6.904  -0.604  12.072  0.7821 -1.7189  0.3105
  495MOL0     H68282   7.085  -0.695  11.842 -0.7564  4.2246 -0.1937
  495MOL0     H68283   7.095  -0.740  12.014  1.2325 -0.3639 -1.1878
  495MOL0     H68284   6.846  -0.810  11.982  2.1774  2.3577  0.8251
  495MOL0     H68285   6.970  -0.919  11.951 -1.6686 -0.9633  1.2161
  495MOL0     H68286   6.974  -0.860  11.721  1.8797 -1.2054  2.7803
  495MOL0     H68287   6.826  -0.754  11.729  2.0646  0.6521 -0.4679
  495MOL0     H68288   6.814  -0.987  11.654  0.9210 -1.9489  0.5913
  495MOL0     H68289   6.689  -0.939  11.765  0.3951  1.3555 -2.7186
  495MOL0     H68290   7.007  -0.075  11.645  0.8792 -1.9284  1.3974
  495MOL0     H68291   7.095   0.134  11.563 -0.4412 -1.1003  0.5423
  495MOL0     H68292   7.454   0.429  11.670 -0.4416  0.5406 -0.0570
  495MOL0     H68293   7.555   0.654  11.660 -1.1173  1.5346  1.0243
  495MOL0     H68294   8.862   2.086  11.400 -0.2194 -1.8428 -0.4372
  495MOL0     H68295   9.090   2.084  11.343 -0.9842 -2.4869 -0.8463
  495MOL0     H68296   9.482   1.826  11.365 -0.2028 -1.4878 -0.4109
  495MOL0     H68297   9.712   1.788  11.266  0.6295  1.2676 -1.9584
  495MOL0     H68298  10.002   2.125  11.346  0.8326 -0.9741 -0.4313
  495MOL0     H68299   9.999   2.003  11.469 -1.4364  2.1364  0.8997
  495MOL0     H68300  10.209   2.077  11.289 -0.8411  1.1650  0.2270
  495MOL0     H68301  10.140   1.974  11.183  0.9583 -1.0697  0.4868
  495MOL0     H68302  10.204   1.880  11.469 -3.3013 -0.6986 -0.6670
  495MOL0     H68303  10.176   1.765  11.337  1.5865 -1.7113  0.3846
  495MOL0     H68304  10.414   1.770  11.352 -1.7930 -0.4492 -0.3274
  495MOL0     H68305  10.417   1.954  11.355  2.0822 -0.8410 -1.0033
  495MOL0     H68306  10.439   1.892  10.951  0.5357  0.9857 -0.0525
  495MOL0     H68307   9.811   2.187  11.376 -1.4350  0.5658  0.1982
  495MOL0     H68308   9.533   2.334  11.326  0.2423  0.3534 -0.8794
  495MOL0     H68309   9.526   2.307  11.508 -1.1940  0.7172 -1.7050
  495MOL0     H68310   9.675   2.342  11.424  0.3029  0.4264 -1.8089
  496MOL0     O68311   4.204   6.946   3.378 -0.3760  0.5410 -0.2074
  496MOL0     C68312   4.243   6.849   3.448 -0.6370 -0.0588 -0.2032
  496MOL0     O68313   4.376   6.834   3.485 -0.7524 -0.3192 -0.5074
  496MOL0     C68314   4.486   6.903   3.443 -1.2670 -0.1947 -0.2248
  496MOL0     C68315   4.599   6.882   3.514 -0.5566 -0.2906  0.1418
  496MOL0     C68316   4.724   6.936   3.482  0.8425 -0.8596 -0.2780
  496MOL0     C68317   4.740   7.007   3.362  0.6535 -0.3965  0.7410
  496MOL0     O68318   4.859   7.060   3.308  0.5660 -0.0932  0.7134
  496MOL0     C68319   4.971   7.065   3.382 -0.5480  0.0513  1.2455
  496MOL0     C68320   5.087   6.985   3.319  0.5805 -0.6702  0.2578
  496MOL0     C68321   5.202   6.975   3.420 -0.3486  0.0175 -0.4628
  496MOL0     C68322   5.173   6.876   3.534  0.5943  0.5944  0.7949
  496MOL0     C68323   5.278   6.851   3.638 -0.3069  0.0323 -0.5596
  496MOL0     C68324   5.299   6.969   3.730 -0.1026  0.7255  0.6791
  496MOL0     C68325   5.414   6.954   3.840 -0.8374 -0.8238  1.0672
  496MOL0     C68326   5.547   6.933   3.764 -0.7828  0.2062  0.1056
  496MOL0     N68327   5.670   6.964   3.840 -0.1628 -0.0282  0.4191
  496MOL0     C68328   5.726   6.891   3.943 -0.7712  0.1789  0.0691
  496MOL0     C68329   5.846   6.952   3.971  1.1123  0.9420 -0.1529
  496MOL0     C68330   5.957   6.910   4.063 -0.3448 -0.9555  0.0663
  496MOL0     C68331   6.048   6.812   3.998  0.6370  0.1565  0.0425
  496MOL0     C68332   5.984   6.695   3.923 -0.8454 -0.7004 -0.3143
  496MOL0     C68333   6.098   6.600   3.886  0.3390  0.3999  0.2167
  496MOL0     O68334   6.025   6.475   3.881 -0.3268 -0.2737 -0.8445
  496MOL0     C68335   6.075   6.352   3.878 -0.4658  0.2054  0.7063
  496MOL0     C68336   6.212   6.323   3.856  0.3872  0.3093 -0.2720
  496MOL0     C68337   6.261   6.187   3.859  0.3178 -1.2245 -0.2113
  496MOL0     C68338   6.415   6.166   3.858 -0.8720  0.8288  0.0388
  496MOL0     C68339   6.164   6.083   3.888 -0.4360  0.5466  0.7536
  496MOL0     C68340   6.211   5.948   3.928  0.5809  0.8590  1.5895
  496MOL0     O68341   6.335   5.923   3.985 -0.2020  0.3854 -0.0705
  496MOL0     C68342   6.411   5.811   3.976  0.7959  0.4307 -0.1282
  496MOL0     C68343   6.533   5.799   4.045  0.6947  0.1525  0.1293
  496MOL0     C68344   6.625   5.694   4.011 -0.4763  0.6104 -0.0452
  496MOL0     C68345   6.605   5.606   3.907 -1.3557  0.0517  0.4621
  496MOL0     O68346   6.704   5.502   3.889 -0.6900 -0.1690  0.1654
  496MOL0     C68347   6.681   5.418   3.774  0.1095 -0.6248  0.1526
  496MOL0     C68348   6.799   5.337   3.733 -0.4511 -0.5625  0.9264
  496MOL0     C68349   6.776   5.251   3.611 -0.9924  0.4375 -0.0372
  496MOL0     C68350   6.889   5.147   3.595  0.2748 -0.0641  0.1032
  496MOL0     C68351   6.852   5.034   3.488 -0.1427 -0.9231 -0.6922
  496MOL0     C68352   6.950   4.931   3.500 -0.3021 -0.0806 -0.1425
  496MOL0     C68353   6.932   4.833   3.386 -0.0636 -0.1408  0.4623
  496MOL0     C68354   7.034   4.717   3.395 -0.2473 -0.0161  0.4890
  496MOL0    Cl68355   7.200   4.783   3.396 -0.1802 -0.0971  0.1975
  496MOL0     C68356   6.491   5.627   3.830  0.2860 -0.3931  0.2407
  496MOL0     C68357   6.391   5.722   3.865 -0.2535  0.2972 -1.3619
  496MOL0     O68358   6.128   5.858   3.893 -0.4748 -0.9257 -0.2902
  496MOL0     C68359   6.028   6.117   3.893 -0.5736  1.1382  0.4563
  496MOL0     C68360   5.983   6.251   3.891  0.1190 -0.8000 -0.1479
  496MOL0     N68361   5.853   7.064   3.894 -0.6460  0.0720 -1.2904
  496MOL0     N68362   5.741   7.077   3.833 -0.4759 -0.1677 -0.0514
  496MOL0     C68363   4.630   7.034   3.285 -0.5112 -0.0375  0.2656
  496MOL0     C68364   4.501   6.989   3.328 -0.3076 -0.3901 -0.0564
  496MOL0     C68365   4.151   6.743   3.491 -0.2583 -0.2632 -0.2850
  496MOL0     C68366   4.212   6.609   3.487  0.1686 -0.2830 -0.3901
  496MOL0     C68367   4.129   6.504   3.513  0.7408 -1.0208 -0.6140
  496MOL0     C68368   4.011   6.531   3.580 -0.3626  0.4046  0.6617
  496MOL0     O68369   3.951   6.420   3.640 -0.3576 -0.1651 -0.1299
  496MOL0     C68370   3.827   6.431   3.711 -0.2029 -0.1353  0.0458
  496MOL0     C68371   3.699   6.426   3.629 -0.4720  0.1381  0.0248
  496MOL0     C68372   3.590   6.438   3.731  0.4266 -0.8131  0.6991
  496MOL0     C68373   3.460   6.479   3.663 -0.8585 -0.1126 -0.0848
  496MOL0     C68374   3.454   6.622   3.641 -0.2166  0.1759 -0.8511
  496MOL0     C68375   3.443   6.739   3.627  0.3201 -0.1290  0.6079
  496MOL0     C68376   3.954   6.654   3.578  0.2724 -0.5216 -0.2013
  496MOL0     C68377   4.019   6.765   3.529 -0.2777 -0.0031  0.3643
  496MOL0     C68378   3.945   6.892   3.505 -0.3213 -0.1674  0.9111
  496MOL0     H68379   4.594   6.816   3.600 -1.1363  0.0902  0.4072
  496MOL0     H68380   4.803   6.935   3.557  0.1954 -2.0236  0.4118
  496MOL0     H68381   4.955   7.030   3.485 -0.7491 -0.9601  0.8735
  496MOL0     H68382   5.012   7.166   3.377 -1.1789  0.3948  2.4283
  496MOL0     H68383   5.050   6.887   3.288 -0.5248 -0.1460 -0.1309
  496MOL0     H68384   5.126   7.034   3.229 -2.0066 -0.0238 -0.5892
  496MOL0     H68385   5.294   6.948   3.366 -0.9086 -0.0158 -1.4357
  496MOL0     H68386   5.223   7.071   3.469  1.7095 -1.5396  1.9268
  496MOL0     H68387   5.085   6.919   3.584 -0.3693  0.6961 -0.8853
  496MOL0     H68388   5.141   6.779   3.493 -3.1892  0.6688  3.0477
  496MOL0     H68389   5.370   6.835   3.582 -0.0603  1.5203 -0.6064
  496MOL0     H68390   5.256   6.769   3.707 -0.1627 -0.5776 -1.2270
  496MOL0     H68391   5.312   7.053   3.661 -7.0002  0.5591 -1.6259
  496MOL0     H68392   5.204   6.997   3.777 -0.8908  1.8549 -1.4592
  496MOL0     H68393   5.390   6.871   3.906 -2.5018 -1.9596 -0.8446
  496MOL0     H68394   5.417   7.045   3.902  2.2055  0.7691 -1.1686
  496MOL0     H68395   5.542   6.828   3.733  1.2532  0.4090 -1.1159
  496MOL0     H68396   5.544   6.987   3.669  4.1035 -0.1579 -0.5443
  496MOL0     H68397   5.685   6.796   3.973 -0.4114 -1.2465 -3.3842
  496MOL0     H68398   5.896   6.864   4.142 -0.8415 -0.0884  0.1964
  496MOL0     H68399   6.017   6.992   4.103 -1.0742 -0.7083  0.6821
  496MOL0     H68400   6.118   6.861   3.930  1.4187 -1.6016 -0.4804
  496MOL0     H68401   6.100   6.771   4.085 -1.2110 -1.2904  0.5572
  496MOL0     H68402   5.914   6.643   3.989 -0.9789  0.7840  0.7722
  496MOL0     H68403   5.939   6.735   3.832  2.8993 -1.5536 -2.7932
  496MOL0     H68404   6.134   6.627   3.786  1.1126 -2.8017 -0.4865
  496MOL0     H68405   6.182   6.598   3.956 -0.2714  0.3057  0.9502
  496MOL0     H68406   6.275   6.409   3.834  1.4181  0.2697  2.1955
  496MOL0     H68407   6.468   6.257   3.829  0.3135  0.3709  0.7221
  496MOL0     H68408   6.434   6.085   3.787 -1.3140  1.8686 -1.3091
  496MOL0     H68409   6.451   6.132   3.955 -2.2669 -0.2365  0.2130
  496MOL0     H68410   6.556   5.866   4.127 -1.1794 -1.9410  2.5595
  496MOL0     H68411   6.709   5.687   4.079  0.0199  1.3278 -0.5614
  496MOL0     H68412   6.603   5.345   3.799  0.0378 -0.3333  0.7951
  496MOL0     H68413   6.647   5.473   3.686 -0.7850  0.9324  1.4215
  496MOL0     H68414   6.876   5.406   3.695 -1.7686 -1.0370 -3.0917
  496MOL0     H68415   6.843   5.282   3.817  2.5046 -1.9335 -1.3405
  496MOL0     H68416   6.736   5.296   3.520 -1.3228 -1.5736 -0.9393
  496MOL0     H68417   6.692   5.184   3.631 -0.2947 -0.6629 -0.6785
  496MOL0     H68418   6.908   5.097   3.690 -3.0742  0.4074  1.1504
  496MOL0     H68419   6.979   5.200   3.563 -0.5790  1.2801 -0.1434
  496MOL0     H68420   6.759   4.987   3.523 -0.7225  1.4338  1.2247
  496MOL0     H68421   6.829   5.067   3.387  1.0963  0.5358 -0.5282
  496MOL0     H68422   6.929   4.881   3.594 -1.1393 -2.2184 -1.3960
  496MOL0     H68423   7.051   4.974   3.495 -0.4315  0.2970  0.3545
  496MOL0     H68424   6.937   4.882   3.288  1.7876  2.3537  1.6858
  496MOL0     H68425   6.839   4.777   3.399 -0.2661  0.6568  3.1823
  496MOL0     H68426   7.025   4.647   3.311 -0.9358 -2.7667  2.7323
  496MOL0     H68427   7.020   4.648   3.479  1.4657 -0.9622  0.0373
  496MOL0     H68428   6.478   5.552   3.753  1.9866 -1.8444  1.2998
  496MOL0     H68429   6.304   5.722   3.801  2.2802 -4.4418 -5.4774
  496MOL0     H68430   5.959   6.033   3.899  0.3471 -0.1697 -3.8808
  496MOL0     H68431   5.882   6.287   3.901 -0.0105 -1.0593 -0.4867
  496MOL0     H68432   4.641   7.106   3.204  2.0317 -0.2126  0.3902
  496MOL0     H68433   4.417   7.007   3.263  1.8931  1.7858 -2.5162
  496MOL0     H68434   4.314   6.575   3.476  0.5085 -0.1267  1.8494
  496MOL0     H68435   4.173   6.404   3.516  1.6215 -0.6441 -0.5933
  496MOL0     H68436   3.832   6.335   3.765  0.5022 -1.1788 -1.7703
  496MOL0     H68437   3.827   6.517   3.778  2.1365 -0.2785  0.3319
  496MOL0     H68438   3.679   6.334   3.574 -1.0088 -0.2148  0.7864
  496MOL0     H68439   3.697   6.508   3.557 -1.9234 -0.4501 -0.6320
  496MOL0     H68440   3.580   6.343   3.785 -2.1206 -1.1228 -0.1396
  496MOL0     H68441   3.614   6.514   3.805  0.3297 -2.0172  2.0121
  496MOL0     H68442   3.383   6.449   3.735 -0.8676 -0.2262 -0.1415
  496MOL0     H68443   3.439   6.424   3.571  2.4767 -1.3703 -0.2361
  496MOL0     H68444   3.414   6.840   3.607 -0.5829 -1.0910 -3.9290
  496MOL0     H68445   3.854   6.667   3.620  0.3785  0.7773 -0.3084
  496MOL0     H68446   4.003   6.978   3.538  0.7368 -0.9651  1.2020
  496MOL0     H68447   3.903   6.907   3.405 -0.7236  1.1982  1.2695
  496MOL0     H68448   3.860   6.892   3.574  2.2938 -0.3082  4.4048
  497MOL0     O68449   0.552   6.781   7.506 -0.3133 -0.0547  0.9656
  497MOL0     C68450   0.497   6.892   7.498 -0.0927  0.3454  0.3184
  497MOL0     O68451   0.367   6.918   7.465 -1.2193  0.0622  0.3686
  497MOL0     C68452   0.286   6.816   7.441 -0.2460 -0.1280  0.9199
  497MOL0     C68453   0.155   6.812   7.490  0.3461  0.9051 -0.1356
  497MOL0     C68454   0.074   6.704   7.462  0.7323 -0.1118  0.2603
  497MOL0     C68455   0.103   6.600   7.382  0.6745 -0.1318  0.1451
  497MOL0     O68456   0.002   6.516   7.346  0.4000  0.2226 -0.1230
  497MOL0     C68457   0.023   6.379   7.337  0.0674 -0.1176  0.5053
  497MOL0     C68458  -0.081   6.314   7.239  0.2080 -0.3814  0.0370
  497MOL0     C68459  -0.230   6.341   7.277 -0.5210 -0.0715  0.1325
  497MOL0     C68460  -0.320   6.284   7.164 -0.8957  0.0877  0.0161
  497MOL0     C68461  -0.468   6.318   7.171  0.4489 -0.2301 -0.2108
  497MOL0     C68462  -0.539   6.239   7.051  0.7477 -0.6374  0.3510
  497MOL0     C68463  -0.686   6.253   7.062  0.3914 -0.9006 -0.0681
  497MOL0     C68464  -0.756   6.181   6.950  0.6047 -0.1713 -0.0618
  497MOL0     N68465  -0.906   6.198   6.956  0.3273  0.0831  0.6959
  497MOL0     C68466  -0.972   6.298   7.013  0.2386 -0.0753 -0.1161
  497MOL0     C68467  -1.098   6.245   7.022  0.0138 -0.1879  0.4200
  497MOL0     C68468  -1.214   6.327   7.071 -0.8534 -0.4707 -0.7796
  497MOL0     C68469  -1.352   6.261   7.080 -0.2808 -0.6679  1.6035
  497MOL0     C68470  -1.442   6.254   6.956 -0.1199 -0.5431  0.6652
  497MOL0     C68471  -1.541   6.135   6.974 -0.4115  0.0449 -0.3511
  497MOL0     O68472  -1.613   6.137   6.855  1.1598  0.2534  0.0795
  497MOL0     C68473  -1.581   6.047   6.755 -0.6929  0.4959  0.4916
  497MOL0     C68474  -1.455   5.986   6.737  0.2991 -0.1818 -0.3664
  497MOL0     C68475  -1.438   5.894   6.637 -0.3245  0.4088  0.8052
  497MOL0     C68476  -1.299   5.827   6.621 -0.0673  0.1230  0.1392
  497MOL0     C68477  -1.540   5.874   6.540 -0.8323  0.7400  0.4642
  497MOL0     C68478  -1.553   5.762   6.434 -0.0583  0.5515  0.4444
  497MOL0     O68479  -1.661   5.771   6.346 -0.5332  1.0568 -0.3118
  497MOL0     C68480  -1.689   5.651   6.284  0.2793  0.4114  0.2541
  497MOL0     C68481  -1.691   5.527   6.337  0.0135  0.2782 -1.0368
  497MOL0     C68482  -1.721   5.416   6.256 -0.6092 -0.2773 -0.1363
  497MOL0     C68483  -1.746   5.413   6.125 -0.1230 -0.2504 -1.1680
  497MOL0     O68484  -1.814   5.307   6.064 -0.7063 -0.9034 -0.9760
  497MOL0     C68485  -1.780   5.292   5.924 -0.3124  0.0655  0.0125
  497MOL0     C68486  -1.892   5.240   5.835  1.2662 -0.1319 -0.5780
  497MOL0     C68487  -1.976   5.360   5.793 -0.6525  0.5022  1.3546
  497MOL0     C68488  -2.113   5.328   5.733  0.0682  0.1077 -0.0098
  497MOL0     C68489  -2.183   5.456   5.693  0.3221 -0.4391 -0.3145
  497MOL0     C68490  -2.317   5.415   5.640 -0.3468  0.2004 -1.1368
  497MOL0     C68491  -2.403   5.539   5.603 -0.0081 -0.5462 -0.5322
  497MOL0     C68492  -2.528   5.517   5.519  0.7978  0.3881 -0.4978
  497MOL0    Cl68493  -2.654   5.438   5.606  0.6220  0.0670 -0.0373
  497MOL0     C68494  -1.741   5.540   6.071 -0.0712 -1.1084  0.0538
  497MOL0     C68495  -1.719   5.660   6.146 -0.3437  0.1547 -0.4423
  497MOL0     O68496  -1.457   5.690   6.421  0.0363 -0.2498  0.7546
  497MOL0     C68497  -1.661   5.939   6.557 -0.6247 -0.5600  0.7075
  497MOL0     C68498  -1.677   6.029   6.660 -0.1902 -0.0443 -0.1195
  497MOL0     N68499  -1.108   6.125   6.953  0.2427  0.4962  1.1649
  497MOL0     N68500  -0.989   6.102   6.906  0.0407  0.0863 -0.1820
  497MOL0     C68501   0.228   6.604   7.324  0.3372 -0.0232  0.4922
  497MOL0     C68502   0.320   6.710   7.351  0.4024  0.4415 -0.1848
  497MOL0     C68503   0.563   7.006   7.562  0.1754 -0.3906 -0.9376
  497MOL0     C68504   0.480   7.090   7.641 -0.7570 -0.3664 -0.9426
  497MOL0     C68505   0.536   7.197   7.714  0.0985  0.4065 -0.5465
  497MOL0     C68506   0.673   7.222   7.708  0.0792  0.6793  0.3603
  497MOL0     O68507   0.737   7.318   7.782  0.1806  0.6226 -0.0449
  497MOL0     C68508   0.672   7.432   7.838 -0.1230  0.6127 -1.5923
  497MOL0     C68509   0.655   7.552   7.744  0.0732 -0.5476 -0.3931
  497MOL0     C68510   0.797   7.612   7.692 -0.2268  0.4610  0.1983
  497MOL0     C68511   0.771   7.699   7.570 -0.3809 -1.0874  0.1495
  497MOL0     C68512   0.892   7.745   7.502  0.8569  0.4040  0.3495
  497MOL0     C68513   0.991   7.771   7.451 -0.4012 -0.3555 -0.7325
  497MOL0     C68514   0.749   7.143   7.626 -0.2838  0.1209  0.1266
  497MOL0     C68515   0.703   7.035   7.552 -0.2708  0.1347  0.2974
  497MOL0     C68516   0.809   6.950   7.484  0.3295 -0.5030 -0.6521
  497MOL0     H68517   0.116   6.903   7.536  0.1131  0.2507  0.9870
  497MOL0     H68518  -0.030   6.711   7.492  0.4019 -1.2219 -0.5850
  497MOL0     H68519  -0.000   6.333   7.433  0.8064  2.1658  1.8453
  497MOL0     H68520   0.126   6.348   7.319 -0.6405 -2.1030 -0.4557
  497MOL0     H68521  -0.051   6.361   7.145 -1.0658  1.6988  0.6091
  497MOL0     H68522  -0.060   6.207   7.238  3.1681 -0.2672  5.9805
  497MOL0     H68523  -0.260   6.298   7.373  1.2782  0.2262  0.8680
  497MOL0     H68524  -0.249   6.448   7.287  0.0935  0.1728 -1.1263
  497MOL0     H68525  -0.281   6.310   7.065 -1.0877 -0.5572 -0.2404
  497MOL0     H68526  -0.313   6.175   7.172 -0.8938  0.2153  2.2288
  497MOL0     H68527  -0.473   6.425   7.153 -1.6502 -0.0539  1.1081
  497MOL0     H68528  -0.523   6.295   7.263  0.6131 -1.8149 -0.4691
  497MOL0     H68529  -0.514   6.289   6.957  3.2547 -1.1819  0.6434
  497MOL0     H68530  -0.514   6.132   7.044  0.9489 -0.6854  1.5889
  497MOL0     H68531  -0.713   6.358   7.049 -1.2911 -1.2817  0.1728
  497MOL0     H68532  -0.714   6.219   7.162  3.4241  0.5537  1.3927
  497MOL0     H68533  -0.719   6.216   6.854  2.5616 -0.4092  0.5583
  497MOL0     H68534  -0.718   6.078   6.945  2.5838  0.4945  0.4776
  497MOL0     H68535  -0.933   6.391   7.053  1.0829 -0.6442  0.4073
  497MOL0     H68536  -1.222   6.422   7.017  1.1665  0.0125 -0.3360
  497MOL0     H68537  -1.175   6.351   7.170  1.7055  1.0509 -2.0345
  497MOL0     H68538  -1.341   6.161   7.125 -0.5575 -1.8383 -0.7845
  497MOL0     H68539  -1.410   6.318   7.153 -4.0701 -0.3858 -1.3550
  497MOL0     H68540  -1.498   6.347   6.939 -1.4241 -1.4805 -0.3699
  497MOL0     H68541  -1.380   6.226   6.871 -3.5674 -0.7065 -2.0213
  497MOL0     H68542  -1.501   6.035   6.995 -0.7223 -0.5790 -2.4365
  497MOL0     H68543  -1.602   6.162   7.060 -0.8938  1.0870 -1.0026
  497MOL0     H68544  -1.377   6.015   6.808  1.1159  0.3905 -1.4746
  497MOL0     H68545  -1.216   5.882   6.665  0.7923 -1.6646  0.8722
  497MOL0     H68546  -1.283   5.793   6.518 -0.2305  0.5432 -0.0276
  497MOL0     H68547  -1.295   5.732   6.675 -0.3075  0.5485  0.9142
  497MOL0     H68548  -1.660   5.505   6.439  0.4820 -0.6282 -1.3638
  497MOL0     H68549  -1.725   5.323   6.313 -0.7176  1.5473  3.0743
  497MOL0     H68550  -1.766   5.389   5.876 -4.4776  1.4177  1.1387
  497MOL0     H68551  -1.688   5.235   5.909 -2.0402 -2.7916 -0.5662
  497MOL0     H68552  -1.858   5.183   5.749 -1.4016 -1.7523 -0.6821
  497MOL0     H68553  -1.948   5.170   5.897  1.2735 -0.7577 -1.2650
  497MOL0     H68554  -1.918   5.413   5.717  0.5815 -0.9981  1.2005
  497MOL0     H68555  -1.981   5.434   5.873 -0.3241  0.5554  1.3265
  497MOL0     H68556  -2.152   5.272   5.818  1.1281 -1.8301 -0.7157
  497MOL0     H68557  -2.107   5.260   5.647  2.3823  0.9231 -0.5702
  497MOL0     H68558  -2.198   5.523   5.778 -4.6805  0.9788 -1.9374
  497MOL0     H68559  -2.126   5.516   5.621 -0.4758 -0.4723 -0.9985
  497MOL0     H68560  -2.370   5.356   5.715  0.8381  1.3423  0.7060
  497MOL0     H68561  -2.290   5.348   5.558  1.5827 -1.3467  0.6520
  497MOL0     H68562  -2.337   5.608   5.551 -1.1940 -1.6046 -3.7013
  497MOL0     H68563  -2.428   5.574   5.703  1.1198 -1.6196  0.1503
  497MOL0     H68564  -2.495   5.448   5.441  2.5883 -0.0216  0.5781
  497MOL0     H68565  -2.575   5.610   5.483 -2.1106 -0.2900  1.2359
  497MOL0     H68566  -1.781   5.557   5.972 -1.3423 -0.2604  0.6887
  497MOL0     H68567  -1.731   5.755   6.095  3.0176  1.5353  0.9902
  497MOL0     H68568  -1.749   5.920   6.498 -2.2784 -1.5919  3.3433
  497MOL0     H68569  -1.776   6.073   6.653 -0.2859 -0.2034  0.2078
  497MOL0     H68570   0.244   6.525   7.251  1.0845  1.2170 -0.7240
  497MOL0     H68571   0.417   6.720   7.304 -0.1553  1.4403 -1.1666
  497MOL0     H68572   0.372   7.078   7.648 -0.5181 -2.1431  0.3064
  497MOL0     H68573   0.475   7.258   7.780 -0.1776  3.2675 -3.2315
  497MOL0     H68574   0.576   7.407   7.884 -0.4712  0.0708 -2.5846
  497MOL0     H68575   0.737   7.458   7.922  0.5846 -3.3788 -0.7311
  497MOL0     H68576   0.592   7.628   7.791 -0.3068 -0.8653 -0.3843
  497MOL0     H68577   0.607   7.516   7.652  0.3471 -2.6344  0.2119
  497MOL0     H68578   0.848   7.667   7.772  0.9501  0.4236 -0.5010
  497MOL0     H68579   0.862   7.527   7.671 -0.7397  0.0207  0.3557
  497MOL0     H68580   0.730   7.791   7.614  3.9053  0.8457  0.5791
  497MOL0     H68581   0.699   7.665   7.495 -0.3285  1.3277 -1.0794
  497MOL0     H68582   1.059   7.825   7.387  1.3416 -0.6988  0.7528
  497MOL0     H68583   0.854   7.169   7.638  0.2407 -2.0862  1.0005
  497MOL0     H68584   0.799   6.926   7.378 -2.2421 -1.5413 -0.2265
  497MOL0     H68585   0.912   6.983   7.504 -0.3030  1.5581 -0.5564
  497MOL0     H68586   0.800   6.853   7.534 -0.7666  0.1227  0.4174
  498MOL0     O68587  10.539   7.185   8.826  0.7984 -0.1205  0.6271
  498MOL0     C68588  10.461   7.167   8.915 -0.1428 -0.4660  0.1988
  498MOL0     O68589  10.349   7.227   8.927  0.1465 -0.1315  0.4519
  498MOL0     C68590  10.303   7.331   8.849  1.2388  0.1034  0.2300
  498MOL0     C68591  10.333   7.356   8.712  0.7144 -0.0657 -0.0435
  498MOL0     C68592  10.282   7.471   8.644 -0.3220  2.0190 -0.2455
  498MOL0     C68593  10.194   7.559   8.699 -0.4727 -0.4303 -0.6583
  498MOL0     O68594  10.152   7.668   8.632  0.4723  0.4312  0.5145
  498MOL0     C68595  10.239   7.776   8.626 -1.0690 -0.0903  0.7083
  498MOL0     C68596  10.317   7.772   8.494  0.4338  0.4469 -0.6841
  498MOL0     C68597  10.224   7.772   8.371 -0.7342  0.8036 -0.4291
  498MOL0     C68598  10.320   7.779   8.249 -0.6646 -0.5624  0.1360
  498MOL0     C68599  10.248   7.809   8.125  0.2655  0.3307 -0.0222
  498MOL0     C68600  10.336   7.853   8.012 -1.1394  0.3306  0.1033
  498MOL0     C68601  10.255   7.883   7.894 -0.2473 -0.9935  0.0343
  498MOL0     C68602  10.355   7.907   7.781  0.1310  0.7507  0.7323
  498MOL0     N68603  10.283   7.967   7.667  0.8944 -0.6267 -0.6495
  498MOL0     C68604  10.154   7.959   7.621  0.4904  0.4652  0.0428
  498MOL0     C68605  10.152   8.027   7.501  0.7182 -0.2459 -0.2725
  498MOL0     C68606  10.029   8.056   7.423 -0.1768  0.8957 -0.6431
  498MOL0     C68607   9.999   7.971   7.299  0.1281  0.2902 -0.2733
  498MOL0     C68608  10.092   8.003   7.179  0.0262 -0.5513 -0.1317
  498MOL0     C68609  10.095   7.894   7.073 -0.9845 -0.5419  0.4476
  498MOL0     O68610  10.143   7.953   6.954 -0.9809  0.4550  0.1278
  498MOL0     C68611  10.274   7.949   6.927 -0.6091 -0.1834  0.1359
  498MOL0     C68612  10.319   7.967   6.801  0.3649 -0.4596  0.6154
  498MOL0     C68613  10.448   7.949   6.759  0.1532 -0.2777 -0.6286
  498MOL0     C68614  10.472   8.005   6.616 -0.3110  0.4290  1.2445
  498MOL0     C68615  10.548   7.894   6.849  0.8087 -0.0312  0.0017
  498MOL0     C68616  10.691   7.867   6.813  0.1345  0.4223  0.0457
  498MOL0     O68617  10.723   7.882   6.678 -0.0037  0.2449 -0.1288
  498MOL0     C68618  10.852   7.887   6.639  0.0792 -0.2452  0.0547
  498MOL0     C68619  10.958   7.797   6.669  0.9046  0.2973  0.4709
  498MOL0     C68620  11.089   7.825   6.629 -0.5863  0.3518  0.7174
  498MOL0     C68621  11.113   7.935   6.544  0.0037  0.1767 -0.1387
  498MOL0     O68622  11.242   7.962   6.524 -0.1923 -0.2240 -0.5316
  498MOL0     C68623  11.281   8.062   6.423 -0.0037  0.0262 -0.3716
  498MOL0     C68624  11.244   8.022   6.282  0.3863 -0.3078 -0.0868
  498MOL0     C68625  11.323   8.104   6.184 -0.0296  0.7268  0.5670
  498MOL0     C68626  11.462   8.047   6.150  0.7803  0.0285  0.0915
  498MOL0     C68627  11.567   8.148   6.125 -0.1578 -0.4066  0.0809
  498MOL0     C68628  11.549   8.217   5.982  0.0781 -0.7777  0.1634
  498MOL0     C68629  11.424   8.319   5.981 -0.7236  0.4891 -0.0006
  498MOL0     C68630  11.426   8.436   5.882 -0.7973  0.2089 -0.2230
  498MOL0    Cl68631  11.323   8.550   5.960 -0.1776  0.5395  0.1166
  498MOL0     C68632  11.014   8.021   6.504  0.9691 -1.3373  0.2278
  498MOL0     C68633  10.885   8.000   6.553  0.3285  0.7307  0.0063
  498MOL0     O68634  10.766   7.814   6.893 -0.2610 -0.7336 -0.3583
  498MOL0     C68635  10.508   7.888   6.988  0.0609  0.2154  0.4612
  498MOL0     C68636  10.377   7.908   7.020  0.2189 -0.0688  0.8030
  498MOL0     N68637  10.281   8.081   7.487  0.2819  0.6297 -0.3466
  498MOL0     N68638  10.360   8.036   7.584 -0.0976 -0.8366  0.9683
  498MOL0     C68639  10.155   7.538   8.835 -0.4899  0.7211  0.7832
  498MOL0     C68640  10.212   7.423   8.907  0.3997 -0.8614 -0.4777
  498MOL0     C68641  10.482   7.056   9.007 -0.2100 -0.3788  0.4209
  498MOL0     C68642  10.382   7.032   9.114  0.1793  0.6180 -0.0568
  498MOL0     C68643  10.404   6.939   9.223  0.1011  0.8842  0.1924
  498MOL0     C68644  10.515   6.855   9.224 -0.2602  0.8742 -0.0845
  498MOL0     O68645  10.524   6.764   9.330  0.2529  0.1836 -0.1120
  498MOL0     C68646  10.648   6.687   9.357 -0.4390  0.2257 -0.2403
  498MOL0     C68647  10.732   6.784   9.440  0.7465 -0.9193  1.5112
  498MOL0     C68648  10.653   6.793   9.578  0.4650 -0.2384 -0.2534
  498MOL0     C68649  10.741   6.861   9.681 -1.1544  0.8239  0.3897
  498MOL0     C68650  10.684   6.844   9.814 -0.2264 -0.1853 -0.4519
  498MOL0     C68651  10.639   6.841   9.923  0.2497  0.0775  0.1442
  498MOL0     C68652  10.602   6.867   9.114 -0.3956 -0.1126  0.0398
  498MOL0     C68653  10.596   6.960   9.008  0.6399 -0.8161  0.1263
  498MOL0     C68654  10.695   6.938   8.888  1.3203  0.3586 -0.4311
  498MOL0     H68655  10.404   7.301   8.650  0.9891  0.2718 -0.0266
  498MOL0     H68656  10.315   7.476   8.541 -0.2649 -0.7042 -0.4481
  498MOL0     H68657  10.311   7.777   8.709 -0.5063  0.1856  0.2219
  498MOL0     H68658  10.185   7.871   8.626  2.7554  2.3239  3.0869
  498MOL0     H68659  10.377   7.863   8.498 -1.2319  1.5802  3.4668
  498MOL0     H68660  10.380   7.684   8.483 -0.4830 -0.2177 -0.7680
  498MOL0     H68661  10.159   7.685   8.361  1.4521 -0.8743 -0.6753
  498MOL0     H68662  10.152   7.853   8.387 -0.1107  1.6547 -1.7734
  498MOL0     H68663  10.389   7.860   8.276  0.1521 -0.6595 -1.5551
  498MOL0     H68664  10.379   7.687   8.242  1.0977 -0.0029  4.3422
  498MOL0     H68665  10.171   7.884   8.145 -0.6390 -0.5118 -0.2214
  498MOL0     H68666  10.183   7.725   8.097  0.3190  0.4285 -0.4430
  498MOL0     H68667  10.389   7.944   8.038 -3.1773  1.6822 -0.2362
  498MOL0     H68668  10.415   7.779   7.996 -1.3450 -0.1784  1.2991
  498MOL0     H68669  10.192   7.967   7.923 -2.8948 -2.9194  0.2411
  498MOL0     H68670  10.190   7.797   7.873  1.2675 -1.9265 -1.1017
  498MOL0     H68671  10.437   7.972   7.811  0.1168  0.8952  0.4576
  498MOL0     H68672  10.397   7.810   7.751  1.3770  0.5540  2.8950
  498MOL0     H68673  10.074   7.908   7.673 -1.0828  0.3698 -2.2909
  498MOL0     H68674  10.038   8.161   7.391  1.3118  0.9557 -0.1103
  498MOL0     H68675   9.945   8.044   7.492  2.2657 -0.2287  2.3531
  498MOL0     H68676  10.014   7.865   7.322  2.2963  0.7240  0.5720
  498MOL0     H68677   9.895   7.983   7.268  0.7444  1.2223 -2.0776
  498MOL0     H68678  10.060   8.092   7.124  4.4592  0.6711 -1.1227
  498MOL0     H68679  10.198   8.020   7.199  0.7706 -0.7754 -3.3121
  498MOL0     H68680  10.155   7.808   7.103  0.8801  0.3766 -0.5268
  498MOL0     H68681   9.991   7.863   7.053 -0.9388 -1.1993  1.1771
  498MOL0     H68682  10.240   8.002   6.735  0.2226  0.5291  1.2889
  498MOL0     H68683  10.487   7.930   6.537  0.0614  0.7122  1.0403
  498MOL0     H68684  10.557   8.073   6.609 -1.7604  2.1999 -2.8837
  498MOL0     H68685  10.376   8.049   6.586 -0.3570  0.5359  1.5529
  498MOL0     H68686  10.941   7.706   6.725 -0.1347 -0.2082 -0.6215
  498MOL0     H68687  11.163   7.751   6.659  0.3903  1.8961  2.3178
  498MOL0     H68688  11.240   8.157   6.458  0.0944 -0.6540  1.7235
  498MOL0     H68689  11.387   8.079   6.445 -0.3855  2.5426 -0.0977
  498MOL0     H68690  11.292   7.924   6.284  2.1922  0.4840  3.1204
  498MOL0     H68691  11.136   8.009   6.269  0.3723 -0.8794  0.5417
  498MOL0     H68692  11.337   8.205   6.223 -2.4206  1.6685 -0.8272
  498MOL0     H68693  11.259   8.107   6.095 -0.3972 -4.1383  0.3835
  498MOL0     H68694  11.440   7.983   6.064 -4.2887 -0.3260  1.3287
  498MOL0     H68695  11.494   7.989   6.236  2.6526 -1.2351 -1.3674
  498MOL0     H68696  11.575   8.220   6.207  2.0285 -0.2705 -0.2064
  498MOL0     H68697  11.668   8.106   6.119  0.1419  0.3241 -0.0307
  498MOL0     H68698  11.539   8.141   5.904  2.9368  2.2067 -3.5145
  498MOL0     H68699  11.640   8.272   5.954 -0.3034  0.6029  1.4902
  498MOL0     H68700  11.432   8.369   6.078  1.3435  1.3789 -0.5690
  498MOL0     H68701  11.333   8.262   5.962  0.0189 -0.0451 -2.4021
  498MOL0     H68702  11.380   8.415   5.785  0.8293  2.4848 -1.5934
  498MOL0     H68703  11.528   8.472   5.863  1.4364 -4.2741  1.7893
  498MOL0     H68704  11.033   8.110   6.445 -1.6137 -1.0819 -0.3275
  498MOL0     H68705  10.809   8.076   6.533 -0.0258  0.0544 -1.3304
  498MOL0     H68706  10.582   7.857   7.061 -0.0612 -1.6628 -0.1538
  498MOL0     H68707  10.347   7.877   7.120 -0.3556 -1.6870  0.1679
  498MOL0     H68708  10.082   7.605   8.879 -1.5371 -0.6546  1.2105
  498MOL0     H68709  10.182   7.404   9.010 -0.2800 -2.8923 -1.0024
  498MOL0     H68710  10.301   7.104   9.125  0.2398  0.8373 -1.0082
  498MOL0     H68711  10.335   6.933   9.307  1.6301  0.0338  1.4596
  498MOL0     H68712  10.622   6.594   9.409 -4.5067  2.5063  2.4193
  498MOL0     H68713  10.701   6.652   9.269  1.3732  1.1723  0.4331
  498MOL0     H68714  10.730   6.888   9.408  0.2684 -0.0745  4.0133
  498MOL0     H68715  10.836   6.754   9.453  0.7386 -1.1019  1.1851
  498MOL0     H68716  10.561   6.852   9.575  2.2277  2.8213  1.0553
  498MOL0     H68717  10.617   6.696   9.611  1.5739 -1.5314 -2.5838
  498MOL0     H68718  10.768   6.963   9.656  0.5420  0.2050 -0.4233
  498MOL0     H68719  10.832   6.801   9.682  0.8602  3.6536 -1.1958
  498MOL0     H68720  10.595   6.835  10.020 -1.1032  3.4344 -0.1545
  498MOL0     H68721  10.671   6.783   9.115 -1.7009 -1.2459  2.0799
  498MOL0     H68722  10.756   6.850   8.912 -0.9183 -0.3793  3.3490
  498MOL0     H68723  10.636   6.901   8.804 -0.8456 -0.8086  1.4801
  498MOL0     H68724  10.744   7.032   8.860  1.1676  0.2738 -0.9990
  499MOL0     O68725   6.722   1.547   9.099 -0.0280 -0.6595 -0.6986
  499MOL0     C68726   6.693   1.494   9.209  0.2134 -0.1576  0.2954
  499MOL0     O68727   6.688   1.363   9.234 -0.3402 -0.0794  0.0519
  499MOL0     C68728   6.743   1.283   9.134  0.8466  0.4064 -0.0195
  499MOL0     C68729   6.664   1.179   9.085 -0.0179 -0.4000 -1.2686
  499MOL0     C68730   6.715   1.092   8.985 -0.4811  0.3650 -0.7363
  499MOL0     C68731   6.851   1.108   8.945  0.7922  0.1136  0.0393
  499MOL0     O68732   6.921   1.022   8.872  0.2490  0.2586 -0.2494
  499MOL0     C68733   6.857   0.901   8.816  0.9642  0.9973 -0.2498
  499MOL0     C68734   6.957   0.812   8.744 -0.3465 -0.3511  0.0534
  499MOL0     C68735   7.088   0.791   8.826 -0.1714  0.0784 -0.3691
  499MOL0     C68736   7.187   0.721   8.728 -0.1018 -0.2835  0.1585
  499MOL0     C68737   7.323   0.699   8.795 -0.8628 -0.5889  0.6553
  499MOL0     C68738   7.320   0.577   8.886  0.3568  0.1547  0.7283
  499MOL0     C68739   7.464   0.523   8.924 -0.4050  0.5467  0.3105
  499MOL0     C68740   7.482   0.368   8.947  0.3643  0.3526  0.0001
  499MOL0     N68741   7.415   0.346   9.077  0.9219 -0.2365  0.3100
  499MOL0     C68742   7.278   0.350   9.101  0.3473  0.1840 -0.4312
  499MOL0     C68743   7.256   0.378   9.233  0.1670 -1.0212  0.1265
  499MOL0     C68744   7.129   0.392   9.306  0.5410 -0.4884  0.5324
  499MOL0     C68745   7.099   0.517   9.375 -0.6787 -0.3240 -0.5283
  499MOL0     C68746   7.081   0.631   9.270 -0.2333 -0.7974 -0.1678
  499MOL0     C68747   7.039   0.761   9.333  0.1574 -0.1756 -0.3708
  499MOL0     O68748   6.892   0.765   9.360 -0.1629  0.8326 -0.6170
  499MOL0     C68749   6.858   0.868   9.446 -0.3190  1.0600 -0.2188
  499MOL0     C68750   6.817   0.835   9.573  0.3817 -0.1107  0.1117
  499MOL0     C68751   6.760   0.940   9.651 -0.3517 -0.5548 -0.5648
  499MOL0     C68752   6.712   0.900   9.788  0.2267  0.2056 -0.2016
  499MOL0     C68753   6.767   1.074   9.615 -0.2637  0.4403 -0.0813
  499MOL0     C68754   6.717   1.191   9.694  1.2898  0.4155  0.0603
  499MOL0     O68755   6.651   1.172   9.814 -0.0143  0.3797  0.3697
  499MOL0     C68756   6.590   1.279   9.866  0.2170 -0.6510 -0.8897
  499MOL0     C68757   6.447   1.288   9.865 -0.1621  0.1299 -0.1712
  499MOL0     C68758   6.384   1.390   9.937 -0.0141 -0.8124  0.5244
  499MOL0     C68759   6.464   1.495  10.002 -0.2472 -0.2265 -0.1317
  499MOL0     O68760   6.400   1.597  10.069 -0.2403 -1.1150  0.2418
  499MOL0     C68761   6.449   1.634  10.199 -0.8005 -0.0969  0.1712
  499MOL0     C68762   6.328   1.663  10.283  0.5256  0.2314 -0.4854
  499MOL0     C68763   6.367   1.738  10.405  0.2294 -0.4514  0.7334
  499MOL0     C68764   6.243   1.799  10.468  0.8806 -0.6105  0.7531
  499MOL0     C68765   6.274   1.892  10.584  0.8040 -0.8283  0.5731
  499MOL0     C68766   6.322   1.805  10.697  0.1260  0.0566 -0.2838
  499MOL0     C68767   6.200   1.738  10.782 -0.6851 -1.0857 -0.9535
  499MOL0     C68768   6.224   1.740  10.935 -0.0798  0.3472 -0.3455
  499MOL0    Cl68769   6.359   1.636  10.970 -0.0658  0.4498 -0.1277
  499MOL0     C68770   6.601   1.483  10.011  0.3922  0.4169  0.7921
  499MOL0     C68771   6.651   1.368   9.946  0.3246  0.6164  0.3474
  499MOL0     O68772   6.732   1.303   9.644 -0.5562 -0.4222  0.0462
  499MOL0     C68773   6.800   1.099   9.481 -0.0438  0.0925  0.3887
  499MOL0     C68774   6.857   1.004   9.398 -0.2667  0.2299 -0.8057
  499MOL0     N68775   7.380   0.369   9.285  0.1270 -0.4514  0.0086
  499MOL0     N68776   7.471   0.365   9.198 -0.0332 -0.0070 -0.2450
  499MOL0     C68777   6.926   1.206   9.005 -0.0112 -0.0124  0.3935
  499MOL0     C68778   6.871   1.298   9.084 -0.7747  0.4018  0.2339
  499MOL0     C68779   6.627   1.584   9.312  0.6521 -0.3017 -0.8846
  499MOL0     C68780   6.560   1.524   9.422 -0.0712  0.0655 -0.5256
  499MOL0     C68781   6.505   1.604   9.515  0.3599 -0.1134 -0.6086
  499MOL0     C68782   6.484   1.742   9.492  0.0440 -0.4613  0.0878
  499MOL0     O68783   6.413   1.831   9.565  0.2864 -0.9246  0.5870
  499MOL0     C68784   6.341   1.767   9.671  0.5154 -0.2926  0.2631
  499MOL0     C68785   6.268   1.871   9.765 -0.5794 -0.2730  0.6664
  499MOL0     C68786   6.180   1.791   9.867 -0.5138  0.0451 -0.2093
  499MOL0     C68787   6.102   1.884   9.962 -0.2852  0.2229 -0.4236
  499MOL0     C68788   6.187   1.976  10.048  0.2564  0.0169  0.2636
  499MOL0     C68789   6.248   2.046  10.125  0.1881 -1.1086  0.0083
  499MOL0     C68790   6.554   1.809   9.388  0.7000 -0.0626 -0.8294
  499MOL0     C68791   6.627   1.728   9.304  0.1021  0.0283  1.0286
  499MOL0     C68792   6.683   1.804   9.188 -0.9306  0.0950  1.1724
  499MOL0     H68793   6.560   1.167   9.115  0.2416  1.8269  0.8027
  499MOL0     H68794   6.643   1.020   8.946 -0.6726  1.4444 -2.5077
  499MOL0     H68795   6.792   0.932   8.734 -0.5048 -2.4206 -0.4934
  499MOL0     H68796   6.792   0.847   8.885  0.1286  1.8743 -0.3349
  499MOL0     H68797   6.916   0.715   8.715  0.4009 -0.1567 -1.7404
  499MOL0     H68798   6.981   0.847   8.644 -0.7119 -1.7442 -0.5507
  499MOL0     H68799   7.131   0.883   8.865  2.3586 -1.1379 -0.1104
  499MOL0     H68800   7.065   0.726   8.911  1.6467 -2.5354 -1.7514
  499MOL0     H68801   7.141   0.631   8.685 -1.2810 -0.6998  2.1631
  499MOL0     H68802   7.204   0.785   8.641 -0.5596 -0.9760 -0.4513
  499MOL0     H68803   7.368   0.783   8.848 -0.4599  0.4588 -1.2314
  499MOL0     H68804   7.394   0.673   8.715 -1.2780 -0.1987  0.1489
  499MOL0     H68805   7.278   0.633   8.970  1.9694  3.1658 -0.3266
  499MOL0     H68806   7.259   0.497   8.842 -2.1522  0.4026  3.4712
  499MOL0     H68807   7.488   0.583   9.013 -1.9215  2.2042 -0.3269
  499MOL0     H68808   7.538   0.559   8.852 -0.3650 -0.6971 -0.2820
  499MOL0     H68809   7.424   0.307   8.878  0.0231 -1.0535  1.4749
  499MOL0     H68810   7.583   0.327   8.938  0.5408  0.1694  2.2122
  499MOL0     H68811   7.207   0.345   9.019  2.4035 -2.0401 -2.2367
  499MOL0     H68812   7.119   0.321   9.389 -0.6040  1.9294  2.5908
  499MOL0     H68813   7.058   0.377   9.225  1.4346  1.2671 -0.6394
  499MOL0     H68814   7.008   0.515   9.435  1.1623 -0.9764  2.4812
  499MOL0     H68815   7.189   0.546   9.431 -1.3482  4.5653 -1.5518
  499MOL0     H68816   7.175   0.654   9.219 -0.9801  0.2903 -1.1103
  499MOL0     H68817   7.009   0.618   9.189 -1.3365  3.5897 -0.1723
  499MOL0     H68818   7.094   0.781   9.425 -1.4946 -2.2142  1.1539
  499MOL0     H68819   7.066   0.841   9.262 -3.6085  0.4441 -1.3667
  499MOL0     H68820   6.816   0.733   9.609 -2.5987 -0.3715 -0.4349
  499MOL0     H68821   6.603   0.907   9.783  0.1247 -0.7744  0.3583
  499MOL0     H68822   6.766   0.971   9.850  1.9389 -0.2340 -1.1259
  499MOL0     H68823   6.752   0.800   9.808  0.6257  0.2617 -0.6880
  499MOL0     H68824   6.385   1.218   9.811 -4.5854  2.5278  1.2750
  499MOL0     H68825   6.276   1.401   9.934  0.2440  2.3199 -1.7052
  499MOL0     H68826   6.514   1.555  10.237  1.5566  1.3548 -0.5693
  499MOL0     H68827   6.519   1.719  10.198  3.0452 -2.9611 -1.0648
  499MOL0     H68828   6.254   1.726  10.232  0.3418  0.8104  0.4730
  499MOL0     H68829   6.279   1.567  10.302 -0.3415  0.7557  0.0101
  499MOL0     H68830   6.430   1.825  10.380 -0.4957 -0.1485 -0.0942
  499MOL0     H68831   6.421   1.677  10.478 -2.5674 -4.0571  0.0824
  499MOL0     H68832   6.175   1.719  10.497  0.7903 -0.0783  2.0745
  499MOL0     H68833   6.207   1.860  10.384  1.6227 -2.2565 -0.8380
  499MOL0     H68834   6.343   1.973  10.561  3.2651 -2.3449  2.1060
  499MOL0     H68835   6.182   1.945  10.610  1.6183  1.8473 -1.5097
  499MOL0     H68836   6.379   1.872  10.762  1.3008 -1.5161  0.3899
  499MOL0     H68837   6.391   1.724  10.669 -0.6356 -1.9183  2.9736
  499MOL0     H68838   6.175   1.639  10.743  2.1142 -2.1110 -0.4019
  499MOL0     H68839   6.115   1.805  10.766 -1.4232 -2.2312 -1.9866
  499MOL0     H68840   6.141   1.705  10.997  1.6004  1.9703  3.1123
  499MOL0     H68841   6.269   1.835  10.965 -0.4588 -0.4642  3.1968
  499MOL0     H68842   6.659   1.564  10.055 -0.2528  0.7890  0.9738
  499MOL0     H68843   6.755   1.337   9.951  0.1766  0.0341 -0.1236
  499MOL0     H68844   6.812   1.199   9.440 -5.6606  0.0149 -2.3169
  499MOL0     H68845   6.880   1.037   9.297 -4.4900  0.2982 -1.9481
  499MOL0     H68846   7.032   1.214   8.984 -0.2003  0.3061 -0.4789
  499MOL0     H68847   6.918   1.382   9.135 -0.1869  0.5258 -0.4917
  499MOL0     H68848   6.564   1.416   9.436 -1.2569  0.1288  0.3878
  499MOL0     H68849   6.459   1.563   9.604  1.7775  1.4332  0.9130
  499MOL0     H68850   6.270   1.697   9.626  1.6153 -0.1533 -1.7722
  499MOL0     H68851   6.402   1.703   9.736  2.1666 -0.8780 -1.7771
  499MOL0     H68852   6.203   1.935   9.705  1.1211  1.6217  0.7310
  499MOL0     H68853   6.334   1.933   9.827  0.3959 -1.9098  1.3469
  499MOL0     H68854   6.112   1.725   9.812  0.5942 -1.4507  0.1465
  499MOL0     H68855   6.244   1.726   9.928  0.6729  1.0536 -0.3437
  499MOL0     H68856   6.039   1.814  10.018 -0.6222 -0.9468 -2.1959
  499MOL0     H68857   6.032   1.936   9.896 -1.7754 -2.1273 -0.8104
  499MOL0     H68858   6.314   2.101  10.188  5.2647 -1.8676 -4.0145
  499MOL0     H68859   6.554   1.916   9.370 -0.4403  0.1806  0.4361
  499MOL0     H68860   6.720   1.904   9.215  0.4214  0.8225 -2.6639
  499MOL0     H68861   6.777   1.763   9.150 -1.1532  1.4793 -1.0746
  499MOL0     H68862   6.613   1.799   9.103  0.4344 -0.4810  0.0389
  500MOL0     O68863  11.271   1.503   7.261 -0.0152  0.3349  0.3928
  500MOL0     C68864  11.183   1.572   7.313 -0.3560 -0.4060  0.0447
  500MOL0     O68865  11.136   1.694   7.267 -0.6971 -0.3600 -0.1767
  500MOL0     C68866  11.183   1.709   7.134 -0.4598  0.5315  0.2533
  500MOL0     C68867  11.145   1.623   7.030 -1.3201 -0.5060 -0.4457
  500MOL0     C68868  11.211   1.618   6.907 -0.4182 -0.5537 -0.3267
  500MOL0     C68869  11.320   1.700   6.887  0.5270  0.5238  0.3762
  500MOL0     O68870  11.385   1.705   6.772 -0.5956 -0.2828 -0.5399
  500MOL0     C68871  11.487   1.607   6.757 -0.1144 -0.3918  0.0874
  500MOL0     C68872  11.578   1.643   6.635  1.3184 -0.3096  0.6023
  500MOL0     C68873  11.703   1.551   6.635 -0.2115  0.0015 -0.0094
  500MOL0     C68874  11.822   1.622   6.552  0.2923 -0.7334  0.8215
  500MOL0     C68875  11.922   1.679   6.652  0.7340  0.4964  0.6887
  500MOL0     C68876  12.018   1.778   6.604 -0.2862 -1.3678 -0.2410
  500MOL0     C68877  12.142   1.701   6.547  0.5067  0.6899 -0.2143
  500MOL0     C68878  12.220   1.770   6.429 -0.3675 -0.2555  0.5941
  500MOL0     N68879  12.133   1.810   6.313 -0.3807  0.2777 -0.1941
  500MOL0     C68880  12.185   1.876   6.201  0.0783 -0.0919  0.9386
  500MOL0     C68881  12.092   1.861   6.110  0.7103 -0.9338  0.4751
  500MOL0     C68882  12.098   1.927   5.970 -0.2103  0.3235  0.1654
  500MOL0     C68883  12.175   1.821   5.881 -0.4741 -1.0310  0.2890
  500MOL0     C68884  12.194   1.891   5.746 -0.1826 -0.4347  0.4756
  500MOL0     C68885  12.062   1.891   5.671 -0.3028  0.7284 -0.0979
  500MOL0     O68886  12.109   1.924   5.531  0.3160 -0.0166 -0.2084
  500MOL0     C68887  12.018   1.949   5.427 -0.5144 -1.1970  0.3357
  500MOL0     C68888  12.061   2.038   5.335 -0.6063  0.4014  0.8687
  500MOL0     C68889  11.972   2.081   5.236  0.7673 -0.3160 -0.2845
  500MOL0     C68890  12.010   2.189   5.139 -0.4246 -0.0251 -0.1244
  500MOL0     C68891  11.843   2.016   5.219 -0.0102  0.2306 -0.5829
  500MOL0     C68892  11.755   2.039   5.102 -0.6479  1.1059 -0.3610
  500MOL0     O68893  11.815   2.064   4.984 -0.2280 -0.9831  0.2095
  500MOL0     C68894  11.747   2.118   4.882  0.3966  0.0805 -0.4194
  500MOL0     C68895  11.707   2.259   4.899 -1.3046 -0.1718 -0.3737
  500MOL0     C68896  11.641   2.318   4.797 -0.4459 -0.6197 -0.5591
  500MOL0     C68897  11.588   2.240   4.700 -0.1368  0.0537 -0.2494
  500MOL0     O68898  11.515   2.305   4.605  0.4650 -0.1273 -0.1882
  500MOL0     C68899  11.556   2.309   4.468  0.7693 -0.4553 -0.5427
  500MOL0     C68900  11.493   2.417   4.381 -0.6229  0.6082  0.2154
  500MOL0     C68901  11.353   2.409   4.333  0.2004  0.3536 -0.4476
  500MOL0     C68902  11.251   2.360   4.445  0.3233 -0.3197  0.0305
  500MOL0     C68903  11.233   2.470   4.558 -0.5334 -0.0625 -0.0931
  500MOL0     C68904  11.200   2.611   4.502  0.1850  0.1148 -0.0027
  500MOL0     C68905  11.166   2.699   4.614  0.7583 -0.0686  0.0158
  500MOL0     C68906  11.117   2.831   4.573 -0.3783  0.1435  0.6005
  500MOL0    Cl68907  11.245   2.928   4.485 -0.0468 -0.1249  0.0054
  500MOL0     C68908  11.625   2.112   4.677 -0.6630  0.3889 -0.9962
  500MOL0     C68909  11.705   2.043   4.769 -0.2597 -0.5334 -0.3564
  500MOL0     O68910  11.635   2.025   5.111  0.1743 -0.2183  0.5779
  500MOL0     C68911  11.801   1.926   5.328 -0.3044  0.5368 -0.1444
  500MOL0     C68912  11.891   1.891   5.434 -0.3254  0.0438  0.9317
  500MOL0     N68913  11.990   1.782   6.159 -0.0488  0.6960 -0.6617
  500MOL0     N68914  12.018   1.749   6.280  0.4412 -0.4245  0.0757
  500MOL0     C68915  11.359   1.790   6.989  0.3037 -0.0371 -0.5961
  500MOL0     C68916  11.288   1.791   7.110  0.0458 -0.0124  0.1952
  500MOL0     C68917  11.115   1.517   7.438 -0.2727  0.4257 -0.3197
  500MOL0     C68918  11.086   1.594   7.550 -0.0838 -0.5532  0.0676
  500MOL0     C68919  11.013   1.558   7.662 -1.1346 -0.4331 -0.5811
  500MOL0     C68920  10.980   1.416   7.673 -0.0091 -0.4573  0.2613
  500MOL0     O68921  10.907   1.355   7.777  0.8720  0.4437  0.1041
  500MOL0     C68922  10.875   1.433   7.895 -0.0049 -0.9262 -0.2202
  500MOL0     C68923  10.788   1.348   7.980  0.8034 -0.1821 -0.3359
  500MOL0     C68924  10.724   1.446   8.080 -0.5371  0.8188  0.7072
  500MOL0     C68925  10.813   1.527   8.178 -0.4209 -0.2289  0.0062
  500MOL0     C68926  10.878   1.648   8.129  0.3453  0.2440 -0.2118
  500MOL0     C68927  10.929   1.743   8.077 -0.6957  0.4740 -0.4024
  500MOL0     C68928  11.008   1.335   7.557 -0.3158 -0.4977 -1.5625
  500MOL0     C68929  11.086   1.378   7.453 -0.9335 -0.1128 -0.5327
  500MOL0     C68930  11.122   1.284   7.344 -0.4983  0.1657  1.1678
  500MOL0     H68931  11.078   1.544   7.063  0.2809 -1.5261  0.4698
  500MOL0     H68932  11.188   1.550   6.826 -1.1655  0.6142 -1.1279
  500MOL0     H68933  11.437   1.511   6.743  1.1064 -0.8559 -1.3213
  500MOL0     H68934  11.556   1.597   6.841  1.0237 -3.8305 -1.1167
  500MOL0     H68935  11.526   1.621   6.541  3.1533  0.6343 -0.7045
  500MOL0     H68936  11.608   1.749   6.638 -0.1085  0.1203  3.7664
  500MOL0     H68937  11.740   1.530   6.736 -0.1778 -0.2606 -0.0753
  500MOL0     H68938  11.681   1.453   6.591 -0.2138 -0.3619  0.7851
  500MOL0     H68939  11.874   1.557   6.480  0.1245  3.4185 -3.5912
  500MOL0     H68940  11.792   1.708   6.491  0.4185  1.3601  3.5368
  500MOL0     H68941  11.974   1.591   6.693 -0.1197  0.2849  1.3694
  500MOL0     H68942  11.858   1.724   6.729  0.5400 -0.5907  1.1892
  500MOL0     H68943  11.964   1.847   6.539  1.3675 -0.7995 -1.0721
  500MOL0     H68944  12.062   1.838   6.685  1.8107 -3.2645  0.1319
  500MOL0     H68945  12.106   1.604   6.512  1.1722  0.7824 -1.1864
  500MOL0     H68946  12.213   1.668   6.624  1.3796  1.0094 -0.8539
  500MOL0     H68947  12.265   1.857   6.477 -0.4034  0.8674 -1.3414
  500MOL0     H68948  12.298   1.709   6.383 -1.4808  0.7517 -2.9405
  500MOL0     H68949  12.283   1.921   6.193  0.4880 -1.2009 -1.0674
  500MOL0     H68950  12.155   2.020   5.973 -0.1927  0.3938 -1.3589
  500MOL0     H68951  11.998   1.959   5.939 -0.0204 -0.7279 -1.6610
  500MOL0     H68952  12.270   1.797   5.929 -0.2919  2.2525  1.8302
  500MOL0     H68953  12.114   1.732   5.861 -1.1224 -0.1265 -2.0651
  500MOL0     H68954  12.243   1.988   5.752  0.6764 -0.4725 -3.2074
  500MOL0     H68955  12.253   1.818   5.688  2.0638  1.1105  0.6846
  500MOL0     H68956  12.014   1.792   5.676  0.2455  0.4085 -1.0012
  500MOL0     H68957  11.991   1.958   5.720 -0.8818 -1.5955  2.4892
  500MOL0     H68958  12.155   2.089   5.351 -0.7721  1.2782 -0.7455
  500MOL0     H68959  11.934   2.263   5.111 -1.3851  0.1282  2.5121
  500MOL0     H68960  12.039   2.141   5.046  0.2533 -1.1333  0.6406
  500MOL0     H68961  12.099   2.240   5.178 -1.5789  2.5201 -0.6242
  500MOL0     H68962  11.730   2.311   4.991  0.8817 -0.8571 -0.4701
  500MOL0     H68963  11.602   2.419   4.802  0.0206 -0.4387 -0.4672
  500MOL0     H68964  11.664   2.325   4.470  1.0781 -2.3591  0.6612
  500MOL0     H68965  11.541   2.211   4.421 -2.7418 -1.4482  2.2356
  500MOL0     H68966  11.518   2.510   4.432  1.1701 -0.6086  1.7061
  500MOL0     H68967  11.562   2.404   4.297 -0.8670 -0.5895  0.1809
  500MOL0     H68968  11.345   2.338   4.250 -0.0006 -2.9065  2.1231
  500MOL0     H68969  11.309   2.502   4.296 -0.5528 -0.4318 -1.5981
  500MOL0     H68970  11.289   2.269   4.492 -3.4357 -2.6981 -1.0878
  500MOL0     H68971  11.153   2.340   4.401 -0.4177  1.8121  0.5770
  500MOL0     H68972  11.151   2.434   4.620 -1.2081  5.3076  2.7387
  500MOL0     H68973  11.314   2.474   4.631 -0.6415 -0.5759  0.0604
  500MOL0     H68974  11.113   2.596   4.438  0.1296 -0.6593  0.2487
  500MOL0     H68975  11.284   2.651   4.444  0.2358 -1.1714 -0.8656
  500MOL0     H68976  11.258   2.724   4.668  0.5149 -1.1593  0.9588
  500MOL0     H68977  11.096   2.651   4.682  1.4085  1.2540  1.7256
  500MOL0     H68978  11.075   2.883   4.660 -1.3664 -1.6442  1.2395
  500MOL0     H68979  11.030   2.815   4.507 -0.6856  1.8420  0.5266
  500MOL0     H68980  11.589   2.055   4.592  0.8409 -1.1856 -0.6408
  500MOL0     H68981  11.748   1.945   4.749  2.7473  0.9764 -2.0450
  500MOL0     H68982  11.700   1.889   5.337 -0.8311  2.3668  2.9838
  500MOL0     H68983  11.857   1.816   5.505  1.9445 -1.1501  0.8545
  500MOL0     H68984  11.438   1.864   6.979  0.7692 -0.5361 -0.6764
  500MOL0     H68985  11.320   1.865   7.182  0.5201  0.4068 -0.4345
  500MOL0     H68986  11.108   1.700   7.545 -1.2137 -0.3040  0.1964
  500MOL0     H68987  10.997   1.631   7.740 -3.1565 -1.3052 -0.1206
  500MOL0     H68988  10.960   1.471   7.952  1.4840 -3.2075 -0.7868
  500MOL0     H68989  10.820   1.517   7.851  1.9794  1.2034  1.1153
  500MOL0     H68990  10.824   1.257   8.028 -2.3088 -1.0382  0.6090
  500MOL0     H68991  10.701   1.317   7.922  1.1708  2.4222 -2.4633
  500MOL0     H68992  10.667   1.515   8.018  0.8240  1.0289 -0.3555
  500MOL0     H68993  10.655   1.396   8.148  1.2188 -0.5575  1.5611
  500MOL0     H68994  10.898   1.472   8.219  4.3250  4.0479 -2.8644
  500MOL0     H68995  10.754   1.557   8.265  1.2905 -0.1460  1.1910
  500MOL0     H68996  10.975   1.830   8.035  0.6289 -1.3066 -2.9109
  500MOL0     H68997  10.966   1.239   7.584 -0.3384  0.4737  2.5926
  500MOL0     H68998  11.078   1.326   7.253 -1.7434 -0.3365  1.5221
  500MOL0     H68999  11.231   1.281   7.336 -0.2547  4.1906  0.4354
  500MOL0     H69000  11.090   1.180   7.352 -0.8746 -0.0363 -1.7547
  501MOL0     O69001   3.960  10.161   1.730  0.5129 -0.2026 -0.2706
  501MOL0     C69002   4.004  10.266   1.682 -0.7350  0.4306  1.1272
  501MOL0     O69003   4.061  10.276   1.557  1.0215  0.1668  0.1471
  501MOL0     C69004   4.069  10.170   1.477  0.5578 -0.1622 -0.1952
  501MOL0     C69005   4.171  10.081   1.487 -1.2228  0.0673 -0.2449
  501MOL0     C69006   4.175   9.967   1.401  0.2491  0.5567  0.0482
  501MOL0     C69007   4.077   9.954   1.300  0.8182  0.4930  0.0610
  501MOL0     O69008   4.090   9.836   1.227  0.7764 -0.2814 -0.7031
  501MOL0     C69009   3.977   9.785   1.150 -0.2523  0.2157 -0.1600
  501MOL0     C69010   3.895   9.706   1.249 -0.6717 -0.7514  0.2118
  501MOL0     C69011   3.976   9.593   1.310  0.8979 -0.0257 -0.0185
  501MOL0     C69012   3.948   9.584   1.459 -0.0919 -0.0367  0.5385
  501MOL0     C69013   4.016   9.460   1.518 -0.3131  0.4002 -0.2044
  501MOL0     C69014   4.042   9.485   1.673 -0.0332  0.6834  0.7949
  501MOL0     C69015   4.083   9.353   1.757  0.0304  0.2174  0.1948
  501MOL0     C69016   3.954   9.287   1.800 -0.2558  0.1391  0.0384
  501MOL0     N69017   3.966   9.160   1.877 -1.2694  0.3698 -0.2953
  501MOL0     C69018   3.864   9.066   1.880  0.1457  0.0949 -0.0111
  501MOL0     C69019   3.923   8.968   1.965 -0.2084  0.5791  0.7581
  501MOL0     C69020   3.858   8.837   1.993 -0.1646  0.2656 -0.0086
  501MOL0     C69021   3.913   8.774   2.127  0.1026 -0.6898 -0.1879
  501MOL0     C69022   3.815   8.658   2.178  0.3841 -0.0742  0.5732
  501MOL0     C69023   3.872   8.572   2.296  0.5978 -0.5110 -0.1573
  501MOL0     O69024   3.827   8.646   2.407 -0.2157  0.3187 -0.3647
  501MOL0     C69025   3.861   8.603   2.533  0.0103 -0.7786 -0.5510
  501MOL0     C69026   3.774   8.581   2.639  0.9722  0.0966 -0.4865
  501MOL0     C69027   3.818   8.558   2.769 -0.3097  0.7124 -0.0767
  501MOL0     C69028   3.719   8.547   2.877  0.4261 -0.1730  0.6128
  501MOL0     C69029   3.957   8.536   2.786 -0.9686  0.5973  0.4169
  501MOL0     C69030   4.014   8.491   2.910 -0.4003 -0.5380 -0.9040
  501MOL0     O69031   4.127   8.573   2.941  0.0629 -0.2006  0.7182
  501MOL0     C69032   4.164   8.595   3.070  0.3015  0.3194  0.3210
  501MOL0     C69033   4.081   8.619   3.171  0.5069  0.9028  0.2403
  501MOL0     C69034   4.122   8.656   3.297 -1.3056 -0.0404 -0.1892
  501MOL0     C69035   4.261   8.672   3.330  0.3879 -0.7994  0.3772
  501MOL0     O69036   4.309   8.731   3.448  0.2900 -0.2315  0.0609
  501MOL0     C69037   4.286   8.880   3.457  0.0020  0.0946 -0.8658
  501MOL0     C69038   4.163   8.912   3.547 -0.2766 -0.2561  0.3586
  501MOL0     C69039   4.158   8.814   3.667  0.2004  0.5061 -0.3385
  501MOL0     C69040   4.065   8.855   3.787  0.0782  0.3372 -0.1160
  501MOL0     C69041   4.046   8.740   3.889 -0.3490 -0.5331 -0.8767
  501MOL0     C69042   3.952   8.787   4.007 -0.2272  0.3781 -0.0518
  501MOL0     C69043   3.933   8.675   4.110 -0.4990  0.8543  0.1840
  501MOL0     C69044   3.837   8.696   4.211 -0.4098 -0.3294 -1.2585
  501MOL0    Cl69045   3.883   8.815   4.332 -0.0791  0.0628  0.4006
  501MOL0     C69046   4.348   8.647   3.220 -0.1793  0.5261 -0.2756
  501MOL0     C69047   4.299   8.608   3.095 -0.1585 -0.6842 -0.2556
  501MOL0     O69048   3.981   8.391   2.980 -0.4670  0.0536  0.7668
  501MOL0     C69049   4.045   8.541   2.677  0.9992 -0.1756  0.2049
  501MOL0     C69050   3.997   8.585   2.551  0.2056 -0.2850 -0.0552
  501MOL0     N69051   4.057   9.000   1.968 -0.3906 -0.4968 -0.4658
  501MOL0     N69052   4.086   9.113   1.912  0.8429 -0.5641  0.1003
  501MOL0     C69053   3.990  10.053   1.275  0.1643 -0.3382 -0.7681
  501MOL0     C69054   3.984  10.158   1.367 -0.4430  0.4195  0.0702
  501MOL0     C69055   4.001  10.390   1.756 -0.0191  0.0633 -0.5193
  501MOL0     C69056   4.001  10.514   1.692  0.4186 -0.5169 -0.5248
  501MOL0     C69057   3.990  10.630   1.776 -0.0926 -0.6061  0.4953
  501MOL0     C69058   3.994  10.626   1.914  0.7268 -0.3257 -0.6930
  501MOL0     O69059   3.993  10.747   1.990 -0.2434 -0.5065  0.3644
  501MOL0     C69060   3.862  10.820   2.001 -1.1002  0.1139 -0.2430
  501MOL0     C69061   3.825  10.826   2.139 -0.2787  0.3704  0.0716
  501MOL0     C69062   3.709  10.928   2.161 -0.6258 -0.2954 -0.0955
  501MOL0     C69063   3.650  10.916   2.299 -0.0662  0.3536 -0.8366
  501MOL0     C69064   3.523  10.984   2.288 -0.5719  0.5039 -0.7304
  501MOL0     C69065   3.424  11.051   2.308 -0.3067 -0.8436  0.0194
  501MOL0     C69066   4.010  10.504   1.979  1.9448  0.1880  0.6194
  501MOL0     C69067   4.013  10.384   1.900  0.3012 -1.1115  0.6089
  501MOL0     C69068   4.040  10.263   1.972  0.3138  1.1672  0.3015
  501MOL0     H69069   4.241  10.093   1.569 -1.1255  0.8459 -0.4260
  501MOL0     H69070   4.251   9.892   1.420  0.0773  0.7389  1.5479
  501MOL0     H69071   4.009   9.727   1.063 -1.4132 -1.9859  0.7838
  501MOL0     H69072   3.922   9.872   1.114  0.2757 -0.4687 -2.7849
  501MOL0     H69073   3.852   9.770   1.328  1.1664  2.2578 -1.0652
  501MOL0     H69074   3.814   9.657   1.194  0.4855 -2.4607 -0.0429
  501MOL0     H69075   3.939   9.502   1.262  0.8440 -2.5298  4.1965
  501MOL0     H69076   4.083   9.591   1.292  0.9592 -2.6887  0.2412
  501MOL0     H69077   3.984   9.680   1.497  1.6246 -1.1093  1.7534
  501MOL0     H69078   3.842   9.569   1.480 -0.9889 -0.9943 -3.6597
  501MOL0     H69079   4.107   9.442   1.460  0.0395  2.4197 -0.3383
  501MOL0     H69080   3.961   9.367   1.501  3.1051 -1.5499 -1.6749
  501MOL0     H69081   4.125   9.555   1.685  1.5979 -1.2236  1.2928
  501MOL0     H69082   3.948   9.525   1.711 -0.7903  0.4137 -0.6926
  501MOL0     H69083   4.133   9.383   1.850 -0.3934 -0.3091  0.5983
  501MOL0     H69084   4.144   9.283   1.701  0.8063 -1.3050  2.7629
  501MOL0     H69085   3.892   9.351   1.864  0.8093 -1.9811  3.4531
  501MOL0     H69086   3.909   9.261   1.704 -0.3790 -0.6851  0.3124
  501MOL0     H69087   3.771   9.057   1.825  0.3633 -1.8554 -0.1538
  501MOL0     H69088   3.871   8.760   1.916  5.0101  0.7865  0.0339
  501MOL0     H69089   3.749   8.851   2.000 -1.0010 -3.4279 -2.7521
  501MOL0     H69090   4.017   8.744   2.108 -0.3811 -3.6267  1.2028
  501MOL0     H69091   3.922   8.847   2.208  1.7747  0.3002 -1.2101
  501MOL0     H69092   3.716   8.692   2.211  0.7016 -1.2745  2.9778
  501MOL0     H69093   3.799   8.586   2.097  2.2799 -1.9167  1.7357
  501MOL0     H69094   3.812   8.481   2.287  1.9108 -1.4599  0.4247
  501MOL0     H69095   3.980   8.560   2.284  0.3618 -0.6215 -2.9145
  501MOL0     H69096   3.675   8.593   2.597  1.2238  0.4448 -0.9845
  501MOL0     H69097   3.760   8.579   2.973  0.6456 -1.6659  1.0398
  501MOL0     H69098   3.711   8.440   2.901 -0.1541 -0.2711  0.0326
  501MOL0     H69099   3.627   8.596   2.843  1.9728  3.5386  1.2795
  501MOL0     H69100   3.973   8.604   3.164  0.7823 -1.0566 -0.3182
  501MOL0     H69101   4.049   8.689   3.369  1.0039 -1.5601  3.0847
  501MOL0     H69102   4.373   8.936   3.494  1.3904 -1.9913 -0.8378
  501MOL0     H69103   4.261   8.925   3.361  1.2723  0.7338 -0.9100
  501MOL0     H69104   4.179   9.017   3.572  4.1491 -1.0362  1.7965
  501MOL0     H69105   4.073   8.884   3.491  0.0956  1.1693 -0.9893
  501MOL0     H69106   4.261   8.813   3.704  0.8156  0.8970 -1.9992
  501MOL0     H69107   4.133   8.714   3.630  0.5635  0.3396 -0.1365
  501MOL0     H69108   3.968   8.875   3.741 -0.9874  0.1090  1.9174
  501MOL0     H69109   4.098   8.945   3.839 -0.7408  0.6521 -0.1336
  501MOL0     H69110   3.995   8.655   3.842  1.1330  0.6917 -5.1510
  501MOL0     H69111   4.142   8.714   3.934 -0.5551 -0.2982 -0.2926
  501MOL0     H69112   3.862   8.823   3.957 -0.7658 -1.9408 -0.8981
  501MOL0     H69113   4.005   8.868   4.057  1.9513 -0.5949 -0.6192
  501MOL0     H69114   4.024   8.638   4.158 -0.2460 -0.1818 -1.0421
  501MOL0     H69115   3.894   8.585   4.063  0.4921 -0.2152  1.3371
  501MOL0     H69116   3.820   8.601   4.263 -1.8800  0.9641  0.7939
  501MOL0     H69117   3.746   8.734   4.164 -0.9486  2.6578  1.8109
  501MOL0     H69118   4.455   8.637   3.236 -0.1163  0.0727 -0.9719
  501MOL0     H69119   4.366   8.588   3.013  1.5399 -1.5875  1.2835
  501MOL0     H69120   4.148   8.509   2.691 -0.0643 -3.8132  0.6591
  501MOL0     H69121   4.068   8.616   2.475 -0.7084 -0.2240 -0.9100
  501MOL0     H69122   3.916  10.045   1.196 -0.5092 -2.1361  0.0033
  501MOL0     H69123   3.910  10.238   1.360  0.0869  0.7566 -2.4930
  501MOL0     H69124   4.008  10.517   1.584 -1.4336  2.5986 -0.6729
  501MOL0     H69125   3.991  10.731   1.737 -4.1906 -0.3921  0.5234
  501MOL0     H69126   3.864  10.918   1.954 -1.8021 -0.2897 -1.1467
  501MOL0     H69127   3.791  10.757   1.945  0.7254  1.4395 -4.3898
  501MOL0     H69128   3.903  10.872   2.200  1.0726 -1.3985 -0.2180
  501MOL0     H69129   3.802  10.723   2.168 -2.6990  0.9357  0.4077
  501MOL0     H69130   3.753  11.028   2.149  0.5918 -0.4634  2.4458
  501MOL0     H69131   3.635  10.918   2.081  1.3001 -0.1022 -2.0244
  501MOL0     H69132   3.702  10.970   2.379  0.8185  1.7214 -2.2816
  501MOL0     H69133   3.640  10.814   2.337  0.7494 -0.1123 -1.8159
  501MOL0     H69134   3.344  11.116   2.335  1.2595  0.4812  1.7632
  501MOL0     H69135   4.036  10.508   2.085  1.3662  3.6910  0.7247
  501MOL0     H69136   4.114  10.205   1.916 -2.7614 -1.3272 -1.4734
  501MOL0     H69137   4.085  10.272   2.072 -1.1521  1.8660  0.9354
  501MOL0     H69138   3.953  10.202   1.996  0.7681  0.5568  0.4142
  502MOL0     O69139   9.885   7.539  10.284  0.5832 -0.3070  0.6021
  502MOL0     C69140   9.963   7.463  10.239 -1.9225 -0.3138 -0.4410
  502MOL0     O69141   9.947   7.383  10.133 -0.0667 -0.1285  0.0201
  502MOL0     C69142   9.822   7.360  10.091 -0.4892 -0.4438  0.1793
  502MOL0     C69143   9.801   7.408   9.962  0.7176  0.7406  0.3101
  502MOL0     C69144   9.671   7.402   9.903 -0.5022  0.2336 -0.7872
  502MOL0     C69145   9.570   7.348   9.977 -0.9815  1.3448  1.0707
  502MOL0     O69146   9.454   7.346   9.898  0.1710 -0.2774  0.0070
  502MOL0     C69147   9.327   7.370   9.970 -0.7474 -0.2141  0.4372
  502MOL0     C69148   9.221   7.399   9.872  0.3114 -0.6141  0.0179
  502MOL0     C69149   9.088   7.428   9.938  0.6404  0.3932  0.2103
  502MOL0     C69150   8.978   7.431   9.840 -0.0936 -0.5914 -0.1807
  502MOL0     C69151   8.858   7.504   9.907 -0.2152 -0.0273  0.2989
  502MOL0     C69152   8.887   7.656   9.906  0.1703 -0.4336  0.4996
  502MOL0     C69153   8.746   7.725   9.943  0.1812  0.8571  0.7202
  502MOL0     C69154   8.640   7.720   9.833 -0.2362  0.6608 -0.0510
  502MOL0     N69155   8.680   7.787   9.712 -0.4691 -0.0967  0.3150
  502MOL0     C69156   8.675   7.924   9.689 -0.1331 -0.1968 -0.3764
  502MOL0     C69157   8.699   7.945   9.561  0.2851  0.0595  1.1351
  502MOL0     C69158   8.699   8.081   9.495 -0.1043 -0.8557  0.5719
  502MOL0     C69159   8.823   8.167   9.512  0.2705  0.9671 -0.8497
  502MOL0     C69160   8.834   8.294   9.424 -0.5232 -0.4472 -0.1833
  502MOL0     C69161   8.721   8.389   9.445 -0.3621  0.1198  0.8621
  502MOL0     O69162   8.751   8.528   9.426  0.6992 -1.0875 -0.3881
  502MOL0     C69163   8.715   8.618   9.520 -0.2438  0.0859 -0.0762
  502MOL0     C69164   8.784   8.608   9.643 -0.2241  0.6454  0.5616
  502MOL0     C69165   8.747   8.701   9.741  0.6260  0.4868 -0.6571
  502MOL0     C69166   8.839   8.718   9.859 -0.0600  0.4322 -0.8537
  502MOL0     C69167   8.645   8.799   9.710 -0.2433 -0.2798  1.1227
  502MOL0     C69168   8.593   8.906   9.804  0.1841 -0.2208 -0.2212
  502MOL0     O69169   8.519   8.996   9.735 -0.4362 -0.8770  0.9304
  502MOL0     C69170   8.490   9.112   9.800 -0.6578 -0.5375 -0.9373
  502MOL0     C69171   8.593   9.182   9.865  0.2316 -0.7709 -0.6269
  502MOL0     C69172   8.561   9.310   9.913 -0.2770  0.6350 -0.1073
  502MOL0     C69173   8.438   9.371   9.911  0.2479  0.4993  0.4302
  502MOL0     O69174   8.434   9.488   9.972 -0.0186 -0.0858 -0.1662
  502MOL0     C69175   8.309   9.553   9.983  1.2612 -0.1265 -0.2769
  502MOL0     C69176   8.331   9.696  10.031  0.3850 -0.3642  0.5301
  502MOL0     C69177   8.206   9.755  10.109  0.8168 -0.6370  0.2864
  502MOL0     C69178   8.181   9.898  10.066  0.2983  0.1329  0.4036
  502MOL0     C69179   8.109   9.985  10.171  0.4352 -1.4513 -0.2093
  502MOL0     C69180   7.951   9.998  10.173 -1.3380 -0.1537 -0.9782
  502MOL0     C69181   7.883   9.869  10.203 -0.3592  0.7360 -0.4367
  502MOL0     C69182   7.742   9.887  10.247 -0.0891  0.2197 -0.5580
  502MOL0    Cl69183   7.623   9.931  10.126  0.2900  0.0935 -0.1714
  502MOL0     C69184   8.338   9.302   9.839  0.3676 -0.7386 -0.0254
  502MOL0     C69185   8.363   9.168   9.799 -0.1225 -0.1413 -0.7101
  502MOL0     O69186   8.600   8.899   9.929 -0.1423  0.3969  0.7903
  502MOL0     C69187   8.574   8.790   9.588  0.0638 -0.6377 -0.3946
  502MOL0     C69188   8.603   8.693   9.493 -0.3485  0.7027 -0.3646
  502MOL0     N69189   8.731   7.825   9.501 -0.0126 -0.5195 -0.3904
  502MOL0     N69190   8.720   7.732   9.592  1.1796 -0.1457 -0.0374
  502MOL0     C69191   9.589   7.290  10.103 -0.3728 -1.1415  0.7846
  502MOL0     C69192   9.721   7.291  10.156  0.6900 -0.0898  0.7030
  502MOL0     C69193  10.092   7.449  10.306 -0.2135  0.8762 -0.0189
  502MOL0     C69194  10.134   7.311  10.323 -0.5703 -0.1529  0.4086
  502MOL0     C69195  10.258   7.284  10.374 -0.7922 -0.1027  0.2767
  502MOL0     C69196  10.341   7.387  10.417  0.6086 -0.0246  0.3847
  502MOL0     O69197  10.460   7.351  10.475 -0.7341 -0.7923  0.0475
  502MOL0     C69198  10.584   7.422  10.451 -0.3161 -0.2354 -0.1863
  502MOL0     C69199  10.622   7.396  10.301  0.5871 -0.5857  0.3805
  502MOL0     C69200  10.716   7.289  10.291  0.7202  0.3245  0.7716
  502MOL0     C69201  10.644   7.150  10.316  0.0142 -0.6051 -0.0186
  502MOL0     C69202  10.751   7.057  10.314 -0.4937 -0.3173 -0.7240
  502MOL0     C69203  10.837   6.968  10.316 -0.3780 -0.5744  0.0201
  502MOL0     C69204  10.304   7.516  10.403  0.6490  0.5964 -0.3931
  502MOL0     C69205  10.186   7.551  10.343 -0.2413 -0.8005 -0.2283
  502MOL0     C69206  10.160   7.695  10.309  0.1154 -0.0323 -0.3483
  502MOL0     H69207   9.872   7.479   9.921  0.0452  2.1621  1.5488
  502MOL0     H69208   9.647   7.441   9.805 -0.6701  2.0999 -0.0494
  502MOL0     H69209   9.333   7.454  10.040  1.2678 -0.4579  0.6406
  502MOL0     H69210   9.308   7.279  10.028  4.9179 -0.9005  1.8534
  502MOL0     H69211   9.244   7.487   9.812  3.2509 -0.6404  0.9791
  502MOL0     H69212   9.210   7.312   9.807 -0.2802 -1.3647  1.0832
  502MOL0     H69213   9.058   7.347  10.005 -1.8765  0.9055 -0.2205
  502MOL0     H69214   9.096   7.517  10.001  0.7078  0.6136 -0.1050
  502MOL0     H69215   9.005   7.496   9.756  1.7795 -1.2167 -0.1222
  502MOL0     H69216   8.956   7.329   9.809  3.2750 -1.6991  0.5602
  502MOL0     H69217   8.829   7.466  10.006 -2.9202  0.4093 -0.2432
  502MOL0     H69218   8.770   7.479   9.848  0.1527 -3.5658  1.0432
  502MOL0     H69219   8.955   7.693   9.983  1.7575 -0.5245 -0.7901
  502MOL0     H69220   8.917   7.703   9.812  3.3066  0.1813  1.6986
  502MOL0     H69221   8.769   7.830   9.964 -1.8645  1.6960 -0.8805
  502MOL0     H69222   8.702   7.682  10.033 -2.4604  2.6635  0.4226
  502MOL0     H69223   8.607   7.615   9.825  1.0095  0.0759  1.9286
  502MOL0     H69224   8.554   7.771   9.876 -0.7881  1.0424 -1.5308
  502MOL0     H69225   8.662   8.005   9.760  0.1207  0.1841 -0.7613
  502MOL0     H69226   8.622   8.153   9.527  0.2638 -1.2195  2.3548
  502MOL0     H69227   8.688   8.056   9.389  2.9975  0.4691 -0.1614
  502MOL0     H69228   8.830   8.187   9.619  0.3695 -1.4517 -0.3521
  502MOL0     H69229   8.908   8.101   9.492 -0.4519 -0.2583  0.0182
  502MOL0     H69230   8.930   8.336   9.456 -0.4160  0.2462 -1.3665
  502MOL0     H69231   8.847   8.271   9.317  2.7137  0.3496 -0.0700
  502MOL0     H69232   8.650   8.357   9.369  1.8836 -2.8395 -0.1973
  502MOL0     H69233   8.679   8.382   9.546  0.9548  1.8389  1.5784
  502MOL0     H69234   8.860   8.533   9.665 -2.5822 -1.6983  1.3855
  502MOL0     H69235   8.891   8.813   9.840  1.2813  0.9165  3.8813
  502MOL0     H69236   8.915   8.639   9.867  0.4508  0.9876  0.0120
  502MOL0     H69237   8.776   8.731   9.947  0.6576  1.3383 -0.4559
  502MOL0     H69238   8.686   9.132   9.888 -1.4862 -4.8490 -1.5724
  502MOL0     H69239   8.643   9.358   9.965  0.3899 -2.7351  2.2798
  502MOL0     H69240   8.252   9.545   9.890 -0.7165 -2.5891  1.0335
  502MOL0     H69241   8.247   9.508  10.061 -0.3485 -1.6251 -2.3166
  502MOL0     H69242   8.422   9.695  10.092  0.3573 -3.9297  0.6784
  502MOL0     H69243   8.338   9.762   9.945  3.5831  0.4092  1.2490
  502MOL0     H69244   8.235   9.751  10.214  0.3398  1.3152  0.5353
  502MOL0     H69245   8.122   9.688  10.089  1.8799 -1.6635 -0.9620
  502MOL0     H69246   8.114   9.883   9.980  0.8046 -0.8945  0.1675
  502MOL0     H69247   8.265   9.956  10.029 -0.7549  2.3760  1.3064
  502MOL0     H69248   8.153   9.952  10.266  1.3521  1.1529  0.3503
  502MOL0     H69249   8.136  10.091  10.160 -1.0970 -1.0188  0.0703
  502MOL0     H69250   7.925  10.036  10.074  2.4997 -0.9519 -2.4714
  502MOL0     H69251   7.925  10.074  10.247 -1.4120 -2.4015  1.4308
  502MOL0     H69252   7.938   9.818  10.283  0.1520 -0.6689 -1.6544
  502MOL0     H69253   7.876   9.805  10.115 -0.1857  0.9319 -0.5935
  502MOL0     H69254   7.737   9.962  10.327  1.4625 -0.7549  0.5038
  502MOL0     H69255   7.705   9.800  10.301  0.7308  1.9458  3.0824
  502MOL0     H69256   8.236   9.338   9.828 -0.0428  0.0464  4.4021
  502MOL0     H69257   8.283   9.120   9.743 -0.3658 -1.8722  1.0425
  502MOL0     H69258   8.490   8.858   9.575 -0.3359 -1.1889 -0.7709
  502MOL0     H69259   8.559   8.690   9.394  1.6367  0.0241 -1.2800
  502MOL0     H69260   9.510   7.256  10.168  0.5810  0.6179  3.0157
  502MOL0     H69261   9.735   7.262  10.260  0.4197 -0.0485  0.7525
  502MOL0     H69262  10.067   7.236  10.284  0.9638 -1.6117  0.4567
  502MOL0     H69263  10.298   7.184  10.384  1.1232  0.6524  0.6975
  502MOL0     H69264  10.578   7.530  10.472 -0.5544 -0.4571  0.9596
  502MOL0     H69265  10.661   7.383  10.517  1.3735  4.2677  0.8558
  502MOL0     H69266  10.662   7.492  10.267 -0.4223 -0.7075 -1.2728
  502MOL0     H69267  10.540   7.375  10.232  2.4366 -1.4925 -1.6470
  502MOL0     H69268  10.758   7.275  10.190  1.4081 -1.8204  1.3060
  502MOL0     H69269  10.796   7.309  10.363  2.0553  0.5927 -0.7049
  502MOL0     H69270  10.573   7.126  10.236  0.2982 -1.7189  0.0389
  502MOL0     H69271  10.596   7.148  10.415 -1.0782 -0.0033 -0.5209
  502MOL0     H69272  10.913   6.894  10.303  2.3526  1.9402  0.6477
  502MOL0     H69273  10.378   7.589  10.434  1.4730 -1.0194  1.6692
  502MOL0     H69274  10.071   7.708  10.246  0.3921  3.3996 -0.2243
  502MOL0     H69275  10.138   7.745  10.404  2.6349  0.4702  0.0331
  502MOL0     H69276  10.248   7.737  10.258  0.5452  1.2001  1.3219
  503MOL0     O69277   5.423   1.232   3.752  0.0000 -0.2841  0.6916
  503MOL0     C69278   5.339   1.165   3.688 -0.6997  0.2218 -0.2996
  503MOL0     O69279   5.281   1.194   3.563 -0.5499  0.6700  0.1207
  503MOL0     C69280   5.299   1.322   3.518 -0.7699 -0.7237 -0.1852
  503MOL0     C69281   5.191   1.409   3.539 -0.1788 -0.1074  0.0805
  503MOL0     C69282   5.195   1.545   3.514 -0.8182 -0.0029 -0.2286
  503MOL0     C69283   5.321   1.607   3.476 -0.8783  0.4202 -1.5049
  503MOL0     O69284   5.341   1.740   3.453 -0.3119 -0.3804  0.2371
  503MOL0     C69285   5.239   1.821   3.506  0.8797 -0.7362  0.0198
  503MOL0     C69286   5.257   1.963   3.456 -0.0728 -0.8888  0.8814
  503MOL0     C69287   5.141   2.056   3.486 -0.1249 -0.0048 -0.3480
  503MOL0     C69288   5.136   2.192   3.408  0.0992  0.2057  0.6664
  503MOL0     C69289   5.020   2.280   3.458  0.4993  0.5173 -0.0618
  503MOL0     C69290   5.007   2.403   3.380 -0.2018  1.2195 -0.2661
  503MOL0     C69291   4.952   2.380   3.233 -0.3356  0.1523 -0.0712
  503MOL0     C69292   4.912   2.498   3.150 -0.5368 -0.5043 -0.4746
  503MOL0     N69293   5.021   2.595   3.157  0.1064  0.7584  0.3773
  503MOL0     C69294   5.157   2.573   3.142 -0.1945  1.1870 -0.0461
  503MOL0     C69295   5.209   2.681   3.211 -0.8240  0.1887  0.3800
  503MOL0     C69296   5.352   2.705   3.241 -0.4230  0.3235  0.3902
  503MOL0     C69297   5.409   2.642   3.364  0.1505  1.3060  0.7607
  503MOL0     C69298   5.418   2.489   3.369 -0.1876 -0.4287 -0.1174
  503MOL0     C69299   5.543   2.452   3.293 -0.5981  0.4014  1.1314
  503MOL0     O69300   5.677   2.494   3.339  0.2210  0.4550 -0.6884
  503MOL0     C69301   5.733   2.418   3.436  0.3442  0.1280 -0.2081
  503MOL0     C69302   5.871   2.425   3.454  1.0882 -0.2079 -0.4621
  503MOL0     C69303   5.941   2.360   3.557  0.1849 -0.3666 -1.0676
  503MOL0     C69304   6.086   2.397   3.577  0.0087 -0.3243  0.9932
  503MOL0     C69305   5.877   2.257   3.641 -0.8145 -0.3648 -0.2361
  503MOL0     C69306   5.932   2.172   3.753 -0.1534 -0.1326 -1.1070
  503MOL0     O69307   5.840   2.102   3.829 -0.1755  1.0415 -0.0661
  503MOL0     C69308   5.889   2.018   3.933  0.5380 -0.5731  0.4578
  503MOL0     C69309   5.885   2.063   4.060 -0.0747  0.4796 -0.5642
  503MOL0     C69310   5.943   1.985   4.164 -0.0861  0.1637  0.9479
  503MOL0     C69311   5.994   1.861   4.137 -0.0757 -0.0832  0.1831
  503MOL0     O69312   6.055   1.773   4.235  0.0939  0.1309  0.3122
  503MOL0     C69313   6.084   1.821   4.366 -0.3876  0.1202 -0.1739
  503MOL0     C69314   6.234   1.880   4.358 -0.4338 -0.3301 -1.0628
  503MOL0     C69315   6.348   1.787   4.323  0.5767  0.5595  0.2460
  503MOL0     C69316   6.363   1.673   4.431 -0.5745  0.5422  0.1997
  503MOL0     C69317   6.474   1.566   4.394  0.3807 -0.6241 -0.3804
  503MOL0     C69318   6.502   1.475   4.519  0.4420  1.0176 -0.2522
  503MOL0     C69319   6.555   1.332   4.486 -0.0130  0.0424  1.1069
  503MOL0     C69320   6.697   1.319   4.422 -1.0781 -0.5812  0.2448
  503MOL0    Cl69321   6.825   1.319   4.558 -0.0902  0.3210  0.1744
  503MOL0     C69322   5.991   1.813   4.006 -0.8854  0.3561  0.7054
  503MOL0     C69323   5.935   1.888   3.904  0.7056 -0.7396 -0.2918
  503MOL0     O69324   6.058   2.160   3.761 -0.0670  0.0699  0.4987
  503MOL0     C69325   5.742   2.239   3.611  0.0765  0.4310  0.3371
  503MOL0     C69326   5.672   2.314   3.506 -0.2122  0.4907 -0.1983
  503MOL0     N69327   5.115   2.770   3.244 -0.0617  0.7406 -0.1510
  503MOL0     N69328   5.009   2.722   3.196 -0.2270 -0.2870 -0.1476
  503MOL0     C69329   5.430   1.517   3.448 -0.4214 -0.2313  1.4352
  503MOL0     C69330   5.418   1.378   3.467  0.2731  0.3541  0.1527
  503MOL0     C69331   5.316   1.029   3.728  0.7972 -0.2559 -0.0062
  503MOL0     C69332   5.184   0.981   3.707 -0.4512  0.2454 -0.7382
  503MOL0     C69333   5.145   0.859   3.745 -0.1038  0.0794  1.0614
  503MOL0     C69334   5.247   0.770   3.800  0.6349  0.3168 -0.2241
  503MOL0     O69335   5.217   0.641   3.841 -0.2198  0.3064 -0.2838
  503MOL0     C69336   5.085   0.580   3.822 -0.1745 -0.0380  0.3547
  503MOL0     C69337   5.090   0.450   3.907 -0.2163 -0.6008 -0.2828
  503MOL0     C69338   4.953   0.381   3.920  0.7450 -0.2618 -0.2757
  503MOL0     C69339   4.967   0.269   4.026  0.2211 -0.2015  0.5799
  503MOL0     C69340   5.032   0.153   3.975  1.1580  0.0137  1.2058
  503MOL0     C69341   5.078   0.048   3.935 -0.5545 -0.2981 -0.7667
  503MOL0     C69342   5.378   0.809   3.809  0.3629 -0.4066  0.1202
  503MOL0     C69343   5.416   0.940   3.775 -0.3223  0.9753 -0.1631
  503MOL0     C69344   5.556   0.974   3.780 -0.0457 -0.4582  0.2516
  503MOL0     H69345   5.101   1.359   3.575  0.0655  0.1705  1.1097
  503MOL0     H69346   5.101   1.593   3.536 -1.2825 -0.4283 -1.2021
  503MOL0     H69347   5.234   1.818   3.615 -1.2686  3.9862  0.3107
  503MOL0     H69348   5.148   1.778   3.464 -0.4763  1.1579  0.8458
  503MOL0     H69349   5.347   2.020   3.481 -0.9806  2.2214 -2.1815
  503MOL0     H69350   5.274   1.943   3.350  1.7012 -3.4379  1.5313
  503MOL0     H69351   5.056   1.997   3.450 -3.1124  2.6959  1.6524
  503MOL0     H69352   5.130   2.078   3.592 -0.5202  4.7102 -1.1446
  503MOL0     H69353   5.224   2.253   3.428  1.8852 -2.3074  0.9692
  503MOL0     H69354   5.122   2.173   3.301 -0.3311  3.9137 -0.0711
  503MOL0     H69355   5.025   2.305   3.564 -3.3565 -0.1281  0.4085
  503MOL0     H69356   4.932   2.215   3.449  0.4873 -0.4673  4.6604
  503MOL0     H69357   4.940   2.475   3.428  1.1962  1.5381  1.2991
  503MOL0     H69358   5.108   2.445   3.380  0.4562 -0.2351 -1.8928
  503MOL0     H69359   4.870   2.307   3.234 -0.0404 -0.1806  0.0867
  503MOL0     H69360   5.040   2.337   3.184  0.9396  4.6399 -2.2869
  503MOL0     H69361   4.887   2.462   3.050  0.5865 -1.3575 -0.4688
  503MOL0     H69362   4.821   2.550   3.182  1.2132  2.4705  0.0249
  503MOL0     H69363   5.205   2.484   3.104 -1.8092  0.7035 -1.0545
  503MOL0     H69364   5.351   2.814   3.250  0.3751  0.2095  2.1775
  503MOL0     H69365   5.407   2.680   3.150 -1.2185  3.2021 -0.9923
  503MOL0     H69366   5.508   2.686   3.381  0.0871  2.3565 -1.2798
  503MOL0     H69367   5.349   2.663   3.453 -0.1888  2.0926  0.3604
  503MOL0     H69368   5.423   2.461   3.475  2.3639 -0.4149 -0.1724
  503MOL0     H69369   5.330   2.450   3.316 -2.9246 -2.1643  4.9808
  503MOL0     H69370   5.542   2.344   3.275  0.9122  0.5255  0.1876
  503MOL0     H69371   5.535   2.489   3.191  1.8899 -2.2970 -0.1928
  503MOL0     H69372   5.917   2.489   3.380 -1.9754  1.5039 -1.1003
  503MOL0     H69373   6.145   2.325   3.634  1.0242 -0.3987 -0.1124
  503MOL0     H69374   6.089   2.502   3.607 -3.2176  0.2946 -0.3686
  503MOL0     H69375   6.127   2.390   3.476 -0.5085 -3.6690  0.9144
  503MOL0     H69376   5.851   2.162   4.089 -1.3686 -0.8942  3.3000
  503MOL0     H69377   5.940   2.018   4.267 -1.2930 -1.0740  1.3452
  503MOL0     H69378   6.009   1.889   4.409  1.1311  0.7967  1.5120
  503MOL0     H69379   6.076   1.742   4.441  0.4248 -0.2228 -0.4396
  503MOL0     H69380   6.248   1.959   4.283 -0.2922  0.1314 -0.5572
  503MOL0     H69381   6.259   1.924   4.455 -0.3223 -1.0053 -0.7860
  503MOL0     H69382   6.437   1.851   4.319  1.9911 -1.2275  1.5292
  503MOL0     H69383   6.319   1.742   4.227 -0.7443  0.2188  0.7869
  503MOL0     H69384   6.272   1.613   4.444 -0.4680 -0.0909 -1.6888
  503MOL0     H69385   6.393   1.721   4.524 -0.8704  1.1720 -0.0285
  503MOL0     H69386   6.440   1.500   4.313  0.7545 -0.7134 -0.4693
  503MOL0     H69387   6.567   1.620   4.373 -0.7180  2.7131  2.5039
  503MOL0     H69388   6.406   1.452   4.566  1.4281 -1.9410  0.5455
  503MOL0     H69389   6.573   1.519   4.590  0.1996  1.1699 -0.1069
  503MOL0     H69390   6.482   1.288   4.417  1.3273  0.1863 -0.4712
  503MOL0     H69391   6.560   1.281   4.582 -0.1179 -0.4577  0.8473
  503MOL0     H69392   6.715   1.402   4.354  3.2101 -1.3529  0.1520
  503MOL0     H69393   6.707   1.229   4.361 -0.0441 -0.7279  0.6051
  503MOL0     H69394   6.031   1.715   3.984 -2.3053 -0.2170  0.5703
  503MOL0     H69395   5.948   1.854   3.802 -0.1985 -0.4105 -0.5242
  503MOL0     H69396   5.696   2.153   3.659  1.0367 -0.2868 -0.0061
  503MOL0     H69397   5.575   2.279   3.474 -0.4986  1.9378 -0.9826
  503MOL0     H69398   5.524   1.547   3.403 -0.6367 -2.6094 -0.8486
  503MOL0     H69399   5.513   1.326   3.469  0.1405  0.1320  1.2149
  503MOL0     H69400   5.107   1.046   3.667  0.1934  2.6090  1.5331
  503MOL0     H69401   5.039   0.840   3.739 -0.2427  1.2064 -1.3057
  503MOL0     H69402   5.009   0.652   3.852 -0.4970 -0.8632  1.5981
  503MOL0     H69403   5.068   0.558   3.716 -1.4580  0.0909  0.5216
  503MOL0     H69404   5.122   0.480   4.007 -2.7382  1.1390  0.0958
  503MOL0     H69405   5.168   0.385   3.865  0.1778 -1.4045  1.6005
  503MOL0     H69406   4.885   0.458   3.957  0.7840  0.2798 -1.2962
  503MOL0     H69407   4.914   0.338   3.828  0.9273 -0.6566 -0.1713
  503MOL0     H69408   4.861   0.249   4.045 -1.1697  2.7667 -2.8955
  503MOL0     H69409   5.029   0.297   4.112  3.3057 -0.5653 -1.3799
  503MOL0     H69410   5.129  -0.033   3.888 -0.2089  0.5783 -1.9565
  503MOL0     H69411   5.448   0.741   3.855  2.1453  0.3684 -1.3471
  503MOL0     H69412   5.588   1.015   3.876  0.8971  1.6123 -0.8813
  503MOL0     H69413   5.615   0.884   3.760 -1.8401 -1.3236 -1.5172
  503MOL0     H69414   5.569   1.045   3.697 -0.4736  2.3417  2.4127
  504MOL0     O69415   5.397  10.968   5.692  0.7079 -0.0308  0.0902
  504MOL0     C69416   5.364  10.908   5.795 -0.0638  1.4438  0.9706
  504MOL0     O69417   5.244  10.911   5.850  0.6409  0.4227  0.0899
  504MOL0     C69418   5.154  10.997   5.781 -0.1772 -0.3915  0.5431
  504MOL0     C69419   5.061  10.960   5.687 -0.1894 -0.4383 -0.3473
  504MOL0     C69420   4.984  11.058   5.617 -0.3123  0.3965 -0.8662
  504MOL0     C69421   4.994  11.196   5.642 -0.1729  0.3270 -0.5525
  504MOL0     O69422   4.917  11.278   5.561  0.8014  0.3768  0.3040
  504MOL0     C69423   4.962  11.416   5.558  0.5004 -0.4714  0.9808
  504MOL0     C69424   4.897  11.485   5.444  0.1774 -0.0826 -0.8292
  504MOL0     C69425   4.895  11.631   5.466 -0.4399 -0.4820 -0.9094
  504MOL0     C69426   4.779  11.716   5.409 -0.1165  0.3967  0.4303
  504MOL0     C69427   4.767  11.866   5.462  0.8292  0.5340  0.9306
  504MOL0     C69428   4.630  11.930   5.427 -0.1944  0.3374  0.1729
  504MOL0     C69429   4.521  11.862   5.516  0.8566  0.0323 -0.4122
  504MOL0     C69430   4.386  11.948   5.531  0.3325 -1.0503  0.4864
  504MOL0     N69431   4.316  11.979   5.402 -0.4348 -0.9897 -0.0683
  504MOL0     C69432   4.307  11.886   5.299  0.0124  0.4630 -0.6662
  504MOL0     C69433   4.256  11.953   5.197 -0.1996 -0.0116  0.2924
  504MOL0     C69434   4.214  11.880   5.073  0.1235  0.2268  0.7143
  504MOL0     C69435   4.322  11.879   4.966  0.4873 -0.3012 -0.5481
  504MOL0     C69436   4.446  11.788   4.993  0.0592 -0.0155 -0.6350
  504MOL0     C69437   4.568  11.801   4.895 -0.4382  0.9579  0.5038
  504MOL0     O69438   4.670  11.709   4.957 -0.9910  0.7659  0.7744
  504MOL0     C69439   4.703  11.609   4.870 -0.7376  0.1856 -0.3548
  504MOL0     C69440   4.767  11.499   4.928 -0.7636  0.0154  0.2322
  504MOL0     C69441   4.813  11.395   4.854  0.0922 -0.5647 -0.1463
  504MOL0     C69442   4.888  11.283   4.924 -0.2211  0.5847  1.1756
  504MOL0     C69443   4.795  11.397   4.714  0.9731 -0.8748  0.6585
  504MOL0     C69444   4.815  11.279   4.625 -0.2198 -0.0443  0.3948
  504MOL0     O69445   4.711  11.264   4.526  0.0059  0.6368  0.1178
  504MOL0     C69446   4.737  11.164   4.436  0.2396 -0.4848  0.5972
  504MOL0     C69447   4.858  11.160   4.364  0.1197  0.2331  0.0860
  504MOL0     C69448   4.876  11.064   4.259  0.5276  1.3274 -1.0105
  504MOL0     C69449   4.771  10.983   4.227 -0.6671 -0.5516  0.4844
  504MOL0     O69450   4.792  10.916   4.113 -0.0331  1.1791 -0.1909
  504MOL0     C69451   4.705  10.803   4.090 -0.7183 -0.1956  0.7923
  504MOL0     C69452   4.781  10.698   4.012  0.2025  0.0797  0.4152
  504MOL0     C69453   4.679  10.603   3.962 -1.0816 -0.4689 -1.5210
  504MOL0     C69454   4.750  10.486   3.892 -0.9303  0.1304  0.0689
  504MOL0     C69455   4.865  10.424   3.954  0.6915  0.3974  0.0483
  504MOL0     C69456   4.896  10.292   3.879 -0.0698  1.0933 -0.2556
  504MOL0     C69457   4.950  10.181   3.974  0.2307 -0.2608 -0.1825
  504MOL0     C69458   4.950  10.041   3.926  0.9936  1.1541 -0.8072
  504MOL0    Cl69459   5.023  10.014   3.773 -0.5699 -0.1414 -0.2285
  504MOL0     C69460   4.648  10.995   4.287 -0.1449 -0.0515  0.1560
  504MOL0     C69461   4.624  11.081   4.387 -0.5051 -0.5036 -0.8466
  504MOL0     O69462   4.914  11.207   4.634  0.0840  0.0090 -0.4842
  504MOL0     C69463   4.738  11.512   4.661 -0.0979 -0.2237  0.2682
  504MOL0     C69464   4.708  11.619   4.736 -0.1716  0.2515  0.0983
  504MOL0     N69465   4.246  12.093   5.228  0.3174 -0.2157  0.5565
  504MOL0     N69466   4.294  12.107   5.351  0.1840 -0.6205  0.3195
  504MOL0     C69467   5.075  11.230   5.754  0.1261 -0.9369 -0.6677
  504MOL0     C69468   5.144  11.128   5.821  0.3958  0.7241 -0.0455
  504MOL0     C69469   5.470  10.807   5.845 -0.3175 -0.3359 -1.0692
  504MOL0     C69470   5.432  10.736   5.955 -0.1069  0.8631 -0.4287
  504MOL0     C69471   5.507  10.646   6.028 -0.0027 -0.0075  0.6833
  504MOL0     C69472   5.639  10.637   5.987  0.0257  0.2910 -0.5732
  504MOL0     O69473   5.722  10.555   6.057 -0.3865  0.1440  0.5018
  504MOL0     C69474   5.838  10.625   6.113 -0.4593  0.1897  0.2407
  504MOL0     C69475   5.844  10.643   6.270  1.3119 -0.4528  0.7208
  504MOL0     C69476   5.837  10.511   6.338 -0.2980  0.7559 -0.2795
  504MOL0     C69477   5.971  10.441   6.312 -0.7855  0.1678  0.3092
  504MOL0     C69478   6.093  10.511   6.344 -0.0665 -0.0486 -0.1994
  504MOL0     C69479   6.191  10.574   6.377 -0.1230 -0.3204 -0.1217
  504MOL0     C69480   5.689  10.701   5.875  0.5479  0.2349  0.4892
  504MOL0     C69481   5.603  10.781   5.795 -0.0989 -0.7716 -0.1075
  504MOL0     C69482   5.657  10.831   5.670 -0.1496 -0.6916 -0.8664
  504MOL0     H69483   5.058  10.856   5.655  4.7625 -1.3430  1.3653
  504MOL0     H69484   4.900  11.024   5.556 -2.3832 -1.3440  2.6246
  504MOL0     H69485   5.071  11.420   5.547  0.3012 -0.5324 -1.5039
  504MOL0     H69486   4.933  11.470   5.649 -0.0056  2.8154 -0.9502
  504MOL0     H69487   4.938  11.458   5.346  0.3767 -0.9837 -0.5037
  504MOL0     H69488   4.794  11.449   5.439 -1.1256  2.4323  3.1190
  504MOL0     H69489   4.894  11.661   5.571  0.0471 -0.9340 -0.7711
  504MOL0     H69490   4.994  11.665   5.433  0.4900 -1.4265  0.7859
  504MOL0     H69491   4.782  11.709   5.300 -4.2110 -1.2976  0.2542
  504MOL0     H69492   4.685  11.666   5.435  0.2978 -0.1557  0.9073
  504MOL0     H69493   4.854  11.921   5.424  0.1834  0.9768  0.0499
  504MOL0     H69494   4.787  11.884   5.568 -2.6194  2.6288  1.3572
  504MOL0     H69495   4.639  12.038   5.447  1.1418  0.2527  0.1370
  504MOL0     H69496   4.608  11.905   5.323  1.2338  1.0001 -0.3134
  504MOL0     H69497   4.568  11.839   5.612  0.4691 -3.6427 -0.9640
  504MOL0     H69498   4.483  11.770   5.470  0.4010  2.6749 -6.1888
  504MOL0     H69499   4.314  11.890   5.590 -1.2775 -0.6878 -1.0138
  504MOL0     H69500   4.407  12.030   5.600  0.2130 -1.0793  0.5587
  504MOL0     H69501   4.337  11.782   5.300 -0.4709  0.3148  0.6679
  504MOL0     H69502   4.118  11.915   5.032 -0.8329 -2.0963  0.8223
  504MOL0     H69503   4.184  11.778   5.097  2.2207 -0.3909  0.8896
  504MOL0     H69504   4.266  11.849   4.877 -0.7040  1.0567 -0.2962
  504MOL0     H69505   4.361  11.981   4.958 -1.9864  0.8889  1.1668
  504MOL0     H69506   4.481  11.807   5.094  1.3222 -2.0400 -0.6239
  504MOL0     H69507   4.413  11.684   4.998 -0.9453  0.3421  0.9430
  504MOL0     H69508   4.526  11.773   4.797 -1.6013 -1.5950  1.6422
  504MOL0     H69509   4.601  11.905   4.898 -4.0024  2.4053 -2.2811
  504MOL0     H69510   4.783  11.498   5.035  0.0602 -5.7180  0.3732
  504MOL0     H69511   4.871  11.183   4.885 -2.6916  1.1004  0.7747
  504MOL0     H69512   4.859  11.288   5.030  0.2563  2.0357  1.2617
  504MOL0     H69513   4.996  11.287   4.939  0.0314 -2.2177  0.6170
  504MOL0     H69514   4.939  11.228   4.390  1.3542 -0.2990 -2.1127
  504MOL0     H69515   4.972  11.050   4.209  1.7715  0.2843  1.4835
  504MOL0     H69516   4.655  10.759   4.177 -0.0261  0.4494  1.5231
  504MOL0     H69517   4.626  10.842   4.026 -0.0973  0.7551  0.5849
  504MOL0     H69518   4.831  10.744   3.926 -0.1492 -0.2419  0.0344
  504MOL0     H69519   4.859  10.650   4.071  0.4880  0.5977  0.4696
  504MOL0     H69520   4.625  10.658   3.884 -1.5595 -0.9951 -1.5677
  504MOL0     H69521   4.615  10.563   4.042 -1.6912 -1.1552 -2.3344
  504MOL0     H69522   4.787  10.523   3.796 -2.6384 -0.7455 -0.9807
  504MOL0     H69523   4.665  10.418   3.885  0.2044 -1.4864  1.2043
  504MOL0     H69524   4.952  10.490   3.961 -1.4829  3.3413  1.4989
  504MOL0     H69525   4.843  10.407   4.060  0.8070 -0.0761 -0.0013
  504MOL0     H69526   4.970  10.306   3.800  1.9897 -1.4896  1.0727
  504MOL0     H69527   4.803  10.259   3.831  1.0656 -0.1010 -1.7677
  504MOL0     H69528   4.890  10.175   4.066 -1.0119  2.2333 -0.7467
  504MOL0     H69529   5.052  10.208   4.003  0.4613 -1.7403  0.4831
  504MOL0     H69530   4.846  10.018   3.899 -0.0969  4.3328  0.2366
  504MOL0     H69531   4.992   9.979   4.006  2.6780  2.7463 -0.3790
  504MOL0     H69532   4.559  10.935   4.271 -0.0476  0.0204 -0.7113
  504MOL0     H69533   4.527  11.098   4.433 -0.7325 -2.0836 -0.6843
  504MOL0     H69534   4.720  11.510   4.554 -1.7648  2.8381  0.3891
  504MOL0     H69535   4.689  11.711   4.682 -0.9689  0.1653  0.2279
  504MOL0     H69536   5.083  11.334   5.784  2.3987 -1.0205 -0.8524
  504MOL0     H69537   5.177  11.135   5.924 -0.6725  1.0622  0.2925
  504MOL0     H69538   5.325  10.738   5.976 -0.0390 -0.1063  0.1020
  504MOL0     H69539   5.464  10.597   6.114 -0.9576 -0.4171 -0.0127
  504MOL0     H69540   5.923  10.560   6.090 -0.4501 -0.4571  1.9523
  504MOL0     H69541   5.848  10.720   6.061 -1.2872 -0.7765 -1.8202
  504MOL0     H69542   5.752  10.701   6.286  0.5891 -1.2477 -0.3708
  504MOL0     H69543   5.930  10.702   6.302  1.2442  0.4437 -0.6584
  504MOL0     H69544   5.829  10.511   6.447 -0.2369 -0.5902 -0.2689
  504MOL0     H69545   5.759  10.441   6.309  0.7690 -1.7092  2.4130
  504MOL0     H69546   5.972  10.398   6.212 -0.6925 -1.9303  1.1522
  504MOL0     H69547   5.974  10.350   6.373  1.1648 -0.7436 -1.0667
  504MOL0     H69548   6.281  10.626   6.404  0.2525  0.4460 -2.6188
  504MOL0     H69549   5.791  10.688   5.841  0.3216 -0.9436  0.2199
  504MOL0     H69550   5.765  10.817   5.670 -0.3709 -2.9222  0.3638
  504MOL0     H69551   5.618  10.787   5.578 -0.3574 -0.9465 -0.6579
  504MOL0     H69552   5.628  10.937   5.666  2.9339  0.5364  3.0953
  505MOL0     O69553   3.142   0.472   6.218  0.3775 -0.4166 -0.1725
  505MOL0     C69554   3.023   0.448   6.206  0.1600 -0.1739 -0.1806
  505MOL0     O69555   2.963   0.407   6.090 -0.2449  0.2527  0.6340
  505MOL0     C69556   3.032   0.420   5.967  0.8480  0.4522 -0.7099
  505MOL0     C69557   2.976   0.509   5.870 -0.2223  0.0343  0.7367
  505MOL0     C69558   3.033   0.501   5.740 -0.0223 -0.0363 -0.5305
  505MOL0     C69559   3.133   0.415   5.707  1.2545  0.6502  0.3381
  505MOL0     O69560   3.181   0.396   5.581 -0.4791  0.4337 -0.0680
  505MOL0     C69561   3.147   0.498   5.483 -0.4896 -0.5654  0.5548
  505MOL0     C69562   3.225   0.465   5.349 -0.4512  0.3094 -0.0499
  505MOL0     C69563   3.236   0.306   5.315  0.1589 -0.7620 -0.0150
  505MOL0     C69564   3.290   0.300   5.174 -0.7122  0.0053 -0.1372
  505MOL0     C69565   3.335   0.157   5.135 -0.0523  0.7809 -0.2690
  505MOL0     C69566   3.380   0.142   4.999 -0.8903  0.5134 -0.4062
  505MOL0     C69567   3.264   0.146   4.901  0.3036 -0.1621 -1.7330
  505MOL0     C69568   3.312   0.157   4.760 -0.1096 -0.2853 -0.1150
  505MOL0     N69569   3.375   0.035   4.719 -0.1477  0.2478  0.4295
  505MOL0     C69570   3.308  -0.077   4.695  0.4549 -0.3181 -0.2660
  505MOL0     C69571   3.384  -0.150   4.623  0.4767 -0.5919  0.5645
  505MOL0     C69572   3.335  -0.283   4.569 -0.1746 -1.5664 -1.5074
  505MOL0     C69573   3.233  -0.266   4.450 -0.1446 -0.3476  0.2782
  505MOL0     C69574   3.151  -0.396   4.447 -0.4081 -0.4365  0.0613
  505MOL0     C69575   3.055  -0.394   4.331 -1.2421  0.4722  0.4918
  505MOL0     O69576   2.995  -0.524   4.312  0.0503  0.2848  0.4654
  505MOL0     C69577   2.900  -0.548   4.213 -0.7399  0.5750 -1.2577
  505MOL0     C69578   2.814  -0.661   4.219 -1.1175 -0.1838  0.0871
  505MOL0     C69579   2.723  -0.689   4.131  0.9674  0.6525  0.0520
  505MOL0     C69580   2.657  -0.826   4.143  0.0736  0.1732  0.7011
  505MOL0     C69581   2.697  -0.594   4.026 -1.0714 -0.0251  0.1436
  505MOL0     C69582   2.603  -0.618   3.913  0.1819 -0.9573  0.3586
  505MOL0     O69583   2.561  -0.496   3.850  0.2918  0.3300  0.4381
  505MOL0     C69584   2.441  -0.504   3.782 -0.1212 -0.3035  0.7069
  505MOL0     C69585   2.327  -0.488   3.852  1.1190  0.0316 -0.4750
  505MOL0     C69586   2.203  -0.498   3.789 -0.6794  0.1553  0.4876
  505MOL0     C69587   2.196  -0.495   3.645 -0.5209  0.1647  0.5442
  505MOL0     O69588   2.069  -0.472   3.589 -0.0412 -0.4143  1.0284
  505MOL0     C69589   2.072  -0.392   3.468  0.2203 -0.1208  0.5283
  505MOL0     C69590   2.038  -0.490   3.360 -0.5396 -0.2478 -1.0432
  505MOL0     C69591   2.036  -0.429   3.218 -0.3334 -0.8611  0.1708
  505MOL0     C69592   1.901  -0.358   3.197 -0.8019 -0.2792 -0.6149
  505MOL0     C69593   1.910  -0.204   3.209  0.5698  0.3729  0.0831
  505MOL0     C69594   1.781  -0.140   3.176  0.7619 -0.0191  0.5850
  505MOL0     C69595   1.761  -0.134   3.024  0.0422 -0.1954 -0.0088
  505MOL0     C69596   1.616  -0.103   2.991  0.4102 -0.2687 -0.1440
  505MOL0    Cl69597   1.523  -0.250   2.994  0.3951  0.4109  0.3591
  505MOL0     C69598   2.313  -0.517   3.574 -0.2719 -0.4567 -0.2783
  505MOL0     C69599   2.435  -0.517   3.642 -0.0296  0.3812 -0.0139
  505MOL0     O69600   2.571  -0.727   3.879  0.3313 -0.2774 -0.6008
  505MOL0     C69601   2.771  -0.476   4.020 -0.2518 -0.1196 -1.0563
  505MOL0     C69602   2.873  -0.445   4.115  0.7842 -0.0009 -0.4327
  505MOL0     N69603   3.506  -0.094   4.608 -0.2553  0.3912 -0.3825
  505MOL0     N69604   3.502   0.016   4.674  0.3726 -0.3566  0.1004
  505MOL0     C69605   3.181   0.327   5.805  0.3886  0.0074 -0.8914
  505MOL0     C69606   3.125   0.323   5.934  1.2337 -0.1485 -0.2339
  505MOL0     C69607   2.947   0.465   6.338  0.0634 -0.0180  0.6077
  505MOL0     C69608   2.847   0.371   6.349 -0.4820  0.1437 -0.5233
  505MOL0     C69609   2.757   0.371   6.458  0.2586  1.1244  1.1226
  505MOL0     C69610   2.774   0.468   6.555 -0.5129  0.4142 -1.2012
  505MOL0     O69611   2.679   0.482   6.655 -0.0573 -0.4526 -0.6174
  505MOL0     C69612   2.579   0.575   6.631  1.0097  0.5328  1.1489
  505MOL0     C69613   2.537   0.658   6.758 -0.3884 -0.4766 -0.6302
  505MOL0     C69614   2.391   0.706   6.749  1.1607 -1.2193  1.3235
  505MOL0     C69615   2.352   0.774   6.607  0.3485 -0.2294 -0.3282
  505MOL0     C69616   2.207   0.826   6.615 -0.0535  0.1855 -0.8329
  505MOL0     C69617   2.094   0.880   6.621 -0.0705 -0.5419  0.5816
  505MOL0     C69618   2.886   0.560   6.542  0.6622  0.7877 -0.2816
  505MOL0     C69619   2.971   0.562   6.435 -0.4731 -0.2785 -0.0447
  505MOL0     C69620   3.074   0.670   6.427  0.8310  0.5459 -0.5310
  505MOL0     H69621   2.896   0.581   5.884 -1.0991 -0.6218 -0.7368
  505MOL0     H69622   2.982   0.560   5.664 -0.0529 -0.7647 -1.0844
  505MOL0     H69623   3.178   0.597   5.519 -4.0341  0.6669  0.5622
  505MOL0     H69624   3.038   0.496   5.473 -0.5350  1.2902  0.2947
  505MOL0     H69625   3.175   0.512   5.263 -1.6861 -0.8136  0.0166
  505MOL0     H69626   3.328   0.500   5.352 -0.1507 -0.4352 -0.9321
  505MOL0     H69627   3.301   0.269   5.395 -0.5640 -0.1489  0.8579
  505MOL0     H69628   3.142   0.251   5.324  1.1506 -2.1924  3.2927
  505MOL0     H69629   3.212   0.341   5.109 -0.9972  1.2735  0.9459
  505MOL0     H69630   3.376   0.368   5.165 -2.5447  2.1991 -4.9241
  505MOL0     H69631   3.255   0.087   5.161  0.5677 -1.3524 -3.5156
  505MOL0     H69632   3.427   0.127   5.186  1.4232  2.1053 -1.9813
  505MOL0     H69633   3.454   0.218   4.976 -0.2741 -0.3222 -1.2583
  505MOL0     H69634   3.424   0.042   4.995 -2.0894 -0.1400  1.4031
  505MOL0     H69635   3.203   0.234   4.923  1.4222 -0.0500  1.3684
  505MOL0     H69636   3.194   0.065   4.922  2.4490 -1.7903 -0.5129
  505MOL0     H69637   3.232   0.190   4.693  2.5623  3.1099 -2.0299
  505MOL0     H69638   3.384   0.236   4.735  0.5119 -1.2642 -1.5872
  505MOL0     H69639   3.210  -0.104   4.734  0.5220 -2.6208 -1.5032
  505MOL0     H69640   3.301  -0.341   4.655 -2.8993  2.3684  0.3574
  505MOL0     H69641   3.423  -0.336   4.530  0.6611 -1.9477  0.7373
  505MOL0     H69642   3.174  -0.173   4.452 -0.9366 -0.8546  2.1697
  505MOL0     H69643   3.299  -0.266   4.363  0.7549  3.3867  0.7764
  505MOL0     H69644   3.229  -0.472   4.430  3.0478  2.5940  1.1856
  505MOL0     H69645   3.102  -0.427   4.539 -0.0205 -2.6682 -0.4148
  505MOL0     H69646   2.984  -0.312   4.349 -0.6448  1.1143 -0.0417
  505MOL0     H69647   3.110  -0.371   4.240 -2.5833 -0.3596 -0.5593
  505MOL0     H69648   2.830  -0.737   4.296  0.4040  2.1411  2.2374
  505MOL0     H69649   2.561  -0.823   4.089  0.7918 -1.0309 -0.7148
  505MOL0     H69650   2.632  -0.857   4.245 -2.4659 -4.3611 -0.9517
  505MOL0     H69651   2.710  -0.912   4.100 -0.6346 -2.0075  3.8456
  505MOL0     H69652   2.337  -0.464   3.957  1.3051  1.4734 -0.7923
  505MOL0     H69653   2.105  -0.492   3.835 -0.8244 -0.6681  0.3013
  505MOL0     H69654   2.003  -0.307   3.468 -0.3539 -0.5245 -1.5285
  505MOL0     H69655   2.175  -0.360   3.448 -0.1107  1.3566  1.0578
  505MOL0     H69656   2.107  -0.575   3.368  0.7123  0.7819 -0.3484
  505MOL0     H69657   1.941  -0.536   3.379  0.3158 -0.9133  2.3984
  505MOL0     H69658   2.043  -0.511   3.147 -1.6201  0.1248 -1.1533
  505MOL0     H69659   2.124  -0.366   3.205 -0.3658 -1.0199 -0.8440
  505MOL0     H69660   1.834  -0.407   3.268  2.5983 -2.4956  1.3641
  505MOL0     H69661   1.864  -0.373   3.096  1.5709  0.4440 -1.6671
  505MOL0     H69662   1.918  -0.176   3.314 -0.9980 -0.5517  0.4726
  505MOL0     H69663   1.991  -0.160   3.150 -0.1041 -0.2399 -1.3492
  505MOL0     H69664   1.785  -0.037   3.210 -5.6662  1.0664 -0.7622
  505MOL0     H69665   1.697  -0.187   3.228 -2.1756  0.7528 -3.0280
  505MOL0     H69666   1.771  -0.227   2.967 -0.6751 -0.8280  0.8617
  505MOL0     H69667   1.824  -0.058   2.978 -1.4770 -0.1424 -2.1688
  505MOL0     H69668   1.610  -0.051   2.895  2.3496  0.9352  0.3322
  505MOL0     H69669   1.569  -0.028   3.057  2.0332 -2.0413  3.3170
  505MOL0     H69670   2.309  -0.530   3.466 -2.0318  1.2515 -0.4839
  505MOL0     H69671   2.531  -0.523   3.590  0.6761 -0.7285  1.3623
  505MOL0     H69672   2.755  -0.404   3.940 -0.5326  0.6396 -0.3294
  505MOL0     H69673   2.922  -0.349   4.103 -2.4957  2.0754  1.4695
  505MOL0     H69674   3.239   0.246   5.763 -0.0396 -0.5265 -0.4610
  505MOL0     H69675   3.153   0.241   5.999 -2.1540 -2.3234 -1.2898
  505MOL0     H69676   2.815   0.304   6.271 -0.4007 -0.7424  0.1910
  505MOL0     H69677   2.683   0.292   6.451 -0.2188  1.6161  0.5560
  505MOL0     H69678   2.584   0.637   6.541 -3.3560 -5.7104 -4.3908
  505MOL0     H69679   2.483   0.527   6.609 -0.0758  4.0209 -3.2653
  505MOL0     H69680   2.605   0.742   6.777 -0.1718 -0.7055 -0.3978
  505MOL0     H69681   2.546   0.587   6.840  1.3156  0.4187  0.0226
  505MOL0     H69682   2.322   0.622   6.760 -0.8531 -0.3217 -2.5360
  505MOL0     H69683   2.380   0.783   6.826 -0.5474 -0.5523  0.4688
  505MOL0     H69684   2.367   0.710   6.519  1.3928  0.6455 -0.8085
  505MOL0     H69685   2.407   0.867   6.594  1.3856 -0.7705  0.0573
  505MOL0     H69686   2.003   0.935   6.637  0.9279  0.2788  4.7804
  505MOL0     H69687   2.887   0.637   6.619 -0.2413  0.0182  0.5135
  505MOL0     H69688   3.039   0.766   6.464  3.8541  2.1132 -1.4211
  505MOL0     H69689   3.164   0.637   6.478 -0.7590  0.7813  2.6715
  505MOL0     H69690   3.088   0.690   6.320 -0.5962  0.4530 -0.7595
  506MOL0     O69691   9.610  10.672   1.500  0.1473 -0.2278 -0.0652
  506MOL0     C69692   9.694  10.681   1.589 -0.5312 -0.1236 -0.4048
  506MOL0     O69693   9.692  10.771   1.693 -0.7709  0.2147 -0.4407
  506MOL0     C69694   9.573  10.813   1.739 -0.0067  0.4669 -0.2435
  506MOL0     C69695   9.585  10.915   1.827  1.6421  0.1755 -0.5938
  506MOL0     C69696   9.467  10.946   1.905 -1.2200 -0.0635  1.0089
  506MOL0     C69697   9.343  10.890   1.886  0.8828  0.6253  1.2278
  506MOL0     O69698   9.236  10.915   1.967 -0.2759 -0.5654 -0.4872
  506MOL0     C69699   9.252  10.951   2.107 -0.5369  0.4809  0.4306
  506MOL0     C69700   9.133  10.901   2.183 -0.3884 -0.4655 -0.7402
  506MOL0     C69701   9.124  10.751   2.186  1.9420 -0.8178 -0.1084
  506MOL0     C69702   8.981  10.720   2.243 -0.7068  0.0884 -0.3015
  506MOL0     C69703   8.966  10.581   2.300 -0.9840  0.2052  0.4965
  506MOL0     C69704   8.838  10.566   2.371  0.8176 -0.2431  0.2101
  506MOL0     C69705   8.719  10.578   2.271 -0.7914 -0.7309  0.2874
  506MOL0     C69706   8.595  10.524   2.331  0.4421  0.2392  0.7625
  506MOL0     N69707   8.558  10.591   2.457  0.7172  0.0792 -0.1036
  506MOL0     C69708   8.507  10.534   2.566  0.0253 -0.0323  0.5272
  506MOL0     C69709   8.484  10.634   2.657 -0.4259  0.1760  0.1112
  506MOL0     C69710   8.411  10.620   2.794 -1.0755  0.1444 -0.0666
  506MOL0     C69711   8.492  10.560   2.914 -0.3021 -0.3755 -0.8447
  506MOL0     C69712   8.402  10.484   3.007  0.9376  0.5740 -0.3636
  506MOL0     C69713   8.485  10.451   3.136  0.9910 -0.0756  0.7430
  506MOL0     O69714   8.509  10.571   3.202 -0.1694  0.8236  0.1320
  506MOL0     C69715   8.534  10.562   3.340  1.0917  0.5312 -0.9395
  506MOL0     C69716   8.565  10.452   3.428  0.6469 -0.2644 -0.2396
  506MOL0     C69717   8.588  10.456   3.569  0.2395  0.1548  1.2415
  506MOL0     C69718   8.615  10.323   3.635 -0.7164  0.0229  0.0655
  506MOL0     C69719   8.581  10.577   3.635  0.6060  0.3629  0.5894
  506MOL0     C69720   8.596  10.600   3.782 -0.0557  1.0934 -0.0680
  506MOL0     O69721   8.618  10.487   3.866 -0.1748 -0.7273 -0.6981
  506MOL0     C69722   8.632  10.518   4.003 -0.5005 -0.3893 -0.7024
  506MOL0     C69723   8.532  10.505   4.096  0.6472 -0.1229 -0.2176
  506MOL0     C69724   8.555  10.531   4.227  0.8641 -0.6324 -0.8024
  506MOL0     C69725   8.674  10.583   4.268  0.4765  0.2305 -0.3528
  506MOL0     O69726   8.701  10.602   4.409 -0.5494 -0.4047  0.7605
  506MOL0     C69727   8.711  10.742   4.440  0.5410 -0.0273 -0.1784
  506MOL0     C69728   8.717  10.745   4.597  0.4156 -1.0142  0.9128
  506MOL0     C69729   8.669  10.875   4.660 -0.2452  0.1074 -0.4818
  506MOL0     C69730   8.514  10.897   4.647  0.0706 -0.0226 -0.2137
  506MOL0     C69731   8.463  10.995   4.749 -0.1429  0.2425 -0.3174
  506MOL0     C69732   8.313  11.007   4.739 -0.5245 -0.1332 -0.1234
  506MOL0     C69733   8.224  10.883   4.766 -0.3146  0.2314 -0.6343
  506MOL0     C69734   8.074  10.924   4.772 -0.5426  0.7860 -0.6394
  506MOL0    Cl69735   8.006  10.975   4.626  0.2797 -0.0708 -0.0135
  506MOL0     C69736   8.774  10.610   4.174  0.6007  0.1468  0.4220
  506MOL0     C69737   8.747  10.585   4.040 -0.5357  0.4056 -0.1988
  506MOL0     O69738   8.607  10.715   3.818 -0.2137  0.0780 -0.2897
  506MOL0     C69739   8.542  10.694   3.555 -0.3009  0.0157  0.3658
  506MOL0     C69740   8.527  10.681   3.412 -0.2686 -0.1439 -0.2343
  506MOL0     N69741   8.519  10.751   2.595 -0.1827  0.3112  0.8785
  506MOL0     N69742   8.561  10.723   2.480 -0.6465  0.1380 -0.0404
  506MOL0     C69743   9.342  10.782   1.795 -0.0765 -1.2304  0.6401
  506MOL0     C69744   9.452  10.746   1.715  1.0580 -0.3024 -0.0070
  506MOL0     C69745   9.818  10.598   1.589 -0.4376  0.2987  1.0097
  506MOL0     C69746   9.880  10.569   1.470 -0.0642 -0.8792  0.0369
  506MOL0     C69747   9.996  10.491   1.470  1.0469  0.6092 -0.0896
  506MOL0     C69748  10.057  10.450   1.589 -0.1407  0.7186 -0.4433
  506MOL0     O69749  10.168  10.371   1.601  0.5110 -0.5106  0.4682
  506MOL0     C69750  10.279  10.369   1.513 -0.9874 -0.1769  0.2692
  506MOL0     C69751  10.354  10.498   1.537  0.6450  0.0898 -0.3820
  506MOL0     C69752  10.487  10.499   1.454  0.8614 -0.5661 -0.9137
  506MOL0     C69753  10.457  10.522   1.301 -0.2770  0.2368 -0.2068
  506MOL0     C69754  10.570  10.471   1.237 -1.4260  0.9095  1.5504
  506MOL0     C69755  10.673  10.443   1.174  0.4858  0.0929 -0.6817
  506MOL0     C69756  10.001  10.489   1.706 -0.1304 -0.0400 -0.8309
  506MOL0     C69757   9.886  10.564   1.714 -0.0885 -0.2001  0.4610
  506MOL0     C69758   9.839  10.593   1.856 -0.9164  0.1290  0.3050
  506MOL0     H69759   9.678  10.967   1.851 -0.0807  1.9163  3.2346
  506MOL0     H69760   9.475  11.014   1.989 -4.2769  1.7562 -0.0116
  506MOL0     H69761   9.266  11.060   2.112  1.8730  0.3168 -1.0568
  506MOL0     H69762   9.343  10.911   2.153 -1.1395 -3.1751 -1.2451
  506MOL0     H69763   9.132  10.929   2.289 -3.9567 -0.4189 -0.6719
  506MOL0     H69764   9.046  10.936   2.126 -0.8367  0.4219  0.4398
  506MOL0     H69765   9.144  10.708   2.088 -0.1095  0.1205 -0.9880
  506MOL0     H69766   9.196  10.699   2.250  1.4322  0.5393  1.6539
  506MOL0     H69767   8.968  10.790   2.326  0.9808 -1.5500  1.4252
  506MOL0     H69768   8.899  10.722   2.171 -1.6757 -2.0765  0.6860
  506MOL0     H69769   9.040  10.560   2.378  0.4338 -1.6967 -1.2481
  506MOL0     H69770   8.970  10.507   2.220 -1.9234  0.7382 -0.0503
  506MOL0     H69771   8.828  10.468   2.418 -1.8721  0.5666  1.4901
  506MOL0     H69772   8.819  10.641   2.448 -2.4541 -0.9323  0.1960
  506MOL0     H69773   8.744  10.525   2.179  0.2089 -0.4463  0.3878
  506MOL0     H69774   8.697  10.682   2.245 -0.8173 -1.0183 -0.8874
  506MOL0     H69775   8.520  10.549   2.254  1.4937 -1.3791 -0.8645
  506MOL0     H69776   8.610  10.417   2.339 -1.3615 -0.0797  0.3967
  506MOL0     H69777   8.486  10.430   2.590 -0.5795  0.2387  1.1865
  506MOL0     H69778   8.312  10.575   2.787 -1.4639  1.1328 -1.2343
  506MOL0     H69779   8.390  10.723   2.823  0.1107  1.0910 -2.2860
  506MOL0     H69780   8.568  10.498   2.864  2.1278  2.2014 -0.5932
  506MOL0     H69781   8.545  10.642   2.963 -2.0253  0.2958 -0.0517
  506MOL0     H69782   8.321  10.549   3.043 -1.5984 -2.2348 -0.6877
  506MOL0     H69783   8.362  10.388   2.974  4.3225 -0.4473 -1.8646
  506MOL0     H69784   8.423  10.384   3.196 -2.6618  1.7437 -0.7069
  506MOL0     H69785   8.568  10.387   3.106 -0.7198 -1.8428 -0.4227
  506MOL0     H69786   8.551  10.353   3.384 -1.3583 -0.2444  0.2239
  506MOL0     H69787   8.630  10.243   3.563  1.6749 -0.7821  1.3743
  506MOL0     H69788   8.538  10.295   3.707  0.5030 -2.2232  0.5741
  506MOL0     H69789   8.707  10.327   3.694  0.4540 -2.4055 -1.4389
  506MOL0     H69790   8.443  10.449   4.070 -0.3232  1.3849 -0.2727
  506MOL0     H69791   8.485  10.504   4.306 -1.0129 -0.0384 -2.1919
  506MOL0     H69792   8.802  10.788   4.399 -0.0026  0.3290 -1.0066
  506MOL0     H69793   8.621  10.790   4.402 -0.8973 -1.4869  1.2368
  506MOL0     H69794   8.657  10.664   4.638 -5.3690  1.6151 -1.2303
  506MOL0     H69795   8.820  10.721   4.623  0.4331 -0.8994  0.9516
  506MOL0     H69796   8.727  10.965   4.637 -0.3426  0.3148  0.0632
  506MOL0     H69797   8.693  10.861   4.766 -0.9043  2.0757 -0.0310
  506MOL0     H69798   8.475  10.796   4.663  1.8626 -1.5221 -4.0776
  506MOL0     H69799   8.478  10.921   4.547  0.6029  0.8922 -0.2064
  506MOL0     H69800   8.495  10.980   4.853 -2.3131  2.5174  0.7975
  506MOL0     H69801   8.503  11.093   4.721 -0.2138  0.2828 -0.2762
  506MOL0     H69802   8.287  11.036   4.637 -3.0274 -0.1823  0.4403
  506MOL0     H69803   8.276  11.095   4.793  1.0450  1.6380 -1.7664
  506MOL0     H69804   8.253  10.837   4.861 -1.5565  1.3370  0.3324
  506MOL0     H69805   8.254  10.820   4.682  4.2243 -4.2203  3.6818
  506MOL0     H69806   8.055  10.998   4.850 -0.7859  0.5901 -0.5129
  506MOL0     H69807   8.009  10.842   4.803  0.8473  0.8294  2.8054
  506MOL0     H69808   8.872  10.649   4.202  1.1425  0.9170 -2.2646
  506MOL0     H69809   8.814  10.607   3.958 -0.9468  0.4574 -0.5255
  506MOL0     H69810   8.517  10.791   3.597 -3.2245  0.3397 -1.8687
  506MOL0     H69811   8.500  10.764   3.348 -0.9283  0.0269  0.2583
  506MOL0     H69812   9.248  10.728   1.784  1.0642 -3.0192 -1.0986
  506MOL0     H69813   9.432  10.676   1.634 -1.1071 -0.2026  0.3937
  506MOL0     H69814   9.821  10.590   1.382 -3.0063 -0.7079  1.8945
  506MOL0     H69815  10.035  10.449   1.378 -2.3782  0.0783 -1.4478
  506MOL0     H69816  10.344  10.284   1.534 -0.2027  0.6961  1.5360
  506MOL0     H69817  10.236  10.364   1.413  1.9532  0.4847 -1.1005
  506MOL0     H69818  10.375  10.506   1.644  2.3962 -1.6584 -0.5406
  506MOL0     H69819  10.300  10.591   1.519  0.5754  0.4130  1.2860
  506MOL0     H69820  10.550  10.586   1.477  3.2696 -1.7865 -2.3981
  506MOL0     H69821  10.550  10.413   1.479 -0.8969 -1.2284  1.5493
  506MOL0     H69822  10.456  10.631   1.288  1.1783  0.7968  3.1281
  506MOL0     H69823  10.366  10.474   1.264 -0.2556  0.8947 -1.1450
  506MOL0     H69824  10.757  10.424   1.111  1.1822 -0.0357  0.2590
  506MOL0     H69825  10.061  10.463   1.792 -0.6302  1.3761 -0.0213
  506MOL0     H69826   9.733  10.573   1.869 -0.5085 -1.4391  1.5891
  506MOL0     H69827   9.896  10.531   1.926 -0.1235 -3.6477 -3.2812
  506MOL0     H69828   9.850  10.699   1.884 -4.3275  0.7761 -0.4124
  507MOL0     O69829   2.264   9.541   7.246  0.0264  0.0188  0.4675
  507MOL0     C69830   2.341   9.577   7.336  0.5374 -0.6778  0.2650
  507MOL0     O69831   2.468   9.556   7.334 -0.6741 -0.1766  0.0988
  507MOL0     C69832   2.523   9.469   7.239  0.2116  0.2467 -0.2539
  507MOL0     C69833   2.505   9.333   7.246 -0.0941  0.3601 -0.1296
  507MOL0     C69834   2.552   9.255   7.140  0.1534 -0.1745  0.4775
  507MOL0     C69835   2.647   9.311   7.046  0.1349 -0.3581 -0.3309
  507MOL0     O69836   2.717   9.233   6.957  0.0633 -0.6463 -0.6868
  507MOL0     C69837   2.657   9.105   6.919 -0.9485 -0.4510 -0.5085
  507MOL0     C69838   2.629   9.090   6.769  0.3566  0.2974  0.2326
  507MOL0     C69839   2.596   8.950   6.725  0.0850 -0.5372 -0.1207
  507MOL0     C69840   2.713   8.853   6.739 -1.3430  0.1930  1.0764
  507MOL0     C69841   2.686   8.710   6.677 -0.3332  0.5586 -0.2028
  507MOL0     C69842   2.583   8.638   6.768  0.4971 -0.6532  0.4019
  507MOL0     C69843   2.570   8.493   6.740  0.3532  0.5126 -0.5276
  507MOL0     C69844   2.447   8.434   6.822  0.1488  0.2183  0.6322
  507MOL0     N69845   2.470   8.297   6.866 -0.0035  0.7452  0.1308
  507MOL0     C69846   2.398   8.180   6.832  0.0881 -0.1893 -1.1093
  507MOL0     C69847   2.441   8.085   6.925 -0.0720  0.0338  0.0261
  507MOL0     C69848   2.387   7.944   6.956  0.2926 -1.5955 -0.2285
  507MOL0     C69849   2.501   7.845   6.897 -0.5354 -0.3169 -0.1025
  507MOL0     C69850   2.491   7.833   6.745  0.6107  0.1782  0.0374
  507MOL0     C69851   2.622   7.772   6.701 -0.2705  0.9782  1.4732
  507MOL0     O69852   2.727   7.865   6.713  0.0751 -0.1541  0.1250
  507MOL0     C69853   2.735   7.978   6.633 -0.1607 -0.2348 -0.2334
  507MOL0     C69854   2.667   8.014   6.515 -0.3198 -0.1603  0.6191
  507MOL0     C69855   2.691   8.141   6.455 -0.2098  0.9534  0.5142
  507MOL0     C69856   2.625   8.164   6.322  0.0528  0.4347 -0.0972
  507MOL0     C69857   2.803   8.219   6.499  0.2472 -0.4544 -0.1545
  507MOL0     C69858   2.834   8.358   6.449 -0.1959  0.2013  0.0237
  507MOL0     O69859   2.957   8.399   6.492  0.1603  0.1557  0.4499
  507MOL0     C69860   3.019   8.498   6.425  0.1283  0.9695  0.2542
  507MOL0     C69861   3.132   8.468   6.341 -0.0709  0.0526 -1.1600
  507MOL0     C69862   3.199   8.576   6.287  0.7248 -1.5806  0.9670
  507MOL0     C69863   3.169   8.720   6.305 -0.0918  0.4469  0.0139
  507MOL0     O69864   3.231   8.826   6.250 -0.4441 -0.0985  0.1239
  507MOL0     C69865   3.335   8.802   6.157  0.2341  0.2799 -0.3240
  507MOL0     C69866   3.393   8.925   6.105 -0.0303  0.3713 -1.0101
  507MOL0     C69867   3.493   9.011   6.193 -0.1866  0.0041  0.3065
  507MOL0     C69868   3.537   9.135   6.129  0.0134  0.5133 -0.3086
  507MOL0     C69869   3.430   9.245   6.124  0.0878  0.1754 -0.5926
  507MOL0     C69870   3.476   9.371   6.046 -0.1642  0.3496 -1.1995
  507MOL0     C69871   3.598   9.431   6.114 -0.1457 -0.3080 -0.5797
  507MOL0     C69872   3.565   9.471   6.258 -0.4367 -1.0863 -0.2509
  507MOL0    Cl69873   3.691   9.579   6.329 -0.0818  0.5986 -0.3794
  507MOL0     C69874   3.063   8.745   6.389  1.3507  0.2064 -0.5835
  507MOL0     C69875   2.992   8.640   6.449  0.6190 -0.1677  0.1083
  507MOL0     O69876   2.766   8.402   6.358  0.5066 -0.3490  0.7293
  507MOL0     C69877   2.866   8.179   6.619  0.1883 -0.0781  1.0130
  507MOL0     C69878   2.828   8.062   6.682  0.1278  0.1247  0.2383
  507MOL0     N69879   2.541   8.139   6.997  0.7933  0.3114 -0.6862
  507MOL0     N69880   2.560   8.261   6.962  0.7947 -0.5153 -0.6576
  507MOL0     C69881   2.668   9.449   7.042 -0.7076 -0.1790 -0.3412
  507MOL0     C69882   2.601   9.527   7.133  0.3004  0.1677 -0.0974
  507MOL0     C69883   2.284   9.647   7.450  0.5508 -0.8513 -0.7916
  507MOL0     C69884   2.371   9.683   7.556 -0.3688  0.4128 -0.2225
  507MOL0     C69885   2.327   9.762   7.655  0.0069 -1.1123  0.3574
  507MOL0     C69886   2.195   9.805   7.675 -0.0283 -0.0947  0.3045
  507MOL0     O69887   2.178   9.887   7.781  0.4983  0.6093  0.0374
  507MOL0     C69888   2.045   9.924   7.804 -0.2742 -0.3166 -1.5990
  507MOL0     C69889   2.012  10.025   7.921 -0.0241  0.3103  0.1425
  507MOL0     C69890   1.863  10.039   7.960  0.1992 -0.1049  0.2989
  507MOL0     C69891   1.837  10.114   8.092  0.2525  0.1384 -0.9023
  507MOL0     C69892   1.903  10.246   8.108  0.9010  0.0942 -0.0901
  507MOL0     C69893   1.952  10.356   8.107 -0.3423 -0.2623  0.2979
  507MOL0     C69894   2.107   9.773   7.571 -0.0515 -0.8434 -0.7644
  507MOL0     C69895   2.152   9.693   7.464  0.7637  0.5491 -0.1080
  507MOL0     C69896   2.048   9.664   7.359 -1.1338 -0.9940  0.6548
  507MOL0     H69897   2.449   9.291   7.328  0.6444 -1.2598 -0.4211
  507MOL0     H69898   2.532   9.148   7.150  0.8028 -0.4753 -1.0536
  507MOL0     H69899   2.557   9.068   6.946 -0.7188 -3.1217 -2.8057
  507MOL0     H69900   2.733   9.031   6.945  2.1432  1.7230 -2.7433
  507MOL0     H69901   2.545   9.156   6.743 -0.0333 -0.0926  0.4914
  507MOL0     H69902   2.713   9.111   6.702 -0.3751 -1.9899 -1.5584
  507MOL0     H69903   2.501   8.917   6.766 -1.7215  2.3922 -1.5630
  507MOL0     H69904   2.563   8.959   6.621 -0.3733  0.3211  0.0891
  507MOL0     H69905   2.804   8.893   6.693 -0.7273 -0.4804  1.6587
  507MOL0     H69906   2.749   8.829   6.840  1.4932  1.3535  0.4587
  507MOL0     H69907   2.778   8.651   6.670 -0.6934 -0.3212  1.7934
  507MOL0     H69908   2.653   8.706   6.572  1.3644 -4.3973 -0.7756
  507MOL0     H69909   2.606   8.655   6.873 -1.8767 -1.3554  1.0985
  507MOL0     H69910   2.483   8.682   6.766  0.6894 -0.2038 -1.2426
  507MOL0     H69911   2.664   8.447   6.771 -0.6586 -1.3254 -0.0227
  507MOL0     H69912   2.541   8.473   6.637  1.5653 -3.3502 -0.2642
  507MOL0     H69913   2.439   8.488   6.917  1.8615 -1.7320  1.9763
  507MOL0     H69914   2.351   8.435   6.769  0.9639 -2.7591 -1.1257
  507MOL0     H69915   2.321   8.163   6.758 -0.8967 -1.7059  0.2064
  507MOL0     H69916   2.295   7.947   6.898 -0.0551  0.9507  0.3365
  507MOL0     H69917   2.373   7.936   7.064  1.8187  1.8121  0.3433
  507MOL0     H69918   2.600   7.878   6.930 -0.9179  0.1841  0.5520
  507MOL0     H69919   2.485   7.747   6.943 -0.5117  0.5649  1.8879
  507MOL0     H69920   2.403   7.778   6.710  1.6978  0.0069 -2.7204
  507MOL0     H69921   2.470   7.925   6.690 -1.1466 -1.3155 -1.9874
  507MOL0     H69922   2.640   7.687   6.768  1.1356  1.8657  2.2716
  507MOL0     H69923   2.610   7.734   6.599 -1.6778 -0.0173  1.9766
  507MOL0     H69924   2.594   7.942   6.479  0.0750 -0.3422  0.1667
  507MOL0     H69925   2.545   8.238   6.326  1.0547  1.7363 -2.1571
  507MOL0     H69926   2.595   8.071   6.272  2.3393 -1.4825  1.8747
  507MOL0     H69927   2.689   8.212   6.247 -0.6407  1.5482  0.0078
  507MOL0     H69928   3.183   8.374   6.323  4.9195  2.0139  0.8121
  507MOL0     H69929   3.277   8.558   6.214  1.5434  1.4091  0.9927
  507MOL0     H69930   3.411   8.738   6.203 -0.9957 -2.3115 -1.6667
  507MOL0     H69931   3.295   8.747   6.072  0.1619 -1.4093  0.7490
  507MOL0     H69932   3.452   8.890   6.020  0.5605 -2.5248  0.4420
  507MOL0     H69933   3.321   8.997   6.066  1.0675  1.0489 -1.8627
  507MOL0     H69934   3.570   8.950   6.241 -0.7983 -0.5427  0.6147
  507MOL0     H69935   3.430   9.037   6.279 -0.6437 -1.2692  0.3848
  507MOL0     H69936   3.574   9.109   6.029 -0.0120 -1.4850  0.1549
  507MOL0     H69937   3.622   9.176   6.184  0.7351  0.3955 -1.3102
  507MOL0     H69938   3.340   9.206   6.076 -1.2912  3.0326 -0.5540
  507MOL0     H69939   3.397   9.280   6.222  4.2542  2.8344  0.1126
  507MOL0     H69940   3.400   9.449   6.049  0.4534  0.9341 -0.2102
  507MOL0     H69941   3.494   9.352   5.940 -0.5460  1.3284 -1.4470
  507MOL0     H69942   3.621   9.525   6.064 -3.2278  0.6769 -0.3598
  507MOL0     H69943   3.686   9.366   6.115  0.1670  0.0772  1.1705
  507MOL0     H69944   3.543   9.388   6.325  0.0171  0.7380  2.2870
  507MOL0     H69945   3.476   9.532   6.242  0.5349  0.2040 -1.0045
  507MOL0     H69946   3.019   8.842   6.412  0.0729 -0.4634 -0.1012
  507MOL0     H69947   2.911   8.662   6.518  0.8997 -2.3156  1.1849
  507MOL0     H69948   2.936   8.243   6.672 -0.9573  0.3170  2.0935
  507MOL0     H69949   2.873   8.042   6.779 -0.3404 -1.1775  0.2061
  507MOL0     H69950   2.750   9.490   6.984 -1.0057 -1.5664 -1.8025
  507MOL0     H69951   2.615   9.634   7.119  3.3843 -0.0540  0.5683
  507MOL0     H69952   2.472   9.644   7.551  0.3638  0.4826  5.8149
  507MOL0     H69953   2.411   9.785   7.720  0.2420  1.5044 -0.7647
  507MOL0     H69954   2.014   9.979   7.715  3.3146  1.6174 -1.8663
  507MOL0     H69955   1.972   9.843   7.811 -0.9516  0.1047 -3.3308
  507MOL0     H69956   2.028  10.129   7.890  2.1278 -0.3945 -1.3744
  507MOL0     H69957   2.064   9.989   8.010 -1.7367 -0.2009  0.9640
  507MOL0     H69958   1.805  10.097   7.888  0.0332  1.2080  1.4389
  507MOL0     H69959   1.814   9.941   7.960  0.4654 -0.2689 -1.3318
  507MOL0     H69960   1.882  10.055   8.172 -1.7406 -0.8004 -0.4134
  507MOL0     H69961   1.730  10.114   8.115  0.7241  1.2588  1.5721
  507MOL0     H69962   2.003  10.450   8.100 -0.4626 -0.0348  2.0498
  507MOL0     H69963   2.001   9.784   7.588  0.1532 -0.4380  0.4183
  507MOL0     H69964   1.956   9.722   7.372 -2.3635 -2.6529 -0.3138
  507MOL0     H69965   2.082   9.688   7.258 -3.6374 -2.2457 -0.5655
  507MOL0     H69966   2.036   9.558   7.380  0.5663 -1.4646 -0.5025
  508MOL0     O69967   1.939   2.556   1.931  0.2405 -0.1947  0.1605
  508MOL0     C69968   1.976   2.488   2.023 -0.3399 -0.2250  0.2298
  508MOL0     O69969   2.085   2.403   2.024 -0.8913  0.5426  0.1608
  508MOL0     C69970   2.145   2.385   1.899  0.9493  0.1638 -0.6181
  508MOL0     C69971   2.222   2.491   1.852  0.3872 -0.1269 -0.5105
  508MOL0     C69972   2.261   2.506   1.727 -0.0271  0.0152  0.2365
  508MOL0     C69973   2.236   2.409   1.628  0.4113  1.0637  0.3741
  508MOL0     O69974   2.287   2.427   1.500  0.4122  1.2066 -0.4326
  508MOL0     C69975   2.244   2.335   1.393  0.1344  0.1966  0.2644
  508MOL0     C69976   2.342   2.353   1.272 -0.1430  0.5457 -0.0024
  508MOL0     C69977   2.301   2.261   1.161 -0.2111  0.1793 -0.1547
  508MOL0     C69978   2.415   2.223   1.074 -0.7135 -0.3575  0.7859
  508MOL0     C69979   2.369   2.168   0.934  0.4868 -0.6666 -0.2196
  508MOL0     C69980   2.272   2.047   0.950  0.5839 -0.1345 -0.0658
  508MOL0     C69981   2.231   2.005   0.806 -0.1743  0.5482 -0.6862
  508MOL0     C69982   2.125   1.894   0.807 -0.1092 -0.0592  0.0254
  508MOL0     N69983   2.182   1.776   0.874 -0.6796  0.1279 -0.3679
  508MOL0     C69984   2.277   1.680   0.824  0.9046  0.0281  0.5904
  508MOL0     C69985   2.300   1.596   0.928 -0.1782  0.3850 -1.3942
  508MOL0     C69986   2.392   1.478   0.915  1.2324 -0.4080  0.1722
  508MOL0     C69987   2.524   1.507   0.848  1.2065  0.1907 -1.1379
  508MOL0     C69988   2.612   1.603   0.925 -0.8183  0.0663  0.0024
  508MOL0     C69989   2.751   1.610   0.877 -0.4418  1.2778 -0.0120
  508MOL0     O69990   2.768   1.699   0.771 -0.0720 -0.2458 -0.7277
  508MOL0     C69991   2.887   1.718   0.720 -0.7907  0.1625  0.0485
  508MOL0     C69992   3.000   1.643   0.761  0.2786  0.4719  0.1735
  508MOL0     C69993   3.127   1.651   0.712  1.4411 -0.4464 -0.3649
  508MOL0     C69994   3.228   1.555   0.754 -0.4626  0.3972 -0.0866
  508MOL0     C69995   3.143   1.749   0.616  0.0011 -0.7131 -0.9029
  508MOL0     C69996   3.269   1.769   0.553 -0.5351 -0.3830 -0.4101
  508MOL0     O69997   3.385   1.782   0.633  0.6467  0.2824 -0.1678
  508MOL0     C69998   3.509   1.763   0.570 -0.6009  0.2643 -0.0495
  508MOL0     C69999   3.603   1.864   0.549  0.5738 -0.5579  0.4457
  508MOL0     C70000   3.735   1.834   0.533 -1.2161  0.0527  0.9477
  508MOL0     C70001   3.778   1.701   0.508 -0.4774  0.9531 -0.2467
  508MOL0     O70002   3.913   1.673   0.478  0.2062  0.4877  0.0589
  508MOL0     C70003   3.984   1.617   0.584 -0.4000  0.6379 -0.2215
  508MOL0     C70004   4.139   1.607   0.562 -0.3491 -0.1568  0.0426
  508MOL0     C70005   4.198   1.491   0.477 -0.2305 -0.4212 -0.2513
  508MOL0     C70006   4.171   1.497   0.329 -0.6056  0.7001 -0.9562
  508MOL0     C70007   4.190   1.364   0.268  0.3026 -0.5559 -0.5677
  508MOL0     C70008   4.104   1.239   0.306  0.1385 -0.7492 -0.2880
  508MOL0     C70009   3.958   1.273   0.307  0.1023 -0.0119 -0.4187
  508MOL0     C70010   3.865   1.155   0.335 -0.0936  0.0693 -0.0342
  508MOL0    Cl70011   3.691   1.170   0.311 -0.2105 -0.2424 -0.1485
  508MOL0     C70012   3.685   1.599   0.530 -0.4185  0.1837  0.0326
  508MOL0     C70013   3.556   1.630   0.570  0.9918 -0.2141  0.3837
  508MOL0     O70014   3.269   1.769   0.431 -0.1296  0.7090  0.6542
  508MOL0     C70015   3.045   1.838   0.572  0.5151 -0.3559 -0.5698
  508MOL0     C70016   2.916   1.824   0.630  0.0716 -0.2771 -0.4295
  508MOL0     N70017   2.233   1.640   1.043 -0.6931 -0.3316 -0.1059
  508MOL0     N70018   2.164   1.744   1.007  0.3558  0.0086 -1.1872
  508MOL0     C70019   2.157   2.293   1.675 -0.4743  0.6788 -0.7961
  508MOL0     C70020   2.106   2.289   1.807 -0.6744  0.1800 -0.3639
  508MOL0     C70021   1.902   2.513   2.150 -1.1392 -0.3709 -0.2733
  508MOL0     C70022   1.980   2.531   2.268  0.1252 -0.6285 -0.3230
  508MOL0     C70023   1.921   2.553   2.393 -0.3090  0.2669  0.0956
  508MOL0     C70024   1.787   2.568   2.401 -0.9221  0.4083 -0.2371
  508MOL0     O70025   1.716   2.587   2.517  0.0394 -0.0468 -0.0699
  508MOL0     C70026   1.777   2.517   2.632  0.6654  0.4409  0.0321
  508MOL0     C70027   1.707   2.538   2.764  0.5325  0.2773 -0.5730
  508MOL0     C70028   1.694   2.693   2.807 -0.7945  0.0703 -0.2605
  508MOL0     C70029   1.823   2.760   2.851 -0.7902 -0.0472 -0.5317
  508MOL0     C70030   1.895   2.679   2.949 -0.3142  0.5360  0.8949
  508MOL0     C70031   1.952   2.613   3.033  0.6278  0.5327 -0.2247
  508MOL0     C70032   1.712   2.556   2.286 -0.2874 -0.1282  0.7145
  508MOL0     C70033   1.764   2.534   2.160  0.2040  0.5200 -0.4210
  508MOL0     C70034   1.670   2.508   2.052 -0.0746 -0.4429 -0.0876
  508MOL0     H70035   2.255   2.562   1.927  0.1473 -0.0762 -0.4544
  508MOL0     H70036   2.323   2.593   1.712 -1.8606  1.4903  0.8883
  508MOL0     H70037   2.139   2.353   1.369  0.0505 -0.1062  0.4018
  508MOL0     H70038   2.262   2.234   1.431  0.9908 -1.2154 -3.4718
  508MOL0     H70039   2.354   2.455   1.234 -2.3797  0.5943 -0.7100
  508MOL0     H70040   2.440   2.316   1.303 -1.1091 -2.5736 -0.4038
  508MOL0     H70041   2.275   2.161   1.195  0.7617 -0.7395 -1.9597
  508MOL0     H70042   2.216   2.295   1.100 -2.6676  1.8043  3.7922
  508MOL0     H70043   2.483   2.307   1.060 -2.3267  0.7782 -0.8493
  508MOL0     H70044   2.470   2.145   1.126  1.4518  1.4385  1.3291
  508MOL0     H70045   2.447   2.136   0.865  0.6347 -0.4444 -0.1540
  508MOL0     H70046   2.316   2.253   0.890 -1.1404 -0.0665  2.5722
  508MOL0     H70047   2.336   1.969   0.993  2.4068  1.5255  0.3578
  508MOL0     H70048   2.186   2.069   1.013  1.0086 -1.7140  1.1155
  508MOL0     H70049   2.322   1.980   0.750 -0.8425 -1.0790 -1.1279
  508MOL0     H70050   2.184   2.090   0.757 -0.3951 -0.3264 -2.0380
  508MOL0     H70051   2.045   1.943   0.864  0.5307  2.0363 -0.7595
  508MOL0     H70052   2.088   1.877   0.705  3.0466 -0.3086 -1.2033
  508MOL0     H70053   2.311   1.679   0.721 -1.1616 -0.4109 -0.1438
  508MOL0     H70054   2.328   1.410   0.857 -1.5856  0.3351  2.1770
  508MOL0     H70055   2.410   1.427   1.011  0.7696  0.4820  0.7514
  508MOL0     H70056   2.578   1.414   0.827  1.5806  0.0394  0.3934
  508MOL0     H70057   2.494   1.548   0.751 -0.0329 -0.8622 -1.2140
  508MOL0     H70058   2.574   1.706   0.928  0.9522  0.7685  2.9325
  508MOL0     H70059   2.602   1.572   1.030 -0.7660 -0.2970 -0.1008
  508MOL0     H70060   2.816   1.638   0.960 -1.5198  2.0391  0.6176
  508MOL0     H70061   2.781   1.506   0.863 -3.8739 -0.0868  1.5122
  508MOL0     H70062   2.986   1.555   0.824  1.7589 -1.7684 -2.4290
  508MOL0     H70063   3.188   1.464   0.799  3.0680 -2.7944 -2.6979
  508MOL0     H70064   3.289   1.600   0.833  0.3726  0.3085 -0.6728
  508MOL0     H70065   3.287   1.515   0.671  0.4469  1.2962  0.1025
  508MOL0     H70066   3.568   1.967   0.551  0.9818 -0.3819 -0.8569
  508MOL0     H70067   3.818   1.904   0.542 -0.8180 -0.5156  1.7769
  508MOL0     H70068   3.971   1.675   0.676  1.9099  1.2185 -0.1895
  508MOL0     H70069   3.949   1.515   0.599  2.4774 -0.8468 -2.5019
  508MOL0     H70070   4.179   1.702   0.524  1.6903 -0.7249  0.6752
  508MOL0     H70071   4.190   1.597   0.658  0.4708 -0.6955 -0.4317
  508MOL0     H70072   4.151   1.403   0.524 -0.3249 -1.0461 -1.4814
  508MOL0     H70073   4.306   1.485   0.492 -0.2157  0.5582  0.0742
  508MOL0     H70074   4.246   1.562   0.284  1.2077 -3.3362 -4.5021
  508MOL0     H70075   4.071   1.541   0.321  0.1490  3.3397  2.0517
  508MOL0     H70076   4.185   1.387   0.161 -0.6847 -2.2670 -0.9473
  508MOL0     H70077   4.293   1.333   0.285  0.5969  1.7102  2.4768
  508MOL0     H70078   4.143   1.214   0.405 -0.6925  0.5180  0.3759
  508MOL0     H70079   4.115   1.159   0.232  0.6699  0.6817 -1.8263
  508MOL0     H70080   3.933   1.316   0.210  0.0834 -0.0897 -0.4486
  508MOL0     H70081   3.933   1.353   0.378 -0.6078 -1.0492  0.5536
  508MOL0     H70082   3.881   1.120   0.438  0.3343  1.3182  0.3458
  508MOL0     H70083   3.896   1.067   0.278 -3.7863 -0.2418 -1.8577
  508MOL0     H70084   3.705   1.494   0.513 -0.8034  0.4879 -2.7770
  508MOL0     H70085   3.500   1.540   0.592 -1.1520  0.6427 -1.1235
  508MOL0     H70086   3.060   1.922   0.505  0.5341  0.6724  0.6857
  508MOL0     H70087   2.837   1.885   0.587  2.0428  1.3480 -1.9711
  508MOL0     H70088   2.113   2.216   1.612 -1.5714 -0.2231  1.0065
  508MOL0     H70089   2.049   2.207   1.849 -1.6562  0.4823 -1.0489
  508MOL0     H70090   2.088   2.525   2.281  0.4898  0.7162 -2.3578
  508MOL0     H70091   1.990   2.559   2.477  0.9126  2.4965 -1.0029
  508MOL0     H70092   1.771   2.410   2.608  1.0437  0.5610 -0.6093
  508MOL0     H70093   1.880   2.551   2.638  1.3100 -1.3198 -0.4484
  508MOL0     H70094   1.746   2.471   2.841 -1.9299 -0.9962 -0.3358
  508MOL0     H70095   1.606   2.500   2.742  0.1528 -0.1044  1.5602
  508MOL0     H70096   1.653   2.747   2.721 -0.1270  3.6566  1.4989
  508MOL0     H70097   1.617   2.701   2.884 -1.1862  1.2050 -0.7409
  508MOL0     H70098   1.784   2.849   2.902 -3.9595 -0.8947 -1.2607
  508MOL0     H70099   1.894   2.792   2.774  0.6670  2.1587  1.5649
  508MOL0     H70100   1.986   2.571   3.126 -1.1635  2.9857  1.7179
  508MOL0     H70101   1.604   2.560   2.286 -0.3824 -1.4221 -1.1659
  508MOL0     H70102   1.714   2.427   1.994 -0.4268 -0.4338 -0.3716
  508MOL0     H70103   1.577   2.480   2.101 -0.4782 -2.7566 -2.0380
  508MOL0     H70104   1.671   2.606   2.002  1.3711  0.0198  0.7885
  509MOL0     O70105   2.767  11.023  10.350 -0.0343  0.0520 -0.0179
  509MOL0     C70106   2.701  11.111  10.291  0.2551 -0.1224 -0.1162
  509MOL0     O70107   2.673  11.239  10.346  0.4799  1.0429  0.8267
  509MOL0     C70108   2.679  11.261  10.477 -1.0982  0.7541  0.3249
  509MOL0     C70109   2.612  11.376  10.523  0.0796 -0.0740  0.6526
  509MOL0     C70110   2.603  11.406  10.661 -0.8508 -0.2449  1.1999
  509MOL0     C70111   2.670  11.325  10.757  0.5098 -0.1641  0.0191
  509MOL0     O70112   2.673  11.346  10.888  0.0820 -0.6323 -0.0691
  509MOL0     C70113   2.620  11.468  10.941 -0.8708  0.7997 -0.3011
  509MOL0     C70114   2.644  11.464  11.097 -0.8572  0.1772 -0.0681
  509MOL0     C70115   2.781  11.413  11.145  0.6040 -0.0600  0.6417
  509MOL0     C70116   2.892  11.495  11.089  1.3848  0.1734  0.8523
  509MOL0     C70117   3.015  11.489  11.174 -0.6863 -1.2692  0.7136
  509MOL0     C70118   3.065  11.342  11.206  0.2917 -0.9435  0.2936
  509MOL0     C70119   3.163  11.345  11.321  0.3455 -0.6553 -0.0309
  509MOL0     C70120   3.106  11.300  11.457  0.2330  0.7560 -0.0092
  509MOL0     N70121   3.188  11.314  11.574  0.3986 -0.6266 -0.1247
  509MOL0     C70122   3.180  11.445  11.637 -0.7622 -0.0048  0.1461
  509MOL0     C70123   3.271  11.440  11.737 -0.1234 -0.1428 -0.1424
  509MOL0     C70124   3.297  11.546  11.837  0.2602  0.0477  0.3871
  509MOL0     C70125   3.375  11.667  11.778 -0.5379  0.7482 -0.5945
  509MOL0     C70126   3.519  11.628  11.739  1.0129 -0.3983  0.1134
  509MOL0     C70127   3.606  11.614  11.857 -0.6297 -0.3347  0.0943
  509MOL0     O70128   3.633  11.736  11.931  0.4292  0.6547 -0.1315
  509MOL0     C70129   3.738  11.814  11.903 -0.9408 -0.6955  0.7445
  509MOL0     C70130   3.836  11.812  11.792  1.2350 -0.7387 -0.5937
  509MOL0     C70131   3.932  11.906  11.775  0.0006 -0.2143 -0.6460
  509MOL0     C70132   4.008  11.904  11.645 -0.3594  0.7820  0.0780
  509MOL0     C70133   3.933  12.022  11.865  0.5067  0.6881  0.7716
  509MOL0     C70134   4.030  12.130  11.862  0.8768  0.2625  0.1507
  509MOL0     O70135   4.039  12.195  11.982 -0.0734 -0.2596  0.0046
  509MOL0     C70136   4.145  12.286  12.015  0.0064 -0.7835  1.0255
  509MOL0     C70137   4.279  12.257  12.019 -0.8885 -0.0572  0.0041
  509MOL0     C70138   4.374  12.359  12.048 -0.4304  0.1083 -0.0273
  509MOL0     C70139   4.337  12.488  12.082 -0.1438 -0.6927  0.8912
  509MOL0     O70140   4.432  12.581  12.111 -0.2561  0.1191 -0.4615
  509MOL0     C70141   4.408  12.722  12.076  0.5303  0.4755 -0.5634
  509MOL0     C70142   4.540  12.792  12.084 -0.7067 -0.5873 -1.2124
  509MOL0     C70143   4.612  12.786  12.224  0.7024 -1.0109  0.7527
  509MOL0     C70144   4.749  12.847  12.208 -0.4790  0.0740 -0.5542
  509MOL0     C70145   4.808  12.880  12.347 -0.2657 -0.3198 -0.5168
  509MOL0     C70146   4.951  12.920  12.354 -0.0321  0.7611  0.4575
  509MOL0     C70147   5.006  12.903  12.493 -0.4026  0.4168 -0.9418
  509MOL0     C70148   5.145  12.963  12.504  0.0030 -0.1087 -0.7806
  509MOL0    Cl70149   5.249  12.911  12.361 -0.4579  0.2709  0.1277
  509MOL0     C70150   4.199  12.516  12.084 -0.9014  1.3206 -0.0646
  509MOL0     C70151   4.107  12.418  12.048  0.4481  0.6607  0.4955
  509MOL0     O70152   4.102  12.152  11.763  0.2074  0.3668 -0.4587
  509MOL0     C70153   3.824  12.030  11.967  0.0812 -0.0553  1.0485
  509MOL0     C70154   3.740  11.933  11.984 -0.8509 -0.5888 -0.1799
  509MOL0     N70155   3.335  11.317  11.726  0.0229 -0.5448  0.2697
  509MOL0     N70156   3.295  11.247  11.624 -0.1654 -0.5166 -1.6745
  509MOL0     C70157   2.740  11.217  10.709 -0.2914  0.6003 -0.0129
  509MOL0     C70158   2.741  11.178  10.577  0.0421 -0.7305 -0.1328
  509MOL0     C70159   2.671  11.094  10.146 -0.7719 -0.5538 -0.8608
  509MOL0     C70160   2.675  11.209  10.067  0.8938 -0.2395  0.3982
  509MOL0     C70161   2.632  11.201   9.930  0.2222  0.8158 -0.4277
  509MOL0     C70162   2.607  11.084   9.867  0.5643 -0.1545 -0.3439
  509MOL0     O70163   2.555  11.075   9.741  0.0567 -0.7465  0.3095
  509MOL0     C70164   2.553  11.173   9.638 -0.3779 -0.8980 -0.6232
  509MOL0     C70165   2.699  11.199   9.594 -0.3803 -0.4173  0.3954
  509MOL0     C70166   2.772  11.078   9.547 -0.4698  0.6521  0.3720
  509MOL0     C70167   2.914  11.111   9.488 -0.8042  0.1056  0.7609
  509MOL0     C70168   2.980  10.982   9.461  0.5101  0.2112 -0.5932
  509MOL0     C70169   3.039  10.870   9.444  0.5973 -0.1722 -0.3425
  509MOL0     C70170   2.623  10.964   9.938  1.2341  0.1899 -0.4674
  509MOL0     C70171   2.640  10.966  10.081  0.2791  0.0540  0.2734
  509MOL0     C70172   2.622  10.830  10.167 -0.1886 -0.8938  0.5159
  509MOL0     H70173   2.561  11.447  10.459 -0.0843 -1.0455 -0.3081
  509MOL0     H70174   2.540  11.487  10.697 -1.5838 -0.9843  1.6240
  509MOL0     H70175   2.514  11.457  10.917 -1.1385 -1.3687  1.5602
  509MOL0     H70176   2.658  11.565  10.906 -2.3430  2.9268  3.4336
  509MOL0     H70177   2.622  11.558  11.149  0.7613  2.3107 -2.9429
  509MOL0     H70178   2.573  11.386  11.125  0.0598 -0.9511 -0.7911
  509MOL0     H70179   2.781  11.414  11.254  0.5019  0.7205  0.6387
  509MOL0     H70180   2.806  11.312  11.111 -0.6844  0.4306 -2.0315
  509MOL0     H70181   2.912  11.468  10.985  0.9744 -1.1816  1.1091
  509MOL0     H70182   2.873  11.603  11.081 -0.8480 -0.2957 -1.3618
  509MOL0     H70183   3.012  11.551  11.264  0.3486 -0.4694  0.2144
  509MOL0     H70184   3.092  11.548  11.122 -0.7713  1.7053  3.5970
  509MOL0     H70185   2.986  11.270  11.230 -1.2607  0.7743  0.5353
  509MOL0     H70186   3.120  11.316  11.115 -0.7648 -4.1899  0.4482
  509MOL0     H70187   3.214  11.441  11.331 -0.5141 -0.3658  2.2377
  509MOL0     H70188   3.244  11.276  11.301 -1.4338 -2.6353 -0.7743
  509MOL0     H70189   3.003  11.325  11.481 -1.2278 -3.7727 -0.6302
  509MOL0     H70190   3.079  11.195  11.441 -2.9181  1.8501 -2.9371
  509MOL0     H70191   3.119  11.528  11.602  1.3955  2.5545  2.0689
  509MOL0     H70192   3.331  11.492  11.926 -3.7770 -2.1937  0.8091
  509MOL0     H70193   3.203  11.586  11.878  0.3126 -1.1575  1.7544
  509MOL0     H70194   3.331  11.705  11.686  0.8407  1.9278 -0.8029
  509MOL0     H70195   3.376  11.745  11.855  0.9917 -0.3933  0.6172
  509MOL0     H70196   3.509  11.534  11.684  0.2523  0.2590 -0.9112
  509MOL0     H70197   3.562  11.705  11.674  0.0538  0.1789  0.1400
  509MOL0     H70198   3.562  11.537  11.922  0.6099  0.9138  2.5532
  509MOL0     H70199   3.706  11.587  11.822 -1.5510 -0.4739 -2.6377
  509MOL0     H70200   3.837  11.734  11.716  1.9096  1.4443 -2.9802
  509MOL0     H70201   4.104  11.955  11.662 -0.2310  0.7804 -0.6035
  509MOL0     H70202   3.955  11.939  11.556  0.6341  0.7685 -0.5393
  509MOL0     H70203   4.034  11.803  11.614 -1.1668  0.9928 -1.3873
  509MOL0     H70204   4.310  12.155  11.998 -1.1912 -0.7750  2.6693
  509MOL0     H70205   4.477  12.325  12.049 -0.8099 -1.6758  4.7866
  509MOL0     H70206   4.363  12.739  11.978  0.4508  1.6683 -0.3343
  509MOL0     H70207   4.338  12.765  12.148 -0.4191 -0.3041 -0.9914
  509MOL0     H70208   4.608  12.736  12.019  1.1214 -2.2524  1.8486
  509MOL0     H70209   4.539  12.892  12.041 -1.4433 -0.3464 -0.6555
  509MOL0     H70210   4.598  12.681  12.254 -4.2022 -1.6725 -2.5691
  509MOL0     H70211   4.546  12.845  12.288 -1.4786 -1.6380 -0.7765
  509MOL0     H70212   4.731  12.935  12.145 -0.1600  1.0298  0.6482
  509MOL0     H70213   4.824  12.778  12.168 -0.6626 -0.1684 -0.4857
  509MOL0     H70214   4.743  12.956  12.390  0.8449  0.9143 -0.9360
  509MOL0     H70215   4.791  12.790  12.405 -3.0541  1.3725  1.5014
  509MOL0     H70216   4.954  13.021  12.314 -1.5091  0.0175 -1.7392
  509MOL0     H70217   5.005  12.850  12.290  1.0735 -0.1675  2.3125
  509MOL0     H70218   5.021  12.800  12.525  0.4202  1.5611  2.9029
  509MOL0     H70219   4.946  12.960  12.565 -0.5136 -1.7195  0.7475
  509MOL0     H70220   5.188  12.927  12.598 -0.4674  2.9875  0.7860
  509MOL0     H70221   5.145  13.073  12.507  0.3258 -0.1249  0.3970
  509MOL0     H70222   4.155  12.603  12.131 -0.4381  0.5237  1.9511
  509MOL0     H70223   4.002  12.444  12.045  0.3190  0.1890  0.7104
  509MOL0     H70224   3.809  12.124  12.020  1.0616  3.9479 -4.7765
  509MOL0     H70225   3.658  11.952  12.053 -0.6699 -0.3852 -0.0185
  509MOL0     H70226   2.784  11.152  10.784 -0.6069 -0.3323 -0.6230
  509MOL0     H70227   2.805  11.093  10.557  0.9828 -0.3527  1.1080
  509MOL0     H70228   2.692  11.308  10.107  0.6105  0.6136 -1.4906
  509MOL0     H70229   2.614  11.293   9.875  0.2688  0.5029 -0.9686
  509MOL0     H70230   2.501  11.141   9.547  0.2378  0.9053 -1.6784
  509MOL0     H70231   2.513  11.268   9.677  0.8520 -1.3037  1.7644
  509MOL0     H70232   2.740  11.262   9.673  0.8291  0.9761 -1.2387
  509MOL0     H70233   2.693  11.267   9.508  4.3745 -0.7064 -0.4611
  509MOL0     H70234   2.795  11.031   9.643  0.9341  1.0330  0.2440
  509MOL0     H70235   2.729  11.019   9.465  1.0890  1.2629 -0.9479
  509MOL0     H70236   2.965  11.173   9.562 -0.3661 -2.2211  2.5142
  509MOL0     H70237   2.909  11.173   9.398 -4.0094  0.2661  0.9427
  509MOL0     H70238   3.095  10.782   9.417 -2.3752 -1.5135 -2.7704
  509MOL0     H70239   2.610  10.872   9.881 -1.1813  0.6958 -0.8304
  509MOL0     H70240   2.673  10.839  10.264  2.7728 -1.5591 -0.8680
  509MOL0     H70241   2.516  10.806  10.179 -0.1313 -0.5600  1.9408
  509MOL0     H70242   2.676  10.748  10.119 -0.5311 -1.9498  1.8877
  510MOL0     O70243  11.180   6.027   3.179 -0.3938  0.0585 -0.1894
  510MOL0     C70244  11.115   5.933   3.228 -0.4566 -0.5037 -0.1193
  510MOL0     O70245  10.979   5.900   3.207  0.4554  0.4180  0.1047
  510MOL0     C70246  10.913   5.981   3.116 -0.9340  0.4459  0.5263
  510MOL0     C70247  10.893   5.940   2.981 -0.6621 -0.6585 -0.4650
  510MOL0     C70248  10.839   6.032   2.895  0.7701 -0.3670  0.1708
  510MOL0     C70249  10.798   6.161   2.933  0.2523  0.4935  0.5211
  510MOL0     O70250  10.749   6.256   2.852  0.3426  0.2540  0.1045
  510MOL0     C70251  10.764   6.248   2.706 -0.1357 -0.4473 -0.8559
  510MOL0     C70252  10.736   6.383   2.641 -0.6843  0.5416  0.4867
  510MOL0     C70253  10.590   6.422   2.665 -0.2671 -0.7645  0.2150
  510MOL0     C70254  10.561   6.573   2.626  1.0843 -0.2281  0.0791
  510MOL0     C70255  10.469   6.642   2.728 -0.9456  0.4880  0.5702
  510MOL0     C70256  10.323   6.629   2.679 -0.3274  0.5944  0.3376
  510MOL0     C70257  10.209   6.677   2.773 -0.2006  0.2678  0.1713
  510MOL0     C70258  10.078   6.597   2.753 -0.6849 -0.3095 -0.2028
  510MOL0     N70259  10.089   6.454   2.774 -0.2081 -0.7115  0.3413
  510MOL0     C70260  10.134   6.401   2.890  0.5468 -0.0826 -0.5179
  510MOL0     C70261  10.104   6.274   2.879  0.0417 -0.1926  0.1936
  510MOL0     C70262  10.128   6.171   2.985 -0.0388 -0.6180  0.3135
  510MOL0     C70263  10.276   6.152   3.000 -0.4948  0.2693 -0.1163
  510MOL0     C70264  10.339   6.069   2.879  0.0482 -0.8735 -0.6407
  510MOL0     C70265  10.425   5.947   2.915 -0.0106  0.0132 -0.8887
  510MOL0     O70266  10.349   5.823   2.960  0.4976 -0.6828 -0.1112
  510MOL0     C70267  10.430   5.730   3.017  0.1202 -0.0628 -0.3974
  510MOL0     C70268  10.376   5.605   3.046 -0.3899 -0.8067 -0.8144
  510MOL0     C70269  10.449   5.504   3.111  0.5550 -0.0740  0.2883
  510MOL0     C70270  10.364   5.387   3.159 -1.2258  0.8997  0.1396
  510MOL0     C70271  10.584   5.522   3.138  0.4901 -0.5025 -1.5781
  510MOL0     C70272  10.655   5.431   3.220 -0.6962  0.2251  0.0344
  510MOL0     O70273  10.760   5.495   3.279 -0.2774 -0.9168  0.6569
  510MOL0     C70274  10.846   5.447   3.370 -0.5232 -0.4893 -0.0303
  510MOL0     C70275  10.941   5.534   3.416 -0.8452 -0.2213  0.8256
  510MOL0     C70276  11.020   5.506   3.525 -0.5399 -0.2454 -0.0146
  510MOL0     C70277  11.005   5.382   3.588  0.2387 -0.2193  0.8708
  510MOL0     O70278  11.079   5.351   3.695  0.3999 -0.0333 -0.4984
  510MOL0     C70279  11.210   5.394   3.695  0.2193  0.0361 -0.0654
  510MOL0     C70280  11.292   5.308   3.791  0.1642 -0.0639  0.8968
  510MOL0     C70281  11.449   5.318   3.743  0.3138 -0.2703 -0.4409
  510MOL0     C70282  11.534   5.281   3.862  0.0706  0.4940 -0.4082
  510MOL0     C70283  11.522   5.137   3.912  0.0493  0.9595  0.1388
  510MOL0     C70284  11.651   5.086   3.974 -1.1192  0.8712 -0.0502
  510MOL0     C70285  11.649   4.926   3.992 -0.3489  0.5920 -0.7323
  510MOL0     C70286  11.648   4.860   3.859  0.3739 -0.3801 -0.0235
  510MOL0    Cl70287  11.667   4.694   3.904  0.2420  0.1039  0.2170
  510MOL0     C70288  10.912   5.289   3.540 -0.3036 -0.3656  0.2565
  510MOL0     C70289  10.831   5.331   3.438 -0.0309  0.4291 -0.0085
  510MOL0     O70290  10.625   5.312   3.224 -0.5338  0.2467 -0.1221
  510MOL0     C70291  10.642   5.644   3.097  0.2620  0.3331 -0.6491
  510MOL0     C70292  10.566   5.747   3.045 -0.4452 -0.4424 -0.0380
  510MOL0     N70293  10.061   6.249   2.751 -0.3695  0.3327 -0.6522
  510MOL0     N70294  10.046   6.357   2.688 -0.1159  0.1352 -0.4168
  510MOL0     C70295  10.816   6.195   3.070 -0.8261 -1.0633  0.1540
  510MOL0     C70296  10.883   6.112   3.161 -1.0462  0.4659 -0.0125
  510MOL0     C70297  11.191   5.886   3.348 -0.1730 -0.2213  0.6361
  510MOL0     C70298  11.169   5.941   3.470  0.1549 -0.2732  0.7392
  510MOL0     C70299  11.247   5.895   3.577  0.6651 -0.1001 -0.2923
  510MOL0     C70300  11.320   5.771   3.572 -0.1996 -0.4831 -0.4366
  510MOL0     O70301  11.377   5.716   3.688 -0.2149  0.0876  0.1027
  510MOL0     C70302  11.365   5.784   3.811  0.4634 -0.5058 -0.4986
  510MOL0     C70303  11.412   5.700   3.921 -0.6655  0.5475  0.5481
  510MOL0     C70304  11.557   5.655   3.922 -0.4737 -0.8293 -0.4131
  510MOL0     C70305  11.605   5.604   4.065  0.2133 -0.0969 -0.2716
  510MOL0     C70306  11.613   5.715   4.156  0.1019  0.7511  0.9590
  510MOL0     C70307  11.625   5.794   4.248  0.2289  0.6491  0.5972
  510MOL0     C70308  11.330   5.715   3.454 -0.6708 -0.1086  0.4775
  510MOL0     C70309  11.280   5.773   3.336 -0.2448  0.3748  1.5081
  510MOL0     C70310  11.283   5.691   3.201  0.6579 -0.2806  0.4912
  510MOL0     H70311  10.920   5.840   2.951  2.1509  0.3453 -1.6661
  510MOL0     H70312  10.812   6.005   2.793  1.4757 -0.0282 -0.1089
  510MOL0     H70313  10.690   6.180   2.662 -0.8741 -2.5720  3.1749
  510MOL0     H70314  10.867   6.221   2.683 -0.0486  0.2483 -1.3021
  510MOL0     H70315  10.801   6.461   2.683 -0.0946 -0.9348  2.4503
  510MOL0     H70316  10.762   6.390   2.535 -1.9020  0.5263  0.1765
  510MOL0     H70317  10.525   6.366   2.598 -0.2509  0.4059 -0.8057
  510MOL0     H70318  10.565   6.403   2.770  1.1609 -1.1378  0.5142
  510MOL0     H70319  10.652   6.630   2.607  0.2149  0.9447 -0.7205
  510MOL0     H70320  10.504   6.575   2.533 -3.0942  0.6530  2.3713
  510MOL0     H70321  10.500   6.747   2.727 -2.1462  0.8950 -2.5496
  510MOL0     H70322  10.478   6.597   2.828  0.9627 -0.0678  0.1950
  510MOL0     H70323  10.320   6.703   2.599  1.6449  1.8469  1.3457
  510MOL0     H70324  10.303   6.526   2.649  1.8954  0.6521 -1.6484
  510MOL0     H70325  10.182   6.780   2.748  1.4140  0.8458  0.6759
  510MOL0     H70326  10.240   6.696   2.876  0.7193  1.0442 -0.2321
  510MOL0     H70327   9.997   6.632   2.817 -1.6622  2.1770 -2.6337
  510MOL0     H70328  10.050   6.602   2.647  3.9263 -1.9810 -1.7696
  510MOL0     H70329  10.177   6.455   2.974  3.2808 -1.1197 -1.1598
  510MOL0     H70330  10.088   6.075   2.952 -0.2849  0.5644 -3.2304
  510MOL0     H70331  10.089   6.214   3.078  0.5057  2.8935 -0.9294
  510MOL0     H70332  10.321   6.250   3.019 -2.6424  0.9537  1.8571
  510MOL0     H70333  10.297   6.098   3.093  2.4121  2.8243  0.8873
  510MOL0     H70334  10.266   6.035   2.805 -0.2608  1.3684 -1.4264
  510MOL0     H70335  10.392   6.147   2.824 -1.8457  2.0514  1.3838
  510MOL0     H70336  10.484   5.939   2.824 -0.6463 -0.7630 -1.2419
  510MOL0     H70337  10.479   5.991   3.000 -0.2033  0.0547 -0.7877
  510MOL0     H70338  10.270   5.595   3.028 -0.9300 -0.4479  1.7459
  510MOL0     H70339  10.370   5.368   3.267  1.3310  3.2656  0.5234
  510MOL0     H70340  10.405   5.301   3.105 -0.4948  1.2262  0.1589
  510MOL0     H70341  10.258   5.389   3.132 -1.7094 -3.6091  0.8160
  510MOL0     H70342  10.966   5.620   3.354  1.0512  0.2631  2.1750
  510MOL0     H70343  11.089   5.578   3.568 -0.7689  0.1351 -0.2753
  510MOL0     H70344  11.246   5.380   3.592 -1.7039  1.0707 -0.9362
  510MOL0     H70345  11.229   5.501   3.709  5.3992 -0.2850 -2.1495
  510MOL0     H70346  11.276   5.339   3.895 -1.9877  0.8264  0.3483
  510MOL0     H70347  11.255   5.205   3.798 -0.7050  0.3684  3.8671
  510MOL0     H70348  11.470   5.422   3.719  2.7665 -0.4750  0.6044
  510MOL0     H70349  11.459   5.250   3.657 -0.0993  1.6405 -2.0667
  510MOL0     H70350  11.512   5.351   3.943  1.3772  1.7818 -1.1420
  510MOL0     H70351  11.640   5.295   3.841  0.5485  1.5665  2.3787
  510MOL0     H70352  11.428   5.127   3.966 -1.2833 -1.0312 -2.3505
  510MOL0     H70353  11.497   5.075   3.825 -0.3911  1.1430  0.1316
  510MOL0     H70354  11.652   5.116   4.079  1.3169 -3.2649  1.3341
  510MOL0     H70355  11.743   5.122   3.927 -0.9780 -1.6995 -1.9520
  510MOL0     H70356  11.579   4.905   4.074  0.5702  3.2727  0.8847
  510MOL0     H70357  11.748   4.909   4.035 -0.9525  1.4968  1.1288
  510MOL0     H70358  11.724   4.908   3.797  2.0870 -2.3657  0.4360
  510MOL0     H70359  11.551   4.871   3.809  0.3483 -0.0225  0.0991
  510MOL0     H70360  10.910   5.189   3.583 -0.3945  0.2994  1.8830
  510MOL0     H70361  10.754   5.260   3.410 -0.2636 -0.4056  2.5153
  510MOL0     H70362  10.751   5.641   3.099  0.3784 -2.3957 -3.3895
  510MOL0     H70363  10.623   5.835   3.016 -0.5191 -0.3494  0.0965
  510MOL0     H70364  10.785   6.299   3.076 -2.2356 -1.0933 -3.6283
  510MOL0     H70365  10.903   6.150   3.261  0.7745 -0.4096 -0.0074
  510MOL0     H70366  11.097   6.022   3.474  0.7799  0.2786  0.9428
  510MOL0     H70367  11.239   5.964   3.661 -3.0917 -0.2144 -0.3639
  510MOL0     H70368  11.426   5.875   3.821 -1.1387  0.4215  1.2790
  510MOL0     H70369  11.261   5.810   3.832  1.3572  0.7120  2.9815
  510MOL0     H70370  11.353   5.608   3.921  0.5893 -0.3181 -0.9304
  510MOL0     H70371  11.397   5.750   4.017 -1.3445  0.8460  0.2898
  510MOL0     H70372  11.568   5.571   3.853  3.0552  1.0745 -2.4537
  510MOL0     H70373  11.627   5.733   3.891 -1.1948 -1.2888 -3.5028
  510MOL0     H70374  11.704   5.565   4.039  1.0535  2.2313 -0.8250
  510MOL0     H70375  11.551   5.515   4.100 -1.9362  1.7292  1.3433
  510MOL0     H70376  11.625   5.872   4.321 -0.4262  1.4015 -0.1911
  510MOL0     H70377  11.387   5.624   3.439  0.2135  0.5869 -0.5262
  510MOL0     H70378  11.314   5.755   3.118  0.1013 -0.5680  0.0511
  510MOL0     H70379  11.367   5.621   3.200  2.4279  1.6881 -2.0595
  510MOL0     H70380  11.180   5.656   3.192  0.6758  0.1687 -3.0431
  511MOL0     O70381   5.922   0.553  10.473 -0.3075 -0.0307 -0.3307
  511MOL0     C70382   5.821   0.596  10.530  0.6276  0.0732  0.2073
  511MOL0     O70383   5.709   0.519  10.580 -0.2834 -0.0144  0.8749
  511MOL0     C70384   5.693   0.395  10.527 -0.4910  0.1162  0.4137
  511MOL0     C70385   5.708   0.377  10.394  0.2238 -0.0451 -0.3538
  511MOL0     C70386   5.690   0.249  10.336  0.4378 -0.7803 -1.0740
  511MOL0     C70387   5.663   0.137  10.420  0.0909 -0.2327 -0.3492
  511MOL0     O70388   5.628   0.022  10.355  0.5145  0.1655 -0.2107
  511MOL0     C70389   5.632  -0.109  10.402 -0.1216 -0.2182  0.3853
  511MOL0     C70390   5.542  -0.192  10.314 -0.3416 -0.4524  0.2376
  511MOL0     C70391   5.551  -0.336  10.358 -0.5839 -0.2567 -0.7998
  511MOL0     C70392   5.421  -0.417  10.322  0.2424  0.3449 -1.1137
  511MOL0     C70393   5.423  -0.568  10.337  0.8271  0.6096 -0.6591
  511MOL0     C70394   5.508  -0.638  10.241  0.8488 -0.4089  0.4468
  511MOL0     C70395   5.445  -0.630  10.094 -0.2718  0.3740 -0.0274
  511MOL0     C70396   5.536  -0.680   9.994 -0.4245  0.1870 -0.2814
  511MOL0     N70397   5.666  -0.612   9.991 -0.7749  0.1002  0.2579
  511MOL0     C70398   5.693  -0.467  10.013 -0.4903 -0.4884  0.0482
  511MOL0     C70399   5.830  -0.449  10.010 -0.5743 -0.0090  0.0945
  511MOL0     C70400   5.916  -0.324  10.010  0.4675  0.6532  0.4949
  511MOL0     C70401   5.958  -0.286  10.150  0.2048  1.1126 -1.2087
  511MOL0     C70402   6.050  -0.157  10.152  0.3979 -0.7817  0.2220
  511MOL0     C70403   5.979  -0.028  10.125  1.1309  0.4381 -0.3054
  511MOL0     O70404   5.948  -0.006   9.994 -0.5857 -0.0856  0.5251
  511MOL0     C70405   5.869   0.096   9.954 -0.5529 -0.3056  0.0533
  511MOL0     C70406   5.916   0.221   9.977  1.1657  0.3064 -0.2243
  511MOL0     C70407   5.838   0.328   9.957  0.0495 -0.0837 -0.1794
  511MOL0     C70408   5.910   0.450  10.014 -0.2401  0.6094  1.2949
  511MOL0     C70409   5.713   0.320   9.898 -0.3341  0.4568 -0.1306
  511MOL0     C70410   5.633   0.434   9.867  0.0782  0.6723  0.3702
  511MOL0     O70411   5.492   0.413   9.853 -0.2072 -0.0736 -0.3394
  511MOL0     C70412   5.404   0.494   9.796 -0.1390 -0.9519 -0.3798
  511MOL0     C70413   5.398   0.635   9.802  0.0903 -0.2314 -0.7011
  511MOL0     C70414   5.290   0.711   9.744 -0.2902  0.3624 -0.7706
  511MOL0     C70415   5.194   0.637   9.671  0.1774 -0.1529 -0.1590
  511MOL0     O70416   5.077   0.692   9.627 -0.4560  0.5398 -0.2022
  511MOL0     C70417   5.088   0.737   9.490 -0.2683 -0.7363 -0.8820
  511MOL0     C70418   5.051   0.639   9.384  0.6682  0.7433  0.0777
  511MOL0     C70419   4.926   0.564   9.403 -0.0655 -0.5903  0.4777
  511MOL0     C70420   4.907   0.473   9.287  0.6148  0.0013 -0.0020
  511MOL0     C70421   4.767   0.420   9.307 -0.5090 -0.2100  0.1951
  511MOL0     C70422   4.710   0.362   9.179  0.1794  0.2467 -0.0952
  511MOL0     C70423   4.558   0.321   9.184  1.0002 -0.2660  0.7658
  511MOL0     C70424   4.522   0.227   9.065  0.5773  0.0830  1.0334
  511MOL0    Cl70425   4.627   0.092   9.027 -0.1543  0.3569 -0.5027
  511MOL0     C70426   5.208   0.498   9.660 -0.9385 -0.8711  0.0055
  511MOL0     C70427   5.308   0.423   9.721  0.1912 -0.0062 -0.0261
  511MOL0     O70428   5.690   0.541   9.852  0.6374 -0.1705 -1.0177
  511MOL0     C70429   5.667   0.187   9.869  0.3662 -0.8157  0.3175
  511MOL0     C70430   5.736   0.076   9.907  0.3672 -0.5687  0.1365
  511MOL0     N70431   5.885  -0.574   9.988  0.1956  0.5935 -0.5244
  511MOL0     N70432   5.789  -0.666   9.972  0.7052 -0.7021 -1.0149
  511MOL0     C70433   5.664   0.149  10.552 -0.8229 -0.2460  0.6309
  511MOL0     C70434   5.677   0.276  10.606  0.2405  0.3404 -0.6673
  511MOL0     C70435   5.814   0.743  10.571 -0.1415 -0.5088 -0.3305
  511MOL0     C70436   5.694   0.800  10.595  0.2956  0.7493 -0.0004
  511MOL0     C70437   5.678   0.930  10.626 -0.8174 -0.5003  0.4476
  511MOL0     C70438   5.781   1.019  10.637  0.2560  0.8856  0.0397
  511MOL0     O70439   5.768   1.150  10.671 -0.2442  0.0734  0.2543
  511MOL0     C70440   5.647   1.206  10.726 -0.1326 -0.5362  0.1496
  511MOL0     C70441   5.677   1.347  10.776 -0.1253  0.2036 -0.3704
  511MOL0     C70442   5.718   1.444  10.664  0.4077 -0.1723 -0.6550
  511MOL0     C70443   5.776   1.577  10.739 -1.0279 -0.0123  0.7495
  511MOL0     C70444   5.847   1.650  10.634 -0.4044 -0.3249  0.2091
  511MOL0     C70445   5.883   1.700  10.530  0.2914 -0.1274  0.4142
  511MOL0     C70446   5.905   0.970  10.613 -0.3160  0.5375 -0.0654
  511MOL0     C70447   5.929   0.839  10.577  0.4088 -0.4016 -0.8320
  511MOL0     C70448   6.070   0.783  10.577 -1.0048  0.1838 -0.3677
  511MOL0     H70449   5.750   0.458  10.335  0.9788  1.0837  1.6440
  511MOL0     H70450   5.682   0.221  10.232  5.4778 -0.8794 -1.7182
  511MOL0     H70451   5.602  -0.111  10.507  2.4118  0.7312  1.1845
  511MOL0     H70452   5.731  -0.153  10.391 -1.2308 -2.6260 -0.7775
  511MOL0     H70453   5.438  -0.160  10.302  0.1981  1.2030 -0.2758
  511MOL0     H70454   5.572  -0.178  10.210 -0.2958  0.7100  0.3948
  511MOL0     H70455   5.642  -0.383  10.320  0.9973  1.4651  0.6645
  511MOL0     H70456   5.558  -0.342  10.467  1.4905  3.0893 -0.5926
  511MOL0     H70457   5.346  -0.387  10.396 -1.0518 -0.9729 -1.8381
  511MOL0     H70458   5.387  -0.385  10.223 -0.5101  0.9777 -0.6614
  511MOL0     H70459   5.321  -0.604  10.322 -0.1209  1.2938  2.9802
  511MOL0     H70460   5.456  -0.598  10.437 -0.3464  3.3064  0.6500
  511MOL0     H70461   5.609  -0.596  10.238  0.4111  0.6544  0.1804
  511MOL0     H70462   5.508  -0.745  10.262 -1.2661 -0.5601 -0.0676
  511MOL0     H70463   5.432  -0.527  10.060  2.5770  1.9449  3.1119
  511MOL0     H70464   5.350  -0.685  10.094 -0.7834  1.2508  0.0812
  511MOL0     H70465   5.558  -0.782  10.025  3.8068  0.9740  0.0086
  511MOL0     H70466   5.514  -0.687   9.887  1.4419  0.5373 -0.7335
  511MOL0     H70467   5.616  -0.390  10.016 -0.5681 -0.1856 -3.8737
  511MOL0     H70468   5.855  -0.240   9.974 -0.7623  0.9030  2.9758
  511MOL0     H70469   5.988  -0.345   9.930 -0.8076 -4.3713  0.2747
  511MOL0     H70470   5.867  -0.282  10.211  0.1118 -0.8525 -1.1601
  511MOL0     H70471   6.019  -0.362  10.201  1.8240  2.8461 -0.4271
  511MOL0     H70472   6.098  -0.151  10.250  2.9871  0.1931 -1.0382
  511MOL0     H70473   6.133  -0.188  10.089  2.4043 -2.1261  3.2827
  511MOL0     H70474   5.886  -0.036  10.181  1.5108 -1.1476  0.1374
  511MOL0     H70475   6.034   0.052  10.177 -0.6750 -0.1550  2.7321
  511MOL0     H70476   6.021   0.228  10.007  0.9582 -0.9595  0.9407
  511MOL0     H70477   6.003   0.425  10.065  0.0444 -1.4209 -0.0979
  511MOL0     H70478   5.846   0.514  10.076  0.0938  3.5411 -1.0983
  511MOL0     H70479   5.933   0.520   9.933 -3.0476 -1.3655 -1.4576
  511MOL0     H70480   5.479   0.681   9.857  0.2934  3.2308 -3.5948
  511MOL0     H70481   5.285   0.819   9.759  1.4930  0.6370 -1.8317
  511MOL0     H70482   5.016   0.820   9.486 -0.5124 -0.9331 -0.6243
  511MOL0     H70483   5.189   0.776   9.473 -0.1246  0.0771  1.4301
  511MOL0     H70484   5.031   0.687   9.288 -6.2214 -2.1738 -0.5370
  511MOL0     H70485   5.134   0.568   9.382  0.5504  0.6166 -0.5691
  511MOL0     H70486   4.852   0.645   9.398  0.2896 -0.3579 -2.5080
  511MOL0     H70487   4.916   0.489   9.482 -1.7018  0.0568  0.9367
  511MOL0     H70488   4.979   0.391   9.285  1.1514  0.4579  0.0660
  511MOL0     H70489   4.915   0.518   9.187 -1.2584  0.6373  0.0942
  511MOL0     H70490   4.762   0.342   9.384  0.5623  0.0195  0.5145
  511MOL0     H70491   4.699   0.503   9.325  0.6333  1.0316 -0.9988
  511MOL0     H70492   4.754   0.264   9.158 -3.0364 -1.4975  0.6902
  511MOL0     H70493   4.719   0.439   9.101 -4.7497  0.3039 -0.9436
  511MOL0     H70494   4.485   0.403   9.177 -0.3758 -1.4884  0.1689
  511MOL0     H70495   4.539   0.260   9.272  3.0013 -1.5401  0.3883
  511MOL0     H70496   4.516   0.286   8.974  4.3078  1.6034  1.6013
  511MOL0     H70497   4.422   0.184   9.077 -0.2888  1.5192 -0.5730
  511MOL0     H70498   5.129   0.443   9.610 -1.6157  0.8352 -0.8855
  511MOL0     H70499   5.324   0.316   9.719 -1.0141 -0.2157  0.4994
  511MOL0     H70500   5.570   0.166   9.826 -0.2598 -2.0273  2.2023
  511MOL0     H70501   5.687  -0.020   9.895 -1.1292  0.0990  0.6682
  511MOL0     H70502   5.650   0.068  10.622  2.7638  0.1612  1.9868
  511MOL0     H70503   5.677   0.284  10.714  0.7403 -1.6845 -0.4834
  511MOL0     H70504   5.606   0.735  10.600  0.7112  0.0882 -1.0145
  511MOL0     H70505   5.577   0.962  10.649 -0.3043  0.6446  1.1700
  511MOL0     H70506   5.580   1.198  10.640  0.3200 -2.3497 -0.0806
  511MOL0     H70507   5.613   1.145  10.810 -0.9986 -0.1509  0.0928
  511MOL0     H70508   5.766   1.348  10.839  0.8923 -4.8400 -1.3117
  511MOL0     H70509   5.589   1.397  10.817 -0.9297 -1.7280  0.3543
  511MOL0     H70510   5.803   1.405  10.608  2.0918  2.0138  0.2257
  511MOL0     H70511   5.632   1.457  10.598 -2.3120 -1.5570  2.3038
  511MOL0     H70512   5.850   1.556  10.817 -3.9740 -0.5535  3.6359
  511MOL0     H70513   5.704   1.637  10.796  0.8502  1.8253  1.3214
  511MOL0     H70514   5.913   1.747  10.438 -3.5754 -1.5180 -1.7833
  511MOL0     H70515   5.988   1.039  10.602 -0.3855  1.2415  2.8078
  511MOL0     H70516   6.078   0.689  10.632  1.2429  1.1569  1.1426
  511MOL0     H70517   6.118   0.770  10.479  3.7974 -1.3250  1.8463
  511MOL0     H70518   6.123   0.850  10.645 -0.8374 -2.4140  2.2385
  512MOL0     O70519   6.014   7.886   1.518 -0.4625 -0.6669  0.0334
  512MOL0     C70520   5.925   7.970   1.526 -0.3927  0.3577 -0.3676
  512MOL0     O70521   5.804   7.949   1.476  0.5736  0.7626  0.2309
  512MOL0     C70522   5.780   7.832   1.412  0.2506  0.8536 -0.1962
  512MOL0     C70523   5.770   7.723   1.502 -0.3194 -0.0512  0.0928
  512MOL0     C70524   5.737   7.595   1.450 -0.8183 -1.0113 -0.5027
  512MOL0     C70525   5.741   7.561   1.315 -0.0858 -0.5617 -0.0072
  512MOL0     O70526   5.715   7.433   1.281  0.1626  0.0477 -0.3728
  512MOL0     C70527   5.751   7.384   1.145  1.0731  0.2470  0.2286
  512MOL0     C70528   5.692   7.247   1.107  0.4155 -0.4347  0.3269
  512MOL0     C70529   5.684   7.146   1.223  1.0451 -0.0833  0.0615
  512MOL0     C70530   5.828   7.117   1.274  0.0761 -0.3430  0.0976
  512MOL0     C70531   5.835   7.019   1.393 -0.0898  0.4871 -0.8158
  512MOL0     C70532   5.753   7.074   1.512  0.7086  0.6278  1.0018
  512MOL0     C70533   5.791   7.216   1.566  1.2261 -0.1712  0.6755
  512MOL0     C70534   5.938   7.244   1.599 -0.5499 -0.4475 -0.4956
  512MOL0     N70535   5.933   7.365   1.679 -0.0514  0.2555 -0.6083
  512MOL0     C70536   6.005   7.486   1.661 -1.0057  1.0439  0.3891
  512MOL0     C70537   5.979   7.561   1.770 -1.2173 -0.1320 -0.2087
  512MOL0     C70538   6.051   7.693   1.810  0.1461 -0.0658 -0.6589
  512MOL0     C70539   6.195   7.671   1.841 -0.1488  0.4488  0.0404
  512MOL0     C70540   6.231   7.565   1.949 -0.4635 -0.0686  0.0493
  512MOL0     C70541   6.383   7.544   1.960  0.0227 -0.1922 -0.3942
  512MOL0     O70542   6.428   7.564   2.099  0.8559 -0.6730 -0.0616
  512MOL0     C70543   6.509   7.668   2.115 -0.9076 -0.3058  0.4174
  512MOL0     C70544   6.477   7.793   2.063  0.0823  1.1790 -0.0114
  512MOL0     C70545   6.569   7.895   2.072  0.1108 -0.2826 -0.3749
  512MOL0     C70546   6.517   8.037   2.032  0.3962 -0.3382  0.2280
  512MOL0     C70547   6.683   7.882   2.157 -0.6288  0.5739 -0.3726
  512MOL0     C70548   6.775   7.990   2.193 -0.1680 -0.9110 -0.5540
  512MOL0     O70549   6.868   7.970   2.288 -0.1302  0.2656  0.0812
  512MOL0     C70550   6.941   8.066   2.354 -0.2814 -0.0549 -0.3882
  512MOL0     C70551   6.937   8.078   2.494  0.1975  0.0136 -0.2746
  512MOL0     C70552   7.015   8.178   2.556 -0.1099 -0.7584  0.6494
  512MOL0     C70553   7.086   8.270   2.486  0.0078 -0.1072 -0.0906
  512MOL0     O70554   7.157   8.366   2.557 -0.0547  0.3328 -0.3735
  512MOL0     C70555   7.295   8.372   2.521 -0.0311 -0.7790 -0.9175
  512MOL0     C70556   7.373   8.442   2.636 -0.0580  0.2078  0.6553
  512MOL0     C70557   7.386   8.367   2.764  0.0513  0.3037 -1.2869
  512MOL0     C70558   7.421   8.224   2.751  0.8278 -0.3798  0.4585
  512MOL0     C70559   7.457   8.133   2.868  0.2867 -0.4851  0.4325
  512MOL0     C70560   7.406   8.188   3.007 -0.3006  0.2279 -0.1004
  512MOL0     C70561   7.261   8.165   3.033  0.6053  0.2127 -0.4281
  512MOL0     C70562   7.221   8.191   3.171  0.6560 -0.9531  0.5211
  512MOL0    Cl70563   7.074   8.114   3.201 -0.6601 -0.0477  0.7415
  512MOL0     C70564   7.095   8.262   2.352 -0.0417 -0.5505 -0.1968
  512MOL0     C70565   7.031   8.150   2.294  0.9718 -0.7629 -0.2514
  512MOL0     O70566   6.771   8.097   2.127 -0.0476  0.2626  0.7871
  512MOL0     C70567   6.715   7.755   2.211 -0.3759 -0.6012 -0.6783
  512MOL0     C70568   6.628   7.643   2.197 -0.2263 -0.2733  0.4006
  512MOL0     N70569   5.891   7.491   1.857  0.8044 -0.4854 -0.5574
  512MOL0     N70570   5.878   7.375   1.806 -1.0504  0.0338  0.2730
  512MOL0     C70571   5.766   7.668   1.229 -0.2304 -0.4811  0.2866
  512MOL0     C70572   5.782   7.810   1.275 -0.0230  0.6598 -0.5562
  512MOL0     C70573   5.944   8.101   1.586 -1.1231 -0.5053  0.9443
  512MOL0     C70574   5.835   8.191   1.581  0.0808  0.2548  0.7355
  512MOL0     C70575   5.844   8.314   1.640  0.4181  0.1403 -0.0783
  512MOL0     C70576   5.956   8.357   1.711  0.9412 -0.0526  0.2478
  512MOL0     O70577   5.950   8.477   1.782 -0.4745  0.2515 -0.0548
  512MOL0     C70578   6.069   8.528   1.851  1.1252 -0.9037 -0.3803
  512MOL0     C70579   6.078   8.672   1.816 -0.7509  0.0537  0.0221
  512MOL0     C70580   5.981   8.754   1.905 -0.4176  0.2946 -0.7032
  512MOL0     C70581   5.963   8.901   1.867  0.3328  0.0664 -0.1573
  512MOL0     C70582   5.897   8.916   1.738 -0.7776 -0.5083  1.0574
  512MOL0     C70583   5.838   8.930   1.631 -0.5060  0.6620 -0.2308
  512MOL0     C70584   6.068   8.282   1.707 -0.1438  1.4435 -1.0277
  512MOL0     C70585   6.067   8.147   1.647 -0.1739  0.9978 -0.4655
  512MOL0     C70586   6.201   8.072   1.666  0.4297 -0.8328 -0.4381
  512MOL0     H70587   5.781   7.743   1.608  0.2824 -0.8032  0.1772
  512MOL0     H70588   5.726   7.521   1.529  2.7298 -2.3764 -1.1213
  512MOL0     H70589   5.860   7.376   1.144  0.9670 -2.9720 -1.5624
  512MOL0     H70590   5.715   7.462   1.077 -2.6898 -1.4875 -0.0526
  512MOL0     H70591   5.591   7.278   1.078  0.8312  0.3567 -0.3169
  512MOL0     H70592   5.750   7.209   1.022 -0.0003  3.3495 -1.8763
  512MOL0     H70593   5.610   7.179   1.297 -0.1199 -1.0222 -0.6564
  512MOL0     H70594   5.641   7.055   1.181  2.4496 -0.9235  0.3564
  512MOL0     H70595   5.892   7.082   1.192  0.3925  2.3727 -0.9377
  512MOL0     H70596   5.885   7.201   1.314  1.6949 -1.1893 -0.3272
  512MOL0     H70597   5.939   7.004   1.425 -0.2721  0.1309 -0.3781
  512MOL0     H70598   5.790   6.928   1.354  0.3573  1.1270 -2.9709
  512MOL0     H70599   5.648   7.069   1.480  1.5564 -1.7219 -1.8310
  512MOL0     H70600   5.771   7.006   1.595 -0.2698 -2.0611 -0.8703
  512MOL0     H70601   5.737   7.234   1.659 -1.0792  2.1787 -0.9792
  512MOL0     H70602   5.769   7.287   1.486  3.1494 -0.2927 -0.0314
  512MOL0     H70603   5.972   7.167   1.669  0.9070 -1.4632 -2.2278
  512MOL0     H70604   5.991   7.253   1.504 -2.1651  1.0765 -1.3131
  512MOL0     H70605   6.064   7.511   1.573  1.8281  1.2691  2.2396
  512MOL0     H70606   5.995   7.721   1.899 -1.5108 -1.0383 -1.3328
  512MOL0     H70607   6.019   7.771   1.740 -3.3889  1.1381  2.0559
  512MOL0     H70608   6.220   7.630   1.743 -0.8676 -0.8044  0.3541
  512MOL0     H70609   6.247   7.765   1.861  1.3681 -0.7540  2.1843
  512MOL0     H70610   6.195   7.596   2.047 -0.2188 -1.0885  0.4785
  512MOL0     H70611   6.183   7.468   1.930  1.1119 -0.9216  0.2393
  512MOL0     H70612   6.410   7.443   1.926  2.7768  0.4115 -0.2235
  512MOL0     H70613   6.438   7.611   1.894 -1.1942  4.8460  3.1664
  512MOL0     H70614   6.386   7.800   2.005  1.4431 -0.9329 -2.6462
  512MOL0     H70615   6.592   8.086   1.969 -0.3333 -0.3957 -0.7058
  512MOL0     H70616   6.489   8.101   2.116 -2.4129  0.9644 -1.5440
  512MOL0     H70617   6.432   8.035   1.963  0.3785  1.0468  0.1748
  512MOL0     H70618   6.868   8.009   2.541  0.3825  0.4478  0.6483
  512MOL0     H70619   7.015   8.181   2.665  0.6146 -2.6114  0.7429
  512MOL0     H70620   7.341   8.275   2.502  2.3157  0.1913 -0.5591
  512MOL0     H70621   7.309   8.428   2.428 -0.9368  0.0467 -0.5690
  512MOL0     H70622   7.477   8.468   2.611  0.3018 -1.1824  0.5862
  512MOL0     H70623   7.329   8.541   2.646  2.2606  1.5147 -0.9735
  512MOL0     H70624   7.296   8.377   2.826 -0.4641 -2.4817 -1.4301
  512MOL0     H70625   7.467   8.419   2.815  1.2081  0.4323 -3.1752
  512MOL0     H70626   7.507   8.230   2.684  0.2554  1.1940 -0.1743
  512MOL0     H70627   7.342   8.178   2.690 -0.8999  2.2814  0.5039
  512MOL0     H70628   7.410   8.036   2.851  0.4272 -0.3849 -0.6069
  512MOL0     H70629   7.566   8.133   2.875  0.2387  1.8612  2.5419
  512MOL0     H70630   7.436   8.293   3.015  1.1683  0.2178 -3.6978
  512MOL0     H70631   7.460   8.137   3.088 -2.2907  2.4435  2.8403
  512MOL0     H70632   7.231   8.061   3.018 -0.0340  0.5409 -1.5761
  512MOL0     H70633   7.193   8.230   2.978 -0.2462 -0.0902  0.2464
  512MOL0     H70634   7.212   8.299   3.181  2.6840 -0.6042 -0.8581
  512MOL0     H70635   7.295   8.152   3.241  1.4550 -1.5670 -0.6182
  512MOL0     H70636   7.146   8.337   2.292  0.7958 -0.8231  0.1556
  512MOL0     H70637   7.034   8.138   2.186  1.6170  0.5355 -0.3954
  512MOL0     H70638   6.803   7.738   2.272 -0.4372 -0.8921 -0.6651
  512MOL0     H70639   6.653   7.547   2.242  0.6427 -0.8977 -1.3106
  512MOL0     H70640   5.782   7.653   1.123  1.4745 -0.9395  0.5675
  512MOL0     H70641   5.793   7.891   1.203 -0.6311  0.9594 -0.3165
  512MOL0     H70642   5.742   8.164   1.531 -0.5845  1.3442  1.3455
  512MOL0     H70643   5.758   8.379   1.652 -0.7067 -1.2657 -0.2304
  512MOL0     H70644   6.060   8.506   1.958 -0.6538 -0.3874 -0.3938
  512MOL0     H70645   6.168   8.489   1.823  2.5527  2.0767  0.0492
  512MOL0     H70646   6.060   8.693   1.710  1.3244  1.2502 -0.1462
  512MOL0     H70647   6.181   8.706   1.833 -0.8347  0.5417 -0.4121
  512MOL0     H70648   5.882   8.707   1.904 -2.1995  3.7106  0.4085
  512MOL0     H70649   6.028   8.744   2.003  1.0931  3.2078 -1.0401
  512MOL0     H70650   6.059   8.955   1.865 -1.5295  3.7606 -3.4201
  512MOL0     H70651   5.905   8.956   1.942 -1.0698 -0.3795 -0.8881
  512MOL0     H70652   5.786   8.952   1.540  1.1477  1.1113 -1.1171
  512MOL0     H70653   6.160   8.298   1.762 -0.3863  1.7832 -0.7181
  512MOL0     H70654   6.173   8.005   1.748 -1.7366 -1.8481 -1.9077
  512MOL0     H70655   6.224   8.016   1.574 -0.6528 -3.7407  0.9181
  512MOL0     H70656   6.284   8.139   1.688  2.1680 -2.7222 -0.9458
  513MOL0     O70657   0.116   4.114   6.909  1.1316  0.8505 -0.0166
  513MOL0     C70658   0.042   4.164   7.001  0.1557 -0.3683  0.4021
  513MOL0     O70659  -0.085   4.122   7.036  0.2857 -0.3621 -0.3262
  513MOL0     C70660  -0.169   4.053   6.954  0.4862  0.3957 -0.0176
  513MOL0     C70661  -0.162   4.049   6.814  0.4109 -0.4907 -0.3879
  513MOL0     C70662  -0.259   3.979   6.739  0.7188  0.0392  0.2155
  513MOL0     C70663  -0.366   3.917   6.803  0.1634 -0.4680 -0.5710
  513MOL0     O70664  -0.459   3.857   6.722 -0.4260 -0.3229 -0.0359
  513MOL0     C70665  -0.579   3.793   6.774 -0.6007  0.8908 -0.1704
  513MOL0     C70666  -0.689   3.808   6.679  0.2845 -0.3979 -0.3343
  513MOL0     C70667  -0.693   3.697   6.570  0.4179 -1.3792  0.9787
  513MOL0     C70668  -0.802   3.738   6.470  0.3694  0.2993  0.1503
  513MOL0     C70669  -0.849   3.614   6.381  0.4104 -0.1031 -0.5537
  513MOL0     C70670  -0.723   3.593   6.284  0.2329  0.2600 -0.7190
  513MOL0     C70671  -0.746   3.484   6.179  0.3024 -0.9121  0.7087
  513MOL0     C70672  -0.871   3.481   6.097  1.3163 -0.3389  0.5226
  513MOL0     N70673  -0.869   3.388   5.979 -0.0232 -0.6192 -0.2326
  513MOL0     C70674  -0.820   3.262   5.991  0.6928 -0.7491  0.0661
  513MOL0     C70675  -0.801   3.230   5.861 -0.0690 -0.5404  0.2983
  513MOL0     C70676  -0.768   3.095   5.808  0.1535 -0.1165  1.1777
  513MOL0     C70677  -0.619   3.063   5.801 -0.8985 -0.6270  0.6096
  513MOL0     C70678  -0.554   3.159   5.698  0.0275 -0.8724 -0.5656
  513MOL0     C70679  -0.398   3.142   5.699  0.2851  0.3377 -0.1783
  513MOL0     O70680  -0.365   2.999   5.680 -0.1793  0.2999  0.3173
  513MOL0     C70681  -0.257   2.963   5.600  0.1131 -1.3521  0.6420
  513MOL0     C70682  -0.154   2.898   5.657 -0.3486  0.0271 -0.2023
  513MOL0     C70683  -0.036   2.853   5.586 -0.3437 -0.5471 -0.2520
  513MOL0     C70684   0.058   2.774   5.669 -0.9304  0.0516  0.4197
  513MOL0     C70685  -0.025   2.883   5.446  0.7044  0.9570  0.3062
  513MOL0     C70686   0.099   2.845   5.361  0.4724 -0.0952 -0.2583
  513MOL0     O70687   0.102   2.878   5.229 -0.2660 -0.3392 -0.2196
  513MOL0     C70688   0.195   2.820   5.150  0.5016 -0.2799 -0.2773
  513MOL0     C70689   0.195   2.683   5.120 -0.1177 -0.0373  0.3808
  513MOL0     C70690   0.284   2.625   5.029 -0.4906  0.0926 -0.3176
  513MOL0     C70691   0.392   2.706   4.986 -0.7625  0.5506  0.4641
  513MOL0     O70692   0.485   2.644   4.912 -0.3148  0.7256  0.0302
  513MOL0     C70693   0.621   2.682   4.937  0.1945 -0.8274 -0.9590
  513MOL0     C70694   0.701   2.798   4.857 -0.2051 -0.1869  0.1006
  513MOL0     C70695   0.693   2.744   4.710  0.2856 -0.0335  0.1498
  513MOL0     C70696   0.705   2.870   4.611 -0.3191  1.2564 -0.4471
  513MOL0     C70697   0.702   2.826   4.466  0.3442 -0.0586  0.3401
  513MOL0     C70698   0.569   2.754   4.420 -0.7554  0.1401 -0.1405
  513MOL0     C70699   0.437   2.814   4.473  1.3449  0.0865 -0.3780
  513MOL0     C70700   0.402   2.960   4.429 -0.1997  0.5665 -0.9717
  513MOL0    Cl70701   0.495   3.099   4.462  0.4492  0.2357  0.7623
  513MOL0     C70702   0.402   2.839   5.030 -0.0599 -0.5014  0.1544
  513MOL0     C70703   0.294   2.897   5.094  0.2869  0.6537  0.3092
  513MOL0     O70704   0.182   2.778   5.421 -0.3261 -0.0072  0.7195
  513MOL0     C70705  -0.141   2.940   5.385 -0.2102 -1.0550 -0.3170
  513MOL0     C70706  -0.253   2.984   5.463 -0.0530  1.0490 -0.1325
  513MOL0     N70707  -0.837   3.340   5.775  0.9419 -0.0521  0.1265
  513MOL0     N70708  -0.880   3.432   5.852  1.0932  0.2301  0.4163
  513MOL0     C70709  -0.379   3.928   6.945  0.1904 -0.7260 -0.5731
  513MOL0     C70710  -0.278   3.994   7.013  1.1398  0.3835  1.1208
  513MOL0     C70711   0.103   4.268   7.083  0.1315 -0.8986 -0.2734
  513MOL0     C70712   0.057   4.278   7.212 -0.6938 -0.6986 -0.1222
  513MOL0     C70713   0.114   4.364   7.306  0.3784 -0.3854  0.6922
  513MOL0     C70714   0.222   4.446   7.269  0.4237  0.3579  0.8185
  513MOL0     O70715   0.277   4.534   7.352 -0.5999 -0.2244  0.0031
  513MOL0     C70716   0.198   4.579   7.464 -0.2353  0.9302  0.0243
  513MOL0     C70717   0.265   4.708   7.516 -0.5416  0.7521  0.3755
  513MOL0     C70718   0.413   4.698   7.534  1.1001  0.2590 -0.1445
  513MOL0     C70719   0.440   4.744   7.676 -0.1985 -1.0324  0.0189
  513MOL0     C70720   0.581   4.742   7.700  0.3744  0.2113 -0.2525
  513MOL0     C70721   0.702   4.735   7.729 -0.0485 -0.7530  0.2251
  513MOL0     C70722   0.279   4.438   7.142  0.4785 -0.3785  0.0132
  513MOL0     C70723   0.211   4.356   7.049 -0.5720 -0.1215 -0.5790
  513MOL0     C70724   0.269   4.376   6.911 -0.0798 -0.1552 -1.0442
  513MOL0     H70725  -0.081   4.099   6.761  1.3886 -1.0821  0.4939
  513MOL0     H70726  -0.255   3.960   6.632  0.5916  1.6436 -0.0926
  513MOL0     H70727  -0.607   3.847   6.865 -1.1300  1.4804 -0.6724
  513MOL0     H70728  -0.557   3.689   6.799 -0.7455  0.1637 -2.8434
  513MOL0     H70729  -0.778   3.788   6.739  1.6986 -2.1272  1.3080
  513MOL0     H70730  -0.693   3.916   6.660 -0.1171 -0.4111 -0.3308
  513MOL0     H70731  -0.599   3.690   6.516 -0.0910 -0.9487  0.0149
  513MOL0     H70732  -0.699   3.595   6.608 -0.9619 -0.1421  4.5739
  513MOL0     H70733  -0.894   3.753   6.528  0.0381  0.3886 -0.3887
  513MOL0     H70734  -0.775   3.831   6.421  0.5405  0.8641  1.2892
  513MOL0     H70735  -0.926   3.639   6.308 -1.4829 -0.4928  1.2232
  513MOL0     H70736  -0.887   3.534   6.445  1.8652  1.2156  2.1315
  513MOL0     H70737  -0.701   3.684   6.227  0.8833  0.2290 -0.5294
  513MOL0     H70738  -0.629   3.561   6.331 -0.5723 -1.4505 -0.2053
  513MOL0     H70739  -0.755   3.384   6.222 -0.2015 -1.5263 -0.7492
  513MOL0     H70740  -0.659   3.495   6.113  0.4879  0.5380  1.1773
  513MOL0     H70741  -0.952   3.454   6.166 -1.6999  0.8004 -2.3304
  513MOL0     H70742  -0.895   3.576   6.048  1.6140 -0.6644 -0.2627
  513MOL0     H70743  -0.803   3.211   6.085  2.2517  0.4104  0.4630
  513MOL0     H70744  -0.812   3.080   5.709  0.0164 -1.9237  1.4819
  513MOL0     H70745  -0.811   3.015   5.868  3.9889 -1.9259  1.8232
  513MOL0     H70746  -0.577   3.075   5.901 -1.7441  0.6142  0.8474
  513MOL0     H70747  -0.612   2.963   5.759  1.8997  0.1679 -1.0983
  513MOL0     H70748  -0.597   3.149   5.598 -0.7128 -0.2942 -0.3128
  513MOL0     H70749  -0.577   3.259   5.735 -0.1918 -1.7617  1.8689
  513MOL0     H70750  -0.368   3.198   5.610 -0.2620  0.9477  0.0188
  513MOL0     H70751  -0.359   3.172   5.797  0.6271  0.7515 -0.4344
  513MOL0     H70752  -0.155   2.876   5.763 -0.1200  0.2484 -0.1521
  513MOL0     H70753   0.023   2.760   5.772 -2.9379  0.1620 -0.2101
  513MOL0     H70754   0.162   2.804   5.650 -0.4910 -0.9842  1.0816
  513MOL0     H70755   0.055   2.676   5.622 -1.4143 -0.0609  0.6826
  513MOL0     H70756   0.124   2.615   5.165 -1.3499 -1.4582 -3.3061
  513MOL0     H70757   0.288   2.518   5.013 -1.9159 -0.2190  1.1128
  513MOL0     H70758   0.637   2.692   5.045  2.0824  1.3857 -1.3548
  513MOL0     H70759   0.681   2.595   4.911 -1.9125 -1.7863 -2.9431
  513MOL0     H70760   0.651   2.895   4.865  1.6623  0.6808  2.5473
  513MOL0     H70761   0.800   2.822   4.898 -0.7832  0.0116  1.4464
  513MOL0     H70762   0.592   2.705   4.691  0.3623  0.0783 -0.4985
  513MOL0     H70763   0.761   2.660   4.693  0.2064  0.2204 -1.6667
  513MOL0     H70764   0.789   2.934   4.641  0.4929  1.7898 -3.4796
  513MOL0     H70765   0.619   2.927   4.645  1.0394  1.5119  3.0064
  513MOL0     H70766   0.710   2.910   4.397  1.7861  0.9087  1.6253
  513MOL0     H70767   0.782   2.753   4.451  0.8434  0.5802 -0.1751
  513MOL0     H70768   0.573   2.649   4.450  0.7055  0.7185  1.8971
  513MOL0     H70769   0.554   2.773   4.313 -0.0505  1.1118 -0.0793
  513MOL0     H70770   0.439   2.815   4.582 -4.1077  1.5799  0.0032
  513MOL0     H70771   0.350   2.752   4.450  1.6725 -0.5016 -0.0710
  513MOL0     H70772   0.302   2.983   4.467 -0.4839  0.4312 -1.6258
  513MOL0     H70773   0.384   2.954   4.322 -2.1033  1.0814 -0.7141
  513MOL0     H70774   0.473   2.916   5.001 -0.6198 -0.1903 -0.4527
  513MOL0     H70775   0.303   3.002   5.120  0.4376  1.9046 -3.9864
  513MOL0     H70776  -0.128   2.978   5.285  2.2690  3.5563  1.4812
  513MOL0     H70777  -0.346   3.026   5.426 -1.7538 -1.6818  0.7905
  513MOL0     H70778  -0.461   3.877   6.996  0.7292 -1.2858 -0.2522
  513MOL0     H70779  -0.258   3.983   7.119  2.6096  3.4201  1.2887
  513MOL0     H70780  -0.013   4.204   7.250 -2.2117 -0.3472 -2.0962
  513MOL0     H70781   0.089   4.368   7.411  2.0127 -3.1780  1.2944
  513MOL0     H70782   0.093   4.599   7.437  0.1166 -0.3562 -2.6122
  513MOL0     H70783   0.197   4.506   7.546 -0.1261 -1.2277 -1.8028
  513MOL0     H70784   0.204   4.737   7.602 -0.0737  2.7484  0.0712
  513MOL0     H70785   0.252   4.792   7.447  1.7322  0.2731 -0.7147
  513MOL0     H70786   0.457   4.598   7.521 -0.7367 -0.5480 -0.5368
  513MOL0     H70787   0.459   4.755   7.453  1.1231  0.2037 -0.1706
  513MOL0     H70788   0.401   4.683   7.757  2.8031 -1.6685  1.0895
  513MOL0     H70789   0.421   4.851   7.690  1.6499 -0.9516  2.5143
  513MOL0     H70790   0.804   4.753   7.754  0.0097 -0.6377 -0.0902
  513MOL0     H70791   0.374   4.484   7.115 -0.0106 -0.4900 -2.1107
  513MOL0     H70792   0.334   4.293   6.880 -0.4181 -0.1057 -1.9191
  513MOL0     H70793   0.195   4.398   6.834  0.8439  0.7183 -1.7078
  513MOL0     H70794   0.331   4.466   6.903 -0.8739  0.6671  1.2766
  514MOL0     O70795  10.082   3.071   3.856  0.0712 -0.0220 -0.0597
  514MOL0     C70796  10.085   3.190   3.883 -0.1381  0.3971 -0.2059
  514MOL0     O70797   9.999   3.284   3.837 -0.5511 -0.1409 -0.4846
  514MOL0     C70798   9.889   3.242   3.761  0.3791 -0.0243  0.0730
  514MOL0     C70799   9.791   3.169   3.815 -0.1702 -0.1479 -0.0726
  514MOL0     C70800   9.680   3.116   3.745  0.2999 -0.0009  0.1058
  514MOL0     C70801   9.665   3.151   3.602 -0.0753 -1.3917  0.5974
  514MOL0     O70802   9.564   3.120   3.519 -0.3081 -0.2404  0.0549
  514MOL0     C70803   9.438   3.104   3.572  0.7125  0.0145 -0.6617
  514MOL0     C70804   9.414   2.961   3.566  0.9112  0.1577  0.8789
  514MOL0     C70805   9.396   2.911   3.415 -0.6637 -0.5482 -0.2141
  514MOL0     C70806   9.336   2.769   3.416  0.5801 -0.7014  0.2342
  514MOL0     C70807   9.345   2.700   3.285 -0.0140 -0.1080 -0.8324
  514MOL0     C70808   9.288   2.775   3.163 -1.0640  0.1625 -0.8341
  514MOL0     C70809   9.317   2.697   3.034 -0.7701  0.8847  0.2513
  514MOL0     C70810   9.243   2.745   2.916 -0.6176 -0.7632 -0.5423
  514MOL0     N70811   9.271   2.896   2.899  0.0124 -0.1182  0.7553
  514MOL0     C70812   9.369   2.943   2.824 -0.1735 -0.1988  1.2300
  514MOL0     C70813   9.379   3.075   2.849  0.6021  0.3665  0.4305
  514MOL0     C70814   9.471   3.168   2.791 -0.1507 -0.5080  1.0411
  514MOL0     C70815   9.397   3.286   2.711 -0.2287  0.9041 -0.4330
  514MOL0     C70816   9.486   3.405   2.696 -0.5543 -1.0857 -0.3389
  514MOL0     C70817   9.409   3.510   2.608  1.1335 -0.4226  0.2008
  514MOL0     O70818   9.498   3.611   2.573 -1.7491 -0.1907  0.5187
  514MOL0     C70819   9.587   3.601   2.475  0.2487  0.6207  0.5899
  514MOL0     C70820   9.696   3.692   2.485  0.0258  0.2921 -0.7250
  514MOL0     C70821   9.800   3.702   2.391 -0.2239 -0.2236  0.3469
  514MOL0     C70822   9.917   3.782   2.421  0.1324 -0.2388 -0.1227
  514MOL0     C70823   9.792   3.626   2.269 -0.5615  0.2203 -0.3704
  514MOL0     C70824   9.877   3.624   2.155 -0.8401 -0.0749  0.3155
  514MOL0     O70825   9.971   3.733   2.150 -0.3047 -0.1532 -0.1304
  514MOL0     C70826  10.065   3.730   2.052 -0.3030 -0.2522 -0.0857
  514MOL0     C70827  10.164   3.645   2.074 -0.0693  0.1967  0.3453
  514MOL0     C70828  10.270   3.643   1.979 -0.1507  0.1861  0.1953
  514MOL0     C70829  10.250   3.712   1.854 -0.2140 -0.6393 -1.4137
  514MOL0     O70830  10.334   3.723   1.746 -0.2798 -0.1171  0.1367
  514MOL0     C70831  10.450   3.641   1.741  0.6282  0.1022  0.0407
  514MOL0     C70832  10.403   3.511   1.668 -0.4906  0.0790  1.1580
  514MOL0     C70833  10.519   3.410   1.633  0.5591 -0.1460  0.9337
  514MOL0     C70834  10.597   3.369   1.760 -0.0476 -0.7208  0.3980
  514MOL0     C70835  10.632   3.226   1.733 -0.3445  0.1585 -0.4422
  514MOL0     C70836  10.738   3.166   1.840  0.8921  0.1687 -0.0550
  514MOL0     C70837  10.766   3.019   1.831  0.0624 -0.5627 -0.0418
  514MOL0     C70838  10.809   2.973   1.693 -0.2279  0.3630  0.2172
  514MOL0    Cl70839  10.687   2.953   1.566 -0.1769 -0.7280 -0.0807
  514MOL0     C70840  10.147   3.804   1.848 -0.7403 -0.3174  0.2865
  514MOL0     C70841  10.046   3.818   1.943  1.1856  1.7007 -0.0473
  514MOL0     O70842   9.876   3.528   2.081  0.3202  0.2428  0.1341
  514MOL0     C70843   9.678   3.544   2.255  0.6365 -0.6049  0.2726
  514MOL0     C70844   9.578   3.532   2.350  0.8811 -0.1394 -0.2950
  514MOL0     N70845   9.279   3.102   2.942 -0.2714  0.2014  0.8139
  514MOL0     N70846   9.212   2.996   2.964 -0.7571  0.2527  0.0134
  514MOL0     C70847   9.770   3.229   3.545  0.6992  0.7146 -0.3494
  514MOL0     C70848   9.882   3.262   3.619  0.0880 -0.6381  0.7947
  514MOL0     C70849  10.191   3.232   3.988  0.4293 -0.4157  0.4302
  514MOL0     C70850  10.304   3.143   3.997  0.0126 -0.5090 -0.2805
  514MOL0     C70851  10.402   3.172   4.097 -0.2735  0.1615 -0.6835
  514MOL0     C70852  10.397   3.279   4.183 -0.0104  0.5865 -0.0294
  514MOL0     O70853  10.482   3.300   4.283 -0.7709 -0.6439 -0.5208
  514MOL0     C70854  10.608   3.234   4.297  0.1767  0.2218 -0.1620
  514MOL0     C70855  10.711   3.263   4.184 -0.1096 -0.7431 -0.7437
  514MOL0     C70856  10.825   3.158   4.174  0.3498  0.3290  0.5565
  514MOL0     C70857  10.920   3.157   4.291 -0.2213 -0.6357 -0.0798
  514MOL0     C70858  10.857   3.103   4.410 -0.3165 -0.3333  0.1900
  514MOL0     C70859  10.825   3.044   4.510  0.0318 -0.3244 -0.2917
  514MOL0     C70860  10.280   3.356   4.173  0.2664  0.2217 -0.1929
  514MOL0     C70861  10.179   3.342   4.077  0.3110  1.0321  0.0678
  514MOL0     C70862  10.054   3.428   4.095 -0.4264 -0.4326 -0.4048
  514MOL0     H70863   9.794   3.151   3.922  2.1922 -0.4950 -0.1437
  514MOL0     H70864   9.611   3.057   3.805 -0.8356  3.9158  3.1169
  514MOL0     H70865   9.359   3.161   3.522  0.1130 -0.1483  0.0897
  514MOL0     H70866   9.435   3.139   3.676 -2.3210 -1.9705  0.0535
  514MOL0     H70867   9.493   2.893   3.600 -1.6165 -1.7966  3.4006
  514MOL0     H70868   9.328   2.940   3.630 -0.9027  0.1355 -1.4358
  514MOL0     H70869   9.328   2.974   3.358  1.4911  1.8182 -0.3616
  514MOL0     H70870   9.496   2.925   3.373 -1.2663 -0.1134 -1.5585
  514MOL0     H70871   9.382   2.712   3.497  0.7150  2.4779  2.6045
  514MOL0     H70872   9.235   2.765   3.456  0.9154  0.2876  1.2304
  514MOL0     H70873   9.286   2.608   3.297  0.5020 -0.1723  1.8335
  514MOL0     H70874   9.445   2.660   3.268 -0.5168 -0.5519 -3.0386
  514MOL0     H70875   9.180   2.784   3.176 -0.7491  2.4008  0.9390
  514MOL0     H70876   9.322   2.877   3.141 -2.5815  1.1211  1.0399
  514MOL0     H70877   9.302   2.592   3.060  1.1463  0.2094 -1.1084
  514MOL0     H70878   9.420   2.704   2.998 -1.7802 -0.3697 -3.3584
  514MOL0     H70879   9.272   2.685   2.828  2.1332  0.7969 -0.8229
  514MOL0     H70880   9.138   2.739   2.947  0.1094 -3.3164  1.8916
  514MOL0     H70881   9.431   2.890   2.753  1.6077  2.1647  0.8928
  514MOL0     H70882   9.537   3.110   2.726 -2.7669 -2.1314 -0.3751
  514MOL0     H70883   9.524   3.216   2.874  0.6522  0.0395  0.2293
  514MOL0     H70884   9.363   3.248   2.614  0.5993  0.4167 -0.5357
  514MOL0     H70885   9.311   3.321   2.770 -0.4246 -0.7827  0.3542
  514MOL0     H70886   9.495   3.448   2.796 -3.7791 -0.5328 -0.1880
  514MOL0     H70887   9.583   3.378   2.651  1.0319  4.1338 -0.6838
  514MOL0     H70888   9.382   3.455   2.518 -1.3516  1.2060 -0.1422
  514MOL0     H70889   9.316   3.550   2.648 -0.9989  0.6877 -5.0662
  514MOL0     H70890   9.705   3.743   2.581  1.7610 -3.0585  1.0630
  514MOL0     H70891  10.008   3.740   2.378  0.7578  2.9377 -2.2273
  514MOL0     H70892   9.924   3.817   2.525 -0.6964  1.5695 -0.6265
  514MOL0     H70893   9.913   3.874   2.361 -1.0128 -0.9929 -1.2539
  514MOL0     H70894  10.170   3.585   2.164  1.6118  0.6596  0.5754
  514MOL0     H70895  10.347   3.568   1.993 -0.8641 -0.4760  0.6184
  514MOL0     H70896  10.517   3.700   1.678  2.5131 -2.3921 -0.4332
  514MOL0     H70897  10.502   3.623   1.836 -0.2061  1.7082  0.8508
  514MOL0     H70898  10.327   3.466   1.731  0.0036 -0.9207  1.0588
  514MOL0     H70899  10.360   3.544   1.573 -0.2523  2.0483  1.6797
  514MOL0     H70900  10.589   3.447   1.557  3.9481 -3.7146  1.9679
  514MOL0     H70901  10.480   3.315   1.594  3.5609 -0.7829 -0.9272
  514MOL0     H70902  10.550   3.388   1.857  0.2550  0.1856  0.3773
  514MOL0     H70903  10.695   3.418   1.761  0.0190 -0.8519  0.2411
  514MOL0     H70904  10.536   3.178   1.750 -0.2456 -0.0103 -0.3563
  514MOL0     H70905  10.673   3.210   1.633  0.0070 -0.4356 -0.2039
  514MOL0     H70906  10.692   3.176   1.938 -2.5609  3.1579 -1.7363
  514MOL0     H70907  10.833   3.220   1.834  1.1999 -0.4331 -0.8299
  514MOL0     H70908  10.678   2.968   1.869 -0.1711 -0.2032 -0.0922
  514MOL0     H70909  10.843   2.986   1.902  1.3502 -0.7169 -1.4453
  514MOL0     H70910  10.863   2.879   1.696  2.4712  1.7349 -1.3970
  514MOL0     H70911  10.875   3.044   1.642  1.1570  0.8103  2.4902
  514MOL0     H70912  10.149   3.870   1.762 -2.8775 -1.7731 -0.9613
  514MOL0     H70913   9.957   3.880   1.934 -0.6771 -0.8545 -0.3414
  514MOL0     H70914   9.656   3.478   2.171 -0.7795 -2.1889  1.8261
  514MOL0     H70915   9.498   3.463   2.326  0.9177 -0.6810  1.0534
  514MOL0     H70916   9.767   3.254   3.439  0.1594  1.6294 -0.1335
  514MOL0     H70917   9.963   3.329   3.590  0.3914  0.0297  2.9892
  514MOL0     H70918  10.327   3.062   3.928 -0.2056 -0.1534 -0.7850
  514MOL0     H70919  10.480   3.097   4.086 -0.7649 -0.2809 -1.2627
  514MOL0     H70920  10.650   3.274   4.389 -0.9547  1.0110  0.0280
  514MOL0     H70921  10.592   3.126   4.295  3.6272 -0.4122 -0.5367
  514MOL0     H70922  10.748   3.364   4.201 -0.9286 -0.4922 -0.3946
  514MOL0     H70923  10.662   3.261   4.086 -0.3778  0.6106 -0.6542
  514MOL0     H70924  10.805   3.054   4.149 -0.9211  0.5124  0.7527
  514MOL0     H70925  10.880   3.198   4.088  0.4036 -0.7540  0.0766
  514MOL0     H70926  10.967   3.255   4.307  0.5000 -0.6472 -1.8332
  514MOL0     H70927  11.001   3.087   4.271 -0.7658 -1.6321  1.1154
  514MOL0     H70928  10.795   2.982   4.592 -1.4963  1.4458  0.5659
  514MOL0     H70929  10.277   3.442   4.240 -1.6332 -0.5361  0.8090
  514MOL0     H70930  10.095   3.527   4.120  0.9701 -0.8080 -1.1400
  514MOL0     H70931   9.994   3.457   4.008  1.8969  2.2011 -1.2788
  514MOL0     H70932   9.990   3.407   4.182 -1.5059  4.1761  0.2160
  515MOL0     O70933  10.966   6.655  11.493 -0.5465  0.7672 -0.1919
  515MOL0     C70934  10.902   6.759  11.476 -0.0707  0.2464 -0.1190
  515MOL0     O70935  10.810   6.785  11.380 -0.0444 -0.2734 -0.1940
  515MOL0     C70936  10.801   6.694  11.280  0.5006  1.0087 -0.9205
  515MOL0     C70937  10.836   6.722  11.155  0.5346 -0.4622  0.0860
  515MOL0     C70938  10.839   6.629  11.054 -0.6191  0.8094  0.3171
  515MOL0     C70939  10.794   6.500  11.076  1.5851 -0.0832  0.6770
  515MOL0     O70940  10.795   6.426  10.961 -0.3623  0.0835 -0.6100
  515MOL0     C70941  10.710   6.303  10.966  0.2022  0.5267  0.6466
  515MOL0     C70942  10.673   6.270  10.818  0.0317 -0.1436  0.3414
  515MOL0     C70943  10.790   6.219  10.734 -0.8539 -0.1701 -0.1187
  515MOL0     C70944  10.745   6.187  10.594  0.6280  0.0271 -0.4551
  515MOL0     C70945  10.853   6.111  10.515  0.0241  0.8721  0.9001
  515MOL0     C70946  10.782   6.047  10.390 -0.3540  0.8412 -1.0114
  515MOL0     C70947  10.713   6.141  10.290  0.1346  0.3222  0.1911
  515MOL0     C70948  10.663   6.072  10.158 -0.2342  0.1772  0.0585
  515MOL0     N70949  10.771   5.996  10.093 -0.1246 -0.1299 -0.0416
  515MOL0     C70950  10.863   6.055  10.014  0.1210  1.2145 -0.3156
  515MOL0     C70951  10.924   5.950   9.955 -0.4796 -0.4114  0.8652
  515MOL0     C70952  11.021   5.963   9.843  0.5104 -0.0160  1.1426
  515MOL0     C70953  11.158   5.995   9.895  0.4114  0.2896 -0.3384
  515MOL0     C70954  11.257   6.025   9.781  0.2163 -0.1767 -0.0581
  515MOL0     C70955  11.284   5.903   9.698  0.3888 -0.0845 -0.5182
  515MOL0     O70956  11.341   5.921   9.573 -0.0844 -0.4038  0.0595
  515MOL0     C70957  11.467   5.891   9.554  0.8276  0.1711 -0.0492
  515MOL0     C70958  11.494   5.828   9.433  0.2142 -0.0077 -0.0673
  515MOL0     C70959  11.626   5.799   9.401 -0.2709 -0.6370  0.3759
  515MOL0     C70960  11.643   5.747   9.261  0.4867 -1.4353 -0.1230
  515MOL0     C70961  11.738   5.829   9.484  0.0162 -0.8019 -1.2104
  515MOL0     C70962  11.879   5.785   9.463 -0.1233  0.5398 -0.1481
  515MOL0     O70963  11.906   5.675   9.385  0.4649  0.1987  0.0960
  515MOL0     C70964  12.029   5.622   9.353 -0.3367 -0.8836 -0.9167
  515MOL0     C70965  12.137   5.624   9.444 -0.1452  0.2721 -0.3614
  515MOL0     C70966  12.273   5.588   9.407 -0.2894 -0.7321 -0.1550
  515MOL0     C70967  12.295   5.552   9.272  0.2541 -0.7471  0.6146
  515MOL0     O70968  12.418   5.544   9.216  0.0115 -0.2524  0.2046
  515MOL0     C70969  12.533   5.497   9.295  0.8190  0.8553 -0.0945
  515MOL0     C70970  12.606   5.399   9.198  0.6045 -0.5552  0.1246
  515MOL0     C70971  12.710   5.308   9.273  0.5584 -0.1253  0.4099
  515MOL0     C70972  12.741   5.194   9.177 -0.5267  0.0258  0.2188
  515MOL0     C70973  12.839   5.099   9.231 -0.2913 -0.7966  0.0939
  515MOL0     C70974  12.790   5.014   9.344 -0.5315  1.1636 -0.3563
  515MOL0     C70975  12.906   4.923   9.402 -0.0628 -0.3673  0.3048
  515MOL0     C70976  12.866   4.850   9.528 -0.1298  0.3817 -0.1960
  515MOL0    Cl70977  12.747   4.727   9.512  0.0754 -0.0032  0.1739
  515MOL0     C70978  12.179   5.534   9.187  0.2132  0.0092  0.5121
  515MOL0     C70979  12.048   5.557   9.234  0.9780  0.6139  0.6436
  515MOL0     O70980  11.964   5.865   9.504 -0.4671  0.6290 -0.7755
  515MOL0     C70981  11.710   5.888   9.605  0.0933 -0.3778 -0.1765
  515MOL0     C70982  11.581   5.920   9.638  1.0665  0.0813 -1.2529
  515MOL0     N70983  10.873   5.832   9.998  0.5038  0.8121  0.3296
  515MOL0     N70984  10.776   5.856  10.084  0.1085  0.1517 -0.3709
  515MOL0     C70985  10.751   6.458  11.204 -0.5647  0.0346  0.1961
  515MOL0     C70986  10.761   6.562  11.302 -0.4441  0.5548  0.1695
  515MOL0     C70987  10.916   6.863  11.585 -1.4264  0.7755  0.3081
  515MOL0     C70988  10.838   6.975  11.572  0.3106 -0.5456 -0.0390
  515MOL0     C70989  10.836   7.073  11.674 -0.1763 -0.2553  0.7578
  515MOL0     C70990  10.915   7.064  11.781 -0.4394 -0.3316 -0.3154
  515MOL0     O70991  10.916   7.162  11.876 -0.1989 -0.6845 -0.0358
  515MOL0     C70992  11.030   7.257  11.841  0.2074  0.2635 -0.6140
  515MOL0     C70993  11.075   7.323  11.978  0.5669 -0.7675  0.0677
  515MOL0     C70994  10.955   7.398  12.043  0.8612 -0.0505 -0.4431
  515MOL0     C70995  11.001   7.468  12.179  0.2983 -0.3194 -0.2414
  515MOL0     C70996  10.905   7.571  12.210  0.7274 -0.8689 -0.1704
  515MOL0     C70997  10.822   7.656  12.247 -0.2353 -1.2409 -0.6839
  515MOL0     C70998  11.004   6.958  11.789 -0.6633 -0.4475 -0.7820
  515MOL0     C70999  10.995   6.847  11.704 -0.4730  0.1877  0.6873
  515MOL0     C71000  11.070   6.729  11.743 -0.4998 -0.4741  0.9506
  515MOL0     H71001  10.855   6.827  11.133  2.2602 -0.4946  1.2049
  515MOL0     H71002  10.866   6.650  10.950 -4.6726 -1.1320 -1.3239
  515MOL0     H71003  10.620   6.327  11.023 -1.8306  0.6430 -2.3750
  515MOL0     H71004  10.761   6.214  11.005  0.0153  0.8479  1.6478
  515MOL0     H71005  10.596   6.193  10.820 -0.5359  0.2471 -2.6482
  515MOL0     H71006  10.640   6.364  10.773  1.1449  0.0453 -0.1205
  515MOL0     H71007  10.858   6.305  10.734 -1.7419  0.6487 -3.1765
  515MOL0     H71008  10.847   6.137  10.779  0.8076  1.3344  0.6544
  515MOL0     H71009  10.656   6.125  10.607  1.2105 -1.3479 -2.5231
  515MOL0     H71010  10.706   6.275  10.543 -4.5335 -0.8954  1.3099
  515MOL0     H71011  10.880   6.026  10.579 -1.3610  0.3360  0.8090
  515MOL0     H71012  10.941   6.169  10.487  0.3702  0.7393  1.6723
  515MOL0     H71013  10.862   5.994  10.339 -0.5736  1.2465 -1.7969
  515MOL0     H71014  10.709   5.976  10.432  0.1087  1.7138  1.4899
  515MOL0     H71015  10.780   6.223  10.260  1.5417 -0.6760  0.5334
  515MOL0     H71016  10.618   6.181  10.326  0.3605  0.6065  0.4772
  515MOL0     H71017  10.581   6.007  10.189 -3.8634  2.6280 -3.5027
  515MOL0     H71018  10.612   6.146  10.097 -0.8949 -1.8094 -1.9198
  515MOL0     H71019  10.881   6.159   9.987 -0.1431  1.5137  0.6396
  515MOL0     H71020  10.996   6.049   9.780  0.2297 -0.6681  0.3704
  515MOL0     H71021  11.014   5.870   9.788  0.5124  0.7038 -0.1151
  515MOL0     H71022  11.157   6.074   9.970  0.1383  0.4179 -0.4744
  515MOL0     H71023  11.198   5.907   9.946  1.6062  0.7455 -0.4608
  515MOL0     H71024  11.213   6.106   9.722  0.4331  0.4069  0.5706
  515MOL0     H71025  11.352   6.049   9.830  0.3645 -3.1470  1.2902
  515MOL0     H71026  11.351   5.846   9.763 -0.9660  1.5389  2.5025
  515MOL0     H71027  11.199   5.835   9.687 -0.3438  0.6111  0.6283
  515MOL0     H71028  11.408   5.802   9.373 -2.3428  0.7531  3.0118
  515MOL0     H71029  11.549   5.758   9.207 -0.2115  1.8846  1.5065
  515MOL0     H71030  11.680   5.644   9.253  1.5058 -1.2787  1.9737
  515MOL0     H71031  11.722   5.797   9.205 -1.5071  0.7460 -1.1327
  515MOL0     H71032  12.123   5.679   9.537  1.4371 -0.0144  0.0719
  515MOL0     H71033  12.356   5.611   9.473 -2.1272  5.0158  0.6961
  515MOL0     H71034  12.585   5.583   9.338 -2.3050  0.5133  5.1867
  515MOL0     H71035  12.503   5.444   9.385 -0.2240  3.0844  0.9263
  515MOL0     H71036  12.531   5.326   9.167  1.0806 -1.5789  1.2921
  515MOL0     H71037  12.631   5.468   9.117 -4.0246  0.9688 -0.3098
  515MOL0     H71038  12.663   5.275   9.366  0.3658  3.4437  1.7188
  515MOL0     H71039  12.795   5.370   9.302  2.3352 -1.9282 -0.6500
  515MOL0     H71040  12.775   5.242   9.085 -4.2574  0.9123 -0.8823
  515MOL0     H71041  12.661   5.127   9.143  0.8959 -1.6766  0.0991
  515MOL0     H71042  12.859   5.031   9.148 -3.4221 -1.4282 -0.2619
  515MOL0     H71043  12.928   5.157   9.257 -2.4230  2.8642  0.1008
  515MOL0     H71044  12.724   4.934   9.308  1.7629 -0.3129 -1.4758
  515MOL0     H71045  12.746   5.074   9.424 -1.6567  1.4464 -1.1541
  515MOL0     H71046  12.980   5.001   9.423 -0.3925  0.1308 -0.3515
  515MOL0     H71047  12.947   4.853   9.328  1.2401  0.0562  0.6005
  515MOL0     H71048  12.831   4.921   9.603 -0.0804  1.0909 -0.8387
  515MOL0     H71049  12.959   4.798   9.554 -0.4500  1.3924  3.4662
  515MOL0     H71050  12.191   5.511   9.081 -3.3033  3.6844 -0.9470
  515MOL0     H71051  11.964   5.543   9.167  0.2277  2.6877  1.0546
  515MOL0     H71052  11.791   5.912   9.673 -2.1023 -0.0825  2.5757
  515MOL0     H71053  11.573   5.972   9.733  1.5156  1.4488 -1.9394
  515MOL0     H71054  10.716   6.356  11.213 -1.5110  0.1510 -1.6174
  515MOL0     H71055  10.732   6.531  11.402 -1.1018 -1.9693 -0.7178
  515MOL0     H71056  10.798   6.987  11.472  0.9963 -1.2604 -0.4174
  515MOL0     H71057  10.770   7.159  11.668  2.3008  1.8262  1.4803
  515MOL0     H71058  11.107   7.213  11.777  1.5429  1.4221  0.1262
  515MOL0     H71059  10.996   7.338  11.775  1.1801 -0.7772 -2.4821
  515MOL0     H71060  11.152   7.398  11.956 -1.0196  1.7256  2.4172
  515MOL0     H71061  11.114   7.253  12.052 -1.7855 -1.7756  0.4229
  515MOL0     H71062  10.909   7.472  11.977  0.9451  0.3797 -0.0338
  515MOL0     H71063  10.873   7.336  12.080 -1.2837  3.8216  2.1157
  515MOL0     H71064  11.096   7.523  12.175  0.0816  0.0268 -0.6807
  515MOL0     H71065  11.013   7.397  12.262 -2.2012 -1.1763 -0.5416
  515MOL0     H71066  10.749   7.727  12.281 -0.1014 -2.1008  1.5520
  515MOL0     H71067  11.072   6.956  11.873  0.4558 -0.0283 -1.6657
  515MOL0     H71068  11.117   6.749  11.840  2.8987 -1.4837 -0.3621
  515MOL0     H71069  11.001   6.644  11.742 -2.4724  1.0633  0.9757
  515MOL0     H71070  11.154   6.715  11.675 -1.3812  1.5569 -0.6615
  516MOL0     O71071   8.220   2.128   1.533 -0.0080  0.6500  0.4503
  516MOL0     C71072   8.252   2.114   1.654  0.5365 -0.0129 -0.9209
  516MOL0     O71073   8.340   2.194   1.715 -0.3251  0.5740 -0.3292
  516MOL0     C71074   8.388   2.306   1.668 -0.1735  0.1856  0.3264
  516MOL0     C71075   8.361   2.424   1.732 -0.1647  0.2190  1.1801
  516MOL0     C71076   8.391   2.546   1.673 -0.9423 -0.5828 -0.1496
  516MOL0     C71077   8.477   2.547   1.551 -0.6269 -0.1128 -0.3587
  516MOL0     O71078   8.516   2.672   1.514  0.5474  0.2628  0.9044
  516MOL0     C71079   8.633   2.676   1.428  0.6022 -0.3157  0.2989
  516MOL0     C71080   8.690   2.819   1.439 -0.5362  0.0812 -0.4137
  516MOL0     C71081   8.618   2.924   1.361  0.0241 -0.0669 -0.3421
  516MOL0     C71082   8.583   2.910   1.212 -0.4909 -0.1323  0.0229
  516MOL0     C71083   8.506   3.021   1.152 -0.4506  0.2681  0.0607
  516MOL0     C71084   8.511   3.011   0.998 -1.0290 -0.9706 -0.5257
  516MOL0     C71085   8.398   3.093   0.938  0.0171 -0.3559 -0.9665
  516MOL0     C71086   8.385   3.089   0.788 -0.6113  0.0597 -0.5105
  516MOL0     N71087   8.476   3.188   0.732 -0.4452 -0.9851 -0.0777
  516MOL0     C71088   8.470   3.322   0.749  0.2908  0.2852 -0.3461
  516MOL0     C71089   8.555   3.373   0.660 -0.4832  0.2233  0.9981
  516MOL0     C71090   8.569   3.525   0.652  0.1626 -0.0418 -0.1586
  516MOL0     C71091   8.445   3.591   0.592 -0.4517 -0.0411 -1.2826
  516MOL0     C71092   8.430   3.555   0.445 -1.6550  0.4641 -0.6883
  516MOL0     C71093   8.543   3.597   0.353  0.1479 -0.1337 -0.0445
  516MOL0     O71094   8.597   3.718   0.396 -0.3524  0.6695  0.0473
  516MOL0     C71095   8.539   3.837   0.365  0.3346  0.8115 -0.0631
  516MOL0     C71096   8.525   3.932   0.467  0.3266  0.0587  0.3558
  516MOL0     C71097   8.460   4.061   0.439  0.4048  0.5596  0.1270
  516MOL0     C71098   8.446   4.151   0.566  0.1056  0.0058  0.1102
  516MOL0     C71099   8.416   4.096   0.309 -0.3944  0.8528 -0.7462
  516MOL0     C71100   8.339   4.211   0.269 -0.6343 -0.5839  0.0481
  516MOL0     O71101   8.363   4.324   0.332 -0.3574  0.4186 -0.2589
  516MOL0     C71102   8.309   4.441   0.287  0.3578 -0.8035 -0.2170
  516MOL0     C71103   8.213   4.510   0.360  0.4381  0.0663  0.2672
  516MOL0     C71104   8.160   4.625   0.305 -0.0775 -0.7116  0.5321
  516MOL0     C71105   8.200   4.674   0.178  0.7359 -0.2824  0.8715
  516MOL0     O71106   8.167   4.789   0.111  0.6790  0.2407  0.2419
  516MOL0     C71107   8.027   4.817   0.131  0.1278 -0.0926 -0.6151
  516MOL0     C71108   7.971   4.918   0.031 -0.1658 -0.6672 -0.0662
  516MOL0     C71109   8.022   5.057   0.062  1.0147 -0.9484  0.1879
  516MOL0     C71110   7.989   5.154  -0.054  0.9184 -0.8541 -0.2782
  516MOL0     C71111   7.845   5.206  -0.051 -0.3686  0.3743  0.4063
  516MOL0     C71112   7.818   5.264  -0.180  0.4695  0.1665  0.9234
  516MOL0     C71113   7.793   5.164  -0.314  0.1124  0.9669 -0.8485
  516MOL0     C71114   7.838   5.235  -0.445 -0.1692  1.0955 -0.3376
  516MOL0    Cl71115   7.741   5.389  -0.471  0.5640 -0.3482 -0.1752
  516MOL0     C71116   8.305   4.607   0.111 -0.8192 -0.1580  0.7406
  516MOL0     C71117   8.354   4.492   0.162  0.5619  0.3437 -0.5429
  516MOL0     O71118   8.244   4.202   0.188 -0.1212  0.3691  0.0265
  516MOL0     C71119   8.422   3.996   0.216 -0.2020  0.2184 -0.4355
  516MOL0     C71120   8.475   3.869   0.245  0.1305  0.2015 -0.4117
  516MOL0     N71121   8.610   3.276   0.589 -0.1337  0.4012 -0.5280
  516MOL0     N71122   8.574   3.165   0.644 -0.2309  0.9283 -0.4353
  516MOL0     C71123   8.506   2.421   1.489 -0.4669  1.0999 -0.4645
  516MOL0     C71124   8.460   2.301   1.550 -0.2621 -0.1932 -0.5660
  516MOL0     C71125   8.206   1.998   1.730  0.0067  0.0147 -1.1037
  516MOL0     C71126   8.216   1.874   1.675  0.5484 -0.1839 -0.2482
  516MOL0     C71127   8.183   1.754   1.741 -0.1990 -0.4816  0.9869
  516MOL0     C71128   8.127   1.760   1.868 -1.0355  0.8323  0.7953
  516MOL0     O71129   8.081   1.654   1.947 -0.7954  0.0173 -0.0472
  516MOL0     C71130   8.067   1.528   1.879  0.2042 -0.5330 -0.4975
  516MOL0     C71131   8.009   1.427   1.974 -0.7213 -0.4452 -0.5048
  516MOL0     C71132   8.102   1.396   2.089 -0.3726  0.0137 -0.0533
  516MOL0     C71133   8.094   1.245   2.132  1.0962 -0.5691 -0.6092
  516MOL0     C71134   7.959   1.205   2.186  0.4991 -0.4130 -0.4042
  516MOL0     C71135   7.855   1.182   2.228  0.5611  0.6556  0.0632
  516MOL0     C71136   8.112   1.893   1.925 -0.4900  0.7045 -0.1566
  516MOL0     C71137   8.152   2.009   1.857 -1.0417 -0.6578  0.4220
  516MOL0     C71138   8.148   2.137   1.943  0.4031 -0.2417 -0.0929
  516MOL0     H71139   8.299   2.419   1.822 -0.3084 -0.4409  1.0485
  516MOL0     H71140   8.363   2.643   1.713  1.2702  0.0943 -0.0983
  516MOL0     H71141   8.611   2.655   1.323  3.3645  0.1107 -0.4423
  516MOL0     H71142   8.706   2.606   1.469  2.0127 -0.4952 -2.3063
  516MOL0     H71143   8.687   2.849   1.544  1.6213  1.2986 -0.6429
  516MOL0     H71144   8.792   2.806   1.404 -0.6845 -0.1412 -0.7728
  516MOL0     H71145   8.520   2.937   1.408 -0.2472  1.4129 -1.2634
  516MOL0     H71146   8.677   3.015   1.371 -0.3603  0.4321 -2.2121
  516MOL0     H71147   8.675   2.884   1.160  0.1390 -0.6989  1.3891
  516MOL0     H71148   8.525   2.818   1.198  0.7394 -0.9215  0.0142
  516MOL0     H71149   8.540   3.118   1.190 -2.7085  1.3882 -0.5950
  516MOL0     H71150   8.408   3.002   1.196  0.8761 -0.8484  2.7058
  516MOL0     H71151   8.612   3.050   0.983 -0.7739 -1.7394 -0.8708
  516MOL0     H71152   8.500   2.905   0.970 -0.1341 -0.9085 -1.1700
  516MOL0     H71153   8.413   3.196   0.973 -2.4300 -0.7427  1.6045
  516MOL0     H71154   8.307   3.054   0.985 -0.8848 -0.6668 -2.8494
  516MOL0     H71155   8.429   2.994   0.756  2.6027  2.2251 -3.0465
  516MOL0     H71156   8.280   3.089   0.758 -1.6477 -0.0276  2.7260
  516MOL0     H71157   8.392   3.377   0.800  1.5241  1.2815  0.5201
  516MOL0     H71158   8.652   3.551   0.585  0.2284 -0.5083 -0.2594
  516MOL0     H71159   8.581   3.554   0.757  0.3279 -3.2340  0.8227
  516MOL0     H71160   8.359   3.549   0.644  0.7467  0.1026  0.9613
  516MOL0     H71161   8.437   3.698   0.612  0.9191 -0.3203  1.3968
  516MOL0     H71162   8.418   3.447   0.427 -2.3747  0.3482  0.4288
  516MOL0     H71163   8.335   3.592   0.405 -0.8022  2.6871 -0.7732
  516MOL0     H71164   8.610   3.511   0.361 -1.4923 -1.4199  0.5285
  516MOL0     H71165   8.511   3.597   0.248  0.9609 -0.1839 -0.2975
  516MOL0     H71166   8.556   3.911   0.569 -1.2959 -0.2213  0.8142
  516MOL0     H71167   8.359   4.217   0.559  0.9031  1.1071  0.2799
  516MOL0     H71168   8.540   4.207   0.570  0.9230 -1.2360 -0.9386
  516MOL0     H71169   8.428   4.085   0.651 -1.6251  0.5530  0.1993
  516MOL0     H71170   8.183   4.466   0.454  0.7091  2.4453  1.5283
  516MOL0     H71171   8.092   4.683   0.367  1.7369  2.5628 -0.3155
  516MOL0     H71172   7.966   4.728   0.112 -0.3414  0.2976 -0.9592
  516MOL0     H71173   8.001   4.841   0.235  0.1997 -1.1373 -0.3494
  516MOL0     H71174   8.011   4.890  -0.067 -0.8652 -1.6044 -0.0970
  516MOL0     H71175   7.862   4.911   0.022 -0.3837  1.6026  0.1246
  516MOL0     H71176   8.130   5.063   0.076  1.0116  2.7354 -0.2170
  516MOL0     H71177   7.982   5.083   0.160  1.0745 -2.2647  0.5783
  516MOL0     H71178   8.008   5.092  -0.142  2.5695 -1.8150  0.7173
  516MOL0     H71179   8.053   5.242  -0.047 -1.6122  0.9902  2.5182
  516MOL0     H71180   7.776   5.126  -0.025  1.6145 -2.5406 -2.5585
  516MOL0     H71181   7.837   5.277   0.032 -0.6435 -1.1895  1.7635
  516MOL0     H71182   7.897   5.335  -0.205 -1.9496  2.8366  0.2415
  516MOL0     H71183   7.730   5.330  -0.171  0.3852  0.5145 -1.6548
  516MOL0     H71184   7.694   5.120  -0.324  1.3217 -2.7640  1.5262
  516MOL0     H71185   7.859   5.078  -0.300  0.5340  0.8941 -2.9775
  516MOL0     H71186   7.816   5.156  -0.518  1.5981 -0.9494  1.2104
  516MOL0     H71187   7.945   5.255  -0.437  0.2370 -0.9752  0.1604
  516MOL0     H71188   8.354   4.651   0.025  0.1798 -0.8247  0.9573
  516MOL0     H71189   8.431   4.448   0.100  1.1190  3.0618 -1.9481
  516MOL0     H71190   8.370   4.010   0.122 -1.3719 -0.6563  0.0632
  516MOL0     H71191   8.474   3.806   0.156  5.1262 -1.1927  0.2300
  516MOL0     H71192   8.553   2.403   1.393  3.0946  0.4552  1.2221
  516MOL0     H71193   8.486   2.212   1.493  1.5196 -0.5282  0.6833
  516MOL0     H71194   8.266   1.851   1.581  0.9390 -1.2268  0.1941
  516MOL0     H71195   8.210   1.665   1.686  0.2920 -0.4654  1.1946
  516MOL0     H71196   8.000   1.526   1.793 -1.1675 -3.1467  0.5170
  516MOL0     H71197   8.169   1.501   1.852  1.0831  0.7887  1.2982
  516MOL0     H71198   7.991   1.336   1.915 -1.6672 -1.9585  1.9467
  516MOL0     H71199   7.909   1.455   2.011 -1.2026  0.2753 -2.2608
  516MOL0     H71200   8.201   1.427   2.056 -0.6991 -0.7269 -1.8466
  516MOL0     H71201   8.066   1.451   2.177  0.0175  0.3157 -0.0811
  516MOL0     H71202   8.162   1.236   2.217  1.4060 -3.4805 -1.0595
  516MOL0     H71203   8.113   1.176   2.050  1.4086  0.3242 -1.2938
  516MOL0     H71204   7.756   1.151   2.253  0.3649  1.3182  0.1301
  516MOL0     H71205   8.069   1.886   2.024  0.1023  0.2332  0.0719
  516MOL0     H71206   8.061   2.194   1.909 -0.0278 -1.6499 -1.4748
  516MOL0     H71207   8.136   2.120   2.050  1.8969  0.3579  0.1980
  516MOL0     H71208   8.239   2.198   1.940  1.0469 -1.2011 -0.9466
  517MOL0     O71209   8.929   3.486   6.863 -0.1826  0.3344  0.2048
  517MOL0     C71210   9.021   3.559   6.815 -0.7696  0.7636 -0.0147
  517MOL0     O71211   9.011   3.651   6.721 -0.8075 -0.5522 -0.0047
  517MOL0     C71212   8.895   3.660   6.638 -0.2975  0.7816 -0.1724
  517MOL0     C71213   8.856   3.545   6.566 -0.0529 -0.9130  0.3204
  517MOL0     C71214   8.754   3.552   6.476 -0.2896 -0.0829  0.5608
  517MOL0     C71215   8.693   3.669   6.447 -0.5521 -0.3869  0.7776
  517MOL0     O71216   8.590   3.666   6.354 -0.1911  0.3541 -0.3147
  517MOL0     C71217   8.493   3.769   6.337  0.5168  0.3162 -0.4805
  517MOL0     C71218   8.365   3.706   6.294  0.9639  0.3310 -0.2593
  517MOL0     C71219   8.283   3.819   6.243  0.7290 -0.0099  0.6055
  517MOL0     C71220   8.140   3.787   6.205  0.3043 -0.3105  0.7319
  517MOL0     C71221   8.066   3.918   6.197  0.6423  0.2531 -0.4437
  517MOL0     C71222   7.929   3.895   6.125 -0.2602 -0.2367  0.1551
  517MOL0     C71223   7.827   4.010   6.163  0.0622  0.8085  0.2157
  517MOL0     C71224   7.771   4.010   6.302 -0.3361 -0.6776 -0.2311
  517MOL0     N71225   7.676   3.903   6.317  0.7675 -0.1792  0.5743
  517MOL0     C71226   7.694   3.772   6.361 -0.3251 -1.1773 -0.1624
  517MOL0     C71227   7.575   3.706   6.351 -0.0709  0.6785  0.2595
  517MOL0     C71228   7.552   3.565   6.391 -0.2776  0.4263  1.6908
  517MOL0     C71229   7.555   3.485   6.253  0.3956  0.5014 -0.2045
  517MOL0     C71230   7.542   3.336   6.279  0.0901 -0.0782  0.2719
  517MOL0     C71231   7.557   3.262   6.143 -0.2592  0.1905 -0.3408
  517MOL0     O71232   7.435   3.291   6.081  0.4437  0.3625  0.8813
  517MOL0     C71233   7.445   3.314   5.944 -0.9633  0.1954  0.0144
  517MOL0     C71234   7.333   3.372   5.890 -0.3726 -0.3666  0.1333
  517MOL0     C71235   7.343   3.431   5.762  0.0136  0.5505 -0.5084
  517MOL0     C71236   7.219   3.505   5.717 -0.4178 -0.6724 -0.0918
  517MOL0     C71237   7.464   3.420   5.686 -0.1790 -0.4695 -0.1670
  517MOL0     C71238   7.484   3.477   5.552  0.2948  0.3938 -0.0951
  517MOL0     O71239   7.428   3.591   5.522  0.5789 -0.0349 -0.6894
  517MOL0     C71240   7.402   3.625   5.391 -0.1403 -0.1017  0.1590
  517MOL0     C71241   7.283   3.586   5.332 -0.3285  0.0645 -0.6107
  517MOL0     C71242   7.258   3.623   5.200  0.9551 -0.1075 -0.8915
  517MOL0     C71243   7.354   3.700   5.134  0.3883 -0.9179  0.4572
  517MOL0     O71244   7.327   3.769   5.006 -0.9374 -0.5635  0.4639
  517MOL0     C71245   7.241   3.701   4.917 -0.9353 -0.0521 -0.8559
  517MOL0     C71246   7.097   3.749   4.952 -0.3686  0.4288  0.2883
  517MOL0     C71247   7.088   3.890   4.902  0.2904 -0.8900 -0.9358
  517MOL0     C71248   6.984   3.975   4.986  0.5222 -0.4783  0.2372
  517MOL0     C71249   6.985   4.123   4.957  0.0771  0.4682 -0.5275
  517MOL0     C71250   6.867   4.191   5.022  1.1432 -0.1685 -0.1969
  517MOL0     C71251   6.886   4.338   5.019 -0.3815 -0.0027 -0.1910
  517MOL0     C71252   6.761   4.401   5.071 -0.6455  0.3037  0.3206
  517MOL0    Cl71253   6.806   4.563   5.166  0.2463  0.1868 -0.1944
  517MOL0     C71254   7.477   3.728   5.193  0.1683  0.1841  0.4530
  517MOL0     C71255   7.501   3.693   5.326 -0.2693 -0.8283 -0.4872
  517MOL0     O71256   7.528   3.404   5.461 -0.1192  0.1798 -0.0422
  517MOL0     C71257   7.558   3.337   5.731  0.2461 -0.0293 -0.6844
  517MOL0     C71258   7.554   3.285   5.862 -0.4865  0.0872  0.6465
  517MOL0     N71259   7.484   3.804   6.308  0.1675  0.8703 -0.0287
  517MOL0     N71260   7.538   3.915   6.303  0.6390 -0.3096  0.4703
  517MOL0     C71261   8.723   3.778   6.527 -0.7265 -0.3200  0.5461
  517MOL0     C71262   8.831   3.783   6.612  1.2166  0.8769  0.1252
  517MOL0     C71263   9.153   3.550   6.887 -0.3903 -1.1297 -0.2838
  517MOL0     C71264   9.158   3.496   7.017  0.4014  0.6855  0.3040
  517MOL0     C71265   9.276   3.494   7.094 -1.2669 -0.0646  0.1367
  517MOL0     C71266   9.398   3.539   7.040  0.3397  0.1572 -0.5683
  517MOL0     O71267   9.525   3.539   7.110 -0.1387  0.5015  0.4140
  517MOL0     C71268   9.550   3.426   7.196 -0.0768 -0.0661 -0.5298
  517MOL0     C71269   9.635   3.320   7.124 -0.6097 -0.3252 -0.2314
  517MOL0     C71270   9.733   3.252   7.215 -0.5297 -0.2737 -0.7002
  517MOL0     C71271   9.863   3.316   7.255 -0.1977 -0.2353  0.6797
  517MOL0     C71272   9.948   3.352   7.144  0.0947 -0.5865  0.7118
  517MOL0     C71273  10.022   3.386   7.049 -0.2017  0.0787  0.1447
  517MOL0     C71274   9.398   3.583   6.912  1.2283  0.5399 -0.1024
  517MOL0     C71275   9.280   3.596   6.835  0.0549  0.1361  0.5997
  517MOL0     C71276   9.300   3.628   6.687 -0.3348  0.5136 -1.0918
  517MOL0     H71277   8.916   3.455   6.568 -2.3298 -2.6884 -2.5989
  517MOL0     H71278   8.737   3.473   6.405  3.0289  0.5696 -1.1628
  517MOL0     H71279   8.535   3.827   6.254  2.7254 -0.0705  0.2916
  517MOL0     H71280   8.473   3.832   6.425 -2.2767 -1.3465  0.1914
  517MOL0     H71281   8.377   3.628   6.219 -2.6536 -1.5954  0.8810
  517MOL0     H71282   8.313   3.662   6.380  3.6014 -1.6258  0.4726
  517MOL0     H71283   8.278   3.895   6.321  0.4120 -0.0612  0.6377
  517MOL0     H71284   8.339   3.860   6.158  1.0763 -2.1339 -0.2572
  517MOL0     H71285   8.139   3.729   6.112 -0.6924  0.6516  0.1207
  517MOL0     H71286   8.096   3.726   6.284  0.9522 -2.6146 -0.5780
  517MOL0     H71287   8.120   3.999   6.147  2.5299  2.0459  4.0134
  517MOL0     H71288   8.042   3.962   6.294 -0.2292 -1.8114  0.3337
  517MOL0     H71289   7.946   3.897   6.017 -1.9712  1.1133 -0.1366
  517MOL0     H71290   7.887   3.800   6.159 -0.0659  0.4492  2.5489
  517MOL0     H71291   7.741   3.982   6.102 -1.2925  0.6412  2.0955
  517MOL0     H71292   7.869   4.107   6.138  1.9690  0.2506  1.0510
  517MOL0     H71293   7.849   4.003   6.378 -3.5946 -2.7659  3.2936
  517MOL0     H71294   7.727   4.108   6.321  0.9304 -0.6706  3.3780
  517MOL0     H71295   7.790   3.730   6.389  0.0884 -0.5995 -0.6821
  517MOL0     H71296   7.458   3.559   6.447 -2.1922 -0.2729 -1.3745
  517MOL0     H71297   7.625   3.514   6.455 -0.4635 -0.4347  1.2309
  517MOL0     H71298   7.466   3.521   6.201  0.3871 -0.5110 -0.9182
  517MOL0     H71299   7.638   3.515   6.189  0.6425  2.6497  0.9968
  517MOL0     H71300   7.614   3.307   6.356 -0.4120  1.1951  1.2604
  517MOL0     H71301   7.438   3.327   6.314  0.7060 -1.4768  1.9052
  517MOL0     H71302   7.650   3.282   6.088 -0.2451 -0.2688 -0.4816
  517MOL0     H71303   7.574   3.158   6.171  4.0370  1.1004  1.2797
  517MOL0     H71304   7.245   3.361   5.954  0.4267 -0.1941  1.2887
  517MOL0     H71305   7.202   3.506   5.609  0.0128 -0.4646 -0.1572
  517MOL0     H71306   7.203   3.609   5.745 -3.7636 -0.4226 -2.3058
  517MOL0     H71307   7.131   3.454   5.757 -2.2444  2.1626 -0.2216
  517MOL0     H71308   7.224   3.508   5.379  0.5795 -1.0797 -1.3191
  517MOL0     H71309   7.170   3.584   5.150  1.2588  0.7896 -2.1896
  517MOL0     H71310   7.276   3.738   4.820 -1.0603  2.8367  0.0980
  517MOL0     H71311   7.247   3.592   4.921  0.5259 -0.0089 -1.0926
  517MOL0     H71312   7.031   3.684   4.894  3.3155 -2.6799 -0.8289
  517MOL0     H71313   7.071   3.740   5.058  0.6268  1.2083  0.6113
  517MOL0     H71314   7.051   3.895   4.799 -1.6805 -1.3000 -0.2872
  517MOL0     H71315   7.181   3.947   4.909 -1.4329  1.8912  2.3965
  517MOL0     H71316   6.989   3.962   5.094 -1.2294  1.1080  0.5686
  517MOL0     H71317   6.882   3.942   4.961 -1.1012  3.8622  0.2876
  517MOL0     H71318   7.081   4.164   4.991  0.1404  0.2855 -0.4842
  517MOL0     H71319   6.990   4.139   4.849 -1.1329  0.4090 -0.6017
  517MOL0     H71320   6.863   4.161   5.127 -0.5149 -0.0239 -0.1997
  517MOL0     H71321   6.779   4.156   4.968 -0.1088  1.8131  0.4684
  517MOL0     H71322   6.911   4.372   4.918  1.1256  0.6240  0.3736
  517MOL0     H71323   6.968   4.360   5.087  0.3144 -0.5667 -0.8358
  517MOL0     H71324   6.730   4.327   5.145  1.0221 -3.3973 -2.3455
  517MOL0     H71325   6.683   4.412   4.994 -1.8508 -1.4287  1.2304
  517MOL0     H71326   7.547   3.790   5.138  0.6724 -1.4926 -0.8878
  517MOL0     H71327   7.592   3.735   5.370  1.1987  0.5629 -4.4273
  517MOL0     H71328   7.641   3.305   5.668  0.4571 -0.1407 -0.3562
  517MOL0     H71329   7.643   3.228   5.885 -1.2701 -0.7793  1.5985
  517MOL0     H71330   8.671   3.872   6.515 -0.1191 -0.0186  0.2439
  517MOL0     H71331   8.861   3.874   6.663 -0.7815  1.4279  0.4115
  517MOL0     H71332   9.063   3.458   7.051  0.0323  0.0812 -1.3240
  517MOL0     H71333   9.259   3.450   7.191 -0.7096 -2.3139 -0.7175
  517MOL0     H71334   9.598   3.452   7.291  1.7205 -0.0304 -1.4086
  517MOL0     H71335   9.465   3.373   7.242  1.3602 -1.0999  1.0373
  517MOL0     H71336   9.673   3.354   7.028 -2.3360 -1.2522 -1.3041
  517MOL0     H71337   9.581   3.233   7.086  3.9001 -2.5053 -2.4145
  517MOL0     H71338   9.683   3.224   7.308 -1.8535 -0.0487 -1.3186
  517MOL0     H71339   9.756   3.162   7.157 -0.2467 -2.4429  2.5470
  517MOL0     H71340   9.919   3.253   7.325 -0.7727  1.0353  2.3469
  517MOL0     H71341   9.850   3.409   7.311 -1.5155 -1.5970  2.8010
  517MOL0     H71342  10.102   3.425   6.990  2.3769 -1.5250  2.3117
  517MOL0     H71343   9.498   3.610   6.881  0.8607  1.1855 -0.7714
  517MOL0     H71344   9.265   3.729   6.661 -1.4505 -0.0676 -1.9236
  517MOL0     H71345   9.407   3.629   6.666  0.2173 -1.3822  1.2382
  517MOL0     H71346   9.250   3.556   6.621  0.0808 -0.6784 -0.1419
  518MOL0     O71347   3.361   4.064   1.779  0.0326 -0.5537 -0.6895
  518MOL0     C71348   3.357   4.048   1.659 -0.0090  0.6043 -0.8167
  518MOL0     O71349   3.246   4.045   1.587 -0.3708 -0.9577  0.2459
  518MOL0     C71350   3.122   4.056   1.642  0.0055 -0.1830 -0.0356
  518MOL0     C71351   3.080   3.997   1.759 -0.7663  0.1657  0.3731
  518MOL0     C71352   2.948   3.988   1.794 -0.2017  0.0093  0.4043
  518MOL0     C71353   2.850   4.036   1.694  0.0672 -0.4458  0.2948
  518MOL0     O71354   2.718   4.029   1.716  0.7692  0.6979  0.2495
  518MOL0     C71355   2.668   3.907   1.790  0.0249 -0.4458 -0.4022
  518MOL0     C71356   2.692   3.768   1.730  0.1372  0.3891  0.0447
  518MOL0     C71357   2.673   3.760   1.578  0.5343  0.4756  0.3837
  518MOL0     C71358   2.523   3.758   1.535 -0.1266  0.2566  0.5951
  518MOL0     C71359   2.494   3.832   1.404  0.2952  0.2760 -0.6290
  518MOL0     C71360   2.524   3.982   1.407  0.2380 -0.7657  0.3455
  518MOL0     C71361   2.455   4.050   1.284  0.0289 -0.1645 -0.4380
  518MOL0     C71362   2.500   4.194   1.285  1.3753 -0.3592 -1.4556
  518MOL0     N71363   2.588   4.223   1.178  0.5687  0.8320 -0.4713
  518MOL0     C71364   2.559   4.211   1.051 -0.3564 -0.7319 -0.0634
  518MOL0     C71365   2.667   4.268   0.987  0.2406 -0.1332  0.3553
  518MOL0     C71366   2.700   4.272   0.847 -0.0735 -0.1152 -0.4588
  518MOL0     C71367   2.677   4.419   0.814 -0.1649  0.0160  0.0942
  518MOL0     C71368   2.651   4.440   0.671 -0.0173 -0.2634  0.3665
  518MOL0     C71369   2.638   4.593   0.627 -0.4717  0.8908 -0.9696
  518MOL0     O71370   2.731   4.673   0.693 -0.2663 -0.6002  0.0934
  518MOL0     C71371   2.864   4.681   0.654  0.2001 -0.3401  0.3138
  518MOL0     C71372   2.928   4.607   0.560  0.2793  0.5692  0.3567
  518MOL0     C71373   3.068   4.625   0.542 -0.2086 -0.4451 -0.3527
  518MOL0     C71374   3.122   4.533   0.437 -0.7705 -0.8816 -0.4287
  518MOL0     C71375   3.141   4.707   0.631 -0.5247 -0.4086 -0.2559
  518MOL0     C71376   3.294   4.729   0.622 -0.8689  0.8115  0.1278
  518MOL0     O71377   3.368   4.757   0.733 -0.2105 -0.0859 -0.2534
  518MOL0     C71378   3.495   4.791   0.716 -0.0831 -0.3066 -0.1420
  518MOL0     C71379   3.587   4.697   0.756 -0.7996 -0.1194 -0.0552
  518MOL0     C71380   3.726   4.730   0.743 -0.3614  0.6825  0.3604
  518MOL0     C71381   3.770   4.851   0.701  0.2224 -0.6927 -1.0929
  518MOL0     O71382   3.903   4.873   0.706 -0.3860  0.0616  0.0632
  518MOL0     C71383   3.961   4.918   0.583  0.8332 -0.2079 -0.0405
  518MOL0     C71384   4.108   4.865   0.574 -0.1905 -0.9869  0.1519
  518MOL0     C71385   4.117   4.714   0.534 -0.9906 -0.5160 -1.0624
  518MOL0     C71386   4.035   4.671   0.408 -0.8213 -0.4911 -0.3418
  518MOL0     C71387   4.097   4.551   0.340 -0.0281 -0.0484  0.3904
  518MOL0     C71388   4.076   4.571   0.186  0.5896 -0.3210 -0.1450
  518MOL0     C71389   3.920   4.546   0.164  0.3606 -0.1751  0.9070
  518MOL0     C71390   3.868   4.555   0.011 -0.3464 -0.4058  0.4918
  518MOL0    Cl71391   3.907   4.713  -0.060  0.3740 -0.1566 -0.2333
  518MOL0     C71392   3.675   4.952   0.671  0.3820 -0.3432 -0.0132
  518MOL0     C71393   3.529   4.916   0.680 -0.1082 -0.4301  0.5048
  518MOL0     O71394   3.334   4.731   0.506 -0.0234 -0.2455  0.4848
  518MOL0     C71395   3.073   4.788   0.718  0.4333 -0.4755  0.0008
  518MOL0     C71396   2.932   4.781   0.721 -0.2542 -0.0030  0.1806
  518MOL0     N71397   2.760   4.304   1.082  0.7290 -0.9454 -0.3668
  518MOL0     N71398   2.714   4.270   1.200 -0.1415 -0.8236  0.2536
  518MOL0     C71399   2.888   4.096   1.578  0.2478 -0.3551 -0.1954
  518MOL0     C71400   3.029   4.115   1.556 -0.5432 -0.4279 -0.2968
  518MOL0     C71401   3.483   4.050   1.574 -0.1807 -0.4238 -0.3379
  518MOL0     C71402   3.474   4.113   1.449 -0.7497 -0.2475 -1.1154
  518MOL0     C71403   3.586   4.121   1.369 -0.0641 -0.0860 -0.8456
  518MOL0     C71404   3.709   4.054   1.405  0.2833 -0.0781  0.2270
  518MOL0     O71405   3.810   4.034   1.317  0.5228 -0.3858  0.2072
  518MOL0     C71406   3.813   4.110   1.189  0.4418  0.6221  0.2928
  518MOL0     C71407   3.914   4.223   1.208 -0.0876 -0.0861  0.3139
  518MOL0     C71408   3.931   4.315   1.078 -1.0193 -0.0865  0.0232
  518MOL0     C71409   4.072   4.301   1.021  0.9846 -0.1873 -0.5099
  518MOL0     C71410   4.096   4.409   0.930  1.1000 -0.0639  0.0114
  518MOL0     C71411   4.119   4.498   0.853  0.4275  0.3848  1.0645
  518MOL0     C71412   3.715   3.995   1.530 -0.5115 -0.3376 -0.2875
  518MOL0     C71413   3.604   3.994   1.614  0.4387  0.3181 -0.9945
  518MOL0     C71414   3.617   3.926   1.746 -0.5619 -0.4886 -0.3249
  518MOL0     H71415   3.162   3.955   1.816  0.2491  0.2824 -0.9284
  518MOL0     H71416   2.924   3.951   1.892 -0.7656  2.2338  1.1748
  518MOL0     H71417   2.562   3.918   1.813  0.3836 -0.7867  1.6627
  518MOL0     H71418   2.717   3.907   1.888  0.0163 -0.0383 -0.3943
  518MOL0     H71419   2.794   3.733   1.752  1.2848  2.7659 -1.0952
  518MOL0     H71420   2.629   3.691   1.775  0.6832  0.3784  0.8188
  518MOL0     H71421   2.717   3.842   1.520  2.1663  0.0277  0.9188
  518MOL0     H71422   2.722   3.674   1.532  0.2791  2.0416 -3.1169
  518MOL0     H71423   2.498   3.652   1.527 -4.2312  1.1670 -1.3625
  518MOL0     H71424   2.448   3.788   1.609 -0.6059  2.8138 -0.8182
  518MOL0     H71425   2.387   3.828   1.381 -0.2412  5.1329 -0.0142
  518MOL0     H71426   2.552   3.786   1.324 -0.2126  0.9435 -1.3941
  518MOL0     H71427   2.483   4.016   1.502 -3.3161 -0.7867 -1.0184
  518MOL0     H71428   2.629   4.004   1.384  0.1462  0.4252  0.9994
  518MOL0     H71429   2.346   4.043   1.291  0.1331 -1.5524  0.2534
  518MOL0     H71430   2.485   3.999   1.193 -0.1846 -1.7571  0.3510
  518MOL0     H71431   2.405   4.245   1.267  0.8655 -0.2689  1.0845
  518MOL0     H71432   2.526   4.240   1.381 -3.2229 -1.2075  0.4387
  518MOL0     H71433   2.471   4.176   0.997  1.9022  0.5910 -5.2364
  518MOL0     H71434   2.638   4.205   0.788 -1.8790  1.3801 -0.3757
  518MOL0     H71435   2.802   4.236   0.838  0.0786  0.0740  0.3619
  518MOL0     H71436   2.596   4.454   0.879  1.2125 -1.5602  2.8774
  518MOL0     H71437   2.765   4.476   0.845 -1.7648  2.4526  0.4600
  518MOL0     H71438   2.731   4.392   0.614  1.6755 -0.3516  2.6646
  518MOL0     H71439   2.557   4.390   0.647 -0.3177  0.5836 -0.2528
  518MOL0     H71440   2.651   4.587   0.519  1.9842 -4.4601 -0.7139
  518MOL0     H71441   2.540   4.636   0.649  2.0444  5.8534  2.4675
  518MOL0     H71442   2.877   4.544   0.489  2.9321  1.3879 -2.5070
  518MOL0     H71443   3.059   4.444   0.430  0.1615 -1.8489  2.2353
  518MOL0     H71444   3.214   4.487   0.476  0.1891  0.6441 -0.7975
  518MOL0     H71445   3.142   4.602   0.354  1.6622  0.8696  1.4547
  518MOL0     H71446   3.555   4.598   0.784  0.8104 -1.2622 -1.9804
  518MOL0     H71447   3.798   4.657   0.777 -0.0733  1.8914  2.5026
  518MOL0     H71448   3.910   4.892   0.489  2.4789  0.3752 -1.1290
  518MOL0     H71449   3.961   5.027   0.580  0.5128 -0.2247 -2.1271
  518MOL0     H71450   4.162   4.934   0.508 -1.2288  0.9955  1.2904
  518MOL0     H71451   4.148   4.884   0.674 -2.0846  1.7482  0.5129
  518MOL0     H71452   4.076   4.655   0.617  1.1257  0.0666  0.5057
  518MOL0     H71453   4.227   4.705   0.532 -0.9337  0.0015 -0.5400
  518MOL0     H71454   4.030   4.760   0.345  0.3330  0.2778  0.5991
  518MOL0     H71455   3.933   4.648   0.440 -1.0006  0.2908 -0.3117
  518MOL0     H71456   4.206   4.548   0.348  0.1438  0.2661 -1.3530
  518MOL0     H71457   4.062   4.458   0.385 -0.9309 -0.6928 -1.5118
  518MOL0     H71458   4.130   4.505   0.117 -1.1900 -4.2044  1.8667
  518MOL0     H71459   4.093   4.678   0.165 -1.0637 -0.1522 -0.7473
  518MOL0     H71460   3.868   4.629   0.211  0.1732 -1.3039  2.7905
  518MOL0     H71461   3.882   4.451   0.203  0.1566 -1.3923 -1.9713
  518MOL0     H71462   3.761   4.543  -0.005 -0.3757  0.7956 -0.3898
  518MOL0     H71463   3.911   4.471  -0.043  1.0139  1.0783 -0.8321
  518MOL0     H71464   3.712   5.049   0.640  2.6321 -1.8080 -2.2535
  518MOL0     H71465   3.452   4.989   0.660  0.4733 -0.1083 -0.6512
  518MOL0     H71466   3.124   4.861   0.781 -0.3311  1.6120 -1.6446
  518MOL0     H71467   2.887   4.862   0.777  1.9238  2.1777 -1.0111
  518MOL0     H71468   2.817   4.141   1.509 -0.1806  0.5844  0.8312
  518MOL0     H71469   3.062   4.168   1.467  2.4932 -1.1471  0.3068
  518MOL0     H71470   3.375   4.144   1.417 -1.8634  0.8226  2.7720
  518MOL0     H71471   3.576   4.171   1.273  1.1925 -2.1682 -2.1310
  518MOL0     H71472   3.840   4.043   1.108 -0.6046  1.0578 -0.4333
  518MOL0     H71473   3.717   4.139   1.146 -2.2654 -3.6270  2.7439
  518MOL0     H71474   4.005   4.166   1.228 -0.4526 -0.1915  1.8654
  518MOL0     H71475   3.881   4.288   1.290 -1.8733 -0.5577  0.0090
  518MOL0     H71476   3.872   4.277   0.995 -0.6684 -3.2905  1.0870
  518MOL0     H71477   3.912   4.419   1.107  3.8128  0.7307  1.1370
  518MOL0     H71478   4.081   4.208   0.964  1.8727 -0.5428  0.1710
  518MOL0     H71479   4.156   4.306   1.091  0.0917  2.5927  0.4750
  518MOL0     H71480   4.169   4.577   0.801  2.2188 -0.4970  1.3954
  518MOL0     H71481   3.792   3.928   1.565 -0.3985 -0.4071 -0.6716
  518MOL0     H71482   3.643   4.005   1.817 -2.6940  1.0207 -1.1054
  518MOL0     H71483   3.522   3.878   1.772 -0.6575 -0.1411 -0.0263
  518MOL0     H71484   3.689   3.844   1.751  1.3893  1.2336  2.9866
  519MOL0     O71485   7.670   6.285   2.155 -0.5673 -0.3325 -0.3943
  519MOL0     C71486   7.578   6.247   2.083 -0.1640 -0.6652  0.0234
  519MOL0     O71487   7.469   6.183   2.133 -0.9756 -0.3276  0.3893
  519MOL0     C71488   7.461   6.142   2.266  0.2920  0.0202 -0.0898
  519MOL0     C71489   7.481   6.009   2.293  0.9881 -0.0752 -0.1394
  519MOL0     C71490   7.468   5.967   2.421 -0.6157  0.4780 -0.4547
  519MOL0     C71491   7.427   6.050   2.531  0.2859  1.0413  0.2549
  519MOL0     O71492   7.401   5.983   2.659 -0.0456 -0.3145  0.2206
  519MOL0     C71493   7.401   6.073   2.772  0.9974 -0.1575 -0.1189
  519MOL0     C71494   7.405   6.003   2.909 -0.8032  0.6023 -0.5856
  519MOL0     C71495   7.440   6.108   3.013 -0.2082  0.3081  0.2238
  519MOL0     C71496   7.587   6.121   3.026 -0.5245  0.1139  0.2845
  519MOL0     C71497   7.628   6.172   3.157 -0.2919  0.2328 -0.2680
  519MOL0     C71498   7.778   6.151   3.178 -0.0131  0.0052 -1.0047
  519MOL0     C71499   7.811   6.014   3.240 -0.0627 -0.3464 -1.3030
  519MOL0     C71500   7.961   6.009   3.263 -0.0185 -0.2060  0.6432
  519MOL0     N71501   8.052   6.041   3.148  0.4511 -0.7254 -0.2198
  519MOL0     C71502   8.034   6.015   3.015 -0.2299  0.3208  0.3042
  519MOL0     C71503   8.116   6.093   2.945 -0.6022  0.7049 -0.9447
  519MOL0     C71504   8.142   6.082   2.798 -0.2564  0.2608  0.6702
  519MOL0     C71505   8.054   6.192   2.728  0.8176  0.1092  0.2581
  519MOL0     C71506   7.901   6.173   2.735  0.1258  0.5853 -0.9216
  519MOL0     C71507   7.848   6.041   2.674  0.2085  0.3175 -0.0360
  519MOL0     O71508   7.869   5.917   2.746 -0.7675 -0.0362  0.2790
  519MOL0     C71509   7.805   5.803   2.705 -1.2593 -0.0661  0.9982
  519MOL0     C71510   7.822   5.686   2.793 -0.2604 -0.1201  0.5284
  519MOL0     C71511   7.779   5.554   2.750 -0.5948 -0.5216  0.8929
  519MOL0     C71512   7.804   5.444   2.857  0.7770  0.6039 -0.5123
  519MOL0     C71513   7.732   5.540   2.623  0.7381  0.1641  0.3287
  519MOL0     C71514   7.679   5.403   2.570 -0.1602 -0.3742 -0.1066
  519MOL0     O71515   7.721   5.362   2.445  0.8313 -0.2987  0.5067
  519MOL0     C71516   7.685   5.235   2.398 -0.1725 -0.4154 -0.2643
  519MOL0     C71517   7.555   5.207   2.358 -0.5094 -0.6961  0.6136
  519MOL0     C71518   7.523   5.083   2.312  0.0438  1.2133  0.0960
  519MOL0     C71519   7.612   4.972   2.304  0.5887  0.1165 -0.3689
  519MOL0     O71520   7.567   4.841   2.265 -0.2223 -0.0142  0.7648
  519MOL0     C71521   7.648   4.728   2.263  0.2191  0.3592  0.9389
  519MOL0     C71522   7.595   4.628   2.153 -0.2138 -0.5558  0.0519
  519MOL0     C71523   7.683   4.496   2.139 -0.9083 -0.2184 -0.9881
  519MOL0     C71524   7.645   4.426   2.009  1.2428 -0.1472  0.0702
  519MOL0     C71525   7.697   4.289   1.989 -0.1872  0.6545  0.9316
  519MOL0     C71526   7.801   4.276   1.887 -0.0712  0.2474  0.1458
  519MOL0     C71527   7.928   4.354   1.924  0.0168 -0.3281  1.0649
  519MOL0     C71528   8.046   4.294   1.845 -0.2188  0.0394  0.4622
  519MOL0    Cl71529   8.030   4.305   1.672 -0.6607 -0.3037 -0.2497
  519MOL0     C71530   7.742   5.004   2.354 -0.8996  0.9254 -0.3452
  519MOL0     C71531   7.777   5.129   2.407 -0.0001 -0.9621 -0.6020
  519MOL0     O71532   7.599   5.342   2.639 -0.4285 -0.2353 -0.7777
  519MOL0     C71533   7.726   5.650   2.535  0.2487 -0.1821 -0.1344
  519MOL0     C71534   7.748   5.785   2.572 -1.0532 -0.7568  0.2157
  519MOL0     N71535   8.206   6.150   3.038 -0.1292  0.1460 -0.1814
  519MOL0     N71536   8.161   6.130   3.158 -0.1138 -0.5860  0.7217
  519MOL0     C71537   7.424   6.186   2.504  0.3128  0.3037 -0.1880
  519MOL0     C71538   7.439   6.232   2.376  0.0168 -0.1612  0.5300
  519MOL0     C71539   7.587   6.283   1.943  1.2668  0.2156  0.8306
  519MOL0     C71540   7.481   6.224   1.868  0.3521  0.0470  0.3646
  519MOL0     C71541   7.478   6.229   1.734  0.1814  0.3505  0.2678
  519MOL0     C71542   7.575   6.301   1.659  0.0917 -0.1138 -0.0928
  519MOL0     O71543   7.587   6.316   1.522  0.4224 -0.1049  0.1320
  519MOL0     C71544   7.532   6.206   1.442 -0.3331  0.7052 -0.1127
  519MOL0     C71545   7.576   6.237   1.299 -0.5525 -0.5537  0.5346
  519MOL0     C71546   7.502   6.163   1.199  0.0658 -0.8956 -0.6603
  519MOL0     C71547   7.561   6.200   1.060  0.2051  0.0702  0.6564
  519MOL0     C71548   7.487   6.313   1.011  0.6053  0.4568  0.1942
  519MOL0     C71549   7.408   6.403   0.977 -0.3404 -0.1393  0.6861
  519MOL0     C71550   7.673   6.363   1.733 -0.0441  0.7539  0.2472
  519MOL0     C71551   7.691   6.347   1.867  0.2796 -0.4071  0.6725
  519MOL0     C71552   7.807   6.426   1.917  0.0361  0.8282 -0.4942
  519MOL0     H71553   7.510   5.943   2.212  1.1652 -0.3229  0.1224
  519MOL0     H71554   7.476   5.864   2.454 -1.1525 -0.6255 -3.5028
  519MOL0     H71555   7.309   6.133   2.771 -0.5633 -2.4459 -0.2121
  519MOL0     H71556   7.486   6.142   2.765  0.5974  0.4430  0.8236
  519MOL0     H71557   7.304   5.967   2.932 -1.5616  2.4801 -0.7871
  519MOL0     H71558   7.477   5.921   2.900 -1.0525  0.0791  1.7641
  519MOL0     H71559   7.391   6.203   2.990 -1.6243 -0.6541 -0.8147
  519MOL0     H71560   7.406   6.087   3.115 -0.8756  2.5856  0.5439
  519MOL0     H71561   7.645   6.031   3.005 -0.4362  0.5766 -1.6640
  519MOL0     H71562   7.617   6.198   2.954 -0.4848  1.0643  1.2982
  519MOL0     H71563   7.581   6.105   3.230  0.5723 -1.6103 -1.3342
  519MOL0     H71564   7.601   6.274   3.188 -0.4178  0.2401 -0.3997
  519MOL0     H71565   7.823   6.148   3.078  0.5792 -1.2123 -0.7227
  519MOL0     H71566   7.816   6.230   3.243 -0.4010  0.2804 -1.1079
  519MOL0     H71567   7.770   5.925   3.190 -2.9009  0.5083 -0.7099
  519MOL0     H71568   7.766   6.012   3.340  1.7163 -3.5990 -0.4054
  519MOL0     H71569   7.984   6.079   3.343 -0.9146 -0.4649  1.1378
  519MOL0     H71570   7.996   5.915   3.307  1.8860  0.3489  0.4367
  519MOL0     H71571   7.960   5.944   2.980  0.9204 -0.0251 -1.5315
  519MOL0     H71572   8.121   5.980   2.765 -0.3083  0.7489 -0.9250
  519MOL0     H71573   8.249   6.101   2.784 -0.0768 -0.7382  0.6127
  519MOL0     H71574   8.071   6.295   2.761 -0.6292  0.4390  0.0471
  519MOL0     H71575   8.086   6.194   2.623  3.3304  0.5033  0.9611
  519MOL0     H71576   7.858   6.184   2.835  4.1404 -2.0429  1.3501
  519MOL0     H71577   7.857   6.250   2.670  1.0867  0.5698 -1.6117
  519MOL0     H71578   7.738   6.042   2.676  0.0882 -3.2134  1.1837
  519MOL0     H71579   7.898   6.045   2.576 -0.4106  0.0192 -0.3717
  519MOL0     H71580   7.862   5.701   2.893 -0.5960 -3.5610  1.2916
  519MOL0     H71581   7.911   5.428   2.842  1.4774  2.1423  2.2233
  519MOL0     H71582   7.752   5.347   2.849  0.8261  0.4945  0.3981
  519MOL0     H71583   7.782   5.482   2.957  0.6075  1.8055 -0.9982
  519MOL0     H71584   7.487   5.291   2.351 -1.6235 -1.7258 -2.1505
  519MOL0     H71585   7.425   5.044   2.285  1.3626 -1.8378 -0.7158
  519MOL0     H71586   7.750   4.749   2.229 -1.0034 -0.4124 -3.8945
  519MOL0     H71587   7.645   4.680   2.362  0.6245  0.0997  0.8284
  519MOL0     H71588   7.492   4.599   2.176 -0.2340 -0.7898 -0.3246
  519MOL0     H71589   7.590   4.682   2.058 -0.3793 -4.4423 -2.3665
  519MOL0     H71590   7.661   4.433   2.226  0.8366 -0.1945 -0.4850
  519MOL0     H71591   7.791   4.512   2.134 -0.4642 -0.6032  3.3468
  519MOL0     H71592   7.660   4.497   1.927 -1.6102  2.1300  1.3280
  519MOL0     H71593   7.536   4.421   2.013  1.0682  2.2207 -0.1023
  519MOL0     H71594   7.715   4.245   2.087  0.3707 -0.6786  0.2521
  519MOL0     H71595   7.612   4.242   1.939 -0.2504 -0.0098  1.6485
  519MOL0     H71596   7.755   4.315   1.796 -0.6484  1.5017  0.9440
  519MOL0     H71597   7.823   4.172   1.860  0.2770  0.2430  0.4454
  519MOL0     H71598   7.942   4.331   2.030 -1.7345 -2.8527  0.8170
  519MOL0     H71599   7.925   4.458   1.891  0.7577 -1.4118 -3.0480
  519MOL0     H71600   8.046   4.192   1.884 -1.4949 -0.2030 -0.1338
  519MOL0     H71601   8.145   4.337   1.865  1.0215 -1.9852 -0.9585
  519MOL0     H71602   7.811   4.920   2.356 -2.1505 -0.1900 -1.6102
  519MOL0     H71603   7.878   5.150   2.441 -0.2382  1.0265 -1.0215
  519MOL0     H71604   7.710   5.616   2.434 -1.3847  0.1677 -0.0170
  519MOL0     H71605   7.729   5.865   2.501 -1.0112 -1.1352 -0.2251
  519MOL0     H71606   7.399   6.246   2.591  0.3766 -1.4924  1.1214
  519MOL0     H71607   7.436   6.339   2.359  1.7503 -0.2957 -0.9658
  519MOL0     H71608   7.419   6.147   1.912  3.0140 -2.5769 -0.1973
  519MOL0     H71609   7.398   6.177   1.682  1.2819  0.6158 -1.8001
  519MOL0     H71610   7.575   6.108   1.464 -1.3453  0.4088  0.6228
  519MOL0     H71611   7.424   6.190   1.445 -0.2872  0.3335 -0.3416
  519MOL0     H71612   7.683   6.216   1.293 -0.5168  0.0113 -2.1651
  519MOL0     H71613   7.561   6.344   1.284 -0.5857 -0.7901 -1.3231
  519MOL0     H71614   7.525   6.057   1.205  2.0730 -0.4569  0.0568
  519MOL0     H71615   7.395   6.185   1.203  0.2881  0.2571 -0.5083
  519MOL0     H71616   7.549   6.120   0.986 -1.1446 -1.3575  2.3332
  519MOL0     H71617   7.669   6.219   1.063  0.5185 -0.8081 -1.8807
  519MOL0     H71618   7.341   6.480   0.943 -1.2324  0.2223  3.1119
  519MOL0     H71619   7.741   6.420   1.672 -1.0197  2.6584  0.8765
  519MOL0     H71620   7.899   6.372   1.893 -0.8194 -0.8047 -0.2683
  519MOL0     H71621   7.817   6.524   1.871  1.1902  1.2415  0.5743
  519MOL0     H71622   7.804   6.444   2.025  2.8886 -1.8156  0.1862
  520MOL0     O71623   1.663   1.555   3.325 -0.0346  0.2666 -0.5735
  520MOL0     C71624   1.675   1.676   3.304 -0.4264  0.1057 -0.2113
  520MOL0     O71625   1.711   1.765   3.396  0.6266 -0.3527 -0.3738
  520MOL0     C71626   1.784   1.704   3.489 -1.1082 -0.6018  0.0055
  520MOL0     C71627   1.920   1.711   3.471 -0.5147  0.1066 -0.5563
  520MOL0     C71628   2.011   1.662   3.572 -0.2302  0.1808  0.5821
  520MOL0     C71629   1.957   1.588   3.677  1.0212  0.4208 -0.4738
  520MOL0     O71630   2.041   1.510   3.754  0.1060  0.0431 -0.0123
  520MOL0     C71631   2.045   1.530   3.897  0.1874  0.5616  0.9029
  520MOL0     C71632   2.151   1.438   3.966  0.2703  0.5247 -0.0635
  520MOL0     C71633   2.123   1.447   4.121  1.1548  0.7450  0.4404
  520MOL0     C71634   2.157   1.320   4.203  0.0190  0.6814  0.2003
  520MOL0     C71635   2.080   1.276   4.326 -0.4721 -0.1956  0.5363
  520MOL0     C71636   2.148   1.151   4.391 -0.2405 -0.0569 -0.0155
  520MOL0     C71637   2.296   1.171   4.430  0.7453 -0.1774  0.0051
  520MOL0     C71638   2.328   1.051   4.523 -0.0807  0.3395 -0.2658
  520MOL0     N71639   2.477   1.045   4.532 -0.1191 -0.2535  0.6063
  520MOL0     C71640   2.571   0.948   4.488  0.2767 -0.1212 -0.2697
  520MOL0     C71641   2.691   1.003   4.526 -0.6604 -0.1656  0.5296
  520MOL0     C71642   2.828   0.947   4.510 -0.5901  0.2051  0.1684
  520MOL0     C71643   2.901   0.927   4.643 -0.1369  1.1512  0.5716
  520MOL0     C71644   3.033   0.853   4.621  1.4676 -0.4658  0.2617
  520MOL0     C71645   3.124   0.883   4.747  0.2457  0.4365  0.5403
  520MOL0     O71646   3.223   0.778   4.788  0.2894 -0.1407  0.2416
  520MOL0     C71647   3.304   0.703   4.700 -0.4332 -0.8365 -0.4342
  520MOL0     C71648   3.399   0.626   4.772  0.0920 -0.7080 -0.2516
  520MOL0     C71649   3.497   0.546   4.720  1.0209  0.5321  0.4528
  520MOL0     C71650   3.573   0.456   4.819 -0.2150  0.1490  0.5143
  520MOL0     C71651   3.516   0.561   4.582  0.0405 -0.7428 -0.4837
  520MOL0     C71652   3.629   0.511   4.506  0.5809  0.1994 -0.0482
  520MOL0     O71653   3.757   0.525   4.558 -0.6406  0.0237  0.6360
  520MOL0     C71654   3.863   0.479   4.479 -0.1501  0.3083 -0.1690
  520MOL0     C71655   3.882   0.346   4.437  0.3048 -0.3331 -0.9715
  520MOL0     C71656   3.981   0.309   4.349  0.0083  0.0161 -0.2599
  520MOL0     C71657   4.083   0.402   4.305  0.2912 -0.0388 -0.7960
  520MOL0     O71658   4.197   0.373   4.232 -0.6169 -0.5205 -0.6534
  520MOL0     C71659   4.222   0.249   4.166  0.4451 -0.3682 -1.3276
  520MOL0     C71660   4.345   0.264   4.073  0.1094 -0.6446 -0.0093
  520MOL0     C71661   4.405   0.122   4.045 -0.2902  0.5057  0.3207
  520MOL0     C71662   4.509   0.143   3.928 -0.1926 -0.1543  0.4339
  520MOL0     C71663   4.550   0.022   3.869 -1.1603 -0.3195  0.3483
  520MOL0     C71664   4.670   0.050   3.779  0.0238 -0.4146 -0.8506
  520MOL0     C71665   4.715  -0.061   3.691  1.2822 -0.4545 -0.7318
  520MOL0     C71666   4.615  -0.106   3.587  0.8293  0.0315  0.3483
  520MOL0    Cl71667   4.611   0.019   3.454  0.1408 -0.4727  0.3416
  520MOL0     C71668   4.065   0.536   4.352 -0.1523  0.4025  0.8611
  520MOL0     C71669   3.951   0.578   4.436  0.6641  0.2939 -1.2910
  520MOL0     O71670   3.603   0.465   4.394  0.0977  0.3568 -0.1156
  520MOL0     C71671   3.425   0.642   4.502 -0.6321 -0.2019 -0.1040
  520MOL0     C71672   3.317   0.706   4.562 -0.6048 -0.5751  0.1501
  520MOL0     N71673   2.673   1.124   4.592 -0.4397 -0.5398  0.6770
  520MOL0     N71674   2.548   1.142   4.594 -0.2995 -0.5785  0.2835
  520MOL0     C71675   1.818   1.584   3.698 -0.4471 -0.0954 -0.5245
  520MOL0     C71676   1.733   1.644   3.606 -0.3450 -0.3601  0.5507
  520MOL0     C71677   1.641   1.722   3.166  0.4714 -0.0486 -0.5297
  520MOL0     C71678   1.522   1.793   3.157 -0.5536  0.4676 -0.3940
  520MOL0     C71679   1.469   1.815   3.026  0.2970 -0.6131 -0.1758
  520MOL0     C71680   1.544   1.783   2.910  0.2317  0.6535 -0.2951
  520MOL0     O71681   1.500   1.808   2.777  0.8630 -0.3550 -0.2443
  520MOL0     C71682   1.430   1.928   2.761  1.0885  0.5784  0.1997
  520MOL0     C71683   1.457   1.996   2.629 -0.2265  0.1416 -0.1348
  520MOL0     C71684   1.441   1.897   2.523 -0.6007 -0.0469 -1.0529
  520MOL0     C71685   1.425   1.960   2.380  0.3852 -0.2409 -1.1800
  520MOL0     C71686   1.456   1.859   2.281  0.3658  0.7235 -0.5468
  520MOL0     C71687   1.496   1.804   2.180 -0.0404 -0.2816 -0.0488
  520MOL0     C71688   1.669   1.726   2.923 -0.1327  0.1297 -0.1048
  520MOL0     C71689   1.715   1.683   3.051 -0.3582 -0.9222  0.0321
  520MOL0     C71690   1.834   1.595   3.051  0.5634  0.7742  0.9976
  520MOL0     H71691   1.961   1.759   3.383  0.9108  0.2919  0.1829
  520MOL0     H71692   2.119   1.662   3.559 -0.3242 -3.0031 -1.5664
  520MOL0     H71693   1.944   1.508   3.933  0.0800  0.7508  0.7206
  520MOL0     H71694   2.069   1.636   3.909 -1.0932  1.1263 -0.9643
  520MOL0     H71695   2.137   1.335   3.933  2.0929 -0.1113  1.0169
  520MOL0     H71696   2.248   1.473   3.931  0.9415  2.2814  3.1597
  520MOL0     H71697   2.172   1.535   4.164  1.9072  0.3070  0.4967
  520MOL0     H71698   2.014   1.454   4.127  1.0947 -0.1696  0.5551
  520MOL0     H71699   2.151   1.235   4.135 -0.6617 -0.2210  1.3546
  520MOL0     H71700   2.264   1.325   4.227 -0.0226 -2.1074  1.2275
  520MOL0     H71701   1.973   1.269   4.304 -0.4498 -3.9939  0.9802
  520MOL0     H71702   2.095   1.358   4.397  0.1316 -0.1738  0.3891
  520MOL0     H71703   2.089   1.128   4.480 -0.1641 -1.6069 -0.3506
  520MOL0     H71704   2.140   1.070   4.318  1.6309  0.9004 -1.3792
  520MOL0     H71705   2.299   1.268   4.479 -1.8564 -0.0730  0.0959
  520MOL0     H71706   2.359   1.167   4.340 -1.0902  0.1609 -1.3594
  520MOL0     H71707   2.279   1.067   4.620 -1.8043  2.0258 -1.3359
  520MOL0     H71708   2.296   0.954   4.483 -1.4319  1.4103 -1.9202
  520MOL0     H71709   2.545   0.855   4.439 -3.3695  0.7319 -0.2903
  520MOL0     H71710   2.892   1.020   4.459  2.1628 -0.6814  2.0795
  520MOL0     H71711   2.820   0.854   4.453  2.9150 -0.0631 -0.1278
  520MOL0     H71712   2.912   1.027   4.686  1.1191  0.9947  0.6619
  520MOL0     H71713   2.836   0.879   4.717 -1.9456  1.1040 -0.9849
  520MOL0     H71714   3.004   0.748   4.609  0.1335 -0.1769  0.8526
  520MOL0     H71715   3.073   0.891   4.526 -0.3570  0.5504 -0.1419
  520MOL0     H71716   3.184   0.973   4.733  0.2357  0.2862 -0.5495
  520MOL0     H71717   3.072   0.886   4.843 -0.2888  0.6919  0.2503
  520MOL0     H71718   3.389   0.626   4.880  0.0978 -0.0883 -0.2465
  520MOL0     H71719   3.607   0.359   4.780  1.9638  1.4658 -1.1173
  520MOL0     H71720   3.521   0.428   4.911  3.8010 -4.5337  1.8339
  520MOL0     H71721   3.662   0.518   4.834 -0.2955  1.7735 -4.2183
  520MOL0     H71722   3.805   0.276   4.463 -2.8052  3.0601 -0.2276
  520MOL0     H71723   3.975   0.205   4.315  1.1554  0.0181 -0.5192
  520MOL0     H71724   4.247   0.177   4.245 -0.1294  0.7182 -0.1120
  520MOL0     H71725   4.140   0.211   4.105 -0.4335 -0.5899 -0.0602
  520MOL0     H71726   4.326   0.320   3.981  0.6322 -2.5396 -1.3467
  520MOL0     H71727   4.423   0.316   4.128  1.8214 -2.8821 -0.1927
  520MOL0     H71728   4.327   0.049   4.023  0.3797 -0.8750  2.3483
  520MOL0     H71729   4.464   0.098   4.134  1.7258  3.0750 -0.1857
  520MOL0     H71730   4.585   0.211   3.968 -1.2461 -0.2189  2.6694
  520MOL0     H71731   4.466   0.191   3.840 -0.6681  0.5377  1.0273
  520MOL0     H71732   4.586  -0.050   3.943  2.0275  0.1954 -0.5194
  520MOL0     H71733   4.469  -0.012   3.804 -0.1031  0.8677 -1.7153
  520MOL0     H71734   4.757   0.084   3.836  0.3250  0.1141 -1.6161
  520MOL0     H71735   4.657   0.142   3.721  3.7466 -0.1115 -1.4065
  520MOL0     H71736   4.752  -0.145   3.752  2.1607 -0.6065 -1.4478
  520MOL0     H71737   4.795  -0.046   3.618  0.9077 -2.8344 -1.7384
  520MOL0     H71738   4.522  -0.159   3.611  0.6033 -1.1310 -2.6283
  520MOL0     H71739   4.661  -0.193   3.539 -1.3238  0.7208 -3.3517
  520MOL0     H71740   4.140   0.608   4.320  1.4405 -0.7399  1.8287
  520MOL0     H71741   3.943   0.683   4.460 -2.2463 -0.5692  2.3536
  520MOL0     H71742   3.450   0.654   4.398  3.3689 -0.7586  0.6519
  520MOL0     H71743   3.264   0.784   4.508 -2.4322 -1.4816  0.5596
  520MOL0     H71744   1.776   1.530   3.783 -0.6327  0.4487 -0.2618
  520MOL0     H71745   1.625   1.641   3.619 -0.5762  0.6429 -0.8430
  520MOL0     H71746   1.461   1.829   3.239  0.5416  1.6365 -0.0616
  520MOL0     H71747   1.363   1.839   3.029  0.2501 -0.8879  1.6209
  520MOL0     H71748   1.323   1.917   2.779  0.7260 -0.5170 -2.2476
  520MOL0     H71749   1.459   2.000   2.838 -2.7310  1.3587  1.1272
  520MOL0     H71750   1.558   2.039   2.629  0.0298 -0.4339 -0.9674
  520MOL0     H71751   1.397   2.086   2.610 -0.6703  0.5406  2.7239
  520MOL0     H71752   1.522   1.824   2.525  0.0631  0.7011  0.0010
  520MOL0     H71753   1.351   1.840   2.548 -1.2788  1.4045 -0.0685
  520MOL0     H71754   1.477   2.056   2.371 -0.7804  0.4666 -0.5524
  520MOL0     H71755   1.322   1.996   2.382  1.0202  1.6911  0.9573
  520MOL0     H71756   1.520   1.758   2.086 -1.7760  0.2937 -0.8329
  520MOL0     H71757   1.734   1.707   2.837  1.6382  0.0238  1.2030
  520MOL0     H71758   1.803   1.497   3.013  1.3645  1.5244 -1.7575
  520MOL0     H71759   1.915   1.640   2.993 -0.8819 -1.0489 -2.7417
  520MOL0     H71760   1.865   1.566   3.152 -1.6627 -0.2365  1.4638
  521MOL0     O71761   1.682   9.929   0.015 -0.0309  0.0745 -0.4481
  521MOL0     C71762   1.702   9.934  -0.104  0.7387 -0.3197 -0.4254
  521MOL0     O71763   1.757  10.037  -0.163 -0.0399  0.5311  1.0213
  521MOL0     C71764   1.831  10.119  -0.084  0.1894 -0.0252  0.7591
  521MOL0     C71765   1.776  10.248  -0.061  0.2641 -0.7681  0.0272
  521MOL0     C71766   1.864  10.348  -0.006 -0.0341 -0.4983  0.3989
  521MOL0     C71767   1.997  10.326   0.013 -0.3037  0.0615  0.3224
  521MOL0     O71768   2.087  10.425   0.056  1.5340  0.7042  0.0359
  521MOL0     C71769   2.043  10.568   0.025  0.0088  0.2376  0.2071
  521MOL0     C71770   2.163  10.665   0.037 -0.4553 -0.7906  0.1508
  521MOL0     C71771   2.239  10.651   0.173  0.9372  0.2932 -0.4099
  521MOL0     C71772   2.364  10.740   0.157  0.0228 -0.1706 -0.2741
  521MOL0     C71773   2.461  10.742   0.284 -0.6180  0.4814  0.7244
  521MOL0     C71774   2.532  10.599   0.278  0.0296  0.6893  0.8331
  521MOL0     C71775   2.663  10.597   0.355 -0.2567  0.1378 -0.2808
  521MOL0     C71776   2.639  10.618   0.511 -0.5223 -0.3998  1.1333
  521MOL0     N71777   2.564  10.512   0.576  0.3209 -0.4487 -0.3363
  521MOL0     C71778   2.426  10.523   0.587  0.5703  0.8007 -0.2044
  521MOL0     C71779   2.388  10.420   0.663  0.7662  0.1814 -1.1099
  521MOL0     C71780   2.245  10.381   0.696  0.1141 -1.1032  0.4188
  521MOL0     C71781   2.201  10.263   0.617  0.4651  0.2532 -0.4631
  521MOL0     C71782   2.220  10.276   0.469 -0.6224  0.4907 -0.2303
  521MOL0     C71783   2.112  10.185   0.403  0.7712 -0.2479  0.2086
  521MOL0     O71784   2.131  10.051   0.456 -0.7209  0.0535  0.6755
  521MOL0     C71785   2.043   9.951   0.419 -0.7727 -0.3381  0.6409
  521MOL0     C71786   2.024   9.848   0.504  0.1454  1.2857 -0.3075
  521MOL0     C71787   1.950   9.734   0.477 -1.0684 -0.1334 -0.4188
  521MOL0     C71788   1.942   9.624   0.588  0.1380  0.3172 -0.3878
  521MOL0     C71789   1.888   9.722   0.346 -0.5619  0.7144 -0.0110
  521MOL0     C71790   1.788   9.621   0.317  1.4164  0.7238 -0.8062
  521MOL0     O71791   1.780   9.590   0.185 -0.3628 -0.3820 -0.5904
  521MOL0     C71792   1.672   9.532   0.127 -0.2680 -0.9917 -0.9380
  521MOL0     C71793   1.554   9.597   0.115 -0.2348 -0.0291 -0.2586
  521MOL0     C71794   1.439   9.535   0.061  0.6750 -0.3947 -0.1740
  521MOL0     C71795   1.434   9.407   0.023  0.0623 -0.4118 -0.6938
  521MOL0     O71796   1.321   9.358  -0.037 -0.3134  0.5869 -0.6367
  521MOL0     C71797   1.330   9.264  -0.145 -0.0500  0.0967  0.9932
  521MOL0     C71798   1.194   9.238  -0.206 -0.1864 -0.5721 -0.6668
  521MOL0     C71799   1.198   9.112  -0.288 -0.5096  0.3888  0.2046
  521MOL0     C71800   1.060   9.072  -0.353  0.6439 -0.3490 -0.2739
  521MOL0     C71801   0.959   9.026  -0.252  0.8569  0.3476  0.3073
  521MOL0     C71802   0.815   9.005  -0.296  0.2858  0.0883  0.3505
  521MOL0     C71803   0.756   8.883  -0.219  1.0592  1.0576  0.5220
  521MOL0     C71804   0.630   8.823  -0.284 -0.3117  0.9825  0.2713
  521MOL0    Cl71805   0.479   8.906  -0.240  0.2382  0.1973  0.0047
  521MOL0     C71806   1.553   9.335   0.040  0.3321  0.1943 -0.4234
  521MOL0     C71807   1.671   9.397   0.090  0.3960  0.5745 -0.2575
  521MOL0     O71808   1.715   9.567   0.402 -0.0701  0.4252  0.1069
  521MOL0     C71809   1.895   9.839   0.267  0.5454  1.0757 -0.3057
  521MOL0     C71810   1.983   9.951   0.299  0.4683  0.0452  0.0582
  521MOL0     N71811   2.502  10.346   0.693  0.1380 -0.0999 -0.8048
  521MOL0     N71812   2.610  10.407   0.654  0.0971  0.2016 -0.0038
  521MOL0     C71813   2.047  10.197  -0.014  0.4236  0.4088  0.3311
  521MOL0     C71814   1.964  10.095  -0.066 -0.3916  0.3650  0.2816
  521MOL0     C71815   1.621   9.840  -0.195  0.3845 -0.5213 -0.7517
  521MOL0     C71816   1.492   9.809  -0.152  0.2059  0.3127  0.8672
  521MOL0     C71817   1.405   9.743  -0.239 -0.7845  0.5323 -0.5124
  521MOL0     C71818   1.436   9.723  -0.377  0.5467 -0.2855 -0.7413
  521MOL0     O71819   1.343   9.661  -0.458 -0.0810 -0.7264 -0.8802
  521MOL0     C71820   1.353   9.644  -0.598  0.7590  0.2265 -0.2454
  521MOL0     C71821   1.241   9.555  -0.659 -0.1810 -0.1834  0.3984
  521MOL0     C71822   1.218   9.424  -0.573 -0.2616 -0.8303  0.7473
  521MOL0     C71823   1.120   9.319  -0.647 -0.6407 -1.3260  0.1546
  521MOL0     C71824   0.987   9.366  -0.675 -0.0258 -0.8503 -0.0121
  521MOL0     C71825   0.872   9.412  -0.696 -0.6420 -0.1472 -0.2121
  521MOL0     C71826   1.568   9.752  -0.419  0.4542 -0.8785 -0.5130
  521MOL0     C71827   1.662   9.813  -0.336  1.1143  0.0952  0.2520
  521MOL0     C71828   1.793   9.852  -0.400 -0.3304 -0.3493  0.7204
  521MOL0     H71829   1.673  10.280  -0.075 -0.2013 -0.7133  2.9568
  521MOL0     H71830   1.823  10.448   0.008 -1.6138 -1.2796  1.7438
  521MOL0     H71831   1.982  10.596   0.111  4.7927  1.0117  3.7988
  521MOL0     H71832   1.982  10.585  -0.064  1.2335  0.9683 -0.5187
  521MOL0     H71833   2.227  10.632  -0.046 -0.7993  2.3773 -1.5123
  521MOL0     H71834   2.122  10.759  -0.001  0.8115  0.6810  2.1930
  521MOL0     H71835   2.177  10.688   0.256  2.1848  0.2906  0.5549
  521MOL0     H71836   2.272  10.547   0.183  1.5922  0.2938 -2.2250
  521MOL0     H71837   2.427  10.723   0.070 -0.5870  1.8893 -1.1718
  521MOL0     H71838   2.321  10.840   0.151 -0.4364 -0.2970  0.6888
  521MOL0     H71839   2.398  10.753   0.373  1.1112 -0.9386  2.2109
  521MOL0     H71840   2.536  10.817   0.261  0.3240 -0.7814 -0.5161
  521MOL0     H71841   2.468  10.520   0.319  1.6817 -0.8739  0.5238
  521MOL0     H71842   2.566  10.565   0.179  0.5776  0.3172  1.1428
  521MOL0     H71843   2.735  10.672   0.319 -0.5870  0.4568 -0.2766
  521MOL0     H71844   2.709  10.499   0.339  0.4027  0.6678 -1.8587
  521MOL0     H71845   2.738  10.635   0.553  0.3700 -1.2402 -0.5216
  521MOL0     H71846   2.581  10.711   0.521  1.9297  1.2449  1.0523
  521MOL0     H71847   2.359  10.583   0.526 -1.7808 -0.8602  0.5881
  521MOL0     H71848   2.171  10.460   0.681  2.0594  0.6001 -0.7014
  521MOL0     H71849   2.239  10.374   0.805  0.8904 -0.3503  0.5214
  521MOL0     H71850   2.255  10.176   0.656  1.7459  1.4873  0.6164
  521MOL0     H71851   2.093  10.252   0.636  0.3096 -0.6742 -1.7478
  521MOL0     H71852   2.219  10.380   0.434  1.9122  0.2985 -1.0506
  521MOL0     H71853   2.318  10.236   0.441 -1.5117 -0.3430 -2.4059
  521MOL0     H71854   2.011  10.211   0.437  1.0076 -0.8448  1.4477
  521MOL0     H71855   2.115  10.183   0.294 -1.4054 -0.5253  0.1018
  521MOL0     H71856   2.076   9.859   0.599 -1.2661  2.5471  0.3622
  521MOL0     H71857   2.031   9.625   0.652  0.3237 -2.1887 -0.5082
  521MOL0     H71858   1.933   9.527   0.539 -0.2822  1.0074 -1.7215
  521MOL0     H71859   1.859   9.646   0.656 -1.6605 -2.2817 -1.6133
  521MOL0     H71860   1.538   9.703   0.134 -4.4694 -0.4715 -0.2980
  521MOL0     H71861   1.341   9.580   0.046  0.2264 -1.5819 -1.0072
  521MOL0     H71862   1.389   9.320  -0.218 -1.0958  0.1354  0.1687
  521MOL0     H71863   1.382   9.169  -0.131  2.7866  1.2975 -0.3653
  521MOL0     H71864   1.126   9.214  -0.124 -3.7595 -0.2590 -3.3051
  521MOL0     H71865   1.153   9.330  -0.249 -0.0895  0.0548  0.5304
  521MOL0     H71866   1.232   9.026  -0.230 -3.0608 -0.6585  0.2919
  521MOL0     H71867   1.261   9.132  -0.376 -1.0364 -1.0896 -0.5436
  521MOL0     H71868   1.067   8.987  -0.421 -1.3461  0.8881 -2.1481
  521MOL0     H71869   1.012   9.157  -0.402 -1.0359  0.1161  2.0233
  521MOL0     H71870   0.990   8.927  -0.217  0.4659 -0.0699 -0.5192
  521MOL0     H71871   0.946   9.096  -0.168  2.4977  1.1523 -0.0704
  521MOL0     H71872   0.828   8.981  -0.402  2.0390 -0.0309  0.5640
  521MOL0     H71873   0.754   9.096  -0.291  0.7075  0.8417 -4.2761
  521MOL0     H71874   0.729   8.918  -0.118  0.4367  1.7021  0.1438
  521MOL0     H71875   0.831   8.804  -0.208  2.7113  2.1862 -1.9873
  521MOL0     H71876   0.625   8.718  -0.253  4.0719 -0.0167 -1.5570
  521MOL0     H71877   0.627   8.822  -0.393  1.1577 -1.5391  0.1874
  521MOL0     H71878   1.554   9.228   0.021  1.7446  0.3119 -1.1155
  521MOL0     H71879   1.760   9.336   0.099 -0.6578 -1.3007 -1.8368
  521MOL0     H71880   1.822   9.834   0.187  0.2907  0.9944 -0.0735
  521MOL0     H71881   1.978  10.034   0.230  1.8850 -0.9401 -1.3017
  521MOL0     H71882   2.155  10.187  -0.010  0.2938 -3.2937 -1.0942
  521MOL0     H71883   2.005   9.996  -0.086 -0.3459  0.2293  1.0217
  521MOL0     H71884   1.449   9.831  -0.055  0.1965  1.3543  0.6405
  521MOL0     H71885   1.321   9.698  -0.187 -0.3982 -2.0735 -1.9287
  521MOL0     H71886   1.345   9.742  -0.646 -0.3260 -0.2170 -1.0157
  521MOL0     H71887   1.449   9.598  -0.624  1.0489  0.4163  0.4758
  521MOL0     H71888   1.258   9.526  -0.763  0.2124 -1.8736  0.9100
  521MOL0     H71889   1.153   9.619  -0.673  3.2155  4.3546 -2.9223
  521MOL0     H71890   1.314   9.380  -0.543  0.8430  2.7476  3.0876
  521MOL0     H71891   1.167   9.442  -0.478  1.2588 -1.2757  1.6847
  521MOL0     H71892   1.118   9.240  -0.572  0.6517 -0.4807  1.1324
  521MOL0     H71893   1.162   9.285  -0.741 -0.3325  0.8978 -0.5791
  521MOL0     H71894   0.772   9.448  -0.710 -0.9100 -1.4097 -1.9054
  521MOL0     H71895   1.604   9.715  -0.514 -0.7960 -4.8715  0.3782
  521MOL0     H71896   1.806   9.957  -0.431 -1.2921 -0.9088 -1.8465
  521MOL0     H71897   1.867   9.825  -0.325 -2.9963 -2.1128  2.8952
  521MOL0     H71898   1.812   9.804  -0.496 -1.2187  1.0754 -0.2146
  522MOL0     O71899   5.996   6.083   8.526  0.1277  0.4172  0.3135
  522MOL0     C71900   6.082   6.059   8.439  0.7134  0.7349  1.0784
  522MOL0     O71901   6.197   6.135   8.406  0.4817 -0.3606  0.5591
  522MOL0     C71902   6.209   6.258   8.458 -0.0837  0.5545  0.4537
  522MOL0     C71903   6.257   6.272   8.585  0.3491  0.2535  0.6971
  522MOL0     C71904   6.288   6.405   8.628  0.4569 -0.4466  0.1304
  522MOL0     C71905   6.281   6.505   8.540  0.9747 -1.4526  0.3423
  522MOL0     O71906   6.315   6.634   8.588 -0.0478  0.4721  0.2452
  522MOL0     C71907   6.310   6.749   8.499  0.1720  0.2031  0.1756
  522MOL0     C71908   6.336   6.884   8.553 -0.2661 -0.9051 -0.4688
  522MOL0     C71909   6.475   6.919   8.606 -0.4013  0.3870 -0.6273
  522MOL0     C71910   6.578   6.968   8.515 -0.0845  0.1194  0.1212
  522MOL0     C71911   6.715   6.960   8.581 -0.6491 -0.7372 -0.6576
  522MOL0     C71912   6.823   7.014   8.496  0.3564 -0.8391  1.0911
  522MOL0     C71913   6.947   7.027   8.588 -0.9276 -0.4184 -0.7360
  522MOL0     C71914   6.997   6.881   8.616 -0.7178 -0.0325 -0.6816
  522MOL0     N71915   7.135   6.884   8.669  0.5384  0.0547  0.4594
  522MOL0     C71916   7.239   6.887   8.585 -0.7435 -0.7265  1.5882
  522MOL0     C71917   7.350   6.938   8.663 -1.3048 -0.6949 -0.6510
  522MOL0     C71918   7.489   6.956   8.609  1.1334 -0.0621  0.7480
  522MOL0     C71919   7.572   7.031   8.706  0.8528  0.0692  0.2117
  522MOL0     C71920   7.716   7.052   8.654  1.5127 -0.3614 -0.1817
  522MOL0     C71921   7.750   7.090   8.511  0.6617  0.1463 -0.4072
  522MOL0     O71922   7.742   7.235   8.498 -0.3308  0.3865  0.6983
  522MOL0     C71923   7.721   7.296   8.369  0.5265  0.8643  0.8577
  522MOL0     C71924   7.673   7.421   8.364 -0.3949 -0.4301  0.0202
  522MOL0     C71925   7.652   7.500   8.246 -0.3093  0.0190 -0.8377
  522MOL0     C71926   7.610   7.640   8.264  0.2926  0.5079 -0.2792
  522MOL0     C71927   7.673   7.440   8.115 -0.3215  0.1863 -1.5327
  522MOL0     C71928   7.657   7.491   7.985 -0.0116 -1.4029 -0.4061
  522MOL0     O71929   7.636   7.397   7.884  0.0594 -0.9402 -0.3050
  522MOL0     C71930   7.611   7.451   7.756  0.1427 -0.0939 -0.6313
  522MOL0     C71931   7.490   7.433   7.695 -0.7511  1.0843 -0.0099
  522MOL0     C71932   7.454   7.487   7.572  0.5162 -0.5049  1.4871
  522MOL0     C71933   7.544   7.572   7.511  1.2296 -0.1555  0.5349
  522MOL0     O71934   7.489   7.646   7.404 -0.0589 -0.3632 -0.1820
  522MOL0     C71935   7.576   7.673   7.284 -0.0635 -0.0569 -0.8539
  522MOL0     C71936   7.496   7.690   7.153  0.0269  0.1837  1.2065
  522MOL0     C71937   7.472   7.545   7.109  0.1121  0.3238  0.5912
  522MOL0     C71938   7.374   7.532   6.998 -0.8629  0.9242 -0.0115
  522MOL0     C71939   7.420   7.587   6.862 -0.1213  0.1652 -0.0823
  522MOL0     C71940   7.335   7.546   6.743  0.1030 -0.6109  0.4108
  522MOL0     C71941   7.184   7.566   6.767  0.5677  0.1798  0.2945
  522MOL0     C71942   7.104   7.557   6.631 -0.9979  0.9006  0.5044
  522MOL0    Cl71943   7.144   7.391   6.564 -0.0875 -0.0785  0.4822
  522MOL0     C71944   7.672   7.586   7.561 -0.2372  0.1632  0.0916
  522MOL0     C71945   7.706   7.523   7.686  0.0156 -1.0108 -0.5698
  522MOL0     O71946   7.643   7.618   7.974 -0.0491 -0.1819  1.0273
  522MOL0     C71947   7.722   7.304   8.122 -0.3062 -0.2922  0.2496
  522MOL0     C71948   7.744   7.239   8.244 -0.7837  0.4256  0.1498
  522MOL0     N71949   7.309   6.945   8.798 -0.1555 -0.1947  0.7436
  522MOL0     N71950   7.178   6.914   8.796  0.6061  0.2613  0.7629
  522MOL0     C71951   6.232   6.492   8.412  0.1101  0.1795  0.1667
  522MOL0     C71952   6.202   6.357   8.368 -0.4377 -0.9960  0.2417
  522MOL0     C71953   6.062   5.935   8.361  0.5556  0.0776  0.2107
  522MOL0     C71954   6.183   5.854   8.332  0.1968  0.2016 -0.1086
  522MOL0     C71955   6.167   5.740   8.246 -0.0269  0.7985 -0.0720
  522MOL0     C71956   6.045   5.710   8.185 -0.4047  0.6463 -0.3838
  522MOL0     O71957   6.042   5.612   8.093  0.2377  0.4838  0.1158
  522MOL0     C71958   5.999   5.665   7.967  0.0723 -0.0916  0.3003
  522MOL0     C71959   5.859   5.623   7.931  0.5862  0.2655 -0.9615
  522MOL0     C71960   5.781   5.735   7.866 -0.1333  0.3571 -0.4692
  522MOL0     C71961   5.642   5.703   7.814  0.1216 -0.2042  0.3482
  522MOL0     C71962   5.565   5.634   7.909  0.0787 -0.7925  0.3779
  522MOL0     C71963   5.504   5.584   7.999  0.5822  0.2025 -0.5360
  522MOL0     C71964   5.930   5.787   8.223 -0.0742  0.3088 -0.1178
  522MOL0     C71965   5.937   5.897   8.312 -0.0449  0.7834  0.7916
  522MOL0     C71966   5.806   5.962   8.354  0.1113 -0.2114  0.3022
  522MOL0     H71967   6.248   6.180   8.644 -2.7823 -0.7275 -1.1073
  522MOL0     H71968   6.314   6.410   8.734 -0.3463 -0.1436  0.3158
  522MOL0     H71969   6.206   6.759   8.466 -0.2699 -1.6731  0.8557
  522MOL0     H71970   6.373   6.731   8.412 -4.3827 -0.5852 -3.3309
  522MOL0     H71971   6.294   6.958   8.485 -1.4867 -3.4052 -2.6116
  522MOL0     H71972   6.273   6.887   8.642  0.4628  4.7149  0.2054
  522MOL0     H71973   6.466   6.981   8.695  4.7476 -2.2659  2.2158
  522MOL0     H71974   6.520   6.827   8.646  1.7356  1.1377 -1.1467
  522MOL0     H71975   6.576   6.893   8.435 -1.5282 -0.1557  0.3968
  522MOL0     H71976   6.553   7.069   8.485  0.3204 -0.8717 -4.0977
  522MOL0     H71977   6.734   6.855   8.606  5.0433  0.0983 -0.2644
  522MOL0     H71978   6.704   7.015   8.675 -0.5087 -4.0090  1.4092
  522MOL0     H71979   6.830   6.947   8.410  0.9468  0.9599 -0.3299
  522MOL0     H71980   6.798   7.111   8.452 -0.0290 -0.1946  2.6522
  522MOL0     H71981   6.925   7.081   8.680  3.0032 -2.1427  1.4688
  522MOL0     H71982   7.024   7.087   8.540  0.1648 -1.0870  0.1445
  522MOL0     H71983   6.939   6.838   8.698 -0.1899  2.3595  1.0459
  522MOL0     H71984   6.979   6.827   8.523 -1.4369  0.5343 -0.8839
  522MOL0     H71985   7.260   6.849   8.485  1.4158  1.9058  0.9294
  522MOL0     H71986   7.480   7.018   8.519  2.0967  1.9961  1.9864
  522MOL0     H71987   7.523   6.859   8.574 -1.1212 -0.5762 -0.1822
  522MOL0     H71988   7.525   7.129   8.715  4.9920  2.2275  1.0534
  522MOL0     H71989   7.571   6.979   8.802 -2.0405 -0.4182  0.0105
  522MOL0     H71990   7.763   7.128   8.717  2.0484 -2.6935  2.4156
  522MOL0     H71991   7.764   6.958   8.684  0.2211 -0.2773  2.4042
  522MOL0     H71992   7.850   7.051   8.487  1.0018  0.1415  0.9636
  522MOL0     H71993   7.677   7.046   8.442 -0.2792  1.6808 -0.4179
  522MOL0     H71994   7.678   7.447   8.469 -1.4086 -2.8339  0.7138
  522MOL0     H71995   7.703   7.698   8.268 -0.2605  1.4554 -0.7746
  522MOL0     H71996   7.545   7.657   8.350  1.1429  1.5036  0.1797
  522MOL0     H71997   7.538   7.660   8.183 -0.0480 -0.0372 -0.1184
  522MOL0     H71998   7.401   7.393   7.742  0.6428 -2.6780 -0.2957
  522MOL0     H71999   7.354   7.478   7.532  0.2801  1.6209  1.4935
  522MOL0     H72000   7.644   7.757   7.303 -0.9943  0.4473  0.3709
  522MOL0     H72001   7.643   7.588   7.271  1.4339  1.1989 -1.7103
  522MOL0     H72002   7.398   7.738   7.158  0.3560  1.0244  0.1227
  522MOL0     H72003   7.557   7.738   7.076  2.0874  1.2779  3.3874
  522MOL0     H72004   7.435   7.490   7.196 -0.1944 -2.3459 -1.1313
  522MOL0     H72005   7.571   7.506   7.087  0.6346  0.9800  1.6598
  522MOL0     H72006   7.280   7.578   7.029 -1.7213  0.4165 -1.7193
  522MOL0     H72007   7.342   7.429   6.980 -0.5831  1.2240 -2.6527
  522MOL0     H72008   7.421   7.697   6.867  0.3938  0.1308  0.9055
  522MOL0     H72009   7.524   7.554   6.855 -0.3289 -1.0443  1.8286
  522MOL0     H72010   7.360   7.439   6.741 -0.2988 -0.7081  0.3947
  522MOL0     H72011   7.372   7.585   6.648 -0.2770  1.8409  1.2042
  522MOL0     H72012   7.167   7.661   6.819  0.3631  0.9851 -1.1852
  522MOL0     H72013   7.169   7.484   6.838  0.1735  1.4413  1.7437
  522MOL0     H72014   7.135   7.635   6.562  0.3335 -1.5662 -1.8701
  522MOL0     H72015   6.997   7.571   6.648 -1.0425 -0.2010  1.2932
  522MOL0     H72016   7.744   7.648   7.509  1.6213 -2.0526 -0.1348
  522MOL0     H72017   7.804   7.549   7.726 -0.8029  0.8945  0.3211
  522MOL0     H72018   7.742   7.253   8.028 -1.3086  2.8494 -1.8445
  522MOL0     H72019   7.778   7.136   8.234  0.4325  1.0270 -2.7702
  522MOL0     H72020   6.204   6.572   8.344  3.0691  1.4963  0.3340
  522MOL0     H72021   6.167   6.352   8.266 -0.6163 -1.0863  0.3055
  522MOL0     H72022   6.280   5.891   8.365  1.0795 -0.6515 -1.6477
  522MOL0     H72023   6.260   5.693   8.215  0.2925 -0.9550  3.0989
  522MOL0     H72024   6.012   5.774   7.959  1.0318 -0.2838 -1.0139
  522MOL0     H72025   6.069   5.624   7.894  0.0987  0.1290  0.1998
  522MOL0     H72026   5.808   5.610   8.027 -2.8785 -1.3098 -2.8258
  522MOL0     H72027   5.848   5.527   7.879 -1.5852 -0.7279  1.1245
  522MOL0     H72028   5.779   5.820   7.936 -0.6506 -1.3963  1.7750
  522MOL0     H72029   5.840   5.768   7.780  0.2704  1.6214  0.2606
  522MOL0     H72030   5.652   5.648   7.720 -2.2177  0.5419 -0.3994
  522MOL0     H72031   5.608   5.805   7.797 -0.0531 -0.6316 -2.3903
  522MOL0     H72032   5.452   5.531   8.078 -2.2738  4.2728  0.6497
  522MOL0     H72033   5.836   5.757   8.177  0.9975 -2.5557 -0.6620
  522MOL0     H72034   5.722   5.935   8.289 -1.2143  2.0530  0.9736
  522MOL0     H72035   5.776   5.923   8.452 -4.4476 -0.8134 -1.1035
  522MOL0     H72036   5.818   6.070   8.366  2.7143 -0.1899 -1.5481
  523MOL0     O72037   6.668   8.192   2.826  0.7864 -0.0158 -0.0207
  523MOL0     C72038   6.686   8.295   2.755  0.6649 -0.4468 -0.9216
  523MOL0     O72039   6.608   8.324   2.643  0.2523  0.1102  0.4466
  523MOL0     C72040   6.492   8.250   2.608 -0.2780 -0.1642  0.2994
  523MOL0     C72041   6.468   8.118   2.639  0.1079  0.6142  0.3239
  523MOL0     C72042   6.335   8.060   2.628  0.0802 -0.1055  0.0402
  523MOL0     C72043   6.236   8.141   2.579  0.3968 -0.1031  0.0423
  523MOL0     O72044   6.099   8.109   2.581  0.6875  0.9789  0.0265
  523MOL0     C72045   6.062   7.989   2.644  0.2102 -0.1302  0.8573
  523MOL0     C72046   5.918   7.962   2.658  0.4444 -0.3040 -0.5242
  523MOL0     C72047   5.896   7.823   2.736 -1.0184 -0.7542  0.0297
  523MOL0     C72048   5.757   7.801   2.790 -0.0058  0.0623  0.1641
  523MOL0     C72049   5.745   7.677   2.885  0.4312  0.8420 -0.5656
  523MOL0     C72050   5.759   7.698   3.041 -0.2996 -0.5489 -0.1741
  523MOL0     C72051   5.650   7.778   3.108  0.9762  0.3952 -0.7761
  523MOL0     C72052   5.639   7.727   3.250 -1.1917  0.6932 -0.2979
  523MOL0     N72053   5.551   7.801   3.336  0.0083 -0.0767 -0.7276
  523MOL0     C72054   5.524   7.775   3.471  0.5400  0.2257  0.9941
  523MOL0     C72055   5.488   7.891   3.524  0.1755  0.3982  0.1644
  523MOL0     C72056   5.439   7.910   3.660  0.0157  0.8750 -0.0088
  523MOL0     C72057   5.544   7.919   3.776 -0.1024  0.7218 -0.1954
  523MOL0     C72058   5.680   7.848   3.751  0.8162  0.6371  0.8672
  523MOL0     C72059   5.809   7.907   3.828  0.0707  0.9615  0.5756
  523MOL0     O72060   5.793   8.050   3.812 -0.5569 -0.7230 -0.6185
  523MOL0     C72061   5.862   8.128   3.900 -0.4199  0.3412 -0.0060
  523MOL0     C72062   5.810   8.222   3.981 -0.6011  0.2067 -0.5812
  523MOL0     C72063   5.890   8.287   4.087 -0.1496  0.1992 -0.3729
  523MOL0     C72064   5.827   8.409   4.161 -0.9447 -0.4142 -0.1102
  523MOL0     C72065   6.031   8.262   4.096  0.7693  0.1856  0.0814
  523MOL0     C72066   6.136   8.325   4.187 -0.6638  0.4921  0.0650
  523MOL0     O72067   6.094   8.436   4.258 -0.9317 -0.4835 -0.1848
  523MOL0     C72068   6.197   8.481   4.346  0.2218 -0.2848  0.0958
  523MOL0     C72069   6.319   8.528   4.301 -0.5772  0.5394  0.2244
  523MOL0     C72070   6.411   8.579   4.391 -0.4979  0.1768 -0.3605
  523MOL0     C72071   6.383   8.586   4.528  0.3646 -0.1583 -0.1318
  523MOL0     O72072   6.470   8.647   4.613 -0.4673 -0.7609  0.2966
  523MOL0     C72073   6.559   8.570   4.695  0.6091  0.2018  1.1832
  523MOL0     C72074   6.674   8.663   4.734  0.3148 -0.2585 -0.3119
  523MOL0     C72075   6.776   8.609   4.825  0.5847  0.6480 -0.3770
  523MOL0     C72076   6.727   8.599   4.976  0.1048  0.6449  0.1035
  523MOL0     C72077   6.862   8.598   5.066  0.3182 -0.0036  0.4046
  523MOL0     C72078   6.847   8.565   5.214  0.1927 -0.4750 -0.0870
  523MOL0     C72079   6.757   8.663   5.285  0.4405  0.9003 -0.5522
  523MOL0     C72080   6.752   8.619   5.435 -0.0348 -0.0845 -0.7310
  523MOL0    Cl72081   6.662   8.460   5.443  0.2815  0.1055  0.2003
  523MOL0     C72082   6.267   8.527   4.579  0.5647  0.7976 -0.2494
  523MOL0     C72083   6.171   8.493   4.488 -0.2988  0.0401  0.5994
  523MOL0     O72084   6.240   8.260   4.196  0.5905 -0.6252 -0.3170
  523MOL0     C72085   6.086   8.168   3.999  0.2082  0.6766 -0.5696
  523MOL0     C72086   6.005   8.110   3.901  0.3897  0.4538 -0.0436
  523MOL0     N72087   5.494   7.986   3.424 -0.2514  0.0708 -0.0503
  523MOL0     N72088   5.537   7.933   3.313  0.8297 -0.3544 -0.1420
  523MOL0     C72089   6.265   8.263   2.523 -0.6158 -0.0825 -0.3750
  523MOL0     C72090   6.398   8.312   2.526  0.0289 -0.1368  0.0669
  523MOL0     C72091   6.808   8.375   2.781 -0.0138  0.3039  0.3489
  523MOL0     C72092   6.851   8.462   2.679 -0.2753 -0.5562 -0.2285
  523MOL0     C72093   6.951   8.556   2.702  0.1863  0.7210  0.1461
  523MOL0     C72094   7.005   8.570   2.831 -0.7673 -1.0949  0.7305
  523MOL0     O72095   7.107   8.660   2.864  1.6337  0.6122 -0.0319
  523MOL0     C72096   7.159   8.748   2.772 -0.4767 -0.3690 -0.1958
  523MOL0     C72097   7.306   8.797   2.812 -0.4518  0.5976  0.3931
  523MOL0     C72098   7.343   8.924   2.734 -0.1864  0.8002  0.1589
  523MOL0     C72099   7.426   8.900   2.612 -1.1229  0.3195  0.0338
  523MOL0     C72100   7.474   9.023   2.550 -0.8695 -1.0437 -0.1807
  523MOL0     C72101   7.498   9.129   2.498  0.6013 -0.0245 -0.9520
  523MOL0     C72102   6.973   8.472   2.924  0.3746 -0.3009  1.1215
  523MOL0     C72103   6.884   8.372   2.898  0.8759  0.0909  0.3622
  523MOL0     C72104   6.852   8.289   3.022  0.1463  0.4366  0.5613
  523MOL0     H72105   6.545   8.051   2.675 -0.4229  0.3108  0.9151
  523MOL0     H72106   6.326   7.963   2.676  0.5431 -1.1516 -1.8887
  523MOL0     H72107   6.107   7.995   2.743  0.5591  0.6667  0.6550
  523MOL0     H72108   6.104   7.903   2.592  1.9378  0.5463  1.0662
  523MOL0     H72109   5.861   8.043   2.704 -2.8545 -2.3793 -0.5672
  523MOL0     H72110   5.877   7.957   2.557  0.9047 -1.5908 -0.6670
  523MOL0     H72111   5.906   7.742   2.662  0.6006 -0.6241  0.0623
  523MOL0     H72112   5.975   7.796   2.807  0.9272  0.5051 -1.5561
  523MOL0     H72113   5.732   7.883   2.858 -2.2186 -0.9864  0.7184
  523MOL0     H72114   5.694   7.781   2.703 -1.7028 -2.3459  1.8067
  523MOL0     H72115   5.808   7.599   2.842 -1.8819 -1.0695 -0.6623
  523MOL0     H72116   5.650   7.624   2.873  0.3989 -0.7328  4.3879
  523MOL0     H72117   5.771   7.593   3.068  1.8328 -0.7265 -1.5803
  523MOL0     H72118   5.856   7.745   3.057 -0.8568 -0.0179  1.9881
  523MOL0     H72119   5.559   7.750   3.056  0.7632 -2.6591  0.9802
  523MOL0     H72120   5.660   7.887   3.104  2.0999  0.6244  3.1334
  523MOL0     H72121   5.607   7.623   3.249 -0.1040  0.3054 -3.1180
  523MOL0     H72122   5.740   7.736   3.290 -0.4763 -2.1618 -1.2194
  523MOL0     H72123   5.529   7.676   3.516  0.0680 -0.0391  0.4704
  523MOL0     H72124   5.369   7.827   3.679 -0.5023  1.3413  0.1515
  523MOL0     H72125   5.378   8.001   3.658 -1.2083  0.3993  4.2118
  523MOL0     H72126   5.567   8.025   3.793 -0.7476  1.0194 -1.1088
  523MOL0     H72127   5.502   7.878   3.868  1.0113  3.9403  1.9676
  523MOL0     H72128   5.657   7.744   3.776  0.8471  0.6835  1.0889
  523MOL0     H72129   5.706   7.849   3.644 -3.1835 -2.5464 -0.3635
  523MOL0     H72130   5.795   7.880   3.933 -1.9127 -0.7670 -0.0443
  523MOL0     H72131   5.899   7.858   3.790 -0.3913 -0.3895  1.1643
  523MOL0     H72132   5.704   8.244   3.975 -0.4671  1.7253  1.6048
  523MOL0     H72133   5.718   8.415   4.158 -0.9710  0.6820  1.7567
  523MOL0     H72134   5.858   8.496   4.103  3.9095 -0.5550  1.7659
  523MOL0     H72135   5.866   8.419   4.263  1.2646 -1.3719 -0.7975
  523MOL0     H72136   6.325   8.528   4.193 -1.1033  0.5731  0.1960
  523MOL0     H72137   6.515   8.605   4.372 -0.4611 -1.0203 -2.0072
  523MOL0     H72138   6.510   8.536   4.786  4.0074 -1.8898  2.4326
  523MOL0     H72139   6.601   8.482   4.646 -1.8943 -0.7387  0.6021
  523MOL0     H72140   6.718   8.686   4.637 -1.6914  0.2390 -1.1586
  523MOL0     H72141   6.629   8.753   4.775 -2.5086 -0.6412 -2.2598
  523MOL0     H72142   6.860   8.678   4.809  2.5723 -1.3974  0.7235
  523MOL0     H72143   6.805   8.513   4.783 -0.0711  0.4168 -0.3100
  523MOL0     H72144   6.661   8.513   4.987  1.7088 -1.1646 -3.1286
  523MOL0     H72145   6.680   8.692   5.008 -2.4817 -0.6044  0.1210
  523MOL0     H72146   6.926   8.520   5.023 -0.9298  0.0856 -1.8020
  523MOL0     H72147   6.918   8.691   5.050  2.1431 -1.3984 -1.9899
  523MOL0     H72148   6.943   8.568   5.266  0.1472  0.1928 -0.0320
  523MOL0     H72149   6.801   8.467   5.230  0.3958 -0.7408 -1.0324
  523MOL0     H72150   6.654   8.665   5.248 -0.6010 -1.2542  1.9043
  523MOL0     H72151   6.786   8.768   5.283 -1.3069  1.4388 -3.2789
  523MOL0     H72152   6.707   8.698   5.495 -0.5692  0.4806 -1.8420
  523MOL0     H72153   6.850   8.611   5.484 -1.9729 -0.0762  3.5389
  523MOL0     H72154   6.236   8.527   4.683 -0.8422  4.6629 -0.4977
  523MOL0     H72155   6.076   8.453   4.521 -0.8021 -0.2925 -1.1321
  523MOL0     H72156   6.193   8.157   4.002  0.3141  1.6919 -0.3597
  523MOL0     H72157   6.033   8.032   3.832  1.6782  1.4439 -0.6785
  523MOL0     H72158   6.187   8.330   2.487 -0.6451 -0.3867 -0.8871
  523MOL0     H72159   6.415   8.410   2.483  0.5726  1.1960  3.0816
  523MOL0     H72160   6.812   8.458   2.578  3.0640 -1.9644 -1.5990
  523MOL0     H72161   6.975   8.625   2.621 -3.7062 -2.5995 -4.4161
  523MOL0     H72162   7.174   8.699   2.676  3.8657  2.4724 -1.2903
  523MOL0     H72163   7.095   8.832   2.747  0.9497  0.9292  0.3423
  523MOL0     H72164   7.378   8.714   2.810 -1.4772 -0.3174  0.6335
  523MOL0     H72165   7.288   8.835   2.914  0.1123 -1.8500  1.4672
  523MOL0     H72166   7.253   8.980   2.705 -1.6444 -2.3279 -1.8372
  523MOL0     H72167   7.415   8.978   2.797 -0.1384  2.8713 -1.5479
  523MOL0     H72168   7.387   8.840   2.529 -0.3629  1.3350 -1.0924
  523MOL0     H72169   7.512   8.842   2.645 -0.0445  1.9161  0.1200
  523MOL0     H72170   7.541   9.212   2.447 -1.4222  1.1765 -0.8123
  523MOL0     H72171   7.037   8.466   3.011 -0.4793  0.0714  1.7859
  523MOL0     H72172   6.818   8.186   3.014 -0.2945  0.6896 -4.7910
  523MOL0     H72173   6.946   8.291   3.078  1.1782 -0.2725 -1.0691
  523MOL0     H72174   6.771   8.348   3.065  0.2507 -0.3809  1.9105
  524MOL0     O72175   0.557  10.461   2.732  0.6260 -0.1093 -0.4344
  524MOL0     C72176   0.633  10.433   2.653  0.0519 -0.2728  0.5545
  524MOL0     O72177   0.764  10.429   2.669 -0.0921  0.3112  1.2103
  524MOL0     C72178   0.798  10.474   2.796  0.5315  0.1651 -0.0769
  524MOL0     C72179   0.824  10.613   2.816 -0.3808  0.2238 -0.5408
  524MOL0     C72180   0.871  10.645   2.942  0.9101 -1.3148 -0.8440
  524MOL0     C72181   0.868  10.560   3.056  0.3349 -0.8878  0.1168
  524MOL0     O72182   0.903  10.593   3.183 -0.3089  0.4811 -1.1082
  524MOL0     C72183   1.005  10.695   3.200  0.3776  0.8443  0.1659
  524MOL0     C72184   1.051  10.688   3.345  0.0108 -0.2243  0.1381
  524MOL0     C72185   1.114  10.555   3.391 -0.7009  0.8297 -0.0593
  524MOL0     C72186   1.242  10.532   3.295  0.6523  0.1419 -0.0859
  524MOL0     C72187   1.350  10.466   3.379 -0.2324  0.0937  0.3401
  524MOL0     C72188   1.472  10.431   3.305  0.3074  0.1904  0.0892
  524MOL0     C72189   1.553  10.538   3.242  0.1588  0.3592  0.5343
  524MOL0     C72190   1.668  10.483   3.164  0.3132 -0.0028 -0.3783
  524MOL0     N72191   1.761  10.398   3.243 -0.0437  0.0608 -0.1355
  524MOL0     C72192   1.869  10.438   3.311 -0.9068  0.4402 -0.0951
  524MOL0     C72193   1.942  10.331   3.330 -0.6199  0.2115  0.6606
  524MOL0     C72194   2.085  10.310   3.389  0.0087 -0.2114  0.0912
  524MOL0     C72195   2.110  10.393   3.519 -0.1736 -0.0256 -0.1185
  524MOL0     C72196   2.257  10.402   3.559  0.0160 -0.4850 -0.1395
  524MOL0     C72197   2.285  10.505   3.667  0.6656  0.9018  0.4541
  524MOL0     O72198   2.234  10.451   3.792 -0.3819  0.1126  0.2816
  524MOL0     C72199   2.210  10.546   3.883 -0.0802 -0.4820  0.5826
  524MOL0     C72200   2.105  10.523   3.970  0.1497 -0.3270  0.7187
  524MOL0     C72201   2.054  10.627   4.052  0.6395  0.7893 -0.4062
  524MOL0     C72202   1.925  10.601   4.117  0.7279 -0.2555  1.1405
  524MOL0     C72203   2.123  10.749   4.061 -0.9433  0.1896  0.7937
  524MOL0     C72204   2.083  10.863   4.155  0.0789  0.6937 -0.5281
  524MOL0     O72205   1.954  10.861   4.223  0.6624 -0.4968  0.9552
  524MOL0     C72206   1.900  10.974   4.265  0.1083 -0.0298  0.0781
  524MOL0     C72207   1.848  10.988   4.396  0.9355  0.0198  0.8122
  524MOL0     C72208   1.778  11.103   4.434  0.8058 -0.0422  0.2749
  524MOL0     C72209   1.740  11.203   4.349 -0.5456 -0.3886 -1.1389
  524MOL0     O72210   1.648  11.298   4.397  0.0274 -0.4377 -0.0320
  524MOL0     C72211   1.679  11.433   4.373 -0.0223 -0.4368 -0.0106
  524MOL0     C72212   1.809  11.486   4.456  0.2778  1.2682 -0.4441
  524MOL0     C72213   1.871  11.616   4.407  0.1747  0.3648  1.0388
  524MOL0     C72214   2.013  11.623   4.466 -0.2483 -0.0364 -0.8941
  524MOL0     C72215   2.070  11.766   4.472 -0.2275 -0.5269 -0.3653
  524MOL0     C72216   2.227  11.740   4.490  0.2966  0.4513  0.8252
  524MOL0     C72217   2.297  11.735   4.627 -0.1972 -0.2662 -0.8234
  524MOL0     C72218   2.448  11.747   4.603 -0.7004  0.7137  0.6246
  524MOL0    Cl72219   2.519  11.605   4.506 -0.5534 -0.0969  0.2169
  524MOL0     C72220   1.796  11.198   4.221 -0.6348  0.3519 -0.3949
  524MOL0     C72221   1.864  11.079   4.178  0.2277 -0.3601 -0.2812
  524MOL0     O72222   2.154  10.964   4.160  0.1904  0.7170 -0.1761
  524MOL0     C72223   2.250  10.755   3.996  0.0249  0.2080  0.6666
  524MOL0     C72224   2.292  10.661   3.896  0.0160  0.1844 -0.2704
  524MOL0     N72225   1.889  10.233   3.248  0.1013 -0.8487 -0.4094
  524MOL0     N72226   1.777  10.275   3.202 -0.6938 -0.9478 -0.1671
  524MOL0     C72227   0.822  10.431   3.034 -0.0529 -1.3756  0.7143
  524MOL0     C72228   0.796  10.387   2.904 -0.3100 -0.3184 -0.4821
  524MOL0     C72229   0.586  10.387   2.531  0.1906 -0.2480 -1.1158
  524MOL0     C72230   0.641  10.448   2.426  0.4078 -0.3966  0.4306
  524MOL0     C72231   0.605  10.412   2.297 -0.1051 -0.2092  0.1414
  524MOL0     C72232   0.498  10.314   2.281  0.4021 -0.6180 -0.1549
  524MOL0     O72233   0.444  10.270   2.161  0.6402 -0.0534  0.3034
  524MOL0     C72234   0.479  10.331   2.036  0.1050  0.4367  0.2891
  524MOL0     C72235   0.418  10.459   1.998  0.8454 -0.9367  0.7039
  524MOL0     C72236   0.270  10.427   1.979 -0.0825 -0.4621  0.0600
  524MOL0     C72237   0.177  10.546   2.013 -0.5601 -0.4865  0.1882
  524MOL0     C72238   0.228  10.665   1.945  0.3280  0.3298 -0.0969
  524MOL0     C72239   0.275  10.755   1.879  0.0735 -0.5363 -0.4457
  524MOL0     C72240   0.447  10.245   2.394 -0.0336 -0.4088  0.1724
  524MOL0     C72241   0.489  10.284   2.524 -0.0562  0.4837  0.2248
  524MOL0     C72242   0.414  10.219   2.645 -1.2614 -0.5437  0.1866
  524MOL0     H72243   0.831  10.677   2.729 -2.0989  0.5179 -0.4998
  524MOL0     H72244   0.900  10.749   2.954 -2.0304 -0.2919 -1.9093
  524MOL0     H72245   0.961  10.793   3.180 -2.1823 -0.7671 -2.8280
  524MOL0     H72246   1.094  10.680   3.138  1.7047  0.9389  1.9384
  524MOL0     H72247   1.120  10.766   3.375  0.2877 -0.0940 -0.7951
  524MOL0     H72248   0.957  10.702   3.400 -0.5514  0.4461 -0.9615
  524MOL0     H72249   1.144  10.561   3.496 -1.5261 -0.0936  0.2461
  524MOL0     H72250   1.039  10.476   3.380  0.5418 -0.3413 -0.4734
  524MOL0     H72251   1.211  10.457   3.222 -2.1032 -1.3539  2.4049
  524MOL0     H72252   1.267  10.621   3.237  1.8796 -0.8563 -1.1530
  524MOL0     H72253   1.303  10.374   3.414  0.7007 -0.8027 -0.6498
  524MOL0     H72254   1.380  10.530   3.462 -3.3158  1.7143  0.3189
  524MOL0     H72255   1.536  10.377   3.375  1.1555  1.8981  0.6837
  524MOL0     H72256   1.440  10.353   3.235  2.1536  0.5616 -1.2338
  524MOL0     H72257   1.588  10.603   3.323 -2.2174 -0.2259  2.1389
  524MOL0     H72258   1.497  10.580   3.158  5.3634  0.3834 -3.5021
  524MOL0     H72259   1.627  10.416   3.088  0.0863 -2.1020  1.4777
  524MOL0     H72260   1.722  10.567   3.121 -2.5328  3.2956  1.8669
  524MOL0     H72261   1.896  10.538   3.343  0.0385 -0.2932  1.5345
  524MOL0     H72262   2.163  10.343   3.320 -1.6391 -0.1903 -1.8708
  524MOL0     H72263   2.096  10.204   3.412 -0.1142 -0.2606 -0.0730
  524MOL0     H72264   2.080  10.497   3.503 -0.8088  0.3160  2.7162
  524MOL0     H72265   2.048  10.353   3.600  1.9966 -0.0229  1.6512
  524MOL0     H72266   2.288  10.300   3.584 -1.9711 -0.9086  0.7598
  524MOL0     H72267   2.310  10.436   3.470  1.4624  2.1898  1.5940
  524MOL0     H72268   2.393  10.520   3.663  1.2232 -2.4407 -4.3184
  524MOL0     H72269   2.227  10.597   3.653  0.2622  0.5869  0.0279
  524MOL0     H72270   2.047  10.431   3.962 -0.0111 -0.1459 -0.3462
  524MOL0     H72271   1.918  10.609   4.226 -4.4529 -1.4585  1.1621
  524MOL0     H72272   1.881  10.502   4.101 -3.1706  1.0581  2.4796
  524MOL0     H72273   1.838  10.659   4.084 -0.5139 -1.9045  1.3940
  524MOL0     H72274   1.859  10.901   4.460 -0.1889 -1.3205 -0.7280
  524MOL0     H72275   1.722  11.097   4.526 -0.5486 -0.6335 -0.5617
  524MOL0     H72276   1.701  11.459   4.269 -0.8132  1.3073  0.2227
  524MOL0     H72277   1.592  11.491   4.406 -0.2185 -0.9759  0.4273
  524MOL0     H72278   1.778  11.489   4.561  1.8104  2.8384  0.0155
  524MOL0     H72279   1.894  11.418   4.445 -1.0080 -0.3295 -0.9516
  524MOL0     H72280   1.817  11.701   4.449  1.0632  1.4110  0.1343
  524MOL0     H72281   1.867  11.613   4.298 -5.7107 -3.5569  0.8952
  524MOL0     H72282   2.068  11.556   4.399 -2.2004 -0.5954 -1.9838
  524MOL0     H72283   2.015  11.586   4.569  4.6844 -0.3326 -0.8247
  524MOL0     H72284   2.058  11.813   4.374 -2.2041 -1.7151 -0.7568
  524MOL0     H72285   2.020  11.829   4.546  3.4084 -0.2101  2.0477
  524MOL0     H72286   2.276  11.823   4.438  3.1768 -1.4223  0.3073
  524MOL0     H72287   2.234  11.644   4.438 -2.7626 -1.3193  3.3238
  524MOL0     H72288   2.277  11.638   4.674  0.7927 -0.4103 -0.6713
  524MOL0     H72289   2.262  11.815   4.692 -2.2707 -0.5636 -1.5129
  524MOL0     H72290   2.500  11.753   4.699 -2.9442 -1.3085  2.1058
  524MOL0     H72291   2.460  11.843   4.554  1.3464  0.3945  0.4327
  524MOL0     H72292   1.773  11.283   4.158 -0.6005 -1.0262 -2.3405
  524MOL0     H72293   1.896  11.060   4.076  0.4752 -0.6230 -0.1536
  524MOL0     H72294   2.307  10.847   4.003  3.6428 -1.5885 -1.8122
  524MOL0     H72295   2.385  10.676   3.843 -0.1902  3.9075  0.1695
  524MOL0     H72296   0.822  10.354   3.111  1.9263 -1.6816  0.4723
  524MOL0     H72297   0.757  10.286   2.901  3.1908 -1.9157  1.3271
  524MOL0     H72298   0.721  10.517   2.450  1.2271 -1.3879  0.6189
  524MOL0     H72299   0.645  10.451   2.205 -1.5773  2.6651  0.6121
  524MOL0     H72300   0.584  10.362   2.030 -0.3028  2.0389  0.8734
  524MOL0     H72301   0.460  10.262   1.953 -1.0402  1.7748 -0.6099
  524MOL0     H72302   0.453  10.507   1.906  1.1887  0.5600  1.5875
  524MOL0     H72303   0.446  10.528   2.078  1.2447 -1.6618  1.2021
  524MOL0     H72304   0.260  10.406   1.872 -2.2647  1.5678 -0.2025
  524MOL0     H72305   0.231  10.347   2.043  0.1697 -1.5378 -1.0798
  524MOL0     H72306   0.187  10.563   2.121  1.1582  2.0484 -0.2868
  524MOL0     H72307   0.075  10.527   1.978 -0.5211 -3.2241  1.2585
  524MOL0     H72308   0.301  10.839   1.819 -1.0118  0.2164  0.1052
  524MOL0     H72309   0.369  10.173   2.372  2.2437 -2.2641 -2.4574
  524MOL0     H72310   0.363  10.124   2.627 -1.8295 -0.3437  0.7193
  524MOL0     H72311   0.494  10.204   2.718 -2.7748 -0.2504  1.9676
  524MOL0     H72312   0.341  10.285   2.693 -0.6249  1.5184 -1.5484
  525MOL0     O72313  10.375   2.728   5.818  0.0490  0.3399 -0.0400
  525MOL0     C72314  10.471   2.781   5.864 -1.0701  0.6995  0.2951
  525MOL0     O72315  10.594   2.742   5.826 -0.1233 -0.9526  0.0765
  525MOL0     C72316  10.622   2.652   5.725 -0.0442  0.3692  0.0556
  525MOL0     C72317  10.591   2.682   5.597 -0.0869 -0.0836 -0.2530
  525MOL0     C72318  10.609   2.589   5.492  0.3577 -0.8569 -0.7315
  525MOL0     C72319  10.691   2.483   5.511  0.4399  0.8397 -0.3940
  525MOL0     O72320  10.725   2.391   5.406  0.2705 -0.0976  0.3596
  525MOL0     C72321  10.835   2.309   5.429 -0.5985  0.5746  0.0754
  525MOL0     C72322  10.888   2.266   5.288  0.3896  0.2643  0.1106
  525MOL0     C72323  10.809   2.162   5.211 -0.2517  1.0589 -0.3496
  525MOL0     C72324  10.820   2.020   5.275 -0.0799 -1.3930 -0.4474
  525MOL0     C72325  10.743   1.920   5.182 -0.3152  0.0195  0.4524
  525MOL0     C72326  10.787   1.770   5.184  1.0685 -0.2685  0.4408
  525MOL0     C72327  10.705   1.683   5.087 -0.3082 -0.5879 -0.0687
  525MOL0     C72328  10.692   1.726   4.944 -0.0441 -0.0594 -0.3258
  525MOL0     N72329  10.823   1.727   4.876  0.0040  0.2155  0.5805
  525MOL0     C72330  10.932   1.806   4.902  0.4817  0.2840  0.3374
  525MOL0     C72331  11.026   1.775   4.804 -0.9229  0.3992 -0.4005
  525MOL0     C72332  11.168   1.828   4.785  1.4261 -0.4939  0.8257
  525MOL0     C72333  11.244   1.842   4.912  0.8822 -0.1591  0.2140
  525MOL0     C72334  11.393   1.854   4.892 -0.5447 -0.1170  0.5933
  525MOL0     C72335  11.455   1.723   4.849  0.2267  0.5627 -0.5134
  525MOL0     O72336  11.426   1.593   4.917 -0.0846  0.8898  0.0237
  525MOL0     C72337  11.472   1.571   5.049  0.8279  0.4833 -0.5790
  525MOL0     C72338  11.407   1.464   5.120 -0.3246 -0.4569  0.0681
  525MOL0     C72339  11.468   1.431   5.240 -0.6314  1.1789  0.5600
  525MOL0     C72340  11.398   1.323   5.325  0.1978  0.1056 -0.1573
  525MOL0     C72341  11.589   1.487   5.297 -0.0013  0.3103 -0.0334
  525MOL0     C72342  11.653   1.434   5.426  0.5109 -0.2116  0.3261
  525MOL0     O72343  11.717   1.536   5.490 -0.4050  0.2060 -0.2168
  525MOL0     C72344  11.822   1.508   5.570 -0.3729  0.3665  0.1118
  525MOL0     C72345  11.826   1.534   5.703 -0.2584 -0.4360 -0.5035
  525MOL0     C72346  11.936   1.503   5.783  0.9365  0.3160 -0.2116
  525MOL0     C72347  12.045   1.452   5.719 -0.6598  0.5169  0.2086
  525MOL0     O72348  12.148   1.412   5.807 -0.2034 -0.0081  0.2199
  525MOL0     C72349  12.281   1.413   5.744  0.5514 -0.1040 -0.8191
  525MOL0     C72350  12.393   1.444   5.841  0.2312  1.7587  0.7096
  525MOL0     C72351  12.390   1.344   5.951  0.8952 -0.7925 -0.3577
  525MOL0     C72352  12.517   1.377   6.042  0.4106  0.1766  0.3015
  525MOL0     C72353  12.530   1.277   6.151 -0.5959  0.0510 -0.8944
  525MOL0     C72354  12.424   1.283   6.265  0.1261 -0.1203 -0.9576
  525MOL0     C72355  12.489   1.261   6.397  0.5513  0.3227  0.1414
  525MOL0     C72356  12.390   1.257   6.517 -0.1042  0.4555  0.6925
  525MOL0    Cl72357  12.301   1.413   6.542  0.0840 -0.0173  0.8596
  525MOL0     C72358  12.041   1.408   5.590  1.1048  0.3832  0.2314
  525MOL0     C72359  11.931   1.440   5.513  0.0190 -0.9512 -0.1886
  525MOL0     O72360  11.667   1.312   5.443 -0.3285 -0.1166 -0.7439
  525MOL0     C72361  11.629   1.608   5.235  0.7793  0.7419  1.1864
  525MOL0     C72362  11.575   1.642   5.110 -1.8335  0.0386 -0.3790
  525MOL0     N72363  10.964   1.678   4.724  0.0719  0.1226 -0.4940
  525MOL0     N72364  10.845   1.650   4.773 -0.5685  0.5939  0.4399
  525MOL0     C72365  10.722   2.453   5.647 -0.7468  0.2890  0.1231
  525MOL0     C72366  10.686   2.538   5.754  0.2677 -0.3924 -1.0487
  525MOL0     C72367  10.446   2.876   5.978 -0.4810  1.1750 -0.1523
  525MOL0     C72368  10.380   2.992   5.950 -0.2417 -1.0061 -0.3728
  525MOL0     C72369  10.397   3.106   6.026 -0.5645 -0.2597 -0.9084
  525MOL0     C72370  10.466   3.089   6.150 -0.2675 -0.7022 -1.0258
  525MOL0     O72371  10.490   3.194   6.234 -0.8306 -0.3905  0.4281
  525MOL0     C72372  10.389   3.211   6.328 -0.4169 -0.1665  0.2013
  525MOL0     C72373  10.436   3.300   6.441  0.7201 -0.6242  1.1853
  525MOL0     C72374  10.311   3.355   6.520 -0.1957  0.3026 -0.4504
  525MOL0     C72375  10.353   3.483   6.597  0.6404  0.4758 -0.0911
  525MOL0     C72376  10.460   3.474   6.697  0.5830 -0.1686  0.3191
  525MOL0     C72377  10.520   3.465   6.804 -0.2027  0.2618 -0.2994
  525MOL0     C72378  10.507   2.964   6.190  0.1638 -0.5776  0.1721
  525MOL0     C72379  10.502   2.853   6.104  0.4757 -0.3210  0.9757
  525MOL0     C72380  10.555   2.720   6.149 -0.2866  0.1536  0.1708
  525MOL0     H72381  10.530   2.771   5.583 -0.0295  0.1218  0.7656
  525MOL0     H72382  10.571   2.599   5.390 -1.8989  2.0082  0.2530
  525MOL0     H72383  10.817   2.222   5.493  1.4725 -0.4619 -0.6258
  525MOL0     H72384  10.922   2.357   5.475 -0.7810  1.2957 -0.3084
  525MOL0     H72385  10.896   2.357   5.228  0.4808  0.0301 -0.2355
  525MOL0     H72386  10.995   2.246   5.296  0.1906 -0.2259  1.9378
  525MOL0     H72387  10.703   2.190   5.202 -1.7955 -3.7555 -0.1482
  525MOL0     H72388  10.848   2.154   5.109  0.7967 -2.0808  0.1857
  525MOL0     H72389  10.924   1.986   5.280 -0.0999 -1.3484  2.8389
  525MOL0     H72390  10.775   2.027   5.375 -0.9139  1.7097 -0.9338
  525MOL0     H72391  10.765   1.956   5.081 -1.3929  0.5585  0.3904
  525MOL0     H72392  10.635   1.925   5.198 -0.4507 -2.0965  0.4269
  525MOL0     H72393  10.891   1.762   5.150  1.5596 -2.1755  2.1921
  525MOL0     H72394  10.785   1.731   5.286  1.5543  0.3219  0.6791
  525MOL0     H72395  10.602   1.672   5.121 -1.3382  2.9043 -1.5454
  525MOL0     H72396  10.747   1.583   5.075 -0.2100 -0.2979 -2.8882
  525MOL0     H72397  10.618   1.662   4.896  1.4073 -0.5080 -2.0298
  525MOL0     H72398  10.640   1.823   4.941 -0.9745 -0.3055  3.2042
  525MOL0     H72399  10.940   1.887   4.975 -1.2427  0.4268  0.4016
  525MOL0     H72400  11.149   1.914   4.721 -1.7638 -0.7122  1.3012
  525MOL0     H72401  11.211   1.755   4.715 -0.8551 -0.8054 -0.3524
  525MOL0     H72402  11.211   1.936   4.957  1.9702  0.3508 -0.0382
  525MOL0     H72403  11.217   1.755   4.973 -2.8928 -0.8445 -2.0459
  525MOL0     H72404  11.428   1.944   4.841  1.0680  0.6976  2.9330
  525MOL0     H72405  11.433   1.871   4.993  1.5680 -1.9323  0.1636
  525MOL0     H72406  11.419   1.711   4.746 -3.4284  2.2182  0.4352
  525MOL0     H72407  11.564   1.732   4.840  0.0735  0.9701 -2.5298
  525MOL0     H72408  11.327   1.412   5.070 -0.1913 -0.4657 -0.1367
  525MOL0     H72409  11.464   1.236   5.335 -0.1062 -0.0303  0.7452
  525MOL0     H72410  11.303   1.294   5.279  0.9224 -0.9923 -1.0212
  525MOL0     H72411  11.384   1.348   5.430  3.5903  1.0253  0.2024
  525MOL0     H72412  11.744   1.593   5.743  2.0261  2.6873 -0.0860
  525MOL0     H72413  11.932   1.517   5.890  0.4043 -0.1990 -0.1609
  525MOL0     H72414  12.302   1.319   5.692 -1.0108 -2.1174  1.9370
  525MOL0     H72415  12.287   1.480   5.658  0.4846  0.4473 -0.3998
  525MOL0     H72416  12.492   1.450   5.796 -0.4142  3.4810 -0.6153
  525MOL0     H72417  12.391   1.543   5.888  1.3083  2.1706 -0.0770
  525MOL0     H72418  12.377   1.239   5.923 -1.4748 -1.2162  1.9815
  525MOL0     H72419  12.297   1.367   6.004  0.7056  0.1850 -1.0667
  525MOL0     H72420  12.512   1.478   6.084  2.1163  0.1464  0.6530
  525MOL0     H72421  12.608   1.372   5.981  1.0530 -0.8233  1.2952
  525MOL0     H72422  12.520   1.179   6.103  2.8673 -0.3198 -1.1345
  525MOL0     H72423  12.630   1.277   6.196 -1.4314 -1.3633  1.0935
  525MOL0     H72424  12.346   1.213   6.236 -0.6839  2.0737 -4.7260
  525MOL0     H72425  12.378   1.381   6.279  0.6949  0.2628 -1.7316
  525MOL0     H72426  12.563   1.340   6.405  1.7101 -0.7859  0.7610
  525MOL0     H72427  12.536   1.162   6.402 -3.1426 -1.6008  0.3251
  525MOL0     H72428  12.439   1.210   6.603  0.8384 -1.4355 -0.8290
  525MOL0     H72429  12.310   1.186   6.494  0.3718  0.5424 -1.3420
  525MOL0     H72430  12.123   1.355   5.544 -0.2088  0.7059 -2.7011
  525MOL0     H72431  11.922   1.427   5.405  2.4060  3.9223 -1.2486
  525MOL0     H72432  11.708   1.663   5.284  0.4126 -0.0251  2.6945
  525MOL0     H72433  11.614   1.735   5.071 -2.7321  1.4439  1.8368
  525MOL0     H72434  10.763   2.356   5.673 -0.1502  0.6452  0.5549
  525MOL0     H72435  10.707   2.513   5.857 -2.8937 -0.8924 -0.4319
  525MOL0     H72436  10.328   3.006   5.856 -1.6436 -0.7917  0.4050
  525MOL0     H72437  10.344   3.198   6.005 -1.7117 -1.1559 -2.1437
  525MOL0     H72438  10.298   3.255   6.286  0.5514  1.3699 -0.3731
  525MOL0     H72439  10.362   3.113   6.370 -0.8395 -0.6527 -1.1607
  525MOL0     H72440  10.495   3.380   6.393  0.7333 -1.3269  0.0033
  525MOL0     H72441  10.504   3.248   6.509 -0.5979 -0.8805  2.3259
  525MOL0     H72442  10.222   3.377   6.461 -1.8943 -2.0942  1.0331
  525MOL0     H72443  10.275   3.275   6.585 -2.1010  0.4769 -1.2257
  525MOL0     H72444  10.278   3.518   6.669  1.4694 -0.3231  1.1990
  525MOL0     H72445  10.376   3.565   6.529  0.5207  1.4864  1.0571
  525MOL0     H72446  10.567   3.443   6.898  2.1012  6.0511  0.2886
  525MOL0     H72447  10.551   2.954   6.289  2.4642 -2.3488 -0.9421
  525MOL0     H72448  10.582   2.734   6.254  1.4886  0.4798 -0.3068
  525MOL0     H72449  10.484   2.639   6.127  0.7511 -0.6615 -0.2764
  525MOL0     H72450  10.654   2.697   6.110  0.6132  2.5702  0.8562
  526MOL0     O72451   8.303   3.284   7.709  0.0187 -0.1932 -0.0251
  526MOL0     C72452   8.208   3.216   7.689  0.7083  0.2227 -0.0366
  526MOL0     O72453   8.104   3.205   7.778 -0.5007 -0.0504 -0.2961
  526MOL0     C72454   8.136   3.206   7.916 -1.1966 -0.0809  0.6892
  526MOL0     C72455   8.181   3.093   7.988 -0.2354  0.1785 -0.3403
  526MOL0     C72456   8.218   3.105   8.122  0.3360 -0.0490 -0.5284
  526MOL0     C72457   8.176   3.221   8.197  0.2219  1.1818  0.2751
  526MOL0     O72458   8.188   3.235   8.335  0.1947  1.0328 -0.3449
  526MOL0     C72459   8.120   3.138   8.417  0.7702 -0.4895 -0.3063
  526MOL0     C72460   8.153   3.160   8.566  0.5509  0.6828  0.3202
  526MOL0     C72461   8.065   3.257   8.646  0.2909 -1.1413 -0.0535
  526MOL0     C72462   8.105   3.399   8.608 -0.6383  0.8453  0.1690
  526MOL0     C72463   8.013   3.523   8.648 -0.1125 -0.0838  0.2385
  526MOL0     C72464   7.965   3.504   8.785  0.4223 -0.7228  0.3204
  526MOL0     C72465   8.082   3.524   8.891  0.1456 -0.0447 -0.4473
  526MOL0     C72466   8.100   3.677   8.907 -0.4905 -0.2831 -0.2914
  526MOL0     N72467   8.103   3.718   9.052 -0.4522 -0.1411 -0.5130
  526MOL0     C72468   8.216   3.695   9.122 -1.1714  0.0552 -0.2401
  526MOL0     C72469   8.174   3.710   9.253  0.9377 -0.3141 -0.0312
  526MOL0     C72470   8.260   3.718   9.377  0.1274  0.7495  0.9982
  526MOL0     C72471   8.245   3.869   9.443  0.0677  0.9019 -0.2296
  526MOL0     C72472   8.274   3.870   9.592  0.3239 -0.1712 -0.3154
  526MOL0     C72473   8.420   3.825   9.612  0.3273 -0.0197 -0.3954
  526MOL0     O72474   8.500   3.889   9.515 -0.3617  0.1095 -0.1364
  526MOL0     C72475   8.630   3.851   9.493  0.3767  0.5948  0.0902
  526MOL0     C72476   8.706   3.885   9.377 -0.4651 -0.8080  0.2311
  526MOL0     C72477   8.839   3.821   9.359 -0.0623  0.2809 -0.5530
  526MOL0     C72478   8.906   3.866   9.234  0.2755 -0.3720 -0.8251
  526MOL0     C72479   8.898   3.744   9.456  0.5977  0.5657 -0.6865
  526MOL0     C72480   9.036   3.687   9.441 -0.3994  1.0699 -0.1005
  526MOL0     O72481   9.045   3.546   9.475 -0.4917 -0.2350  0.3844
  526MOL0     C72482   9.165   3.479   9.479  0.8685 -0.5017 -0.0324
  526MOL0     C72483   9.143   3.353   9.475 -0.9930  1.1429 -0.1139
  526MOL0     C72484   9.247   3.261   9.511 -0.8669  0.5771 -0.2690
  526MOL0     C72485   9.378   3.312   9.539  0.4889  0.0128  0.2177
  526MOL0     O72486   9.481   3.246   9.579 -0.2302  0.0459 -0.5616
  526MOL0     C72487   9.489   3.104   9.539 -0.3489 -0.1142 -1.1430
  526MOL0     C72488   9.635   3.051   9.546  0.2490 -0.3997 -0.9606
  526MOL0     C72489   9.667   3.032   9.691  0.6883 -0.4254 -0.3233
  526MOL0     C72490   9.809   2.968   9.705 -0.0423  0.8707 -0.8801
  526MOL0     C72491   9.842   2.957   9.856  0.6160  0.4300 -0.5210
  526MOL0     C72492   9.996   2.957   9.877 -0.1864  0.4159  0.5192
  526MOL0     C72493  10.028   2.965  10.018 -0.8780 -0.5708 -0.4246
  526MOL0     C72494  10.144   2.872  10.060 -0.5636 -1.2112  0.3183
  526MOL0    Cl72495  10.301   2.923   9.985  0.2346  0.0864 -0.1028
  526MOL0     C72496   9.395   3.447   9.541 -0.2194  0.3428  0.3322
  526MOL0     C72497   9.289   3.525   9.517  0.6729 -1.0589  0.1604
  526MOL0     O72498   9.133   3.760   9.423  0.2541  0.2997  0.7908
  526MOL0     C72499   8.824   3.720   9.578  0.0361  0.3705  0.2904
  526MOL0     C72500   8.694   3.773   9.592 -0.0993 -0.1848 -0.4594
  526MOL0     N72501   8.031   3.744   9.257  0.3573  0.2797  0.2233
  526MOL0     N72502   7.994   3.746   9.130  0.0295 -0.5757  0.5980
  526MOL0     C72503   8.128   3.331   8.127 -0.2314 -0.0190  0.8923
  526MOL0     C72504   8.102   3.322   7.989 -0.1539 -0.1970  0.4584
  526MOL0     C72505   8.183   3.152   7.563  0.0382 -0.2406 -0.3798
  526MOL0     C72506   8.050   3.107   7.544 -0.7166  0.0558  0.3268
  526MOL0     C72507   8.021   3.030   7.435 -0.1820  0.5521  0.6871
  526MOL0     C72508   8.115   2.992   7.347  0.8983 -0.8865 -0.0672
  526MOL0     O72509   8.074   2.912   7.239 -0.1479 -0.4280  0.5710
  526MOL0     C72510   8.158   2.856   7.144 -0.1795  0.3819 -0.1709
  526MOL0     C72511   8.075   2.777   7.045 -1.2143 -0.0062 -0.7483
  526MOL0     C72512   7.993   2.877   6.963  0.3813  1.0293  0.5539
  526MOL0     C72513   7.911   2.794   6.857 -0.0167 -0.3218 -0.1368
  526MOL0     C72514   8.002   2.724   6.758 -0.5057 -0.2714  0.2484
  526MOL0     C72515   8.056   2.656   6.674  0.3161  0.8059  0.5619
  526MOL0     C72516   8.247   3.041   7.370  0.1199 -0.4187 -0.0505
  526MOL0     C72517   8.286   3.127   7.471 -0.0917 -0.0819  0.1147
  526MOL0     C72518   8.427   3.163   7.488 -0.3548  0.4931  0.3152
  526MOL0     H72519   8.208   2.996   7.948 -0.6501  0.3250 -0.9981
  526MOL0     H72520   8.265   3.021   8.173 -0.0382 -0.6927 -1.2417
  526MOL0     H72521   8.171   3.042   8.403 -0.7397 -1.4542  0.4498
  526MOL0     H72522   8.016   3.122   8.389  0.6475  0.6197 -0.5250
  526MOL0     H72523   8.138   3.064   8.616 -0.0586 -0.8168 -2.5356
  526MOL0     H72524   8.261   3.177   8.575  0.8100 -1.4412  2.2595
  526MOL0     H72525   7.961   3.233   8.627 -0.9639 -1.6459  5.6851
  526MOL0     H72526   8.074   3.241   8.754  0.9728 -1.9728 -0.2258
  526MOL0     H72527   8.203   3.415   8.656 -0.2993  1.1857 -0.6194
  526MOL0     H72528   8.123   3.408   8.501 -2.6245  0.0806 -0.2602
  526MOL0     H72529   7.929   3.527   8.578 -1.2854  1.3797  1.6807
  526MOL0     H72530   8.080   3.607   8.628 -0.6025 -0.3478 -3.1492
  526MOL0     H72531   7.882   3.571   8.808  2.1861  0.5749  3.6504
  526MOL0     H72532   7.911   3.410   8.802 -2.6371 -0.0563 -4.0829
  526MOL0     H72533   8.174   3.470   8.865 -0.2553  0.0074 -2.0705
  526MOL0     H72534   8.046   3.471   8.980 -0.2944 -1.1343 -1.2515
  526MOL0     H72535   8.192   3.716   8.862  1.4302 -1.4128  2.3680
  526MOL0     H72536   8.017   3.732   8.861 -0.0694  0.8578  0.2930
  526MOL0     H72537   8.321   3.678   9.100 -0.5531  2.3219  0.6436
  526MOL0     H72538   8.366   3.701   9.360  0.0707  0.0751  1.2570
  526MOL0     H72539   8.221   3.641   9.445  1.0687 -2.3460 -1.7139
  526MOL0     H72540   8.305   3.951   9.403  4.6915 -2.0965 -0.2371
  526MOL0     H72541   8.139   3.895   9.430 -1.0027 -3.4101 -1.9515
  526MOL0     H72542   8.251   3.963   9.645  0.5209  0.1182 -0.7295
  526MOL0     H72543   8.213   3.793   9.640 -0.7632 -0.5277 -2.1713
  526MOL0     H72544   8.463   3.851   9.709 -0.5274  2.4786 -0.6183
  526MOL0     H72545   8.421   3.716   9.612  0.8108 -0.0188 -0.7284
  526MOL0     H72546   8.661   3.960   9.313  2.5814  0.2561 -0.8387
  526MOL0     H72547   8.966   3.956   9.254 -1.7275  0.7133  0.6627
  526MOL0     H72548   8.829   3.898   9.164  0.1610  3.4500  0.7715
  526MOL0     H72549   8.962   3.781   9.194 -0.4753 -1.0169 -0.5227
  526MOL0     H72550   9.055   3.310   9.427  1.4683 -3.4325 -1.1454
  526MOL0     H72551   9.227   3.154   9.515 -0.8164  0.5716 -0.1590
  526MOL0     H72552   9.433   3.049   9.615 -0.6496  1.2782 -0.3105
  526MOL0     H72553   9.435   3.076   9.448 -1.9104 -0.6898 -0.0699
  526MOL0     H72554   9.647   2.960   9.486 -0.2249 -0.2058 -1.3616
  526MOL0     H72555   9.699   3.123   9.494 -0.5696  1.1534  0.0888
  526MOL0     H72556   9.592   2.970   9.741 -4.1234  3.7001 -1.5527
  526MOL0     H72557   9.658   3.129   9.741  0.7792 -1.0133  0.8661
  526MOL0     H72558   9.884   3.024   9.649  1.3284 -0.7938 -0.7672
  526MOL0     H72559   9.797   2.868   9.661 -5.9353  1.0520 -0.5806
  526MOL0     H72560   9.799   3.041   9.912  1.3495 -0.2614  1.1264
  526MOL0     H72561   9.784   2.872   9.891 -2.6181  3.1849  1.3922
  526MOL0     H72562  10.056   3.035   9.829  0.3422 -0.9889 -1.2262
  526MOL0     H72563  10.041   2.867   9.834 -1.6815  0.1726 -0.6087
  526MOL0     H72564   9.936   2.940  10.071  0.6363 -0.0789  2.6798
  526MOL0     H72565  10.062   3.064  10.053  1.2046 -1.3916  0.0598
  526MOL0     H72566  10.123   2.767  10.036  2.2715 -1.8493  0.3022
  526MOL0     H72567  10.157   2.866  10.169  0.3220  0.1907  0.2977
  526MOL0     H72568   9.487   3.486   9.582  0.0550 -0.8445  0.8981
  526MOL0     H72569   9.316   3.628   9.536 -1.3669 -0.6795  1.2094
  526MOL0     H72570   8.868   3.670   9.664 -1.2833  1.2828  1.5240
  526MOL0     H72571   8.627   3.738   9.670  1.0746  1.4230  1.3772
  526MOL0     H72572   8.095   3.414   8.189  2.3837 -0.3772  2.9524
  526MOL0     H72573   8.046   3.399   7.936 -0.1464  0.0456  0.8036
  526MOL0     H72574   7.978   3.108   7.625 -1.9511 -2.4079 -0.6296
  526MOL0     H72575   7.925   2.984   7.418  0.5642 -0.6926 -0.3033
  526MOL0     H72576   8.216   2.927   7.084  2.0077 -0.4323  0.8761
  526MOL0     H72577   8.227   2.786   7.193  0.9399  0.8883 -0.9602
  526MOL0     H72578   8.007   2.707   7.094 -2.1366  0.8352 -0.8062
  526MOL0     H72579   8.139   2.716   6.981  0.3693 -0.9641  1.6165
  526MOL0     H72580   7.926   2.939   7.023 -0.6719  1.1539 -0.6904
  526MOL0     H72581   8.064   2.940   6.908 -2.0166  1.5768 -2.2071
  526MOL0     H72582   7.865   2.875   6.801  0.6998 -0.0371 -0.3182
  526MOL0     H72583   7.833   2.730   6.899  0.0502 -0.0557  0.3960
  526MOL0     H72584   8.096   2.578   6.613 -0.2708 -0.2713  1.5189
  526MOL0     H72585   8.329   3.010   7.307  0.9314 -0.9884  1.2501
  526MOL0     H72586   8.463   3.129   7.586  3.5411  1.7883 -0.5031
  526MOL0     H72587   8.488   3.135   7.402  1.8824  2.4016  1.1944
  526MOL0     H72588   8.422   3.272   7.493  0.4561  0.5449  0.0643
  527MOL0     O72589   6.527   0.276  11.250  0.5900  0.3241 -0.5185
  527MOL0     C72590   6.630   0.247  11.197 -0.3920  1.2148  0.5099
  527MOL0     O72591   6.701   0.139  11.233 -0.6216  0.1479  0.4246
  527MOL0     C72592   6.663   0.036  11.323  0.0044 -0.4155  0.5569
  527MOL0     C72593   6.757  -0.071  11.342 -0.5851  0.8404  0.1801
  527MOL0     C72594   6.731  -0.175  11.425  0.1958 -0.2543 -0.3462
  527MOL0     C72595   6.605  -0.206  11.480  0.0467 -0.3914  0.0706
  527MOL0     O72596   6.577  -0.323  11.550 -0.2998 -0.4015  0.4402
  527MOL0     C72597   6.466  -0.405  11.507  0.9895 -0.0991  0.5149
  527MOL0     C72598   6.444  -0.511  11.615  0.2421  0.0825  0.7340
  527MOL0     C72599   6.532  -0.636  11.585 -1.1639  1.0821 -0.3675
  527MOL0     C72600   6.475  -0.748  11.494 -0.2036 -0.3195  0.5942
  527MOL0     C72601   6.524  -0.892  11.513 -0.7527 -0.7470  0.3160
  527MOL0     C72602   6.444  -0.994  11.433 -0.5801  0.9485  0.6529
  527MOL0     C72603   6.375  -1.090  11.539 -0.3002 -0.4370 -0.2732
  527MOL0     C72604   6.322  -1.219  11.479  0.6035 -0.2988  0.2601
  527MOL0     N72605   6.215  -1.181  11.383 -1.0816  0.7318 -0.6524
  527MOL0     C72606   6.222  -1.198  11.245  0.6831  0.6854  0.1490
  527MOL0     C72607   6.101  -1.157  11.211  0.5744  0.1048  0.4654
  527MOL0     C72608   6.054  -1.158  11.068 -0.1841 -0.0380 -0.1802
  527MOL0     C72609   6.094  -1.027  11.002 -0.4722  0.2310 -0.9371
  527MOL0     C72610   6.062  -0.906  11.090 -0.4973  0.4368  0.4260
  527MOL0     C72611   6.100  -0.783  11.006 -0.9870  0.3958 -0.3585
  527MOL0     O72612   6.010  -0.770  10.889  0.3146  0.7676  0.5371
  527MOL0     C72613   6.014  -0.655  10.811 -0.6612  0.2747 -0.2566
  527MOL0     C72614   5.939  -0.647  10.684 -1.2588 -0.0074 -1.1455
  527MOL0     C72615   5.927  -0.534  10.609  0.8739 -0.2199 -0.1341
  527MOL0     C72616   5.829  -0.533  10.495  0.1632 -0.2952  0.7941
  527MOL0     C72617   5.991  -0.412  10.647 -0.8995  0.7297  0.7650
  527MOL0     C72618   6.006  -0.286  10.561 -0.5491 -1.0491  0.1794
  527MOL0     O72619   6.067  -0.175  10.628 -0.7194 -0.5311 -0.6362
  527MOL0     C72620   6.097  -0.065  10.548  0.4726 -0.0969  0.1501
  527MOL0     C72621   6.227  -0.037  10.533 -0.4846 -0.0530 -0.3585
  527MOL0     C72622   6.276   0.071  10.473 -0.1628 -0.0799 -0.1809
  527MOL0     C72623   6.186   0.168  10.422  0.5570 -0.2116  0.2637
  527MOL0     O72624   6.236   0.285  10.374 -0.9443  0.7819  0.1704
  527MOL0     C72625   6.160   0.361  10.286  0.0161  0.5655  0.8668
  527MOL0     C72626   6.262   0.457  10.215  0.1912 -0.2038  0.0431
  527MOL0     C72627   6.359   0.389  10.114  0.6045  0.2203  0.5608
  527MOL0     C72628   6.444   0.497  10.052 -0.6989  0.3830  0.1451
  527MOL0     C72629   6.479   0.449   9.910 -0.7178 -0.3092 -0.2955
  527MOL0     C72630   6.565   0.556   9.837 -0.2747 -0.4105  0.0211
  527MOL0     C72631   6.616   0.506   9.705  0.1881 -0.6157 -0.5317
  527MOL0     C72632   6.722   0.391   9.738  0.2514  0.5256 -0.1495
  527MOL0    Cl72633   6.828   0.381   9.602 -0.0083 -0.0817  0.0555
  527MOL0     C72634   6.046   0.148  10.438 -0.0096  0.8813  0.6556
  527MOL0     C72635   6.010   0.030  10.505  0.9199  0.2245 -0.0061
  527MOL0     O72636   5.957  -0.285  10.448 -0.8605  0.2689 -0.8219
  527MOL0     C72637   6.066  -0.422  10.763  0.8556  0.8108 -0.5461
  527MOL0     C72638   6.075  -0.534  10.851  0.2166  0.9630  0.3057
  527MOL0     N72639   6.025  -1.115  11.315 -0.1621 -0.2823 -0.0514
  527MOL0     N72640   6.094  -1.134  11.425 -0.1881 -0.2125  0.8664
  527MOL0     C72641   6.511  -0.103  11.464 -0.6233  0.6965  0.0153
  527MOL0     C72642   6.536   0.012  11.382 -0.2655 -0.1153  0.3589
  527MOL0     C72643   6.692   0.342  11.098  0.0013  0.8082 -0.4165
  527MOL0     C72644   6.806   0.297  11.033  0.2670  0.1889  0.5183
  527MOL0     C72645   6.885   0.390  10.955  0.5671 -0.6529 -0.1297
  527MOL0     C72646   6.838   0.522  10.931 -0.1950  0.4512  0.6162
  527MOL0     O72647   6.910   0.612  10.858  1.1572 -0.1090 -0.2763
  527MOL0     C72648   7.033   0.651  10.931  0.1733  0.4966  0.2553
  527MOL0     C72649   7.076   0.776  10.868 -0.5960 -0.5614 -0.2366
  527MOL0     C72650   7.212   0.823  10.920  0.0110 -0.6695  0.2018
  527MOL0     C72651   7.263   0.933  10.829  0.3117  0.2080  0.0144
  527MOL0     C72652   7.390   0.993  10.883  0.0989  0.1681  0.4138
  527MOL0     C72653   7.488   1.056  10.926 -0.1880  0.5263 -0.9403
  527MOL0     C72654   6.710   0.551  10.985 -0.7461  0.0402 -0.8158
  527MOL0     C72655   6.636   0.468  11.072 -0.1458 -0.5415 -0.4907
  527MOL0     C72656   6.495   0.520  11.113  0.0056 -0.3327  0.8299
  527MOL0     H72657   6.853  -0.066  11.292 -1.6140 -0.9263 -2.1693
  527MOL0     H72658   6.798  -0.260  11.441 -1.2978 -1.3498  0.3661
  527MOL0     H72659   6.470  -0.446  11.405 -0.0943  2.1320 -0.4802
  527MOL0     H72660   6.383  -0.335  11.506  0.8574 -0.2514  0.8479
  527MOL0     H72661   6.467  -0.468  11.712 -0.4083  0.6086  0.6604
  527MOL0     H72662   6.340  -0.545  11.619  0.1169  0.3639  0.0789
  527MOL0     H72663   6.624  -0.588  11.551 -2.7337  4.2637 -0.5507
  527MOL0     H72664   6.559  -0.682  11.681 -3.7492 -1.2763 -0.6357
  527MOL0     H72665   6.368  -0.747  11.517  0.2482 -2.0781  3.1266
  527MOL0     H72666   6.493  -0.713  11.391  0.0781  1.6108  1.2637
  527MOL0     H72667   6.521  -0.914  11.621  0.5168  0.2273  0.5762
  527MOL0     H72668   6.628  -0.883  11.479 -1.4258 -3.0989 -2.8243
  527MOL0     H72669   6.366  -0.954  11.367 -1.8401 -1.4052  0.6035
  527MOL0     H72670   6.522  -1.045  11.376  1.3599  1.1463  2.9647
  527MOL0     H72671   6.294  -1.034  11.585  1.3184 -0.1711  2.4889
  527MOL0     H72672   6.445  -1.104  11.622  0.8287 -2.1598 -1.4345
  527MOL0     H72673   6.403  -1.281  11.438  1.3808  1.5392 -1.1193
  527MOL0     H72674   6.267  -1.275  11.555 -3.8459  0.7148 -1.8685
  527MOL0     H72675   6.302  -1.237  11.182 -0.2142 -0.7639 -0.1255
  527MOL0     H72676   5.946  -1.169  11.059 -0.4716  2.1289  0.1809
  527MOL0     H72677   6.094  -1.243  11.012  1.6097  1.8813 -1.9791
  527MOL0     H72678   6.199  -1.029  10.973 -0.1823  1.8910 -0.1174
  527MOL0     H72679   6.039  -1.033  10.908 -0.8623 -1.6007 -0.6401
  527MOL0     H72680   5.954  -0.906  11.102 -0.5672  2.7752  0.1539
  527MOL0     H72681   6.108  -0.905  11.189 -2.5950  0.5757  1.4556
  527MOL0     H72682   6.092  -0.702  11.079  0.5349  0.2981 -0.0416
  527MOL0     H72683   6.202  -0.777  10.967 -0.3680 -1.5874  0.8081
  527MOL0     H72684   5.900  -0.747  10.664  0.7473 -0.7664 -1.5307
  527MOL0     H72685   5.879  -0.564  10.403 -1.4918  0.5109 -0.4147
  527MOL0     H72686   5.787  -0.433  10.477  2.2787  0.6437  0.7636
  527MOL0     H72687   5.747  -0.602  10.514  0.6154 -1.7814 -2.1224
  527MOL0     H72688   6.307  -0.098  10.575 -0.5332  0.7159  0.8929
  527MOL0     H72689   6.380   0.099  10.485 -1.0759  2.3742  4.7286
  527MOL0     H72690   6.109   0.297  10.214 -0.6064 -2.7786  3.9850
  527MOL0     H72691   6.077   0.415  10.332 -0.9207 -0.3057  0.2457
  527MOL0     H72692   6.208   0.530  10.155  0.6613 -1.8985 -2.5847
  527MOL0     H72693   6.325   0.501  10.294 -0.3207  0.9747 -0.1833
  527MOL0     H72694   6.306   0.327  10.041  2.1792  0.3988 -0.7850
  527MOL0     H72695   6.438   0.334  10.166  1.3770 -1.8087 -2.4823
  527MOL0     H72696   6.534   0.520  10.110 -1.8187 -0.9872  2.5858
  527MOL0     H72697   6.383   0.587  10.042  0.0021  1.3425  3.2364
  527MOL0     H72698   6.542   0.364   9.934  0.3008  0.5847  0.2730
  527MOL0     H72699   6.397   0.413   9.847 -2.2036  1.4094  0.5244
  527MOL0     H72700   6.643   0.598   9.901  0.7297  1.2792 -2.1590
  527MOL0     H72701   6.500   0.643   9.823 -1.9907 -1.2339  2.1888
  527MOL0     H72702   6.684   0.580   9.662 -1.4860  1.6514  0.5323
  527MOL0     H72703   6.544   0.463   9.635  2.5359 -1.4725 -2.5727
  527MOL0     H72704   6.672   0.296   9.759  0.9677  0.0879 -0.3678
  527MOL0     H72705   6.768   0.413   9.835 -1.9851 -0.0498  1.1129
  527MOL0     H72706   5.971   0.219  10.403 -0.1841  0.8357  0.9349
  527MOL0     H72707   5.903   0.010  10.509  1.3804 -3.5484 -2.0040
  527MOL0     H72708   6.102  -0.331  10.810 -1.0076  0.7055  1.2090
  527MOL0     H72709   6.133  -0.527  10.943  2.2252 -1.1063 -0.6935
  527MOL0     H72710   6.411  -0.102  11.507 -0.9910  0.6364 -0.8342
  527MOL0     H72711   6.457   0.086  11.374 -0.9877 -1.0792 -3.9097
  527MOL0     H72712   6.845   0.196  11.041 -1.9957 -0.9067 -1.2246
  527MOL0     H72713   6.986   0.369  10.922  0.5624  1.7595 -2.0209
  527MOL0     H72714   7.009   0.659  11.037  0.2817 -1.5946  0.4885
  527MOL0     H72715   7.114   0.578  10.924  0.7704  1.1084  0.6969
  527MOL0     H72716   6.994   0.849  10.873 -0.7661 -0.7540 -0.2148
  527MOL0     H72717   7.075   0.768  10.759 -0.1586  3.2743 -0.6722
  527MOL0     H72718   7.208   0.863  11.022  1.4442 -2.2105  0.9222
  527MOL0     H72719   7.285   0.741  10.919 -0.8284 -1.4388  0.6743
  527MOL0     H72720   7.188   1.011  10.815 -0.6069 -0.7006 -0.2191
  527MOL0     H72721   7.289   0.883  10.735  5.8788  1.1703  0.6919
  527MOL0     H72722   7.572   1.097  10.977  0.0431 -2.9752  1.9083
  527MOL0     H72723   6.677   0.650  10.954 -0.8644  0.8715  1.7654
  527MOL0     H72724   6.415   0.449  11.093  1.6999 -1.7752 -1.3135
  527MOL0     H72725   6.482   0.533  11.221 -0.4822  0.0538  0.7261
  527MOL0     H72726   6.490   0.624  11.081  1.3954 -0.6181 -0.4286
  528MOL0     O72727   9.868   9.245   8.002  0.2723  0.3088  0.0124
  528MOL0     C72728   9.989   9.274   8.016 -0.0203  0.2218 -0.6709
  528MOL0     O72729  10.047   9.395   7.983 -0.0808  0.1190  0.6785
  528MOL0     C72730   9.966   9.486   7.924  0.1392 -0.8551 -0.1903
  528MOL0     C72731   9.887   9.574   8.005  0.0122 -0.3527  0.0950
  528MOL0     C72732   9.823   9.678   7.935  1.0128 -0.6843 -0.0301
  528MOL0     C72733   9.823   9.683   7.791 -0.2815  0.0152  0.9435
  528MOL0     O72734   9.734   9.765   7.732 -0.2001  0.2426  0.0292
  528MOL0     C72735   9.725   9.773   7.589  0.0867 -0.4067  1.1416
  528MOL0     C72736   9.628   9.885   7.548  0.4464  0.7605  0.7092
  528MOL0     C72737   9.484   9.874   7.594  0.0134  0.5860 -0.4799
  528MOL0     C72738   9.393   9.996   7.565 -0.0767 -0.4506 -1.0273
  528MOL0     C72739   9.266  10.005   7.651  0.1104  0.7696 -0.2360
  528MOL0     C72740   9.159   9.906   7.617 -0.2350 -0.8390  0.0820
  528MOL0     C72741   9.096   9.949   7.477  0.4454 -0.9877 -0.5340
  528MOL0     C72742   8.988   9.847   7.440 -0.1934  0.1562  0.5428
  528MOL0     N72743   8.957   9.860   7.298 -1.1039  0.9778 -0.0916
  528MOL0     C72744   8.885   9.947   7.237 -0.2566 -0.8484 -0.4524
  528MOL0     C72745   8.910   9.935   7.104 -0.3775 -0.3466  0.6722
  528MOL0     C72746   8.829  10.015   7.004 -0.7526 -0.6663  0.4021
  528MOL0     C72747   8.917  10.132   6.952  0.2676  0.3793  0.3857
  528MOL0     C72748   8.831  10.206   6.851 -0.2892 -0.8852 -0.2323
  528MOL0     C72749   8.914  10.308   6.781  0.0310  0.2657 -0.1203
  528MOL0     O72750   9.015  10.256   6.700  0.0753 -0.9677  0.1785
  528MOL0     C72751   9.083  10.350   6.617  0.6344 -0.5352 -0.3627
  528MOL0     C72752   9.110  10.318   6.488  0.6163 -0.2153 -0.0197
  528MOL0     C72753   9.166  10.410   6.388  0.4050 -0.0687 -0.7081
  528MOL0     C72754   9.191  10.365   6.243  0.1979  0.4231  0.4717
  528MOL0     C72755   9.166  10.551   6.423  0.3091 -0.4782  0.4851
  528MOL0     C72756   9.220  10.659   6.332 -0.2996 -0.0741 -0.6730
  528MOL0     O72757   9.171  10.787   6.359  0.0351  0.8502  0.1381
  528MOL0     C72758   9.205  10.897   6.278  0.4245  0.2141  0.1113
  528MOL0     C72759   9.307  10.898   6.180 -0.3095 -0.2091 -0.6462
  528MOL0     C72760   9.333  11.013   6.107  0.7255 -0.1902 -0.1146
  528MOL0     C72761   9.261  11.131   6.133 -0.5768  0.4280  0.7556
  528MOL0     O72762   9.302  11.254   6.090  0.5268 -0.1687  0.1152
  528MOL0     C72763   9.333  11.263   5.952  0.3993  0.0468  0.0236
  528MOL0     C72764   9.208  11.235   5.861  0.4011 -0.3369  0.3113
  528MOL0     C72765   9.086  11.322   5.907 -0.2214  0.6711  0.4176
  528MOL0     C72766   9.058  11.420   5.784 -0.7039  0.5372  0.5328
  528MOL0     C72767   8.909  11.458   5.773 -0.9772 -0.8753 -0.1186
  528MOL0     C72768   8.864  11.525   5.898  0.2335 -1.0801 -0.7413
  528MOL0     C72769   8.712  11.556   5.905 -0.5744 -0.4460  0.7323
  528MOL0     C72770   8.672  11.654   5.802 -0.5755 -0.5148  1.4391
  528MOL0    Cl72771   8.487  11.667   5.790 -0.4418  0.2430  0.4229
  528MOL0     C72772   9.162  11.129   6.223  0.4317  0.0996  0.4965
  528MOL0     C72773   9.117  11.011   6.284 -0.1588  0.0709  0.7985
  528MOL0     O72774   9.317  10.630   6.258 -0.2495 -1.1726  0.4463
  528MOL0     C72775   9.145  10.581   6.564 -0.1042 -0.1596  0.6036
  528MOL0     C72776   9.102  10.483   6.654  0.6019 -0.2434  0.4799
  528MOL0     N72777   8.993   9.827   7.080 -0.1623 -0.1709  0.0826
  528MOL0     N72778   9.027   9.790   7.203  0.2020 -0.6950  0.4385
  528MOL0     C72779   9.894   9.585   7.723 -0.0911  0.7280  0.8000
  528MOL0     C72780   9.973   9.487   7.787  0.0223  0.4710  1.0046
  528MOL0     C72781  10.079   9.182   8.092  0.3891  0.1225  0.1940
  528MOL0     C72782  10.140   9.073   8.043 -1.0483 -0.2312  0.3374
  528MOL0     C72783  10.234   8.999   8.111  0.3576 -0.6120  0.5044
  528MOL0     C72784  10.259   9.030   8.248 -0.4896  0.3806  0.4456
  528MOL0     O72785  10.339   8.963   8.338 -0.3176 -0.6672  0.0901
  528MOL0     C72786  10.441   8.877   8.290 -0.5776 -0.1368 -0.3260
  528MOL0     C72787  10.421   8.726   8.310  0.1494 -0.3303 -0.6723
  528MOL0     C72788  10.488   8.643   8.203  0.4567  0.5841 -0.0009
  528MOL0     C72789  10.444   8.641   8.045 -0.7903 -0.0477  0.0080
  528MOL0     C72790  10.557   8.558   7.995 -0.2474 -0.3280 -0.6725
  528MOL0     C72791  10.649   8.496   7.955  0.5030 -0.4077  0.1174
  528MOL0     C72792  10.182   9.133   8.304  1.1213 -0.2726  0.2742
  528MOL0     C72793  10.098   9.218   8.231  0.0844  0.6655  0.8696
  528MOL0     C72794  10.038   9.340   8.303  0.2564  0.3196 -0.7700
  528MOL0     H72795   9.901   9.546   8.109  1.2625 -2.7138 -0.6497
  528MOL0     H72796   9.767   9.750   7.993  0.5888 -0.2894 -0.9048
  528MOL0     H72797   9.689   9.680   7.546 -0.1634 -0.1217  0.7259
  528MOL0     H72798   9.822   9.789   7.539 -0.6685  0.5524 -0.0908
  528MOL0     H72799   9.667   9.981   7.582  0.5170  1.0800 -0.2232
  528MOL0     H72800   9.618   9.876   7.439  1.4707 -1.2302  0.7322
  528MOL0     H72801   9.434   9.787   7.551  1.0172 -0.6947  0.8607
  528MOL0     H72802   9.491   9.855   7.701  2.7278  0.9440 -0.5234
  528MOL0     H72803   9.452  10.087   7.581  0.4441 -1.0216  0.4058
  528MOL0     H72804   9.367  10.009   7.459  0.8511 -0.7942 -1.3105
  528MOL0     H72805   9.232  10.109   7.651 -3.1534 -0.0621 -4.0131
  528MOL0     H72806   9.285   9.991   7.758 -1.7635  0.7236  0.1166
  528MOL0     H72807   9.200   9.805   7.604 -1.4464 -1.1862 -1.3707
  528MOL0     H72808   9.086   9.904   7.698  2.3345 -1.2632  2.5318
  528MOL0     H72809   9.174   9.942   7.401  1.2938 -0.0486  0.2125
  528MOL0     H72810   9.047  10.047   7.484 -1.2877 -1.9515  2.1828
  528MOL0     H72811   9.027   9.750   7.470 -0.6756 -0.4977 -0.8451
  528MOL0     H72812   8.908   9.877   7.509 -0.4022  0.3580  0.2174
  528MOL0     H72813   8.809  10.010   7.283  0.0675 -1.0466  0.3676
  528MOL0     H72814   8.739  10.061   7.047 -1.3002  0.9767 -2.2455
  528MOL0     H72815   8.810   9.950   6.919  1.1026 -1.6260  0.6758
  528MOL0     H72816   8.953  10.190   7.038  3.1303 -1.2865  0.4603
  528MOL0     H72817   8.996  10.074   6.904 -0.5949 -1.5719  1.2192
  528MOL0     H72818   8.792  10.142   6.771  0.3993  0.6905 -1.9264
  528MOL0     H72819   8.748  10.259   6.897  0.9957 -0.3926  1.6211
  528MOL0     H72820   8.847  10.374   6.723  0.7152  0.9769 -0.1225
  528MOL0     H72821   8.961  10.370   6.858  1.8632 -0.2893 -0.7586
  528MOL0     H72822   9.077  10.221   6.452  1.7694 -0.2423 -1.0770
  528MOL0     H72823   9.297  10.363   6.218 -0.0291 -2.0827 -0.6053
  528MOL0     H72824   9.160  10.445   6.174  2.5016 -0.2351 -1.4835
  528MOL0     H72825   9.162  10.263   6.215 -0.0525  0.6921 -0.2720
  528MOL0     H72826   9.389  10.827   6.178  0.5880  0.7808 -0.0799
  528MOL0     H72827   9.434  11.029   6.068  0.5533  2.0028  0.1815
  528MOL0     H72828   9.368  11.367   5.950 -0.8909  0.5505  1.8656
  528MOL0     H72829   9.412  11.199   5.913 -1.0553 -1.4755 -0.5452
  528MOL0     H72830   9.237  11.236   5.756  1.7758  1.2636  0.6816
  528MOL0     H72831   9.168  11.135   5.883 -0.8160  0.2707  0.9754
  528MOL0     H72832   9.099  11.372   6.003 -0.6910 -0.9447  1.3635
  528MOL0     H72833   8.994  11.263   5.913 -2.3380  3.7672  0.0952
  528MOL0     H72834   9.093  11.380   5.688  0.2083  0.1241  1.0229
  528MOL0     H72835   9.117  11.509   5.807  0.6555 -0.4939  1.2367
  528MOL0     H72836   8.905  11.528   5.689 -0.7024 -1.0732 -0.3006
  528MOL0     H72837   8.851  11.369   5.745 -0.4046 -2.0564  2.2095
  528MOL0     H72838   8.933  11.605   5.927 -1.7085  0.8145 -1.0517
  528MOL0     H72839   8.870  11.458   5.984  0.1868  0.6764  0.6866
  528MOL0     H72840   8.699  11.598   6.005 -0.1879 -0.3727  0.7538
  528MOL0     H72841   8.654  11.463   5.906  2.2140 -2.3098  2.0460
  528MOL0     H72842   8.715  11.629   5.705  1.2684  0.1480  2.0249
  528MOL0     H72843   8.701  11.755   5.836 -0.8247  0.9710 -2.2858
  528MOL0     H72844   9.105  11.215   6.258  0.4535  0.4275 -0.2592
  528MOL0     H72845   9.030  11.017   6.349  1.4693  1.4792  3.0255
  528MOL0     H72846   9.154  10.684   6.597 -0.5509 -0.2390  0.9818
  528MOL0     H72847   9.081  10.523   6.752 -0.3203  1.3151 -0.3201
  528MOL0     H72848   9.887   9.590   7.614  1.1144  1.7517  0.7507
  528MOL0     H72849  10.033   9.424   7.722 -0.6889  0.0267  0.7618
  528MOL0     H72850  10.137   9.052   7.937 -2.7029  0.8082  0.1255
  528MOL0     H72851  10.283   8.913   8.068 -1.4128 -1.5285  0.2149
  528MOL0     H72852  10.459   8.907   8.187 -0.4383  0.5491 -0.1025
  528MOL0     H72853  10.537   8.906   8.334  0.2607  0.7728 -2.6169
  528MOL0     H72854  10.313   8.709   8.302 -0.1073  0.0546  1.4892
  528MOL0     H72855  10.465   8.708   8.408  2.7884  2.1194 -1.2451
  528MOL0     H72856  10.593   8.673   8.203  0.0280  2.1601  0.4959
  528MOL0     H72857  10.473   8.544   8.246 -1.9246  1.6593  1.9056
  528MOL0     H72858  10.457   8.745   8.014 -1.8396  0.3943  0.9563
  528MOL0     H72859  10.346   8.605   8.016  0.8854 -3.1385 -2.3721
  528MOL0     H72860  10.717   8.431   7.904  0.5446 -0.1569 -0.1502
  528MOL0     H72861  10.189   9.157   8.410 -1.3827  2.8910 -0.1089
  528MOL0     H72862   9.983   9.289   8.383 -0.6903 -2.0392 -2.8136
  528MOL0     H72863  10.113   9.415   8.331  0.8367 -0.5536  0.1032
  528MOL0     H72864   9.955   9.381   8.245 -0.5252 -0.8873 -0.5422
  529MOL0     O72865   0.309   0.445  11.175 -0.1935 -0.3783  0.1420
  529MOL0     C72866   0.276   0.515  11.270  0.8686 -0.7580  0.4965
  529MOL0     O72867   0.343   0.541  11.378 -0.2306  0.1418  0.2469
  529MOL0     C72868   0.478   0.519  11.386  0.1808  0.4528 -0.3207
  529MOL0     C72869   0.564   0.602  11.301 -0.0994  0.1152  0.1443
  529MOL0     C72870   0.701   0.591  11.319 -0.4165 -0.4428 -0.6408
  529MOL0     C72871   0.757   0.510  11.416  0.7227 -0.4256 -0.0117
  529MOL0     O72872   0.885   0.482  11.447 -0.9301 -0.0635 -0.3761
  529MOL0     C72873   0.996   0.553  11.389 -0.2743  1.1118  0.8557
  529MOL0     C72874   1.121   0.563  11.486 -0.2587  0.0844  0.4936
  529MOL0     C72875   1.204   0.692  11.460  0.0674 -0.3755  0.0563
  529MOL0     C72876   1.346   0.667  11.515 -0.1897 -0.6364  0.1496
  529MOL0     C72877   1.442   0.786  11.472 -0.4686  1.2659  0.0073
  529MOL0     C72878   1.493   0.787  11.329  0.3422  0.8622 -0.8938
  529MOL0     C72879   1.598   0.896  11.308 -0.6781 -0.3289  0.0298
  529MOL0     C72880   1.628   0.935  11.159  0.2885  0.9722 -0.1777
  529MOL0     N72881   1.691   1.074  11.159 -0.3950 -0.1060  0.0657
  529MOL0     C72882   1.821   1.103  11.179 -0.3431  0.1229  0.1774
  529MOL0     C72883   1.829   1.240  11.160 -0.5650  0.3994  0.1947
  529MOL0     C72884   1.946   1.316  11.172 -0.8748 -1.3353 -0.2667
  529MOL0     C72885   2.020   1.321  11.305  0.5104  0.0165  0.3665
  529MOL0     C72886   1.933   1.364  11.427 -0.6599 -0.2151 -0.8571
  529MOL0     C72887   2.013   1.383  11.564 -0.1727  0.2805 -0.3037
  529MOL0     O72888   1.931   1.441  11.661 -0.7077 -0.0042  0.0531
  529MOL0     C72889   1.856   1.363  11.740 -0.8120 -0.1113 -0.1486
  529MOL0     C72890   1.771   1.430  11.830  0.4874 -0.4478 -0.0860
  529MOL0     C72891   1.696   1.362  11.924 -0.5731  0.3341 -0.2883
  529MOL0     C72892   1.601   1.447  12.005 -0.8426 -0.2196  1.0902
  529MOL0     C72893   1.717   1.226  11.941  0.1862  0.1658  0.1693
  529MOL0     C72894   1.650   1.139  12.029  0.8687  1.0620  0.5033
  529MOL0     O72895   1.509   1.173  12.048 -0.0951  0.1373  0.6609
  529MOL0     C72896   1.428   1.107  12.134 -0.2406  0.1756  0.2443
  529MOL0     C72897   1.294   1.152  12.138  0.8602  0.1902  0.2711
  529MOL0     C72898   1.195   1.077  12.204 -0.1520 -0.1717  0.6898
  529MOL0     C72899   1.230   0.968  12.274 -0.2031  0.0838  1.0525
  529MOL0     O72900   1.143   0.895  12.348  0.8702 -0.0390 -0.0249
  529MOL0     C72901   1.030   0.842  12.274 -0.7358  0.4933 -0.4312
  529MOL0     C72902   1.005   0.695  12.318  0.3847  0.5241 -0.7507
  529MOL0     C72903   1.127   0.612  12.272 -0.9382  0.2180 -0.0562
  529MOL0     C72904   1.134   0.463  12.300 -0.0827 -0.4939 -0.1477
  529MOL0     C72905   1.028   0.390  12.219  0.7871  0.6874  0.6407
  529MOL0     C72906   1.029   0.249  12.271  0.4444 -0.0003 -0.4737
  529MOL0     C72907   1.166   0.179  12.229 -0.6765  0.4278 -0.4724
  529MOL0     C72908   1.231   0.214  12.092 -0.9119  0.2129 -0.3419
  529MOL0    Cl72909   1.319   0.054  12.024  0.1764 -0.0779  0.2210
  529MOL0     C72910   1.364   0.930  12.286  1.3856  0.9985  0.3475
  529MOL0     C72911   1.462   0.999  12.220  0.0342  0.6134  0.6936
  529MOL0     O72912   1.717   1.044  12.079 -0.0519 -0.3276 -0.4622
  529MOL0     C72913   1.817   1.157  11.865 -0.5594 -0.4946 -0.2228
  529MOL0     C72914   1.883   1.227  11.761  0.6942  0.2114 -0.0180
  529MOL0     N72915   1.705   1.288  11.128  0.3248 -1.2074 -0.0570
  529MOL0     N72916   1.614   1.185  11.119 -0.3448  0.7569  0.6445
  529MOL0     C72917   0.675   0.437  11.499 -0.1724  0.0709 -0.7701
  529MOL0     C72918   0.538   0.433  11.480 -0.3982 -0.1438  0.0523
  529MOL0     C72919   0.142   0.576  11.269 -0.0172  0.1727  0.0977
  529MOL0     C72920   0.034   0.516  11.329  0.7974 -0.7677 -0.0340
  529MOL0     C72921  -0.097   0.583  11.325 -0.5786  0.8801  0.5278
  529MOL0     C72922  -0.113   0.709  11.253  0.6629 -0.5826 -0.3823
  529MOL0     O72923  -0.241   0.771  11.244 -1.0910 -0.3567 -0.0075
  529MOL0     C72924  -0.257   0.907  11.292  0.4215  0.1175 -0.2547
  529MOL0     C72925  -0.368   0.978  11.217  0.6063 -0.2804  0.8952
  529MOL0     C72926  -0.414   1.115  11.270 -0.2762  0.8445 -0.5760
  529MOL0     C72927  -0.511   1.096  11.381  0.3707 -0.0311 -0.0326
  529MOL0     C72928  -0.538   1.217  11.451 -0.7741 -0.7978 -0.7835
  529MOL0     C72929  -0.554   1.326  11.511 -0.1675  0.0362  0.6677
  529MOL0     C72930  -0.001   0.770  11.200 -0.3583  0.8616 -0.9395
  529MOL0     C72931   0.126   0.709  11.218  0.3168  0.1709  0.3687
  529MOL0     C72932   0.255   0.787  11.172  0.3317 -0.3595  0.7214
  529MOL0     H72933   0.530   0.663  11.218  2.2472 -1.1710 -1.8800
  529MOL0     H72934   0.762   0.655  11.256 -0.7935  2.6494  1.9009
  529MOL0     H72935   0.969   0.657  11.365 -1.4106  0.7067  0.2756
  529MOL0     H72936   1.017   0.497  11.298  0.4336 -0.1290  1.7610
  529MOL0     H72937   1.086   0.544  11.588 -0.5749  0.1604  0.4035
  529MOL0     H72938   1.192   0.490  11.446 -1.8555 -1.3981  0.2123
  529MOL0     H72939   1.206   0.721  11.354 -0.8235 -1.1176 -0.1790
  529MOL0     H72940   1.147   0.771  11.509 -0.4835  2.0905 -4.0740
  529MOL0     H72941   1.333   0.658  11.623  0.5226  0.4682  0.3453
  529MOL0     H72942   1.388   0.568  11.490 -1.4914 -1.5503  1.4251
  529MOL0     H72943   1.529   0.780  11.538 -0.7252 -1.3694  0.1811
  529MOL0     H72944   1.382   0.876  11.493  1.9891  2.4237  2.8932
  529MOL0     H72945   1.539   0.698  11.285  1.6375  2.8153 -3.8532
  529MOL0     H72946   1.411   0.816  11.262  0.0897  0.2219 -0.8640
  529MOL0     H72947   1.689   0.856  11.353 -2.3927 -3.1150  1.2758
  529MOL0     H72948   1.577   0.992  11.355 -0.0914 -0.1235 -0.1218
  529MOL0     H72949   1.704   0.863  11.129  2.8785  2.6376  1.9010
  529MOL0     H72950   1.534   0.931  11.103  0.6368 -2.6675 -0.7151
  529MOL0     H72951   1.899   1.034  11.209  0.5841  0.6037 -1.0475
  529MOL0     H72952   1.922   1.421  11.150 -5.1629 -1.0380  4.0543
  529MOL0     H72953   2.019   1.281  11.099  0.2423 -2.8158  1.4581
  529MOL0     H72954   2.069   1.226  11.328 -2.0179 -0.5760  4.2352
  529MOL0     H72955   2.100   1.396  11.297 -0.7814  1.2713 -1.5326
  529MOL0     H72956   1.897   1.466  11.413 -0.3911 -0.0278 -0.1788
  529MOL0     H72957   1.852   1.293  11.446  0.4731 -0.8253  2.2426
  529MOL0     H72958   2.071   1.304  11.614 -0.5449  0.9039  1.1609
  529MOL0     H72959   2.089   1.459  11.546  0.1068  0.4574  1.4851
  529MOL0     H72960   1.746   1.536  11.824 -0.2313 -0.6600 -1.4312
  529MOL0     H72961   1.509   1.464  11.947 -2.2044  3.8775  4.0245
  529MOL0     H72962   1.648   1.544  12.025  2.5118 -2.2815  4.3751
  529MOL0     H72963   1.586   1.402  12.103 -2.4376  3.7477  2.8854
  529MOL0     H72964   1.264   1.242  12.086 -1.5791 -0.9970 -0.5507
  529MOL0     H72965   1.095   1.119  12.204 -0.5249 -1.0233  1.7864
  529MOL0     H72966   0.933   0.892  12.284 -0.4844  1.6485 -2.8612
  529MOL0     H72967   1.046   0.847  12.166 -1.0369 -1.4054 -0.6029
  529MOL0     H72968   0.983   0.691  12.425 -5.2424 -0.6588 -1.6637
  529MOL0     H72969   0.928   0.649  12.255 -0.8370 -0.2689  1.2119
  529MOL0     H72970   1.199   0.665  12.335 -0.7983  1.5860 -1.3179
  529MOL0     H72971   1.156   0.623  12.168 -1.2979 -3.1209 -0.6394
  529MOL0     H72972   1.116   0.450  12.407  2.1770  0.4518  0.4035
  529MOL0     H72973   1.230   0.428  12.262 -0.3053 -0.1553 -1.0413
  529MOL0     H72974   0.925   0.428  12.222  0.0938 -1.0722  0.2260
  529MOL0     H72975   1.049   0.399  12.112 -1.7820  2.0466  0.1705
  529MOL0     H72976   0.945   0.198  12.224 -1.4590  2.0617  0.5250
  529MOL0     H72977   1.034   0.227  12.378 -0.7009  1.5504 -0.0710
  529MOL0     H72978   1.144   0.073  12.240 -1.6113  0.5832 -0.7848
  529MOL0     H72979   1.239   0.198  12.309  1.1806 -3.1368 -1.0984
  529MOL0     H72980   1.305   0.296  12.094  0.5658 -1.0679 -0.3535
  529MOL0     H72981   1.157   0.248  12.020 -1.1222  2.4011  0.7877
  529MOL0     H72982   1.384   0.852  12.360  3.8046  3.8785  3.0115
  529MOL0     H72983   1.566   0.981  12.245  0.7544  2.8751 -0.3820
  529MOL0     H72984   1.824   1.051  11.885  0.7658 -0.3394  0.2253
  529MOL0     H72985   1.946   1.170  11.694  0.4001  1.0117 -1.0053
  529MOL0     H72986   0.730   0.381  11.574 -4.1488 -0.5473  1.9991
  529MOL0     H72987   0.475   0.381  11.551 -1.5692  1.1649  0.0133
  529MOL0     H72988   0.043   0.415  11.368  0.4414 -0.3326  1.2240
  529MOL0     H72989  -0.180   0.531  11.372  0.2712 -0.6019  0.4561
  529MOL0     H72990  -0.281   0.893  11.398  1.1327 -0.1617 -0.1270
  529MOL0     H72991  -0.177   0.981  11.298 -1.7993  2.5890  1.7542
  529MOL0     H72992  -0.450   0.906  11.212  0.5348 -0.1278 -2.2823
  529MOL0     H72993  -0.338   1.002  11.115 -0.2034  1.3344  1.0007
  529MOL0     H72994  -0.324   1.160  11.313  0.2449 -2.6976  2.5920
  529MOL0     H72995  -0.461   1.177  11.193  1.1526  0.8299 -1.4818
  529MOL0     H72996  -0.481   1.026  11.460  0.0276  1.9265  1.9261
  529MOL0     H72997  -0.602   1.053  11.337 -0.4558  2.3718 -0.7823
  529MOL0     H72998  -0.586   1.414  11.562  0.0605  1.5142 -1.6092
  529MOL0     H72999   0.002   0.872  11.161  1.8281  2.0936  2.0649
  529MOL0     H73000   0.235   0.884  11.125 -1.0348  0.1979  2.3446
  529MOL0     H73001   0.317   0.804  11.261  0.5048  2.8111  0.1329
  529MOL0     H73002   0.309   0.735  11.093 -1.5800  0.6001 -1.3143
  530MOL0     O73003  11.411   1.955   1.518 -0.0107 -0.5338  0.5917
  530MOL0     C73004  11.375   1.936   1.399  0.0618  0.1690 -0.6508
  530MOL0     O73005  11.279   1.844   1.363  0.2839  0.5888 -0.1873
  530MOL0     C73006  11.178   1.839   1.457  0.4364  0.6574 -0.3664
  530MOL0     C73007  11.111   1.950   1.497 -0.1275 -0.6611  0.2657
  530MOL0     C73008  11.010   1.948   1.595  0.1043  0.0081 -0.3993
  530MOL0     C73009  10.966   1.825   1.650 -0.8619  0.1489  0.1067
  530MOL0     O73010  10.860   1.801   1.734 -0.3909 -0.4340 -0.1427
  530MOL0     C73011  10.800   1.910   1.802  0.4815 -0.9898 -0.9037
  530MOL0     C73012  10.884   1.992   1.897 -0.1810 -0.2182 -0.0149
  530MOL0     C73013  10.950   1.900   2.003 -0.4078  0.5548  0.7489
  530MOL0     C73014  10.850   1.863   2.119  0.1947 -1.0347  0.9373
  530MOL0     C73015  10.797   1.993   2.196  0.2515 -0.1120 -0.1823
  530MOL0     C73016  10.920   2.085   2.237  0.3620  0.8385 -0.7319
  530MOL0     C73017  10.877   2.197   2.333  0.0365 -0.6444  0.2620
  530MOL0     C73018  10.808   2.308   2.253  0.2782 -0.1140  0.1734
  530MOL0     N73019  10.768   2.414   2.348  0.2545 -0.7136  0.1231
  530MOL0     C73020  10.856   2.505   2.395  0.0303  0.2478 -1.0573
  530MOL0     C73021  10.772   2.594   2.455 -0.4180  0.0897 -0.4054
  530MOL0     C73022  10.801   2.719   2.533  0.7014  0.0893 -0.4784
  530MOL0     C73023  10.847   2.678   2.682 -0.2040  0.2815  0.8922
  530MOL0     C73024  10.732   2.672   2.785 -1.1513  0.4585  0.5397
  530MOL0     C73025  10.778   2.639   2.933 -0.4087  0.2045  0.1170
  530MOL0     O73026  10.824   2.750   3.021 -0.0890 -1.0429  0.3294
  530MOL0     C73027  10.735   2.846   3.063  0.0093  0.1275  0.7618
  530MOL0     C73028  10.604   2.818   3.102 -0.5116  0.5101  0.1611
  530MOL0     C73029  10.520   2.917   3.160  0.3491  0.6672  0.6351
  530MOL0     C73030  10.380   2.884   3.196 -0.9876  0.5149  0.0375
  530MOL0     C73031  10.567   3.049   3.161  0.2022  0.4241 -0.5459
  530MOL0     C73032  10.487   3.158   3.216  1.3321  0.1235  0.3899
  530MOL0     O73033  10.362   3.164   3.164  0.6197  0.2410 -0.2888
  530MOL0     C73034  10.288   3.272   3.199 -0.5442  0.7503 -0.1439
  530MOL0     C73035  10.216   3.278   3.318 -0.0932 -0.0761 -0.3976
  530MOL0     C73036  10.155   3.392   3.364  0.3139  0.1349 -0.8259
  530MOL0     C73037  10.147   3.505   3.280 -0.4571  0.4278 -0.6095
  530MOL0     O73038  10.089   3.625   3.320 -0.7125  0.0694  0.6069
  530MOL0     C73039  10.015   3.641   3.442 -0.2780  0.0526 -0.3984
  530MOL0     C73040   9.875   3.580   3.467  0.4017 -0.3596  0.4099
  530MOL0     C73041   9.757   3.654   3.398 -0.6126 -0.2083  0.4314
  530MOL0     C73042   9.735   3.791   3.462  0.7293 -0.0041 -0.2079
  530MOL0     C73043   9.679   3.778   3.604  0.2210 -0.0196 -0.1586
  530MOL0     C73044   9.617   3.904   3.669  1.0219  0.7590 -0.5524
  530MOL0     C73045   9.576   3.890   3.811 -0.0942  0.0023 -0.6759
  530MOL0     C73046   9.521   4.019   3.873  0.4831 -0.0037  0.5681
  530MOL0    Cl73047   9.446   3.983   4.019 -0.1810 -0.0932  0.0729
  530MOL0     C73048  10.207   3.494   3.157 -0.5619  0.0657  0.3808
  530MOL0     C73049  10.282   3.384   3.111 -0.3293 -0.0686  0.2557
  530MOL0     O73050  10.521   3.217   3.319 -0.2048  0.0045  0.6625
  530MOL0     C73051  10.700   3.073   3.127 -0.9290 -0.7953  0.3071
  530MOL0     C73052  10.782   2.966   3.091  0.2892 -0.8118 -0.5678
  530MOL0     N73053  10.643   2.563   2.429 -0.2054  0.3476  0.5738
  530MOL0     N73054  10.642   2.457   2.353  0.5917  0.1447 -0.2544
  530MOL0     C73055  11.036   1.719   1.612  0.4600 -0.2777 -0.5421
  530MOL0     C73056  11.131   1.714   1.513  0.6765  0.2549  0.1021
  530MOL0     C73057  11.440   2.024   1.293 -0.6652  0.8900  1.0253
  530MOL0     C73058  11.355   2.095   1.198 -0.4886 -0.3252 -0.7162
  530MOL0     C73059  11.406   2.188   1.116  0.7358 -0.3251 -0.1318
  530MOL0     C73060  11.549   2.210   1.104  0.4870  0.7605 -0.4686
  530MOL0     O73061  11.617   2.301   1.026  0.4518 -0.0255  0.4765
  530MOL0     C73062  11.549   2.427   1.017 -0.3451 -0.5424  0.6268
  530MOL0     C73063  11.628   2.521   0.928  0.9368 -0.9189 -0.5854
  530MOL0     C73064  11.765   2.561   0.984 -0.8151 -0.1141  0.0605
  530MOL0     C73065  11.863   2.614   0.883 -0.2383 -0.3850  0.2234
  530MOL0     C73066  11.819   2.724   0.792  0.2889  0.2935 -1.4384
  530MOL0     C73067  11.789   2.824   0.724 -0.4393 -0.0112  0.2860
  530MOL0     C73068  11.628   2.136   1.188  0.1056  0.1680 -0.4041
  530MOL0     C73069  11.581   2.047   1.274  0.6948  0.1187  0.0401
  530MOL0     C73070  11.673   1.961   1.364  0.7162 -0.4248  0.2401
  530MOL0     H73071  11.133   2.047   1.454 -1.9109 -0.1814  0.3844
  530MOL0     H73072  10.954   2.037   1.621  1.9222  0.5655  1.9685
  530MOL0     H73073  10.714   1.859   1.846 -0.4648  0.5898 -0.8311
  530MOL0     H73074  10.754   1.984   1.735 -3.8770 -0.8980  1.7344
  530MOL0     H73075  10.960   2.054   1.849  0.2288  0.1515  1.0983
  530MOL0     H73076  10.820   2.069   1.940  0.2199  1.5322 -2.3628
  530MOL0     H73077  10.994   1.807   1.965 -1.8265  0.1586  0.0001
  530MOL0     H73078  11.037   1.946   2.051 -1.1325  0.7809  1.8735
  530MOL0     H73079  10.771   1.800   2.078 -0.5115  0.2355  0.2846
  530MOL0     H73080  10.896   1.801   2.196 -1.1054 -0.7771  1.9477
  530MOL0     H73081  10.754   1.956   2.289  1.3859  0.4607  0.5925
  530MOL0     H73082  10.716   2.045   2.144  0.4557 -0.3196 -0.7195
  530MOL0     H73083  10.994   2.029   2.295 -0.2219  1.2483  0.4360
  530MOL0     H73084  10.972   2.130   2.152 -3.6254 -0.1241 -3.9783
  530MOL0     H73085  10.958   2.237   2.396 -1.6954 -1.5950  3.3322
  530MOL0     H73086  10.802   2.161   2.404 -1.2319  1.7569  0.2363
  530MOL0     H73087  10.873   2.341   2.171 -1.0659 -0.9002 -1.2598
  530MOL0     H73088  10.718   2.275   2.200 -0.0966  4.5411 -2.6295
  530MOL0     H73089  10.962   2.486   2.392 -0.2281 -1.9551  1.0125
  530MOL0     H73090  10.724   2.796   2.531  2.6496  2.1155 -0.9005
  530MOL0     H73091  10.880   2.778   2.486  1.9811 -0.9348  0.3134
  530MOL0     H73092  10.899   2.582   2.680  3.0363  1.7956  3.1385
  530MOL0     H73093  10.920   2.749   2.723  2.2622 -2.4464  1.5545
  530MOL0     H73094  10.663   2.757   2.779 -5.2259 -2.4848  1.1516
  530MOL0     H73095  10.663   2.591   2.758  2.0578 -2.3610  0.0810
  530MOL0     H73096  10.695   2.593   2.986 -0.6580 -0.9145 -1.1931
  530MOL0     H73097  10.852   2.559   2.938 -0.3100  0.3099  4.8875
  530MOL0     H73098  10.579   2.712   3.106  3.4872 -0.5808  1.0195
  530MOL0     H73099  10.367   2.779   3.225 -1.3626 -0.0573 -2.0398
  530MOL0     H73100  10.313   2.902   3.111 -0.4909  0.4516 -0.3744
  530MOL0     H73101  10.338   2.946   3.276 -0.1734  0.3625  0.5896
  530MOL0     H73102  10.236   3.201   3.392  1.9043  1.0842  0.3372
  530MOL0     H73103  10.123   3.403   3.467 -1.5602  0.5996 -1.4126
  530MOL0     H73104  10.083   3.623   3.526 -0.1588  1.6336 -0.1180
  530MOL0     H73105  10.003   3.750   3.444 -0.9687 -0.0104  1.6874
  530MOL0     H73106   9.889   3.479   3.428 -1.0329 -0.6557  0.5858
  530MOL0     H73107   9.852   3.586   3.574 -2.7280  5.5272 -0.1517
  530MOL0     H73108   9.668   3.590   3.394  0.2759 -1.5784 -4.3496
  530MOL0     H73109   9.783   3.674   3.293  1.2880 -0.4406  0.8281
  530MOL0     H73110   9.657   3.834   3.398 -1.8200 -2.2796  1.1507
  530MOL0     H73111   9.829   3.846   3.452  1.2871 -1.1076 -1.3983
  530MOL0     H73112   9.598   3.706   3.593 -1.2607  1.5145  0.1763
  530MOL0     H73113   9.751   3.726   3.668 -1.9656 -2.2980  0.5698
  530MOL0     H73114   9.528   3.936   3.615  0.3510  0.2688  0.2339
  530MOL0     H73115   9.674   3.997   3.671 -1.3688  2.3051  0.9161
  530MOL0     H73116   9.667   3.859   3.864 -1.4015 -0.9322  1.1382
  530MOL0     H73117   9.506   3.805   3.807  0.6063 -0.5916 -0.6313
  530MOL0     H73118   9.445   4.045   3.799  0.5417 -1.9803 -0.2558
  530MOL0     H73119   9.597   4.097   3.867  2.0566 -1.5812 -3.1515
  530MOL0     H73120  10.215   3.584   3.097  1.3377  0.5266  1.2549
  530MOL0     H73121  10.325   3.397   3.012 -0.5903 -0.1676  0.1282
  530MOL0     H73122  10.733   3.172   3.160  0.6426 -0.6522 -1.4948
  530MOL0     H73123  10.876   3.007   3.057 -0.8438  1.2354 -1.4335
  530MOL0     H73124  11.022   1.625   1.665  0.1572  0.3921  0.5848
  530MOL0     H73125  11.176   1.620   1.484  2.3453  0.9245  0.4404
  530MOL0     H73126  11.246   2.091   1.200 -0.4534 -2.5661  2.1774
  530MOL0     H73127  11.337   2.236   1.047  0.5865 -2.7405 -1.8173
  530MOL0     H73128  11.445   2.419   0.984 -0.0305  0.9667 -0.8973
  530MOL0     H73129  11.546   2.472   1.117 -0.5930  0.8909  0.0106
  530MOL0     H73130  11.576   2.616   0.912  2.3231  0.0380  0.3462
  530MOL0     H73131  11.640   2.466   0.834 -1.1564 -0.8310 -0.9514
  530MOL0     H73132  11.742   2.645   1.050 -0.9756  0.4533 -0.6978
  530MOL0     H73133  11.809   2.482   1.045  3.6601  0.3543 -2.1198
  530MOL0     H73134  11.884   2.532   0.813  0.3766  1.3441 -1.7125
  530MOL0     H73135  11.949   2.655   0.938 -1.8916  1.5487  1.4928
  530MOL0     H73136  11.770   2.901   0.652 -1.2954  0.4659  0.9905
  530MOL0     H73137  11.735   2.146   1.178  0.3467 -2.0564 -0.7035
  530MOL0     H73138  11.778   1.956   1.336  0.5765 -1.5850 -0.1361
  530MOL0     H73139  11.675   2.010   1.462 -1.5130  1.4653 -0.5523
  530MOL0     H73140  11.623   1.864   1.358 -1.1294  0.5562 -2.9841
  531MOL0     O73141   4.176  11.545   9.259 -0.2688 -0.1378 -0.4946
  531MOL0     C73142   4.238  11.556   9.360 -0.5181  0.1326  0.4441
  531MOL0     O73143   4.197  11.598   9.479 -0.2475 -0.1715 -0.9516
  531MOL0     C73144   4.072  11.632   9.495 -0.5316 -0.6066  0.5308
  531MOL0     C73145   4.036  11.761   9.536 -0.9465 -0.0129  0.3272
  531MOL0     C73146   3.907  11.803   9.553  0.5981  0.1211  0.2575
  531MOL0     C73147   3.802  11.709   9.530  0.3881 -0.5160  0.0433
  531MOL0     O73148   3.665  11.727   9.556  0.6509  0.6315  0.4114
  531MOL0     C73149   3.623  11.841   9.635  0.2269  0.6549  0.2614
  531MOL0     C73150   3.514  11.802   9.735 -1.1380 -0.0249 -0.5629
  531MOL0     C73151   3.563  11.692   9.826  0.7095 -0.7272 -1.1501
  531MOL0     C73152   3.449  11.623   9.898  0.6571  0.5560 -0.4140
  531MOL0     C73153   3.483  11.548  10.025 -0.5539  0.3278 -0.7188
  531MOL0     C73154   3.373  11.461  10.086 -0.1272  0.6697 -0.3005
  531MOL0     C73155   3.416  11.428  10.229 -0.1061 -0.1573  0.4342
  531MOL0     C73156   3.535  11.338  10.231 -0.0388  0.4201 -0.2465
  531MOL0     N73157   3.600  11.317  10.366  0.1806  0.4440 -0.2552
  531MOL0     C73158   3.701  11.229  10.387 -0.0811 -0.2608 -0.4891
  531MOL0     C73159   3.718  11.233  10.521  0.2306  0.2593  0.4877
  531MOL0     C73160   3.815  11.163  10.616 -0.0606 -0.0577  0.4225
  531MOL0     C73161   3.749  11.033  10.661 -0.8919 -0.9326  0.0691
  531MOL0     C73162   3.638  11.059  10.765  0.3905  0.0457  0.2602
  531MOL0     C73163   3.570  10.935  10.829 -0.6822 -0.0199 -0.7788
  531MOL0     O73164   3.673  10.840  10.863 -0.4990  0.0265  0.3636
  531MOL0     C73165   3.619  10.730  10.915  0.4918 -0.9686 -0.8421
  531MOL0     C73166   3.492  10.693  10.903  1.3485 -0.0091  0.1044
  531MOL0     C73167   3.452  10.558  10.935  0.3522  1.3284 -0.5204
  531MOL0     C73168   3.307  10.529  10.915  0.6307  1.0239 -0.2707
  531MOL0     C73169   3.547  10.462  10.986  0.0154 -0.7570  1.2822
  531MOL0     C73170   3.514  10.327  11.022 -0.2221  0.0970 -0.3422
  531MOL0     O73171   3.613  10.238  11.012  1.0372 -0.2807 -0.5164
  531MOL0     C73172   3.605  10.126  11.082  0.7599 -0.5902  1.0305
  531MOL0     C73173   3.702  10.097  11.170  0.1176 -0.6355 -0.8789
  531MOL0     C73174   3.709   9.961  11.222  0.1997  0.2415 -0.7589
  531MOL0     C73175   3.605   9.866  11.186  0.0546  0.1356 -0.4163
  531MOL0     O73176   3.587   9.745  11.255 -0.3892 -0.3973  0.1698
  531MOL0     C73177   3.692   9.661  11.302 -0.1265 -0.5045  0.3088
  531MOL0     C73178   3.657   9.527  11.237 -0.2203  0.6983  0.6903
  531MOL0     C73179   3.637   9.525  11.088  0.5485 -0.7786  0.0700
  531MOL0     C73180   3.759   9.558  10.998 -0.3248  0.0107 -0.4771
  531MOL0     C73181   3.726   9.517  10.853  0.8285  0.1292 -0.2652
  531MOL0     C73182   3.736   9.363  10.825  0.2904  0.4210 -0.3469
  531MOL0     C73183   3.885   9.316  10.830 -0.0617  0.6472  0.2509
  531MOL0     C73184   3.959   9.319  10.698  0.0447 -0.2956  0.7720
  531MOL0    Cl73185   4.119   9.237  10.703  0.2331 -0.1250 -0.0343
  531MOL0     C73186   3.497   9.908  11.102  0.0642  0.6589  0.0291
  531MOL0     C73187   3.505  10.032  11.044 -0.1403 -0.1483 -0.1931
  531MOL0     O73188   3.407  10.302  11.076  0.2559 -0.1286 -0.0789
  531MOL0     C73189   3.672  10.510  11.008  1.1164  0.0457  0.0606
  531MOL0     C73190   3.709  10.639  10.969  1.3703 -0.1482  0.4697
  531MOL0     N73191   3.629  11.327  10.573 -0.3171  0.1449 -0.4841
  531MOL0     N73192   3.568  11.385  10.480  0.1026 -0.1731 -0.8933
  531MOL0     C73193   3.839  11.574   9.483  0.3759  0.7525  0.4456
  531MOL0     C73194   3.974  11.534   9.468  1.0701 -0.2338  0.2151
  531MOL0     C73195   4.391  11.553   9.352 -0.0906  0.8912  0.0800
  531MOL0     C73196   4.457  11.628   9.450 -0.8195 -0.4921  0.6126
  531MOL0     C73197   4.595  11.630   9.443  0.0110 -0.2361 -0.7358
  531MOL0     C73198   4.671  11.557   9.349  0.7436  0.2639 -0.2039
  531MOL0     O73199   4.805  11.578   9.348 -0.2501 -0.0925  0.3438
  531MOL0     C73200   4.886  11.497   9.256 -0.0102  1.1041  0.1283
  531MOL0     C73201   5.009  11.581   9.210  0.0942  0.4678 -0.7975
  531MOL0     C73202   5.111  11.626   9.321  0.3562 -0.0072 -0.0038
  531MOL0     C73203   5.153  11.503   9.402  0.5261  0.8422  0.1725
  531MOL0     C73204   5.240  11.546   9.510 -0.4806 -0.6725  0.2365
  531MOL0     C73205   5.311  11.597   9.596 -0.5758 -0.1575 -0.1015
  531MOL0     C73206   4.601  11.463   9.269 -0.0899  0.2962 -0.0066
  531MOL0     C73207   4.466  11.459   9.271 -0.1925 -0.6495 -0.6678
  531MOL0     C73208   4.401  11.344   9.204 -0.5210  0.0745  0.1500
  531MOL0     H73209   4.112  11.830   9.572 -1.6309  0.1089  1.5556
  531MOL0     H73210   3.890  11.904   9.588 -1.9099 -0.0709 -0.1900
  531MOL0     H73211   3.573  11.923   9.583  0.5714  3.2995  3.7491
  531MOL0     H73212   3.705  11.880   9.696  0.8356  0.5275 -0.4642
  531MOL0     H73213   3.491  11.889   9.798 -1.2348  0.4913 -1.2998
  531MOL0     H73214   3.422  11.776   9.681 -0.2017 -0.0078 -2.2190
  531MOL0     H73215   3.625  11.623   9.768  1.6668 -1.0380  0.1939
  531MOL0     H73216   3.621  11.746   9.901  0.5524 -0.3994 -1.2641
  531MOL0     H73217   3.382  11.705   9.924  0.6254  0.2754  0.4246
  531MOL0     H73218   3.391  11.556   9.834  1.9971 -1.1512  0.0952
  531MOL0     H73219   3.521  11.621  10.096 -2.6691  1.6904 -0.9214
  531MOL0     H73220   3.566  11.478  10.008 -0.6572 -0.1753  0.7421
  531MOL0     H73221   3.282  11.521  10.094 -0.9339 -0.7474  3.1254
  531MOL0     H73222   3.361  11.366  10.033 -0.5635  0.1871  0.6292
  531MOL0     H73223   3.329  11.389  10.283  0.7676  1.3228  3.1370
  531MOL0     H73224   3.442  11.520  10.283 -2.5887  1.5710 -1.1157
  531MOL0     H73225   3.501  11.239  10.199 -0.3108 -0.3450  2.2412
  531MOL0     H73226   3.612  11.356  10.155 -0.3967 -0.3830 -0.8109
  531MOL0     H73227   3.761  11.175  10.315  1.1494  0.1365  0.2093
  531MOL0     H73228   3.840  11.241  10.689 -0.8120  0.3144  0.2973
  531MOL0     H73229   3.915  11.144  10.577 -0.2081  0.7934 -0.4104
  531MOL0     H73230   3.694  11.004  10.571 -1.5966  4.1857 -1.5087
  531MOL0     H73231   3.817  10.956  10.697 -2.5768 -2.1111  0.8365
  531MOL0     H73232   3.681  11.120  10.845  2.5410 -1.8796  0.6656
  531MOL0     H73233   3.560  11.117  10.715  0.2651 -1.1679 -1.0231
  531MOL0     H73234   3.512  10.970  10.914 -3.5544 -3.8269 -0.9164
  531MOL0     H73235   3.514  10.880  10.753 -0.0067  1.6108 -2.5412
  531MOL0     H73236   3.410  10.756  10.871  1.9408  0.6119 -0.2086
  531MOL0     H73237   3.258  10.554  11.010 -0.0811  0.4287 -0.4754
  531MOL0     H73238   3.273  10.426  10.904  0.2884  1.0797  0.2003
  531MOL0     H73239   3.270  10.583  10.827  0.4033  0.1381 -0.7271
  531MOL0     H73240   3.767  10.182  11.186  5.3393 -3.9399 -1.9185
  531MOL0     H73241   3.795   9.937  11.284 -1.2814 -0.2378  1.2078
  531MOL0     H73242   3.789   9.685  11.257 -0.1217  4.6244  2.3781
  531MOL0     H73243   3.695   9.654  11.411 -1.0390 -3.4140  0.2344
  531MOL0     H73244   3.736   9.456  11.265  1.5227  2.5780  0.7713
  531MOL0     H73245   3.567   9.484  11.284  0.3835 -0.7900  0.5447
  531MOL0     H73246   3.549   9.582  11.058 -0.0318 -2.4395 -1.5493
  531MOL0     H73247   3.613   9.423  11.058  2.4278 -1.3798  0.4962
  531MOL0     H73248   3.844   9.497  11.031  1.0974  2.7490  1.2519
  531MOL0     H73249   3.793   9.661  11.011 -1.1068  0.7492 -3.5457
  531MOL0     H73250   3.626   9.553  10.829  0.0779 -0.4661  1.7674
  531MOL0     H73251   3.787   9.577  10.784  0.3117  0.9151 -0.0468
  531MOL0     H73252   3.690   9.320  10.735 -0.2735 -2.7662  1.3226
  531MOL0     H73253   3.683   9.319  10.910  2.0039  2.1001  1.6997
  531MOL0     H73254   3.882   9.209  10.853  1.1295 -0.3822 -3.6681
  531MOL0     H73255   3.934   9.353  10.920  1.8180  2.0437 -1.2649
  531MOL0     H73256   3.978   9.424  10.674  2.4153 -1.1670 -1.7037
  531MOL0     H73257   3.904   9.282  10.611 -0.6610  0.5597  0.8264
  531MOL0     H73258   3.433   9.831  11.058 -0.1049  0.6488  0.2898
  531MOL0     H73259   3.435  10.049  10.963  0.7093  0.0362 -0.9030
  531MOL0     H73260   3.745  10.445  11.054  1.7036  0.6418 -0.0104
  531MOL0     H73261   3.812  10.671  10.980  1.0503  1.6097 -1.0640
  531MOL0     H73262   3.754  11.507   9.471  1.7678 -0.8670 -0.9571
  531MOL0     H73263   4.002  11.430   9.453 -1.3227 -1.1143  1.2786
  531MOL0     H73264   4.407  11.706   9.505  1.1270 -0.0105  1.7927
  531MOL0     H73265   4.645  11.698   9.511  2.2657 -2.0581 -0.4556
  531MOL0     H73266   4.920  11.404   9.303  0.8409  1.5906  0.4967
  531MOL0     H73267   4.843  11.468   9.160 -1.4486  3.2926  0.0262
  531MOL0     H73268   4.961  11.669   9.165  0.0214  1.9728  2.0472
  531MOL0     H73269   5.065  11.518   9.140 -2.0668 -0.4797 -1.7887
  531MOL0     H73270   5.198  11.673   9.274  1.2630 -0.4048  1.2020
  531MOL0     H73271   5.053  11.699   9.378  0.0144 -0.1808 -0.1278
  531MOL0     H73272   5.212  11.429   9.346 -3.6989 -2.1239 -0.8490
  531MOL0     H73273   5.069  11.442   9.438  0.1671  1.2963  0.1123
  531MOL0     H73274   5.373  11.653   9.662 -0.2096  1.3046 -1.6169
  531MOL0     H73275   4.650  11.390   9.204 -0.8289 -1.7253  1.5864
  531MOL0     H73276   4.424  11.246   9.247  0.0031  0.1891  0.1405
  531MOL0     H73277   4.292  11.352   9.208 -0.5357 -0.4219  0.9111
  531MOL0     H73278   4.429  11.352   9.099  0.5585 -0.5028  0.3827
  532MOL0     O73279   2.868   2.658  10.731  0.0732  0.6082  0.3893
  532MOL0     C73280   2.873   2.597  10.844 -0.2532  0.4060  0.0606
  532MOL0     O73281   2.767   2.596  10.934  0.3484 -0.1542 -0.4678
  532MOL0     C73282   2.638   2.644  10.909 -0.4305 -0.5471  0.1838
  532MOL0     C73283   2.557   2.695  11.021  0.6251  1.1007  0.8627
  532MOL0     C73284   2.432   2.762  10.993  0.4950  0.1585  0.6387
  532MOL0     C73285   2.385   2.783  10.864  0.1106 -0.2284  0.0133
  532MOL0     O73286   2.291   2.869  10.820 -0.1302  0.3570 -0.3449
  532MOL0     C73287   2.224   2.953  10.904  0.0603 -0.1789 -0.7331
  532MOL0     C73288   2.129   3.038  10.820  0.2574  0.0977 -0.3756
  532MOL0     C73289   2.191   3.154  10.740  1.1023  0.3527  1.2136
  532MOL0     C73290   2.274   3.271  10.799 -1.1613  0.6295 -0.3651
  532MOL0     C73291   2.274   3.397  10.713  0.5349 -0.3437 -0.1858
  532MOL0     C73292   2.375   3.488  10.757 -0.2532  1.3770 -0.4314
  532MOL0     C73293   2.514   3.430  10.715 -0.5174  0.7488  0.0667
  532MOL0     C73294   2.609   3.550  10.706  0.1021  0.0565  0.5818
  532MOL0     N73295   2.637   3.592  10.847 -0.0857 -0.0021  0.3115
  532MOL0     C73296   2.731   3.541  10.936 -0.0143 -0.3339  0.3660
  532MOL0     C73297   2.716   3.612  11.049  0.3098 -1.1533  0.6024
  532MOL0     C73298   2.792   3.572  11.178  0.2410 -0.1026 -0.0208
  532MOL0     C73299   2.695   3.581  11.293  0.2565  0.4566 -1.2615
  532MOL0     C73300   2.592   3.471  11.298  0.4864 -0.2988 -1.1589
  532MOL0     C73301   2.477   3.491  11.412  0.5628 -0.8599  0.5456
  532MOL0     O73302   2.540   3.491  11.535 -0.4504  0.0295 -0.2846
  532MOL0     C73303   2.617   3.386  11.581 -0.1303 -0.4542  0.0917
  532MOL0     C73304   2.596   3.256  11.547  0.6953  0.2686 -0.7921
  532MOL0     C73305   2.682   3.152  11.589 -0.0984 -0.3261  0.9498
  532MOL0     C73306   2.660   3.020  11.523  0.3655 -0.5392 -0.3389
  532MOL0     C73307   2.770   3.186  11.685 -0.0663  0.2312  0.3738
  532MOL0     C73308   2.843   3.077  11.763  0.1168 -0.4108 -0.4395
  532MOL0     O73309   2.905   3.124  11.873  0.5816 -0.4183  0.9226
  532MOL0     C73310   2.963   3.032  11.944 -0.5483 -0.8118 -0.6634
  532MOL0     C73311   3.103   3.027  11.951  0.2668 -0.6333  0.3629
  532MOL0     C73312   3.168   2.929  12.035  0.5123 -0.0316 -1.0058
  532MOL0     C73313   3.084   2.846  12.123  0.3697 -0.1926  0.2566
  532MOL0     O73314   3.131   2.755  12.211 -0.8762  0.0201  0.8697
  532MOL0     C73315   3.264   2.712  12.204 -0.9290  0.7941  0.3540
  532MOL0     C73316   3.266   2.610  12.308 -0.7773 -0.0038  0.3947
  532MOL0     C73317   3.393   2.520  12.296  0.2343 -0.5371 -0.2427
  532MOL0     C73318   3.525   2.582  12.342  0.0903 -0.2745 -1.0159
  532MOL0     C73319   3.632   2.471  12.351  0.0662 -0.8230 -0.7221
  532MOL0     C73320   3.693   2.449  12.209 -0.2590  0.0546 -0.8067
  532MOL0     C73321   3.818   2.354  12.208  0.1814  0.0247  0.7184
  532MOL0     C73322   3.818   2.279  12.062  0.8588  0.0676  1.1946
  532MOL0    Cl73323   3.669   2.192  12.006  0.3960  0.2388  0.4838
  532MOL0     C73324   2.942   2.862  12.121  1.3743  0.4529  0.0804
  532MOL0     C73325   2.890   2.953  12.034 -0.3935  1.2758  0.2512
  532MOL0     O73326   2.851   2.968  11.718  0.1609  0.4014 -0.2325
  532MOL0     C73327   2.785   3.320  11.724  0.1359 -0.2592  0.6309
  532MOL0     C73328   2.711   3.420  11.679 -0.8151  0.3448  1.1138
  532MOL0     N73329   2.616   3.707  11.017  0.7171  0.1786 -0.1158
  532MOL0     N73330   2.570   3.696  10.901  0.4156  1.0615 -0.4334
  532MOL0     C73331   2.455   2.723  10.759 -0.5039 -0.0208 -0.0478
  532MOL0     C73332   2.573   2.659  10.780 -0.2439  0.0214 -1.2054
  532MOL0     C73333   2.996   2.518  10.870 -0.8262 -0.4023 -0.9565
  532MOL0     C73334   3.121   2.580  10.833 -0.0778  0.0407 -0.8894
  532MOL0     C73335   3.244   2.515  10.851 -0.3635 -0.1686 -0.4769
  532MOL0     C73336   3.249   2.396  10.924 -0.2076  0.2918  0.5180
  532MOL0     O73337   3.374   2.349  10.959  0.1036  0.2407  0.5920
  532MOL0     C73338   3.367   2.235  11.036  0.2859 -0.8876  0.4334
  532MOL0     C73339   3.498   2.185  11.076  0.2022 -0.1536 -0.2319
  532MOL0     C73340   3.532   2.187  11.218 -0.6826 -0.6862  0.4229
  532MOL0     C73341   3.674   2.141  11.241  0.9279 -0.3532  0.4893
  532MOL0     C73342   3.770   2.247  11.212 -0.5834  0.2647 -0.1657
  532MOL0     C73343   3.840   2.338  11.169 -0.4391  0.2951  0.3447
  532MOL0     C73344   3.124   2.342  10.963 -0.8547  0.1148  0.0553
  532MOL0     C73345   3.004   2.399  10.935 -0.4137 -0.0443 -0.4543
  532MOL0     C73346   2.887   2.315  10.973 -0.0049  0.8592 -0.6618
  532MOL0     H73347   2.589   2.706  11.124 -1.2829  3.6640  1.3042
  532MOL0     H73348   2.398   2.825  11.074  3.3120  2.0047  0.5296
  532MOL0     H73349   2.286   3.016  10.968 -1.7748  0.4189  0.5419
  532MOL0     H73350   2.162   2.903  10.979 -0.8220  0.7472 -0.8292
  532MOL0     H73351   2.074   2.967  10.758 -2.8507  0.0988  2.1275
  532MOL0     H73352   2.047   3.079  10.879 -0.1882 -4.0919  2.3553
  532MOL0     H73353   2.245   3.113  10.655 -1.3438 -0.6056  0.0115
  532MOL0     H73354   2.102   3.190  10.687 -1.2854 -4.3914  1.4243
  532MOL0     H73355   2.241   3.290  10.902  1.5729 -1.1930  0.9808
  532MOL0     H73356   2.373   3.225  10.807 -1.3559  0.2134 -0.3223
  532MOL0     H73357   2.174   3.443  10.710 -0.7994 -3.0143 -3.3113
  532MOL0     H73358   2.297   3.368  10.610 -0.3079 -3.8693  0.4964
  532MOL0     H73359   2.353   3.564  10.681 -1.6061  0.3008 -1.1759
  532MOL0     H73360   2.357   3.530  10.857  2.7151  1.2802  0.2253
  532MOL0     H73361   2.518   3.370  10.624 -1.4262 -1.9943  1.7043
  532MOL0     H73362   2.547   3.362  10.794  0.0137  0.1540 -0.6628
  532MOL0     H73363   2.695   3.532  10.640 -2.7140 -0.4530 -3.2238
  532MOL0     H73364   2.563   3.634  10.655 -0.0878 -1.2336 -1.5144
  532MOL0     H73365   2.798   3.456  10.925 -1.0249 -0.9687 -1.3214
  532MOL0     H73366   2.874   3.644  11.189 -0.3008  1.1766 -3.2644
  532MOL0     H73367   2.829   3.470  11.163 -2.3565 -0.9548 -1.3410
  532MOL0     H73368   2.747   3.578  11.389 -4.1259  2.6039  1.5633
  532MOL0     H73369   2.646   3.679  11.299 -0.1423  0.1793  1.3916
  532MOL0     H73370   2.534   3.464  11.205 -2.0547  3.3546 -0.0629
  532MOL0     H73371   2.649   3.379  11.315  0.6488 -0.0748 -0.4782
  532MOL0     H73372   2.412   3.578  11.407  0.7367 -0.6949  1.0515
  532MOL0     H73373   2.413   3.403  11.410 -1.0398  0.1029  3.2355
  532MOL0     H73374   2.516   3.234  11.477 -0.5214  1.3930  0.1950
  532MOL0     H73375   2.631   2.941  11.594  0.5198 -1.4254 -1.2362
  532MOL0     H73376   2.747   2.960  11.494  1.2640 -0.4819  2.0196
  532MOL0     H73377   2.580   3.026  11.448  0.7066  0.8802 -0.6037
  532MOL0     H73378   3.161   3.094  11.889 -0.0326 -0.0548  0.7069
  532MOL0     H73379   3.276   2.934  12.045  0.4308 -1.3467  1.2673
  532MOL0     H73380   3.295   2.678  12.105  2.3848  2.8235  0.5611
  532MOL0     H73381   3.326   2.799  12.230 -1.5697  1.3022  0.2276
  532MOL0     H73382   3.264   2.659  12.406 -0.8663  0.5598  0.1158
  532MOL0     H73383   3.183   2.539  12.314 -1.8044  1.1478  0.2087
  532MOL0     H73384   3.414   2.500  12.190  3.3063  1.0418 -0.0468
  532MOL0     H73385   3.360   2.425  12.339  0.5125  0.0072  1.2272
  532MOL0     H73386   3.511   2.613  12.446 -4.6763 -1.8245 -0.9533
  532MOL0     H73387   3.556   2.672  12.288  1.0313 -1.2388 -2.1357
  532MOL0     H73388   3.701   2.518  12.422 -2.7118  2.6124 -0.0361
  532MOL0     H73389   3.601   2.375  12.392 -1.1169  0.3638  1.3610
  532MOL0     H73390   3.748   2.536  12.172 -0.3744 -0.7721 -3.0913
  532MOL0     H73391   3.622   2.429  12.128 -0.2361 -1.0346 -0.5770
  532MOL0     H73392   3.803   2.274  12.282  1.2605  0.3799  1.3442
  532MOL0     H73393   3.909   2.410  12.230  0.6231  0.4145 -1.8117
  532MOL0     H73394   3.888   2.195  12.059  1.1869  0.2852  2.2515
  532MOL0     H73395   3.840   2.355  11.987  0.5562 -2.3451 -1.5274
  532MOL0     H73396   2.887   2.802  12.193 -1.0959  0.5272 -1.6215
  532MOL0     H73397   2.783   2.954  12.015 -0.2561 -0.4403 -0.8009
  532MOL0     H73398   2.842   3.340  11.814 -0.3323 -2.3481  1.4496
  532MOL0     H73399   2.731   3.527  11.683 -4.8203  1.3958 -1.5600
  532MOL0     H73400   2.404   2.720  10.663  1.0452 -1.6928 -0.8730
  532MOL0     H73401   2.629   2.614  10.699 -0.1354  1.3644 -1.9070
  532MOL0     H73402   3.118   2.671  10.774  0.9007  1.7191  1.4615
  532MOL0     H73403   3.331   2.570  10.817  1.2859 -2.2564  0.1110
  532MOL0     H73404   3.317   2.264  11.129  2.2344  2.4276  0.6176
  532MOL0     H73405   3.310   2.154  10.990  0.4367 -0.2412 -0.9345
  532MOL0     H73406   3.581   2.233  11.023 -0.8293  3.6728  1.2790
  532MOL0     H73407   3.496   2.079  11.047 -0.6365  0.1113 -1.2028
  532MOL0     H73408   3.520   2.287  11.262  0.9286 -0.1965 -0.1874
  532MOL0     H73409   3.475   2.119  11.281  0.1142 -1.1009  0.7054
  532MOL0     H73410   3.701   2.051  11.184  4.4836  0.8005  0.0762
  532MOL0     H73411   3.679   2.112  11.347  0.5693  1.0639  0.9079
  532MOL0     H73412   3.912   2.409  11.134 -1.0649  0.5344 -0.4652
  532MOL0     H73413   3.120   2.241  11.003 -2.4193 -0.3583 -1.2225
  532MOL0     H73414   2.914   2.210  10.959  0.8814  0.6524  2.0974
  532MOL0     H73415   2.861   2.337  11.077  0.1275  0.2310 -0.4918
  532MOL0     H73416   2.808   2.346  10.904 -1.0879 -0.6854 -0.1596
  533MOL0     O73417   7.591   9.518   7.243  0.1273 -0.5109  0.2351
  533MOL0     C73418   7.554   9.555   7.350  0.1773 -0.6112 -0.6126
  533MOL0     O73419   7.489   9.667   7.373  0.5998  0.2239  0.0180
  533MOL0     C73420   7.437   9.732   7.259  0.0974 -0.7675  0.6729
  533MOL0     C73421   7.332   9.673   7.196  0.1420 -1.2023  0.8850
  533MOL0     C73422   7.279   9.736   7.076 -0.2360 -0.0288  0.4170
  533MOL0     C73423   7.324   9.859   7.023  0.9656  0.6882  0.5779
  533MOL0     O73424   7.271   9.932   6.918 -0.3703  0.6800 -0.1876
  533MOL0     C73425   7.130   9.934   6.903  0.7176  0.1640  0.0255
  533MOL0     C73426   7.046  10.003   7.016 -0.6014  0.3694 -0.5560
  533MOL0     C73427   6.895  10.016   6.970 -0.3787  0.5274 -0.0792
  533MOL0     C73428   6.891  10.126   6.863  1.1342  0.3420  1.0676
  533MOL0     C73429   6.747  10.172   6.840  0.6568 -0.6450 -0.2668
  533MOL0     C73430   6.754  10.302   6.754  0.6453 -0.1896 -0.4701
  533MOL0     C73431   6.818  10.284   6.605  0.4057 -0.7344 -0.2288
  533MOL0     C73432   6.815  10.411   6.526 -0.2077  0.5600 -0.5024
  533MOL0     N73433   6.691  10.434   6.452 -0.8249 -1.3278 -0.4308
  533MOL0     C73434   6.680  10.446   6.316 -0.0876 -0.0145  0.0520
  533MOL0     C73435   6.548  10.449   6.292 -0.0771  0.3649 -0.5950
  533MOL0     C73436   6.481  10.478   6.165  0.2538  0.3283  0.5417
  533MOL0     C73437   6.534  10.616   6.104  0.0635 -0.9668 -0.3104
  533MOL0     C73438   6.460  10.668   5.979  0.3790 -0.7014 -0.7262
  533MOL0     C73439   6.330  10.720   6.039 -0.1790 -0.4965  0.1855
  533MOL0     O73440   6.268  10.801   5.933  0.6029  0.7899  0.1903
  533MOL0     C73441   6.188  10.744   5.835 -0.2927  0.8897  0.6953
  533MOL0     C73442   6.165  10.828   5.728  0.7508  0.1783 -0.9024
  533MOL0     C73443   6.082  10.791   5.627 -0.9894 -0.2863  0.3727
  533MOL0     C73444   6.050  10.879   5.517 -0.2920 -0.0740  0.1209
  533MOL0     C73445   6.028  10.659   5.619 -0.2303  0.1541 -0.5594
  533MOL0     C73446   5.964  10.595   5.495 -0.0834  0.8433  0.2278
  533MOL0     O73447   5.993  10.460   5.475  0.0580 -0.3589 -0.3230
  533MOL0     C73448   5.915  10.394   5.390 -1.4470  0.9899 -0.2529
  533MOL0     C73449   5.779  10.363   5.418  0.2631 -0.5179 -0.2583
  533MOL0     C73450   5.701  10.293   5.322 -0.2180 -0.4082  0.0190
  533MOL0     C73451   5.752  10.266   5.193 -0.1138  0.4435  0.6296
  533MOL0     O73452   5.689  10.187   5.099  0.9544  0.8728  0.1692
  533MOL0     C73453   5.588  10.250   5.025  0.1016  0.5063  1.1886
  533MOL0     C73454   5.556  10.159   4.899  0.0786  0.7589 -1.5334
  533MOL0     C73455   5.649  10.169   4.779  0.7297 -0.8438  0.4251
  533MOL0     C73456   5.656  10.056   4.678 -0.1102 -0.8389  0.9748
  533MOL0     C73457   5.723  10.095   4.547  0.4688 -0.2134 -0.1108
  533MOL0     C73458   5.750   9.970   4.462 -1.0369  0.6797  1.1896
  533MOL0     C73459   5.907   9.939   4.470 -0.7116  0.2070 -0.7518
  533MOL0     C73460   5.943   9.805   4.391 -0.4734 -0.4770  0.1925
  533MOL0    Cl73461   5.856   9.661   4.458 -0.3732  0.1507 -0.7964
  533MOL0     C73462   5.889  10.294   5.168 -0.5765 -0.3686 -0.2900
  533MOL0     C73463   5.965  10.359   5.267  0.0584 -0.7730  0.9024
  533MOL0     O73464   5.890  10.659   5.419 -0.0277  0.2429  0.1241
  533MOL0     C73465   6.053  10.574   5.729 -0.3611  0.1888 -0.8122
  533MOL0     C73466   6.131  10.619   5.832  0.2620  0.0239  0.2180
  533MOL0     N73467   6.485  10.460   6.418  0.3917  0.4902  1.0869
  533MOL0     N73468   6.572  10.455   6.510 -0.4289  0.3729 -0.3725
  533MOL0     C73469   7.436   9.911   7.083  1.1129  0.3806 -0.1035
  533MOL0     C73470   7.485   9.859   7.204 -0.6361 -0.1278 -0.4050
  533MOL0     C73471   7.582   9.477   7.476 -0.8231 -1.0778 -0.2312
  533MOL0     C73472   7.630   9.545   7.591 -0.0819  0.0371 -1.0665
  533MOL0     C73473   7.671   9.470   7.710 -0.1230  0.4651  0.9576
  533MOL0     C73474   7.655   9.328   7.704 -0.9923 -0.4990 -0.1292
  533MOL0     O73475   7.690   9.241   7.791 -0.7171 -0.2071 -0.4217
  533MOL0     C73476   7.800   9.287   7.872  1.1581  0.2874  0.0791
  533MOL0     C73477   7.853   9.146   7.916 -0.0842 -0.4995  0.1401
  533MOL0     C73478   7.947   9.160   8.032  1.3789  1.2303  0.7640
  533MOL0     C73479   7.961   9.026   8.103 -0.8196  0.3706 -0.4936
  533MOL0     C73480   8.039   9.048   8.231  0.4784 -0.6617  0.3931
  533MOL0     C73481   8.108   9.061   8.335  0.4797 -0.0666  0.9757
  533MOL0     C73482   7.603   9.265   7.595 -0.6342  0.4149  0.4333
  533MOL0     C73483   7.569   9.336   7.479  1.0298 -0.7633 -0.1478
  533MOL0     C73484   7.520   9.258   7.361  1.2189 -0.0945  0.1605
  533MOL0     H73485   7.274   9.597   7.248 -2.0927 -1.1295 -1.3146
  533MOL0     H73486   7.175   9.717   7.049  0.2534 -4.6049  0.8269
  533MOL0     H73487   7.095   9.830   6.906 -0.9672  0.7343  1.2617
  533MOL0     H73488   7.109   9.977   6.805 -1.4350 -0.6567  0.0698
  533MOL0     H73489   7.036   9.935   7.101  0.4162  3.9508  2.7169
  533MOL0     H73490   7.085  10.098   7.051 -2.4223  2.1067 -2.8860
  533MOL0     H73491   6.852   9.921   6.938 -0.3379  0.0262  1.2758
  533MOL0     H73492   6.833  10.048   7.054  0.5992  3.0150 -0.2228
  533MOL0     H73493   6.950  10.214   6.890  0.5312  1.4001 -0.8905
  533MOL0     H73494   6.929  10.082   6.771 -0.4889  0.6962  0.1723
  533MOL0     H73495   6.701  10.200   6.935  2.8017 -0.3276  0.7306
  533MOL0     H73496   6.684  10.096   6.792 -0.7478  0.8675 -0.9228
  533MOL0     H73497   6.647  10.325   6.746 -0.3119 -3.2179  1.6896
  533MOL0     H73498   6.794  10.379   6.820  0.7074 -1.4380  0.9908
  533MOL0     H73499   6.755  10.210   6.555  2.6093 -1.9074 -1.3718
  533MOL0     H73500   6.919  10.243   6.604 -0.2237 -2.3471 -0.3270
  533MOL0     H73501   6.827  10.490   6.600 -1.5032 -1.9600  2.6667
  533MOL0     H73502   6.896  10.420   6.453 -2.8291 -0.6730 -3.8534
  533MOL0     H73503   6.769  10.459   6.255 -1.2177  0.1240 -1.6283
  533MOL0     H73504   6.373  10.474   6.177 -0.0107 -1.9449 -1.8005
  533MOL0     H73505   6.496  10.396   6.095 -1.2682 -0.7905  1.4828
  533MOL0     H73506   6.531  10.692   6.182  2.9801 -0.3596 -0.6732
  533MOL0     H73507   6.640  10.611   6.076  0.1328  3.2470 -1.3336
  533MOL0     H73508   6.515  10.745   5.925  2.0396 -0.5632  1.0411
  533MOL0     H73509   6.451  10.585   5.908 -0.2661  1.0357 -2.7773
  533MOL0     H73510   6.276  10.635   6.081  0.9407 -3.2701 -3.4957
  533MOL0     H73511   6.356  10.790   6.119  2.7980 -0.2542 -0.8892
  533MOL0     H73512   6.216  10.923   5.736 -1.5363  1.3635  0.6588
  533MOL0     H73513   5.945  10.904   5.539 -0.0831  0.6188  0.3508
  533MOL0     H73514   6.053  10.830   5.419 -0.3801 -1.4109  0.7655
  533MOL0     H73515   6.110  10.970   5.513 -2.5732  1.4862 -0.8257
  533MOL0     H73516   5.745  10.403   5.514  0.7795 -1.0279  0.1465
  533MOL0     H73517   5.603  10.265   5.357  0.0976 -1.3463  0.1653
  533MOL0     H73518   5.494  10.276   5.075 -0.1952  2.8941 -0.4456
  533MOL0     H73519   5.623  10.350   4.999  1.6654 -0.7754 -2.2508
  533MOL0     H73520   5.551  10.059   4.943 -3.4179  0.7655 -1.6587
  533MOL0     H73521   5.453  10.184   4.872 -0.1704  3.4792  1.3380
  533MOL0     H73522   5.751  10.180   4.818  0.4191 -0.0763  1.0566
  533MOL0     H73523   5.623  10.255   4.717 -1.9878 -1.7747  0.1487
  533MOL0     H73524   5.553  10.020   4.672 -0.7766  0.8922  1.3664
  533MOL0     H73525   5.707   9.973   4.728  1.3447  0.6658  2.1090
  533MOL0     H73526   5.647  10.138   4.480  0.4758  2.2827  1.3861
  533MOL0     H73527   5.814  10.155   4.548 -1.0589  2.2277  0.5060
  533MOL0     H73528   5.720   9.983   4.357 -1.9185 -3.4334  0.7482
  533MOL0     H73529   5.701   9.874   4.483  1.8407 -1.5158 -1.2701
  533MOL0     H73530   5.937   9.938   4.575 -0.1245  1.1355 -0.8959
  533MOL0     H73531   5.966  10.023   4.431  1.8708 -1.1192  0.0760
  533MOL0     H73532   6.047   9.770   4.390 -1.1627 -2.8477  2.0902
  533MOL0     H73533   5.904   9.821   4.290 -1.5860 -0.7853  0.5627
  533MOL0     H73534   5.931  10.274   5.070 -3.3929 -1.0369 -1.4621
  533MOL0     H73535   6.066  10.386   5.238  0.1812 -2.5685 -0.4961
  533MOL0     H73536   6.004  10.477   5.732 -2.4822  1.2022 -0.8092
  533MOL0     H73537   6.133  10.561   5.923  1.1081 -0.2572  0.0290
  533MOL0     H73538   7.463  10.003   7.033  0.0148  0.0091 -1.4487
  533MOL0     H73539   7.564   9.911   7.257  0.3735 -2.1067  0.1274
  533MOL0     H73540   7.645   9.652   7.600 -0.0500  0.0353 -1.0962
  533MOL0     H73541   7.690   9.524   7.802  0.8187  1.2726  0.3079
  533MOL0     H73542   7.884   9.334   7.820 -0.2881  2.6624 -0.2461
  533MOL0     H73543   7.763   9.356   7.948 -1.2869 -0.0127 -0.7439
  533MOL0     H73544   7.883   9.092   7.827 -3.5599 -3.5935  0.5918
  533MOL0     H73545   7.767   9.085   7.945 -1.1036  0.9518  0.2902
  533MOL0     H73546   8.039   9.207   7.994  1.2553  0.2951 -0.7612
  533MOL0     H73547   7.897   9.228   8.102 -0.4107  0.0105  0.7317
  533MOL0     H73548   8.023   8.968   8.034  0.6616 -0.3938  1.3847
  533MOL0     H73549   7.866   8.975   8.124 -0.1809  0.4676  3.3398
  533MOL0     H73550   8.180   9.061   8.415  1.2261  2.8885  0.4320
  533MOL0     H73551   7.592   9.158   7.579  0.0903  0.5636 -1.3181
  533MOL0     H73552   7.443   9.319   7.312  1.1815 -1.4705 -1.6109
  533MOL0     H73553   7.596   9.229   7.287  1.8860 -0.4959  0.9891
  533MOL0     H73554   7.467   9.166   7.384 -2.6628  1.4743 -1.6479
  534MOL0     O73555   1.282   1.995   6.815 -1.0058  0.4988 -0.0488
  534MOL0     C73556   1.306   2.113   6.791  0.7313 -0.6358 -0.0426
  534MOL0     O73557   1.338   2.215   6.879  0.5015  0.3687  0.4789
  534MOL0     C73558   1.344   2.200   7.013  0.2764  0.2871 -0.3147
  534MOL0     C73559   1.326   2.091   7.090 -0.1648  1.1280  0.6386
  534MOL0     C73560   1.344   2.096   7.231  0.0887  0.6681 -0.2219
  534MOL0     C73561   1.357   2.217   7.307 -0.6819  0.0849  0.4775
  534MOL0     O73562   1.346   2.222   7.441  0.0031  0.8890  0.5320
  534MOL0     C73563   1.351   2.339   7.512 -0.1217 -0.4287  0.1781
  534MOL0     C73564   1.392   2.309   7.662  0.2046 -0.3616 -0.8527
  534MOL0     C73565   1.539   2.254   7.672 -0.0669  0.0584 -0.2883
  534MOL0     C73566   1.619   2.306   7.801 -0.1759  0.0444 -1.2427
  534MOL0     C73567   1.572   2.220   7.934 -0.5350  0.4583 -0.4119
  534MOL0     C73568   1.445   2.273   7.992  0.5898 -0.1944 -0.7835
  534MOL0     C73569   1.430   2.238   8.151  0.4208 -0.8255  0.2218
  534MOL0     C73570   1.414   2.095   8.185 -0.0108  0.6467  0.2567
  534MOL0     N73571   1.373   2.077   8.322 -0.5550 -0.0537 -0.8003
  534MOL0     C73572   1.287   2.168   8.386 -0.0636  0.4166  0.9523
  534MOL0     C73573   1.320   2.161   8.515  0.8039 -0.3287 -1.2417
  534MOL0     C73574   1.263   2.236   8.624  0.0300  0.5037  0.0226
  534MOL0     C73575   1.312   2.387   8.623  0.2694  0.2638 -0.1838
  534MOL0     C73576   1.429   2.410   8.712 -0.5601  0.1313  0.0278
  534MOL0     C73577   1.395   2.430   8.858 -0.1302  0.3729 -0.3207
  534MOL0     O73578   1.289   2.534   8.863  0.3619  0.5074 -0.1082
  534MOL0     C73579   1.284   2.576   8.996  0.7764 -0.3950  0.3761
  534MOL0     C73580   1.174   2.556   9.070  0.2412  0.6485 -1.0099
  534MOL0     C73581   1.171   2.579   9.203 -0.3505  0.8238 -0.3168
  534MOL0     C73582   1.042   2.550   9.270 -0.2752  0.1296  0.3317
  534MOL0     C73583   1.284   2.632   9.271 -0.6508  0.0753 -0.8710
  534MOL0     C73584   1.280   2.674   9.413 -1.4246 -0.3749 -0.2648
  534MOL0     O73585   1.403   2.694   9.475  0.0805 -0.7703  0.3583
  534MOL0     C73586   1.396   2.724   9.613 -1.1482 -0.5102 -0.3782
  534MOL0     C73587   1.453   2.649   9.706  0.1475  0.0067  0.9326
  534MOL0     C73588   1.457   2.685   9.838  1.3009  0.1527  0.4725
  534MOL0     C73589   1.408   2.808   9.890  0.0716 -0.8646 -0.0306
  534MOL0     O73590   1.406   2.828  10.019 -0.5354 -0.7662 -0.0401
  534MOL0     C73591   1.474   2.951  10.061 -0.1052 -0.6426 -0.0020
  534MOL0     C73592   1.455   2.964  10.213  0.5136 -0.0219 -0.2764
  534MOL0     C73593   1.521   3.098  10.259  0.3375  0.5186 -0.1212
  534MOL0     C73594   1.555   3.091  10.411 -0.9109  0.2616 -0.1827
  534MOL0     C73595   1.596   3.225  10.454 -0.3392 -0.5485 -0.7140
  534MOL0     C73596   1.673   3.229  10.588  0.1949 -0.1781  0.6811
  534MOL0     C73597   1.706   3.366  10.631  0.3032  0.0675 -0.0160
  534MOL0     C73598   1.759   3.352  10.775 -0.3527  0.8116  0.5999
  534MOL0    Cl73599   1.867   3.484  10.809 -0.0827 -0.5457 -0.3869
  534MOL0     C73600   1.360   2.895   9.787 -0.2249 -0.7874  0.6068
  534MOL0     C73601   1.344   2.845   9.653 -0.1511  0.0550 -0.3359
  534MOL0     O73602   1.167   2.699   9.462 -0.4429 -0.2947  0.3337
  534MOL0     C73603   1.399   2.647   9.196  0.5322  0.0978  1.0877
  534MOL0     C73604   1.400   2.631   9.060  1.3910  0.6666  0.2363
  534MOL0     N73605   1.429   2.077   8.529 -0.2067  0.0476 -1.3113
  534MOL0     N73606   1.470   2.041   8.414  0.2515  0.1852  1.0674
  534MOL0     C73607   1.365   2.329   7.216  0.2562 -0.3086  0.4956
  534MOL0     C73608   1.357   2.322   7.079 -0.1635  0.2453 -0.5132
  534MOL0     C73609   1.315   2.149   6.648  0.3506  0.3823 -0.1227
  534MOL0     C73610   1.351   2.283   6.607  0.2917 -0.1699 -0.3632
  534MOL0     C73611   1.380   2.320   6.477 -0.1516  0.0038  0.7019
  534MOL0     C73612   1.351   2.235   6.370 -0.8106  0.6330 -0.4046
  534MOL0     O73613   1.374   2.279   6.241  0.5921 -0.1299 -0.9135
  534MOL0     C73614   1.505   2.248   6.199 -0.5761 -0.6878 -0.7219
  534MOL0     C73615   1.535   2.098   6.165  0.0779 -0.2253  0.7749
  534MOL0     C73616   1.452   2.046   6.047  0.0730 -0.6100 -0.8038
  534MOL0     C73617   1.491   1.900   6.041  0.4141  0.4227 -1.0183
  534MOL0     C73618   1.616   1.876   5.979 -0.5296 -0.5623 -0.0517
  534MOL0     C73619   1.727   1.865   5.928 -0.5396 -0.4468 -1.1152
  534MOL0     C73620   1.306   2.107   6.401 -0.2217 -0.6871  0.5991
  534MOL0     C73621   1.294   2.062   6.537  0.1565  0.0029 -0.5365
  534MOL0     C73622   1.225   1.925   6.541  0.5503  0.5674 -0.2829
  534MOL0     H73623   1.301   1.992   7.052  0.5198  0.7771  1.0772
  534MOL0     H73624   1.327   2.003   7.285  0.9257  0.6769  0.0788
  534MOL0     H73625   1.253   2.386   7.509 -0.5746 -1.3908 -0.5742
  534MOL0     H73626   1.428   2.406   7.473  1.2054 -0.3094  2.7575
  534MOL0     H73627   1.378   2.401   7.720 -1.0776 -1.6719  1.0399
  534MOL0     H73628   1.321   2.234   7.698 -0.9178  1.1126  0.0898
  534MOL0     H73629   1.540   2.145   7.670 -0.7819  0.0283  0.4531
  534MOL0     H73630   1.598   2.285   7.585 -0.0984  0.1483 -0.2781
  534MOL0     H73631   1.725   2.281   7.799  0.1364  0.6901  2.0862
  534MOL0     H73632   1.613   2.413   7.823 -2.7767  0.0266 -1.5174
  534MOL0     H73633   1.649   2.244   8.009  0.1636  2.6259 -1.7308
  534MOL0     H73634   1.563   2.113   7.916  1.2680  0.4695 -1.6288
  534MOL0     H73635   1.451   2.382   7.989  0.2455 -0.0912  1.1489
  534MOL0     H73636   1.361   2.232   7.935 -1.2895  0.1289  1.5550
  534MOL0     H73637   1.342   2.292   8.188 -0.8848 -2.6714 -0.0395
  534MOL0     H73638   1.518   2.279   8.201 -0.1644  0.4262  0.2585
  534MOL0     H73639   1.335   2.054   8.121  0.0527  0.9747 -0.0375
  534MOL0     H73640   1.504   2.034   8.168 -0.7688 -0.8523  1.4514
  534MOL0     H73641   1.221   2.234   8.332  2.9419  2.8895  0.0172
  534MOL0     H73642   1.283   2.188   8.720 -0.9362 -0.5373 -0.2788
  534MOL0     H73643   1.154   2.238   8.627  0.0529  1.0805  0.6617
  534MOL0     H73644   1.342   2.402   8.519 -1.9905  1.8382 -0.6852
  534MOL0     H73645   1.231   2.457   8.644  0.6504  0.7121 -0.1877
  534MOL0     H73646   1.497   2.325   8.705 -1.2000 -0.5862  1.9458
  534MOL0     H73647   1.473   2.499   8.665 -0.4524 -1.2377 -2.6680
  534MOL0     H73648   1.361   2.337   8.905  0.4442 -2.5032 -5.0121
  534MOL0     H73649   1.488   2.448   8.913  0.1732 -1.0840 -0.3430
  534MOL0     H73650   1.080   2.520   9.030  0.2592 -0.5899 -0.0010
  534MOL0     H73651   1.049   2.516   9.374  0.2005 -0.3171  0.1558
  534MOL0     H73652   0.987   2.474   9.215 -1.2291  0.9634  0.0950
  534MOL0     H73653   0.974   2.636   9.258  1.9977  2.2451  1.6473
  534MOL0     H73654   1.485   2.552   9.671 -1.0855  0.1870 -0.8909
  534MOL0     H73655   1.490   2.633   9.927  0.2121 -3.0474 -0.8344
  534MOL0     H73656   1.583   2.949  10.056  0.0331  1.5226  1.1752
  534MOL0     H73657   1.431   3.032  10.001  2.0329 -0.9160 -2.0362
  534MOL0     H73658   1.348   2.967  10.238  0.6617  2.6972  0.3181
  534MOL0     H73659   1.501   2.882  10.268 -0.9053  0.3973  1.6290
  534MOL0     H73660   1.456   3.184  10.242  0.0103  0.6905  1.7210
  534MOL0     H73661   1.605   3.117  10.192  2.2222  0.0985  1.9969
  534MOL0     H73662   1.622   3.010  10.441  2.4617  2.8106 -0.3248
  534MOL0     H73663   1.460   3.077  10.463 -1.0816  2.9276  0.3515
  534MOL0     H73664   1.662   3.261  10.375  3.2737 -3.7889  0.5376
  534MOL0     H73665   1.506   3.287  10.465 -1.0719 -1.1989 -2.5972
  534MOL0     H73666   1.763   3.167  10.583  1.9681  2.2977  0.0177
  534MOL0     H73667   1.603   3.184  10.659 -1.1930  1.8868  0.7164
  534MOL0     H73668   1.629   3.444  10.633  1.6298  1.4200 -0.0294
  534MOL0     H73669   1.786   3.401  10.566 -0.6763 -2.3410 -2.7209
  534MOL0     H73670   1.833   3.271  10.770  1.8263  2.6794  0.9435
  534MOL0     H73671   1.685   3.351  10.856 -0.5231 -0.9076  0.4639
  534MOL0     H73672   1.329   2.995   9.816 -4.1323 -1.3674 -0.9160
  534MOL0     H73673   1.302   2.910   9.577 -0.6593 -1.0210 -0.9860
  534MOL0     H73674   1.481   2.700   9.241 -0.2630  1.3670  1.0749
  534MOL0     H73675   1.488   2.651   8.999 -0.8229  0.8859 -3.1769
  534MOL0     H73676   1.370   2.430   7.255  1.7449 -0.7071  1.4303
  534MOL0     H73677   1.380   2.413   7.024  1.8389 -0.0331 -0.2118
  534MOL0     H73678   1.362   2.355   6.687 -1.5549  0.3799 -0.5679
  534MOL0     H73679   1.408   2.423   6.454 -2.3097  0.7953  1.3390
  534MOL0     H73680   1.532   2.311   6.114 -1.1210  0.4336 -0.0754
  534MOL0     H73681   1.572   2.271   6.282 -1.0726 -1.0769 -0.2108
  534MOL0     H73682   1.519   2.037   6.253  2.6052  0.4815  1.8167
  534MOL0     H73683   1.640   2.084   6.136 -1.0785 -3.3315 -2.5574
  534MOL0     H73684   1.351   2.052   6.089  1.1876  1.8028  1.8241
  534MOL0     H73685   1.455   2.107   5.956  2.7176  1.9964  0.8370
  534MOL0     H73686   1.410   1.847   5.990  0.3347 -0.2281 -0.2476
  534MOL0     H73687   1.492   1.854   6.141 -3.7254 -1.7289 -1.7294
  534MOL0     H73688   1.830   1.862   5.897 -0.7036 -0.5373 -1.6743
  534MOL0     H73689   1.283   2.040   6.319 -1.4657  1.4111 -0.8467
  534MOL0     H73690   1.211   1.883   6.441 -2.6365  2.6583 -0.8774
  534MOL0     H73691   1.286   1.845   6.584 -0.4306 -0.7833 -1.3200
  534MOL0     H73692   1.128   1.925   6.593  0.4141  0.0472 -0.5338
  535MOL0     O73693   0.158   9.534  10.151  0.0515 -0.1698 -0.0345
  535MOL0     C73694   0.144   9.605  10.250 -0.3628 -0.7382 -1.0352
  535MOL0     O73695   0.023   9.647  10.305 -0.2225 -0.4251  0.8987
  535MOL0     C73696  -0.089   9.581  10.273 -0.1703 -0.4154  0.2796
  535MOL0     C73697  -0.210   9.648  10.286  0.3439  0.2824 -0.8446
  535MOL0     C73698  -0.328   9.590  10.241  0.0300  0.5799 -0.1844
  535MOL0     C73699  -0.342   9.456  10.205  0.0941  0.9199 -0.7497
  535MOL0     O73700  -0.472   9.407  10.193 -0.3176  0.5448  0.3059
  535MOL0     C73701  -0.499   9.271  10.170 -0.3388 -0.3011  0.1753
  535MOL0     C73702  -0.642   9.230  10.156  0.3753  0.3200 -0.5503
  535MOL0     C73703  -0.721   9.256  10.285  1.0413  0.1439  1.7620
  535MOL0     C73704  -0.692   9.176  10.413  0.1252 -0.3922 -0.1768
  535MOL0     C73705  -0.750   9.035  10.402 -0.0232  0.7452  0.0076
  535MOL0     C73706  -0.694   8.928  10.498 -0.2303 -0.4213 -0.7493
  535MOL0     C73707  -0.555   8.886  10.468  0.4720  0.7746 -0.2366
  535MOL0     C73708  -0.553   8.801  10.333  0.3237  0.9096 -0.2854
  535MOL0     N73709  -0.431   8.722  10.324  0.2118 -0.0054  0.0408
  535MOL0     C73710  -0.321   8.784  10.281 -0.4764 -1.2022  0.0444
  535MOL0     C73711  -0.235   8.680  10.269  0.0195  0.1456  0.2139
  535MOL0     C73712  -0.092   8.714  10.241  0.4798  0.4439  0.5411
  535MOL0     C73713  -0.058   8.691  10.095 -0.4624 -0.7568 -0.0047
  535MOL0     C73714  -0.074   8.821  10.021 -0.0046 -0.4744  0.7778
  535MOL0     C73715  -0.045   8.812   9.869  0.1464  0.9109 -0.2202
  535MOL0     O73716  -0.145   8.724   9.805 -0.5827  0.0760 -0.2585
  535MOL0     C73717  -0.116   8.735   9.673  0.0832  0.7038 -0.0558
  535MOL0     C73718  -0.117   8.852   9.596 -0.6532  0.3965 -0.3845
  535MOL0     C73719  -0.094   8.853   9.457  0.1062 -0.3892  0.6341
  535MOL0     C73720  -0.101   8.986   9.381  0.3372  0.2008  0.2837
  535MOL0     C73721  -0.074   8.728   9.391  0.4035 -0.1511 -1.4140
  535MOL0     C73722  -0.033   8.713   9.244 -0.4206 -0.3859  0.4230
  535MOL0     O73723  -0.027   8.578   9.203  0.7966  0.4644  0.4594
  535MOL0     C73724   0.017   8.538   9.077  0.1068 -0.5913  0.3853
  535MOL0     C73725   0.153   8.519   9.047  1.0448 -1.1948  0.3551
  535MOL0     C73726   0.191   8.476   8.924  0.0467  0.0477  1.0830
  535MOL0     C73727   0.094   8.443   8.832  0.3441  0.0393  0.8781
  535MOL0     O73728   0.138   8.408   8.708 -0.7487 -0.4799  0.5805
  535MOL0     C73729   0.042   8.359   8.609 -0.0967 -0.2934 -0.0001
  535MOL0     C73730   0.104   8.300   8.493  0.2977  0.5492 -0.2103
  535MOL0     C73731   0.187   8.176   8.511  1.2266 -0.6382 -0.5567
  535MOL0     C73732   0.194   8.103   8.370  0.7232 -0.5724 -0.9830
  535MOL0     C73733   0.290   7.983   8.363 -0.1873 -0.1552  0.9242
  535MOL0     C73734   0.330   7.926   8.224  0.6537 -0.1287  0.6950
  535MOL0     C73735   0.459   7.828   8.222  0.3980 -0.7937 -0.3804
  535MOL0     C73736   0.453   7.779   8.080 -0.6802  0.4218  0.5939
  535MOL0    Cl73737   0.606   7.698   8.066 -0.6013  0.1769  0.1434
  535MOL0     C73738  -0.046   8.457   8.865 -0.6907  0.1441  0.7101
  535MOL0     C73739  -0.087   8.507   8.987  0.1881 -0.1191 -0.4602
  535MOL0     O73740   0.005   8.811   9.177  0.1791 -0.0925  0.3772
  535MOL0     C73741  -0.076   8.612   9.473 -0.3314 -0.1630 -0.4276
  535MOL0     C73742  -0.102   8.611   9.607 -0.3783  0.5865  0.1798
  535MOL0     N73743  -0.285   8.556  10.305 -1.1460 -0.0437  0.4318
  535MOL0     N73744  -0.414   8.586  10.334  0.2260 -0.0288 -0.1241
  535MOL0     C73745  -0.227   9.383  10.204  0.8968 -0.1097 -0.7585
  535MOL0     C73746  -0.101   9.442  10.243  0.3917 -0.1406 -0.6407
  535MOL0     C73747   0.273   9.680  10.288  0.6814  0.8538 -0.1079
  535MOL0     C73748   0.260   9.779  10.386  0.3911 -0.3158 -0.0573
  535MOL0     C73749   0.378   9.848  10.430  0.7140 -0.2120 -0.2173
  535MOL0     C73750   0.502   9.818  10.373 -0.4683 -0.3195 -0.4099
  535MOL0     O73751   0.610   9.884  10.418  0.0024 -0.1035 -0.7832
  535MOL0     C73752   0.705   9.934  10.323  0.2143  0.2083  0.0407
  535MOL0     C73753   0.807  10.018  10.397 -0.3493  0.2716 -0.4653
  535MOL0     C73754   0.927  10.009  10.309  0.9663  0.2380 -0.7079
  535MOL0     C73755   1.039  10.087  10.379  0.1968 -0.1346 -0.3750
  535MOL0     C73756   1.162  10.074  10.309 -0.2238 -0.2877 -0.4234
  535MOL0     C73757   1.260  10.074  10.243  1.2764 -0.1717 -0.6443
  535MOL0     C73758   0.510   9.710  10.281 -0.5488  0.8982 -0.4440
  535MOL0     C73759   0.408   9.638  10.241  0.3297 -0.5605  0.9776
  535MOL0     C73760   0.440   9.523  10.142  0.9581 -0.7718 -0.9113
  535MOL0     H73761  -0.204   9.745  10.334 -1.1942 -0.3872  0.8160
  535MOL0     H73762  -0.413   9.656  10.254  0.5264  0.8410  2.0737
  535MOL0     H73763  -0.463   9.225  10.262 -0.3763  1.2940  1.0295
  535MOL0     H73764  -0.446   9.233  10.082 -1.3432 -1.4573  0.0412
  535MOL0     H73765  -0.703   9.273  10.077 -1.2725  2.3527  1.6720
  535MOL0     H73766  -0.622   9.125  10.133 -1.2683  0.0603 -0.8516
  535MOL0     H73767  -0.713   9.362  10.312 -1.2000  0.7459  0.3739
  535MOL0     H73768  -0.826   9.244  10.259  1.7838 -1.0132 -1.2425
  535MOL0     H73769  -0.587   9.157  10.439  0.0760 -1.4820 -0.7347
  535MOL0     H73770  -0.746   9.218  10.498  0.7195 -3.6856  1.9991
  535MOL0     H73771  -0.731   9.000  10.300  0.1619  1.0208 -0.0537
  535MOL0     H73772  -0.859   9.040  10.405  0.0325  1.9391  0.8463
  535MOL0     H73773  -0.693   8.968  10.600  2.1411  2.1480 -1.6321
  535MOL0     H73774  -0.758   8.841  10.484 -0.7082 -0.1707 -0.1785
  535MOL0     H73775  -0.522   8.825  10.552 -0.8656 -1.4797 -1.2410
  535MOL0     H73776  -0.483   8.968  10.455 -3.9428  5.2173  0.4318
  535MOL0     H73777  -0.637   8.732  10.336  0.2498  0.9853 -0.5955
  535MOL0     H73778  -0.546   8.861  10.242  0.8417 -0.8833 -1.4834
  535MOL0     H73779  -0.310   8.887  10.250 -0.4809 -0.9702  0.7847
  535MOL0     H73780  -0.020   8.647  10.289  1.7854 -0.4057 -2.3510
  535MOL0     H73781  -0.072   8.817  10.272 -0.9547  1.5763 -1.9860
  535MOL0     H73782   0.048   8.670  10.077 -0.1713  0.9437 -0.4182
  535MOL0     H73783  -0.119   8.612  10.050 -1.4081  0.8362 -1.6662
  535MOL0     H73784  -0.173   8.862  10.045 -0.5718  0.1495 -2.2296
  535MOL0     H73785  -0.003   8.898  10.053  0.1801  0.5852 -1.9357
  535MOL0     H73786  -0.044   8.917   9.838 -0.4639  1.2760  0.9448
  535MOL0     H73787   0.056   8.772   9.859 -0.1537  0.6841 -3.2196
  535MOL0     H73788  -0.112   8.948   9.646  2.2426 -0.1003  0.4346
  535MOL0     H73789  -0.011   9.035   9.344 -0.8850  2.1874 -0.2527
  535MOL0     H73790  -0.141   9.055   9.456  1.2833 -0.7822  1.7305
  535MOL0     H73791  -0.166   8.993   9.293 -0.8235  1.4893  1.1857
  535MOL0     H73792   0.228   8.553   9.117 -0.5308 -0.0920  1.5810
  535MOL0     H73793   0.295   8.485   8.895 -0.3624  3.1316  0.2691
  535MOL0     H73794  -0.025   8.290   8.660  3.5888 -3.6463  0.8198
  535MOL0     H73795  -0.012   8.449   8.581  1.3776  0.5863 -0.1379
  535MOL0     H73796   0.026   8.277   8.420  2.2649 -1.0451 -1.9752
  535MOL0     H73797   0.171   8.377   8.454  2.8881 -0.1079  2.5305
  535MOL0     H73798   0.139   8.112   8.585  1.0020  0.4128  0.2380
  535MOL0     H73799   0.284   8.197   8.557  0.2269  0.7700  1.0173
  535MOL0     H73800   0.215   8.164   8.282  2.3642  0.0178 -0.2226
  535MOL0     H73801   0.092   8.067   8.356 -0.0146 -0.4835  2.9147
  535MOL0     H73802   0.383   8.011   8.412  0.2944  1.1747 -0.6570
  535MOL0     H73803   0.233   7.907   8.417 -3.0834  0.1687 -1.4499
  535MOL0     H73804   0.355   8.013   8.161 -2.1187 -1.6196 -2.8142
  535MOL0     H73805   0.250   7.870   8.176  1.4904 -0.1372 -0.7742
  535MOL0     H73806   0.454   7.757   8.306  0.3012  3.0767  3.1969
  535MOL0     H73807   0.549   7.887   8.236  1.6615 -2.5224 -0.8503
  535MOL0     H73808   0.438   7.866   8.016 -0.2763  0.2968  0.3281
  535MOL0     H73809   0.369   7.710   8.062  0.3886 -0.4652 -1.2279
  535MOL0     H73810  -0.132   8.421   8.808 -2.5103  1.0855  2.6872
  535MOL0     H73811  -0.186   8.504   9.030  0.1745  3.9808  0.1333
  535MOL0     H73812  -0.057   8.517   9.425  0.3785 -0.5898  0.6735
  535MOL0     H73813  -0.102   8.519   9.664 -0.3555  1.5035  1.7224
  535MOL0     H73814  -0.229   9.276  10.184  1.9729 -0.2008 -0.4209
  535MOL0     H73815  -0.005   9.394  10.262  2.1602  4.1001  3.2550
  535MOL0     H73816   0.157   9.790  10.417  0.6992 -2.4542  2.0138
  535MOL0     H73817   0.373   9.925  10.506  1.7615  1.0923 -1.4133
  535MOL0     H73818   0.752   9.852  10.268  0.9521  1.2277 -0.8834
  535MOL0     H73819   0.643   9.987  10.249 -0.4200 -0.6797 -0.0861
  535MOL0     H73820   0.823   9.963  10.490  0.2726 -1.1053 -1.3427
  535MOL0     H73821   0.775  10.121  10.411 -0.0020  0.0815  2.3306
  535MOL0     H73822   0.959   9.905  10.308 -0.6687 -0.2921 -1.1150
  535MOL0     H73823   0.903  10.037  10.206  1.3361  0.8048 -0.6500
  535MOL0     H73824   1.053  10.068  10.486 -0.1559  0.3230 -0.2424
  535MOL0     H73825   1.013  10.192  10.363  1.7305  0.1580 -1.2458
  535MOL0     H73826   1.353  10.053  10.194  2.6851  0.0239  1.7929
  535MOL0     H73827   0.612   9.692  10.246  1.2056  4.2087  2.3806
  535MOL0     H73828   0.415   9.423  10.180 -0.0463 -0.2235 -0.0731
  535MOL0     H73829   0.385   9.536  10.048 -0.7178  2.3816  0.3786
  535MOL0     H73830   0.548   9.532  10.128  0.9572 -0.0039 -0.4755
  536MOL0     O73831   5.119   3.574  10.462 -0.1067 -1.1944 -0.1751
  536MOL0     C73832   5.226   3.515  10.441 -0.2759  1.1549  0.6253
  536MOL0     O73833   5.297   3.461  10.547 -0.5590 -0.5944  0.2786
  536MOL0     C73834   5.266   3.505  10.674 -0.1881  0.2151  0.1471
  536MOL0     C73835   5.359   3.586  10.733  0.1606  1.3519  0.3834
  536MOL0     C73836   5.349   3.620  10.869 -0.2080 -0.4136  0.9357
  536MOL0     C73837   5.233   3.580  10.941  0.2279 -0.5486 -0.2242
  536MOL0     O73838   5.224   3.624  11.065  0.4551  0.0053 -0.0937
  536MOL0     C73839   5.101   3.643  11.143 -0.4741 -0.1991  0.2116
  536MOL0     C73840   5.130   3.719  11.276 -1.2108  0.9906 -0.5414
  536MOL0     C73841   5.015   3.711  11.364 -0.6735  0.0450 -0.7721
  536MOL0     C73842   5.030   3.816  11.475 -0.3685 -0.5366  0.4342
  536MOL0     C73843   4.929   3.800  11.584  0.3730 -0.1026  0.7319
  536MOL0     C73844   4.778   3.804  11.522 -0.2637 -0.2688 -0.7312
  536MOL0     C73845   4.664   3.827  11.620  0.2680  0.0023 -0.8141
  536MOL0     C73846   4.674   3.726  11.730  0.3334 -0.9174  0.2063
  536MOL0     N73847   4.561   3.721  11.826 -0.5222 -1.0746 -0.4860
  536MOL0     C73848   4.562   3.640  11.935  0.0727  0.4498  0.0272
  536MOL0     C73849   4.464   3.685  12.014  0.3028  0.1673  0.3428
  536MOL0     C73850   4.417   3.638  12.141  0.6006  0.2706  0.2063
  536MOL0     C73851   4.418   3.737  12.261  0.3633 -0.2854  1.0327
  536MOL0     C73852   4.379   3.659  12.387 -0.7056 -0.1939  0.9065
  536MOL0     C73853   4.388   3.752  12.507 -0.0756 -0.2398  0.3426
  536MOL0     O73854   4.298   3.860  12.497  0.3023  0.0718 -0.0157
  536MOL0     C73855   4.180   3.830  12.554  0.4371 -0.4941 -0.4570
  536MOL0     C73856   4.170   3.817  12.701  0.4850 -1.0034  0.3337
  536MOL0     C73857   4.045   3.779  12.746  0.3427 -0.6167 -1.5047
  536MOL0     C73858   4.048   3.761  12.896 -0.7730  0.6928 -0.4732
  536MOL0     C73859   3.933   3.760  12.665  0.3625  0.8611  0.0688
  536MOL0     C73860   3.803   3.732  12.728  0.9266  0.4202  0.4650
  536MOL0     O73861   3.699   3.813  12.689 -0.1521  0.9796  0.2700
  536MOL0     C73862   3.571   3.796  12.741 -0.5429 -0.9346 -0.3333
  536MOL0     C73863   3.458   3.799  12.653 -0.3203 -0.5772 -0.4222
  536MOL0     C73864   3.334   3.752  12.687  0.1716 -0.3457  0.6502
  536MOL0     C73865   3.303   3.737  12.819  0.5007 -0.9544  0.1898
  536MOL0     O73866   3.171   3.729  12.857 -0.3135 -0.1713 -0.8281
  536MOL0     C73867   3.061   3.754  12.765 -0.2004  0.8297  0.3665
  536MOL0     C73868   2.926   3.795  12.826 -0.0610  0.9315  0.1891
  536MOL0     C73869   2.823   3.801  12.714 -0.4679  0.3844 -0.1734
  536MOL0     C73870   2.794   3.682  12.622  0.5044 -0.3180  0.4074
  536MOL0     C73871   2.655   3.702  12.554 -0.4512 -0.8899 -0.0950
  536MOL0     C73872   2.580   3.568  12.535  0.3285  0.6235  0.1341
  536MOL0     C73873   2.450   3.576  12.458  0.3016  0.2844 -0.6278
  536MOL0     C73874   2.320   3.585  12.539  0.4905 -0.3257  0.3782
  536MOL0    Cl73875   2.338   3.695  12.682  0.5891 -0.0544  0.0376
  536MOL0     C73876   3.405   3.738  12.912 -1.6833 -0.0178 -0.9444
  536MOL0     C73877   3.540   3.762  12.867 -0.4092  0.2906  0.5412
  536MOL0     O73878   3.801   3.625  12.784  0.3142 -0.3152  0.3112
  536MOL0     C73879   3.944   3.779  12.525  0.0729 -0.3728 -0.4428
  536MOL0     C73880   4.064   3.821  12.469  0.0897 -0.2733  0.0581
  536MOL0     N73881   4.397   3.790  11.948  0.7485  0.4514  0.4469
  536MOL0     N73882   4.454   3.808  11.840 -0.6234 -0.3838  0.2767
  536MOL0     C73883   5.137   3.503  10.877  0.2763 -0.3508  0.3696
  536MOL0     C73884   5.155   3.458  10.738  0.4712  0.4281 -0.5171
  536MOL0     C73885   5.279   3.479  10.304  0.6889 -1.1457 -0.2042
  536MOL0     C73886   5.384   3.391  10.297  0.4129  0.0696  0.4827
  536MOL0     C73887   5.449   3.371  10.175 -0.1500 -0.6359 -0.2364
  536MOL0     C73888   5.411   3.433  10.056  0.2372  0.0927  0.1733
  536MOL0     O73889   5.462   3.411   9.933  0.2899 -0.0832  0.3704
  536MOL0     C73890   5.525   3.292   9.891 -0.1921 -0.3594 -0.1647
  536MOL0     C73891   5.417   3.174   9.873 -0.4626 -0.0343  0.7605
  536MOL0     C73892   5.472   3.046   9.824 -0.5419  0.7736  0.3849
  536MOL0     C73893   5.590   3.068   9.731  0.4277 -0.3648 -0.1281
  536MOL0     C73894   5.640   2.936   9.703 -0.1014 -0.0441  0.2759
  536MOL0     C73895   5.677   2.825   9.669 -0.5380  0.3338 -0.5789
  536MOL0     C73896   5.311   3.527  10.062  0.1131  0.0501 -0.3926
  536MOL0     C73897   5.246   3.558  10.188 -0.2613 -0.3597  0.0876
  536MOL0     C73898   5.134   3.661  10.186  0.0680  0.0124 -0.1800
  536MOL0     H73899   5.439   3.606  10.663 -0.0179 -0.6988 -0.4892
  536MOL0     H73900   5.430   3.667  10.924  0.6113  3.3347 -2.9797
  536MOL0     H73901   5.049   3.548  11.160  0.0340 -0.5316 -0.0810
  536MOL0     H73902   5.026   3.701  11.089 -2.3919  1.2050  3.9892
  536MOL0     H73903   5.212   3.673  11.332 -1.5451 -1.0113 -1.6158
  536MOL0     H73904   5.172   3.820  11.269  0.5807  0.7631  3.7136
  536MOL0     H73905   4.917   3.730  11.319 -0.3238  3.3381 -0.4140
  536MOL0     H73906   5.016   3.612  11.410  0.6322  1.5185  2.7805
  536MOL0     H73907   5.126   3.803  11.527  0.0096 -1.0821 -0.3751
  536MOL0     H73908   5.030   3.916  11.431  0.6131 -0.8956 -0.4522
  536MOL0     H73909   4.936   3.895  11.639 -0.0033  1.2991 -1.5052
  536MOL0     H73910   4.943   3.714  11.650  0.4532 -0.5350  0.1505
  536MOL0     H73911   4.785   3.895  11.461 -1.3065  1.4855  1.6058
  536MOL0     H73912   4.746   3.722  11.457 -2.3459  1.0219 -1.4735
  536MOL0     H73913   4.563   3.822  11.577  0.3657 -0.3994 -0.9976
  536MOL0     H73914   4.676   3.933  11.646  1.1647 -0.3852  0.4188
  536MOL0     H73915   4.690   3.625  11.690  1.9350  0.3839 -2.6789
  536MOL0     H73916   4.765   3.757  11.781  0.9954  2.5567 -2.7385
  536MOL0     H73917   4.634   3.560  11.948  2.1591  1.1845 -4.7094
  536MOL0     H73918   4.482   3.555  12.171  2.5654  2.8415  3.8770
  536MOL0     H73919   4.312   3.608  12.138  1.2080 -2.4014  1.9623
  536MOL0     H73920   4.517   3.781  12.274  0.4472  0.6511 -1.9393
  536MOL0     H73921   4.344   3.817  12.255  1.4770  0.7977  1.2861
  536MOL0     H73922   4.276   3.626  12.369  0.1146 -1.7846 -1.4638
  536MOL0     H73923   4.442   3.573  12.413 -3.2194 -2.8836 -1.1256
  536MOL0     H73924   4.371   3.707  12.605 -1.4311  0.8172  0.6285
  536MOL0     H73925   4.489   3.785  12.534 -1.3152  4.0208  0.5025
  536MOL0     H73926   4.257   3.843  12.760  1.0611 -1.3546 -0.3386
  536MOL0     H73927   4.052   3.652  12.909 -2.4598  0.3527 -2.3737
  536MOL0     H73928   3.958   3.808  12.935 -3.2480 -0.7146 -3.9539
  536MOL0     H73929   4.136   3.802  12.947 -1.0428 -0.4838  0.9841
  536MOL0     H73930   3.474   3.789  12.546 -0.4947 -2.6082 -0.3105
  536MOL0     H73931   3.261   3.742  12.607 -3.5415  1.7009  3.4974
  536MOL0     H73932   3.076   3.828  12.685  3.0752 -0.1230 -0.0582
  536MOL0     H73933   3.029   3.663  12.713  1.4612  0.4729 -0.0805
  536MOL0     H73934   2.897   3.714  12.893  0.4255 -2.3950 -3.2664
  536MOL0     H73935   2.930   3.885  12.889 -2.1936  1.5090 -0.3985
  536MOL0     H73936   2.831   3.894  12.657 -3.5473  1.6049  1.1883
  536MOL0     H73937   2.732   3.810  12.774 -0.1141 -2.8720  1.0167
  536MOL0     H73938   2.800   3.589  12.679  3.4568 -0.8857 -0.6515
  536MOL0     H73939   2.879   3.686  12.553 -1.1838  1.2295 -1.6972
  536MOL0     H73940   2.593   3.772  12.610 -2.5114 -1.0238 -2.0728
  536MOL0     H73941   2.683   3.732  12.452  0.3561  0.3412  0.4567
  536MOL0     H73942   2.560   3.532  12.637  2.5252  0.6534  0.6336
  536MOL0     H73943   2.648   3.498  12.487 -1.1819  0.6101 -2.1147
  536MOL0     H73944   2.436   3.481  12.405 -2.5567  1.9503 -3.0950
  536MOL0     H73945   2.449   3.649  12.377  1.7126  2.3373  1.0922
  536MOL0     H73946   2.297   3.488  12.584  1.1812 -0.0868  1.2804
  536MOL0     H73947   2.244   3.615  12.467 -1.0861  2.7901  3.0851
  536MOL0     H73948   3.384   3.725  13.018 -0.7934 -1.9560 -0.9608
  536MOL0     H73949   3.621   3.756  12.938 -2.3574 -1.2246  2.7706
  536MOL0     H73950   3.855   3.786  12.463 -0.6078  3.7625  0.7410
  536MOL0     H73951   4.080   3.824  12.362  1.2173 -0.0902  0.2178
  536MOL0     H73952   5.048   3.476  10.933  0.4830  3.1709  2.7047
  536MOL0     H73953   5.087   3.392  10.685 -0.7381  0.0376  1.4495
  536MOL0     H73954   5.413   3.336  10.386  1.3762 -0.0129  0.1300
  536MOL0     H73955   5.514   3.285  10.158 -0.3314 -0.1744 -4.4705
  536MOL0     H73956   5.580   3.320   9.800 -0.6751  0.7811 -0.1193
  536MOL0     H73957   5.598   3.254   9.964  2.0500  0.0132 -2.0757
  536MOL0     H73958   5.341   3.210   9.803  1.0068 -0.8451 -1.3852
  536MOL0     H73959   5.387   3.149   9.975  5.4760 -1.9402  2.4363
  536MOL0     H73960   5.500   2.982   9.908 -1.1623 -1.2210 -0.8526
  536MOL0     H73961   5.390   2.991   9.776 -0.8553  0.4743  1.2315
  536MOL0     H73962   5.676   3.114   9.780  0.7013 -0.0572 -0.8837
  536MOL0     H73963   5.569   3.119   9.637 -0.9830 -3.5447 -1.7284
  536MOL0     H73964   5.697   2.722   9.646  0.9835  0.3059  0.7348
  536MOL0     H73965   5.279   3.580   9.973 -1.6867  0.5704  0.5051
  536MOL0     H73966   5.161   3.741  10.256 -0.2689 -2.6583  3.3004
  536MOL0     H73967   5.116   3.709  10.090  0.7722 -0.7473 -0.7089
  536MOL0     H73968   5.044   3.607  10.216  0.2905 -0.3890 -0.2191
  537MOL0     O73969   6.385   4.626   1.541 -0.2267  1.2020  0.0712
  537MOL0     C73970   6.459   4.531   1.506 -0.0778 -0.2062  1.0179
  537MOL0     O73971   6.423   4.440   1.403 -0.1746 -0.5455  0.1180
  537MOL0     C73972   6.304   4.443   1.325  0.0044  0.3500 -0.2308
  537MOL0     C73973   6.200   4.533   1.337  0.8906 -0.9070  0.3583
  537MOL0     C73974   6.086   4.520   1.253  0.0409 -0.4469  0.0965
  537MOL0     C73975   6.071   4.417   1.159 -0.4255 -0.0450  0.0310
  537MOL0     O73976   5.971   4.402   1.066  0.3857  0.1659  0.2052
  537MOL0     C73977   5.874   4.499   1.051  0.0959 -0.0445 -0.6236
  537MOL0     C73978   5.807   4.479   0.922  0.7358 -0.0872 -0.9927
  537MOL0     C73979   5.891   4.482   0.801 -0.4826 -0.1072  0.0783
  537MOL0     C73980   5.810   4.499   0.671  0.0900 -0.9912  0.6721
  537MOL0     C73981   5.689   4.416   0.654  0.0154  1.0397  0.1341
  537MOL0     C73982   5.635   4.407   0.510  0.0326  0.0174 -0.3332
  537MOL0     C73983   5.732   4.324   0.422  0.3133 -0.0496  1.1112
  537MOL0     C73984   5.733   4.174   0.460  0.2442  0.2389  0.1692
  537MOL0     N73985   5.649   4.097   0.370  0.0211  1.4532 -0.0612
  537MOL0     C73986   5.524   4.138   0.327 -0.6651  0.6425  0.0768
  537MOL0     C73987   5.472   4.035   0.244 -0.6429 -0.5828 -0.1293
  537MOL0     C73988   5.332   4.039   0.176  0.3571  0.8483 -1.0790
  537MOL0     C73989   5.209   4.019   0.260  0.6017  0.0139  0.0352
  537MOL0     C73990   5.210   4.089   0.394 -1.7692 -0.1143 -0.3704
  537MOL0     C73991   5.064   4.103   0.445 -0.5483  0.8914  0.5169
  537MOL0     O73992   5.068   4.207   0.546  0.7435  0.5267  0.2903
  537MOL0     C73993   4.956   4.283   0.561  0.0174 -0.5224  0.6596
  537MOL0     C73994   4.830   4.268   0.504  0.0973  0.2380  0.0467
  537MOL0     C73995   4.721   4.364   0.526  0.1965  0.4243  0.9236
  537MOL0     C73996   4.604   4.333   0.442 -0.2197  0.3188  0.2946
  537MOL0     C73997   4.747   4.469   0.609 -0.7493  0.2045 -0.0785
  537MOL0     C73998   4.652   4.583   0.617  0.3308 -0.2130 -0.1124
  537MOL0     O73999   4.709   4.707   0.600 -0.8178 -0.0392  0.7280
  537MOL0     C74000   4.631   4.811   0.569  0.1746  0.2350  0.6756
  537MOL0     C74001   4.625   4.931   0.644  0.9162  0.1427 -0.3067
  537MOL0     C74002   4.561   5.051   0.604  0.8723  0.1623  0.4253
  537MOL0     C74003   4.481   5.042   0.493 -0.3495 -0.5562  0.4102
  537MOL0     O74004   4.407   5.150   0.441  0.8646 -0.4473  0.0064
  537MOL0     C74005   4.386   5.264   0.525  0.3614 -0.2846  0.0890
  537MOL0     C74006   4.257   5.245   0.608  0.7719  0.7483 -0.4360
  537MOL0     C74007   4.280   5.342   0.730  0.2423 -0.1736  0.4080
  537MOL0     C74008   4.154   5.352   0.817  0.2180 -0.0149  0.4500
  537MOL0     C74009   4.173   5.454   0.931  1.2127  0.1122  0.1244
  537MOL0     C74010   4.158   5.595   0.880  0.9661 -0.0808  0.7859
  537MOL0     C74011   4.145   5.696   0.996  0.6277 -0.6693  0.5998
  537MOL0     C74012   4.172   5.840   0.946  0.3106  0.9207  0.6812
  537MOL0    Cl74013   4.340   5.901   0.950 -0.3488 -0.1870 -0.5761
  537MOL0     C74014   4.471   4.920   0.424 -0.0666 -0.4762 -0.5737
  537MOL0     C74015   4.549   4.803   0.452 -0.0768  0.1776  0.0967
  537MOL0     O74016   4.530   4.558   0.629 -0.1504  0.2033  0.0334
  537MOL0     C74017   4.874   4.482   0.664 -0.7110  1.7503 -0.7128
  537MOL0     C74018   4.970   4.390   0.649  0.2055  0.1756 -0.2725
  537MOL0     N74019   5.572   3.933   0.238  0.5134 -0.2417 -0.3287
  537MOL0     N74020   5.672   3.963   0.320  0.4386  0.4682  0.2014
  537MOL0     C74021   6.174   4.325   1.146  0.0133 -0.1342 -0.6280
  537MOL0     C74022   6.291   4.342   1.231  0.0362  0.0774 -1.1853
  537MOL0     C74023   6.576   4.517   1.586  0.0067  0.4617 -1.2558
  537MOL0     C74024   6.565   4.562   1.721 -0.0304 -0.2309  0.3564
  537MOL0     C74025   6.666   4.544   1.809 -1.2257 -0.0012  0.1504
  537MOL0     C74026   6.777   4.475   1.781  0.2090  0.1128  0.0124
  537MOL0     O74027   6.867   4.477   1.888  0.4956  0.5956  0.6672
  537MOL0     C74028   6.980   4.390   1.862  0.0765  0.6566  0.0890
  537MOL0     C74029   7.080   4.393   1.974 -1.0059 -0.1320 -0.3132
  537MOL0     C74030   7.194   4.285   1.963 -0.3963  1.2856 -0.2830
  537MOL0     C74031   7.273   4.274   2.098 -0.0957  0.8582 -0.3135
  537MOL0     C74032   7.371   4.162   2.086  0.5462  0.1704 -0.3184
  537MOL0     C74033   7.446   4.071   2.075  0.0420  0.3933 -0.2843
  537MOL0     C74034   6.789   4.426   1.650  0.4225 -0.0432  0.3678
  537MOL0     C74035   6.681   4.426   1.556 -0.1483 -0.2041  0.2173
  537MOL0     C74036   6.701   4.362   1.425 -0.6137  1.2215  0.0619
  537MOL0     H74037   6.213   4.620   1.400 -1.9005  1.4196 -2.0051
  537MOL0     H74038   6.007   4.590   1.280  1.3340  0.0841  2.8697
  537MOL0     H74039   5.925   4.596   1.051  0.9426 -0.4474 -2.6470
  537MOL0     H74040   5.797   4.497   1.129  0.3492  0.8612 -0.3389
  537MOL0     H74041   5.758   4.382   0.930  0.5510 -0.0308 -1.3976
  537MOL0     H74042   5.729   4.557   0.929  0.8436 -0.1051  1.9207
  537MOL0     H74043   5.961   4.566   0.798 -1.3090  0.6108  0.1881
  537MOL0     H74044   5.950   4.390   0.799 -2.0462 -1.1405 -0.4845
  537MOL0     H74045   5.781   4.604   0.668  2.5183 -0.2711 -0.2847
  537MOL0     H74046   5.880   4.503   0.587 -2.5431  1.1713 -1.6244
  537MOL0     H74047   5.605   4.447   0.717 -1.8714 -2.6830 -0.2389
  537MOL0     H74048   5.717   4.319   0.698  2.1894  3.3956  4.5902
  537MOL0     H74049   5.542   4.349   0.519  0.3946 -0.4619  0.5078
  537MOL0     H74050   5.618   4.500   0.456 -3.1428 -0.7697 -0.8703
  537MOL0     H74051   5.834   4.363   0.435  0.1125  0.0055  2.7856
  537MOL0     H74052   5.713   4.342   0.316  0.5629  2.5178  1.4308
  537MOL0     H74053   5.826   4.119   0.445 -0.5095 -0.3175 -3.4957
  537MOL0     H74054   5.703   4.158   0.565 -1.3545 -4.6533 -0.7362
  537MOL0     H74055   5.483   4.236   0.349 -2.7847  0.1476 -1.3343
  537MOL0     H74056   5.319   3.958   0.104  4.6289  0.1231 -1.3005
  537MOL0     H74057   5.325   4.141   0.135 -1.4057  1.7735  1.3010
  537MOL0     H74058   5.128   4.066   0.203 -0.2585  0.1316  1.3028
  537MOL0     H74059   5.179   3.914   0.262 -2.6525  0.7581  4.3258
  537MOL0     H74060   5.277   4.049   0.472 -2.6316 -1.3294 -0.2385
  537MOL0     H74061   5.253   4.187   0.372 -3.5770  0.3943 -1.7883
  537MOL0     H74062   5.001   4.123   0.358  1.2353 -0.1062 -1.0721
  537MOL0     H74063   5.031   4.006   0.483 -0.2545 -0.6507 -2.8547
  537MOL0     H74064   4.821   4.192   0.428 -1.7167 -0.0698  0.5079
  537MOL0     H74065   4.622   4.373   0.341 -3.6045 -0.4261 -0.7387
  537MOL0     H74066   4.509   4.368   0.483 -2.5550 -1.6314 -2.9565
  537MOL0     H74067   4.602   4.223   0.440  1.8250  0.2504  0.1564
  537MOL0     H74068   4.691   4.931   0.731 -0.1473  0.4824  0.5326
  537MOL0     H74069   4.585   5.133   0.670  1.3373  0.2602  0.1427
  537MOL0     H74070   4.475   5.288   0.583 -0.0643  1.2814  0.1262
  537MOL0     H74071   4.354   5.345   0.459 -1.3552 -0.7869  0.2465
  537MOL0     H74072   4.173   5.278   0.546  0.2862  1.3349  0.5242
  537MOL0     H74073   4.234   5.143   0.640  0.3790  1.5223  1.9334
  537MOL0     H74074   4.309   5.443   0.701 -1.6312  0.3723  0.2805
  537MOL0     H74075   4.351   5.299   0.801 -2.1144 -0.1275  2.9610
  537MOL0     H74076   4.129   5.250   0.847  0.0571 -0.4612 -1.1332
  537MOL0     H74077   4.075   5.395   0.754  2.7303  1.4728 -1.9004
  537MOL0     H74078   4.088   5.441   0.998 -0.0748  0.0734 -1.4398
  537MOL0     H74079   4.267   5.438   0.984  0.1885 -3.0627  1.2292
  537MOL0     H74080   4.066   5.605   0.821  1.1620 -1.6047  0.1818
  537MOL0     H74081   4.244   5.626   0.820 -1.4408  1.4632 -2.1415
  537MOL0     H74082   4.217   5.680   1.077 -0.5147 -2.5042  1.3150
  537MOL0     H74083   4.046   5.691   1.041  1.3542 -0.4106  2.3118
  537MOL0     H74084   4.108   5.909   1.001 -1.0023 -1.7772  2.7587
  537MOL0     H74085   4.133   5.831   0.843  4.3635  1.8633 -1.1151
  537MOL0     H74086   4.409   4.926   0.336 -1.2021  0.8700  0.2676
  537MOL0     H74087   4.546   4.717   0.387 -1.0165 -1.0348  1.6686
  537MOL0     H74088   4.904   4.562   0.731 -0.2555  0.3280  0.8609
  537MOL0     H74089   5.063   4.405   0.703 -0.4710  1.0175  0.7130
  537MOL0     H74090   6.171   4.237   1.082  1.9259 -0.5644 -0.2027
  537MOL0     H74091   6.374   4.274   1.214  0.3271 -0.1468  0.8820
  537MOL0     H74092   6.476   4.617   1.751  0.8105  2.4117 -1.6317
  537MOL0     H74093   6.661   4.596   1.904  0.1074  0.9961 -0.2834
  537MOL0     H74094   6.939   4.290   1.842 -0.4527  0.9673 -0.4176
  537MOL0     H74095   7.027   4.418   1.767 -1.5167  2.0389 -0.3384
  537MOL0     H74096   7.036   4.398   2.073  0.2334  1.1645  0.2116
  537MOL0     H74097   7.126   4.492   1.960  1.0176 -0.7224  1.5981
  537MOL0     H74098   7.146   4.188   1.945  2.5037 -0.5058  0.8168
  537MOL0     H74099   7.257   4.304   1.875 -2.4854  2.4048 -1.6269
  537MOL0     H74100   7.209   4.245   2.182  1.7267  1.5280  1.3833
  537MOL0     H74101   7.329   4.366   2.118  0.1098  1.0111 -1.5154
  537MOL0     H74102   7.528   4.003   2.065  2.2252  2.5288  1.7834
  537MOL0     H74103   6.880   4.379   1.615 -0.1781  0.5399 -2.2181
  537MOL0     H74104   6.806   4.367   1.394 -0.5561  0.1096  0.0284
  537MOL0     H74105   6.670   4.258   1.415 -1.0196  1.3587 -0.1206
  537MOL0     H74106   6.652   4.421   1.347 -2.3213  0.5073  0.5461
  538MOL0     O74107  10.488   0.718   2.998  0.7001 -0.1448  0.1256
  538MOL0     C74108  10.454   0.826   3.038 -0.0425 -0.6898 -0.7889
  538MOL0     O74109  10.537   0.917   3.096  0.3631  0.1469 -0.1620
  538MOL0     C74110  10.655   0.891   3.160  0.2292  0.9118 -0.0774
  538MOL0     C74111  10.751   0.987   3.160  0.1531 -0.0213  0.3311
  538MOL0     C74112  10.868   0.968   3.241  0.1393 -0.1428  0.2004
  538MOL0     C74113  10.875   0.848   3.319  0.7980 -0.5669  0.5357
  538MOL0     O74114  10.986   0.830   3.400  0.0424 -0.6638 -0.7907
  538MOL0     C74115  10.985   0.739   3.512  0.2579 -0.2076  1.5959
  538MOL0     C74116  10.915   0.807   3.626 -0.3485 -0.4583  0.1746
  538MOL0     C74117  10.971   0.948   3.655  0.3872  0.2032  0.4546
  538MOL0     C74118  11.117   0.944   3.691 -0.7988  0.4316 -0.3598
  538MOL0     C74119  11.168   1.085   3.717  0.5193 -0.5594  0.4713
  538MOL0     C74120  11.314   1.080   3.763 -0.4022 -1.0764  0.3931
  538MOL0     C74121  11.351   1.219   3.821  0.6037 -0.3114 -0.2194
  538MOL0     C74122  11.474   1.215   3.902  0.4877 -0.1096 -0.2744
  538MOL0     N74123  11.454   1.167   4.040 -0.3907 -0.3306 -0.2446
  538MOL0     C74124  11.548   1.194   4.147 -0.0132 -0.1762 -0.2025
  538MOL0     C74125  11.496   1.125   4.251  0.6862 -0.0071 -0.0218
  538MOL0     C74126  11.542   1.129   4.388  0.0829  0.1778 -0.4643
  538MOL0     C74127  11.428   1.180   4.474  0.5525 -0.0807  0.3682
  538MOL0     C74128  11.488   1.229   4.612  0.7514  0.9974  0.5935
  538MOL0     C74129  11.386   1.290   4.703  0.2687 -0.1402  0.1802
  538MOL0     O74130  11.278   1.202   4.728  0.3699 -0.0911 -0.1241
  538MOL0     C74131  11.208   1.223   4.842  0.0814 -0.5368 -0.6088
  538MOL0     C74132  11.171   1.109   4.923 -0.5844  0.1019 -0.4100
  538MOL0     C74133  11.096   1.121   5.040 -0.2504  0.2346  0.3036
  538MOL0     C74134  11.067   0.989   5.096  0.2864  0.0062  0.6132
  538MOL0     C74135  11.044   1.250   5.075  0.0315 -1.2635 -0.7123
  538MOL0     C74136  10.959   1.267   5.202  0.7734  0.0877 -0.0695
  538MOL0     O74137  10.855   1.357   5.191  0.6324  0.4959  0.1681
  538MOL0     C74138  10.781   1.398   5.300 -1.2210 -0.4468  0.0405
  538MOL0     C74139  10.641   1.401   5.278 -0.0217 -0.8866  0.1078
  538MOL0     C74140  10.565   1.484   5.361 -0.3209  0.0303  0.7282
  538MOL0     C74141  10.614   1.536   5.479 -0.5095 -0.4208  0.0711
  538MOL0     O74142  10.523   1.617   5.544  0.4787 -0.3991  0.4233
  538MOL0     C74143  10.521   1.597   5.684  0.1828 -0.5467  0.5233
  538MOL0     C74144  10.467   1.462   5.706  0.6576  0.6122 -0.6196
  538MOL0     C74145  10.466   1.425   5.849  0.4034  0.5643  0.1168
  538MOL0     C74146  10.601   1.368   5.885  0.7902 -0.3738  0.4621
  538MOL0     C74147  10.593   1.317   6.026  1.4059  0.2542  0.3350
  538MOL0     C74148  10.594   1.431   6.133  0.7376 -1.0503 -0.5205
  538MOL0     C74149  10.606   1.388   6.278  0.7689 -0.9316 -0.1098
  538MOL0     C74150  10.501   1.286   6.316  1.0624 -0.3518 -0.3573
  538MOL0    Cl74151  10.345   1.348   6.282 -0.3780  0.2950  0.1261
  538MOL0     C74152  10.755   1.523   5.504  0.4469 -0.6266 -0.3299
  538MOL0     C74153  10.837   1.454   5.410 -1.7535  0.7412 -0.0972
  538MOL0     O74154  10.983   1.180   5.291 -0.1979 -0.1489 -0.4734
  538MOL0     C74155  11.075   1.355   5.000  0.0756 -1.6267  0.3471
  538MOL0     C74156  11.156   1.352   4.876 -0.9253 -0.3337  0.1504
  538MOL0     N74157  11.378   1.058   4.217  0.5113  0.4053 -0.1197
  538MOL0     N74158  11.360   1.080   4.092  0.9559  0.8706  0.7141
  538MOL0     C74159  10.778   0.755   3.296 -0.3648 -0.3871 -0.5731
  538MOL0     C74160  10.666   0.771   3.223  0.5658  0.4790 -0.2989
  538MOL0     C74161  10.311   0.872   3.032 -0.3189 -0.6646 -0.7786
  538MOL0     C74162  10.284   0.996   3.092 -0.6106  0.4854 -0.6138
  538MOL0     C74163  10.165   1.056   3.091 -0.5064 -0.0572 -0.2085
  538MOL0     C74164  10.060   1.008   3.024  0.8706  0.6799 -0.6175
  538MOL0     O74165   9.930   1.060   3.015 -0.1320  0.3779  1.0464
  538MOL0     C74166   9.900   1.183   3.080 -0.1434  0.0670 -0.3238
  538MOL0     C74167   9.873   1.151   3.233 -0.3059 -0.4107  0.6269
  538MOL0     C74168   9.835   1.274   3.316 -1.2246 -0.1406 -0.1091
  538MOL0     C74169   9.716   1.341   3.278 -0.1646 -0.1241 -0.1964
  538MOL0     C74170   9.741   1.454   3.186 -0.1576  0.3508 -0.2315
  538MOL0     C74171   9.786   1.530   3.098 -0.9763  0.5775  0.7032
  538MOL0     C74172  10.082   0.889   2.956 -0.4005 -0.2420 -0.2345
  538MOL0     C74173  10.206   0.820   2.965  0.5058  0.6035  0.2446
  538MOL0     C74174  10.220   0.695   2.889 -0.6866 -0.5746  0.6806
  538MOL0     H74175  10.733   1.071   3.094  1.0160 -0.6553 -0.7528
  538MOL0     H74176  10.956   1.031   3.247  0.5277 -0.4986 -1.2696
  538MOL0     H74177  11.089   0.720   3.538  1.3875  3.1535  0.1768
  538MOL0     H74178  10.934   0.645   3.490  0.1618 -0.1067  1.3771
  538MOL0     H74179  10.814   0.814   3.584  0.4064 -0.6744 -1.7406
  538MOL0     H74180  10.909   0.754   3.722 -3.6642 -1.0011 -0.2050
  538MOL0     H74181  10.962   1.014   3.568 -0.7175  1.8931  1.7957
  538MOL0     H74182  10.922   1.018   3.723  0.5758  3.0157 -2.0582
  538MOL0     H74183  11.129   0.880   3.780 -1.1492 -0.1575 -0.7276
  538MOL0     H74184  11.182   0.897   3.617  0.4500  2.6461 -0.7619
  538MOL0     H74185  11.105   1.132   3.792 -0.1141  1.8918 -1.4511
  538MOL0     H74186  11.161   1.140   3.623 -1.2288 -2.1595 -0.4071
  538MOL0     H74187  11.322   1.000   3.837  2.1733 -0.0370  1.3596
  538MOL0     H74188  11.386   1.048   3.687  2.7613  4.4575  0.5567
  538MOL0     H74189  11.272   1.242   3.894  2.8530 -2.1920  3.0474
  538MOL0     H74190  11.353   1.300   3.747 -1.3369 -2.0000 -2.2521
  538MOL0     H74191  11.553   1.158   3.854  1.0586  0.1132  0.3909
  538MOL0     H74192  11.508   1.319   3.905  0.2827 -0.0081 -1.1802
  538MOL0     H74193  11.634   1.260   4.135 -0.5833  0.6719  0.2256
  538MOL0     H74194  11.618   1.207   4.389 -3.1264  3.6076 -0.3542
  538MOL0     H74195  11.583   1.041   4.437  1.6578  0.4894 -1.1695
  538MOL0     H74196  11.397   1.271   4.421 -0.5744 -0.2398  0.7306
  538MOL0     H74197  11.343   1.112   4.485 -0.3789  1.3665  3.6098
  538MOL0     H74198  11.515   1.139   4.666  1.2408  1.2490  0.7714
  538MOL0     H74199  11.568   1.302   4.596 -0.1461  1.5810 -1.7317
  538MOL0     H74200  11.425   1.321   4.801  0.0951  2.9790 -0.6289
  538MOL0     H74201  11.366   1.386   4.655  0.9358 -0.0974 -0.0223
  538MOL0     H74202  11.193   1.013   4.877 -3.6989 -0.8878 -0.1044
  538MOL0     H74203  10.971   0.994   5.147 -0.2731  0.8557 -0.4812
  538MOL0     H74204  11.136   0.966   5.178 -0.8690  0.0093  1.6114
  538MOL0     H74205  11.064   0.903   5.028 -1.3070  2.0910 -2.1890
  538MOL0     H74206  10.602   1.366   5.183 -1.7121  0.0778  0.4006
  538MOL0     H74207  10.466   1.519   5.333  0.0847  0.2558 -0.4912
  538MOL0     H74208  10.622   1.605   5.726 -0.0535  1.2168  0.8061
  538MOL0     H74209  10.463   1.665   5.746 -0.2342 -0.8891  0.5170
  538MOL0     H74210  10.368   1.444   5.663 -0.1286  1.0068  0.9599
  538MOL0     H74211  10.540   1.390   5.668  1.9889  1.7148 -0.2698
  538MOL0     H74212  10.385   1.352   5.857  0.2109  0.5818 -1.2878
  538MOL0     H74213  10.443   1.510   5.914 -1.5790  0.3716 -0.2487
  538MOL0     H74214  10.683   1.436   5.863  0.3291 -0.1735 -0.6966
  538MOL0     H74215  10.608   1.275   5.827 -1.4059 -1.2936  1.5434
  538MOL0     H74216  10.503   1.255   6.032  1.0996  0.8481  2.3070
  538MOL0     H74217  10.681   1.256   6.050  0.3451 -1.1633  0.7145
  538MOL0     H74218  10.506   1.496   6.137  3.2233  2.6234 -0.2462
  538MOL0     H74219  10.679   1.498   6.114  1.1117 -0.8372  1.6102
  538MOL0     H74220  10.576   1.479   6.330 -2.0387 -2.0801  0.4929
  538MOL0     H74221  10.708   1.355   6.299  1.1492  0.6520  0.6668
  538MOL0     H74222  10.523   1.275   6.422  1.3182  2.3016 -0.0779
  538MOL0     H74223  10.516   1.188   6.269  3.5055 -1.1857  1.8987
  538MOL0     H74224  10.804   1.582   5.581  1.7309 -0.5178 -1.2168
  538MOL0     H74225  10.944   1.469   5.419 -1.8392  1.4920 -0.2434
  538MOL0     H74226  11.039   1.450   5.039  0.7542 -1.4781  0.6365
  538MOL0     H74227  11.178   1.438   4.814 -0.0240 -1.3645 -1.0030
  538MOL0     H74228  10.786   0.664   3.354 -2.2747 -0.0485  0.3068
  538MOL0     H74229  10.588   0.696   3.218 -0.2683  1.3984 -2.2461
  538MOL0     H74230  10.357   1.063   3.136 -0.4622  1.4430 -2.2325
  538MOL0     H74231  10.184   1.157   3.124  0.5088 -0.2783 -0.0726
  538MOL0     H74232   9.973   1.265   3.081  2.4874 -2.1373  1.0585
  538MOL0     H74233   9.810   1.227   3.036 -0.9120 -1.2642 -0.1409
  538MOL0     H74234   9.962   1.104   3.275  1.2035  1.4002 -0.3829
  538MOL0     H74235   9.798   1.072   3.241 -0.1843 -0.7318 -1.0661
  538MOL0     H74236   9.822   1.247   3.421 -0.0471 -0.0563  0.0710
  538MOL0     H74237   9.924   1.337   3.319 -0.5582 -0.9367 -1.7236
  538MOL0     H74238   9.658   1.373   3.365 -0.0308 -0.3823 -0.0125
  538MOL0     H74239   9.656   1.269   3.223 -2.2309  0.8223  0.7176
  538MOL0     H74240   9.814   1.590   3.014 -0.2719  0.0321  0.5361
  538MOL0     H74241   9.998   0.854   2.896 -1.5255  1.9835 -0.0756
  538MOL0     H74242  10.253   0.609   2.948  2.0748 -1.0556 -1.3725
  538MOL0     H74243  10.126   0.662   2.843 -1.0075 -1.3738  1.8581
  538MOL0     H74244  10.297   0.697   2.811  0.6155 -0.8556  1.9164
  539MOL0     O74245   7.558  10.338  10.169  0.3310 -0.1441  0.2815
  539MOL0     C74246   7.468  10.425  10.185  0.1405  0.2694 -0.5124
  539MOL0     O74247   7.434  10.521  10.088  0.2514 -0.0151 -0.4759
  539MOL0     C74248   7.517  10.534   9.981 -0.8267  0.0043  0.3718
  539MOL0     C74249   7.556  10.429   9.893  0.6666 -0.3954 -0.0096
  539MOL0     C74250   7.629  10.447   9.776 -0.2759 -0.7170 -0.5400
  539MOL0     C74251   7.684  10.575   9.746  0.7359  0.3507  0.5597
  539MOL0     O74252   7.769  10.588   9.642 -0.2755 -0.4031  0.4665
  539MOL0     C74253   7.751  10.715   9.562  0.2078 -0.7673  0.7170
  539MOL0     C74254   7.814  10.687   9.415 -0.1201 -0.1428 -0.1814
  539MOL0     C74255   7.959  10.733   9.398  0.0695  0.4654  0.0969
  539MOL0     C74256   7.993  10.754   9.246 -0.6790 -0.2113 -0.2662
  539MOL0     C74257   8.136  10.809   9.230  0.8699 -0.1655 -0.3841
  539MOL0     C74258   8.144  10.930   9.133  0.3634 -0.4813 -0.9787
  539MOL0     C74259   8.268  11.013   9.160  0.2008 -0.2035 -0.5654
  539MOL0     C74260   8.303  11.123   9.058 -0.3553 -0.3839 -0.4984
  539MOL0     N74261   8.372  11.068   8.936  0.0225  0.0374 -0.3343
  539MOL0     C74262   8.483  10.986   8.946  0.0067 -0.3008 -0.0654
  539MOL0     C74263   8.556  11.006   8.831  0.5576  0.0031 -0.5142
  539MOL0     C74264   8.683  10.914   8.805  0.0763 -0.5139 -0.2316
  539MOL0     C74265   8.774  10.957   8.681  0.7300  0.9975 -0.1794
  539MOL0     C74266   8.868  11.084   8.707  0.1249 -0.3473  0.3767
  539MOL0     C74267   8.955  11.119   8.582  0.3329 -0.0871 -0.0741
  539MOL0     O74268   9.020  11.245   8.589 -0.7797 -0.3071  0.3447
  539MOL0     C74269   9.097  11.281   8.702 -0.4301  0.0744  0.0136
  539MOL0     C74270   9.052  11.382   8.787 -0.3042  0.2185 -0.0707
  539MOL0     C74271   9.136  11.421   8.889  0.5309 -1.0160 -0.4070
  539MOL0     C74272   9.076  11.530   8.986 -0.4210  0.5699  1.0160
  539MOL0     C74273   9.267  11.359   8.905 -0.3006 -0.5248 -1.0179
  539MOL0     C74274   9.366  11.406   9.015  0.4090  0.5178 -0.0151
  539MOL0     O74275   9.478  11.323   9.041 -0.1385 -0.2558  0.1156
  539MOL0     C74276   9.552  11.337   9.151 -0.0196 -0.4574  0.1825
  539MOL0     C74277   9.657  11.423   9.156  0.9932  0.0584 -0.4344
  539MOL0     C74278   9.744  11.437   9.266 -0.9819 -0.0863 -1.0024
  539MOL0     C74279   9.743  11.331   9.358  0.3215  0.1182 -0.4384
  539MOL0     O74280   9.826  11.346   9.466 -0.6660 -0.7381 -0.2280
  539MOL0     C74281   9.857  11.231   9.548  0.6743 -0.1172 -0.8124
  539MOL0     C74282   9.943  11.266   9.662  0.7794  0.5112 -0.4774
  539MOL0     C74283  10.022  11.147   9.726 -0.4250  0.7690 -0.2186
  539MOL0     C74284  10.055  11.171   9.873 -0.5372 -0.4344  1.1814
  539MOL0     C74285  10.134  11.055   9.928  0.1988  1.0412 -0.8325
  539MOL0     C74286  10.042  10.941   9.956  0.2970 -0.2879  0.1202
  539MOL0     C74287  10.117  10.825  10.041 -0.3926  0.1791  0.2703
  539MOL0     C74288  10.239  10.761   9.966  0.6460  0.4595 -0.3619
  539MOL0    Cl74289  10.196  10.674   9.806 -0.0318 -0.1897  0.1007
  539MOL0     C74290   9.633  11.241   9.362  0.0181  0.7497  0.2994
  539MOL0     C74291   9.536  11.251   9.260 -0.4752  0.6666  0.6043
  539MOL0     O74292   9.337  11.504   9.088  0.2309  0.5762  0.7095
  539MOL0     C74293   9.310  11.258   8.822 -0.4444  0.7224  0.2978
  539MOL0     C74294   9.224  11.222   8.717 -0.4308 -0.5330  0.3423
  539MOL0     N74295   8.479  11.087   8.745  0.3195  0.1206 -0.0899
  539MOL0     N74296   8.366  11.116   8.809 -0.0769 -0.1301 -0.2516
  539MOL0     C74297   7.662  10.673   9.839  0.6813  0.3781 -1.1895
  539MOL0     C74298   7.575  10.660   9.945 -0.0168 -0.4823 -0.1119
  539MOL0     C74299   7.384  10.418  10.315 -0.2326 -0.9406  0.0703
  539MOL0     C74300   7.275  10.504  10.326 -0.8278  0.3723  0.7315
  539MOL0     C74301   7.198  10.526  10.431  0.7375  0.4444  0.4336
  539MOL0     C74302   7.217  10.445  10.542  0.4567 -0.3797  0.0382
  539MOL0     O74303   7.133  10.463  10.646 -0.1395  0.6333 -0.0900
  539MOL0     C74304   7.135  10.362  10.748  0.1312 -0.5254  1.1120
  539MOL0     C74305   7.007  10.363  10.818  0.2669  1.0360  0.2788
  539MOL0     C74306   6.882  10.328  10.747  0.7366 -0.3522  0.4010
  539MOL0     C74307   6.751  10.375  10.831 -0.2176  1.0722 -0.4668
  539MOL0     C74308   6.741  10.299  10.954  0.2823  0.1017 -0.5819
  539MOL0     C74309   6.746  10.238  11.061 -0.1879 -0.9695  1.1168
  539MOL0     C74310   7.318  10.339  10.537  0.5775 -0.8546 -0.6156
  539MOL0     C74311   7.406  10.336  10.427 -0.1249 -0.4752  0.4542
  539MOL0     C74312   7.518  10.241  10.423  0.7267  1.0985  0.4356
  539MOL0     H74313   7.512  10.331   9.906 -0.4649 -0.3088 -2.6097
  539MOL0     H74314   7.650  10.356   9.721  0.5620  0.1614 -1.6942
  539MOL0     H74315   7.803  10.803   9.603  2.4811 -0.6806 -2.0391
  539MOL0     H74316   7.646  10.741   9.548  0.1410 -0.9750  0.8307
  539MOL0     H74317   7.817  10.581   9.386  1.1488 -0.3430  0.5979
  539MOL0     H74318   7.743  10.729   9.343  0.0096  2.8690  1.3182
  539MOL0     H74319   7.987  10.820   9.458  0.1568 -0.6680  1.7515
  539MOL0     H74320   8.029  10.654   9.428 -2.7549 -1.8942  0.9983
  539MOL0     H74321   7.982  10.658   9.195 -0.0886  0.3342 -1.4547
  539MOL0     H74322   7.923  10.830   9.210 -1.1267 -0.5627 -0.1459
  539MOL0     H74323   8.216  10.741   9.199  0.0573  0.2489 -3.7456
  539MOL0     H74324   8.160  10.848   9.330 -1.3420  0.6955 -0.1260
  539MOL0     H74325   8.151  10.895   9.029 -1.3697  3.9190 -2.8463
  539MOL0     H74326   8.054  10.992   9.131  2.5800  2.9977 -1.1712
  539MOL0     H74327   8.359  10.953   9.174 -0.1858 -0.6748 -0.0265
  539MOL0     H74328   8.244  11.068   9.251  0.3147  0.0146 -0.6638
  539MOL0     H74329   8.213  11.174   9.020 -0.1433  1.2176  1.0451
  539MOL0     H74330   8.366  11.202   9.099 -0.5248 -0.7894  0.5592
  539MOL0     H74331   8.518  10.923   9.028  1.5688 -5.8740 -4.3102
  539MOL0     H74332   8.645  10.814   8.780 -2.7849  0.6580 -1.0039
  539MOL0     H74333   8.747  10.916   8.893  1.0764 -0.5703 -0.9373
  539MOL0     H74334   8.840  10.872   8.660 -0.6225 -0.3605  0.9128
  539MOL0     H74335   8.715  10.963   8.589 -0.4980  2.0577  0.6425
  539MOL0     H74336   8.808  11.172   8.730  0.2188  0.2140 -1.3908
  539MOL0     H74337   8.937  11.068   8.791 -1.5486  4.4837  3.0541
  539MOL0     H74338   9.025  11.037   8.564 -0.8596 -0.9173 -1.0331
  539MOL0     H74339   8.892  11.113   8.492 -2.2125 -0.4856  1.6434
  539MOL0     H74340   8.950  11.415   8.770 -0.6056 -0.3048  0.6359
  539MOL0     H74341   9.131  11.623   8.972 -1.7895  0.8855 -4.4890
  539MOL0     H74342   9.056  11.488   9.085 -1.6322 -0.6441  0.3086
  539MOL0     H74343   8.974  11.545   8.949 -0.9513 -2.7729  0.8038
  539MOL0     H74344   9.677  11.497   9.078  1.8732  0.9774  0.6352
  539MOL0     H74345   9.827  11.507   9.269 -0.4689 -0.7189  0.7041
  539MOL0     H74346   9.764  11.200   9.597  1.0471  2.4834  1.7613
  539MOL0     H74347   9.899  11.150   9.486 -0.0562 -0.9630 -0.2297
  539MOL0     H74348  10.011  11.350   9.642 -1.2633  2.5258  0.4995
  539MOL0     H74349   9.873  11.306   9.736  1.0329  1.6906 -0.8441
  539MOL0     H74350  10.114  11.135   9.667 -0.0302  0.9044  0.3662
  539MOL0     H74351   9.962  11.057   9.710 -1.0850  1.4923 -2.1202
  539MOL0     H74352   9.964  11.182   9.933 -1.9422  1.5552 -1.1430
  539MOL0     H74353  10.108  11.267   9.869  2.0872 -1.8172 -1.7073
  539MOL0     H74354  10.208  11.027   9.852  1.1375  1.9331 -0.2777
  539MOL0     H74355  10.183  11.075  10.023  0.0331  2.5682 -1.0420
  539MOL0     H74356  10.016  10.900   9.858  1.4854  0.4404 -0.5200
  539MOL0     H74357   9.952  10.982  10.003 -0.0701  2.8773 -2.9151
  539MOL0     H74358  10.041  10.752  10.067  0.5290 -0.8380  0.1998
  539MOL0     H74359  10.147  10.855  10.142 -2.1198 -0.7041  1.0834
  539MOL0     H74360  10.276  10.693  10.044 -2.5835 -0.0566  0.9139
  539MOL0     H74361  10.316  10.838   9.956  0.3333  0.7260 -0.7099
  539MOL0     H74362   9.628  11.162   9.437 -2.9791  0.0708 -0.5027
  539MOL0     H74363   9.443  11.193   9.255  1.3146 -2.3516 -0.5379
  539MOL0     H74364   9.396  11.192   8.829 -0.3818  0.8969  1.2489
  539MOL0     H74365   9.251  11.141   8.650  0.0929 -0.1438  0.0711
  539MOL0     H74366   7.707  10.769   9.817 -0.2437  0.6364 -2.0508
  539MOL0     H74367   7.556  10.745  10.010 -0.6427 -0.4121 -0.3819
  539MOL0     H74368   7.265  10.578  10.247  2.0006 -0.4358 -0.4935
  539MOL0     H74369   7.137  10.615  10.440 -2.8860 -2.0027  2.9691
  539MOL0     H74370   7.156  10.266  10.700  0.6808  1.0169 -1.9812
  539MOL0     H74371   7.215  10.389  10.817  1.7069 -0.0989 -0.7881
  539MOL0     H74372   6.989  10.456  10.873  2.4779  2.0525 -0.5910
  539MOL0     H74373   7.015  10.283  10.892 -2.5825  0.3327 -0.0476
  539MOL0     H74374   6.878  10.376  10.649  1.2707 -2.3413 -0.6580
  539MOL0     H74375   6.883  10.223  10.718  4.1764  0.0344 -1.4079
  539MOL0     H74376   6.658  10.361  10.777 -0.4436 -0.8709  0.3600
  539MOL0     H74377   6.775  10.479  10.858  3.1967  0.1902  0.4217
  539MOL0     H74378   6.767  10.186  11.152  1.0379 -1.7522  0.4066
  539MOL0     H74379   7.334  10.273  10.622 -1.2479 -1.1129 -0.4345
  539MOL0     H74380   7.619  10.283  10.423  2.3948 -2.1204 -3.9407
  539MOL0     H74381   7.507  10.177  10.511  2.0402 -0.1689 -0.2906
  539MOL0     H74382   7.515  10.174  10.336 -1.2044  0.9703  0.5542
  540MOL0     O74383   9.445   9.275   0.940  0.5070 -0.1912 -0.0835
  540MOL0     C74384   9.515   9.182   0.993  0.3596  0.1136  0.4121
  540MOL0     O74385   9.465   9.055   1.017 -0.4482  0.2543  0.1971
  540MOL0     C74386   9.332   9.055   1.028 -0.5508 -0.3837 -0.0237
  540MOL0     C74387   9.267   8.993   0.930  0.0211  0.4501 -0.9422
  540MOL0     C74388   9.135   8.973   0.936  0.4399 -0.0141 -0.5047
  540MOL0     C74389   9.059   9.046   1.033  0.3583  0.1083  0.5324
  540MOL0     O74390   8.921   9.048   1.026 -0.2900  0.7130  0.0536
  540MOL0     C74391   8.847   9.050   0.902  0.3580  0.6987 -0.4015
  540MOL0     C74392   8.707   9.108   0.951 -0.3694 -0.0490 -0.4774
  540MOL0     C74393   8.596   9.093   0.834 -0.7142  0.8407 -0.3639
  540MOL0     C74394   8.489   9.203   0.839 -0.0943  0.0305 -0.2412
  540MOL0     C74395   8.479   9.273   0.706  0.7523  0.2742 -0.8997
  540MOL0     C74396   8.398   9.401   0.727 -0.0904 -0.2559 -0.2205
  540MOL0     C74397   8.350   9.458   0.603  0.1905 -0.2672  0.3641
  540MOL0     C74398   8.299   9.612   0.610 -0.7069  0.6574 -0.7081
  540MOL0     N74399   8.305   9.655   0.477  0.3282  0.1094 -0.0591
  540MOL0     C74400   8.405   9.728   0.419  0.0486  0.2514  0.3818
  540MOL0     C74401   8.350   9.791   0.308 -0.2928 -0.6041 -0.9293
  540MOL0     C74402   8.404   9.886   0.203 -0.4940 -0.2625  0.3919
  540MOL0     C74403   8.488   9.789   0.101  0.1854 -0.6837  0.0894
  540MOL0     C74404   8.408   9.679   0.034  0.3494 -0.1340 -0.0230
  540MOL0     C74405   8.477   9.644  -0.096 -0.3962 -0.2867  0.0812
  540MOL0     O74406   8.621   9.639  -0.080  0.0786 -0.3123  0.0012
  540MOL0     C74407   8.702   9.599  -0.177 -0.2426  0.3409  0.1504
  540MOL0     C74408   8.829   9.558  -0.131 -0.3950  0.5232 -0.4101
  540MOL0     C74409   8.920   9.497  -0.213 -0.2793 -0.3818  1.1117
  540MOL0     C74410   9.041   9.446  -0.138  1.0458  0.1894  0.4847
  540MOL0     C74411   8.892   9.477  -0.350 -0.9012  0.0086  0.0622
  540MOL0     C74412   8.988   9.411  -0.447  1.0244 -0.8452 -0.2378
  540MOL0     O74413   8.947   9.370  -0.566  0.0597  0.0862 -0.1878
  540MOL0     C74414   9.032   9.285  -0.633  0.0456  0.6003 -0.5201
  540MOL0     C74415   9.094   9.317  -0.765 -0.3341  0.4134 -0.2542
  540MOL0     C74416   9.155   9.215  -0.836  0.2088  0.2619  0.5125
  540MOL0     C74417   9.173   9.086  -0.784  0.1787  0.5130  0.7403
  540MOL0     O74418   9.246   9.005  -0.861 -0.1773  0.4212 -0.2227
  540MOL0     C74419   9.223   8.987  -0.997  0.5351 -0.1051 -0.6970
  540MOL0     C74420   9.260   8.847  -1.045 -0.6660  0.0810 -0.0880
  540MOL0     C74421   9.392   8.785  -1.002 -0.3960 -1.7591 -0.0051
  540MOL0     C74422   9.508   8.881  -1.046 -0.1459 -0.3354  0.4950
  540MOL0     C74423   9.637   8.817  -0.985  0.8132  0.0227  0.1937
  540MOL0     C74424   9.758   8.918  -1.002  0.4212 -0.3436 -0.0987
  540MOL0     C74425   9.892   8.847  -0.961  0.0995 -0.7324 -0.3433
  540MOL0     C74426  10.020   8.933  -0.964  0.4503  0.1212  0.3108
  540MOL0    Cl74427  10.023   8.994  -1.129  0.0181  0.4097 -0.2641
  540MOL0     C74428   9.123   9.053  -0.651 -0.2390  0.4272 -0.1879
  540MOL0     C74429   9.051   9.153  -0.585 -0.5658  0.0225 -0.4370
  540MOL0     O74430   9.101   9.403  -0.407 -0.9937  0.2290  0.6490
  540MOL0     C74431   8.770   9.513  -0.399  1.3085 -0.9025 -0.1449
  540MOL0     C74432   8.678   9.587  -0.317  0.1681  0.3971 -0.8746
  540MOL0     N74433   8.219   9.755   0.309 -0.7986  0.3786  0.2230
  540MOL0     N74434   8.199   9.667   0.403  0.0850  0.1451  0.2538
  540MOL0     C74435   9.129   9.110   1.139  0.3120  0.2135 -0.1322
  540MOL0     C74436   9.269   9.117   1.134 -0.1736 -0.3729 -0.2245
  540MOL0     C74437   9.665   9.190   1.000 -0.3659 -0.2668  0.4477
  540MOL0     C74438   9.740   9.083   1.051 -0.2633  1.0627 -0.4419
  540MOL0     C74439   9.880   9.097   1.090 -0.2282 -0.5571  1.1409
  540MOL0     C74440   9.953   9.208   1.073 -0.4989 -0.1813  0.5823
  540MOL0     O74441  10.076   9.209   1.119  0.5561  0.1557  1.0018
  540MOL0     C74442  10.148   9.332   1.116 -0.2523  0.1080 -0.0772
  540MOL0     C74443  10.253   9.334   1.011 -0.5913 -0.3551  0.3993
  540MOL0     C74444  10.381   9.252   1.070  0.3320 -0.1623 -0.2241
  540MOL0     C74445  10.487   9.242   0.963 -0.3299  1.1328 -0.9973
  540MOL0     C74446  10.603   9.168   1.010  0.6418 -0.6174 -0.2862
  540MOL0     C74447  10.701   9.106   1.049  0.3619  0.1868  0.0071
  540MOL0     C74448   9.886   9.306   0.998 -0.5285 -0.1749  0.2980
  540MOL0     C74449   9.743   9.300   0.969 -0.9668 -0.2697  0.2302
  540MOL0     C74450   9.693   9.426   0.902  0.6602  0.8843 -0.1295
  540MOL0     H74451   9.331   8.964   0.847  1.5448  0.2674  0.2486
  540MOL0     H74452   9.090   8.927   0.849  0.1013  0.6469 -0.6841
  540MOL0     H74453   8.834   8.948   0.865 -2.1707 -0.1703  2.5110
  540MOL0     H74454   8.896   9.112   0.826  1.7625  0.5893  0.3667
  540MOL0     H74455   8.672   9.048   1.036  2.4162 -2.9757 -1.2188
  540MOL0     H74456   8.724   9.206   0.994  0.2460 -0.2592 -0.2290
  540MOL0     H74457   8.652   9.099   0.740 -1.9321  0.4011 -1.1382
  540MOL0     H74458   8.551   8.994   0.848 -0.4213  1.1185  3.6582
  540MOL0     H74459   8.391   9.159   0.861  1.5368 -4.3542 -0.6587
  540MOL0     H74460   8.519   9.280   0.911  0.4577 -0.4415  0.0462
  540MOL0     H74461   8.430   9.213   0.628  0.0440 -0.2392 -0.0819
  540MOL0     H74462   8.579   9.304   0.673  1.8495 -1.0331  1.0126
  540MOL0     H74463   8.316   9.391   0.799  0.0969 -0.4365 -0.0295
  540MOL0     H74464   8.467   9.474   0.773  1.8233 -2.8069  1.2515
  540MOL0     H74465   8.275   9.385   0.572 -0.8888  1.4141 -1.1653
  540MOL0     H74466   8.430   9.447   0.529 -1.5343 -1.0076 -1.4633
  540MOL0     H74467   8.196   9.616   0.649 -0.9882 -0.6626 -1.2890
  540MOL0     H74468   8.359   9.678   0.675 -2.2489 -1.8205  3.6794
  540MOL0     H74469   8.511   9.731   0.443  1.0967 -1.4580 -3.3149
  540MOL0     H74470   8.483   9.951   0.243 -1.9959  1.3587  0.8731
  540MOL0     H74471   8.315   9.937   0.166 -2.3031 -1.6023  2.6080
  540MOL0     H74472   8.508   9.867   0.027 -1.9406 -0.0840  0.0715
  540MOL0     H74473   8.577   9.757   0.155 -0.1700 -1.7233  0.0810
  540MOL0     H74474   8.418   9.591   0.099 -2.6441 -1.1139 -0.7385
  540MOL0     H74475   8.304   9.704   0.015 -0.2773 -1.1592  1.8261
  540MOL0     H74476   8.449   9.547  -0.138 -0.2678  0.6373 -2.2908
  540MOL0     H74477   8.457   9.717  -0.175  2.3406 -1.1099 -1.5010
  540MOL0     H74478   8.846   9.567  -0.024 -2.6970 -1.0494  0.1773
  540MOL0     H74479   9.130   9.509  -0.148 -0.3648  2.0494 -0.9892
  540MOL0     H74480   9.069   9.352  -0.187 -2.0060 -0.2178 -0.7066
  540MOL0     H74481   9.021   9.428  -0.032  0.5947  1.0281  0.5500
  540MOL0     H74482   9.092   9.421  -0.795 -1.2228 -0.1338 -2.2709
  540MOL0     H74483   9.184   9.228  -0.939 -0.2570  3.7301  0.6952
  540MOL0     H74484   9.118   9.011  -1.015  0.5398  2.3848  1.8602
  540MOL0     H74485   9.277   9.062  -1.056 -0.1827  1.6855  0.8328
  540MOL0     H74486   9.181   8.774  -1.023 -1.6000  0.4790 -1.9179
  540MOL0     H74487   9.269   8.846  -1.154  1.3691  3.1903 -0.0722
  540MOL0     H74488   9.402   8.694  -1.063  2.9961 -0.6297 -1.4113
  540MOL0     H74489   9.397   8.771  -0.894  0.2950  0.6441  0.3263
  540MOL0     H74490   9.495   8.982  -1.007 -1.8077 -0.5428  0.5408
  540MOL0     H74491   9.525   8.880  -1.154 -2.5758 -2.1358  0.0502
  540MOL0     H74492   9.621   8.806  -0.878  1.0093  2.8741  0.5898
  540MOL0     H74493   9.669   8.726  -1.036  0.1772 -1.8080  2.8681
  540MOL0     H74494   9.752   9.006  -0.937 -1.6409 -2.6754  3.2107
  540MOL0     H74495   9.764   8.950  -1.106  0.8530  4.7308  1.2050
  540MOL0     H74496   9.893   8.757  -1.022 -0.2739 -0.8708 -0.1462
  540MOL0     H74497   9.884   8.820  -0.855 -2.6690 -0.7062 -0.4810
  540MOL0     H74498  10.107   8.875  -0.932 -0.6901 -1.8251  0.0187
  540MOL0     H74499   9.995   9.010  -0.890 -2.8359  0.4186 -0.9618
  540MOL0     H74500   9.139   8.955  -0.608 -1.2160 -0.2853 -1.3773
  540MOL0     H74501   9.006   9.134  -0.488  1.6098 -3.3994  0.0912
  540MOL0     H74502   8.748   9.502  -0.504  1.9783  3.1238 -0.8898
  540MOL0     H74503   8.586   9.620  -0.366 -0.6043  1.6036  1.2652
  540MOL0     H74504   9.071   9.160   1.216 -0.2090 -0.8566  0.1954
  540MOL0     H74505   9.326   9.163   1.215  1.5210 -3.6638  0.6309
  540MOL0     H74506   9.691   8.998   1.097 -0.0221  0.0101 -2.0834
  540MOL0     H74507   9.935   9.019   1.140 -0.5676 -3.2267 -2.2483
  540MOL0     H74508  10.096   9.425   1.090  0.7121 -0.0243 -2.6978
  540MOL0     H74509  10.197   9.356   1.211 -2.0300  3.1543  0.2009
  540MOL0     H74510  10.280   9.440   1.002 -3.4063  0.4517  0.5657
  540MOL0     H74511  10.219   9.292   0.916 -0.6909  0.8317 -0.1102
  540MOL0     H74512  10.434   9.305   1.150  0.2228  2.5805 -1.8398
  540MOL0     H74513  10.339   9.154   1.097  1.1491 -0.5891 -0.4820
  540MOL0     H74514  10.513   9.336   0.913 -1.2731  1.2925 -1.1964
  540MOL0     H74515  10.433   9.193   0.881 -0.2576 -0.4282 -0.1473
  540MOL0     H74516  10.780   9.040   1.079  1.7094  1.5195 -0.4785
  540MOL0     H74517   9.938   9.398   0.972 -1.6167  0.6806  1.0865
  540MOL0     H74518   9.628   9.414   0.815  0.2675  3.1424 -0.2026
  540MOL0     H74519   9.630   9.468   0.981  0.0340 -1.8920  0.9744
  540MOL0     H74520   9.778   9.483   0.864  0.6565 -0.0000 -1.5378
  541MOL0     O74521   2.869   5.430   3.411 -0.7058  0.3491  0.2554
  541MOL0     C74522   2.758   5.381   3.383  0.1770  0.6458 -0.0918
  541MOL0     O74523   2.657   5.448   3.316 -0.0827 -0.4007 -0.1393
  541MOL0     C74524   2.684   5.588   3.296 -0.2959 -0.1801  0.1423
  541MOL0     C74525   2.662   5.650   3.175  0.6095  0.1879  0.7998
  541MOL0     C74526   2.682   5.790   3.154  1.7206  0.0894  0.2056
  541MOL0     C74527   2.724   5.872   3.265 -0.1026 -0.1509  0.2149
  541MOL0     O74528   2.751   6.007   3.257 -0.2627  0.1813  0.0449
  541MOL0     C74529   2.752   6.077   3.124 -0.4473 -0.2925 -0.3786
  541MOL0     C74530   2.706   6.219   3.138  0.9009 -0.2061 -0.2763
  541MOL0     C74531   2.570   6.220   3.213  0.3815 -0.3162  0.3012
  541MOL0     C74532   2.500   6.362   3.213 -0.3443  1.0211  0.3028
  541MOL0     C74533   2.363   6.360   3.284  0.1473 -0.0230 -1.1207
  541MOL0     C74534   2.361   6.400   3.433 -0.2113 -0.3330  0.7050
  541MOL0     C74535   2.240   6.339   3.499  0.6977  0.1719  0.3379
  541MOL0     C74536   2.227   6.389   3.634  0.5004 -0.4043  0.0994
  541MOL0     N74537   2.113   6.334   3.708 -0.3006 -0.9302  0.0086
  541MOL0     C74538   1.991   6.402   3.705  0.2560 -0.3221  0.3879
  541MOL0     C74539   1.916   6.340   3.798 -0.4206 -0.3579 -0.1512
  541MOL0     C74540   1.785   6.388   3.852 -1.0540  0.5692 -0.1857
  541MOL0     C74541   1.801   6.497   3.959 -0.0752 -0.2286  0.0730
  541MOL0     C74542   1.662   6.554   3.998 -0.3500  0.2317  0.5012
  541MOL0     C74543   1.561   6.593   3.894 -1.4433 -0.7052  0.5255
  541MOL0     O74544   1.498   6.480   3.830 -0.3640 -0.7086 -0.1050
  541MOL0     C74545   1.439   6.515   3.711 -0.4722  0.4743 -0.6113
  541MOL0     C74546   1.403   6.650   3.665 -0.2431 -0.2764 -0.2502
  541MOL0     C74547   1.326   6.659   3.547  0.3194 -0.1647  0.0688
  541MOL0     C74548   1.268   6.792   3.528 -0.5270  0.5377  0.6045
  541MOL0     C74549   1.305   6.549   3.475 -0.2656 -0.4191 -0.0379
  541MOL0     C74550   1.231   6.552   3.345  0.2361  0.0024 -0.2475
  541MOL0     O74551   1.102   6.513   3.324  0.3020  0.1755 -0.2669
  541MOL0     C74552   1.035   6.448   3.432 -0.2460  1.0534  0.6351
  541MOL0     C74553   1.005   6.316   3.400  0.0744 -0.0607 -0.4487
  541MOL0     C74554   0.925   6.237   3.479  0.3522  0.3077 -0.3773
  541MOL0     C74555   0.900   6.283   3.614 -0.4696 -0.0122 -0.3492
  541MOL0     O74556   0.846   6.186   3.691  0.0571  0.4364  0.0992
  541MOL0     C74557   0.863   6.175   3.829  0.3636  0.0058 -0.1076
  541MOL0     C74558   0.729   6.196   3.899  0.3977 -0.9310  0.2595
  541MOL0     C74559   0.730   6.159   4.052 -0.0259  0.2376  0.2412
  541MOL0     C74560   0.794   6.259   4.148 -0.7535 -0.4550  0.0243
  541MOL0     C74561   0.765   6.401   4.128  0.5350 -0.0367 -0.5342
  541MOL0     C74562   0.846   6.504   4.219  1.0914  0.4585  1.5855
  541MOL0     C74563   0.816   6.480   4.366 -0.2245  0.5584 -0.3797
  541MOL0     C74564   0.870   6.594   4.444  0.6452 -0.0734 -0.2304
  541MOL0    Cl74565   0.892   6.563   4.622  0.3504 -0.1926 -0.4150
  541MOL0     C74566   0.928   6.414   3.647  0.9367 -0.5171 -0.5638
  541MOL0     C74567   0.994   6.506   3.550  0.3888  0.6873  0.3448
  541MOL0     O74568   1.296   6.599   3.251  0.2565  0.1564 -0.2473
  541MOL0     C74569   1.348   6.419   3.513 -0.6152  0.7089 -0.0339
  541MOL0     C74570   1.404   6.401   3.637 -0.2135 -0.0210  0.3111
  541MOL0     N74571   1.989   6.241   3.842 -0.6523  0.3450  0.0938
  541MOL0     N74572   2.109   6.251   3.808  0.2227 -0.1084 -0.4146
  541MOL0     C74573   2.718   5.811   3.391  0.0856 -1.5323 -0.7952
  541MOL0     C74574   2.701   5.672   3.403  0.2481 -0.1453 -0.9541
  541MOL0     C74575   2.740   5.235   3.415  0.7901  0.4723  0.4142
  541MOL0     C74576   2.607   5.190   3.422 -0.3459 -0.0802  0.2371
  541MOL0     C74577   2.572   5.059   3.441  0.7065 -0.5219  0.1342
  541MOL0     C74578   2.667   4.966   3.475 -0.5550 -0.3411 -0.3537
  541MOL0     O74579   2.640   4.830   3.498 -0.4045 -0.4504  0.9756
  541MOL0     C74580   2.716   4.734   3.415 -0.4860 -1.4937  0.0096
  541MOL0     C74581   2.750   4.623   3.507 -0.0228  0.1372  0.5789
  541MOL0     C74582   2.860   4.672   3.615  0.3973  0.8121  0.9124
  541MOL0     C74583   2.936   4.558   3.665 -0.5158 -0.5252 -0.4110
  541MOL0     C74584   3.019   4.605   3.778  0.1985  0.3415 -0.5575
  541MOL0     C74585   3.102   4.646   3.850  0.3525 -0.8266  0.8870
  541MOL0     C74586   2.802   5.009   3.472  0.3324 -0.8342 -0.0230
  541MOL0     C74587   2.839   5.143   3.450 -0.0500  0.1107  0.9594
  541MOL0     C74588   2.982   5.174   3.452 -0.2012  0.5654  0.4161
  541MOL0     H74589   2.639   5.581   3.095 -1.2731 -0.8440  2.1380
  541MOL0     H74590   2.684   5.824   3.051  0.8334  0.0358  0.1597
  541MOL0     H74591   2.693   6.027   3.046  0.9861 -0.8201 -1.1560
  541MOL0     H74592   2.855   6.083   3.089  0.3804  1.5975  2.0888
  541MOL0     H74593   2.784   6.263   3.202  1.4331 -0.5356 -0.6868
  541MOL0     H74594   2.705   6.268   3.041 -0.8707 -0.2841 -0.3210
  541MOL0     H74595   2.509   6.148   3.159  2.1820 -1.1777 -0.6788
  541MOL0     H74596   2.582   6.187   3.316 -0.5763  0.2505  0.6073
  541MOL0     H74597   2.570   6.424   3.270  2.2402 -0.2180 -1.3580
  541MOL0     H74598   2.489   6.405   3.113 -1.0819 -0.6000 -0.3516
  541MOL0     H74599   2.327   6.257   3.270 -0.2413 -0.1163  0.3852
  541MOL0     H74600   2.294   6.425   3.229  0.1337  1.0769  0.1394
  541MOL0     H74601   2.445   6.366   3.494  0.9586  0.0102 -0.6490
  541MOL0     H74602   2.359   6.509   3.439  0.1398 -0.3847  1.9353
  541MOL0     H74603   2.259   6.231   3.493 -0.0252  0.1043 -1.2264
  541MOL0     H74604   2.153   6.363   3.438  1.1638 -1.6997 -1.1609
  541MOL0     H74605   2.319   6.360   3.687  0.4247 -1.7621 -0.4493
  541MOL0     H74606   2.209   6.496   3.638  0.4520 -0.3997 -0.2230
  541MOL0     H74607   1.975   6.492   3.647 -0.2398 -1.7715 -1.8691
  541MOL0     H74608   1.730   6.302   3.892 -1.1351 -0.5217 -2.4674
  541MOL0     H74609   1.729   6.418   3.763  0.6869 -1.6991 -2.1827
  541MOL0     H74610   1.858   6.461   4.045  2.2337 -0.0372 -1.2976
  541MOL0     H74611   1.855   6.581   3.915  0.6849 -0.7121  0.0708
  541MOL0     H74612   1.607   6.490   4.068 -0.1782  0.8477  1.2194
  541MOL0     H74613   1.684   6.643   4.057 -2.6546  0.6056  0.9090
  541MOL0     H74614   1.485   6.657   3.941 -1.3885  2.2018 -2.9230
  541MOL0     H74615   1.620   6.648   3.820 -1.4529  0.0461  1.0554
  541MOL0     H74616   1.431   6.742   3.716 -0.1254 -1.7704  2.5348
  541MOL0     H74617   1.343   6.860   3.486  0.0566  0.3485  1.3216
  541MOL0     H74618   1.232   6.842   3.618 -0.3856 -1.7890  2.0469
  541MOL0     H74619   1.182   6.793   3.460 -1.5640 -0.1625  1.8641
  541MOL0     H74620   1.059   6.278   3.313 -0.9386 -1.0134 -0.6914
  541MOL0     H74621   0.883   6.143   3.446  1.7414  0.1775 -1.9421
  541MOL0     H74622   0.907   6.076   3.843 -0.2076 -0.0718  1.2105
  541MOL0     H74623   0.947   6.242   3.853 -0.6415  1.1207  0.4150
  541MOL0     H74624   0.713   6.303   3.881 -1.4059 -1.0894  0.7047
  541MOL0     H74625   0.641   6.158   3.845 -1.6664  3.2545  0.2619
  541MOL0     H74626   0.771   6.058   4.063 -0.4918  0.2301  2.4372
  541MOL0     H74627   0.624   6.155   4.078 -0.6755  1.6891 -1.9655
  541MOL0     H74628   0.902   6.245   4.144 -0.4428  1.7729 -1.8153
  541MOL0     H74629   0.753   6.243   4.248 -4.0657 -1.3935 -1.3156
  541MOL0     H74630   0.792   6.431   4.027  2.9371 -2.6626 -0.7762
  541MOL0     H74631   0.658   6.417   4.147  0.8525  0.4108  1.0369
  541MOL0     H74632   0.813   6.606   4.199 -1.7751 -0.5162  0.8538
  541MOL0     H74633   0.953   6.505   4.195  0.8796 -0.5671  0.5203
  541MOL0     H74634   0.874   6.392   4.399 -1.4834  0.3252  1.3431
  541MOL0     H74635   0.713   6.453   4.387 -0.6428  3.6945  2.4492
  541MOL0     H74636   0.805   6.681   4.430  1.3906  0.4252 -0.6525
  541MOL0     H74637   0.962   6.625   4.394 -1.4279  3.5343 -2.1850
  541MOL0     H74638   0.908   6.431   3.752  0.5510  1.8043 -0.9603
  541MOL0     H74639   1.022   6.608   3.574  0.3651  1.0522 -1.1094
  541MOL0     H74640   1.329   6.335   3.448 -1.4479  0.2625  0.7583
  541MOL0     H74641   1.445   6.304   3.664  0.1119 -0.0334 -0.2025
  541MOL0     H74642   2.745   5.855   3.486 -2.9109 -3.2183  0.9827
  541MOL0     H74643   2.716   5.630   3.502  3.0834  0.0434 -1.2321
  541MOL0     H74644   2.523   5.252   3.395 -1.5468 -1.7809 -0.1192
  541MOL0     H74645   2.465   5.040   3.435  0.5899 -0.3279  1.3838
  541MOL0     H74646   2.655   4.716   3.326 -1.0680 -0.0399  0.0755
  541MOL0     H74647   2.811   4.773   3.377 -1.1286  0.3515  0.1884
  541MOL0     H74648   2.778   4.532   3.453 -4.1689 -1.5216  0.8566
  541MOL0     H74649   2.656   4.600   3.559 -0.6127  0.7617 -0.1933
  541MOL0     H74650   2.935   4.730   3.561  0.1328 -0.9046 -1.4272
  541MOL0     H74651   2.820   4.741   3.691  1.4899  0.7060  1.6095
  541MOL0     H74652   2.999   4.523   3.582 -2.2430 -1.7740 -1.2570
  541MOL0     H74653   2.863   4.483   3.697 -1.1488  0.3690  0.2761
  541MOL0     H74654   3.184   4.681   3.908  2.7266 -1.2152 -1.9873
  541MOL0     H74655   2.880   4.939   3.502 -0.9660 -1.8898  1.0038
  541MOL0     H74656   3.025   5.220   3.362  1.5461 -1.9847 -0.1672
  541MOL0     H74657   3.011   5.243   3.531 -0.4609 -1.3409  2.2600
  541MOL0     H74658   3.035   5.080   3.472 -0.3130  0.9286  2.5653
  542MOL0     O74659   8.498   2.395  10.718 -0.5353 -0.0227 -0.5023
  542MOL0     C74660   8.491   2.516  10.750 -0.2249  0.2959 -1.0323
  542MOL0     O74661   8.564   2.614  10.690 -0.0260  0.4764  0.3594
  542MOL0     C74662   8.650   2.602  10.586  0.5107  0.1447  0.0898
  542MOL0     C74663   8.661   2.715  10.505 -0.4090  0.7398 -0.5034
  542MOL0     C74664   8.728   2.724  10.385  0.0306  0.1870  0.4183
  542MOL0     C74665   8.808   2.619  10.353 -0.4845 -0.8608 -0.0240
  542MOL0     O74666   8.876   2.620  10.231  0.6612  0.9187 -0.4294
  542MOL0     C74667   9.010   2.668  10.227 -1.6645 -0.7041 -0.4309
  542MOL0     C74668   9.048   2.709  10.091  1.4179 -0.0396 -0.6647
  542MOL0     C74669   9.165   2.802  10.092  0.0598 -0.2585 -0.8993
  542MOL0     C74670   9.202   2.844   9.947  0.0030  0.9001  0.6060
  542MOL0     C74671   9.324   2.946   9.921 -0.0073  0.3204 -0.2878
  542MOL0     C74672   9.296   3.084   9.969 -0.4830  0.0078  1.0247
  542MOL0     C74673   9.431   3.168   9.960 -0.5404  0.1660  0.8643
  542MOL0     C74674   9.403   3.302  10.041 -0.0015  0.7672 -0.1723
  542MOL0     N74675   9.398   3.277  10.187 -0.5661  0.7712  0.3571
  542MOL0     C74676   9.498   3.204  10.262  0.1835  0.0775 -0.2590
  542MOL0     C74677   9.435   3.168  10.378  0.2876  0.2497 -0.6188
  542MOL0     C74678   9.484   3.072  10.486 -0.0446 -0.4579 -0.3170
  542MOL0     C74679   9.413   2.937  10.454  0.3806 -0.4138  0.0004
  542MOL0     C74680   9.459   2.838  10.562 -0.0025 -0.0626  0.4227
  542MOL0     C74681   9.371   2.708  10.551  0.4905 -0.3624 -0.1856
  542MOL0     O74682   9.397   2.646  10.421 -0.1408  0.0061  0.5480
  542MOL0     C74683   9.449   2.520  10.427 -0.3050 -0.0170  0.1280
  542MOL0     C74684   9.381   2.431  10.343 -0.7977 -0.1147  0.2174
  542MOL0     C74685   9.427   2.295  10.336 -0.4289  0.3856  0.1584
  542MOL0     C74686   9.337   2.201  10.259  0.3858 -0.6624  0.1914
  542MOL0     C74687   9.541   2.255  10.411 -0.2936  0.9520 -0.0730
  542MOL0     C74688   9.600   2.116  10.399  0.4859  0.8142 -0.1324
  542MOL0     O74689   9.600   2.063  10.281  0.6978  0.0450 -0.3697
  542MOL0     C74690   9.576   1.930  10.258  0.7611 -0.2729 -0.7434
  542MOL0     C74691   9.548   1.825  10.353 -0.5257 -0.0309 -0.0040
  542MOL0     C74692   9.533   1.694  10.310  0.1353  0.8615 -0.0512
  542MOL0     C74693   9.537   1.660  10.175 -0.3320  0.7933  0.3345
  542MOL0     O74694   9.516   1.528  10.145 -0.2812  0.2297 -0.4055
  542MOL0     C74695   9.540   1.477  10.009 -1.0875  0.2149  0.3083
  542MOL0     C74696   9.505   1.329   9.991  0.0974  0.1115  0.9696
  542MOL0     C74697   9.359   1.304  10.023  0.3749  0.2640 -0.1587
  542MOL0     C74698   9.319   1.154   9.991  1.0715 -0.0717  0.2098
  542MOL0     C74699   9.165   1.115  10.017 -0.2155 -0.4761 -1.1162
  542MOL0     C74700   9.114   0.979   9.969  1.0221  0.0420 -0.1532
  542MOL0     C74701   9.198   0.855   9.999  0.7856 -0.6042  0.0620
  542MOL0     C74702   9.170   0.757   9.884  0.2755 -0.0291 -0.0053
  542MOL0    Cl74703   8.991   0.725   9.877 -0.3902  0.3480  0.2443
  542MOL0     C74704   9.551   1.762  10.083  0.8806 -0.1179 -0.2747
  542MOL0     C74705   9.568   1.897  10.123  0.0941  0.0704  0.3483
  542MOL0     O74706   9.654   2.067  10.493  0.4146 -0.1843  0.3946
  542MOL0     C74707   9.607   2.357  10.482 -0.2434 -0.5250  0.7636
  542MOL0     C74708   9.564   2.484  10.497  0.0591 -0.1134  0.3787
  542MOL0     N74709   9.302   3.212  10.361 -1.2307  0.3427  0.2611
  542MOL0     N74710   9.285   3.286  10.258 -0.3655 -1.0188  0.1761
  542MOL0     C74711   8.812   2.503  10.436  0.5096  0.0726 -0.2674
  542MOL0     C74712   8.728   2.498  10.549 -0.0868  0.7105  0.1249
  542MOL0     C74713   8.417   2.560  10.869 -0.5815 -0.4888 -0.3387
  542MOL0     C74714   8.368   2.461  10.954 -0.6781  0.2624  0.0915
  542MOL0     C74715   8.326   2.494  11.077  0.5547  0.3052 -0.6479
  542MOL0     C74716   8.300   2.630  11.116 -0.2889  0.5380  0.3465
  542MOL0     O74717   8.242   2.671  11.233 -0.3463  0.1573 -0.0344
  542MOL0     C74718   8.222   2.578  11.336  0.5147  1.5475 -0.5672
  542MOL0     C74719   8.180   2.635  11.468 -0.5679 -0.0846  0.7523
  542MOL0     C74720   8.282   2.734  11.518  1.0908  0.8065 -0.2761
  542MOL0     C74721   8.249   2.778  11.660 -0.7064 -0.0932 -0.7488
  542MOL0     C74722   8.121   2.838  11.661  0.7786 -0.8497  0.5100
  542MOL0     C74723   8.005   2.883  11.670 -0.2713  0.6611  0.2391
  542MOL0     C74724   8.334   2.721  11.024  0.6648 -0.3438 -0.2868
  542MOL0     C74725   8.382   2.687  10.899 -0.7380 -0.4043 -0.5511
  542MOL0     C74726   8.404   2.803  10.808 -0.1948  0.2042 -0.4556
  542MOL0     H74727   8.604   2.803  10.533  0.3746  1.0445  0.1796
  542MOL0     H74728   8.715   2.804  10.312  0.0035 -0.3677 -0.1892
  542MOL0     H74729   9.076   2.600  10.282 -4.6589 -1.9689  1.8397
  542MOL0     H74730   9.022   2.761  10.284 -2.0378 -0.8470 -0.1152
  542MOL0     H74731   9.066   2.621  10.029 -1.1406 -1.2453  0.1666
  542MOL0     H74732   8.962   2.749  10.037  2.0111 -2.0369 -3.2926
  542MOL0     H74733   9.150   2.886  10.160  0.8465  0.0097 -1.0467
  542MOL0     H74734   9.252   2.745  10.127  0.8321 -0.5228 -3.0625
  542MOL0     H74735   9.233   2.752   9.896  0.0160  2.4761 -2.4384
  542MOL0     H74736   9.109   2.873   9.897  1.6847  2.0873 -2.0395
  542MOL0     H74737   9.364   2.949   9.819 -0.7280  1.3983 -0.5505
  542MOL0     H74738   9.409   2.909   9.980 -0.0488  2.1081  0.9469
  542MOL0     H74739   9.218   3.127   9.905  0.2032 -1.6265 -1.0335
  542MOL0     H74740   9.263   3.074  10.072  0.9989 -0.3889  1.4838
  542MOL0     H74741   9.458   3.191   9.857  3.4857  0.2438  1.7755
  542MOL0     H74742   9.519   3.125  10.008 -0.4177 -0.9230 -0.2874
  542MOL0     H74743   9.494   3.359  10.020  1.8389 -1.5342  1.0842
  542MOL0     H74744   9.314   3.354  10.005 -3.1729 -3.2606  1.0685
  542MOL0     H74745   9.595   3.173  10.225 -0.5861  0.8523 -3.1892
  542MOL0     H74746   9.459   3.103  10.588  0.4094  0.4698 -0.4783
  542MOL0     H74747   9.591   3.062  10.470 -0.0749  1.0459 -1.6724
  542MOL0     H74748   9.305   2.947  10.445  0.5820 -0.1526 -3.7921
  542MOL0     H74749   9.447   2.896  10.358  0.4014 -1.4906  0.4509
  542MOL0     H74750   9.561   2.816  10.530  0.6587  1.0782  1.6249
  542MOL0     H74751   9.451   2.884  10.662 -2.8438  2.6705 -0.8821
  542MOL0     H74752   9.404   2.652  10.639 -0.9264 -0.4611  0.2996
  542MOL0     H74753   9.263   2.719  10.555  0.5769  0.9263 -0.7392
  542MOL0     H74754   9.296   2.459  10.282 -0.1070  2.7975  0.4488
  542MOL0     H74755   9.349   2.093  10.275 -1.4792 -0.9673 -0.2592
  542MOL0     H74756   9.361   2.212  10.152  0.4200  0.6315  0.3176
  542MOL0     H74757   9.234   2.228  10.281  1.0458 -0.4999  3.6397
  542MOL0     H74758   9.545   1.852  10.458 -1.1769  3.7325 -0.8630
  542MOL0     H74759   9.504   1.614  10.378 -0.2931 -0.5973 -1.8883
  542MOL0     H74760   9.476   1.528   9.936  0.6660 -0.0894 -1.5452
  542MOL0     H74761   9.642   1.493   9.972 -0.8135  0.8378  1.3177
  542MOL0     H74762   9.520   1.305   9.885  0.6596 -0.3243  1.1444
  542MOL0     H74763   9.573   1.265  10.048  0.9187 -1.6580 -1.7573
  542MOL0     H74764   9.292   1.371   9.968  1.5530  1.9754  0.4340
  542MOL0     H74765   9.344   1.320  10.130  1.7100 -1.2180  0.2817
  542MOL0     H74766   9.370   1.079  10.052 -0.6240 -2.3304 -0.9999
  542MOL0     H74767   9.344   1.134   9.887  1.3998 -3.1229  0.7708
  542MOL0     H74768   9.157   1.114  10.127 -3.8382  0.2422 -1.2340
  542MOL0     H74769   9.097   1.187   9.969 -1.8668 -2.0493 -1.2682
  542MOL0     H74770   9.088   0.989   9.863  0.0415  1.2864  0.1885
  542MOL0     H74771   9.014   0.954  10.005  0.5075  0.0028 -1.5303
  542MOL0     H74772   9.152   0.808  10.086 -0.2148 -0.0676 -0.1651
  542MOL0     H74773   9.302   0.886  10.008  0.4345  1.4264 -1.8380
  542MOL0     H74774   9.237   0.674   9.908  0.7433  0.9530  2.3465
  542MOL0     H74775   9.200   0.781   9.781 -3.4089 -0.4196 -1.3337
  542MOL0     H74776   9.541   1.731   9.979  0.0180  0.4598 -0.3666
  542MOL0     H74777   9.582   1.978  10.052  3.4393  0.7236  1.6101
  542MOL0     H74778   9.698   2.325  10.531 -2.7977 -1.9135  5.1001
  542MOL0     H74779   9.606   2.563  10.559 -2.2365  0.1344  1.7435
  542MOL0     H74780   8.871   2.416  10.407 -0.5942 -2.0187  3.2020
  542MOL0     H74781   8.736   2.396  10.586  3.9936 -0.1818 -2.5570
  542MOL0     H74782   8.378   2.356  10.925 -0.4157 -0.0327  1.1992
  542MOL0     H74783   8.295   2.410  11.138 -0.3964  1.4355  0.4952
  542MOL0     H74784   8.147   2.508  11.299 -1.0535  2.8043  0.1623
  542MOL0     H74785   8.314   2.522  11.357 -1.8595 -1.6865  2.2332
  542MOL0     H74786   8.164   2.558  11.544  0.9960  1.4235  2.7278
  542MOL0     H74787   8.082   2.679  11.450  0.5689  1.8929 -1.1760
  542MOL0     H74788   8.380   2.686  11.515  0.5282 -0.4148  0.2721
  542MOL0     H74789   8.280   2.822  11.452 -0.7060  3.0078  2.4690
  542MOL0     H74790   8.316   2.857  11.695  0.3870 -1.7093  0.9946
  542MOL0     H74791   8.249   2.687  11.721  2.6378 -1.9262 -3.1153
  542MOL0     H74792   7.901   2.907  11.684 -0.2412  1.3056 -0.5584
  542MOL0     H74793   8.305   2.820  11.057 -0.4353 -0.2425 -1.4930
  542MOL0     H74794   8.505   2.843  10.793  1.2774 -2.7250  0.8619
  542MOL0     H74795   8.363   2.781  10.709  0.0234  4.7192 -1.7804
  542MOL0     H74796   8.330   2.880  10.833 -0.2960  0.2656 -0.9343
  543MOL0     O74797   9.107   1.844  10.434 -0.0806  0.3108  0.1201
  543MOL0     C74798   9.083   1.906  10.332  0.0330  0.9229  0.6395
  543MOL0     O74799   9.007   2.017  10.325 -0.0791 -0.4852 -0.3234
  543MOL0     C74800   8.945   2.050  10.444 -0.1980 -0.1025  0.7058
  543MOL0     C74801   8.821   2.010  10.468  0.5776  1.5108 -0.0122
  543MOL0     C74802   8.770   2.034  10.598  0.6537  0.4399 -0.2779
  543MOL0     C74803   8.841   2.110  10.700  0.2976  0.0271  0.0638
  543MOL0     O74804   8.791   2.132  10.824  0.3600 -0.3050 -0.2219
  543MOL0     C74805   8.880   2.092  10.931  0.2371  0.4399 -0.8146
  543MOL0     C74806   8.824   1.964  11.009  0.2474  0.0231 -0.3782
  543MOL0     C74807   8.780   1.853  10.905  0.7994  0.2416  0.1012
  543MOL0     C74808   8.904   1.772  10.868  0.3421  0.3516 -0.0280
  543MOL0     C74809   8.903   1.651  10.766  0.7529 -0.0441  0.0647
  543MOL0     C74810   8.759   1.618  10.724  0.1772  0.4343 -0.2705
  543MOL0     C74811   8.759   1.490  10.641  0.2155  0.4020 -1.1382
  543MOL0     C74812   8.636   1.495  10.552 -0.2166  0.8754 -0.7018
  543MOL0     N74813   8.634   1.594  10.444  0.6186 -0.1066  1.1021
  543MOL0     C74814   8.726   1.605  10.339  0.8269 -0.1453 -0.0366
  543MOL0     C74815   8.691   1.716  10.276 -0.8553  0.2430  0.1289
  543MOL0     C74816   8.768   1.769  10.158  0.4125 -0.0866 -0.2247
  543MOL0     C74817   8.701   1.752  10.023  0.2594  0.9867  0.5445
  543MOL0     C74818   8.586   1.846   9.988  0.4813 -0.1013  0.9335
  543MOL0     C74819   8.509   1.793   9.867 -0.1205 -0.3374  0.4240
  543MOL0     O74820   8.366   1.826   9.866  0.2904  0.2455 -0.7325
  543MOL0     C74821   8.281   1.746   9.942  1.0518  0.1441  0.0206
  543MOL0     C74822   8.308   1.675  10.059 -0.8865 -0.0061 -0.1308
  543MOL0     C74823   8.218   1.598  10.134  0.2424  0.2619 -0.2455
  543MOL0     C74824   8.277   1.551  10.265  0.1441 -0.0637  0.1631
  543MOL0     C74825   8.085   1.590  10.082  0.0365 -0.0168 -0.1175
  543MOL0     C74826   7.976   1.516  10.146  0.4886  0.1458  1.1505
  543MOL0     O74827   7.843   1.534  10.086 -1.1722  0.2475 -0.4472
  543MOL0     C74828   7.739   1.456  10.131  0.2154 -0.5704 -0.3897
  543MOL0     C74829   7.624   1.507  10.186 -0.2438  0.2580  0.1857
  543MOL0     C74830   7.518   1.419  10.208 -0.5618  0.8270  0.4333
  543MOL0     C74831   7.530   1.283  10.176  0.2279  0.6097 -0.7237
  543MOL0     O74832   7.435   1.188  10.188  0.2672  0.7377 -0.1025
  543MOL0     C74833   7.308   1.212  10.262  0.7202 -0.5748  0.3091
  543MOL0     C74834   7.318   1.206  10.409  0.1372 -0.0711  0.1433
  543MOL0     C74835   7.204   1.280  10.476 -0.3312 -0.7949 -0.5216
  543MOL0     C74836   7.061   1.255  10.414 -0.5095 -0.4843  0.9634
  543MOL0     C74837   7.015   1.111  10.439 -0.4529  0.7574  0.1551
  543MOL0     C74838   6.915   1.092  10.553  0.0671  0.3887 -0.9625
  543MOL0     C74839   6.934   1.173  10.682 -1.0859  0.2525  0.2401
  543MOL0     C74840   6.835   1.155  10.796  0.1093 -0.7058 -0.1912
  543MOL0    Cl74841   6.879   1.267  10.937 -0.0574 -0.2465 -0.3278
  543MOL0     C74842   7.642   1.234  10.126 -0.3381  0.1483  0.0671
  543MOL0     C74843   7.747   1.317  10.094 -0.3175  0.0592 -0.6667
  543MOL0     O74844   8.004   1.440  10.241 -0.2154  0.1641 -0.0775
  543MOL0     C74845   8.054   1.643   9.960  0.8150  0.3198  0.2957
  543MOL0     C74846   8.151   1.729   9.891 -0.4299  0.3214 -0.8644
  543MOL0     N74847   8.591   1.784  10.352  0.4284 -0.1646  0.1947
  543MOL0     N74848   8.560   1.705  10.460 -0.6501 -0.6264  0.9096
  543MOL0     C74849   8.960   2.152  10.663 -0.3198  0.8359  0.5417
  543MOL0     C74850   9.020   2.121  10.533 -0.3249  0.3263 -0.8082
  543MOL0     C74851   9.125   1.848  10.190 -0.0262  0.0841 -0.1490
  543MOL0     C74852   9.104   1.926  10.077 -0.1483 -0.2149  0.3537
  543MOL0     C74853   9.125   1.869   9.946 -0.2699  0.5027  0.1453
  543MOL0     C74854   9.159   1.739   9.934  0.1512  0.1109  0.4995
  543MOL0     O74855   9.177   1.677   9.816  0.2543 -0.1538 -0.0312
  543MOL0     C74856   9.059   1.613   9.777 -0.0148  0.3804 -0.0244
  543MOL0     C74857   9.080   1.596   9.624 -0.7700  0.9770 -0.6921
  543MOL0     C74858   9.041   1.455   9.588 -0.6256  0.1970 -0.6362
  543MOL0     C74859   9.157   1.356   9.599 -0.4682 -0.4149  0.4231
  543MOL0     C74860   9.124   1.219   9.567  0.6837  0.5196 -0.6336
  543MOL0     C74861   9.105   1.101   9.534  0.1839  0.2687 -0.0126
  543MOL0     C74862   9.193   1.666  10.047 -0.0354  0.5895 -0.0084
  543MOL0     C74863   9.157   1.710  10.173  0.1353 -0.9284 -0.1804
  543MOL0     C74864   9.167   1.605  10.274  0.3727 -0.4193  0.0648
  543MOL0     H74865   8.771   1.958  10.387  2.1153  1.8953 -1.2664
  543MOL0     H74866   8.678   1.990  10.634  0.2488  1.3829 -0.1350
  543MOL0     H74867   8.899   2.173  11.002 -0.0846 -1.4847  1.5970
  543MOL0     H74868   8.982   2.070  10.897  1.0643 -2.6409  2.9656
  543MOL0     H74869   8.896   1.933  11.085 -2.9102 -0.4090  2.6999
  543MOL0     H74870   8.736   1.990  11.068  1.1864 -0.5069  1.3518
  543MOL0     H74871   8.701   1.790  10.947  0.4681 -0.5824 -1.6484
  543MOL0     H74872   8.735   1.892  10.813  0.8083 -3.8071 -1.8338
  543MOL0     H74873   8.977   1.851  10.846  1.7664 -0.0291  2.8099
  543MOL0     H74874   8.941   1.735  10.964  2.0985 -1.8613 -1.4415
  543MOL0     H74875   8.938   1.555  10.805 -1.3787 -1.8204 -2.0777
  543MOL0     H74876   8.962   1.671  10.676  0.4134  0.5838 -0.0270
  543MOL0     H74877   8.687   1.590  10.802  0.1539  3.7581  1.0733
  543MOL0     H74878   8.709   1.703  10.678 -1.6586  1.0476  2.5402
  543MOL0     H74879   8.742   1.400  10.700 -1.0234  0.3129 -1.6181
  543MOL0     H74880   8.848   1.485  10.578  0.2458  2.9389 -1.3963
  543MOL0     H74881   8.634   1.394  10.510  0.2165 -1.2210  3.7508
  543MOL0     H74882   8.542   1.502  10.608 -1.7517 -2.7652 -2.5218
  543MOL0     H74883   8.802   1.529  10.328  1.2445  0.2208  0.2670
  543MOL0     H74884   8.866   1.720  10.164  1.5046  2.0798  4.7395
  543MOL0     H74885   8.793   1.875  10.171  4.6260 -0.3781 -3.6324
  543MOL0     H74886   8.778   1.754   9.946  1.0248 -5.2998  0.5732
  543MOL0     H74887   8.674   1.646  10.022 -2.0835  1.5070  2.0254
  543MOL0     H74888   8.524   1.853  10.078  0.9249 -1.0506  1.3248
  543MOL0     H74889   8.626   1.943   9.957  0.6008  0.1088  1.7007
  543MOL0     H74890   8.548   1.832   9.772 -0.6932 -1.1459 -0.1549
  543MOL0     H74891   8.516   1.684   9.857 -2.0197 -0.2584 -3.9019
  543MOL0     H74892   8.408   1.687  10.100 -0.0813  1.0392 -2.2479
  543MOL0     H74893   8.350   1.618  10.310  0.3173 -0.1699  0.0405
  543MOL0     H74894   8.327   1.456  10.245 -0.6739 -0.7120  1.0260
  543MOL0     H74895   8.201   1.541  10.344  0.6802  1.7957  0.9622
  543MOL0     H74896   7.611   1.611  10.214 -1.7363 -0.3425  2.0024
  543MOL0     H74897   7.424   1.467  10.235 -2.1190 -1.6620 -0.2110
  543MOL0     H74898   7.258   1.302  10.227  0.5050 -1.0481 -0.6225
  543MOL0     H74899   7.246   1.134  10.218 -0.5873  0.2086  0.7122
  543MOL0     H74900   7.304   1.101  10.437 -1.8938  0.5523  1.7005
  543MOL0     H74901   7.414   1.250  10.438  0.4147 -0.0120 -0.8354
  543MOL0     H74902   7.235   1.384  10.461 -0.7177 -0.5407  0.3702
  543MOL0     H74903   7.201   1.270  10.585 -1.2886  1.2704 -0.2896
  543MOL0     H74904   7.061   1.276  10.307  0.4782  2.0854  1.3915
  543MOL0     H74905   6.995   1.329  10.458 -2.0535  0.2692 -2.2976
  543MOL0     H74906   6.969   1.059  10.354  1.2465 -2.3250  0.9388
  543MOL0     H74907   7.101   1.045  10.457 -1.8957 -0.5002  3.0597
  543MOL0     H74908   6.907   0.988  10.585  1.1866  0.7865  0.7588
  543MOL0     H74909   6.817   1.118  10.513 -0.0266  1.1940 -0.2341
  543MOL0     H74910   6.942   1.279  10.654  1.3507 -0.0648 -0.4235
  543MOL0     H74911   7.028   1.134  10.719 -1.6704 -1.9936 -0.4915
  543MOL0     H74912   6.841   1.052  10.833 -0.4230 -0.5900  0.2234
  543MOL0     H74913   6.733   1.168  10.757 -0.1057  0.1416  0.6356
  543MOL0     H74914   7.649   1.126  10.113 -1.2557  0.2803 -1.9333
  543MOL0     H74915   7.825   1.267  10.037  1.8756 -0.2225  2.3229
  543MOL0     H74916   7.964   1.626   9.903 -1.6869  1.8527  3.4738
  543MOL0     H74917   8.123   1.787   9.804 -1.9982 -0.7707 -1.1213
  543MOL0     H74918   9.015   2.218  10.729  3.1372  0.3036 -1.5417
  543MOL0     H74919   9.114   2.166  10.502 -1.8911  2.6525 -2.5120
  543MOL0     H74920   9.067   2.027  10.091  1.0551  0.4796 -1.1275
  543MOL0     H74921   9.118   1.929   9.855  2.7700 -0.7519 -1.0278
  543MOL0     H74922   9.061   1.522   9.837 -2.5149 -0.1547 -0.6524
  543MOL0     H74923   8.969   1.672   9.795 -2.5332 -2.7611 -1.4628
  543MOL0     H74924   9.179   1.612   9.580 -0.1737 -0.7385 -0.0413
  543MOL0     H74925   9.019   1.674   9.577 -0.5504  1.5976  0.0355
  543MOL0     H74926   8.960   1.429   9.656  0.5509  1.1194  1.1709
  543MOL0     H74927   9.009   1.457   9.483 -1.3745  0.3903 -0.4110
  543MOL0     H74928   9.195   1.353   9.701  2.3870 -0.6570 -0.5405
  543MOL0     H74929   9.238   1.379   9.529 -0.2514 -0.6241  0.6030
  543MOL0     H74930   9.095   0.998   9.507 -0.2170  0.7118 -1.6532
  543MOL0     H74931   9.228   1.564  10.038 -0.4636  0.6169 -3.1743
  543MOL0     H74932   9.259   1.630  10.329 -0.1965  2.5834 -0.1669
  543MOL0     H74933   9.085   1.618  10.344  1.9312 -0.1972  1.9403
  543MOL0     H74934   9.163   1.501  10.242  0.0345 -1.7680  3.9594
  544MOL0     O74935   3.726   4.718   2.105  0.0091 -0.2726 -0.6750
  544MOL0     C74936   3.711   4.601   2.107 -0.4331  0.5583  0.0881
  544MOL0     O74937   3.626   4.533   2.205 -0.1454  0.7001  0.0593
  544MOL0     C74938   3.534   4.609   2.271  0.8639  0.7710 -0.4281
  544MOL0     C74939   3.571   4.699   2.369  0.0398 -0.3984  0.9834
  544MOL0     C74940   3.472   4.774   2.428  0.2421 -0.2443  0.4366
  544MOL0     C74941   3.340   4.746   2.413 -0.4113  0.4938  0.5396
  544MOL0     O74942   3.239   4.815   2.468 -0.7269  0.0356  0.4944
  544MOL0     C74943   3.234   4.954   2.430 -0.0929  1.0794  0.2495
  544MOL0     C74944   3.179   5.045   2.538 -0.1022 -0.0583 -0.4232
  544MOL0     C74945   3.250   5.181   2.527  0.6389 -0.1480  0.1518
  544MOL0     C74946   3.180   5.293   2.607 -1.3087  0.6540  0.4923
  544MOL0     C74947   3.193   5.438   2.557 -0.1687  0.5298  0.1326
  544MOL0     C74948   3.337   5.485   2.546  0.1240  0.3992 -0.1951
  544MOL0     C74949   3.349   5.632   2.491  0.7228  0.8274 -0.3616
  544MOL0     C74950   3.331   5.632   2.342  0.0935 -0.7265  0.4450
  544MOL0     N74951   3.357   5.767   2.292  0.5228 -0.7046  1.2165
  544MOL0     C74952   3.469   5.820   2.251 -0.9283  0.6586 -0.1830
  544MOL0     C74953   3.438   5.939   2.191 -0.4141 -0.2985 -0.5900
  544MOL0     C74954   3.541   6.028   2.145  0.0994  0.1169 -0.4757
  544MOL0     C74955   3.601   6.130   2.245  0.0408  0.0479  0.2630
  544MOL0     C74956   3.666   6.054   2.364 -0.1156 -0.2343 -0.6208
  544MOL0     C74957   3.726   6.147   2.468  0.1748  0.5943 -0.0043
  544MOL0     O74958   3.860   6.182   2.448 -0.5094  0.2212 -0.7668
  544MOL0     C74959   3.885   6.284   2.364  0.0604 -0.6451  0.5136
  544MOL0     C74960   3.986   6.273   2.276 -1.0390 -0.1687 -0.4371
  544MOL0     C74961   4.019   6.372   2.188 -0.8466  0.4331 -0.0823
  544MOL0     C74962   4.143   6.350   2.107  0.1421  0.0457 -0.6606
  544MOL0     C74963   3.944   6.492   2.180  0.1547  0.4299 -0.1895
  544MOL0     C74964   3.973   6.583   2.071 -0.1812 -0.1513 -0.0602
  544MOL0     O74965   4.092   6.646   2.069 -0.3010 -0.4016 -0.5313
  544MOL0     C74966   4.116   6.721   1.966  0.3023  0.0644  1.1696
  544MOL0     C74967   4.144   6.667   1.837 -0.1288 -0.2892  0.0517
  544MOL0     C74968   4.166   6.743   1.720  0.5502 -1.0155  0.5832
  544MOL0     C74969   4.154   6.876   1.725 -0.0284 -1.2706 -0.1057
  544MOL0     O74970   4.158   6.965   1.622 -0.0614  0.5037 -0.0813
  544MOL0     C74971   4.260   6.942   1.527  0.4361 -0.4002 -0.5829
  544MOL0     C74972   4.236   7.047   1.420 -0.4533 -0.2803 -0.2590
  544MOL0     C74973   4.314   7.176   1.455 -1.1788  0.3593  0.8911
  544MOL0     C74974   4.326   7.261   1.334  0.1986  0.4264  1.5468
  544MOL0     C74975   4.371   7.411   1.368  0.6851 -0.0206 -0.5973
  544MOL0     C74976   4.376   7.500   1.240  0.0961 -0.3309  0.5088
  544MOL0     C74977   4.383   7.648   1.279  0.1101 -0.1708 -0.2105
  544MOL0     C74978   4.374   7.761   1.178  0.2949  0.6833  0.1378
  544MOL0    Cl74979   4.202   7.762   1.129 -0.3824  0.3341 -0.2478
  544MOL0     C74980   4.133   6.934   1.851  0.1389  0.0734  0.6168
  544MOL0     C74981   4.115   6.863   1.967  0.0855  1.2628 -0.5840
  544MOL0     O74982   3.866   6.615   2.012  0.5817  0.1938 -0.0508
  544MOL0     C74983   3.834   6.507   2.267 -0.0282  0.2181 -0.0607
  544MOL0     C74984   3.802   6.397   2.348  0.5096  0.5830 -0.3842
  544MOL0     N74985   3.307   5.957   2.202 -0.1380 -0.2317  0.1176
  544MOL0     N74986   3.262   5.854   2.265  0.0395 -0.1199  0.5086
  544MOL0     C74987   3.304   4.630   2.332  0.4496 -0.4992 -0.7313
  544MOL0     C74988   3.396   4.554   2.267 -0.7679  0.1165 -0.3199
  544MOL0     C74989   3.797   4.523   2.015  1.0261  0.2063  0.2132
  544MOL0     C74990   3.923   4.581   1.984 -0.8838  0.4954 -0.7348
  544MOL0     C74991   4.017   4.507   1.916 -0.1617 -0.3744  0.1810
  544MOL0     C74992   3.990   4.381   1.870 -0.3543 -0.4650  1.2225
  544MOL0     O74993   4.062   4.304   1.781  0.2063  0.2514  0.0535
  544MOL0     C74994   4.193   4.333   1.781 -0.5090 -0.3970 -0.1236
  544MOL0     C74995   4.281   4.225   1.712 -0.6135  0.5202  0.8064
  544MOL0     C74996   4.243   4.071   1.721 -0.5437 -0.5853 -0.4480
  544MOL0     C74997   4.266   4.006   1.856 -0.1658 -0.2623 -0.6024
  544MOL0     C74998   4.158   4.020   1.951  0.8862  0.5897  0.0954
  544MOL0     C74999   4.055   4.057   2.013 -0.1926 -0.4644 -0.7461
  544MOL0     C75000   3.857   4.332   1.884  0.2627 -0.0422  0.7306
  544MOL0     C75001   3.760   4.393   1.961 -0.9240  0.4379  0.3240
  544MOL0     C75002   3.628   4.333   1.985  0.3853 -0.3051 -0.4387
  544MOL0     H75003   3.676   4.719   2.387  0.3525  0.6826 -1.5587
  544MOL0     H75004   3.494   4.864   2.485 -0.2588  2.8168 -3.7197
  544MOL0     H75005   3.168   4.966   2.343  0.4688 -2.2939 -0.7811
  544MOL0     H75006   3.330   4.990   2.390 -0.2840  0.2690 -0.9969
  544MOL0     H75007   3.070   5.042   2.534 -0.0774 -1.3162 -0.6293
  544MOL0     H75008   3.203   4.995   2.633 -3.6260 -0.7586  0.2461
  544MOL0     H75009   3.357   5.180   2.545  1.0920  1.3558 -2.0405
  544MOL0     H75010   3.238   5.209   2.422 -2.2181 -0.0538  0.4143
  544MOL0     H75011   3.072   5.279   2.618 -1.2697  0.3993  0.5604
  544MOL0     H75012   3.218   5.284   2.709  0.2812 -0.7185 -0.1720
  544MOL0     H75013   3.143   5.503   2.629 -0.9555  0.0950 -0.0031
  544MOL0     H75014   3.134   5.453   2.466  2.1148  1.2772 -1.2852
  544MOL0     H75015   3.370   5.491   2.650 -1.4619  1.1134  0.3034
  544MOL0     H75016   3.402   5.422   2.485  0.1047  0.8249 -0.6693
  544MOL0     H75017   3.448   5.671   2.516  0.4442  1.7589 -0.6462
  544MOL0     H75018   3.273   5.695   2.537  0.5223 -2.0253  3.6237
  544MOL0     H75019   3.389   5.557   2.287 -0.6156  1.0298 -2.9048
  544MOL0     H75020   3.227   5.603   2.327  0.1181 -1.2014  1.1278
  544MOL0     H75021   3.567   5.776   2.259 -2.0710 -1.9004  0.6231
  544MOL0     H75022   3.491   6.078   2.061 -1.0506 -0.0197  0.1138
  544MOL0     H75023   3.625   5.968   2.111 -0.8611 -0.1233 -2.6157
  544MOL0     H75024   3.670   6.191   2.186 -1.4587  0.1577 -1.4704
  544MOL0     H75025   3.527   6.207   2.265  1.1601  1.3103 -0.3351
  544MOL0     H75026   3.591   5.994   2.416 -1.0100 -0.0733 -1.6839
  544MOL0     H75027   3.744   5.987   2.326  0.8511 -1.4016  3.0063
  544MOL0     H75028   3.657   6.230   2.486  0.5028  0.8687 -0.0003
  544MOL0     H75029   3.728   6.088   2.560  2.3659 -0.1613 -0.4878
  544MOL0     H75030   4.022   6.171   2.272 -1.3123 -0.3472  1.1953
  544MOL0     H75031   4.112   6.347   2.003  0.7427 -1.2703 -0.8235
  544MOL0     H75032   4.194   6.260   2.143  0.4911  0.5620  0.1833
  544MOL0     H75033   4.201   6.443   2.115 -0.5470  0.4777 -0.5898
  544MOL0     H75034   4.138   6.560   1.824 -0.0429 -1.1265  5.0624
  544MOL0     H75035   4.191   6.687   1.630 -0.5118  0.1133 -0.4379
  544MOL0     H75036   4.358   6.953   1.575 -0.2722  2.3912  0.4422
  544MOL0     H75037   4.243   6.843   1.485 -1.3093 -1.1574  1.7279
  544MOL0     H75038   4.281   7.003   1.330 -2.0536  1.3511 -1.9395
  544MOL0     H75039   4.129   7.062   1.403 -0.1292  1.1253 -1.1479
  544MOL0     H75040   4.413   7.148   1.491 -0.1280  3.0804  0.3758
  544MOL0     H75041   4.254   7.218   1.537  1.8661  1.4504  2.7240
  544MOL0     H75042   4.237   7.260   1.270  1.7330 -1.1933 -0.7509
  544MOL0     H75043   4.409   7.239   1.265 -0.6838  0.8234  0.3234
  544MOL0     H75044   4.301   7.450   1.442 -0.5071 -0.5774 -1.4059
  544MOL0     H75045   4.468   7.410   1.419 -0.1719 -0.2353  1.1016
  544MOL0     H75046   4.293   7.481   1.170 -0.4741  1.6433  0.5907
  544MOL0     H75047   4.463   7.471   1.181 -0.0356 -1.2260  0.7349
  544MOL0     H75048   4.482   7.671   1.320  0.1362  3.4732 -1.8606
  544MOL0     H75049   4.313   7.663   1.361  1.5257  2.7612  0.6177
  544MOL0     H75050   4.440   7.750   1.091  2.3368  2.8577  1.2920
  544MOL0     H75051   4.411   7.854   1.223  0.7609  0.8418 -0.5484
  544MOL0     H75052   4.132   7.043   1.852  0.3038  0.0940 -0.3985
  544MOL0     H75053   4.104   6.922   2.058 -4.7828  0.2426 -0.2099
  544MOL0     H75054   3.779   6.600   2.260 -1.1560 -0.4148  0.0626
  544MOL0     H75055   3.724   6.410   2.422 -0.3154  0.0205 -1.1370
  544MOL0     H75056   3.200   4.600   2.323  0.6355 -1.3006 -0.3293
  544MOL0     H75057   3.362   4.470   2.208 -2.2340  0.2271  0.3293
  544MOL0     H75058   3.958   4.676   2.024  0.7289 -0.5914  0.5731
  544MOL0     H75059   4.117   4.548   1.909 -0.0452 -0.1042  2.5758
  544MOL0     H75060   4.224   4.420   1.721  1.8566 -2.3117 -1.8845
  544MOL0     H75061   4.230   4.345   1.883  1.3393  0.3878 -0.8386
  544MOL0     H75062   4.387   4.248   1.725 -0.8724  2.4339 -0.1139
  544MOL0     H75063   4.258   4.250   1.608  0.7429 -0.1139  0.3228
  544MOL0     H75064   4.143   4.044   1.685  0.6171 -2.1743 -2.7734
  544MOL0     H75065   4.317   4.028   1.652  0.3027 -2.1859  1.3567
  544MOL0     H75066   4.360   4.047   1.894 -0.3708 -1.1848  0.9819
  544MOL0     H75067   4.272   3.898   1.842  0.5994 -0.1448 -1.2156
  544MOL0     H75068   3.986   4.112   2.074  1.6697  1.5976 -0.3407
  544MOL0     H75069   3.841   4.237   1.835 -1.5107 -0.1554  1.4555
  544MOL0     H75070   3.608   4.252   1.915  0.2708  1.3479 -2.4375
  544MOL0     H75071   3.627   4.298   2.088  0.9145  2.6162  0.6531
  544MOL0     H75072   3.549   4.407   1.968 -0.4472 -0.7697  1.2572
  545MOL0     O75073   4.046   6.392   0.420 -0.6279  0.1846  0.5282
  545MOL0     C75074   3.995   6.475   0.341  0.3016 -0.7449  0.0435
  545MOL0     O75075   3.897   6.447   0.252  0.6772  0.3167 -0.4307
  545MOL0     C75076   3.815   6.331   0.259  0.4952  0.1416 -0.3462
  545MOL0     C75077   3.735   6.307   0.149 -0.1226 -0.4892 -0.3577
  545MOL0     C75078   3.638   6.207   0.155  0.0360 -0.2935  0.2740
  545MOL0     C75079   3.617   6.133   0.271  0.0339  0.0685 -0.6404
  545MOL0     O75080   3.518   6.043   0.248 -0.4880  0.9690  0.7249
  545MOL0     C75081   3.496   5.947   0.348  0.7165  0.1350  0.7505
  545MOL0     C75082   3.374   5.871   0.288 -0.8257  0.0713 -0.3056
  545MOL0     C75083   3.239   5.931   0.331  0.4884  0.4030 -0.5328
  545MOL0     C75084   3.118   5.845   0.293 -0.3870 -1.0467  0.6758
  545MOL0     C75085   3.104   5.730   0.393 -0.0577  0.2632  0.5579
  545MOL0     C75086   3.051   5.775   0.522 -0.1258  0.1233  0.1109
  545MOL0     C75087   2.977   5.660   0.606  0.4937 -0.4763 -1.1477
  545MOL0     C75088   2.896   5.727   0.708  0.6650  0.0632 -0.6909
  545MOL0     N75089   2.839   5.646   0.811 -0.0795  0.8791 -0.5991
  545MOL0     C75090   2.747   5.693   0.903  0.1179  0.2241  0.6923
  545MOL0     C75091   2.716   5.590   0.986 -0.6787  0.0680 -0.0968
  545MOL0     C75092   2.640   5.593   1.113 -0.4332 -0.2362 -0.0793
  545MOL0     C75093   2.735   5.561   1.225 -0.8654  0.8824  0.8626
  545MOL0     C75094   2.669   5.576   1.363 -0.0766 -0.1626 -1.2050
  545MOL0     C75095   2.580   5.451   1.379 -0.2494  0.1672  0.9608
  545MOL0     O75096   2.443   5.448   1.334  0.2662  0.3494 -0.2680
  545MOL0     C75097   2.339   5.488   1.419 -0.3209  0.5339  0.2156
  545MOL0     C75098   2.341   5.607   1.492  0.0213  0.7852  0.2200
  545MOL0     C75099   2.223   5.653   1.551  0.3380 -0.3713 -1.2069
  545MOL0     C75100   2.233   5.788   1.627  0.3209  0.7049 -0.3180
  545MOL0     C75101   2.101   5.574   1.539 -0.6311 -0.7883 -0.1153
  545MOL0     C75102   1.971   5.613   1.595 -0.8412 -0.3605 -0.6584
  545MOL0     O75103   1.863   5.559   1.532 -0.9092  0.1143  0.2782
  545MOL0     C75104   1.740   5.592   1.572 -0.3313 -0.0431 -0.8784
  545MOL0     C75105   1.640   5.498   1.558 -0.3800  0.1251  0.6377
  545MOL0     C75106   1.507   5.534   1.576 -0.2914 -0.2980 -0.5437
  545MOL0     C75107   1.469   5.659   1.617  0.6615 -0.2217  0.6376
  545MOL0     O75108   1.344   5.686   1.657  0.2993 -0.7351  0.2137
  545MOL0     C75109   1.283   5.800   1.590 -0.3795 -0.6105 -0.1650
  545MOL0     C75110   1.305   5.820   1.431 -0.1491 -0.0787  0.6833
  545MOL0     C75111   1.201   5.914   1.370 -0.3235 -0.1057 -0.7101
  545MOL0     C75112   1.228   5.965   1.223  0.1024 -0.0915  0.0713
  545MOL0     C75113   1.121   6.058   1.170  0.8871 -0.3107 -0.3548
  545MOL0     C75114   1.144   6.091   1.028  0.5933  0.2926  1.0581
  545MOL0     C75115   1.265   6.189   1.025 -0.1887 -1.0394 -0.1523
  545MOL0     C75116   1.383   6.134   0.962 -1.4862 -0.6438 -0.5108
  545MOL0    Cl75117   1.366   6.101   0.785  0.0355 -0.2832 -0.3384
  545MOL0     C75118   1.570   5.753   1.640 -0.4565 -0.6289  0.8392
  545MOL0     C75119   1.705   5.720   1.614  0.0535  0.4221 -0.7696
  545MOL0     O75120   1.969   5.696   1.685 -0.1448  0.1460  0.0596
  545MOL0     C75121   2.108   5.451   1.465 -0.3729 -0.3674  0.1613
  545MOL0     C75122   2.223   5.416   1.399 -0.6723 -0.0200  0.3344
  545MOL0     N75123   2.785   5.480   0.925  0.5965 -0.5513  0.9497
  545MOL0     N75124   2.851   5.512   0.820 -0.8328  0.4690  0.4832
  545MOL0     C75125   3.701   6.156   0.389  0.2887  0.8621 -1.7135
  545MOL0     C75126   3.797   6.256   0.375 -0.3599  0.4015 -1.1207
  545MOL0     C75127   4.054   6.606   0.326  0.1542 -0.4302 -0.0166
  545MOL0     C75128   4.054   6.668   0.198 -0.2825 -0.5287  0.4647
  545MOL0     C75129   4.118   6.798   0.176  0.5784  0.7509  1.0115
  545MOL0     C75130   4.187   6.868   0.280 -0.2053  0.0925 -0.1364
  545MOL0     O75131   4.249   6.988   0.244  0.4351 -0.4119  0.1437
  545MOL0     C75132   4.334   7.069   0.328 -0.2259  0.8036  0.2808
  545MOL0     C75133   4.249   7.155   0.418 -0.1512 -1.0245 -0.2907
  545MOL0     C75134   4.332   7.251   0.503  0.2154 -0.4014  0.1647
  545MOL0     C75135   4.232   7.319   0.598  0.4613  0.1987  0.1969
  545MOL0     C75136   4.295   7.395   0.711  0.2214 -0.3432 -0.8164
  545MOL0     C75137   4.340   7.464   0.802  0.3408  0.7536 -0.9337
  545MOL0     C75138   4.185   6.807   0.402  0.3102 -0.1716 -0.1292
  545MOL0     C75139   4.123   6.682   0.426 -0.0202  0.0838 -0.2206
  545MOL0     C75140   4.133   6.632   0.567 -0.4423 -0.5878  0.0394
  545MOL0     H75141   3.760   6.362   0.059  3.9562  1.8080  1.8808
  545MOL0     H75142   3.583   6.176   0.066  2.2579 -2.1170 -0.5653
  545MOL0     H75143   3.475   6.000   0.441  0.8967 -1.9993  2.0652
  545MOL0     H75144   3.590   5.892   0.348  1.2988  0.9586 -1.9940
  545MOL0     H75145   3.379   5.855   0.180  1.0225  0.7277 -0.3431
  545MOL0     H75146   3.373   5.774   0.338 -1.7259  0.8656  1.2945
  545MOL0     H75147   3.236   5.943   0.439  1.0589 -2.0988 -0.1767
  545MOL0     H75148   3.232   6.026   0.277  2.5922  1.5251  1.0453
  545MOL0     H75149   3.027   5.905   0.299  1.3489  1.8597 -0.0705
  545MOL0     H75150   3.128   5.809   0.190  0.9822  3.6067 -1.0521
  545MOL0     H75151   3.197   5.673   0.402  1.1335  2.1263  0.6490
  545MOL0     H75152   3.036   5.653   0.355  3.4274 -2.5168 -0.5930
  545MOL0     H75153   3.134   5.819   0.578  0.0822  2.2343 -1.7477
  545MOL0     H75154   2.977   5.852   0.501 -0.6141 -0.4596 -0.3510
  545MOL0     H75155   3.062   5.603   0.646  2.3683  3.3769  0.9214
  545MOL0     H75156   2.917   5.595   0.542 -2.5705  1.7310 -0.7546
  545MOL0     H75157   2.960   5.799   0.760 -1.4776  2.0272 -0.5715
  545MOL0     H75158   2.818   5.789   0.663 -0.6902  1.7820  3.4400
  545MOL0     H75159   2.717   5.796   0.911  0.5480  0.8741 -3.5627
  545MOL0     H75160   2.563   5.515   1.114  0.1728 -0.8525 -0.5275
  545MOL0     H75161   2.591   5.690   1.129  0.7902  0.3711  0.0856
  545MOL0     H75162   2.782   5.464   1.205 -0.2200  1.4779 -0.6877
  545MOL0     H75163   2.819   5.630   1.239 -1.8223  1.8119  2.3027
  545MOL0     H75164   2.741   5.571   1.445  0.6621 -1.0496 -1.8789
  545MOL0     H75165   2.608   5.667   1.367 -1.2221 -0.8117 -2.8543
  545MOL0     H75166   2.628   5.362   1.338  1.2480  1.6916 -0.8120
  545MOL0     H75167   2.567   5.432   1.486  2.5125  0.2689  1.3775
  545MOL0     H75168   2.432   5.667   1.494 -0.4820  1.5350  1.6346
  545MOL0     H75169   2.161   5.864   1.595  0.8250  2.1317  1.7353
  545MOL0     H75170   2.330   5.834   1.607  0.5305  1.2111  1.6730
  545MOL0     H75171   2.210   5.776   1.733  2.9363  2.0440  0.4672
  545MOL0     H75172   1.663   5.395   1.534 -0.1529  0.4651 -0.7547
  545MOL0     H75173   1.420   5.472   1.554 -0.2342  0.1984 -2.2623
  545MOL0     H75174   1.175   5.786   1.603 -0.6150  1.2998  0.2514
  545MOL0     H75175   1.313   5.895   1.635  0.2753 -0.6963 -0.4079
  545MOL0     H75176   1.403   5.865   1.414  0.4907 -0.8439  2.1037
  545MOL0     H75177   1.305   5.725   1.376  0.0057  1.9709 -3.2221
  545MOL0     H75178   1.179   6.001   1.432 -0.1371  0.0907 -0.9161
  545MOL0     H75179   1.113   5.849   1.366 -0.8577  0.6514 -1.5735
  545MOL0     H75180   1.245   5.880   1.155  1.2695 -0.0423  0.2780
  545MOL0     H75181   1.324   6.017   1.228 -0.2115  0.3853  2.2063
  545MOL0     H75182   1.022   6.012   1.177  0.4071  0.9092  3.2865
  545MOL0     H75183   1.112   6.148   1.231 -3.4511 -0.7243 -0.0482
  545MOL0     H75184   1.060   6.149   0.988  1.0831 -0.3815 -1.0547
  545MOL0     H75185   1.165   6.002   0.969  1.0265  0.2396  1.2864
  545MOL0     H75186   1.280   6.226   1.126 -0.7072 -0.4350 -0.2901
  545MOL0     H75187   1.232   6.270   0.958 -2.2840 -3.2433 -2.0182
  545MOL0     H75188   1.419   6.038   0.998  1.2261  0.4854  0.0762
  545MOL0     H75189   1.463   6.209   0.954 -0.9560 -1.3988 -3.6682
  545MOL0     H75190   1.553   5.858   1.660  1.3140  0.4312 -2.3748
  545MOL0     H75191   1.769   5.806   1.631 -1.0954  1.1476  0.0569
  545MOL0     H75192   2.019   5.392   1.446 -0.6745 -0.1254  0.7827
  545MOL0     H75193   2.236   5.318   1.355  1.6838  1.9689 -4.0832
  545MOL0     H75194   3.685   6.110   0.486  0.6581  1.2616 -1.4575
  545MOL0     H75195   3.847   6.273   0.469 -1.0929  0.9585 -0.8187
  545MOL0     H75196   4.005   6.623   0.112 -1.1182 -2.1801  1.7418
  545MOL0     H75197   4.102   6.833   0.075  2.2910 -1.8249 -0.2520
  545MOL0     H75198   4.401   7.009   0.389  0.9493  0.7586 -0.9910
  545MOL0     H75199   4.401   7.128   0.263 -2.0435  1.0073 -1.4966
  545MOL0     H75200   4.197   7.095   0.493 -1.7209  1.4106  0.6826
  545MOL0     H75201   4.183   7.218   0.359 -0.1360  2.0738  2.6754
  545MOL0     H75202   4.413   7.195   0.552  0.7635 -1.9753 -2.3472
  545MOL0     H75203   4.380   7.329   0.443 -1.9696  0.7223 -0.2102
  545MOL0     H75204   4.157   7.251   0.639  0.8752  1.1525  2.7274
  545MOL0     H75205   4.175   7.390   0.536  1.8482  0.4246 -0.8702
  545MOL0     H75206   4.379   7.519   0.885  0.7373  0.4007 -0.8809
  545MOL0     H75207   4.249   6.858   0.474  3.8669  0.1931 -3.2565
  545MOL0     H75208   4.223   6.569   0.564  1.4840  1.9842  0.3486
  545MOL0     H75209   4.156   6.722   0.624  0.8709  0.7482 -2.4585
  545MOL0     H75210   4.053   6.571   0.609  0.7070 -1.7205  0.6473
  546MOL0     O75211  10.727   3.312   0.531  0.2415  0.2525  0.3827
  546MOL0     C75212  10.775   3.208   0.573  0.8641  0.1474  0.5852
  546MOL0     O75213  10.721   3.080   0.555  1.1265 -1.3414 -0.5213
  546MOL0     C75214  10.623   3.056   0.463  0.2521 -0.6636 -0.5490
  546MOL0     C75215  10.663   2.972   0.363 -1.1588  0.3768  0.6060
  546MOL0     C75216  10.576   2.940   0.252  0.3195  1.1671 -1.1098
  546MOL0     C75217  10.437   2.993   0.266  0.2682  1.4118  0.1366
  546MOL0     O75218  10.344   2.982   0.167 -0.2222  0.6191  0.0786
  546MOL0     C75219  10.385   2.921   0.047  0.7309  0.7493  0.6612
  546MOL0     C75220  10.279   2.933  -0.065  0.0477  0.6039  0.3274
  546MOL0     C75221  10.259   3.069  -0.123 -0.8593  0.0343  0.2460
  546MOL0     C75222  10.265   3.188  -0.029  0.4013  0.8474  0.0280
  546MOL0     C75223  10.253   3.313  -0.114  0.8486 -0.3619 -0.4519
  546MOL0     C75224  10.209   3.419  -0.009  0.8089 -0.6777 -0.4586
  546MOL0     C75225  10.199   3.564  -0.067  0.4807 -0.1793  0.1433
  546MOL0     C75226  10.083   3.580  -0.170  0.5701 -0.0527 -0.0401
  546MOL0     N75227  10.106   3.678  -0.269 -0.7941  0.7356  0.2483
  546MOL0     C75228  10.074   3.812  -0.257 -0.0179  0.1471  0.0021
  546MOL0     C75229  10.093   3.871  -0.377  0.7263 -1.1512  0.2257
  546MOL0     C75230  10.099   4.022  -0.401 -0.4416 -0.5275  0.8083
  546MOL0     C75231   9.965   4.077  -0.453 -0.1572 -0.2096 -0.3739
  546MOL0     C75232   9.920   4.017  -0.586 -0.2962 -0.0038 -0.3827
  546MOL0     C75233  10.011   4.036  -0.705  0.1213  0.7730  0.0685
  546MOL0     O75234  10.032   4.176  -0.740 -0.1002 -0.3358  0.3603
  546MOL0     C75235  10.158   4.211  -0.796 -0.3563  0.5811  0.1017
  546MOL0     C75236  10.176   4.216  -0.935 -0.4298  0.2953 -0.1507
  546MOL0     C75237  10.307   4.226  -0.989  0.2867 -0.5927  0.5330
  546MOL0     C75238  10.322   4.235  -1.135  0.5679 -0.0548  0.6536
  546MOL0     C75239  10.425   4.240  -0.910 -0.9518 -0.1700  0.3610
  546MOL0     C75240  10.566   4.231  -0.952  0.2368  0.3260  0.2052
  546MOL0     O75241  10.591   4.175  -1.070  0.8026  0.2253 -0.5287
  546MOL0     C75242  10.719   4.146  -1.108 -0.1340 -0.2020 -0.5709
  546MOL0     C75243  10.826   4.236  -1.089 -0.0587  0.8794 -0.0970
  546MOL0     C75244  10.956   4.203  -1.131 -0.0746 -0.5691 -0.2578
  546MOL0     C75245  10.974   4.082  -1.190 -0.8964  0.7365 -0.3357
  546MOL0     O75246  11.102   4.056  -1.234  0.0004 -0.4991  0.0786
  546MOL0     C75247  11.114   4.021  -1.370  0.7503  0.1745  0.2020
  546MOL0     C75248  11.055   4.108  -1.481  0.2164 -0.6032 -0.1868
  546MOL0     C75249  11.083   4.258  -1.467 -0.0651  0.2152 -0.1012
  546MOL0     C75250  10.971   4.345  -1.518  0.0019 -1.1636 -0.0022
  546MOL0     C75251  11.009   4.489  -1.497  0.2604  0.9245 -0.1925
  546MOL0     C75252  11.100   4.533  -1.611 -0.6853 -0.9689 -0.4086
  546MOL0     C75253  11.161   4.670  -1.594  0.4082 -0.0773  0.6278
  546MOL0     C75254  11.280   4.689  -1.695 -0.5148  0.4590  1.0498
  546MOL0    Cl75255  11.422   4.573  -1.643  0.2554 -0.1553 -0.0999
  546MOL0     C75256  10.870   3.987  -1.202 -0.4672  1.1971 -0.0906
  546MOL0     C75257  10.743   4.015  -1.164  0.3842 -0.4566 -0.0571
  546MOL0     O75258  10.650   4.277  -0.875 -0.4753 -0.2817 -0.0435
  546MOL0     C75259  10.394   4.234  -0.772  0.0900  0.0300  0.3879
  546MOL0     C75260  10.268   4.227  -0.714 -0.5820  0.2977  0.6892
  546MOL0     N75261  10.117   3.773  -0.477  0.5669  0.2397  0.2036
  546MOL0     N75262  10.110   3.657  -0.410  0.5300 -0.3345 -0.0463
  546MOL0     C75263  10.405   3.072   0.367 -0.6305  0.3458 -0.8925
  546MOL0     C75264  10.490   3.112   0.469 -1.0340  0.5182 -0.1546
  546MOL0     C75265  10.908   3.210   0.634  0.6909 -0.5717  0.1334
  546MOL0     C75266  10.941   3.133   0.744  1.2010  1.0058 -0.1531
  546MOL0     C75267  11.058   3.137   0.811 -0.4444  0.1228  0.7679
  546MOL0     C75268  11.156   3.221   0.773 -0.7428  0.0369 -0.5497
  546MOL0     O75269  11.282   3.233   0.832 -0.5355 -0.4411 -0.2538
  546MOL0     C75270  11.304   3.156   0.948 -0.1936  0.3725 -0.4926
  546MOL0     C75271  11.441   3.179   1.004 -0.6033  0.6138  0.6350
  546MOL0     C75272  11.475   3.072   1.113 -0.7025 -0.2256 -0.3343
  546MOL0     C75273  11.548   2.958   1.051  0.3399 -0.4091  0.3086
  546MOL0     C75274  11.573   2.851   1.156  0.3446 -0.7837  0.3163
  546MOL0     C75275  11.559   2.761   1.230 -0.2982 -0.5792  0.0765
  546MOL0     C75276  11.140   3.293   0.659 -0.1705 -0.2935  0.2427
  546MOL0     C75277  11.014   3.298   0.594 -0.2486  0.9554  0.3376
  546MOL0     C75278  11.006   3.394   0.480  0.5161  0.0436 -0.8489
  546MOL0     H75279  10.760   2.923   0.366 -1.0989  0.5351  2.5093
  546MOL0     H75280  10.601   2.872   0.171 -0.3427  0.8591 -1.0561
  546MOL0     H75281  10.417   2.818   0.060 -0.8758  0.1413  0.0982
  546MOL0     H75282  10.471   2.982   0.018  0.1306  1.8999  1.2407
  546MOL0     H75283  10.320   2.866  -0.141  0.1476  0.8637  0.1504
  546MOL0     H75284  10.190   2.885  -0.024  1.7693 -3.2510 -0.0569
  546MOL0     H75285  10.330   3.071  -0.206  0.8907 -4.5865  1.3341
  546MOL0     H75286  10.156   3.073  -0.158 -1.8126  0.4139  2.9076
  546MOL0     H75287  10.175   3.167   0.030  0.3155  0.9320 -0.0711
  546MOL0     H75288  10.357   3.196   0.029  1.3925  1.2614 -1.5463
  546MOL0     H75289  10.185   3.305  -0.199  0.0791  0.1774  0.1028
  546MOL0     H75290  10.350   3.340  -0.157  1.8882 -1.8726  0.8282
  546MOL0     H75291  10.116   3.382   0.035  0.6534  0.7600  0.5151
  546MOL0     H75292  10.270   3.426   0.082 -0.6405  1.3876  0.4335
  546MOL0     H75293  10.294   3.589  -0.115  1.2688 -0.5442  1.4768
  546MOL0     H75294  10.185   3.647   0.003  1.8420  1.1054 -1.0274
  546MOL0     H75295  10.059   3.485  -0.219 -0.2849 -0.1935  0.6411
  546MOL0     H75296   9.989   3.605  -0.121  0.3417 -0.6236 -0.1738
  546MOL0     H75297  10.060   3.853  -0.157  1.3181 -3.2857  1.7425
  546MOL0     H75298  10.174   4.043  -0.478 -1.5945  4.4730  0.7144
  546MOL0     H75299  10.121   4.081  -0.312 -3.6654  3.0452 -0.4869
  546MOL0     H75300   9.896   4.050  -0.373  1.3009 -2.1101  0.3242
  546MOL0     H75301   9.984   4.184  -0.468  3.6023 -0.4187  1.5520
  546MOL0     H75302   9.910   3.909  -0.571  3.2904 -0.4700 -0.3936
  546MOL0     H75303   9.819   4.052  -0.607 -0.1765  1.5101  1.3473
  546MOL0     H75304  10.105   3.983  -0.684  1.1027  2.2071 -0.5039
  546MOL0     H75305   9.967   3.992  -0.795  0.4516 -1.1054  0.7648
  546MOL0     H75306  10.091   4.189  -0.996 -0.9135 -4.3523  2.1039
  546MOL0     H75307  10.225   4.264  -1.175  0.3440 -1.1871  0.3236
  546MOL0     H75308  10.352   4.144  -1.188  2.3085  2.1952 -2.5167
  546MOL0     H75309  10.387   4.320  -1.157 -0.0084 -0.6121 -4.1116
  546MOL0     H75310  10.817   4.331  -1.037 -0.2966 -0.1559  1.8654
  546MOL0     H75311  11.049   4.259  -1.125  2.8932 -5.1320  0.7811
  546MOL0     H75312  11.219   4.004  -1.395  0.3820 -0.7117 -0.8169
  546MOL0     H75313  11.069   3.922  -1.381 -0.1862  0.2944  2.3409
  546MOL0     H75314  11.104   4.081  -1.575 -1.1338 -2.8210 -0.2977
  546MOL0     H75315  10.949   4.081  -1.490 -0.1453  1.2315 -2.8656
  546MOL0     H75316  11.175   4.289  -1.517 -0.2597  3.2820  1.2318
  546MOL0     H75317  11.095   4.271  -1.359  4.6980  5.1471 -0.7969
  546MOL0     H75318  10.874   4.315  -1.478 -0.4860 -3.7898 -2.8070
  546MOL0     H75319  10.961   4.332  -1.626  1.5741 -2.0279 -0.0742
  546MOL0     H75320  10.928   4.563  -1.490  1.0710  1.8034  0.0485
  546MOL0     H75321  11.043   4.504  -1.394 -3.4838 -1.9637  1.7108
  546MOL0     H75322  11.050   4.554  -1.706 -1.1967 -2.4950 -0.5086
  546MOL0     H75323  11.183   4.461  -1.611 -0.8695 -1.1834 -0.6155
  546MOL0     H75324  11.189   4.689  -1.490 -1.1550 -2.8268  1.6716
  546MOL0     H75325  11.091   4.747  -1.629 -0.5088 -0.8201  0.7967
  546MOL0     H75326  11.323   4.789  -1.709 -0.1715 -0.1553 -7.1204
  546MOL0     H75327  11.245   4.668  -1.796 -0.2058  4.7244 -0.1407
  546MOL0     H75328  10.898   3.890  -1.243  0.6560  0.2553  2.6466
  546MOL0     H75329  10.666   3.939  -1.170  0.0049 -0.0653 -0.1998
  546MOL0     H75330  10.480   4.242  -0.705  0.4784 -1.6575  0.1305
  546MOL0     H75331  10.258   4.241  -0.606  1.3730 -1.1430  1.1385
  546MOL0     H75332  10.302   3.108   0.369 -0.3223  1.2461 -0.5630
  546MOL0     H75333  10.460   3.173   0.553 -2.3563 -1.5366  0.9522
  546MOL0     H75334  10.872   3.061   0.786  2.4591 -0.7788 -1.0341
  546MOL0     H75335  11.068   3.069   0.894  1.5921 -1.4306 -0.6572
  546MOL0     H75336  11.227   3.178   1.023 -0.0070  2.1771 -0.7845
  546MOL0     H75337  11.283   3.053   0.917 -0.7344  1.1029 -2.7791
  546MOL0     H75338  11.436   3.278   1.049  0.9942 -0.2367  2.9622
  546MOL0     H75339  11.523   3.184   0.932 -1.0345 -1.0796 -0.0247
  546MOL0     H75340  11.533   3.113   1.196  0.2462  1.1575 -1.6237
  546MOL0     H75341  11.382   3.041   1.161 -2.9825  0.9586 -3.5913
  546MOL0     H75342  11.643   2.985   1.002  0.0521 -0.8297 -0.5056
  546MOL0     H75343  11.490   2.927   0.964 -1.0588 -0.5552  1.2695
  546MOL0     H75344  11.555   2.688   1.308  3.5191 -1.5841 -0.4715
  546MOL0     H75345  11.215   3.362   0.623 -3.5242  2.2381 -2.6060
  546MOL0     H75346  10.964   3.490   0.512 -1.1035 -0.3246 -1.7377
  546MOL0     H75347  11.098   3.406   0.422 -0.4511 -0.3813 -2.5508
  546MOL0     H75348  10.933   3.356   0.407  0.7195 -0.4379 -0.8055
  547MOL0     O75349   7.275   0.137   6.466  0.5368 -0.1404 -0.0697
  547MOL0     C75350   7.191   0.201   6.401  0.2971 -0.1126 -0.3321
  547MOL0     O75351   7.208   0.338   6.370 -0.1935  0.2545 -0.0775
  547MOL0     C75352   7.328   0.400   6.361 -1.6141 -0.2158  0.3371
  547MOL0     C75353   7.449   0.330   6.360  0.2521  0.6881 -1.4214
  547MOL0     C75354   7.568   0.403   6.342 -0.9606 -0.3724 -0.4060
  547MOL0     C75355   7.580   0.541   6.334 -0.0515 -0.1278  0.9265
  547MOL0     O75356   7.708   0.597   6.328 -0.0310  0.4271  0.1241
  547MOL0     C75357   7.722   0.710   6.414  0.4113  0.2706  0.2316
  547MOL0     C75358   7.862   0.761   6.411 -0.4250  0.1334  0.2124
  547MOL0     C75359   7.884   0.901   6.470  0.6805  0.8156  0.2544
  547MOL0     C75360   8.029   0.950   6.453 -0.6327  0.1641  1.1075
  547MOL0     C75361   8.045   1.086   6.538 -0.4197 -0.0231  0.5941
  547MOL0     C75362   8.186   1.138   6.525 -0.1100 -0.0374 -0.1071
  547MOL0     C75363   8.207   1.267   6.601 -0.1495  0.4932  0.1488
  547MOL0     C75364   8.359   1.262   6.644  0.6473 -0.2747  0.6004
  547MOL0     N75365   8.399   1.390   6.708 -0.4310 -0.7965 -0.6033
  547MOL0     C75366   8.480   1.487   6.649  0.4040 -0.3769  1.2737
  547MOL0     C75367   8.507   1.574   6.745  0.7490 -0.6549  0.0005
  547MOL0     C75368   8.585   1.698   6.728 -0.2452 -1.1595  0.2003
  547MOL0     C75369   8.734   1.673   6.765 -0.2598 -0.2545 -0.3953
  547MOL0     C75370   8.791   1.552   6.682 -0.4944  1.2778  1.1018
  547MOL0     C75371   8.921   1.493   6.738 -0.2913 -0.7188 -0.0840
  547MOL0     O75372   8.956   1.379   6.666  0.0174 -0.5709  0.9930
  547MOL0     C75373   8.903   1.256   6.685 -0.2711  0.7872  0.9495
  547MOL0     C75374   8.806   1.234   6.775  0.7057 -0.3055 -0.6640
  547MOL0     C75375   8.766   1.107   6.814  0.4521  0.0285  0.7306
  547MOL0     C75376   8.646   1.100   6.915  0.2220 -0.3202 -0.2579
  547MOL0     C75377   8.811   0.997   6.728 -0.1718 -0.6148  0.1352
  547MOL0     C75378   8.733   0.872   6.707 -0.0754  1.0420 -0.3194
  547MOL0     O75379   8.593   0.888   6.705  0.1839  0.0096  0.0446
  547MOL0     C75380   8.520   0.776   6.666 -0.4583  0.3440  0.1828
  547MOL0     C75381   8.464   0.782   6.541  0.3903  0.0225 -1.0916
  547MOL0     C75382   8.392   0.663   6.491 -0.6478  0.2255  1.0343
  547MOL0     C75383   8.366   0.555   6.584  0.1820  0.2279 -0.4353
  547MOL0     O75384   8.263   0.463   6.559 -0.8647  0.1413  0.0491
  547MOL0     C75385   8.156   0.487   6.460 -0.1686  0.4078  0.8979
  547MOL0     C75386   8.039   0.391   6.480 -0.0961  0.2663 -0.2445
  547MOL0     C75387   8.073   0.241   6.435 -0.6216  0.0401 -0.3505
  547MOL0     C75388   7.962   0.161   6.477  0.8340 -0.2826  0.2206
  547MOL0     C75389   7.995   0.014   6.452 -0.0454 -0.2554  0.3605
  547MOL0     C75390   7.869  -0.068   6.475  0.4958  0.4822 -0.6910
  547MOL0     C75391   7.906  -0.200   6.528 -0.3029  0.7073  0.1172
  547MOL0     C75392   7.790  -0.297   6.523 -0.4684  0.5679 -0.0600
  547MOL0    Cl75393   7.743  -0.348   6.352 -0.0013 -0.2372 -0.1191
  547MOL0     C75394   8.437   0.557   6.701 -0.3725  0.4605 -0.2034
  547MOL0     C75395   8.512   0.663   6.743  0.8407  1.5556  0.0175
  547MOL0     O75396   8.794   0.769   6.700 -1.2166  1.0846  0.0483
  547MOL0     C75397   8.918   1.019   6.645 -1.0559 -0.1140  0.5332
  547MOL0     C75398   8.956   1.150   6.614 -0.1816 -0.1329 -0.2259
  547MOL0     N75399   8.463   1.529   6.865  0.1786  0.5851 -0.3934
  547MOL0     N75400   8.401   1.417   6.837 -0.3202  0.1277  0.1999
  547MOL0     C75401   7.455   0.609   6.332  0.7683  0.2805  0.1615
  547MOL0     C75402   7.331   0.534   6.340  0.0542  0.2077  0.8693
  547MOL0     C75403   7.066   0.138   6.368 -0.6976  0.2651  0.9712
  547MOL0     C75404   6.977   0.224   6.292  0.1838 -0.3906 -0.0981
  547MOL0     C75405   6.847   0.186   6.254 -0.3628  0.5540  0.1583
  547MOL0     C75406   6.806   0.060   6.297 -0.9276 -0.4300  0.3629
  547MOL0     O75407   6.676   0.033   6.275  0.2666  0.4777 -0.6547
  547MOL0     C75408   6.587   0.047   6.388 -0.5596  0.5491 -0.1196
  547MOL0     C75409   6.518   0.173   6.407 -0.2891 -0.0367 -0.7709
  547MOL0     C75410   6.410   0.199   6.299 -0.3735  1.1412  0.4756
  547MOL0     C75411   6.275   0.133   6.320  0.8087  0.1281 -0.5523
  547MOL0     C75412   6.192   0.183   6.426 -0.7206 -1.0193 -0.0969
  547MOL0     C75413   6.136   0.208   6.523  0.1851 -0.8238 -0.6054
  547MOL0     C75414   6.888  -0.035   6.347  0.9680  0.6266  0.1599
  547MOL0     C75415   7.023   0.002   6.381  0.5314  0.2666 -0.5139
  547MOL0     C75416   7.125  -0.112   6.414  0.2074  0.2794  0.6938
  547MOL0     H75417   7.451   0.222   6.370  0.9547  0.7667 -0.6714
  547MOL0     H75418   7.657   0.341   6.348 -2.1022 -2.0322  0.0550
  547MOL0     H75419   7.699   0.679   6.516 -1.8386  2.7549  0.5970
  547MOL0     H75420   7.640   0.778   6.390 -0.7585 -0.4354  2.0216
  547MOL0     H75421   7.926   0.693   6.470 -0.0264  0.2956 -0.0265
  547MOL0     H75422   7.907   0.744   6.313 -0.9259  0.0399 -0.0004
  547MOL0     H75423   7.814   0.971   6.424 -0.7907 -0.5994  0.2410
  547MOL0     H75424   7.848   0.902   6.573 -2.9281  0.4885 -0.8915
  547MOL0     H75425   8.089   0.871   6.500  0.1337 -1.2273 -1.9627
  547MOL0     H75426   8.064   0.957   6.350 -0.1137 -3.0699  0.9662
  547MOL0     H75427   8.032   1.065   6.645  1.5537  0.3240  0.9312
  547MOL0     H75428   7.973   1.165   6.513 -0.6677 -0.7700 -1.2048
  547MOL0     H75429   8.242   1.057   6.571 -0.1138 -0.4570 -0.8242
  547MOL0     H75430   8.220   1.147   6.421  1.6574 -1.6696  0.2688
  547MOL0     H75431   8.132   1.274   6.681  0.4557  1.5219  0.6483
  547MOL0     H75432   8.191   1.358   6.543  0.7406  0.0334 -0.8479
  547MOL0     H75433   8.380   1.180   6.714 -1.1418 -1.1479  0.1773
  547MOL0     H75434   8.428   1.257   6.560  0.6411  2.6323  0.3399
  547MOL0     H75435   8.506   1.490   6.543  0.4667  2.6935  1.3125
  547MOL0     H75436   8.549   1.781   6.790 -1.4448  2.4647 -4.7031
  547MOL0     H75437   8.579   1.738   6.627  3.4632  1.9196  0.9570
  547MOL0     H75438   8.788   1.764   6.736 -0.3611 -0.0902 -0.0633
  547MOL0     H75439   8.736   1.657   6.873  0.4900  0.4802 -0.2881
  547MOL0     H75440   8.723   1.468   6.669  0.2158  0.9769 -1.1747
  547MOL0     H75441   8.809   1.570   6.575  2.3334 -2.0309  0.8279
  547MOL0     H75442   9.004   1.562   6.719 -2.2682  2.4621  1.8902
  547MOL0     H75443   8.919   1.479   6.847  3.1317 -2.8522 -0.1388
  547MOL0     H75444   8.766   1.320   6.827 -0.1171 -0.8196 -0.4224
  547MOL0     H75445   8.633   0.999   6.955  0.4720 -0.7467 -1.2174
  547MOL0     H75446   8.555   1.142   6.871  1.3338  1.0939 -1.3134
  547MOL0     H75447   8.674   1.160   7.002 -1.8466 -2.2253  1.8562
  547MOL0     H75448   8.466   0.871   6.478 -2.8163  0.5669 -0.5731
  547MOL0     H75449   8.348   0.679   6.393 -0.9326  3.2845  1.5441
  547MOL0     H75450   8.118   0.590   6.464 -1.5231 -0.0654  0.6683
  547MOL0     H75451   8.197   0.478   6.359  1.2983 -0.0165  1.5016
  547MOL0     H75452   8.014   0.393   6.586 -0.9345 -0.0187 -0.4198
  547MOL0     H75453   7.957   0.432   6.419 -2.4550 -0.8584  1.9664
  547MOL0     H75454   8.170   0.218   6.481 -1.3930 -2.7439  0.0837
  547MOL0     H75455   8.075   0.233   6.326 -2.1871 -2.8000 -0.2701
  547MOL0     H75456   7.869   0.192   6.429 -0.2783  0.0742  2.4736
  547MOL0     H75457   7.941   0.182   6.583  1.5102  5.0989 -0.4236
  547MOL0     H75458   8.035  -0.002   6.351  0.0541  1.3697  0.1149
  547MOL0     H75459   8.076  -0.001   6.524 -1.4931 -1.2473  1.8463
  547MOL0     H75460   7.825  -0.094   6.379  1.9566  0.1566 -1.2951
  547MOL0     H75461   7.793  -0.014   6.533  1.4476  2.5294 -1.2437
  547MOL0     H75462   7.931  -0.196   6.635  0.8382 -0.6746 -0.0708
  547MOL0     H75463   7.992  -0.248   6.481 -2.1873 -2.2866 -0.5430
  547MOL0     H75464   7.698  -0.253   6.563 -0.8796 -0.9391  0.7642
  547MOL0     H75465   7.800  -0.388   6.583  0.2432  0.8932  0.3297
  547MOL0     H75466   8.424   0.487   6.784  0.3997  0.9654  0.3553
  547MOL0     H75467   8.561   0.659   6.840 -0.1092 -4.7905  0.6508
  547MOL0     H75468   8.958   0.926   6.605  0.1461  0.2231  0.8980
  547MOL0     H75469   9.038   1.171   6.547  0.9955 -0.7371  0.9927
  547MOL0     H75470   7.455   0.717   6.322  1.9055  0.1395 -2.0306
  547MOL0     H75471   7.230   0.573   6.341  0.5821  1.6190  1.1083
  547MOL0     H75472   7.008   0.326   6.271 -0.3049 -0.4296 -1.0111
  547MOL0     H75473   6.775   0.255   6.210  0.3618  2.8456  2.3132
  547MOL0     H75474   6.517  -0.032   6.357  1.4119 -0.9216 -1.0681
  547MOL0     H75475   6.639   0.023   6.481  1.1377 -1.8784 -1.5717
  547MOL0     H75476   6.592   0.253   6.413 -2.6526  2.1927  1.8927
  547MOL0     H75477   6.469   0.153   6.503  0.8639  1.5440  0.1787
  547MOL0     H75478   6.389   0.305   6.281 -1.8225  1.0133  1.1795
  547MOL0     H75479   6.456   0.170   6.205 -2.2726  1.2259 -0.5311
  547MOL0     H75480   6.280   0.026   6.343  2.6767  0.6011  1.5711
  547MOL0     H75481   6.224   0.148   6.225  2.4453 -0.3776 -1.5519
  547MOL0     H75482   6.101   0.230   6.622 -0.8230 -2.4813 -0.5669
  547MOL0     H75483   6.858  -0.133   6.381 -1.5783  1.7035  1.3186
  547MOL0     H75484   7.090  -0.213   6.391 -1.2612  1.1417 -1.1166
  547MOL0     H75485   7.210  -0.098   6.346 -0.5965  0.6390 -0.2520
  547MOL0     H75486   7.161  -0.108   6.517  2.9025  1.9510 -0.1740
  548MOL0     O75487   3.308   2.278   2.382 -0.1161  0.4011  0.7037
  548MOL0     C75488   3.229   2.365   2.380  0.6518 -0.8372  0.2140
  548MOL0     O75489   3.161   2.408   2.494  0.0009 -0.2336  0.0678
  548MOL0     C75490   3.170   2.344   2.613  0.0484  0.4951 -0.2643
  548MOL0     C75491   3.284   2.346   2.688 -0.6453  0.7295 -0.8117
  548MOL0     C75492   3.298   2.264   2.795  0.3171 -0.3021  0.9522
  548MOL0     C75493   3.183   2.220   2.866  0.3310 -0.1143 -0.5657
  548MOL0     O75494   3.201   2.174   2.994  0.7545 -0.0206 -0.1701
  548MOL0     C75495   3.101   2.232   3.087 -0.3215  0.3998  0.1995
  548MOL0     C75496   3.165   2.281   3.208  0.0288  0.5717  0.1418
  548MOL0     C75497   3.231   2.424   3.194  0.1799  0.1575  0.4577
  548MOL0     C75498   3.293   2.471   3.321  0.8275 -0.2989  0.4748
  548MOL0     C75499   3.370   2.606   3.318 -0.1366  0.1789  0.1891
  548MOL0     C75500   3.488   2.624   3.216  0.1171 -0.9386 -0.5500
  548MOL0     C75501   3.590   2.510   3.249  0.3588 -0.0615  0.6099
  548MOL0     C75502   3.728   2.551   3.197 -0.0746  0.0068 -0.3642
  548MOL0     N75503   3.827   2.445   3.191  0.9206  0.9602  0.6080
  548MOL0     C75504   3.800   2.314   3.188 -0.6193 -0.0875  0.7498
  548MOL0     C75505   3.922   2.249   3.201 -0.5914  0.9175  0.2777
  548MOL0     C75506   3.957   2.100   3.214 -0.1527  0.0324 -0.4383
  548MOL0     C75507   4.043   2.055   3.088 -0.2831 -0.5174 -0.0924
  548MOL0     C75508   4.093   1.911   3.087  0.4875 -0.2130 -0.9387
  548MOL0     C75509   3.994   1.800   3.136 -0.2163 -0.2935 -0.0296
  548MOL0     O75510   3.976   1.822   3.277  0.2147 -0.3316  0.2803
  548MOL0     C75511   3.879   1.747   3.345 -1.0338  0.5255 -0.3166
  548MOL0     C75512   3.820   1.626   3.293 -0.1193  0.3200  0.7423
  548MOL0     C75513   3.717   1.547   3.353  0.1437 -0.0158 -0.6868
  548MOL0     C75514   3.671   1.426   3.279 -0.3074  0.9271  0.1203
  548MOL0     C75515   3.660   1.599   3.476  0.0108 -0.1824  0.5128
  548MOL0     C75516   3.542   1.547   3.545  1.0951 -0.3374  0.0384
  548MOL0     O75517   3.541   1.558   3.677  0.8121 -0.2011 -0.3331
  548MOL0     C75518   3.423   1.539   3.754 -0.1956  0.1828 -0.2410
  548MOL0     C75519   3.361   1.413   3.746  0.2054  0.6787  0.2684
  548MOL0     C75520   3.262   1.376   3.836  0.8293  0.1934 -0.4841
  548MOL0     C75521   3.228   1.472   3.937 -0.1073 -0.4222  0.7545
  548MOL0     O75522   3.159   1.442   4.040  1.1071  0.3782  0.4133
  548MOL0     C75523   3.081   1.320   4.047 -0.2761 -0.5454  1.4553
  548MOL0     C75524   2.992   1.307   4.177 -0.6751 -0.1673  0.6799
  548MOL0     C75525   2.859   1.373   4.164  0.2804  0.1886  0.3996
  548MOL0     C75526   2.782   1.353   4.287 -0.3161  0.1219  0.0242
  548MOL0     C75527   2.680   1.467   4.303 -0.0201  0.4528 -0.2229
  548MOL0     C75528   2.574   1.486   4.194 -0.1762  0.2654 -0.2155
  548MOL0     C75529   2.469   1.598   4.215  0.2367 -0.0592  0.7151
  548MOL0     C75530   2.425   1.606   4.360 -0.7772 -0.6348  0.9221
  548MOL0    Cl75531   2.300   1.732   4.382 -0.3614  0.0764  0.0817
  548MOL0     C75532   3.291   1.595   3.945 -0.1370  0.2368 -0.4777
  548MOL0     C75533   3.385   1.634   3.854 -0.5728 -0.2522  0.0705
  548MOL0     O75534   3.454   1.483   3.486  1.0080  0.3850  0.7545
  548MOL0     C75535   3.715   1.721   3.529 -0.1417  0.7985  0.3961
  548MOL0     C75536   3.827   1.778   3.468 -0.1771  0.0254 -0.7158
  548MOL0     N75537   4.016   2.346   3.196 -0.4310  0.5233 -0.8164
  548MOL0     N75538   3.960   2.464   3.201 -0.0989  0.6555 -0.5901
  548MOL0     C75539   3.061   2.221   2.805 -0.7724  0.4100  0.8068
  548MOL0     C75540   3.057   2.281   2.674  0.4433 -0.2289 -0.1580
  548MOL0     C75541   3.209   2.444   2.261  0.5655 -0.8185  0.3436
  548MOL0     C75542   3.245   2.586   2.277 -0.0438  0.9092 -0.3379
  548MOL0     C75543   3.234   2.667   2.166 -0.9424 -0.6351  1.0874
  548MOL0     C75544   3.186   2.617   2.040  0.4220 -0.0926 -0.2673
  548MOL0     O75545   3.165   2.696   1.927  0.0874  0.8655  0.4713
  548MOL0     C75546   3.214   2.828   1.916 -0.3284  0.8591 -0.2006
  548MOL0     C75547   3.248   2.861   1.772  0.5771  0.1857 -0.0903
  548MOL0     C75548   3.159   2.961   1.702 -0.5769  0.5283 -0.2827
  548MOL0     C75549   3.045   2.909   1.607  0.9676  0.0349  0.4937
  548MOL0     C75550   3.086   2.856   1.475 -0.6427 -0.1773 -0.4404
  548MOL0     C75551   3.121   2.809   1.365  1.0106 -0.6646 -0.6520
  548MOL0     C75552   3.164   2.477   2.034  0.4298 -1.0836 -0.5645
  548MOL0     C75553   3.173   2.390   2.137 -0.6373 -0.0225  0.1090
  548MOL0     C75554   3.153   2.247   2.118  0.3185 -0.3881  0.1824
  548MOL0     H75555   3.368   2.402   2.650 -2.3844  1.0354 -4.6136
  548MOL0     H75556   3.394   2.245   2.842  0.7555 -1.1112 -0.2314
  548MOL0     H75557   3.029   2.151   3.106 -2.6771  1.5269 -2.9190
  548MOL0     H75558   3.043   2.315   3.044  0.6217  0.0541 -1.8514
  548MOL0     H75559   3.085   2.285   3.282 -0.5699  1.3824 -0.5305
  548MOL0     H75560   3.239   2.207   3.239 -0.8167 -0.5886 -0.5622
  548MOL0     H75561   3.321   2.417   3.133  1.9428  3.2800  2.4344
  548MOL0     H75562   3.158   2.498   3.159  0.7293  0.6870  0.4243
  548MOL0     H75563   3.221   2.483   3.403  1.8248  0.0802  1.3132
  548MOL0     H75564   3.350   2.386   3.360 -1.3068 -2.3282 -0.5631
  548MOL0     H75565   3.412   2.629   3.417  2.0682  1.5699 -0.9799
  548MOL0     H75566   3.299   2.686   3.294  1.1138  1.6837  1.2729
  548MOL0     H75567   3.459   2.601   3.113  2.8070 -2.8262 -0.9995
  548MOL0     H75568   3.537   2.721   3.223  0.9186 -1.2181 -2.0221
  548MOL0     H75569   3.563   2.418   3.196  0.5219  0.9477 -1.3331
  548MOL0     H75570   3.599   2.496   3.357 -5.0322 -1.9892  1.1078
  548MOL0     H75571   3.726   2.591   3.095  3.6935  0.9899 -0.2080
  548MOL0     H75572   3.761   2.634   3.260 -3.4946  0.5671  0.9109
  548MOL0     H75573   3.699   2.275   3.186 -1.9185  2.8803  2.5354
  548MOL0     H75574   3.869   2.039   3.238  0.3168  0.6149  3.5168
  548MOL0     H75575   4.022   2.097   3.302 -0.9458 -1.3653  0.1233
  548MOL0     H75576   3.979   2.082   3.003  0.6275  0.8438 -0.3750
  548MOL0     H75577   4.128   2.124   3.081 -0.4196 -0.4764 -1.7719
  548MOL0     H75578   4.129   1.879   2.989  0.8094  1.5641 -1.4408
  548MOL0     H75579   4.181   1.912   3.154 -0.2469  5.2097  0.4669
  548MOL0     H75580   3.900   1.806   3.079  0.2414 -0.7113 -0.8394
  548MOL0     H75581   4.045   1.706   3.114 -0.8056 -0.1329 -2.3444
  548MOL0     H75582   3.844   1.592   3.193 -3.1768 -1.8024  0.5936
  548MOL0     H75583   3.757   1.372   3.240  3.3251  5.8856  0.2878
  548MOL0     H75584   3.607   1.459   3.197 -0.0302  3.1971  0.7618
  548MOL0     H75585   3.617   1.364   3.352  0.5398  1.3304  1.1204
  548MOL0     H75586   3.382   1.349   3.661  1.9141  5.4647 -3.3623
  548MOL0     H75587   3.232   1.273   3.822  2.1572 -0.1186 -1.1969
  548MOL0     H75588   3.014   1.325   3.960 -0.1469 -0.8128  1.3379
  548MOL0     H75589   3.157   1.241   4.048  1.5930  1.1789  1.8797
  548MOL0     H75590   2.989   1.202   4.208 -0.0156 -0.1412  0.8419
  548MOL0     H75591   3.061   1.359   4.244 -1.3994 -0.2788  1.5389
  548MOL0     H75592   2.807   1.317   4.086  0.5208 -1.7625  1.5722
  548MOL0     H75593   2.854   1.475   4.125  0.4801 -1.2223 -3.7727
  548MOL0     H75594   2.838   1.329   4.377 -0.2004  0.9968  0.2002
  548MOL0     H75595   2.724   1.262   4.268 -0.7637  0.6793 -1.4975
  548MOL0     H75596   2.640   1.450   4.404  1.0886  0.4490  0.2287
  548MOL0     H75597   2.726   1.566   4.304  0.9505  0.0861  3.1292
  548MOL0     H75598   2.525   1.389   4.187  2.2900 -1.0724 -0.0900
  548MOL0     H75599   2.625   1.509   4.100 -2.4884 -0.9240 -1.8516
  548MOL0     H75600   2.391   1.578   4.141  1.0087 -0.7487  0.0561
  548MOL0     H75601   2.513   1.695   4.190  0.7694 -0.6493 -0.7815
  548MOL0     H75602   2.512   1.630   4.421 -0.8940 -2.2998  1.7996
  548MOL0     H75603   2.397   1.504   4.389 -0.9800 -0.7339  0.3840
  548MOL0     H75604   3.262   1.659   4.028  0.9244 -0.5656  0.5495
  548MOL0     H75605   3.439   1.727   3.850 -0.5401 -0.0921  2.6820
  548MOL0     H75606   3.686   1.763   3.625  0.3233  0.4971  0.6709
  548MOL0     H75607   3.883   1.849   3.527 -0.4596  0.1448 -0.5893
  548MOL0     H75608   2.978   2.175   2.858  0.9623 -2.6458  1.1080
  548MOL0     H75609   2.956   2.292   2.636  0.1906 -0.4060  0.4483
  548MOL0     H75610   3.291   2.614   2.371  0.9989 -1.1411 -0.1937
  548MOL0     H75611   3.284   2.762   2.179  2.2965 -2.2315  1.2800
  548MOL0     H75612   3.139   2.896   1.957 -1.6370  0.1496 -1.2946
  548MOL0     H75613   3.308   2.835   1.972 -0.6232  0.4956  0.3475
  548MOL0     H75614   3.241   2.771   1.711  2.1434  1.1337 -1.7546
  548MOL0     H75615   3.350   2.894   1.752  1.0135  0.1922  1.8763
  548MOL0     H75616   3.126   3.036   1.775 -1.1051 -0.3942  0.4611
  548MOL0     H75617   3.232   3.011   1.638  0.2158 -1.0441 -0.6756
  548MOL0     H75618   2.993   3.001   1.581  2.5650  0.3017 -2.0923
  548MOL0     H75619   2.991   2.834   1.666  0.2284  1.3517  1.5280
  548MOL0     H75620   3.153   2.779   1.267 -0.5682  1.1896 -1.8060
  548MOL0     H75621   3.142   2.442   1.933  1.0129  1.3542 -1.6078
  548MOL0     H75622   3.141   2.225   2.011  1.0838 -3.7534  0.6746
  548MOL0     H75623   3.246   2.197   2.145  0.2596 -0.1249  0.8707
  548MOL0     H75624   3.069   2.207   2.175  0.3057  1.2834  1.4105
  549MOL0     O75625   1.076   4.011  10.364 -0.1907  0.3410 -0.0886
  549MOL0     C75626   1.015   4.026  10.471  0.3780 -0.3368 -0.6876
  549MOL0     O75627   0.998   4.139  10.540 -0.4034  0.3456 -0.2958
  549MOL0     C75628   0.976   4.252  10.471  0.1708 -0.0524 -0.0628
  549MOL0     C75629   1.038   4.371  10.504 -0.6530 -1.4525 -0.5829
  549MOL0     C75630   1.009   4.493  10.447 -0.5896  0.5307 -0.5052
  549MOL0     C75631   0.900   4.507  10.359  0.0262  0.2014 -0.2528
  549MOL0     O75632   0.858   4.622  10.296  0.5348  0.1655 -0.3506
  549MOL0     C75633   0.795   4.728  10.380  0.5323  0.2391  0.5969
  549MOL0     C75634   0.741   4.829  10.276 -0.6026 -0.8123 -0.8110
  549MOL0     C75635   0.601   4.803  10.226 -0.1906  0.7817  1.0504
  549MOL0     C75636   0.580   4.674  10.145  0.6415  0.1212 -0.4604
  549MOL0     C75637   0.436   4.635  10.127  0.3037 -0.7200  0.8423
  549MOL0     C75638   0.405   4.506  10.063 -0.2193 -0.3295 -0.5130
  549MOL0     C75639   0.258   4.450  10.084  0.1352  0.0160 -0.3802
  549MOL0     C75640   0.244   4.309  10.042  0.2035 -0.1950 -0.1622
  549MOL0     N75641   0.356   4.218  10.085  0.3965  0.1257 -0.5752
  549MOL0     C75642   0.387   4.158  10.204  0.3662 -0.1626 -0.3972
  549MOL0     C75643   0.493   4.080  10.178 -0.0537 -0.2310 -0.7639
  549MOL0     C75644   0.575   3.978  10.259 -0.1336 -0.9572  0.8804
  549MOL0     C75645   0.573   3.836  10.204  0.0717  0.3678  0.0753
  549MOL0     C75646   0.441   3.769  10.253  0.3324 -0.7788 -0.2620
  549MOL0     C75647   0.436   3.626  10.216  1.0160  0.6165 -0.0446
  549MOL0     O75648   0.541   3.551  10.276 -0.4012  0.3392 -1.2871
  549MOL0     C75649   0.501   3.450  10.363  0.1249 -0.0244 -0.8863
  549MOL0     C75650   0.487   3.472  10.501  0.1114 -0.8813  0.4009
  549MOL0     C75651   0.442   3.375  10.593 -0.5254 -0.8511  0.7204
  549MOL0     C75652   0.417   3.406  10.740  0.1521 -0.3008 -0.7685
  549MOL0     C75653   0.448   3.236  10.550  0.9208 -0.0872 -0.4867
  549MOL0     C75654   0.402   3.110  10.629  0.0609  0.5212 -1.3486
  549MOL0     O75655   0.352   3.139  10.755 -0.5159  0.8171 -0.4820
  549MOL0     C75656   0.352   3.033  10.848  0.1099  0.6929  0.3417
  549MOL0     C75657   0.409   2.904  10.843  0.4874  0.3958  0.2540
  549MOL0     C75658   0.401   2.814  10.957  1.3821  0.0845  0.0720
  549MOL0     C75659   0.343   2.864  11.081 -0.5564 -0.4186  0.9203
  549MOL0     O75660   0.339   2.770  11.182 -0.4120 -0.4947  0.0462
  549MOL0     C75661   0.227   2.786  11.279 -0.3419 -0.1857  0.5141
  549MOL0     C75662   0.195   2.647  11.346 -0.1451 -0.4835 -0.0799
  549MOL0     C75663   0.321   2.574  11.401 -1.1224  0.2297  0.8479
  549MOL0     C75664   0.286   2.448  11.476 -0.2089 -0.6431 -0.1520
  549MOL0     C75665   0.417   2.366  11.495 -0.1549 -0.3210 -0.1069
  549MOL0     C75666   0.393   2.236  11.584  0.0487  0.2884 -0.4043
  549MOL0     C75667   0.517   2.150  11.581  0.3098 -0.3118  0.0796
  549MOL0     C75668   0.496   2.014  11.647 -0.0730 -0.1916 -0.2356
  549MOL0    Cl75669   0.501   2.049  11.826 -0.0640 -0.0185 -0.3200
  549MOL0     C75670   0.285   2.991  11.081  0.3629  0.2917  0.2248
  549MOL0     C75671   0.304   3.079  10.968 -1.0519  0.3608 -0.1209
  549MOL0     O75672   0.399   2.999  10.569 -0.3764  1.1193 -0.6733
  549MOL0     C75673   0.487   3.215  10.414 -0.3918 -0.3311 -0.0637
  549MOL0     C75674   0.503   3.323  10.319  0.1891  1.1317 -0.0201
  549MOL0     N75675   0.515   4.088  10.042  0.8365  0.2175  0.1890
  549MOL0     N75676   0.433   4.165   9.987  0.4803  0.1637  0.5715
  549MOL0     C75677   0.836   4.385  10.319  0.5331  0.1646 -1.1547
  549MOL0     C75678   0.872   4.264  10.379  0.4447  0.0335 -0.0523
  549MOL0     C75679   0.969   3.907  10.545 -1.2584 -0.2451 -0.2083
  549MOL0     C75680   0.874   3.832  10.470  0.0126 -0.8329 -0.1657
  549MOL0     C75681   0.823   3.717  10.525 -0.2789  1.4546 -0.1353
  549MOL0     C75682   0.873   3.668  10.643 -0.3731 -0.2566 -0.2807
  549MOL0     O75683   0.851   3.544  10.688 -0.2727 -0.0234  0.3295
  549MOL0     C75684   0.878   3.432  10.595 -0.4201 -1.0365 -0.3489
  549MOL0     C75685   1.025   3.406  10.570  0.5745 -0.5114 -1.0009
  549MOL0     C75686   1.119   3.411  10.690 -0.6106  0.0473  0.2447
  549MOL0     C75687   1.265   3.368  10.657  0.3977 -0.0492 -0.6703
  549MOL0     C75688   1.348   3.373  10.776 -0.5870 -0.1180 -0.2371
  549MOL0     C75689   1.417   3.402  10.876 -0.0551 -0.3367 -0.1913
  549MOL0     C75690   0.958   3.750  10.720 -1.0323 -1.2051  1.0986
  549MOL0     C75691   1.016   3.862  10.673 -1.0247  0.0510 -0.0218
  549MOL0     C75692   1.127   3.937  10.748  1.1410  0.9036  0.9066
  549MOL0     H75693   1.121   4.347  10.570 -2.5850 -1.7678  1.8966
  549MOL0     H75694   1.068   4.582  10.471 -2.7364  2.3580 -1.5932
  549MOL0     H75695   0.880   4.765  10.438  0.4287  1.0922  0.2278
  549MOL0     H75696   0.719   4.694  10.451  0.1450  3.4981  1.9698
  549MOL0     H75697   0.724   4.916  10.341  1.1806 -1.4124  0.5549
  549MOL0     H75698   0.809   4.869  10.201 -2.2872  4.8088  0.2024
  549MOL0     H75699   0.557   4.769  10.320  2.6093 -3.2171  1.1825
  549MOL0     H75700   0.555   4.888  10.176  1.7451  1.0417 -0.4081
  549MOL0     H75701   0.609   4.683  10.040 -0.6491 -4.2016 -1.3786
  549MOL0     H75702   0.636   4.593  10.192 -1.7054 -0.5416  1.4268
  549MOL0     H75703   0.379   4.712  10.074 -0.2976 -1.8805 -0.2464
  549MOL0     H75704   0.405   4.635  10.232  1.9029 -2.1136  1.3439
  549MOL0     H75705   0.423   4.496   9.956  1.4877 -1.6136 -0.1484
  549MOL0     H75706   0.474   4.439  10.115  0.3281  1.8825  1.8181
  549MOL0     H75707   0.200   4.511  10.014  1.5952 -0.5034 -2.1226
  549MOL0     H75708   0.229   4.459  10.189  0.1112  0.6046 -0.4325
  549MOL0     H75709   0.151   4.272  10.087  2.1056 -2.9156  1.8682
  549MOL0     H75710   0.227   4.311   9.934 -1.1237 -1.9771 -0.0352
  549MOL0     H75711   0.335   4.180  10.297  2.8642  4.0238  0.2676
  549MOL0     H75712   0.556   3.988  10.366  2.2896  2.9588  1.1463
  549MOL0     H75713   0.678   4.009  10.240 -0.7730  1.2424  0.7246
  549MOL0     H75714   0.573   3.841  10.094 -1.6475 -1.7108 -0.1046
  549MOL0     H75715   0.661   3.785  10.244 -1.0563 -1.5257  0.3160
  549MOL0     H75716   0.439   3.777  10.362 -0.5089 -1.3487 -0.2296
  549MOL0     H75717   0.362   3.828  10.205  1.2568 -0.6513 -1.6926
  549MOL0     H75718   0.342   3.577  10.242  1.7726 -0.8516  0.0282
  549MOL0     H75719   0.427   3.620  10.107  0.0897 -3.9787  0.0944
  549MOL0     H75720   0.502   3.572  10.540 -3.4584 -0.5971  1.3815
  549MOL0     H75721   0.478   3.357  10.816 -2.4553  1.1018  2.4916
  549MOL0     H75722   0.312   3.391  10.767 -0.5997  0.6744 -2.9190
  549MOL0     H75723   0.428   3.513  10.759  1.1308 -0.4813 -0.2724
  549MOL0     H75724   0.473   2.876  10.760  1.0585 -1.7502  1.3354
  549MOL0     H75725   0.437   2.712  10.955 -2.8280 -1.6729 -2.2861
  549MOL0     H75726   0.258   2.855  11.357 -1.3192  0.8502  0.0100
  549MOL0     H75727   0.130   2.824  11.247 -0.4611 -1.2644 -0.4988
  549MOL0     H75728   0.120   2.649  11.426  1.5237  0.7086  1.5324
  549MOL0     H75729   0.159   2.571  11.276  0.8637 -3.4041  2.3198
  549MOL0     H75730   0.372   2.635  11.477  4.4501 -0.0202 -2.1446
  549MOL0     H75731   0.392   2.566  11.318 -5.4777 -0.9244 -3.2158
  549MOL0     H75732   0.210   2.387  11.427  0.6446 -2.0708  0.2216
  549MOL0     H75733   0.251   2.490  11.570  0.3946  1.6188 -0.8607
  549MOL0     H75734   0.471   2.346  11.401 -3.7664 -1.4587 -2.1388
  549MOL0     H75735   0.489   2.431  11.546 -1.4658  1.5440 -0.5398
  549MOL0     H75736   0.314   2.176  11.539 -0.5168  1.0719 -0.4838
  549MOL0     H75737   0.365   2.260  11.687  1.4611  1.2934 -0.2218
  549MOL0     H75738   0.597   2.208  11.628 -0.8446  0.8922  0.6253
  549MOL0     H75739   0.553   2.128  11.480 -1.2032 -1.1623 -0.3107
  549MOL0     H75740   0.583   1.960  11.606  0.6593  2.2564 -2.0934
  549MOL0     H75741   0.408   1.958  11.614 -1.2400  2.2618 -1.5283
  549MOL0     H75742   0.241   3.022  11.175 -3.4941  2.4272 -2.0167
  549MOL0     H75743   0.276   3.183  10.981 -3.5314 -0.1739 -0.7626
  549MOL0     H75744   0.502   3.113  10.381 -1.3589 -0.9944  1.4062
  549MOL0     H75745   0.532   3.306  10.216 -1.0835  2.4927 -0.6364
  549MOL0     H75746   0.753   4.386  10.249 -0.2319 -1.4738 -0.3175
  549MOL0     H75747   0.818   4.181  10.334 -0.2189  1.4231 -1.9389
  549MOL0     H75748   0.852   3.864  10.369  1.1455  1.8619  0.3581
  549MOL0     H75749   0.758   3.649  10.470  0.9746 -1.6195  1.9250
  549MOL0     H75750   0.822   3.355  10.649 -0.3643  0.3073  1.7376
  549MOL0     H75751   0.830   3.452  10.499 -0.0247  1.7663 -0.0424
  549MOL0     H75752   1.052   3.473  10.489 -0.7516 -1.4707 -2.2862
  549MOL0     H75753   1.032   3.304  10.534  2.1404 -1.1831  1.0046
  549MOL0     H75754   1.133   3.516  10.718  1.7215 -0.0410 -0.3811
  549MOL0     H75755   1.076   3.351  10.771  0.9386  0.2053  1.2338
  549MOL0     H75756   1.306   3.430  10.577  1.0508 -0.4925 -0.6931
  549MOL0     H75757   1.265   3.265  10.621 -0.5292 -0.0908 -0.5658
  549MOL0     H75758   1.481   3.430  10.957  4.9138 -1.8315 -3.1899
  549MOL0     H75759   0.994   3.709  10.814 -0.5493 -0.0002  1.4595
  549MOL0     H75760   1.156   3.891  10.843 -0.7708 -1.6374  0.3520
  549MOL0     H75761   1.214   3.945  10.683  3.0850 -2.4290  2.8136
  549MOL0     H75762   1.094   4.041  10.757  1.5252  0.9014  2.6872
  550MOL0     O75763   6.829   9.467   6.712  0.0612 -0.5319  1.3504
  550MOL0     C75764   6.759   9.552   6.771  1.3121  0.3577  1.2006
  550MOL0     O75765   6.662   9.615   6.709  0.7358  0.0920 -0.3107
  550MOL0     C75766   6.659   9.617   6.572  0.3262  0.0818 -0.7455
  550MOL0     C75767   6.703   9.727   6.511  0.0953  0.1970 -0.3689
  550MOL0     C75768   6.687   9.754   6.376  0.3605  0.5737  0.7612
  550MOL0     C75769   6.640   9.650   6.295 -0.2456  0.7188 -0.0245
  550MOL0     O75770   6.660   9.639   6.157 -0.4285  0.6424 -0.7007
  550MOL0     C75771   6.763   9.721   6.103 -0.2102 -0.2697  0.5882
  550MOL0     C75772   6.764   9.751   5.953 -0.1116 -0.4610  0.0805
  550MOL0     C75773   6.738   9.635   5.854 -0.2725  1.4471  0.3108
  550MOL0     C75774   6.648   9.675   5.728 -0.8547  0.2485  0.5320
  550MOL0     C75775   6.672   9.556   5.616  0.1324 -0.3393 -0.0907
  550MOL0     C75776   6.793   9.590   5.525  0.3837  0.1042 -0.0982
  550MOL0     C75777   6.820   9.480   5.415 -0.2999 -0.8068 -0.0240
  550MOL0     C75778   6.920   9.523   5.308 -0.2039 -0.1556  0.2300
  550MOL0     N75779   7.044   9.568   5.364  0.5238  0.0227 -0.1906
  550MOL0     C75780   7.163   9.517   5.310  0.0361  0.7313  0.9141
  550MOL0     C75781   7.256   9.612   5.326  0.1128 -0.1664  0.8579
  550MOL0     C75782   7.398   9.610   5.278 -0.8209 -1.2552 -0.8429
  550MOL0     C75783   7.498   9.693   5.368 -0.0118 -0.5260  0.4472
  550MOL0     C75784   7.524   9.650   5.510  0.4687 -0.8492  0.8884
  550MOL0     C75785   7.616   9.755   5.576 -0.2892  1.0954  0.3319
  550MOL0     O75786   7.645   9.720   5.716  0.1641 -0.3897 -0.0298
  550MOL0     C75787   7.697   9.833   5.773  1.2369 -1.2383  0.2178
  550MOL0     C75788   7.815   9.891   5.729 -0.1277 -0.1060  0.8377
  550MOL0     C75789   7.874  10.012   5.782  0.4331  0.0488  0.1826
  550MOL0     C75790   8.000  10.065   5.727 -0.1961  0.8342  0.0246
  550MOL0     C75791   7.795  10.083   5.884 -0.4019 -0.3649  0.2233
  550MOL0     C75792   7.840  10.202   5.958 -0.2318 -0.6298  0.8139
  550MOL0     O75793   7.742  10.278   6.005  0.2146 -0.2094 -0.7684
  550MOL0     C75794   7.764  10.389   6.080  0.3839 -0.6864 -0.8917
  550MOL0     C75795   7.839  10.386   6.197 -0.6543 -0.0988  0.1489
  550MOL0     C75796   7.853  10.492   6.276 -0.8797  0.3156 -0.1913
  550MOL0     C75797   7.801  10.616   6.228  0.3180  0.3370  0.6897
  550MOL0     O75798   7.807  10.740   6.286 -1.1931  0.0178  0.6871
  550MOL0     C75799   7.895  10.761   6.394  0.4720 -0.0020 -0.3713
  550MOL0     C75800   7.907  10.918   6.427 -0.6577 -0.8758  1.7790
  550MOL0     C75801   8.051  10.950   6.487  0.4752  0.0331  0.7908
  550MOL0     C75802   8.057  10.899   6.628 -0.4082  0.8844  0.4022
  550MOL0     C75803   8.196  10.925   6.687  0.2733  0.4960  0.0171
  550MOL0     C75804   8.214  10.874   6.826 -0.0988  0.6381 -0.5180
  550MOL0     C75805   8.125  10.916   6.946 -0.4671 -0.3403 -0.7710
  550MOL0     C75806   8.073  11.062   6.950  0.8565 -0.0446 -0.4003
  550MOL0    Cl75807   8.195  11.188   6.964 -0.6778 -0.0810 -0.1679
  550MOL0     C75808   7.722  10.622   6.118  0.2332 -0.6484  0.5409
  550MOL0     C75809   7.705  10.509   6.047  0.8898  1.0383  0.8142
  550MOL0     O75810   7.962  10.224   5.974  0.3675 -0.1919 -0.0059
  550MOL0     C75811   7.675  10.030   5.921  0.3720 -0.9953 -0.1785
  550MOL0     C75812   7.623   9.909   5.872 -0.5779 -0.5635 -0.4602
  550MOL0     N75813   7.197   9.715   5.391 -0.4100 -0.0524  0.1394
  550MOL0     N75814   7.072   9.693   5.414 -0.6485  0.6193  0.1230
  550MOL0     C75815   6.591   9.539   6.356  0.0959 -0.5391  0.2361
  550MOL0     C75816   6.588   9.524   6.497 -0.4750  1.4776 -0.1391
  550MOL0     C75817   6.769   9.595   6.911  0.3121 -0.0937  0.6264
  550MOL0     C75818   6.896   9.574   6.971  0.7302 -0.3627 -0.1599
  550MOL0     C75819   6.924   9.612   7.107  0.5740  0.4338  0.7211
  550MOL0     C75820   6.834   9.680   7.179  0.7469 -0.2038  1.0210
  550MOL0     O75821   6.861   9.721   7.310 -0.5360 -0.1766  0.1156
  550MOL0     C75822   6.995   9.717   7.364  0.3810 -0.2595 -0.2649
  550MOL0     C75823   6.990   9.666   7.513 -0.2865  0.8990  0.1784
  550MOL0     C75824   7.132   9.669   7.586 -0.8396  0.8748  0.8717
  550MOL0     C75825   7.217   9.792   7.562 -0.8361  0.3186 -0.3496
  550MOL0     C75826   7.324   9.822   7.654 -1.3293  0.2032  0.4342
  550MOL0     C75827   7.420   9.867   7.721 -0.2786  0.5994  0.4241
  550MOL0     C75828   6.708   9.704   7.118 -0.4489 -0.0998  0.1698
  550MOL0     C75829   6.672   9.673   6.988  0.3836  0.7964  0.4647
  550MOL0     C75830   6.531   9.700   6.944 -0.4489 -0.1645  1.0633
  550MOL0     H75831   6.734   9.806   6.580 -0.9595  1.6649 -1.4977
  550MOL0     H75832   6.732   9.841   6.330  0.6178  0.2416  0.3730
  550MOL0     H75833   6.865   9.690   6.126  0.3201  1.2814  0.4418
  550MOL0     H75834   6.757   9.823   6.141 -1.3073 -0.4657  0.9684
  550MOL0     H75835   6.676   9.816   5.947  0.7023  1.0972  3.3280
  550MOL0     H75836   6.843   9.815   5.913 -1.2310  0.5939 -0.5299
  550MOL0     H75837   6.839   9.603   5.827  0.0617 -1.7758  4.3436
  550MOL0     H75838   6.690   9.559   5.916 -1.6301  2.3565  0.4199
  550MOL0     H75839   6.550   9.691   5.775  0.3486  2.2937  2.5940
  550MOL0     H75840   6.687   9.771   5.694  0.6756  0.1163  1.8046
  550MOL0     H75841   6.586   9.541   5.551  0.2727 -1.8780  0.0409
  550MOL0     H75842   6.699   9.466   5.673 -0.1387 -1.1964 -1.2776
  550MOL0     H75843   6.765   9.679   5.467 -1.8344  0.0028  0.7228
  550MOL0     H75844   6.887   9.598   5.580  1.3336  1.4697 -1.7993
  550MOL0     H75845   6.725   9.464   5.361  0.1697  0.1839 -1.1930
  550MOL0     H75846   6.869   9.391   5.456  0.6293  0.3093  1.3651
  550MOL0     H75847   6.943   9.446   5.233  1.7620 -0.8225  1.4313
  550MOL0     H75848   6.876   9.603   5.248  0.8304 -0.9627 -1.6996
  550MOL0     H75849   7.187   9.426   5.257  2.7870  2.5937 -1.3373
  550MOL0     H75850   7.408   9.645   5.175 -0.0895  1.3528  0.0360
  550MOL0     H75851   7.425   9.504   5.281  1.0497 -0.8516 -2.0646
  550MOL0     H75852   7.600   9.685   5.330  0.8653 -1.0019  2.7693
  550MOL0     H75853   7.474   9.799   5.366 -0.3995 -0.6046 -1.9494
  550MOL0     H75854   7.430   9.646   5.567  0.5069 -0.6016  0.9723
  550MOL0     H75855   7.565   9.549   5.500 -0.2431 -0.9164 -2.1126
  550MOL0     H75856   7.709   9.764   5.518  1.2074  1.1004  2.6142
  550MOL0     H75857   7.555   9.845   5.573 -0.5591  0.8966 -1.1509
  550MOL0     H75858   7.862   9.841   5.646 -0.2746  1.8576 -0.4981
  550MOL0     H75859   8.028  10.010   5.637 -1.1891 -2.9839  1.8351
  550MOL0     H75860   8.084  10.064   5.798  0.3200 -0.0445 -0.5816
  550MOL0     H75861   7.991  10.166   5.686  1.5493  0.8962 -0.2854
  550MOL0     H75862   7.890  10.293   6.221  0.6962 -0.3863 -3.1894
  550MOL0     H75863   7.910  10.478   6.367  0.2160 -0.3443 -0.9448
  550MOL0     H75864   7.845  10.718   6.481 -0.7291 -0.1358 -1.1021
  550MOL0     H75865   7.986  10.701   6.385 -0.3784 -1.3198 -0.4249
  550MOL0     H75866   7.905  10.987   6.342  1.9583  0.0405  2.3535
  550MOL0     H75867   7.826  10.948   6.494 -2.5450 -1.6015 -0.0890
  550MOL0     H75868   8.061  11.058   6.500 -3.0045  0.1200  5.8122
  550MOL0     H75869   8.132  10.909   6.426  0.3860  1.3003 -0.2472
  550MOL0     H75870   8.045  10.790   6.630  2.6693  0.4251 -0.3045
  550MOL0     H75871   7.979  10.935   6.696  0.8379  1.2131  1.7284
  550MOL0     H75872   8.274  10.876   6.629 -1.5038  0.8546 -2.8771
  550MOL0     H75873   8.224  11.030   6.701 -0.1727  0.4987  1.0161
  550MOL0     H75874   8.312  10.912   6.856 -0.7236  1.5173  0.4746
  550MOL0     H75875   8.220  10.767   6.806 -0.8065  0.7619 -1.4772
  550MOL0     H75876   8.175  10.904   7.043 -1.1631 -0.1752 -0.3792
  550MOL0     H75877   8.037  10.852   6.955 -1.2302  0.1631 -3.7431
  550MOL0     H75878   8.006  11.078   7.035  1.5412  1.8794 -0.1810
  550MOL0     H75879   8.020  11.095   6.860 -0.2251  1.5605  0.7757
  550MOL0     H75880   7.679  10.715   6.084 -1.3362 -1.9983 -1.4608
  550MOL0     H75881   7.654  10.528   5.953 -1.6047 -2.4428  1.2492
  550MOL0     H75882   7.608  10.063   6.000 -1.5438 -2.3863 -1.1451
  550MOL0     H75883   7.531   9.872   5.918  1.3067 -4.0796  0.8373
  550MOL0     H75884   6.563   9.451   6.298  0.4117 -2.1729  2.4283
  550MOL0     H75885   6.555   9.435   6.551 -0.6007 -0.2070 -2.8228
  550MOL0     H75886   6.970   9.513   6.920  3.3813  2.3382  0.1191
  550MOL0     H75887   7.026   9.593   7.140  0.5560  2.1744  1.9467
  550MOL0     H75888   7.058   9.635   7.328  0.0298 -0.0026 -1.4987
  550MOL0     H75889   7.036   9.818   7.363 -1.4273  0.5226  0.4936
  550MOL0     H75890   6.957   9.562   7.506  0.1820  0.8491 -1.5253
  550MOL0     H75891   6.914   9.721   7.571  2.2750  4.8474  0.1373
  550MOL0     H75892   7.120   9.644   7.692  4.1518  2.9800  2.1970
  550MOL0     H75893   7.183   9.584   7.540  2.1399  2.6423  0.6697
  550MOL0     H75894   7.153   9.878   7.584 -1.8901 -0.7810  1.0013
  550MOL0     H75895   7.266   9.778   7.465  0.3452 -0.5072  0.3403
  550MOL0     H75896   7.498   9.916   7.776  0.5697 -1.5020  1.2295
  550MOL0     H75897   6.639   9.756   7.184 -1.2811  0.7327 -1.3021
  550MOL0     H75898   6.491   9.617   6.885  0.5025  2.6084 -4.1031
  550MOL0     H75899   6.454   9.726   7.018 -2.4125  3.7189 -1.9829
  550MOL0     H75900   6.531   9.775   6.865  0.3533 -3.0544 -1.9393
  551MOL0     O75901   7.132   8.846   5.914 -0.8473  0.7149 -0.4813
  551MOL0     C75902   7.241   8.827   5.860  0.1066  0.1032  0.6592
  551MOL0     O75903   7.364   8.873   5.912  0.0086 -0.2665  0.4397
  551MOL0     C75904   7.371   8.951   6.028 -0.4955  0.0333  0.2023
  551MOL0     C75905   7.271   9.038   6.069 -0.2374  0.0352  0.6467
  551MOL0     C75906   7.287   9.110   6.191  0.8827 -1.4257 -0.3424
  551MOL0     C75907   7.394   9.086   6.276 -0.0002 -0.0652  0.3104
  551MOL0     O75908   7.390   9.139   6.399 -0.7037 -0.4839  0.0202
  551MOL0     C75909   7.441   9.072   6.513  0.2737  0.2098  0.6143
  551MOL0     C75910   7.351   9.101   6.634 -0.1629  0.1350  0.6260
  551MOL0     C75911   7.200   9.058   6.607 -0.3467  0.8822  0.0780
  551MOL0     C75912   7.191   8.904   6.652  0.2043 -0.3305 -0.5117
  551MOL0     C75913   7.053   8.844   6.623 -0.7258 -0.2656  0.1724
  551MOL0     C75914   7.021   8.807   6.479  1.0410  0.1589 -0.3497
  551MOL0     C75915   7.144   8.745   6.415 -0.1828  0.3250 -0.2594
  551MOL0     C75916   7.110   8.704   6.263 -0.7209  0.8603  0.3708
  551MOL0     N75917   7.221   8.621   6.207 -0.0347 -0.0241 -0.7588
  551MOL0     C75918   7.353   8.662   6.215 -0.0751 -0.1317 -0.1911
  551MOL0     C75919   7.424   8.570   6.146  0.5654 -0.5421 -0.7226
  551MOL0     C75920   7.559   8.550   6.095 -0.3012  0.0387  0.5691
  551MOL0     C75921   7.620   8.406   6.111 -0.2708 -0.7034  0.3325
  551MOL0     C75922   7.666   8.362   6.257  0.1147 -0.3423  0.3462
  551MOL0     C75923   7.579   8.390   6.374  1.1866 -0.1780 -0.9686
  551MOL0     O75924   7.640   8.343   6.497  0.4755  0.5848 -0.0601
  551MOL0     C75925   7.614   8.401   6.617 -1.3657 -0.9851 -1.0169
  551MOL0     C75926   7.489   8.448   6.645  0.3731 -0.6136  0.2400
  551MOL0     C75927   7.460   8.516   6.757 -0.8925 -0.7202 -1.0665
  551MOL0     C75928   7.322   8.571   6.759 -1.0669 -0.3591 -0.5667
  551MOL0     C75929   7.554   8.520   6.870 -1.2368  0.0296  0.5106
  551MOL0     C75930   7.535   8.574   7.002 -0.0995  0.0781  0.8406
  551MOL0     O75931   7.648   8.593   7.073  0.0743 -0.6113  0.0176
  551MOL0     C75932   7.653   8.552   7.206  0.6598  0.3344 -1.0261
  551MOL0     C75933   7.550   8.507   7.291 -0.2109 -0.6377  0.4164
  551MOL0     C75934   7.577   8.477   7.424 -0.0448  0.5785 -0.2472
  551MOL0     C75935   7.711   8.478   7.476 -0.5434  0.1774 -0.5473
  551MOL0     O75936   7.740   8.468   7.608 -0.6523  0.4553 -0.1656
  551MOL0     C75937   7.687   8.365   7.688 -0.8997  0.3219  0.2090
  551MOL0     C75938   7.668   8.418   7.834 -0.3732 -0.1436  0.0064
  551MOL0     C75939   7.803   8.449   7.912 -0.5352  0.0950  0.5042
  551MOL0     C75940   7.779   8.493   8.055  0.1295 -0.1093  0.6676
  551MOL0     C75941   7.905   8.503   8.142  0.3451 -0.2085  0.0244
  551MOL0     C75942   7.868   8.577   8.279  0.5869  0.0515  0.3905
  551MOL0     C75943   7.973   8.643   8.349  0.3721  0.4867 -0.1373
  551MOL0     C75944   7.939   8.697   8.484 -0.1245  0.2590 -0.5087
  551MOL0    Cl75945   8.069   8.778   8.568 -0.1022  0.0311  0.0817
  551MOL0     C75946   7.810   8.523   7.389  0.0438  0.5172  0.8889
  551MOL0     C75947   7.784   8.559   7.256 -0.3147 -0.3803  0.5105
  551MOL0     O75948   7.420   8.614   7.039 -0.2219  0.2791  0.7916
  551MOL0     C75949   7.678   8.455   6.844  0.0327 -0.1184  0.4823
  551MOL0     C75950   7.710   8.394   6.722 -0.4295  0.7547 -0.6495
  551MOL0     N75951   7.339   8.469   6.106 -0.2515 -0.0027  0.1476
  551MOL0     N75952   7.216   8.499   6.148 -0.3459 -0.1125  0.6478
  551MOL0     C75953   7.503   9.017   6.223  0.3660  0.1051 -0.1324
  551MOL0     C75954   7.491   8.944   6.111  0.3088 -0.0618 -0.2119
  551MOL0     C75955   7.236   8.750   5.725 -0.5793 -0.7086 -0.4959
  551MOL0     C75956   7.341   8.784   5.637  0.5563 -0.1621  0.3649
  551MOL0     C75957   7.345   8.735   5.507 -0.2789 -0.5613  0.7575
  551MOL0     C75958   7.241   8.658   5.455 -0.1191  0.4499  0.2820
  551MOL0     O75959   7.227   8.610   5.326  0.2302 -0.0112 -0.2336
  551MOL0     C75960   7.287   8.688   5.226  1.0143 -0.2365  0.1598
  551MOL0     C75961   7.273   8.611   5.097  0.0219  0.0428  0.1445
  551MOL0     C75962   7.231   8.707   4.977  0.7794  1.2063 -0.1446
  551MOL0     C75963   7.223   8.639   4.842 -0.3812  0.0242 -1.0521
  551MOL0     C75964   7.165   8.729   4.742 -0.1951  0.9568  0.9336
  551MOL0     C75965   7.122   8.807   4.664 -1.2510 -0.7563  0.1771
  551MOL0     C75966   7.150   8.611   5.544  0.3399  0.3700 -0.4682
  551MOL0     C75967   7.150   8.655   5.679  0.9264  0.0795  0.2040
  551MOL0     C75968   7.051   8.574   5.773  0.9032  0.2623  0.3074
  551MOL0     H75969   7.186   9.053   6.003 -1.6055 -1.0269  2.0729
  551MOL0     H75970   7.194   9.161   6.214  0.9804 -2.3583  2.6039
  551MOL0     H75971   7.541   9.113   6.533 -0.6426  2.2338  1.2929
  551MOL0     H75972   7.446   8.965   6.493 -1.7384  0.0821  0.5818
  551MOL0     H75973   7.398   9.065   6.725 -0.3641 -1.1184  0.2485
  551MOL0     H75974   7.348   9.210   6.648  0.9852 -0.0284  2.4823
  551MOL0     H75975   7.134   9.129   6.658 -2.2439  0.3170 -1.4389
  551MOL0     H75976   7.183   9.061   6.499  0.8798 -2.3759 -0.3267
  551MOL0     H75977   7.271   8.842   6.611 -2.4298 -3.3549 -1.4452
  551MOL0     H75978   7.194   8.888   6.760 -1.9073 -4.1997 -0.8599
  551MOL0     H75979   6.968   8.900   6.662 -2.2370 -2.1906 -0.1484
  551MOL0     H75980   7.057   8.753   6.683 -3.0644  0.5783  1.7331
  551MOL0     H75981   6.948   8.726   6.470  1.8468 -0.4712 -1.4758
  551MOL0     H75982   6.997   8.905   6.435 -1.6793 -0.6792 -0.9111
  551MOL0     H75983   7.157   8.657   6.477 -1.3075  2.3963  3.1913
  551MOL0     H75984   7.226   8.817   6.418  1.2607 -1.2945  0.8752
  551MOL0     H75985   7.017   8.646   6.257 -0.5923  0.2111  3.1532
  551MOL0     H75986   7.096   8.789   6.196 -2.2950  0.4089  0.0705
  551MOL0     H75987   7.382   8.758   6.257  1.7030 -0.8423  0.2974
  551MOL0     H75988   7.629   8.618   6.146  2.3207 -0.9339 -1.4900
  551MOL0     H75989   7.554   8.575   5.989 -2.2589  2.9647  1.2339
  551MOL0     H75990   7.558   8.328   6.066 -0.8554 -0.3673  0.5537
  551MOL0     H75991   7.710   8.398   6.049  1.1105  2.9185  1.5899
  551MOL0     H75992   7.673   8.253   6.251  0.2721 -0.2806 -0.9444
  551MOL0     H75993   7.766   8.401   6.276 -0.1904 -0.1885  1.7586
  551MOL0     H75994   7.565   8.498   6.382  3.8856  0.2183 -0.3840
  551MOL0     H75995   7.482   8.342   6.362  1.9364 -2.0833  0.0800
  551MOL0     H75996   7.409   8.437   6.572 -1.1577 -1.8525  2.0073
  551MOL0     H75997   7.335   8.648   6.837  0.0523  1.3574 -2.3495
  551MOL0     H75998   7.257   8.498   6.808  3.2568 -2.9717  2.0081
  551MOL0     H75999   7.290   8.611   6.663  1.1156  1.0621 -0.7978
  551MOL0     H76000   7.445   8.506   7.264 -0.1209  0.4771 -0.0341
  551MOL0     H76001   7.498   8.443   7.490  2.3429 -2.8159  1.1856
  551MOL0     H76002   7.592   8.322   7.654  0.8635 -2.1680 -1.9153
  551MOL0     H76003   7.756   8.280   7.686 -3.4393 -1.9052 -2.4426
  551MOL0     H76004   7.612   8.512   7.824  1.5906  1.2429  1.2450
  551MOL0     H76005   7.609   8.338   7.880 -0.7183  1.6552  2.9477
  551MOL0     H76006   7.849   8.535   7.863 -1.0043 -0.2325 -0.5430
  551MOL0     H76007   7.870   8.363   7.910 -1.2666 -0.6358  3.2964
  551MOL0     H76008   7.708   8.424   8.101  0.7227 -0.5376  0.9603
  551MOL0     H76009   7.731   8.591   8.052  0.9734  0.3598 -3.3507
  551MOL0     H76010   7.948   8.405   8.166 -0.6406 -0.2021  2.0552
  551MOL0     H76011   7.982   8.561   8.090 -2.3572  1.9401 -1.8286
  551MOL0     H76012   7.818   8.507   8.345 -0.7870  1.3317  0.7746
  551MOL0     H76013   7.793   8.653   8.250 -0.0986 -0.1156  1.6731
  551MOL0     H76014   8.015   8.716   8.280  0.6411  1.9246  1.4895
  551MOL0     H76015   8.047   8.566   8.374  2.4505  1.4499 -2.8917
  551MOL0     H76016   7.911   8.608   8.540 -1.5047  0.2962 -1.0966
  551MOL0     H76017   7.850   8.761   8.479 -2.5436 -2.7763  0.7376
  551MOL0     H76018   7.907   8.538   7.436  0.9253  4.0567 -1.6116
  551MOL0     H76019   7.866   8.603   7.200  0.5290  0.6611  2.4211
  551MOL0     H76020   7.756   8.455   6.919  0.4464  1.6704  0.1113
  551MOL0     H76021   7.799   8.337   6.698  0.9895  1.6694  2.1061
  551MOL0     H76022   7.582   8.992   6.292 -0.5024  0.7463  1.1279
  551MOL0     H76023   7.562   8.871   6.072  0.1903  0.6370 -1.8106
  551MOL0     H76024   7.429   8.842   5.663  1.3484 -1.8582  1.7370
  551MOL0     H76025   7.428   8.754   5.440 -1.4719  0.1710 -0.5692
  551MOL0     H76026   7.238   8.786   5.230 -1.1678 -1.3322  2.2534
  551MOL0     H76027   7.394   8.703   5.243  1.2198 -0.7590 -0.6411
  551MOL0     H76028   7.203   8.527   5.096  1.0513 -0.8233 -0.0398
  551MOL0     H76029   7.372   8.574   5.069 -1.2218 -2.8571 -0.7926
  551MOL0     H76030   7.127   8.735   5.000 -0.6041 -0.9905 -3.0081
  551MOL0     H76031   7.298   8.791   4.990  2.9851 -0.8304  3.2282
  551MOL0     H76032   7.154   8.555   4.856  1.7045 -1.3768  1.5140
  551MOL0     H76033   7.323   8.621   4.803  0.2093  1.8094 -0.4784
  551MOL0     H76034   7.079   8.881   4.600 -0.9249  0.8064  1.6653
  551MOL0     H76035   7.094   8.522   5.514  0.5738  0.5179 -1.3594
  551MOL0     H76036   7.074   8.473   5.808 -0.1184  0.3327  1.2405
  551MOL0     H76037   7.041   8.640   5.860  1.6336  0.8676 -0.0552
  551MOL0     H76038   6.952   8.554   5.731  0.7158 -0.4844  1.0694
  552MOL0     O76039   5.587   6.199   8.314  0.1431  0.1605  0.3616
  552MOL0     C76040   5.530   6.296   8.258  0.2098  1.5637 -0.4146
  552MOL0     O76041   5.583   6.358   8.151 -0.2437  0.4651 -0.2309
  552MOL0     C76042   5.684   6.292   8.084 -0.8625  0.0591  0.3597
  552MOL0     C76043   5.815   6.332   8.108  0.0940  0.8519  0.8581
  552MOL0     C76044   5.909   6.262   8.030 -0.0028  0.1544  0.1404
  552MOL0     C76045   5.885   6.143   7.957 -0.4083 -0.3276  0.3664
  552MOL0     O76046   5.984   6.085   7.876  0.0402 -0.0005 -0.2382
  552MOL0     C76047   6.118   6.082   7.938 -0.3768 -0.1681  0.2783
  552MOL0     C76048   6.211   5.985   7.868 -0.1025 -0.0951  0.4530
  552MOL0     C76049   6.345   5.952   7.940  0.3893 -0.5960  0.7215
  552MOL0     C76050   6.357   5.801   7.922 -0.1255 -0.6904  0.4532
  552MOL0     C76051   6.475   5.740   7.994 -0.5382 -0.6233 -0.2280
  552MOL0     C76052   6.611   5.801   7.944  0.5587  0.4940 -0.3065
  552MOL0     C76053   6.728   5.728   8.009  0.1232 -0.1256 -0.4707
  552MOL0     C76054   6.846   5.810   8.054  0.1653  0.3744  0.8604
  552MOL0     N76055   6.947   5.722   8.123 -0.3818  0.1229 -0.5719
  552MOL0     C76056   7.069   5.665   8.076 -0.1192 -0.1347  1.0247
  552MOL0     C76057   7.115   5.583   8.169  0.0985 -0.3660 -0.9894
  552MOL0     C76058   7.253   5.519   8.157 -0.0940  0.7979  0.3147
  552MOL0     C76059   7.283   5.457   8.013 -0.3995  0.7064 -0.7459
  552MOL0     C76060   7.410   5.372   8.019 -0.2459 -0.0498  0.5366
  552MOL0     C76061   7.383   5.214   7.998 -0.4538 -0.8482  0.6205
  552MOL0     O76062   7.281   5.167   8.091 -0.0296  0.3078  0.0856
  552MOL0     C76063   7.215   5.053   8.043 -0.1574  0.8531 -0.2517
  552MOL0     C76064   7.080   5.042   8.055  0.9202 -1.1950 -0.0530
  552MOL0     C76065   7.000   4.937   8.014  0.3152 -0.1589  0.4505
  552MOL0     C76066   6.849   4.946   8.023 -0.1512 -0.1252 -0.7736
  552MOL0     C76067   7.075   4.834   7.945 -0.4761 -0.5503  0.2139
  552MOL0     C76068   7.007   4.717   7.897 -0.0986  0.0970  0.6455
  552MOL0     O76069   7.074   4.650   7.795 -0.0186  0.5242 -1.2526
  552MOL0     C76070   7.033   4.535   7.755 -0.4558  0.0932 -1.5670
  552MOL0     C76071   7.005   4.420   7.845 -0.0726  0.0853  0.4558
  552MOL0     C76072   6.956   4.300   7.788 -0.8413 -1.2695 -0.1615
  552MOL0     C76073   6.957   4.278   7.650 -0.1563  0.8600 -1.2704
  552MOL0     O76074   6.935   4.161   7.584 -0.2900  0.1735  0.5413
  552MOL0     C76075   6.898   4.049   7.653 -0.2415  0.3969 -0.7518
  552MOL0     C76076   6.933   3.933   7.576 -0.1439  0.6669 -0.0844
  552MOL0     C76077   7.082   3.892   7.585  0.3822  0.7793  0.2511
  552MOL0     C76078   7.095   3.737   7.571  0.2254  0.6079  0.0638
  552MOL0     C76079   7.241   3.703   7.538 -0.6654 -0.5060  0.8837
  552MOL0     C76080   7.347   3.672   7.643  0.0111  0.3571 -0.1562
  552MOL0     C76081   7.374   3.793   7.732 -0.3595  0.4556 -0.6008
  552MOL0     C76082   7.507   3.802   7.794  0.2106 -0.2140 -0.5131
  552MOL0    Cl76083   7.541   3.971   7.839  0.1530 -0.2877  0.4696
  552MOL0     C76084   7.004   4.379   7.568 -0.3816 -0.7328 -0.6437
  552MOL0     C76085   7.041   4.504   7.617 -0.0800  0.3308  0.8084
  552MOL0     O76086   6.898   4.676   7.942  0.3156 -0.0861  0.2869
  552MOL0     C76087   7.212   4.836   7.932 -0.8717 -1.9373 -0.5388
  552MOL0     C76088   7.288   4.944   7.987  0.7879  0.0652  0.5954
  552MOL0     N76089   7.037   5.595   8.281 -0.3584 -1.1079 -0.4585
  552MOL0     N76090   6.935   5.672   8.255 -0.1984  0.1033  0.3952
  552MOL0     C76091   5.749   6.108   7.941  1.1735 -0.0385 -0.1651
  552MOL0     C76092   5.648   6.183   8.003 -0.3509  0.4908 -0.6984
  552MOL0     C76093   5.400   6.344   8.312 -0.4306 -0.0551  0.1825
  552MOL0     C76094   5.398   6.365   8.447  0.5820 -0.8127 -1.4576
  552MOL0     C76095   5.275   6.409   8.509  0.3155  0.1386  0.1163
  552MOL0     C76096   5.158   6.420   8.432  1.1402  0.0713  0.0520
  552MOL0     O76097   5.028   6.447   8.476 -0.9945 -0.9106 -0.4231
  552MOL0     C76098   5.016   6.483   8.606 -0.8227 -1.2478 -0.9204
  552MOL0     C76099   5.009   6.364   8.710 -1.1863  1.5428 -0.1727
  552MOL0     C76100   4.943   6.236   8.654  0.2154  0.3439 -0.5102
  552MOL0     C76101   4.788   6.262   8.689 -0.5945  0.4299 -0.0785
  552MOL0     C76102   4.705   6.172   8.604 -0.1147  1.1857  0.1911
  552MOL0     C76103   4.643   6.098   8.529  0.6905  0.1970 -0.0987
  552MOL0     C76104   5.172   6.400   8.293  0.6582  0.4398  0.0609
  552MOL0     C76105   5.286   6.363   8.225 -0.3226  0.1337  0.4990
  552MOL0     C76106   5.294   6.332   8.077 -0.0375 -0.2086 -0.5300
  552MOL0     H76107   5.828   6.416   8.175 -2.1566  2.4192 -0.5235
  552MOL0     H76108   6.008   6.301   8.053 -0.0803  1.1734 -1.0907
  552MOL0     H76109   6.119   6.051   8.043 -2.0754  1.2529  0.7760
  552MOL0     H76110   6.159   6.183   7.928  0.0875 -0.5373 -2.0609
  552MOL0     H76111   6.155   5.894   7.844  0.6366  0.0043 -1.8763
  552MOL0     H76112   6.239   6.037   7.776  0.4866  2.1996  1.8613
  552MOL0     H76113   6.429   6.005   7.895  0.3950 -0.8865  0.3858
  552MOL0     H76114   6.347   5.968   8.048  1.1592  1.2539  0.4677
  552MOL0     H76115   6.271   5.753   7.970 -2.8014 -0.1486 -3.3769
  552MOL0     H76116   6.358   5.780   7.815 -1.7089  1.0144  0.0751
  552MOL0     H76117   6.475   5.631   7.978  0.9204 -0.2498 -3.7241
  552MOL0     H76118   6.465   5.762   8.101 -1.4418  1.1430 -0.6524
  552MOL0     H76119   6.617   5.786   7.835 -3.3520  0.1341 -0.6059
  552MOL0     H76120   6.620   5.909   7.963 -0.6148  0.6921 -0.7981
  552MOL0     H76121   6.759   5.657   7.932  0.9268  0.4051 -0.6436
  552MOL0     H76122   6.690   5.678   8.099  2.7308 -2.3110 -0.4387
  552MOL0     H76123   6.913   5.838   7.972 -0.1362 -0.1868  0.4134
  552MOL0     H76124   6.826   5.905   8.104 -1.5915  2.3916 -3.2082
  552MOL0     H76125   7.109   5.671   7.975 -1.8501  0.0560  0.3201
  552MOL0     H76126   7.276   5.443   8.232 -1.6925 -1.6851 -1.5257
  552MOL0     H76127   7.335   5.589   8.168  1.5630 -0.9920 -0.1561
  552MOL0     H76128   7.194   5.398   7.992  0.0103 -0.6873  1.1481
  552MOL0     H76129   7.292   5.539   7.941 -0.6854  1.9175  0.5464
  552MOL0     H76130   7.468   5.417   7.939 -0.3278  0.5550  0.8093
  552MOL0     H76131   7.462   5.393   8.113 -0.1291 -0.6282  0.6064
  552MOL0     H76132   7.359   5.200   7.893  1.9725  2.7839 -0.6457
  552MOL0     H76133   7.476   5.161   8.019 -1.0803 -3.4221 -2.4437
  552MOL0     H76134   7.030   5.127   8.100 -0.2312 -1.0986 -1.4329
  552MOL0     H76135   6.810   5.048   8.028 -0.7735 -0.4167  1.5684
  552MOL0     H76136   6.828   4.889   8.114 -0.8975  1.4035  0.0478
  552MOL0     H76137   6.805   4.904   7.932 -0.0033  1.3093 -1.5260
  552MOL0     H76138   7.019   4.427   7.952 -1.0938  1.5258  0.5372
  552MOL0     H76139   6.925   4.239   7.872 -1.9744  2.0060  2.0423
  552MOL0     H76140   6.946   4.040   7.751 -2.6557  3.1877  0.8880
  552MOL0     H76141   6.789   4.057   7.668 -0.1834 -2.1561  1.8829
  552MOL0     H76142   6.872   3.858   7.626  0.0162 -0.4461 -1.4978
  552MOL0     H76143   6.908   3.938   7.470 -2.5015 -0.0429  0.3717
  552MOL0     H76144   7.124   3.914   7.684 -1.6396  1.7020  0.9507
  552MOL0     H76145   7.135   3.954   7.512  0.1327  2.4546  1.4279
  552MOL0     H76146   7.044   3.700   7.482 -0.7584  0.3184  0.7369
  552MOL0     H76147   7.060   3.691   7.664  1.3342  2.5399  1.5147
  552MOL0     H76148   7.247   3.609   7.482 -2.5258 -0.9761  1.4134
  552MOL0     H76149   7.287   3.783   7.479  2.6447 -1.6323  1.7135
  552MOL0     H76150   7.438   3.630   7.599  0.3397  0.1390  0.7235
  552MOL0     H76151   7.314   3.590   7.708  1.3220  1.0553  1.4556
  552MOL0     H76152   7.299   3.805   7.811 -0.4286  0.5879 -0.6874
  552MOL0     H76153   7.359   3.883   7.672 -0.4940 -0.3146 -1.7532
  552MOL0     H76154   7.583   3.777   7.720 -0.0574 -2.0371 -0.2014
  552MOL0     H76155   7.524   3.734   7.877  2.2809 -0.0927 -0.7966
  552MOL0     H76156   7.007   4.363   7.461 -2.8425  0.7588 -1.0139
  552MOL0     H76157   7.069   4.579   7.544  0.5685  0.6931  1.4157
  552MOL0     H76158   7.267   4.766   7.871 -1.3907 -1.1422 -1.9788
  552MOL0     H76159   7.396   4.948   7.973  0.6634  2.5164 -0.1871
  552MOL0     H76160   5.718   6.026   7.876  3.1194 -1.3671  0.4864
  552MOL0     H76161   5.545   6.155   7.988 -0.0849 -1.4827  0.7524
  552MOL0     H76162   5.490   6.353   8.505  2.0703 -0.7798 -3.6906
  552MOL0     H76163   5.277   6.426   8.616  1.0253  1.5684 -0.1034
  552MOL0     H76164   5.094   6.553   8.637 -0.9585 -1.5445  0.1375
  552MOL0     H76165   4.918   6.531   8.614 -0.5240 -0.9314  1.6026
  552MOL0     H76166   4.969   6.388   8.809 -1.6551 -1.0782  0.3239
  552MOL0     H76167   5.111   6.324   8.715 -0.7927  2.1291 -2.3783
  552MOL0     H76168   4.955   6.211   8.548  2.5254  1.3621 -0.5353
  552MOL0     H76169   4.984   6.152   8.711  0.0916  0.8412  0.3316
  552MOL0     H76170   4.763   6.368   8.678 -1.2116  0.3540  0.5282
  552MOL0     H76171   4.789   6.235   8.795 -0.3245  0.4385 -0.0763
  552MOL0     H76172   4.595   6.033   8.459  1.4320 -1.9023  1.2375
  552MOL0     H76173   5.074   6.405   8.246 -0.6761 -1.0798  2.4592
  552MOL0     H76174   5.308   6.225   8.061  0.8835  0.1114 -2.0758
  552MOL0     H76175   5.200   6.375   8.039 -1.1723  1.0375  3.1964
  552MOL0     H76176   5.376   6.381   8.025 -0.4028  2.6985  1.3497
  553MOL0     O76177   9.674   1.042   0.787 -0.6372  0.6881 -0.5217
  553MOL0     C76178   9.679   1.049   0.911 -0.1191 -0.0312 -0.0717
  553MOL0     O76179   9.635   1.160   0.985  0.9582  0.0425  0.3982
  553MOL0     C76180   9.541   1.224   0.911  0.0098 -0.3740  0.0449
  553MOL0     C76181   9.565   1.329   0.823 -0.9896  0.5491 -0.1394
  553MOL0     C76182   9.475   1.368   0.730 -0.4962 -0.3390  0.2699
  553MOL0     C76183   9.348   1.324   0.737  0.1538  0.1885  0.1948
  553MOL0     O76184   9.249   1.372   0.643  1.2741 -0.7356 -0.1146
  553MOL0     C76185   9.141   1.280   0.605 -0.2097 -0.2237 -0.5078
  553MOL0     C76186   9.026   1.343   0.546 -0.0284 -0.1818 -0.9621
  553MOL0     C76187   9.056   1.411   0.413  0.6350  0.4092  0.4470
  553MOL0     C76188   8.915   1.436   0.346  1.3045  0.4160 -0.4779
  553MOL0     C76189   8.929   1.504   0.213 -0.4423  0.5336  0.2033
  553MOL0     C76190   8.808   1.556   0.146 -0.8536  0.0394 -0.9809
  553MOL0     C76191   8.736   1.441   0.073 -0.2439 -0.6143 -1.1035
  553MOL0     C76192   8.600   1.501   0.044  0.1980 -0.2436 -0.3352
  553MOL0     N76193   8.499   1.422  -0.028 -0.5376  0.6663 -0.3097
  553MOL0     C76194   8.516   1.381  -0.158 -0.7306  0.4212 -1.0329
  553MOL0     C76195   8.432   1.273  -0.171  0.4485 -0.2284 -0.8834
  553MOL0     C76196   8.422   1.185  -0.288  0.4328  0.9198  0.1137
  553MOL0     C76197   8.550   1.110  -0.314 -0.2053  0.4809  0.5324
  553MOL0     C76198   8.537   0.981  -0.404 -0.0609 -0.3930 -0.4621
  553MOL0     C76199   8.506   1.015  -0.545  0.8576 -0.7229  0.0898
  553MOL0     O76200   8.450   0.902  -0.623 -0.5155 -0.0746 -0.4351
  553MOL0     C76201   8.428   0.919  -0.759 -0.4197 -0.1709 -0.6151
  553MOL0     C76202   8.400   1.046  -0.808 -0.5608 -0.0062  1.0214
  553MOL0     C76203   8.374   1.063  -0.950  0.0456  0.1591 -0.5473
  553MOL0     C76204   8.336   1.213  -0.993 -0.0700  1.9598  0.4368
  553MOL0     C76205   8.365   0.950  -1.036  0.1431  0.4631 -0.3939
  553MOL0     C76206   8.314   0.967  -1.173 -0.2978 -0.0808  0.2664
  553MOL0     O76207   8.283   1.084  -1.231 -0.1989  0.2134 -0.7967
  553MOL0     C76208   8.242   1.085  -1.363 -0.6611  0.5739 -0.0011
  553MOL0     C76209   8.145   1.165  -1.412  1.0892 -0.1531 -0.4303
  553MOL0     C76210   8.124   1.189  -1.551 -0.6946  0.2845 -0.2825
  553MOL0     C76211   8.203   1.127  -1.643  0.6053  0.7709 -0.2466
  553MOL0     O76212   8.175   1.156  -1.768  0.7702  0.2525 -0.3913
  553MOL0     C76213   8.249   1.125  -1.887 -0.4348 -0.9831 -0.0800
  553MOL0     C76214   8.192   1.187  -2.007 -0.1191  0.0442 -0.1439
  553MOL0     C76215   8.176   1.342  -2.002  0.3491  0.4074 -0.0493
  553MOL0     C76216   8.153   1.393  -2.144  0.0896  1.0247 -0.9884
  553MOL0     C76217   8.181   1.548  -2.129  0.3393 -0.1579  0.3702
  553MOL0     C76218   8.174   1.595  -2.267 -0.5202 -0.2103  0.2787
  553MOL0     C76219   8.180   1.736  -2.275 -0.5636  0.1328  0.0609
  553MOL0     C76220   8.140   1.769  -2.427  0.7119  1.4341  0.6212
  553MOL0    Cl76221   8.117   1.942  -2.451 -0.2493 -0.0999  0.0522
  553MOL0     C76222   8.309   1.050  -1.601 -0.0721 -0.5428 -0.6197
  553MOL0     C76223   8.324   1.031  -1.468 -0.6110  0.5614 -0.6070
  553MOL0     O76224   8.304   0.863  -1.237 -0.3103 -0.0684 -0.9006
  553MOL0     C76225   8.395   0.825  -0.982 -0.2232 -0.3132 -1.2033
  553MOL0     C76226   8.420   0.807  -0.847  0.1817 -0.3185  0.3355
  553MOL0     N76227   8.362   1.259  -0.050 -0.5112  0.5146 -0.7715
  553MOL0     N76228   8.416   1.332   0.031 -0.5433  0.2828 -0.2338
  553MOL0     C76229   9.305   1.228   0.839 -0.0179  0.4905 -0.4280
  553MOL0     C76230   9.408   1.172   0.923 -0.7468  0.0543  0.6089
  553MOL0     C76231   9.747   0.942   0.985  0.3998 -0.3085  0.4316
  553MOL0     C76232   9.808   0.967   1.112 -0.9193 -0.9475 -0.7691
  553MOL0     C76233   9.857   0.865   1.198 -0.0026  0.2666 -0.1955
  553MOL0     C76234   9.865   0.732   1.152  1.2280 -0.7771  0.5147
  553MOL0     O76235   9.930   0.642   1.231  0.1679 -0.6857  0.9239
  553MOL0     C76236  10.045   0.577   1.172  1.0469  0.0818  0.3614
  553MOL0     C76237  10.158   0.666   1.125  0.4594 -0.7793 -0.4589
  553MOL0     C76238  10.262   0.662   1.236 -0.4142 -0.1651  0.2992
  553MOL0     C76239  10.383   0.761   1.214  1.0520  0.4418  0.3343
  553MOL0     C76240  10.467   0.736   1.099 -0.3906 -0.6859 -0.0875
  553MOL0     C76241  10.534   0.733   0.999  0.8639 -0.3772  0.8025
  553MOL0     C76242   9.814   0.707   1.026  0.2475 -0.8806 -0.6110
  553MOL0     C76243   9.750   0.805   0.948 -0.0170 -0.0913  0.7397
  553MOL0     C76244   9.682   0.758   0.823  0.8187  0.5494 -0.4807
  553MOL0     H76245   9.669   1.361   0.818 -0.5024 -1.0180 -0.3929
  553MOL0     H76246   9.502   1.440   0.653  0.4379 -3.7107 -2.8244
  553MOL0     H76247   9.099   1.219   0.685  2.5215  0.5966  1.7355
  553MOL0     H76248   9.202   1.211   0.545  1.0623 -1.4933  2.0896
  553MOL0     H76249   8.947   1.268   0.543 -2.4092  2.0353  1.2634
  553MOL0     H76250   8.987   1.429   0.601 -0.4218  0.2841 -1.9338
  553MOL0     H76251   9.108   1.506   0.422  1.0758  0.3929 -1.4712
  553MOL0     H76252   9.112   1.336   0.356 -3.1608 -2.0910 -0.4096
  553MOL0     H76253   8.857   1.344   0.333 -1.5407  2.1547 -0.8012
  553MOL0     H76254   8.858   1.501   0.413  0.0309 -1.6612  0.5884
  553MOL0     H76255   8.982   1.432   0.150  3.0192 -0.6883  4.0339
  553MOL0     H76256   9.002   1.586   0.214  0.1725  0.1267 -2.4635
  553MOL0     H76257   8.742   1.608   0.216 -0.4711  1.0622 -1.3668
  553MOL0     H76258   8.843   1.634   0.078 -1.2199  0.4830 -0.6683
  553MOL0     H76259   8.732   1.351   0.135  0.4929 -0.1318 -0.3394
  553MOL0     H76260   8.795   1.415  -0.015  0.6423  0.9270 -0.9863
  553MOL0     H76261   8.550   1.537   0.134 -1.4385 -0.7602 -0.9979
  553MOL0     H76262   8.621   1.594  -0.009  2.6890  0.0623  1.0208
  553MOL0     H76263   8.591   1.419  -0.226 -0.5823  1.9279 -0.0708
  553MOL0     H76264   8.387   1.246  -0.371 -0.0321  2.0983  1.1324
  553MOL0     H76265   8.337   1.115  -0.285  2.1987 -1.3054  1.7555
  553MOL0     H76266   8.623   1.179  -0.359  0.3580 -0.8738 -0.7114
  553MOL0     H76267   8.584   1.083  -0.214 -0.3217  0.1791  0.4914
  553MOL0     H76268   8.626   0.917  -0.399  1.9898  2.3660  1.8591
  553MOL0     H76269   8.457   0.923  -0.357 -0.4226  0.8020  0.4369
  553MOL0     H76270   8.431   1.095  -0.542 -0.9433 -2.0504 -3.6829
  553MOL0     H76271   8.596   1.053  -0.595 -1.4869  1.3507 -2.9162
  553MOL0     H76272   8.424   1.137  -0.753  0.4825  2.3066 -2.9161
  553MOL0     H76273   8.355   1.286  -0.913 -0.8722  1.9675  0.6349
  553MOL0     H76274   8.237   1.239  -1.032  0.7043  1.1827 -2.2351
  553MOL0     H76275   8.409   1.233  -1.072  1.1756 -1.3445  0.6063
  553MOL0     H76276   8.095   1.231  -1.342  1.4437  2.3766 -2.4067
  553MOL0     H76277   8.049   1.259  -1.587  1.3869  1.7258 -2.0481
  553MOL0     H76278   8.349   1.169  -1.878 -0.1707 -1.2900 -1.3474
  553MOL0     H76279   8.260   1.017  -1.897  2.6966 -0.9128  1.4136
  553MOL0     H76280   8.243   1.147  -2.095  0.7442 -0.4175  0.5509
  553MOL0     H76281   8.092   1.146  -2.022  0.8148 -1.5911 -2.5782
  553MOL0     H76282   8.265   1.385  -1.957 -0.0684  1.3477 -0.1048
  553MOL0     H76283   8.090   1.367  -1.940  0.2446 -0.5622  0.2205
  553MOL0     H76284   8.051   1.368  -2.175 -1.3053  0.0516  3.5784
  553MOL0     H76285   8.222   1.351  -2.217  0.5630  2.1486 -1.2057
  553MOL0     H76286   8.102   1.598  -2.072 -0.4964 -0.2298 -0.6808
  553MOL0     H76287   8.275   1.572  -2.077  1.1392 -2.4045  0.0474
  553MOL0     H76288   8.084   1.558  -2.316 -0.4502  2.3317 -1.9790
  553MOL0     H76289   8.250   1.541  -2.325 -0.0360  0.6114  0.1319
  553MOL0     H76290   8.285   1.767  -2.271 -0.8214  1.3264 -1.3226
  553MOL0     H76291   8.116   1.777  -2.196 -1.6393 -2.5912  0.6970
  553MOL0     H76292   8.044   1.729  -2.463  1.6728 -0.2122 -0.2856
  553MOL0     H76293   8.207   1.727  -2.504 -2.4739  1.1686 -2.2613
  553MOL0     H76294   8.359   0.989  -1.676  1.4231  1.0011 -0.9288
  553MOL0     H76295   8.403   0.961  -1.440 -1.9140 -0.8220 -0.2829
  553MOL0     H76296   8.399   0.729  -1.032 -3.6576 -0.7998 -0.7976
  553MOL0     H76297   8.433   0.705  -0.813 -3.0400 -0.7944  0.5157
  553MOL0     H76298   9.209   1.189   0.871  1.2520 -2.7428 -0.1633
  553MOL0     H76299   9.388   1.099   1.000  0.1475  1.2252  1.9950
  553MOL0     H76300   9.809   1.067   1.153  3.1006 -1.1330  0.0338
  553MOL0     H76301   9.910   0.885   1.291 -0.2719  3.3230 -0.5948
  553MOL0     H76302  10.089   0.512   1.248  1.8095 -0.8297 -0.8291
  553MOL0     H76303  10.013   0.521   1.084  3.1536  0.9511 -1.0501
  553MOL0     H76304  10.127   0.764   1.087 -1.8834 -0.3876  2.1476
  553MOL0     H76305  10.209   0.619   1.041 -0.0562  0.6071 -1.5902
  553MOL0     H76306  10.206   0.688   1.326 -1.8037  0.9997 -0.8585
  553MOL0     H76307  10.299   0.560   1.251  2.0853  0.3019 -1.8462
  553MOL0     H76308  10.450   0.749   1.300  1.2585 -0.6411  0.0464
  553MOL0     H76309  10.343   0.862   1.210  1.3166  0.5530  0.4708
  553MOL0     H76310  10.579   0.725   0.902  0.0935 -0.4666  0.4465
  553MOL0     H76311   9.831   0.608   0.986 -0.3397 -1.2174 -0.0480
  553MOL0     H76312   9.600   0.829   0.806  1.6466  1.9046  0.8904
  553MOL0     H76313   9.765   0.765   0.752 -0.1283 -0.2601 -1.7063
  553MOL0     H76314   9.636   0.659   0.832 -1.7900  1.6100 -1.1792
  554MOL0     O76315   5.888   9.393   6.367 -0.7717  0.2018 -0.0122
  554MOL0     C76316   5.921   9.274   6.382 -0.3571 -0.4701  0.3371
  554MOL0     O76317   5.936   9.204   6.497 -0.4297  0.1268 -0.1630
  554MOL0     C76318   5.904   9.267   6.616 -1.2753  1.3877  0.2524
  554MOL0     C76319   5.825   9.193   6.711 -0.4840 -0.2375  0.6205
  554MOL0     C76320   5.802   9.243   6.839 -0.4588 -0.0877  0.0178
  554MOL0     C76321   5.852   9.372   6.875 -0.3407  0.8274 -1.2473
  554MOL0     O76322   5.834   9.409   7.007 -0.3201 -0.3414 -0.3963
  554MOL0     C76323   5.928   9.500   7.070 -0.3348  0.1612 -0.0173
  554MOL0     C76324   5.937   9.473   7.220 -0.0910 -0.5240 -1.0242
  554MOL0     C76325   6.054   9.558   7.266  0.7301 -0.6402 -0.2409
  554MOL0     C76326   6.091   9.530   7.409 -0.5102  0.7539 -0.9032
  554MOL0     C76327   6.241   9.580   7.447 -0.5383 -0.0739 -0.4376
  554MOL0     C76328   6.261   9.734   7.445 -1.4521 -0.1840 -0.7633
  554MOL0     C76329   6.426   9.762   7.443  1.3313  0.1917 -0.0637
  554MOL0     C76330   6.467   9.907   7.487  0.1857  0.8409  0.2589
  554MOL0     N76331   6.460   9.977   7.358 -0.5616  0.0474 -0.7370
  554MOL0     C76332   6.350  10.024   7.296 -0.1630  1.0771 -0.0504
  554MOL0     C76333   6.384  10.098   7.185 -0.1907  0.2679  0.4651
  554MOL0     C76334   6.297  10.180   7.089 -0.3113  0.2289  0.5669
  554MOL0     C76335   6.211  10.291   7.158  0.3285 -0.0475 -0.2973
  554MOL0     C76336   6.128  10.249   7.291 -0.1973 -0.3716  0.2919
  554MOL0     C76337   6.012  10.342   7.320  0.0231  0.5411 -0.4267
  554MOL0     O76338   6.059  10.471   7.326  0.6139  0.3196  0.2391
  554MOL0     C76339   6.066  10.542   7.453 -0.2934  0.7122  0.3430
  554MOL0     C76340   5.957  10.539   7.541  0.4309 -0.2133 -0.0183
  554MOL0     C76341   5.953  10.613   7.661 -0.4364 -0.8130  0.8850
  554MOL0     C76342   5.819  10.624   7.719  0.2995 -0.1862  0.5195
  554MOL0     C76343   6.060  10.693   7.689 -0.3293  0.1337  0.1220
  554MOL0     C76344   6.062  10.774   7.819 -0.0943 -0.2681 -0.1086
  554MOL0     O76345   5.959  10.860   7.833  0.4955 -0.1629 -0.1651
  554MOL0     C76346   5.947  10.948   7.941  0.4012  0.3033  1.2973
  554MOL0     C76347   6.011  10.940   8.069  0.2933 -0.9879  0.0646
  554MOL0     C76348   5.980  11.036   8.164 -1.5840 -0.9583  0.7282
  554MOL0     C76349   5.888  11.137   8.139  1.1606 -0.6956  0.6712
  554MOL0     O76350   5.863  11.233   8.239  0.1635 -0.4600  0.2146
  554MOL0     C76351   5.897  11.364   8.186 -0.4340 -0.6829  0.4829
  554MOL0     C76352   5.898  11.474   8.296  0.5717  0.0085  0.1105
  554MOL0     C76353   5.998  11.425   8.396 -0.1219  0.5061 -0.7649
  554MOL0     C76354   6.084  11.537   8.462 -0.6607  0.0946 -0.2612
  554MOL0     C76355   6.196  11.578   8.368 -0.2091  0.4352 -0.9731
  554MOL0     C76356   6.302  11.654   8.439 -0.4707  0.6437  0.5436
  554MOL0     C76357   6.380  11.738   8.342 -0.3773 -1.0662 -0.5774
  554MOL0     C76358   6.481  11.825   8.421 -0.5330  0.1421  0.3831
  554MOL0    Cl76359   6.602  11.911   8.325 -0.0881 -0.3050 -0.4612
  554MOL0     C76360   5.838  11.151   8.011  0.9393  0.4764 -0.1375
  554MOL0     C76361   5.881  11.063   7.909  0.8856 -0.2949  0.6910
  554MOL0     O76362   6.151  10.762   7.896 -0.0726 -0.3247 -0.1223
  554MOL0     C76363   6.167  10.701   7.613  0.4387  0.5003 -0.1382
  554MOL0     C76364   6.170  10.625   7.495 -0.2012  0.8186  0.3346
  554MOL0     N76365   6.523  10.108   7.190 -0.3605  0.0734 -0.0628
  554MOL0     N76366   6.565  10.027   7.280 -0.4834 -0.0131 -0.4532
  554MOL0     C76367   5.927   9.441   6.782 -0.4711  0.1024  0.5914
  554MOL0     C76368   5.959   9.392   6.657  0.0501  0.1007 -0.2497
  554MOL0     C76369   5.942   9.208   6.248 -0.5399  0.1839  0.3618
  554MOL0     C76370   6.001   9.294   6.149 -0.2931  0.1443  0.4253
  554MOL0     C76371   6.011   9.244   6.014 -0.0299  0.3942 -0.1313
  554MOL0     C76372   5.984   9.110   5.988  0.0429 -0.6321  0.2423
  554MOL0     O76373   6.010   9.074   5.858 -0.1525  0.3900 -0.6338
  554MOL0     C76374   6.063   8.945   5.834  0.3087  0.2801  0.1935
  554MOL0     C76375   6.197   8.924   5.906  0.5560 -0.6413  0.1921
  554MOL0     C76376   6.302   9.037   5.884  0.6722  0.7596 -0.3117
  554MOL0     C76377   6.412   9.029   5.994  0.7896  0.0837 -0.7393
  554MOL0     C76378   6.492   9.139   5.971 -0.3473 -0.6268 -0.5928
  554MOL0     C76379   6.556   9.241   5.958 -0.1793 -0.2329 -0.0906
  554MOL0     C76380   5.935   9.029   6.088  1.0607  0.0395 -0.3636
  554MOL0     C76381   5.914   9.073   6.222  0.3176 -0.6941  1.8558
  554MOL0     C76382   5.879   8.969   6.329 -0.3313 -1.0341  0.3317
  554MOL0     H76383   5.775   9.098   6.691 -1.9524  0.8715 -1.3459
  554MOL0     H76384   5.740   9.193   6.912 -0.5690  2.0508  1.4825
  554MOL0     H76385   5.897   9.604   7.057  3.5094  1.1864 -2.9204
  554MOL0     H76386   6.020   9.476   7.017 -2.4255 -0.6482 -3.5832
  554MOL0     H76387   5.843   9.512   7.261  0.7142 -1.4662  1.9834
  554MOL0     H76388   5.945   9.367   7.244 -0.9954 -0.4681 -0.4501
  554MOL0     H76389   6.139   9.538   7.200  1.4755 -2.1815  1.1089
  554MOL0     H76390   6.031   9.663   7.249  1.4054 -0.3721  0.4912
  554MOL0     H76391   6.022   9.565   7.486 -3.2686 -1.6811 -2.0788
  554MOL0     H76392   6.101   9.424   7.434 -0.0944  1.3474  1.7554
  554MOL0     H76393   6.307   9.533   7.373 -1.2113 -2.6854  0.5000
  554MOL0     H76394   6.275   9.553   7.547 -0.0090  2.2751  0.0769
  554MOL0     H76395   6.207   9.767   7.355 -0.2628 -1.1986 -1.9046
  554MOL0     H76396   6.211   9.792   7.523 -0.8748  1.3318 -1.4655
  554MOL0     H76397   6.471   9.733   7.348  0.7350 -3.3869  0.5724
  554MOL0     H76398   6.464   9.704   7.528  0.9105  0.6068  0.4117
  554MOL0     H76399   6.411   9.953   7.569  1.9774  1.9495  0.9290
  554MOL0     H76400   6.572   9.916   7.516  0.4567 -0.8651 -0.1145
  554MOL0     H76401   6.245  10.003   7.310 -0.8391  1.5261 -3.5445
  554MOL0     H76402   6.221  10.120   7.038 -0.2348  0.5219  0.0985
  554MOL0     H76403   6.363  10.229   7.016  1.6774 -1.7475  0.9300
  554MOL0     H76404   6.275  10.374   7.188  1.4706 -1.7102  2.1879
  554MOL0     H76405   6.147  10.325   7.076  0.3344 -1.0479 -0.7290
  554MOL0     H76406   6.085  10.149   7.274 -0.4157 -0.5656  1.8295
  554MOL0     H76407   6.191  10.229   7.378 -0.7071 -2.4917  0.2442
  554MOL0     H76408   5.928  10.328   7.251  0.3857 -0.9991 -0.5788
  554MOL0     H76409   5.984  10.308   7.420  3.4509  2.9132  1.5283
  554MOL0     H76410   5.874  10.473   7.517  0.6860  1.0053 -5.3676
  554MOL0     H76411   5.751  10.703   7.686 -2.6014 -3.1368 -1.3207
  554MOL0     H76412   5.831  10.627   7.828  1.0282 -2.6149  0.5819
  554MOL0     H76413   5.761  10.533   7.700 -0.6553 -0.1071  2.7813
  554MOL0     H76414   6.088  10.870   8.100 -0.0564 -0.4435  2.3839
  554MOL0     H76415   6.034  11.037   8.258  0.0699  1.7063 -0.1360
  554MOL0     H76416   5.999  11.351   8.147 -0.9284  0.0348 -1.1017
  554MOL0     H76417   5.839  11.397   8.100  1.6792  0.7067 -0.4913
  554MOL0     H76418   5.929  11.568   8.248 -0.9493  2.1603  3.0302
  554MOL0     H76419   5.804  11.507   8.342  0.8886 -0.4504  1.1029
  554MOL0     H76420   6.056  11.339   8.363  1.0377 -0.0544  2.3698
  554MOL0     H76421   5.951  11.395   8.490 -0.7322  3.0226 -0.1999
  554MOL0     H76422   6.125  11.491   8.553 -1.9187 -0.5395  0.0057
  554MOL0     H76423   6.029  11.627   8.490 -1.0005 -0.4908  1.0590
  554MOL0     H76424   6.235  11.483   8.331  1.5849 -1.0587  3.9752
  554MOL0     H76425   6.158  11.632   8.280 -3.6493  0.8967  0.5987
  554MOL0     H76426   6.369  11.579   8.482  0.9775  0.6711 -1.5315
  554MOL0     H76427   6.262  11.718   8.518  0.1086  1.5990  0.0855
  554MOL0     H76428   6.315  11.798   8.278 -0.7134  0.6688  1.2989
  554MOL0     H76429   6.432  11.666   8.279 -1.6741  0.6022 -3.7778
  554MOL0     H76430   6.528  11.751   8.487 -2.0319 -1.8224 -0.6293
  554MOL0     H76431   6.432  11.906   8.477  0.3711 -0.4488  2.0904
  554MOL0     H76432   5.763  11.229   7.996  0.9348  0.7668  1.2485
  554MOL0     H76433   5.844  11.071   7.807  0.4282 -0.1288  0.8671
  554MOL0     H76434   6.248  10.769   7.639 -1.0032  2.2084  0.0645
  554MOL0     H76435   6.262  10.641   7.440  0.3482 -0.9220  0.6787
  554MOL0     H76436   5.964   9.536   6.817 -0.6296 -0.0153  1.0865
  554MOL0     H76437   6.016   9.446   6.582  1.0607 -1.1257 -0.3896
  554MOL0     H76438   6.044   9.392   6.167  0.9507 -0.4513  0.8319
  554MOL0     H76439   6.043   9.300   5.927 -0.8343 -2.2310 -2.2650
  554MOL0     H76440   5.996   8.860   5.850  1.1255 -0.6284 -1.0269
  554MOL0     H76441   6.070   8.916   5.728 -0.8824 -4.4966  1.1763
  554MOL0     H76442   6.240   8.828   5.875 -1.3279 -1.3509 -0.3482
  554MOL0     H76443   6.167   8.928   6.011  1.2070  3.6035  0.3872
  554MOL0     H76444   6.349   9.017   5.787  2.2185 -1.1239  0.7627
  554MOL0     H76445   6.254   9.136   5.876  2.8550  1.7540 -2.0954
  554MOL0     H76446   6.452   8.927   6.000 -1.8735 -0.9765  2.3481
  554MOL0     H76447   6.366   9.033   6.093 -1.4192 -0.2745 -1.6773
  554MOL0     H76448   6.616   9.329   5.944  0.9066 -0.9232  0.1135
  554MOL0     H76449   5.918   8.925   6.063  2.0567 -0.0002 -0.9254
  554MOL0     H76450   5.861   8.870   6.286  1.4113 -1.5093  0.6106
  554MOL0     H76451   5.958   8.969   6.405 -0.7386  1.8155  0.8485
  554MOL0     H76452   5.785   8.999   6.376 -0.5506 -0.5543 -0.4006
  555MOL0     O76453   8.843   3.610   1.808 -0.1436  0.5575  0.2082
  555MOL0     C76454   8.754   3.657   1.736  0.6742 -0.4159  0.2587
  555MOL0     O76455   8.704   3.601   1.624  0.3490 -0.0478 -0.5808
  555MOL0     C76456   8.756   3.485   1.577  0.5806  0.4641 -0.0727
  555MOL0     C76457   8.904   3.463   1.560 -0.0798 -0.7179 -0.5349
  555MOL0     C76458   8.952   3.331   1.540 -0.9224 -0.6361  0.0127
  555MOL0     C76459   8.857   3.218   1.543  0.6594  0.0818  0.2663
  555MOL0     O76460   8.891   3.084   1.524 -0.1616  0.7634 -0.2193
  555MOL0     C76461   9.030   3.056   1.537 -0.4385 -0.0822  0.6051
  555MOL0     C76462   9.051   2.902   1.528  0.2671 -0.0510 -0.1005
  555MOL0     C76463   8.987   2.824   1.647  0.1475  0.5871 -0.4614
  555MOL0     C76464   9.012   2.673   1.631 -0.9025 -0.7773 -1.0657
  555MOL0     C76465   8.911   2.593   1.710  0.0959 -1.1643  0.4572
  555MOL0     C76466   8.927   2.448   1.681 -0.6528  0.3251 -0.6058
  555MOL0     C76467   8.821   2.364   1.761  0.0413  0.0663  0.9141
  555MOL0     C76468   8.842   2.206   1.756 -0.0672  0.2605  0.3555
  555MOL0     N76469   8.883   2.164   1.622  0.1825 -1.8600  0.1308
  555MOL0     C76470   9.019   2.156   1.592  0.5011  0.6350  0.0981
  555MOL0     C76471   9.020   2.070   1.481  0.1172 -0.2299  0.3969
  555MOL0     C76472   9.130   2.032   1.393 -0.3358 -0.2898  0.9558
  555MOL0     C76473   9.239   1.952   1.457  0.3023 -0.3857  0.2784
  555MOL0     C76474   9.176   1.832   1.529 -0.1057 -0.4455  0.1003
  555MOL0     C76475   9.292   1.736   1.567 -0.0554  1.3801 -0.5239
  555MOL0     O76476   9.387   1.812   1.638 -0.0282  0.1794 -1.1353
  555MOL0     C76477   9.512   1.768   1.649 -0.0761 -0.1752  0.0969
  555MOL0     C76478   9.616   1.866   1.652  0.4997  0.3811  0.0549
  555MOL0     C76479   9.752   1.839   1.664 -0.1189  0.4025 -0.4871
  555MOL0     C76480   9.850   1.959   1.656 -1.2448 -0.5186  1.1496
  555MOL0     C76481   9.787   1.704   1.676 -0.5646  0.5668  0.3243
  555MOL0     C76482   9.918   1.650   1.718 -0.0077  0.4261 -0.2933
  555MOL0     O76483   9.917   1.516   1.756 -0.1577  0.1552 -0.0336
  555MOL0     C76484  10.031   1.454   1.814  0.1178  0.1134  0.8291
  555MOL0     C76485  10.099   1.506   1.926  0.1154  0.2837 -1.1411
  555MOL0     C76486  10.189   1.425   1.992  0.0182  0.1718  0.6994
  555MOL0     C76487  10.233   1.305   1.942 -0.0568 -0.3804 -0.6678
  555MOL0     O76488  10.317   1.241   2.025 -0.8574 -0.3929  0.2726
  555MOL0     C76489  10.304   1.096   2.028 -0.5037  0.5493  0.7770
  555MOL0     C76490  10.363   1.039   2.154 -0.0089 -0.3145 -0.0454
  555MOL0     C76491  10.517   1.069   2.162 -0.2410 -0.1505 -0.4519
  555MOL0     C76492  10.572   1.023   2.304 -0.0251 -0.5653  0.4142
  555MOL0     C76493  10.733   1.055   2.332  0.1763 -0.8773  0.5900
  555MOL0     C76494  10.834   0.944   2.357  0.1452  0.0349 -0.0632
  555MOL0     C76495  10.971   1.005   2.379 -0.3614  0.2972  0.5006
  555MOL0     C76496  11.069   0.919   2.455  0.3026 -0.8615 -0.0698
  555MOL0    Cl76497  11.118   0.766   2.375 -0.0021  0.4311  0.0456
  555MOL0     C76498  10.180   1.255   1.821  0.5682  0.1976 -0.1458
  555MOL0     C76499  10.078   1.324   1.761 -0.6503  0.5858 -0.2367
  555MOL0     O76500  10.018   1.713   1.712  0.4884  0.1939  0.5349
  555MOL0     C76501   9.685   1.602   1.673  0.2104  0.2792 -0.8506
  555MOL0     C76502   9.553   1.634   1.652 -0.8478 -0.4339 -0.1024
  555MOL0     N76503   8.881   2.042   1.452 -0.4446 -1.1701  0.3190
  555MOL0     N76504   8.796   2.094   1.537 -0.0557  0.3247  0.1092
  555MOL0     C76505   8.718   3.249   1.553  0.1606  0.3155  0.6314
  555MOL0     C76506   8.670   3.373   1.569 -0.1504 -0.1230  1.0662
  555MOL0     C76507   8.692   3.798   1.778  0.0735 -0.1927  0.4994
  555MOL0     C76508   8.589   3.847   1.689  1.4098  0.1851 -1.2403
  555MOL0     C76509   8.525   3.958   1.728 -0.4932 -0.2334 -0.4535
  555MOL0     C76510   8.560   4.044   1.838 -0.7526  0.0131 -1.0633
  555MOL0     O76511   8.501   4.161   1.870  0.1958  0.2354  0.3415
  555MOL0     C76512   8.586   4.269   1.830  0.2994 -0.3728 -0.0082
  555MOL0     C76513   8.531   4.401   1.865  0.2491  0.1847 -0.0583
  555MOL0     C76514   8.628   4.513   1.809  0.3031 -0.4655  0.9274
  555MOL0     C76515   8.590   4.656   1.848  0.1030 -0.1356  0.1209
  555MOL0     C76516   8.617   4.686   1.993  0.3799 -0.5561 -0.2497
  555MOL0     C76517   8.640   4.727   2.109  0.6604  0.7936 -0.0345
  555MOL0     C76518   8.665   3.990   1.916 -0.1341 -0.3354 -0.4816
  555MOL0     C76519   8.729   3.869   1.895  0.6517 -0.4355 -0.2539
  555MOL0     C76520   8.823   3.834   2.006 -0.1161  0.3847  0.3106
  555MOL0     H76521   8.970   3.549   1.556  3.1299 -2.9306  0.1750
  555MOL0     H76522   9.053   3.324   1.501 -0.9454 -0.9206 -0.0015
  555MOL0     H76523   9.064   3.091   1.635 -1.5406  2.7515  0.0854
  555MOL0     H76524   9.085   3.109   1.459  0.0974  1.2967  1.8676
  555MOL0     H76525   9.000   2.863   1.439  0.2040 -0.0643 -0.0576
  555MOL0     H76526   9.157   2.880   1.509 -0.0040 -0.9729 -0.6069
  555MOL0     H76527   9.013   2.862   1.746  2.4701 -1.1353 -0.3250
  555MOL0     H76528   8.880   2.848   1.640  0.8106  4.2659 -0.0689
  555MOL0     H76529   9.012   2.650   1.524  2.4437  3.0019 -2.1163
  555MOL0     H76530   9.110   2.658   1.677 -0.7082  4.7681  1.1300
  555MOL0     H76531   8.808   2.623   1.688  0.5430 -1.9120 -3.1268
  555MOL0     H76532   8.928   2.617   1.816  0.7545  2.0597 -0.2623
  555MOL0     H76533   8.903   2.439   1.575 -3.2842  2.6913 -0.3280
  555MOL0     H76534   9.031   2.421   1.700 -0.8031 -1.2914 -1.8858
  555MOL0     H76535   8.722   2.382   1.720  0.8829  0.8119 -0.9023
  555MOL0     H76536   8.823   2.387   1.868  0.5363  2.1244  0.5060
  555MOL0     H76537   8.920   2.162   1.820 -0.3366 -0.2412  0.3471
  555MOL0     H76538   8.743   2.167   1.780  0.8439 -2.3297  0.3168
  555MOL0     H76539   9.100   2.206   1.644  1.6635 -0.2943 -0.7525
  555MOL0     H76540   9.165   2.123   1.342  0.4035 -0.3694  1.3000
  555MOL0     H76541   9.095   1.967   1.313  0.1472  1.9013 -1.1487
  555MOL0     H76542   9.303   1.908   1.380 -0.6944  0.0094 -0.8067
  555MOL0     H76543   9.299   2.011   1.527 -2.7198  0.8879  1.9626
  555MOL0     H76544   9.110   1.852   1.614  0.5708 -2.9588  1.3044
  555MOL0     H76545   9.118   1.778   1.454  0.4292 -0.6608 -0.1683
  555MOL0     H76546   9.258   1.654   1.631  0.0937  3.0194  1.7879
  555MOL0     H76547   9.346   1.694   1.481  2.5853  2.2803  0.5972
  555MOL0     H76548   9.585   1.970   1.640 -3.4570 -0.6045  0.1796
  555MOL0     H76549   9.887   1.952   1.554 -1.1363  2.6055  0.8806
  555MOL0     H76550   9.931   1.961   1.730 -1.1898 -2.5406  1.1899
  555MOL0     H76551   9.790   2.051   1.658 -4.3665 -2.3770  0.9338
  555MOL0     H76552  10.062   1.592   1.980  0.0054 -0.2367 -0.3659
  555MOL0     H76553  10.214   1.462   2.091 -0.5161  1.3229  0.4126
  555MOL0     H76554  10.197   1.072   2.026 -0.9838  2.4943 -1.3859
  555MOL0     H76555  10.355   1.053   1.942  1.8547 -0.9364  2.7918
  555MOL0     H76556  10.315   1.093   2.236 -1.8926  0.3833 -1.5098
  555MOL0     H76557  10.335   0.934   2.163  1.3906 -0.6649  0.4952
  555MOL0     H76558  10.534   1.175   2.143  0.2085 -0.3187 -1.0500
  555MOL0     H76559  10.567   1.015   2.081 -0.3970  0.5682 -1.0379
  555MOL0     H76560  10.577   0.913   2.306  3.0823 -0.5001  0.8954
  555MOL0     H76561  10.504   1.057   2.383  1.0864 -0.2502  1.2643
  555MOL0     H76562  10.766   1.102   2.239  1.9937 -1.3082  0.9896
  555MOL0     H76563  10.743   1.121   2.418  1.3257 -0.2883  0.0191
  555MOL0     H76564  10.836   0.887   2.264 -1.9791 -0.8684  0.3753
  555MOL0     H76565  10.801   0.876   2.436  1.5903  0.3328  0.8411
  555MOL0     H76566  10.982   1.102   2.429  1.3407  0.3347  0.0871
  555MOL0     H76567  11.015   1.025   2.281  2.7350 -1.0479  1.4916
  555MOL0     H76568  11.011   0.897   2.546  0.7196  1.1712  0.7374
  555MOL0     H76569  11.156   0.980   2.479  0.9552 -2.2609  1.3359
  555MOL0     H76570  10.225   1.168   1.775 -1.1489 -1.5080  1.2495
  555MOL0     H76571  10.021   1.283   1.678 -1.5071  0.0994  0.5768
  555MOL0     H76572   9.698   1.496   1.693 -2.8057 -0.0305 -0.0058
  555MOL0     H76573   9.485   1.550   1.648 -0.0927 -1.0679  0.2369
  555MOL0     H76574   8.644   3.171   1.568  0.0355  0.2543 -0.2192
  555MOL0     H76575   8.564   3.390   1.584  0.0867 -0.0939  2.9555
  555MOL0     H76576   8.553   3.794   1.601 -1.4999 -0.9207  0.4439
  555MOL0     H76577   8.443   3.989   1.664 -1.4698  0.7278  1.2006
  555MOL0     H76578   8.683   4.250   1.875 -0.7534 -3.5075  1.1309
  555MOL0     H76579   8.613   4.270   1.723  1.7143  0.4902  0.3232
  555MOL0     H76580   8.526   4.405   1.974 -0.6126 -4.6115  0.3013
  555MOL0     H76581   8.433   4.411   1.817  0.0669 -1.6892 -0.1347
  555MOL0     H76582   8.732   4.488   1.834  0.1182 -1.3309  0.8711
  555MOL0     H76583   8.612   4.518   1.701  1.5178  1.2573  0.7908
  555MOL0     H76584   8.485   4.666   1.821 -1.1507  0.0716  4.3752
  555MOL0     H76585   8.648   4.729   1.791  1.0613 -0.4557  0.6558
  555MOL0     H76586   8.634   4.765   2.209 -0.4560 -2.3589  1.1930
  555MOL0     H76587   8.668   4.043   2.011 -1.5474 -3.8710  1.7396
  555MOL0     H76588   8.766   3.765   2.068 -1.3712  0.1431 -1.0696
  555MOL0     H76589   8.910   3.785   1.961 -1.7331  0.8181 -3.7329
  555MOL0     H76590   8.861   3.922   2.060  2.3300  0.3887 -1.2324
  556MOL0     O76591   4.684   7.298   1.045  0.1908 -0.4198 -0.0943
  556MOL0     C76592   4.727   7.362   0.946 -0.1331 -0.3873  0.2029
  556MOL0     O76593   4.725   7.500   0.931 -0.3591 -0.6402 -0.5722
  556MOL0     C76594   4.738   7.588   1.038  0.3870  0.0071  0.4704
  556MOL0     C76595   4.702   7.716   1.007  0.6602 -0.6255 -0.1832
  556MOL0     C76596   4.739   7.825   1.091 -0.6213 -0.5338 -0.3550
  556MOL0     C76597   4.802   7.798   1.212  0.0829  0.5357 -0.4652
  556MOL0     O76598   4.838   7.895   1.303  0.6909 -0.1405  0.7490
  556MOL0     C76599   4.740   7.996   1.321 -0.1598 -0.4468 -0.0908
  556MOL0     C76600   4.781   8.084   1.438  0.2479 -0.7089  0.3464
  556MOL0     C76601   4.802   8.003   1.568  0.2158  0.1074  0.3649
  556MOL0     C76602   4.875   8.069   1.688 -0.4144  0.2251 -0.1451
  556MOL0     C76603   4.898   7.988   1.817  0.4623 -0.2727  0.0842
  556MOL0     C76604   4.972   8.056   1.926  0.4043  0.5304  0.8775
  556MOL0     C76605   5.120   8.066   1.898  0.3477  0.9126  0.3269
  556MOL0     C76606   5.199   8.150   1.988 -0.6460  0.4202 -0.0078
  556MOL0     N76607   5.139   8.261   2.067  0.4710  0.3857  0.1823
  556MOL0     C76608   5.059   8.252   2.181  0.3958 -0.1204 -0.1968
  556MOL0     C76609   5.060   8.370   2.247 -0.2738  0.5832 -0.4136
  556MOL0     C76610   4.994   8.384   2.371  0.8568 -1.4336 -0.1324
  556MOL0     C76611   4.997   8.515   2.441  0.2821  0.0699 -0.6098
  556MOL0     C76612   5.132   8.547   2.510 -0.1423 -0.4166  0.9519
  556MOL0     C76613   5.132   8.675   2.578 -0.2107  0.3789 -0.9853
  556MOL0     O76614   5.014   8.691   2.666 -0.4867 -0.3195 -0.1065
  556MOL0     C76615   4.997   8.614   2.782  0.5841 -0.1951  0.3976
  556MOL0     C76616   4.862   8.600   2.821  0.2903  0.3233 -0.4100
  556MOL0     C76617   4.820   8.535   2.942 -0.0840  0.4351 -0.8805
  556MOL0     C76618   4.670   8.527   2.968 -0.1903  0.0680 -0.0160
  556MOL0     C76619   4.918   8.484   3.030 -0.9672  0.2422  0.6656
  556MOL0     C76620   4.891   8.412   3.159 -0.1556 -0.7720  0.0504
  556MOL0     O76621   5.005   8.361   3.214 -0.0438  0.1093  0.0912
  556MOL0     C76622   5.025   8.295   3.329 -0.4224  0.0953  0.7100
  556MOL0     C76623   5.154   8.262   3.364  0.3369  0.2892 -0.3765
  556MOL0     C76624   5.184   8.190   3.472  0.2268  1.6040 -0.0437
  556MOL0     C76625   5.087   8.146   3.557  0.0265  0.2242 -0.3429
  556MOL0     O76626   5.120   8.064   3.664 -0.5531  0.1421 -0.0555
  556MOL0     C76627   5.053   7.943   3.684 -0.0728  0.1210 -0.3390
  556MOL0     C76628   5.014   7.919   3.834 -0.1941  0.1803 -0.0647
  556MOL0     C76629   5.139   7.914   3.925  0.4329 -0.1662 -0.0608
  556MOL0     C76630   5.212   8.048   3.948  0.3216 -0.7944 -0.1956
  556MOL0     C76631   5.310   8.034   4.063 -0.1863  0.0803  0.0482
  556MOL0     C76632   5.381   8.167   4.101 -0.6308 -0.4313 -0.0526
  556MOL0     C76633   5.292   8.260   4.170 -0.1629  0.1483  0.9272
  556MOL0     C76634   5.370   8.383   4.221 -0.1656  1.2688  0.0673
  556MOL0    Cl76635   5.253   8.525   4.251 -0.1141  0.1334  0.2185
  556MOL0     C76636   4.950   8.175   3.527 -0.0897 -0.2122  0.6263
  556MOL0     C76637   4.921   8.243   3.405  0.4617 -1.1427  0.8238
  556MOL0     O76638   4.782   8.416   3.213  0.5626 -0.3628 -0.3409
  556MOL0     C76639   5.055   8.503   2.992 -0.6445  0.4871  0.1502
  556MOL0     C76640   5.090   8.566   2.874  0.3210  0.0481 -0.0281
  556MOL0     N76641   5.136   8.459   2.176 -0.2050  0.3311  0.0585
  556MOL0     N76642   5.191   8.391   2.075 -0.4185  0.2501  0.1042
  556MOL0     C76643   4.821   7.662   1.242 -0.0478  0.0534  0.9067
  556MOL0     C76644   4.793   7.554   1.158 -0.5297  0.5945  0.2754
  556MOL0     C76645   4.746   7.287   0.823  0.8127  0.0272 -0.2993
  556MOL0     C76646   4.642   7.193   0.786 -0.1005 -0.3229 -0.6306
  556MOL0     C76647   4.655   7.113   0.674 -0.4787 -0.1564  0.8457
  556MOL0     C76648   4.755   7.145   0.588  0.3575 -0.3102  0.5188
  556MOL0     O76649   4.759   7.061   0.483 -0.7972  0.4221 -0.5003
  556MOL0     C76650   4.861   7.059   0.377  0.5043  0.3080 -0.2551
  556MOL0     C76651   4.871   6.923   0.304 -0.5026 -0.3476  0.3861
  556MOL0     C76652   4.974   6.833   0.363 -0.5049  0.3424 -0.8205
  556MOL0     C76653   4.977   6.693   0.289 -0.9717 -0.6084  0.6971
  556MOL0     C76654   5.109   6.635   0.317 -0.2996  0.5201  0.2833
  556MOL0     C76655   5.220   6.593   0.332 -0.4465  0.2710 -0.0905
  556MOL0     C76656   4.853   7.252   0.611  0.7036  0.1219  1.3563
  556MOL0     C76657   4.843   7.319   0.730  0.4685 -1.0872  0.9050
  556MOL0     C76658   4.946   7.427   0.749 -0.3368  0.2989 -0.5088
  556MOL0     H76659   4.670   7.742   0.906  0.9056  0.3082 -0.0292
  556MOL0     H76660   4.723   7.927   1.056 -0.2882  0.8295  3.0894
  556MOL0     H76661   4.646   7.950   1.353  1.6641 -5.0290 -0.5657
  556MOL0     H76662   4.728   8.051   1.227 -0.5261  3.7459  2.1839
  556MOL0     H76663   4.876   8.137   1.425  0.2214 -0.6874  0.2412
  556MOL0     H76664   4.710   8.161   1.470  0.0598 -0.7510  0.0250
  556MOL0     H76665   4.703   7.993   1.613 -1.5856  3.1592 -2.4818
  556MOL0     H76666   4.857   7.911   1.545 -1.6049 -2.1889  4.1209
  556MOL0     H76667   4.973   8.103   1.653  0.4099 -1.3215  0.5987
  556MOL0     H76668   4.809   8.150   1.721 -0.5980  0.4072 -0.9233
  556MOL0     H76669   4.942   7.893   1.784  1.7804 -0.3116  1.7685
  556MOL0     H76670   4.798   7.963   1.855 -0.1136  0.5158 -0.8804
  556MOL0     H76671   4.951   8.163   1.919 -0.8947  0.1871 -1.9259
  556MOL0     H76672   4.956   8.012   2.025 -1.4292  0.3376  0.5278
  556MOL0     H76673   5.128   8.100   1.794  0.6630 -2.0241 -0.7064
  556MOL0     H76674   5.176   7.972   1.899  2.4121  2.1014  1.7162
  556MOL0     H76675   5.252   8.084   2.058  1.9061  3.1517  0.8619
  556MOL0     H76676   5.283   8.191   1.931 -2.2667  0.4949 -2.4795
  556MOL0     H76677   5.008   8.167   2.225  0.0730  1.0234  1.7524
  556MOL0     H76678   5.034   8.310   2.441  0.3037 -0.0753  1.6903
  556MOL0     H76679   4.888   8.359   2.357 -0.4351  1.9611  2.1589
  556MOL0     H76680   4.977   8.582   2.356  0.4811 -1.5499 -1.9833
  556MOL0     H76681   4.912   8.515   2.509  0.1040 -0.7164 -0.8229
  556MOL0     H76682   5.170   8.485   2.592  2.5734  0.3962  0.3963
  556MOL0     H76683   5.203   8.542   2.427 -3.2697 -0.4488 -1.9358
  556MOL0     H76684   5.220   8.689   2.641  0.2436 -1.4385 -1.1749
  556MOL0     H76685   5.127   8.755   2.504 -1.3629  1.9239  0.6788
  556MOL0     H76686   4.776   8.629   2.760  0.9899  1.9852 -0.6586
  556MOL0     H76687   4.610   8.543   2.878 -2.8258 -0.1733  1.6080
  556MOL0     H76688   4.637   8.594   3.048  0.8054  0.6687 -0.0960
  556MOL0     H76689   4.624   8.432   2.995 -2.9419  1.5033  0.6920
  556MOL0     H76690   5.226   8.298   3.291 -0.1854 -0.5899 -1.3449
  556MOL0     H76691   5.284   8.154   3.493  0.5553  1.3574 -1.8670
  556MOL0     H76692   4.966   7.931   3.618 -0.6396 -0.8522  0.5535
  556MOL0     H76693   5.128   7.867   3.660  0.3960 -0.6663  3.1048
  556MOL0     H76694   4.947   7.995   3.873  0.2291 -1.2103  3.7397
  556MOL0     H76695   4.962   7.824   3.853 -1.4571  1.2964  2.5509
  556MOL0     H76696   5.204   7.838   3.880  1.7743 -0.6904  2.5740
  556MOL0     H76697   5.101   7.892   4.025 -2.4350  1.9952 -0.5478
  556MOL0     H76698   5.142   8.130   3.966  0.9350 -0.3812  0.3420
  556MOL0     H76699   5.276   8.081   3.866 -0.6835  3.9969  0.6537
  556MOL0     H76700   5.259   7.983   4.146  1.4568  0.3669  1.2847
  556MOL0     H76701   5.394   7.973   4.028  0.2099  0.9542 -0.5579
  556MOL0     H76702   5.425   8.220   4.016 -0.1429  0.1102  0.5224
  556MOL0     H76703   5.463   8.157   4.174 -1.3493  3.3135  1.5185
  556MOL0     H76704   5.241   8.214   4.255 -3.2555  1.8220  0.1622
  556MOL0     H76705   5.214   8.299   4.103  0.5297 -1.1343 -0.6772
  556MOL0     H76706   5.440   8.416   4.143 -1.1876  1.8150 -0.6350
  556MOL0     H76707   5.429   8.361   4.311 -0.3478  0.6313  0.0397
  556MOL0     H76708   4.872   8.126   3.584 -1.7000 -1.2226 -2.2639
  556MOL0     H76709   4.818   8.251   3.372  0.5435 -0.1073  0.7984
  556MOL0     H76710   5.140   8.461   3.044  0.7267  1.0889 -1.5181
  556MOL0     H76711   5.191   8.568   2.834  0.7048 -0.3693  0.9020
  556MOL0     H76712   4.862   7.622   1.334 -3.3966  2.9696  4.0167
  556MOL0     H76713   4.821   7.452   1.183  1.6444  0.5516 -1.9193
  556MOL0     H76714   4.548   7.181   0.839 -0.0511 -1.1694 -0.7232
  556MOL0     H76715   4.590   7.034   0.640 -0.1827  0.9248 -2.6498
  556MOL0     H76716   4.848   7.136   0.301 -0.0845 -0.7447 -1.2674
  556MOL0     H76717   4.956   7.076   0.429  1.5720 -2.2981 -1.1359
  556MOL0     H76718   4.883   6.946   0.198 -0.4880 -1.9629  0.0158
  556MOL0     H76719   4.778   6.866   0.311  0.5466 -2.2621 -0.5304
  556MOL0     H76720   5.074   6.876   0.351  0.2321 -1.0232  0.1665
  556MOL0     H76721   4.956   6.813   0.469 -1.2180 -0.8698 -1.1444
  556MOL0     H76722   4.970   6.710   0.182 -1.5200 -0.7305  0.7103
  556MOL0     H76723   4.897   6.626   0.321  0.8423 -2.3079  1.9781
  556MOL0     H76724   5.309   6.536   0.348 -0.0988  0.4533 -1.2652
  556MOL0     H76725   4.922   7.282   0.533 -2.7070  0.4792 -1.8193
  556MOL0     H76726   5.006   7.407   0.838  0.2973  1.4309 -0.6604
  556MOL0     H76727   5.003   7.442   0.656  1.5357 -0.7612  0.4022
  556MOL0     H76728   4.896   7.519   0.778 -2.8393 -1.9593  3.1469
  557MOL0     O76729   9.807   3.708   6.278  0.7438 -0.2416 -0.7374
  557MOL0     C76730   9.717   3.703   6.361  0.0914 -0.2990 -0.2810
  557MOL0     O76731   9.668   3.805   6.426 -0.0632 -0.6955  0.4771
  557MOL0     C76732   9.712   3.931   6.418  0.2116  0.3831  0.0924
  557MOL0     C76733   9.801   3.988   6.510  0.1700  0.6477 -0.2750
  557MOL0     C76734   9.835   4.122   6.487 -0.0541 -1.4129 -0.0057
  557MOL0     C76735   9.762   4.203   6.393 -1.0437  0.0180 -0.1621
  557MOL0     O76736   9.787   4.339   6.360  0.5001 -0.5413  0.0871
  557MOL0     C76737   9.878   4.413   6.446  0.5292  0.4113  0.2347
  557MOL0     C76738   9.883   4.542   6.377  0.1375  0.4549 -0.0777
  557MOL0     C76739   9.955   4.648   6.462  0.0389  0.4687  0.3260
  557MOL0     C76740  10.087   4.609   6.530  0.2852 -0.7671  0.4410
  557MOL0     C76741  10.136   4.726   6.627  0.5349  0.3856  1.4065
  557MOL0     C76742  10.270   4.695   6.703  0.2972 -0.5067  0.3965
  557MOL0     C76743  10.313   4.794   6.807  0.4363  0.1453  0.4208
  557MOL0     C76744  10.213   4.793   6.918  0.0406 -0.1024 -0.6451
  557MOL0     N76745  10.218   4.678   7.008 -0.2886 -0.7816 -1.1995
  557MOL0     C76746  10.130   4.664   7.110 -0.7742 -1.9732 -0.4476
  557MOL0     C76747  10.183   4.564   7.190 -0.3071  0.3332 -0.9121
  557MOL0     C76748  10.105   4.503   7.298  0.9065 -0.5239 -0.1195
  557MOL0     C76749  10.126   4.352   7.299 -0.4158  1.0313  0.0140
  557MOL0     C76750  10.000   4.267   7.317  0.4384  0.1960 -0.5909
  557MOL0     C76751   9.937   4.301   7.457 -0.2463  0.9694 -0.3511
  557MOL0     O76752   9.810   4.231   7.458  0.2490  0.2183 -0.6058
  557MOL0     C76753   9.738   4.220   7.578  0.4341 -0.0911  0.7857
  557MOL0     C76754   9.765   4.301   7.689 -0.0779  0.2049  0.2904
  557MOL0     C76755   9.688   4.303   7.805  0.4217  0.3980  0.8211
  557MOL0     C76756   9.714   4.397   7.913  1.0510 -0.3114  0.5746
  557MOL0     C76757   9.585   4.207   7.808  0.4491  0.7847 -0.8723
  557MOL0     C76758   9.481   4.207   7.916  0.9254 -0.3286  0.4115
  557MOL0     O76759   9.369   4.127   7.898 -0.5484  0.5554  0.0742
  557MOL0     C76760   9.267   4.110   7.979 -0.3050 -0.7716 -0.8528
  557MOL0     C76761   9.289   4.073   8.112 -0.8838  0.2217 -0.3973
  557MOL0     C76762   9.182   4.050   8.198 -0.2282 -0.1596 -0.0967
  557MOL0     C76763   9.051   4.071   8.146  0.3367  0.0259 -0.6636
  557MOL0     O76764   8.950   4.048   8.228  0.0927  0.5457 -0.5490
  557MOL0     C76765   8.960   4.082   8.361  0.2285 -0.2574 -0.3857
  557MOL0     C76766   8.819   4.104   8.429 -0.5154 -0.2868  0.1068
  557MOL0     C76767   8.820   4.132   8.571  0.6681  0.2109  0.2730
  557MOL0     C76768   8.678   4.148   8.643 -0.0648  0.0613  0.1005
  557MOL0     C76769   8.608   4.264   8.572 -0.5447  0.2343 -0.3134
  557MOL0     C76770   8.469   4.285   8.632 -0.6007  0.2358 -0.6085
  557MOL0     C76771   8.394   4.390   8.558 -0.3094 -0.2237 -0.0347
  557MOL0     C76772   8.265   4.418   8.629 -0.2203 -0.2146 -0.7446
  557MOL0    Cl76773   8.308   4.496   8.787 -0.2033 -0.2206 -0.3179
  557MOL0     C76774   9.025   4.088   8.010 -0.6230 -0.6367  0.1099
  557MOL0     C76775   9.138   4.123   7.932  0.6450  0.6435  0.3113
  557MOL0     O76776   9.493   4.285   8.005  0.6466 -0.8407  0.1172
  557MOL0     C76777   9.564   4.113   7.711 -0.1603  0.5456  0.7123
  557MOL0     C76778   9.646   4.121   7.593 -0.1404 -0.2614  0.7095
  557MOL0     N76779  10.314   4.528   7.139 -0.5772 -0.6506  0.7630
  557MOL0     N76780  10.324   4.601   7.031 -0.6025  0.4352  0.4791
  557MOL0     C76781   9.664   4.142   6.313  0.1601 -0.5157  0.2091
  557MOL0     C76782   9.635   4.007   6.324  0.0144 -0.7101  0.1918
  557MOL0     C76783   9.640   3.580   6.367 -0.5502  0.3294 -0.6852
  557MOL0     C76784   9.504   3.586   6.407  0.5022  0.4227  0.2402
  557MOL0     C76785   9.426   3.463   6.423 -0.3741  0.3718 -0.9492
  557MOL0     C76786   9.482   3.343   6.391 -0.6782 -0.8180  0.5308
  557MOL0     O76787   9.398   3.235   6.398  0.1712  0.2611 -0.0398
  557MOL0     C76788   9.456   3.105   6.370  0.5452 -0.2379  0.3924
  557MOL0     C76789   9.357   2.987   6.403  0.4497 -0.4127  0.1962
  557MOL0     C76790   9.438   2.873   6.353 -0.6166 -0.4955  0.3856
  557MOL0     C76791   9.390   2.738   6.417 -0.6839 -1.0601  0.5175
  557MOL0     C76792   9.381   2.749   6.561  0.1154 -0.2656 -0.1462
  557MOL0     C76793   9.372   2.749   6.680 -0.1819  0.0062  0.1547
  557MOL0     C76794   9.613   3.347   6.339  0.2577  0.2295 -0.0080
  557MOL0     C76795   9.694   3.457   6.344  0.0857  0.3944 -0.0847
  557MOL0     C76796   9.837   3.427   6.331 -0.1571 -0.0092  0.3331
  557MOL0     H76797   9.847   3.925   6.587 -1.3949 -1.1993 -0.7770
  557MOL0     H76798   9.907   4.159   6.559 -1.1267  4.0946 -1.3236
  557MOL0     H76799   9.974   4.361   6.458  1.4086  1.9106 -0.0662
  557MOL0     H76800   9.831   4.406   6.544  2.4476 -2.3527  1.0988
  557MOL0     H76801   9.931   4.532   6.279  0.0092 -0.1351 -0.0870
  557MOL0     H76802   9.787   4.589   6.356  0.5018  1.3396  0.2289
  557MOL0     H76803   9.986   4.726   6.392 -0.9114  0.5789  0.0051
  557MOL0     H76804   9.889   4.686   6.541 -1.6477 -0.2917 -0.6537
  557MOL0     H76805  10.073   4.521   6.593 -1.3647 -1.1009 -0.3486
  557MOL0     H76806  10.159   4.585   6.452  0.9375 -0.1140  0.8185
  557MOL0     H76807  10.054   4.746   6.697 -0.5984 -0.4863  0.3817
  557MOL0     H76808  10.157   4.817   6.570  1.8130 -0.9544 -0.3901
  557MOL0     H76809  10.258   4.591   6.734 -0.0374  0.0470  2.2211
  557MOL0     H76810  10.345   4.692   6.623 -0.4710 -0.7502 -0.3384
  557MOL0     H76811  10.333   4.894   6.766 -0.6493 -0.5155 -1.8771
  557MOL0     H76812  10.411   4.759   6.837  1.8698 -0.8583 -4.5129
  557MOL0     H76813  10.238   4.880   6.980 -1.9115  0.4071 -0.5180
  557MOL0     H76814  10.115   4.820   6.876  0.4827 -0.4182 -1.9307
  557MOL0     H76815  10.034   4.708   7.135  0.0744 -1.8373  3.1189
  557MOL0     H76816   9.997   4.517   7.290  0.7901 -0.5193  1.2207
  557MOL0     H76817  10.132   4.553   7.391 -2.5579  2.4057 -0.4773
  557MOL0     H76818  10.178   4.327   7.206 -2.9693  0.8421 -1.4873
  557MOL0     H76819  10.199   4.323   7.375 -1.5978 -2.3348  0.0078
  557MOL0     H76820   9.924   4.277   7.239 -1.9228 -0.4136  1.4938
  557MOL0     H76821  10.021   4.159   7.318  0.0465  0.1156 -0.3481
  557MOL0     H76822   9.998   4.270   7.542  1.9168  1.7076 -1.5710
  557MOL0     H76823   9.927   4.409   7.472 -5.1254  0.7087 -0.0109
  557MOL0     H76824   9.838   4.380   7.677 -0.0194  0.0665 -0.2961
  557MOL0     H76825   9.750   4.343   8.001  1.9968 -0.2963  0.2090
  557MOL0     H76826   9.623   4.455   7.932  3.0420  2.0637  3.7645
  557MOL0     H76827   9.781   4.478   7.885 -0.0130  0.3243 -0.2453
  557MOL0     H76828   9.390   4.066   8.151 -0.2001  4.1762 -1.0918
  557MOL0     H76829   9.194   4.042   8.306  0.9653  1.4312 -0.0656
  557MOL0     H76830   9.012   4.005   8.420 -1.2784 -0.8735  0.1915
  557MOL0     H76831   9.019   4.173   8.372  2.5352 -1.9378  4.6215
  557MOL0     H76832   8.779   4.191   8.377  2.2863  0.4169 -1.0368
  557MOL0     H76833   8.766   4.009   8.412  0.7765 -1.2532  1.2351
  557MOL0     H76834   8.882   4.216   8.603  0.9656 -0.9825  3.1680
  557MOL0     H76835   8.867   4.056   8.634  0.5507  0.2338  0.3909
  557MOL0     H76836   8.684   4.164   8.751  1.7610 -2.9125  0.5511
  557MOL0     H76837   8.614   4.061   8.623 -1.2349  0.1342  2.9745
  557MOL0     H76838   8.648   4.366   8.581 -2.3486  0.8476  1.3400
  557MOL0     H76839   8.594   4.247   8.465 -0.3492  2.2518 -0.7071
  557MOL0     H76840   8.468   4.310   8.739 -3.1843 -1.2681 -0.2096
  557MOL0     H76841   8.414   4.192   8.619 -1.2786 -0.1740  3.7060
  557MOL0     H76842   8.366   4.345   8.463 -0.0725  1.2526 -0.8345
  557MOL0     H76843   8.453   4.481   8.545 -0.6298  0.3754  2.1641
  557MOL0     H76844   8.218   4.323   8.653  2.4285 -1.5132 -0.3086
  557MOL0     H76845   8.196   4.481   8.573 -1.3100  0.3535  1.1261
  557MOL0     H76846   8.923   4.116   7.987 -0.2361  3.0925  2.2015
  557MOL0     H76847   9.140   4.150   7.826  1.6312  2.4924  0.7540
  557MOL0     H76848   9.492   4.032   7.716 -1.7858  1.8357 -0.7888
  557MOL0     H76849   9.623   4.048   7.516 -1.2006  1.9905 -1.2548
  557MOL0     H76850   9.611   4.192   6.232  1.0963  1.9979  1.0343
  557MOL0     H76851   9.568   3.967   6.249  0.1451  1.2039 -1.0235
  557MOL0     H76852   9.445   3.675   6.420 -0.1255  0.1489 -0.6288
  557MOL0     H76853   9.321   3.470   6.449 -0.4518 -2.0177 -0.3812
  557MOL0     H76854   9.473   3.104   6.262  0.9966 -1.9816  0.4569
  557MOL0     H76855   9.548   3.080   6.423  0.3326 -0.2248  0.7734
  557MOL0     H76856   9.263   2.989   6.348  1.2723 -1.8572 -1.3811
  557MOL0     H76857   9.347   2.983   6.512 -0.9583 -4.1842  0.0700
  557MOL0     H76858   9.432   2.869   6.244 -1.4391 -0.1087  0.4046
  557MOL0     H76859   9.542   2.871   6.388 -1.3848  2.2168  3.2111
  557MOL0     H76860   9.470   2.668   6.392 -0.9556 -0.6252 -1.7722
  557MOL0     H76861   9.297   2.701   6.374 -2.7638  2.0641  1.9811
  557MOL0     H76862   9.339   2.756   6.782  0.1933  2.2831  0.1759
  557MOL0     H76863   9.642   3.252   6.296 -1.9159 -0.9840  1.0495
  557MOL0     H76864   9.884   3.479   6.247 -1.2745 -2.1633 -1.7602
  557MOL0     H76865   9.894   3.452   6.421 -0.4197 -3.6098  1.6604
  557MOL0     H76866   9.851   3.322   6.303  2.1855  0.7202 -1.5046
  558MOL0     O76867   7.542   0.133   2.420 -0.4193 -0.0394 -0.3740
  558MOL0     C76868   7.516   0.203   2.320 -1.0400 -1.2994 -0.2609
  558MOL0     O76869   7.533   0.339   2.323 -0.5578 -0.1437 -0.2331
  558MOL0     C76870   7.566   0.414   2.433 -1.1403  0.9965  0.1729
  558MOL0     C76871   7.680   0.386   2.504 -0.3921 -0.4231  0.6026
  558MOL0     C76872   7.712   0.464   2.610  0.1431  0.1892  0.2143
  558MOL0     C76873   7.631   0.573   2.651  0.1952  0.6033 -0.4200
  558MOL0     O76874   7.655   0.668   2.748  0.1909  0.1801 -0.0088
  558MOL0     C76875   7.698   0.625   2.872  0.5503 -0.0522  0.4426
  558MOL0     C76876   7.637   0.715   2.983  0.0133 -0.0669  0.3473
  558MOL0     C76877   7.687   0.857   2.973 -0.9176 -0.3682  0.2391
  558MOL0     C76878   7.625   0.942   3.095 -0.4724  0.3978  1.0061
  558MOL0     C76879   7.700   0.914   3.228 -0.0895 -0.6106  0.2218
  558MOL0     C76880   7.633   0.975   3.359  0.4286  1.7973  0.1378
  558MOL0     C76881   7.645   1.122   3.369 -0.8103 -0.8177 -0.4915
  558MOL0     C76882   7.553   1.168   3.486  0.2831 -0.7546  0.1434
  558MOL0     N76883   7.608   1.298   3.543  0.5077  0.1373  0.3262
  558MOL0     C76884   7.715   1.315   3.623 -0.8048 -0.0167  1.1585
  558MOL0     C76885   7.725   1.442   3.637  0.0433 -0.8343 -0.0437
  558MOL0     C76886   7.828   1.520   3.725  1.1193  0.3153  0.3148
  558MOL0     C76887   7.813   1.674   3.719  0.3651  0.1483  0.3284
  558MOL0     C76888   7.886   1.754   3.841  0.5051  0.0522  0.4523
  558MOL0     C76889   7.852   1.905   3.842  0.1414 -0.0979 -0.2304
  558MOL0     O76890   7.932   1.962   3.942 -0.5463 -0.6653 -0.2707
  558MOL0     C76891   7.931   2.091   3.988  0.4474 -0.7111  0.2862
  558MOL0     C76892   8.036   2.139   4.072 -0.6464 -0.2643  0.1308
  558MOL0     C76893   8.036   2.274   4.118 -0.1718  0.4086  0.0392
  558MOL0     C76894   8.154   2.308   4.206  0.0702 -0.2000  0.2063
  558MOL0     C76895   7.932   2.359   4.077  0.1915 -0.0031  0.1219
  558MOL0     C76896   7.931   2.502   4.111 -0.1161  0.0789 -0.2800
  558MOL0     O76897   8.053   2.555   4.118  0.3507 -0.8583 -0.3790
  558MOL0     C76898   8.072   2.685   4.149  0.4741  0.5866  0.5169
  558MOL0     C76899   8.137   2.707   4.273  0.3758 -0.0101  0.1669
  558MOL0     C76900   8.190   2.831   4.302 -0.1961 -1.0699 -0.4755
  558MOL0     C76901   8.168   2.942   4.220  0.6323  0.3867 -0.1407
  558MOL0     O76902   8.216   3.055   4.269  0.4454 -0.2942  0.9249
  558MOL0     C76903   8.121   3.157   4.271  1.9173  1.0816  1.2141
  558MOL0     C76904   8.013   3.143   4.379  0.2347 -0.8582  1.5125
  558MOL0     C76905   8.084   3.150   4.518  0.0356  0.1983 -0.6391
  558MOL0     C76906   7.994   3.160   4.641  0.5145 -0.0799  0.5167
  558MOL0     C76907   7.927   3.027   4.681  0.0449 -0.6816 -0.0136
  558MOL0     C76908   7.846   3.043   4.808  0.0910 -0.5424 -0.6633
  558MOL0     C76909   7.813   2.900   4.860  0.0655  0.3234 -0.6951
  558MOL0     C76910   7.736   2.901   4.994  0.1973  0.0465  0.6757
  558MOL0    Cl76911   7.723   2.730   5.042  0.2261 -0.1198 -0.1286
  558MOL0     C76912   8.104   2.916   4.095 -0.0361 -0.1837  0.3472
  558MOL0     C76913   8.050   2.788   4.061 -0.2531 -0.0960  0.1605
  558MOL0     O76914   7.827   2.567   4.141  0.1435 -0.2148 -0.7728
  558MOL0     C76915   7.826   2.300   4.006  0.1325 -0.4496  0.8070
  558MOL0     C76916   7.824   2.174   3.959 -0.1315 -0.2696 -0.0044
  558MOL0     N76917   7.624   1.515   3.564 -0.0958 -0.4617  0.2666
  558MOL0     N76918   7.556   1.416   3.506  0.8089 -0.0989  0.5312
  558MOL0     C76919   7.525   0.598   2.573  0.2780 -0.6150  0.0726
  558MOL0     C76920   7.491   0.527   2.460  0.0257  0.5231 -1.2220
  558MOL0     C76921   7.470   0.142   2.194  0.2152 -0.0905 -0.4615
  558MOL0     C76922   7.494   0.203   2.065  0.6008 -0.6506  0.0930
  558MOL0     C76923   7.435   0.147   1.950 -1.3045 -0.4178 -0.2937
  558MOL0     C76924   7.353   0.045   1.946  0.3723 -0.1007 -1.5189
  558MOL0     O76925   7.304  -0.004   1.830 -0.2987  0.1170 -0.5149
  558MOL0     C76926   7.317   0.061   1.698 -0.3166  1.1102 -0.4959
  558MOL0     C76927   7.241   0.192   1.660 -0.0735 -0.6108 -0.4033
  558MOL0     C76928   7.082   0.165   1.664  0.1730  0.2636  0.0229
  558MOL0     C76929   7.009   0.288   1.604  0.2133  0.9468  0.6280
  558MOL0     C76930   7.018   0.403   1.701  0.1226  0.7054  0.4485
  558MOL0     C76931   7.053   0.496   1.769  0.0040 -0.4824  0.6316
  558MOL0     C76932   7.326  -0.022   2.069  0.0542 -0.0845  1.2427
  558MOL0     C76933   7.387   0.022   2.193  0.4138 -0.6322  1.6407
  558MOL0     C76934   7.338  -0.058   2.307  0.4307 -0.2760  0.1062
  558MOL0     H76935   7.745   0.300   2.487 -0.0383  0.1072 -0.8136
  558MOL0     H76936   7.800   0.443   2.670  0.8692 -0.4629 -1.0378
  558MOL0     H76937   7.807   0.638   2.874  0.8425 -2.2034  1.6852
  558MOL0     H76938   7.667   0.522   2.894  0.0949  0.9230  5.6316
  558MOL0     H76939   7.530   0.702   2.969 -0.0492  1.8091 -1.3783
  558MOL0     H76940   7.649   0.672   3.083 -0.9471 -0.6051  0.2382
  558MOL0     H76941   7.797   0.856   2.969 -0.8979  1.1503 -0.2347
  558MOL0     H76942   7.654   0.900   2.878  2.7807 -0.6784 -1.3764
  558MOL0     H76943   7.635   1.045   3.060  2.1950  0.1462  0.7864
  558MOL0     H76944   7.520   0.918   3.112 -0.8938  3.2137  2.9604
  558MOL0     H76945   7.801   0.956   3.220 -1.0069  2.1216  1.4518
  558MOL0     H76946   7.704   0.805   3.237 -1.6520 -0.6840  0.3804
  558MOL0     H76947   7.532   0.934   3.374  1.0426  1.4831  4.3792
  558MOL0     H76948   7.696   0.949   3.444  1.1344  0.4497 -0.7498
  558MOL0     H76949   7.616   1.176   3.279  1.9206 -2.1305 -2.2977
  558MOL0     H76950   7.748   1.147   3.396 -1.3270 -0.1781  1.0410
  558MOL0     H76951   7.451   1.192   3.455 -0.5409  4.7282  5.2670
  558MOL0     H76952   7.560   1.103   3.574 -0.9600 -0.7441  0.2653
  558MOL0     H76953   7.785   1.237   3.654  0.1059  0.3279  0.0408
  558MOL0     H76954   7.930   1.492   3.699  0.8491 -2.2472  1.6487
  558MOL0     H76955   7.816   1.484   3.828 -0.3133 -2.3727 -0.6863
  558MOL0     H76956   7.859   1.695   3.622  1.7768  1.7076  1.2866
  558MOL0     H76957   7.710   1.709   3.718  0.3718  0.1677  0.1108
  558MOL0     H76958   7.847   1.710   3.934 -2.2898 -0.0792 -0.6759
  558MOL0     H76959   7.994   1.741   3.843  0.7086  1.6379  1.2955
  558MOL0     H76960   7.885   1.959   3.753  0.1805 -1.4825 -1.0820
  558MOL0     H76961   7.748   1.914   3.875 -0.1034 -0.0922 -1.0010
  558MOL0     H76962   8.113   2.064   4.090 -1.2096 -0.9583 -0.2806
  558MOL0     H76963   8.241   2.317   4.140  0.1938 -1.1256  0.2208
  558MOL0     H76964   8.169   2.223   4.273 -1.8724 -1.7292 -1.1578
  558MOL0     H76965   8.139   2.389   4.278  1.8238  0.4251 -0.0792
  558MOL0     H76966   8.145   2.622   4.339 -3.3276 -0.3408  0.4108
  558MOL0     H76967   8.246   2.843   4.394  2.6485  0.0086 -2.2225
  558MOL0     H76968   8.171   3.252   4.296  1.6576  0.8518  2.7436
  558MOL0     H76969   8.074   3.176   4.174 -1.1203 -2.7760  1.6973
  558MOL0     H76970   7.941   3.225   4.385  0.0700 -0.9673  1.0677
  558MOL0     H76971   7.959   3.048   4.370 -1.2182  0.0745 -0.4138
  558MOL0     H76972   8.161   3.227   4.515  0.9049 -0.6724 -0.9329
  558MOL0     H76973   8.144   3.059   4.527  3.8427  2.5119 -0.4002
  558MOL0     H76974   7.926   3.243   4.622  2.5326  1.0357 -2.7252
  558MOL0     H76975   8.055   3.190   4.726 -3.9358  1.8911  3.3654
  558MOL0     H76976   7.870   2.988   4.597 -2.3949 -0.3484  1.3923
  558MOL0     H76977   8.001   2.955   4.717 -0.6114 -0.1774  2.5316
  558MOL0     H76978   7.754   3.102   4.795 -0.6453 -0.3558  3.8208
  558MOL0     H76979   7.913   3.083   4.884 -0.9597 -0.3777  0.2039
  558MOL0     H76980   7.910   2.855   4.885  0.1485  1.1795  0.6863
  558MOL0     H76981   7.756   2.843   4.786 -0.2909  0.3373 -0.4336
  558MOL0     H76982   7.636   2.947   4.998  0.2231  0.2543 -0.7650
  558MOL0     H76983   7.791   2.959   5.069 -2.3931  0.4996  2.3559
  558MOL0     H76984   8.109   2.990   4.015  0.3869 -1.6729 -1.0704
  558MOL0     H76985   8.001   2.764   3.966 -0.8453 -1.9803  0.8870
  558MOL0     H76986   7.744   2.368   3.986  0.5796 -0.1892 -0.2106
  558MOL0     H76987   7.734   2.144   3.908 -0.3864  0.9896 -0.3272
  558MOL0     H76988   7.464   0.686   2.588  3.0936  1.2914  1.1765
  558MOL0     H76989   7.398   0.554   2.410 -1.5405  0.6334  1.5808
  558MOL0     H76990   7.550   0.294   2.049 -3.4273  2.3597  1.4008
  558MOL0     H76991   7.454   0.203   1.859  2.8425 -1.9216 -0.5958
  558MOL0     H76992   7.424   0.084   1.685  0.9372 -2.4321  1.9479
  558MOL0     H76993   7.288  -0.011   1.621  3.3364  0.0575 -1.0995
  558MOL0     H76994   7.272   0.228   1.561 -0.0710 -0.9789 -0.5391
  558MOL0     H76995   7.270   0.264   1.737 -0.6299 -0.5041 -0.2870
  558MOL0     H76996   7.052   0.072   1.614 -0.0498 -0.5777  1.6676
  558MOL0     H76997   7.051   0.149   1.767 -4.3544  0.6107 -1.0632
  558MOL0     H76998   6.900   0.274   1.600  0.3464  0.1312 -0.4024
  558MOL0     H76999   7.048   0.310   1.505  0.8478  4.5044  1.5014
  558MOL0     H77000   7.083   0.584   1.822 -2.2077  0.8961 -0.3004
  558MOL0     H77001   7.273  -0.116   2.059  2.1400 -1.2009 -0.3029
  558MOL0     H77002   7.299   0.023   2.370  4.2221  0.4983  1.7694
  558MOL0     H77003   7.265  -0.135   2.282  1.8378 -1.8402  0.6610
  558MOL0     H77004   7.412  -0.109   2.369 -1.2014 -2.7241  0.1587
  559MOL0     O77005   8.808   2.729   2.261  0.2368 -0.5073 -0.1729
  559MOL0     C77006   8.796   2.647   2.354  0.5874  0.7902  0.5540
  559MOL0     O77007   8.864   2.529   2.366 -0.2232  0.3149  0.0728
  559MOL0     C77008   8.955   2.479   2.269  0.1402  1.4381 -0.4084
  559MOL0     C77009   9.019   2.544   2.159  0.2976 -0.9326  0.7241
  559MOL0     C77010   9.067   2.486   2.050 -0.5140 -0.0634 -0.9611
  559MOL0     C77011   9.079   2.350   2.046 -0.4772  0.7232 -0.1257
  559MOL0     O77012   9.133   2.285   1.932 -0.2201 -0.6342 -0.2335
  559MOL0     C77013   9.244   2.188   1.967  0.7858 -0.4969 -0.5265
  559MOL0     C77014   9.297   2.130   1.837 -0.0103 -0.2279  0.2462
  559MOL0     C77015   9.342   2.228   1.723 -0.5095  0.2639  0.2106
  559MOL0     C77016   9.482   2.279   1.775 -0.2037 -0.4458 -0.0116
  559MOL0     C77017   9.561   2.340   1.659 -0.6770 -0.5018  0.0072
  559MOL0     C77018   9.710   2.366   1.712  0.1402 -0.3326  0.2542
  559MOL0     C77019   9.794   2.429   1.601 -0.6692 -0.1157  0.4008
  559MOL0     C77020   9.847   2.337   1.489  0.2065 -0.1757  0.4386
  559MOL0     N77021   9.935   2.417   1.402 -0.4381  0.5736  0.7808
  559MOL0     C77022  10.050   2.488   1.437  0.0684 -0.2020  0.9526
  559MOL0     C77023  10.104   2.522   1.317 -0.1473  0.0193 -0.2533
  559MOL0     C77024  10.242   2.592   1.294  0.5482  0.3942  1.2893
  559MOL0     C77025  10.216   2.749   1.302 -0.4052  0.2197 -1.2580
  559MOL0     C77026  10.342   2.826   1.306  0.4951 -0.0794 -0.3300
  559MOL0     C77027  10.310   2.977   1.292  0.5123 -0.7447  0.5172
  559MOL0     O77028  10.433   3.048   1.310 -0.2515  0.5331  0.1924
  559MOL0     C77029  10.451   3.189   1.294 -0.2808  0.4187 -0.4042
  559MOL0     C77030  10.350   3.279   1.259 -1.1670 -0.0760 -0.0780
  559MOL0     C77031  10.375   3.410   1.245  0.7169  0.0202 -0.3579
  559MOL0     C77032  10.259   3.490   1.198 -0.2746  0.7591 -0.2800
  559MOL0     C77033  10.497   3.469   1.275  0.6113  0.1687 -0.1581
  559MOL0     C77034  10.536   3.612   1.265  0.1287  0.2917 -0.2895
  559MOL0     O77035  10.485   3.683   1.167  0.2311 -0.1196 -0.2793
  559MOL0     C77036  10.563   3.776   1.109  0.8523  0.2532  0.9412
  559MOL0     C77037  10.492   3.893   1.061  0.4500  0.8130 -0.7437
  559MOL0     C77038  10.556   4.007   1.009 -0.0378 -0.8220  0.6186
  559MOL0     C77039  10.690   4.003   1.005  0.3619 -0.0690  0.5245
  559MOL0     O77040  10.751   4.108   0.946  0.1931 -0.0490  0.4751
  559MOL0     C77041  10.784   4.207   1.039  1.1317 -0.3401  0.0123
  559MOL0     C77042  10.812   4.349   0.980 -0.0529  0.3819  0.4611
  559MOL0     C77043  10.721   4.366   0.858 -0.0590 -0.0955  1.6541
  559MOL0     C77044  10.709   4.510   0.810  0.1042  0.0220 -0.0817
  559MOL0     C77045  10.624   4.506   0.686 -0.1953  0.2948  0.2869
  559MOL0     C77046  10.617   4.646   0.635  0.0408 -0.9978 -0.3532
  559MOL0     C77047  10.514   4.665   0.522 -0.7586  0.3535 -0.2110
  559MOL0     C77048  10.463   4.809   0.526 -0.5695 -0.0119  0.1592
  559MOL0    Cl77049  10.594   4.947   0.535  0.3101  0.0029 -0.1956
  559MOL0     C77050  10.765   3.895   1.054 -0.1929 -0.1558  0.4914
  559MOL0     C77051  10.707   3.775   1.102  0.0866 -0.1588 -0.1620
  559MOL0     O77052  10.622   3.658   1.342  0.3088 -0.9256  0.4540
  559MOL0     C77053  10.603   3.379   1.315  0.5922  0.0139 -0.4135
  559MOL0     C77054  10.571   3.239   1.315 -0.3509 -0.3127 -0.0446
  559MOL0     N77055  10.023   2.466   1.216 -0.1233  0.4347 -0.9093
  559MOL0     N77056   9.920   2.406   1.269 -0.1725  0.2972 -0.3751
  559MOL0     C77057   9.043   2.280   2.169 -0.2133  0.2216  0.0955
  559MOL0     C77058   8.978   2.342   2.280 -0.4576  0.2019 -0.1756
  559MOL0     C77059   8.674   2.670   2.451 -0.3121 -0.8165  0.0088
  559MOL0     C77060   8.601   2.554   2.497 -1.0519  1.1221  0.1147
  559MOL0     C77061   8.488   2.565   2.571  0.2072 -0.4986 -0.2204
  559MOL0     C77062   8.428   2.694   2.598 -1.0634 -0.8932 -0.9003
  559MOL0     O77063   8.305   2.719   2.647  0.0863 -0.3687 -0.2861
  559MOL0     C77064   8.202   2.680   2.555  0.4735 -0.5245  0.8885
  559MOL0     C77065   8.072   2.751   2.607 -0.4251 -0.3358 -0.9626
  559MOL0     C77066   7.978   2.666   2.693  0.6525  0.8848  0.1706
  559MOL0     C77067   7.857   2.740   2.752 -0.7896  0.1738 -0.5503
  559MOL0     C77068   7.751   2.653   2.792  0.2344  0.2092 -0.9375
  559MOL0     C77069   7.662   2.570   2.824 -1.1476  0.8327 -0.1455
  559MOL0     C77070   8.498   2.807   2.563 -0.0560 -0.7661  0.7294
  559MOL0     C77071   8.619   2.797   2.485 -0.4151  0.3322  0.4910
  559MOL0     C77072   8.679   2.931   2.447  0.0614  0.2280  0.6378
  559MOL0     H77073   9.004   2.651   2.151 -0.9022 -1.0460  1.2433
  559MOL0     H77074   9.105   2.553   1.973 -0.2622  0.9256 -0.0079
  559MOL0     H77075   9.209   2.102   2.025  0.4610 -0.7052 -1.0191
  559MOL0     H77076   9.321   2.239   2.025 -1.2113  1.4826  0.5679
  559MOL0     H77077   9.373   2.051   1.850 -0.0108 -0.4939 -1.2178
  559MOL0     H77078   9.211   2.076   1.796  0.4798 -0.2651 -0.7588
  559MOL0     H77079   9.365   2.179   1.628 -1.0855 -1.5787  0.9780
  559MOL0     H77080   9.270   2.309   1.711 -2.0860 -0.3384  4.0041
  559MOL0     H77081   9.484   2.352   1.856  0.9996  2.2540 -2.2943
  559MOL0     H77082   9.531   2.187   1.807  1.2588  0.8314  1.6131
  559MOL0     H77083   9.515   2.430   1.619 -1.5218  0.5016  2.9680
  559MOL0     H77084   9.556   2.265   1.579  2.4193 -0.7996 -0.0443
  559MOL0     H77085   9.712   2.436   1.796 -0.8871 -1.2044  1.0294
  559MOL0     H77086   9.754   2.269   1.737  1.6615  0.1929 -0.3027
  559MOL0     H77087   9.877   2.481   1.650  0.7129 -1.8207 -0.0536
  559MOL0     H77088   9.736   2.508   1.552 -1.3312 -1.0946 -0.4496
  559MOL0     H77089   9.899   2.256   1.541 -0.8156 -0.1894  1.4954
  559MOL0     H77090   9.761   2.292   1.438 -1.2520  2.5249  0.3713
  559MOL0     H77091  10.088   2.512   1.536  2.8797 -3.7992  0.9456
  559MOL0     H77092  10.286   2.572   1.196 -0.6281 -2.8497  1.2789
  559MOL0     H77093  10.315   2.566   1.371  0.8307  0.8576  1.1809
  559MOL0     H77094  10.143   2.784   1.229 -0.4141 -1.0559 -1.8992
  559MOL0     H77095  10.176   2.762   1.403  0.3055 -0.3595 -0.8883
  559MOL0     H77096  10.392   2.810   1.402 -0.6716  1.4113  0.5636
  559MOL0     H77097  10.402   2.800   1.218  1.3301  2.4108 -0.5928
  559MOL0     H77098  10.261   3.020   1.204  3.3152 -0.2488 -0.9185
  559MOL0     H77099  10.229   2.985   1.365  1.5586 -2.3184  1.9177
  559MOL0     H77100  10.247   3.244   1.256 -0.9389 -0.9590  1.6180
  559MOL0     H77101  10.222   3.559   1.275  0.6048  0.3957  0.4941
  559MOL0     H77102  10.173   3.423   1.183 -0.5124  1.2838 -1.3665
  559MOL0     H77103  10.281   3.547   1.108  0.4977  4.6025  2.1165
  559MOL0     H77104  10.384   3.889   1.074  0.4760  0.8615 -0.5004
  559MOL0     H77105  10.510   4.098   0.970  0.5497  1.2721  4.3900
  559MOL0     H77106  10.698   4.223   1.104  0.6670 -1.1686 -0.3835
  559MOL0     H77107  10.864   4.179   1.109  0.5640  2.3779  1.9486
  559MOL0     H77108  10.793   4.428   1.053  0.7012  1.4577 -0.4733
  559MOL0     H77109  10.914   4.361   0.941 -0.2751 -0.6769 -0.4971
  559MOL0     H77110  10.621   4.322   0.873 -0.7624  0.3437 -1.1164
  559MOL0     H77111  10.759   4.305   0.776 -0.9746 -1.5511  2.2761
  559MOL0     H77112  10.805   4.556   0.787 -1.3363  3.0089 -0.5805
  559MOL0     H77113  10.660   4.567   0.890 -1.3456  0.9964 -1.5885
  559MOL0     H77114  10.664   4.446   0.603 -2.0549  0.3077 -0.6750
  559MOL0     H77115  10.520   4.476   0.701  0.3344 -1.1407  1.2096
  559MOL0     H77116  10.714   4.669   0.590  1.4444 -1.5961  2.1948
  559MOL0     H77117  10.594   4.705   0.724  1.9442 -2.4253  1.1697
  559MOL0     H77118  10.431   4.593   0.527 -1.4424  1.1814  0.7071
  559MOL0     H77119  10.558   4.649   0.423 -1.4058 -0.8386 -0.3379
  559MOL0     H77120  10.387   4.831   0.602 -0.2935  3.4006 -0.4006
  559MOL0     H77121  10.409   4.814   0.431 -0.6842  0.0258  0.2263
  559MOL0     H77122  10.873   3.898   1.040 -0.0710 -2.9788  0.3893
  559MOL0     H77123  10.767   3.693   1.138 -2.5813 -2.1524  0.1111
  559MOL0     H77124  10.701   3.416   1.343 -0.2240  2.4525 -0.5158
  559MOL0     H77125  10.656   3.172   1.328  0.9750  1.3428  0.2399
  559MOL0     H77126   9.056   2.172   2.161 -0.5354  0.2328 -0.7109
  559MOL0     H77127   8.943   2.281   2.363 -0.8874  2.4480  1.3733
  559MOL0     H77128   8.645   2.457   2.477 -1.7325  0.5949  1.1152
  559MOL0     H77129   8.438   2.472   2.595  0.5922 -0.7302 -0.3064
  559MOL0     H77130   8.215   2.743   2.466 -1.3704  0.1980  1.0856
  559MOL0     H77131   8.187   2.578   2.521  2.7813 -0.7998  0.5728
  559MOL0     H77132   8.022   2.786   2.516  2.2310  0.3794 -2.2269
  559MOL0     H77133   8.097   2.843   2.662  0.3027 -0.9032 -0.3305
  559MOL0     H77134   7.941   2.589   2.625  2.0202  1.1096 -0.8798
  559MOL0     H77135   8.034   2.619   2.775  1.4301  3.7876  1.4517
  559MOL0     H77136   7.807   2.805   2.680 -0.8204 -1.7489 -2.3634
  559MOL0     H77137   7.898   2.792   2.839 -2.0987  4.0775 -2.0468
  559MOL0     H77138   7.590   2.502   2.862  0.3041  0.8504  2.9168
  559MOL0     H77139   8.455   2.906   2.571 -0.2020 -0.6344 -1.2083
  559MOL0     H77140   8.787   2.927   2.468  0.2838  1.9563  0.0222
  559MOL0     H77141   8.666   2.962   2.343  4.0137  2.5822  0.6307
  559MOL0     H77142   8.645   3.011   2.513  1.3472 -1.2526  3.2741
  560MOL0     O77143   3.084   7.911   3.731 -0.4789 -0.1747 -0.3935
  560MOL0     C77144   2.972   7.957   3.728 -1.2577  0.4253 -0.3872
  560MOL0     O77145   2.914   8.018   3.834 -0.4374 -0.5594 -0.3638
  560MOL0     C77146   2.955   8.012   3.969 -0.3015  1.1207 -0.3046
  560MOL0     C77147   2.869   7.992   4.073 -0.5567 -0.1358 -1.0611
  560MOL0     C77148   2.913   7.987   4.206 -0.8944 -0.0879 -0.4007
  560MOL0     C77149   3.048   8.009   4.245 -0.2538  0.1339  0.7940
  560MOL0     O77150   3.094   8.016   4.378  0.1701  0.8794  0.6919
  560MOL0     C77151   3.017   7.962   4.482 -0.8879  0.2466 -0.5790
  560MOL0     C77152   2.891   8.026   4.531 -0.0199 -0.4125  0.3158
  560MOL0     C77153   2.893   8.173   4.522 -0.6372 -0.2756  0.3954
  560MOL0     C77154   2.968   8.253   4.628 -0.2516 -0.5748  0.5681
  560MOL0     C77155   2.959   8.406   4.616 -0.3263  0.9102  1.4459
  560MOL0     C77156   3.011   8.470   4.474  0.0038  0.3033  0.3700
  560MOL0     C77157   3.154   8.428   4.438  0.1890  1.5468 -0.3377
  560MOL0     C77158   3.199   8.488   4.300 -0.5725  0.0517  0.3770
  560MOL0     N77159   3.301   8.593   4.302 -0.3976  0.3365 -0.3788
  560MOL0     C77160   3.294   8.722   4.356  0.2308 -0.2753  0.0355
  560MOL0     C77161   3.423   8.774   4.363  0.4161  0.1189 -0.2013
  560MOL0     C77162   3.460   8.902   4.430 -0.3686  0.0168  0.9262
  560MOL0     C77163   3.460   9.008   4.322 -0.1563 -0.1951 -0.3817
  560MOL0     C77164   3.550   9.129   4.353 -0.4150  0.2194  0.7939
  560MOL0     C77165   3.709   9.137   4.313  0.1588  0.8503 -0.7573
  560MOL0     O77166   3.725   9.238   4.208 -0.2552  0.2873  0.9101
  560MOL0     C77167   3.845   9.301   4.181  0.0691 -0.4617 -0.0792
  560MOL0     C77168   3.847   9.421   4.106 -0.5019 -1.2430  0.4072
  560MOL0     C77169   3.965   9.492   4.074 -0.9724 -0.4104  0.3435
  560MOL0     C77170   3.957   9.616   3.984  0.3842  0.8065  0.5727
  560MOL0     C77171   4.086   9.449   4.134 -0.8555  0.5406 -0.2592
  560MOL0     C77172   4.213   9.509   4.099  0.6147  0.8732  0.3607
  560MOL0     O77173   4.229   9.548   3.965 -0.4995 -0.1840 -0.6682
  560MOL0     C77174   4.359   9.558   3.912  0.5673 -1.9978  0.5519
  560MOL0     C77175   4.379   9.649   3.808  0.0602  0.1319  0.0725
  560MOL0     C77176   4.509   9.669   3.744  0.1591 -0.4523  0.8558
  560MOL0     C77177   4.617   9.593   3.793 -0.4695  0.6569 -0.4481
  560MOL0     O77178   4.751   9.612   3.755  0.1062  0.0707 -0.1410
  560MOL0     C77179   4.781   9.718   3.672  0.0099 -0.3213  0.2393
  560MOL0     C77180   4.915   9.685   3.608 -0.1654 -0.5611 -0.1949
  560MOL0     C77181   4.939   9.738   3.463  0.2313  0.5588 -0.3373
  560MOL0     C77182   4.975   9.887   3.458  0.8161  0.2151  0.3954
  560MOL0     C77183   4.975   9.939   3.310 -0.0090  0.4423 -0.2161
  560MOL0     C77184   4.839   9.994   3.268  0.5554  0.5743 -0.1266
  560MOL0     C77185   4.847  10.027   3.123 -0.5293  0.1522  0.4088
  560MOL0     C77186   4.733  10.090   3.050 -0.1186  0.5579 -0.3843
  560MOL0    Cl77187   4.666  10.225   3.120  0.7010 -0.2511  0.1164
  560MOL0     C77188   4.598   9.499   3.899 -0.0860 -0.1676  0.2948
  560MOL0     C77189   4.472   9.487   3.957 -0.0853  0.5100  0.0994
  560MOL0     O77190   4.291   9.529   4.192 -0.0699 -0.9406  0.3520
  560MOL0     C77191   4.084   9.334   4.210  0.2648 -1.2418 -0.3074
  560MOL0     C77192   3.970   9.265   4.236 -0.0558  1.3173  0.2743
  560MOL0     N77193   3.503   8.683   4.296 -0.2318  0.0810  0.2080
  560MOL0     N77194   3.428   8.576   4.272  0.2998 -0.0765  0.6479
  560MOL0     C77195   3.134   8.034   4.130  0.1510  0.3580 -1.5000
  560MOL0     C77196   3.086   8.049   4.005  0.3985 -0.0390 -0.1353
  560MOL0     C77197   2.908   7.973   3.589 -0.6101  0.4315  0.2017
  560MOL0     C77198   2.984   7.932   3.476 -0.2822 -0.4817  0.8378
  560MOL0     C77199   2.924   7.954   3.359  0.1034 -0.4246  1.0743
  560MOL0     C77200   2.794   8.005   3.339  0.0371  0.1197 -0.1067
  560MOL0     O77201   2.730   8.002   3.217  0.9673  0.2422  0.2118
  560MOL0     C77202   2.721   8.132   3.151 -0.0553 -0.1422 -0.6968
  560MOL0     C77203   2.838   8.148   3.049  0.5508  1.0107 -0.5166
  560MOL0     C77204   2.842   8.301   3.012 -0.0084  0.6175  0.5758
  560MOL0     C77205   2.952   8.329   2.914 -0.2401 -0.5695  0.3439
  560MOL0     C77206   2.899   8.285   2.784 -0.4086  0.0935 -0.7717
  560MOL0     C77207   2.845   8.252   2.679 -0.0003 -0.5641 -0.5837
  560MOL0     C77208   2.725   8.048   3.450 -0.1404 -0.2883  0.0462
  560MOL0     C77209   2.779   8.035   3.578  0.2058 -0.1722 -0.3925
  560MOL0     C77210   2.681   8.064   3.683  0.3675 -0.2948  0.8043
  560MOL0     H77211   2.763   7.983   4.051 -0.6726  0.7381 -0.8845
  560MOL0     H77212   2.832   7.964   4.274 -1.1414  0.8737 -0.3456
  560MOL0     H77213   3.086   7.969   4.566 -2.3020 -3.4035  1.0792
  560MOL0     H77214   3.006   7.853   4.479 -0.1542  0.1745 -0.7253
  560MOL0     H77215   2.801   7.989   4.480 -1.0198  2.5815 -0.2603
  560MOL0     H77216   2.892   7.998   4.637  3.1583  1.3573  0.8821
  560MOL0     H77217   2.929   8.205   4.423  0.8178 -1.4060  0.5217
  560MOL0     H77218   2.790   8.210   4.529 -0.6420 -0.1354 -0.3404
  560MOL0     H77219   2.939   8.226   4.729  0.8973  0.1619  1.1174
  560MOL0     H77220   3.074   8.228   4.627  0.3684  1.7675 -0.3775
  560MOL0     H77221   3.009   8.456   4.699  1.1663  1.1326  0.4375
  560MOL0     H77222   2.852   8.427   4.625 -1.0735 -2.8222  3.2183
  560MOL0     H77223   2.942   8.433   4.398  2.2327 -1.0698 -1.1108
  560MOL0     H77224   2.995   8.578   4.479  2.5573  0.7318  0.8048
  560MOL0     H77225   3.155   8.321   4.414 -1.4582  1.1795  1.0522
  560MOL0     H77226   3.227   8.447   4.517 -0.2741 -0.8666  0.7740
  560MOL0     H77227   3.239   8.399   4.250 -1.4091 -0.7885  1.1683
  560MOL0     H77228   3.114   8.523   4.241 -1.4489 -2.5539 -0.0675
  560MOL0     H77229   3.206   8.761   4.407  0.5273  0.3137  0.1102
  560MOL0     H77230   3.561   8.897   4.471  0.5952  0.0918 -1.2637
  560MOL0     H77231   3.381   8.940   4.496 -2.8542  0.8091 -2.2212
  560MOL0     H77232   3.487   8.968   4.224  0.8542 -1.6803  0.4685
  560MOL0     H77233   3.366   9.059   4.300  1.4800  1.9068 -3.1406
  560MOL0     H77234   3.492   9.214   4.316 -0.3664  0.5775  1.5247
  560MOL0     H77235   3.553   9.134   4.462  0.8508  1.9969  0.7286
  560MOL0     H77236   3.759   9.177   4.403 -0.9785  2.6164 -0.8694
  560MOL0     H77237   3.753   9.044   4.275 -0.0819  0.4149  0.0086
  560MOL0     H77238   3.750   9.445   4.063  0.1620 -2.9004 -2.2658
  560MOL0     H77239   4.015   9.609   3.891  0.2946  1.4312  0.4655
  560MOL0     H77240   3.984   9.714   4.025 -0.0090  0.7617  0.9440
  560MOL0     H77241   3.853   9.624   3.952 -0.4558 -0.3369  2.8625
  560MOL0     H77242   4.298   9.714   3.778  0.1421 -0.1558 -0.7803
  560MOL0     H77243   4.521   9.746   3.668 -0.7470 -1.1870 -0.0542
  560MOL0     H77244   4.707   9.715   3.591 -2.6915 -0.1063  2.5204
  560MOL0     H77245   4.785   9.817   3.717 -0.0726 -0.1493 -0.1231
  560MOL0     H77246   5.003   9.713   3.667  1.0627 -0.7499 -1.8640
  560MOL0     H77247   4.921   9.578   3.589  1.8183 -0.9718  2.2612
  560MOL0     H77248   4.846   9.711   3.411  0.4638  1.2026 -1.0990
  560MOL0     H77249   5.019   9.677   3.420 -0.4806 -1.3845  0.9357
  560MOL0     H77250   5.070   9.893   3.512  1.0235  1.5952 -0.0967
  560MOL0     H77251   4.903   9.936   3.524 -0.2004 -0.6067 -0.0855
  560MOL0     H77252   5.044  10.024   3.314  1.8668 -0.8331 -2.7023
  560MOL0     H77253   4.997   9.860   3.238  0.1197  0.2818 -0.0002
  560MOL0     H77254   4.812  10.079   3.331  0.5352 -0.1473  0.8745
  560MOL0     H77255   4.753   9.927   3.280  0.1747  0.7159 -1.8164
  560MOL0     H77256   4.859   9.931   3.071  2.0996  0.2267  0.7524
  560MOL0     H77257   4.938  10.087   3.114 -0.2102  0.2929  3.4623
  560MOL0     H77258   4.649  10.021   3.037  0.9369 -0.5081 -1.8325
  560MOL0     H77259   4.769  10.126   2.953 -3.1720  0.4458 -1.6980
  560MOL0     H77260   4.678   9.437   3.938  1.2480  1.9864  1.1835
  560MOL0     H77261   4.460   9.413   4.035  0.3686  1.9826  1.6304
  560MOL0     H77262   4.171   9.284   4.251  0.5558  0.9631  1.9871
  560MOL0     H77263   3.975   9.173   4.293 -0.9599  1.0770 -0.0063
  560MOL0     H77264   3.234   8.074   4.149 -1.2767  2.3908  3.3645
  560MOL0     H77265   3.159   8.077   3.930  1.6262  2.1160  1.7493
  560MOL0     H77266   3.082   7.885   3.478  0.5019  1.0876  0.5944
  560MOL0     H77267   2.975   7.915   3.271  0.2056 -0.4745  1.1560
  560MOL0     H77268   2.629   8.138   3.093  0.3927 -0.7849 -1.4958
  560MOL0     H77269   2.717   8.211   3.226 -0.2122 -0.1059 -0.7436
  560MOL0     H77270   2.821   8.080   2.965  0.1939 -1.1594  1.2207
  560MOL0     H77271   2.935   8.119   3.090  0.2126  0.3681 -0.1516
  560MOL0     H77272   2.749   8.336   2.965 -0.2505 -0.7783 -0.0651
  560MOL0     H77273   2.875   8.359   3.098  3.4203  0.7439 -0.7001
  560MOL0     H77274   3.041   8.269   2.937 -1.0959 -1.5755  1.1021
  560MOL0     H77275   2.973   8.437   2.913  2.2172 -0.9640  1.9495
  560MOL0     H77276   2.775   8.222   2.605 -2.2428 -1.4267  1.7525
  560MOL0     H77277   2.623   8.083   3.443 -0.6643 -1.3875  1.5676
  560MOL0     H77278   2.580   8.047   3.645  0.2764  1.9070 -0.1174
  560MOL0     H77279   2.696   8.015   3.780  2.1803  1.1227  1.3026
  560MOL0     H77280   2.697   8.170   3.702 -2.0695  0.3221 -0.2254
  561MOL0     O77281   3.465   5.076   8.866  0.3676 -0.0604 -0.0231
  561MOL0     C77282   3.543   5.143   8.935  0.0655 -0.8299  0.9670
  561MOL0     O77283   3.603   5.257   8.886 -0.0936  0.3005  0.3296
  561MOL0     C77284   3.604   5.284   8.750 -0.0994 -0.7678 -0.7360
  561MOL0     C77285   3.554   5.406   8.713  0.0225 -0.1038  0.5274
  561MOL0     C77286   3.560   5.448   8.574 -0.6678  0.2075 -0.6035
  561MOL0     C77287   3.620   5.368   8.482  0.0513  0.4020  0.1562
  561MOL0     O77288   3.635   5.408   8.352  0.2597 -0.2109 -0.1797
  561MOL0     C77289   3.549   5.501   8.289 -0.0007 -0.0041  1.5479
  561MOL0     C77290   3.545   5.477   8.137  0.2650 -0.2026  0.5318
  561MOL0     C77291   3.476   5.344   8.099  0.2622  0.5124  0.3873
  561MOL0     C77292   3.482   5.320   7.948 -0.6565  0.0171  0.5104
  561MOL0     C77293   3.367   5.376   7.866 -0.0828 -0.3841  0.1219
  561MOL0     C77294   3.407   5.394   7.717 -0.2825  0.1673 -0.2184
  561MOL0     C77295   3.290   5.432   7.626 -1.3448 -0.6638 -0.2782
  561MOL0     C77296   3.184   5.319   7.609 -0.8047 -0.6293  0.2395
  561MOL0     N77297   3.133   5.330   7.467 -0.4850  0.4069  0.3507
  561MOL0     C77298   3.040   5.416   7.417  0.2271  0.6207 -0.7135
  561MOL0     C77299   3.033   5.397   7.288  0.2915  0.7669 -0.2166
  561MOL0     C77300   2.961   5.459   7.176  0.3106 -0.1934 -0.2961
  561MOL0     C77301   2.803   5.433   7.183 -0.0238  1.1863  0.6896
  561MOL0     C77302   2.730   5.492   7.059 -0.1194  0.1588  0.9278
  561MOL0     C77303   2.768   5.432   6.926 -0.8715  0.7225 -0.1974
  561MOL0     O77304   2.671   5.478   6.830 -0.0856  0.1675 -0.2678
  561MOL0     C77305   2.693   5.442   6.699 -1.2219 -0.3358  0.1180
  561MOL0     C77306   2.824   5.427   6.648 -0.7746 -0.4351  0.1145
  561MOL0     C77307   2.844   5.364   6.528 -0.5490  0.8001  0.0371
  561MOL0     C77308   2.989   5.325   6.490  0.0122  0.2409 -0.3725
  561MOL0     C77309   2.736   5.356   6.431 -0.4481 -0.0101 -0.0535
  561MOL0     C77310   2.739   5.287   6.302  0.2161 -0.6258 -0.7721
  561MOL0     O77311   2.859   5.230   6.263 -0.1374 -0.2271  0.7787
  561MOL0     C77312   2.888   5.203   6.127 -0.1986 -0.3983  0.2330
  561MOL0     C77313   2.804   5.196   6.014  0.7187 -1.1192  0.1163
  561MOL0     C77314   2.839   5.200   5.876  0.0752  0.0778 -0.0450
  561MOL0     C77315   2.980   5.211   5.852  0.3983 -0.3907 -0.1904
  561MOL0     O77316   3.038   5.224   5.730  0.2618 -0.2265  0.4824
  561MOL0     C77317   2.944   5.231   5.617  0.2878 -0.0202 -0.8759
  561MOL0     C77318   3.023   5.277   5.492  0.2119 -0.7119 -0.0984
  561MOL0     C77319   3.116   5.398   5.516 -0.0185 -0.4034  0.2575
  561MOL0     C77320   3.204   5.438   5.390  0.4951  0.3163 -0.6046
  561MOL0     C77321   3.232   5.588   5.383  0.2530 -0.2667 -1.0146
  561MOL0     C77322   3.316   5.648   5.498  0.9135 -0.7108  0.8937
  561MOL0     C77323   3.322   5.803   5.494  0.1161  0.2783  0.1850
  561MOL0     C77324   3.204   5.873   5.552 -0.3329 -0.5739 -0.6765
  561MOL0    Cl77325   3.071   5.896   5.437 -0.0943 -0.7024 -0.1662
  561MOL0     C77326   3.066   5.220   5.965 -0.8479 -0.1278 -0.3244
  561MOL0     C77327   3.020   5.219   6.096 -0.7651  0.7504  0.5813
  561MOL0     O77328   2.628   5.265   6.247 -0.0920 -0.6072 -0.4460
  561MOL0     C77329   2.609   5.408   6.472 -0.2116 -0.4002 -0.8230
  561MOL0     C77330   2.591   5.450   6.610 -0.0806  0.0299  0.3303
  561MOL0     N77331   3.113   5.285   7.262  0.9683  0.9770  0.1760
  561MOL0     N77332   3.176   5.256   7.362 -0.6497  0.3790 -0.2541
  561MOL0     C77333   3.674   5.241   8.524  0.7896 -1.1340 -0.3316
  561MOL0     C77334   3.672   5.201   8.658 -0.9964  1.2449 -0.3941
  561MOL0     C77335   3.570   5.087   9.076  0.5085 -0.6029 -0.0857
  561MOL0     C77336   3.688   5.141   9.139  0.6228  0.0498  0.0701
  561MOL0     C77337   3.716   5.112   9.277 -0.4440  0.0797  0.1259
  561MOL0     C77338   3.634   5.023   9.343 -0.4594 -0.0676 -0.2980
  561MOL0     O77339   3.649   4.985   9.467 -0.6417 -0.7171  0.2049
  561MOL0     C77340   3.762   5.019   9.554  0.3372 -0.1123 -0.1856
  561MOL0     C77341   3.799   4.896   9.623  1.1104  0.8569  0.0303
  561MOL0     C77342   3.676   4.811   9.661  0.5304  0.4139  0.1035
  561MOL0     C77343   3.713   4.693   9.755 -1.4566 -0.2528 -0.6570
  561MOL0     C77344   3.720   4.758   9.887 -0.3496 -0.3013  0.0742
  561MOL0     C77345   3.748   4.820   9.986 -0.7222 -0.2812  0.4660
  561MOL0     C77346   3.524   4.968   9.276 -0.0619  0.4764  1.0201
  561MOL0     C77347   3.487   4.996   9.143 -0.1267  0.0481  0.1037
  561MOL0     C77348   3.366   4.930   9.082 -0.3198 -0.1715  0.2931
  561MOL0     H77349   3.524   5.464   8.800 -1.3504 -0.7367  0.5018
  561MOL0     H77350   3.528   5.550   8.554  2.9617  1.9312  1.4087
  561MOL0     H77351   3.583   5.603   8.309  1.5204 -0.6258  2.2655
  561MOL0     H77352   3.451   5.481   8.333  0.2064 -3.4053  0.7601
  561MOL0     H77353   3.486   5.560   8.097  0.3133  0.3946  1.6702
  561MOL0     H77354   3.643   5.492   8.091 -0.2873 -0.4873 -0.7765
  561MOL0     H77355   3.531   5.265   8.152  0.1247 -0.5288 -0.9535
  561MOL0     H77356   3.375   5.340   8.139  0.6139  0.9958  1.3443
  561MOL0     H77357   3.577   5.359   7.910 -0.0594 -3.8520 -2.5806
  561MOL0     H77358   3.493   5.212   7.934 -2.3334 -0.2029  0.6968
  561MOL0     H77359   3.343   5.477   7.898  0.2177  1.2358 -4.1488
  561MOL0     H77360   3.283   5.309   7.888 -0.2325  0.8100  4.0039
  561MOL0     H77361   3.478   5.473   7.689 -0.6763 -0.1995 -2.3953
  561MOL0     H77362   3.456   5.299   7.693 -0.9988 -0.4676  0.7609
  561MOL0     H77363   3.327   5.463   7.528 -2.3895  2.2585  0.1574
  561MOL0     H77364   3.256   5.530   7.660  0.1414  0.4433 -1.8118
  561MOL0     H77365   3.240   5.225   7.614  0.8751  0.1597 -2.0554
  561MOL0     H77366   3.099   5.318   7.679 -2.6310 -2.2508 -1.8766
  561MOL0     H77367   2.975   5.492   7.460  0.3279 -0.9029  2.3949
  561MOL0     H77368   2.986   5.415   7.079  0.5317  2.0100 -1.2954
  561MOL0     H77369   2.995   5.563   7.170 -0.0130 -0.1519 -1.9854
  561MOL0     H77370   2.793   5.324   7.181  0.4751  1.1461  0.0986
  561MOL0     H77371   2.770   5.472   7.280  1.7598  0.3959  1.6628
  561MOL0     H77372   2.621   5.490   7.066 -0.1087 -0.1269  1.0588
  561MOL0     H77373   2.746   5.600   7.059 -0.6552  0.2858 -1.4167
  561MOL0     H77374   2.871   5.463   6.909 -0.1765 -1.6232 -0.5051
  561MOL0     H77375   2.765   5.323   6.928 -2.9070  0.7412  0.2882
  561MOL0     H77376   2.907   5.439   6.716 -1.0988 -3.1459  1.1232
  561MOL0     H77377   3.057   5.331   6.575  0.4439  1.5103 -0.7873
  561MOL0     H77378   3.023   5.391   6.409 -3.1206  1.6469 -0.6697
  561MOL0     H77379   2.989   5.219   6.463 -3.3187  0.1992 -0.6553
  561MOL0     H77380   2.697   5.199   6.033 -0.0899 -0.6215 -3.6661
  561MOL0     H77381   2.758   5.204   5.804 -0.2108 -2.6421  0.0404
  561MOL0     H77382   2.904   5.132   5.595 -1.7613  1.2500 -3.5820
  561MOL0     H77383   2.852   5.289   5.634 -0.2366 -1.0218 -0.2012
  561MOL0     H77384   3.084   5.191   5.464  0.2875 -0.6997  0.0297
  561MOL0     H77385   2.943   5.292   5.418  1.2724 -3.7104 -2.0598
  561MOL0     H77386   3.179   5.392   5.605  2.3089 -0.5636 -1.3177
  561MOL0     H77387   3.036   5.472   5.531 -1.3639 -2.0720  1.8921
  561MOL0     H77388   3.161   5.400   5.297  2.0894 -2.9488 -0.1217
  561MOL0     H77389   3.302   5.395   5.412  1.2385  1.6075 -1.2557
  561MOL0     H77390   3.284   5.612   5.289  3.9666  0.3963  1.0267
  561MOL0     H77391   3.137   5.642   5.379  0.4560  0.2168  0.2875
  561MOL0     H77392   3.408   5.590   5.488 -0.2529 -3.6960  4.8424
  561MOL0     H77393   3.282   5.613   5.596  1.3179 -0.4190  1.1408
  561MOL0     H77394   3.341   5.840   5.393  0.3790 -1.3699 -0.3942
  561MOL0     H77395   3.412   5.835   5.548  1.4758 -0.2302 -1.6922
  561MOL0     H77396   3.233   5.968   5.597  1.4604 -1.4373  0.1123
  561MOL0     H77397   3.160   5.808   5.628 -0.1613  2.1300  1.9223
  561MOL0     H77398   3.172   5.236   5.948  0.0335 -2.4283  2.2909
  561MOL0     H77399   3.081   5.230   6.185  0.2819 -0.0347 -0.0127
  561MOL0     H77400   2.520   5.386   6.413  0.5029 -4.1729 -0.7588
  561MOL0     H77401   2.492   5.480   6.643 -1.2640 -1.8463 -1.2682
  561MOL0     H77402   3.711   5.170   8.451 -0.5234 -1.4341 -0.7244
  561MOL0     H77403   3.689   5.102   8.700  2.2725  2.4163  1.4664
  561MOL0     H77404   3.754   5.212   9.091  0.5598  0.4343  0.5409
  561MOL0     H77405   3.805   5.155   9.323  1.3497 -1.3073 -1.8603
  561MOL0     H77406   3.839   5.073   9.498 -2.4722  2.2875 -2.0179
  561MOL0     H77407   3.733   5.089   9.633  2.9846  2.5388 -1.3865
  561MOL0     H77408   3.854   4.912   9.717 -0.8611 -1.3317  1.6743
  561MOL0     H77409   3.852   4.840   9.544  0.1760 -0.5097  0.3367
  561MOL0     H77410   3.606   4.879   9.712  1.1053 -1.2574  3.3585
  561MOL0     H77411   3.637   4.774   9.566  1.2183  4.1608 -1.8165
  561MOL0     H77412   3.805   4.642   9.724 -2.7330 -3.5123  0.5225
  561MOL0     H77413   3.629   4.625   9.742 -0.0937 -2.1491  0.0125
  561MOL0     H77414   3.774   4.865  10.079 -1.7616 -1.0398  1.1487
  561MOL0     H77415   3.453   4.903   9.326 -0.4267  0.0404 -0.0173
  561MOL0     H77416   3.396   4.866   8.998  0.4640  3.2429 -2.2619
  561MOL0     H77417   3.312   4.877   9.161 -2.0321  1.9572  0.6434
  561MOL0     H77418   3.295   5.003   9.041  2.1031  0.0680 -4.1904
  562MOL0     O77419   9.529   7.984   3.252 -0.0060 -0.2772  0.5366
  562MOL0     C77420   9.429   7.970   3.182  0.6982 -0.0395  0.6985
  562MOL0     O77421   9.302   8.016   3.218  1.1079  0.0493  0.7081
  562MOL0     C77422   9.306   8.104   3.321  0.5173 -0.6635 -0.1514
  562MOL0     C77423   9.358   8.068   3.446  0.7048  0.5911 -1.1391
  562MOL0     C77424   9.377   8.157   3.550  0.0300 -0.3068 -1.1740
  562MOL0     C77425   9.358   8.297   3.532 -0.7915 -0.7674 -0.1006
  562MOL0     O77426   9.382   8.383   3.636 -0.1294 -0.4924  0.4532
  562MOL0     C77427   9.359   8.526   3.636 -0.2503  0.3088 -0.7595
  562MOL0     C77428   9.471   8.610   3.691 -0.2686  0.4838  0.3917
  562MOL0     C77429   9.596   8.533   3.725  0.2862 -0.4227  0.0949
  562MOL0     C77430   9.707   8.626   3.768 -0.4723 -0.4353 -0.2845
  562MOL0     C77431   9.840   8.570   3.791 -0.0846  0.1299  0.5096
  562MOL0     C77432   9.867   8.413   3.777  0.0230 -0.3626 -0.3565
  562MOL0     C77433  10.006   8.383   3.830 -0.0264  0.7801  1.1300
  562MOL0     C77434  10.032   8.233   3.837 -0.0958  0.3337 -0.3294
  562MOL0     N77435  10.176   8.208   3.842 -0.6337 -0.2284 -0.5269
  562MOL0     C77436  10.254   8.207   3.954  0.0760 -0.4916 -1.0436
  562MOL0     C77437  10.377   8.179   3.913 -1.3930  0.0030 -0.0452
  562MOL0     C77438  10.491   8.155   4.006 -0.5673 -0.6545  0.0729
  562MOL0     C77439  10.629   8.174   3.940  0.5156 -0.4468  0.2531
  562MOL0     C77440  10.751   8.137   4.030 -0.5526  0.0152 -0.1219
  562MOL0     C77441  10.795   8.257   4.123  0.8446  0.1834 -0.0362
  562MOL0     O77442  10.786   8.387   4.056  0.0230 -0.1942  0.3210
  562MOL0     C77443  10.889   8.413   3.967 -0.1345 -0.2669 -0.0162
  562MOL0     C77444  10.892   8.532   3.887 -0.4123 -0.5651 -0.6843
  562MOL0     C77445  11.005   8.563   3.810 -0.4078 -0.7535 -0.5063
  562MOL0     C77446  11.017   8.692   3.744  0.3956 -0.0699 -0.1039
  562MOL0     C77447  11.102   8.468   3.789  0.8411  0.1082 -0.1008
  562MOL0     C77448  11.197   8.466   3.673  0.5846  0.1953 -0.5099
  562MOL0     O77449  11.323   8.433   3.697 -0.2924  0.0531  0.2881
  562MOL0     C77450  11.406   8.371   3.600 -0.2785  0.7245 -0.3755
  562MOL0     C77451  11.545   8.384   3.617 -0.4526  0.0155  0.3545
  562MOL0     C77452  11.636   8.312   3.546  0.3131 -0.1187 -0.2274
  562MOL0     C77453  11.597   8.217   3.448  0.1997 -0.2139 -0.8737
  562MOL0     O77454  11.683   8.156   3.362  0.5130  0.2617  0.1596
  562MOL0     C77455  11.696   8.009   3.375  0.5756 -0.1469  0.1402
  562MOL0     C77456  11.832   7.966   3.331  0.0846 -0.0130 -0.5616
  562MOL0     C77457  11.842   8.016   3.190 -0.1545  0.4677  0.0401
  562MOL0     C77458  11.957   7.939   3.113 -0.1784 -0.3094  0.4065
  562MOL0     C77459  11.973   7.997   2.977 -0.1910 -0.1789 -0.3644
  562MOL0     C77460  12.102   7.950   2.906 -0.7866  0.3500  0.1001
  562MOL0     C77461  12.116   7.979   2.753  0.8933 -0.3641 -0.4269
  562MOL0     C77462  12.266   7.947   2.720  1.1214 -0.1096  0.5203
  562MOL0    Cl77463  12.284   7.776   2.715  0.0896  0.1393  0.0507
  562MOL0     C77464  11.459   8.197   3.438  0.6729 -0.2064 -0.8597
  562MOL0     C77465  11.358   8.279   3.500 -0.1462 -0.1975 -0.5726
  562MOL0     O77466  11.155   8.487   3.561 -0.5670 -0.6205 -0.4461
  562MOL0     C77467  11.101   8.349   3.854  0.0899  0.6260  0.6288
  562MOL0     C77468  10.994   8.322   3.942  1.2561  0.3344 -0.4005
  562MOL0     N77469  10.376   8.168   3.777 -0.0704  0.4475  0.5516
  562MOL0     N77470  10.255   8.181   3.733  0.5561  1.3386  0.0291
  562MOL0     C77471   9.319   8.332   3.396 -0.0911 -0.5773  0.1115
  562MOL0     C77472   9.295   8.242   3.293 -0.1254  0.3791  0.4862
  562MOL0     C77473   9.436   7.868   3.074 -0.9752 -0.3005  0.1035
  562MOL0     C77474   9.317   7.803   3.036  0.6084 -0.8927  0.0416
  562MOL0     C77475   9.306   7.689   2.958 -1.2357 -0.0110  0.3515
  562MOL0     C77476   9.424   7.623   2.917  0.1227 -0.0240  0.2102
  562MOL0     O77477   9.415   7.532   2.819 -0.2848 -0.3531  0.2771
  562MOL0     C77478   9.525   7.434   2.817  1.0359 -0.0535 -0.9282
  562MOL0     C77479   9.465   7.291   2.802 -0.0303  1.5045 -0.1835
  562MOL0     C77480   9.357   7.260   2.900 -0.7815  0.7355  0.3306
  562MOL0     C77481   9.357   7.098   2.907 -0.0450 -1.0596  0.4273
  562MOL0     C77482   9.246   7.046   2.985 -0.0564 -0.0860 -0.3935
  562MOL0     C77483   9.150   6.996   3.053 -0.1781  0.4734 -0.3128
  562MOL0     C77484   9.545   7.691   2.951  0.2418  0.7141  0.1411
  562MOL0     C77485   9.548   7.806   3.026 -1.3092 -0.4385 -0.7417
  562MOL0     C77486   9.678   7.877   3.051 -0.1744 -0.5429  0.5153
  562MOL0     H77487   9.392   7.967   3.468  1.5383  0.9172 -0.9125
  562MOL0     H77488   9.423   8.129   3.644  1.6825  4.0071 -0.4508
  562MOL0     H77489   9.275   8.542   3.704  0.7656 -0.8523  0.8245
  562MOL0     H77490   9.328   8.572   3.542  0.3942  0.3504 -0.9542
  562MOL0     H77491   9.496   8.675   3.606 -0.7093  1.1433  0.7631
  562MOL0     H77492   9.442   8.671   3.776 -2.1514 -0.6919  0.6415
  562MOL0     H77493   9.573   8.461   3.804 -1.4389 -0.0610 -0.0388
  562MOL0     H77494   9.641   8.483   3.639  1.2562 -2.3298  1.6261
  562MOL0     H77495   9.722   8.702   3.690  2.0003 -1.1350 -0.5578
  562MOL0     H77496   9.683   8.684   3.857  3.1225  1.8427 -0.5926
  562MOL0     H77497   9.881   8.620   3.879 -0.1724  1.2904 -0.0895
  562MOL0     H77498   9.912   8.602   3.715 -1.0100 -2.6641 -1.7263
  562MOL0     H77499   9.796   8.356   3.838 -1.0396  1.3400  0.0728
  562MOL0     H77500   9.868   8.376   3.674  1.1516  1.3348 -0.9908
  562MOL0     H77501  10.011   8.440   3.923 -3.5361  1.5378  0.9761
  562MOL0     H77502  10.080   8.419   3.758  0.8938  0.6365  1.9851
  562MOL0     H77503   9.979   8.196   3.925 -0.5615  2.5498  0.3746
  562MOL0     H77504   9.990   8.175   3.754  0.3295  1.1705 -1.1421
  562MOL0     H77505  10.239   8.198   4.061  0.1280 -0.8104 -1.0634
  562MOL0     H77506  10.473   8.055   4.046 -1.9863  0.7991  3.4860
  562MOL0     H77507  10.493   8.222   4.092 -1.8783 -2.7413  1.8458
  562MOL0     H77508  10.629   8.107   3.854  2.8688  1.7828 -1.6147
  562MOL0     H77509  10.644   8.279   3.915  1.0980 -0.5244  0.2590
  562MOL0     H77510  10.729   8.049   4.091  2.4292  0.9565  2.6070
  562MOL0     H77511  10.822   8.101   3.954 -1.9778 -1.5912 -0.7546
  562MOL0     H77512  10.718   8.259   4.201  1.5487 -0.7026  0.7017
  562MOL0     H77513  10.892   8.233   4.168  2.7306  3.7427 -1.6986
  562MOL0     H77514  10.809   8.601   3.903  1.3933  0.9915  3.4121
  562MOL0     H77515  10.959   8.770   3.794 -0.4463  0.4704 -1.8309
  562MOL0     H77516  10.993   8.677   3.638 -0.0146 -0.2915  0.0193
  562MOL0     H77517  11.119   8.729   3.727  0.2496 -0.1413 -1.2080
  562MOL0     H77518  11.574   8.444   3.702 -1.5923  1.6808 -0.3798
  562MOL0     H77519  11.741   8.314   3.573  0.2411 -0.9068  0.1535
  562MOL0     H77520  11.695   7.973   3.478  1.3681 -0.4342  0.0541
  562MOL0     H77521  11.622   7.962   3.310 -0.5466  1.9636 -0.1972
  562MOL0     H77522  11.911   7.999   3.398  2.4773 -3.5897 -1.3246
  562MOL0     H77523  11.846   7.857   3.331  2.0160  0.1844  1.3804
  562MOL0     H77524  11.867   8.122   3.179  1.9080 -0.1783 -2.5579
  562MOL0     H77525  11.751   7.999   3.131 -1.9477 -0.3842  2.8648
  562MOL0     H77526  11.950   7.832   3.092 -3.8275  0.0326 -1.0447
  562MOL0     H77527  12.040   7.958   3.181 -0.3133  0.3409  0.4022
  562MOL0     H77528  11.876   7.984   2.928 -0.0223 -0.0021 -0.7476
  562MOL0     H77529  11.985   8.105   2.978 -0.3759  0.0211 -4.2527
  562MOL0     H77530  12.102   7.844   2.930 -1.2849  0.1641 -0.6691
  562MOL0     H77531  12.183   8.002   2.958 -1.9392  2.1153  0.2368
  562MOL0     H77532  12.106   8.083   2.722  1.7426 -0.9772 -2.9345
  562MOL0     H77533  12.050   7.918   2.690  0.4233  2.1822 -2.5262
  562MOL0     H77534  12.337   7.992   2.790  0.5524  1.4685  0.1205
  562MOL0     H77535  12.295   7.983   2.621 -3.6197  0.0763 -1.0234
  562MOL0     H77536  11.442   8.128   3.356 -0.4860 -1.0161  0.0388
  562MOL0     H77537  11.253   8.270   3.474 -0.1226  1.6309 -1.5277
  562MOL0     H77538  11.176   8.281   3.816 -1.0341  1.2016 -2.9936
  562MOL0     H77539  10.993   8.231   4.002  0.1744  1.4405  1.3497
  562MOL0     H77540   9.299   8.438   3.391 -0.3123 -0.1782  4.9247
  562MOL0     H77541   9.285   8.271   3.189 -0.1405 -2.2959 -0.3418
  562MOL0     H77542   9.221   7.833   3.078  0.6524  0.4042 -0.7141
  562MOL0     H77543   9.207   7.661   2.924 -0.4739  2.1797 -4.4902
  562MOL0     H77544   9.603   7.446   2.740  1.2576 -3.2821 -1.3735
  562MOL0     H77545   9.583   7.437   2.910 -2.1549  0.1385  1.1845
  562MOL0     H77546   9.543   7.215   2.811 -3.6572 -2.7438 -1.0090
  562MOL0     H77547   9.425   7.286   2.700 -0.6517  1.3668  0.0607
  562MOL0     H77548   9.395   7.301   2.994 -4.2755  0.6486  1.9576
  562MOL0     H77549   9.259   7.302   2.876 -2.1003 -1.0559  2.1688
  562MOL0     H77550   9.452   7.057   2.941 -0.1987 -1.0059  0.9362
  562MOL0     H77551   9.338   7.062   2.805  4.2162  0.2050 -1.0148
  562MOL0     H77552   9.068   6.964   3.114 -0.8566  3.3054  0.4251
  562MOL0     H77553   9.641   7.649   2.922 -0.2280 -2.3656  2.5134
  562MOL0     H77554   9.709   7.872   3.156  1.6470  0.1080  0.0411
  562MOL0     H77555   9.758   7.834   2.989 -1.5613 -0.9232 -1.0720
  562MOL0     H77556   9.672   7.980   3.014  0.4846 -0.9424 -0.7702
  563MOL0     O77557   6.378   9.898   5.660 -0.2394 -0.0506 -0.3705
  563MOL0     C77558   6.319   9.949   5.572 -0.8198  0.5372  0.0932
  563MOL0     O77559   6.195  10.003   5.575  0.3138 -0.8032  0.5828
  563MOL0     C77560   6.153  10.043   5.698  0.1235  0.2237  0.4234
  563MOL0     C77561   6.119   9.954   5.794 -1.0646  0.4327  0.4097
  563MOL0     C77562   6.080   9.985   5.924  0.8073  0.5715 -0.2995
  563MOL0     C77563   6.078  10.123   5.960  0.4064  0.1224  1.1121
  563MOL0     O77564   6.051  10.161   6.082 -0.2466  0.5440 -0.3773
  563MOL0     C77565   5.942  10.098   6.151 -0.2527 -0.5586 -0.1224
  563MOL0     C77566   5.808  10.081   6.080  0.3205 -0.5308  0.8547
  563MOL0     C77567   5.736  10.210   6.054  0.0730  1.2113 -0.8780
  563MOL0     C77568   5.601  10.194   5.995  0.6793 -0.2690 -0.6757
  563MOL0     C77569   5.607  10.114   5.866  0.8013 -0.4809 -0.4743
  563MOL0     C77570   5.466  10.125   5.805 -0.1083  0.8337 -0.1994
  563MOL0     C77571   5.469  10.052   5.667  0.2068  0.5676  0.3468
  563MOL0     C77572   5.358  10.094   5.564 -0.0443  1.0126  0.3607
  563MOL0     N77573   5.323   9.976   5.481  0.4988  1.2778  0.1107
  563MOL0     C77574   5.408   9.906   5.397  0.1119  0.7664 -0.7643
  563MOL0     C77575   5.330   9.807   5.360 -0.6536 -0.6370 -0.1618
  563MOL0     C77576   5.405   9.683   5.319 -0.4510  0.2387 -0.6736
  563MOL0     C77577   5.388   9.648   5.168  0.2367  0.0519 -0.5017
  563MOL0     C77578   5.509   9.686   5.084  0.3458  0.9615 -0.8968
  563MOL0     C77579   5.497   9.662   4.932 -0.2436  0.5349 -0.1752
  563MOL0     O77580   5.567   9.539   4.901 -0.4258  0.4946  0.6412
  563MOL0     C77581   5.567   9.470   4.781 -0.4576  0.0152 -0.8191
  563MOL0     C77582   5.514   9.520   4.662  0.0967 -0.0287 -0.4096
  563MOL0     C77583   5.528   9.449   4.541  0.2888  1.1114  0.2644
  563MOL0     C77584   5.479   9.522   4.415  0.8890 -0.2603  0.4121
  563MOL0     C77585   5.601   9.327   4.542 -0.2487  0.0816  0.2209
  563MOL0     C77586   5.611   9.242   4.419 -0.2818 -0.3281  0.7964
  563MOL0     O77587   5.690   9.124   4.448  0.4344  0.2027  0.2053
  563MOL0     C77588   5.694   9.024   4.347 -0.2602 -0.6310 -0.2290
  563MOL0     C77589   5.760   9.049   4.227 -0.2497 -0.7936  0.9041
  563MOL0     C77590   5.766   8.947   4.129 -0.0268 -0.0907  1.0448
  563MOL0     C77591   5.694   8.829   4.146  0.6689 -0.3302  1.1365
  563MOL0     O77592   5.662   8.745   4.043 -0.3171 -0.3979 -0.5037
  563MOL0     C77593   5.736   8.754   3.923 -0.5438  0.9791  0.0850
  563MOL0     C77594   5.669   8.673   3.801 -0.2094 -0.2689 -0.2729
  563MOL0     C77595   5.691   8.517   3.811  1.0827  0.1635  0.5681
  563MOL0     C77596   5.611   8.459   3.688  0.4639 -0.6446  0.8160
  563MOL0     C77597   5.632   8.312   3.661  0.0319  0.1293 -0.4918
  563MOL0     C77598   5.756   8.283   3.589 -0.0223 -0.0490 -0.1047
  563MOL0     C77599   5.753   8.144   3.512  0.6361  0.4538  0.4869
  563MOL0     C77600   5.897   8.088   3.496 -0.0126 -0.3971 -0.3893
  563MOL0    Cl77601   6.013   8.200   3.435  0.0793 -0.2973 -0.3808
  563MOL0     C77602   5.632   8.804   4.272  0.2876  0.4344  0.6613
  563MOL0     C77603   5.626   8.895   4.370 -0.1448 -0.8441 -0.3736
  563MOL0     O77604   5.571   9.278   4.308  1.0368  0.3785 -0.4931
  563MOL0     C77605   5.665   9.285   4.659 -0.4240  0.0955 -0.0144
  563MOL0     C77606   5.651   9.360   4.776  0.3594  0.3449 -0.9290
  563MOL0     N77607   5.197   9.826   5.393  0.3565  0.3601  0.0155
  563MOL0     N77608   5.199   9.917   5.480  0.3192 -0.0633 -0.1419
  563MOL0     C77609   6.100  10.221   5.853 -0.1781  0.2716 -0.3174
  563MOL0     C77610   6.148  10.179   5.727 -0.7214 -0.0713  0.5869
  563MOL0     C77611   6.386   9.932   5.441 -0.5609 -1.0821  0.5608
  563MOL0     C77612   6.507   9.853   5.430  0.1526 -0.3824  0.6109
  563MOL0     C77613   6.564   9.820   5.301  0.6673  0.0945 -0.3808
  563MOL0     C77614   6.506   9.862   5.180 -0.0697 -0.4304  0.2539
  563MOL0     O77615   6.580   9.825   5.068 -0.3906  0.0024  0.6853
  563MOL0     C77616   6.610   9.943   4.981  0.6342 -0.2306 -0.0148
  563MOL0     C77617   6.761   9.948   4.934  0.3819 -0.4379 -0.2397
  563MOL0     C77618   6.865   9.949   5.043  0.0380  0.2708 -0.3810
  563MOL0     C77619   6.968  10.051   5.015 -0.7055 -0.1165  0.1073
  563MOL0     C77620   7.052  10.013   4.898  0.2562 -0.4896 -0.2778
  563MOL0     C77621   7.127   9.990   4.813 -0.3538  0.5039 -0.4095
  563MOL0     C77622   6.401   9.947   5.200  0.1839 -0.0523  0.0326
  563MOL0     C77623   6.334   9.981   5.320  0.2502  0.9247 -0.0629
  563MOL0     C77624   6.217  10.064   5.300  0.3398 -0.3921  0.9493
  563MOL0     H77625   6.141   9.851   5.767  4.3676  1.0726  1.2478
  563MOL0     H77626   6.070   9.911   6.002  0.0293  0.2877 -0.6659
  563MOL0     H77627   5.930  10.156   6.244  2.2637  1.6260 -1.0212
  563MOL0     H77628   5.969  10.000   6.191  1.2457  0.4198  1.4241
  563MOL0     H77629   5.807  10.007   6.000  0.0797 -0.1644  0.5131
  563MOL0     H77630   5.751  10.026   6.156  0.6990 -2.3780 -0.1294
  563MOL0     H77631   5.733  10.269   6.146 -1.7579 -1.0897  0.6507
  563MOL0     H77632   5.794  10.274   5.986 -1.7799  1.1422 -2.6365
  563MOL0     H77633   5.532  10.137   6.058  0.2720 -1.8069 -2.4422
  563MOL0     H77634   5.565  10.296   5.979  2.1859  0.4112  0.0923
  563MOL0     H77635   5.624  10.010   5.895  1.1001 -0.5775 -0.9879
  563MOL0     H77636   5.687  10.145   5.798  0.1602  0.4679 -0.8167
  563MOL0     H77637   5.402  10.062   5.868  3.6081 -0.9826  2.1493
  563MOL0     H77638   5.441  10.231   5.805  1.8727  1.4864  3.8461
  563MOL0     H77639   5.457   9.945   5.685  0.2890  0.4313 -0.3991
  563MOL0     H77640   5.568  10.063   5.621  0.2282 -0.8961  0.0126
  563MOL0     H77641   5.276  10.135   5.624  0.3427  2.2363  0.0864
  563MOL0     H77642   5.402  10.183   5.517 -1.4291  1.3753 -0.2989
  563MOL0     H77643   5.514   9.924   5.383  1.0355 -0.4012  3.3757
  563MOL0     H77644   5.359   9.599   5.371 -0.8376 -0.9888 -2.8826
  563MOL0     H77645   5.511   9.687   5.345 -0.9078  1.1683  1.2263
  563MOL0     H77646   5.374   9.540   5.157 -1.3939  0.2939 -1.1702
  563MOL0     H77647   5.310   9.712   5.124  0.1371  0.0426 -0.3414
  563MOL0     H77648   5.522   9.793   5.101 -1.6713  0.9362  1.3591
  563MOL0     H77649   5.602   9.634   5.108 -0.5011 -0.8478 -1.3398
  563MOL0     H77650   5.391   9.673   4.907 -0.0502  0.8081 -0.9043
  563MOL0     H77651   5.555   9.742   4.885  0.6693  0.7299  1.2295
  563MOL0     H77652   5.463   9.615   4.654 -1.7048 -1.1009 -5.3178
  563MOL0     H77653   5.492   9.628   4.441 -1.6054 -0.3216  2.2372
  563MOL0     H77654   5.374   9.502   4.392  0.3811 -0.5252  2.7095
  563MOL0     H77655   5.546   9.501   4.331 -0.6338 -1.0361 -0.6346
  563MOL0     H77656   5.807   9.145   4.214  0.2712 -1.2690 -0.9768
  563MOL0     H77657   5.806   8.973   4.031 -1.4723  0.4719  0.5794
  563MOL0     H77658   5.732   8.859   3.892  0.1457  0.5801 -1.4508
  563MOL0     H77659   5.840   8.728   3.942 -0.6361  1.8984  2.1852
  563MOL0     H77660   5.563   8.699   3.809 -0.5078 -1.6353  0.4680
  563MOL0     H77661   5.715   8.697   3.705 -1.1752 -1.0700 -0.9627
  563MOL0     H77662   5.660   8.479   3.908  2.2918  3.1705  2.2491
  563MOL0     H77663   5.794   8.483   3.792  0.4882 -1.1179 -0.5720
  563MOL0     H77664   5.621   8.522   3.599 -0.4511  1.0868  1.8751
  563MOL0     H77665   5.504   8.468   3.711 -0.3007  2.0236 -2.9466
  563MOL0     H77666   5.638   8.261   3.757 -1.1339  3.9362  1.7978
  563MOL0     H77667   5.536   8.273   3.624 -1.3326  1.3599  1.5348
  563MOL0     H77668   5.833   8.277   3.667 -1.3156 -1.7416  1.1224
  563MOL0     H77669   5.774   8.366   3.520  1.6170  1.7746  2.2992
  563MOL0     H77670   5.718   8.175   3.412 -0.4314 -0.5122  0.5470
  563MOL0     H77671   5.685   8.076   3.562  1.3156  0.3497  1.2884
  563MOL0     H77672   5.903   7.997   3.435  1.5586  0.2369 -1.2430
  563MOL0     H77673   5.929   8.072   3.599  2.2734  1.8881 -0.6421
  563MOL0     H77674   5.576   8.717   4.306  1.2205 -0.8640 -0.9853
  563MOL0     H77675   5.580   8.872   4.466  1.3351  1.3971  0.9874
  563MOL0     H77676   5.715   9.190   4.672 -2.2310 -1.1518 -1.5874
  563MOL0     H77677   5.706   9.342   4.867  0.9106  1.5103 -1.0090
  563MOL0     H77678   6.081  10.322   5.886  0.8600  1.5692 -3.3103
  563MOL0     H77679   6.180  10.262   5.665 -1.2471  1.6137  2.4864
  563MOL0     H77680   6.550   9.794   5.510  0.4493  0.2833  0.9474
  563MOL0     H77681   6.630   9.734   5.296 -0.0702 -0.4776 -5.5300
  563MOL0     H77682   6.552   9.941   4.889  2.5332  0.6563 -1.2986
  563MOL0     H77683   6.571  10.034   5.028 -3.6686 -0.2178 -3.1026
  563MOL0     H77684   6.766  10.044   4.883  0.0066 -0.0525  0.4394
  563MOL0     H77685   6.771   9.866   4.862  1.6292 -0.6699  0.1822
  563MOL0     H77686   6.817   9.986   5.135 -0.1406  1.6035 -0.9922
  563MOL0     H77687   6.909   9.852   5.070 -1.1057  0.5248  2.9483
  563MOL0     H77688   7.027  10.062   5.106 -1.9226  4.2104  0.5812
  563MOL0     H77689   6.926  10.151   5.002 -0.8007 -0.2859 -1.0168
  563MOL0     H77690   7.186   9.969   4.726  0.9035  0.4927  0.4061
  563MOL0     H77691   6.368   9.976   5.101 -0.0660 -2.2715 -0.5682
  563MOL0     H77692   6.125  10.012   5.328  1.3647 -2.5231  0.5245
  563MOL0     H77693   6.227  10.153   5.363 -0.2682  2.7769 -2.9948
  563MOL0     H77694   6.210  10.112   5.202  1.5077 -0.0791  1.0034
  564MOL0     O77695   0.020   5.302   6.235  0.1464  0.1899 -0.8787
  564MOL0     C77696   0.052   5.213   6.312  0.5241  0.0160 -0.4504
  564MOL0     O77697  -0.025   5.103   6.337 -0.0103 -0.7467 -1.0463
  564MOL0     C77698  -0.155   5.109   6.298 -0.1901  0.5503  0.7916
  564MOL0     C77699  -0.244   5.210   6.336  0.4895  0.0190 -0.3499
  564MOL0     C77700  -0.376   5.220   6.285 -1.1594 -0.0386 -0.2525
  564MOL0     C77701  -0.423   5.124   6.192  0.7257 -0.3972 -0.2887
  564MOL0     O77702  -0.561   5.124   6.164 -0.3372 -1.2523  0.1911
  564MOL0     C77703  -0.642   5.108   6.275  1.3145  1.1187 -0.1050
  564MOL0     C77704  -0.695   4.956   6.269 -0.6072  1.1170  0.1572
  564MOL0     C77705  -0.841   4.945   6.307 -0.5510  0.5061 -0.3198
  564MOL0     C77706  -0.887   4.794   6.292 -0.0758  1.2998  0.1055
  564MOL0     C77707  -1.035   4.781   6.270  0.2958 -0.0004 -0.1145
  564MOL0     C77708  -1.104   4.639   6.283  0.0373 -0.0816 -0.6854
  564MOL0     C77709  -1.048   4.544   6.167  0.2155 -0.5949  0.1032
  564MOL0     C77710  -1.079   4.398   6.182 -0.3351  0.5495 -0.5435
  564MOL0     N77711  -1.218   4.363   6.202  0.6279  0.3973  0.0650
  564MOL0     C77712  -1.317   4.341   6.103 -0.2954 -0.7866 -0.7005
  564MOL0     C77713  -1.428   4.302   6.160  0.0532  0.5826 -0.6656
  564MOL0     C77714  -1.555   4.258   6.084 -0.0844  0.1417  0.7849
  564MOL0     C77715  -1.574   4.105   6.073 -0.6579 -0.8266 -0.1877
  564MOL0     C77716  -1.678   4.067   5.965 -0.6233  0.2399  0.5605
  564MOL0     C77717  -1.705   3.919   5.951  0.0059  0.4528 -0.6493
  564MOL0     O77718  -1.795   3.901   5.839  0.0478  0.6203 -0.5627
  564MOL0     C77719  -1.875   3.791   5.849  0.2156  0.7286 -0.3472
  564MOL0     C77720  -1.956   3.763   5.741  0.2143  0.1452 -0.6597
  564MOL0     C77721  -2.054   3.659   5.731  0.0962  1.0140  0.8397
  564MOL0     C77722  -2.137   3.651   5.602  0.1062  0.8836  1.1583
  564MOL0     C77723  -2.062   3.574   5.841  0.2750  0.2298 -0.4404
  564MOL0     C77724  -2.142   3.448   5.852 -0.4618  0.2668 -0.6850
  564MOL0     O77725  -2.165   3.390   5.972 -0.3706  0.0168  0.7350
  564MOL0     C77726  -2.230   3.265   5.970 -0.3925 -0.7104  0.1885
  564MOL0     C77727  -2.364   3.258   5.925 -1.0753 -0.5400 -0.7614
  564MOL0     C77728  -2.434   3.134   5.913 -0.0701  0.1029 -1.2582
  564MOL0     C77729  -2.373   3.016   5.952  0.5099 -0.3558  0.3061
  564MOL0     O77730  -2.441   2.900   5.942  0.0604  0.2696 -0.0374
  564MOL0     C77731  -2.585   2.885   5.936  0.4922 -0.1185  0.9961
  564MOL0     C77732  -2.641   2.921   6.068 -0.2505  0.4960 -0.4526
  564MOL0     C77733  -2.644   2.797   6.163 -0.1510  0.3732  0.0829
  564MOL0     C77734  -2.641   2.860   6.303  0.3649  0.1676 -0.0259
  564MOL0     C77735  -2.639   2.746   6.405 -0.2585  0.4079 -0.9464
  564MOL0     C77736  -2.608   2.797   6.546 -0.0855 -0.3074 -0.1705
  564MOL0     C77737  -2.533   2.694   6.628 -0.2810 -0.4603 -1.1306
  564MOL0     C77738  -2.519   2.757   6.776  0.2982 -0.2998  0.6517
  564MOL0    Cl77739  -2.452   2.639   6.899 -0.3486  0.1328  0.1156
  564MOL0     C77740  -2.238   3.021   5.981  0.5091 -0.2799  1.0145
  564MOL0     C77741  -2.170   3.143   6.001 -0.0985  0.3125 -0.4346
  564MOL0     O77742  -2.173   3.398   5.747  0.2387  0.0881  0.4459
  564MOL0     C77743  -1.974   3.593   5.950  0.4705  0.9282  0.5125
  564MOL0     C77744  -1.885   3.697   5.955  0.6198 -0.5434 -1.3915
  564MOL0     N77745  -1.401   4.296   6.295 -0.2344 -0.3387  0.2783
  564MOL0     N77746  -1.277   4.332   6.318  0.1799 -0.5913  0.6189
  564MOL0     C77747  -0.338   5.024   6.158  0.2364  1.0721  1.1497
  564MOL0     C77748  -0.207   5.015   6.210 -0.5881 -0.1167 -0.3055
  564MOL0     C77749   0.184   5.210   6.366 -0.3473  0.5457 -1.0046
  564MOL0     C77750   0.244   5.090   6.400  0.1346 -0.0520 -0.2133
  564MOL0     C77751   0.382   5.082   6.448 -0.1233  0.2260 -0.5937
  564MOL0     C77752   0.457   5.193   6.455  0.1196  0.0607  0.2389
  564MOL0     O77753   0.591   5.187   6.484  0.5675  0.6320  0.5443
  564MOL0     C77754   0.616   5.140   6.611  0.7490  0.1634 -0.2802
  564MOL0     C77755   0.753   5.071   6.630 -0.2272 -0.6322  0.2541
  564MOL0     C77756   0.765   4.942   6.550 -0.9592 -0.1148  0.5840
  564MOL0     C77757   0.881   4.851   6.597  0.1413 -1.1670  0.2245
  564MOL0     C77758   1.015   4.906   6.623 -0.5042 -0.2908 -0.1341
  564MOL0     C77759   1.127   4.947   6.656 -0.2233 -0.1156  0.3211
  564MOL0     C77760   0.399   5.315   6.423 -0.9448  0.0398  0.1250
  564MOL0     C77761   0.257   5.327   6.391 -0.8028  0.5916 -0.0252
  564MOL0     C77762   0.208   5.469   6.371  0.1490 -0.4273  0.6387
  564MOL0     H77763  -0.198   5.291   6.391  1.0383 -1.1092  0.9065
  564MOL0     H77764  -0.433   5.309   6.309 -0.1058  1.3144 -2.4085
  564MOL0     H77765  -0.726   5.176   6.258  0.2081 -0.3977 -0.9543
  564MOL0     H77766  -0.597   5.110   6.374 -2.5179 -0.8240  1.8988
  564MOL0     H77767  -0.688   4.911   6.170 -1.3101 -3.0119  1.7580
  564MOL0     H77768  -0.633   4.895   6.335  1.2122 -1.7399 -3.8049
  564MOL0     H77769  -0.848   4.982   6.410  3.9403 -0.1889  0.4163
  564MOL0     H77770  -0.900   5.010   6.241 -2.2175 -1.1229 -0.5159
  564MOL0     H77771  -0.849   4.758   6.196 -0.2586 -2.8580  1.4171
  564MOL0     H77772  -0.850   4.734   6.376  1.8032  1.0060 -0.8768
  564MOL0     H77773  -1.075   4.830   6.180 -1.5253 -0.4018  0.4470
  564MOL0     H77774  -1.083   4.827   6.357 -1.2865 -2.4820  0.4206
  564MOL0     H77775  -1.079   4.584   6.374  3.5749  1.0090 -0.8327
  564MOL0     H77776  -1.210   4.660   6.266  0.2701  0.0867 -2.0886
  564MOL0     H77777  -0.939   4.544   6.161  0.2310 -0.9753  0.3417
  564MOL0     H77778  -1.087   4.581   6.072  2.1190 -2.7726 -1.6627
  564MOL0     H77779  -1.039   4.339   6.099 -0.1765  0.0250 -0.0971
  564MOL0     H77780  -1.023   4.367   6.270  0.5113  3.8052  0.2248
  564MOL0     H77781  -1.315   4.364   5.997 -1.2427 -2.8587 -1.2251
  564MOL0     H77782  -1.546   4.295   5.981 -0.4866 -0.2780  0.5938
  564MOL0     H77783  -1.639   4.315   6.124  0.5540  0.8899  1.0816
  564MOL0     H77784  -1.474   4.068   6.049  0.0198  1.3196 -0.8820
  564MOL0     H77785  -1.605   4.057   6.167 -1.5035 -2.6188 -1.3334
  564MOL0     H77786  -1.777   4.109   5.989 -1.4855 -1.2322 -0.2803
  564MOL0     H77787  -1.650   4.111   5.869 -1.0568  1.6328  1.0321
  564MOL0     H77788  -1.610   3.866   5.934 -1.2408 -1.2696 -2.8525
  564MOL0     H77789  -1.759   3.883   6.039  0.9780 -0.8792 -0.5590
  564MOL0     H77790  -1.940   3.831   5.657 -2.0940 -4.5593 -5.5018
  564MOL0     H77791  -2.240   3.618   5.617 -0.0966  0.9130 -0.0882
  564MOL0     H77792  -2.093   3.571   5.542 -1.3789  0.0820  1.0968
  564MOL0     H77793  -2.137   3.747   5.550 -6.4115  0.2598 -0.8087
  564MOL0     H77794  -2.408   3.356   5.912 -0.4075  0.4109  3.0693
  564MOL0     H77795  -2.533   3.125   5.871 -1.5769  2.5247  1.3810
  564MOL0     H77796  -2.630   2.956   5.866  1.4547  0.4428  0.9375
  564MOL0     H77797  -2.614   2.786   5.899 -1.1615  1.6232 -2.9928
  564MOL0     H77798  -2.580   2.999   6.114 -0.2241  0.8056 -1.0182
  564MOL0     H77799  -2.738   2.968   6.057 -0.8911 -0.5630  0.3916
  564MOL0     H77800  -2.559   2.733   6.142 -0.4182  1.1128 -4.1556
  564MOL0     H77801  -2.737   2.742   6.147 -0.2067  0.2017  0.9526
  564MOL0     H77802  -2.730   2.922   6.312  0.9118  1.0178 -0.3528
  564MOL0     H77803  -2.551   2.920   6.322  1.2286 -0.4721 -1.8500
  564MOL0     H77804  -2.733   2.691   6.412  0.1372 -0.2984 -1.0224
  564MOL0     H77805  -2.566   2.667   6.385  2.4118  2.2130  0.9168
  564MOL0     H77806  -2.688   2.843   6.604  0.4170  1.4167 -0.8083
  564MOL0     H77807  -2.535   2.875   6.526 -0.6309  0.1979 -0.2023
  564MOL0     H77808  -2.432   2.669   6.595 -0.3405 -1.9696 -0.2381
  564MOL0     H77809  -2.589   2.600   6.625 -0.3112 -0.6190  1.9743
  564MOL0     H77810  -2.615   2.797   6.809 -0.7102 -0.3113 -1.9796
  564MOL0     H77811  -2.438   2.830   6.769  0.3135 -0.3515  0.2127
  564MOL0     H77812  -2.192   2.923   5.983 -0.6958 -1.0706 -2.3163
  564MOL0     H77813  -2.065   3.145   6.027 -0.2033 -0.0251  0.0209
  564MOL0     H77814  -1.963   3.517   6.027 -1.2581 -0.0788 -0.1787
  564MOL0     H77815  -1.819   3.696   6.041 -1.2915 -0.6300  0.1468
  564MOL0     H77816  -0.378   4.949   6.091  2.2479 -0.0457  1.1356
  564MOL0     H77817  -0.153   4.926   6.179 -0.1394  0.0166  0.0832
  564MOL0     H77818   0.194   4.995   6.382 -1.1078  0.7451 -1.1329
  564MOL0     H77819   0.426   4.986   6.474 -0.4308 -0.7270 -3.3019
  564MOL0     H77820   0.610   5.217   6.688  1.3137 -1.1041  1.0743
  564MOL0     H77821   0.549   5.057   6.640  0.7021  0.9661  2.1059
  564MOL0     H77822   0.766   5.044   6.735  2.1506 -2.1052 -0.3145
  564MOL0     H77823   0.843   5.131   6.610  0.3313 -1.1547  1.1269
  564MOL0     H77824   0.670   4.888   6.553 -2.3481  2.1882  1.1073
  564MOL0     H77825   0.785   4.967   6.445  0.6999 -1.3148  0.5786
  564MOL0     H77826   0.885   4.772   6.522 -1.3965  2.2219 -3.7480
  564MOL0     H77827   0.858   4.807   6.695  1.7330  1.4264  1.8662
  564MOL0     H77828   1.226   4.972   6.687  0.7892 -1.7632 -1.3802
  564MOL0     H77829   0.476   5.392   6.423 -0.5993 -0.2965 -0.4365
  564MOL0     H77830   0.259   5.542   6.434  1.5023 -2.6196  2.2298
  564MOL0     H77831   0.220   5.504   6.268  0.1198 -0.0469  0.7629
  564MOL0     H77832   0.104   5.481   6.402 -0.4404 -0.4571 -1.1793
  565MOL0     O77833   3.758   9.305   3.081  0.3271  0.1084 -0.2687
  565MOL0     C77834   3.782   9.390   3.162  0.2361  0.0556 -0.1381
  565MOL0     O77835   3.898   9.447   3.182 -0.4043 -0.0675  0.0362
  565MOL0     C77836   4.014   9.430   3.115 -0.1384  0.2384  1.1327
  565MOL0     C77837   4.114   9.520   3.141  0.3303 -0.8473  0.3717
  565MOL0     C77838   4.235   9.506   3.066  0.3352  0.6609  0.1015
  565MOL0     C77839   4.255   9.400   2.978  0.3155  0.2330 -0.2784
  565MOL0     O77840   4.365   9.387   2.898 -0.4277  0.0239 -0.5570
  565MOL0     C77841   4.454   9.500   2.864  0.3851  0.2756 -0.2877
  565MOL0     C77842   4.557   9.469   2.759 -0.5150  0.0625 -0.1816
  565MOL0     C77843   4.660   9.371   2.804 -0.0745 -1.0254  1.1161
  565MOL0     C77844   4.807   9.419   2.759  0.2077 -0.3920 -0.7538
  565MOL0     C77845   4.864   9.557   2.803  0.0800 -0.2471  0.4862
  565MOL0     C77846   4.976   9.599   2.706 -0.3101  0.0666 -0.1756
  565MOL0     C77847   5.053   9.720   2.770 -0.7291 -0.2685 -0.3029
  565MOL0     C77848   4.976   9.855   2.747  0.2822 -0.0613  0.6749
  565MOL0     N77849   5.062   9.972   2.764  0.3782 -0.0905  0.1577
  565MOL0     C77850   5.185   9.990   2.716 -0.0238 -1.1218 -0.2562
  565MOL0     C77851   5.220  10.115   2.758  0.0546 -0.7489 -0.0005
  565MOL0     C77852   5.350  10.197   2.726  1.4032  0.0362 -0.2398
  565MOL0     C77853   5.443  10.201   2.854 -0.8892  0.6549  0.3696
  565MOL0     C77854   5.534  10.323   2.852 -0.8279  0.2229  0.0084
  565MOL0     C77855   5.462  10.459   2.903  0.2400  0.0283  0.0240
  565MOL0     O77856   5.444  10.453   3.047 -0.9507 -0.2292  0.2015
  565MOL0     C77857   5.325  10.489   3.106  0.8866 -0.8072  0.0596
  565MOL0     C77858   5.205  10.459   3.039 -0.6158  0.8039  0.2104
  565MOL0     C77859   5.078  10.486   3.104  0.3987 -0.2531 -0.2256
  565MOL0     C77860   4.949  10.432   3.041 -0.1920  0.1085 -0.8263
  565MOL0     C77861   5.083  10.555   3.229 -0.4182  0.4641  0.3433
  565MOL0     C77862   4.961  10.583   3.307  1.4637 -0.0563 -1.1554
  565MOL0     O77863   4.846  10.587   3.241  0.1829  0.5183 -0.1662
  565MOL0     C77864   4.733  10.642   3.295 -0.2411 -0.6650  0.2222
  565MOL0     C77865   4.616  10.572   3.275 -1.0289 -0.8027 -0.3477
  565MOL0     C77866   4.501  10.632   3.314 -0.1593 -0.4350  0.4945
  565MOL0     C77867   4.493  10.761   3.369  0.5570  0.1400 -0.3780
  565MOL0     O77868   4.377  10.805   3.437  0.0369 -0.5795  0.0298
  565MOL0     C77869   4.264  10.712   3.447 -0.6454 -0.2136  0.8033
  565MOL0     C77870   4.145  10.766   3.525  0.1634  1.0901 -0.0824
  565MOL0     C77871   4.072  10.643   3.590  0.3643 -0.0313  0.5934
  565MOL0     C77872   3.983  10.573   3.488  0.2089 -0.8390 -0.4567
  565MOL0     C77873   3.885  10.471   3.549 -0.5347  0.5544 -0.2247
  565MOL0     C77874   3.939  10.344   3.612  0.1095  0.2046  0.0707
  565MOL0     C77875   3.941  10.355   3.766 -0.5220 -0.2401  0.8765
  565MOL0     C77876   3.894  10.229   3.834 -0.2969 -0.7762 -0.3445
  565MOL0    Cl77877   4.029  10.099   3.808  0.3779 -0.1049 -0.2436
  565MOL0     C77878   4.610  10.822   3.402 -0.2821 -0.1609 -0.2194
  565MOL0     C77879   4.733  10.768   3.357  0.2509 -0.7051  0.6662
  565MOL0     O77880   4.970  10.598   3.430  0.3311  0.3080 -0.1265
  565MOL0     C77881   5.202  10.592   3.288  0.1565  0.3126  0.0912
  565MOL0     C77882   5.321  10.553   3.229 -1.3438 -0.7319  0.7416
  565MOL0     N77883   5.118  10.173   2.836 -0.2548  1.0472  0.0598
  565MOL0     N77884   5.015  10.083   2.829  0.6081 -0.2800 -0.0333
  565MOL0     C77885   4.156   9.305   2.975 -0.3547  0.2919  0.2946
  565MOL0     C77886   4.040   9.313   3.051  0.1888  1.1929  0.0280
  565MOL0     C77887   3.685   9.424   3.263  0.1542  1.0295  0.2240
  565MOL0     C77888   3.728   9.497   3.377  0.2929 -0.5207 -1.0275
  565MOL0     C77889   3.645   9.531   3.482 -0.0639 -0.7482  0.6196
  565MOL0     C77890   3.512   9.494   3.478  0.1441 -0.3663 -0.8358
  565MOL0     O77891   3.423   9.523   3.581  0.4945 -0.4543  0.3754
  565MOL0     C77892   3.468   9.606   3.687 -1.1524 -0.0975  1.1659
  565MOL0     C77893   3.364   9.618   3.796 -0.2204  0.3995 -0.2650
  565MOL0     C77894   3.225   9.663   3.746 -0.1639  0.6768 -0.6341
  565MOL0     C77895   3.122   9.620   3.842 -0.4588  0.3254 -0.0629
  565MOL0     C77896   2.993   9.673   3.791 -0.4775 -0.1826  0.6276
  565MOL0     C77897   2.892   9.751   3.770 -0.3349  0.4311  0.1475
  565MOL0     C77898   3.458   9.416   3.367 -0.4844 -0.8208  0.1586
  565MOL0     C77899   3.540   9.385   3.259 -1.1294  0.2421  0.6615
  565MOL0     C77900   3.476   9.327   3.136 -0.8593 -0.1951 -1.5826
  565MOL0     H77901   4.100   9.590   3.222 -0.9580  1.6068 -1.8084
  565MOL0     H77902   4.313   9.578   3.091  0.4199 -0.2315  2.7379
  565MOL0     H77903   4.505   9.527   2.957 -1.7502 -1.2985  1.4516
  565MOL0     H77904   4.400   9.587   2.825 -3.4674 -2.0766 -0.7492
  565MOL0     H77905   4.508   9.439   2.666 -0.1968  0.8942 -0.6328
  565MOL0     H77906   4.609   9.562   2.734 -0.8843  0.8787  1.8776
  565MOL0     H77907   4.648   9.362   2.912 -2.2315  4.1198  1.5837
  565MOL0     H77908   4.641   9.274   2.758  1.0342 -0.8953  0.3439
  565MOL0     H77909   4.886   9.347   2.784 -0.8820 -0.7599  1.9707
  565MOL0     H77910   4.800   9.430   2.650  1.9451  1.3711 -0.7451
  565MOL0     H77911   4.919   9.533   2.895 -0.9190 -2.1771  0.6445
  565MOL0     H77912   4.789   9.636   2.818  0.6200  0.0870  1.5214
  565MOL0     H77913   5.049   9.519   2.689  0.3981  0.4489  0.9089
  565MOL0     H77914   4.925   9.624   2.613 -0.7627 -2.4658 -0.6668
  565MOL0     H77915   5.154   9.719   2.728  1.2128  0.7636  3.8040
  565MOL0     H77916   5.061   9.713   2.879 -0.2474  0.5813 -0.2761
  565MOL0     H77917   4.938   9.869   2.646  0.9572 -0.2630  0.3848
  565MOL0     H77918   4.892   9.860   2.817 -2.1837  4.2752 -2.0916
  565MOL0     H77919   5.242   9.925   2.650 -3.1566 -0.7661 -3.6221
  565MOL0     H77920   5.339  10.304   2.703  0.1314  0.3231  1.4279
  565MOL0     H77921   5.402  10.160   2.638 -4.2081 -2.4127 -3.0278
  565MOL0     H77922   5.381  10.211   2.943 -1.8595 -2.0821  0.0855
  565MOL0     H77923   5.501  10.110   2.840  0.2333  1.5816 -1.6272
  565MOL0     H77924   5.610  10.279   2.916  0.2837  0.1807 -1.2802
  565MOL0     H77925   5.568  10.331   2.748 -0.5953  1.5138  0.1692
  565MOL0     H77926   5.517  10.552   2.884 -2.4408  1.5323 -0.9976
  565MOL0     H77927   5.372  10.475   2.843 -1.0940 -1.5837  1.4951
  565MOL0     H77928   5.204  10.413   2.941 -0.0850 -2.0844  1.4647
  565MOL0     H77929   4.961  10.400   2.937 -2.7220 -1.3022 -0.7855
  565MOL0     H77930   4.851  10.482   3.044 -0.4663 -0.4225 -0.7388
  565MOL0     H77931   4.928  10.347   3.107  1.1928  0.1394 -0.3329
  565MOL0     H77932   4.623  10.478   3.221  3.1636 -1.6881  1.3229
  565MOL0     H77933   4.409  10.576   3.300 -2.5657  3.3446  0.0095
  565MOL0     H77934   4.229  10.705   3.343  3.1819  2.5562 -0.9001
  565MOL0     H77935   4.307  10.627   3.501  1.0568  2.2376  3.5940
  565MOL0     H77936   4.183  10.834   3.601  1.2319 -3.0840  3.4865
  565MOL0     H77937   4.087  10.812   3.444 -0.9318 -2.5056 -1.5680
  565MOL0     H77938   4.004  10.689   3.663 -0.6943  0.5517 -0.7184
  565MOL0     H77939   4.146  10.572   3.629  1.6643  0.1713 -1.3520
  565MOL0     H77940   4.045  10.516   3.419  1.3137 -0.5132  0.2451
  565MOL0     H77941   3.922  10.652   3.443 -0.8047 -1.8628 -0.9318
  565MOL0     H77942   3.828  10.529   3.622 -0.1890  0.8487 -0.1862
  565MOL0     H77943   3.815  10.438   3.471  0.3501 -1.9928 -0.0136
  565MOL0     H77944   4.032  10.311   3.564 -1.8428 -2.8111 -2.0206
  565MOL0     H77945   3.867  10.264   3.593  0.4146  0.2377 -1.2961
  565MOL0     H77946   3.896  10.451   3.795  1.2035  1.4585 -1.6433
  565MOL0     H77947   4.050  10.366   3.773  0.2242 -1.5961 -4.3220
  565MOL0     H77948   3.806  10.190   3.780  1.4518  0.6536 -4.6964
  565MOL0     H77949   3.876  10.249   3.940 -3.9652  1.0201 -1.1480
  565MOL0     H77950   4.611  10.916   3.457  2.4424  1.0142 -2.0461
  565MOL0     H77951   4.828  10.812   3.386 -2.2285  4.4196  2.2481
  565MOL0     H77952   5.205  10.636   3.387  3.2562 -0.6495  0.5285
  565MOL0     H77953   5.420  10.561   3.274 -0.4166 -0.3837 -1.2334
  565MOL0     H77954   4.177   9.227   2.903  2.0573 -2.0316  3.2358
  565MOL0     H77955   3.972   9.229   3.035  0.3308  1.2377 -0.8751
  565MOL0     H77956   3.831   9.530   3.389  1.0475 -2.8085 -0.7041
  565MOL0     H77957   3.689   9.596   3.557 -1.9827  1.3764  0.0335
  565MOL0     H77958   3.559   9.556   3.724 -0.3690  1.0753  0.8683
  565MOL0     H77959   3.490   9.709   3.657  0.6912 -0.3972  1.3750
  565MOL0     H77960   3.407   9.695   3.861  1.9454  1.2772 -2.5843
  565MOL0     H77961   3.357   9.526   3.855 -1.2057  0.8245  0.3086
  565MOL0     H77962   3.225   9.770   3.722  0.9646  0.9627  0.5321
  565MOL0     H77963   3.214   9.598   3.659 -0.0111 -2.6664  1.6610
  565MOL0     H77964   3.131   9.647   3.948  0.0800 -0.7263  0.1684
  565MOL0     H77965   3.126   9.511   3.855 -2.8285  0.5341  5.0686
  565MOL0     H77966   2.812   9.817   3.746  0.1923  1.1227  0.2641
  565MOL0     H77967   3.351   9.396   3.364 -0.7257  0.5237 -1.4512
  565MOL0     H77968   3.515   9.365   3.041  2.2031  1.3755  0.1257
  565MOL0     H77969   3.478   9.219   3.153 -3.0249 -0.0219  0.2948
  565MOL0     H77970   3.369   9.348   3.141 -1.4769 -1.8362  6.3056
  566MOL0     O77971  11.370   4.396   4.748 -0.1935  0.1632  0.1402
  566MOL0     C77972  11.364   4.467   4.848  0.1020  0.6247 -0.1573
  566MOL0     O77973  11.261   4.553   4.857 -0.1206 -0.3528 -0.3054
  566MOL0     C77974  11.159   4.564   4.759 -0.0142 -0.2304 -0.4442
  566MOL0     C77975  11.108   4.688   4.721 -0.7582  0.2948 -0.6426
  566MOL0     C77976  10.998   4.693   4.637 -0.0133 -0.1225  0.0930
  566MOL0     C77977  10.932   4.583   4.587  0.5648 -0.4693  0.0404
  566MOL0     O77978  10.839   4.583   4.488 -0.1430 -0.5543 -0.7591
  566MOL0     C77979  10.820   4.702   4.408 -0.0813  0.3265 -0.8023
  566MOL0     C77980  10.688   4.678   4.331 -0.6893  0.2442 -0.0497
  566MOL0     C77981  10.564   4.669   4.420  1.4950  0.0760 -0.0888
  566MOL0     C77982  10.431   4.695   4.342 -0.3981 -0.9359  0.0566
  566MOL0     C77983  10.312   4.702   4.436 -0.1742 -0.5539  0.0920
  566MOL0     C77984  10.173   4.723   4.371  0.6260 -0.9666 -0.1696
  566MOL0     C77985  10.070   4.790   4.473  0.1053  0.3214  1.0206
  566MOL0     C77986   9.928   4.827   4.415 -0.2414  0.3249 -0.7676
  566MOL0     N77987   9.861   4.925   4.504 -0.0795 -0.7688  0.5042
  566MOL0     C77988   9.859   5.067   4.509  0.2949  0.1143 -1.5654
  566MOL0     C77989   9.775   5.095   4.613 -0.6079 -0.1785  0.5190
  566MOL0     C77990   9.733   5.233   4.627 -0.6817 -0.1011  0.1122
  566MOL0     C77991   9.688   5.289   4.492  0.0474 -0.3591 -0.0897
  566MOL0     C77992   9.596   5.418   4.508  1.4139  0.7352 -0.2275
  566MOL0     C77993   9.540   5.486   4.384  0.7109 -0.5442  0.5860
  566MOL0     O77994   9.525   5.400   4.269  0.0586  0.4678 -0.5075
  566MOL0     C77995   9.402   5.348   4.247 -0.1442 -0.1417  1.2655
  566MOL0     C77996   9.343   5.387   4.131  0.1302 -0.0014  0.2297
  566MOL0     C77997   9.211   5.360   4.099  0.4813 -0.2096  0.3802
  566MOL0     C77998   9.155   5.434   3.975  0.1283 -1.3664 -0.6742
  566MOL0     C77999   9.141   5.268   4.178 -0.1772  0.9126  0.0472
  566MOL0     C78000   9.007   5.231   4.146  0.6948 -0.0656  0.1584
  566MOL0     O78001   8.926   5.338   4.101 -0.0948  0.2668  0.5684
  566MOL0     C78002   8.791   5.311   4.091  0.5055 -0.0587  0.9710
  566MOL0     C78003   8.708   5.283   4.199  0.0573  0.3291  0.4377
  566MOL0     C78004   8.573   5.248   4.179  0.6426 -0.5981  0.6700
  566MOL0     C78005   8.517   5.255   4.054 -0.2668  0.2079 -0.7884
  566MOL0     O78006   8.386   5.216   4.048  0.9677  0.1404 -0.0939
  566MOL0     C78007   8.366   5.105   3.952  0.2318 -0.5939 -0.8396
  566MOL0     C78008   8.244   5.026   4.000 -0.8099 -0.5882  0.6286
  566MOL0     C78009   8.280   4.968   4.130  0.1869 -1.2314  0.2803
  566MOL0     C78010   8.169   4.881   4.186  0.6165  0.3382  0.8127
  566MOL0     C78011   8.220   4.785   4.306  0.5198 -0.4205  1.3107
  566MOL0     C78012   8.275   4.655   4.254  0.4427 -0.0019  0.1876
  566MOL0     C78013   8.343   4.564   4.361  0.4330  0.0095  0.0453
  566MOL0     C78014   8.256   4.528   4.483  0.4781 -0.3961 -0.2101
  566MOL0    Cl78015   8.097   4.496   4.421  0.5265 -0.0372 -0.2389
  566MOL0     C78016   8.599   5.292   3.944  0.0767  0.5914  0.6678
  566MOL0     C78017   8.737   5.316   3.959  0.3623  0.3488 -0.4041
  566MOL0     O78018   8.977   5.113   4.159  0.6480 -0.2467 -0.1900
  566MOL0     C78019   9.200   5.210   4.294  0.2988  0.2702  0.1009
  566MOL0     C78020   9.331   5.255   4.321  0.8147 -0.5097  0.6688
  566MOL0     N78021   9.752   4.980   4.683 -0.4197 -0.3791 -0.3175
  566MOL0     N78022   9.815   4.886   4.631 -0.1318 -0.2165  0.1109
  566MOL0     C78023  10.982   4.462   4.615  0.3979  0.3889  0.2140
  566MOL0     C78024  11.097   4.448   4.698  0.3387  0.7129 -0.1758
  566MOL0     C78025  11.471   4.459   4.954 -0.2997 -0.6219  0.2940
  566MOL0     C78026  11.605   4.480   4.916 -0.5775  0.2810 -0.1258
  566MOL0     C78027  11.702   4.454   5.009  0.0144 -0.4828  0.0642
  566MOL0     C78028  11.677   4.433   5.151 -1.1362  0.1327  0.3526
  566MOL0     O78029  11.779   4.412   5.236 -0.1556  0.4568  0.2513
  566MOL0     C78030  11.766   4.406   5.376  0.0596  0.3741  0.2171
  566MOL0     C78031  11.902   4.365   5.427 -0.6047 -0.2418 -1.0685
  566MOL0     C78032  11.908   4.347   5.581  1.2003  0.6417  0.8726
  566MOL0     C78033  11.901   4.486   5.641 -0.0374 -0.2263 -0.2840
  566MOL0     C78034  11.914   4.480   5.789  0.0555  0.6473 -0.5426
  566MOL0     C78035  11.933   4.463   5.911  1.0073  0.0020 -0.5952
  566MOL0     C78036  11.545   4.419   5.184 -0.0197 -0.7437 -0.4046
  566MOL0     C78037  11.443   4.434   5.087  0.8149  0.5067 -0.7833
  566MOL0     C78038  11.303   4.446   5.140 -0.0821 -0.5872  0.2107
  566MOL0     H78039  11.145   4.781   4.764  0.5430 -1.1320  1.4877
  566MOL0     H78040  10.951   4.789   4.620  2.0173  0.8865  0.0196
  566MOL0     H78041  10.908   4.714   4.344  2.2658  1.2054  2.3490
  566MOL0     H78042  10.799   4.792   4.468 -1.7799 -0.2201 -0.5127
  566MOL0     H78043  10.678   4.772   4.276 -0.9511  1.1774  1.5259
  566MOL0     H78044  10.701   4.599   4.257 -2.0952  0.5336 -0.6453
  566MOL0     H78045  10.541   4.578   4.475 -0.4968  1.8687  2.2625
  566MOL0     H78046  10.560   4.747   4.497 -0.0712 -0.6072  0.5596
  566MOL0     H78047  10.443   4.788   4.286  0.4122 -2.5376 -2.5717
  566MOL0     H78048  10.423   4.621   4.262  0.1080  0.6507 -1.5329
  566MOL0     H78049  10.326   4.789   4.500 -4.1560  0.3193  0.0173
  566MOL0     H78050  10.315   4.609   4.494  2.0634 -1.1154 -0.8130
  566MOL0     H78051  10.189   4.778   4.278 -2.6339  1.2765  0.4492
  566MOL0     H78052  10.140   4.624   4.339  2.3138 -1.0863 -1.7000
  566MOL0     H78053  10.108   4.878   4.525  4.3956  0.1933 -1.4693
  566MOL0     H78054  10.055   4.710   4.546  2.1932  0.7003  1.9361
  566MOL0     H78055   9.936   4.883   4.321 -0.2094 -0.5341 -1.2848
  566MOL0     H78056   9.858   4.743   4.413 -0.5422  0.4783  1.3526
  566MOL0     H78057   9.885   5.124   4.421  0.0085 -1.0036 -2.4042
  566MOL0     H78058   9.825   5.285   4.653 -0.4655 -0.5953  0.3358
  566MOL0     H78059   9.649   5.230   4.697 -1.1760 -1.8460 -0.4937
  566MOL0     H78060   9.781   5.319   4.442  0.9080  1.5492  2.4256
  566MOL0     H78061   9.628   5.227   4.425 -2.0716  2.0336 -0.5366
  566MOL0     H78062   9.513   5.379   4.568  0.6032 -0.6889 -2.1585
  566MOL0     H78063   9.653   5.480   4.578  1.2813 -0.7074  1.2489
  566MOL0     H78064   9.447   5.542   4.397  1.2018  1.5322 -3.1110
  566MOL0     H78065   9.612   5.563   4.356  0.4135 -0.7565 -0.8497
  566MOL0     H78066   9.409   5.450   4.073 -0.3134 -0.2497 -0.5631
  566MOL0     H78067   9.238   5.499   3.947  2.3712 -4.0042 -0.5690
  566MOL0     H78068   9.074   5.503   4.000  0.7032 -1.4666  1.7778
  566MOL0     H78069   9.130   5.372   3.888  1.7769  0.7871 -2.8098
  566MOL0     H78070   8.748   5.271   4.300 -0.3448 -4.7775  0.2044
  566MOL0     H78071   8.513   5.226   4.267  2.5187  3.2358  3.1407
  566MOL0     H78072   8.330   5.149   3.859 -2.1038 -0.3101  0.1304
  566MOL0     H78073   8.446   5.030   3.945 -1.1956 -2.5509  1.7558
  566MOL0     H78074   8.153   5.086   3.989  0.6060  1.1623 -3.9494
  566MOL0     H78075   8.222   4.944   3.931  2.0348 -1.4475  0.6543
  566MOL0     H78076   8.310   5.035   4.211  0.4825  0.7321 -1.3906
  566MOL0     H78077   8.373   4.914   4.113  1.5490  1.0801 -0.0552
  566MOL0     H78078   8.125   4.822   4.106  2.7490 -0.0401 -0.1397
  566MOL0     H78079   8.087   4.948   4.216 -0.9245 -1.1969  0.1700
  566MOL0     H78080   8.295   4.841   4.361 -0.2079  0.9346  0.9776
  566MOL0     H78081   8.137   4.760   4.373 -1.7108 -1.2949 -1.5371
  566MOL0     H78082   8.354   4.671   4.179  1.4177  0.0300  1.1987
  566MOL0     H78083   8.199   4.599   4.199 -0.1485  1.1371 -0.1814
  566MOL0     H78084   8.431   4.608   4.409  0.6924 -3.0977  2.7223
  566MOL0     H78085   8.377   4.467   4.323 -1.1640 -1.4333  2.0786
  566MOL0     H78086   8.258   4.616   4.549 -2.3697  1.3360 -2.1960
  566MOL0     H78087   8.297   4.440   4.533  0.2752 -0.3424  0.0556
  566MOL0     H78088   8.563   5.273   3.843 -0.4733 -1.6463  1.2333
  566MOL0     H78089   8.797   5.345   3.874 -2.0863  1.7761 -1.7692
  566MOL0     H78090   9.147   5.143   4.360  1.6486 -0.6538  0.2981
  566MOL0     H78091   9.389   5.201   4.395 -1.2055 -1.1951  1.8456
  566MOL0     H78092  10.930   4.371   4.585 -0.6666  0.1188  2.7063
  566MOL0     H78093  11.140   4.351   4.719  1.1755  0.9674 -0.6699
  566MOL0     H78094  11.640   4.516   4.820 -2.2549 -0.3269 -0.9960
  566MOL0     H78095  11.805   4.443   4.978  0.2083  3.7058 -1.4042
  566MOL0     H78096  11.744   4.506   5.415  1.1788  0.4718  0.6062
  566MOL0     H78097  11.688   4.339   5.414  1.5911 -0.9707  1.0713
  566MOL0     H78098  11.986   4.425   5.390  0.4783 -0.7655  0.4474
  566MOL0     H78099  11.922   4.261   5.398  1.2252 -1.0415  2.5315
  566MOL0     H78100  11.826   4.284   5.616 -1.3733  0.8950 -3.9097
  566MOL0     H78101  12.005   4.302   5.607  0.5900 -0.9970  0.4454
  566MOL0     H78102  11.808   4.542   5.622  0.4751  0.4882 -0.7261
  566MOL0     H78103  11.989   4.542   5.610  0.0790 -1.0411 -1.4913
  566MOL0     H78104  11.955   4.439   6.013 -0.2084  1.3927  0.0226
  566MOL0     H78105  11.519   4.407   5.289 -0.7722  2.5604 -0.1039
  566MOL0     H78106  11.290   4.375   5.223 -0.1938 -1.1361 -0.2704
  566MOL0     H78107  11.291   4.551   5.170  0.6308 -0.2554 -0.6264
  566MOL0     H78108  11.226   4.424   5.065  2.5933 -0.4208 -2.7839
  567MOL0     O78109  10.714   2.723   3.554 -0.0151  0.3043  0.9694
  567MOL0     C78110  10.595   2.759   3.581  0.0885  0.7972 -0.6020
  567MOL0     O78111  10.479   2.692   3.551 -0.3584  0.3648 -0.7137
  567MOL0     C78112  10.477   2.579   3.466  0.3828  0.3829 -0.6335
  567MOL0     C78113  10.369   2.488   3.489 -0.3753  0.1941  0.0431
  567MOL0     C78114  10.351   2.376   3.399  0.3442  1.3140 -0.8873
  567MOL0     C78115  10.440   2.350   3.297 -0.1098  0.4895  1.0251
  567MOL0     O78116  10.438   2.256   3.205 -0.3618  0.4657  0.2440
  567MOL0     C78117  10.339   2.149   3.202  0.3114 -0.4912 -0.2646
  567MOL0     C78118  10.365   2.044   3.090 -0.2447  0.2069 -0.1010
  567MOL0     C78119  10.501   1.965   3.097 -0.3076 -0.3676 -0.4374
  567MOL0     C78120  10.491   1.832   3.030 -0.9955  0.3985 -0.3976
  567MOL0     C78121  10.516   1.840   2.874 -0.9497 -1.0511  0.7604
  567MOL0     C78122  10.525   1.703   2.811 -0.3588 -0.0124 -0.8160
  567MOL0     C78123  10.388   1.627   2.797 -0.6525  0.8296 -0.5214
  567MOL0     C78124  10.280   1.701   2.713  0.1347  0.6829 -0.2052
  567MOL0     N78125  10.154   1.620   2.717 -0.5637 -0.3215  0.1384
  567MOL0     C78126  10.137   1.494   2.664 -0.0752  0.3151 -0.0892
  567MOL0     C78127  10.021   1.445   2.709 -0.0202 -0.2064 -1.2156
  567MOL0     C78128   9.970   1.310   2.684 -0.2305 -0.0383 -0.4520
  567MOL0     C78129   9.835   1.314   2.605  0.7010 -0.3885 -0.1724
  567MOL0     C78130   9.791   1.169   2.567 -1.0968  0.3422  0.2203
  567MOL0     C78131   9.755   1.079   2.694 -0.5837 -0.1079  0.8669
  567MOL0     O78132   9.662   0.979   2.648  0.9420  0.0034 -0.1710
  567MOL0     C78133   9.705   0.850   2.624 -0.7657  0.7055 -0.3931
  567MOL0     C78134   9.842   0.828   2.599  0.5485  0.0570 -0.0180
  567MOL0     C78135   9.893   0.699   2.590 -0.6484  0.5073 -0.0928
  567MOL0     C78136  10.042   0.678   2.572 -0.3759 -0.6606 -0.0881
  567MOL0     C78137   9.809   0.591   2.589  0.0099  0.0141  0.7285
  567MOL0     C78138   9.841   0.447   2.559 -1.2688 -0.3065  0.5324
  567MOL0     O78139   9.737   0.355   2.558 -0.0548  0.3882  0.5688
  567MOL0     C78140   9.775   0.228   2.586 -0.1119 -0.2737 -0.0081
  567MOL0     C78141   9.860   0.195   2.694  0.4805  0.1174 -0.2688
  567MOL0     C78142   9.911   0.070   2.712 -0.2092  0.1340 -1.2090
  567MOL0     C78143   9.869  -0.035   2.628  0.5795  0.4036  0.0614
  567MOL0     O78144   9.921  -0.159   2.649 -0.2009  0.3756  0.9242
  567MOL0     C78145   9.911  -0.261   2.551 -0.4601  0.4688  0.8537
  567MOL0     C78146  10.026  -0.354   2.570  0.6152 -0.4369  1.0032
  567MOL0     C78147  10.036  -0.444   2.441  0.4804 -0.3272 -0.3505
  567MOL0     C78148  10.147  -0.550   2.463 -0.9655  0.0054  0.2553
  567MOL0     C78149  10.155  -0.659   2.355 -0.0591 -0.2537 -0.2151
  567MOL0     C78150  10.187  -0.608   2.214 -0.3336 -0.1891  0.0869
  567MOL0     C78151  10.188  -0.718   2.102  0.3250  0.5774  0.8168
  567MOL0     C78152  10.139  -0.659   1.967 -0.2982 -0.0906  0.1763
  567MOL0    Cl78153  10.181  -0.769   1.842 -0.2202  0.0250 -0.2220
  567MOL0     C78154   9.768  -0.004   2.526 -0.0445  0.3191 -0.4523
  567MOL0     C78155   9.720   0.127   2.507  1.1067 -0.6665 -0.6984
  567MOL0     O78156   9.958   0.417   2.550  0.8360  0.3656  0.0783
  567MOL0     C78157   9.670   0.614   2.606  1.2029 -0.9079  0.8444
  567MOL0     C78158   9.620   0.737   2.631 -0.3648  0.0012  0.2564
  567MOL0     N78159   9.968   1.545   2.793  0.1313 -0.2140 -0.2643
  567MOL0     N78160  10.060   1.640   2.798  0.5226 -0.7494  0.5260
  567MOL0     C78161  10.558   2.428   3.283  0.2408 -0.0207  0.2968
  567MOL0     C78162  10.569   2.544   3.355  0.2982 -0.4027 -0.6864
  567MOL0     C78163  10.577   2.887   3.640 -0.1269  0.0912 -0.0286
  567MOL0     C78164  10.501   2.979   3.570 -1.1683 -0.2814 -0.8445
  567MOL0     C78165  10.493   3.108   3.616  0.7997 -0.4781 -0.5449
  567MOL0     C78166  10.547   3.146   3.737 -0.9744 -0.3871 -0.0214
  567MOL0     O78167  10.541   3.274   3.787 -0.5408  0.5830 -0.3382
  567MOL0     C78168  10.594   3.373   3.699 -0.1430 -0.3837 -0.4438
  567MOL0     C78169  10.584   3.521   3.755 -0.7083 -0.0402 -0.1888
  567MOL0     C78170  10.455   3.546   3.828  0.1488 -0.1096 -0.4680
  567MOL0     C78171  10.318   3.546   3.748 -0.0727 -0.9492  0.3959
  567MOL0     C78172  10.203   3.613   3.825  0.2396 -0.0695 -1.1017
  567MOL0     C78173  10.113   3.670   3.877  0.3391 -0.2373 -1.2467
  567MOL0     C78174  10.624   3.046   3.808  0.7133 -0.3784 -1.4254
  567MOL0     C78175  10.642   2.918   3.763 -0.7665  0.1118  1.2154
  567MOL0     C78176  10.712   2.810   3.849 -0.2525  0.1806 -0.1170
  567MOL0     H78177  10.293   2.513   3.561 -2.1367 -0.1495 -1.6113
  567MOL0     H78178  10.262   2.317   3.415  0.5274  1.6443  1.8487
  567MOL0     H78179  10.241   2.196   3.191 -0.0244 -0.4992  2.1219
  567MOL0     H78180  10.357   2.107   3.301 -1.1004 -1.7911 -0.5264
  567MOL0     H78181  10.282   1.976   3.111  0.7084 -0.2499  2.5725
  567MOL0     H78182  10.357   2.088   2.990  0.7073 -0.8719 -0.6851
  567MOL0     H78183  10.590   2.021   3.065  0.0752  0.3403  1.6879
  567MOL0     H78184  10.506   1.942   3.204 -0.5120  0.7111 -0.1825
  567MOL0     H78185  10.574   1.776   3.073 -2.9880 -1.1438  1.6957
  567MOL0     H78186  10.401   1.776   3.058  0.7374 -2.8362 -0.8741
  567MOL0     H78187  10.605   1.892   2.838 -1.0404  0.3567  2.4435
  567MOL0     H78188  10.438   1.902   2.827  0.5976 -1.2360 -2.3549
  567MOL0     H78189  10.581   1.702   2.716  2.0729 -1.1571  0.5331
  567MOL0     H78190  10.581   1.643   2.883 -0.6133  0.0111 -0.6003
  567MOL0     H78191  10.340   1.619   2.895  1.0959 -2.1355  0.1930
  567MOL0     H78192  10.402   1.529   2.750  1.3053  1.2370 -0.8715
  567MOL0     H78193  10.267   1.803   2.750 -2.9830  0.3677 -0.1753
  567MOL0     H78194  10.311   1.706   2.608  1.4847  2.5900  0.2108
  567MOL0     H78195  10.205   1.434   2.604 -3.0023 -0.5040 -2.8493
  567MOL0     H78196   9.933   1.269   2.778 -2.6599  2.2134 -0.3012
  567MOL0     H78197  10.036   1.249   2.622 -0.2170  0.4499 -0.9299
  567MOL0     H78198   9.768   1.374   2.667  2.8723  1.3033  0.6715
  567MOL0     H78199   9.837   1.372   2.513 -0.1938 -0.1138 -0.0311
  567MOL0     H78200   9.713   1.171   2.490 -1.5232 -1.3282  0.5733
  567MOL0     H78201   9.878   1.115   2.528 -0.3733  0.4582  1.5793
  567MOL0     H78202   9.850   1.045   2.736 -0.0165 -2.7638 -2.1494
  567MOL0     H78203   9.708   1.145   2.768 -2.7317  0.6142 -1.0513
  567MOL0     H78204   9.917   0.907   2.591 -1.4173  2.0145  0.0184
  567MOL0     H78205  10.065   0.624   2.480  0.0983 -4.5198  2.1094
  567MOL0     H78206  10.090   0.612   2.644  0.4118 -2.9856 -2.5924
  567MOL0     H78207  10.099   0.770   2.584  1.4498 -1.8025  0.3521
  567MOL0     H78208   9.899   0.270   2.762  0.2608 -2.0833  2.5021
  567MOL0     H78209   9.983   0.039   2.787 -0.0494  2.3251 -0.3825
  567MOL0     H78210   9.822  -0.322   2.572  1.6881 -2.4101  2.3533
  567MOL0     H78211   9.901  -0.216   2.452 -0.8767  1.9468  1.5298
  567MOL0     H78212  10.121  -0.301   2.575 -0.4213  1.4551  1.3098
  567MOL0     H78213  10.009  -0.410   2.663 -3.7069  1.2857  1.4788
  567MOL0     H78214  10.038  -0.381   2.352 -2.8621  1.7630  0.8360
  567MOL0     H78215   9.936  -0.486   2.428  0.7859 -1.4227  0.6380
  567MOL0     H78216  10.135  -0.596   2.562 -2.1420  0.9639  0.5635
  567MOL0     H78217  10.244  -0.499   2.465  0.2333 -2.1393  0.2296
  567MOL0     H78218  10.228  -0.733   2.389  0.0250 -0.4064 -0.7202
  567MOL0     H78219  10.058  -0.710   2.347 -0.8610  1.4948 -3.6441
  567MOL0     H78220  10.281  -0.551   2.216 -0.0447 -0.2917 -3.2728
  567MOL0     H78221  10.106  -0.542   2.181 -0.6604 -0.2417  0.7729
  567MOL0     H78222  10.110  -0.794   2.109 -1.0559  1.5798 -2.1587
  567MOL0     H78223  10.289  -0.756   2.088 -1.1794 -2.7739 -2.5246
  567MOL0     H78224  10.188  -0.562   1.955 -1.7270  0.7504  0.8030
  567MOL0     H78225  10.031  -0.645   1.975 -0.1360  0.4009  2.2888
  567MOL0     H78226   9.717  -0.082   2.471  0.8608 -0.4003 -0.3066
  567MOL0     H78227   9.647   0.143   2.428 -0.3999  1.2733  0.9681
  567MOL0     H78228   9.585   0.548   2.596  0.9389 -0.2731 -2.5100
  567MOL0     H78229   9.514   0.741   2.652 -0.6120 -1.2278 -0.6655
  567MOL0     H78230  10.617   2.413   3.193  0.3063 -0.5777  0.4260
  567MOL0     H78231  10.644   2.618   3.329  0.5848 -0.6430 -0.5460
  567MOL0     H78232  10.442   2.964   3.480 -3.2694  3.8463 -0.3711
  567MOL0     H78233  10.453   3.184   3.550 -1.4844 -2.7138 -1.9080
  567MOL0     H78234  10.701   3.357   3.688 -0.0794 -1.0662  1.0100
  567MOL0     H78235  10.542   3.364   3.603  1.7890 -2.3028 -1.3831
  567MOL0     H78236  10.592   3.589   3.670 -4.2681 -0.6590 -1.1833
  567MOL0     H78237  10.664   3.550   3.823 -1.0722 -1.5918  0.9788
  567MOL0     H78238  10.438   3.461   3.896 -0.1713  1.2053  1.1647
  567MOL0     H78239  10.473   3.638   3.884 -3.7587  0.0161  0.9391
  567MOL0     H78240  10.303   3.439   3.729 -0.0922 -0.5942 -1.8325
  567MOL0     H78241  10.332   3.594   3.651 -1.3379  1.2676  1.2432
  567MOL0     H78242  10.038   3.742   3.903 -1.1295 -1.8558 -0.7316
  567MOL0     H78243  10.650   3.071   3.911 -1.4225  1.1050 -1.1661
  567MOL0     H78244  10.729   2.718   3.791 -4.1480  0.9261 -2.8472
  567MOL0     H78245  10.796   2.857   3.900 -0.0077  1.0791 -1.2973
  567MOL0     H78246  10.643   2.785   3.929 -0.1747 -2.3812 -0.7688
  568MOL0     O78247   2.316   4.348   5.756  1.4574  0.4536 -0.4812
  568MOL0     C78248   2.289   4.229   5.769  0.4317  0.1961 -0.1357
  568MOL0     O78249   2.251   4.154   5.661  0.0826  0.3355 -0.3216
  568MOL0     C78250   2.243   4.216   5.544  0.2935  1.1849  0.2891
  568MOL0     C78251   2.354   4.221   5.459 -0.2104 -0.4201 -0.4730
  568MOL0     C78252   2.342   4.289   5.335  0.1500  0.3295  0.6108
  568MOL0     C78253   2.219   4.339   5.291 -0.2893  0.3285 -0.2080
  568MOL0     O78254   2.197   4.396   5.166 -0.8960 -0.1620 -0.5493
  568MOL0     C78255   2.125   4.305   5.088  0.8167 -0.1751 -0.4931
  568MOL0     C78256   2.205   4.176   5.026 -0.3576 -0.8180 -0.5151
  568MOL0     C78257   2.332   4.231   4.964 -0.8043 -0.3234 -0.2990
  568MOL0     C78258   2.416   4.133   4.879  0.7816  0.4234  0.1676
  568MOL0     C78259   2.343   4.091   4.744  0.5528 -1.0236 -1.4254
  568MOL0     C78260   2.438   4.043   4.642 -0.4239  0.6798 -0.1385
  568MOL0     C78261   2.361   4.029   4.511 -0.2483  0.3075 -0.4812
  568MOL0     C78262   2.441   3.950   4.412 -0.4410 -0.0119  1.1246
  568MOL0     N78263   2.346   3.924   4.307  0.5675  0.0927  0.5197
  568MOL0     C78264   2.247   3.833   4.314  0.3758 -0.5572 -0.6350
  568MOL0     C78265   2.196   3.818   4.196  0.8651 -0.5400  1.3134
  568MOL0     C78266   2.096   3.708   4.175 -0.4747 -0.6280  0.9199
  568MOL0     C78267   1.969   3.753   4.096  0.1018  0.6991 -1.1521
  568MOL0     C78268   1.853   3.643   4.097  0.0893  0.0541 -0.2604
  568MOL0     C78269   1.733   3.697   4.030  1.0574 -0.3758  0.1358
  568MOL0     O78270   1.784   3.748   3.908  0.1186 -0.6711 -0.0524
  568MOL0     C78271   1.697   3.794   3.817  0.2322  0.3776 -0.0085
  568MOL0     C78272   1.560   3.815   3.837 -0.6211  0.1030  0.1327
  568MOL0     C78273   1.474   3.860   3.732 -0.9905  0.1389 -0.1776
  568MOL0     C78274   1.331   3.888   3.765  0.1174 -0.8023  0.2869
  568MOL0     C78275   1.531   3.883   3.602  0.5314 -0.6876  0.2092
  568MOL0     C78276   1.450   3.942   3.500  0.1203 -0.1689  0.8854
  568MOL0     O78277   1.324   3.898   3.483  1.4548  0.3481  0.7254
  568MOL0     C78278   1.247   3.965   3.389  0.0571 -0.0201 -0.9730
  568MOL0     C78279   1.277   3.938   3.248 -0.3392  0.9161 -0.5964
  568MOL0     C78280   1.200   3.992   3.148  0.0331  0.1239  0.5621
  568MOL0     C78281   1.100   4.092   3.181  0.0152  0.2699  0.0267
  568MOL0     O78282   1.023   4.154   3.090  0.1693 -0.6663  0.0058
  568MOL0     C78283   1.032   4.119   2.953 -0.8662  0.2953  0.1868
  568MOL0     C78284   0.962   4.223   2.862  0.0778 -0.5696  0.5031
  568MOL0     C78285   0.988   4.171   2.717  0.7351 -0.3162 -0.3356
  568MOL0     C78286   0.883   4.246   2.630  0.2297  0.1786  0.4458
  568MOL0     C78287   0.904   4.229   2.478 -0.1062 -0.1473 -0.6955
  568MOL0     C78288   0.807   4.324   2.406 -0.9390 -0.0549  0.4997
  568MOL0     C78289   0.843   4.340   2.256 -0.6577  0.1048 -0.9549
  568MOL0     C78290   0.847   4.200   2.191 -0.0453 -0.2775 -0.1650
  568MOL0    Cl78291   0.686   4.124   2.192 -0.0153  0.2474  0.2409
  568MOL0     C78292   1.077   4.133   3.316  0.6585 -0.9274  1.1286
  568MOL0     C78293   1.142   4.063   3.420 -1.4104  0.0891 -0.5692
  568MOL0     O78294   1.502   4.036   3.436 -0.8078 -0.1019 -0.2959
  568MOL0     C78295   1.666   3.859   3.579 -0.2909  0.5605 -0.9127
  568MOL0     C78296   1.745   3.809   3.679  0.4403 -0.6074 -1.0601
  568MOL0     N78297   2.282   3.886   4.109  0.4305  0.4390 -0.4058
  568MOL0     N78298   2.355   3.961   4.179 -0.7504 -0.9404  0.1166
  568MOL0     C78299   2.112   4.328   5.379  0.0455 -0.0530 -0.3619
  568MOL0     C78300   2.124   4.271   5.507  0.4301  0.0387 -0.0072
  568MOL0     C78301   2.296   4.151   5.900 -0.9414 -0.0029  0.4868
  568MOL0     C78302   2.290   4.011   5.891 -0.1411  1.0852  0.2189
  568MOL0     C78303   2.300   3.937   6.008  0.0207 -0.6689 -0.4906
  568MOL0     C78304   2.313   3.998   6.127  0.5886 -0.3237 -0.8574
  568MOL0     O78305   2.302   3.920   6.240  0.3889 -0.0456 -0.1110
  568MOL0     C78306   2.417   3.844   6.262 -0.1109  0.2785  0.2983
  568MOL0     C78307   2.417   3.802   6.402 -0.7757 -0.7244 -0.7528
  568MOL0     C78308   2.349   3.686   6.446  0.4168 -0.4608  0.1457
  568MOL0     C78309   2.415   3.615   6.564 -0.2263 -1.1176  0.1018
  568MOL0     C78310   2.344   3.490   6.597 -0.4256 -0.2600  0.8991
  568MOL0     C78311   2.288   3.383   6.617  1.1633 -0.1503 -0.3887
  568MOL0     C78312   2.327   4.139   6.130  0.4623 -0.6285  0.2921
  568MOL0     C78313   2.322   4.219   6.015  0.4954 -0.0895  0.3705
  568MOL0     C78314   2.352   4.369   6.040  0.9235  0.4074 -0.1315
  568MOL0     H78315   2.450   4.180   5.489 -0.6233 -0.0001  1.5561
  568MOL0     H78316   2.436   4.298   5.282 -0.1980  0.5319  0.0181
  568MOL0     H78317   2.088   4.363   5.003  0.8574 -0.9702 -1.0675
  568MOL0     H78318   2.034   4.269   5.136  0.8388  0.0476 -0.2823
  568MOL0     H78319   2.229   4.100   5.101  0.8524 -0.3113 -0.3711
  568MOL0     H78320   2.145   4.129   4.947  2.5329  1.2696 -4.2771
  568MOL0     H78321   2.308   4.315   4.899 -1.6138 -0.3130  0.0035
  568MOL0     H78322   2.393   4.264   5.049 -1.5417  0.9772 -0.2479
  568MOL0     H78323   2.516   4.177   4.870  1.8169 -1.9384 -0.4729
  568MOL0     H78324   2.428   4.039   4.933 -1.3192 -0.6591 -1.0740
  568MOL0     H78325   2.273   4.168   4.709 -0.2539 -0.5666  1.0074
  568MOL0     H78326   2.271   4.015   4.776 -1.8222  2.5759  2.9298
  568MOL0     H78327   2.528   4.105   4.632 -0.9229  1.8009  1.7409
  568MOL0     H78328   2.461   3.939   4.667  0.8631  0.9787 -0.0356
  568MOL0     H78329   2.331   4.125   4.469 -0.8299 -0.3271 -1.5502
  568MOL0     H78330   2.272   3.968   4.530 -0.2804  0.3453 -0.5121
  568MOL0     H78331   2.526   4.007   4.374  1.1034 -0.7539  3.2893
  568MOL0     H78332   2.492   3.860   4.449 -1.8989 -2.7160 -2.7072
  568MOL0     H78333   2.212   3.775   4.398 -2.9363  2.5248  0.3564
  568MOL0     H78334   2.074   3.658   4.270  1.7488 -1.6349  0.9639
  568MOL0     H78335   2.154   3.637   4.116  1.1882  1.8169 -0.5466
  568MOL0     H78336   1.930   3.839   4.151 -2.3705 -0.0144 -1.6625
  568MOL0     H78337   1.999   3.784   3.995  0.9973  1.1313 -0.7597
  568MOL0     H78338   1.904   3.566   4.037  2.5981 -0.9164  2.8257
  568MOL0     H78339   1.829   3.616   4.200  3.4526 -0.0926  0.6203
  568MOL0     H78340   1.667   3.611   4.014 -0.2893  0.5916  0.3203
  568MOL0     H78341   1.682   3.775   4.087 -2.4749 -0.6043 -2.3870
  568MOL0     H78342   1.517   3.794   3.934 -0.4186  3.2016  0.9978
  568MOL0     H78343   1.305   3.989   3.733 -0.8823 -1.6409 -1.7662
  568MOL0     H78344   1.316   3.889   3.873 -2.1327  0.0750  0.0193
  568MOL0     H78345   1.274   3.813   3.709 -4.1045  0.6486  2.2170
  568MOL0     H78346   1.352   3.861   3.231  0.0041  0.9007  0.8571
  568MOL0     H78347   1.225   3.969   3.045 -0.1065 -2.0862  0.9762
  568MOL0     H78348   1.136   4.132   2.923 -0.0076  1.4932  3.3505
  568MOL0     H78349   0.992   4.021   2.925  1.9401 -0.6817 -0.7130
  568MOL0     H78350   0.854   4.224   2.883 -0.8068 -1.9287 -3.2065
  568MOL0     H78351   0.992   4.327   2.880 -0.3533 -0.2736 -0.4358
  568MOL0     H78352   0.954   4.069   2.697 -0.0658 -0.0444 -0.4091
  568MOL0     H78353   1.092   4.183   2.683 -0.0093 -1.5626 -3.4740
  568MOL0     H78354   0.885   4.350   2.664 -0.4195 -0.3360  2.1969
  568MOL0     H78355   0.780   4.226   2.658  0.2565  3.0573  3.2397
  568MOL0     H78356   1.004   4.257   2.442 -0.1274  3.4995  1.5130
  568MOL0     H78357   0.897   4.125   2.447 -1.5564 -1.2241  2.8384
  568MOL0     H78358   0.811   4.427   2.443 -0.8400  0.9451 -2.1039
  568MOL0     H78359   0.706   4.282   2.411  0.3465 -3.9767 -1.9622
  568MOL0     H78360   0.936   4.394   2.240 -1.3338  1.2592 -1.0580
  568MOL0     H78361   0.771   4.403   2.202 -1.1757 -1.2138 -1.8800
  568MOL0     H78362   0.913   4.129   2.241 -0.1555 -0.9944 -1.0139
  568MOL0     H78363   0.889   4.208   2.090  2.1789  1.0516  0.7868
  568MOL0     H78364   1.006   4.213   3.334  1.6390 -0.0263  1.0758
  568MOL0     H78365   1.123   4.082   3.525  2.9561 -0.5547  0.5641
  568MOL0     H78366   1.699   3.883   3.479  0.6988  1.5625 -0.3601
  568MOL0     H78367   1.852   3.810   3.659  0.5641  4.6565 -1.4277
  568MOL0     H78368   2.015   4.370   5.356  0.1496 -0.0611 -0.8303
  568MOL0     H78369   2.040   4.271   5.575  0.7860  1.0889  0.4523
  568MOL0     H78370   2.268   3.964   5.796 -1.4435  0.3118  0.8590
  568MOL0     H78371   2.278   3.831   6.014  2.2101 -1.2658 -1.8695
  568MOL0     H78372   2.418   3.759   6.193 -0.3730  2.1224 -2.1129
  568MOL0     H78373   2.508   3.904   6.248 -0.2801  0.3420 -0.6141
  568MOL0     H78374   2.388   3.886   6.467  0.1362 -0.0746 -1.1575
  568MOL0     H78375   2.524   3.781   6.418 -0.7947 -1.8366 -1.9869
  568MOL0     H78376   2.247   3.713   6.473  0.7526 -0.6631  1.7058
  568MOL0     H78377   2.341   3.622   6.357  1.4191 -1.4736  0.7490
  568MOL0     H78378   2.406   3.672   6.657 -1.4790 -0.4648 -0.3845
  568MOL0     H78379   2.524   3.606   6.565 -0.1868 -0.6957 -0.2120
  568MOL0     H78380   2.230   3.294   6.635 -1.1487  0.8438 -2.2984
  568MOL0     H78381   2.354   4.186   6.224 -1.9795 -1.4726  1.5189
  568MOL0     H78382   2.415   4.424   5.969 -3.3320  3.0219 -2.2453
  568MOL0     H78383   2.260   4.426   6.052  0.9837  0.0745  2.3796
  568MOL0     H78384   2.392   4.378   6.141  0.5306  1.5009 -0.0632
  569MOL0     O78385   5.325   4.678   3.512  0.3298  0.0639  0.4099
  569MOL0     C78386   5.348   4.650   3.392  0.2591 -1.2664  0.2161
  569MOL0     O78387   5.249   4.601   3.307 -0.2464  0.5141  0.5876
  569MOL0     C78388   5.122   4.600   3.347 -0.2901  0.0253 -0.3461
  569MOL0     C78389   5.047   4.721   3.363  0.1000 -0.3814 -0.3351
  569MOL0     C78390   4.927   4.730   3.428  0.2627  0.3553 -0.1670
  569MOL0     C78391   4.875   4.613   3.484 -0.7387 -0.1076  1.3309
  569MOL0     O78392   4.751   4.625   3.534  0.3654 -0.5217 -0.2842
  569MOL0     C78393   4.708   4.522   3.626  0.5307  0.2003 -0.0125
  569MOL0     C78394   4.654   4.405   3.537  0.7420  0.5288  0.1249
  569MOL0     C78395   4.507   4.434   3.495  0.0255  0.0239  0.1824
  569MOL0     C78396   4.499   4.569   3.413 -1.1742 -0.5445  1.1640
  569MOL0     C78397   4.362   4.570   3.332  0.5804  0.9118  0.1585
  569MOL0     C78398   4.341   4.705   3.276 -0.6770  0.7395  0.1969
  569MOL0     C78399   4.283   4.810   3.369 -0.4339 -0.5245  0.4564
  569MOL0     C78400   4.254   4.941   3.286  0.1396 -0.7879 -0.8963
  569MOL0     N78401   4.216   5.054   3.372  0.3711  0.3622 -0.4615
  569MOL0     C78402   4.092   5.075   3.434 -0.3011 -0.4097  0.1125
  569MOL0     C78403   4.108   5.195   3.495 -0.6173 -0.2772 -0.9509
  569MOL0     C78404   4.002   5.267   3.552  0.3250 -0.7559 -0.0868
  569MOL0     C78405   3.979   5.401   3.478 -0.1981 -0.1529 -0.0561
  569MOL0     C78406   3.903   5.499   3.567 -0.6168 -0.0142 -0.2062
  569MOL0     C78407   3.871   5.621   3.492  0.4812  0.4333  0.0844
  569MOL0     O78408   3.794   5.607   3.370 -0.6693  0.3228  0.3746
  569MOL0     C78409   3.821   5.715   3.286  0.4734 -0.4435 -0.1665
  569MOL0     C78410   3.731   5.823   3.276 -0.4665  1.2838 -1.0265
  569MOL0     C78411   3.743   5.923   3.180  0.7661 -0.3640  0.4909
  569MOL0     C78412   3.634   6.027   3.178  0.7069  0.2557  0.2350
  569MOL0     C78413   3.863   5.939   3.097 -0.7778  0.0730  0.0133
  569MOL0     C78414   3.894   6.041   2.996  0.2535 -0.5783  0.6379
  569MOL0     O78415   3.783   6.116   2.948 -0.6943 -0.1818  0.3965
  569MOL0     C78416   3.784   6.233   2.873 -0.0157  0.2348 -0.9947
  569MOL0     C78417   3.889   6.309   2.827 -0.0992 -0.3120  0.1141
  569MOL0     C78418   3.867   6.436   2.764  1.0021 -0.5079  0.5032
  569MOL0     C78419   3.736   6.487   2.750  0.1428  0.1190 -0.2910
  569MOL0     O78420   3.703   6.605   2.686 -0.5248  0.1208  0.5304
  569MOL0     C78421   3.804   6.673   2.603  0.2956 -0.2900 -0.3170
  569MOL0     C78422   3.760   6.811   2.559 -0.2861 -0.0920  0.4152
  569MOL0     C78423   3.839   6.865   2.430 -0.6563  1.0457 -0.0572
  569MOL0     C78424   3.990   6.874   2.466 -0.7679  0.4328  0.6949
  569MOL0     C78425   4.054   6.997   2.410  0.3129  0.3137  0.1608
  569MOL0     C78426   4.148   7.071   2.503  0.1567 -0.2341  0.2567
  569MOL0     C78427   4.260   6.979   2.552 -0.0626  0.0880 -0.1827
  569MOL0     C78428   4.371   7.060   2.620  0.7274 -0.3647  0.5568
  569MOL0    Cl78429   4.454   7.177   2.510 -0.3782 -0.0915  0.0084
  569MOL0     C78430   3.632   6.402   2.795  0.2866  0.5871 -0.3816
  569MOL0     C78431   3.653   6.278   2.858 -0.1631 -0.2607 -0.1904
  569MOL0     O78432   4.009   6.058   2.953  0.4343  0.4465  0.4262
  569MOL0     C78433   3.957   5.833   3.112  0.4422 -0.9055  0.1112
  569MOL0     C78434   3.936   5.724   3.210  0.3179  0.0644  0.3747
  569MOL0     N78435   4.231   5.251   3.463  0.3589 -0.2093 -0.8032
  569MOL0     N78436   4.290   5.159   3.399 -0.4301 -0.2361 -0.5576
  569MOL0     C78437   4.964   4.499   3.492  1.1965  0.8573  0.7486
  569MOL0     C78438   5.076   4.489   3.418 -0.5359 -0.1883  0.4063
  569MOL0     C78439   5.481   4.667   3.335 -0.4059 -0.1991 -0.7004
  569MOL0     C78440   5.493   4.641   3.201  0.0373 -0.0985  0.8675
  569MOL0     C78441   5.607   4.668   3.130 -0.3031 -0.1291 -0.1582
  569MOL0     C78442   5.707   4.747   3.186  0.1128 -0.0881 -0.1593
  569MOL0     O78443   5.812   4.786   3.110  0.6191  0.1118 -0.3401
  569MOL0     C78444   5.790   4.903   3.029 -0.1975  0.0888  0.6121
  569MOL0     C78445   5.832   5.029   3.103 -0.1495  1.0190  0.9236
  569MOL0     C78446   5.889   5.145   3.009 -0.7341  0.8310 -0.1238
  569MOL0     C78447   5.918   5.283   3.074 -0.2476  1.2969 -0.1167
  569MOL0     C78448   6.000   5.263   3.196 -0.3767  0.3344 -0.5677
  569MOL0     C78449   6.046   5.253   3.310  0.2310  0.0532 -1.3032
  569MOL0     C78450   5.700   4.751   3.326 -0.5584  0.7242  0.0594
  569MOL0     C78451   5.590   4.715   3.404 -0.9086 -0.8534 -0.4636
  569MOL0     C78452   5.583   4.757   3.553 -1.2078  0.5531  0.2701
  569MOL0     H78453   5.104   4.801   3.318 -1.0382 -0.1305 -1.3854
  569MOL0     H78454   4.864   4.818   3.420 -2.5950 -1.3576  1.5361
  569MOL0     H78455   4.620   4.561   3.678  0.6596  1.1532 -0.4815
  569MOL0     H78456   4.792   4.493   3.690  1.5550  2.4769 -0.2354
  569MOL0     H78457   4.710   4.374   3.449  2.6398 -1.3106  1.8510
  569MOL0     H78458   4.647   4.313   3.597 -1.6409  0.2313 -0.5234
  569MOL0     H78459   4.466   4.354   3.433 -3.2613  0.4649  1.5866
  569MOL0     H78460   4.450   4.442   3.588 -3.7975 -0.9974 -1.8609
  569MOL0     H78461   4.502   4.654   3.482  0.8286  0.9048 -0.5488
  569MOL0     H78462   4.576   4.566   3.335 -1.8071 -1.1498  0.5443
  569MOL0     H78463   4.281   4.555   3.404 -1.3089 -0.4704 -2.1030
  569MOL0     H78464   4.348   4.496   3.253 -2.6451  1.5868 -0.0226
  569MOL0     H78465   4.436   4.739   3.233 -1.5862  2.0831 -0.8415
  569MOL0     H78466   4.262   4.698   3.201 -0.7017  2.1319  0.0699
  569MOL0     H78467   4.360   4.826   3.444  0.5108  0.3693 -0.6719
  569MOL0     H78468   4.196   4.771   3.424  0.8027 -0.1402  2.8044
  569MOL0     H78469   4.344   4.971   3.232 -0.0048  0.5954 -0.4261
  569MOL0     H78470   4.175   4.920   3.214 -2.6647 -1.4458  2.1440
  569MOL0     H78471   4.008   5.006   3.435  0.1645 -1.0076 -0.6738
  569MOL0     H78472   4.029   5.300   3.653 -2.0517 -0.3368  0.4926
  569MOL0     H78473   3.904   5.219   3.562 -0.8431  1.7605  1.8693
  569MOL0     H78474   4.069   5.452   3.442 -0.5007  0.4559  0.0457
  569MOL0     H78475   3.908   5.381   3.398 -1.8921 -2.9950  1.9530
  569MOL0     H78476   3.809   5.461   3.609 -0.7586  0.5663  0.0140
  569MOL0     H78477   3.965   5.518   3.655  0.4027 -1.2322 -0.6301
  569MOL0     H78478   3.811   5.684   3.559 -1.3650 -2.3712  1.2628
  569MOL0     H78479   3.965   5.668   3.464  1.0692 -1.0948 -0.5756
  569MOL0     H78480   3.656   5.829   3.353  1.3066 -2.1330  1.2146
  569MOL0     H78481   3.538   5.991   3.218  0.6930  0.7258  0.6341
  569MOL0     H78482   3.606   6.050   3.075 -0.5179 -0.4642  0.3799
  569MOL0     H78483   3.657   6.117   3.234  0.0559  1.1811 -0.9257
  569MOL0     H78484   3.988   6.273   2.852  0.3290  0.9698  0.3528
  569MOL0     H78485   3.962   6.482   2.739  1.5269 -0.8345  1.8159
  569MOL0     H78486   3.898   6.681   2.659  0.3340 -3.1200  0.1588
  569MOL0     H78487   3.805   6.606   2.517 -0.2923 -1.1390  0.3261
  569MOL0     H78488   3.657   6.799   2.523 -0.2237 -0.2574  0.2945
  569MOL0     H78489   3.767   6.884   2.641  2.3155  1.7876 -1.3371
  569MOL0     H78490   3.796   6.955   2.386 -1.9376 -0.2961 -1.7249
  569MOL0     H78491   3.825   6.799   2.344  0.2957 -1.0108  1.2842
  569MOL0     H78492   4.040   6.786   2.424 -0.3983  0.4829  1.0197
  569MOL0     H78493   4.011   6.868   2.573  0.2649 -2.4345  0.4268
  569MOL0     H78494   4.108   6.986   2.315  4.6537  2.5544  2.0714
  569MOL0     H78495   3.980   7.072   2.379  0.5532 -0.1244 -1.5899
  569MOL0     H78496   4.093   7.110   2.589  1.5070 -2.0618  2.0447
  569MOL0     H78497   4.193   7.153   2.446 -0.3600  0.6228  1.0543
  569MOL0     H78498   4.298   6.933   2.460 -2.6867  3.8752 -3.5430
  569MOL0     H78499   4.213   6.917   2.627  0.7971  0.8405  1.0142
  569MOL0     H78500   4.446   6.995   2.666  0.5218  0.3743  1.9734
  569MOL0     H78501   4.316   7.118   2.695  0.9005  0.5718 -0.0350
  569MOL0     H78502   3.533   6.442   2.772 -1.5435 -4.5439 -3.0625
  569MOL0     H78503   3.569   6.222   2.900 -1.2373 -0.8342 -2.9022
  569MOL0     H78504   4.051   5.839   3.058  1.7487 -2.9124  2.0047
  569MOL0     H78505   4.010   5.645   3.214  0.4533  0.1750  0.0897
  569MOL0     H78506   4.934   4.397   3.513  4.6985 -0.9000 -1.7832
  569MOL0     H78507   5.140   4.402   3.414 -0.2542  0.0388 -0.2572
  569MOL0     H78508   5.411   4.610   3.136  1.0917  0.2542 -0.6895
  569MOL0     H78509   5.628   4.639   3.028 -2.0418 -2.6300  0.0993
  569MOL0     H78510   5.861   4.893   2.946  2.2262  0.9870  2.4518
  569MOL0     H78511   5.689   4.923   2.993 -0.8022 -0.5181  1.9396
  569MOL0     H78512   5.912   5.002   3.173  1.0680 -0.7951 -1.0478
  569MOL0     H78513   5.743   5.065   3.155 -1.6369 -1.0667 -0.0611
  569MOL0     H78514   5.979   5.114   2.956  1.2959  2.5485  2.1494
  569MOL0     H78515   5.811   5.160   2.933 -0.3623  1.2634 -0.4223
  569MOL0     H78516   5.826   5.336   3.102 -1.2984 -0.8249  0.6922
  569MOL0     H78517   5.974   5.342   3.001  1.0559 -0.6805 -0.7955
  569MOL0     H78518   6.081   5.247   3.411  0.5958 -2.0779 -1.5141
  569MOL0     H78519   5.782   4.793   3.384  2.2386 -0.3532 -2.8153
  569MOL0     H78520   5.550   4.673   3.615  1.8290 -0.5852  0.5488
  569MOL0     H78521   5.686   4.778   3.584 -0.7781 -2.4575  1.2571
  569MOL0     H78522   5.518   4.844   3.558  0.4028  2.3253 -4.4398
  570MOL0     O78523   3.300   7.121   0.554 -0.5556  0.8227 -0.0572
  570MOL0     C78524   3.227   7.093   0.650 -0.2373  0.9062 -0.4195
  570MOL0     O78525   3.131   6.995   0.645 -0.6922  0.4084 -0.3456
  570MOL0     C78526   3.080   6.942   0.528 -0.2658 -0.1771  0.6379
  570MOL0     C78527   3.038   6.809   0.523  0.0337  0.4665  0.9272
  570MOL0     C78528   2.996   6.752   0.411  0.5123  0.2396  0.2266
  570MOL0     C78529   2.991   6.836   0.293 -0.2438 -0.0054 -1.0567
  570MOL0     O78530   2.957   6.767   0.174 -0.4172  0.8402 -0.8806
  570MOL0     C78531   2.998   6.834   0.053 -0.5190  1.0606 -0.4051
  570MOL0     C78532   3.011   6.738  -0.076 -0.0672  0.1950 -0.5408
  570MOL0     C78533   2.888   6.726  -0.174 -0.3411 -1.3190  0.8648
  570MOL0     C78534   2.893   6.617  -0.273  0.4014  0.1297 -0.6135
  570MOL0     C78535   2.771   6.628  -0.358 -0.3223  0.4753 -0.0129
  570MOL0     C78536   2.790   6.726  -0.482  0.3161  0.0481  0.3878
  570MOL0     C78537   2.688   6.848  -0.472 -0.0837  0.9593 -0.1182
  570MOL0     C78538   2.660   6.914  -0.609  0.3600  0.1545 -0.8011
  570MOL0     N78539   2.594   6.826  -0.708  1.5926 -0.5321 -1.0230
  570MOL0     C78540   2.476   6.766  -0.675  0.5775 -0.5915 -0.2304
  570MOL0     C78541   2.426   6.709  -0.781 -0.3461  0.7025  1.3076
  570MOL0     C78542   2.283   6.660  -0.786  1.2866 -0.6633 -0.7697
  570MOL0     C78543   2.205   6.765  -0.872 -0.2815 -0.8035 -0.0838
  570MOL0     C78544   2.206   6.912  -0.820 -0.6665 -0.5429 -0.0713
  570MOL0     C78545   2.094   6.999  -0.887 -0.6687  0.4961  0.4399
  570MOL0     O78546   2.136   7.027  -1.027 -0.5750 -0.0855 -0.0684
  570MOL0     C78547   2.087   7.147  -1.069  0.3817  0.0677 -1.5781
  570MOL0     C78548   1.964   7.151  -1.132 -0.0933 -1.2594  0.1402
  570MOL0     C78549   1.909   7.277  -1.180 -0.1869 -0.2283 -0.2514
  570MOL0     C78550   1.773   7.274  -1.255 -0.2860 -0.2903  0.5093
  570MOL0     C78551   1.976   7.399  -1.157  0.4988 -0.2113  0.0961
  570MOL0     C78552   1.922   7.530  -1.189 -1.4410  0.3962 -0.6503
  570MOL0     O78553   2.009   7.627  -1.216  0.3269  0.6146 -0.1061
  570MOL0     C78554   1.963   7.756  -1.240 -0.4593 -0.9875 -0.2738
  570MOL0     C78555   2.004   7.824  -1.362  0.5954  0.6399 -0.4860
  570MOL0     C78556   1.958   7.955  -1.391 -0.3521  0.5526 -0.4300
  570MOL0     C78557   1.862   8.012  -1.302 -0.8056  0.2385  0.4614
  570MOL0     O78558   1.820   8.138  -1.347  0.5877  1.1702  0.1826
  570MOL0     C78559   1.701   8.184  -1.276  0.0274 -0.6644  0.2123
  570MOL0     C78560   1.670   8.332  -1.304 -0.0105 -0.0098  0.6658
  570MOL0     C78561   1.765   8.438  -1.239  0.9093  0.4513 -0.4445
  570MOL0     C78562   1.765   8.577  -1.302  0.5011 -0.1501  0.9527
  570MOL0     C78563   1.621   8.639  -1.276 -0.6890  1.1901  0.4264
  570MOL0     C78564   1.615   8.783  -1.343  0.5074 -0.4046  0.6619
  570MOL0     C78565   1.623   8.776  -1.499  0.0514  0.4394 -0.3799
  570MOL0     C78566   1.547   8.686  -1.583  0.6539  1.0126  0.4063
  570MOL0    Cl78567   1.370   8.711  -1.542  0.6691  0.5684 -0.2629
  570MOL0     C78568   1.836   7.950  -1.181  1.2513 -1.0364 -0.7068
  570MOL0     C78569   1.889   7.824  -1.151 -0.0217 -0.3896  0.7694
  570MOL0     O78570   1.804   7.536  -1.210  0.4684 -0.1374 -0.8681
  570MOL0     C78571   2.102   7.386  -1.105  0.7717  0.7258  0.4057
  570MOL0     C78572   2.167   7.264  -1.074  1.0341  0.7429 -1.1493
  570MOL0     N78573   2.506   6.739  -0.893  0.9603 -0.1913  0.5692
  570MOL0     N78574   2.608   6.806  -0.839  0.2490 -0.3355  0.1023
  570MOL0     C78575   3.019   6.977   0.299  0.9882 -0.2417  0.1588
  570MOL0     C78576   3.060   7.028   0.416 -0.1974 -0.9762 -1.3214
  570MOL0     C78577   3.234   7.159   0.780  1.1444 -0.5241  0.1636
  570MOL0     C78578   3.113   7.176   0.860 -0.5099  0.4212  0.9175
  570MOL0     C78579   3.103   7.254   0.976 -0.2628  0.3792 -0.3057
  570MOL0     C78580   3.217   7.306   1.029 -0.6762 -0.0680  0.0858
  570MOL0     O78581   3.228   7.379   1.148 -0.0047 -0.5728 -1.1841
  570MOL0     C78582   3.132   7.485   1.157  0.9774  0.0238  0.3521
  570MOL0     C78583   3.146   7.566   1.288 -0.2131  0.2976  0.0283
  570MOL0     C78584   3.049   7.687   1.291  0.7233  0.5941 -0.0831
  570MOL0     C78585   3.110   7.827   1.313  0.7145  0.5561 -0.1774
  570MOL0     C78586   3.004   7.927   1.340  0.8710  0.6903  0.8206
  570MOL0     C78587   2.924   8.017   1.370 -0.1491  0.6397  0.5814
  570MOL0     C78588   3.330   7.280   0.964  0.7182 -0.1721  1.4184
  570MOL0     C78589   3.342   7.203   0.847  0.1071 -0.6085  1.2323
  570MOL0     C78590   3.480   7.184   0.799  0.1960  0.5446  0.0757
  570MOL0     H78591   3.049   6.741   0.608  0.9740 -0.5293  0.0464
  570MOL0     H78592   2.965   6.648   0.411  1.7744 -0.2287  2.8919
  570MOL0     H78593   3.102   6.865   0.068  0.0681 -0.4622 -1.0830
  570MOL0     H78594   2.936   6.921   0.031 -4.5807 -0.6757  2.8798
  570MOL0     H78595   3.096   6.773  -0.136 -0.5991  0.8280 -0.9335
  570MOL0     H78596   3.040   6.641  -0.035 -1.9952  0.5093  1.7810
  570MOL0     H78597   2.806   6.734  -0.102  0.2146  0.9964  1.3105
  570MOL0     H78598   2.881   6.818  -0.233 -0.7846 -2.0152 -0.1961
  570MOL0     H78599   2.982   6.630  -0.335  0.6341  0.0129 -0.3066
  570MOL0     H78600   2.900   6.515  -0.235  2.3204  0.1994 -0.6857
  570MOL0     H78601   2.684   6.659  -0.299 -0.0225 -0.2553  0.8487
  570MOL0     H78602   2.747   6.535  -0.411  2.5119  0.7742 -2.0572
  570MOL0     H78603   2.894   6.759  -0.495  0.3344 -0.6867 -1.7323
  570MOL0     H78604   2.774   6.675  -0.577  1.3227  0.8533 -0.2360
  570MOL0     H78605   2.724   6.929  -0.407 -0.9851  2.5156 -1.4810
  570MOL0     H78606   2.590   6.817  -0.436 -2.3965  0.8770 -5.5065
  570MOL0     H78607   2.597   7.003  -0.597 -0.5442 -0.5251 -0.3607
  570MOL0     H78608   2.758   6.939  -0.650  1.8088 -3.1697  0.2940
  570MOL0     H78609   2.427   6.763  -0.578 -3.5595  0.0954 -2.0885
  570MOL0     H78610   2.241   6.653  -0.685  0.5344  1.6051 -0.8619
  570MOL0     H78611   2.276   6.565  -0.840 -5.3435 -0.6915 -0.7309
  570MOL0     H78612   2.252   6.769  -0.971 -1.1301 -3.3468 -0.6708
  570MOL0     H78613   2.108   6.714  -0.880 -0.2816 -0.9355  0.6575
  570MOL0     H78614   2.186   6.908  -0.712 -1.2978 -0.5764 -0.1871
  570MOL0     H78615   2.302   6.962  -0.833 -0.4943 -1.7111 -6.3579
  570MOL0     H78616   1.995   6.954  -0.899 -2.3378  3.0750  3.1111
  570MOL0     H78617   2.079   7.094  -0.835 -2.2110  0.6010 -0.1543
  570MOL0     H78618   1.907   7.061  -1.146  0.2130 -1.1989 -1.7310
  570MOL0     H78619   1.690   7.335  -1.221 -0.2877 -0.3752  0.6622
  570MOL0     H78620   1.729   7.176  -1.236  0.5311 -0.3160  2.6151
  570MOL0     H78621   1.793   7.297  -1.360  1.3756  1.9059  1.2326
  570MOL0     H78622   2.061   7.775  -1.440 -1.8468  0.4786 -2.2927
  570MOL0     H78623   1.981   8.004  -1.485  1.9716 -1.3752 -0.9699
  570MOL0     H78624   1.622   8.119  -1.314  1.7824 -1.8093 -1.6796
  570MOL0     H78625   1.709   8.186  -1.167 -0.0268  1.6450  0.2191
  570MOL0     H78626   1.674   8.335  -1.413 -2.5823 -2.5000  0.3915
  570MOL0     H78627   1.563   8.348  -1.291 -0.2781  0.2218 -1.5473
  570MOL0     H78628   1.866   8.395  -1.240  0.8339 -0.1156  2.9707
  570MOL0     H78629   1.742   8.450  -1.133  2.0248  0.5728 -0.2044
  570MOL0     H78630   1.795   8.561  -1.406  0.1300 -1.0086  0.9661
  570MOL0     H78631   1.835   8.644  -1.251  1.1007 -1.4348  1.8567
  570MOL0     H78632   1.542   8.570  -1.308  0.2122  0.5254 -0.4104
  570MOL0     H78633   1.604   8.662  -1.171  0.2739  0.5716  0.7205
  570MOL0     H78634   1.689   8.852  -1.300 -1.6131  2.5030 -0.0628
  570MOL0     H78635   1.514   8.821  -1.327 -0.0073 -1.0406 -0.8775
  570MOL0     H78636   1.727   8.765  -1.530  0.6351  0.0843  1.5409
  570MOL0     H78637   1.601   8.876  -1.538 -0.2623  0.0966 -1.0948
  570MOL0     H78638   1.576   8.581  -1.583  3.0910  1.5824 -2.5159
  570MOL0     H78639   1.577   8.719  -1.683  0.8509  2.0868  0.8029
  570MOL0     H78640   1.780   8.001  -1.104  0.0292 -0.9410 -1.6378
  570MOL0     H78641   1.874   7.783  -1.051 -0.2815  1.0719  1.3642
  570MOL0     H78642   2.161   7.476  -1.088  0.1857  1.6820 -2.2329
  570MOL0     H78643   2.268   7.265  -1.035 -0.6005 -0.6841  3.8366
  570MOL0     H78644   3.005   7.041   0.212  3.3955  0.4617  0.2160
  570MOL0     H78645   3.077   7.135   0.426  2.1088 -1.3993 -0.0640
  570MOL0     H78646   3.026   7.117   0.832 -2.5875  2.9771  1.6204
  570MOL0     H78647   3.009   7.242   1.029 -0.0213 -1.9147 -0.2890
  570MOL0     H78648   3.139   7.559   1.078  0.7260  0.9397  1.1736
  570MOL0     H78649   3.033   7.438   1.150  0.8931  0.1234  0.8236
  570MOL0     H78650   3.242   7.617   1.279 -0.1763  0.6394  1.8531
  570MOL0     H78651   3.139   7.496   1.371  1.6588  1.6121  1.3928
  570MOL0     H78652   2.985   7.691   1.202 -2.2256  3.2492  1.9114
  570MOL0     H78653   2.980   7.662   1.373  0.3411 -0.1174 -0.6092
  570MOL0     H78654   3.169   7.841   1.222  0.3274 -3.4240 -1.2476
  570MOL0     H78655   3.184   7.829   1.394  1.7452  0.7494 -1.1007
  570MOL0     H78656   2.849   8.084   1.406 -2.9190 -0.5308 -2.5312
  570MOL0     H78657   3.419   7.333   0.996 -0.4997  0.6702  3.6464
  570MOL0     H78658   3.481   7.094   0.737  1.1689  1.2743 -1.0169
  570MOL0     H78659   3.487   7.278   0.742 -0.0061  2.0035  2.3373
  570MOL0     H78660   3.546   7.175   0.886  0.3308  0.7667 -0.0021
  571MOL0     O78661   8.910   4.036   4.821 -0.8812 -0.2828  0.1557
  571MOL0     C78662   9.011   4.024   4.747  0.4341 -0.1175  0.5443
  571MOL0     O78663   9.006   3.990   4.621 -0.2563  0.4633  0.2507
  571MOL0     C78664   8.891   3.958   4.560  0.5060 -0.6995  0.3938
  571MOL0     C78665   8.842   4.045   4.461  0.0530 -0.4077 -0.1079
  571MOL0     C78666   8.720   4.020   4.404  0.0789  0.5130  0.2566
  571MOL0     C78667   8.645   3.910   4.438 -0.3554  0.7886 -0.1207
  571MOL0     O78668   8.534   3.855   4.376  0.2885  0.8042 -0.6102
  571MOL0     C78669   8.509   3.897   4.245 -0.6041  0.2691  0.1924
  571MOL0     C78670   8.422   3.783   4.190  0.8568  0.4393 -0.1003
  571MOL0     C78671   8.506   3.685   4.111 -0.1151  0.4268 -0.2190
  571MOL0     C78672   8.434   3.639   3.983 -0.3371 -0.2900  0.4471
  571MOL0     C78673   8.295   3.576   3.998  0.1882 -0.1386  0.2342
  571MOL0     C78674   8.298   3.427   4.040 -0.4731  0.0744 -0.3319
  571MOL0     C78675   8.334   3.324   3.934  0.8251 -0.3259  0.2365
  571MOL0     C78676   8.258   3.340   3.794  0.2314  0.0729 -0.6109
  571MOL0     N78677   8.116   3.341   3.787  0.0146 -0.4702  0.0215
  571MOL0     C78678   8.042   3.254   3.852  0.0126 -0.2745 -0.2805
  571MOL0     C78679   7.924   3.309   3.853  0.3128  0.3751  0.2699
  571MOL0     C78680   7.802   3.247   3.918  0.0038 -0.2576 -0.1930
  571MOL0     C78681   7.810   3.215   4.068  0.5041 -0.6268 -0.6851
  571MOL0     C78682   7.670   3.203   4.134 -0.1103  0.4069 -0.4116
  571MOL0     C78683   7.683   3.135   4.267 -0.5291 -0.8075 -0.4323
  571MOL0     O78684   7.743   3.009   4.250 -0.1682 -0.1470  0.0138
  571MOL0     C78685   7.729   2.923   4.358  0.3284 -0.0300  1.0399
  571MOL0     C78686   7.620   2.922   4.443 -0.3579  0.1072  0.0314
  571MOL0     C78687   7.606   2.817   4.536  0.7494 -0.1029 -0.6751
  571MOL0     C78688   7.481   2.821   4.619 -0.0763 -0.1368  0.2581
  571MOL0     C78689   7.702   2.708   4.561 -0.0068 -0.4327  0.1454
  571MOL0     C78690   7.687   2.591   4.653  1.3048  1.1650 -0.2678
  571MOL0     O78691   7.565   2.517   4.628  0.4789 -0.1093 -0.5685
  571MOL0     C78692   7.546   2.400   4.698 -0.5449 -0.3947 -0.3530
  571MOL0     C78693   7.604   2.279   4.664  0.0418 -0.8466 -0.1825
  571MOL0     C78694   7.572   2.158   4.732 -0.6253 -0.5443  0.6053
  571MOL0     C78695   7.482   2.161   4.843 -0.3347  0.4865  0.3155
  571MOL0     O78696   7.455   2.031   4.885 -0.9604 -0.1613 -0.8735
  571MOL0     C78697   7.392   2.023   5.011 -0.7060  0.2752 -0.1687
  571MOL0     C78698   7.419   1.889   5.077  0.1754  0.0192 -0.0190
  571MOL0     C78699   7.376   1.887   5.228  1.0051 -0.0811 -0.9571
  571MOL0     C78700   7.234   1.940   5.256  0.5877  0.1323  1.0828
  571MOL0     C78701   7.145   1.873   5.361 -1.0493  0.5926 -0.7391
  571MOL0     C78702   7.021   1.942   5.384  0.6828  0.2291  0.0486
  571MOL0     C78703   6.930   1.853   5.473 -0.0610 -1.1954  0.2179
  571MOL0     C78704   6.952   1.863   5.619 -0.0933  0.4488 -1.4566
  571MOL0    Cl78705   6.837   1.781   5.720  0.0447  0.3472 -0.4810
  571MOL0     C78706   7.416   2.285   4.871  0.1220  0.2811 -0.8711
  571MOL0     C78707   7.441   2.392   4.791  0.0468 -0.8200  0.5497
  571MOL0     O78708   7.774   2.544   4.726  0.5962  0.6262 -0.4159
  571MOL0     C78709   7.816   2.722   4.479  0.0159 -0.6126 -0.3839
  571MOL0     C78710   7.820   2.820   4.374  0.4802 -0.3895 -0.3942
  571MOL0     N78711   7.926   3.428   3.778 -0.4055 -0.2715 -0.2266
  571MOL0     N78712   8.045   3.440   3.734  0.0761  0.4006 -1.1349
  571MOL0     C78713   8.696   3.824   4.539  0.2124 -0.1824 -0.2065
  571MOL0     C78714   8.811   3.855   4.607 -0.1539 -0.7726 -0.8295
  571MOL0     C78715   9.143   4.044   4.808  0.1455 -0.2298  0.9253
  571MOL0     C78716   9.160   4.010   4.945 -0.3906  0.0765  0.3603
  571MOL0     C78717   9.281   4.019   5.002 -0.1745  0.1724  0.2510
  571MOL0     C78718   9.394   4.064   4.925 -0.2125  0.1869 -0.5489
  571MOL0     O78719   9.524   4.070   4.985 -1.4366  0.0032  0.5920
  571MOL0     C78720   9.542   4.087   5.129  0.0480 -0.6195  0.0445
  571MOL0     C78721   9.684   4.059   5.159  0.0758 -0.4365 -0.4883
  571MOL0     C78722   9.782   4.148   5.082  0.4204 -0.4947  0.0086
  571MOL0     C78723   9.887   4.061   5.012  0.1407 -0.6536 -0.0996
  571MOL0     C78724   9.972   3.991   5.096 -0.8686  0.0496 -0.2369
  571MOL0     C78725  10.038   3.945   5.191 -0.2611 -0.6922  0.5247
  571MOL0     C78726   9.376   4.091   4.788  0.9433 -0.0767 -0.3152
  571MOL0     C78727   9.255   4.081   4.723 -0.0130 -0.7045 -0.6389
  571MOL0     C78728   9.263   4.121   4.582  0.4090 -0.0017  0.0168
  571MOL0     H78729   8.904   4.132   4.442  1.8253 -1.5318  0.3500
  571MOL0     H78730   8.691   4.093   4.328 -0.6130  2.2179  2.0671
  571MOL0     H78731   8.602   3.909   4.188 -0.7873 -3.1448 -1.0970
  571MOL0     H78732   8.446   3.986   4.248 -4.5943 -2.3198  1.3559
  571MOL0     H78733   8.369   3.729   4.269 -1.2163 -1.5066 -2.6292
  571MOL0     H78734   8.351   3.835   4.125  2.2747  3.5713  0.6662
  571MOL0     H78735   8.608   3.717   4.093  0.3146 -0.1953  0.9895
  571MOL0     H78736   8.531   3.595   4.169  0.2998 -0.4018 -1.6416
  571MOL0     H78737   8.428   3.718   3.908 -1.1569 -0.6499  0.1233
  571MOL0     H78738   8.503   3.569   3.937 -0.3713  0.7702 -1.3141
  571MOL0     H78739   8.245   3.579   3.900 -0.1305 -0.2357  0.3904
  571MOL0     H78740   8.233   3.625   4.074 -0.1646  0.6533 -0.5283
  571MOL0     H78741   8.352   3.398   4.131  0.1529 -0.5758 -0.9014
  571MOL0     H78742   8.192   3.410   4.064  0.4096 -4.0787  1.7221
  571MOL0     H78743   8.328   3.220   3.967  0.1578 -0.0019  1.1770
  571MOL0     H78744   8.439   3.352   3.916  0.2673 -0.1829 -3.6918
  571MOL0     H78745   8.283   3.437   3.751 -0.0296  1.5480  2.3634
  571MOL0     H78746   8.294   3.253   3.737  2.5294 -1.0932  2.3846
  571MOL0     H78747   8.078   3.159   3.890  3.2392  1.8069  2.5032
  571MOL0     H78748   7.772   3.152   3.873  3.9579 -1.1828 -1.2612
  571MOL0     H78749   7.725   3.324   3.917  1.5093  1.3408 -2.4435
  571MOL0     H78750   7.866   3.122   4.082  0.5302 -0.9081 -2.5077
  571MOL0     H78751   7.859   3.294   4.125 -2.5563  0.0262  1.2897
  571MOL0     H78752   7.631   3.305   4.129  4.3729  2.3506 -0.8822
  571MOL0     H78753   7.597   3.151   4.072  1.9228 -1.1885 -1.5998
  571MOL0     H78754   7.736   3.185   4.349 -0.7764 -0.6968 -0.3371
  571MOL0     H78755   7.581   3.141   4.308 -0.0929  0.4524  0.5543
  571MOL0     H78756   7.542   2.997   4.441 -0.0940  0.4391  1.1766
  571MOL0     H78757   7.496   2.760   4.709  0.4869  1.0197  0.9691
  571MOL0     H78758   7.392   2.784   4.567  1.9807 -3.4265 -1.2739
  571MOL0     H78759   7.461   2.922   4.657 -0.6999 -0.9971  2.3976
  571MOL0     H78760   7.670   2.269   4.578  0.7549  2.9220 -0.2600
  571MOL0     H78761   7.622   2.072   4.688  0.2238  0.8724 -1.3780
  571MOL0     H78762   7.430   2.103   5.075 -2.3099  0.1852  0.9679
  571MOL0     H78763   7.287   2.055   5.001 -0.6590  0.8748  1.1227
  571MOL0     H78764   7.365   1.817   5.016 -3.4183  3.7906 -1.7754
  571MOL0     H78765   7.528   1.880   5.073  0.0615 -1.1033 -2.8687
  571MOL0     H78766   7.439   1.955   5.286 -1.8195  1.2774  0.7782
  571MOL0     H78767   7.386   1.791   5.280  1.4913 -0.7621 -2.2752
  571MOL0     H78768   7.168   1.910   5.174 -0.0734  1.2765  1.1695
  571MOL0     H78769   7.231   2.050   5.255 -3.2128  0.2898 -2.4689
  571MOL0     H78770   7.133   1.770   5.327  0.4156 -0.6548  2.1405
  571MOL0     H78771   7.190   1.855   5.459  0.1273  0.3530 -1.3092
  571MOL0     H78772   6.976   1.937   5.284 -3.4062  1.7508  1.6122
  571MOL0     H78773   7.031   2.046   5.414  1.5595  0.9355 -2.4600
  571MOL0     H78774   6.953   1.750   5.442 -1.5572 -0.9412 -2.0145
  571MOL0     H78775   6.822   1.863   5.457 -0.8790 -1.5414  4.3721
  571MOL0     H78776   6.935   1.968   5.645 -3.5590  0.1378 -2.0223
  571MOL0     H78777   7.058   1.847   5.642 -0.2761  2.4545  1.3206
  571MOL0     H78778   7.355   2.292   4.960  1.0908 -0.5805 -0.1103
  571MOL0     H78779   7.394   2.489   4.805 -1.1132 -1.3440  0.4099
  571MOL0     H78780   7.887   2.639   4.481 -1.1565 -1.6573  2.0574
  571MOL0     H78781   7.908   2.805   4.312  1.4983 -0.9713  1.1412
  571MOL0     H78782   8.642   3.732   4.561  0.6881 -0.0302  1.8130
  571MOL0     H78783   8.854   3.780   4.672 -2.0033 -2.0349 -0.9959
  571MOL0     H78784   9.088   3.960   5.009 -1.7379 -1.0816 -1.9212
  571MOL0     H78785   9.300   3.979   5.101  1.5465  1.5809  0.5489
  571MOL0     H78786   9.511   4.191   5.143 -3.6081 -1.5916  0.1583
  571MOL0     H78787   9.476   4.023   5.187  0.9008 -0.0197  1.7305
  571MOL0     H78788   9.690   3.951   5.141 -1.3980 -0.5649 -0.3274
  571MOL0     H78789   9.707   4.079   5.264  1.5672  1.5558 -1.1210
  571MOL0     H78790   9.733   4.216   5.013 -0.9940 -0.1684  1.2821
  571MOL0     H78791   9.835   4.222   5.143 -0.9621 -2.0223  3.3779
  571MOL0     H78792   9.937   4.131   4.944  0.4618 -0.7209  0.0633
  571MOL0     H78793   9.832   3.991   4.949 -2.8103  1.2143  0.2338
  571MOL0     H78794  10.113   3.909   5.258  1.6253  0.3514 -0.9236
  571MOL0     H78795   9.469   4.110   4.736  0.2510  2.2082 -0.8479
  571MOL0     H78796   9.179   4.091   4.519 -1.9134  1.4480  2.2325
  571MOL0     H78797   9.255   4.231   4.580 -1.3626 -0.1111 -1.1950
  571MOL0     H78798   9.356   4.082   4.540 -0.0862 -3.6402  1.9043
  572MOL0     O78799   9.589   4.288   1.083 -0.2247 -0.1144  0.0061
  572MOL0     C78800   9.540   4.323   0.978 -0.1719 -0.4433  0.5651
  572MOL0     O78801   9.424   4.406   0.971  0.1884  0.2508  0.3783
  572MOL0     C78802   9.374   4.458   1.090 -0.2003 -0.4242  0.3994
  572MOL0     C78803   9.355   4.385   1.205 -0.2682  0.2882 -0.4560
  572MOL0     C78804   9.307   4.433   1.328 -0.5656 -0.2734  0.2497
  572MOL0     C78805   9.264   4.568   1.329 -0.0231  1.2264 -0.6321
  572MOL0     O78806   9.217   4.633   1.443 -0.4140 -0.3039  1.2089
  572MOL0     C78807   9.236   4.576   1.577 -0.1525  0.0583  0.6710
  572MOL0     C78808   9.195   4.689   1.671 -0.2188  0.3777  0.2243
  572MOL0     C78809   9.067   4.763   1.627  0.8175  0.1366 -0.6221
  572MOL0     C78810   9.041   4.878   1.725 -0.4582 -0.1515 -0.9105
  572MOL0     C78811   8.889   4.888   1.739 -0.0817  0.7937 -0.2068
  572MOL0     C78812   8.849   4.989   1.848 -0.3653  0.2765  0.2010
  572MOL0     C78813   8.917   5.125   1.841 -0.7649  0.0321  0.1130
  572MOL0     C78814   8.903   5.190   1.701  0.0468 -0.8017  0.2724
  572MOL0     N78815   8.770   5.242   1.674  0.4382 -0.2629 -0.2598
  572MOL0     C78816   8.714   5.356   1.730  0.6258  0.8755 -0.0555
  572MOL0     C78817   8.586   5.347   1.682  0.7953  0.1300 -0.4589
  572MOL0     C78818   8.485   5.461   1.724 -0.1251  0.4029 -0.2619
  572MOL0     C78819   8.450   5.563   1.611  0.3051  1.8914  0.4160
  572MOL0     C78820   8.396   5.696   1.673  0.2604 -0.4206  0.2822
  572MOL0     C78821   8.355   5.788   1.555  0.2281 -1.1943 -0.1471
  572MOL0     O78822   8.327   5.914   1.610  0.3823 -0.2788 -0.2307
  572MOL0     C78823   8.246   5.993   1.534 -0.2999  0.8787 -0.2719
  572MOL0     C78824   8.112   5.988   1.561 -0.8642  0.4947 -0.3931
  572MOL0     C78825   8.017   6.072   1.495  0.2833  0.0966 -1.4404
  572MOL0     C78826   7.872   6.058   1.528  0.5170 -0.2204 -0.0803
  572MOL0     C78827   8.066   6.153   1.394 -0.5260 -0.1810  0.3358
  572MOL0     C78828   7.973   6.204   1.285  0.5373  0.0369  0.5805
  572MOL0     O78829   8.009   6.328   1.237 -0.7346  0.5910  0.1404
  572MOL0     C78830   7.977   6.350   1.105 -0.2782  0.5206 -0.7304
  572MOL0     C78831   8.018   6.270   0.999  0.0827  0.5195 -0.0004
  572MOL0     C78832   7.978   6.296   0.871  0.4210 -0.5449 -0.3057
  572MOL0     C78833   7.875   6.392   0.847  0.6534  0.3379 -0.0857
  572MOL0     O78834   7.816   6.413   0.720 -0.2489 -0.6158  0.0780
  572MOL0     C78835   7.872   6.340   0.610 -0.3337  0.9236  0.1541
  572MOL0     C78836   7.995   6.412   0.545  0.2223  0.4983  0.0668
  572MOL0     C78837   8.062   6.313   0.451 -0.6208 -0.8080 -0.6117
  572MOL0     C78838   8.210   6.355   0.419  0.6879 -0.7852  0.1325
  572MOL0     C78839   8.291   6.248   0.340  0.0291 -0.4147  0.1735
  572MOL0     C78840   8.226   6.229   0.200 -0.3989  0.5934 -0.3652
  572MOL0     C78841   8.280   6.105   0.131  1.1805 -0.9262  0.2219
  572MOL0     C78842   8.423   6.129   0.082  0.2223 -0.3681  0.1279
  572MOL0    Cl78843   8.460   5.992  -0.019 -0.2059  0.0094 -0.0959
  572MOL0     C78844   7.832   6.465   0.953  0.8344 -0.0310  0.2118
  572MOL0     C78845   7.889   6.453   1.083  0.0110 -1.2136  0.3345
  572MOL0     O78846   7.900   6.128   1.225 -0.6266  0.0327  0.1554
  572MOL0     C78847   8.207   6.170   1.374  0.1332 -0.2985 -0.1494
  572MOL0     C78848   8.294   6.086   1.449 -0.9100 -0.2587  0.2595
  572MOL0     N78849   8.559   5.231   1.620  0.6559  0.8468 -0.0075
  572MOL0     N78850   8.665   5.169   1.625  0.1929 -0.7337 -0.4497
  572MOL0     C78851   9.295   4.649   1.217 -0.3932  0.3824 -0.2975
  572MOL0     C78852   9.352   4.593   1.106  0.4397  0.1285 -1.0751
  572MOL0     C78853   9.614   4.306   0.852  0.0092 -0.0100 -0.2955
  572MOL0     C78854   9.579   4.385   0.740  0.7398 -0.5909 -0.4314
  572MOL0     C78855   9.634   4.381   0.618 -0.1141  0.7876 -0.6130
  572MOL0     C78856   9.733   4.286   0.601 -0.4837  0.7788 -0.4861
  572MOL0     O78857   9.767   4.262   0.471 -0.7980 -0.2845  0.6568
  572MOL0     C78858   9.868   4.161   0.445 -0.1511  0.7550 -0.4398
  572MOL0     C78859   9.924   4.172   0.300  0.1300 -0.9794  0.9945
  572MOL0     C78860  10.027   4.073   0.274 -1.1908  0.1594 -0.6863
  572MOL0     C78861  10.115   4.104   0.153  0.4001 -0.8324  0.0311
  572MOL0     C78862  10.034   4.120   0.030  0.4566 -0.0892  0.0920
  572MOL0     C78863   9.981   4.132  -0.080 -0.6234 -0.6426  0.9204
  572MOL0     C78864   9.779   4.211   0.714 -0.5553  1.0899 -0.0375
  572MOL0     C78865   9.723   4.218   0.835 -0.1132  0.0401 -0.2509
  572MOL0     C78866   9.799   4.166   0.951 -0.3089  0.5124  0.5008
  572MOL0     H78867   9.365   4.278   1.219 -0.7301  0.2713 -0.2381
  572MOL0     H78868   9.309   4.369   1.416  1.4987 -3.3384 -1.8128
  572MOL0     H78869   9.337   4.540   1.598  0.3484  1.6892  1.2205
  572MOL0     H78870   9.155   4.502   1.574 -0.8496  0.8195 -1.3749
  572MOL0     H78871   9.185   4.647   1.772 -1.5819 -1.9967 -0.8164
  572MOL0     H78872   9.277   4.761   1.675  0.6071 -0.5490  0.2019
  572MOL0     H78873   9.077   4.821   1.535  1.1867  1.0418 -0.0313
  572MOL0     H78874   8.984   4.693   1.618 -0.5257  1.9064 -3.4594
  572MOL0     H78875   9.094   4.846   1.815  0.7823  2.3185 -0.6888
  572MOL0     H78876   9.090   4.971   1.694  2.6616 -0.9965  1.0096
  572MOL0     H78877   8.844   4.795   1.776 -0.0001 -0.1876 -2.4188
  572MOL0     H78878   8.843   4.911   1.643 -0.4406  1.4664  0.1168
  572MOL0     H78879   8.743   5.011   1.830 -0.9207  0.4719  3.2416
  572MOL0     H78880   8.864   4.951   1.949  0.6517  2.5959  0.9858
  572MOL0     H78881   9.026   5.113   1.844 -0.3583 -0.0650 -5.1427
  572MOL0     H78882   8.882   5.187   1.924  0.3353 -0.8730  1.2934
  572MOL0     H78883   8.972   5.274   1.713  0.1737 -1.2833  3.8442
  572MOL0     H78884   8.941   5.124   1.622 -1.0730 -1.6201  0.3860
  572MOL0     H78885   8.751   5.444   1.782  0.4600  1.6385 -1.1917
  572MOL0     H78886   8.529   5.527   1.800  2.3064  2.1396 -2.9280
  572MOL0     H78887   8.395   5.417   1.767 -0.2735 -0.7800 -1.6922
  572MOL0     H78888   8.533   5.585   1.543 -0.4860  2.8604 -0.2606
  572MOL0     H78889   8.363   5.521   1.560  1.0093  2.6946 -1.5260
  572MOL0     H78890   8.312   5.682   1.742  0.4973  1.0190  0.9043
  572MOL0     H78891   8.478   5.746   1.725  0.9451  0.6169 -1.6797
  572MOL0     H78892   8.438   5.789   1.484 -0.6738  2.0715 -1.3342
  572MOL0     H78893   8.268   5.744   1.506 -2.5991  1.9427  1.6249
  572MOL0     H78894   8.080   5.910   1.630 -0.9928 -0.5826 -1.6337
  572MOL0     H78895   7.866   5.981   1.606 -0.3624 -1.6074 -1.4633
  572MOL0     H78896   7.801   6.031   1.450  1.1411 -1.6055 -0.2151
  572MOL0     H78897   7.837   6.153   1.569  1.3585 -0.6015  1.6194
  572MOL0     H78898   8.105   6.208   1.021 -0.1986  0.9418  2.6168
  572MOL0     H78899   8.013   6.236   0.788 -0.4194  0.9352 -1.7926
  572MOL0     H78900   7.887   6.236   0.642 -1.7710  0.5212 -0.3859
  572MOL0     H78901   7.802   6.322   0.528 -0.1993 -1.6971  0.5180
  572MOL0     H78902   7.969   6.506   0.496 -2.1830 -0.7814 -1.3430
  572MOL0     H78903   8.074   6.441   0.614  0.6564 -0.6566  0.0809
  572MOL0     H78904   8.000   6.305   0.361 -1.8972 -0.6024  0.2285
  572MOL0     H78905   8.059   6.214   0.497 -3.1171 -2.1296 -3.2493
  572MOL0     H78906   8.265   6.352   0.514  2.1070 -0.9452 -0.6559
  572MOL0     H78907   8.216   6.453   0.370 -1.9140  0.6493  2.4378
  572MOL0     H78908   8.395   6.277   0.328  0.0988 -0.4548  0.6731
  572MOL0     H78909   8.283   6.157   0.400  0.5982  0.0617  0.9859
  572MOL0     H78910   8.248   6.319   0.141 -1.4551  1.9953  1.2910
  572MOL0     H78911   8.118   6.214   0.208 -0.0588 -1.6049  1.0020
  572MOL0     H78912   8.209   6.084   0.051 -0.5884 -0.1075  1.4994
  572MOL0     H78913   8.278   6.020   0.201  0.3831 -1.7126 -0.7248
  572MOL0     H78914   8.494   6.156   0.160 -0.3486  0.9196  0.2186
  572MOL0     H78915   8.429   6.206   0.005 -3.2971  1.3136  1.3443
  572MOL0     H78916   7.765   6.547   0.929  0.1756 -0.9681 -1.2283
  572MOL0     H78917   7.854   6.512   1.167 -0.5566 -2.1448  0.7637
  572MOL0     H78918   8.255   6.229   1.297  0.5682 -0.1914  0.1963
  572MOL0     H78919   8.398   6.081   1.421 -1.5195 -0.5286 -2.2240
  572MOL0     H78920   9.272   4.755   1.223 -3.6692 -0.3085  1.2712
  572MOL0     H78921   9.385   4.648   1.019 -0.4862  0.3740 -1.2800
  572MOL0     H78922   9.513   4.470   0.751  1.5316  0.3463 -2.5126
  572MOL0     H78923   9.604   4.438   0.530 -1.8292  1.3522  0.2889
  572MOL0     H78924   9.953   4.189   0.509  0.5532  1.5698 -1.6870
  572MOL0     H78925   9.828   4.062   0.469  1.6137 -1.6486 -5.7513
  572MOL0     H78926   9.975   4.268   0.289  0.2606 -1.0073  1.3649
  572MOL0     H78927   9.842   4.160   0.228 -0.1479 -1.0727  1.3270
  572MOL0     H78928  10.087   4.061   0.365 -0.9269 -1.1814 -1.0178
  572MOL0     H78929   9.977   3.977   0.259 -2.2838  0.3936  1.2112
  572MOL0     H78930  10.182   4.018   0.145  0.0923 -1.0607 -0.1454
  572MOL0     H78931  10.182   4.189   0.166 -0.5038 -0.2565  1.0653
  572MOL0     H78932   9.921   4.124  -0.169 -0.2704 -0.2783  0.6472
  572MOL0     H78933   9.870   4.153   0.709 -0.7796  0.5372  1.6159
  572MOL0     H78934   9.845   4.246   1.009 -0.3141  1.6837 -1.0392
  572MOL0     H78935   9.739   4.097   1.011  0.3004 -0.2467  0.2580
  572MOL0     H78936   9.882   4.107   0.911  0.1461  1.5205 -0.0666
  573MOL0     O78937   6.361   6.955   2.188 -0.9599 -0.0413 -0.5277
  573MOL0     C78938   6.423   6.855   2.186  0.3211  0.4163  0.6040
  573MOL0     O78939   6.550   6.836   2.147  0.9838 -0.6390 -0.0596
  573MOL0     C78940   6.614   6.950   2.099  0.0259 -0.0438  0.2762
  573MOL0     C78941   6.667   7.051   2.185  0.4892  0.3225  0.6231
  573MOL0     C78942   6.749   7.153   2.152  0.2293 -0.8709  0.0257
  573MOL0     C78943   6.772   7.170   2.010 -0.1668 -0.4710  0.0596
  573MOL0     O78944   6.861   7.268   1.972  0.9645  0.0425 -0.1211
  573MOL0     C78945   6.914   7.364   2.059 -0.5215 -0.0782 -0.0102
  573MOL0     C78946   7.006   7.471   1.980  0.3123 -0.3521  1.2151
  573MOL0     C78947   6.910   7.580   1.920  0.1289  0.0478  0.0656
  573MOL0     C78948   6.998   7.668   1.833 -0.1848 -1.0049 -0.3205
  573MOL0     C78949   6.925   7.789   1.785  0.8020  0.0627 -0.0679
  573MOL0     C78950   6.780   7.767   1.726 -0.5449  0.4036 -0.8517
  573MOL0     C78951   6.710   7.900   1.694  0.0233 -0.6251 -0.2952
  573MOL0     C78952   6.574   7.898   1.654  0.5624  0.5072 -0.4141
  573MOL0     N78953   6.550   7.883   1.505  0.3951 -0.0194  0.8477
  573MOL0     C78954   6.605   7.781   1.429  0.0245 -0.2908 -0.2152
  573MOL0     C78955   6.569   7.803   1.300 -0.0361  0.5216 -0.0833
  573MOL0     C78956   6.594   7.729   1.171 -0.3558 -0.3943  0.1466
  573MOL0     C78957   6.491   7.617   1.159  0.2317  0.4467  0.1504
  573MOL0     C78958   6.553   7.491   1.101  0.1589 -0.8162 -0.0599
  573MOL0     C78959   6.647   7.500   0.985 -0.7389 -0.5752 -0.0796
  573MOL0     O78960   6.589   7.598   0.902 -0.0957  0.3849 -0.2262
  573MOL0     C78961   6.649   7.633   0.790  1.2753 -0.2001  0.6710
  573MOL0     C78962   6.780   7.599   0.749  0.4201 -0.2302 -0.0926
  573MOL0     C78963   6.839   7.651   0.642  0.1864  0.0922  0.7690
  573MOL0     C78964   6.982   7.606   0.617 -0.6001  0.3362  0.2317
  573MOL0     C78965   6.751   7.730   0.548  0.5091  0.4573 -0.7662
  573MOL0     C78966   6.782   7.775   0.415  0.7405  0.4281  0.3322
  573MOL0     O78967   6.690   7.870   0.354  0.2089 -0.4202  1.0575
  573MOL0     C78968   6.702   7.917   0.223  0.2495  1.2977 -0.7603
  573MOL0     C78969   6.712   8.056   0.194 -0.3092 -0.0497 -0.1069
  573MOL0     C78970   6.745   8.111   0.065 -0.7290  0.4154  0.5350
  573MOL0     C78971   6.766   8.016  -0.039  0.5801  0.1919  0.0259
  573MOL0     O78972   6.798   8.044  -0.169  0.3137  0.4546  0.5154
  573MOL0     C78973   6.840   8.174  -0.203  0.0493 -0.1093  0.1114
  573MOL0     C78974   6.924   8.183  -0.331 -0.2516  0.2916  0.6528
  573MOL0     C78975   7.075   8.207  -0.310 -0.5485 -0.2272 -0.5287
  573MOL0     C78976   7.116   8.330  -0.228 -0.8733 -0.0387 -0.1282
  573MOL0     C78977   7.263   8.371  -0.245  0.1502  0.5192  0.2056
  573MOL0     C78978   7.294   8.499  -0.180 -0.1856 -0.1777 -0.2758
  573MOL0     C78979   7.312   8.493  -0.023 -0.1906  0.1964  0.4823
  573MOL0     C78980   7.351   8.632   0.041 -0.4793  0.9730 -0.3402
  573MOL0    Cl78981   7.243   8.766  -0.008 -0.0697 -0.3744  0.1587
  573MOL0     C78982   6.742   7.878  -0.011  1.1903  0.5308 -0.8333
  573MOL0     C78983   6.713   7.830   0.119 -0.1321  0.3968  1.0790
  573MOL0     O78984   6.889   7.745   0.356  0.0040 -0.3961  0.2008
  573MOL0     C78985   6.619   7.761   0.598 -0.3867 -0.7790  0.0060
  573MOL0     C78986   6.573   7.710   0.714 -0.1391 -0.3750 -0.7650
  573MOL0     N78987   6.484   7.912   1.303  0.4998  0.1209 -0.1529
  573MOL0     N78988   6.479   7.969   1.422 -0.5865 -0.5017 -0.0169
  573MOL0     C78989   6.712   7.083   1.914  0.5887  0.4969  1.8292
  573MOL0     C78990   6.642   6.972   1.961  0.4185  0.6756 -0.9389
  573MOL0     C78991   6.359   6.731   2.232 -0.1920 -0.4706 -0.2975
  573MOL0     C78992   6.441   6.631   2.299 -0.0249  0.2119  0.9428
  573MOL0     C78993   6.394   6.504   2.345  0.3873 -0.5669 -1.4847
  573MOL0     C78994   6.260   6.478   2.343 -0.5845 -0.1351  1.7261
  573MOL0     O78995   6.211   6.367   2.400  0.3812 -0.2956  0.4357
  573MOL0     C78996   6.285   6.276   2.484  0.7805  0.1920 -0.5550
  573MOL0     C78997   6.174   6.185   2.545  0.3431  0.8822 -0.0087
  573MOL0     C78998   6.213   6.101   2.670  0.2590  0.4426 -0.1022
  573MOL0     C78999   6.294   5.957   2.645 -1.1369 -0.5895  0.6326
  573MOL0     C79000   6.414   5.988   2.574  0.2958  0.3073  0.9885
  573MOL0     C79001   6.502   6.006   2.488  0.3954 -0.3554  0.0406
  573MOL0     C79002   6.177   6.577   2.281 -0.2289 -0.2156  0.5288
  573MOL0     C79003   6.222   6.706   2.234  0.1822 -0.2542  0.6608
  573MOL0     C79004   6.113   6.794   2.189 -0.5975 -0.1935  0.1338
  573MOL0     H79005   6.659   7.021   2.289 -1.4156 -0.2911  0.3396
  573MOL0     H79006   6.790   7.212   2.233 -2.3017  0.8779  0.1824
  573MOL0     H79007   6.972   7.316   2.139 -1.2854  2.8675  2.5080
  573MOL0     H79008   6.844   7.435   2.105  2.3116  3.1080 -0.2162
  573MOL0     H79009   7.068   7.514   2.059 -0.7249  4.2769 -0.2169
  573MOL0     H79010   7.065   7.426   1.899 -2.0711 -1.3745 -0.0544
  573MOL0     H79011   6.829   7.538   1.859  1.0578 -0.4151 -0.8815
  573MOL0     H79012   6.878   7.633   2.010 -1.0362 -0.5872  0.0439
  573MOL0     H79013   7.085   7.695   1.893 -1.7653 -0.3598  1.7689
  573MOL0     H79014   7.030   7.616   1.741 -1.1095 -0.4559 -0.9690
  573MOL0     H79015   6.993   7.841   1.717  3.0779  3.1073  4.0707
  573MOL0     H79016   6.922   7.854   1.873 -0.7086  1.5799 -1.1897
  573MOL0     H79017   6.787   7.707   1.635  0.4522  0.3060 -0.7172
  573MOL0     H79018   6.710   7.713   1.791  1.1874 -3.4639 -1.8933
  573MOL0     H79019   6.771   7.956   1.623  1.6167 -1.7842  0.0800
  573MOL0     H79020   6.725   7.957   1.786  3.0393 -0.4306 -0.7901
  573MOL0     H79021   6.525   7.816   1.708 -0.0542  0.2806 -1.3105
  573MOL0     H79022   6.520   7.988   1.684 -0.0184  0.4043 -1.1242
  573MOL0     H79023   6.672   7.701   1.458  0.0585  0.0799  0.7663
  573MOL0     H79024   6.694   7.686   1.180  0.9452  2.4780  0.5536
  573MOL0     H79025   6.593   7.802   1.089  0.0646 -1.2002 -0.5902
  573MOL0     H79026   6.465   7.583   1.260 -1.2705 -2.0382 -0.9859
  573MOL0     H79027   6.406   7.641   1.094  2.2665  0.8466 -2.5494
  573MOL0     H79028   6.606   7.435   1.179  2.1772 -1.7344 -1.9994
  573MOL0     H79029   6.468   7.425   1.080  1.4591 -2.6446  0.1721
  573MOL0     H79030   6.749   7.530   1.012 -1.1341  1.8850 -1.1296
  573MOL0     H79031   6.647   7.400   0.940  2.6458 -0.3251 -0.8961
  573MOL0     H79032   6.832   7.529   0.814 -0.5017 -2.7866 -1.9352
  573MOL0     H79033   7.055   7.688   0.621  2.7278 -2.3863 -0.2710
  573MOL0     H79034   6.984   7.564   0.516  2.6818 -0.0173  0.3201
  573MOL0     H79035   7.021   7.526   0.681  0.6194  0.8604  0.1655
  573MOL0     H79036   6.696   8.119   0.281 -0.2797  2.5542 -1.8776
  573MOL0     H79037   6.751   8.219   0.058 -1.7370  0.5133  0.9362
  573MOL0     H79038   6.754   8.238  -0.222  1.2254  0.5801 -3.8672
  573MOL0     H79039   6.895   8.215  -0.118  1.3018 -0.7181 -0.3768
  573MOL0     H79040   6.894   8.096  -0.391 -2.6222 -0.3412  2.6473
  573MOL0     H79041   6.891   8.269  -0.390  1.6760  1.0048  0.5443
  573MOL0     H79042   7.131   8.205  -0.404 -0.2702 -1.1046 -0.3538
  573MOL0     H79043   7.119   8.123  -0.255  2.3366  2.2021  1.1632
  573MOL0     H79044   7.087   8.295  -0.129  2.3254 -1.9780  0.2686
  573MOL0     H79045   7.050   8.411  -0.260  3.0839  2.0377 -4.0476
  573MOL0     H79046   7.326   8.290  -0.206  0.8651  1.0324  0.1307
  573MOL0     H79047   7.288   8.370  -0.351 -0.4150  0.5670  0.0679
  573MOL0     H79048   7.230   8.580  -0.215  1.6186  2.0709  1.2804
  573MOL0     H79049   7.390   8.524  -0.226 -0.9234  2.3026 -0.6035
  573MOL0     H79050   7.390   8.420   0.001  1.1130  0.3348 -2.8883
  573MOL0     H79051   7.222   8.463   0.032 -0.7143 -1.2846 -1.1161
  573MOL0     H79052   7.453   8.654   0.008  1.0797 -0.2044  3.2754
  573MOL0     H79053   7.346   8.622   0.150 -0.5037  0.9197 -0.3468
  573MOL0     H79054   6.751   7.810  -0.095 -0.7740 -0.2427 -0.4705
  573MOL0     H79055   6.704   7.723   0.133  2.9257  0.1634  1.8919
  573MOL0     H79056   6.569   7.836   0.537  2.7297  0.7702 -0.8538
  573MOL0     H79057   6.476   7.746   0.745  1.8591  4.3927  0.9853
  573MOL0     H79058   6.751   7.082   1.813  0.7498 -1.5945  1.8764
  573MOL0     H79059   6.612   6.896   1.890  1.6261 -2.6994  1.9057
  573MOL0     H79060   6.549   6.634   2.310  0.4344 -5.8219  1.0530
  573MOL0     H79061   6.472   6.440   2.385  0.4492 -1.5442 -3.0880
  573MOL0     H79062   6.349   6.226   2.410  1.0814  0.9651 -0.8216
  573MOL0     H79063   6.337   6.338   2.557  0.7069  0.0001 -0.3387
  573MOL0     H79064   6.126   6.120   2.470  0.0834  1.0515  0.0086
  573MOL0     H79065   6.099   6.251   2.588  0.1963 -0.2636  1.5686
  573MOL0     H79066   6.271   6.171   2.730 -0.1619  1.6129 -1.0171
  573MOL0     H79067   6.121   6.079   2.725 -0.5515  0.4239 -1.4036
  573MOL0     H79068   6.234   5.881   2.594  0.7233  0.5998 -3.7790
  573MOL0     H79069   6.329   5.924   2.743  0.0143  3.2040  1.6372
  573MOL0     H79070   6.580   6.022   2.416 -0.0023 -1.1471 -0.5787
  573MOL0     H79071   6.070   6.564   2.266  0.1301  0.0736 -3.0906
  573MOL0     H79072   6.083   6.748   2.095  2.1496 -1.8814 -0.0121
  573MOL0     H79073   6.030   6.796   2.261  0.7262 -1.3286  1.7720
  573MOL0     H79074   6.156   6.894   2.174  2.0705 -0.6504  3.4262
  574MOL0     O79075   7.027   9.187   5.847  0.1110  0.4983 -0.0725
  574MOL0     C79076   6.932   9.119   5.868  0.0434 -0.0341 -0.1307
  574MOL0     O79077   6.861   9.037   5.782 -0.2210 -0.2209 -0.0482
  574MOL0     C79078   6.881   9.055   5.650  0.2651 -0.9386 -0.6178
  574MOL0     C79079   6.986   8.985   5.601 -0.2379 -0.4441  0.4612
  574MOL0     C79080   6.995   8.988   5.460 -0.1101  0.0433  0.0293
  574MOL0     C79081   6.903   9.059   5.385  0.6641  0.0187  0.1249
  574MOL0     O79082   6.908   9.055   5.252 -0.5265  0.4535  1.0816
  574MOL0     C79083   7.032   9.093   5.197 -0.4016 -0.0716 -0.6755
  574MOL0     C79084   7.017   9.117   5.045 -1.5794  0.3077 -0.1128
  574MOL0     C79085   7.161   9.180   5.000 -0.6378  0.0964  0.0285
  574MOL0     C79086   7.161   9.163   4.849 -0.3144 -0.0829 -0.2378
  574MOL0     C79087   7.284   9.231   4.789 -1.1014 -0.4098 -0.5967
  574MOL0     C79088   7.283   9.223   4.639  0.3469 -0.0912  0.2687
  574MOL0     C79089   7.355   9.104   4.589 -0.4436  0.8249 -0.6116
  574MOL0     C79090   7.508   9.120   4.574  0.3297  1.1786 -0.0451
  574MOL0     N79091   7.542   9.174   4.441  0.8819  0.1941 -0.3445
  574MOL0     C79092   7.557   9.310   4.399  0.6299  0.3158 -0.2776
  574MOL0     C79093   7.574   9.301   4.265 -0.1817 -0.0658  0.4566
  574MOL0     C79094   7.580   9.414   4.165  0.4871  0.1550  0.5884
  574MOL0     C79095   7.434   9.453   4.133 -0.3540 -0.9096  0.5022
  574MOL0     C79096   7.367   9.360   4.039 -0.6912  0.4210 -0.1193
  574MOL0     C79097   7.228   9.398   3.987 -0.0131  0.0802  0.1045
  574MOL0     O79098   7.144   9.455   4.089  0.6768 -0.1611  0.4341
  574MOL0     C79099   7.099   9.373   4.192  0.2468 -0.6503 -0.6924
  574MOL0     C79100   7.116   9.230   4.202  0.7846 -1.2106 -0.0608
  574MOL0     C79101   7.040   9.161   4.306 -0.3503  0.3190  0.2137
  574MOL0     C79102   7.058   9.010   4.309 -0.0686  0.3477  0.4041
  574MOL0     C79103   6.956   9.235   4.395  0.3918 -0.1823 -0.1927
  574MOL0     C79104   6.888   9.178   4.514  0.4349  0.2049  0.1593
  574MOL0     O79105   6.788   9.260   4.583  0.2197 -0.0410  0.4950
  574MOL0     C79106   6.700   9.189   4.668 -0.0320  1.0098 -0.9244
  574MOL0     C79107   6.742   9.135   4.796  0.0387  0.4027 -0.1672
  574MOL0     C79108   6.650   9.059   4.871  0.2022 -0.4625 -0.6371
  574MOL0     C79109   6.525   9.021   4.822 -0.6159 -0.0325 -0.4878
  574MOL0     O79110   6.444   8.942   4.909 -0.6669 -0.0739 -0.5559
  574MOL0     C79111   6.316   8.900   4.858  0.4841  0.2672 -0.4145
  574MOL0     C79112   6.268   8.772   4.921 -0.0396  0.6829  0.3172
  574MOL0     C79113   6.208   8.779   5.066 -0.0017  0.0095  0.2096
  574MOL0     C79114   6.109   8.668   5.117  0.0292  0.2761 -0.1467
  574MOL0     C79115   6.156   8.520   5.109  0.2245  0.4968  0.2053
  574MOL0     C79116   6.042   8.445   5.034  0.3631  0.1795  0.8904
  574MOL0     C79117   6.060   8.294   5.035  0.0370 -0.9527 -0.3094
  574MOL0     C79118   5.954   8.208   4.975 -0.0855  0.2147 -0.1571
  574MOL0    Cl79119   5.794   8.181   5.064  0.5075 -0.1704 -0.0087
  574MOL0     C79120   6.484   9.084   4.703 -0.4126  0.4609 -0.4371
  574MOL0     C79121   6.569   9.163   4.618  0.0163  0.8145 -0.0319
  574MOL0     O79122   6.908   9.062   4.547  0.3711 -0.2971 -0.9976
  574MOL0     C79123   6.944   9.373   4.376  0.1407 -0.7650 -1.2952
  574MOL0     C79124   7.012   9.445   4.282 -0.0085 -0.5484  0.9424
  574MOL0     N79125   7.568   9.161   4.231  0.9498 -0.8856  0.5785
  574MOL0     N79126   7.538   9.097   4.337 -0.0491 -0.4788 -0.1165
  574MOL0     C79127   6.786   9.117   5.443 -0.2602 -0.1216  1.3574
  574MOL0     C79128   6.779   9.114   5.576  0.4148  0.4134 -0.0297
  574MOL0     C79129   6.888   9.111   6.007  0.3187 -0.2184 -1.2543
  574MOL0     C79130   6.833   8.988   6.049 -0.2985  0.3722 -0.4919
  574MOL0     C79131   6.803   8.975   6.185  0.5242  1.0975  0.4775
  574MOL0     C79132   6.804   9.080   6.276  0.4502  0.1603 -0.7577
  574MOL0     O79133   6.762   9.079   6.416 -0.2873  0.3082  0.5738
  574MOL0     C79134   6.703   8.956   6.460  0.4616 -0.3514 -0.5839
  574MOL0     C79135   6.561   8.929   6.399  0.0140  0.8435  0.1271
  574MOL0     C79136   6.452   9.020   6.453  1.5334  0.5542  0.6911
  574MOL0     C79137   6.435   9.150   6.374  0.2593  0.3903  1.0515
  574MOL0     C79138   6.325   9.234   6.414  0.5705 -0.2932  0.9111
  574MOL0     C79139   6.242   9.316   6.456  0.2002  1.3195  0.4328
  574MOL0     C79140   6.848   9.202   6.231 -0.1832 -0.4434  0.1688
  574MOL0     C79141   6.890   9.226   6.098  0.2789 -0.5852  0.1282
  574MOL0     C79142   6.934   9.363   6.064  0.3194  0.5570 -0.5623
  574MOL0     H79143   7.050   8.938   5.675  0.7043  1.8732  1.1938
  574MOL0     H79144   7.080   8.942   5.410  0.4231  0.2407  0.7343
  574MOL0     H79145   7.123   9.036   5.218 -0.9804 -0.3174  1.5011
  574MOL0     H79146   7.043   9.188   5.249  0.7566  0.1328 -1.2510
  574MOL0     H79147   6.994   9.021   4.999  0.8495 -1.2390  1.6154
  574MOL0     H79148   6.937   9.190   5.031 -0.5117  1.5983  0.2408
  574MOL0     H79149   7.156   9.283   5.034  1.4140 -0.7890  3.5157
  574MOL0     H79150   7.248   9.135   5.049 -0.2641 -0.3731 -1.0365
  574MOL0     H79151   7.162   9.056   4.825 -2.8741  0.2523 -2.3021
  574MOL0     H79152   7.065   9.191   4.805  0.5044  1.2174 -1.2971
  574MOL0     H79153   7.373   9.184   4.832  0.8264  1.7341 -1.9733
  574MOL0     H79154   7.277   9.338   4.810  1.6716 -0.5026  1.3799
  574MOL0     H79155   7.178   9.217   4.607  0.2065 -0.4286  0.7796
  574MOL0     H79156   7.322   9.317   4.600  0.8580 -0.6521 -0.5945
  574MOL0     H79157   7.313   9.062   4.497 -2.0218 -0.8949  0.8129
  574MOL0     H79158   7.325   9.031   4.665  2.5742  0.3188  0.2256
  574MOL0     H79159   7.553   9.186   4.649  1.4466 -0.0947  0.4611
  574MOL0     H79160   7.552   9.019   4.580  1.7320  1.8149  1.2925
  574MOL0     H79161   7.563   9.405   4.452  0.9827 -0.5994  1.3817
  574MOL0     H79162   7.636   9.396   4.073 -0.3213  1.9629 -0.2997
  574MOL0     H79163   7.620   9.497   4.224 -0.1416  0.7821  0.1483
  574MOL0     H79164   7.374   9.483   4.219 -0.2052 -0.0381  0.3124
  574MOL0     H79165   7.449   9.546   4.078  1.6152 -0.8518  1.0748
  574MOL0     H79166   7.437   9.343   3.957  0.1564  0.3687  0.6086
  574MOL0     H79167   7.370   9.262   4.086  0.8810  1.4642  2.0893
  574MOL0     H79168   7.229   9.478   3.912 -0.8920  0.4889  0.5163
  574MOL0     H79169   7.171   9.314   3.946  0.6945  0.6725 -2.2325
  574MOL0     H79170   7.179   9.174   4.133  1.7578 -1.0179  0.6515
  574MOL0     H79171   7.127   8.984   4.390 -1.4576 -0.7711  1.2742
  574MOL0     H79172   7.097   8.982   4.211  2.2592  0.7380  1.1403
  574MOL0     H79173   6.970   8.946   4.323  1.9820 -2.6506  0.5759
  574MOL0     H79174   6.846   9.149   4.820  0.1970 -1.6145  0.4960
  574MOL0     H79175   6.670   9.029   4.974  1.4048 -0.8065 -0.9644
  574MOL0     H79176   6.240   8.970   4.894  0.2938  0.0328 -0.3579
  574MOL0     H79177   6.323   8.887   4.749  2.3122 -1.0052 -0.1930
  574MOL0     H79178   6.181   8.751   4.857 -0.2902 -0.7587  1.0919
  574MOL0     H79179   6.337   8.688   4.917  0.2661  0.8929  1.0605
  574MOL0     H79180   6.158   8.875   5.081 -0.1870  0.4954 -2.8818
  574MOL0     H79181   6.291   8.783   5.138 -0.6369 -0.4523  0.9851
  574MOL0     H79182   6.012   8.680   5.070 -0.8943  0.8373  1.7850
  574MOL0     H79183   6.087   8.690   5.222  0.1161 -0.2596 -0.0174
  574MOL0     H79184   6.245   8.514   5.045  1.0375  0.7929  1.2804
  574MOL0     H79185   6.181   8.478   5.206  0.4884  2.3347  0.9839
  574MOL0     H79186   6.041   8.478   4.930 -2.4943 -2.0278  0.0901
  574MOL0     H79187   5.945   8.473   5.076  0.4362  1.6278  0.1416
  574MOL0     H79188   6.093   8.267   5.136  0.8791  0.1402 -0.2724
  574MOL0     H79189   6.137   8.270   4.961 -0.7865 -3.2896 -0.4972
  574MOL0     H79190   6.000   8.111   4.955 -3.3881 -1.4930 -0.1646
  574MOL0     H79191   5.929   8.247   4.876  1.0006 -0.6262 -0.7814
  574MOL0     H79192   6.382   9.072   4.666  0.3348 -3.6024 -1.6506
  574MOL0     H79193   6.536   9.220   4.531  2.1121  1.2114 -0.6259
  574MOL0     H79194   6.875   9.427   4.438  0.9276  1.9659 -2.6523
  574MOL0     H79195   6.991   9.548   4.254  1.5392 -1.1264 -2.8901
  574MOL0     H79196   6.705   9.156   5.381 -1.7879 -5.1969 -0.4005
  574MOL0     H79197   6.691   9.148   5.630 -0.2029  0.2597 -0.9320
  574MOL0     H79198   6.818   8.905   5.981  0.0434 -0.7373  0.7554
  574MOL0     H79199   6.769   8.876   6.215 -0.4930  0.8884 -1.1894
  574MOL0     H79200   6.772   8.872   6.445  1.0444  0.5930 -4.1868
  574MOL0     H79201   6.696   8.958   6.569  0.5801 -0.2726 -0.5774
  574MOL0     H79202   6.529   8.831   6.436 -1.1634  2.5055  4.0712
  574MOL0     H79203   6.548   8.918   6.291 -3.3711  1.4892  0.3422
  574MOL0     H79204   6.359   8.962   6.448  2.2439 -0.5539 -0.2239
  574MOL0     H79205   6.471   9.037   6.560 -1.5327 -0.9744  1.6039
  574MOL0     H79206   6.430   9.117   6.270  2.7727 -0.0680  1.0319
  574MOL0     H79207   6.532   9.198   6.386  0.6630 -0.5129  1.5130
  574MOL0     H79208   6.177   9.398   6.479  0.0470  1.7211 -1.2907
  574MOL0     H79209   6.843   9.287   6.299  1.9301  1.4747 -1.9192
  574MOL0     H79210   6.920   9.437   6.144  0.6866  0.7387 -0.6627
  574MOL0     H79211   7.042   9.359   6.049  0.5556  3.3319 -0.1668
  574MOL0     H79212   6.873   9.394   5.979  2.9409  2.1617 -2.0034
  575MOL0     O79213   0.418   4.222   4.821 -0.7350 -0.3125  0.9347
  575MOL0     C79214   0.452   4.229   4.938 -0.2611  1.1498 -0.5258
  575MOL0     O79215   0.536   4.318   4.987 -0.5161 -0.5450 -0.4900
  575MOL0     C79216   0.561   4.436   4.932 -0.5811  0.9289  0.2607
  575MOL0     C79217   0.602   4.463   4.796  0.8457  0.5470  0.7852
  575MOL0     C79218   0.645   4.588   4.754 -0.1824 -0.3165 -0.5397
  575MOL0     C79219   0.674   4.677   4.862 -0.8694  0.6238 -0.4463
  575MOL0     O79220   0.760   4.782   4.837 -0.0601  0.2074  0.8024
  575MOL0     C79221   0.869   4.766   4.737  0.0864 -0.8185 -0.0828
  575MOL0     C79222   0.977   4.880   4.758  0.0052 -0.1744  0.3359
  575MOL0     C79223   1.060   4.875   4.618  0.4415 -0.7562 -0.9967
  575MOL0     C79224   1.194   4.946   4.635 -0.1804  0.3549 -0.6610
  575MOL0     C79225   1.276   4.971   4.508  0.0741  0.7023  0.5515
  575MOL0     C79226   1.419   5.004   4.535 -0.0589 -0.0138 -0.1223
  575MOL0     C79227   1.483   5.067   4.417 -0.7713 -0.4389  0.5597
  575MOL0     C79228   1.632   5.041   4.417 -0.4465 -1.0006  0.1294
  575MOL0     N79229   1.694   5.121   4.307  0.0084  0.8923 -0.7043
  575MOL0     C79230   1.660   5.131   4.173  0.0616 -0.3396  0.2331
  575MOL0     C79231   1.748   5.220   4.120  0.4404  0.4525 -0.4407
  575MOL0     C79232   1.742   5.271   3.980 -0.4662  0.0537 -0.5220
  575MOL0     C79233   1.723   5.418   3.961 -0.1805 -0.7012  0.0508
  575MOL0     C79234   1.705   5.450   3.809  0.6890  0.1454 -0.6048
  575MOL0     C79235   1.571   5.406   3.745 -0.2040  0.7733 -0.7977
  575MOL0     O79236   1.567   5.431   3.605 -0.0676  0.0869  0.1052
  575MOL0     C79237   1.446   5.426   3.546  0.2639  0.1731 -0.7087
  575MOL0     C79238   1.317   5.466   3.591  0.3577  0.0304  0.1094
  575MOL0     C79239   1.212   5.459   3.508  0.3961  0.1935  0.0399
  575MOL0     C79240   1.083   5.521   3.554 -0.1804  0.3993 -0.4735
  575MOL0     C79241   1.213   5.387   3.390 -0.5359 -0.5874  0.7812
  575MOL0     C79242   1.090   5.358   3.325 -0.0244 -0.1513 -0.6531
  575MOL0     O79243   1.065   5.224   3.342 -0.3466 -0.1232  0.0262
  575MOL0     C79244   0.951   5.172   3.281  0.8983  0.4637  0.2938
  575MOL0     C79245   0.893   5.063   3.346 -0.2124  0.2056 -0.0242
  575MOL0     C79246   0.769   5.011   3.309  0.0381 -0.3467  1.1648
  575MOL0     C79247   0.701   5.066   3.199 -0.3422 -0.4493 -0.3343
  575MOL0     O79248   0.584   5.008   3.183  0.2898 -0.0227 -0.0868
  575MOL0     C79249   0.498   5.080   3.091 -0.4840 -0.7237 -0.0672
  575MOL0     C79250   0.364   5.006   3.066  0.1822 -0.4171  0.1189
  575MOL0     C79251   0.277   5.071   2.944  0.1642 -0.7732  0.0842
  575MOL0     C79252   0.193   5.188   3.005 -0.1228  0.1672 -0.5127
  575MOL0     C79253   0.120   5.262   2.899 -0.0788  0.2779  0.9355
  575MOL0     C79254   0.218   5.327   2.805 -0.7799 -0.2069 -0.8084
  575MOL0     C79255   0.156   5.416   2.702  0.4712 -0.3330  0.6533
  575MOL0     C79256   0.162   5.355   2.558 -0.2631  0.7020 -0.2194
  575MOL0    Cl79257   0.057   5.430   2.434 -0.0983  0.1659 -0.2145
  575MOL0     C79258   0.764   5.174   3.129 -0.0805  1.4074 -0.0812
  575MOL0     C79259   0.887   5.219   3.165 -0.2111  0.2193 -0.4758
  575MOL0     O79260   1.010   5.441   3.292 -0.5865 -0.2471 -0.7128
  575MOL0     C79261   1.331   5.328   3.355  0.3658 -0.2974 -0.0851
  575MOL0     C79262   1.446   5.350   3.434  0.9419  0.1167  0.3718
  575MOL0     N79263   1.830   5.268   4.223 -0.0780 -0.7849 -0.8125
  575MOL0     N79264   1.804   5.203   4.331 -0.3562 -0.2637  0.8028
  575MOL0     C79265   0.638   4.657   4.995 -0.4844  0.2453 -0.1807
  575MOL0     C79266   0.575   4.538   5.026 -0.7186 -0.1975  0.0212
  575MOL0     C79267   0.401   4.112   5.020 -0.3791 -0.4885  0.1339
  575MOL0     C79268   0.447   4.119   5.149 -0.1193  1.5941  0.0190
  575MOL0     C79269   0.393   4.033   5.245  0.4158 -0.4201  0.4278
  575MOL0     C79270   0.315   3.918   5.216  0.4934 -0.4053 -0.1059
  575MOL0     O79271   0.286   3.812   5.304 -0.0830 -0.8833 -0.3174
  575MOL0     C79272   0.314   3.830   5.445 -1.1116 -0.2903 -0.7494
  575MOL0     C79273   0.260   3.718   5.536 -0.5268 -0.8609  0.5264
  575MOL0     C79274   0.335   3.590   5.516 -0.0837 -0.0318  0.7797
  575MOL0     C79275   0.471   3.589   5.592  0.1464 -0.1686 -0.1915
  575MOL0     C79276   0.577   3.498   5.546 -0.1230  0.3838 -0.0872
  575MOL0     C79277   0.674   3.429   5.525  0.7930 -0.3904  0.0547
  575MOL0     C79278   0.277   3.918   5.080  0.0537  0.1066 -0.2680
  575MOL0     C79279   0.309   4.010   4.983 -0.0600  0.3058 -0.0559
  575MOL0     C79280   0.240   4.002   4.849 -0.2949 -0.2348  0.2703
  575MOL0     H79281   0.573   4.397   4.715 -3.4829  0.9883  1.7282
  575MOL0     H79282   0.653   4.625   4.652 -4.1616 -1.2447 -1.3719
  575MOL0     H79283   0.828   4.779   4.636  0.9516  0.7370 -0.2657
  575MOL0     H79284   0.925   4.672   4.732  1.2034 -0.1225 -4.2445
  575MOL0     H79285   0.920   4.971   4.782 -5.1335 -3.6657  3.1427
  575MOL0     H79286   1.041   4.864   4.845  3.5471  2.4389 -1.4950
  575MOL0     H79287   1.086   4.777   4.578  4.5073 -0.3266  0.0720
  575MOL0     H79288   1.021   4.936   4.536  1.5584 -1.7085 -2.2789
  575MOL0     H79289   1.203   5.037   4.695  0.5726 -1.6419  2.4726
  575MOL0     H79290   1.244   4.866   4.690  2.2585  1.8331 -0.6246
  575MOL0     H79291   1.238   5.065   4.466  0.2419  1.8491  2.8256
  575MOL0     H79292   1.264   4.890   4.435 -1.8950  2.6382 -1.4611
  575MOL0     H79293   1.422   5.078   4.616 -0.7032  0.0365 -0.1403
  575MOL0     H79294   1.470   4.912   4.565 -2.4521 -1.7641 -1.0987
  575MOL0     H79295   1.452   5.171   4.411  2.6617  0.7172  1.0198
  575MOL0     H79296   1.440   5.023   4.326 -3.6656  2.3701  0.4053
  575MOL0     H79297   1.677   5.073   4.512 -1.1195  3.7282 -0.8907
  575MOL0     H79298   1.652   4.935   4.396 -1.6992 -0.7292 -2.9515
  575MOL0     H79299   1.593   5.061   4.126 -0.7222 -0.1078  0.9848
  575MOL0     H79300   1.657   5.217   3.937 -3.1140  1.8326  2.0393
  575MOL0     H79301   1.828   5.239   3.920  0.1100  1.2192 -0.3349
  575MOL0     H79302   1.633   5.455   4.012 -0.9880 -1.0506 -1.0937
  575MOL0     H79303   1.810   5.475   3.996  1.3056 -1.6958 -1.8490
  575MOL0     H79304   1.711   5.559   3.800 -0.4216  0.0470 -4.6023
  575MOL0     H79305   1.790   5.424   3.745  1.2125  1.5925 -0.5246
  575MOL0     H79306   1.569   5.297   3.759  1.5039  0.7722 -0.3091
  575MOL0     H79307   1.496   5.457   3.806 -1.4179 -0.2314 -1.4136
  575MOL0     H79308   1.305   5.510   3.689 -1.7130 -0.6091  0.1851
  575MOL0     H79309   1.080   5.560   3.657 -2.0994  0.8456 -0.6627
  575MOL0     H79310   1.007   5.443   3.553 -0.8433  1.0375 -0.5340
  575MOL0     H79311   1.055   5.589   3.473 -1.5141  1.4843  0.8396
  575MOL0     H79312   0.942   5.032   3.438 -0.6974  3.8689  1.6494
  575MOL0     H79313   0.730   4.932   3.374  1.0789 -1.3460  0.6060
  575MOL0     H79314   0.493   5.184   3.125  2.3257 -0.1864 -0.9892
  575MOL0     H79315   0.538   5.093   2.989 -4.2535  0.3048 -1.6096
  575MOL0     H79316   0.393   4.906   3.033 -1.2332 -0.5753 -0.7183
  575MOL0     H79317   0.303   4.990   3.156 -0.1493 -1.1026 -0.2195
  575MOL0     H79318   0.216   4.998   2.890 -1.9409 -0.6737  2.1908
  575MOL0     H79319   0.352   5.101   2.870  0.2019 -2.1724 -0.4740
  575MOL0     H79320   0.254   5.265   3.053  0.4302  1.0971 -2.5952
  575MOL0     H79321   0.128   5.146   3.082 -0.2377  0.9274 -0.1884
  575MOL0     H79322   0.053   5.199   2.841 -0.8505  0.8019  1.2451
  575MOL0     H79323   0.048   5.324   2.954  0.4014  2.1602 -0.4488
  575MOL0     H79324   0.278   5.262   2.742 -1.3866 -2.1970  0.5785
  575MOL0     H79325   0.294   5.388   2.856  0.6352 -0.4401 -2.5285
  575MOL0     H79326   0.192   5.520   2.704  3.1077 -1.1697  0.7487
  575MOL0     H79327   0.050   5.414   2.728 -0.0374 -2.7907 -1.3366
  575MOL0     H79328   0.139   5.250   2.576  1.2589  0.2625 -0.6646
  575MOL0     H79329   0.260   5.354   2.510  0.4382 -1.1309  1.1254
  575MOL0     H79330   0.712   5.225   3.048  3.1012  1.1988 -2.4776
  575MOL0     H79331   0.944   5.286   3.101  3.3607 -3.3970 -1.4492
  575MOL0     H79332   1.338   5.261   3.270 -0.2081 -2.2306  1.3234
  575MOL0     H79333   1.528   5.285   3.407 -1.2984 -3.4823  1.5039
  575MOL0     H79334   0.660   4.730   5.073 -0.1740 -1.3917  1.3407
  575MOL0     H79335   0.550   4.517   5.130  0.0895 -0.5106  0.1608
  575MOL0     H79336   0.520   4.189   5.189  1.8026 -1.0169  1.4179
  575MOL0     H79337   0.435   4.061   5.341  2.2809 -0.3809 -0.3455
  575MOL0     H79338   0.419   3.854   5.467 -1.2933  1.3079 -1.4995
  575MOL0     H79339   0.266   3.921   5.481  1.6121  1.2016 -0.5794
  575MOL0     H79340   0.154   3.710   5.510 -0.0003  1.8220 -3.3441
  575MOL0     H79341   0.267   3.750   5.640 -5.6264 -0.3776  0.9928
  575MOL0     H79342   0.269   3.504   5.532  0.4258 -0.6849 -0.4558
  575MOL0     H79343   0.369   3.573   5.413  1.4753 -2.0311  1.5527
  575MOL0     H79344   0.451   3.559   5.696  0.4360  0.1923 -0.0275
  575MOL0     H79345   0.510   3.691   5.590 -1.0863  0.3114 -0.6570
  575MOL0     H79346   0.757   3.365   5.503  0.9534 -0.3901  0.6209
  575MOL0     H79347   0.233   3.823   5.050  0.6780 -1.3367  2.9978
  575MOL0     H79348   0.217   4.100   4.805  1.0251 -0.9164 -2.1189
  575MOL0     H79349   0.297   3.940   4.780 -0.7145 -2.3065  1.7041
  575MOL0     H79350   0.148   3.945   4.864  0.1890 -0.4579  2.9074
  576MOL0     O79351  10.486   5.548   4.912 -0.3418 -0.2951  0.2790
  576MOL0     C79352  10.522   5.648   4.982 -0.3769 -0.0076  0.2849
  576MOL0     O79353  10.590   5.765   4.934 -0.5295  0.5196 -0.6929
  576MOL0     C79354  10.607   5.785   4.798 -0.5742 -0.9793 -0.8718
  576MOL0     C79355  10.530   5.887   4.744 -0.3379  0.5214  0.5107
  576MOL0     C79356  10.542   5.917   4.603 -0.2330  0.2906 -0.1159
  576MOL0     C79357  10.621   5.838   4.522 -0.1301 -0.7773  0.3116
  576MOL0     O79358  10.591   5.854   4.385 -0.7168  0.0905  0.1005
  576MOL0     C79359  10.683   5.781   4.299 -0.0421  0.0953  0.7864
  576MOL0     C79360  10.661   5.788   4.144  0.7065  0.6347 -0.1366
  576MOL0     C79361  10.604   5.925   4.093  0.0246 -0.6420 -0.0679
  576MOL0     C79362  10.516   5.893   3.959  0.4442  0.5756 -0.2754
  576MOL0     C79363  10.373   5.849   3.987  0.2329 -0.1272  0.6556
  576MOL0     C79364  10.283   5.825   3.855 -0.0988 -0.1338  0.3833
  576MOL0     C79365  10.145   5.770   3.875 -0.4167  0.4048  0.2006
  576MOL0     C79366  10.044   5.892   3.880 -0.5216 -0.4597  0.3184
  576MOL0     N79367   9.907   5.837   3.888  0.1031 -1.0963 -0.6598
  576MOL0     C79368   9.830   5.794   3.783 -0.1983 -1.0007  0.0488
  576MOL0     C79369   9.702   5.769   3.841 -0.4059 -0.5998 -0.3071
  576MOL0     C79370   9.563   5.755   3.777 -0.6124  0.5693  0.8991
  576MOL0     C79371   9.536   5.609   3.746 -0.6496  0.2144 -0.4666
  576MOL0     C79372   9.416   5.592   3.653  0.3524 -0.2818  0.8829
  576MOL0     C79373   9.371   5.449   3.624  0.3214  0.3295  0.0096
  576MOL0     O79374   9.263   5.443   3.533 -0.4211 -0.2527 -0.3706
  576MOL0     C79375   9.152   5.375   3.565 -0.3377  0.6862 -0.7349
  576MOL0     C79376   9.021   5.406   3.520 -0.6245 -0.2283  1.0000
  576MOL0     C79377   8.912   5.322   3.538  0.4727  0.6594 -0.3629
  576MOL0     C79378   8.774   5.372   3.482  1.5248 -0.9370 -0.6361
  576MOL0     C79379   8.928   5.202   3.625 -0.5342  0.0112  0.1515
  576MOL0     C79380   8.821   5.113   3.668 -0.6068  0.0996  0.9175
  576MOL0     O79381   8.852   4.995   3.737  0.0305  0.1400 -0.8334
  576MOL0     C79382   8.744   4.918   3.768  0.3088  0.5495  0.5855
  576MOL0     C79383   8.728   4.875   3.898  0.1006 -0.6606  0.1492
  576MOL0     C79384   8.623   4.786   3.938 -0.3913  0.4327 -0.2115
  576MOL0     C79385   8.532   4.732   3.844 -0.0695  0.6851  1.5408
  576MOL0     O79386   8.430   4.648   3.894  0.2828  1.4674  1.3979
  576MOL0     C79387   8.335   4.596   3.804  0.7528  0.3973 -0.3043
  576MOL0     C79388   8.239   4.488   3.870  0.6358  0.9999  0.5631
  576MOL0     C79389   8.301   4.369   3.951 -0.8694  0.3630  0.6942
  576MOL0     C79390   8.388   4.268   3.861  1.1720  0.0962 -0.3952
  576MOL0     C79391   8.438   4.150   3.936 -0.5510  0.7578 -0.4374
  576MOL0     C79392   8.513   4.033   3.856  0.5014  0.4462 -0.1827
  576MOL0     C79393   8.653   4.075   3.816  0.3578 -0.3776 -0.2213
  576MOL0     C79394   8.730   3.951   3.759  0.4044 -0.2571  0.1612
  576MOL0    Cl79395   8.672   3.901   3.592  0.0465  0.0286 -0.4747
  576MOL0     C79396   8.554   4.770   3.711 -0.2991  0.2174  0.9677
  576MOL0     C79397   8.647   4.868   3.668  0.4580 -0.2207 -0.9038
  576MOL0     O79398   8.709   5.152   3.639  0.5066 -0.0283  0.7110
  576MOL0     C79399   9.059   5.169   3.661 -0.0183  0.4150  0.2792
  576MOL0     C79400   9.165   5.245   3.621 -0.3070 -1.0226 -0.6592
  576MOL0     N79401   9.720   5.775   3.976  0.3829 -0.4182 -0.0133
  576MOL0     N79402   9.841   5.812   4.007  0.4729  0.8577  0.1121
  576MOL0     C79403  10.707   5.740   4.584  0.2506  0.4340  0.8499
  576MOL0     C79404  10.698   5.712   4.719  0.6064  0.1381 -1.2278
  576MOL0     C79405  10.483   5.654   5.130 -0.4544  0.1692  0.4664
  576MOL0     C79406  10.501   5.774   5.208 -0.3276 -0.2359  0.5975
  576MOL0     C79407  10.447   5.798   5.332  0.3093  0.5561  0.4459
  576MOL0     C79408  10.386   5.685   5.398  0.3793  0.2580  0.5184
  576MOL0     O79409  10.318   5.697   5.514  0.2685 -0.7465  0.0214
  576MOL0     C79410  10.281   5.833   5.559  0.7621  0.6972 -0.2534
  576MOL0     C79411  10.171   5.832   5.664  0.1953  0.6427 -0.1496
  576MOL0     C79412  10.029   5.774   5.608 -0.3206  0.1595  0.1344
  576MOL0     C79413   9.941   5.771   5.731  0.0212  0.3099  0.3535
  576MOL0     C79414   9.807   5.723   5.701 -0.3966  0.6961  0.5497
  576MOL0     C79415   9.690   5.687   5.672  0.1615  1.0755 -1.1350
  576MOL0     C79416  10.382   5.564   5.334 -0.6504 -0.2181 -0.1536
  576MOL0     C79417  10.427   5.544   5.208 -0.8303 -0.8261  0.4906
  576MOL0     C79418  10.428   5.395   5.156  0.1798  0.5682  0.8406
  576MOL0     H79419  10.462   5.939   4.810  1.3669  2.4620  0.8173
  576MOL0     H79420  10.472   5.984   4.552 -0.9015 -1.7745 -2.0583
  576MOL0     H79421  10.673   5.675   4.326  2.5668  0.3876  3.3893
  576MOL0     H79422  10.786   5.814   4.315 -1.2801  3.8793  1.7302
  576MOL0     H79423  10.749   5.746   4.095  1.8314  0.5050  1.9160
  576MOL0     H79424  10.578   5.717   4.132  1.2260  0.1890 -1.2422
  576MOL0     H79425  10.541   5.969   4.171  2.2616 -4.7639  4.6847
  576MOL0     H79426  10.680   5.998   4.066 -1.3281  0.6923 -0.3523
  576MOL0     H79427  10.507   5.989   3.906 -3.5604  0.8117  0.4786
  576MOL0     H79428  10.573   5.831   3.889  1.7157 -0.4351  1.5885
  576MOL0     H79429  10.319   5.926   4.041  0.5492 -0.3827  1.3590
  576MOL0     H79430  10.374   5.755   4.043 -0.1765 -0.7882 -0.4127
  576MOL0     H79431  10.280   5.914   3.791 -0.8255  1.5339  2.6114
  576MOL0     H79432  10.326   5.745   3.794  1.4341 -0.9117  2.3803
  576MOL0     H79433  10.147   5.710   3.967 -0.7436  0.5144  0.2821
  576MOL0     H79434  10.129   5.705   3.788 -0.4124  2.0592 -1.0738
  576MOL0     H79435  10.067   5.939   3.976  1.0201 -0.5140  0.0002
  576MOL0     H79436  10.061   5.972   3.807 -1.1930 -0.8684 -0.2969
  576MOL0     H79437   9.860   5.794   3.679 -0.7531  0.3293 -0.1238
  576MOL0     H79438   9.571   5.816   3.686  3.1415 -0.1745  0.5583
  576MOL0     H79439   9.484   5.799   3.837 -2.0255 -0.3252 -0.2452
  576MOL0     H79440   9.626   5.560   3.707 -1.2190  0.5680 -2.3370
  576MOL0     H79441   9.508   5.563   3.841  1.6335 -0.1041  0.1212
  576MOL0     H79442   9.326   5.643   3.689 -0.5014 -0.8584 -0.3286
  576MOL0     H79443   9.454   5.626   3.557  2.1073 -2.5178  0.7033
  576MOL0     H79444   9.455   5.380   3.610 -0.4641 -1.1764  2.2368
  576MOL0     H79445   9.336   5.413   3.720 -2.4580 -0.3320 -1.1684
  576MOL0     H79446   9.019   5.505   3.476 -2.1454 -0.5541  0.2716
  576MOL0     H79447   8.789   5.442   3.400 -1.9334  1.4419  0.5279
  576MOL0     H79448   8.711   5.412   3.562  1.3509  1.1158 -1.7514
  576MOL0     H79449   8.736   5.282   3.431  0.4515  0.6694 -2.8172
  576MOL0     H79450   8.795   4.915   3.973 -0.3511 -1.4798  1.0267
  576MOL0     H79451   8.617   4.749   4.040  0.1627  2.7396  0.7233
  576MOL0     H79452   8.270   4.678   3.772 -0.5484  0.0159  1.2098
  576MOL0     H79453   8.385   4.549   3.719 -5.0329 -0.0751 -3.9782
  576MOL0     H79454   8.183   4.548   3.942  1.5077  4.4401 -1.3665
  576MOL0     H79455   8.165   4.455   3.797  0.6661  4.2017 -1.0949
  576MOL0     H79456   8.222   4.310   3.998 -0.7566 -2.0838 -1.8931
  576MOL0     H79457   8.360   4.398   4.038  0.2276 -0.4697  0.2638
  576MOL0     H79458   8.465   4.318   3.803  2.3149 -0.0432  0.9406
  576MOL0     H79459   8.314   4.226   3.792 -0.0978  1.6254 -0.0115
  576MOL0     H79460   8.504   4.182   4.017 -1.8628  1.5055  0.3709
  576MOL0     H79461   8.353   4.096   3.979  0.8896 -0.6694  0.8003
  576MOL0     H79462   8.455   3.993   3.772  1.3589 -1.3140  0.0136
  576MOL0     H79463   8.523   3.951   3.928  1.3818 -2.0042 -2.8870
  576MOL0     H79464   8.700   4.114   3.907  0.6027 -0.5170 -0.2870
  576MOL0     H79465   8.640   4.152   3.739  2.2731 -0.4417 -0.6512
  576MOL0     H79466   8.709   3.872   3.833 -2.4478 -1.3147 -1.6510
  576MOL0     H79467   8.837   3.977   3.763  0.4335 -0.2564 -0.4884
  576MOL0     H79468   8.484   4.733   3.637  0.3057  1.4164 -0.2530
  576MOL0     H79469   8.637   4.894   3.563 -3.3119 -2.1850 -1.2051
  576MOL0     H79470   9.079   5.077   3.716 -2.1352  1.4284  2.9549
  576MOL0     H79471   9.259   5.197   3.646  1.2715  0.3472 -3.5524
  576MOL0     H79472  10.767   5.670   4.527 -2.4866 -1.4846  0.1050
  576MOL0     H79473  10.753   5.630   4.762 -0.7933  0.7457  2.0281
  576MOL0     H79474  10.553   5.851   5.152 -0.2980 -2.0144 -2.0628
  576MOL0     H79475  10.451   5.893   5.385  0.0347  1.7420 -1.5533
  576MOL0     H79476  10.370   5.883   5.600  0.4465 -1.0672  2.8683
  576MOL0     H79477  10.247   5.878   5.465  0.0077 -3.8348 -2.3900
  576MOL0     H79478  10.158   5.933   5.704 -1.6656 -0.8001  3.3454
  576MOL0     H79479  10.187   5.768   5.751 -1.7883 -0.4605 -0.5466
  576MOL0     H79480   9.977   5.843   5.541 -0.8892  0.3241  0.7365
  576MOL0     H79481  10.046   5.677   5.560  0.2941 -0.0034  0.6591
  576MOL0     H79482   9.937   5.871   5.776  1.1641  0.1263  0.9075
  576MOL0     H79483   9.985   5.701   5.803 -2.4523  0.2008  1.8681
  576MOL0     H79484   9.591   5.650   5.661  0.3632  0.2927 -0.3982
  576MOL0     H79485  10.352   5.476   5.390 -0.5025 -0.0449  0.2029
  576MOL0     H79486  10.351   5.380   5.080  1.7176  1.8805 -1.0616
  576MOL0     H79487  10.523   5.379   5.106 -0.4400  0.8938 -0.4875
  576MOL0     H79488  10.400   5.326   5.236 -3.6301  0.2191 -0.5766
  577MOL0     O79489  10.894   8.454   4.514 -0.1346 -0.1175  0.7145
  577MOL0     C79490  10.949   8.531   4.591  0.6689 -0.4653  0.0464
  577MOL0     O79491  10.942   8.522   4.728 -0.4210 -0.5408  0.4172
  577MOL0     C79492  10.892   8.406   4.778 -0.7559  0.3909  0.6735
  577MOL0     C79493  10.760   8.368   4.771 -0.6572  0.4574 -1.0128
  577MOL0     C79494  10.714   8.242   4.814  0.2504  0.2701 -0.3926
  577MOL0     C79495  10.813   8.145   4.855  0.5167 -0.9753  0.1504
  577MOL0     O79496  10.774   8.022   4.885 -0.0878 -0.1628 -0.4070
  577MOL0     C79497  10.727   8.007   5.020 -0.0749  0.6132  0.3762
  577MOL0     C79498  10.759   7.867   5.073  0.3005  0.4442  0.0541
  577MOL0     C79499  10.908   7.813   5.034 -0.0764  0.1019  0.4241
  577MOL0     C79500  10.921   7.680   5.112  0.2254  0.0113  0.0592
  577MOL0     C79501  11.060   7.608   5.109 -0.2633  0.1072 -0.1353
  577MOL0     C79502  11.069   7.490   5.209  0.1623 -1.1812 -0.1027
  577MOL0     C79503  11.190   7.413   5.193  0.3701  0.4083 -0.5478
  577MOL0     C79504  11.205   7.353   5.042  0.7749  0.0604 -0.9625
  577MOL0     N79505  11.269   7.224   5.028 -0.4446 -0.5611 -0.1933
  577MOL0     C79506  11.394   7.199   4.982 -0.1933  0.5723  0.1353
  577MOL0     C79507  11.396   7.076   4.941  0.1897  0.6675  0.1500
  577MOL0     C79508  11.517   6.998   4.875  0.3288 -0.0379  0.5991
  577MOL0     C79509  11.558   6.875   4.963 -0.4342 -0.6086 -0.8806
  577MOL0     C79510  11.457   6.750   4.974 -0.0237 -0.2586  0.0474
  577MOL0     C79511  11.407   6.704   4.832 -0.0945 -0.0918 -0.5378
  577MOL0     O79512  11.512   6.711   4.743 -0.9534 -0.1204  0.9202
  577MOL0     C79513  11.472   6.679   4.610  0.0338  0.5467  0.0589
  577MOL0     C79514  11.573   6.681   4.519 -0.8656  0.3629 -0.1395
  577MOL0     C79515  11.556   6.646   4.391  0.1384 -0.3145 -0.1912
  577MOL0     C79516  11.668   6.688   4.307  0.2947  0.4354  0.0407
  577MOL0     C79517  11.440   6.580   4.347 -0.0816 -0.9591 -0.3317
  577MOL0     C79518  11.426   6.538   4.209 -0.0662  0.4568  0.4198
  577MOL0     O79519  11.471   6.413   4.170  0.1291 -0.3730 -0.0722
  577MOL0     C79520  11.459   6.384   4.036 -0.1929  1.5198 -0.0836
  577MOL0     C79521  11.397   6.257   4.011  0.1998  0.2807 -0.7042
  577MOL0     C79522  11.397   6.203   3.883 -0.7686 -0.1560  0.1661
  577MOL0     C79523  11.450   6.273   3.766 -0.3663 -0.0693 -0.1834
  577MOL0     O79524  11.433   6.221   3.647 -0.0001 -0.6593  0.2405
  577MOL0     C79525  11.446   6.295   3.531 -0.3404 -0.8823  0.0782
  577MOL0     C79526  11.476   6.213   3.405 -0.0942  0.1657  0.4008
  577MOL0     C79527  11.501   6.286   3.276  0.7324  0.4303  0.8310
  577MOL0     C79528  11.639   6.269   3.208 -0.1713  0.0279 -0.3305
  577MOL0     C79529  11.640   6.334   3.071  0.4621 -0.4360 -0.5352
  577MOL0     C79530  11.649   6.488   3.086 -0.1434  0.4290  0.0941
  577MOL0     C79531  11.609   6.556   2.940 -0.4940  0.5723 -1.5928
  577MOL0     C79532  11.704   6.671   2.905 -0.3110  0.5611  0.4667
  577MOL0    Cl79533  11.864   6.608   2.849 -0.0127  0.0568 -0.4772
  577MOL0     C79534  11.505   6.403   3.791  0.0052 -0.2361 -0.0181
  577MOL0     C79535  11.514   6.451   3.925 -0.1683 -0.1660 -0.5781
  577MOL0     O79536  11.373   6.618   4.133  1.1596  0.2381 -0.1962
  577MOL0     C79537  11.334   6.574   4.440 -0.5167 -0.1053 -0.0721
  577MOL0     C79538  11.349   6.625   4.572  0.6696  0.2836  0.2587
  577MOL0     N79539  11.274   7.017   4.960 -0.5509 -0.0674 -0.3555
  577MOL0     N79540  11.195   7.108   5.005 -0.1726 -0.7325 -0.1897
  577MOL0     C79541  10.949   8.183   4.855 -0.3195  0.5255  0.5698
  577MOL0     C79542  10.988   8.309   4.816  0.3111 -1.2428 -0.2143
  577MOL0     C79543  11.015   8.658   4.530  0.2984  0.1480  0.1769
  577MOL0     C79544  11.021   8.666   4.391  0.0901  0.8109  0.5321
  577MOL0     C79545  11.076   8.769   4.323 -0.2133 -1.0680 -0.3389
  577MOL0     C79546  11.128   8.872   4.392 -0.6738  0.9151 -0.1120
  577MOL0     O79547  11.182   8.972   4.321 -0.7392 -0.3171 -0.5221
  577MOL0     C79548  11.176   9.106   4.378 -0.1556  0.4445  1.1520
  577MOL0     C79549  11.087   9.178   4.283  0.5937 -0.2673  1.0303
  577MOL0     C79550  11.074   9.323   4.328 -0.6347  0.8226  0.4495
  577MOL0     C79551  10.982   9.401   4.229  0.2722 -0.3157  0.1744
  577MOL0     C79552  10.841   9.382   4.271 -0.3563  0.0132 -0.8254
  577MOL0     C79553  10.735   9.378   4.320 -0.3590  0.4552  0.1211
  577MOL0     C79554  11.153   8.857   4.526  0.0828  0.2589 -0.4469
  577MOL0     C79555  11.091   8.756   4.602 -0.1135 -0.1661 -0.4752
  577MOL0     C79556  11.127   8.738   4.749  0.1845 -0.4492 -1.4820
  577MOL0     H79557  10.683   8.432   4.730  1.2378  3.3836 -0.2930
  577MOL0     H79558  10.607   8.229   4.825 -0.0190  2.7848  0.6121
  577MOL0     H79559  10.619   8.010   5.032 -0.1729 -3.2534  2.0546
  577MOL0     H79560  10.779   8.070   5.093  1.4276 -0.2994  0.1515
  577MOL0     H79561  10.744   7.864   5.181 -2.2270 -1.1037 -0.2273
  577MOL0     H79562  10.686   7.805   5.019 -2.8695  4.4373 -0.6958
  577MOL0     H79563  10.916   7.783   4.929 -0.1050 -1.0979  0.7559
  577MOL0     H79564  10.987   7.880   5.069  0.1763 -0.7340  1.4972
  577MOL0     H79565  10.917   7.710   5.217  2.7081 -0.1995  0.2859
  577MOL0     H79566  10.840   7.613   5.082 -0.0060  0.5778 -0.6069
  577MOL0     H79567  11.144   7.677   5.123  1.2976 -1.9205  0.9179
  577MOL0     H79568  11.071   7.571   5.006 -2.8424 -1.3130  0.0061
  577MOL0     H79569  11.062   7.527   5.312 -2.9433 -2.7828  0.3979
  577MOL0     H79570  10.982   7.425   5.200  0.2982 -1.5860  1.3195
  577MOL0     H79571  11.171   7.327   5.257 -1.9631 -2.5044 -4.6192
  577MOL0     H79572  11.276   7.476   5.219  1.5024 -2.3362  3.2004
  577MOL0     H79573  11.101   7.339   5.009  0.4935  0.5852 -0.3235
  577MOL0     H79574  11.257   7.430   4.983  3.4928 -0.8837  0.0706
  577MOL0     H79575  11.476   7.268   4.960  1.0148 -1.4661 -2.2549
  577MOL0     H79576  11.608   7.059   4.867  1.5485 -1.7854  0.5911
  577MOL0     H79577  11.482   6.965   4.777  2.7257 -1.3890  0.1278
  577MOL0     H79578  11.659   6.846   4.931  1.3414  3.3422  0.4604
  577MOL0     H79579  11.577   6.903   5.067 -1.0760 -2.8972 -0.0965
  577MOL0     H79580  11.499   6.669   5.035  1.2004  1.1360  1.1242
  577MOL0     H79581  11.361   6.783   5.014 -1.0399 -1.3867 -1.3381
  577MOL0     H79582  11.379   6.598   4.832 -1.5162  0.1756  2.4547
  577MOL0     H79583  11.325   6.767   4.799 -0.1443 -1.6895 -3.8702
  577MOL0     H79584  11.662   6.730   4.557 -0.2528 -2.2397  2.0944
  577MOL0     H79585  11.769   6.686   4.349  0.2060  0.0971  0.2379
  577MOL0     H79586  11.655   6.786   4.260  1.9805  0.8443  0.3469
  577MOL0     H79587  11.668   6.621   4.221 -2.9995 -0.1948  0.4198
  577MOL0     H79588  11.357   6.209   4.100 -0.4462 -0.4645 -1.3839
  577MOL0     H79589  11.351   6.105   3.867  0.0953 -1.0604  2.7484
  577MOL0     H79590  11.353   6.350   3.512  1.0936  1.5545 -0.3193
  577MOL0     H79591  11.527   6.369   3.521 -0.7534 -0.6137 -1.4191
  577MOL0     H79592  11.555   6.138   3.423 -1.4789 -1.2973  0.5951
  577MOL0     H79593  11.398   6.140   3.383  1.8799 -1.1307 -3.1639
  577MOL0     H79594  11.476   6.391   3.291  1.9073  0.7979  0.3048
  577MOL0     H79595  11.430   6.250   3.201 -0.5799  3.5914  0.4112
  577MOL0     H79596  11.672   6.165   3.198 -1.1207 -0.4993  1.5203
  577MOL0     H79597  11.712   6.326   3.266  0.8927 -2.0903  0.5011
  577MOL0     H79598  11.715   6.287   3.007 -1.4180 -2.9852 -1.0694
  577MOL0     H79599  11.537   6.317   3.036 -0.7971  1.0372  2.1357
  577MOL0     H79600  11.754   6.511   3.109 -0.7278  1.4640  1.9436
  577MOL0     H79601  11.577   6.539   3.150 -0.7102  1.2158 -1.1221
  577MOL0     H79602  11.513   6.605   2.960  0.8024  2.4193  0.6417
  577MOL0     H79603  11.605   6.490   2.853  3.7020  1.3454 -2.5722
  577MOL0     H79604  11.703   6.735   2.994 -0.2812 -0.4947  1.2491
  577MOL0     H79605  11.658   6.725   2.822 -0.2912 -0.9868 -0.5955
  577MOL0     H79606  11.533   6.461   3.703  0.3001 -2.5217 -1.5304
  577MOL0     H79607  11.556   6.550   3.933  2.8852 -1.4670  0.9317
  577MOL0     H79608  11.239   6.532   4.411 -0.2027  0.3133 -1.8390
  577MOL0     H79609  11.261   6.621   4.635 -1.0144 -0.3141 -2.0334
  577MOL0     H79610  11.018   8.105   4.885 -0.3459  1.3914  3.2107
  577MOL0     H79611  11.084   8.353   4.839 -0.8818 -0.2424  3.6036
  577MOL0     H79612  10.978   8.593   4.322  2.2220 -2.7291  2.6364
  577MOL0     H79613  11.094   8.769   4.216  1.4764  2.2187 -0.1774
  577MOL0     H79614  11.136   9.110   4.480 -2.2785  1.2217  0.3599
  577MOL0     H79615  11.272   9.158   4.372 -0.7798  1.5244 -0.1688
  577MOL0     H79616  10.984   9.143   4.277  0.4878  0.2512 -1.8541
  577MOL0     H79617  11.129   9.173   4.182  0.4399  1.3716  0.8579
  577MOL0     H79618  11.033   9.321   4.429  0.7264  0.3196  1.0175
  577MOL0     H79619  11.171   9.375   4.331 -1.8290  3.6332 -2.9591
  577MOL0     H79620  10.998   9.362   4.128  0.4979 -2.2099  0.9083
  577MOL0     H79621  11.000   9.508   4.238 -0.3773 -0.0920 -0.9770
  577MOL0     H79622  10.646   9.376   4.380 -0.5169  3.0847  0.0835
  577MOL0     H79623  11.220   8.919   4.585 -3.1361  0.4712  3.5077
  577MOL0     H79624  11.199   8.811   4.786 -1.4883  0.4439  0.1455
  577MOL0     H79625  11.032   8.740   4.802 -1.1192 -0.7413 -3.6997
  577MOL0     H79626  11.179   8.642   4.765  0.8574  0.4632  3.2406
  578MOL0     O79627   7.888   5.961   4.924  0.8179  0.7921 -0.0218
  578MOL0     C79628   7.997   5.929   4.963 -0.3532 -0.7307  0.3802
  578MOL0     O79629   8.040   5.801   5.002  0.3560  0.2300  0.3105
  578MOL0     C79630   7.940   5.705   4.991 -0.1552 -0.5764  0.4144
  578MOL0     C79631   7.815   5.724   5.057 -0.9230  0.2891 -0.0543
  578MOL0     C79632   7.717   5.628   5.047 -0.0304 -0.3205 -0.2859
  578MOL0     C79633   7.731   5.516   4.959  0.3153  0.0642 -0.6647
  578MOL0     O79634   7.647   5.409   4.949  0.2559 -0.8148 -0.2794
  578MOL0     C79635   7.519   5.426   5.017  0.6040  0.0802  0.2589
  578MOL0     C79636   7.419   5.517   4.936 -0.4995  0.4164  0.4405
  578MOL0     C79637   7.421   5.494   4.788  0.7653 -0.4291  0.5614
  578MOL0     C79638   7.281   5.489   4.718 -0.0836  0.0675  1.4456
  578MOL0     C79639   7.275   5.487   4.561  0.6081  0.2780 -0.4331
  578MOL0     C79640   7.314   5.629   4.505 -0.0421  0.3426 -0.3848
  578MOL0     C79641   7.372   5.621   4.369  0.4744 -0.6666 -0.4153
  578MOL0     C79642   7.399   5.764   4.312 -0.1321  0.5241 -0.3644
  578MOL0     N79643   7.282   5.855   4.323  0.6387  0.7697  0.2225
  578MOL0     C79644   7.264   5.970   4.398 -0.9832  0.0784 -0.0138
  578MOL0     C79645   7.135   6.006   4.366 -0.3936 -0.2401  0.2793
  578MOL0     C79646   7.066   6.132   4.420 -0.3826 -0.2721  0.2792
  578MOL0     C79647   6.996   6.112   4.557 -0.6422  0.6316  0.8429
  578MOL0     C79648   6.884   6.210   4.576  0.4111 -0.2542  0.5798
  578MOL0     C79649   6.928   6.354   4.579 -0.6415  0.8231 -0.3175
  578MOL0     O79650   6.998   6.382   4.704  0.3768 -0.3186  0.1101
  578MOL0     C79651   7.101   6.470   4.711 -0.7095 -0.0363  0.5915
  578MOL0     C79652   7.193   6.463   4.807 -1.3023  0.3507  0.9155
  578MOL0     C79653   7.296   6.560   4.829 -0.9815 -0.4739  0.7850
  578MOL0     C79654   7.389   6.538   4.943 -0.0954 -0.3416 -0.7022
  578MOL0     C79655   7.300   6.676   4.743 -1.3475  0.4876 -0.0781
  578MOL0     C79656   7.404   6.793   4.760 -0.2899  1.1048  0.6719
  578MOL0     O79657   7.530   6.760   4.823 -0.1106  0.3637  0.2537
  578MOL0     C79658   7.600   6.872   4.860  0.6167 -0.6678  0.8337
  578MOL0     C79659   7.558   6.937   4.983 -0.1730 -0.0940 -0.0744
  578MOL0     C79660   7.623   7.060   5.021  0.2891  0.3587 -0.2948
  578MOL0     C79661   7.741   7.092   4.955  0.1206 -0.2767 -0.4314
  578MOL0     O79662   7.809   7.195   5.012  0.1553 -0.1108 -0.0832
  578MOL0     C79663   7.941   7.225   4.951  1.0158 -0.1442  0.2716
  578MOL0     C79664   8.006   7.333   5.036  0.1228 -0.6777 -0.4291
  578MOL0     C79665   7.962   7.478   4.994 -0.4686  0.5399 -0.4665
  578MOL0     C79666   8.062   7.581   5.050 -0.4471  0.5914 -0.1436
  578MOL0     C79667   8.018   7.720   5.070 -0.3915 -0.3773 -1.3072
  578MOL0     C79668   7.915   7.768   4.970  0.1280  0.5482 -0.1515
  578MOL0     C79669   7.874   7.914   5.002 -0.6858  0.7332  0.3374
  578MOL0     C79670   7.996   8.011   4.991  0.2743 -0.5612  0.4440
  578MOL0    Cl79671   8.067   7.999   4.823  0.0194  0.3764 -0.1396
  578MOL0     C79672   7.776   7.019   4.837 -0.7568  0.0675  0.1963
  578MOL0     C79673   7.705   6.909   4.781 -0.0567 -0.1903 -0.7513
  578MOL0     O79674   7.366   6.900   4.724  0.4311 -0.2570 -0.3878
  578MOL0     C79675   7.203   6.681   4.638 -0.5409  0.2649 -0.3448
  578MOL0     C79676   7.101   6.585   4.636  0.1567 -0.3909  0.1474
  578MOL0     N79677   7.085   5.927   4.263 -0.2805  1.2090 -0.4131
  578MOL0     N79678   7.173   5.837   4.246 -0.2142  1.2208  0.8298
  578MOL0     C79679   7.855   5.507   4.894  0.3888  1.2423 -0.5327
  578MOL0     C79680   7.954   5.603   4.902 -1.0117  0.0303 -0.3513
  578MOL0     C79681   8.097   6.038   4.975  0.0495  0.9101  0.2318
  578MOL0     C79682   8.041   6.159   4.971 -0.2550 -0.6416 -0.2225
  578MOL0     C79683   8.114   6.278   4.994 -1.1583  0.5715  0.6805
  578MOL0     C79684   8.263   6.264   5.011 -0.1934 -0.7042  0.0422
  578MOL0     O79685   8.345   6.365   5.038 -0.1092  0.5990 -0.6425
  578MOL0     C79686   8.312   6.500   5.050  1.3020 -0.6558 -0.5604
  578MOL0     C79687   8.288   6.585   4.925  0.3560  0.2425 -0.4243
  578MOL0     C79688   8.409   6.578   4.838 -0.4123  0.4772 -0.4324
  578MOL0     C79689   8.426   6.692   4.728 -0.2896  0.0839  1.2951
  578MOL0     C79690   8.432   6.828   4.771 -0.3935  0.0918  0.5296
  578MOL0     C79691   8.429   6.948   4.795  0.0601  0.3651  0.2435
  578MOL0     C79692   8.314   6.129   5.004  0.0985 -0.9206  0.3471
  578MOL0     C79693   8.241   6.017   4.971  0.9102 -0.5521  0.9500
  578MOL0     C79694   8.319   5.892   4.957 -0.3743  0.1336  0.2143
  578MOL0     H79695   7.819   5.797   5.137 -0.0095 -2.2176  2.3537
  578MOL0     H79696   7.621   5.646   5.095  0.5948 -2.4930  1.9654
  578MOL0     H79697   7.542   5.458   5.120  0.3659 -0.6535  0.5449
  578MOL0     H79698   7.466   5.331   5.030 -1.2331  1.3090  2.5168
  578MOL0     H79699   7.315   5.501   4.968  0.6771  0.6808  5.1341
  578MOL0     H79700   7.445   5.619   4.964 -0.6728  0.1398  1.6953
  578MOL0     H79701   7.486   5.567   4.739 -1.6444  1.2806 -0.3097
  578MOL0     H79702   7.459   5.392   4.782 -1.1487 -1.2649  1.6894
  578MOL0     H79703   7.246   5.394   4.761 -0.6034 -0.9269 -1.0217
  578MOL0     H79704   7.224   5.576   4.751  0.4454  0.5295  1.1617
  578MOL0     H79705   7.173   5.467   4.526  0.8348 -0.6380 -0.5771
  578MOL0     H79706   7.342   5.410   4.522  3.3312  1.0533  2.3553
  578MOL0     H79707   7.223   5.690   4.504  0.8804  1.7887  0.1291
  578MOL0     H79708   7.381   5.681   4.575  2.0477 -0.3886 -1.7236
  578MOL0     H79709   7.301   5.570   4.304  2.4159  0.8124 -3.9992
  578MOL0     H79710   7.456   5.551   4.361  0.0055 -1.0411 -3.4394
  578MOL0     H79711   7.486   5.808   4.363 -0.5265 -1.5916  2.3806
  578MOL0     H79712   7.422   5.746   4.207  1.8001  0.6867 -0.0241
  578MOL0     H79713   7.332   6.011   4.473 -1.0842 -2.4320  1.5910
  578MOL0     H79714   6.992   6.171   4.349  2.2986  0.2533 -2.4041
  578MOL0     H79715   7.143   6.209   4.427  1.0443 -1.7439  1.6523
  578MOL0     H79716   6.948   6.016   4.574  3.2524 -1.5128  0.8935
  578MOL0     H79717   7.065   6.116   4.642  0.0356  0.5018  0.3037
  578MOL0     H79718   6.808   6.202   4.497 -0.9359  1.4644  1.6220
  578MOL0     H79719   6.824   6.182   4.663 -1.5433 -2.3093 -1.2838
  578MOL0     H79720   6.988   6.372   4.489 -3.9117  1.7143 -2.4815
  578MOL0     H79721   6.850   6.428   4.564  1.1799  2.3327 -3.3208
  578MOL0     H79722   7.175   6.381   4.876 -2.5263 -1.6970 -1.6446
  578MOL0     H79723   7.343   6.463   5.008 -1.1130  1.1232  0.3300
  578MOL0     H79724   7.415   6.624   5.005 -1.5985 -1.6557  1.9470
  578MOL0     H79725   7.480   6.493   4.901  1.0020  2.0455 -1.0075
  578MOL0     H79726   7.475   6.889   5.034  0.3394 -3.1771 -1.8794
  578MOL0     H79727   7.593   7.102   5.117 -0.4784  0.1131 -0.4209
  578MOL0     H79728   7.997   7.131   4.948 -1.5223 -1.8150  1.6732
  578MOL0     H79729   7.922   7.265   4.851  0.1261  0.4416  0.6591
  578MOL0     H79730   7.975   7.317   5.140 -0.4611 -1.4497 -0.7138
  578MOL0     H79731   8.112   7.311   5.019  1.0081  1.7684  1.3167
  578MOL0     H79732   7.865   7.508   5.033  1.1207  5.4444  0.3819
  578MOL0     H79733   7.967   7.491   4.885  0.5952  3.2124 -0.1727
  578MOL0     H79734   8.149   7.578   4.984 -0.9257 -2.2968 -0.7584
  578MOL0     H79735   8.106   7.535   5.138  2.0433 -1.1277 -2.1446
  578MOL0     H79736   7.961   7.709   5.163  0.5960 -2.0009 -0.8434
  578MOL0     H79737   8.102   7.787   5.087 -0.8699  0.1678 -1.0479
  578MOL0     H79738   7.825   7.706   4.971  1.5035 -1.5432  0.7462
  578MOL0     H79739   7.941   7.770   4.864  0.0854  2.6903 -0.1656
  578MOL0     H79740   7.834   7.911   5.104 -4.5422 -2.6972 -0.9958
  578MOL0     H79741   7.799   7.952   4.932  0.2784  0.4958 -0.8720
  578MOL0     H79742   8.059   8.005   5.080 -1.8645 -0.6447  2.0446
  578MOL0     H79743   7.937   8.103   5.002  1.2898 -0.1168  2.8250
  578MOL0     H79744   7.866   7.046   4.784  1.1342 -2.4282  1.8911
  578MOL0     H79745   7.720   6.844   4.696 -2.5097 -0.6880 -0.8825
  578MOL0     H79746   7.199   6.764   4.568  2.8159 -0.9415 -2.2250
  578MOL0     H79747   7.023   6.596   4.562 -1.0003 -1.0524  1.2328
  578MOL0     H79748   7.871   5.419   4.833  0.9088 -0.4824  1.8981
  578MOL0     H79749   8.042   5.599   4.838 -1.4906  1.6799 -1.1794
  578MOL0     H79750   7.934   6.174   4.959  0.5182  4.4338 -4.1510
  578MOL0     H79751   8.064   6.374   5.010 -0.8207  0.3936  3.3236
  578MOL0     H79752   8.211   6.498   5.090  0.3218  0.2589 -2.8322
  578MOL0     H79753   8.388   6.552   5.110  0.5821  2.2143 -1.9755
  578MOL0     H79754   8.271   6.690   4.952 -1.9080 -0.4794  1.3174
  578MOL0     H79755   8.197   6.556   4.873 -0.4105  0.9279  0.5011
  578MOL0     H79756   8.497   6.565   4.901 -0.9515  0.8226  0.4159
  578MOL0     H79757   8.400   6.485   4.782  2.4774 -0.5687  0.6725
  578MOL0     H79758   8.346   6.677   4.656  0.0905  2.4875  0.2562
  578MOL0     H79759   8.515   6.669   4.669 -0.7468 -1.5499  1.1996
  578MOL0     H79760   8.421   7.051   4.821  3.4155  1.5062 -2.5274
  578MOL0     H79761   8.423   6.129   5.011 -0.0065  0.0737  3.0100
  578MOL0     H79762   8.265   5.798   4.973  0.4435  0.0142  2.6027
  578MOL0     H79763   8.359   5.887   4.855  0.6516 -0.0997  0.6174
  578MOL0     H79764   8.408   5.884   5.020 -1.4775  1.0030  1.9703
  579MOL0     O79765  11.192   7.378   3.014  0.2187 -0.0195  0.5208
  579MOL0     C79766  11.176   7.502   3.021 -0.3694  0.5665  0.3990
  579MOL0     O79767  11.098   7.562   3.107  0.2136 -0.2886  0.2427
  579MOL0     C79768  11.012   7.509   3.205  0.2313 -0.7226  0.5327
  579MOL0     C79769  10.969   7.372   3.217  0.1865  0.1261 -0.7820
  579MOL0     C79770  10.864   7.333   3.288  0.3656  0.4718 -0.3504
  579MOL0     C79771  10.798   7.418   3.374  0.8341 -0.5797 -0.0539
  579MOL0     O79772  10.686   7.365   3.436 -0.3512 -0.1111 -0.0161
  579MOL0     C79773  10.601   7.459   3.511  0.4295  0.3937 -0.1009
  579MOL0     C79774  10.494   7.373   3.575  0.2797  0.3167 -0.9296
  579MOL0     C79775  10.444   7.439   3.704 -0.1184  0.6816  0.0444
  579MOL0     C79776  10.360   7.339   3.778  0.0016  0.2683  0.7376
  579MOL0     C79777  10.332   7.376   3.922  0.3131  0.7530  0.1355
  579MOL0     C79778  10.444   7.346   4.019  0.5467  0.4049  0.2533
  579MOL0     C79779  10.415   7.376   4.169 -0.3747  0.6019  0.3967
  579MOL0     C79780  10.263   7.346   4.221 -0.0346  0.1108 -0.2068
  579MOL0     N79781  10.253   7.388   4.362 -0.7868 -0.3006 -1.0917
  579MOL0     C79782  10.262   7.311   4.482 -0.5043 -1.3005  0.5526
  579MOL0     C79783  10.243   7.401   4.580  0.4467 -0.8080  0.1618
  579MOL0     C79784  10.235   7.393   4.730  0.9967  0.6314  0.0229
  579MOL0     C79785  10.120   7.292   4.763 -0.4322 -0.0303  0.1658
  579MOL0     C79786  10.111   7.254   4.910 -0.3593  0.1926 -0.3587
  579MOL0     C79787  10.075   7.371   4.996  0.7985 -0.2320 -0.1206
  579MOL0     O79788  10.035   7.322   5.128 -0.6828  0.9321  0.5097
  579MOL0     C79789   9.901   7.310   5.159  0.2513 -0.1453  0.0114
  579MOL0     C79790   9.845   7.386   5.263  0.9876  0.3687  0.7967
  579MOL0     C79791   9.701   7.380   5.292 -0.3350  0.2508  0.1454
  579MOL0     C79792   9.662   7.456   5.417 -1.1500 -0.2858  0.1643
  579MOL0     C79793   9.621   7.288   5.221 -0.2421 -0.7280  0.1042
  579MOL0     C79794   9.479   7.266   5.254 -0.3512  0.3230 -0.2793
  579MOL0     O79795   9.411   7.361   5.335 -0.6807 -0.2045  0.4661
  579MOL0     C79796   9.288   7.325   5.362 -0.4021 -0.3487  0.1303
  579MOL0     C79797   9.254   7.283   5.490  0.7580  0.1565 -0.3650
  579MOL0     C79798   9.141   7.210   5.513  0.1770  1.0945  0.1906
  579MOL0     C79799   9.049   7.176   5.411 -0.5287 -0.2139 -0.2333
  579MOL0     O79800   8.943   7.089   5.433  0.6191  0.1253 -0.5589
  579MOL0     C79801   8.891   7.015   5.323 -0.1358  0.1079  0.4577
  579MOL0     C79802   8.986   6.896   5.286  0.2814 -0.4205  0.0856
  579MOL0     C79803   8.936   6.786   5.207 -0.0884  0.6074  0.6165
  579MOL0     C79804   9.029   6.669   5.209 -1.0004  0.4947  0.0504
  579MOL0     C79805   9.016   6.577   5.332  0.3631 -0.1976 -0.7889
  579MOL0     C79806   8.893   6.492   5.334  0.2495  0.4427  0.1837
  579MOL0     C79807   8.893   6.406   5.458 -0.3532 -0.0804 -0.6936
  579MOL0     C79808   8.826   6.286   5.415 -0.1093 -0.1253 -0.2322
  579MOL0    Cl79809   8.658   6.326   5.380 -0.3007 -0.4788 -0.1227
  579MOL0     C79810   9.082   7.221   5.291 -0.0132 -0.5152  0.5940
  579MOL0     C79811   9.195   7.287   5.257  0.0344  0.2969 -0.2348
  579MOL0     O79812   9.435   7.155   5.212 -0.3257  0.3313  0.5496
  579MOL0     C79813   9.678   7.214   5.121 -0.4998  0.3983  0.5481
  579MOL0     C79814   9.820   7.222   5.089 -0.0447 -0.3801 -0.1706
  579MOL0     N79815  10.229   7.524   4.520 -0.3569  0.7903  0.6191
  579MOL0     N79816  10.225   7.518   4.396  0.4277  0.3096  0.0834
  579MOL0     C79817  10.844   7.557   3.386 -0.0448 -0.9713  0.7804
  579MOL0     C79818  10.949   7.598   3.303 -0.2781 -0.2442  1.5877
  579MOL0     C79819  11.254   7.582   2.928  0.5844 -0.1961 -0.4606
  579MOL0     C79820  11.399   7.564   2.911  0.1274  0.6059  0.2691
  579MOL0     C79821  11.466   7.640   2.822 -0.7131  0.7716  0.6695
  579MOL0     C79822  11.407   7.737   2.742  0.3986 -0.7854  0.2842
  579MOL0     O79823  11.484   7.818   2.652 -0.2897  0.3271  0.0462
  579MOL0     C79824  11.439   7.824   2.515  0.0994  0.0119  0.6997
  579MOL0     C79825  11.538   7.800   2.401  0.2651 -1.1122 -1.7627
  579MOL0     C79826  11.643   7.915   2.408  0.3269 -0.0883  0.3553
  579MOL0     C79827  11.768   7.876   2.331  0.3158  0.1434 -0.1748
  579MOL0     C79828  11.880   7.950   2.378  1.0819 -0.5747 -0.1950
  579MOL0     C79829  11.976   8.017   2.414  0.2753 -0.0705 -0.7300
  579MOL0     C79830  11.274   7.766   2.752  0.0514  0.7769 -0.0287
  579MOL0     C79831  11.198   7.683   2.843  0.7636 -0.2596  0.2546
  579MOL0     C79832  11.056   7.712   2.836  0.7442 -0.5850 -0.7711
  579MOL0     H79833  11.034   7.310   3.157  3.3532  1.0080  1.4929
  579MOL0     H79834  10.840   7.229   3.303  1.9922  0.2492  1.0612
  579MOL0     H79835  10.549   7.520   3.437 -1.3308  0.8821  1.4346
  579MOL0     H79836  10.667   7.519   3.575  2.4601 -1.7146 -0.1149
  579MOL0     H79837  10.406   7.348   3.514 -1.6830 -2.3364  2.6256
  579MOL0     H79838  10.542   7.276   3.595  0.1388  0.5500  0.6316
  579MOL0     H79839  10.529   7.466   3.768  1.7528 -2.2169 -1.0456
  579MOL0     H79840  10.386   7.529   3.678  0.5370  2.2038  3.3198
  579MOL0     H79841  10.267   7.335   3.721  1.6748  2.5826 -2.4742
  579MOL0     H79842  10.408   7.241   3.771  0.2047  0.4184 -0.0645
  579MOL0     H79843  10.251   7.307   3.946  0.7203 -0.0831 -0.8240
  579MOL0     H79844  10.294   7.479   3.931 -1.8302  0.2206 -1.8162
  579MOL0     H79845  10.481   7.244   4.009  0.3298 -0.1329  3.7053
  579MOL0     H79846  10.520   7.418   3.989 -1.2967  1.4390 -2.3402
  579MOL0     H79847  10.442   7.479   4.195  1.3158  1.0720 -2.7305
  579MOL0     H79848  10.488   7.318   4.227 -0.0399  1.8492  1.2744
  579MOL0     H79849  10.194   7.407   4.160  0.1612  0.4928 -0.0513
  579MOL0     H79850  10.242   7.239   4.212 -2.2100  0.5442 -1.1809
  579MOL0     H79851  10.290   7.206   4.485  0.8482 -1.0383 -1.4302
  579MOL0     H79852  10.231   7.495   4.770  1.8535 -0.2127  2.4084
  579MOL0     H79853  10.326   7.351   4.774  0.3125  0.6603  1.5296
  579MOL0     H79854  10.026   7.328   4.722  0.7310 -0.7888 -3.5058
  579MOL0     H79855  10.146   7.197   4.714 -1.9293  0.8122 -2.4409
  579MOL0     H79856  10.039   7.172   4.905  1.5956 -1.8743  2.2192
  579MOL0     H79857  10.203   7.206   4.944  0.2614 -0.2972 -2.5850
  579MOL0     H79858  10.167   7.431   4.993  0.8215 -0.3061 -1.4373
  579MOL0     H79859   9.994   7.428   4.950  1.4519 -0.2639 -1.3675
  579MOL0     H79860   9.924   7.443   5.312  0.7960  0.4218  1.0498
  579MOL0     H79861   9.752   7.509   5.450  0.0178 -0.3254 -2.7060
  579MOL0     H79862   9.618   7.398   5.499 -0.5734  1.5590  1.8586
  579MOL0     H79863   9.603   7.545   5.394 -0.4895  0.5738  1.6725
  579MOL0     H79864   9.322   7.296   5.574 -3.3762  0.5963  3.3384
  579MOL0     H79865   9.124   7.163   5.610 -0.6281  0.7890 -0.0945
  579MOL0     H79866   8.801   6.973   5.370 -0.4070  1.3696  1.1222
  579MOL0     H79867   8.861   7.086   5.246  1.7957  0.7174  0.2304
  579MOL0     H79868   9.063   6.936   5.220  1.0160 -0.9018  0.6386
  579MOL0     H79869   9.028   6.861   5.380 -2.1078 -1.6333  0.7690
  579MOL0     H79870   8.926   6.826   5.106  0.6370  1.6944  0.9524
  579MOL0     H79871   8.836   6.755   5.240 -0.9093  3.5016  1.0881
  579MOL0     H79872   9.137   6.687   5.209 -0.8944 -0.0009  1.6364
  579MOL0     H79873   9.016   6.621   5.111 -1.8376 -0.0667  0.4285
  579MOL0     H79874   9.103   6.511   5.343  0.1609 -0.1347  2.2146
  579MOL0     H79875   9.013   6.645   5.418  1.7356 -0.1831 -0.7201
  579MOL0     H79876   8.886   6.431   5.244 -1.5884  2.1403 -0.8986
  579MOL0     H79877   8.803   6.555   5.331 -0.1102 -0.0721  0.0774
  579MOL0     H79878   8.854   6.461   5.543  0.3406  2.4871 -1.9169
  579MOL0     H79879   8.998   6.395   5.488 -1.0178  0.1380  1.8937
  579MOL0     H79880   8.831   6.221   5.502  2.3769  0.2317 -0.0329
  579MOL0     H79881   8.878   6.246   5.327  0.7129 -0.4525  0.3873
  579MOL0     H79882   9.021   7.197   5.204 -0.1613 -0.5494  0.7076
  579MOL0     H79883   9.209   7.293   5.149 -2.4079  0.0947 -0.6312
  579MOL0     H79884   9.617   7.147   5.061  5.1312 -0.9018 -4.8009
  579MOL0     H79885   9.880   7.163   5.020  1.4387  0.7908  0.0712
  579MOL0     H79886  10.788   7.632   3.442 -1.8346 -1.2117 -0.6061
  579MOL0     H79887  10.961   7.706   3.307 -2.9098  0.4379 -2.3247
  579MOL0     H79888  11.450   7.489   2.971  1.6253  2.0433  0.8771
  579MOL0     H79889  11.573   7.622   2.815 -0.6051  1.6124  0.0309
  579MOL0     H79890  11.361   7.749   2.500 -2.3260  2.5409 -0.4311
  579MOL0     H79891  11.380   7.916   2.508 -0.0841 -0.0101  1.7768
  579MOL0     H79892  11.489   7.800   2.304  0.4897  3.9129 -2.1213
  579MOL0     H79893  11.589   7.706   2.427 -2.0552 -2.5401 -2.0805
  579MOL0     H79894  11.601   8.009   2.369  0.4680 -0.5270 -0.9086
  579MOL0     H79895  11.669   7.932   2.513  2.0230  1.2836 -0.2412
  579MOL0     H79896  11.739   7.902   2.228 -0.3340  1.0287  0.2175
  579MOL0     H79897  11.795   7.770   2.332  0.3029  0.1351  1.1054
  579MOL0     H79898  12.051   8.077   2.461 -1.0762 -0.7595  2.5880
  579MOL0     H79899  11.236   7.847   2.690 -0.6402  0.1207 -0.4789
  579MOL0     H79900  11.019   7.752   2.742  1.2626  0.1911 -0.6490
  579MOL0     H79901  11.010   7.613   2.844 -0.1567 -0.2118 -1.1897
  579MOL0     H79902  11.023   7.778   2.917  1.8707 -0.2032 -0.6070
  580MOL0     O79903   1.915  10.335   7.631 -0.5028 -0.4842 -0.3161
  580MOL0     C79904   1.979  10.443   7.633 -0.5621  0.5127 -0.3620
  580MOL0     O79905   2.099  10.463   7.571 -0.0681  0.8967 -0.2921
  580MOL0     C79906   2.171  10.367   7.506 -0.7488 -0.2909  0.5230
  580MOL0     C79907   2.281  10.408   7.433 -0.1383 -0.5878  0.2239
  580MOL0     C79908   2.369  10.321   7.363  0.9838 -1.0145  0.5600
  580MOL0     C79909   2.360  10.187   7.379  0.1100  0.5768 -0.3190
  580MOL0     O79910   2.456  10.103   7.330  0.2649 -0.1536  0.2114
  580MOL0     C79911   2.505   9.994   7.404  0.7546 -0.3288 -0.8437
  580MOL0     C79912   2.569   9.895   7.301  0.8444  0.0536  0.0441
  580MOL0     C79913   2.689   9.962   7.241 -0.6209  0.4528 -0.0920
  580MOL0     C79914   2.767   9.877   7.149  0.0412  0.0860  0.0110
  580MOL0     C79915   2.713   9.868   7.007  0.7348  0.6154  0.9693
  580MOL0     C79916   2.727  10.003   6.941 -0.3342 -0.7279 -0.7439
  580MOL0     C79917   2.682  10.011   6.790  0.0138  0.1018  0.2586
  580MOL0     C79918   2.767   9.919   6.694  0.3768 -0.5608  0.4062
  580MOL0     N79919   2.907   9.956   6.687  0.1649 -0.7628  0.3117
  580MOL0     C79920   2.962  10.022   6.580 -0.7888 -0.0543 -0.6574
  580MOL0     C79921   3.099  10.008   6.616 -0.1708  0.3867  0.0496
  580MOL0     C79922   3.213  10.057   6.534 -0.0153 -0.1199 -0.4085
  580MOL0     C79923   3.198  10.014   6.386 -0.9395 -0.3206 -0.3007
  580MOL0     C79924   3.206   9.870   6.358 -0.3597  0.0151  0.9195
  580MOL0     C79925   3.098   9.784   6.423 -0.2608  0.3279  0.9425
  580MOL0     O79926   2.970   9.829   6.386 -0.3842  0.3640  0.5141
  580MOL0     C79927   2.865   9.744   6.416 -0.3773  0.1380  0.5438
  580MOL0     C79928   2.874   9.639   6.507  1.0123  0.2285  0.0625
  580MOL0     C79929   2.760   9.563   6.542 -0.2503 -0.6797  0.1211
  580MOL0     C79930   2.773   9.444   6.640 -0.2149  0.2802 -0.0778
  580MOL0     C79931   2.641   9.580   6.471  0.6069 -0.4925  0.3047
  580MOL0     C79932   2.534   9.481   6.477  1.3147 -0.2568 -0.8984
  580MOL0     O79933   2.466   9.464   6.596 -0.1219  0.5317 -0.1926
  580MOL0     C79934   2.423   9.567   6.665 -0.9105  0.4428  0.5454
  580MOL0     C79935   2.402   9.549   6.806  0.6812 -0.2772  0.7343
  580MOL0     C79936   2.352   9.649   6.879 -0.3089 -0.2562 -0.0327
  580MOL0     C79937   2.312   9.773   6.817 -0.1084  0.0058  0.6853
  580MOL0     O79938   2.264   9.881   6.886 -0.9844 -0.4082  0.7464
  580MOL0     C79939   2.295   9.921   7.025  0.0393  0.6643  0.3196
  580MOL0     C79940   2.203  10.035   7.064 -1.0656 -0.4156 -0.7241
  580MOL0     C79941   2.061   9.976   7.065  0.5066 -0.5849 -0.5862
  580MOL0     C79942   1.972  10.067   7.158  0.7968  0.3164 -0.1997
  580MOL0     C79943   1.816  10.028   7.154  0.3156 -0.5688  0.3962
  580MOL0     C79944   1.738  10.088   7.271 -0.0161 -0.7787  0.8490
  580MOL0     C79945   1.769  10.021   7.404  0.4375  0.4170  0.1347
  580MOL0     C79946   1.702  10.079   7.528 -0.2489 -0.7106  0.3708
  580MOL0    Cl79947   1.532  10.027   7.572 -0.2028 -0.3136 -0.6278
  580MOL0     C79948   2.317   9.788   6.674  0.7034 -0.0443 -0.4279
  580MOL0     C79949   2.381   9.684   6.603  1.0426 -0.9979  0.8806
  580MOL0     O79950   2.514   9.417   6.379  0.1705 -0.2829  0.3235
  580MOL0     C79951   2.623   9.684   6.374 -0.3756  0.1445 -0.6852
  580MOL0     C79952   2.742   9.754   6.344 -0.5417 -0.2780 -0.6027
  580MOL0     N79953   3.106   9.951   6.740 -0.2736 -0.2024 -0.7113
  580MOL0     N79954   2.996   9.915   6.779 -0.1995 -0.9343 -1.7718
  580MOL0     C79955   2.243  10.141   7.442  0.1191  1.5997  0.5264
  580MOL0     C79956   2.154  10.226   7.503 -0.3815  1.0922  0.4208
  580MOL0     C79957   1.929  10.553   7.728 -1.0779 -0.2954 -0.3680
  580MOL0     C79958   2.022  10.643   7.774  0.7739 -0.5112 -0.6121
  580MOL0     C79959   1.995  10.738   7.872  0.5400 -0.3122 -0.7614
  580MOL0     C79960   1.860  10.758   7.905  0.0277  0.3706 -0.1932
  580MOL0     O79961   1.810  10.864   7.981 -0.2379 -0.2384 -0.0604
  580MOL0     C79962   1.851  10.999   7.955 -0.6472  1.0970  0.4140
  580MOL0     C79963   1.959  11.050   8.050 -0.4293 -0.6542 -0.9638
  580MOL0     C79964   1.960  11.210   8.037 -0.1596 -0.7095 -0.2675
  580MOL0     C79965   2.091  11.270   8.091  0.7769  1.1687  0.2382
  580MOL0     C79966   2.081  11.411   8.067  0.5278  0.0680  0.2191
  580MOL0     C79967   2.070  11.528   8.054 -0.5833 -0.0704 -0.6923
  580MOL0     C79968   1.767  10.656   7.876  0.7172 -0.3138  0.0049
  580MOL0     C79969   1.800  10.549   7.792  1.1883 -0.0217 -0.6980
  580MOL0     C79970   1.701  10.431   7.770 -0.0167  0.4797  0.6408
  580MOL0     H79971   2.285  10.517   7.431 -1.1169 -0.5393 -2.1588
  580MOL0     H79972   2.452  10.347   7.298 -0.6094  1.7031 -0.5882
  580MOL0     H79973   2.416   9.947   7.448  1.0254 -0.8722 -0.8806
  580MOL0     H79974   2.575  10.024   7.483  0.8646  3.6455 -2.2036
  580MOL0     H79975   2.607   9.808   7.356  1.2169  0.0351 -0.2328
  580MOL0     H79976   2.495   9.875   7.223  1.6241  0.6715 -0.8863
  580MOL0     H79977   2.668  10.062   7.202  1.8076  0.1705 -2.3895
  580MOL0     H79978   2.759   9.985   7.322 -0.8367 -3.2142  1.3383
  580MOL0     H79979   2.866   9.922   7.157  0.3687 -0.6911  0.4793
  580MOL0     H79980   2.766   9.776   7.191  1.9679 -0.4452 -1.1096
  580MOL0     H79981   2.605   9.850   7.011  0.4145  2.4558  1.3716
  580MOL0     H79982   2.759   9.789   6.947  3.4885  2.7965 -0.0215
  580MOL0     H79983   2.657  10.075   6.984 -0.6273  1.5191 -4.4511
  580MOL0     H79984   2.829  10.041   6.953 -0.3617 -0.7655 -0.4047
  580MOL0     H79985   2.689  10.113   6.751  1.0500 -0.8347 -2.2118
  580MOL0     H79986   2.580   9.973   6.793  0.0429 -0.0318  3.4875
  580MOL0     H79987   2.754   9.813   6.721  1.1952 -1.1425 -1.2993
  580MOL0     H79988   2.721   9.930   6.595 -0.9313  1.2357  1.1657
  580MOL0     H79989   2.908  10.072   6.500 -1.5603  0.1162 -0.0452
  580MOL0     H79990   3.314  10.032   6.567  1.6697  4.7592 -0.9583
  580MOL0     H79991   3.201  10.165   6.546 -1.0391 -0.3819  1.1419
  580MOL0     H79992   3.106  10.064   6.352 -0.2076  2.1876  1.1823
  580MOL0     H79993   3.273  10.063   6.323 -1.5895  0.1328 -0.7427
  580MOL0     H79994   3.191   9.851   6.251  2.8683 -0.9033  0.5038
  580MOL0     H79995   3.304   9.822   6.366 -0.1771 -0.4515 -2.5735
  580MOL0     H79996   3.104   9.679   6.392  2.2951  0.8827 -0.7531
  580MOL0     H79997   3.105   9.784   6.532  2.0278  1.9023  0.8571
  580MOL0     H79998   2.960   9.619   6.571 -0.0588  0.5973  1.6977
  580MOL0     H79999   2.799   9.471   6.742  2.8655  2.2428 -1.2413
  580MOL0     H80000   2.850   9.374   6.607  0.8065  0.5060  1.7370
  580MOL0     H80001   2.684   9.382   6.655 -0.2591  0.4940  0.5857
  580MOL0     H80002   2.420   9.459   6.864  1.8695  0.0773  0.9274
  580MOL0     H80003   2.351   9.637   6.986  2.5018  1.7363  0.3495
  580MOL0     H80004   2.297   9.840   7.098 -1.9601  0.1890 -0.1072
  580MOL0     H80005   2.399   9.954   7.036 -0.8854  3.4396  1.5618
  580MOL0     H80006   2.228  10.074   7.162  0.7786  3.1484 -2.4273
  580MOL0     H80007   2.210  10.122   6.999  1.9107 -0.6228 -0.8231
  580MOL0     H80008   2.052   9.871   7.094 -3.0539 -0.7977 -1.9201
  580MOL0     H80009   2.018   9.996   6.966 -4.5691  1.4951  1.6445
  580MOL0     H80010   1.972  10.175   7.138  1.8256  1.1167  3.3965
  580MOL0     H80011   2.015  10.063   7.258  0.5389  2.1775  0.0210
  580MOL0     H80012   1.778  10.058   7.056  1.4985  0.4725  0.2286
  580MOL0     H80013   1.810   9.919   7.158  1.0507 -0.6414 -0.0802
  580MOL0     H80014   1.634  10.072   7.244  0.2229 -1.8513  0.5284
  580MOL0     H80015   1.755  10.196   7.272  3.5129 -1.1387 -2.0439
  580MOL0     H80016   1.878  10.017   7.404  0.4493  0.7206  0.7136
  580MOL0     H80017   1.729   9.920   7.393 -2.8520  1.8373 -3.7349
  580MOL0     H80018   1.685  10.186   7.515  0.2041 -0.9096 -2.8939
  580MOL0     H80019   1.775  10.047   7.602  2.3158  0.0668 -1.6752
  580MOL0     H80020   2.272   9.876   6.629  0.4414  0.7268  1.2781
  580MOL0     H80021   2.394   9.693   6.496 -1.7352 -1.0335  0.4578
  580MOL0     H80022   2.527   9.682   6.324 -0.5815  0.1773 -0.2931
  580MOL0     H80023   2.741   9.835   6.273  1.5048  0.4960  0.1743
  580MOL0     H80024   2.219  10.036   7.445  0.5303  1.3602 -2.3208
  580MOL0     H80025   2.066  10.181   7.549  0.1013  0.1453  0.4426
  580MOL0     H80026   2.127  10.649   7.748  0.2943 -1.2609 -2.9745
  580MOL0     H80027   2.082  10.791   7.911  2.0899 -2.6412 -0.8537
  580MOL0     H80028   1.866  11.001   7.847 -1.2334 -0.4644  0.2786
  580MOL0     H80029   1.767  11.067   7.972 -0.0473  1.5557  1.6675
  580MOL0     H80030   2.058  11.019   8.015  0.1746  2.9738 -2.9822
  580MOL0     H80031   1.939  11.038   8.157 -0.2256  3.3336 -0.3245
  580MOL0     H80032   1.965  11.230   7.929  0.8884  0.0670 -0.0891
  580MOL0     H80033   1.867  11.249   8.078  0.3274 -1.2327  1.3953
  580MOL0     H80034   2.178  11.241   8.030  1.5454  1.5413  1.1337
  580MOL0     H80035   2.101  11.253   8.198  1.6437  4.4747  0.7875
  580MOL0     H80036   2.045  11.629   8.082 -0.3810  0.0369 -0.8952
  580MOL0     H80037   1.668  10.662   7.919  0.5580 -0.3121 -0.3594
  580MOL0     H80038   1.661  10.425   7.669 -0.4604 -1.6457  0.9073
  580MOL0     H80039   1.738  10.333   7.801 -1.5864 -0.5716 -0.6590
  580MOL0     H80040   1.614  10.458   7.830 -1.5575  0.1914 -1.3574
  581MOL0     O80041   5.855   4.064   7.685 -0.2802 -0.8654 -0.4657
  581MOL0     C80042   5.901   4.047   7.799 -0.8659  0.5775  0.6530
  581MOL0     O80043   5.956   3.934   7.843 -0.7460  0.3403 -0.5444
  581MOL0     C80044   5.956   3.817   7.769 -0.2444 -0.3173 -0.5768
  581MOL0     C80045   5.872   3.712   7.799  0.0749  0.7905 -1.6742
  581MOL0     C80046   5.864   3.591   7.742 -0.7647  0.4045  0.2064
  581MOL0     C80047   5.929   3.583   7.617 -0.6368 -0.1662 -1.1104
  581MOL0     O80048   5.907   3.469   7.547 -0.5360  0.9227 -0.3299
  581MOL0     C80049   5.979   3.446   7.421 -1.0433  0.5852  0.3938
  581MOL0     C80050   5.946   3.315   7.355  0.4166 -0.6964  0.1206
  581MOL0     C80051   6.025   3.309   7.224  0.8479 -0.2585  0.8290
  581MOL0     C80052   5.981   3.173   7.160 -0.7064  0.4673  0.6357
  581MOL0     C80053   6.045   3.156   7.007  0.2500 -0.1241  0.0079
  581MOL0     C80054   5.981   3.251   6.905 -0.3914 -1.4070 -0.3612
  581MOL0     C80055   6.037   3.220   6.770  0.4991  0.3899 -0.2488
  581MOL0     C80056   6.179   3.234   6.752 -0.2820 -0.4705 -0.6496
  581MOL0     N80057   6.208   3.201   6.610  1.1887  0.6309 -0.3728
  581MOL0     C80058   6.174   3.294   6.513 -1.1829 -0.2222  0.0915
  581MOL0     C80059   6.240   3.256   6.396  0.8268  0.1155 -0.1937
  581MOL0     C80060   6.245   3.341   6.274 -0.7773  1.4544 -0.6711
  581MOL0     C80061   6.363   3.284   6.185  0.1649  0.2222 -0.5313
  581MOL0     C80062   6.403   3.355   6.054  0.6004 -0.2495 -1.1416
  581MOL0     C80063   6.468   3.496   6.073 -0.6590 -0.5206 -0.3903
  581MOL0     O80064   6.491   3.555   5.943 -0.4464 -0.0556 -0.2853
  581MOL0     C80065   6.385   3.627   5.888  0.2374  0.1617 -0.1236
  581MOL0     C80066   6.266   3.647   5.953 -0.4425  0.3693 -0.5011
  581MOL0     C80067   6.170   3.742   5.911 -0.9663  0.2098 -0.1194
  581MOL0     C80068   6.046   3.754   5.989  0.8240  0.2101 -0.4992
  581MOL0     C80069   6.210   3.829   5.805 -0.9804  0.1984 -0.5007
  581MOL0     C80070   6.128   3.938   5.758 -0.3143 -0.0704  0.6917
  581MOL0     O80071   6.206   4.031   5.691  0.2590 -0.0829  0.3865
  581MOL0     C80072   6.142   4.133   5.635  0.5604  0.7034  0.8597
  581MOL0     C80073   6.055   4.222   5.703 -0.2838 -0.4779 -0.8081
  581MOL0     C80074   5.993   4.329   5.641 -0.2415 -0.0956 -0.5531
  581MOL0     C80075   5.996   4.333   5.500  0.3625 -1.2492  0.0291
  581MOL0     O80076   5.913   4.419   5.430 -0.4398  0.0898 -0.2634
  581MOL0     C80077   5.783   4.472   5.484 -0.1349 -0.0630  0.6655
  581MOL0     C80078   5.801   4.606   5.555 -0.3352 -0.2715  0.2419
  581MOL0     C80079   5.688   4.702   5.539  0.0261 -0.3177 -0.3416
  581MOL0     C80080   5.546   4.643   5.593 -0.0145 -0.2370 -1.0027
  581MOL0     C80081   5.428   4.729   5.562 -1.4187  0.4296  0.3288
  581MOL0     C80082   5.307   4.679   5.631  0.0053 -0.9473  0.3968
  581MOL0     C80083   5.193   4.778   5.594  0.2807 -0.1879 -0.4326
  581MOL0     C80084   5.097   4.801   5.718 -0.9712 -0.5480  0.0206
  581MOL0    Cl80085   5.157   4.922   5.834 -0.1239  0.4770 -0.1448
  581MOL0     C80086   6.056   4.235   5.424  1.3743 -0.8429 -0.4154
  581MOL0     C80087   6.137   4.140   5.495 -0.0130  0.1111 -0.2524
  581MOL0     O80088   6.004   3.934   5.754  0.1361 -0.1434  0.3813
  581MOL0     C80089   6.327   3.801   5.736  0.4432 -0.4568 -0.2415
  581MOL0     C80090   6.415   3.705   5.774 -0.0744  0.5260 -0.0776
  581MOL0     N80091   6.303   3.132   6.419  0.3716  0.3902 -0.4998
  581MOL0     N80092   6.283   3.103   6.552  0.6361 -0.2029  0.0538
  581MOL0     C80093   6.041   3.667   7.594  0.0759  0.5631 -0.6106
  581MOL0     C80094   6.056   3.789   7.674  0.1140 -0.1337  0.1317
  581MOL0     C80095   5.915   4.158   7.896  0.1383  0.2558 -0.1271
  581MOL0     C80096   5.878   4.287   7.851 -0.7186  0.5524 -0.5089
  581MOL0     C80097   5.867   4.400   7.931  0.0327  0.4791 -0.9603
  581MOL0     C80098   5.902   4.382   8.066 -0.3055  0.0348 -0.3263
  581MOL0     O80099   5.891   4.464   8.175  0.1879  0.0702 -0.9111
  581MOL0     C80100   5.837   4.601   8.172  0.3078 -0.4414  0.7590
  581MOL0     C80101   5.815   4.658   8.308  0.7448  0.9067  0.1299
  581MOL0     C80102   5.765   4.537   8.395 -0.0489 -0.2227 -0.4492
  581MOL0     C80103   5.672   4.579   8.507  0.0803  0.6172  0.4713
  581MOL0     C80104   5.557   4.666   8.464 -0.1051  0.7637 -0.5261
  581MOL0     C80105   5.472   4.741   8.425  0.0752 -0.9130  1.7443
  581MOL0     C80106   5.954   4.260   8.114 -0.0779 -0.5564 -0.1520
  581MOL0     C80107   5.950   4.145   8.033  0.1972  0.6328 -0.8083
  581MOL0     C80108   5.983   4.013   8.114  1.1030 -0.2104  0.0772
  581MOL0     H80109   5.801   3.719   7.881 -0.4579 -1.0500 -1.9455
  581MOL0     H80110   5.788   3.524   7.782  0.9683 -0.2183  2.7310
  581MOL0     H80111   6.084   3.443   7.453 -2.1472 -0.2104  4.5042
  581MOL0     H80112   5.960   3.525   7.348 -1.2729  0.6869  0.5628
  581MOL0     H80113   5.963   3.230   7.422  1.3933 -1.6489 -1.2660
  581MOL0     H80114   5.839   3.324   7.333  0.8966 -0.7014 -2.5897
  581MOL0     H80115   5.997   3.398   7.167  2.0361  0.3806  1.1900
  581MOL0     H80116   6.134   3.314   7.237  0.9798  0.7271 -0.3895
  581MOL0     H80117   6.015   3.079   7.204  1.3096 -1.2667 -3.9310
  581MOL0     H80118   5.872   3.178   7.154 -0.7576  1.4902  2.0352
  581MOL0     H80119   6.016   3.054   6.982 -4.1022  1.0897 -0.8871
  581MOL0     H80120   6.153   3.173   7.008  0.4021 -1.0515  0.3326
  581MOL0     H80121   5.873   3.258   6.923 -0.4922 -3.3922 -0.0083
  581MOL0     H80122   6.013   3.354   6.924 -0.1513 -1.3465 -1.0608
  581MOL0     H80123   5.991   3.290   6.700  0.4630  2.1071  1.3983
  581MOL0     H80124   5.998   3.122   6.741  1.5080 -0.1900  0.2662
  581MOL0     H80125   6.219   3.331   6.781  2.0910 -1.8283  0.9635
  581MOL0     H80126   6.231   3.160   6.814 -1.9296 -0.0821  1.3134
  581MOL0     H80127   6.123   3.388   6.531 -3.4293 -1.8307  3.0393
  581MOL0     H80128   6.265   3.444   6.303  1.4861  0.5981  1.0938
  581MOL0     H80129   6.148   3.337   6.222 -2.0363  1.1689  1.5674
  581MOL0     H80130   6.453   3.260   6.242 -0.0521  0.3887 -0.1122
  581MOL0     H80131   6.324   3.188   6.151 -0.7970 -0.7894  2.9908
  581MOL0     H80132   6.473   3.293   5.996  2.2442 -0.5688  1.0708
  581MOL0     H80133   6.309   3.362   5.999 -1.5185  0.4376  2.3024
  581MOL0     H80134   6.426   3.566   6.145  0.3208  0.2267 -0.5142
  581MOL0     H80135   6.567   3.472   6.112  0.9564  1.4534 -2.8863
  581MOL0     H80136   6.252   3.577   6.035  0.7951  0.8084  0.1175
  581MOL0     H80137   6.032   3.862   6.006 -1.2641  0.5139 -3.3291
  581MOL0     H80138   6.026   3.690   6.075  1.4638 -3.1226 -2.6579
  581MOL0     H80139   5.969   3.725   5.916 -0.6011  1.9502  0.2159
  581MOL0     H80140   6.057   4.210   5.811 -2.6449  0.9428 -0.5387
  581MOL0     H80141   5.928   4.400   5.692  0.0368  0.2911 -0.7256
  581MOL0     H80142   5.717   4.488   5.399 -1.6667  2.4872  2.2108
  581MOL0     H80143   5.736   4.391   5.540 -3.0906  0.8251 -0.3431
  581MOL0     H80144   5.831   4.593   5.659  0.2345  0.5128  0.1861
  581MOL0     H80145   5.892   4.648   5.509 -0.2629 -1.4068 -0.7153
  581MOL0     H80146   5.685   4.745   5.438  1.5875  0.4052 -0.1068
  581MOL0     H80147   5.703   4.794   5.596 -0.0450  0.9605 -2.2891
  581MOL0     H80148   5.558   4.621   5.699 -0.8278  1.2945 -0.5781
  581MOL0     H80149   5.528   4.552   5.534  0.6176  0.6134 -2.5640
  581MOL0     H80150   5.459   4.823   5.607 -0.3343  0.2963 -0.1190
  581MOL0     H80151   5.421   4.738   5.453  7.1412 -0.9151 -1.0324
  581MOL0     H80152   5.335   4.695   5.736  2.4096 -0.0285 -0.3358
  581MOL0     H80153   5.272   4.582   5.594 -2.5777  0.7572 -2.0494
  581MOL0     H80154   5.138   4.731   5.512  0.1650  1.1577 -1.1624
  581MOL0     H80155   5.245   4.868   5.559  2.7616 -2.0018 -1.7024
  581MOL0     H80156   5.068   4.710   5.772 -3.2136 -0.5559 -1.0421
  581MOL0     H80157   5.003   4.844   5.681 -0.7735 -0.3833 -0.2855
  581MOL0     H80158   6.048   4.240   5.316 -1.9196 -0.4928 -0.2544
  581MOL0     H80159   6.182   4.069   5.426 -0.0254 -0.5840  0.4390
  581MOL0     H80160   6.368   3.864   5.658  1.2112 -2.5687 -1.6390
  581MOL0     H80161   6.512   3.707   5.725  0.5703  1.6274  1.1729
  581MOL0     H80162   6.101   3.661   7.504 -2.7381  0.7294 -2.6426
  581MOL0     H80163   6.132   3.865   7.659 -2.0208  1.8045 -1.4804
  581MOL0     H80164   5.856   4.299   7.746 -2.9408  1.1155 -0.0253
  581MOL0     H80165   5.830   4.491   7.885 -4.4658 -0.1677  0.8454
  581MOL0     H80166   5.903   4.660   8.108 -1.0608 -0.7433 -0.9951
  581MOL0     H80167   5.749   4.601   8.108  0.0032  0.7122  1.1514
  581MOL0     H80168   5.746   4.743   8.300  0.4025  0.4895 -1.5299
  581MOL0     H80169   5.906   4.701   8.351  0.8766  3.2640 -2.2286
  581MOL0     H80170   5.704   4.471   8.331  0.7200 -0.4154 -1.0080
  581MOL0     H80171   5.853   4.488   8.438 -0.1838 -0.9238 -0.9420
  581MOL0     H80172   5.724   4.623   8.592  2.4086  0.7429 -0.8986
  581MOL0     H80173   5.625   4.487   8.544 -2.8572  1.0391 -1.8342
  581MOL0     H80174   5.392   4.801   8.386  2.6226  1.7371  0.2591
  581MOL0     H80175   5.985   4.263   8.218 -0.8217  0.1157  0.0613
  581MOL0     H80176   5.963   4.031   8.220 -0.0484 -0.1434 -0.1336
  581MOL0     H80177   5.904   3.946   8.078 -0.2724  2.9698 -3.5706
  581MOL0     H80178   6.082   3.968   8.103  0.7627 -0.5900 -1.8958
  582MOL0     O80179   6.638   1.287   4.083  0.3075 -0.2943 -0.7023
  582MOL0     C80180   6.733   1.236   4.025  0.1115 -0.1525  0.4124
  582MOL0     O80181   6.726   1.122   3.942  0.5603 -0.0541  1.3032
  582MOL0     C80182   6.622   1.033   3.966 -0.3351 -0.1548  0.5010
  582MOL0     C80183   6.619   0.936   3.863 -0.4815 -0.2514  0.3002
  582MOL0     C80184   6.510   0.849   3.847 -0.9447 -0.4102  0.6199
  582MOL0     C80185   6.409   0.852   3.948  0.5486 -1.0181  0.6187
  582MOL0     O80186   6.289   0.784   3.943  0.0567  0.5467  0.0177
  582MOL0     C80187   6.177   0.843   3.878  0.5299 -0.6675  0.2108
  582MOL0     C80188   6.093   0.917   3.974 -0.5580  0.3710 -0.0404
  582MOL0     C80189   6.051   0.821   4.091 -0.0357 -1.2118  0.9650
  582MOL0     C80190   5.931   0.857   4.186  0.1753 -0.7378  0.8470
  582MOL0     C80191   5.792   0.873   4.108  0.5523  0.6089 -0.1762
  582MOL0     C80192   5.674   0.894   4.193  0.2616  0.2155  0.1847
  582MOL0     C80193   5.680   1.027   4.274  0.0113  0.8137 -0.6105
  582MOL0     C80194   5.599   1.145   4.218 -0.3894 -0.6808  0.1526
  582MOL0     N80195   5.461   1.122   4.224  0.3197 -0.6271  0.4196
  582MOL0     C80196   5.386   1.151   4.111  0.0188  0.5096  0.1182
  582MOL0     C80197   5.254   1.162   4.144 -0.3428  0.9119 -0.5660
  582MOL0     C80198   5.133   1.165   4.049  0.8601 -0.3402 -0.0153
  582MOL0     C80199   5.124   1.292   3.956  0.4541  0.4048 -0.2550
  582MOL0     C80200   5.075   1.410   4.048  0.3088  0.0229 -0.0900
  582MOL0     C80201   5.063   1.542   3.981 -0.4146 -0.0984  0.6835
  582MOL0     O80202   5.191   1.583   3.929 -0.0465 -0.0764  0.2850
  582MOL0     C80203   5.229   1.713   3.913  0.1217 -0.7589 -1.0176
  582MOL0     C80204   5.345   1.730   3.852 -0.9733 -0.3169  0.7113
  582MOL0     C80205   5.399   1.850   3.813 -1.6087 -0.3309  0.5188
  582MOL0     C80206   5.544   1.855   3.752  0.1008  0.2433 -0.3823
  582MOL0     C80207   5.325   1.964   3.855  0.8376 -0.8054 -0.1694
  582MOL0     C80208   5.376   2.095   3.836  0.3746  0.0440 -0.5249
  582MOL0     O80209   5.374   2.190   3.934  0.5860 -0.1566 -0.7286
  582MOL0     C80210   5.396   2.325   3.896  0.4345  0.6983 -1.1085
  582MOL0     C80211   5.527   2.368   3.846  0.9534 -0.2867 -0.2891
  582MOL0     C80212   5.548   2.496   3.807 -0.9852  0.0730  0.2409
  582MOL0     C80213   5.445   2.595   3.809 -0.3411  0.1940  0.1748
  582MOL0     O80214   5.465   2.726   3.773 -0.1641  0.6891 -0.5742
  582MOL0     C80215   5.582   2.763   3.697  0.2860  0.1924  0.5250
  582MOL0     C80216   5.561   2.903   3.634 -0.1079 -0.6360 -1.4795
  582MOL0     C80217   5.685   2.964   3.578 -0.8138 -0.3783 -0.1614
  582MOL0     C80218   5.652   3.086   3.481 -0.2779  0.6514 -0.8907
  582MOL0     C80219   5.596   3.200   3.572 -0.8101  0.7048  0.0192
  582MOL0     C80220   5.621   3.348   3.522 -0.4011 -0.1143 -0.2781
  582MOL0     C80221   5.762   3.398   3.551  0.0472 -0.1831 -0.4902
  582MOL0     C80222   5.762   3.551   3.543 -0.3845 -0.2655  0.1834
  582MOL0    Cl80223   5.769   3.597   3.369  0.1178 -0.4646  0.1870
  582MOL0     C80224   5.325   2.561   3.864  0.1996 -0.4501 -0.2473
  582MOL0     C80225   5.298   2.427   3.906  0.4186 -0.8370 -0.5218
  582MOL0     O80226   5.408   2.116   3.725  0.0650  0.9008  0.8627
  582MOL0     C80227   5.202   1.946   3.928  0.0909 -0.1988 -0.1877
  582MOL0     C80228   5.144   1.820   3.956 -0.0865 -0.9975 -0.1395
  582MOL0     N80229   5.255   1.171   4.277 -0.4660  0.1176 -0.5240
  582MOL0     N80230   5.370   1.144   4.327  0.3260  0.3794 -0.1761
  582MOL0     C80231   6.426   0.933   4.063 -0.8473 -1.0339  0.1552
  582MOL0     C80232   6.527   1.027   4.069 -1.0823 -0.1750  0.1158
  582MOL0     C80233   6.873   1.297   4.031  0.5527 -0.1658 -0.2468
  582MOL0     C80234   6.983   1.207   4.027  0.1400 -0.0767  0.7023
  582MOL0     C80235   7.110   1.250   3.988 -0.1190 -0.1087  0.6175
  582MOL0     C80236   7.135   1.386   3.963 -0.3104  0.0099 -0.3909
  582MOL0     O80237   7.240   1.432   3.884 -0.2022 -0.8813 -0.7510
  582MOL0     C80238   7.320   1.346   3.806 -0.7978  0.0953 -0.4786
  582MOL0     C80239   7.437   1.285   3.895  0.1508  0.8052  1.0229
  582MOL0     C80240   7.520   1.396   3.953 -0.2410 -0.4489 -0.2031
  582MOL0     C80241   7.659   1.343   4.000  0.4056 -0.7490 -0.8978
  582MOL0     C80242   7.650   1.254   4.119  0.0661 -0.5007 -0.3795
  582MOL0     C80243   7.636   1.188   4.224 -0.5866 -0.8894 -1.4632
  582MOL0     C80244   7.038   1.477   3.993 -0.7284  0.7491  0.5592
  582MOL0     C80245   6.904   1.436   4.015 -0.2974  0.8598  1.1987
  582MOL0     C80246   6.793   1.541   4.006  0.4605 -0.1519 -0.7687
  582MOL0     H80247   6.697   0.941   3.788 -1.2379  1.3678 -0.4415
  582MOL0     H80248   6.516   0.781   3.764  0.6594 -1.1874  1.3283
  582MOL0     H80249   6.107   0.770   3.837  1.1676 -1.1677  0.0100
  582MOL0     H80250   6.197   0.923   3.805 -2.6000  0.7663  0.7676
  582MOL0     H80251   6.148   1.000   4.017  0.4330 -1.0000  1.4410
  582MOL0     H80252   6.004   0.958   3.925 -0.5968 -0.5855 -0.8099
  582MOL0     H80253   6.024   0.731   4.035 -1.3713 -0.8571  1.0121
  582MOL0     H80254   6.138   0.811   4.156  1.4120 -3.5231 -1.1485
  582MOL0     H80255   5.936   0.772   4.254  1.9312 -3.8364 -2.7422
  582MOL0     H80256   5.949   0.951   4.239 -2.0038 -0.7477  1.7028
  582MOL0     H80257   5.776   0.770   4.074 -1.3769 -0.2498  2.9543
  582MOL0     H80258   5.784   0.955   4.035  3.2575  2.1200  1.0798
  582MOL0     H80259   5.576   0.885   4.145  0.0623 -0.5820  0.7317
  582MOL0     H80260   5.671   0.809   4.261 -1.9218 -0.5171 -0.7223
  582MOL0     H80261   5.787   1.045   4.290 -0.0277 -0.9137  2.4127
  582MOL0     H80262   5.642   1.013   4.376  0.1685  0.6927 -0.5682
  582MOL0     H80263   5.616   1.223   4.293 -1.3009 -1.8156  1.5896
  582MOL0     H80264   5.650   1.189   4.132  1.1885 -1.8664  0.4355
  582MOL0     H80265   5.415   1.153   4.006 -0.4078 -3.3317 -0.2371
  582MOL0     H80266   5.042   1.143   4.106  0.1741  1.5482 -0.3024
  582MOL0     H80267   5.145   1.078   3.983 -0.7951 -0.6583  0.0590
  582MOL0     H80268   5.228   1.310   3.927 -0.1698  2.6647 -1.3220
  582MOL0     H80269   5.065   1.278   3.864 -0.4429  3.4466 -0.2225
  582MOL0     H80270   4.983   1.384   4.102 -0.1498  3.9210  1.3332
  582MOL0     H80271   5.155   1.421   4.122 -0.2294  1.1819  0.3525
  582MOL0     H80272   4.998   1.527   3.895  1.3860 -0.3696 -0.6934
  582MOL0     H80273   5.011   1.617   4.042  1.9450  3.2903 -1.1297
  582MOL0     H80274   5.391   1.635   3.827 -1.0950  0.3063 -2.2881
  582MOL0     H80275   5.585   1.755   3.769 -2.1029 -0.9507 -1.6753
  582MOL0     H80276   5.601   1.936   3.800  0.5600  0.8587 -1.8915
  582MOL0     H80277   5.546   1.873   3.644  1.4134 -0.1594 -0.4441
  582MOL0     H80278   5.612   2.300   3.856  0.3248 -0.8235  2.0112
  582MOL0     H80279   5.644   2.514   3.761 -0.4138 -0.5629  1.1750
  582MOL0     H80280   5.676   2.753   3.752  0.6226  1.0582  0.1261
  582MOL0     H80281   5.573   2.700   3.609 -1.6622  2.8251 -1.3388
  582MOL0     H80282   5.490   2.887   3.552  0.3075 -0.7980 -1.8121
  582MOL0     H80283   5.509   2.969   3.704  1.8228  1.0098 -1.5244
  582MOL0     H80284   5.744   2.891   3.521 -1.1897  1.7237 -3.5648
  582MOL0     H80285   5.752   3.003   3.655  1.6362  0.0749 -2.3874
  582MOL0     H80286   5.591   3.064   3.394  0.5635  0.6894 -1.5068
  582MOL0     H80287   5.747   3.121   3.439 -0.0961 -2.0737 -3.0648
  582MOL0     H80288   5.490   3.179   3.589 -0.1601 -0.6939  3.2345
  582MOL0     H80289   5.639   3.191   3.672 -0.8082  2.7088  0.2451
  582MOL0     H80290   5.544   3.403   3.578  0.7024  0.1812  0.9924
  582MOL0     H80291   5.595   3.358   3.416 -0.4039 -2.2569 -0.5208
  582MOL0     H80292   5.847   3.357   3.495  1.4354  0.3677  1.1032
  582MOL0     H80293   5.788   3.385   3.656 -1.2762  0.6663 -0.0378
  582MOL0     H80294   5.853   3.587   3.592  0.0549  0.4368 -1.0945
  582MOL0     H80295   5.675   3.598   3.589  0.5296  1.5407  0.1789
  582MOL0     H80296   5.256   2.643   3.883  1.5052  0.5797  0.1696
  582MOL0     H80297   5.202   2.390   3.941  0.7090 -0.5411  0.6323
  582MOL0     H80298   5.135   2.030   3.943 -0.8269 -1.1625  1.3660
  582MOL0     H80299   5.042   1.808   3.992 -1.0788  1.1818 -1.9439
  582MOL0     H80300   6.352   0.941   4.142  0.0223 -0.4445  0.9099
  582MOL0     H80301   6.540   1.092   4.155  1.9745  1.7750 -1.6392
  582MOL0     H80302   6.968   1.101   4.046 -0.9722  0.4267  2.9591
  582MOL0     H80303   7.185   1.176   3.958  0.1305  1.0044 -1.7451
  582MOL0     H80304   7.266   1.266   3.755  0.5929  0.2212 -2.2490
  582MOL0     H80305   7.372   1.398   3.725 -1.0228 -2.6723 -2.5463
  582MOL0     H80306   7.499   1.225   3.828 -2.4920  1.7860 -2.6146
  582MOL0     H80307   7.411   1.213   3.973 -0.5020 -0.2683 -0.1512
  582MOL0     H80308   7.527   1.474   3.877 -0.2680  1.5792  1.7594
  582MOL0     H80309   7.462   1.434   4.038 -1.4513  1.9302 -1.9544
  582MOL0     H80310   7.717   1.429   4.036  3.0510 -3.5172  2.0954
  582MOL0     H80311   7.720   1.303   3.919  1.7828 -1.0951  0.2658
  582MOL0     H80312   7.641   1.118   4.306  1.7400  0.4772 -0.3170
  582MOL0     H80313   7.063   1.582   3.980  0.4320  0.1068 -4.4435
  582MOL0     H80314   6.737   1.516   3.916 -3.0598  3.0912  0.2445
  582MOL0     H80315   6.722   1.524   4.089 -0.3577  1.4258 -1.1024
  582MOL0     H80316   6.834   1.641   3.997  1.0398 -0.5587 -3.2626
  583MOL0     O80317  10.290  10.631   5.359 -0.4069 -0.1480 -0.3791
  583MOL0     C80318  10.359  10.574   5.438 -0.9379  0.2498  0.3314
  583MOL0     O80319  10.477  10.501   5.408 -0.2356  0.2513  0.5948
  583MOL0     C80320  10.534  10.503   5.286  0.6628  0.8472  0.9771
  583MOL0     C80321  10.538  10.615   5.189  0.2766 -0.2138 -0.0287
  583MOL0     C80322  10.612  10.600   5.067  0.1736  0.2240 -0.6243
  583MOL0     C80323  10.664  10.470   5.040 -0.1826 -0.0185  1.0624
  583MOL0     O80324  10.714  10.452   4.906 -0.4948 -0.2826  0.6222
  583MOL0     C80325  10.760  10.559   4.818 -1.3429 -0.1423 -0.7670
  583MOL0     C80326  10.838  10.505   4.705  0.6167 -0.2838  0.1638
  583MOL0     C80327  10.966  10.441   4.760 -0.6287 -0.0043  0.5945
  583MOL0     C80328  11.069  10.420   4.659 -0.5374  0.0950  0.7389
  583MOL0     C80329  11.189  10.338   4.716 -0.6114  0.3149 -0.0834
  583MOL0     C80330  11.301  10.310   4.619 -0.3159 -0.1637  0.0117
  583MOL0     C80331  11.406  10.228   4.694  0.6952 -1.0316 -0.1720
  583MOL0     C80332  11.499  10.175   4.595 -0.1747 -0.5161  0.5016
  583MOL0     N80333  11.589  10.069   4.667  0.8050 -0.1779 -0.6753
  583MOL0     C80334  11.681  10.094   4.776  0.0553  0.3963  0.5855
  583MOL0     C80335  11.728   9.974   4.816  0.1900 -0.8486 -0.8122
  583MOL0     C80336  11.795   9.962   4.948 -0.6607  0.2246  0.4383
  583MOL0     C80337  11.682   9.945   5.063 -0.3649 -0.0875 -0.1352
  583MOL0     C80338  11.743   9.983   5.205  1.4101 -0.7196  0.3654
  583MOL0     C80339  11.629   9.985   5.307  0.2107  0.6839  0.1422
  583MOL0     O80340  11.569   9.849   5.316 -0.1024 -0.5784 -0.1504
  583MOL0     C80341  11.438   9.844   5.333 -0.2888  0.0907 -0.4633
  583MOL0     C80342  11.379   9.735   5.269  0.3954 -0.1375 -0.9658
  583MOL0     C80343  11.245   9.701   5.275  0.0559  0.3620 -0.5069
  583MOL0     C80344  11.208   9.572   5.216 -0.1854 -0.3152  0.0547
  583MOL0     C80345  11.160   9.785   5.364  0.0778 -0.0027  1.6488
  583MOL0     C80346  11.012   9.772   5.392 -0.4687  0.2137 -0.4820
  583MOL0     O80347  10.961   9.866   5.483 -0.0281  1.1569  0.0676
  583MOL0     C80348  10.821   9.858   5.509  0.2839 -0.5573  0.6521
  583MOL0     C80349  10.761   9.755   5.569 -0.0117 -0.4113 -0.2893
  583MOL0     C80350  10.625   9.731   5.591 -0.2985  0.4243 -0.2917
  583MOL0     C80351  10.535   9.820   5.536 -0.1894  0.0159 -0.2060
  583MOL0     O80352  10.400   9.797   5.506  0.0179 -0.1865 -0.0885
  583MOL0     C80353  10.365   9.677   5.437  0.1569  0.0198 -0.7388
  583MOL0     C80354  10.217   9.676   5.390  0.3635 -0.6437  0.2914
  583MOL0     C80355  10.185   9.794   5.294  0.0880 -0.0869  0.5433
  583MOL0     C80356  10.048   9.777   5.226 -0.9955 -0.0637  0.4219
  583MOL0     C80357  10.015   9.885   5.116 -0.3913  0.3161 -0.1517
  583MOL0     C80358   9.902   9.831   5.039  0.8081 -0.2633 -0.3135
  583MOL0     C80359   9.810   9.947   4.994  1.2125  0.4774 -0.8467
  583MOL0     C80360   9.667   9.899   4.957  0.9478  0.4193 -0.3733
  583MOL0    Cl80361   9.654   9.814   4.798  0.7258 -0.1458  0.0755
  583MOL0     C80362  10.587   9.931   5.465 -0.4547  0.5478 -0.1343
  583MOL0     C80363  10.733   9.955   5.459  0.3358  0.4096  1.1726
  583MOL0     O80364  10.944   9.682   5.350  0.4088 -0.2821  0.0846
  583MOL0     C80365  11.228   9.893   5.420  0.6974  0.1616 -0.0966
  583MOL0     C80366  11.360   9.926   5.407 -0.3256 -0.3311 -0.1858
  583MOL0     N80367  11.671   9.873   4.731  0.2393  0.1294  0.4445
  583MOL0     N80368  11.592   9.932   4.642 -0.3644  0.0964  0.4404
  583MOL0     C80369  10.676  10.372   5.130  0.4882  0.9894  0.0851
  583MOL0     C80370  10.603  10.381   5.250 -0.0538 -0.8117 -0.8957
  583MOL0     C80371  10.320  10.579   5.577 -0.6113 -0.1571  0.8083
  583MOL0     C80372  10.416  10.631   5.669  0.1566  0.0396 -0.0684
  583MOL0     C80373  10.376  10.637   5.805  0.3375  0.2495  1.2698
  583MOL0     C80374  10.249  10.594   5.847  0.3848  0.7816  0.1982
  583MOL0     O80375  10.218  10.603   5.985 -0.2751 -0.1477  0.8223
  583MOL0     C80376  10.101  10.684   6.019 -0.0282 -0.0550  0.1393
  583MOL0     C80377  10.118  10.742   6.147 -0.4891  0.3925 -0.0785
  583MOL0     C80378  10.218  10.860   6.145  0.0391 -0.4493  0.6127
  583MOL0     C80379  10.259  10.893   6.289  0.1366  0.6634 -0.8582
  583MOL0     C80380  10.155  10.942   6.380  0.2921  0.5918 -0.6521
  583MOL0     C80381  10.057  10.970   6.458 -0.9383 -0.7711  0.4324
  583MOL0     C80382  10.154  10.547   5.757 -0.5951 -1.0116  0.3446
  583MOL0     C80383  10.185  10.554   5.621  0.2887  0.2918  0.1398
  583MOL0     C80384  10.081  10.500   5.521  0.1608 -0.4691  0.4707
  583MOL0     H80385  10.485  10.705   5.219 -1.4403 -1.2650  0.2380
  583MOL0     H80386  10.625  10.682   4.998  3.0457 -1.2885 -2.0524
  583MOL0     H80387  10.819  10.624   4.883  0.3151 -3.1146  0.9154
  583MOL0     H80388  10.680  10.621   4.778 -1.8363 -0.8090 -0.8179
  583MOL0     H80389  10.777  10.439   4.643 -1.2291  0.3403  1.2548
  583MOL0     H80390  10.870  10.594   4.650 -0.1928  0.7655  1.3249
  583MOL0     H80391  11.008  10.503   4.840  2.2690 -1.3080  0.2286
  583MOL0     H80392  10.943  10.342   4.799  2.5697 -1.7531 -1.4584
  583MOL0     H80393  11.027  10.365   4.574  0.6820 -0.5090  0.5028
  583MOL0     H80394  11.108  10.513   4.617  0.2726 -0.7219 -0.3772
  583MOL0     H80395  11.149  10.240   4.745 -0.6037 -0.0817 -1.3538
  583MOL0     H80396  11.225  10.401   4.798 -3.1079  2.1726 -0.2873
  583MOL0     H80397  11.264  10.246   4.538 -1.9843 -0.7615  1.1911
  583MOL0     H80398  11.335  10.406   4.578  1.9522  0.5743  3.2316
  583MOL0     H80399  11.353  10.150   4.749 -1.8045  1.1965  0.8262
  583MOL0     H80400  11.462  10.275   4.776 -2.3828  1.6125  0.6302
  583MOL0     H80401  11.448  10.116   4.519 -0.4839 -2.8445  2.3746
  583MOL0     H80402  11.558  10.253   4.546 -1.2118 -0.6397 -0.9963
  583MOL0     H80403  11.714  10.185   4.824  1.0718 -0.1469  0.9558
  583MOL0     H80404  11.852  10.052   4.972 -0.1079  0.3274 -1.1045
  583MOL0     H80405  11.864   9.878   4.965 -3.2378 -1.7731  1.6863
  583MOL0     H80406  11.603  10.015   5.033  1.1402  1.9843  0.4640
  583MOL0     H80407  11.639   9.845   5.054 -0.5709 -0.0823  0.6923
  583MOL0     H80408  11.815   9.907   5.237  0.0215 -1.7084  1.3048
  583MOL0     H80409  11.795  10.079   5.206  1.9057 -0.9406  2.4503
  583MOL0     H80410  11.665  10.018   5.405 -1.1301 -0.1672  0.9472
  583MOL0     H80411  11.553  10.053   5.269 -0.9845 -0.3311  0.6437
  583MOL0     H80412  11.451   9.678   5.212  2.3953  1.2907  0.0052
  583MOL0     H80413  11.187   9.595   5.112 -0.7315 -1.9196 -0.2186
  583MOL0     H80414  11.115   9.531   5.256 -1.0638  2.4781  1.0968
  583MOL0     H80415  11.289   9.500   5.235 -0.3319 -0.0969  1.6789
  583MOL0     H80416  10.822   9.673   5.603  1.1609  1.1760  1.6426
  583MOL0     H80417  10.590   9.639   5.637  1.0425  0.1550  0.2304
  583MOL0     H80418  10.428   9.688   5.348 -2.5009 -2.2711 -3.0897
  583MOL0     H80419  10.400   9.586   5.487  1.1783 -0.3984 -2.1536
  583MOL0     H80420  10.203   9.580   5.340  1.5579 -0.0593 -1.2714
  583MOL0     H80421  10.150   9.686   5.476 -0.3721  1.6827 -0.4623
  583MOL0     H80422  10.255   9.792   5.210 -0.5428 -0.2724  0.0194
  583MOL0     H80423  10.181   9.893   5.342 -0.3333  0.8929 -1.4023
  583MOL0     H80424   9.970   9.787   5.303 -1.4836 -0.4088 -0.0278
  583MOL0     H80425  10.046   9.675   5.188  0.3446 -0.3132  0.9475
  583MOL0     H80426   9.986   9.981   5.161 -1.5789 -0.3079  0.4677
  583MOL0     H80427  10.099   9.904   5.049  0.6009  1.6990  1.3975
  583MOL0     H80428   9.846   9.768   5.109 -2.3348  1.4588 -1.0869
  583MOL0     H80429   9.948   9.781   4.953  4.1199  0.9696  0.6060
  583MOL0     H80430   9.850  10.001   4.907  2.1425 -0.5656 -1.0858
  583MOL0     H80431   9.803  10.018   5.076  0.0239 -0.8097  0.2202
  583MOL0     H80432   9.595   9.982   4.953 -1.5860 -1.6676 -0.7043
  583MOL0     H80433   9.632   9.828   5.033 -1.8099  0.0629 -1.8447
  583MOL0     H80434  10.523  10.007   5.422 -1.0967  0.0001 -0.1571
  583MOL0     H80435  10.783  10.036   5.407 -1.2297  1.7235  1.6603
  583MOL0     H80436  11.165   9.969   5.466 -2.1369 -1.0935 -1.6355
  583MOL0     H80437  11.399  10.015   5.455  0.5665 -1.1953  0.7291
  583MOL0     H80438  10.732  10.283   5.101  3.6998  2.9777 -0.2326
  583MOL0     H80439  10.599  10.307   5.329 -0.0554 -0.9576 -1.0317
  583MOL0     H80440  10.514  10.656   5.630  0.8723  0.5785  1.9303
  583MOL0     H80441  10.438  10.668   5.889  0.2485  1.7153  0.8294
  583MOL0     H80442  10.077  10.762   5.946 -4.9154 -0.4365  0.9863
  583MOL0     H80443  10.014  10.618   6.019 -1.2617  1.5206 -0.4324
  583MOL0     H80444  10.165  10.672   6.216 -0.8531  1.5874  1.4453
  583MOL0     H80445  10.025  10.774   6.196  1.2807  3.6183  1.5188
  583MOL0     H80446  10.306  10.842   6.083  2.0909  0.2295  3.1421
  583MOL0     H80447  10.161  10.944   6.104 -1.5728 -2.2981 -1.1365
  583MOL0     H80448  10.330  10.976   6.287  1.4435 -0.4157 -0.8028
  583MOL0     H80449  10.308  10.805   6.333 -0.2748 -0.0053 -1.7185
  583MOL0     H80450   9.977  11.006   6.520 -1.3823  3.2816 -2.1684
  583MOL0     H80451  10.053  10.527   5.791 -0.2634 -2.0880  0.7477
  583MOL0     H80452   9.986  10.503   5.576  0.0451  0.4799  0.2246
  583MOL0     H80453  10.087  10.574   5.441 -0.2868 -2.8645 -1.9117
  583MOL0     H80454  10.093  10.396   5.490  0.0479 -0.5391  0.6619
  584MOL0     O80455  11.272   2.869   0.780  0.2437  0.0926  0.3033
  584MOL0     C80456  11.332   2.776   0.723 -0.1036  0.4769 -0.6199
  584MOL0     O80457  11.313   2.642   0.756 -0.0979  0.2860  0.0347
  584MOL0     C80458  11.230   2.610   0.862  0.5178 -0.2888 -0.2830
  584MOL0     C80459  11.270   2.640   0.998  0.4473 -0.1303  0.2376
  584MOL0     C80460  11.195   2.600   1.102 -0.4647  0.0816 -0.4901
  584MOL0     C80461  11.083   2.523   1.080 -0.7040  1.3127 -0.2830
  584MOL0     O80462  11.004   2.461   1.171  0.2735 -0.5800 -0.2565
  584MOL0     C80463  10.909   2.552   1.235  0.5898  0.1837  0.6720
  584MOL0     C80464  10.821   2.470   1.328  0.2551  0.2951  0.1332
  584MOL0     C80465  10.756   2.566   1.432  0.1201  0.3069 -0.2353
  584MOL0     C80466  10.706   2.489   1.559 -0.7200 -0.8155  0.4954
  584MOL0     C80467  10.819   2.432   1.640  0.3513  0.3802  0.7040
  584MOL0     C80468  10.788   2.446   1.794  0.0158  0.9437 -1.0673
  584MOL0     C80469  10.790   2.592   1.853 -0.5769  0.1058  0.2160
  584MOL0     C80470  10.795   2.576   2.005 -0.1401 -0.1821 -0.6787
  584MOL0     N80471  10.820   2.705   2.076  0.3288  0.2954  0.0413
  584MOL0     C80472  10.720   2.780   2.134  0.5985  0.7302  0.6444
  584MOL0     C80473  10.778   2.888   2.162 -0.0474 -0.3270  0.5169
  584MOL0     C80474  10.723   3.008   2.239  0.1433  0.6402 -0.1088
  584MOL0     C80475  10.830   3.114   2.267  0.8493 -0.8166 -0.1326
  584MOL0     C80476  10.764   3.248   2.314  0.2061 -0.6585 -0.0081
  584MOL0     C80477  10.873   3.357   2.330  0.1215 -0.2657  0.4317
  584MOL0     O80478  10.942   3.347   2.458  0.3731 -0.2382 -0.1701
  584MOL0     C80479  10.872   3.382   2.569 -0.3010  0.4193 -0.7916
  584MOL0     C80480  10.837   3.511   2.592  0.4042 -0.6660  0.6045
  584MOL0     C80481  10.764   3.540   2.700 -0.6988  0.1039 -0.1670
  584MOL0     C80482  10.721   3.686   2.698 -0.5544  1.0234 -0.1561
  584MOL0     C80483  10.747   3.442   2.797  0.0438  1.5014  0.7774
  584MOL0     C80484  10.670   3.467   2.921 -0.5488  1.0191 -0.9933
  584MOL0     O80485  10.680   3.586   2.978  0.1761 -0.2469 -0.1143
  584MOL0     C80486  10.617   3.615   3.095  0.5995 -0.7469 -0.5545
  584MOL0     C80487  10.673   3.569   3.213 -0.0313 -0.4229  0.5108
  584MOL0     C80488  10.611   3.624   3.335 -0.1190 -0.3314  0.2349
  584MOL0     C80489  10.502   3.711   3.337 -0.5595  0.2600 -0.1547
  584MOL0     O80490  10.454   3.746   3.457  0.4180 -0.7130 -0.2921
  584MOL0     C80491  10.346   3.841   3.465  1.2754  0.5262  1.0250
  584MOL0     C80492  10.278   3.841   3.603 -1.1066 -0.4632  0.2707
  584MOL0     C80493  10.209   3.975   3.640  0.7610  0.1252  0.4415
  584MOL0     C80494  10.074   3.981   3.587  0.1047  0.4361  0.3806
  584MOL0     C80495  10.019   4.124   3.557  0.0343  0.3022 -0.0471
  584MOL0     C80496  10.007   4.235   3.671  0.4262 -0.9683  0.2105
  584MOL0     C80497   9.858   4.268   3.715  0.1295  0.8440 -0.2931
  584MOL0     C80498   9.855   4.360   3.834  1.0125  0.8659  0.4088
  584MOL0    Cl80499   9.900   4.264   3.986  0.1610  0.0073  0.0779
  584MOL0     C80500  10.459   3.761   3.207 -0.6180  0.2697 -0.9024
  584MOL0     C80501  10.504   3.708   3.092 -0.5040 -0.1864  0.3799
  584MOL0     O80502  10.590   3.372   2.952  0.1518  0.1140 -0.0311
  584MOL0     C80503  10.791   3.310   2.781  0.3740  0.3559  0.3720
  584MOL0     C80504  10.866   3.278   2.666 -0.2433 -0.4338  0.3606
  584MOL0     N80505  10.913   2.893   2.134 -0.3212 -0.3447 -0.5147
  584MOL0     N80506  10.932   2.781   2.075 -0.3025  0.1714  0.5492
  584MOL0     C80507  11.053   2.478   0.951  1.4269  0.6656  0.0325
  584MOL0     C80508  11.123   2.517   0.840 -0.0985  0.0648 -0.4608
  584MOL0     C80509  11.417   2.796   0.607 -0.3372  0.4626 -0.7212
  584MOL0     C80510  11.430   2.686   0.524  0.7625 -0.1909 -0.8910
  584MOL0     C80511  11.517   2.680   0.411  0.2250  0.1396  0.1008
  584MOL0     C80512  11.577   2.795   0.373  0.0688 -0.9580  0.0335
  584MOL0     O80513  11.654   2.820   0.260 -0.3951 -0.3317  0.2115
  584MOL0     C80514  11.721   2.713   0.193 -0.4048  0.5955  0.2097
  584MOL0     C80515  11.846   2.659   0.270 -0.2230  1.3825  0.1073
  584MOL0     C80516  11.942   2.773   0.323 -0.1617 -0.2991 -0.2207
  584MOL0     C80517  12.032   2.834   0.203 -0.5607  0.4465 -0.0749
  584MOL0     C80518  12.126   2.731   0.145  0.3808 -0.6201 -0.0401
  584MOL0     C80519  12.190   2.637   0.090 -0.2637 -1.2346 -0.9370
  584MOL0     C80520  11.566   2.903   0.456  0.3024 -1.1415 -0.0588
  584MOL0     C80521  11.484   2.914   0.567  0.0412  0.8361  0.3351
  584MOL0     C80522  11.485   3.046   0.634 -0.5270 -0.1249  0.0225
  584MOL0     H80523  11.371   2.678   1.004  1.4987 -2.8565  1.4041
  584MOL0     H80524  11.244   2.616   1.198  3.6572 -1.9431 -1.9976
  584MOL0     H80525  10.866   2.631   1.173  0.4210 -0.0634  0.4718
  584MOL0     H80526  10.967   2.615   1.303 -3.5508  3.0733  1.9695
  584MOL0     H80527  10.746   2.435   1.257  1.5443  3.3997 -3.0037
  584MOL0     H80528  10.881   2.390   1.374 -0.4500  0.4779  1.4445
  584MOL0     H80529  10.828   2.641   1.467 -2.0795  2.2943  0.2545
  584MOL0     H80530  10.668   2.614   1.389  0.3480  0.9396 -0.0104
  584MOL0     H80531  10.667   2.569   1.623  3.3130  0.9259  1.0980
  584MOL0     H80532  10.627   2.425   1.519 -0.4808 -0.7091 -0.1484
  584MOL0     H80533  10.917   2.471   1.612  2.0760 -3.1660  1.1275
  584MOL0     H80534  10.822   2.326   1.611 -3.7043  0.0024  1.1161
  584MOL0     H80535  10.690   2.405   1.822  0.8008  0.9267  1.9742
  584MOL0     H80536  10.862   2.390   1.852 -2.3064 -0.5738  0.6405
  584MOL0     H80537  10.710   2.657   1.819 -0.2449 -0.3323 -1.4956
  584MOL0     H80538  10.881   2.644   1.822  1.1897 -1.6458  2.1305
  584MOL0     H80539  10.701   2.535   2.044  0.4835  0.4897  1.7248
  584MOL0     H80540  10.877   2.511   2.035 -1.0736  0.3266  3.6966
  584MOL0     H80541  10.616   2.756   2.150 -0.2898  3.3599 -0.5392
  584MOL0     H80542  10.686   2.980   2.338 -0.0687  1.0909 -0.0565
  584MOL0     H80543  10.646   3.049   2.173  0.4928 -1.4880 -1.9443
  584MOL0     H80544  10.902   3.086   2.344  0.7993 -2.2155 -0.5649
  584MOL0     H80545  10.892   3.134   2.179 -0.0619  3.6558 -0.0027
  584MOL0     H80546  10.699   3.280   2.232  2.0371  0.2521 -1.1852
  584MOL0     H80547  10.701   3.236   2.402 -1.6368  0.4797 -1.0875
  584MOL0     H80548  10.949   3.355   2.252  0.5505  0.6885  0.8090
  584MOL0     H80549  10.827   3.456   2.338  1.1062  0.1619  0.9929
  584MOL0     H80550  10.849   3.587   2.515 -1.3302 -0.8840  0.0780
  584MOL0     H80551  10.706   3.729   2.599 -2.2384 -0.0333 -0.3997
  584MOL0     H80552  10.789   3.749   2.755 -1.5359  0.5633  1.6105
  584MOL0     H80553  10.621   3.699   2.741 -0.5377  0.7471 -0.0306
  584MOL0     H80554  10.744   3.490   3.234  2.9466  1.9579  0.0335
  584MOL0     H80555  10.642   3.579   3.429  1.3890 -0.7373 -0.4292
  584MOL0     H80556  10.390   3.939   3.446 -1.0274  1.5472  0.6330
  584MOL0     H80557  10.266   3.824   3.393 -0.5882  1.1081  2.8656
  584MOL0     H80558  10.202   3.764   3.608 -0.3649 -1.2857 -0.6720
  584MOL0     H80559  10.354   3.817   3.679  2.0785 -1.1591 -2.8551
  584MOL0     H80560  10.269   4.062   3.610  0.7087 -0.1384 -0.4344
  584MOL0     H80561  10.190   3.993   3.746 -3.1526 -2.0944  0.3071
  584MOL0     H80562  10.006   3.946   3.664 -0.0149  1.0553  0.5620
  584MOL0     H80563  10.067   3.928   3.492 -0.8989  1.9892 -0.4579
  584MOL0     H80564  10.080   4.169   3.478  0.5817  4.1184  2.3333
  584MOL0     H80565   9.916   4.111   3.523 -0.0901 -0.5972  0.6341
  584MOL0     H80566  10.056   4.324   3.631  0.4866 -1.2071 -0.2493
  584MOL0     H80567  10.079   4.205   3.748  2.4359  1.0067 -0.7883
  584MOL0     H80568   9.789   4.186   3.738 -1.4233  2.5889  1.6967
  584MOL0     H80569   9.820   4.331   3.634  1.2782 -0.4984 -1.9443
  584MOL0     H80570   9.756   4.405   3.845 -0.5420 -1.4918 -2.5886
  584MOL0     H80571   9.927   4.442   3.821  1.6802  0.1673 -0.3528
  584MOL0     H80572  10.380   3.836   3.200 -1.5525 -0.6261 -0.2531
  584MOL0     H80573  10.466   3.748   2.998 -2.6404  0.5325  1.4695
  584MOL0     H80574  10.752   3.237   2.850  0.4434  1.2162  1.3469
  584MOL0     H80575  10.901   3.183   2.626 -0.3118  0.8739 -3.2014
  584MOL0     H80576  10.978   2.399   0.950  1.2696  0.7467  2.0011
  584MOL0     H80577  11.113   2.493   0.735  2.4798  0.4818 -0.8720
  584MOL0     H80578  11.354   2.610   0.534 -1.2613  1.9163  0.8526
  584MOL0     H80579  11.519   2.592   0.348 -1.3585  0.4137 -0.3773
  584MOL0     H80580  11.662   2.623   0.170 -0.3964  0.4133  0.8813
  584MOL0     H80581  11.760   2.757   0.101 -0.0940 -0.6721 -0.2956
  584MOL0     H80582  11.896   2.590   0.201  1.0629 -0.7456  2.9379
  584MOL0     H80583  11.826   2.592   0.354 -0.2555 -1.5297 -2.0506
  584MOL0     H80584  11.890   2.849   0.382  0.7874  0.8559 -0.8464
  584MOL0     H80585  12.002   2.728   0.402 -1.9164  0.2598  1.5086
  584MOL0     H80586  12.096   2.910   0.248 -0.4011 -0.8956  2.0950
  584MOL0     H80587  11.971   2.868   0.119  0.7204 -0.8895 -1.6197
  584MOL0     H80588  12.268   2.578   0.046  1.4187  1.8943 -2.4698
  584MOL0     H80589  11.607   2.997   0.420 -4.2444  1.1843 -0.0071
  584MOL0     H80590  11.583   3.095   0.630 -1.2855  2.0927  3.7338
  584MOL0     H80591  11.416   3.110   0.579  0.7739 -0.9391 -2.7401
  584MOL0     H80592  11.450   3.050   0.738  0.7758  2.9190  0.4473
  585MOL0     O80593   0.840   0.750   7.029  0.2065  0.2471  0.4927
  585MOL0     C80594   0.830   0.831   6.936 -0.1269 -0.3623 -0.4073
  585MOL0     O80595   0.926   0.851   6.844  0.5817  0.4775  0.4113
  585MOL0     C80596   1.018   0.747   6.817  0.2866  0.0210  0.2678
  585MOL0     C80597   0.977   0.620   6.777 -0.0566  0.3517 -0.4279
  585MOL0     C80598   1.080   0.520   6.757 -0.3188 -0.6242 -0.5669
  585MOL0     C80599   1.217   0.560   6.744  0.3365  0.5287  0.3759
  585MOL0     O80600   1.324   0.480   6.701 -0.5607 -0.8460 -0.6129
  585MOL0     C80601   1.285   0.375   6.619 -0.9757  0.2934  0.0304
  585MOL0     C80602   1.396   0.344   6.520 -0.0425  0.2563  1.2141
  585MOL0     C80603   1.349   0.245   6.413 -0.2065  0.2075  0.5707
  585MOL0     C80604   1.456   0.236   6.304 -0.6371  0.8217  0.0826
  585MOL0     C80605   1.424   0.118   6.218  0.5542  0.2643  0.5030
  585MOL0     C80606   1.510   0.104   6.102  0.2206 -0.1402 -0.3101
  585MOL0     C80607   1.483  -0.033   6.033 -0.2598 -0.1389 -0.0412
  585MOL0     C80608   1.567  -0.052   5.919 -0.0264 -0.5644  0.1478
  585MOL0     N80609   1.518   0.021   5.791  0.6184  0.3075 -0.2957
  585MOL0     C80610   1.595   0.123   5.741 -0.4126 -0.4836  0.4596
  585MOL0     C80611   1.537   0.156   5.621  0.3194  0.4205 -0.3404
  585MOL0     C80612   1.551   0.283   5.553 -0.2187  0.1450  0.2264
  585MOL0     C80613   1.409   0.341   5.539  0.1342  0.7120  0.2118
  585MOL0     C80614   1.417   0.479   5.471 -1.3311  0.0632 -0.4321
  585MOL0     C80615   1.289   0.563   5.473 -0.1711 -0.6271  0.5165
  585MOL0     O80616   1.252   0.601   5.607 -0.7228  0.1097 -0.0880
  585MOL0     C80617   1.142   0.694   5.603 -0.4723  0.3349  0.6885
  585MOL0     C80618   1.016   0.653   5.594  0.2530  0.1682  0.3191
  585MOL0     C80619   0.903   0.730   5.592 -0.0822 -0.2201 -0.9342
  585MOL0     C80620   0.766   0.666   5.574 -0.2231 -0.4639  0.5208
  585MOL0     C80621   0.921   0.871   5.591  0.1437 -0.0156  1.6290
  585MOL0     C80622   0.820   0.967   5.549 -0.2066  0.3590  0.2493
  585MOL0     O80623   0.767   0.937   5.431  0.4129 -0.0187 -0.0020
  585MOL0     C80624   0.657   1.002   5.385  0.4818  0.1435 -0.9052
  585MOL0     C80625   0.557   1.033   5.479 -0.3626  0.3441 -0.0112
  585MOL0     C80626   0.444   1.101   5.427  0.2410 -0.7260 -0.2475
  585MOL0     C80627   0.439   1.140   5.287  1.0240  1.1353 -1.0129
  585MOL0     O80628   0.321   1.197   5.244  0.8610 -0.2958  0.3170
  585MOL0     C80629   0.324   1.303   5.140  0.5834  0.5810  0.2613
  585MOL0     C80630   0.237   1.264   5.016 -0.3725  0.6601 -0.3562
  585MOL0     C80631   0.249   1.118   4.966  0.3288 -0.4797  0.4159
  585MOL0     C80632   0.126   1.077   4.879 -0.2282 -1.3770  0.6781
  585MOL0     C80633   0.107   0.922   4.864 -0.1588  0.2833 -0.1650
  585MOL0     C80634  -0.021   0.893   4.780  0.3414 -0.9494 -0.6789
  585MOL0     C80635  -0.085   0.758   4.782  0.0387  0.1172  0.5677
  585MOL0     C80636  -0.225   0.754   4.829 -0.7467  1.0259  0.2242
  585MOL0    Cl80637  -0.241   0.745   5.008 -0.0659 -0.0471 -0.3647
  585MOL0     C80638   0.541   1.098   5.199  0.2966 -0.1652 -0.8849
  585MOL0     C80639   0.643   1.033   5.251 -0.3147 -0.2782 -0.3113
  585MOL0     O80640   0.805   1.075   5.609 -0.8847  0.0242 -0.0986
  585MOL0     C80641   1.053   0.921   5.604  0.3093  0.5303  1.2321
  585MOL0     C80642   1.160   0.834   5.619  1.1054  0.3675 -0.4281
  585MOL0     N80643   1.432   0.063   5.602 -0.4679 -0.3830  0.3617
  585MOL0     N80644   1.420  -0.014   5.703 -0.1363  0.0619 -0.7384
  585MOL0     C80645   1.245   0.691   6.789  0.5350 -0.2645 -0.9439
  585MOL0     C80646   1.152   0.782   6.824 -0.8387  0.3167 -0.2846
  585MOL0     C80647   0.706   0.911   6.927  0.1635  0.1826  0.4581
  585MOL0     C80648   0.684   0.989   6.811 -0.1273  0.0196  0.2327
  585MOL0     C80649   0.571   1.071   6.804 -0.2060  0.0294  0.4323
  585MOL0     C80650   0.477   1.076   6.902  0.5173 -0.6389 -0.1355
  585MOL0     O80651   0.361   1.153   6.897 -0.8128 -0.3790  0.1942
  585MOL0     C80652   0.350   1.258   6.795 -0.1949 -0.1605 -0.8118
  585MOL0     C80653   0.298   1.212   6.652 -0.1582  0.1215 -0.2779
  585MOL0     C80654   0.382   1.272   6.536  0.2254 -0.1627 -0.3590
  585MOL0     C80655   0.385   1.190   6.414 -0.1859 -0.4027 -0.1436
  585MOL0     C80656   0.442   1.267   6.300 -0.7798  0.3292 -0.4831
  585MOL0     C80657   0.462   1.350   6.217 -0.3273 -0.6736 -0.7700
  585MOL0     C80658   0.499   0.998   7.014  0.0376 -0.0268  0.8190
  585MOL0     C80659   0.615   0.928   7.035  0.1923  0.5711  0.2996
  585MOL0     C80660   0.615   0.845   7.161  0.3324 -1.2458 -0.8683
  585MOL0     H80661   0.871   0.604   6.756  0.3324  0.2143 -2.5138
  585MOL0     H80662   1.040   0.421   6.736 -0.8702 -0.9975  1.8846
  585MOL0     H80663   1.203   0.410   6.557 -1.2951  2.8024  1.7024
  585MOL0     H80664   1.267   0.280   6.671  1.4078  0.1503  0.7430
  585MOL0     H80665   1.427   0.439   6.473 -1.3635  0.1726  0.1105
  585MOL0     H80666   1.491   0.317   6.567  0.3919 -3.1511 -1.2434
  585MOL0     H80667   1.339   0.142   6.449 -1.2440  0.9867  2.6391
  585MOL0     H80668   1.251   0.281   6.381 -0.7520 -0.6001  1.2880
  585MOL0     H80669   1.471   0.327   6.245 -0.6918  0.9141  0.2092
  585MOL0     H80670   1.555   0.226   6.350 -1.4723  2.3217  2.3952
  585MOL0     H80671   1.319   0.125   6.189  0.6833  2.2980  0.4163
  585MOL0     H80672   1.438   0.036   6.290 -0.6186 -2.2025 -1.8864
  585MOL0     H80673   1.496   0.190   6.037  1.3256 -0.5159 -1.0776
  585MOL0     H80674   1.610   0.114   6.144 -0.8331  2.7020  1.8437
  585MOL0     H80675   1.378  -0.027   6.002 -0.2311 -2.2112 -0.6859
  585MOL0     H80676   1.500  -0.112   6.107 -0.1578 -1.7303 -1.6994
  585MOL0     H80677   1.669  -0.025   5.950 -0.1721  0.4726 -0.2231
  585MOL0     H80678   1.551  -0.159   5.904 -1.2184 -0.4210  0.3197
  585MOL0     H80679   1.682   0.165   5.791  0.0677 -2.1814  1.1037
  585MOL0     H80680   1.594   0.278   5.453 -0.2640 -2.4682  0.2741
  585MOL0     H80681   1.617   0.356   5.603 -1.5392  2.4977 -1.2749
  585MOL0     H80682   1.342   0.284   5.474  0.7908  2.4095 -2.0950
  585MOL0     H80683   1.368   0.352   5.639  1.7450 -1.7850  1.2505
  585MOL0     H80684   1.499   0.539   5.514 -1.0647 -1.2788  1.0260
  585MOL0     H80685   1.457   0.452   5.373 -0.4076 -4.2370  0.9334
  585MOL0     H80686   1.321   0.646   5.408 -0.5495  0.5393  1.7721
  585MOL0     H80687   1.211   0.506   5.422  0.7796 -2.7369  1.3035
  585MOL0     H80688   1.009   0.545   5.595  2.8087 -0.0859 -1.1032
  585MOL0     H80689   0.749   0.596   5.657 -0.6869 -1.1306 -0.1258
  585MOL0     H80690   0.752   0.617   5.478 -1.3242 -0.0121  0.4278
  585MOL0     H80691   0.690   0.744   5.590 -1.5524 -1.5839 -0.1406
  585MOL0     H80692   0.549   0.994   5.580 -3.8592 -0.0867 -0.3351
  585MOL0     H80693   0.366   1.139   5.492  0.4208  2.6375 -1.7842
  585MOL0     H80694   0.286   1.390   5.194 -0.3895  2.9990 -3.8513
  585MOL0     H80695   0.428   1.317   5.109  1.0034 -0.0544  1.3223
  585MOL0     H80696   0.134   1.297   5.032  0.5444  2.6679  2.1950
  585MOL0     H80697   0.265   1.336   4.939  0.5044  1.3256  0.5519
  585MOL0     H80698   0.251   1.047   5.050 -1.2293 -1.4038 -0.2786
  585MOL0     H80699   0.338   1.111   4.903  0.8335  1.2763  0.8748
  585MOL0     H80700   0.156   1.123   4.784 -1.2572 -2.8985 -0.4371
  585MOL0     H80701   0.035   1.124   4.916  1.1043  0.7608  1.3577
  585MOL0     H80702   0.196   0.875   4.821  0.6531  2.7681 -1.3647
  585MOL0     H80703   0.090   0.874   4.961 -1.6002 -2.5380 -1.6795
  585MOL0     H80704  -0.010   0.935   4.680  0.7868  4.2101  1.1945
  585MOL0     H80705  -0.101   0.954   4.824 -0.6210 -0.9398 -2.3690
  585MOL0     H80706  -0.024   0.674   4.817 -1.8586 -0.1146  3.7478
  585MOL0     H80707  -0.092   0.722   4.679 -2.2490 -2.0128  1.3626
  585MOL0     H80708  -0.278   0.666   4.793 -6.5172  2.5141  3.6906
  585MOL0     H80709  -0.289   0.834   4.789 -1.3360  0.1874 -0.5632
  585MOL0     H80710   0.535   1.107   5.091  1.0165  1.9865 -0.7939
  585MOL0     H80711   0.711   1.000   5.174 -2.6407 -0.5327 -2.3834
  585MOL0     H80712   1.075   1.027   5.595  1.0301  0.4246  1.7046
  585MOL0     H80713   1.262   0.865   5.641  1.0783  0.0396  0.1916
  585MOL0     H80714   1.349   0.721   6.803 -0.1595  0.8171  3.0607
  585MOL0     H80715   1.190   0.882   6.845 -0.0127 -0.4106  1.9126
  585MOL0     H80716   0.756   0.991   6.730 -1.2035 -1.1662 -0.7832
  585MOL0     H80717   0.571   1.133   6.715 -1.6882  1.2925  1.2690
  585MOL0     H80718   0.287   1.339   6.832  1.5516  1.0497 -0.3714
  585MOL0     H80719   0.447   1.308   6.792  0.4905 -1.2320  1.3512
  585MOL0     H80720   0.195   1.245   6.638  0.2437  0.8439 -1.7889
  585MOL0     H80721   0.310   1.103   6.643  0.7874  0.3926 -3.8922
  585MOL0     H80722   0.338   1.369   6.509  0.7147  0.4700  1.0282
  585MOL0     H80723   0.485   1.291   6.567  1.1081 -0.8796 -2.5947
  585MOL0     H80724   0.281   1.167   6.392 -0.8774  1.6900  0.6712
  585MOL0     H80725   0.448   1.101   6.417  3.6027  2.0155  3.1779
  585MOL0     H80726   0.490   1.420   6.141 -3.1226  1.8459  0.3372
  585MOL0     H80727   0.420   0.999   7.088 -0.5511 -3.5132  0.4013
  585MOL0     H80728   0.526   0.866   7.221 -0.4180 -0.3474 -2.2522
  585MOL0     H80729   0.629   0.738   7.140  1.8715 -1.8932  2.7491
  585MOL0     H80730   0.699   0.880   7.221 -1.9389  3.7754 -0.1223
  586MOL0     O80731   2.136   2.859   9.408  0.8156  0.2537 -0.6229
  586MOL0     C80732   2.017   2.858   9.437  0.7092 -1.3057  0.1014
  586MOL0     O80733   1.950   2.946   9.522 -0.1009  0.1648  0.0429
  586MOL0     C80734   2.019   3.050   9.580 -1.4919 -0.1245  0.0617
  586MOL0     C80735   2.142   3.040   9.653  0.6511 -0.1423 -0.1735
  586MOL0     C80736   2.215   3.147   9.706 -0.4822 -0.4262  0.8557
  586MOL0     C80737   2.161   3.277   9.704 -0.4644 -0.6092  1.2460
  586MOL0     O80738   2.242   3.369   9.768  0.3971  0.1938 -0.1101
  586MOL0     C80739   2.194   3.506   9.770  0.4238 -0.0592 -0.4370
  586MOL0     C80740   2.268   3.592   9.868 -0.4473  0.2591 -0.1903
  586MOL0     C80741   2.402   3.623   9.809 -0.2646  0.6527  0.2772
  586MOL0     C80742   2.485   3.690   9.907  0.1639 -0.3229  0.4249
  586MOL0     C80743   2.604   3.760   9.848 -0.3916  0.5417  0.5952
  586MOL0     C80744   2.682   3.830   9.952  0.5253  0.2314 -0.1337
  586MOL0     C80745   2.773   3.941   9.886  0.2383 -0.0556  0.5490
  586MOL0     C80746   2.908   3.963   9.963  0.3321  0.3623 -0.1758
  586MOL0     N80747   2.964   4.091   9.921 -0.7575 -0.4786  0.5566
  586MOL0     C80748   2.972   4.194  10.015 -0.0453  0.7742  0.1028
  586MOL0     C80749   3.011   4.304   9.939  0.2165  0.3807  0.4397
  586MOL0     C80750   3.020   4.443   9.985 -1.1298 -0.7495 -0.2922
  586MOL0     C80751   3.096   4.457  10.119 -0.0811  0.6628 -0.2512
  586MOL0     C80752   3.096   4.602  10.176 -0.6784  0.0957  0.1482
  586MOL0     C80753   3.157   4.600  10.313 -0.9395  0.2551  0.3433
  586MOL0     O80754   3.078   4.526  10.404 -0.1782 -0.3814 -0.3277
  586MOL0     C80755   3.118   4.498  10.529  0.1006  0.5977 -0.5283
  586MOL0     C80756   3.036   4.421  10.605 -0.0340 -0.1384 -0.1856
  586MOL0     C80757   3.058   4.408  10.744 -1.0013 -0.4436  0.2027
  586MOL0     C80758   2.962   4.337  10.837 -0.4492  0.2737 -0.2089
  586MOL0     C80759   3.183   4.458  10.801 -0.1172  0.8767 -0.9285
  586MOL0     C80760   3.234   4.441  10.941  0.2620  0.2703  0.0586
  586MOL0     O80761   3.364   4.415  10.969  0.8191 -0.4528  1.1769
  586MOL0     C80762   3.411   4.369  11.090  1.3941 -0.3410 -0.7840
  586MOL0     C80763   3.329   4.286  11.176 -1.2259  1.0184  1.0710
  586MOL0     C80764   3.391   4.242  11.296  0.2041  0.0114 -0.8854
  586MOL0     C80765   3.528   4.270  11.327  0.1825  0.1862 -0.4996
  586MOL0     O80766   3.573   4.226  11.448  0.2333  0.3232  0.1217
  586MOL0     C80767   3.710   4.221  11.495  0.1047  0.8542  0.2603
  586MOL0     C80768   3.779   4.085  11.475  1.1124 -0.6425 -0.2389
  586MOL0     C80769   3.898   4.058  11.568  0.2437  0.8127 -0.6332
  586MOL0     C80770   4.011   4.163  11.559  0.1308  1.0209  0.8479
  586MOL0     C80771   4.138   4.152  11.644  0.4118 -0.2568  0.5217
  586MOL0     C80772   4.108   4.154  11.797  0.1857  0.1537 -0.4080
  586MOL0     C80773   4.237   4.118  11.872  1.4273 -0.2109  0.3368
  586MOL0     C80774   4.242   4.124  12.028  0.3141 -0.8285 -0.5608
  586MOL0    Cl80775   4.204   4.288  12.095  0.1103  0.2068 -0.3138
  586MOL0     C80776   3.609   4.346  11.233 -0.0057  0.5326 -0.0851
  586MOL0     C80777   3.546   4.386  11.117  0.5258  0.2123  0.1897
  586MOL0     O80778   3.144   4.443  11.019 -0.1971 -0.5992  0.3656
  586MOL0     C80779   3.271   4.506  10.714  0.4890 -0.5020 -0.0964
  586MOL0     C80780   3.242   4.528  10.584 -1.3224 -0.1388  0.4906
  586MOL0     N80781   3.024   4.266   9.806 -0.2569  0.9526  0.3424
  586MOL0     N80782   2.999   4.137   9.801  0.2963  0.0286 -0.0704
  586MOL0     C80783   2.038   3.295   9.629  0.1556 -0.4961  0.1730
  586MOL0     C80784   1.972   3.183   9.570  0.6799 -0.1636  0.3210
  586MOL0     C80785   1.924   2.757   9.372 -0.1101  0.1892  0.9715
  586MOL0     C80786   1.813   2.713   9.444  1.3911  0.2431  0.0331
  586MOL0     C80787   1.724   2.633   9.370  0.4570  0.1050  0.9033
  586MOL0     C80788   1.751   2.576   9.242  0.8025  0.0333 -0.4704
  586MOL0     O80789   1.661   2.471   9.200 -0.3193  0.1183  0.6413
  586MOL0     C80790   1.703   2.379   9.105  0.7133  0.0397 -0.3432
  586MOL0     C80791   1.789   2.265   9.166  0.0438 -0.2285  0.0332
  586MOL0     C80792   1.757   2.212   9.303  1.1347 -0.2737 -0.7239
  586MOL0     C80793   1.624   2.143   9.321  0.1387 -0.1034 -0.1448
  586MOL0     C80794   1.499   2.224   9.300 -0.4274 -0.2940 -0.3684
  586MOL0     C80795   1.404   2.291   9.257 -0.0649  0.5545 -0.3295
  586MOL0     C80796   1.870   2.611   9.173  0.0706 -0.6607 -0.5730
  586MOL0     C80797   1.956   2.698   9.236 -0.6630 -0.6628 -0.6770
  586MOL0     C80798   2.065   2.752   9.151 -0.1846  0.0858  0.3367
  586MOL0     H80799   2.161   2.933   9.650 -2.3086 -0.9220  2.5111
  586MOL0     H80800   2.317   3.128   9.740 -0.0315 -0.6829 -0.5729
  586MOL0     H80801   2.090   3.502   9.804  0.8570  0.4669  1.0153
  586MOL0     H80802   2.197   3.555   9.672 -1.2563  2.0462  0.4723
  586MOL0     H80803   2.221   3.682   9.909  1.1716  0.9144  0.3534
  586MOL0     H80804   2.287   3.533   9.958 -0.8633 -0.3161 -0.4784
  586MOL0     H80805   2.450   3.532   9.770 -2.9799  0.3272 -2.6692
  586MOL0     H80806   2.387   3.694   9.727 -2.9730  3.0221  2.6036
  586MOL0     H80807   2.417   3.754   9.964  1.9964 -1.6295  4.4172
  586MOL0     H80808   2.519   3.619   9.983 -0.0905  0.2248  1.0589
  586MOL0     H80809   2.566   3.835   9.777  0.2073  0.3270  0.0398
  586MOL0     H80810   2.672   3.694   9.794 -0.5281 -3.0730  4.3674
  586MOL0     H80811   2.607   3.887  10.007 -0.7088  0.3919 -1.9212
  586MOL0     H80812   2.740   3.759  10.012 -1.4579 -0.5507  0.9636
  586MOL0     H80813   2.727   4.040   9.883 -1.3983 -0.7716  0.9356
  586MOL0     H80814   2.794   3.914   9.782 -0.7886  1.0659  0.0196
  586MOL0     H80815   2.885   3.971  10.069  2.8030  1.5758  0.3415
  586MOL0     H80816   2.981   3.883   9.950  1.4222  1.3573 -0.3204
  586MOL0     H80817   2.939   4.195  10.118 -1.3269 -0.9588 -0.2431
  586MOL0     H80818   2.920   4.487   9.998 -0.6931 -0.3093  1.9966
  586MOL0     H80819   3.077   4.493   9.906 -0.0306 -2.1363 -0.4047
  586MOL0     H80820   3.059   4.391  10.199  0.6007  0.2383 -0.2798
  586MOL0     H80821   3.196   4.419  10.099  0.1531  0.7065  0.7988
  586MOL0     H80822   3.132   4.683  10.113 -1.0406 -0.4469 -0.7879
  586MOL0     H80823   2.991   4.624  10.198 -0.9328 -1.2154  0.3455
  586MOL0     H80824   3.258   4.558  10.308 -0.7379  0.6795  0.8005
  586MOL0     H80825   3.158   4.700  10.356 -0.9131 -0.0624  1.0839
  586MOL0     H80826   2.953   4.359  10.573 -0.9974 -1.1291  3.7075
  586MOL0     H80827   2.864   4.321  10.790  1.0218 -0.4716 -3.2658
  586MOL0     H80828   2.948   4.395  10.929 -0.8873  2.6697 -1.7101
  586MOL0     H80829   3.010   4.244  10.871 -0.3343 -0.1956 -1.5948
  586MOL0     H80830   3.224   4.269  11.157 -0.6635 -4.9804  1.4952
  586MOL0     H80831   3.333   4.184  11.366 -0.4533  1.5242 -0.1328
  586MOL0     H80832   3.759   4.306  11.445  0.8654 -0.3664 -1.1622
  586MOL0     H80833   3.706   4.244  11.602  1.6608  0.2562  0.4826
  586MOL0     H80834   3.709   4.006  11.506  1.6033 -0.0505  2.6761
  586MOL0     H80835   3.803   4.077  11.368 -0.1975  1.6031 -0.7615
  586MOL0     H80836   3.924   3.952  11.562  0.1298  0.8056 -1.0094
  586MOL0     H80837   3.876   4.071  11.675  2.6444 -3.0355  0.5306
  586MOL0     H80838   3.952   4.253  11.575 -3.3610 -0.8474 -0.5643
  586MOL0     H80839   4.048   4.163  11.456  2.9314  0.4014  1.7503
  586MOL0     H80840   4.183   4.055  11.619  0.6222  0.0551 -0.3441
  586MOL0     H80841   4.213   4.227  11.619 -1.3376  1.8041  1.1591
  586MOL0     H80842   4.041   4.076  11.836  3.5796 -1.8473  1.9065
  586MOL0     H80843   4.067   4.250  11.830  2.5343  1.4710 -1.1514
  586MOL0     H80844   4.326   4.169  11.833  0.2001 -0.4740 -3.1395
  586MOL0     H80845   4.268   4.018  11.841  0.9846 -0.9011  2.0148
  586MOL0     H80846   4.345   4.106  12.059  0.0774 -0.7608  0.3020
  586MOL0     H80847   4.168   4.058  12.074 -0.5164  0.0216 -0.6429
  586MOL0     H80848   3.715   4.351  11.256 -0.6077  1.8902  2.9207
  586MOL0     H80849   3.614   4.414  11.037 -2.6303  2.2219 -2.0722
  586MOL0     H80850   3.367   4.548  10.745  0.6090  1.8213 -3.1514
  586MOL0     H80851   3.317   4.567  10.516 -2.9918  0.2077 -1.2304
  586MOL0     H80852   2.013   3.399   9.608  3.4606 -0.1862 -3.2435
  586MOL0     H80853   1.888   3.208   9.506  2.1228 -0.6211 -1.8302
  586MOL0     H80854   1.782   2.726   9.547 -2.2161 -3.3062 -0.3064
  586MOL0     H80855   1.645   2.584   9.426  0.8813 -1.0572  0.5194
  586MOL0     H80856   1.609   2.335   9.073 -1.1003 -0.2341  4.4495
  586MOL0     H80857   1.747   2.423   9.015 -1.2491  2.3700 -0.2545
  586MOL0     H80858   1.892   2.300   9.170  0.5814 -1.8164  1.1470
  586MOL0     H80859   1.769   2.192   9.087 -2.2479  0.9226 -0.5562
  586MOL0     H80860   1.834   2.149   9.347  0.6460 -0.1094  0.4091
  586MOL0     H80861   1.755   2.298   9.370  1.5227  0.1482 -1.2448
  586MOL0     H80862   1.628   2.100   9.421  1.3303  2.3686  0.9664
  586MOL0     H80863   1.626   2.079   9.232  0.5357  1.3838 -1.2662
  586MOL0     H80864   1.324   2.344   9.211  0.3728  3.6584  2.1504
  586MOL0     H80865   1.895   2.568   9.077 -0.4590 -0.1482 -0.9438
  586MOL0     H80866   2.070   2.861   9.161  0.8685  0.0099  0.6855
  586MOL0     H80867   2.163   2.710   9.176 -0.3616  1.1135  3.0568
  586MOL0     H80868   2.040   2.732   9.046 -2.4332  2.5730  0.2875
  587MOL0     O80869   7.237   8.171   6.547  0.1425 -0.4159  0.0386
  587MOL0     C80870   7.308   8.069   6.537 -0.1243 -0.0580  0.0051
  587MOL0     O80871   7.349   7.999   6.648 -0.9960  0.7179  0.5931
  587MOL0     C80872   7.336   8.058   6.767  0.2979 -0.1756 -0.2011
  587MOL0     C80873   7.433   8.139   6.828 -0.2308  0.4645 -0.5636
  587MOL0     C80874   7.429   8.175   6.965 -0.2648  0.3361  0.2739
  587MOL0     C80875   7.329   8.128   7.046 -0.2316  0.3696  0.4373
  587MOL0     O80876   7.340   8.163   7.182  0.1380 -0.2853  0.1070
  587MOL0     C80877   7.249   8.108   7.281 -0.5728  0.3586  0.7467
  587MOL0     C80878   7.309   8.118   7.425  0.4214 -0.3583 -1.0252
  587MOL0     C80879   7.455   8.054   7.433 -0.0547 -0.7008  0.7840
  587MOL0     C80880   7.482   8.037   7.583 -0.1055  0.4681 -0.0447
  587MOL0     C80881   7.615   7.971   7.614 -0.1488  0.5369 -0.8150
  587MOL0     C80882   7.626   7.906   7.759  1.1731 -0.0836  0.3101
  587MOL0     C80883   7.614   8.015   7.870  0.2045  0.3702  0.5146
  587MOL0     C80884   7.624   7.947   8.008 -0.4890 -0.1363  1.1447
  587MOL0     N80885   7.602   8.048   8.114  0.4269  0.3328  0.3826
  587MOL0     C80886   7.698   8.090   8.207  0.1114  0.4245  0.7995
  587MOL0     C80887   7.627   8.136   8.311  0.9234  0.1163  0.5230
  587MOL0     C80888   7.701   8.182   8.431 -0.0212  0.4764 -0.0742
  587MOL0     C80889   7.678   8.092   8.559  0.0612 -0.2658 -0.3002
  587MOL0     C80890   7.570   8.160   8.650 -0.0869  0.4162  0.5446
  587MOL0     C80891   7.437   8.179   8.577  0.0130 -0.0577 -0.6412
  587MOL0     O80892   7.324   8.220   8.658 -0.4089  0.3850 -1.3339
  587MOL0     C80893   7.195   8.181   8.624 -0.1500 -0.2769  1.6436
  587MOL0     C80894   7.142   8.076   8.701  0.2895  0.4661  0.2942
  587MOL0     C80895   7.025   8.018   8.665  0.6810 -0.2474 -0.1286
  587MOL0     C80896   6.978   7.906   8.758  0.0855 -0.6482 -0.9891
  587MOL0     C80897   6.956   8.058   8.540  0.3648  1.4963 -0.2003
  587MOL0     C80898   6.838   7.986   8.488 -1.1659  0.0741 -0.1518
  587MOL0     O80899   6.819   7.995   8.355  0.2922 -0.8657 -0.8532
  587MOL0     C80900   6.728   7.917   8.292 -0.1244 -0.8432  0.1709
  587MOL0     C80901   6.592   7.910   8.329  0.4902  0.0007  0.0674
  587MOL0     C80902   6.510   7.825   8.247  0.4994  0.6309 -0.0242
  587MOL0     C80903   6.563   7.746   8.152 -0.9346  0.0496 -0.1539
  587MOL0     O80904   6.497   7.647   8.089  0.0588  0.5079  0.1668
  587MOL0     C80905   6.428   7.551   8.163  0.3920 -0.1994 -0.6598
  587MOL0     C80906   6.421   7.413   8.098  1.1844 -0.0751  0.3909
  587MOL0     C80907   6.309   7.330   8.153  0.4534 -1.1218 -0.7311
  587MOL0     C80908   6.299   7.190   8.088 -0.3780 -0.0346  0.1200
  587MOL0     C80909   6.186   7.111   8.158 -0.1115 -0.3080  1.3316
  587MOL0     C80910   6.178   6.961   8.134 -0.0049 -1.4046 -0.5331
  587MOL0     C80911   6.055   6.891   8.192 -0.0395 -0.2567  0.1285
  587MOL0     C80912   6.028   6.761   8.119  0.1695  0.6772 -0.6615
  587MOL0    Cl80913   5.908   6.682   8.209 -0.0763 -0.0209 -0.0308
  587MOL0     C80914   6.698   7.764   8.118  1.4655  0.4489  0.5724
  587MOL0     C80915   6.780   7.846   8.184 -0.0421 -0.5717 -0.5781
  587MOL0     O80916   6.755   7.942   8.563  0.5787  0.6621  0.6229
  587MOL0     C80917   7.023   8.155   8.464  0.3892 -0.4160  0.0810
  587MOL0     C80918   7.142   8.217   8.501  0.0418  0.1707  0.7244
  587MOL0     N80919   7.494   8.106   8.286  0.9703  0.1993  0.6756
  587MOL0     N80920   7.476   8.055   8.175 -0.2462  0.6852  0.1172
  587MOL0     C80921   7.223   8.056   6.980  0.4437 -0.2057 -0.4251
  587MOL0     C80922   7.222   8.031   6.840 -0.4779  0.4546 -0.0902
  587MOL0     C80923   7.323   8.011   6.398 -0.4091 -0.2731  0.5819
  587MOL0     C80924   7.312   8.113   6.298  0.7364  0.4396 -0.3952
  587MOL0     C80925   7.324   8.081   6.166  0.9106 -0.4205  0.1806
  587MOL0     C80926   7.334   7.942   6.121 -0.3616 -1.0208 -0.3023
  587MOL0     O80927   7.335   7.894   5.995  0.0568  0.6670 -0.9217
  587MOL0     C80928   7.312   7.983   5.883 -0.5232  0.1691 -0.5795
  587MOL0     C80929   7.445   8.049   5.855 -0.4176 -0.6009  0.2202
  587MOL0     C80930   7.422   8.150   5.744 -0.9846  0.0775 -0.2444
  587MOL0     C80931   7.522   8.270   5.750  0.3686 -0.8366  0.1869
  587MOL0     C80932   7.505   8.338   5.622 -1.0248  0.0250  0.0709
  587MOL0     C80933   7.494   8.376   5.503  0.4199 -0.6336  0.2123
  587MOL0     C80934   7.351   7.858   6.225 -0.2251  0.5538  0.0020
  587MOL0     C80935   7.350   7.882   6.357  0.2083  0.1607 -0.2846
  587MOL0     C80936   7.386   7.767   6.454 -1.1958  0.9331 -1.0040
  587MOL0     H80937   7.517   8.178   6.772 -0.1257 -0.7129 -1.2673
  587MOL0     H80938   7.513   8.231   7.005  1.2213 -1.4187 -0.2648
  587MOL0     H80939   7.233   8.002   7.259 -0.5848  0.8073 -1.7727
  587MOL0     H80940   7.152   8.158   7.279  0.0536  1.5711 -0.0388
  587MOL0     H80941   7.313   8.218   7.468  2.3302 -0.9549  0.3244
  587MOL0     H80942   7.251   8.050   7.487  2.3136 -0.7004  0.4656
  587MOL0     H80943   7.452   7.954   7.388  0.4654 -1.0270  1.4678
  587MOL0     H80944   7.538   8.106   7.385  0.8605 -1.8583  1.0675
  587MOL0     H80945   7.470   8.138   7.623 -2.5198  0.0940  0.3567
  587MOL0     H80946   7.398   7.983   7.628 -2.8379  2.5772 -2.2177
  587MOL0     H80947   7.700   8.038   7.596  0.3158  0.4809  0.9459
  587MOL0     H80948   7.625   7.889   7.543  0.6453 -1.3425  1.3428
  587MOL0     H80949   7.547   7.831   7.766  0.5347  0.5039 -0.5084
  587MOL0     H80950   7.726   7.861   7.771  1.4832  0.9919  2.0485
  587MOL0     H80951   7.520   8.067   7.849  0.4953  0.3214 -1.0546
  587MOL0     H80952   7.689   8.094   7.865 -0.5959  1.1630  0.5800
  587MOL0     H80953   7.556   7.862   8.017  0.4134 -0.8872  1.0503
  587MOL0     H80954   7.719   7.894   8.018 -2.0096 -2.8950  1.9970
  587MOL0     H80955   7.805   8.091   8.191 -0.0566 -1.1017 -0.8134
  587MOL0     H80956   7.679   8.284   8.462  1.1344 -0.3134  3.9171
  587MOL0     H80957   7.804   8.162   8.400  0.9244 -1.1730  3.6513
  587MOL0     H80958   7.653   7.991   8.524 -1.8286 -0.3296  1.0496
  587MOL0     H80959   7.775   8.083   8.609  0.2793 -0.9621 -0.8340
  587MOL0     H80960   7.557   8.093   8.736 -0.7652 -4.4335 -2.9366
  587MOL0     H80961   7.602   8.259   8.683 -0.9284  0.2154  2.0975
  587MOL0     H80962   7.448   8.259   8.503  0.9695 -0.8645 -1.3943
  587MOL0     H80963   7.418   8.096   8.508  1.5690  1.0302 -2.4800
  587MOL0     H80964   7.187   8.042   8.794 -1.2512 -0.1557  0.8362
  587MOL0     H80965   6.985   7.805   8.716  2.6906 -1.6533  1.5823
  587MOL0     H80966   6.871   7.921   8.780  0.8538  3.3190  0.9675
  587MOL0     H80967   7.030   7.899   8.854 -0.1770 -0.2572 -0.8138
  587MOL0     H80968   6.561   7.954   8.423  2.7440  1.3792  0.2479
  587MOL0     H80969   6.405   7.812   8.268  0.9761 -1.6329  1.3582
  587MOL0     H80970   6.466   7.544   8.265  0.6595 -1.6464 -0.8349
  587MOL0     H80971   6.330   7.598   8.176  1.6081  2.3803 -0.1389
  587MOL0     H80972   6.406   7.414   7.989  1.1062 -0.7282  0.3936
  587MOL0     H80973   6.505   7.354   8.134 -3.0000 -5.2766  2.9969
  587MOL0     H80974   6.215   7.381   8.132  0.4484  0.6972  2.8772
  587MOL0     H80975   6.328   7.317   8.260  2.0832  0.9249 -0.7011
  587MOL0     H80976   6.387   7.126   8.094 -0.9640 -0.7245  2.4344
  587MOL0     H80977   6.283   7.203   7.981 -0.8364 -0.9120  0.0690
  587MOL0     H80978   6.212   7.111   8.264  0.7882  1.3282  1.1449
  587MOL0     H80979   6.089   7.160   8.145 -0.2626 -0.8317  0.4214
  587MOL0     H80980   6.264   6.906   8.174  0.2319 -1.9886 -1.7939
  587MOL0     H80981   6.190   6.947   8.026  1.3323 -1.8487 -0.3443
  587MOL0     H80982   5.970   6.959   8.185  0.6170  0.3834 -2.4257
  587MOL0     H80983   6.065   6.867   8.299 -1.0797 -2.3204 -0.1927
  587MOL0     H80984   6.119   6.700   8.125 -0.2530  0.0748 -0.2705
  587MOL0     H80985   5.987   6.770   8.018 -0.8289 -0.6169 -0.3951
  587MOL0     H80986   6.732   7.695   8.042  5.2378 -2.2231  4.2650
  587MOL0     H80987   6.879   7.863   8.145  0.3074 -2.0003 -0.3712
  587MOL0     H80988   6.984   8.193   8.370  1.1135 -0.6637 -0.3246
  587MOL0     H80989   7.181   8.289   8.430 -1.8496 -1.6778 -2.4617
  587MOL0     H80990   7.143   8.006   7.034  0.9816 -0.4868  0.1242
  587MOL0     H80991   7.145   7.960   6.812 -0.8597  0.0678  1.8163
  587MOL0     H80992   7.280   8.215   6.315  2.3622  0.9696 -0.4025
  587MOL0     H80993   7.301   8.165   6.102 -3.0613 -0.6075  1.0906
  587MOL0     H80994   7.269   7.928   5.799 -1.5815  1.1432 -0.7028
  587MOL0     H80995   7.239   8.062   5.902  0.0778  1.4599 -3.2247
  587MOL0     H80996   7.523   7.977   5.831 -0.1871 -0.0247 -0.8578
  587MOL0     H80997   7.483   8.103   5.942  0.3051 -3.2367  1.6527
  587MOL0     H80998   7.436   8.096   5.650  2.3187 -1.4033  0.9403
  587MOL0     H80999   7.319   8.187   5.750 -0.8536  0.2811  0.9011
  587MOL0     H81000   7.624   8.243   5.777  0.8400  1.2947  0.7615
  587MOL0     H81001   7.487   8.343   5.824 -0.7677 -0.4517 -0.6966
  587MOL0     H81002   7.490   8.397   5.398  2.4608 -0.4466  0.1331
  587MOL0     H81003   7.363   7.754   6.196 -1.5199  0.9254 -2.0998
  587MOL0     H81004   7.471   7.797   6.516 -2.1063  1.0860  0.1988
  587MOL0     H81005   7.303   7.752   6.523  0.2483 -1.6964  0.3269
  587MOL0     H81006   7.423   7.673   6.412  0.8780  1.2593 -0.0271
  588MOL0     O81007   7.576   8.023   5.072  0.6006 -0.0443 -0.1094
  588MOL0     C81008   7.515   8.004   5.179 -1.0806  0.3655 -1.2384
  588MOL0     O81009   7.377   7.999   5.206 -0.8764 -0.0337  0.1311
  588MOL0     C81010   7.305   8.051   5.101 -0.4332  0.2503 -0.4335
  588MOL0     C81011   7.259   7.972   4.999  0.0282 -0.1187 -0.8559
  588MOL0     C81012   7.192   8.023   4.895 -0.3447  0.1493 -0.5028
  588MOL0     C81013   7.170   8.164   4.882 -1.1719  0.1761  0.8750
  588MOL0     O81014   7.102   8.235   4.785 -0.3938  0.4654 -0.4115
  588MOL0     C81015   6.981   8.182   4.731 -0.5964  0.9204 -0.3362
  588MOL0     C81016   6.993   8.145   4.590  0.0302 -0.0229  0.0874
  588MOL0     C81017   6.928   8.243   4.490  0.7113  0.3345  0.5765
  588MOL0     C81018   6.999   8.376   4.505  0.4148 -1.0111 -0.7554
  588MOL0     C81019   6.970   8.469   4.390  0.0652  0.1617  0.4216
  588MOL0     C81020   6.830   8.528   4.370  0.2286  0.8588  0.0574
  588MOL0     C81021   6.827   8.671   4.298  0.0140  2.0687  0.0238
  588MOL0     C81022   6.871   8.638   4.161  0.7443  0.0487  1.2664
  588MOL0     N81023   6.853   8.760   4.078  0.6014 -0.4214  0.2657
  588MOL0     C81024   6.733   8.820   4.029 -0.3308  0.0900 -0.1331
  588MOL0     C81025   6.766   8.915   3.941  0.5488  0.7639  0.0742
  588MOL0     C81026   6.668   8.990   3.851 -0.7259 -0.3728  1.0433
  588MOL0     C81027   6.529   9.020   3.912 -0.5590 -0.2179  0.1156
  588MOL0     C81028   6.454   9.104   3.807  0.9344 -0.4693  0.6451
  588MOL0     C81029   6.448   9.045   3.658  0.2049  0.5007  0.1405
  588MOL0     O81030   6.334   9.099   3.587 -0.4672  0.4570  0.3058
  588MOL0     C81031   6.344   9.118   3.451 -0.1334 -0.4912 -1.8695
  588MOL0     C81032   6.248   9.212   3.401 -0.6239 -0.2772 -0.2548
  588MOL0     C81033   6.234   9.225   3.267 -0.1552 -0.2531 -1.0075
  588MOL0     C81034   6.135   9.334   3.220  0.1868 -0.9211  0.1915
  588MOL0     C81035   6.318   9.163   3.187 -0.0516  0.7076 -0.0382
  588MOL0     C81036   6.299   9.167   3.038  0.8336 -0.2110 -0.2248
  588MOL0     O81037   6.168   9.182   2.980  0.2836 -0.4241  0.2632
  588MOL0     C81038   6.165   9.152   2.840  0.1730  0.0617 -1.0339
  588MOL0     C81039   6.165   9.263   2.754 -0.0214 -0.0264  0.3762
  588MOL0     C81040   6.174   9.241   2.614 -0.5655  0.4954 -1.0090
  588MOL0     C81041   6.170   9.113   2.560 -0.0774 -0.5710 -0.1665
  588MOL0     O81042   6.176   9.090   2.425  0.6964  0.0891  0.2875
  588MOL0     C81043   6.051   9.051   2.364  0.4870 -0.1611 -0.2376
  588MOL0     C81044   6.089   8.962   2.243  0.5584  0.7164 -0.0219
  588MOL0     C81045   6.101   8.813   2.269 -0.3635 -0.3439 -0.2809
  588MOL0     C81046   5.975   8.741   2.310 -0.0166  0.2802 -0.1416
  588MOL0     C81047   5.988   8.591   2.308 -0.8126  0.3844 -0.1324
  588MOL0     C81048   5.906   8.543   2.424  1.0694  0.6039  0.6335
  588MOL0     C81049   5.889   8.389   2.428  1.0279  0.6399  0.1890
  588MOL0     C81050   5.829   8.348   2.557  1.1016 -0.5084  0.5092
  588MOL0    Cl81051   5.948   8.376   2.694  0.3826  0.3126  0.7711
  588MOL0     C81052   6.164   9.010   2.647 -0.4392  0.4079  0.5382
  588MOL0     C81053   6.161   9.021   2.783 -0.8352  0.2829 -0.4401
  588MOL0     O81054   6.402   9.149   2.973  1.4626 -0.9883 -0.2827
  588MOL0     C81055   6.418   9.075   3.227 -0.2677 -0.6858 -0.1349
  588MOL0     C81056   6.428   9.049   3.364  0.3154 -0.3031  0.1919
  588MOL0     N81057   6.899   8.924   3.935  0.5176 -0.2162  0.3274
  588MOL0     N81058   6.947   8.838   4.015  0.2145  0.4934 -0.1393
  588MOL0     C81059   7.228   8.245   4.971  0.0592  0.4025 -0.8405
  588MOL0     C81060   7.293   8.192   5.085  1.1983  0.4266 -0.4438
  588MOL0     C81061   7.594   7.988   5.300 -0.3342 -0.2474  0.3610
  588MOL0     C81062   7.554   7.888   5.390 -0.5240 -0.6923  0.9425
  588MOL0     C81063   7.608   7.872   5.518  1.0435 -0.5623 -0.6786
  588MOL0     C81064   7.695   7.974   5.572 -0.5979  1.0278 -0.3606
  588MOL0     O81065   7.760   7.952   5.695 -0.3009 -0.5849  0.5801
  588MOL0     C81066   7.890   8.003   5.702  0.5471  0.2635 -1.0762
  588MOL0     C81067   7.937   7.974   5.840  0.3946  0.0445  0.1394
  588MOL0     C81068   7.830   8.016   5.944 -0.5024 -0.6712  0.3161
  588MOL0     C81069   7.884   8.026   6.085 -0.7963 -0.4559 -0.9792
  588MOL0     C81070   7.950   8.159   6.121 -0.1995 -0.2740  0.2597
  588MOL0     C81071   8.000   8.264   6.161 -0.6545 -0.2762  0.6507
  588MOL0     C81072   7.729   8.083   5.483 -0.5940  0.1449  0.3035
  588MOL0     C81073   7.687   8.088   5.346 -1.2556  0.0800  0.2157
  588MOL0     C81074   7.738   8.200   5.256 -0.5341  1.1605 -0.2620
  588MOL0     H81075   7.283   7.867   4.988  2.6344  0.1337  1.3880
  588MOL0     H81076   7.172   7.956   4.813  0.5069 -1.9296  0.8899
  588MOL0     H81077   6.896   8.246   4.755 -1.1683  0.3670 -0.8669
  588MOL0     H81078   6.967   8.087   4.784  0.1693 -0.1910 -2.0325
  588MOL0     H81079   7.093   8.114   4.561  2.1201  3.1790  3.0462
  588MOL0     H81080   6.935   8.052   4.582 -0.3351  0.2917 -1.0122
  588MOL0     H81081   6.940   8.206   4.388  0.1076  2.1735 -0.2040
  588MOL0     H81082   6.819   8.253   4.492  0.5763  0.1757 -2.1297
  588MOL0     H81083   6.962   8.422   4.598 -1.0858 -0.0963 -1.7596
  588MOL0     H81084   7.107   8.365   4.512  0.6106  1.1436  0.8348
  588MOL0     H81085   7.018   8.429   4.301  3.2522  0.5764  1.8086
  588MOL0     H81086   7.024   8.564   4.405  2.0335 -0.9603  0.8180
  588MOL0     H81087   6.769   8.456   4.315  0.7575 -1.5259  2.3779
  588MOL0     H81088   6.795   8.538   4.473  2.0119 -2.4440  1.1282
  588MOL0     H81089   6.891   8.745   4.346  0.0589  1.8570  0.2894
  588MOL0     H81090   6.720   8.692   4.293 -0.8261 -1.5271  0.3354
  588MOL0     H81091   6.975   8.604   4.157  1.2188  1.0789  3.4996
  588MOL0     H81092   6.800   8.575   4.106 -0.0880  2.3654 -0.4611
  588MOL0     H81093   6.632   8.794   4.061 -0.7842  0.3355 -1.3349
  588MOL0     H81094   6.660   8.935   3.757  1.6983  1.6364 -0.4829
  588MOL0     H81095   6.713   9.084   3.816  1.3224 -1.6703  0.0049
  588MOL0     H81096   6.481   8.927   3.940 -0.3624 -0.4072 -0.1708
  588MOL0     H81097   6.539   9.091   3.995  1.2745  0.4014 -0.5744
  588MOL0     H81098   6.352   9.128   3.839  1.0126  1.8162 -0.6144
  588MOL0     H81099   6.490   9.208   3.806  1.6335 -0.6782 -1.6994
  588MOL0     H81100   6.543   9.064   3.607  0.8890 -1.6990  0.5051
  588MOL0     H81101   6.448   8.936   3.667  0.7398  0.6713  3.3144
  588MOL0     H81102   6.190   9.268   3.474  0.7949  0.5771  0.2491
  588MOL0     H81103   6.036   9.287   3.223 -0.4325  0.3509  3.3433
  588MOL0     H81104   6.151   9.376   3.120 -0.7273  1.5658  1.0151
  588MOL0     H81105   6.120   9.414   3.293  2.8275 -1.1567  1.0893
  588MOL0     H81106   6.165   9.366   2.791  1.3544 -0.0742  0.5830
  588MOL0     H81107   6.190   9.326   2.548 -2.2818  3.0354  1.6088
  588MOL0     H81108   5.980   9.004   2.432 -2.3681 -0.0969 -2.9449
  588MOL0     H81109   6.004   9.138   2.317  1.1856  0.7334  0.6567
  588MOL0     H81110   6.005   8.969   2.173  0.0131  1.7985  0.7107
  588MOL0     H81111   6.180   8.999   2.196  1.7260 -0.3125  1.3180
  588MOL0     H81112   6.183   8.800   2.340  2.7804  4.8417 -2.3253
  588MOL0     H81113   6.134   8.776   2.171  0.6494 -0.6462  0.1626
  588MOL0     H81114   5.894   8.773   2.244 -1.4168  0.1099  1.4132
  588MOL0     H81115   5.929   8.770   2.405 -4.0526 -2.7577 -0.9148
  588MOL0     H81116   5.956   8.545   2.214 -0.6450  1.6692 -0.8493
  588MOL0     H81117   6.081   8.541   2.338 -2.9510 -2.1479  2.8722
  588MOL0     H81118   5.804   8.580   2.418  1.1577  0.8319 -4.5759
  588MOL0     H81119   5.959   8.573   2.514 -0.0276 -0.6574  1.7424
  588MOL0     H81120   5.979   8.330   2.408  0.7740  0.4881 -0.5488
  588MOL0     H81121   5.819   8.353   2.351  0.4658 -0.1325  1.0408
  588MOL0     H81122   5.788   8.247   2.555  1.1002 -0.4974 -0.3488
  588MOL0     H81123   5.739   8.404   2.582  0.8022 -1.3491  1.3567
  588MOL0     H81124   6.144   8.914   2.598 -0.2806  0.9541 -0.6389
  588MOL0     H81125   6.147   8.932   2.843  0.7038 -0.2366 -0.8075
  588MOL0     H81126   6.496   9.034   3.163  0.8907  1.2571 -0.0300
  588MOL0     H81127   6.484   8.968   3.410  1.7493  2.7467  4.4472
  588MOL0     H81128   7.218   8.351   4.950  0.1465  0.4867 -0.4752
  588MOL0     H81129   7.335   8.266   5.152 -0.2146  0.2301  0.7058
  588MOL0     H81130   7.487   7.812   5.352 -1.4216  0.3987  0.2831
  588MOL0     H81131   7.591   7.784   5.579  0.2401 -0.6593 -1.0343
  588MOL0     H81132   7.948   7.942   5.632  1.8232 -1.6673  1.4836
  588MOL0     H81133   7.893   8.110   5.680 -0.5666  0.5233 -0.1118
  588MOL0     H81134   8.034   8.019   5.864 -0.7060  0.8490  3.8448
  588MOL0     H81135   7.945   7.866   5.852  0.9508 -0.0836 -1.2859
  588MOL0     H81136   7.800   8.115   5.908  1.8453 -0.2337 -0.6033
  588MOL0     H81137   7.747   7.945   5.945 -1.2321  0.1466 -0.4141
  588MOL0     H81138   7.951   7.943   6.109 -1.3757 -0.1773  1.9721
  588MOL0     H81139   7.803   8.017   6.158  1.0776 -1.1089  1.1390
  588MOL0     H81140   8.037   8.356   6.201  0.1004  0.1478 -0.9403
  588MOL0     H81141   7.796   8.166   5.503 -0.1993 -0.5677  2.1214
  588MOL0     H81142   7.657   8.255   5.206 -2.4620 -0.2747  1.1227
  588MOL0     H81143   7.793   8.273   5.315  0.5660  0.0712  0.0969
  588MOL0     H81144   7.812   8.169   5.181  1.3207  1.4788  1.3697
  589MOL0     O81145   1.909   3.023   0.317  0.1975  0.0197 -0.1898
  589MOL0     C81146   1.909   3.132   0.370 -0.4370  0.3905 -0.1106
  589MOL0     O81147   1.817   3.232   0.343 -0.5220  0.6758  0.3065
  589MOL0     C81148   1.740   3.235   0.225  0.1736  0.1725  0.1216
  589MOL0     C81149   1.627   3.312   0.229  0.1713  0.0781  0.7001
  589MOL0     C81150   1.541   3.317   0.120 -0.1256  0.0636 -0.3553
  589MOL0     C81151   1.575   3.252  -0.001 -0.1814  0.0538  0.0207
  589MOL0     O81152   1.508   3.261  -0.123  0.6378  0.3489 -0.0478
  589MOL0     C81153   1.431   3.155  -0.138 -0.5515  0.4573 -0.0955
  589MOL0     C81154   1.367   3.163  -0.279 -1.9639 -0.4584 -0.2261
  589MOL0     C81155   1.298   3.035  -0.319 -0.7806 -0.0911  0.8308
  589MOL0     C81156   1.392   2.907  -0.313  0.3899 -0.2571  0.5193
  589MOL0     C81157   1.340   2.781  -0.395  0.4096 -0.6216  0.1266
  589MOL0     C81158   1.427   2.668  -0.345 -0.0025  1.0949  0.2536
  589MOL0     C81159   1.404   2.545  -0.444 -1.1786 -0.0136  0.0772
  589MOL0     C81160   1.451   2.413  -0.388 -1.0543 -0.4045 -0.3914
  589MOL0     N81161   1.419   2.304  -0.487 -0.3770  0.1253  0.0104
  589MOL0     C81162   1.517   2.246  -0.569 -0.0227  1.1813  0.3767
  589MOL0     C81163   1.451   2.186  -0.672  1.2113 -0.4039  0.7525
  589MOL0     C81164   1.492   2.107  -0.786  0.3393  0.7031 -0.2585
  589MOL0     C81165   1.471   2.142  -0.925  0.1893 -0.3467 -0.7911
  589MOL0     C81166   1.480   2.288  -0.961  0.4523 -0.3214  0.0893
  589MOL0     C81167   1.611   2.331  -0.978 -1.1473 -0.6858  0.0131
  589MOL0     O81168   1.662   2.366  -0.846 -0.2898 -0.0071  0.4923
  589MOL0     C81169   1.646   2.489  -0.804  0.4599 -0.5478  0.2809
  589MOL0     C81170   1.549   2.591  -0.850 -0.1940 -0.4342 -0.7936
  589MOL0     C81171   1.553   2.712  -0.788 -0.4418  0.2511 -0.6844
  589MOL0     C81172   1.457   2.825  -0.840 -0.1381  0.6444 -0.3573
  589MOL0     C81173   1.644   2.738  -0.679  1.0859 -0.0708  0.4338
  589MOL0     C81174   1.660   2.877  -0.629 -0.3337  0.1485  0.1770
  589MOL0     O81175   1.698   2.893  -0.491  0.1303  0.6415 -0.4146
  589MOL0     C81176   1.778   2.999  -0.456  0.6086 -0.2890  0.1370
  589MOL0     C81177   1.719   3.123  -0.447 -0.6796 -0.1254  0.5157
  589MOL0     C81178   1.796   3.239  -0.407 -0.6693  1.2996 -0.0158
  589MOL0     C81179   1.920   3.220  -0.351 -0.4611  0.1428  1.0820
  589MOL0     O81180   1.988   3.324  -0.292  0.1494 -0.2781 -0.0786
  589MOL0     C81181   2.025   3.436  -0.375  0.2898  0.4166 -0.6651
  589MOL0     C81182   2.112   3.541  -0.305 -0.2476 -0.5564  0.0461
  589MOL0     C81183   2.106   3.681  -0.369 -0.2645  0.0499 -0.3463
  589MOL0     C81184   2.196   3.705  -0.496 -0.1203 -0.2961  0.1988
  589MOL0     C81185   2.194   3.845  -0.549  0.0515 -0.7627 -0.2465
  589MOL0     C81186   2.073   3.883  -0.624 -0.2590  0.0420  0.2826
  589MOL0     C81187   2.045   3.787  -0.745  0.1793  0.4650 -1.0271
  589MOL0     C81188   1.950   3.840  -0.846  0.0517 -1.1757 -0.2191
  589MOL0    Cl81189   1.912   3.707  -0.957  0.3593  0.1284  0.3545
  589MOL0     C81190   1.983   3.088  -0.352  0.2295  0.2027  0.2340
  589MOL0     C81191   1.909   2.974  -0.407 -0.1813 -0.5690 -0.5142
  589MOL0     O81192   1.672   2.966  -0.715 -0.6953  0.1112  0.6836
  589MOL0     C81193   1.726   2.641  -0.628 -0.4912 -1.5735 -0.0210
  589MOL0     C81194   1.728   2.522  -0.695  0.4113 -0.5699 -0.8587
  589MOL0     N81195   1.312   2.212  -0.657 -0.2774 -0.1118 -0.5625
  589MOL0     N81196   1.298   2.289  -0.548 -0.2047  0.6698 -0.2767
  589MOL0     C81197   1.701   3.187  -0.012 -0.8176 -0.8660  0.2389
  589MOL0     C81198   1.772   3.172   0.103 -0.7416  0.7908 -0.8315
  589MOL0     C81199   2.022   3.165   0.462  0.8244  0.5258 -1.2306
  589MOL0     C81200   2.117   3.055   0.496  0.2466 -0.5690 -0.0291
  589MOL0     C81201   2.233   3.078   0.575 -0.2370  0.1043 -0.0678
  589MOL0     C81202   2.250   3.201   0.630  0.8572 -0.5231  1.4261
  589MOL0     O81203   2.337   3.236   0.733  0.1875  0.1739  0.3915
  589MOL0     C81204   2.445   3.145   0.770  0.0833  0.2542 -0.8140
  589MOL0     C81205   2.570   3.166   0.686 -0.2465 -0.9798 -0.4300
  589MOL0     C81206   2.614   3.308   0.668  0.2726 -0.6054 -0.2358
  589MOL0     C81207   2.715   3.342   0.560  0.6027 -0.1131 -0.3510
  589MOL0     C81208   2.737   3.488   0.552  0.1690  0.4319 -0.1419
  589MOL0     C81209   2.787   3.601   0.551  0.1316 -0.6243 -0.9008
  589MOL0     C81210   2.174   3.303   0.584  0.9869 -0.6228  0.7292
  589MOL0     C81211   2.054   3.292   0.507  0.3399 -1.1660  0.6952
  589MOL0     C81212   1.977   3.410   0.470 -0.2983 -0.0927  0.3105
  589MOL0     H81213   1.600   3.368   0.318 -0.8091  2.4792 -0.9686
  589MOL0     H81214   1.449   3.374   0.120 -2.2421 -3.0992 -0.9388
  589MOL0     H81215   1.357   3.140  -0.059  2.5261 -1.6386  2.6666
  589MOL0     H81216   1.497   3.067  -0.143 -0.9351  0.2090 -1.1509
  589MOL0     H81217   1.303   3.251  -0.293 -1.8193 -0.1410  0.9873
  589MOL0     H81218   1.454   3.172  -0.344 -0.3389 -3.7071  1.3179
  589MOL0     H81219   1.208   3.009  -0.261 -1.1577  1.1979  0.8415
  589MOL0     H81220   1.257   3.043  -0.420  0.2312 -1.6328  0.2615
  589MOL0     H81221   1.487   2.929  -0.363  0.1086  2.7842  1.1486
  589MOL0     H81222   1.406   2.870  -0.211 -2.6701 -1.2363  0.6768
  589MOL0     H81223   1.350   2.785  -0.503  0.5865  2.3674  0.1753
  589MOL0     H81224   1.235   2.761  -0.370 -0.7009  3.8119 -0.2312
  589MOL0     H81225   1.531   2.697  -0.333  0.6937 -1.0312 -0.1922
  589MOL0     H81226   1.397   2.642  -0.243 -0.0527  2.0035  0.4773
  589MOL0     H81227   1.464   2.557  -0.535 -0.2491 -1.5126  0.4675
  589MOL0     H81228   1.300   2.539  -0.477 -0.8224  3.5645 -2.3873
  589MOL0     H81229   1.560   2.408  -0.377 -0.7738 -0.5072 -2.8145
  589MOL0     H81230   1.406   2.395  -0.289  2.4685  2.5244  1.9947
  589MOL0     H81231   1.624   2.256  -0.559  0.4578 -2.4987 -0.0107
  589MOL0     H81232   1.454   2.005  -0.778 -2.8513  1.6681 -1.3902
  589MOL0     H81233   1.601   2.100  -0.790  0.2537 -0.9864 -3.6118
  589MOL0     H81234   1.536   2.083  -0.990  2.1959  0.8431  0.0166
  589MOL0     H81235   1.367   2.112  -0.941  0.7768 -3.2825  0.3229
  589MOL0     H81236   1.432   2.307  -1.058  3.8656  0.7462 -1.5765
  589MOL0     H81237   1.420   2.341  -0.887 -0.7276 -2.9692  1.1503
  589MOL0     H81238   1.677   2.260  -1.028  2.5490  1.4115  1.5525
  589MOL0     H81239   1.628   2.421  -1.038  1.2215 -0.9809  0.1601
  589MOL0     H81240   1.470   2.571  -0.922 -1.8657 -2.5551  1.4436
  589MOL0     H81241   1.363   2.790  -0.882 -0.8665  1.2825  0.6922
  589MOL0     H81242   1.506   2.878  -0.922 -0.0897 -1.6226 -1.8884
  589MOL0     H81243   1.421   2.885  -0.756 -1.4472 -0.5180 -0.0470
  589MOL0     H81244   1.613   3.137  -0.467 -0.2591 -0.6958 -2.6965
  589MOL0     H81245   1.761   3.341  -0.396  0.5195  1.6350  0.9200
  589MOL0     H81246   2.088   3.407  -0.459  0.0200 -1.0143 -0.4024
  589MOL0     H81247   1.945   3.494  -0.422  2.8234  3.2162 -1.8741
  589MOL0     H81248   2.083   3.542  -0.200  3.8656 -2.3506  1.3932
  589MOL0     H81249   2.216   3.508  -0.301 -0.4719 -1.5051 -1.3538
  589MOL0     H81250   2.151   3.736  -0.285  0.1615  1.8954 -1.7237
  589MOL0     H81251   2.003   3.717  -0.378  0.4910  2.4287 -0.2677
  589MOL0     H81252   2.162   3.641  -0.578  0.3188  2.8737 -2.7192
  589MOL0     H81253   2.296   3.671  -0.469  0.3492 -1.7748 -2.9378
  589MOL0     H81254   2.212   3.909  -0.462 -0.2212 -0.4295 -0.4291
  589MOL0     H81255   2.281   3.860  -0.612 -0.3729  0.3895 -0.5770
  589MOL0     H81256   2.085   3.986  -0.657  1.5846  0.2297  1.3878
  589MOL0     H81257   1.989   3.878  -0.554 -1.0148 -2.7831 -0.6925
  589MOL0     H81258   2.002   3.697  -0.700  1.7277 -0.4377 -1.2964
  589MOL0     H81259   2.141   3.774  -0.795 -0.3595 -2.9318 -1.4348
  589MOL0     H81260   1.989   3.929  -0.897  0.7417 -2.1330 -1.4293
  589MOL0     H81261   1.856   3.866  -0.796  0.3954 -1.9649  0.8945
  589MOL0     H81262   2.082   3.067  -0.311 -0.2022 -1.8749  0.3509
  589MOL0     H81263   1.942   2.871  -0.409  0.3985 -0.4020  0.3195
  589MOL0     H81264   1.803   2.655  -0.552 -2.7934 -4.7411  3.2516
  589MOL0     H81265   1.803   2.454  -0.656  1.4215  1.5930  1.2578
  589MOL0     H81266   1.728   3.126  -0.098  0.7893 -0.6014  0.5299
  589MOL0     H81267   1.856   3.104   0.097 -0.0853  1.4786  0.1960
  589MOL0     H81268   2.095   2.959   0.449 -0.4370  0.7631 -2.6054
  589MOL0     H81269   2.292   2.995   0.611 -2.7302 -0.6373  2.7494
  589MOL0     H81270   2.464   3.156   0.878 -3.7836  0.0091  0.0467
  589MOL0     H81271   2.417   3.040   0.773 -1.0653  0.1352 -6.0673
  589MOL0     H81272   2.541   3.124   0.589 -0.5986 -1.2639 -0.2028
  589MOL0     H81273   2.658   3.123   0.735  1.4398  4.3469  1.9943
  589MOL0     H81274   2.531   3.372   0.640  1.2689  1.5333  1.4070
  589MOL0     H81275   2.655   3.342   0.764  4.3841 -1.1169 -1.6166
  589MOL0     H81276   2.678   3.308   0.463 -2.1678  0.4862  0.4034
  589MOL0     H81277   2.809   3.294   0.587 -0.0725 -0.0455  2.3890
  589MOL0     H81278   2.850   3.686   0.535  3.6609 -2.2945  2.5150
  589MOL0     H81279   2.179   3.401   0.630 -4.2769  1.2350 -1.8197
  589MOL0     H81280   1.882   3.409   0.524 -0.7278  0.1459 -0.4102
  589MOL0     H81281   2.035   3.498   0.499  1.3607 -1.0994  0.1536
  589MOL0     H81282   1.961   3.417   0.362  0.7162 -1.1792  0.0685
  590MOL0     O81283   5.413   2.644   7.850  0.3300  0.3746 -0.6468
  590MOL0     C81284   5.308   2.652   7.911  0.5822 -0.0683 -0.0940
  590MOL0     O81285   5.183   2.700   7.861 -0.0241  0.2878  0.1141
  590MOL0     C81286   5.170   2.752   7.744  0.4466  0.4130 -0.1931
  590MOL0     C81287   5.048   2.732   7.677 -0.1922 -0.1596  0.4220
  590MOL0     C81288   5.036   2.779   7.545  0.0385 -0.5093  0.5574
  590MOL0     C81289   5.140   2.850   7.483  1.4069 -0.6324  0.6093
  590MOL0     O81290   5.131   2.909   7.360  0.2705 -0.7398  0.3350
  590MOL0     C81291   5.192   2.845   7.249  0.1940  0.5925 -0.8016
  590MOL0     C81292   5.087   2.818   7.138  0.1357 -0.5219 -0.3864
  590MOL0     C81293   5.009   2.937   7.092 -0.5279 -0.5659 -0.3340
  590MOL0     C81294   5.103   3.033   7.008 -0.0763  0.1243  1.5722
  590MOL0     C81295   5.028   3.148   6.931 -1.0072  0.2610  0.5038
  590MOL0     C81296   4.920   3.111   6.826  1.9746 -0.1711 -0.0589
  590MOL0     C81297   4.962   3.013   6.719  0.2199 -0.5609 -0.2656
  590MOL0     C81298   4.859   2.993   6.616 -0.6728  0.1239  0.6377
  590MOL0     N81299   4.902   2.889   6.523 -0.0009  0.4577  0.2059
  590MOL0     C81300   5.010   2.888   6.439 -0.0097  1.1096  0.9542
  590MOL0     C81301   5.006   2.770   6.363 -0.3938  0.1402 -0.6737
  590MOL0     C81302   5.094   2.732   6.242  0.5027 -0.1468  0.5060
  590MOL0     C81303   5.031   2.778   6.107 -0.1014  0.4388 -0.5758
  590MOL0     C81304   5.137   2.765   5.992 -0.4843 -0.3149 -0.6203
  590MOL0     C81305   5.177   2.622   5.972  0.9708  0.0883 -0.1575
  590MOL0     O81306   5.216   2.606   5.837 -0.3135 -0.4061  0.0013
  590MOL0     C81307   5.247   2.477   5.808 -0.8222  0.2409  0.1010
  590MOL0     C81308   5.324   2.462   5.692 -0.0602  0.1234  0.5647
  590MOL0     C81309   5.378   2.339   5.649  0.2500  0.0373  0.3858
  590MOL0     C81310   5.468   2.343   5.532 -0.0714  0.0980  0.5091
  590MOL0     C81311   5.363   2.227   5.732  0.4638 -0.3711  0.3436
  590MOL0     C81312   5.412   2.088   5.700  0.5167 -0.2552  0.6673
  590MOL0     O81313   5.392   2.043   5.566 -0.3483  0.1571  0.2553
  590MOL0     C81314   5.481   1.950   5.514 -1.1007  0.8234 -0.3102
  590MOL0     C81315   5.441   1.893   5.390 -0.6278  1.2709  0.0995
  590MOL0     C81316   5.507   1.779   5.330  0.6675 -1.0795 -0.1738
  590MOL0     C81317   5.620   1.732   5.388  0.0399  0.3746  0.3040
  590MOL0     O81318   5.662   1.604   5.351  0.1474 -0.1898  0.0898
  590MOL0     C81319   5.605   1.489   5.414 -1.2646 -0.7877  0.2793
  590MOL0     C81320   5.562   1.398   5.299 -0.3597  0.4599 -0.2101
  590MOL0     C81321   5.675   1.341   5.200  0.1024  0.9332 -0.0498
  590MOL0     C81322   5.754   1.220   5.258  0.1788  0.1286 -0.3049
  590MOL0     C81323   5.890   1.212   5.183  0.1763 -0.3512  0.3231
  590MOL0     C81324   5.982   1.097   5.231 -0.8312 -0.5942 -0.2641
  590MOL0     C81325   5.931   0.962   5.205  0.5137 -0.6689  0.2812
  590MOL0     C81326   6.032   0.857   5.244  0.3677 -0.2362 -0.3913
  590MOL0    Cl81327   6.053   0.864   5.424 -0.3348 -0.4202  0.3945
  590MOL0     C81328   5.669   1.797   5.509  0.0512 -0.1422 -0.4897
  590MOL0     C81329   5.598   1.900   5.570 -0.4662  0.7869 -0.2091
  590MOL0     O81330   5.467   2.027   5.788  0.6842  0.1322 -0.2764
  590MOL0     C81331   5.293   2.237   5.846  0.4720  1.5284  0.2315
  590MOL0     C81332   5.233   2.352   5.880 -0.7896 -0.8997 -0.8741
  590MOL0     N81333   4.885   2.712   6.398 -0.5825  0.2969 -0.0160
  590MOL0     N81334   4.827   2.782   6.491 -0.7954 -0.1484 -0.3466
  590MOL0     C81335   5.252   2.877   7.555  0.2657 -0.1306 -0.0714
  590MOL0     C81336   5.267   2.830   7.685 -0.5163 -0.5328 -0.4066
  590MOL0     C81337   5.299   2.613   8.060  0.0972 -0.1399  0.7639
  590MOL0     C81338   5.171   2.623   8.116 -0.7787  0.1030  0.1219
  590MOL0     C81339   5.133   2.560   8.242  0.4656 -0.6393  0.7150
  590MOL0     C81340   5.231   2.503   8.311 -0.2189 -0.6572 -1.4725
  590MOL0     O81341   5.191   2.449   8.433 -0.4485  0.1953 -0.3165
  590MOL0     C81342   5.282   2.378   8.514  1.2090  0.5914 -0.5084
  590MOL0     C81343   5.203   2.281   8.604  0.4097  0.1074 -0.0096
  590MOL0     C81344   5.277   2.179   8.681 -0.2166 -0.5928 -0.6307
  590MOL0     C81345   5.345   2.078   8.589  0.5267 -0.1336  1.0784
  590MOL0     C81346   5.436   1.999   8.668 -0.5438 -0.5089 -0.1911
  590MOL0     C81347   5.518   1.959   8.750 -0.3202 -0.3123 -0.1060
  590MOL0     C81348   5.366   2.515   8.267 -0.4139 -0.6309 -0.0771
  590MOL0     C81349   5.399   2.573   8.145 -0.5428  0.8418  0.2170
  590MOL0     C81350   5.550   2.566   8.110 -0.5948 -0.0125  0.0356
  590MOL0     H81351   4.974   2.670   7.726  0.6226 -0.2575  1.5871
  590MOL0     H81352   4.954   2.753   7.479  1.1457  1.0314 -1.5582
  590MOL0     H81353   5.240   2.750   7.272  0.7180  0.9573 -0.3705
  590MOL0     H81354   5.266   2.912   7.204 -1.4916  3.5739  0.5968
  590MOL0     H81355   5.148   2.779   7.056  1.1188  0.8684 -0.3602
  590MOL0     H81356   5.018   2.745   7.181  0.5487 -0.0680  1.1127
  590MOL0     H81357   4.926   2.898   7.033  0.7176 -0.7798 -2.0394
  590MOL0     H81358   4.980   3.001   7.176  0.9739 -0.2641 -0.0184
  590MOL0     H81359   5.183   3.077   7.069  0.7989  0.9678 -0.1125
  590MOL0     H81360   5.157   2.979   6.929 -2.1578 -1.4812  1.1636
  590MOL0     H81361   5.102   3.203   6.873 -0.0920  1.2356  2.5144
  590MOL0     H81362   5.000   3.229   6.999  2.0748  0.2978  1.8756
  590MOL0     H81363   4.833   3.083   6.885 -0.8677 -0.4879 -4.0013
  590MOL0     H81364   4.899   3.201   6.767 -1.5693  1.0216  2.6729
  590MOL0     H81365   4.999   2.925   6.772  1.2077  0.1291  0.2225
  590MOL0     H81366   5.053   3.057   6.677  0.6039 -1.2542 -0.1664
  590MOL0     H81367   4.760   2.959   6.649 -2.5540  1.1860 -3.2884
  590MOL0     H81368   4.844   3.079   6.550  0.2354 -0.7191 -0.7259
  590MOL0     H81369   5.082   2.967   6.418  0.5826 -0.2115 -2.6730
  590MOL0     H81370   5.123   2.627   6.246  0.7690 -0.0678  0.7003
  590MOL0     H81371   5.187   2.787   6.262 -0.2249  0.5336  2.1985
  590MOL0     H81372   4.945   2.716   6.078  0.6435  0.7587 -3.8414
  590MOL0     H81373   4.998   2.882   6.117  0.9608  0.7601 -0.2465
  590MOL0     H81374   5.100   2.804   5.897 -0.6796 -3.9523 -2.1981
  590MOL0     H81375   5.224   2.820   6.030 -2.9407  1.2442  3.4887
  590MOL0     H81376   5.252   2.585   6.042  1.0378  3.5280  1.7998
  590MOL0     H81377   5.093   2.552   5.985  0.9998  0.2013  0.6816
  590MOL0     H81378   5.339   2.555   5.638 -0.0584  1.6791  3.0798
  590MOL0     H81379   5.428   2.422   5.468  1.3341  1.3503  1.0924
  590MOL0     H81380   5.476   2.246   5.482 -0.9890  0.2825 -0.0120
  590MOL0     H81381   5.572   2.371   5.554  0.5003 -1.3335 -0.2044
  590MOL0     H81382   5.344   1.922   5.349 -1.0834 -0.0391  0.2178
  590MOL0     H81383   5.477   1.721   5.243 -0.7355 -4.1406  2.1654
  590MOL0     H81384   5.671   1.432   5.481 -2.9669 -0.3984  2.4255
  590MOL0     H81385   5.524   1.523   5.479  0.2193 -0.0234  1.8418
  590MOL0     H81386   5.514   1.311   5.344 -2.0381  2.4312  2.0828
  590MOL0     H81387   5.484   1.451   5.243 -3.3391 -4.7979 -1.7891
  590MOL0     H81388   5.734   1.423   5.159  0.9243  0.3400 -0.0700
  590MOL0     H81389   5.606   1.309   5.120 -2.1337  0.6953  1.8726
  590MOL0     H81390   5.703   1.123   5.259  2.3708 -1.2666 -4.2756
  590MOL0     H81391   5.783   1.237   5.362  1.0587 -1.3082 -0.2909
  590MOL0     H81392   5.877   1.215   5.075  2.0685  3.0003  0.0455
  590MOL0     H81393   5.937   1.309   5.202 -1.5856  0.4264  0.9066
  590MOL0     H81394   5.993   1.115   5.338 -0.1197  1.7080 -0.6696
  590MOL0     H81395   6.081   1.101   5.184 -0.2716 -2.1044  0.6920
  590MOL0     H81396   5.906   0.944   5.100  0.6441 -2.4398  0.5167
  590MOL0     H81397   5.841   0.947   5.265  0.4164  0.8887  0.5505
  590MOL0     H81398   6.130   0.877   5.199 -0.8099  0.9712 -2.6586
  590MOL0     H81399   5.986   0.760   5.222  1.9597 -1.7266  2.3740
  590MOL0     H81400   5.746   1.755   5.573 -1.2065  1.1105  1.9918
  590MOL0     H81401   5.636   1.928   5.668  3.1617  2.6697 -1.9646
  590MOL0     H81402   5.270   2.158   5.917  0.6048 -0.7633 -2.1176
  590MOL0     H81403   5.182   2.361   5.975 -0.8700 -1.6259 -0.8443
  590MOL0     H81404   5.339   2.929   7.517  0.1451 -0.4439 -0.7937
  590MOL0     H81405   5.359   2.860   7.734 -1.2772  2.1781 -0.4913
  590MOL0     H81406   5.085   2.660   8.060 -1.7135 -0.8983  0.8593
  590MOL0     H81407   5.028   2.565   8.272 -0.0761 -3.9724 -0.1894
  590MOL0     H81408   5.343   2.325   8.439 -2.3745 -1.9008 -1.9552
  590MOL0     H81409   5.334   2.444   8.584  0.1721  1.8757 -0.9087
  590MOL0     H81410   5.141   2.223   8.536 -0.8655  1.1159  0.2659
  590MOL0     H81411   5.140   2.338   8.673 -0.2615 -0.5956 -0.0361
  590MOL0     H81412   5.346   2.231   8.749 -0.2133  2.5820 -2.8174
  590MOL0     H81413   5.199   2.131   8.740  2.0033  0.6959  3.7955
  590MOL0     H81414   5.406   2.123   8.510 -0.5302  2.0521  1.4228
  590MOL0     H81415   5.268   2.015   8.543  0.4103  0.3266  0.6297
  590MOL0     H81416   5.580   1.922   8.829  0.4738  2.7533  0.8166
  590MOL0     H81417   5.445   2.474   8.330 -0.4037  0.4234  0.6265
  590MOL0     H81418   5.562   2.484   8.039 -0.7456  1.2535 -1.5208
  590MOL0     H81419   5.592   2.655   8.062  2.4123 -1.8203 -0.9116
  590MOL0     H81420   5.609   2.550   8.201 -3.6978  0.0108  2.2194
  591MOL0     O81421   6.797  10.589   3.549  0.9859 -0.0415  0.0287
  591MOL0     C81422   6.800  10.566   3.428  0.4653  0.6955 -0.1543
  591MOL0     O81423   6.773  10.442   3.385  0.1248  0.5562 -0.2192
  591MOL0     C81424   6.792  10.331   3.468 -0.6808 -0.1856  0.0149
  591MOL0     C81425   6.690  10.265   3.523 -1.2154 -0.3752 -0.4312
  591MOL0     C81426   6.700  10.150   3.596  0.1275  0.2051  0.4729
  591MOL0     C81427   6.831  10.101   3.613  0.0681  0.2391  1.0977
  591MOL0     O81428   6.851   9.970   3.656 -0.2286 -0.2909  0.3962
  591MOL0     C81429   6.737   9.890   3.699  0.4883  0.1054  0.6499
  591MOL0     C81430   6.792   9.774   3.778  0.0196  0.1869  0.0910
  591MOL0     C81431   6.860   9.798   3.914  0.3710 -0.3173 -0.6996
  591MOL0     C81432   6.965   9.910   3.932  0.0378  0.6299 -0.4236
  591MOL0     C81433   7.040   9.910   4.063 -0.9085  1.6432 -0.5517
  591MOL0     C81434   7.156   9.812   4.073 -0.0203 -0.0485  0.1772
  591MOL0     C81435   7.249   9.834   4.199 -0.4008  0.6649 -0.1468
  591MOL0     C81436   7.155   9.820   4.324  0.9269 -0.5120 -0.9680
  591MOL0     N81437   7.218   9.785   4.451  0.6903 -0.3665  0.7629
  591MOL0     C81438   7.343   9.815   4.488 -0.3089 -0.0417 -0.4770
  591MOL0     C81439   7.382   9.709   4.562  0.4982 -0.1757 -0.3077
  591MOL0     C81440   7.522   9.682   4.613 -0.5133  0.3124  0.3358
  591MOL0     C81441   7.522   9.692   4.770 -0.6532  0.8343  0.2749
  591MOL0     C81442   7.476   9.819   4.831  0.3557 -0.4801 -1.5696
  591MOL0     C81443   7.550   9.841   4.966 -0.2940 -0.3020 -0.2777
  591MOL0     O81444   7.690   9.856   4.941 -0.0631  0.0507  0.1507
  591MOL0     C81445   7.774   9.893   5.045  0.1259 -0.7968  0.0324
  591MOL0     C81446   7.904   9.891   5.014  0.2389  0.2973 -0.2484
  591MOL0     C81447   8.010   9.944   5.092  0.4719  0.2786  0.3125
  591MOL0     C81448   8.145   9.917   5.048  0.2428 -0.1912  0.2735
  591MOL0     C81449   7.981   9.997   5.219 -0.1665  0.5227 -0.1902
  591MOL0     C81450   8.074  10.075   5.301 -0.8808 -0.3210 -0.1615
  591MOL0     O81451   8.207  10.071   5.276  0.5433  0.0126  0.2749
  591MOL0     C81452   8.285  10.173   5.314  0.3765  1.0237  0.0798
  591MOL0     C81453   8.354  10.246   5.218  0.4366  0.6566 -0.2226
  591MOL0     C81454   8.414  10.363   5.255 -0.2134 -0.2613 -0.9152
  591MOL0     C81455   8.427  10.387   5.395  0.7993 -0.2503  0.1670
  591MOL0     O81456   8.490  10.504   5.432 -0.3546  0.6439  0.4042
  591MOL0     C81457   8.484  10.553   5.567  0.7234 -0.4230  0.1911
  591MOL0     C81458   8.515  10.697   5.572  0.5196  0.5692  0.5263
  591MOL0     C81459   8.425  10.773   5.473  0.0843 -0.1868  0.4349
  591MOL0     C81460   8.411  10.919   5.534 -1.6907 -0.3033 -0.5422
  591MOL0     C81461   8.293  10.984   5.478 -0.0742 -0.0972 -0.4265
  591MOL0     C81462   8.279  10.980   5.327  0.2884 -0.3554  0.2764
  591MOL0     C81463   8.383  11.047   5.246 -0.2100 -0.4926  0.7742
  591MOL0     C81464   8.372  11.029   5.099  0.5208  1.3977 -0.0936
  591MOL0    Cl81465   8.217  11.078   5.037 -0.2410 -0.0256 -0.4133
  591MOL0     C81466   8.368  10.314   5.493  1.4727  0.4963 -0.5880
  591MOL0     C81467   8.290  10.205   5.453  0.0440 -0.2643  0.5287
  591MOL0     O81468   8.023  10.120   5.407  0.3661 -0.0374  0.9374
  591MOL0     C81469   7.842  10.005   5.250  0.1314  0.0319 -0.0990
  591MOL0     C81470   7.745   9.955   5.163 -0.4483  0.1130  0.2037
  591MOL0     N81471   7.274   9.627   4.582 -0.9797  0.0988 -0.0815
  591MOL0     N81472   7.175   9.681   4.520  0.0453  0.5219  0.0046
  591MOL0     C81473   6.937  10.177   3.580 -0.4586 -0.7616  0.3395
  591MOL0     C81474   6.921  10.293   3.498 -0.4287 -0.9872  0.4086
  591MOL0     C81475   6.808  10.672   3.326  0.9441  0.4550 -0.2055
  591MOL0     C81476   6.738  10.667   3.205  0.8760  0.2813  0.3208
  591MOL0     C81477   6.755  10.760   3.101 -0.1459  0.8588 -0.5860
  591MOL0     C81478   6.827  10.880   3.126  0.7035  0.0295 -0.3110
  591MOL0     O81479   6.807  10.975   3.025  0.1937  0.4066  0.2616
  591MOL0     C81480   6.837  11.114   3.067  0.2908 -0.1375  0.3655
  591MOL0     C81481   6.765  11.222   2.974 -0.2928 -0.0601  0.5447
  591MOL0     C81482   6.611  11.198   2.977 -0.5637  0.1537  0.5713
  591MOL0     C81483   6.545  11.328   2.956  0.5064  0.4117  0.8263
  591MOL0     C81484   6.577  11.378   2.820  0.6016 -0.0214 -0.2800
  591MOL0     C81485   6.605  11.397   2.705  0.1156  0.7069 -0.1906
  591MOL0     C81486   6.889  10.894   3.246  0.2856 -0.0104  0.4581
  591MOL0     C81487   6.881  10.792   3.344  0.6894  0.3693 -0.9547
  591MOL0     C81488   6.963  10.804   3.479 -1.3630  0.6595  0.8337
  591MOL0     H81489   6.588  10.294   3.498 -2.2374 -2.2730  1.2233
  591MOL0     H81490   6.621  10.089   3.640  2.3032 -1.2960  2.6016
  591MOL0     H81491   6.694   9.849   3.607  2.0810 -0.0114 -0.0808
  591MOL0     H81492   6.661   9.926   3.769 -0.7350 -1.7276  0.3376
  591MOL0     H81493   6.713   9.702   3.804  0.6655 -0.0384  1.4969
  591MOL0     H81494   6.853   9.704   3.720 -0.7797 -0.9730  0.5966
  591MOL0     H81495   6.783   9.822   3.988  0.5145 -1.2693 -0.2240
  591MOL0     H81496   6.899   9.697   3.929 -2.1590 -1.7980 -3.1076
  591MOL0     H81497   7.030   9.908   3.844  3.1244 -1.1931  1.7255
  591MOL0     H81498   6.897   9.996   3.925 -0.7423  0.0823  0.2918
  591MOL0     H81499   6.961   9.906   4.139 -0.9195  1.9613 -0.5423
  591MOL0     H81500   7.089  10.007   4.077 -0.6428  1.1769  2.6748
  591MOL0     H81501   7.139   9.704   4.084  2.5017 -0.5560 -0.2762
  591MOL0     H81502   7.209   9.821   3.978 -1.1996 -1.4853 -0.6495
  591MOL0     H81503   7.311   9.923   4.185 -0.0614  0.2112 -1.7106
  591MOL0     H81504   7.321   9.751   4.208 -2.8806 -1.5727  0.1524
  591MOL0     H81505   7.116   9.921   4.343  2.6004  0.0474 -0.3082
  591MOL0     H81506   7.072   9.752   4.302 -0.6242  1.5448 -1.9038
  591MOL0     H81507   7.414   9.887   4.449  1.7716 -2.2261 -0.9881
  591MOL0     H81508   7.601   9.749   4.578 -1.1691  0.7580 -0.3178
  591MOL0     H81509   7.559   9.586   4.576 -0.9868  0.0236  0.6003
  591MOL0     H81510   7.452   9.613   4.798  1.8855 -1.7372 -0.1765
  591MOL0     H81511   7.622   9.666   4.808 -0.3313  0.7547 -0.6187
  591MOL0     H81512   7.502   9.911   4.778  2.3220  0.7351  1.2593
  591MOL0     H81513   7.370   9.817   4.860  0.9046 -0.8806  0.6170
  591MOL0     H81514   7.510   9.935   5.007 -3.3830 -1.2500 -0.8187
  591MOL0     H81515   7.543   9.759   5.038  0.7590 -0.2147 -0.0586
  591MOL0     H81516   7.927   9.859   4.913  1.3396  3.6431 -1.1893
  591MOL0     H81517   8.201   9.841   5.103 -1.9906 -0.0703  2.8895
  591MOL0     H81518   8.190  10.016   5.057 -0.9271  0.4919 -1.0117
  591MOL0     H81519   8.155   9.881   4.945 -1.5445 -3.2120  1.0469
  591MOL0     H81520   8.341  10.215   5.115 -1.5120  1.9580 -0.4285
  591MOL0     H81521   8.471  10.421   5.182  0.2250  1.6726  0.8567
  591MOL0     H81522   8.381  10.536   5.601 -1.5265  1.8372 -4.4211
  591MOL0     H81523   8.549  10.498   5.634 -0.7052 -0.3232  1.7321
  591MOL0     H81524   8.483  10.733   5.670 -0.2811 -3.6381  1.9877
  591MOL0     H81525   8.618  10.724   5.546  0.3516  1.2553  0.5466
  591MOL0     H81526   8.330  10.721   5.457 -0.2985  0.4140  0.7048
  591MOL0     H81527   8.477  10.778   5.378  0.0047  0.5323  0.4176
  591MOL0     H81528   8.490  10.994   5.525 -3.3225  1.8975  2.1881
  591MOL0     H81529   8.405  10.916   5.643 -1.4549 -1.1460 -0.5448
  591MOL0     H81530   8.200  10.938   5.511 -1.3074  2.0659 -0.7507
  591MOL0     H81531   8.288  11.087   5.513 -0.5066  0.4546 -2.0205
  591MOL0     H81532   8.182  11.029   5.319  0.4939  0.3703  1.8140
  591MOL0     H81533   8.274  10.876   5.293 -2.2528 -0.0736 -0.3550
  591MOL0     H81534   8.487  11.030   5.276  0.0611 -0.3387 -0.0545
  591MOL0     H81535   8.373  11.155   5.262 -3.1499 -0.2352 -1.8805
  591MOL0     H81536   8.394  10.927   5.066  1.9686  2.4410 -2.6360
  591MOL0     H81537   8.455  11.077   5.047  0.8464 -0.1686 -1.1077
  591MOL0     H81538   8.365  10.344   5.597  1.9155  0.4254 -0.5534
  591MOL0     H81539   8.228  10.154   5.526 -0.0423 -1.3392 -0.2577
  591MOL0     H81540   7.809  10.055   5.340  4.1639 -0.9516  2.1651
  591MOL0     H81541   7.640   9.962   5.189 -0.3032  2.4016  0.3750
  591MOL0     H81542   7.031  10.127   3.604  1.8589  2.0555 -2.1503
  591MOL0     H81543   6.999  10.351   3.448 -0.5752 -1.4202 -0.3423
  591MOL0     H81544   6.698  10.569   3.183  2.1180  0.0042 -0.8791
  591MOL0     H81545   6.713  10.761   3.001  0.7746 -3.0725 -1.1927
  591MOL0     H81546   6.798  11.130   3.168  0.7166  0.4821  0.4370
  591MOL0     H81547   6.945  11.123   3.079  0.1881 -1.5420  3.0594
  591MOL0     H81548   6.788  11.213   2.867 -3.2653 -2.0695 -0.0411
  591MOL0     H81549   6.799  11.322   3.002  2.4014 -0.3527 -1.2930
  591MOL0     H81550   6.577  11.124   2.904  3.9713 -1.8800  0.2051
  591MOL0     H81551   6.582  11.163   3.076 -1.6591  0.2151  0.2900
  591MOL0     H81552   6.571  11.399   3.035  4.4755 -0.0686  0.1783
  591MOL0     H81553   6.437  11.317   2.946  0.7038 -0.4148 -0.8475
  591MOL0     H81554   6.635  11.408   2.602  2.3952 -0.3112  0.3019
  591MOL0     H81555   6.937  10.991   3.259  1.0902 -0.4933  1.1960
  591MOL0     H81556   6.996  10.705   3.511 -1.5028  0.0626 -0.7796
  591MOL0     H81557   7.055  10.859   3.457  1.1689 -3.9247 -1.2406
  591MOL0     H81558   6.894  10.849   3.551 -1.3468 -0.5269  1.6007
  592MOL0     O81559   9.462  11.325   8.002  0.6072  0.1599 -0.3781
  592MOL0     C81560   9.419  11.207   7.983  0.8133 -0.7810 -0.2420
  592MOL0     O81561   9.454  11.092   8.043  0.3036 -0.6674 -0.4696
  592MOL0     C81562   9.515  11.100   8.171 -0.0504 -0.0037 -0.2592
  592MOL0     C81563   9.648  11.059   8.185  0.6547 -0.0247 -0.4088
  592MOL0     C81564   9.709  11.052   8.316  0.4058 -0.1315  0.8063
  592MOL0     C81565   9.643  11.095   8.425  0.0245 -0.8853 -0.1025
  592MOL0     O81566   9.717  11.102   8.534 -0.4018  0.2610 -0.0730
  592MOL0     C81567   9.678  11.167   8.651  0.4589 -0.3578  0.1952
  592MOL0     C81568   9.790  11.234   8.721 -0.2814 -0.0920  0.1456
  592MOL0     C81569   9.810  11.383   8.696 -0.5805 -0.5396  0.3788
  592MOL0     C81570   9.927  11.439   8.787  0.0988  0.3620 -0.3654
  592MOL0     C81571   9.997  11.564   8.737  0.1453  0.1577  0.5209
  592MOL0     C81572  10.113  11.587   8.836 -0.1077  1.1673  0.4637
  592MOL0     C81573  10.160  11.739   8.846 -0.6358  0.0918  0.7358
  592MOL0     C81574  10.171  11.796   8.716  0.2939  0.4620  0.3701
  592MOL0     N81575  10.249  11.927   8.729 -0.0910  0.9897  0.2962
  592MOL0     C81576  10.202  12.053   8.713 -0.3360  0.0998  1.0536
  592MOL0     C81577  10.304  12.145   8.719 -0.3420 -0.7949 -1.4614
  592MOL0     C81578  10.300  12.294   8.724 -0.6027  0.0737  0.2121
  592MOL0     C81579  10.306  12.355   8.863 -0.6546 -0.1187  0.1513
  592MOL0     C81580  10.180  12.358   8.937  0.7226  0.3850 -0.3404
  592MOL0     C81581  10.105  12.491   8.903  0.5431 -0.2018 -0.3475
  592MOL0     O81582  10.168  12.592   8.985 -1.0621  0.0590  0.7350
  592MOL0     C81583  10.170  12.722   8.932 -0.9481 -0.3160  0.4152
  592MOL0     C81584  10.270  12.810   8.966  0.4152 -1.0381  0.4816
  592MOL0     C81585  10.274  12.937   8.903  0.3453 -0.4876 -0.5046
  592MOL0     C81586  10.394  13.028   8.952  0.4198 -0.0329  0.0622
  592MOL0     C81587  10.164  12.982   8.823  0.5294 -0.4421  1.0221
  592MOL0     C81588  10.156  13.115   8.748 -0.9744  1.4813  0.6199
  592MOL0     O81589  10.253  13.210   8.755  0.8119  0.5034  0.3678
  592MOL0     C81590  10.267  13.286   8.645  0.0421 -0.4309  1.0722
  592MOL0     C81591  10.267  13.242   8.508 -0.3572 -0.5204 -0.0882
  592MOL0     C81592  10.281  13.334   8.408 -0.2773 -0.5774 -0.3718
  592MOL0     C81593  10.311  13.465   8.434  0.6422  0.9460 -0.6317
  592MOL0     O81594  10.303  13.557   8.342  0.6163  0.5061  0.5608
  592MOL0     C81595  10.175  13.568   8.276  0.2719  0.4436  1.3636
  592MOL0     C81596  10.190  13.619   8.133  0.4409 -0.9305 -0.4684
  592MOL0     C81597  10.282  13.542   8.042 -0.1698 -0.2640 -0.7014
  592MOL0     C81598  10.334  13.629   7.919  0.1709 -0.7776  0.1270
  592MOL0     C81599  10.459  13.553   7.852 -0.8253  0.0058  0.2843
  592MOL0     C81600  10.543  13.644   7.765 -0.7424  0.0267 -0.4626
  592MOL0     C81601  10.668  13.582   7.708 -0.1386  0.2464  0.0019
  592MOL0     C81602  10.754  13.487   7.801  0.3117  0.2066  0.9576
  592MOL0    Cl81603  10.911  13.475   7.734 -0.3383 -0.1169  0.0255
  592MOL0     C81604  10.313  13.508   8.569 -0.9249  0.0542  0.0531
  592MOL0     C81605  10.306  13.415   8.675  0.2212 -0.1981 -0.3773
  592MOL0     O81606  10.061  13.123   8.674 -0.0146  0.0112 -0.6266
  592MOL0     C81607  10.058  12.894   8.795 -0.5519 -0.4334  0.2507
  592MOL0     C81608  10.062  12.764   8.850 -0.8952 -0.3538 -0.5921
  592MOL0     N81609  10.420  12.075   8.753  0.3084  1.1220 -0.6230
  592MOL0     N81610  10.389  11.949   8.742 -0.0103  0.4955 -0.2715
  592MOL0     C81611   9.515  11.132   8.413 -0.4692  0.4068  0.7841
  592MOL0     C81612   9.446  11.134   8.285  0.5285 -0.0983  0.5136
  592MOL0     C81613   9.322  11.186   7.881  0.3908  0.5756 -0.3014
  592MOL0     C81614   9.192  11.129   7.919  0.5528  0.3839  0.4027
  592MOL0     C81615   9.100  11.101   7.820  0.5338 -0.9563 -0.4298
  592MOL0     C81616   9.136  11.124   7.686 -0.5305 -0.5265  0.0156
  592MOL0     O81617   9.056  11.101   7.576 -0.2370 -0.3623  1.3972
  592MOL0     C81618   8.916  11.095   7.595  0.2629  0.5198  0.3119
  592MOL0     C81619   8.880  10.961   7.654 -0.1427 -0.6049 -0.3356
  592MOL0     C81620   8.747  10.989   7.735 -0.5432  0.2427 -0.4943
  592MOL0     C81621   8.668  10.855   7.768 -0.0382 -0.9196 -0.1726
  592MOL0     C81622   8.751  10.759   7.832 -0.3388 -1.1588 -0.3682
  592MOL0     C81623   8.849  10.708   7.885 -0.1583 -0.0337 -0.5684
  592MOL0     C81624   9.257  11.183   7.656  0.4151  0.7919  1.0005
  592MOL0     C81625   9.353  11.200   7.749 -0.3001  0.3847  0.4013
  592MOL0     C81626   9.481  11.254   7.717 -0.2086  0.1115  0.1311
  592MOL0     H81627   9.716  11.035   8.103  1.6020 -1.5866  0.7705
  592MOL0     H81628   9.816  11.038   8.327  0.4165  0.1170  1.0458
  592MOL0     H81629   9.636  11.093   8.720 -0.4511  0.0687  0.1126
  592MOL0     H81630   9.598  11.243   8.647  0.9549  0.4269  3.0186
  592MOL0     H81631   9.781  11.210   8.827  0.9271 -0.4602  0.1771
  592MOL0     H81632   9.881  11.186   8.683 -2.4079 -3.7048 -0.8650
  592MOL0     H81633   9.838  11.391   8.590 -1.7670 -2.2006 -0.0929
  592MOL0     H81634   9.717  11.438   8.713 -1.5030 -2.0265  0.3027
  592MOL0     H81635   9.885  11.460   8.886  0.4645 -0.0806 -0.1143
  592MOL0     H81636  10.000  11.359   8.796 -0.0790  0.3158  1.0257
  592MOL0     H81637   9.925  11.646   8.742  0.3796  0.2912  2.4439
  592MOL0     H81638  10.024  11.553   8.631 -3.1996  1.1971 -0.5621
  592MOL0     H81639  10.084  11.552   8.935  0.7089 -2.4758 -0.4474
  592MOL0     H81640  10.199  11.526   8.807  0.2989  1.6412  0.6497
  592MOL0     H81641  10.254  11.758   8.898 -0.7723  3.5900 -0.0591
  592MOL0     H81642  10.077  11.790   8.896  0.7980  1.1300  2.1682
  592MOL0     H81643  10.224  11.723   8.654  0.4591  0.7447  0.1734
  592MOL0     H81644  10.076  11.824   8.670 -0.0418  0.5530  1.1174
  592MOL0     H81645  10.097  12.078   8.704 -0.3043 -0.2437 -0.5799
  592MOL0     H81646  10.208  12.334   8.680  0.7024  4.0202  0.6642
  592MOL0     H81647  10.379  12.323   8.654 -0.9906 -4.8173 -2.7188
  592MOL0     H81648  10.376  12.302   8.927 -0.9445 -2.0844 -1.0803
  592MOL0     H81649  10.350  12.455   8.860  0.1289 -0.3390  2.4595
  592MOL0     H81650  10.121  12.276   8.896 -0.2213  2.5658 -3.6903
  592MOL0     H81651  10.190  12.348   9.046  0.5075 -3.7888 -0.5512
  592MOL0     H81652  10.113  12.507   8.795 -1.2485  0.1520 -0.4485
  592MOL0     H81653  10.000  12.493   8.934  1.5785 -0.9351  3.8946
  592MOL0     H81654  10.347  12.779   9.037 -1.6728 -0.0820  3.3756
  592MOL0     H81655  10.454  12.965   9.019 -0.7983 -1.5944 -0.2634
  592MOL0     H81656  10.352  13.115   9.004  1.3213  1.6946 -1.9493
  592MOL0     H81657  10.455  13.068   8.871  0.6782 -0.9636 -0.2102
  592MOL0     H81658  10.241  13.138   8.487  5.4954 -2.3035 -0.2608
  592MOL0     H81659  10.257  13.284   8.315  4.3788 -4.4541  0.1125
  592MOL0     H81660  10.125  13.471   8.267  1.0145  0.2178 -1.1316
  592MOL0     H81661  10.116  13.637   8.338 -0.8927 -0.7056  1.5875
  592MOL0     H81662  10.094  13.629   8.082 -0.7627 -0.3340  1.8121
  592MOL0     H81663  10.226  13.722   8.145  2.5333 -1.6681  0.1226
  592MOL0     H81664  10.219  13.457   8.012 -2.4220  1.5501 -1.4102
  592MOL0     H81665  10.366  13.516   8.107 -1.0201 -0.5523  0.3080
  592MOL0     H81666  10.357  13.733   7.946 -0.0083 -0.7298  0.0961
  592MOL0     H81667  10.257  13.642   7.843  2.4987  1.4914 -2.0836
  592MOL0     H81668  10.527  13.514   7.929  1.7014 -2.6991 -3.0071
  592MOL0     H81669  10.435  13.462   7.796 -0.0479  0.9067 -1.6126
  592MOL0     H81670  10.573  13.723   7.835 -2.4041  0.6151 -0.3694
  592MOL0     H81671  10.481  13.693   7.689  0.6276 -0.3100 -1.8522
  592MOL0     H81672  10.729  13.670   7.683 -1.2282  1.4109  1.2824
  592MOL0     H81673  10.636  13.527   7.619 -3.8235  0.8755  0.7729
  592MOL0     H81674  10.708  13.387   7.804 -0.4022  0.4402 -0.9042
  592MOL0     H81675  10.749  13.527   7.903 -1.6325  1.1366  0.5450
  592MOL0     H81676  10.340  13.612   8.589  2.7482 -0.6584 -0.4233
  592MOL0     H81677  10.313  13.443   8.780 -2.2981 -2.5051  0.5259
  592MOL0     H81678   9.971  12.918   8.735  0.3325 -0.9104 -1.2530
  592MOL0     H81679   9.975  12.703   8.827 -3.7589  2.9601  0.4012
  592MOL0     H81680   9.464  11.175   8.498  1.4943  3.0231  0.7801
  592MOL0     H81681   9.340  11.156   8.278  0.5662  0.2559  1.0663
  592MOL0     H81682   9.167  11.107   8.022  1.2718  0.7897  0.6719
  592MOL0     H81683   9.002  11.069   7.856  0.0733  2.0783  1.3718
  592MOL0     H81684   8.886  11.188   7.644 -1.0770 -0.0425  0.6078
  592MOL0     H81685   8.866  11.105   7.497  3.1549 -0.0372 -1.3201
  592MOL0     H81686   8.956  10.914   7.717  0.6699  0.1443 -0.7506
  592MOL0     H81687   8.874  10.898   7.565  1.8850  1.1340 -1.8010
  592MOL0     H81688   8.766  11.042   7.829 -0.1764 -1.2248  0.2815
  592MOL0     H81689   8.683  11.056   7.677 -2.0487 -0.2862  0.5226
  592MOL0     H81690   8.629  10.821   7.671 -2.3870 -0.5337  0.5678
  592MOL0     H81691   8.584  10.871   7.836  0.4090 -0.2393  0.2335
  592MOL0     H81692   8.907  10.635   7.938 -0.8179  0.3374  0.7006
  592MOL0     H81693   9.274  11.212   7.553  3.7834  2.2279  1.8198
  592MOL0     H81694   9.543  11.167   7.741  0.6010  0.0419 -1.9542
  592MOL0     H81695   9.504  11.251   7.610  1.5233 -1.3795  0.4993
  592MOL0     H81696   9.505  11.350   7.763 -3.2814  2.7642 -3.1750
  593MOL0     O81697   3.996   8.051   7.969 -0.4399 -0.8577  0.1713
  593MOL0     C81698   3.917   7.982   8.042 -0.1551 -0.3042  0.1443
  593MOL0     O81699   3.831   8.033   8.130  0.8398 -0.1668  0.1280
  593MOL0     C81700   3.806   8.164   8.112 -0.4622 -0.2405  0.4580
  593MOL0     C81701   3.865   8.253   8.198 -1.0092  0.5337  0.3454
  593MOL0     C81702   3.837   8.390   8.192 -0.9133 -0.1849  0.9669
  593MOL0     C81703   3.754   8.440   8.097  0.1020 -0.6736  0.8638
  593MOL0     O81704   3.751   8.579   8.097  0.2165 -0.7322  0.4640
  593MOL0     C81705   3.674   8.640   7.995 -0.5453 -0.0535 -0.3536
  593MOL0     C81706   3.699   8.790   7.999  0.6464  0.2856 -0.0650
  593MOL0     C81707   3.651   8.847   8.134  0.5668  0.0646 -0.4865
  593MOL0     C81708   3.656   9.000   8.126 -0.9276 -0.5447 -0.8564
  593MOL0     C81709   3.583   9.046   8.256  0.3902  0.4108 -0.5817
  593MOL0     C81710   3.553   9.197   8.273 -0.5291  0.3621 -0.3340
  593MOL0     C81711   3.443   9.212   8.375 -1.3817 -0.0879 -0.2144
  593MOL0     C81712   3.433   9.356   8.429 -0.0813 -0.4556  0.0910
  593MOL0     N81713   3.561   9.415   8.475 -0.0082 -0.5553 -0.0516
  593MOL0     C81714   3.608   9.529   8.411  0.6073 -0.5708  0.3898
  593MOL0     C81715   3.721   9.562   8.479 -0.0193 -0.5741 -0.0860
  593MOL0     C81716   3.809   9.679   8.445 -0.0832  0.4321 -0.6131
  593MOL0     C81717   3.868   9.755   8.556 -0.3513 -0.7185 -0.0522
  593MOL0     C81718   3.923   9.894   8.528 -1.0073  0.2305  0.1127
  593MOL0     C81719   4.060   9.909   8.590 -0.3037 -0.2158 -0.4096
  593MOL0     O81720   4.042   9.942   8.731  0.3806 -0.0354  0.1514
  593MOL0     C81721   4.092  10.054   8.784 -0.0820  0.7602  0.2365
  593MOL0     C81722   4.011  10.145   8.860 -0.7749  0.7495  0.4397
  593MOL0     C81723   4.050  10.268   8.901 -0.6166 -0.4828  0.1650
  593MOL0     C81724   3.946  10.342   8.988  0.1880  0.4576  0.6565
  593MOL0     C81725   4.186  10.306   8.872 -0.5564 -0.7057  0.0901
  593MOL0     C81726   4.225  10.448   8.881  0.1243 -0.8985 -1.3031
  593MOL0     O81727   4.329  10.489   8.803  0.0639 -0.1953  0.3381
  593MOL0     C81728   4.350  10.622   8.800  0.1593 -0.7103  0.5273
  593MOL0     C81729   4.478  10.670   8.831 -0.4769 -0.4139 -0.0312
  593MOL0     C81730   4.509  10.808   8.826  0.1443  0.2016  0.2946
  593MOL0     C81731   4.414  10.901   8.778 -0.0381 -0.8748  0.3330
  593MOL0     O81732   4.453  11.034   8.756  0.4887  0.2471  0.4596
  593MOL0     C81733   4.450  11.084   8.620  0.0354 -0.1484  0.4179
  593MOL0     C81734   4.530  11.213   8.620 -0.5668  0.1660  0.4416
  593MOL0     C81735   4.458  11.326   8.699 -0.0484 -0.7224  0.2604
  593MOL0     C81736   4.556  11.437   8.738 -0.6831 -0.1971 -1.2930
  593MOL0     C81737   4.668  11.464   8.641  0.7074  0.0331 -0.3726
  593MOL0     C81738   4.758  11.585   8.674  0.0163  0.3973  0.2355
  593MOL0     C81739   4.864  11.554   8.788 -0.0876  0.0893  0.6866
  593MOL0     C81740   5.001  11.567   8.736 -1.0890 -0.3992  0.2952
  593MOL0    Cl81741   5.032  11.451   8.578  0.4967 -0.1205 -0.4245
  593MOL0     C81742   4.286  10.853   8.738  0.8484 -0.1042 -0.5267
  593MOL0     C81743   4.252  10.719   8.755 -0.5965 -0.2265 -0.2661
  593MOL0     O81744   4.162  10.517   8.959  0.2227  0.3590  0.2115
  593MOL0     C81745   4.270  10.223   8.795  0.7367 -0.7395 -0.0141
  593MOL0     C81746   4.229  10.088   8.761  0.1075 -0.0441  0.0592
  593MOL0     N81747   3.726   9.473   8.588  0.9469 -0.5356  0.5158
  593MOL0     N81748   3.642   9.372   8.577  0.0450 -0.5237 -0.2097
  593MOL0     C81749   3.713   8.356   7.988 -0.3245  0.0809  0.4867
  593MOL0     C81750   3.738   8.219   7.997  0.5356  0.4635  0.3321
  593MOL0     C81751   3.923   7.841   8.040  0.6171 -0.1296  0.4474
  593MOL0     C81752   3.802   7.762   8.021  0.9677 -0.1688 -0.0295
  593MOL0     C81753   3.811   7.621   7.992 -0.5744  0.5710 -0.2365
  593MOL0     C81754   3.930   7.554   8.012 -0.1000 -0.1437 -0.0208
  593MOL0     O81755   3.940   7.421   8.024  0.2433  0.3106  0.4267
  593MOL0     C81756   3.834   7.324   7.998  0.4959  0.6695  0.3071
  593MOL0     C81757   3.764   7.269   8.117  0.4188  0.0024  0.2087
  593MOL0     C81758   3.639   7.351   8.162 -0.4951  0.2831  0.6084
  593MOL0     C81759   3.520   7.336   8.065 -0.3335  0.1636  0.0377
  593MOL0     C81760   3.451   7.211   8.087  0.0241  0.0609  0.0807
  593MOL0     C81761   3.387   7.109   8.075  0.3305 -0.3707 -0.2941
  593MOL0     C81762   4.047   7.624   8.034  0.6309 -0.3816 -0.6470
  593MOL0     C81763   4.046   7.765   8.042  0.3182 -1.3355 -0.1218
  593MOL0     C81764   4.181   7.830   8.052  0.3742 -0.0549  0.7129
  593MOL0     H81765   3.925   8.205   8.275  0.3441 -0.2096 -1.1098
  593MOL0     H81766   3.882   8.449   8.271 -2.3453 -0.2405  1.8428
  593MOL0     H81767   3.568   8.623   8.018 -1.0832  1.8910 -1.1391
  593MOL0     H81768   3.710   8.604   7.898  0.0980 -0.3514 -0.0086
  593MOL0     H81769   3.807   8.807   7.995  0.6315  1.2479  2.1763
  593MOL0     H81770   3.639   8.838   7.921 -2.3434 -1.9818  0.6581
  593MOL0     H81771   3.548   8.815   8.150  0.0200  2.0466  0.2985
  593MOL0     H81772   3.704   8.808   8.221 -3.0123  0.7454  2.1877
  593MOL0     H81773   3.759   9.037   8.136 -2.2755  3.1943  1.5144
  593MOL0     H81774   3.618   9.040   8.031  0.5243  2.1357 -0.4063
  593MOL0     H81775   3.637   9.013   8.345  1.9767 -2.4859 -2.4641
  593MOL0     H81776   3.487   8.995   8.264  0.7868 -0.1240  1.1162
  593MOL0     H81777   3.642   9.255   8.298 -0.3844 -0.6678  1.7739
  593MOL0     H81778   3.515   9.226   8.175 -1.4502  0.4038  0.0202
  593MOL0     H81779   3.460   9.130   8.446 -5.7892 -2.1823 -1.2563
  593MOL0     H81780   3.350   9.179   8.328 -0.5294 -1.2655 -1.1585
  593MOL0     H81781   3.389   9.416   8.350 -3.1249  0.1867  2.1034
  593MOL0     H81782   3.368   9.360   8.517 -0.4423 -1.0419 -0.1444
  593MOL0     H81783   3.557   9.559   8.321  1.8778 -0.5050 -0.3344
  593MOL0     H81784   3.746   9.753   8.395  2.7073  3.8550  0.4692
  593MOL0     H81785   3.888   9.642   8.379 -0.4705  1.7853 -1.8942
  593MOL0     H81786   3.788   9.776   8.628  0.9492  0.8173  1.0107
  593MOL0     H81787   3.950   9.695   8.596 -1.2643 -0.5344  2.2614
  593MOL0     H81788   3.926   9.908   8.420  0.5687 -4.6716 -0.7617
  593MOL0     H81789   3.852   9.975   8.546 -0.3764  1.9142 -4.0661
  593MOL0     H81790   4.114   9.814   8.586 -1.2375 -0.8602  1.2686
  593MOL0     H81791   4.117   9.989   8.542 -1.9277  1.8596  0.9495
  593MOL0     H81792   3.917  10.093   8.876  0.7386 -2.4986 -0.2112
  593MOL0     H81793   3.845  10.302   8.986 -0.8995  2.9068  1.7032
  593MOL0     H81794   3.941  10.449   8.963  1.7327  1.0226  2.4864
  593MOL0     H81795   3.981  10.349   9.092  2.6549 -0.1100 -0.0654
  593MOL0     H81796   4.541  10.598   8.882 -0.9569  0.4197  1.8247
  593MOL0     H81797   4.606  10.830   8.868  0.6055 -2.2165  0.6768
  593MOL0     H81798   4.493  11.025   8.539 -2.2564 -1.8996  0.3484
  593MOL0     H81799   4.345  11.103   8.594 -0.0475  1.4617  1.7687
  593MOL0     H81800   4.630  11.191   8.660  0.4092  0.9743 -1.4293
  593MOL0     H81801   4.541  11.246   8.516  3.9793 -1.5118  0.1717
  593MOL0     H81802   4.406  11.281   8.784  2.4516 -1.2942  1.5948
  593MOL0     H81803   4.389  11.367   8.625  0.7047  0.9299  0.4283
  593MOL0     H81804   4.596  11.413   8.836  0.0024  1.1138 -1.2281
  593MOL0     H81805   4.503  11.529   8.763  0.2845  0.1944 -0.6469
  593MOL0     H81806   4.729  11.375   8.625  1.9247  0.2522  2.4677
  593MOL0     H81807   4.628  11.471   8.539  3.7090  2.1711 -1.5091
  593MOL0     H81808   4.698  11.665   8.719  0.1027  1.9102 -2.1515
  593MOL0     H81809   4.810  11.616   8.583 -1.4475  1.0064 -0.4357
  593MOL0     H81810   4.846  11.452   8.823 -1.8425  0.5129  1.0759
  593MOL0     H81811   4.851  11.615   8.877 -2.0657 -0.1824  0.6287
  593MOL0     H81812   5.073  11.531   8.811 -2.5040  0.9949  2.4397
  593MOL0     H81813   5.026  11.664   8.693  1.9281 -1.5707 -0.8758
  593MOL0     H81814   4.218  10.922   8.689  0.5012 -2.0539 -2.9999
  593MOL0     H81815   4.154  10.688   8.721 -0.1823 -1.6813 -0.1774
  593MOL0     H81816   4.375  10.234   8.769  0.6903 -2.8510 -1.3710
  593MOL0     H81817   4.297  10.018   8.713  0.3397 -0.2985  0.7500
  593MOL0     H81818   3.652   8.384   7.903  2.7358 -1.6574 -2.5750
  593MOL0     H81819   3.686   8.155   7.927 -0.8566 -0.2624  1.9675
  593MOL0     H81820   3.709   7.818   8.022  3.0393  3.7198 -1.7982
  593MOL0     H81821   3.714   7.585   7.959 -0.7681  1.1392 -0.3094
  593MOL0     H81822   3.761   7.360   7.925 -0.8289 -1.1188  0.6683
  593MOL0     H81823   3.884   7.246   7.940  0.4498  2.7316 -2.7068
  593MOL0     H81824   3.838   7.271   8.198  1.7983  0.5747 -1.0227
  593MOL0     H81825   3.738   7.164   8.106  0.8152 -0.1075  0.2878
  593MOL0     H81826   3.613   7.317   8.263  0.8767 -2.8533  0.0321
  593MOL0     H81827   3.644   7.460   8.171 -2.6981  0.3601  1.4268
  593MOL0     H81828   3.549   7.340   7.959 -2.0553 -0.2462 -0.4756
  593MOL0     H81829   3.459   7.426   8.074 -0.5315  0.1052 -0.6581
  593MOL0     H81830   3.340   7.014   8.062 -1.8897  0.2926  2.0882
  593MOL0     H81831   4.134   7.559   8.037  0.8084 -0.0982  1.1251
  593MOL0     H81832   4.197   7.863   8.155 -0.4638  0.2115  0.7698
  593MOL0     H81833   4.263   7.765   8.022  2.7882  2.1948  2.0184
  593MOL0     H81834   4.194   7.909   7.977 -0.7726  0.6894  1.2768
  594MOL0     O81835   5.895   6.753  11.440  0.4039  0.3421  0.6669
  594MOL0     C81836   5.814   6.725  11.351 -0.0853  0.0290 -1.2067
  594MOL0     O81837   5.717   6.616  11.362  0.8256  0.3234 -0.0263
  594MOL0     C81838   5.700   6.561  11.488  1.1254  0.4502 -0.1549
  594MOL0     C81839   5.701   6.426  11.499 -0.2924  0.1957 -1.0105
  594MOL0     C81840   5.669   6.364  11.625  0.8475  0.6019  0.0132
  594MOL0     C81841   5.608   6.440  11.727 -0.1979  0.1135  0.1820
  594MOL0     O81842   5.565   6.394  11.848 -0.0233  0.5949  0.0154
  594MOL0     C81843   5.642   6.292  11.912  0.7431  0.4912  0.4165
  594MOL0     C81844   5.573   6.250  12.048  0.1973  0.6025 -0.5213
  594MOL0     C81845   5.583   6.356  12.156 -0.1598 -1.6524 -0.1144
  594MOL0     C81846   5.711   6.358  12.245  0.9531  0.0067 -0.4960
  594MOL0     C81847   5.709   6.467  12.348  0.8980 -0.2394  0.2137
  594MOL0     C81848   5.581   6.471  12.443 -0.6095  0.0757  1.1364
  594MOL0     C81849   5.554   6.330  12.509  0.5954  0.7414 -0.3302
  594MOL0     C81850   5.446   6.349  12.619  0.0865 -0.1496 -1.2964
  594MOL0     N81851   5.415   6.232  12.692  0.6769  0.4554 -0.4111
  594MOL0     C81852   5.502   6.157  12.763 -0.1611  0.4895  0.4118
  594MOL0     C81853   5.441   6.039  12.793  0.6497 -0.3392 -0.0284
  594MOL0     C81854   5.515   5.921  12.864  0.4104 -0.8333  0.1169
  594MOL0     C81855   5.432   5.855  12.975  0.4930  0.1330  0.4383
  594MOL0     C81856   5.418   5.933  13.109 -1.4366 -0.0751  0.6166
  594MOL0     C81857   5.340   5.841  13.206  0.7383 -0.7016 -0.0393
  594MOL0     O81858   5.425   5.756  13.283 -0.1833  0.1648  0.5608
  594MOL0     C81859   5.357   5.672  13.374 -0.9287  0.2257  0.8176
  594MOL0     C81860   5.217   5.675  13.406 -0.4737  0.5992  1.3522
  594MOL0     C81861   5.167   5.587  13.504  0.0471  0.2986  0.1492
  594MOL0     C81862   5.014   5.581  13.524  0.1629 -0.5027  0.6838
  594MOL0     C81863   5.258   5.500  13.572  0.0635 -0.3363  0.4953
  594MOL0     C81864   5.226   5.407  13.684 -0.0191 -0.3315 -0.4579
  594MOL0     O81865   5.319   5.328  13.734 -0.6067 -0.2320 -0.3851
  594MOL0     C81866   5.285   5.221  13.819  0.0163 -0.4823 -0.3670
  594MOL0     C81867   5.291   5.258  13.950  0.0556 -0.2270 -0.1067
  594MOL0     C81868   5.264   5.166  14.054  1.0954 -0.4645  0.7387
  594MOL0     C81869   5.239   5.033  14.021 -0.2206 -0.4989 -0.3618
  594MOL0     O81870   5.217   4.943  14.130 -0.1023 -0.2204  0.0959
  594MOL0     C81871   5.122   4.835  14.093  0.4581 -1.2481  0.6679
  594MOL0     C81872   5.045   4.791  14.218 -0.6777 -0.2855  0.4770
  594MOL0     C81873   5.125   4.706  14.309 -0.5504  0.4842  0.0112
  594MOL0     C81874   5.144   4.759  14.457 -0.3611  0.0183 -0.4004
  594MOL0     C81875   5.239   4.886  14.473  0.0569 -0.1491  0.5040
  594MOL0     C81876   5.272   4.911  14.617 -0.0621 -0.8429 -0.1098
  594MOL0     C81877   5.342   5.045  14.620  0.6028  0.2381  0.2710
  594MOL0     C81878   5.363   5.096  14.767  0.3487  0.5269 -0.8664
  594MOL0    Cl81879   5.387   5.273  14.775  0.4543 -0.1746 -0.5260
  594MOL0     C81880   5.223   5.000  13.882  0.4330 -0.9689  0.6124
  594MOL0     C81881   5.248   5.097  13.788 -1.3301  0.4055 -0.0597
  594MOL0     O81882   5.120   5.427  13.739  0.1515  0.7012 -0.0059
  594MOL0     C81883   5.392   5.494  13.535  0.4477  0.4763  0.5039
  594MOL0     C81884   5.441   5.577  13.439 -1.0182  0.3395 -0.0455
  594MOL0     N81885   5.314   6.050  12.741  0.3773 -0.2053  1.0580
  594MOL0     N81886   5.300   6.157  12.669 -0.0632  0.4717 -0.2037
  594MOL0     C81887   5.595   6.577  11.712  0.2024  0.3912 -0.1258
  594MOL0     C81888   5.642   6.637  11.598 -0.2214  0.3877  0.2090
  594MOL0     C81889   5.831   6.795  11.226 -0.4856  0.2635  0.7646
  594MOL0     C81890   5.783   6.728  11.108  0.0101  0.1243  0.2974
  594MOL0     C81891   5.796   6.791  10.991  0.2390 -0.0161  0.3562
  594MOL0     C81892   5.849   6.918  10.982 -0.2617  0.2868  0.1470
  594MOL0     O81893   5.860   6.957  10.856  0.8866  0.4739 -0.3424
  594MOL0     C81894   5.965   7.044  10.804 -0.0761 -0.6510 -0.1001
  594MOL0     C81895   6.100   6.977  10.803  0.5719 -1.0707  0.4200
  594MOL0     C81896   6.106   6.849  10.736 -0.3682 -0.1028 -0.4461
  594MOL0     C81897   6.249   6.808  10.694  0.0816 -0.1734 -0.8512
  594MOL0     C81898   6.254   6.667  10.643 -0.0939  0.2837 -0.4671
  594MOL0     C81899   6.276   6.555  10.603  0.0291  0.5521 -0.1539
  594MOL0     C81900   5.898   6.985  11.091  0.1212  0.5252  0.2624
  594MOL0     C81901   5.883   6.927  11.216 -0.5400 -0.5310 -0.9746
  594MOL0     C81902   5.921   7.011  11.324  0.2052 -0.2788  0.4770
  594MOL0     H81903   5.744   6.368  11.418  0.9910  1.1257 -1.0274
  594MOL0     H81904   5.663   6.256  11.635 -1.9167  0.6761 -0.0329
  594MOL0     H81905   5.749   6.311  11.913  0.4552  2.7552 -1.8039
  594MOL0     H81906   5.626   6.211  11.840  1.6642 -0.4175  1.1999
  594MOL0     H81907   5.468   6.235  12.024 -0.3333  0.2014  1.8708
  594MOL0     H81908   5.621   6.160  12.087  0.4105 -0.2066 -2.5418
  594MOL0     H81909   5.560   6.454  12.113 -0.6630 -1.0568  1.4325
  594MOL0     H81910   5.495   6.338  12.218 -1.7106 -0.0190 -1.7125
  594MOL0     H81911   5.713   6.255  12.283  1.3038  0.4844  0.8162
  594MOL0     H81912   5.805   6.391  12.200 -0.8876  2.9148 -2.5544
  594MOL0     H81913   5.720   6.565  12.302 -1.1438 -0.2723 -0.4247
  594MOL0     H81914   5.789   6.452  12.421 -0.1026 -1.7453  1.0572
  594MOL0     H81915   5.596   6.544  12.524  0.7674 -1.8964  2.7771
  594MOL0     H81916   5.492   6.495  12.385 -1.2248 -0.1986  1.9487
  594MOL0     H81917   5.641   6.282  12.555 -0.5148 -0.7939  0.2574
  594MOL0     H81918   5.511   6.268  12.429  2.2960 -2.8096  1.3073
  594MOL0     H81919   5.486   6.424  12.688 -1.7488  0.0149 -0.3579
  594MOL0     H81920   5.355   6.392  12.577  1.3406  2.7002 -1.3358
  594MOL0     H81921   5.607   6.178  12.780 -0.3449  1.5570  0.2677
  594MOL0     H81922   5.614   5.956  12.892  0.2078 -1.8962  2.3938
  594MOL0     H81923   5.530   5.842  12.789  1.5231 -1.4554  0.9675
  594MOL0     H81924   5.330   5.864  12.936  0.9102  4.0239 -0.1385
  594MOL0     H81925   5.457   5.750  12.994  1.8906  0.6695  1.6842
  594MOL0     H81926   5.517   5.960  13.147 -1.5411  0.5612  0.4459
  594MOL0     H81927   5.361   6.024  13.089 -1.5062 -0.2467  0.0353
  594MOL0     H81928   5.286   5.918  13.262 -0.9730 -1.4285 -0.6375
  594MOL0     H81929   5.259   5.782  13.163 -1.2476  1.6143  0.3034
  594MOL0     H81930   5.157   5.752  13.358  3.5449  2.6454 -0.8828
  594MOL0     H81931   4.980   5.479  13.503  0.6323 -0.4637 -0.3701
  594MOL0     H81932   4.961   5.647  13.454 -0.3232 -0.8514  0.7145
  594MOL0     H81933   4.985   5.598  13.628  0.0265  0.1838  0.5429
  594MOL0     H81934   5.312   5.360  13.982  0.7980 -0.3239 -0.2671
  594MOL0     H81935   5.274   5.192  14.158  0.0692 -2.4805  1.3866
  594MOL0     H81936   5.046   4.868  14.022  1.5740  0.5727  0.2623
  594MOL0     H81937   5.178   4.758  14.039 -0.3439  1.4241 -4.6176
  594MOL0     H81938   5.014   4.883  14.268 -0.1507  0.5466 -0.6618
  594MOL0     H81939   4.952   4.738  14.192 -1.7151  0.4522  2.4985
  594MOL0     H81940   5.227   4.708  14.270 -1.1137  1.6355 -1.5214
  594MOL0     H81941   5.088   4.603  14.315  2.5791 -1.2329 -4.6683
  594MOL0     H81942   5.182   4.682  14.525  0.5420  1.6331  0.9859
  594MOL0     H81943   5.050   4.787  14.506 -0.4096 -2.8929  1.3915
  594MOL0     H81944   5.339   4.876  14.428 -0.1165 -0.3472  0.1524
  594MOL0     H81945   5.179   4.966  14.429 -0.4696 -0.6121  0.3691
  594MOL0     H81946   5.327   4.829  14.664 -1.9425 -1.1692  1.6648
  594MOL0     H81947   5.175   4.920  14.668  1.0386 -1.5831  2.2434
  594MOL0     H81948   5.271   5.118  14.578 -4.0381 -2.0118  3.3816
  594MOL0     H81949   5.440   5.033  14.572 -0.1765 -0.1395 -1.3198
  594MOL0     H81950   5.456   5.047  14.796  0.7071  2.0685  0.8002
  594MOL0     H81951   5.287   5.063  14.839  3.4573 -2.4608  1.3674
  594MOL0     H81952   5.187   4.901  13.854 -2.8496  0.2925 -0.1048
  594MOL0     H81953   5.239   5.084  13.681 -1.4672 -1.6906  0.1540
  594MOL0     H81954   5.464   5.431  13.587  0.0737 -0.8256 -0.5046
  594MOL0     H81955   5.546   5.559  13.417 -1.0681 -0.4769  0.3703
  594MOL0     H81956   5.537   6.637  11.781 -1.9387 -5.0406  3.4809
  594MOL0     H81957   5.614   6.739  11.577 -1.2940  0.0378 -0.1626
  594MOL0     H81958   5.724   6.636  11.106 -0.3132  0.2718 -3.4519
  594MOL0     H81959   5.762   6.751  10.896  0.1235  0.2849  0.2720
  594MOL0     H81960   5.938   7.073  10.702 -0.0241 -1.1253 -0.2512
  594MOL0     H81961   5.969   7.141  10.853  1.4173 -0.8183  0.1551
  594MOL0     H81962   6.128   6.957  10.906 -2.3445 -2.4885  1.0438
  594MOL0     H81963   6.171   7.041  10.749 -0.5395 -1.8749 -2.1901
  594MOL0     H81964   6.061   6.772  10.799  1.5817 -0.6351  0.3768
  594MOL0     H81965   6.061   6.854  10.637 -0.8620 -0.5402 -0.2494
  594MOL0     H81966   6.319   6.816  10.778 -0.7234 -0.5965 -0.1265
  594MOL0     H81967   6.282   6.884  10.623  2.0646 -0.8158 -0.6946
  594MOL0     H81968   6.293   6.460  10.556  1.5722  0.4599  0.5381
  594MOL0     H81969   5.949   7.079  11.075  1.9802 -0.6117 -0.8649
  594MOL0     H81970   6.025   6.994  11.353  0.5192 -0.3070 -0.6184
  594MOL0     H81971   5.899   7.115  11.298 -2.0054 -0.1071  2.6311
  594MOL0     H81972   5.864   6.986  11.414  2.4504 -1.9271  1.5391
  595MOL0     O81973   7.205   8.995   2.033 -0.0925 -0.4926 -0.5678
  595MOL0     C81974   7.177   9.107   1.996  0.4212  0.8090  0.5643
  595MOL0     O81975   7.038   9.151   1.977 -0.0004  0.0148 -0.4897
  595MOL0     C81976   6.930   9.070   1.960 -0.3052 -0.1369 -1.2623
  595MOL0     C81977   6.927   8.968   1.872  0.6037  0.3300  1.2013
  595MOL0     C81978   6.815   8.884   1.874 -0.8086  0.5032  0.4400
  595MOL0     C81979   6.705   8.900   1.953 -0.1015 -0.6604  0.2999
  595MOL0     O81980   6.603   8.808   1.945 -0.4946  0.1688 -0.8234
  595MOL0     C81981   6.474   8.863   1.938 -0.2968  0.0810  0.2655
  595MOL0     C81982   6.436   8.910   1.794  0.2498 -0.0233 -0.8034
  595MOL0     C81983   6.438   8.798   1.685  0.4608 -0.1616  0.7192
  595MOL0     C81984   6.369   8.858   1.553 -0.4368  0.4865 -0.3420
  595MOL0     C81985   6.373   8.755   1.443 -0.1026  0.1634  0.5732
  595MOL0     C81986   6.270   8.637   1.449  0.9213 -0.9104 -0.4762
  595MOL0     C81987   6.123   8.685   1.412 -0.8970  0.1453 -0.1968
  595MOL0     C81988   6.019   8.567   1.410 -0.1014 -0.0716 -0.1665
  595MOL0     N81989   5.887   8.602   1.350  0.3055  0.4784  0.7181
  595MOL0     C81990   5.835   8.548   1.233 -0.2208 -0.0300  0.7045
  595MOL0     C81991   5.715   8.603   1.227  0.5026 -0.6334 -0.8662
  595MOL0     C81992   5.628   8.598   1.108  0.3470 -0.9012  0.7806
  595MOL0     C81993   5.480   8.591   1.128 -0.5179 -0.1452  0.3723
  595MOL0     C81994   5.399   8.579   0.999  0.3305  0.2102  0.0244
  595MOL0     C81995   5.306   8.694   0.982 -0.0472 -0.2261 -0.3627
  595MOL0     O81996   5.241   8.689   0.855 -1.0055 -0.2462  0.1492
  595MOL0     C81997   5.147   8.778   0.815  1.0169 -0.8126  0.4924
  595MOL0     C81998   5.074   8.757   0.698  0.5007  0.4111  0.8466
  595MOL0     C81999   4.994   8.851   0.640 -0.2091 -0.0474  0.3075
  595MOL0     C82000   4.954   8.829   0.494 -0.4075  0.1313 -0.0779
  595MOL0     C82001   4.988   8.980   0.707  0.2908  0.2850 -0.9213
  595MOL0     C82002   4.923   9.095   0.645 -0.1100 -0.3569 -0.6435
  595MOL0     O82003   4.995   9.206   0.656  1.3887  0.0663  1.3429
  595MOL0     C82004   4.929   9.328   0.674  0.2075 -0.5678  0.1152
  595MOL0     C82005   4.834   9.387   0.593 -0.5525  0.0231 -0.2789
  595MOL0     C82006   4.771   9.509   0.623  0.0226  0.3614 -0.3134
  595MOL0     C82007   4.823   9.588   0.731 -0.9386 -0.5337 -0.3857
  595MOL0     O82008   4.765   9.717   0.732 -0.3726  0.2326 -0.4212
  595MOL0     C82009   4.801   9.805   0.841  0.0867  0.6470  0.3414
  595MOL0     C82010   4.701   9.908   0.871 -0.6961  0.6596 -0.3648
  595MOL0     C82011   4.678   9.998   0.745  0.5869  0.0416  0.1259
  595MOL0     C82012   4.545  10.074   0.755 -0.0001  0.0309  0.3711
  595MOL0     C82013   4.524  10.188   0.656 -1.6277 -0.6749  0.2595
  595MOL0     C82014   4.575  10.320   0.720 -0.3362  0.1522 -0.0245
  595MOL0     C82015   4.552  10.435   0.622  0.5832  0.5555 -1.3169
  595MOL0     C82016   4.655  10.548   0.642  0.6269 -0.7541 -0.6467
  595MOL0    Cl82017   4.806  10.489   0.558 -0.0819  0.0232  0.1150
  595MOL0     C82018   4.942   9.532   0.803  0.1623 -0.2280  0.7388
  595MOL0     C82019   4.983   9.400   0.773 -0.0776 -0.0269 -0.5629
  595MOL0     O82020   4.819   9.081   0.586  0.0792 -0.6364  0.5971
  595MOL0     C82021   5.046   9.000   0.832  0.4397  0.7558  1.6103
  595MOL0     C82022   5.120   8.900   0.881  0.1009 -0.6175  0.1190
  595MOL0     N82023   5.693   8.687   1.338  0.6583  0.5202  0.0695
  595MOL0     N82024   5.797   8.683   1.408  0.2325  0.3128 -0.2410
  595MOL0     C82025   6.713   9.011   2.035  0.4218  0.8901 -0.4270
  595MOL0     C82026   6.821   9.101   2.036  0.0348 -0.0155 -0.6169
  595MOL0     C82027   7.291   9.197   1.975  0.8285  0.2760  0.1476
  595MOL0     C82028   7.424   9.154   1.961 -0.1870 -0.3323  0.5005
  595MOL0     C82029   7.525   9.238   1.910  0.2166 -0.1839  0.8693
  595MOL0     C82030   7.504   9.371   1.886 -0.0981  0.0954 -0.1355
  595MOL0     O82031   7.620   9.442   1.847 -0.0067  0.5417 -0.0161
  595MOL0     C82032   7.617   9.582   1.820  0.8094  0.2584  0.2887
  595MOL0     C82033   7.740   9.616   1.726 -0.4693 -0.3972 -0.6712
  595MOL0     C82034   7.879   9.588   1.791  0.4502  0.1781 -0.8135
  595MOL0     C82035   7.939   9.692   1.876  0.2992 -0.5749 -0.0385
  595MOL0     C82036   7.850   9.724   1.994  0.0223 -0.4917 -0.4703
  595MOL0     C82037   7.794   9.746   2.102  0.2128  0.1975  0.7293
  595MOL0     C82038   7.378   9.415   1.908  0.4221  0.1737 -0.5392
  595MOL0     C82039   7.268   9.340   1.951 -0.3288 -0.0408 -1.0140
  595MOL0     C82040   7.141   9.412   1.978  0.7629 -0.2968 -0.3151
  595MOL0     H82041   7.016   8.952   1.812  0.8045  1.0697  1.2909
  595MOL0     H82042   6.823   8.796   1.811 -0.9921 -0.7369  2.0629
  595MOL0     H82043   6.455   8.945   2.008 -1.7827  0.2795 -0.3313
  595MOL0     H82044   6.420   8.774   1.968  0.5062 -0.3298  0.5162
  595MOL0     H82045   6.336   8.956   1.800  0.3091  0.2057 -1.4703
  595MOL0     H82046   6.497   8.988   1.747  1.2202 -0.4761 -0.3045
  595MOL0     H82047   6.541   8.764   1.677  1.1956  2.2126 -1.0039
  595MOL0     H82048   6.381   8.710   1.717 -0.6628  1.7857  4.7608
  595MOL0     H82049   6.264   8.887   1.563 -0.7074 -0.8621  1.1931
  595MOL0     H82050   6.433   8.939   1.516 -0.0709  1.1084  1.5043
  595MOL0     H82051   6.475   8.716   1.437 -0.2406 -1.1782  4.2332
  595MOL0     H82052   6.347   8.798   1.345  2.4207 -3.1964 -1.8290
  595MOL0     H82053   6.298   8.551   1.387 -0.8185  0.0485 -2.7336
  595MOL0     H82054   6.262   8.600   1.551 -2.5261 -4.0158 -1.6457
  595MOL0     H82055   6.139   8.739   1.319 -1.3199  0.3091 -0.1749
  595MOL0     H82056   6.075   8.760   1.475  1.0388 -0.5701  2.3024
  595MOL0     H82057   6.057   8.492   1.340 -2.0158 -0.3414 -0.9667
  595MOL0     H82058   6.009   8.526   1.511  1.1597 -1.0156 -0.3934
  595MOL0     H82059   5.885   8.485   1.160 -1.0603  0.9192 -0.7252
  595MOL0     H82060   5.658   8.528   1.030 -3.3097  0.1395 -1.8552
  595MOL0     H82061   5.658   8.694   1.065  3.4570 -1.7128  0.9266
  595MOL0     H82062   5.458   8.508   1.196 -0.6823  0.1550  0.6879
  595MOL0     H82063   5.449   8.683   1.177 -0.7936  0.8525 -1.5690
  595MOL0     H82064   5.476   8.588   0.922 -0.2077  3.6408 -0.2976
  595MOL0     H82065   5.343   8.486   0.997  1.0172 -0.1952 -1.8301
  595MOL0     H82066   5.223   8.688   1.053  1.0963 -3.2113  0.8880
  595MOL0     H82067   5.352   8.792   1.001 -0.0786 -0.1781 -0.5333
  595MOL0     H82068   5.095   8.666   0.642  4.0293  1.2633  0.5807
  595MOL0     H82069   4.863   8.769   0.487  0.3920 -1.0994 -0.2706
  595MOL0     H82070   5.035   8.778   0.441  1.9320 -0.8676  4.0233
  595MOL0     H82071   4.948   8.927   0.445 -0.8798 -0.6124 -1.5556
  595MOL0     H82072   4.775   9.343   0.514 -0.6628  2.4864 -1.6515
  595MOL0     H82073   4.683   9.541   0.568  0.2271 -0.4245 -1.1120
  595MOL0     H82074   4.819   9.748   0.932 -0.5529 -2.2850 -1.2542
  595MOL0     H82075   4.889   9.855   0.799 -0.0981  1.0132  0.3896
  595MOL0     H82076   4.610   9.860   0.907  0.8763 -2.6252 -0.3511
  595MOL0     H82077   4.733   9.967   0.958  1.3021 -1.4198  0.4199
  595MOL0     H82078   4.665   9.930   0.660  2.0164  1.3787 -1.2241
  595MOL0     H82079   4.765  10.063   0.740  0.2141  0.4485 -2.3704
  595MOL0     H82080   4.539  10.107   0.859  0.5912  0.5393  0.2530
  595MOL0     H82081   4.469   9.996   0.742 -0.4925  0.0039  2.9413
  595MOL0     H82082   4.570  10.164   0.560  0.0323 -0.9988  1.0866
  595MOL0     H82083   4.419  10.209   0.636 -1.7946 -1.2220  0.5421
  595MOL0     H82084   4.682  10.305   0.738 -0.8839 -3.1009  1.0866
  595MOL0     H82085   4.518  10.345   0.810 -3.0611  2.3744 -2.1717
  595MOL0     H82086   4.452  10.476   0.642  2.0053  3.4306  0.5311
  595MOL0     H82087   4.552  10.401   0.518  0.2062  0.0535 -1.1544
  595MOL0     H82088   4.662  10.571   0.749 -3.7901  0.3245 -0.3769
  595MOL0     H82089   4.622  10.641   0.596  1.3447  0.4930  1.2407
  595MOL0     H82090   4.991   9.595   0.876  1.2115 -1.7403  1.3967
  595MOL0     H82091   5.064   9.352   0.827 -0.6337  0.2365  0.5331
  595MOL0     H82092   5.032   9.094   0.886 -0.5190  0.7130  1.4509
  595MOL0     H82093   5.173   8.917   0.974 -0.6325 -1.1475  0.6490
  595MOL0     H82094   6.635   9.030   2.109  0.8307 -1.2341  0.6105
  595MOL0     H82095   6.834   9.168   2.121 -1.9884 -0.8972  0.4525
  595MOL0     H82096   7.447   9.053   1.993 -1.5011 -0.0324  2.5795
  595MOL0     H82097   7.620   9.193   1.882  0.0960 -0.4519  0.8826
  595MOL0     H82098   7.531   9.613   1.760  1.2056  1.0858  0.1295
  595MOL0     H82099   7.617   9.640   1.913 -2.3594  3.8883 -1.6958
  595MOL0     H82100   7.717   9.722   1.708  0.9918  0.4084  1.7763
  595MOL0     H82101   7.728   9.555   1.636 -2.9016  0.8741 -1.2792
  595MOL0     H82102   7.883   9.500   1.857  0.8147  1.7082  1.3262
  595MOL0     H82103   7.944   9.581   1.703 -3.5480  1.3948 -4.1812
  595MOL0     H82104   7.945   9.785   1.818 -2.1192 -1.3114 -1.6040
  595MOL0     H82105   8.043   9.670   1.900  0.3415 -1.8398 -1.2948
  595MOL0     H82106   7.758   9.756   2.203  1.2659 -1.0473  1.2507
  595MOL0     H82107   7.366   9.522   1.897  0.0923  0.4420  1.9066
  595MOL0     H82108   7.105   9.379   2.076 -2.6080  0.6953 -1.1126
  595MOL0     H82109   7.168   9.518   1.979  0.1917 -0.1502 -0.4455
  595MOL0     H82110   7.062   9.395   1.905 -1.2968  1.6475  1.3528
  596MOL0     O82111  10.459   7.285   2.355  0.5573 -0.5939 -0.1846
  596MOL0     C82112  10.351   7.327   2.385  0.8633  0.4542 -0.2555
  596MOL0     O82113  10.305   7.454   2.358 -0.1967  0.4860 -0.2174
  596MOL0     C82114  10.379   7.558   2.301  0.2566  0.6358  0.4280
  596MOL0     C82115  10.513   7.550   2.264  0.2246  0.5653 -0.0318
  596MOL0     C82116  10.583   7.656   2.217 -0.5666 -0.2172 -0.3279
  596MOL0     C82117  10.521   7.776   2.212  0.1178 -0.2825  0.9710
  596MOL0     O82118  10.598   7.885   2.160 -0.4442  0.3943  0.1785
  596MOL0     C82119  10.579   7.913   2.018  0.0076 -0.2361 -0.1941
  596MOL0     C82120  10.673   7.847   1.922  0.9179 -0.1698  0.5859
  596MOL0     C82121  10.815   7.868   1.963 -1.0415  0.5254 -0.6757
  596MOL0     C82122  10.903   7.787   1.877 -0.6365 -1.0985 -0.6058
  596MOL0     C82123  10.904   7.635   1.917 -0.4113 -0.3982  0.1699
  596MOL0     C82124  11.010   7.549   1.845  1.2751  0.2329  0.4062
  596MOL0     C82125  11.145   7.611   1.811  1.0848 -0.9411  0.2324
  596MOL0     C82126  11.229   7.541   1.705  0.7730  0.0438 -1.6571
  596MOL0     N82127  11.280   7.639   1.598  0.8325 -0.0605  0.4650
  596MOL0     C82128  11.236   7.769   1.565  0.0808 -0.1155  0.1118
  596MOL0     C82129  11.317   7.814   1.465 -0.5318  0.5035 -0.3027
  596MOL0     C82130  11.288   7.952   1.390 -0.5917 -0.2783  0.6751
  596MOL0     C82131  11.384   8.060   1.440 -1.2835  0.0336 -0.5785
  596MOL0     C82132  11.367   8.117   1.588 -0.0498 -0.0201  0.2100
  596MOL0     C82133  11.258   8.225   1.600  0.3139  0.1659 -0.2726
  596MOL0     O82134  11.124   8.174   1.587 -0.7509 -0.5606  0.6674
  596MOL0     C82135  11.033   8.265   1.625 -0.9702 -1.1201 -0.5328
  596MOL0     C82136  10.958   8.233   1.737  0.2993 -0.4681  0.0267
  596MOL0     C82137  10.860   8.328   1.778  0.2500  0.7506 -0.5453
  596MOL0     C82138  10.815   8.294   1.916 -0.2770 -0.3422  0.2267
  596MOL0     C82139  10.845   8.460   1.714  1.7510  0.5273 -0.6156
  596MOL0     C82140  10.747   8.555   1.768  0.2834 -0.4573  1.0662
  596MOL0     O82141  10.793   8.688   1.763 -0.0783 -0.0790  0.1669
  596MOL0     C82142  10.705   8.782   1.806 -0.0261  0.2066  0.0894
  596MOL0     C82143  10.730   8.857   1.925 -0.8330  0.3884 -0.0450
  596MOL0     C82144  10.658   8.969   1.959  0.3166  0.0108  0.2241
  596MOL0     C82145  10.544   8.997   1.878 -0.2895  0.4054  0.4696
  596MOL0     O82146  10.474   9.105   1.920  0.1536  0.1684 -0.1399
  596MOL0     C82147  10.408   9.183   1.814  0.5762  0.7779 -0.1399
  596MOL0     C82148  10.352   9.317   1.869 -1.1587  0.5234 -0.0016
  596MOL0     C82149  10.460   9.408   1.927 -0.0521 -0.3808 -0.2345
  596MOL0     C82150  10.446   9.435   2.080  0.2590 -0.6390  0.3393
  596MOL0     C82151  10.551   9.530   2.145 -0.1763  0.7011 -0.1721
  596MOL0     C82152  10.530   9.674   2.105 -0.1219  0.3201  0.6432
  596MOL0     C82153  10.646   9.762   2.155  1.0072 -0.7675 -0.1584
  596MOL0     C82154  10.631   9.902   2.103 -1.1259  0.7961  0.1456
  596MOL0    Cl82155  10.749  10.005   2.178 -0.3417  0.6346  0.4450
  596MOL0     C82156  10.506   8.915   1.773 -0.5231  0.2997 -0.4035
  596MOL0     C82157  10.585   8.802   1.735 -0.7623  0.1887 -0.0090
  596MOL0     O82158  10.645   8.518   1.813  0.0755  0.3101 -0.3824
  596MOL0     C82159  10.917   8.476   1.597  0.8347 -0.1923  0.4349
  596MOL0     C82160  11.012   8.387   1.559 -0.3417  0.4535 -0.0461
  596MOL0     N82161  11.413   7.709   1.448  1.5621 -0.2926  0.8237
  596MOL0     N82162  11.391   7.611   1.530  0.1642  0.0766 -0.2392
  596MOL0     C82163  10.387   7.789   2.243 -0.0006  0.5593  0.5674
  596MOL0     C82164  10.317   7.680   2.281  0.3953  0.6116 -0.6514
  596MOL0     C82165  10.266   7.233   2.461 -0.4011  0.5474  0.2100
  596MOL0     C82166  10.252   7.095   2.424  0.4123  0.8111 -0.3320
  596MOL0     C82167  10.167   7.011   2.499  0.1654  0.2844  0.1559
  596MOL0     C82168  10.084   7.064   2.601  0.5737 -1.1485  0.5446
  596MOL0     O82169   9.990   6.973   2.653  0.8451  0.1701  0.3862
  596MOL0     C82170   9.878   7.037   2.711 -0.7096 -0.1353 -1.2051
  596MOL0     C82171   9.771   6.935   2.728 -0.1797 -1.0626  0.1481
  596MOL0     C82172   9.708   6.872   2.598  0.7734  0.3322 -0.2109
  596MOL0     C82173   9.612   6.760   2.620  0.4444 -0.7657  0.6417
  596MOL0     C82174   9.665   6.644   2.698 -0.0688 -0.1334 -0.1529
  596MOL0     C82175   9.709   6.554   2.755  0.9203  0.9143 -1.0150
  596MOL0     C82176  10.104   7.197   2.636  0.9452  1.3975  0.6909
  596MOL0     C82177  10.195   7.277   2.582  0.3800 -0.8828  0.1817
  596MOL0     C82178  10.197   7.416   2.643  0.1309  0.5525 -0.9975
  596MOL0     H82179  10.567   7.456   2.258 -2.0851 -0.8441  0.1542
  596MOL0     H82180  10.689   7.644   2.199 -0.3852  0.1306  0.4780
  596MOL0     H82181  10.598   8.018   1.993 -0.6289 -0.6598 -2.7865
  596MOL0     H82182  10.481   7.897   1.974  0.9195 -1.5145 -1.9007
  596MOL0     H82183  10.642   7.742   1.929  1.1736 -0.3273 -0.4268
  596MOL0     H82184  10.657   7.879   1.819 -0.7351  0.4965  1.0199
  596MOL0     H82185  10.843   7.974   1.957  0.6501  0.0228 -2.8519
  596MOL0     H82186  10.826   7.837   2.068  2.1326 -0.5911 -1.2416
  596MOL0     H82187  10.881   7.809   1.772  0.8224  3.1674 -0.1972
  596MOL0     H82188  10.996   7.837   1.903 -1.9420  0.6225  1.0218
  596MOL0     H82189  10.807   7.587   1.902  1.1498 -3.5495 -0.8576
  596MOL0     H82190  10.924   7.624   2.024 -1.4943  0.2599  0.4507
  596MOL0     H82191  11.021   7.451   1.892  3.1170 -0.9819 -2.2911
  596MOL0     H82192  10.968   7.528   1.747  1.7840  1.6654 -0.1522
  596MOL0     H82193  11.196   7.630   1.906 -2.1403  2.7344  1.4720
  596MOL0     H82194  11.131   7.712   1.774 -2.1389 -2.6211 -3.8648
  596MOL0     H82195  11.315   7.487   1.746  0.6705  1.1516  0.1169
  596MOL0     H82196  11.163   7.467   1.660 -2.5714 -0.4257  3.2502
  596MOL0     H82197  11.156   7.826   1.612  1.0646  2.2739 -0.9576
  596MOL0     H82198  11.183   7.981   1.395  0.1260  3.7939 -2.5384
  596MOL0     H82199  11.307   7.931   1.284  0.2072  0.8364  0.5732
  596MOL0     H82200  11.483   8.014   1.436 -0.9334  0.5125  1.2419
  596MOL0     H82201  11.385   8.142   1.368 -0.9606 -1.1941 -2.0177
  596MOL0     H82202  11.347   8.044   1.666 -1.5595  1.0257  0.8535
  596MOL0     H82203  11.462   8.163   1.617  0.5873 -1.5149  0.5838
  596MOL0     H82204  11.274   8.272   1.697  2.6271  2.1962 -1.5131
  596MOL0     H82205  11.276   8.320   1.549  1.3835  0.8545  1.3194
  596MOL0     H82206  10.980   8.145   1.796  1.5505 -0.8403 -0.9654
  596MOL0     H82207  10.764   8.197   1.908  2.9487 -2.1252 -0.3852
  596MOL0     H82208  10.760   8.368   1.975  0.4925  1.8380 -1.6652
  596MOL0     H82209  10.903   8.285   1.981  0.0198 -0.4687 -0.1923
  596MOL0     H82210  10.824   8.843   1.978  0.2205  2.8696 -1.0940
  596MOL0     H82211  10.673   9.033   2.045 -0.3351  0.3103  0.1213
  596MOL0     H82212  10.483   9.201   1.737  0.8142  2.4934  0.4621
  596MOL0     H82213  10.328   9.124   1.767  0.2606  0.9084  0.2230
  596MOL0     H82214  10.307   9.372   1.785 -0.9267  7.3696  3.6267
  596MOL0     H82215  10.275   9.292   1.943  1.2682 -2.8772  1.6101
  596MOL0     H82216  10.459   9.506   1.877  0.0569  0.0798  0.6423
  596MOL0     H82217  10.555   9.356   1.912  0.0277  0.0963 -1.5304
  596MOL0     H82218  10.452   9.339   2.131  1.0982 -2.1868 -2.4847
  596MOL0     H82219  10.343   9.468   2.098  0.1014 -0.3592 -0.9785
  596MOL0     H82220  10.551   9.527   2.255  3.1564 -2.1517 -0.0880
  596MOL0     H82221  10.648   9.493   2.112 -1.6770 -1.1693 -2.8675
  596MOL0     H82222  10.441   9.704   2.161 -0.6762  1.2987 -0.7099
  596MOL0     H82223  10.503   9.679   1.999 -4.2788  0.7839  1.5552
  596MOL0     H82224  10.738   9.717   2.117  0.7134 -0.9153 -0.7067
  596MOL0     H82225  10.649   9.764   2.265 -0.1840 -0.7430 -0.1165
  596MOL0     H82226  10.530   9.928   2.133 -1.9078 -1.3013 -0.5078
  596MOL0     H82227  10.638   9.906   1.994  1.3953 -1.5315  0.1113
  596MOL0     H82228  10.409   8.935   1.729 -0.3889  0.3996 -0.6527
  596MOL0     H82229  10.565   8.746   1.644  0.0777 -0.1100 -0.0101
  596MOL0     H82230  10.891   8.556   1.529 -2.1191 -0.7641  0.7766
  596MOL0     H82231  11.073   8.427   1.479  1.7640  1.0888  1.7872
  596MOL0     H82232  10.343   7.888   2.246 -0.3974  0.3928  0.3921
  596MOL0     H82233  10.211   7.669   2.306  1.1873 -3.8649  1.8574
  596MOL0     H82234  10.308   7.042   2.347  2.2261  1.3835  0.5290
  596MOL0     H82235  10.148   6.907   2.473 -0.8884  0.9444 -1.9096
  596MOL0     H82236   9.912   7.065   2.811 -0.0309 -2.9761 -0.5336
  596MOL0     H82237   9.837   7.125   2.661  0.3111 -0.3177 -2.4213
  596MOL0     H82238   9.700   6.993   2.788  1.2751  1.8129 -0.7030
  596MOL0     H82239   9.817   6.856   2.788 -2.0286 -2.0809  0.3067
  596MOL0     H82240   9.664   6.950   2.535 -0.5012 -0.6743 -0.6171
  596MOL0     H82241   9.797   6.832   2.548  1.0435 -0.2126  0.6918
  596MOL0     H82242   9.576   6.724   2.523 -1.3887 -1.1989  1.4462
  596MOL0     H82243   9.528   6.801   2.676  1.4336 -0.7494  2.1814
  596MOL0     H82244   9.761   6.469   2.795 -1.0205  0.5750  1.0248
  596MOL0     H82245  10.042   7.243   2.712 -1.5322  1.7514 -1.3989
  596MOL0     H82246  10.261   7.486   2.587  1.4604 -1.2460 -1.8537
  596MOL0     H82247  10.092   7.444   2.643 -0.8072 -2.5564 -1.2516
  596MOL0     H82248  10.229   7.429   2.746  1.2068  1.5449 -1.4313
  597MOL0     O82249   8.934   3.013   0.518  0.2884  0.3105 -0.3353
  597MOL0     C82250   8.952   3.025   0.634 -0.8864  0.2736  0.1036
  597MOL0     O82251   8.972   3.138   0.707  0.3561  0.3675 -0.1692
  597MOL0     C82252   8.976   3.257   0.645 -0.6654 -0.3212  0.2610
  597MOL0     C82253   9.044   3.362   0.707 -0.4232  0.2674  0.5964
  597MOL0     C82254   9.046   3.493   0.653 -0.4365  0.5104  0.0488
  597MOL0     C82255   8.971   3.523   0.544  0.6533  0.0944  0.5598
  597MOL0     O82256   8.956   3.655   0.501  0.5604  0.1699  0.1231
  597MOL0     C82257   8.914   3.746   0.600 -0.1039 -1.0868  0.5034
  597MOL0     C82258   8.884   3.882   0.537  0.5543 -0.2427  0.4337
  597MOL0     C82259   9.002   3.968   0.538 -0.9027 -0.2139  0.4676
  597MOL0     C82260   9.041   4.015   0.394 -0.2092  0.4373  0.8516
  597MOL0     C82261   9.104   3.905   0.310 -0.7046 -0.5666 -0.0358
  597MOL0     C82262   9.093   3.954   0.162  0.0885  0.6709 -1.2916
  597MOL0     C82263   9.190   4.073   0.132  0.2915 -0.0475  0.3905
  597MOL0     C82264   9.317   4.021   0.056  0.7876 -1.1644  0.3360
  597MOL0     N82265   9.301   4.027  -0.091 -0.2448 -0.1877 -0.1919
  597MOL0     C82266   9.255   3.915  -0.166  0.9425 -0.1388 -0.4982
  597MOL0     C82267   9.258   3.967  -0.286  0.3243 -0.3552 -0.4307
  597MOL0     C82268   9.208   3.903  -0.410  0.9018  0.3769 -0.5455
  597MOL0     C82269   9.320   3.875  -0.502  0.0378 -0.3865 -0.1519
  597MOL0     C82270   9.277   3.787  -0.623  0.0992 -0.7535 -1.3351
  597MOL0     C82271   9.400   3.724  -0.694  0.8118 -0.2697  0.0379
  597MOL0     O82272   9.503   3.826  -0.726  0.2854  0.0092  0.4615
  597MOL0     C82273   9.515   3.871  -0.852 -0.4128  0.4565 -0.3333
  597MOL0     C82274   9.639   3.927  -0.876  1.2210 -0.4060  0.6233
  597MOL0     C82275   9.663   3.982  -1.001 -0.6346 -0.1463 -0.6362
  597MOL0     C82276   9.802   4.035  -1.031  0.0217  0.4807 -0.5666
  597MOL0     C82277   9.567   3.985  -1.104 -0.3129 -0.4881 -0.6569
  597MOL0     C82278   9.588   4.033  -1.240 -0.2390 -0.0320  0.1251
  597MOL0     O82279   9.494   4.115  -1.289  0.5791  0.6787  0.4077
  597MOL0     C82280   9.532   4.192  -1.389 -0.6778 -0.6474  0.4267
  597MOL0     C82281   9.519   4.148  -1.529 -0.0439 -0.2424  0.2104
  597MOL0     C82282   9.553   4.233  -1.628 -0.6789  0.2898  0.1592
  597MOL0     C82283   9.604   4.360  -1.601  0.0083 -0.3079 -0.4189
  597MOL0     O82284   9.641   4.428  -1.715  0.2184 -0.4597  0.2820
  597MOL0     C82285   9.682   4.571  -1.706  0.3343 -0.6287  0.8195
  597MOL0     C82286   9.561   4.668  -1.710  0.0675  0.1976  0.5286
  597MOL0     C82287   9.600   4.807  -1.651 -0.1490 -0.5393  0.5579
  597MOL0     C82288   9.499   4.915  -1.701 -0.2424 -0.6260 -0.0830
  597MOL0     C82289   9.537   5.051  -1.634 -0.2186  0.6091  0.7100
  597MOL0     C82290   9.430   5.161  -1.662  0.1104 -1.2042  0.9217
  597MOL0     C82291   9.368   5.202  -1.524  0.0771  0.3005  0.8389
  597MOL0     C82292   9.274   5.107  -1.463 -0.3148  0.1808  0.2179
  597MOL0    Cl82293   9.134   5.078  -1.567 -0.3293 -1.0142  0.3686
  597MOL0     C82294   9.622   4.406  -1.471  0.4187 -0.2645 -0.7278
  597MOL0     C82295   9.582   4.324  -1.368 -0.1183  0.0988  0.3011
  597MOL0     O82296   9.696   3.996  -1.296  0.7275 -1.3954  0.5569
  597MOL0     C82297   9.444   3.918  -1.084  0.4459 -0.0137 -0.8190
  597MOL0     C82298   9.421   3.863  -0.948  1.4259  0.8380  0.5108
  597MOL0     N82299   9.297   4.097  -0.287  0.2280 -0.3438  0.7341
  597MOL0     N82300   9.338   4.132  -0.170 -0.3546 -0.0151  0.7130
  597MOL0     C82301   8.908   3.417   0.478  0.3654  0.3516  0.7197
  597MOL0     C82302   8.908   3.289   0.530 -0.2482  0.3773 -0.3584
  597MOL0     C82303   8.950   2.898   0.709  0.2417  0.1218  0.3308
  597MOL0     C82304   8.916   2.907   0.842  0.4167  0.0281 -0.0488
  597MOL0     C82305   8.899   2.802   0.931  0.8360 -0.6084 -0.1800
  597MOL0     C82306   8.922   2.676   0.885 -1.2018  0.3659  0.9203
  597MOL0     O82307   8.894   2.559   0.949 -1.0451 -0.5869 -0.1892
  597MOL0     C82308   8.812   2.570   1.067 -0.3181 -0.2120  0.3067
  597MOL0     C82309   8.785   2.422   1.103 -0.2348 -0.4958  0.1678
  597MOL0     C82310   8.921   2.360   1.153  0.7460  0.5123  0.2553
  597MOL0     C82311   8.933   2.398   1.296  0.0923 -0.2598 -0.7220
  597MOL0     C82312   9.060   2.420   1.351  0.2562 -0.4523  0.5273
  597MOL0     C82313   9.167   2.437   1.400 -0.2436  0.6216  0.0182
  597MOL0     C82314   8.970   2.668   0.755  0.0037  0.1394 -0.3145
  597MOL0     C82315   8.989   2.771   0.666  0.4901  0.0709 -1.0551
  597MOL0     C82316   9.031   2.746   0.523  0.6182 -0.7579  0.1847
  597MOL0     H82317   9.110   3.332   0.787  1.7592  0.8797 -0.8863
  597MOL0     H82318   9.123   3.555   0.699  1.3100 -2.3764  1.2764
  597MOL0     H82319   8.976   3.773   0.686 -2.9167  4.8755  1.1332
  597MOL0     H82320   8.823   3.707   0.646 -1.3338  2.1550  1.0584
  597MOL0     H82321   8.828   3.878   0.443 -1.2742  2.1195  1.2926
  597MOL0     H82322   8.804   3.924   0.600 -2.1072  1.5834 -3.7148
  597MOL0     H82323   8.981   4.058   0.595 -0.1312 -0.6696  1.5113
  597MOL0     H82324   9.089   3.914   0.578 -0.8458  0.6350  1.5215
  597MOL0     H82325   8.942   4.040   0.354 -1.3855 -0.7693  2.8642
  597MOL0     H82326   9.101   4.106   0.398 -0.1414  0.7185 -2.7443
  597MOL0     H82327   9.053   3.810   0.326 -0.2070 -0.6416  1.2417
  597MOL0     H82328   9.208   3.879   0.331 -0.4884 -2.3778 -2.8123
  597MOL0     H82329   9.109   3.867   0.097 -2.0955 -0.3004 -0.6429
  597MOL0     H82330   8.988   3.980   0.144 -0.1364  0.6806 -0.0738
  597MOL0     H82331   9.230   4.123   0.221  2.0125  1.5687 -1.2128
  597MOL0     H82332   9.142   4.146   0.066  3.4191  1.0417 -0.8380
  597MOL0     H82333   9.410   4.075   0.075  0.8596 -0.0898 -2.5946
  597MOL0     H82334   9.340   3.922   0.096  1.3771 -0.1180  2.7721
  597MOL0     H82335   9.226   3.817  -0.129 -2.8999  1.7110  2.1148
  597MOL0     H82336   9.136   3.973  -0.453  1.7988  0.3579 -2.1325
  597MOL0     H82337   9.153   3.813  -0.378  2.6948 -1.0343 -1.2649
  597MOL0     H82338   9.379   3.962  -0.531 -1.8333  1.0308  0.1522
  597MOL0     H82339   9.390   3.815  -0.443 -0.2029  1.1301  1.7407
  597MOL0     H82340   9.220   3.698  -0.595 -0.1273 -0.3488 -0.4659
  597MOL0     H82341   9.215   3.849  -0.688 -1.4075 -1.0157 -0.2025
  597MOL0     H82342   9.440   3.656  -0.619 -2.5549  0.9406  3.2247
  597MOL0     H82343   9.360   3.656  -0.769  0.8257 -0.1834 -0.0495
  597MOL0     H82344   9.707   3.914  -0.792 -1.2782  1.4823  3.1347
  597MOL0     H82345   9.866   3.956  -1.073 -2.0950 -2.3083  1.1317
  597MOL0     H82346   9.854   4.079  -0.945  1.2688 -1.1662 -0.4259
  597MOL0     H82347   9.796   4.106  -1.115 -3.4287  1.3002  0.2572
  597MOL0     H82348   9.472   4.053  -1.551  3.1205 -1.6052 -1.4394
  597MOL0     H82349   9.538   4.195  -1.728 -1.2766 -0.5323  0.5461
  597MOL0     H82350   9.731   4.588  -1.610  2.1934 -0.1962 -0.1391
  597MOL0     H82351   9.750   4.610  -1.783 -0.0291  2.5282  1.9485
  597MOL0     H82352   9.527   4.663  -1.814  0.2223 -3.4868  0.5402
  597MOL0     H82353   9.477   4.625  -1.654 -1.0239  0.0143 -1.1786
  597MOL0     H82354   9.704   4.831  -1.673 -0.9392 -0.4776 -3.9923
  597MOL0     H82355   9.580   4.797  -1.543 -2.0119 -2.4713  0.1151
  597MOL0     H82356   9.394   4.892  -1.681 -1.3313  1.6481 -2.4649
  597MOL0     H82357   9.503   4.932  -1.809 -0.4735  1.5900  0.2120
  597MOL0     H82358   9.549   5.037  -1.526  0.1025  0.2394  0.6279
  597MOL0     H82359   9.635   5.092  -1.662 -1.3071  2.8319 -0.1144
  597MOL0     H82360   9.359   5.118  -1.733 -0.9870  1.6712  0.1381
  597MOL0     H82361   9.472   5.254  -1.700 -0.1491 -2.5042 -2.9596
  597MOL0     H82362   9.313   5.295  -1.541  0.7352  0.5638  0.1394
  597MOL0     H82363   9.452   5.227  -1.459  3.3909  0.0350 -2.9577
  597MOL0     H82364   9.248   5.154  -1.368  0.3393  1.1513 -0.0689
  597MOL0     H82365   9.317   5.009  -1.445 -0.3594 -0.1754 -1.4368
  597MOL0     H82366   9.651   4.508  -1.448 -0.9306  0.5398 -2.4113
  597MOL0     H82367   9.568   4.380  -1.276 -4.0148 -0.1938  0.0688
  597MOL0     H82368   9.370   3.909  -1.163 -2.1416  0.6303  1.3805
  597MOL0     H82369   9.331   3.805  -0.928 -0.8029  4.1576  0.9440
  597MOL0     H82370   8.852   3.443   0.388 -0.1450  2.6803  1.6203
  597MOL0     H82371   8.848   3.211   0.486 -1.1026  0.6610  0.2689
  597MOL0     H82372   8.900   3.005   0.885  1.7689  0.0467  0.4695
  597MOL0     H82373   8.865   2.828   1.031 -0.2277  0.7675 -0.8551
  597MOL0     H82374   8.860   2.625   1.149 -1.0907 -0.3278  0.8405
  597MOL0     H82375   8.731   2.634   1.030  1.4608  1.5621 -0.7329
  597MOL0     H82376   8.748   2.364   1.018  4.5227 -1.0452 -1.8541
  597MOL0     H82377   8.711   2.409   1.183  0.7931 -1.3978  1.0022
  597MOL0     H82378   8.921   2.251   1.140 -2.8292  0.0938  2.2265
  597MOL0     H82379   9.006   2.383   1.088 -0.0808 -1.5762 -1.6929
  597MOL0     H82380   8.867   2.335   1.356  0.2763 -0.9257 -1.2128
  597MOL0     H82381   8.880   2.493   1.314 -0.1508 -0.8475  2.1834
  597MOL0     H82382   9.259   2.465   1.448 -0.9166  2.5197  0.3111
  597MOL0     H82383   8.967   2.564   0.723 -0.4402  1.2587 -4.5864
  597MOL0     H82384   8.949   2.765   0.454 -0.4028  0.6792  1.7299
  597MOL0     H82385   9.113   2.818   0.510 -1.2619  1.3435 -0.5675
  597MOL0     H82386   9.054   2.640   0.508  1.4659 -0.3811 -1.4915
  598MOL0     O82387   2.052   1.738   6.129 -0.5513  0.8479  0.3468
  598MOL0     C82388   1.966   1.649   6.115  0.2985 -0.2410  0.5517
  598MOL0     O82389   1.969   1.551   6.026 -0.4749  0.3709  0.1212
  598MOL0     C82390   2.069   1.560   5.936  0.1946 -0.1149  0.5223
  598MOL0     C82391   2.171   1.467   5.933  0.1258  0.2611  0.3254
  598MOL0     C82392   2.262   1.468   5.824 -0.8345  0.4673  0.6507
  598MOL0     C82393   2.250   1.563   5.721  0.9666 -0.4932  0.8946
  598MOL0     O82394   2.341   1.549   5.626 -0.8815  0.5729  0.9904
  598MOL0     C82395   2.378   1.663   5.542  0.6094  0.9749  0.2303
  598MOL0     C82396   2.496   1.624   5.442  0.4379  1.0788  0.6338
  598MOL0     C82397   2.471   1.481   5.377 -0.4047 -1.0340  0.5457
  598MOL0     C82398   2.581   1.451   5.275  0.8324 -1.0487 -1.0478
  598MOL0     C82399   2.572   1.324   5.209  0.0834  0.1667 -0.5389
  598MOL0     C82400   2.693   1.276   5.141 -0.0996 -0.8077 -0.0694
  598MOL0     C82401   2.670   1.140   5.075  0.3428 -0.3452 -0.5009
  598MOL0     C82402   2.768   1.089   4.967  0.1322  0.3312  0.2210
  598MOL0     N82403   2.911   1.078   5.021  0.5606  0.4164  0.0705
  598MOL0     C82404   2.945   1.062   5.161  1.7280 -0.8485 -0.5204
  598MOL0     C82405   3.070   1.097   5.174  0.0085  0.0640  0.9508
  598MOL0     C82406   3.167   1.117   5.280  0.0421 -0.2206 -0.4106
  598MOL0     C82407   3.148   1.039   5.414 -1.2742 -1.2477  0.9554
  598MOL0     C82408   3.035   1.091   5.507 -0.3225 -0.5406  0.9009
  598MOL0     C82409   3.076   1.227   5.567 -0.0772 -0.6369 -0.6988
  598MOL0     O82410   3.215   1.233   5.606 -0.1080  0.2583 -0.1197
  598MOL0     C82411   3.242   1.351   5.682 -1.2875 -0.0446 -0.3393
  598MOL0     C82412   3.176   1.477   5.667 -0.8503 -0.6078 -0.3936
  598MOL0     C82413   3.227   1.588   5.734  0.4596 -0.2318 -0.0032
  598MOL0     C82414   3.157   1.714   5.707  0.4128 -0.0257 -0.4487
  598MOL0     C82415   3.340   1.575   5.826  0.0352 -0.2826  0.5425
  598MOL0     C82416   3.391   1.691   5.922 -0.3979  1.1254 -1.1399
  598MOL0     O82417   3.487   1.654   6.017  0.0513 -0.5508 -1.0412
  598MOL0     C82418   3.542   1.761   6.080 -0.2891 -0.5862 -0.5090
  598MOL0     C82419   3.660   1.824   6.054  0.1559  0.2916  0.2679
  598MOL0     C82420   3.705   1.933   6.131  0.4849  0.0920  0.9325
  598MOL0     C82421   3.632   1.980   6.239  0.8817 -0.2176 -0.1782
  598MOL0     O82422   3.676   2.087   6.302 -0.2138 -0.4666  0.3131
  598MOL0     C82423   3.757   2.068   6.423 -0.6419  0.4099 -0.5004
  598MOL0     C82424   3.761   2.195   6.514  0.2189 -0.1299  0.1396
  598MOL0     C82425   3.616   2.227   6.542 -0.5154  0.7460  0.5194
  598MOL0     C82426   3.627   2.366   6.617  0.0474  0.1418  0.5947
  598MOL0     C82427   3.517   2.403   6.711  0.6521  0.6258 -0.5879
  598MOL0     C82428   3.374   2.374   6.669 -0.5180  0.2213  0.4892
  598MOL0     C82429   3.275   2.437   6.760  0.1714  0.4399  0.0920
  598MOL0     C82430   3.134   2.383   6.725 -0.0675  0.2429 -0.4676
  598MOL0    Cl82431   3.023   2.500   6.813  0.1576  0.3053  0.1498
  598MOL0     C82432   3.513   1.912   6.276 -0.5500  0.6423 -0.1257
  598MOL0     C82433   3.466   1.807   6.186  0.1565 -1.1714  0.8714
  598MOL0     O82434   3.347   1.800   5.910  0.8177 -0.4974  0.3240
  598MOL0     C82435   3.401   1.452   5.833 -0.1356  0.1875  0.4874
  598MOL0     C82436   3.348   1.342   5.765  0.1515 -0.2529 -0.0726
  598MOL0     N82437   3.111   1.115   5.044  0.2246 -0.9882  0.1612
  598MOL0     N82438   3.016   1.120   4.960 -0.0667 -1.3503  0.5809
  598MOL0     C82439   2.152   1.667   5.723  0.0362  0.0778  0.5921
  598MOL0     C82440   2.061   1.659   5.831  0.2869  0.4022 -0.5992
  598MOL0     C82441   1.856   1.641   6.208 -0.3012 -1.0244 -0.9375
  598MOL0     C82442   1.746   1.562   6.179  0.5383 -0.1808  0.2416
  598MOL0     C82443   1.637   1.548   6.272  0.9360  0.4814  0.9122
  598MOL0     C82444   1.633   1.618   6.387 -0.7403  0.1085  0.2856
  598MOL0     O82445   1.531   1.580   6.473  0.5181 -0.5090 -0.9054
  598MOL0     C82446   1.528   1.626   6.606  0.8053  1.2069 -0.8454
  598MOL0     C82447   1.607   1.550   6.710 -0.4622  0.1388 -0.1098
  598MOL0     C82448   1.760   1.554   6.700 -0.1038 -0.2586 -0.1247
  598MOL0     C82449   1.828   1.448   6.786 -0.0722 -0.5870 -0.2450
  598MOL0     C82450   1.782   1.457   6.926 -0.1775  0.1895 -0.5001
  598MOL0     C82451   1.738   1.455   7.035  0.0939 -0.2235 -0.3372
  598MOL0     C82452   1.738   1.712   6.414 -0.3369 -0.0845 -0.1869
  598MOL0     C82453   1.855   1.722   6.331 -0.8690 -0.1179  0.0922
  598MOL0     C82454   1.968   1.817   6.376  0.7070  0.8663 -0.5030
  598MOL0     H82455   2.166   1.409   6.024 -4.8783  1.7995  1.3705
  598MOL0     H82456   2.345   1.399   5.819  0.2232  1.7941 -1.1029
  598MOL0     H82457   2.392   1.747   5.610 -0.9739  0.6278  1.0347
  598MOL0     H82458   2.294   1.689   5.477  1.9783 -0.9127 -2.5251
  598MOL0     H82459   2.497   1.687   5.352 -1.7506 -0.6092 -0.6651
  598MOL0     H82460   2.598   1.636   5.480  1.1085 -1.7561 -0.0840
  598MOL0     H82461   2.461   1.397   5.446  0.5422  0.5518  2.6979
  598MOL0     H82462   2.379   1.493   5.319  0.2286 -1.2771 -0.5550
  598MOL0     H82463   2.572   1.523   5.194 -2.2337 -3.7101 -3.3317
  598MOL0     H82464   2.676   1.463   5.326 -0.0230 -0.3989  0.4650
  598MOL0     H82465   2.487   1.337   5.142 -1.8728  0.0552  1.7998
  598MOL0     H82466   2.539   1.243   5.275  0.2927 -0.1267 -0.7850
  598MOL0     H82467   2.730   1.343   5.063  0.8951 -1.7095 -0.4059
  598MOL0     H82468   2.765   1.281   5.223 -1.4569  1.0751  1.0895
  598MOL0     H82469   2.574   1.141   5.022 -0.3533 -0.1950  0.7328
  598MOL0     H82470   2.668   1.066   5.155 -2.3479  0.9535  0.7898
  598MOL0     H82471   2.727   0.996   4.927 -1.0623  0.6186  0.7385
  598MOL0     H82472   2.762   1.162   4.885 -2.6004  1.2277  1.0949
  598MOL0     H82473   2.880   1.043   5.246  0.2340  2.0130 -0.8991
  598MOL0     H82474   3.158   1.224   5.301 -3.5028  0.0473 -2.3892
  598MOL0     H82475   3.267   1.089   5.247 -0.2083 -0.5258 -0.9353
  598MOL0     H82476   3.125   0.938   5.382 -1.3242 -0.7572 -0.6705
  598MOL0     H82477   3.241   1.032   5.472  0.3839  2.0726 -0.9652
  598MOL0     H82478   2.941   1.106   5.453  0.0349 -0.6571  0.2308
  598MOL0     H82479   3.024   1.014   5.585 -1.6650  1.7139  3.0738
  598MOL0     H82480   3.043   1.305   5.497 -0.6001  0.7901  1.0426
  598MOL0     H82481   3.010   1.243   5.653  1.2213 -1.0510  0.4116
  598MOL0     H82482   3.083   1.481   5.611 -2.1050  2.8770  1.6362
  598MOL0     H82483   3.234   1.793   5.707 -0.5152  0.9993  1.8112
  598MOL0     H82484   3.090   1.740   5.790  1.4666  1.2256  0.0594
  598MOL0     H82485   3.093   1.716   5.619  1.2402 -0.9901 -1.0919
  598MOL0     H82486   3.719   1.788   5.970 -2.3092 -0.9539 -1.0501
  598MOL0     H82487   3.796   1.981   6.096 -0.6088  0.4122 -1.7321
  598MOL0     H82488   3.727   1.979   6.480  3.6640 -0.0637  1.4763
  598MOL0     H82489   3.860   2.049   6.391 -0.5633  0.7551 -0.4602
  598MOL0     H82490   3.816   2.177   6.606  2.5429  1.6716 -0.7788
  598MOL0     H82491   3.814   2.271   6.456 -2.1305  0.4647 -1.3969
  598MOL0     H82492   3.569   2.150   6.603  0.2976 -0.0070  0.2054
  598MOL0     H82493   3.558   2.235   6.450 -2.1063 -2.6622  1.0765
  598MOL0     H82494   3.643   2.442   6.540 -0.9907  2.0831  2.1989
  598MOL0     H82495   3.715   2.367   6.681  1.1594 -0.2970 -0.8621
  598MOL0     H82496   3.529   2.345   6.803 -3.3047 -1.1736 -1.0003
  598MOL0     H82497   3.538   2.509   6.732  0.4908  0.7924 -1.2552
  598MOL0     H82498   3.357   2.266   6.658  0.2400  0.2726 -1.9299
  598MOL0     H82499   3.363   2.424   6.572 -3.3560 -1.2641 -0.0833
  598MOL0     H82500   3.297   2.543   6.748  2.1843  0.0455  0.0058
  598MOL0     H82501   3.290   2.400   6.862 -2.9482 -2.3471 -0.2829
  598MOL0     H82502   3.122   2.276   6.743 -1.8993 -0.4653 -4.7314
  598MOL0     H82503   3.125   2.388   6.616 -4.3405  0.9058 -0.2597
  598MOL0     H82504   3.470   1.961   6.363  1.7137  2.7607 -0.0786
  598MOL0     H82505   3.370   1.760   6.207 -2.3844  2.0570 -2.2247
  598MOL0     H82506   3.494   1.442   5.888  1.4020 -1.8614 -2.2263
  598MOL0     H82507   3.381   1.244   5.796 -0.7827 -2.0059 -4.0356
  598MOL0     H82508   2.136   1.733   5.639  1.1352 -1.8441 -1.2343
  598MOL0     H82509   1.980   1.727   5.853 -0.7865 -1.4709  1.8372
  598MOL0     H82510   1.741   1.506   6.086  1.0233  0.9860 -0.5024
  598MOL0     H82511   1.560   1.476   6.247 -1.8164  2.9649  1.6503
  598MOL0     H82512   1.558   1.732   6.604 -0.8558  1.8625  2.2929
  598MOL0     H82513   1.423   1.606   6.628  0.9276 -1.4487 -2.2964
  598MOL0     H82514   1.565   1.450   6.713 -0.9089  0.2484 -1.8284
  598MOL0     H82515   1.565   1.589   6.804 -5.0840 -0.9943 -1.4542
  598MOL0     H82516   1.785   1.517   6.600 -0.1380  0.0310 -0.2410
  598MOL0     H82517   1.796   1.656   6.712 -1.9146  0.4970 -0.7458
  598MOL0     H82518   1.935   1.464   6.770  0.1516 -0.7620  0.9826
  598MOL0     H82519   1.790   1.355   6.744 -0.4468 -0.4198 -0.2797
  598MOL0     H82520   1.708   1.445   7.138  1.2200 -3.1842 -0.1952
  598MOL0     H82521   1.733   1.773   6.504  0.0518  2.6941 -1.9188
  598MOL0     H82522   1.944   1.870   6.469  1.1386 -2.5852  1.7613
  598MOL0     H82523   2.064   1.773   6.405  0.5128  0.1916 -0.8712
  598MOL0     H82524   1.981   1.891   6.296  3.2672  0.9278 -0.1092
  599MOL0     O82525   8.373  10.156  11.045 -0.3823  0.0642  0.0463
  599MOL0     C82526   8.335  10.206  11.154  0.5886  0.5430  1.1264
  599MOL0     O82527   8.410  10.210  11.263  0.2417  0.7188 -0.7223
  599MOL0     C82528   8.534  10.165  11.256  0.0591  0.1437  0.6286
  599MOL0     C82529   8.642  10.248  11.223  0.4350  1.2840  1.6933
  599MOL0     C82530   8.774  10.199  11.210  0.7643  0.4782  0.2284
  599MOL0     C82531   8.801  10.065  11.233 -0.2694 -0.6332  0.3474
  599MOL0     O82532   8.938  10.026  11.232  0.1088 -0.1557 -0.5976
  599MOL0     C82533   8.951   9.887  11.174  0.2588 -0.3591 -0.3742
  599MOL0     C82534   9.105   9.857  11.162  0.4534 -1.9123  0.7040
  599MOL0     C82535   9.173   9.878  11.296 -0.4648 -0.0907 -0.1505
  599MOL0     C82536   9.319   9.885  11.279 -0.0341  0.8783 -0.4747
  599MOL0     C82537   9.403   9.891  11.410 -0.9014 -0.8585 -0.6006
  599MOL0     C82538   9.547   9.933  11.374 -0.1420  0.3643  0.2273
  599MOL0     C82539   9.653   9.870  11.457 -0.3475 -0.1420  0.0027
  599MOL0     C82540   9.774   9.967  11.450  0.5445 -0.7821 -0.0771
  599MOL0     N82541   9.895   9.913  11.512  0.4057  0.1517  0.4859
  599MOL0     C82542   9.979   9.812  11.462  0.4307  0.0277  0.8673
  599MOL0     C82543  10.074   9.785  11.550 -0.0190 -0.4401  0.7249
  599MOL0     C82544  10.172   9.671  11.551 -0.5919 -0.0327 -0.4032
  599MOL0     C82545  10.101   9.529  11.565  0.8925 -0.3488  0.4506
  599MOL0     C82546  10.138   9.466  11.696 -0.4834  0.1134 -0.6517
  599MOL0     C82547  10.041   9.350  11.732  0.9699  1.2944 -1.2482
  599MOL0     O82548  10.081   9.227  11.669  0.7986  0.4817  0.1564
  599MOL0     C82549  10.053   9.099  11.721  0.6953  0.2719  0.2591
  599MOL0     C82550  10.155   9.011  11.711  0.3089  0.0639 -0.0221
  599MOL0     C82551  10.143   8.874  11.743 -0.1510 -0.3392  0.2502
  599MOL0     C82552  10.264   8.799  11.733 -0.0835  0.3825 -0.7450
  599MOL0     C82553  10.022   8.827  11.790  0.1173 -1.3438  0.9721
  599MOL0     C82554   9.990   8.689  11.828 -0.8084  0.1529 -0.5574
  599MOL0     O82555   9.917   8.663  11.935  0.5154  0.0829 -0.4280
  599MOL0     C82556   9.906   8.532  11.968 -0.1936  0.0237 -0.9811
  599MOL0     C82557   9.776   8.470  11.983  0.2792  0.2148  0.8785
  599MOL0     C82558   9.750   8.335  11.999 -0.7320  0.2777  0.4002
  599MOL0     C82559   9.869   8.260  12.014  0.4230 -0.9898  0.4666
  599MOL0     O82560   9.874   8.125  12.024 -0.0582  0.8101 -0.1345
  599MOL0     C82561   9.756   8.055  11.974 -0.6825  0.6674  0.6794
  599MOL0     C82562   9.812   7.906  11.964 -0.2472 -0.3527 -1.1537
  599MOL0     C82563   9.721   7.791  11.990 -0.2599  0.1843 -0.2207
  599MOL0     C82564   9.794   7.653  11.983  0.6132 -0.0167  0.2768
  599MOL0     C82565   9.696   7.535  12.020 -0.1807 -0.0738 -0.2435
  599MOL0     C82566   9.766   7.401  12.000  0.6773  0.4046 -0.4049
  599MOL0     C82567   9.881   7.378  12.107  0.3714  0.4117 -0.8491
  599MOL0     C82568   9.847   7.318  12.252 -0.8751  1.2782 -0.5127
  599MOL0    Cl82569   9.746   7.169  12.258 -0.1309  0.5235  0.7584
  599MOL0     C82570   9.998   8.314  12.018 -0.3176 -1.2753 -0.4497
  599MOL0     C82571  10.011   8.450  11.999  0.1267  0.2553  0.9890
  599MOL0     O82572  10.041   8.601  11.761 -0.1335  0.7178  0.1036
  599MOL0     C82573   9.919   8.923  11.809 -0.2082 -0.2790 -0.5076
  599MOL0     C82574   9.937   9.055  11.782 -0.0846  0.0876  0.1166
  599MOL0     N82575  10.046   9.867  11.666 -0.0933  0.6141  0.2349
  599MOL0     N82576   9.937   9.938  11.638 -0.3962  0.2414 -0.0978
  599MOL0     C82577   8.693   9.982  11.266  0.6429  0.6161  0.5685
  599MOL0     C82578   8.563  10.031  11.274  0.5037 -0.2828  0.1962
  599MOL0     C82579   8.200  10.275  11.160  0.3913  0.4178  0.4060
  599MOL0     C82580   8.187  10.398  11.221 -0.2275 -0.3461  0.0623
  599MOL0     C82581   8.065  10.456  11.242  0.4539 -0.9542  0.5239
  599MOL0     C82582   7.951  10.391  11.197 -0.1919 -0.7001  0.4528
  599MOL0     O82583   7.828  10.443  11.215  0.2947 -0.0850  0.0555
  599MOL0     C82584   7.816  10.563  11.290  1.0611 -0.7886 -0.4837
  599MOL0     C82585   7.672  10.577  11.344 -0.0448 -0.3170  0.0326
  599MOL0     C82586   7.684  10.707  11.437  0.4279 -0.5568  0.0745
  599MOL0     C82587   7.560  10.729  11.524  0.4374 -0.0776  0.1844
  599MOL0     C82588   7.595  10.775  11.658  0.3201 -0.9080 -0.4400
  599MOL0     C82589   7.628  10.808  11.768 -0.0087  1.3463  0.7344
  599MOL0     C82590   7.962  10.279  11.127 -0.2120  0.5097  0.4461
  599MOL0     C82591   8.084  10.217  11.103 -1.2091 -0.0684  0.1864
  599MOL0     C82592   8.090  10.088  11.028  0.2205  0.0151  0.0274
  599MOL0     H82593   8.597  10.342  11.194  1.3686  0.9442 -1.1368
  599MOL0     H82594   8.866  10.244  11.174  0.8718 -1.8848 -2.8973
  599MOL0     H82595   8.908   9.885  11.074 -1.6428  1.4708  0.3142
  599MOL0     H82596   8.898   9.815  11.237  1.5847 -0.4832  0.6610
  599MOL0     H82597   9.117   9.752  11.132  1.1487 -1.6686  0.0939
  599MOL0     H82598   9.145   9.914  11.077 -1.5668 -2.7648 -0.9147
  599MOL0     H82599   9.149   9.976  11.337 -2.0398 -0.2359 -0.6885
  599MOL0     H82600   9.149   9.795  11.363  1.7075 -0.6894 -0.0243
  599MOL0     H82601   9.357   9.792  11.235  2.9362  0.9943  1.5248
  599MOL0     H82602   9.353   9.958  11.206  3.9975  1.9506  2.1272
  599MOL0     H82603   9.388   9.806  11.477 -1.5012  1.0277  1.7986
  599MOL0     H82604   9.366   9.974  11.470  2.3159  1.5690 -1.7238
  599MOL0     H82605   9.555   9.902  11.269  3.1795  4.8981 -1.1746
  599MOL0     H82606   9.558  10.041  11.382  1.9076  0.2659 -0.6050
  599MOL0     H82607   9.680   9.772  11.418  1.2237  0.5708 -0.8128
  599MOL0     H82608   9.621   9.868  11.561  1.8795  0.5912  0.7843
  599MOL0     H82609   9.807   9.987  11.347 -0.7195  1.1403 -0.1640
  599MOL0     H82610   9.752  10.065  11.495 -1.4039 -1.3778  0.3413
  599MOL0     H82611   9.972   9.762  11.366  3.7868  1.1166 -0.0693
  599MOL0     H82612  10.239   9.690  11.635 -2.6598  0.7331  1.1779
  599MOL0     H82613  10.221   9.663  11.454  0.0033  1.3526 -0.2391
  599MOL0     H82614   9.993   9.547  11.559  1.1196  0.4410 -3.2684
  599MOL0     H82615  10.112   9.454  11.486 -0.8392 -0.4231  0.2394
  599MOL0     H82616  10.238   9.423  11.696  0.0555  1.3041  0.4574
  599MOL0     H82617  10.139   9.535  11.781  2.4281  0.3500 -0.7992
  599MOL0     H82618  10.040   9.341  11.841  1.0492  0.5690 -1.2991
  599MOL0     H82619   9.936   9.371  11.711  0.4069  3.0459  2.4170
  599MOL0     H82620  10.244   9.055  11.668  0.5886  4.0946  3.9149
  599MOL0     H82621  10.345   8.870  11.720  0.2320  0.5331  1.5191
  599MOL0     H82622  10.262   8.742  11.640  1.5526  1.7735 -1.6785
  599MOL0     H82623  10.272   8.725  11.814  3.2920  1.1637 -0.2268
  599MOL0     H82624   9.696   8.543  11.982  0.5314  0.5005  0.9535
  599MOL0     H82625   9.644   8.311  12.000 -1.0460  1.4789  2.2515
  599MOL0     H82626   9.678   8.054  12.051  2.7806  1.2081  4.5426
  599MOL0     H82627   9.728   8.101  11.879  1.6213  2.2705  0.6988
  599MOL0     H82628   9.859   7.888  11.867 -2.0897 -1.5882 -1.8737
  599MOL0     H82629   9.881   7.913  12.049 -1.2784  2.6959 -0.4294
  599MOL0     H82630   9.650   7.800  11.907 -0.9568  2.2791  0.5357
  599MOL0     H82631   9.665   7.793  12.083  2.2974  0.5242  1.4118
  599MOL0     H82632   9.884   7.661  12.045 -0.6027  2.1463  1.9350
  599MOL0     H82633   9.821   7.640  11.878 -3.1246 -2.0925 -0.5773
  599MOL0     H82634   9.663   7.555  12.123  0.6567  3.8621 -0.5757
  599MOL0     H82635   9.607   7.539  11.957 -1.3770 -0.0010  1.3856
  599MOL0     H82636   9.808   7.400  11.900 -1.9707 -0.0335 -1.6048
  599MOL0     H82637   9.696   7.319  12.014 -1.3711  1.4825 -3.4204
  599MOL0     H82638   9.945   7.466  12.118  1.5378 -0.2354 -2.1234
  599MOL0     H82639   9.944   7.306  12.055  0.2923 -0.9099  0.7853
  599MOL0     H82640   9.796   7.389  12.318 -2.4605  0.8554 -1.2287
  599MOL0     H82641   9.938   7.285  12.302 -2.1200 -1.7215 -0.0355
  599MOL0     H82642  10.084   8.250  12.035  1.0248  0.0301 -1.9878
  599MOL0     H82643  10.114   8.485  12.004  0.4585 -0.5488  0.1496
  599MOL0     H82644   9.823   8.888  11.846 -0.5523 -1.5265 -2.4690
  599MOL0     H82645   9.853   9.121  11.801  0.3730  0.4517  0.9102
  599MOL0     H82646   8.707   9.876  11.288 -0.1190  0.3557 -0.1634
  599MOL0     H82647   8.487   9.962  11.309  2.5134 -1.5787  2.3027
  599MOL0     H82648   8.266  10.458  11.266 -1.4065  1.4226 -0.1412
  599MOL0     H82649   8.058  10.553  11.290  1.3384  0.5695 -2.2071
  599MOL0     H82650   7.872  10.565  11.384  1.1506 -1.3459 -0.5206
  599MOL0     H82651   7.847  10.650  11.231 -0.4289  2.5843  3.2664
  599MOL0     H82652   7.648  10.488  11.403  0.1936 -1.4740 -1.5430
  599MOL0     H82653   7.590  10.586  11.272 -0.6461  1.3993  0.8997
  599MOL0     H82654   7.768  10.704  11.506  1.0356  1.3796 -0.5141
  599MOL0     H82655   7.694  10.798  11.377 -0.1725 -0.7530 -0.3308
  599MOL0     H82656   7.503  10.636  11.533  0.4237 -0.2503 -1.3852
  599MOL0     H82657   7.495  10.801  11.475  1.4736 -0.4891 -1.8978
  599MOL0     H82658   7.647  10.845  11.867  1.8816 -0.0394  0.9435
  599MOL0     H82659   7.870  10.228  11.099 -0.3194  0.4283  0.9302
  599MOL0     H82660   7.993  10.053  10.990  0.6451 -1.6914  0.4487
  599MOL0     H82661   8.161  10.088  10.945 -1.0370  3.0235 -1.2011
  599MOL0     H82662   8.130  10.020  11.103 -0.1944 -0.5940 -0.2889
  600MOL0     O82663   4.580   4.014   1.755 -0.1639 -0.0911 -0.1442
  600MOL0     C82664   4.650   4.083   1.686 -0.3643 -0.3988  0.4636
  600MOL0     O82665   4.763   4.143   1.731 -0.6984 -0.5346 -0.2411
  600MOL0     C82666   4.763   4.190   1.858  0.7269  0.6903 -0.4618
  600MOL0     C82667   4.684   4.301   1.898 -0.2311  0.6295 -0.1135
  600MOL0     C82668   4.701   4.365   2.021  0.4631  0.0284  0.2195
  600MOL0     C82669   4.804   4.321   2.107 -0.5805  0.3112  0.5174
  600MOL0     O82670   4.839   4.381   2.227  0.1660 -1.4834  0.4420
  600MOL0     C82671   4.837   4.526   2.241 -0.3020  0.4475 -0.0827
  600MOL0     C82672   4.950   4.579   2.330  0.8581 -0.1470  0.2399
  600MOL0     C82673   5.086   4.562   2.254  0.0749  0.6280 -0.9340
  600MOL0     C82674   5.105   4.647   2.126  0.3885  1.1105 -1.4846
  600MOL0     C82675   5.253   4.670   2.111  1.2344  0.6352 -0.2911
  600MOL0     C82676   5.297   4.700   1.977  0.0977  0.3778  0.5851
  600MOL0     C82677   5.441   4.744   1.992  0.0524  0.5736  0.8558
  600MOL0     C82678   5.538   4.624   2.030  0.6441  0.1496  0.2987
  600MOL0     N82679   5.643   4.599   1.933 -1.0965 -0.8783  0.1570
  600MOL0     C82680   5.608   4.598   1.796 -0.2564  0.5743 -0.2804
  600MOL0     C82681   5.725   4.582   1.732 -0.4841  0.4173 -0.6411
  600MOL0     C82682   5.749   4.554   1.595  0.3426  1.0584 -0.1833
  600MOL0     C82683   5.663   4.442   1.538  0.9879  0.3741 -0.6256
  600MOL0     C82684   5.707   4.408   1.396 -0.0079  0.2342 -0.4291
  600MOL0     C82685   5.672   4.259   1.379 -0.0099 -0.3662  0.0692
  600MOL0     O82686   5.530   4.246   1.402 -0.5835  0.7802 -0.3392
  600MOL0     C82687   5.433   4.264   1.303 -0.1041  0.7860 -0.3406
  600MOL0     C82688   5.446   4.325   1.172  0.2834  0.3551 -0.1839
  600MOL0     C82689   5.335   4.359   1.099  0.0323 -0.1129  0.4017
  600MOL0     C82690   5.359   4.412   0.959  1.0510  1.5866 -0.0952
  600MOL0     C82691   5.208   4.351   1.162 -0.3091  0.1827  0.8166
  600MOL0     C82692   5.084   4.414   1.098 -0.4916 -0.6439 -0.0579
  600MOL0     O82693   4.966   4.370   1.169  0.0849 -0.0408  0.0525
  600MOL0     C82694   4.858   4.446   1.153  0.7744 -0.4459  0.7275
  600MOL0     C82695   4.791   4.441   1.022 -0.2784  0.3050  0.1471
  600MOL0     C82696   4.681   4.532   0.999 -0.7007  0.0393  0.1866
  600MOL0     C82697   4.622   4.595   1.105  0.5532  1.1327 -0.0235
  600MOL0     O82698   4.503   4.664   1.100  0.3383  0.0513  0.3674
  600MOL0     C82699   4.452   4.714   0.977  0.3328 -1.3360  0.0834
  600MOL0     C82700   4.346   4.822   1.005 -0.5522 -0.4121 -0.1163
  600MOL0     C82701   4.408   4.957   1.043 -0.4393 -0.4892 -0.0327
  600MOL0     C82702   4.466   4.972   1.184 -0.3899 -0.7968 -0.3079
  600MOL0     C82703   4.484   5.130   1.221  0.7887  0.2945 -0.9288
  600MOL0     C82704   4.477   5.144   1.367 -0.1143  0.5720 -0.3134
  600MOL0     C82705   4.456   5.287   1.412  0.0898  0.1115 -0.1398
  600MOL0     C82706   4.591   5.362   1.448  0.5961  0.1425  0.7905
  600MOL0    Cl82707   4.693   5.278   1.557  0.4674  0.1724 -0.5001
  600MOL0     C82708   4.688   4.605   1.223 -0.3089 -0.4026  0.5842
  600MOL0     C82709   4.809   4.541   1.244 -0.6188  0.3473 -0.0562
  600MOL0     O82710   5.083   4.506   1.009  0.3617  0.3485 -0.3272
  600MOL0     C82711   5.192   4.272   1.271  0.3020  0.5294  0.7005
  600MOL0     C82712   5.306   4.228   1.339 -0.4372 -0.9061  0.1002
  600MOL0     N82713   5.824   4.595   1.826  0.4426  0.2228  0.1344
  600MOL0     N82714   5.778   4.601   1.949  0.1244 -1.1235  0.3328
  600MOL0     C82715   4.877   4.209   2.067  1.2425 -0.2668 -0.3279
  600MOL0     C82716   4.863   4.142   1.946  0.0370  0.4891 -0.5924
  600MOL0     C82717   4.611   4.094   1.544 -0.4830  1.0788 -0.0756
  600MOL0     C82718   4.629   4.218   1.474 -0.2723  0.9601  0.0477
  600MOL0     C82719   4.581   4.234   1.348 -0.1094  0.9787  0.0325
  600MOL0     C82720   4.528   4.129   1.286 -0.3845  0.3061  0.5703
  600MOL0     O82721   4.482   4.138   1.155 -0.2447  0.4621  0.1720
  600MOL0     C82722   4.470   4.273   1.098 -0.8325  0.5115  0.0038
  600MOL0     C82723   4.420   4.259   0.954  0.2610  0.5966  0.4340
  600MOL0     C82724   4.529   4.202   0.858  0.9126 -0.3193  0.0830
  600MOL0     C82725   4.529   4.048   0.837 -0.0855 -0.6953 -0.3812
  600MOL0     C82726   4.644   4.002   0.756 -0.1471 -0.3571  0.4915
  600MOL0     C82727   4.740   3.985   0.683 -0.5078 -0.2189  0.1485
  600MOL0     C82728   4.517   4.001   1.342  0.3987 -0.2342 -0.5657
  600MOL0     C82729   4.563   3.981   1.475 -0.1327  1.3602  1.0049
  600MOL0     C82730   4.564   3.843   1.523 -0.3037  0.1412  0.1143
  600MOL0     H82731   4.603   4.334   1.833 -0.4299  2.6341  1.0918
  600MOL0     H82732   4.634   4.448   2.041 -0.8715 -0.4212 -2.0512
  600MOL0     H82733   4.740   4.560   2.280 -0.4248 -0.1237  0.1199
  600MOL0     H82734   4.846   4.566   2.140  1.2446 -1.0960 -0.6039
  600MOL0     H82735   4.940   4.684   2.360  1.0120 -0.6340  2.1644
  600MOL0     H82736   4.945   4.517   2.420  0.4057 -3.4166 -1.8533
  600MOL0     H82737   5.161   4.590   2.328  0.9516  0.1643 -1.6199
  600MOL0     H82738   5.115   4.457   2.240 -2.4907 -0.2099 -0.5628
  600MOL0     H82739   5.064   4.591   2.042 -0.1248 -2.5990  0.9880
  600MOL0     H82740   5.053   4.742   2.138 -1.2028 -0.1153  3.8273
  600MOL0     H82741   5.317   4.586   2.139  1.5722  1.3416  1.1866
  600MOL0     H82742   5.278   4.740   2.191 -0.5228 -0.3791  1.2524
  600MOL0     H82743   5.288   4.607   1.921  0.3048  0.2895  0.6969
  600MOL0     H82744   5.253   4.790   1.933  1.0828  0.8799  0.5977
  600MOL0     H82745   5.455   4.814   2.075  1.2642  2.7760 -1.1304
  600MOL0     H82746   5.483   4.798   1.907 -0.7763 -0.2107 -0.0814
  600MOL0     H82747   5.586   4.651   2.125 -0.4126  1.2888  0.5403
  600MOL0     H82748   5.485   4.531   2.049  0.5593  0.0356 -0.4666
  600MOL0     H82749   5.513   4.587   1.744  0.9282 -4.7423 -2.0252
  600MOL0     H82750   5.851   4.517   1.578  0.0052  0.2654 -0.5484
  600MOL0     H82751   5.725   4.635   1.526  0.9459  0.3540 -1.2675
  600MOL0     H82752   5.659   4.351   1.599  2.8517 -0.7308 -2.0504
  600MOL0     H82753   5.560   4.479   1.538  0.5643 -0.7674 -0.1676
  600MOL0     H82754   5.658   4.453   1.310 -2.4750 -1.0697  0.2017
  600MOL0     H82755   5.815   4.424   1.388 -0.1811  3.0121  1.2986
  600MOL0     H82756   5.698   4.210   1.284 -1.5387 -2.3947  0.6262
  600MOL0     H82757   5.724   4.190   1.446 -0.1665 -1.3923 -0.8328
  600MOL0     H82758   5.548   4.352   1.147  1.2974 -1.3750  1.7372
  600MOL0     H82759   5.450   4.377   0.909 -0.4454 -2.3595 -0.4610
  600MOL0     H82760   5.350   4.520   0.953  1.0653  1.7161  1.6163
  600MOL0     H82761   5.281   4.358   0.905  1.0718  2.1418 -0.6828
  600MOL0     H82762   4.822   4.378   0.939 -0.7585  2.0937 -1.4764
  600MOL0     H82763   4.644   4.538   0.897 -1.6594  4.4574  0.5722
  600MOL0     H82764   4.535   4.753   0.917 -0.7002 -0.3820 -0.7591
  600MOL0     H82765   4.400   4.636   0.920 -4.0069  2.4586 -1.7934
  600MOL0     H82766   4.284   4.852   0.920 -0.0128  0.3403 -0.2557
  600MOL0     H82767   4.277   4.781   1.079 -0.9883  2.1137  0.9673
  600MOL0     H82768   4.329   5.026   1.011 -2.9107 -2.9853  0.1909
  600MOL0     H82769   4.495   4.983   0.982  0.0954 -1.5229  0.2741
  600MOL0     H82770   4.562   4.921   1.197  0.7893  1.9492  3.8632
  600MOL0     H82771   4.394   4.930   1.254 -2.3515  2.3364 -0.2316
  600MOL0     H82772   4.574   5.182   1.187  1.1749  1.1844  1.2795
  600MOL0     H82773   4.402   5.193   1.185  0.4596  0.3473 -0.1153
  600MOL0     H82774   4.564   5.097   1.413 -1.8756 -0.5720  2.0717
  600MOL0     H82775   4.389   5.094   1.409 -0.3681 -0.2511 -1.7676
  600MOL0     H82776   4.389   5.301   1.497 -2.3159  0.1990 -1.9406
  600MOL0     H82777   4.406   5.341   1.331 -1.5829 -0.5976  0.3818
  600MOL0     H82778   4.576   5.456   1.502  0.3459 -0.3253  1.5374
  600MOL0     H82779   4.655   5.384   1.361 -0.8084  0.5365 -0.1818
  600MOL0     H82780   4.640   4.656   1.306  1.5878  2.3880  0.1095
  600MOL0     H82781   4.863   4.556   1.337  1.4855 -2.3562 -0.6667
  600MOL0     H82782   5.093   4.243   1.305 -3.3101  4.9392 -4.3031
  600MOL0     H82783   5.295   4.184   1.438  1.3168 -1.0216  0.2643
  600MOL0     H82784   4.958   4.167   2.126  1.3634 -0.6323 -0.7530
  600MOL0     H82785   4.938   4.072   1.912 -1.4219 -0.4239 -2.1028
  600MOL0     H82786   4.668   4.299   1.535  1.5584  0.8355 -0.8615
  600MOL0     H82787   4.587   4.333   1.305 -0.9089 -0.0760 -2.7025
  600MOL0     H82788   4.403   4.334   1.159 -2.3981 -1.7849  0.7608
  600MOL0     H82789   4.570   4.316   1.089 -0.7733  0.1138 -1.4453
  600MOL0     H82790   4.388   4.360   0.928  0.5751  2.0977  4.9457
  600MOL0     H82791   4.334   4.192   0.949  1.0387 -0.5783  1.7222
  600MOL0     H82792   4.519   4.236   0.755  0.2545 -4.2785 -1.3279
  600MOL0     H82793   4.625   4.231   0.901  1.7883 -2.3106 -0.4090
  600MOL0     H82794   4.437   4.016   0.785 -0.3285  1.7110 -1.5729
  600MOL0     H82795   4.541   3.990   0.929  0.5780 -0.5321 -0.3637
  600MOL0     H82796   4.822   3.949   0.625 -1.1641 -1.8352  0.1658
  600MOL0     H82797   4.467   3.932   1.275  0.1435  1.2444 -1.9690
  600MOL0     H82798   4.467   3.804   1.555 -1.3534  1.2055 -1.6034
  600MOL0     H82799   4.606   3.785   1.440  0.5246  0.0287  0.5985
  600MOL0     H82800   4.648   3.828   1.592  0.9820 -2.3745 -1.8299
  601MOL0     O82801   0.025   4.700   3.444 -0.0963 -0.1520 -0.1625
  601MOL0     C82802   0.029   4.641   3.334 -0.1395  0.1797 -0.7131
  601MOL0     O82803   0.053   4.507   3.321  0.4104 -0.0998  0.4622
  601MOL0     C82804   0.083   4.426   3.424 -0.1694 -0.1953  0.3430
  601MOL0     C82805  -0.011   4.372   3.505 -0.0275 -0.2366 -0.9324
  601MOL0     C82806   0.017   4.277   3.611 -0.5273  0.8863 -0.8218
  601MOL0     C82807   0.149   4.230   3.631 -1.1950  1.0718 -0.0793
  601MOL0     O82808   0.185   4.146   3.733 -0.0698 -0.3740 -0.0091
  601MOL0     C82809   0.293   4.185   3.817 -0.1915  0.0521 -0.0133
  601MOL0     C82810   0.288   4.337   3.841  0.2012  0.8490  0.2793
  601MOL0     C82811   0.371   4.376   3.968 -0.2926 -0.1005 -1.1286
  601MOL0     C82812   0.277   4.379   4.092  1.4720 -0.1010 -0.2678
  601MOL0     C82813   0.371   4.400   4.207  0.0170  0.4031  0.1367
  601MOL0     C82814   0.297   4.415   4.333  0.4788 -0.5625 -0.4306
  601MOL0     C82815   0.384   4.431   4.461 -0.1529 -0.1520  0.0495
  601MOL0     C82816   0.301   4.438   4.588 -0.5502  0.2994  0.6366
  601MOL0     N82817   0.208   4.555   4.586  0.0007 -0.4715  0.2845
  601MOL0     C82818   0.077   4.543   4.549 -1.1566 -0.9378 -0.7443
  601MOL0     C82819   0.046   4.672   4.520  0.0187  0.0965 -0.2966
  601MOL0     C82820  -0.098   4.716   4.483  0.2686 -0.7497  0.4153
  601MOL0     C82821  -0.095   4.760   4.343  1.2683 -0.6248  0.9805
  601MOL0     C82822  -0.225   4.834   4.306  0.4800  1.0768  0.8288
  601MOL0     C82823  -0.216   4.912   4.176 -0.2050  0.4431  0.1799
  601MOL0     O82824  -0.354   4.955   4.140  0.2885 -0.2108  0.1308
  601MOL0     C82825  -0.392   5.090   4.130  0.0265 -0.4223  0.1907
  601MOL0     C82826  -0.516   5.092   4.069 -0.3552 -0.3231 -0.3800
  601MOL0     C82827  -0.557   5.213   4.005  0.7575  0.4756 -0.6348
  601MOL0     C82828  -0.672   5.195   3.904  0.6540 -0.4132  0.2430
  601MOL0     C82829  -0.505   5.334   4.042 -0.1266 -1.0318  0.3046
  601MOL0     C82830  -0.576   5.465   4.016 -0.4288  0.4959 -0.6069
  601MOL0     O82831  -0.499   5.573   3.994 -0.6167  0.3832  0.8252
  601MOL0     C82832  -0.564   5.682   3.941 -0.0834 -0.0113  1.5444
  601MOL0     C82833  -0.547   5.804   3.985  0.2059 -0.0859  1.0404
  601MOL0     C82834  -0.607   5.918   3.932 -0.4262  0.0910 -0.5896
  601MOL0     C82835  -0.674   5.909   3.807 -0.6526  0.3777 -1.0285
  601MOL0     O82836  -0.721   6.029   3.755  0.6148  0.4660 -0.3447
  601MOL0     C82837  -0.822   6.012   3.652 -1.1708  0.3941  0.8250
  601MOL0     C82838  -0.874   6.158   3.643 -0.6051 -0.1405 -0.0752
  601MOL0     C82839  -0.805   6.249   3.536  0.3094 -1.1249 -0.3838
  601MOL0     C82840  -0.658   6.283   3.558  0.4128  0.5007  0.3258
  601MOL0     C82841  -0.620   6.384   3.673 -0.5457 -0.6229  0.2153
  601MOL0     C82842  -0.472   6.373   3.726  0.3891  0.6986  0.6338
  601MOL0     C82843  -0.446   6.471   3.841 -0.4507  0.1183 -0.5650
  601MOL0     C82844  -0.499   6.416   3.981  0.5840 -0.1643 -0.5435
  601MOL0    Cl82845  -0.491   6.542   4.104  0.0748  0.8856  0.0246
  601MOL0     C82846  -0.687   5.779   3.758  0.6564  1.1083 -0.2675
  601MOL0     C82847  -0.628   5.671   3.818  1.1608  0.4067  0.4563
  601MOL0     O82848  -0.701   5.465   4.023 -0.0557  0.0450  0.7479
  601MOL0     C82849  -0.380   5.321   4.108  0.1439 -0.3489 -0.7988
  601MOL0     C82850  -0.318   5.204   4.149 -1.0956 -0.1191 -0.1345
  601MOL0     N82851   0.152   4.755   4.556 -0.2783 -0.6884 -0.0703
  601MOL0     N82852   0.244   4.679   4.603 -0.1848  0.0981 -0.0090
  601MOL0     C82853   0.247   4.277   3.543 -0.4442 -0.2289 -0.3458
  601MOL0     C82854   0.213   4.373   3.446 -0.4354 -0.8753  0.6262
  601MOL0     C82855   0.033   4.718   3.212 -0.1492 -0.2686 -0.0248
  601MOL0     C82856   0.084   4.654   3.100 -0.3549 -0.0532  1.2133
  601MOL0     C82857   0.066   4.712   2.969 -0.5315 -0.8726  0.3776
  601MOL0     C82858  -0.009   4.831   2.957 -0.3004  0.0260 -0.3243
  601MOL0     O82859  -0.017   4.904   2.840  0.0407 -0.4597  0.3985
  601MOL0     C82860  -0.101   4.850   2.735  0.3503  0.6131 -0.6878
  601MOL0     C82861  -0.202   4.948   2.672  0.2202 -0.0338  0.0109
  601MOL0     C82862  -0.124   5.037   2.575  0.1418 -0.6770  0.3183
  601MOL0     C82863  -0.206   5.133   2.490  0.3681 -1.0210 -0.8285
  601MOL0     C82864  -0.309   5.217   2.562 -0.1822  0.4728  0.4953
  601MOL0     C82865  -0.386   5.292   2.617  0.2182 -1.1019 -0.3626
  601MOL0     C82866  -0.054   4.896   3.074 -0.3738  0.4871  0.4306
  601MOL0     C82867  -0.034   4.841   3.199 -0.2565 -0.5429  0.9148
  601MOL0     C82868  -0.114   4.920   3.297  1.0224  0.6241  0.0911
  601MOL0     H82869  -0.113   4.408   3.500 -0.5775 -1.6585 -0.6018
  601MOL0     H82870  -0.058   4.258   3.687  1.0457 -1.4736  0.2530
  601MOL0     H82871   0.375   4.167   3.746 -0.8948  0.1839 -0.8823
  601MOL0     H82872   0.293   4.121   3.905  0.8991 -1.9393 -1.3729
  601MOL0     H82873   0.330   4.393   3.756  2.3752 -1.5520 -0.3712
  601MOL0     H82874   0.183   4.365   3.849 -0.9315 -1.0853 -4.4562
  601MOL0     H82875   0.449   4.300   3.977 -2.0869 -1.9630 -0.4162
  601MOL0     H82876   0.416   4.475   3.962  0.2550  0.0087  2.4631
  601MOL0     H82877   0.210   4.464   4.082  3.1588  1.4833  1.0907
  601MOL0     H82878   0.228   4.284   4.115  4.3834 -1.5729  0.3771
  601MOL0     H82879   0.435   4.489   4.201  0.5350  0.0155 -0.2613
  601MOL0     H82880   0.436   4.312   4.206 -2.0875 -1.3093 -3.0674
  601MOL0     H82881   0.230   4.501   4.325 -0.8839 -1.4321  1.0281
  601MOL0     H82882   0.227   4.331   4.348 -0.1021  0.2466  1.8051
  601MOL0     H82883   0.433   4.528   4.447 -1.5131  0.5684  0.0507
  601MOL0     H82884   0.458   4.351   4.465 -0.1296 -0.2551 -1.5488
  601MOL0     H82885   0.247   4.344   4.602  0.5838 -0.2190  1.7590
  601MOL0     H82886   0.366   4.462   4.673  0.1706  0.3554  0.0820
  601MOL0     H82887   0.017   4.454   4.536 -2.9329 -0.0108  0.6259
  601MOL0     H82888  -0.124   4.801   4.547  1.9307  0.3341 -0.2829
  601MOL0     H82889  -0.158   4.625   4.489  0.5890 -1.6357 -4.8461
  601MOL0     H82890  -0.015   4.834   4.330  0.3514  0.0933 -0.8726
  601MOL0     H82891  -0.086   4.677   4.272  1.5988 -0.5163  0.8965
  601MOL0     H82892  -0.309   4.764   4.304 -0.1883  1.8248  1.6645
  601MOL0     H82893  -0.252   4.906   4.384  0.2734  2.5474 -0.5552
  601MOL0     H82894  -0.152   5.000   4.188 -0.8910  0.9366  0.2728
  601MOL0     H82895  -0.165   4.844   4.108  0.1262 -3.2617  3.7823
  601MOL0     H82896  -0.570   4.999   4.057 -1.4993  0.4073 -1.1606
  601MOL0     H82897  -0.657   5.108   3.839  0.6441  1.3825 -2.3349
  601MOL0     H82898  -0.669   5.283   3.839 -0.7264  0.7785  1.7348
  601MOL0     H82899  -0.769   5.206   3.953  0.2685  1.7308 -0.8619
  601MOL0     H82900  -0.477   5.807   4.068 -0.3049 -0.8610  1.5168
  601MOL0     H82901  -0.586   6.015   3.976  1.8588 -1.1154  1.2451
  601MOL0     H82902  -0.766   5.988   3.561 -1.9051 -0.8319  0.6772
  601MOL0     H82903  -0.903   5.945   3.683  1.7770 -2.6265  2.7051
  601MOL0     H82904  -0.979   6.140   3.619 -1.2529  0.2725  2.2013
  601MOL0     H82905  -0.875   6.214   3.737  0.3425  1.6964 -1.0809
  601MOL0     H82906  -0.853   6.347   3.535  1.1810 -0.6854  0.0764
  601MOL0     H82907  -0.814   6.199   3.439 -0.1700 -1.3906 -0.2072
  601MOL0     H82908  -0.644   6.341   3.466  0.0553  0.3602  0.1825
  601MOL0     H82909  -0.597   6.192   3.557  0.1578  0.2723 -2.2164
  601MOL0     H82910  -0.633   6.483   3.628 -3.3626 -1.5228 -1.1654
  601MOL0     H82911  -0.687   6.365   3.758 -2.2492  1.0907 -0.6552
  601MOL0     H82912  -0.410   6.393   3.638 -2.4516  2.6699 -1.1030
  601MOL0     H82913  -0.450   6.271   3.758 -2.4791  0.3352  1.7124
  601MOL0     H82914  -0.501   6.562   3.814 -1.4270 -0.2907 -0.0147
  601MOL0     H82915  -0.341   6.479   3.868 -1.1063 -2.5646  3.8983
  601MOL0     H82916  -0.445   6.327   4.017 -1.1623 -1.0710 -0.0233
  601MOL0     H82917  -0.603   6.399   3.951  0.1384  0.1038  0.7680
  601MOL0     H82918  -0.738   5.763   3.664  0.4133 -1.6885  0.2574
  601MOL0     H82919  -0.633   5.569   3.780 -0.7106  0.6528 -0.0333
  601MOL0     H82920  -0.334   5.415   4.134 -0.6411 -0.0132 -0.5970
  601MOL0     H82921  -0.219   5.199   4.194 -1.0175  0.9813 -0.1441
  601MOL0     H82922   0.353   4.253   3.549  0.5955  3.8872  0.8066
  601MOL0     H82923   0.293   4.410   3.384 -0.9234 -0.2136  0.3737
  601MOL0     H82924   0.116   4.550   3.096 -3.2390 -1.0085  1.0336
  601MOL0     H82925   0.106   4.660   2.882  0.3860  1.2861 -0.5804
  601MOL0     H82926  -0.035   4.813   2.657  0.1853  0.2330 -0.6509
  601MOL0     H82927  -0.154   4.763   2.774 -0.7584  2.5210  2.5123
  601MOL0     H82928  -0.248   5.007   2.751  0.6375 -1.6208  1.5208
  601MOL0     H82929  -0.280   4.890   2.621 -0.2320  0.8118 -0.2720
  601MOL0     H82930  -0.065   5.107   2.634 -0.7060  0.8928 -0.6154
  601MOL0     H82931  -0.081   4.969   2.502  1.8209 -0.9338  1.4968
  601MOL0     H82932  -0.266   5.077   2.419  1.6637 -0.1815 -2.6782
  601MOL0     H82933  -0.138   5.186   2.422  0.6113  0.1673  0.3024
  601MOL0     H82934  -0.450   5.373   2.646  0.0417 -0.9033 -1.2646
  601MOL0     H82935  -0.092   4.996   3.060 -1.4420 -0.0169 -0.3539
  601MOL0     H82936  -0.211   4.945   3.253  1.5562  2.0112 -0.3437
  601MOL0     H82937  -0.140   4.858   3.383  3.7371 -0.8512 -0.0165
  601MOL0     H82938  -0.060   5.005   3.338 -0.6075  1.7299  0.0263
  602MOL0     O82939   6.857   3.039   9.859 -0.2700 -0.1919 -0.3312
  602MOL0     C82940   6.864   2.939   9.920  0.3985  0.4490 -0.4748
  602MOL0     O82941   6.772   2.903  10.022  0.0672  0.6179  0.3379
  602MOL0     C82942   6.675   3.001  10.045 -0.4778  1.0769  0.4746
  602MOL0     C82943   6.714   3.134  10.080 -0.4846  0.8823  0.5744
  602MOL0     C82944   6.614   3.227  10.097  0.5669 -0.4542 -0.1506
  602MOL0     C82945   6.478   3.195  10.091 -1.0761  0.7049 -0.3483
  602MOL0     O82946   6.402   3.299  10.104  0.5509 -0.2980 -0.7365
  602MOL0     C82947   6.287   3.291  10.188  0.1070 -0.1352 -0.1384
  602MOL0     C82948   6.333   3.297  10.330 -0.0377 -0.7537  0.4189
  602MOL0     C82949   6.391   3.434  10.373 -0.5817  0.4780  0.2345
  602MOL0     C82950   6.287   3.547  10.368  0.3154 -0.5220 -0.5198
  602MOL0     C82951   6.332   3.678  10.429  0.2651  0.4564  0.2857
  602MOL0     C82952   6.204   3.771  10.444  0.0607  0.4747 -0.7562
  602MOL0     C82953   6.229   3.900  10.528  0.9623 -0.2311 -0.3904
  602MOL0     C82954   6.355   3.979  10.503 -0.1902 -0.2678 -0.6061
  602MOL0     N82955   6.333   4.087  10.606 -0.5970 -0.2335  0.1001
  602MOL0     C82956   6.271   4.205  10.577 -0.0655 -0.6414 -1.5549
  602MOL0     C82957   6.274   4.264  10.701 -0.6356  0.0367  0.1916
  602MOL0     C82958   6.232   4.402  10.734  0.1675 -0.0523  1.3925
  602MOL0     C82959   6.282   4.463  10.867 -0.1888  0.5476 -1.0379
  602MOL0     C82960   6.255   4.620  10.875 -0.5265  0.0594  0.3818
  602MOL0     C82961   6.119   4.658  10.831 -0.1008 -0.1651  0.2156
  602MOL0     O82962   6.030   4.575  10.906  0.0073 -0.0477 -0.1906
  602MOL0     C82963   5.895   4.585  10.886 -0.1264 -0.0562 -0.2269
  602MOL0     C82964   5.815   4.563  11.001  0.3898 -0.1083 -0.1349
  602MOL0     C82965   5.679   4.553  10.982  0.7042  0.0416 -0.2557
  602MOL0     C82966   5.602   4.520  11.100  0.1124  0.7139 -0.0237
  602MOL0     C82967   5.621   4.553  10.847 -0.7564  0.6624 -0.4792
  602MOL0     C82968   5.481   4.525  10.817 -0.1571  0.8086 -0.6695
  602MOL0     O82969   5.459   4.466  10.697  0.5676 -0.3899 -0.3658
  602MOL0     C82970   5.329   4.461  10.636 -0.2053 -0.2884  0.3466
  602MOL0     C82971   5.314   4.381  10.521  0.5079  0.9090  0.0794
  602MOL0     C82972   5.191   4.374  10.452  0.3689 -0.3470  1.3116
  602MOL0     C82973   5.081   4.426  10.502  0.6189 -0.0955  0.0577
  602MOL0     O82974   4.962   4.418  10.436  0.2111 -0.3023 -0.2843
  602MOL0     C82975   4.949   4.314  10.330  1.1090  0.3017  0.1089
  602MOL0     C82976   4.799   4.287  10.324 -0.0572  1.0359  0.1726
  602MOL0     C82977   4.706   4.397  10.282  0.1521 -0.1823 -0.6486
  602MOL0     C82978   4.564   4.333  10.262  0.3562  0.3997  0.6502
  602MOL0     C82979   4.453   4.433  10.273 -0.1724 -1.2005 -0.3762
  602MOL0     C82980   4.438   4.493  10.414  0.4562  0.4004  0.2317
  602MOL0     C82981   4.316   4.426  10.485  0.0721  1.2139  0.4294
  602MOL0     C82982   4.286   4.485  10.626 -0.6543  0.7503  0.5470
  602MOL0    Cl82983   4.299   4.659  10.620 -0.6646  0.3180  0.2440
  602MOL0     C82984   5.087   4.505  10.614 -0.1410  0.7021 -0.1575
  602MOL0     C82985   5.207   4.526  10.683 -0.0205  0.4064  0.5061
  602MOL0     O82986   5.391   4.548  10.904 -0.6841 -0.2597  0.4666
  602MOL0     C82987   5.712   4.577  10.739  0.2842 -1.0070  0.5472
  602MOL0     C82988   5.845   4.578  10.757 -0.4588  1.0293  0.1612
  602MOL0     N82989   6.336   4.178  10.792  0.4587  0.7163 -0.5084
  602MOL0     N82990   6.373   4.069  10.736  0.2704  0.7420 -0.1128
  602MOL0     C82991   6.443   3.062  10.070 -1.4262 -0.0484 -0.5424
  602MOL0     C82992   6.540   2.969  10.026  0.4949  0.1204 -0.6850
  602MOL0     C82993   6.985   2.846   9.898  0.3965 -0.5288  0.4143
  602MOL0     C82994   7.004   2.753   9.994 -0.3162  0.1694  0.5169
  602MOL0     C82995   7.109   2.665   9.984  0.5846  0.2780 -0.8219
  602MOL0     C82996   7.203   2.681   9.876  0.9755 -1.0018 -0.4979
  602MOL0     O82997   7.306   2.597   9.860 -0.3016 -0.1641 -0.7272
  602MOL0     C82998   7.256   2.478   9.799 -0.0419  0.9349 -0.4940
  602MOL0     C82999   7.239   2.502   9.655  1.1011  0.0663  0.1699
  602MOL0     C83000   7.376   2.529   9.579 -0.5256  0.8279 -0.6281
  602MOL0     C83001   7.463   2.401   9.561 -1.0908 -0.5945  0.3654
  602MOL0     C83002   7.602   2.417   9.503  0.0369 -0.8210  0.7153
  602MOL0     C83003   7.709   2.446   9.452 -0.0122  1.1292 -0.5220
  602MOL0     C83004   7.191   2.794   9.793 -0.0541 -0.5962 -0.1928
  602MOL0     C83005   7.077   2.867   9.795  1.2848 -0.2622 -0.1190
  602MOL0     C83006   7.054   2.963   9.683 -0.4065  1.1908 -0.2729
  602MOL0     H83007   6.815   3.170  10.099 -0.7024  1.7910  0.0808
  602MOL0     H83008   6.631   3.330  10.126 -3.7859  0.4815 -0.1053
  602MOL0     H83009   6.226   3.206  10.157 -1.3475  0.4966  0.8608
  602MOL0     H83010   6.215   3.368  10.159 -1.7141 -2.0838 -1.1144
  602MOL0     H83011   6.266   3.262  10.409 -0.5623  1.1102  0.8354
  602MOL0     H83012   6.410   3.219  10.332 -0.6831 -1.4734 -1.1543
  602MOL0     H83013   6.443   3.420  10.468  0.9940  0.4671 -0.5950
  602MOL0     H83014   6.467   3.458  10.298 -2.1859  3.0203 -0.7158
  602MOL0     H83015   6.264   3.569  10.264  1.6740  1.2442 -0.5036
  602MOL0     H83016   6.202   3.515  10.428  0.2803  1.1042  0.3655
  602MOL0     H83017   6.408   3.720  10.363  0.1413  0.7321  0.3147
  602MOL0     H83018   6.389   3.665  10.521  1.9274 -0.4384 -0.8142
  602MOL0     H83019   6.172   3.795  10.342 -1.7634 -1.2382 -0.6371
  602MOL0     H83020   6.130   3.723  10.508 -1.3301  1.9624 -1.1665
  602MOL0     H83021   6.219   3.860  10.629  0.2924 -1.9920 -1.0911
  602MOL0     H83022   6.143   3.964  10.507  0.1369 -1.4777 -1.0189
  602MOL0     H83023   6.436   3.916  10.540  0.9251  1.7261  0.5223
  602MOL0     H83024   6.368   4.027  10.405 -0.0206 -0.0823 -0.4935
  602MOL0     H83025   6.231   4.247  10.486 -0.5715  0.2260 -0.9458
  602MOL0     H83026   6.124   4.395  10.719  0.0653 -0.4551  2.2665
  602MOL0     H83027   6.283   4.457  10.654  1.6152 -0.3094  2.1170
  602MOL0     H83028   6.240   4.405  10.950  0.6298  2.5875  0.8999
  602MOL0     H83029   6.390   4.457  10.877 -0.2775  1.8355  1.3939
  602MOL0     H83030   6.274   4.653  10.978  2.6387 -0.9527  0.2205
  602MOL0     H83031   6.338   4.670  10.825  2.1299 -3.2799  1.0835
  602MOL0     H83032   6.095   4.763  10.846 -1.7273 -0.3328 -0.9452
  602MOL0     H83033   6.108   4.634  10.725  0.0068 -1.2301  0.4350
  602MOL0     H83034   5.861   4.571  11.099 -3.7518 -0.5412  2.0577
  602MOL0     H83035   5.657   4.498  11.192 -0.5448 -2.4942 -0.2727
  602MOL0     H83036   5.545   4.430  11.075 -1.1492  1.6017 -0.4481
  602MOL0     H83037   5.532   4.598  11.129  0.6234  0.4303  2.1576
  602MOL0     H83038   5.400   4.327  10.483  0.7319 -0.8186  2.7404
  602MOL0     H83039   5.196   4.321  10.357  1.9978  1.5824  0.2456
  602MOL0     H83040   4.986   4.345  10.232  0.6444  2.9153  0.6887
  602MOL0     H83041   4.996   4.218  10.354 -1.3001 -1.9130 -3.0745
  602MOL0     H83042   4.783   4.212  10.246  0.2677  2.3500 -1.2136
  602MOL0     H83043   4.773   4.245  10.422  4.5799  0.3530  1.3464
  602MOL0     H83044   4.735   4.436  10.184  1.9585  2.6194  0.8381
  602MOL0     H83045   4.701   4.469  10.365  0.0913 -1.5693  0.5896
  602MOL0     H83046   4.544   4.264  10.344 -3.3902 -4.2553 -3.5626
  602MOL0     H83047   4.559   4.294  10.159  2.6033  4.8982 -1.4700
  602MOL0     H83048   4.482   4.513  10.204 -0.8457 -1.4746 -0.9907
  602MOL0     H83049   4.359   4.395  10.232 -0.5389  0.0879 -0.7921
  602MOL0     H83050   4.401   4.595  10.398 -2.8403 -0.3234  2.2426
  602MOL0     H83051   4.533   4.490  10.469  0.7368 -3.0460 -0.2201
  602MOL0     H83052   4.344   4.321  10.501  2.9269  1.6221 -1.3016
  602MOL0     H83053   4.229   4.430  10.419  0.4799  1.5760 -0.0885
  602MOL0     H83054   4.369   4.454  10.691 -1.5584 -1.6849  0.6552
  602MOL0     H83055   4.193   4.451  10.672 -1.0958  0.1680 -0.7491
  602MOL0     H83056   4.988   4.536  10.647  0.0758  0.3023  0.8887
  602MOL0     H83057   5.200   4.595  10.766 -0.8751  0.7527  0.1584
  602MOL0     H83058   5.669   4.596  10.641  0.2038  3.6851  1.2895
  602MOL0     H83059   5.910   4.570  10.670  1.6955  0.1337  1.7365
  602MOL0     H83060   6.340   3.033  10.057 -1.4706 -0.6303  0.9345
  602MOL0     H83061   6.512   2.870   9.990 -1.9401  0.2688  0.6410
  602MOL0     H83062   6.937   2.739  10.078  1.0029 -3.1396  1.1925
  602MOL0     H83063   7.116   2.578  10.048 -2.2367 -0.5938 -1.5520
  602MOL0     H83064   7.331   2.398   9.809 -1.1619  0.0926  2.0154
  602MOL0     H83065   7.170   2.430   9.846  0.7928  0.3064  0.4404
  602MOL0     H83066   7.166   2.582   9.638  1.6009  0.6078  0.5623
  602MOL0     H83067   7.198   2.413   9.605  0.5764  1.6598 -2.4324
  602MOL0     H83068   7.350   2.565   9.479  0.3601  0.7477 -0.8884
  602MOL0     H83069   7.440   2.604   9.626  0.2688 -0.2696  0.0615
  602MOL0     H83070   7.423   2.330   9.487  1.7232 -1.7018 -0.2075
  602MOL0     H83071   7.474   2.354   9.659 -1.4997  0.8583  1.1234
  602MOL0     H83072   7.800   2.473   9.403 -0.1938  0.9725 -0.9468
  602MOL0     H83073   7.266   2.811   9.717 -1.8417  2.4123 -1.4949
  602MOL0     H83074   6.957   2.937   9.640 -0.5662  0.5134  0.4724
  602MOL0     H83075   7.030   3.060   9.727 -4.1257 -0.4943  1.8639
  602MOL0     H83076   7.143   2.954   9.619  0.6295 -2.9674  1.3674
  603MOL0     O83077   2.905   8.194   7.945 -0.3345 -0.5083  0.3441
  603MOL0     C83078   2.870   8.283   7.875  0.1796 -0.3244  0.6098
  603MOL0     O83079   2.826   8.408   7.921 -0.3006 -0.3436  0.1792
  603MOL0     C83080   2.843   8.444   8.050 -0.1214  0.1339 -0.1313
  603MOL0     C83081   2.942   8.533   8.097  0.2323  0.2775  0.6221
  603MOL0     C83082   2.943   8.571   8.238 -0.7558 -0.0219 -0.0656
  603MOL0     C83083   2.862   8.514   8.340  0.0887 -0.0710 -0.5064
  603MOL0     O83084   2.866   8.551   8.471  0.4225 -0.1845  0.1805
  603MOL0     C83085   2.887   8.455   8.577 -1.2741 -0.1049  0.1070
  603MOL0     C83086   2.915   8.532   8.704  0.1273 -1.1442 -0.2851
  603MOL0     C83087   2.940   8.439   8.817 -0.6225  0.2210 -0.3470
  603MOL0     C83088   3.093   8.383   8.797  0.4536 -0.7276 -0.3861
  603MOL0     C83089   3.127   8.303   8.921 -0.7774 -0.2269 -0.0529
  603MOL0     C83090   3.049   8.178   8.936  0.3440  0.5048  0.1119
  603MOL0     C83091   3.096   8.091   9.050  0.1830  0.9503 -0.6804
  603MOL0     C83092   3.055   8.155   9.192  0.0304  0.5566  0.4359
  603MOL0     N83093   2.908   8.130   9.227 -0.6209 -0.4784  0.1786
  603MOL0     C83094   2.846   8.186   9.334 -0.1320  0.0884  0.1216
  603MOL0     C83095   2.714   8.150   9.327  0.3414 -0.1784 -0.0599
  603MOL0     C83096   2.621   8.189   9.443  0.5226  0.3395  0.6032
  603MOL0     C83097   2.694   8.176   9.576  0.3029 -0.6956 -0.3317
  603MOL0     C83098   2.583   8.202   9.691  0.9251  0.9072  0.8850
  603MOL0     C83099   2.436   8.147   9.666 -0.5781 -0.6770  0.0225
  603MOL0     O83100   2.355   8.177   9.783 -0.2157  0.9062 -0.4367
  603MOL0     C83101   2.246   8.260   9.760 -0.0792  0.5575 -0.7519
  603MOL0     C83102   2.129   8.229   9.827  0.8030 -0.5750 -0.3612
  603MOL0     C83103   2.016   8.315   9.824 -0.1786 -0.5763  0.4032
  603MOL0     C83104   1.888   8.265   9.900 -0.1458  0.1995 -0.5499
  603MOL0     C83105   2.029   8.440   9.755  0.1912  0.4487 -0.5100
  603MOL0     C83106   1.920   8.540   9.761 -0.0252 -0.7162  0.0415
  603MOL0     O83107   1.924   8.635   9.659 -0.3490 -0.0864  0.1797
  603MOL0     C83108   1.799   8.695   9.648 -0.4749  0.2012  0.3916
  603MOL0     C83109   1.783   8.831   9.676  0.2001 -0.2460 -0.7195
  603MOL0     C83110   1.656   8.892   9.667  0.5705 -0.1325 -0.2518
  603MOL0     C83111   1.544   8.819   9.635 -0.0127  0.8302  0.7105
  603MOL0     O83112   1.423   8.878   9.597 -0.6446 -1.0272 -0.0253
  603MOL0     C83113   1.308   8.858   9.680  0.0298 -0.7145 -0.2282
  603MOL0     C83114   1.245   8.993   9.692  0.2125 -0.4621  0.1557
  603MOL0     C83115   1.098   8.984   9.748 -0.0936 -0.9877  0.0386
  603MOL0     C83116   1.073   8.921   9.881 -1.1358 -0.1037  0.5340
  603MOL0     C83117   0.924   8.898   9.904 -0.0396  0.2280  0.6685
  603MOL0     C83118   0.895   8.809  10.026 -0.8189  0.2140  0.0302
  603MOL0     C83119   0.757   8.820  10.082 -0.1718 -0.0501  0.4580
  603MOL0     C83120   0.740   8.755  10.217  0.1571  0.8708  0.4474
  603MOL0    Cl83121   0.762   8.571  10.212 -0.0248  0.3802 -0.2892
  603MOL0     C83122   1.555   8.685   9.604  1.2794  0.1203 -0.1917
  603MOL0     C83123   1.686   8.619   9.617  0.0656  0.7386  0.8349
  603MOL0     O83124   1.835   8.532   9.845 -0.4837  0.3576  0.0899
  603MOL0     C83125   2.153   8.471   9.699  0.9052  0.4929  0.4463
  603MOL0     C83126   2.264   8.385   9.702 -0.3931  0.4485 -0.4152
  603MOL0     N83127   2.695   8.100   9.205  0.2360 -0.2843 -0.7616
  603MOL0     N83128   2.808   8.096   9.144  0.3253  0.0418  0.7044
  603MOL0     C83129   2.780   8.407   8.293 -0.0744  0.1627 -0.7551
  603MOL0     C83130   2.765   8.384   8.157  0.6960 -0.4195  0.0339
  603MOL0     C83131   2.871   8.259   7.731 -0.0251  0.7326 -0.6806
  603MOL0     C83132   2.965   8.171   7.675  0.7897 -0.4828 -0.5744
  603MOL0     C83133   2.965   8.156   7.543  0.4047  0.5016  0.4967
  603MOL0     C83134   2.889   8.232   7.462  0.3235 -0.4597  0.2690
  603MOL0     O83135   2.905   8.223   7.328  0.1592  0.3033 -0.2938
  603MOL0     C83136   2.797   8.141   7.270 -0.7233 -0.1067 -0.4651
  603MOL0     C83137   2.826   7.990   7.244  0.2185  0.0741 -0.1986
  603MOL0     C83138   2.892   7.968   7.104 -0.1086 -0.3975  0.4743
  603MOL0     C83139   2.881   7.833   7.029  0.8819  0.1607  0.5039
  603MOL0     C83140   2.949   7.733   7.101  0.0916  0.0231  0.3394
  603MOL0     C83141   3.028   7.660   7.163 -0.3128 -0.2833 -0.1858
  603MOL0     C83142   2.797   8.318   7.505 -0.2122 -1.4517  0.2897
  603MOL0     C83143   2.785   8.339   7.645 -0.6046 -0.5693 -0.3040
  603MOL0     C83144   2.673   8.425   7.682  0.3214 -0.4415 -0.7477
  603MOL0     H83145   3.003   8.568   8.014  0.2051 -1.6330 -0.2462
  603MOL0     H83146   3.017   8.637   8.281 -1.6475  1.4129 -0.6688
  603MOL0     H83147   2.976   8.404   8.539 -1.2742 -0.1602  0.1824
  603MOL0     H83148   2.805   8.383   8.586  0.9383 -2.7495  0.4802
  603MOL0     H83149   3.006   8.593   8.694  0.8075 -1.3440  3.3716
  603MOL0     H83150   2.829   8.598   8.720 -0.2742 -0.2081 -4.8515
  603MOL0     H83151   2.945   8.493   8.912 -0.2964  0.3734 -0.4455
  603MOL0     H83152   2.866   8.359   8.814  0.8149 -1.1682 -0.2178
  603MOL0     H83153   3.093   8.317   8.710  4.1712  0.2713 -1.3315
  603MOL0     H83154   3.156   8.471   8.780 -1.6588  0.9468  0.1040
  603MOL0     H83155   3.122   8.376   9.003  0.0010  3.4005 -2.9664
  603MOL0     H83156   3.233   8.277   8.936 -0.5922  1.4131  1.9153
  603MOL0     H83157   2.945   8.200   8.961 -0.6831 -2.7288 -0.8048
  603MOL0     H83158   3.049   8.114   8.847  0.8025 -0.8345  1.0335
  603MOL0     H83159   3.203   8.070   9.051  0.4740  2.2653 -1.6103
  603MOL0     H83160   3.040   7.998   9.035  1.9381 -0.5700  1.5602
  603MOL0     H83161   3.113   8.121   9.279  0.3851  1.5718  0.6164
  603MOL0     H83162   3.076   8.261   9.175  2.4050  0.1723  0.5365
  603MOL0     H83163   2.888   8.244   9.416 -0.6984 -0.2156  0.6375
  603MOL0     H83164   2.532   8.127   9.429  0.1297  0.6422  1.6149
  603MOL0     H83165   2.581   8.290   9.429 -0.4190  0.0132  0.8828
  603MOL0     H83166   2.736   8.077   9.594  2.7120  0.4359  0.8079
  603MOL0     H83167   2.771   8.254   9.585 -1.3284  1.1410 -1.3643
  603MOL0     H83168   2.619   8.169   9.789  0.6268 -2.9248 -0.1683
  603MOL0     H83169   2.588   8.312   9.690  1.6515  1.0738 -4.6663
  603MOL0     H83170   2.395   8.197   9.578  0.5331  0.7359  0.2744
  603MOL0     H83171   2.440   8.043   9.633  2.8019  0.2538 -3.1274
  603MOL0     H83172   2.133   8.140   9.890 -2.9143 -0.7280 -0.1234
  603MOL0     H83173   1.867   8.311   9.997  0.3771 -0.7364  0.0296
  603MOL0     H83174   1.892   8.159   9.927 -2.5377 -0.0664 -1.0881
  603MOL0     H83175   1.802   8.270   9.834  1.2125 -1.7499 -2.6397
  603MOL0     H83176   1.878   8.878   9.698  0.3594 -1.2109  0.8624
  603MOL0     H83177   1.633   8.998   9.674  2.3150  0.2928 -0.5946
  603MOL0     H83178   1.251   8.788   9.619 -0.7839  0.5548 -0.9768
  603MOL0     H83179   1.325   8.834   9.785 -1.4840  1.7659  0.6901
  603MOL0     H83180   1.307   9.060   9.753  0.7091 -1.1363  0.3988
  603MOL0     H83181   1.247   9.020   9.586  0.6314  2.1380  0.7563
  603MOL0     H83182   1.038   8.936   9.670 -1.5713  2.1507 -0.9069
  603MOL0     H83183   1.051   9.083   9.745 -2.3305 -2.0047 -0.9019
  603MOL0     H83184   1.115   8.982   9.962 -2.0989  0.0639  0.9280
  603MOL0     H83185   1.139   8.836   9.900  5.5710  4.1780 -0.1275
  603MOL0     H83186   0.882   8.998   9.920  0.8957  0.7447 -0.0273
  603MOL0     H83187   0.890   8.849   9.812  3.4879 -0.6804 -0.3163
  603MOL0     H83188   0.959   8.849  10.105  0.6072  3.4855 -2.4866
  603MOL0     H83189   0.907   8.702  10.008  2.4974  0.0695  2.3339
  603MOL0     H83190   0.692   8.771  10.008  3.1451 -2.2382 -1.2731
  603MOL0     H83191   0.726   8.922  10.103 -2.0019 -0.3881 -0.4260
  603MOL0     H83192   0.633   8.773  10.230 -0.4191  1.2696 -3.6470
  603MOL0     H83193   0.805   8.798  10.294  0.7007 -0.3459  0.6835
  603MOL0     H83194   1.466   8.629   9.577 -1.3948  2.7213  2.4167
  603MOL0     H83195   1.697   8.513   9.595 -1.0085  0.8658 -0.4961
  603MOL0     H83196   2.167   8.561   9.639  2.5053  2.0735  3.0321
  603MOL0     H83197   2.361   8.419   9.666 -0.2413  3.2013  2.1416
  603MOL0     H83198   2.711   8.354   8.359  2.5235 -2.1406  0.3270
  603MOL0     H83199   2.699   8.308   8.117  3.0683 -2.5402 -0.1209
  603MOL0     H83200   3.033   8.108   7.732  4.0793  3.5150  0.4699
  603MOL0     H83201   3.040   8.087   7.504  1.5675  0.7158  2.2372
  603MOL0     H83202   2.707   8.148   7.332 -0.9763  0.6536 -0.8926
  603MOL0     H83203   2.771   8.188   7.174  3.1105 -1.3040 -2.2606
  603MOL0     H83204   2.736   7.928   7.257  1.7994 -2.1075  0.9343
  603MOL0     H83205   2.895   7.961   7.324  1.1494  0.1642 -0.9519
  603MOL0     H83206   2.845   8.039   7.036 -0.9867 -0.6979  0.7482
  603MOL0     H83207   2.990   8.017   7.109 -0.9026  1.2053  1.0163
  603MOL0     H83208   2.918   7.823   6.926 -1.1810 -5.9728 -0.0847
  603MOL0     H83209   2.777   7.801   7.023  1.3122 -1.1077 -0.6536
  603MOL0     H83210   3.103   7.597   7.207 -3.3570 -3.4433  0.9579
  603MOL0     H83211   2.751   8.378   7.426  2.2024  2.2832  1.4432
  603MOL0     H83212   2.695   8.532   7.674  1.2667 -0.5969 -0.2798
  603MOL0     H83213   2.588   8.406   7.615 -0.1862 -0.9470  0.0245
  603MOL0     H83214   2.634   8.404   7.782  0.3486 -1.2240 -0.8900
  604MOL0     O83215   3.601   4.158   7.968  0.0179  0.3351 -0.3293
  604MOL0     C83216   3.670   4.216   7.885 -0.4059 -0.0714  0.2048
  604MOL0     O83217   3.789   4.274   7.912 -0.1635 -0.1404  0.7696
  604MOL0     C83218   3.844   4.243   8.034 -0.3966 -0.6691 -0.3382
  604MOL0     C83219   3.881   4.108   8.066 -0.1869 -0.3547 -0.5887
  604MOL0     C83220   3.954   4.077   8.188  0.9798  0.2759 -0.3167
  604MOL0     C83221   3.995   4.177   8.274  0.4484 -1.1023  0.1861
  604MOL0     O83222   4.058   4.136   8.387  0.2824  0.2446  0.5680
  604MOL0     C83223   4.157   4.218   8.444 -0.6029 -0.3285 -0.0361
  604MOL0     C83224   4.234   4.147   8.544 -0.6088  0.8168  0.1661
  604MOL0     C83225   4.298   4.019   8.502  0.3945 -0.1610 -0.0939
  604MOL0     C83226   4.395   3.957   8.614  0.0302  0.1525 -0.2426
  604MOL0     C83227   4.483   3.833   8.568  1.0818  0.2548 -1.0753
  604MOL0     C83228   4.388   3.719   8.530  0.2245 -1.5177 -0.0146
  604MOL0     C83229   4.296   3.685   8.648  0.1842  0.8224  0.1886
  604MOL0     C83230   4.371   3.629   8.769 -0.4409 -0.0243 -0.4937
  604MOL0     N83231   4.463   3.518   8.734  0.0947 -0.6087 -0.1206
  604MOL0     C83232   4.599   3.529   8.708 -0.4484  1.0028 -0.0511
  604MOL0     C83233   4.637   3.419   8.643  0.1589  0.8672  0.2000
  604MOL0     C83234   4.773   3.407   8.572 -0.7633  0.4510  1.4725
  604MOL0     C83235   4.750   3.411   8.430 -0.7131  0.3468  0.0854
  604MOL0     C83236   4.725   3.556   8.382 -0.6443 -0.6621 -0.6183
  604MOL0     C83237   4.732   3.580   8.226 -0.5095 -0.0391  0.0298
  604MOL0     O83238   4.846   3.520   8.163 -0.3168  0.2692 -0.5355
  604MOL0     C83239   4.894   3.579   8.047 -0.1988  0.0993 -0.3901
  604MOL0     C83240   4.820   3.645   7.945 -0.1318  0.0527 -0.6821
  604MOL0     C83241   4.880   3.699   7.829  0.2402 -0.4128  0.4501
  604MOL0     C83242   4.808   3.781   7.731 -0.4230  0.6083  0.8002
  604MOL0     C83243   5.011   3.660   7.802  0.2115  0.3923  0.7513
  604MOL0     C83244   5.091   3.696   7.682  0.1452 -0.1086 -0.2189
  604MOL0     O83245   5.210   3.750   7.712 -0.4464 -0.3108 -0.9277
  604MOL0     C83246   5.309   3.780   7.624 -0.7358  0.3804 -0.0966
  604MOL0     C83247   5.433   3.811   7.687  0.7306 -0.2185 -0.5541
  604MOL0     C83248   5.540   3.832   7.609 -0.8110  0.1427  0.1091
  604MOL0     C83249   5.534   3.818   7.473  0.0414  0.0601 -0.4438
  604MOL0     O83250   5.639   3.868   7.396 -0.0750 -0.1489  1.1539
  604MOL0     C83251   5.715   3.785   7.308  0.3369  0.2990  0.6085
  604MOL0     C83252   5.782   3.878   7.200  0.6311 -0.9389 -0.0389
  604MOL0     C83253   5.686   3.965   7.118  0.4733  0.9369 -1.1566
  604MOL0     C83254   5.751   4.046   6.999  0.1388  0.5264 -0.6820
  604MOL0     C83255   5.668   4.064   6.873  0.1887  0.2167  0.3862
  604MOL0     C83256   5.762   4.114   6.757  1.1005 -0.9320  0.4677
  604MOL0     C83257   5.688   4.143   6.621  0.4785  0.4320  0.3338
  604MOL0     C83258   5.600   4.026   6.575  0.3582 -0.3892 -0.0731
  604MOL0    Cl83259   5.547   4.080   6.410  0.1850  0.1896 -0.5952
  604MOL0     C83260   5.419   3.796   7.403  0.1930  0.1709 -0.3817
  604MOL0     C83261   5.301   3.778   7.483  0.2245  0.0244  0.5978
  604MOL0     O83262   5.055   3.655   7.573 -0.1107  0.1936 -0.4364
  604MOL0     C83263   5.090   3.592   7.903  0.1309 -0.2786  0.2908
  604MOL0     C83264   5.029   3.559   8.026  1.0035  0.7364  0.4748
  604MOL0     N83265   4.515   3.338   8.649 -0.2149  0.2515  0.2636
  604MOL0     N83266   4.418   3.401   8.695 -0.5679  0.4833  0.1824
  604MOL0     C83267   3.961   4.318   8.235 -0.3751  0.2393  0.5080
  604MOL0     C83268   3.887   4.348   8.118  0.8978 -0.1800 -0.2719
  604MOL0     C83269   3.614   4.231   7.751  0.9673 -0.5236 -0.3195
  604MOL0     C83270   3.470   4.223   7.740 -0.7315  0.4653 -0.0155
  604MOL0     C83271   3.409   4.218   7.610 -0.9131 -0.2462 -0.3487
  604MOL0     C83272   3.483   4.235   7.495 -0.3414 -0.5464  0.4267
  604MOL0     O83273   3.409   4.237   7.380  0.4905  0.1212  0.0694
  604MOL0     C83274   3.486   4.249   7.260 -0.3425 -0.4150 -0.5298
  604MOL0     C83275   3.400   4.265   7.130  1.0689  0.2184  0.0330
  604MOL0     C83276   3.303   4.144   7.136 -0.7339  0.0933  0.0996
  604MOL0     C83277   3.212   4.148   7.014 -0.0093  0.2675  0.5243
  604MOL0     C83278   3.140   4.014   7.017 -0.0007  0.1432  0.3285
  604MOL0     C83279   3.081   3.903   7.015 -0.3570 -0.4124 -0.6232
  604MOL0     C83280   3.621   4.246   7.512 -0.6451 -0.5480 -0.4370
  604MOL0     C83281   3.688   4.251   7.633 -0.0525  1.1317 -0.5057
  604MOL0     C83282   3.839   4.276   7.632 -0.1314 -0.1345  0.6940
  604MOL0     H83283   3.868   4.026   7.996 -0.4216  0.1496 -1.1332
  604MOL0     H83284   3.982   3.975   8.210  2.2384  0.5186 -0.6945
  604MOL0     H83285   4.118   4.303   8.500  2.8913  2.2669 -1.1572
  604MOL0     H83286   4.227   4.255   8.368  1.3411 -2.7382  0.4423
  604MOL0     H83287   4.298   4.225   8.586 -0.0209  0.5367 -0.1877
  604MOL0     H83288   4.164   4.120   8.623 -0.1956 -0.7413  0.0260
  604MOL0     H83289   4.210   3.956   8.487 -0.0461  1.0053 -3.2450
  604MOL0     H83290   4.354   4.034   8.408  0.5797  1.2535  0.2200
  604MOL0     H83291   4.453   4.047   8.637 -1.8858  1.6187 -0.9324
  604MOL0     H83292   4.338   3.933   8.704  2.7875 -1.2584  1.2567
  604MOL0     H83293   4.555   3.812   8.648  0.0877  0.6131 -0.0580
  604MOL0     H83294   4.536   3.854   8.474 -0.3645  2.0081 -1.5372
  604MOL0     H83295   4.332   3.756   8.444  0.9106 -0.4454 -0.0294
  604MOL0     H83296   4.445   3.632   8.497  1.4099  0.1187 -2.5769
  604MOL0     H83297   4.233   3.601   8.619 -4.5346  3.7395  0.7732
  604MOL0     H83298   4.233   3.771   8.673  2.0851  1.7742  2.0891
  604MOL0     H83299   4.434   3.709   8.811  0.2892 -0.8015 -0.0753
  604MOL0     H83300   4.301   3.593   8.845 -0.6702  1.2808 -0.0656
  604MOL0     H83301   4.661   3.615   8.733 -0.3509  1.0103 -0.3117
  604MOL0     H83302   4.819   3.311   8.600  1.8484  1.4384  0.8615
  604MOL0     H83303   4.846   3.480   8.606  1.5201 -1.5340  1.1453
  604MOL0     H83304   4.837   3.363   8.385 -0.0700 -2.4451  3.8039
  604MOL0     H83305   4.669   3.342   8.404  0.4849 -1.1540  0.1875
  604MOL0     H83306   4.634   3.600   8.425  0.9229  3.3598 -1.0210
  604MOL0     H83307   4.797   3.628   8.421 -4.7482  1.8452  3.3768
  604MOL0     H83308   4.645   3.525   8.188  0.5152 -0.8737 -1.2256
  604MOL0     H83309   4.718   3.682   8.190 -2.6367 -0.6793 -1.1430
  604MOL0     H83310   4.716   3.662   7.970  0.1326 -1.7231  2.0073
  604MOL0     H83311   4.861   3.869   7.693 -1.5872 -0.5439 -4.2670
  604MOL0     H83312   4.714   3.818   7.774  0.2984  4.8416 -0.7718
  604MOL0     H83313   4.789   3.729   7.637  3.6688 -0.1417  0.2092
  604MOL0     H83314   5.443   3.819   7.795 -3.6958  3.0193 -0.1271
  604MOL0     H83315   5.635   3.872   7.643  0.7291 -1.6091 -1.8658
  604MOL0     H83316   5.796   3.748   7.370  1.4886  2.7055  0.6566
  604MOL0     H83317   5.659   3.706   7.257 -0.8733  1.3718  0.2002
  604MOL0     H83318   5.844   3.948   7.256 -1.1610 -0.4544  1.4793
  604MOL0     H83319   5.845   3.818   7.134  1.1592  0.2848 -0.6706
  604MOL0     H83320   5.638   4.037   7.184  0.2530 -1.5808  1.6574
  604MOL0     H83321   5.610   3.903   7.069 -0.9561  2.3131 -0.7328
  604MOL0     H83322   5.845   3.996   6.974 -0.1298 -0.9391  1.0251
  604MOL0     H83323   5.771   4.146   7.039 -2.1999  1.2210 -1.1034
  604MOL0     H83324   5.623   3.968   6.847 -1.3438  1.8416 -3.6982
  604MOL0     H83325   5.587   4.136   6.888  0.2077  0.6448 -1.4374
  604MOL0     H83326   5.845   4.046   6.738 -0.1552 -2.5378  0.5409
  604MOL0     H83327   5.799   4.214   6.780  0.7245 -0.6729 -0.0098
  604MOL0     H83328   5.768   4.152   6.547 -0.3446 -0.8979 -0.7645
  604MOL0     H83329   5.640   4.240   6.631  1.2298  0.8149  0.2725
  604MOL0     H83330   5.523   4.008   6.651  3.6022 -1.5136  3.2705
  604MOL0     H83331   5.670   3.944   6.560  0.9017  0.4534 -2.5833
  604MOL0     H83332   5.417   3.793   7.295 -0.4642  0.2660 -0.3775
  604MOL0     H83333   5.206   3.765   7.433  0.5292 -2.2254  0.4754
  604MOL0     H83334   5.192   3.571   7.873  0.4433 -0.2508  1.2901
  604MOL0     H83335   5.092   3.531   8.110  0.3920 -2.2117  0.0550
  604MOL0     H83336   3.998   4.396   8.301  0.3129  0.8597 -0.5952
  604MOL0     H83337   3.849   4.448   8.099 -3.3411 -1.1163  2.0757
  604MOL0     H83338   3.406   4.206   7.826  2.3124  0.4237  2.4182
  604MOL0     H83339   3.303   4.206   7.592 -1.1129 -0.8913  1.1027
  604MOL0     H83340   3.551   4.337   7.262 -1.3557  0.3626 -0.7456
  604MOL0     H83341   3.545   4.158   7.245 -0.2579 -0.1055 -2.3396
  604MOL0     H83342   3.463   4.264   7.040 -2.0311  0.7317 -2.3183
  604MOL0     H83343   3.330   4.348   7.117 -1.0951 -1.4480  0.3071
  604MOL0     H83344   3.361   4.052   7.138  2.9778  2.2455  0.9922
  604MOL0     H83345   3.251   4.139   7.231  2.4906  2.3103  2.1997
  604MOL0     H83346   3.265   4.154   6.919 -0.9583 -1.9222 -0.2112
  604MOL0     H83347   3.140   4.230   7.014 -0.8916 -0.4525 -1.2520
  604MOL0     H83348   3.022   3.814   7.023 -2.1889  0.5481 -2.4341
  604MOL0     H83349   3.682   4.262   7.424 -0.2309  2.2139  0.2756
  604MOL0     H83350   3.879   4.356   7.694 -2.0335 -2.1130  4.8416
  604MOL0     H83351   3.886   4.191   7.681 -0.6892  1.4440  4.2905
  604MOL0     H83352   3.883   4.284   7.532 -0.5174 -0.6026  0.4786
  605MOL0     O83353   8.305   0.354   2.871  0.5626  0.0424  0.2308
  605MOL0     C83354   8.320   0.285   2.966  0.3614  0.6584  0.0300
  605MOL0     O83355   8.396   0.314   3.070 -0.6467 -0.0229 -0.1488
  605MOL0     C83356   8.492   0.415   3.066 -0.3091  0.4812 -0.2537
  605MOL0     C83357   8.526   0.470   3.191  1.4877 -0.1752  0.4861
  605MOL0     C83358   8.623   0.560   3.198 -0.2704 -0.2048 -0.0086
  605MOL0     C83359   8.698   0.595   3.076  0.3210 -0.5410 -0.5693
  605MOL0     O83360   8.782   0.700   3.072 -0.2780  0.4711 -0.6239
  605MOL0     C83361   8.739   0.826   3.121 -1.0351 -0.0024  0.3363
  605MOL0     C83362   8.838   0.929   3.063 -0.2284  0.6112 -0.4491
  605MOL0     C83363   8.845   0.932   2.906  0.2875 -0.0832 -0.5912
  605MOL0     C83364   8.915   1.062   2.861 -0.7729  0.2760  0.9607
  605MOL0     C83365   8.940   1.087   2.711  0.7395  0.1996  0.1516
  605MOL0     C83366   9.062   1.011   2.647 -0.8843 -0.6695 -0.2960
  605MOL0     C83367   9.198   1.070   2.704 -0.8334  0.4777  1.3610
  605MOL0     C83368   9.332   1.004   2.662  1.3803 -0.2880  0.1673
  605MOL0     N83369   9.318   0.938   2.534 -0.1237  1.0479  0.4364
  605MOL0     C83370   9.312   0.989   2.401 -0.9539 -0.2821 -1.0229
  605MOL0     C83371   9.306   0.876   2.331 -0.1804  0.0266  0.6513
  605MOL0     C83372   9.311   0.866   2.174  0.4688  0.0193 -0.6466
  605MOL0     C83373   9.167   0.879   2.128 -0.7884  0.2520  0.3420
  605MOL0     C83374   9.072   0.777   2.195 -0.3281 -0.5162  0.7565
  605MOL0     C83375   8.956   0.748   2.096 -1.1889 -0.3892  0.3163
  605MOL0     O83376   8.890   0.875   2.057  0.0594  0.4921  0.7744
  605MOL0     C83377   8.845   0.864   1.923  0.4829 -0.8522  0.5861
  605MOL0     C83378   8.839   0.981   1.843  0.5147  0.8071 -0.0472
  605MOL0     C83379   8.783   0.974   1.714  0.3682  0.3299 -0.6677
  605MOL0     C83380   8.794   1.110   1.647 -0.0168 -0.5352  0.0196
  605MOL0     C83381   8.744   0.840   1.658 -0.4783 -0.7548 -0.2989
  605MOL0     C83382   8.701   0.822   1.521  0.5972 -0.3585 -0.3315
  605MOL0     O83383   8.635   0.698   1.487 -0.2457 -1.2525 -0.6273
  605MOL0     C83384   8.592   0.678   1.361 -0.6017 -0.7343  1.5232
  605MOL0     C83385   8.470   0.739   1.319  0.5039 -0.1471 -0.5581
  605MOL0     C83386   8.410   0.681   1.205 -0.6467 -0.5400 -0.0635
  605MOL0     C83387   8.479   0.586   1.120  0.3697 -0.2988  0.3324
  605MOL0     O83388   8.410   0.524   1.016 -0.8343  0.2458 -0.4713
  605MOL0     C83389   8.470   0.421   0.938  0.2835  0.7944  0.3584
  605MOL0     C83390   8.385   0.365   0.824 -0.6677  0.9023 -0.0094
  605MOL0     C83391   8.466   0.280   0.728 -0.3648  0.4486 -0.1471
  605MOL0     C83392   8.378   0.168   0.654  0.0615 -0.0114 -0.1711
  605MOL0     C83393   8.359   0.170   0.504 -0.5928  0.6295  0.7872
  605MOL0     C83394   8.495   0.179   0.430 -0.2974  0.2928 -1.0989
  605MOL0     C83395   8.521   0.059   0.346 -0.2449 -0.4164 -0.6782
  605MOL0     C83396   8.623   0.074   0.237 -0.0060  0.2807  0.7712
  605MOL0    Cl83397   8.796   0.080   0.288 -0.1846 -0.0910  0.6466
  605MOL0     C83398   8.596   0.543   1.161  0.4993 -0.1184  0.6273
  605MOL0     C83399   8.647   0.584   1.284  0.1157  0.3022 -0.4699
  605MOL0     O83400   8.709   0.918   1.444  0.3512 -0.0859  0.1114
  605MOL0     C83401   8.734   0.734   1.748  0.0145 -0.6189 -0.0272
  605MOL0     C83402   8.780   0.750   1.881 -0.1846  0.8199  0.3006
  605MOL0     N83403   9.297   0.760   2.415 -0.0429  0.0491  0.8061
  605MOL0     N83404   9.298   0.809   2.536 -0.0016 -0.0116 -1.2771
  605MOL0     C83405   8.665   0.527   2.956 -0.3413 -0.7274  0.3082
  605MOL0     C83406   8.571   0.435   2.952 -0.1139 -0.0240  0.4962
  605MOL0     C83407   8.256   0.143   2.956  0.0919 -0.1297  0.3839
  605MOL0     C83408   8.317   0.044   3.031  0.5735 -0.1179 -0.8442
  605MOL0     C83409   8.246  -0.072   3.042 -0.3792  1.0570 -0.1814
  605MOL0     C83410   8.124  -0.102   2.981 -0.1965  0.8397 -0.8167
  605MOL0     O83411   8.079  -0.229   3.007 -0.5808 -0.6682 -0.2087
  605MOL0     C83412   7.956  -0.274   2.954  0.0315  0.9389 -0.5237
  605MOL0     C83413   7.963  -0.424   2.975  0.0642  0.3876  0.2236
  605MOL0     C83414   7.813  -0.472   2.968  0.0653  0.9140  0.9594
  605MOL0     C83415   7.814  -0.613   3.033  0.2614 -0.7900 -0.2996
  605MOL0     C83416   7.686  -0.671   3.013 -0.0744  2.0361 -1.1901
  605MOL0     C83417   7.574  -0.723   2.997  0.4109  0.9159 -0.4693
  605MOL0     C83418   8.081  -0.010   2.887  0.0050  0.5354  0.0724
  605MOL0     C83419   8.149   0.113   2.866  0.0334  0.5004 -0.4634
  605MOL0     C83420   8.097   0.197   2.752 -0.3521  0.1111 -0.1129
  605MOL0     H83421   8.480   0.436   3.283  0.8196 -1.7659 -0.3994
  605MOL0     H83422   8.645   0.612   3.291 -0.1914 -4.2617  2.4812
  605MOL0     H83423   8.723   0.831   3.229  2.1663  0.8413  0.8623
  605MOL0     H83424   8.638   0.835   3.079 -0.5707 -3.2697 -1.8922
  605MOL0     H83425   8.802   1.025   3.101  1.0636 -0.0058  2.6048
  605MOL0     H83426   8.928   0.912   3.123  0.3504 -1.3908 -1.7803
  605MOL0     H83427   8.912   0.856   2.865  2.5384  1.3062  0.3760
  605MOL0     H83428   8.737   0.934   2.885  0.4714 -1.3153 -1.7420
  605MOL0     H83429   8.851   1.141   2.900  0.2728  2.7559 -1.9412
  605MOL0     H83430   9.015   1.061   2.906  0.1600  0.4548 -0.9816
  605MOL0     H83431   8.974   1.191   2.701  0.1046  0.4782  0.7630
  605MOL0     H83432   8.851   1.077   2.650  1.5140 -3.2228 -0.6505
  605MOL0     H83433   9.051   0.903   2.662 -2.2385 -0.6973 -1.3210
  605MOL0     H83434   9.060   1.023   2.538  0.8729  0.7546 -0.2294
  605MOL0     H83435   9.186   1.077   2.812  2.0462  0.2148  1.7855
  605MOL0     H83436   9.193   1.169   2.659  1.6794  2.1381  4.3834
  605MOL0     H83437   9.403   1.082   2.636 -0.2055  1.3015  0.4518
  605MOL0     H83438   9.378   0.944   2.741  1.0840 -0.3104  0.3264
  605MOL0     H83439   9.306   1.092   2.368 -1.7523  1.0479  2.7332
  605MOL0     H83440   9.342   0.769   2.135  0.1864  0.5192 -2.1628
  605MOL0     H83441   9.382   0.938   2.132  2.6439 -0.9142  1.2181
  605MOL0     H83442   9.141   0.986   2.130 -0.9858  0.2022  0.7047
  605MOL0     H83443   9.165   0.850   2.023  2.2283  0.2225  0.1996
  605MOL0     H83444   9.134   0.689   2.211  0.2034 -0.9581 -2.9215
  605MOL0     H83445   9.028   0.813   2.289 -2.4865 -2.2055  0.4806
  605MOL0     H83446   8.991   0.695   2.007 -3.7084  2.4422 -2.5880
  605MOL0     H83447   8.880   0.680   2.137 -2.0879  1.6062  2.1975
  605MOL0     H83448   8.877   1.081   1.863  1.0028  1.2703 -2.8860
  605MOL0     H83449   8.860   1.099   1.560  2.8780 -3.1327  2.3057
  605MOL0     H83450   8.832   1.196   1.703 -0.1154  0.9588 -2.0658
  605MOL0     H83451   8.700   1.153   1.611 -0.4284 -0.3098  1.3293
  605MOL0     H83452   8.434   0.824   1.377 -3.5801  0.9230 -4.1632
  605MOL0     H83453   8.314   0.718   1.170 -0.6749 -1.1503 -0.6586
  605MOL0     H83454   8.563   0.456   0.891  1.6348  0.7993  2.8531
  605MOL0     H83455   8.510   0.343   1.004  1.3433  2.0129  1.2131
  605MOL0     H83456   8.312   0.306   0.881  0.2766  2.1606  2.6127
  605MOL0     H83457   8.330   0.449   0.782 -0.9081  1.1720  0.8323
  605MOL0     H83458   8.544   0.233   0.789 -2.3378  2.4293  4.3926
  605MOL0     H83459   8.494   0.343   0.643 -0.1998 -0.8678 -1.1097
  605MOL0     H83460   8.281   0.164   0.704  1.4122  1.5553  2.8836
  605MOL0     H83461   8.436   0.077   0.671 -1.1688 -0.7524  0.1580
  605MOL0     H83462   8.303   0.081   0.471 -1.0663  0.8704  0.9345
  605MOL0     H83463   8.299   0.259   0.483  0.8000  1.5869  0.7335
  605MOL0     H83464   8.580   0.190   0.498 -1.2662 -1.5711  0.5190
  605MOL0     H83465   8.496   0.267   0.366 -1.7526  1.0348 -0.1557
  605MOL0     H83466   8.429   0.018   0.303  0.1557 -2.2538  0.1254
  605MOL0     H83467   8.557  -0.025   0.406 -0.4796 -0.4969 -0.6484
  605MOL0     H83468   8.598   0.155   0.168  0.2611  0.8290  1.3117
  605MOL0     H83469   8.620  -0.021   0.183  1.8875 -2.3404  4.8334
  605MOL0     H83470   8.651   0.470   1.102  3.2739  0.7400  1.9539
  605MOL0     H83471   8.740   0.556   1.333 -1.9679 -0.8399  3.2729
  605MOL0     H83472   8.699   0.641   1.705 -3.7258  0.0101  1.2177
  605MOL0     H83473   8.788   0.655   1.933 -2.4804 -1.0245 -2.4257
  605MOL0     H83474   8.711   0.560   2.864  0.2273  1.4094  1.2894
  605MOL0     H83475   8.553   0.379   2.861  2.3027  0.6971 -0.5136
  605MOL0     H83476   8.405   0.070   3.090 -0.4332 -0.6470  0.9914
  605MOL0     H83477   8.287  -0.152   3.102  0.4179  1.1378 -0.6010
  605MOL0     H83478   7.876  -0.225   3.010  2.1906  2.0675  1.7744
  605MOL0     H83479   7.944  -0.240   2.850  0.4547  0.9777 -0.5644
  605MOL0     H83480   7.999  -0.443   3.077 -2.0051 -1.5295  0.6781
  605MOL0     H83481   8.034  -0.468   2.905 -0.0675  0.3704  0.0999
  605MOL0     H83482   7.747  -0.409   3.028 -0.2726  1.5744 -0.0676
  605MOL0     H83483   7.778  -0.483   2.864 -0.5470 -3.6157  1.4370
  605MOL0     H83484   7.844  -0.601   3.138 -0.0340 -1.0589 -0.1811
  605MOL0     H83485   7.877  -0.688   2.984 -1.1388 -3.3263  1.4990
  605MOL0     H83486   7.481  -0.771   2.977  1.2723 -1.0247  0.0035
  605MOL0     H83487   7.994  -0.034   2.827 -0.2714 -3.2545  1.6766
  605MOL0     H83488   8.186   0.213   2.692  0.3926  1.2329  1.2391
  605MOL0     H83489   8.010   0.142   2.713 -0.4904 -0.3351  0.7875
  605MOL0     H83490   8.057   0.287   2.799 -0.8227 -0.0644 -0.1697
  606MOL0     O83491   6.337   0.884   3.371  0.5470  0.0505 -0.2214
  606MOL0     C83492   6.242   0.812   3.337 -0.1791  0.5794  0.4143
  606MOL0     O83493   6.169   0.835   3.237  0.1713 -0.9726  0.2882
  606MOL0     C83494   6.201   0.922   3.137 -0.1523 -0.0906  0.0386
  606MOL0     C83495   6.095   0.940   3.041  0.5214  0.3054  0.1788
  606MOL0     C83496   6.098   1.026   2.933 -0.9251  0.0418 -0.2930
  606MOL0     C83497   6.221   1.089   2.908  0.8488  1.0827 -0.8190
  606MOL0     O83498   6.221   1.184   2.809  0.5277 -0.0061  0.2183
  606MOL0     C83499   6.331   1.194   2.716 -0.3392 -0.3790  0.1232
  606MOL0     C83500   6.277   1.251   2.586  0.0983  0.6116 -0.4964
  606MOL0     C83501   6.355   1.365   2.526  0.4908 -0.3464  0.6738
  606MOL0     C83502   6.303   1.363   2.377 -0.3637 -0.3721 -0.3043
  606MOL0     C83503   6.363   1.475   2.283  0.8324 -0.3388 -0.0414
  606MOL0     C83504   6.339   1.625   2.328  0.4416  0.7660  0.1951
  606MOL0     C83505   6.192   1.663   2.328  0.4513  0.1444 -0.1754
  606MOL0     C83506   6.179   1.809   2.366 -0.7730 -1.1984 -0.2926
  606MOL0     N83507   6.034   1.830   2.399 -0.4184 -1.1033  0.3359
  606MOL0     C83508   5.981   1.890   2.514  0.3782 -0.0096 -0.1126
  606MOL0     C83509   5.844   1.887   2.487  0.6658 -1.4898 -0.0652
  606MOL0     C83510   5.728   1.955   2.557 -0.2307 -1.0536 -0.1769
  606MOL0     C83511   5.668   1.865   2.669 -0.0618  0.0255 -0.4531
  606MOL0     C83512   5.544   1.922   2.722 -0.8858 -0.2797 -0.6114
  606MOL0     C83513   5.513   1.862   2.859 -0.9498  0.1348  0.1012
  606MOL0     O83514   5.458   1.726   2.860 -1.5833  0.0349 -0.2269
  606MOL0     C83515   5.511   1.622   2.929 -0.1016 -0.6710  0.0077
  606MOL0     C83516   5.605   1.639   3.035 -0.0297  0.6751 -0.2971
  606MOL0     C83517   5.657   1.522   3.097  0.0855 -0.2106 -0.3395
  606MOL0     C83518   5.756   1.536   3.204 -0.1247  0.2176 -0.3446
  606MOL0     C83519   5.622   1.398   3.049 -0.0584  0.1547 -0.8939
  606MOL0     C83520   5.672   1.268   3.124  0.6175 -1.3954  0.9430
  606MOL0     O83521   5.662   1.261   3.258  0.1955  0.1212 -0.2735
  606MOL0     C83522   5.668   1.133   3.313 -0.2307 -0.2283  0.1575
  606MOL0     C83523   5.789   1.086   3.348  0.0162 -0.6607 -0.3473
  606MOL0     C83524   5.809   0.963   3.404  0.5048  0.4508  0.3085
  606MOL0     C83525   5.693   0.885   3.435  0.5756  1.3087  0.9933
  606MOL0     O83526   5.682   0.759   3.480  0.4116  0.6425 -0.5965
  606MOL0     C83527   5.796   0.696   3.542 -0.2698  0.4411 -0.6110
  606MOL0     C83528   5.757   0.627   3.679 -0.2158 -0.6428 -0.3284
  606MOL0     C83529   5.873   0.553   3.742 -0.4417 -0.3124 -0.6508
  606MOL0     C83530   5.840   0.502   3.883  0.4170  0.2092 -0.0886
  606MOL0     C83531   5.959   0.429   3.936 -1.1333  0.5173  0.3671
  606MOL0     C83532   5.933   0.346   4.069 -0.4111 -0.5260 -0.5121
  606MOL0     C83533   5.851   0.437   4.164  0.4445  0.3579  0.1894
  606MOL0     C83534   5.823   0.372   4.295 -0.8037 -0.0245  0.0966
  606MOL0    Cl83535   5.983   0.350   4.385 -0.3568 -0.9586  0.1717
  606MOL0     C83536   5.571   0.941   3.408 -0.2635  0.5485  0.2327
  606MOL0     C83537   5.558   1.059   3.343  0.1452 -0.3088 -0.4796
  606MOL0     O83538   5.710   1.167   3.059 -0.0785 -0.4391  0.2907
  606MOL0     C83539   5.531   1.385   2.938 -0.0032  0.7539 -0.0337
  606MOL0     C83540   5.488   1.501   2.871  0.3800  0.7641 -0.5469
  606MOL0     N83541   5.813   1.827   2.362 -0.1853 -0.5244  0.0266
  606MOL0     N83542   5.931   1.801   2.309 -0.1337 -0.1448 -0.2753
  606MOL0     C83543   6.333   1.071   2.994  0.8783  0.8702 -0.5501
  606MOL0     C83544   6.318   0.995   3.106 -0.9784 -1.4049 -0.6376
  606MOL0     C83545   6.223   0.699   3.426 -0.5821  0.4841 -0.2569
  606MOL0     C83546   6.291   0.684   3.551  0.0286 -0.6785  0.3922
  606MOL0     C83547   6.270   0.582   3.651  0.3479 -0.4118 -0.4489
  606MOL0     C83548   6.191   0.473   3.613  1.0894 -0.6446 -0.0409
  606MOL0     O83549   6.174   0.369   3.698  0.6101  0.2908 -0.6527
  606MOL0     C83550   6.111   0.246   3.659 -0.6864 -0.7306  0.0863
  606MOL0     C83551   6.156   0.141   3.767 -1.0277 -0.1021 -0.0049
  606MOL0     C83552   6.308   0.135   3.779  0.4670 -0.0705  0.1367
  606MOL0     C83553   6.383   0.116   3.652  0.2008  0.7116 -0.1966
  606MOL0     C83554   6.377  -0.021   3.589  0.4838 -1.3078 -0.6218
  606MOL0     C83555   6.370  -0.133   3.540 -0.5259 -0.3530 -0.1765
  606MOL0     C83556   6.126   0.488   3.485  0.0180  0.7471  0.5621
  606MOL0     C83557   6.141   0.590   3.399  0.4856 -1.4015 -0.0635
  606MOL0     C83558   6.053   0.581   3.272  0.0754  0.8889 -0.7564
  606MOL0     H83559   5.998   0.899   3.068 -0.8351  2.0055 -1.8004
  606MOL0     H83560   6.011   1.045   2.871 -1.2155 -1.0354 -0.2298
  606MOL0     H83561   6.376   1.096   2.701 -0.6937 -0.3308 -1.3855
  606MOL0     H83562   6.398   1.272   2.755 -1.2072  1.4326 -1.7967
  606MOL0     H83563   6.253   1.173   2.514 -1.1192  2.2251 -1.9191
  606MOL0     H83564   6.173   1.279   2.603  0.1592  0.2729  0.5049
  606MOL0     H83565   6.327   1.453   2.585  2.2032 -0.8021  2.2636
  606MOL0     H83566   6.461   1.350   2.548  1.3482 -0.0132 -2.7581
  606MOL0     H83567   6.330   1.268   2.331  0.8289 -0.9756  1.5594
  606MOL0     H83568   6.197   1.390   2.381 -0.1930  0.2955 -0.1744
  606MOL0     H83569   6.320   1.468   2.182  0.4443 -3.3561  0.2259
  606MOL0     H83570   6.470   1.455   2.280  1.1217  0.9717  0.7113
  606MOL0     H83571   6.374   1.620   2.432 -1.3697 -1.9883  0.7702
  606MOL0     H83572   6.394   1.698   2.268 -3.0675  3.3066 -0.2693
  606MOL0     H83573   6.135   1.597   2.395 -1.7678 -3.2982 -4.8646
  606MOL0     H83574   6.143   1.645   2.232 -0.9227  1.0441  0.3335
  606MOL0     H83575   6.247   1.843   2.445  0.5008 -1.7344 -1.1257
  606MOL0     H83576   6.220   1.868   2.284  0.9038 -0.3143  1.1175
  606MOL0     H83577   6.037   1.925   2.600  1.2506 -2.0529  0.2256
  606MOL0     H83578   5.642   1.970   2.491 -2.2004 -2.1298  2.0000
  606MOL0     H83579   5.755   2.047   2.610 -1.4781 -1.9174  2.0721
  606MOL0     H83580   5.653   1.765   2.626 -0.6151 -0.1015  0.0283
  606MOL0     H83581   5.740   1.861   2.752 -3.1651 -2.9974  2.4355
  606MOL0     H83582   5.566   2.027   2.741  2.9638 -1.5525  4.1682
  606MOL0     H83583   5.459   1.891   2.660 -2.5575  2.3835  0.2143
  606MOL0     H83584   5.590   1.875   2.935  0.8284  3.7606 -2.0206
  606MOL0     H83585   5.428   1.921   2.894  0.2977  1.5629  0.8267
  606MOL0     H83586   5.624   1.730   3.090 -2.6668 -0.5260  2.9225
  606MOL0     H83587   5.847   1.476   3.195 -0.2899 -0.3775  1.4100
  606MOL0     H83588   5.701   1.512   3.295  0.8819  1.2032  0.5692
  606MOL0     H83589   5.798   1.634   3.228 -1.8582  0.1485  3.9110
  606MOL0     H83590   5.879   1.146   3.335 -0.3850 -0.0642 -0.4220
  606MOL0     H83591   5.911   0.928   3.415 -0.8563 -4.2406 -0.0421
  606MOL0     H83592   5.832   0.626   3.467  1.5832  1.1408 -0.4301
  606MOL0     H83593   5.865   0.775   3.573 -1.8133  1.7135 -0.2333
  606MOL0     H83594   5.719   0.698   3.753 -0.2921 -2.1604  1.1391
  606MOL0     H83595   5.685   0.546   3.668 -1.1432  0.1032  0.1584
  606MOL0     H83596   5.966   0.611   3.747 -0.3696 -0.3280 -1.5763
  606MOL0     H83597   5.895   0.462   3.685  2.4356 -0.9817  1.2976
  606MOL0     H83598   5.754   0.435   3.870  3.1512 -3.6121 -0.4455
  606MOL0     H83599   5.827   0.589   3.947  0.0418  0.0068  0.1101
  606MOL0     H83600   5.987   0.351   3.866  0.4455 -0.1872  1.7088
  606MOL0     H83601   6.052   0.485   3.952 -0.1352 -1.8463  4.2115
  606MOL0     H83602   6.024   0.313   4.120 -1.6910 -0.1276  2.1718
  606MOL0     H83603   5.875   0.255   4.058 -1.8961 -1.0615  6.7292
  606MOL0     H83604   5.755   0.449   4.114  0.1726 -2.1477 -0.0377
  606MOL0     H83605   5.903   0.532   4.182  3.0755 -1.3312  2.2317
  606MOL0     H83606   5.781   0.274   4.272 -0.2391 -0.6532  1.6270
  606MOL0     H83607   5.759   0.426   4.365  2.2840 -0.3698  3.4408
  606MOL0     H83608   5.489   0.888   3.455  0.4771 -0.2457  0.6719
  606MOL0     H83609   5.457   1.084   3.312  0.3206  1.5604  0.3286
  606MOL0     H83610   5.513   1.288   2.894  1.7309  1.9089 -3.7389
  606MOL0     H83611   5.425   1.501   2.783  1.7672  0.5283 -1.5633
  606MOL0     H83612   6.423   1.128   2.976  0.5607  2.4387  2.2268
  606MOL0     H83613   6.404   0.988   3.171 -1.2175 -2.4024 -0.4163
  606MOL0     H83614   6.356   0.762   3.588 -0.2293  1.2206 -2.7865
  606MOL0     H83615   6.299   0.587   3.756 -0.6196 -0.7839 -0.1486
  606MOL0     H83616   6.003   0.261   3.663 -0.5252  0.4470  0.3708
  606MOL0     H83617   6.142   0.224   3.556 -0.0618  0.6385 -0.0410
  606MOL0     H83618   6.115   0.045   3.736 -0.4706 -0.7664  1.2407
  606MOL0     H83619   6.115   0.167   3.866  1.1008  0.1239  0.8635
  606MOL0     H83620   6.332   0.232   3.823 -2.1412  1.5856 -1.8679
  606MOL0     H83621   6.350   0.067   3.855 -1.1066  0.8778  1.9312
  606MOL0     H83622   6.489   0.141   3.653  0.9226 -1.6778  3.8046
  606MOL0     H83623   6.343   0.189   3.581  0.5679  2.0162  0.8943
  606MOL0     H83624   6.362  -0.229   3.493  1.0177 -0.4762 -0.2587
  606MOL0     H83625   6.049   0.418   3.454 -0.9275  2.0961 -0.2712
  606MOL0     H83626   6.099   0.623   3.182  2.3000  0.2794  0.0083
  606MOL0     H83627   6.019   0.480   3.249  2.2810 -0.3208  0.8758
  606MOL0     H83628   5.962   0.640   3.286 -0.9242 -0.9837  1.1913
  607MOL0     O83629   9.464   4.389   0.324  0.0530  0.7202  0.3325
  607MOL0     C83630   9.441   4.507   0.311  0.1438 -0.5967 -0.1515
  607MOL0     O83631   9.318   4.563   0.346  0.1506 -0.0262  0.2292
  607MOL0     C83632   9.256   4.521   0.458 -0.3717  0.3121 -0.6692
  607MOL0     C83633   9.298   4.565   0.588 -0.4215 -0.5684  0.2841
  607MOL0     C83634   9.224   4.537   0.705  0.1048  0.9913 -0.8094
  607MOL0     C83635   9.119   4.442   0.690  0.0063 -0.7539 -0.2933
  607MOL0     O83636   9.045   4.398   0.798  0.2966 -0.0391 -0.0363
  607MOL0     C83637   9.043   4.474   0.919  0.4708 -0.2942  0.2356
  607MOL0     C83638   8.904   4.458   0.981 -0.2043 -0.2502 -0.6657
  607MOL0     C83639   8.784   4.437   0.898  0.6317  0.3056  0.4174
  607MOL0     C83640   8.646   4.463   0.961  0.8052 -0.6149  0.9692
  607MOL0     C83641   8.538   4.436   0.843 -0.1653  0.6645 -0.0640
  607MOL0     C83642   8.395   4.440   0.891  0.7309  0.3989 -0.6178
  607MOL0     C83643   8.361   4.318   0.986  0.4825 -0.4442  1.0290
  607MOL0     C83644   8.207   4.311   1.013 -0.4868  0.0763 -0.2351
  607MOL0     N83645   8.158   4.430   1.074 -0.2550 -0.1289 -0.4611
  607MOL0     C83646   8.220   4.507   1.168  0.5068 -0.1132  0.7952
  607MOL0     C83647   8.132   4.609   1.187 -0.0079 -0.4808 -0.4234
  607MOL0     C83648   8.138   4.728   1.281 -0.3530  0.8637 -0.9645
  607MOL0     C83649   8.253   4.833   1.255  0.4403 -0.0674  0.5265
  607MOL0     C83650   8.398   4.791   1.273 -0.3802  0.3227  0.3616
  607MOL0     C83651   8.450   4.764   1.412 -0.0927 -0.1799 -0.2093
  607MOL0     O83652   8.390   4.669   1.493  0.4903  0.2414 -0.1477
  607MOL0     C83653   8.413   4.534   1.480 -0.2586  0.3535 -0.4771
  607MOL0     C83654   8.512   4.478   1.407  1.0631  0.0747 -0.2958
  607MOL0     C83655   8.532   4.339   1.382 -1.2801 -0.8923  1.1332
  607MOL0     C83656   8.665   4.292   1.316  0.5049 -0.0495 -0.4306
  607MOL0     C83657   8.431   4.250   1.429 -0.4722  0.1427 -0.2205
  607MOL0     C83658   8.420   4.110   1.378 -1.1016 -0.1277 -0.7036
  607MOL0     O83659   8.522   4.051   1.308 -0.7090  1.1026  0.4089
  607MOL0     C83660   8.508   3.915   1.280  0.6531  0.8196 -0.4418
  607MOL0     C83661   8.612   3.831   1.329 -0.5140  1.0105 -0.0446
  607MOL0     C83662   8.616   3.697   1.286  0.7854  0.6366  0.7306
  607MOL0     C83663   8.521   3.639   1.202  0.6159  1.5962  0.6229
  607MOL0     O83664   8.513   3.510   1.152  0.1918  0.8059 -0.3127
  607MOL0     C83665   8.635   3.436   1.144 -0.3663  0.4364 -0.4517
  607MOL0     C83666   8.718   3.457   1.017  0.0364 -0.2431  0.1084
  607MOL0     C83667   8.871   3.446   1.038  0.1956  0.4820  0.4439
  607MOL0     C83668   8.906   3.309   1.116  0.3875 -0.1923  0.1503
  607MOL0     C83669   9.063   3.303   1.123 -0.1858 -0.6554 -0.0222
  607MOL0     C83670   9.148   3.410   1.196 -0.3085 -0.1576 -0.4229
  607MOL0     C83671   9.282   3.349   1.222 -0.2154  0.5816 -0.0018
  607MOL0     C83672   9.360   3.423   1.327 -0.2289 -0.7909  0.0263
  607MOL0    Cl83673   9.522   3.361   1.364 -0.4969  0.2191 -0.1846
  607MOL0     C83674   8.419   3.720   1.160  1.2616 -0.4866 -1.0255
  607MOL0     C83675   8.414   3.860   1.194  0.4890  0.4107 -0.5896
  607MOL0     O83676   8.325   4.061   1.432 -0.0170 -0.2484  0.1890
  607MOL0     C83677   8.330   4.309   1.510 -0.0282  0.5704 -0.7554
  607MOL0     C83678   8.324   4.448   1.546 -0.5205  0.7348 -0.3049
  607MOL0     N83679   8.023   4.594   1.117 -0.7226  1.0645  0.7460
  607MOL0     N83680   8.032   4.486   1.049 -1.2930  0.2795  0.2176
  607MOL0     C83681   9.077   4.396   0.562 -0.3887 -0.1083 -0.0001
  607MOL0     C83682   9.142   4.440   0.446 -0.6552 -0.6667 -0.2470
  607MOL0     C83683   9.535   4.592   0.243  0.1357  0.4590  0.4363
  607MOL0     C83684   9.515   4.724   0.244 -0.4752 -0.4453  0.0057
  607MOL0     C83685   9.603   4.817   0.180 -0.1428 -0.1500  0.2903
  607MOL0     C83686   9.716   4.773   0.109  0.4223  0.2349 -0.5948
  607MOL0     O83687   9.797   4.860   0.049 -0.2797  0.9084  1.1578
  607MOL0     C83688   9.922   4.877   0.116 -0.5811  0.7012 -0.3839
  607MOL0     C83689  10.022   4.821   0.024 -0.2464 -0.3505  0.2051
  607MOL0     C83690  10.159   4.873   0.052  0.0483 -0.3572 -0.6693
  607MOL0     C83691  10.204   4.836   0.195 -0.2412 -0.0773 -0.0624
  607MOL0     C83692  10.240   4.692   0.221  0.3980 -0.2542 -0.0578
  607MOL0     C83693  10.270   4.579   0.256 -0.2290  0.2859 -0.7300
  607MOL0     C83694   9.728   4.630   0.094 -0.0003 -0.8020 -0.1993
  607MOL0     C83695   9.640   4.540   0.160  0.3313  0.0784  0.2618
  607MOL0     C83696   9.681   4.394   0.150  0.9201 -0.2083  0.3416
  607MOL0     H83697   9.388   4.625   0.587 -3.0903  4.0095 -3.6922
  607MOL0     H83698   9.257   4.571   0.802 -3.0983  1.7844  0.0920
  607MOL0     H83699   9.061   4.576   0.885  0.0058 -0.7286 -1.4085
  607MOL0     H83700   9.120   4.440   0.988  2.3788 -2.1822 -2.6133
  607MOL0     H83701   8.902   4.376   1.053  2.3714  0.7296  0.6569
  607MOL0     H83702   8.903   4.547   1.045 -0.7172  1.2998 -2.7167
  607MOL0     H83703   8.797   4.501   0.811 -3.5032  0.5413 -0.2152
  607MOL0     H83704   8.781   4.333   0.864  0.1339  0.5082 -0.1848
  607MOL0     H83705   8.623   4.397   1.045  0.2906 -0.5728  0.8632
  607MOL0     H83706   8.646   4.567   0.995 -3.6527 -0.4169  0.9844
  607MOL0     H83707   8.563   4.338   0.801  2.3740 -0.3641  3.3813
  607MOL0     H83708   8.552   4.518   0.772 -0.6594  2.8484  2.2196
  607MOL0     H83709   8.376   4.528   0.953 -1.1802  0.0225 -0.5887
  607MOL0     H83710   8.334   4.452   0.801 -0.4133  3.0446  0.4314
  607MOL0     H83711   8.421   4.328   1.076 -2.3379  3.2409  2.7980
  607MOL0     H83712   8.391   4.230   0.928  0.3230 -0.0419  0.3192
  607MOL0     H83713   8.152   4.291   0.921  0.7149  0.4920 -1.0504
  607MOL0     H83714   8.181   4.225   1.076  1.1175 -0.6602 -0.5463
  607MOL0     H83715   8.312   4.481   1.219  1.1438  1.4848  0.5135
  607MOL0     H83716   8.149   4.676   1.377 -0.0635  0.4043 -1.2393
  607MOL0     H83717   8.037   4.769   1.284 -1.0320 -0.7706  0.3467
  607MOL0     H83718   8.248   4.875   1.154 -0.1627 -2.5234 -0.5304
  607MOL0     H83719   8.242   4.922   1.317 -1.6354  0.1614 -0.1045
  607MOL0     H83720   8.426   4.708   1.208  0.5539  0.8994  0.0107
  607MOL0     H83721   8.468   4.866   1.237  0.6274 -1.3074 -1.2560
  607MOL0     H83722   8.558   4.742   1.411 -0.2582 -1.0624  0.1599
  607MOL0     H83723   8.450   4.851   1.478  0.5334 -1.7724  2.0105
  607MOL0     H83724   8.579   4.551   1.363  0.3178  1.6520  1.0754
  607MOL0     H83725   8.650   4.236   1.224 -0.2556 -4.8796  2.3129
  607MOL0     H83726   8.721   4.238   1.393  1.3839 -0.9750 -1.6686
  607MOL0     H83727   8.727   4.380   1.293  0.7224 -0.3422 -0.9699
  607MOL0     H83728   8.684   3.865   1.403 -2.0592  2.9875  0.6342
  607MOL0     H83729   8.713   3.654   1.308  0.1377 -1.3458 -0.0644
  607MOL0     H83730   8.704   3.452   1.227 -1.6234 -2.4725  1.3249
  607MOL0     H83731   8.600   3.333   1.155  0.1156  0.2830 -0.3042
  607MOL0     H83732   8.684   3.391   0.936 -2.4157 -0.0521  0.9024
  607MOL0     H83733   8.702   3.562   0.990  0.0147  0.3453  2.2901
  607MOL0     H83734   8.916   3.536   1.082  1.4770 -0.2163  0.6207
  607MOL0     H83735   8.925   3.439   0.943  1.0714 -0.2852  0.9806
  607MOL0     H83736   8.877   3.215   1.069  0.5440 -1.2718  2.0794
  607MOL0     H83737   8.869   3.308   1.219 -0.7761  1.8522 -0.1941
  607MOL0     H83738   9.088   3.199   1.145  0.3304 -0.4800  0.2451
  607MOL0     H83739   9.092   3.316   1.018 -2.4671 -0.2013 -0.6599
  607MOL0     H83740   9.104   3.449   1.289  0.4292  0.2182 -0.2249
  607MOL0     H83741   9.176   3.499   1.140  4.2747 -0.7266  0.5940
  607MOL0     H83742   9.340   3.326   1.132 -0.6524  1.6445 -0.5749
  607MOL0     H83743   9.249   3.259   1.274 -0.4127  1.8585  2.1912
  607MOL0     H83744   9.301   3.419   1.419 -1.5109 -2.5311 -0.8131
  607MOL0     H83745   9.377   3.525   1.292 -2.5333 -0.6533 -0.8412
  607MOL0     H83746   8.347   3.677   1.091  0.6164  0.7072 -1.1196
  607MOL0     H83747   8.349   3.928   1.140 -0.0821 -0.8664 -1.5722
  607MOL0     H83748   8.259   4.237   1.550  0.3535  1.7105  2.2150
  607MOL0     H83749   8.241   4.490   1.603  0.4331  3.7544 -0.9715
  607MOL0     H83750   9.000   4.321   0.544 -0.9095  0.6196 -0.8896
  607MOL0     H83751   9.097   4.400   0.356  0.7011 -1.6965 -0.5155
  607MOL0     H83752   9.437   4.787   0.285  1.9665  2.9023 -0.0535
  607MOL0     H83753   9.601   4.926   0.175  0.1458 -0.1303 -4.6812
  607MOL0     H83754   9.951   4.981   0.133  6.2027 -0.6961 -0.3377
  607MOL0     H83755   9.928   4.831   0.216 -1.2350 -1.9199 -1.4599
  607MOL0     H83756   9.991   4.855  -0.075 -1.5228  0.0971  0.7368
  607MOL0     H83757  10.034   4.712   0.016 -0.1646 -0.4817  1.8279
  607MOL0     H83758  10.218   4.830  -0.030  0.5112  2.4915 -1.9405
  607MOL0     H83759  10.158   4.981   0.039 -0.8564 -0.0768  1.3378
  607MOL0     H83760  10.138   4.880   0.270  0.9204 -4.8194  4.3401
  607MOL0     H83761  10.300   4.883   0.219 -0.1039 -2.0152  3.8788
  607MOL0     H83762  10.283   4.482   0.299  0.5140 -0.5711 -2.8062
  607MOL0     H83763   9.817   4.603   0.038  1.8731 -0.5527  2.4849
  607MOL0     H83764   9.695   4.350   0.249  0.9567  2.0345  1.3954
  607MOL0     H83765   9.608   4.342   0.088  1.6432  0.3284 -0.9891
  607MOL0     H83766   9.780   4.382   0.106  1.8192  2.3410  1.4310
  608MOL0     O83767   2.347   9.057   7.422 -0.5664 -0.2144 -0.5567
  608MOL0     C83768   2.314   9.020   7.320 -0.4378  0.1926  0.5224
  608MOL0     O83769   2.387   8.944   7.234 -0.2068 -0.5300 -0.5128
  608MOL0     C83770   2.505   8.887   7.263  0.2235  1.0121  1.1455
  608MOL0     C83771   2.543   8.791   7.157  0.1475  0.9175 -0.5456
  608MOL0     C83772   2.654   8.707   7.178  0.4929  0.0013 -0.1465
  608MOL0     C83773   2.718   8.708   7.306  0.3810 -0.7320  1.1005
  608MOL0     O83774   2.810   8.620   7.352  0.6470 -0.0463  0.7895
  608MOL0     C83775   2.949   8.626   7.305  0.4165 -0.7176  0.2718
  608MOL0     C83776   3.027   8.592   7.437 -0.6079 -0.1946  0.2567
  608MOL0     C83777   2.990   8.654   7.569  0.1628  0.3386 -1.5785
  608MOL0     C83778   3.105   8.636   7.673  0.1870  0.8913  0.2547
  608MOL0     C83779   3.121   8.487   7.701 -0.5692 -0.4219 -0.6395
  608MOL0     C83780   3.228   8.466   7.813 -0.3544 -0.1621  1.0273
  608MOL0     C83781   3.255   8.318   7.828  0.1745 -0.0459 -0.0301
  608MOL0     C83782   3.339   8.300   7.951 -0.2368  0.2617  0.7952
  608MOL0     N83783   3.332   8.167   8.022 -0.3762  0.4373 -0.0245
  608MOL0     C83784   3.212   8.120   8.081  0.2145 -0.3301  0.0604
  608MOL0     C83785   3.252   7.997   8.129  0.3136  0.8174  0.6265
  608MOL0     C83786   3.162   7.917   8.219  0.7515 -0.3356  0.3883
  608MOL0     C83787   3.211   7.940   8.360  0.8378  0.1837  0.3393
  608MOL0     C83788   3.220   8.081   8.418  0.0092  0.2696 -0.4924
  608MOL0     C83789   3.101   8.173   8.411  0.2951 -0.3258 -0.4979
  608MOL0     O83790   2.992   8.128   8.508 -0.3440  0.4466 -0.1828
  608MOL0     C83791   2.859   8.108   8.479 -0.4523  0.9024 -0.2714
  608MOL0     C83792   2.806   8.079   8.353  0.0358 -0.0457 -0.7307
  608MOL0     C83793   2.665   8.068   8.335  0.1199 -0.1488  1.5438
  608MOL0     C83794   2.626   8.030   8.200 -0.1327  0.6052  0.3631
  608MOL0     C83795   2.577   8.076   8.440 -0.1920 -0.1098 -0.8781
  608MOL0     C83796   2.427   8.078   8.429  0.3808 -0.3687 -0.8837
  608MOL0     O83797   2.365   8.079   8.552  0.3553  0.3634  0.3476
  608MOL0     C83798   2.243   8.141   8.560 -0.4907 -0.9131  0.9925
  608MOL0     C83799   2.222   8.267   8.631  0.3626 -0.0013 -0.0770
  608MOL0     C83800   2.093   8.324   8.626 -0.1111  0.2612 -0.2018
  608MOL0     C83801   1.985   8.263   8.570  0.4719 -0.6351  1.3329
  608MOL0     O83802   1.867   8.339   8.574  0.7663  0.1590  0.5987
  608MOL0     C83803   1.768   8.326   8.475 -1.1024  0.7652 -0.5378
  608MOL0     C83804   1.643   8.404   8.514  0.5386 -0.0381 -0.9571
  608MOL0     C83805   1.663   8.551   8.499 -0.0972 -0.6945  0.6445
  608MOL0     C83806   1.754   8.612   8.611  0.0274 -0.3494 -0.8947
  608MOL0     C83807   1.758   8.766   8.608 -0.3845  0.8180 -0.2540
  608MOL0     C83808   1.667   8.838   8.711 -0.1551  0.8209  0.1549
  608MOL0     C83809   1.695   8.986   8.715 -0.5368  0.7539  0.8287
  608MOL0     C83810   1.576   9.072   8.743 -0.7577 -0.5163  0.0655
  608MOL0    Cl83811   1.643   9.226   8.813  0.1904  0.2651 -0.1295
  608MOL0     C83812   2.006   8.136   8.511 -0.1654 -0.2109  0.2625
  608MOL0     C83813   2.137   8.072   8.502 -0.5759 -0.4388  0.0772
  608MOL0     O83814   2.377   8.113   8.325  1.0227  0.0919  0.5772
  608MOL0     C83815   2.636   8.107   8.570  0.1860  0.1064  0.2835
  608MOL0     C83816   2.776   8.114   8.587 -0.4544 -0.8090 -0.2015
  608MOL0     N83817   3.377   7.960   8.084 -0.1136  0.2091 -0.1424
  608MOL0     N83818   3.426   8.068   8.029 -1.1882 -0.2762  1.1572
  608MOL0     C83819   2.682   8.801   7.401  0.2255  0.0541  0.0797
  608MOL0     C83820   2.577   8.895   7.386  0.4273 -1.1432 -0.0362
  608MOL0     C83821   2.167   9.035   7.284 -0.5521 -1.3177  0.3794
  608MOL0     C83822   2.112   8.974   7.177  0.6591 -0.2885 -0.0334
  608MOL0     C83823   1.979   8.970   7.152 -0.2975 -1.1952 -0.1032
  608MOL0     C83824   1.889   9.053   7.221 -0.7471 -0.7348  0.2488
  608MOL0     O83825   1.754   9.074   7.204  0.0036 -1.9055 -0.0548
  608MOL0     C83826   1.676   8.958   7.222 -0.1567  0.0861  0.7400
  608MOL0     C83827   1.626   8.966   7.362 -0.9282  1.0120  0.0731
  608MOL0     C83828   1.534   9.085   7.394 -0.1594 -0.9201 -0.6151
  608MOL0     C83829   1.559   9.120   7.549  0.0230 -0.5424  0.2501
  608MOL0     C83830   1.497   9.247   7.580  0.3795 -0.4293  0.1517
  608MOL0     C83831   1.433   9.345   7.598  0.2164  0.1443 -0.2166
  608MOL0     C83832   1.948   9.136   7.322  0.3319  1.1029  1.1823
  608MOL0     C83833   2.082   9.127   7.357  0.3338 -0.2618  0.2933
  608MOL0     C83834   2.114   9.218   7.480  0.2786  1.4324  1.5584
  608MOL0     H83835   2.481   8.794   7.068 -0.1273  2.0944 -0.3370
  608MOL0     H83836   2.685   8.635   7.102 -0.6583  1.1570 -1.8022
  608MOL0     H83837   2.951   8.728   7.265 -1.8841 -0.1072  1.5290
  608MOL0     H83838   2.954   8.556   7.221  4.1866  0.3611 -0.5909
  608MOL0     H83839   3.012   8.487   7.461  0.4646 -0.0784  1.5858
  608MOL0     H83840   3.133   8.614   7.419 -0.5141 -0.3893  0.5661
  608MOL0     H83841   2.968   8.761   7.563 -1.8149  0.3170  2.2949
  608MOL0     H83842   2.908   8.589   7.601  1.5431 -1.7304 -2.0987
  608MOL0     H83843   3.195   8.686   7.635 -0.9473  2.3002 -0.7268
  608MOL0     H83844   3.079   8.686   7.766  1.8521  0.8069  0.7980
  608MOL0     H83845   3.157   8.435   7.612  2.7046 -2.2188  1.4939
  608MOL0     H83846   3.025   8.447   7.735 -0.8742 -1.5746 -2.6659
  608MOL0     H83847   3.320   8.521   7.791 -1.6364  1.4788 -0.5705
  608MOL0     H83848   3.190   8.508   7.907  0.0257  2.5323  0.0622
  608MOL0     H83849   3.308   8.279   7.741 -1.8647  1.1011 -1.8969
  608MOL0     H83850   3.167   8.256   7.848 -0.7423  1.2754  0.1561
  608MOL0     H83851   3.444   8.303   7.918 -0.3876 -1.2180  0.0895
  608MOL0     H83852   3.315   8.374   8.027 -0.8129 -0.6356  1.5091
  608MOL0     H83853   3.116   8.169   8.088 -0.3286 -1.1868 -1.1563
  608MOL0     H83854   3.182   7.814   8.190  1.9876  0.0976 -0.3933
  608MOL0     H83855   3.057   7.944   8.205  1.0353 -0.2475 -2.0197
  608MOL0     H83856   3.142   7.885   8.424  1.5024 -1.2025 -0.0854
  608MOL0     H83857   3.308   7.892   8.375  1.0970  0.4231 -0.5234
  608MOL0     H83858   3.239   8.060   8.524  1.7835 -0.0316 -0.8488
  608MOL0     H83859   3.316   8.127   8.394  1.8080 -0.2600  4.4376
  608MOL0     H83860   3.142   8.270   8.439  1.4469 -0.1479 -2.6301
  608MOL0     H83861   3.072   8.191   8.307  2.5222  0.6485 -0.9934
  608MOL0     H83862   2.872   8.072   8.267 -0.7937 -1.0461 -1.3078
  608MOL0     H83863   2.578   8.102   8.134 -0.5377 -1.3632 -1.5865
  608MOL0     H83864   2.560   7.943   8.204 -0.1364  0.6116  0.4738
  608MOL0     H83865   2.717   7.990   8.154 -0.0944  0.4958  0.5322
  608MOL0     H83866   2.305   8.315   8.681 -0.1617  1.3164 -0.4421
  608MOL0     H83867   2.084   8.423   8.671  1.7220 -0.4302  1.8624
  608MOL0     H83868   1.815   8.349   8.379 -1.8800  1.7295 -0.7123
  608MOL0     H83869   1.748   8.219   8.477 -0.9342  0.5811  4.5407
  608MOL0     H83870   1.551   8.382   8.459  0.6465  0.6452 -1.4238
  608MOL0     H83871   1.627   8.381   8.619  0.0774  1.0798 -0.7732
  608MOL0     H83872   1.563   8.596   8.496 -0.6364 -1.7550 -3.4296
  608MOL0     H83873   1.698   8.580   8.400 -1.0304  0.9553  0.7511
  608MOL0     H83874   1.857   8.575   8.600  0.0230 -0.4838 -0.4651
  608MOL0     H83875   1.723   8.579   8.710 -2.8887  0.3703 -1.4788
  608MOL0     H83876   1.861   8.797   8.627  0.5159 -1.6830 -0.5318
  608MOL0     H83877   1.730   8.805   8.510  1.1241  2.0540 -0.2269
  608MOL0     H83878   1.693   8.792   8.807 -0.5773  0.0856 -0.0762
  608MOL0     H83879   1.559   8.826   8.702 -0.2709 -0.6421  2.4546
  608MOL0     H83880   1.732   9.008   8.614  2.6515  0.1869  1.7742
  608MOL0     H83881   1.779   9.006   8.782 -1.2876  2.4444  1.3272
  608MOL0     H83882   1.511   9.028   8.818  0.6546  1.1677  2.4175
  608MOL0     H83883   1.535   9.085   8.642  1.5773  1.9281 -0.7030
  608MOL0     H83884   1.921   8.090   8.461  1.0595  0.8874 -3.1431
  608MOL0     H83885   2.145   7.981   8.444  0.2788  0.0536 -0.5985
  608MOL0     H83886   2.580   8.124   8.661 -0.3701  2.6949 -0.4544
  608MOL0     H83887   2.812   8.133   8.687 -2.4150  1.7214  0.1264
  608MOL0     H83888   2.737   8.816   7.493 -0.9686  0.9633  0.6756
  608MOL0     H83889   2.562   8.972   7.462  1.3413  0.6049 -1.5318
  608MOL0     H83890   2.178   8.924   7.106  0.3053 -0.5990 -0.1456
  608MOL0     H83891   1.948   8.907   7.069  6.0162 -3.0818 -1.6008
  608MOL0     H83892   1.599   8.962   7.145  0.4730 -2.8936 -0.1332
  608MOL0     H83893   1.736   8.868   7.209 -1.6677 -1.1799  1.9861
  608MOL0     H83894   1.708   8.955   7.434 -0.9670 -0.0051 -0.0208
  608MOL0     H83895   1.569   8.874   7.377  0.2929  0.5044  1.9002
  608MOL0     H83896   1.558   9.174   7.335  1.7661 -0.3873  0.8402
  608MOL0     H83897   1.432   9.052   7.373 -1.5757 -0.0231  3.9053
  608MOL0     H83898   1.667   9.126   7.566  0.1664 -2.9268  0.4290
  608MOL0     H83899   1.514   9.051   7.620 -1.5822  0.5106  0.3157
  608MOL0     H83900   1.362   9.423   7.612 -0.0397  0.0800 -1.1012
  608MOL0     H83901   1.889   9.213   7.370  0.3243  1.1829  1.0449
  608MOL0     H83902   2.194   9.288   7.454  1.3095 -0.7101 -1.5547
  608MOL0     H83903   2.035   9.272   7.533  0.7395  1.3872  2.3042
  608MOL0     H83904   2.140   9.148   7.560  0.3029  2.2189  2.2548
  609MOL0     O83905   5.319   0.410   0.431 -0.4386  0.0442 -0.4378
  609MOL0     C83906   5.387   0.429   0.537  0.0630  0.4435 -0.1156
  609MOL0     O83907   5.403   0.328   0.628  0.0483  0.5584 -0.3781
  609MOL0     C83908   5.349   0.204   0.612  0.3756 -0.4380  0.5512
  609MOL0     C83909   5.427   0.098   0.585  0.3990  0.1510 -0.5422
  609MOL0     C83910   5.361  -0.023   0.548 -1.1750  0.0117  0.1329
  609MOL0     C83911   5.220  -0.033   0.538 -0.8685  0.1525 -0.5422
  609MOL0     O83912   5.170  -0.163   0.516  0.1956 -0.2693  0.5818
  609MOL0     C83913   5.050  -0.190   0.588  0.2105 -0.1000  0.2534
  609MOL0     C83914   5.036  -0.342   0.604 -0.0859  0.2242 -0.8491
  609MOL0     C83915   5.007  -0.425   0.473  0.0411 -0.9028 -0.5357
  609MOL0     C83916   4.877  -0.392   0.417  0.6424 -0.8370  0.6622
  609MOL0     C83917   4.760  -0.461   0.479  0.1354  0.4792 -0.0259
  609MOL0     C83918   4.630  -0.445   0.399  0.2718 -0.4780 -0.3450
  609MOL0     C83919   4.581  -0.303   0.395  0.7625  0.0429 -0.7424
  609MOL0     C83920   4.446  -0.307   0.327 -0.9842 -0.1993  0.2681
  609MOL0     N83921   4.367  -0.187   0.337  0.0367 -0.1346  0.2812
  609MOL0     C83922   4.406  -0.064   0.290  0.0567 -0.3405 -0.6591
  609MOL0     C83923   4.303   0.013   0.297  0.7139 -0.8093 -0.4445
  609MOL0     C83924   4.299   0.146   0.220  0.0794 -0.1605 -0.2110
  609MOL0     C83925   4.315   0.259   0.323  0.2483  0.8921 -0.3847
  609MOL0     C83926   4.458   0.294   0.367 -0.1619  0.0495  0.1378
  609MOL0     C83927   4.464   0.352   0.512 -0.4633  0.6159  0.5519
  609MOL0     O83928   4.427   0.239   0.593 -0.2246  0.4154 -0.0264
  609MOL0     C83929   4.513   0.203   0.695  0.1553  0.3188 -1.0751
  609MOL0     C83930   4.575   0.073   0.699  0.1789  0.2521  0.1834
  609MOL0     C83931   4.667   0.045   0.800  1.0144 -0.1876  0.6958
  609MOL0     C83932   4.722  -0.098   0.796 -0.3812 -0.4947  0.0702
  609MOL0     C83933   4.711   0.145   0.892 -0.0799  0.7685 -0.5134
  609MOL0     C83934   4.806   0.124   1.000 -0.3974 -0.5137  0.1215
  609MOL0     O83935   4.805   0.206   1.112  0.9029  0.7435  0.2509
  609MOL0     C83936   4.870   0.167   1.229 -0.4807  0.0180  0.0259
  609MOL0     C83937   4.966   0.064   1.246 -0.1653 -0.0957  0.0414
  609MOL0     C83938   5.039   0.049   1.356 -0.5789  0.4153  0.6594
  609MOL0     C83939   5.019   0.132   1.468 -0.2957 -0.5211  0.1097
  609MOL0     O83940   5.104   0.129   1.579 -0.2062  0.4688 -0.0565
  609MOL0     C83941   5.158  -0.003   1.631 -0.4141 -0.8091  0.0376
  609MOL0     C83942   5.041  -0.095   1.666  0.0671  1.4941 -0.5679
  609MOL0     C83943   4.962  -0.069   1.795  0.4005  1.1088  0.7312
  609MOL0     C83944   5.032  -0.098   1.924 -0.2217  0.3833 -0.6389
  609MOL0     C83945   4.950  -0.082   2.058 -0.3231  0.1370  0.2174
  609MOL0     C83946   5.042  -0.099   2.178  0.7439  0.9938 -0.3022
  609MOL0     C83947   4.957  -0.123   2.307 -0.7097 -0.1165  0.0121
  609MOL0     C83948   4.881  -0.251   2.313  0.2913 -1.1112  0.4212
  609MOL0    Cl83949   4.966  -0.380   2.426 -0.8106  0.5566  0.4748
  609MOL0     C83950   4.931   0.245   1.452  0.2349 -0.9292  0.8244
  609MOL0     C83951   4.852   0.253   1.328 -0.4315  0.7865 -0.9787
  609MOL0     O83952   4.907   0.062   0.972 -0.0742  0.1349 -0.0009
  609MOL0     C83953   4.636   0.263   0.894  0.5805 -1.0372  0.5715
  609MOL0     C83954   4.542   0.292   0.794  0.6612  0.4713 -0.5088
  609MOL0     N83955   4.199  -0.068   0.356  0.5365  0.3353  0.2916
  609MOL0     N83956   4.240  -0.185   0.388  0.0866 -0.4188  0.0642
  609MOL0     C83957   5.144   0.077   0.550  0.7450  0.7999  0.4646
  609MOL0     C83958   5.208   0.193   0.594 -0.5868 -0.1723 -0.1337
  609MOL0     C83959   5.458   0.559   0.561 -0.1277 -0.1798 -0.3280
  609MOL0     C83960   5.550   0.553   0.671  0.0758 -0.3921 -1.0298
  609MOL0     C83961   5.616   0.671   0.705 -0.3569  0.8663 -0.8283
  609MOL0     C83962   5.613   0.791   0.632 -0.4339  0.3968 -0.5435
  609MOL0     O83963   5.680   0.906   0.680  0.3258  0.1857  0.8194
  609MOL0     C83964   5.710   1.020   0.594  0.2563  0.3242  0.5302
  609MOL0     C83965   5.844   1.074   0.629 -0.0971  0.9841 -1.1010
  609MOL0     C83966   5.961   0.990   0.587 -0.0001  0.4185 -0.0162
  609MOL0     C83967   6.078   0.984   0.677 -0.3795 -0.3860  0.7969
  609MOL0     C83968   6.127   1.116   0.714 -0.2978 -0.4325  0.2463
  609MOL0     C83969   6.162   1.233   0.728 -0.5371  0.2870  0.4858
  609MOL0     C83970   5.527   0.794   0.524 -0.2819  0.1836  0.1594
  609MOL0     C83971   5.439   0.684   0.491 -0.3153  0.3739 -0.0002
  609MOL0     C83972   5.347   0.699   0.373  0.4000 -0.2476  0.3851
  609MOL0     H83973   5.533   0.115   0.577  0.9890 -2.5725  0.3946
  609MOL0     H83974   5.427  -0.106   0.525  0.4902  0.4742  2.8363
  609MOL0     H83975   4.965  -0.151   0.531  1.5786  2.0500 -0.4374
  609MOL0     H83976   5.044  -0.147   0.688 -2.1654 -0.2207  0.2227
  609MOL0     H83977   5.128  -0.383   0.646  0.8852  1.2841 -1.8761
  609MOL0     H83978   4.949  -0.367   0.665 -1.1266 -0.5294 -2.5746
  609MOL0     H83979   5.092  -0.398   0.409  0.5113 -0.0020  0.4457
  609MOL0     H83980   5.014  -0.533   0.490  0.4962 -0.7280  0.4802
  609MOL0     H83981   4.855  -0.287   0.436  3.1062 -0.3091  0.8858
  609MOL0     H83982   4.889  -0.412   0.310 -0.9957 -1.5568  0.5885
  609MOL0     H83983   4.745  -0.422   0.580  1.2533  1.9049 -0.3759
  609MOL0     H83984   4.779  -0.569   0.475 -0.4219  0.3957 -3.3202
  609MOL0     H83985   4.626  -0.494   0.301 -0.5300 -0.0520 -0.5401
  609MOL0     H83986   4.567  -0.498   0.471  0.4709  2.8581  2.5500
  609MOL0     H83987   4.647  -0.249   0.326  1.5553  0.3570  0.2432
  609MOL0     H83988   4.561  -0.260   0.493 -1.0844 -3.1209  0.4074
  609MOL0     H83989   4.464  -0.318   0.220 -0.8799 -2.8708  0.5092
  609MOL0     H83990   4.383  -0.389   0.362 -2.6034  0.6965 -0.4172
  609MOL0     H83991   4.499  -0.047   0.236 -0.3836  0.2348 -1.2384
  609MOL0     H83992   4.196   0.152   0.182  0.3696  2.8953 -0.7823
  609MOL0     H83993   4.366   0.140   0.134 -2.0839  3.4072 -2.4397
  609MOL0     H83994   4.269   0.343   0.269 -0.2439  2.0102  1.6578
  609MOL0     H83995   4.246   0.239   0.405 -3.5262  2.3137 -2.9125
  609MOL0     H83996   4.522   0.205   0.366  1.4852  1.1335  2.0336
  609MOL0     H83997   4.511   0.371   0.310 -2.8507 -0.0025 -2.6541
  609MOL0     H83998   4.563   0.393   0.532  0.1968 -0.2490 -0.7724
  609MOL0     H83999   4.399   0.440   0.518 -0.7536  0.7857 -2.8445
  609MOL0     H84000   4.570  -0.003   0.621  1.8259  0.3693 -0.0883
  609MOL0     H84001   4.663  -0.165   0.733 -0.4351 -0.5938  0.2238
  609MOL0     H84002   4.711  -0.140   0.897  0.1906 -0.8344 -0.0067
  609MOL0     H84003   4.827  -0.104   0.767 -0.1874 -0.5275  0.7563
  609MOL0     H84004   4.985  -0.002   1.162  1.3881  0.0138  0.2921
  609MOL0     H84005   5.110  -0.033   1.357  1.0317  1.7585  0.4610
  609MOL0     H84006   5.225  -0.050   1.559 -1.1988 -3.7832  1.0911
  609MOL0     H84007   5.220   0.015   1.719  1.2270  0.6304 -1.3240
  609MOL0     H84008   4.977  -0.103   1.578  0.9314 -1.0901 -1.0317
  609MOL0     H84009   5.083  -0.196   1.671 -0.2690  1.3951  0.5839
  609MOL0     H84010   4.868  -0.122   1.778 -0.1569  2.5361 -1.0647
  609MOL0     H84011   4.930   0.036   1.796 -3.1322  0.2041 -0.0203
  609MOL0     H84012   5.113  -0.025   1.932 -0.0927  0.0177  2.0941
  609MOL0     H84013   5.073  -0.198   1.912 -1.3298  0.0560 -1.9000
  609MOL0     H84014   4.901   0.015   2.056  2.9740  1.9637 -0.0623
  609MOL0     H84015   4.873  -0.160   2.062 -0.2590  0.0544 -0.0604
  609MOL0     H84016   5.110  -0.015   2.193 -1.4648  2.3818  3.5613
  609MOL0     H84017   5.107  -0.186   2.164  0.2794  0.7888 -1.2397
  609MOL0     H84018   4.887  -0.042   2.327 -1.3358 -0.7131  0.2498
  609MOL0     H84019   5.034  -0.123   2.385 -1.2723 -1.8747  0.5930
  609MOL0     H84020   4.865  -0.296   2.214  0.2332 -1.0663  0.4095
  609MOL0     H84021   4.779  -0.226   2.344 -1.6179 -2.2406 -4.0918
  609MOL0     H84022   4.923   0.328   1.521 -2.9741  2.2633 -2.9145
  609MOL0     H84023   4.779   0.332   1.320 -0.8013  1.1196  3.4346
  609MOL0     H84024   4.637   0.340   0.971 -1.1986 -0.1691 -0.2136
  609MOL0     H84025   4.487   0.384   0.812  0.3418  0.1479  0.1892
  609MOL0     H84026   5.037   0.077   0.533  0.4724  5.0328  1.0351
  609MOL0     H84027   5.143   0.280   0.602  0.0254  0.2956 -0.1226
  609MOL0     H84028   5.576   0.462   0.725  2.8056  1.6752  1.4944
  609MOL0     H84029   5.691   0.665   0.783 -0.4104  0.6641 -0.7911
  609MOL0     H84030   5.702   0.991   0.489 -0.6275  0.5966  0.5119
  609MOL0     H84031   5.632   1.095   0.607 -0.4139 -0.0850 -0.8798
  609MOL0     H84032   5.838   1.093   0.736 -1.5828  0.9573 -1.1529
  609MOL0     H84033   5.863   1.171   0.581 -0.9524  0.7458 -1.9642
  609MOL0     H84034   5.922   0.890   0.564 -0.4478  0.6879 -0.4510
  609MOL0     H84035   6.007   1.030   0.496  1.6675  0.3365  0.7585
  609MOL0     H84036   6.158   0.933   0.623 -1.5327 -0.3955 -1.0019
  609MOL0     H84037   6.039   0.926   0.762 -3.2108  2.5320  1.6914
  609MOL0     H84038   6.194   1.334   0.744 -2.2639  0.8525  0.4804
  609MOL0     H84039   5.517   0.884   0.464  2.9956  0.7775  0.3120
  609MOL0     H84040   5.399   0.666   0.283 -1.4421  2.3815 -1.8119
  609MOL0     H84041   5.260   0.635   0.392  1.7806 -2.7135 -0.9993
  609MOL0     H84042   5.310   0.801   0.363 -2.1733 -1.2466 -1.7826
  610MOL0     O84043   3.269   4.775   9.823 -0.6371  0.1763 -0.0254
  610MOL0     C84044   3.270   4.892   9.824  0.5478  0.1765 -0.8914
  610MOL0     O84045   3.330   4.974   9.919  0.1423  0.1007  0.1229
  610MOL0     C84046   3.385   4.937  10.039  0.8836 -0.6087 -0.6343
  610MOL0     C84047   3.357   5.015  10.151 -1.1701 -0.1994  0.0589
  610MOL0     C84048   3.396   4.969  10.286  0.1368 -0.3063  0.5710
  610MOL0     C84049   3.461   4.849  10.308  1.1007 -0.5790  0.0224
  610MOL0     O84050   3.484   4.810  10.437  0.6691  0.6210  0.0299
  610MOL0     C84051   3.532   4.895  10.542  0.2773 -1.0822 -0.6333
  610MOL0     C84052   3.685   4.917  10.508  0.2406  0.2416 -0.3651
  610MOL0     C84053   3.755   5.012  10.609  0.7331  0.0100  0.8445
  610MOL0     C84054   3.793   4.937  10.736 -0.6639  0.0941 -0.1351
  610MOL0     C84055   3.870   5.028  10.837 -1.0213 -0.9287 -0.2226
  610MOL0     C84056   3.896   4.956  10.970  0.6552 -1.2543  0.4699
  610MOL0     C84057   3.946   5.046  11.088 -0.0735  0.0528 -0.7312
  610MOL0     C84058   4.103   5.057  11.096  0.5515  1.0316  0.5658
  610MOL0     N84059   4.166   4.922  11.104 -0.1838 -0.9304  0.3370
  610MOL0     C84060   4.262   4.877  11.013  0.7972 -0.0224 -0.4932
  610MOL0     C84061   4.288   4.749  11.063  0.0260 -0.2553  0.5826
  610MOL0     C84062   4.383   4.645  11.001  0.2983  0.5918  0.4914
  610MOL0     C84063   4.503   4.708  10.942 -0.6023  0.4160  0.5236
  610MOL0     C84064   4.617   4.601  10.914 -0.7432 -0.2675  0.7223
  610MOL0     C84065   4.681   4.551  11.043  0.6141 -0.5764  0.3691
  610MOL0     O84066   4.807   4.490  11.026 -0.1684  0.6650  0.2297
  610MOL0     C84067   4.805   4.358  10.991 -0.9015 -0.5073  0.0542
  610MOL0     C84068   4.768   4.257  11.083 -0.9138 -0.0507  1.1039
  610MOL0     C84069   4.759   4.113  11.047 -0.7455  0.9086 -1.2655
  610MOL0     C84070   4.730   4.011  11.156  0.3607 -0.2599 -0.7225
  610MOL0     C84071   4.775   4.084  10.905 -0.8855 -1.1219 -0.7388
  610MOL0     C84072   4.752   3.954  10.847  0.0583  0.2399 -0.0802
  610MOL0     O84073   4.773   3.954  10.711  0.0913 -0.5888 -0.6126
  610MOL0     C84074   4.778   3.833  10.640  0.8556 -0.4507 -0.8107
  610MOL0     C84075   4.718   3.836  10.522 -1.1392 -0.3339  0.4212
  610MOL0     C84076   4.723   3.733  10.429 -0.1605  0.3826 -0.1628
  610MOL0     C84077   4.794   3.620  10.464  0.7954  1.1915  0.4512
  610MOL0     O84078   4.816   3.539  10.360 -0.1039 -0.3981  0.7692
  610MOL0     C84079   4.862   3.406  10.383  0.3725 -0.1186 -0.4019
  610MOL0     C84080   4.828   3.312  10.267  0.6790 -0.4302  0.7838
  610MOL0     C84081   4.849   3.163  10.278 -1.0399 -0.0314  0.5849
  610MOL0     C84082   4.979   3.119  10.343 -0.5082 -0.6851 -0.3592
  610MOL0     C84083   5.087   3.147  10.233  0.5870 -0.2667 -0.1654
  610MOL0     C84084   5.220   3.108  10.285 -0.4283  0.6201 -0.2641
  610MOL0     C84085   5.241   2.948  10.306 -0.0390  0.0855  0.3918
  610MOL0     C84086   5.246   2.888  10.168  0.1282  0.4156 -1.0260
  610MOL0    Cl84087   5.323   2.730  10.177 -0.1067  0.1516 -0.3305
  610MOL0     C84088   4.847   3.606  10.588 -0.4861  1.0862  0.4894
  610MOL0     C84089   4.847   3.711  10.679  1.2642  0.1470 -0.3446
  610MOL0     O84090   4.713   3.853  10.905  0.1411  0.0083  0.6552
  610MOL0     C84091   4.821   4.191  10.812 -0.0178 -0.6528  0.1023
  610MOL0     C84092   4.829   4.326  10.858 -0.3210 -0.2358  0.6160
  610MOL0     N84093   4.214   4.729  11.178 -0.1967  0.2002 -0.9267
  610MOL0     N84094   4.145   4.830  11.198 -1.0849  0.3845 -0.1555
  610MOL0     C84095   3.479   4.762  10.198 -0.1392 -0.3555 -0.2096
  610MOL0     C84096   3.437   4.813  10.071 -0.1788 -0.2560  0.2846
  610MOL0     C84097   3.242   4.951   9.693  1.7835 -0.2360 -0.8735
  610MOL0     C84098   3.329   5.059   9.656 -0.1729 -0.1972 -0.4224
  610MOL0     C84099   3.317   5.115   9.533  0.0566 -0.4485 -0.0406
  610MOL0     C84100   3.211   5.090   9.450 -0.2573  0.8261  0.6809
  610MOL0     O84101   3.190   5.153   9.331  1.0418  0.1313 -0.1363
  610MOL0     C84102   3.289   5.251   9.283  0.0682  0.4402  1.0104
  610MOL0     C84103   3.220   5.332   9.173 -0.1074  0.1957 -0.3960
  610MOL0     C84104   3.117   5.433   9.229 -0.1447 -0.5765 -1.0056
  610MOL0     C84105   3.030   5.515   9.126 -0.0334 -0.8937 -0.1758
  610MOL0     C84106   3.104   5.629   9.064  1.1775  0.6978 -0.5974
  610MOL0     C84107   3.169   5.714   9.008  1.0605 -0.0368  0.7499
  610MOL0     C84108   3.120   4.991   9.488 -0.9566 -0.7514  0.0974
  610MOL0     C84109   3.135   4.917   9.601 -0.6427  0.6566 -0.9649
  610MOL0     C84110   3.034   4.811   9.626  0.7869 -0.5024 -0.1356
  610MOL0     H84111   3.291   5.101  10.151 -1.0568 -0.0890 -1.2869
  610MOL0     H84112   3.371   5.031  10.372 -1.7158  0.0773 -0.1814
  610MOL0     H84113   3.511   4.856  10.642  1.6431 -0.9893 -0.2909
  610MOL0     H84114   3.494   4.997  10.534  3.1041 -0.0762 -3.9146
  610MOL0     H84115   3.738   4.822  10.517  0.2876  0.3527  0.7301
  610MOL0     H84116   3.692   4.977  10.417  0.7095  0.5401 -0.1316
  610MOL0     H84117   3.850   5.046  10.566 -0.0831  0.7212 -0.4471
  610MOL0     H84118   3.689   5.097  10.630 -1.0803 -0.5773 -1.9824
  610MOL0     H84119   3.707   4.890  10.785  0.6974  0.1863  2.5546
  610MOL0     H84120   3.858   4.854  10.708 -0.2272  0.4443 -0.1755
  610MOL0     H84121   3.807   5.116  10.848 -1.9112 -1.5636 -0.1399
  610MOL0     H84122   3.968   5.066  10.808 -2.0055  0.7514 -1.5144
  610MOL0     H84123   3.797   4.924  11.005 -1.2114  0.5316 -2.6993
  610MOL0     H84124   3.945   4.859  10.957 -2.5356 -3.0239  0.3986
  610MOL0     H84125   3.915   4.981  11.170  0.0078  0.7574 -0.1364
  610MOL0     H84126   3.903   5.147  11.090  2.1705  1.1221  3.0760
  610MOL0     H84127   4.130   5.098  10.999  0.6277 -0.7588 -0.2197
  610MOL0     H84128   4.132   5.113  11.185  2.6019 -0.6817  1.0675
  610MOL0     H84129   4.305   4.928  10.928 -0.1892 -1.0637 -1.6572
  610MOL0     H84130   4.324   4.587  10.929 -0.2355  0.3687  1.1019
  610MOL0     H84131   4.408   4.578  11.083  0.1755 -0.5397 -0.3653
  610MOL0     H84132   4.484   4.760  10.848  4.2502  1.4115 -0.2048
  610MOL0     H84133   4.539   4.790  11.005  1.5533 -0.2286  0.2453
  610MOL0     H84134   4.586   4.526  10.841  0.6988  0.7738 -1.0276
  610MOL0     H84135   4.690   4.669  10.870 -1.1421  0.0662  0.5646
  610MOL0     H84136   4.692   4.628  11.120 -0.1101  0.0554 -0.1389
  610MOL0     H84137   4.604   4.491  11.093 -1.2496  0.1301 -1.4958
  610MOL0     H84138   4.759   4.297  11.184 -2.1023  1.3538  0.4774
  610MOL0     H84139   4.651   3.944  11.122  0.3953  0.8699 -3.2334
  610MOL0     H84140   4.696   4.054  11.251  0.3578  0.7823 -1.1791
  610MOL0     H84141   4.826   3.962  11.176  0.5210  1.5338  4.6547
  610MOL0     H84142   4.670   3.928  10.490 -1.7436  0.1283  2.5040
  610MOL0     H84143   4.694   3.742  10.325 -0.1883  1.7133 -0.0496
  610MOL0     H84144   4.970   3.409  10.402  0.5752  2.6827 -1.5282
  610MOL0     H84145   4.812   3.358  10.468  2.1222 -1.2006  0.0843
  610MOL0     H84146   4.721   3.327  10.247  0.6464  1.6842  2.2134
  610MOL0     H84147   4.881   3.338  10.175  0.0297  1.6506  0.9438
  610MOL0     H84148   4.843   3.119  10.178  5.9390 -4.0037  1.2363
  610MOL0     H84149   4.782   3.118  10.353  1.4359  0.3354  3.2036
  610MOL0     H84150   4.971   3.014  10.371 -0.9326  0.2634  3.7522
  610MOL0     H84151   5.006   3.169  10.437  0.4879 -1.2055 -0.3572
  610MOL0     H84152   5.062   3.096  10.140 -0.4159 -0.8847  0.4314
  610MOL0     H84153   5.096   3.255  10.216  1.6040 -0.4427 -0.8256
  610MOL0     H84154   5.233   3.144  10.388 -1.0267 -0.1424  0.0886
  610MOL0     H84155   5.296   3.138  10.212  0.0024 -1.0050 -0.5404
  610MOL0     H84156   5.161   2.888  10.349 -0.6812  0.2652 -0.5337
  610MOL0     H84157   5.333   2.926  10.361 -0.0351  1.9200  1.1707
  610MOL0     H84158   5.311   2.949  10.104  1.7482  0.4118  0.5315
  610MOL0     H84159   5.148   2.875  10.122  0.2365  0.6504 -1.3300
  610MOL0     H84160   4.907   3.519  10.612 -5.6414 -2.8495  0.7566
  610MOL0     H84161   4.902   3.692  10.770 -1.3570 -0.5042  1.2293
  610MOL0     H84162   4.849   4.171  10.709  0.8213  1.8411 -0.2246
  610MOL0     H84163   4.871   4.401  10.793 -0.8968  0.6012  1.1897
  610MOL0     H84164   3.523   4.665  10.218 -0.8654 -0.8517 -0.9159
  610MOL0     H84165   3.462   4.747   9.989  0.4251 -1.0041  1.0540
  610MOL0     H84166   3.415   5.088   9.716 -0.0215 -3.0609  0.9337
  610MOL0     H84167   3.402   5.182   9.522 -1.5634  1.8205  0.6635
  610MOL0     H84168   3.320   5.313   9.368  1.3018  0.8803  0.2719
  610MOL0     H84169   3.371   5.202   9.231 -0.9796  1.0309 -1.3240
  610MOL0     H84170   3.172   5.257   9.110  2.7733  0.6529 -3.3491
  610MOL0     H84171   3.302   5.383   9.122  2.2307 -1.8419  1.1261
  610MOL0     H84172   3.037   5.389   9.288 -2.1552  0.8441 -2.5287
  610MOL0     H84173   3.162   5.500   9.304  0.5452 -1.8248 -0.2728
  610MOL0     H84174   2.940   5.546   9.179 -1.5347 -3.7356 -0.8524
  610MOL0     H84175   3.005   5.444   9.047 -0.3488  1.0596 -1.9213
  610MOL0     H84176   3.230   5.783   8.953 -0.1321 -0.7063 -1.5785
  610MOL0     H84177   3.042   4.959   9.421  0.7920 -2.2387 -1.3249
  610MOL0     H84178   2.940   4.867   9.639  1.0248  0.7024 -2.9869
  610MOL0     H84179   3.023   4.738   9.545  1.4635 -0.1392 -0.5591
  610MOL0     H84180   3.050   4.743   9.710  0.9771 -1.0480 -0.6072
  611MOL0     O84181   6.362   5.534   2.993 -0.3258 -0.2592  0.6102
  611MOL0     C84182   6.318   5.647   2.969 -0.3273  0.2746 -0.3625
  611MOL0     O84183   6.367   5.756   3.022 -0.3035  0.0911 -0.6355
  611MOL0     C84184   6.475   5.743   3.103  0.4722  0.0523  0.2240
  611MOL0     C84185   6.601   5.715   3.044 -0.3084  0.7046 -0.7141
  611MOL0     C84186   6.721   5.693   3.116  0.2229 -1.0134  0.4155
  611MOL0     C84187   6.717   5.714   3.251  0.3189  0.7344 -1.0635
  611MOL0     O84188   6.827   5.728   3.329 -0.7029  0.0311  0.3852
  611MOL0     C84189   6.871   5.610   3.410  0.6610 -0.5626 -0.4911
  611MOL0     C84190   6.969   5.523   3.331 -0.8857 -0.8663  0.0101
  611MOL0     C84191   7.095   5.604   3.302  0.0128 -1.4379 -1.3929
  611MOL0     C84192   7.179   5.550   3.191 -0.2914  1.0423 -0.3331
  611MOL0     C84193   7.292   5.644   3.150  1.1713  0.4015 -0.4861
  611MOL0     C84194   7.361   5.607   3.025  0.0723  1.3047  0.2876
  611MOL0     C84195   7.266   5.584   2.906  0.3329  0.3750  0.4002
  611MOL0     C84196   7.331   5.596   2.765  0.1058  0.5998  0.1908
  611MOL0     N84197   7.245   5.510   2.682 -0.0206 -0.5845 -0.3015
  611MOL0     C84198   7.275   5.385   2.643 -0.6585  0.1051 -0.0793
  611MOL0     C84199   7.157   5.339   2.600  0.3608  0.5703 -0.8188
  611MOL0     C84200   7.145   5.204   2.525 -0.0451 -0.5001  1.1288
  611MOL0     C84201   7.204   5.094   2.599  0.6097 -0.0464  0.2370
  611MOL0     C84202   7.134   4.960   2.568  0.7154 -0.6149  0.0377
  611MOL0     C84203   7.163   4.848   2.671  0.4386  0.0368 -0.4559
  611MOL0     O84204   7.278   4.785   2.631 -0.5754 -0.5890  0.9961
  611MOL0     C84205   7.340   4.710   2.728 -0.4263  1.0601  1.2240
  611MOL0     C84206   7.474   4.681   2.704  0.5620 -0.8440 -0.2617
  611MOL0     C84207   7.547   4.593   2.780  0.9496  0.0401 -1.4543
  611MOL0     C84208   7.695   4.579   2.730  0.9120 -0.1824  0.3930
  611MOL0     C84209   7.498   4.537   2.899  0.6353 -0.7703  0.8897
  611MOL0     C84210   7.581   4.462   2.998  0.5108 -1.0828  1.2154
  611MOL0     O84211   7.540   4.444   3.128 -0.6365  0.1357 -0.1387
  611MOL0     C84212   7.605   4.350   3.203 -0.4061  0.4886  0.6010
  611MOL0     C84213   7.696   4.382   3.306 -0.0806  0.1403 -0.6331
  611MOL0     C84214   7.752   4.274   3.396 -0.2957 -0.5292  0.4595
  611MOL0     C84215   7.727   4.134   3.372 -1.0322  0.0009  0.3367
  611MOL0     O84216   7.779   4.023   3.431 -0.1675 -0.2478 -0.0753
  611MOL0     C84217   7.905   4.033   3.491  0.4059  0.4705  0.0736
  611MOL0     C84218   7.982   3.908   3.461 -0.2820  0.9959 -0.1571
  611MOL0     C84219   7.911   3.768   3.484  1.0169 -0.4983  0.0306
  611MOL0     C84220   7.844   3.711   3.363 -0.2070  0.3926 -0.4823
  611MOL0     C84221   7.763   3.582   3.394 -1.2930 -0.7536  0.0755
  611MOL0     C84222   7.621   3.603   3.460  0.0662 -0.3238  0.2972
  611MOL0     C84223   7.568   3.465   3.498  0.1241  0.5190 -0.9252
  611MOL0     C84224   7.423   3.448   3.476  1.0576  0.1939  0.3793
  611MOL0    Cl84225   7.342   3.551   3.599  0.4312  0.0111  0.2983
  611MOL0     C84226   7.627   4.104   3.275  0.3071 -1.0162  0.0400
  611MOL0     C84227   7.572   4.210   3.189  0.6977 -0.6662  0.2832
  611MOL0     O84228   7.689   4.422   2.959 -0.1565 -0.8785  0.8919
  611MOL0     C84229   7.361   4.553   2.922  0.1168  0.2024 -0.0904
  611MOL0     C84230   7.283   4.647   2.841 -0.0335  0.0772  0.4600
  611MOL0     N84231   7.063   5.430   2.622  1.1867 -0.2587  0.6164
  611MOL0     N84232   7.113   5.536   2.670 -1.3611  0.1109  0.1447
  611MOL0     C84233   6.594   5.741   3.324 -0.2908 -0.7242  0.2750
  611MOL0     C84234   6.473   5.761   3.248  0.1325 -0.1577  0.1578
  611MOL0     C84235   6.194   5.655   2.884  0.2760 -0.5025  0.0500
  611MOL0     C84236   6.136   5.778   2.883  0.9133 -1.3359  0.8822
  611MOL0     C84237   6.033   5.817   2.793  0.3894  0.3037 -0.8776
  611MOL0     C84238   5.981   5.713   2.713 -0.3135 -0.3725 -0.8946
  611MOL0     O84239   5.882   5.737   2.630  0.4512 -0.1138 -0.0944
  611MOL0     C84240   5.902   5.835   2.532  0.0448 -0.0708 -0.1800
  611MOL0     C84241   5.796   5.957   2.533 -0.3036  0.4042  0.8784
  611MOL0     C84242   5.663   5.901   2.587  0.2836 -0.4393 -0.2561
  611MOL0     C84243   5.548   6.000   2.594  0.4208  0.2952 -0.2598
  611MOL0     C84244   5.586   6.133   2.656  0.4474 -0.3190  0.2433
  611MOL0     C84245   5.603   6.239   2.718 -0.0097  0.4983 -0.2831
  611MOL0     C84246   6.028   5.582   2.730  0.1762  0.9243  0.3400
  611MOL0     C84247   6.136   5.544   2.806  0.5916  0.0285  0.1167
  611MOL0     C84248   6.180   5.404   2.805  0.3164  1.0935  0.5497
  611MOL0     H84249   6.603   5.692   2.938 -1.1079  1.6292 -0.9476
  611MOL0     H84250   6.812   5.664   3.066  0.5050  0.2658  0.1542
  611MOL0     H84251   6.785   5.550   3.443  0.7379  0.6085  2.1148
  611MOL0     H84252   6.909   5.658   3.501 -1.6267  1.4590 -0.4710
  611MOL0     H84253   6.995   5.437   3.393  0.2904  0.0197  0.7965
  611MOL0     H84254   6.914   5.501   3.239 -2.4276  0.1594  0.6481
  611MOL0     H84255   7.067   5.707   3.281 -0.2556 -0.9232  1.1892
  611MOL0     H84256   7.147   5.606   3.398  2.3089  1.3857 -2.5328
  611MOL0     H84257   7.224   5.454   3.217 -1.2319  0.2933 -1.3689
  611MOL0     H84258   7.122   5.520   3.104  0.6957 -1.1235 -0.2856
  611MOL0     H84259   7.375   5.655   3.221 -0.8803  2.8311  1.7639
  611MOL0     H84260   7.246   5.743   3.160  0.8634  0.1321  1.2074
  611MOL0     H84261   7.431   5.685   2.996  3.1601 -0.4536  2.3928
  611MOL0     H84262   7.413   5.511   3.030 -2.2912 -0.1944 -1.5911
  611MOL0     H84263   7.192   5.662   2.923 -2.1828 -1.8302  0.1755
  611MOL0     H84264   7.228   5.481   2.904  0.1295  0.4449  0.6128
  611MOL0     H84265   7.324   5.700   2.733  4.0775  0.0345 -3.4003
  611MOL0     H84266   7.434   5.560   2.764 -0.4657 -1.1296  0.1578
  611MOL0     H84267   7.373   5.338   2.643  0.6858  2.7421  0.0824
  611MOL0     H84268   7.188   5.210   2.425 -2.8576  1.3906 -0.1066
  611MOL0     H84269   7.041   5.190   2.494  0.0624  0.2843  0.3699
  611MOL0     H84270   7.310   5.080   2.578  1.0768  0.2721  2.2454
  611MOL0     H84271   7.197   5.105   2.707 -0.1653  0.9436  0.0950
  611MOL0     H84272   7.025   4.968   2.572  0.6605 -1.3085  0.0205
  611MOL0     H84273   7.162   4.924   2.468 -0.5201 -0.5860 -0.3327
  611MOL0     H84274   7.180   4.887   2.771  2.2907 -0.3027 -0.6149
  611MOL0     H84275   7.072   4.788   2.683  0.0326  1.0101  1.7386
  611MOL0     H84276   7.520   4.756   2.642 -1.8312  1.6742  0.7503
  611MOL0     H84277   7.755   4.623   2.810  1.7140 -1.9999  0.8462
  611MOL0     H84278   7.713   4.627   2.633 -0.7937  1.2765  0.7453
  611MOL0     H84279   7.722   4.475   2.712 -3.3958 -1.7010  1.6308
  611MOL0     H84280   7.721   4.487   3.315 -1.3531  0.3080  2.0782
  611MOL0     H84281   7.827   4.305   3.469  1.3719  1.8405 -2.0975
  611MOL0     H84282   7.960   4.124   3.466 -0.6798  1.1624  0.1623
  611MOL0     H84283   7.899   4.053   3.599  2.4160  0.1119  0.3014
  611MOL0     H84284   8.009   3.912   3.355 -0.2313  2.1721 -0.1110
  611MOL0     H84285   8.076   3.916   3.516 -2.0673  1.1502  3.1037
  611MOL0     H84286   7.834   3.787   3.558  0.0951 -0.6774 -0.8574
  611MOL0     H84287   7.977   3.693   3.529 -0.5915 -1.3189  1.1168
  611MOL0     H84288   7.926   3.703   3.292 -0.1853  1.4904 -0.6047
  611MOL0     H84289   7.782   3.796   3.332 -1.3723  1.0319  3.1202
  611MOL0     H84290   7.745   3.538   3.295 -2.4954  0.3542 -0.2242
  611MOL0     H84291   7.839   3.524   3.448  1.2292  0.3966 -2.0474
  611MOL0     H84292   7.545   3.657   3.403 -1.4357 -0.0275  2.4823
  611MOL0     H84293   7.637   3.653   3.556  0.4209  1.3675 -0.6040
  611MOL0     H84294   7.598   3.461   3.603 -2.6142  1.7915 -0.0165
  611MOL0     H84295   7.622   3.385   3.445 -0.6941 -0.6747 -0.0010
  611MOL0     H84296   7.406   3.347   3.514  3.1941 -0.4446 -0.2288
  611MOL0     H84297   7.384   3.460   3.375  2.6210  2.9528  0.0174
  611MOL0     H84298   7.583   4.007   3.256 -1.7688  0.2606 -2.3047
  611MOL0     H84299   7.490   4.174   3.128  0.3771  1.7759 -0.8355
  611MOL0     H84300   7.304   4.512   3.005  0.7257 -2.1541 -0.7689
  611MOL0     H84301   7.178   4.649   2.870  0.0705  0.6720  0.8008
  611MOL0     H84302   6.600   5.754   3.432 -2.6877  4.0146  0.0933
  611MOL0     H84303   6.385   5.792   3.304 -0.4478 -0.0064 -0.8245
  611MOL0     H84304   6.153   5.849   2.963  0.6639 -1.7858  1.3384
  611MOL0     H84305   5.993   5.917   2.776  1.8380  1.6520  2.6937
  611MOL0     H84306   6.004   5.870   2.510 -0.2692  0.9688 -0.0389
  611MOL0     H84307   5.873   5.786   2.439  0.2650 -0.5267 -0.0100
  611MOL0     H84308   5.779   5.986   2.429 -0.0709 -0.6617  0.5325
  611MOL0     H84309   5.842   6.038   2.590 -0.3621  2.3829 -1.7170
  611MOL0     H84310   5.627   5.814   2.532  0.3111 -0.2627 -0.5572
  611MOL0     H84311   5.682   5.879   2.693  0.1954  1.9554  0.3366
  611MOL0     H84312   5.473   5.960   2.663  1.3040 -1.9948 -0.5413
  611MOL0     H84313   5.500   6.015   2.497  0.1336  1.4660  0.0461
  611MOL0     H84314   5.617   6.324   2.781  3.2285 -0.1931  0.1279
  611MOL0     H84315   5.981   5.498   2.680 -0.3545  1.4237 -0.0047
  611MOL0     H84316   6.278   5.402   2.756 -0.6416  1.0536 -1.4437
  611MOL0     H84317   6.191   5.361   2.905  1.8435 -4.5525 -1.6855
  611MOL0     H84318   6.119   5.335   2.747  0.0816  0.5083  1.4669
  612MOL0     O84319  10.674   4.191   6.901 -1.1777  0.4734  0.5178
  612MOL0     C84320  10.587   4.227   6.820  0.2767  0.9666 -0.5874
  612MOL0     O84321  10.477   4.153   6.792 -0.0537 -0.6811  0.5050
  612MOL0     C84322  10.359   4.217   6.789  0.6294 -0.0236 -0.5351
  612MOL0     C84323  10.292   4.210   6.673  0.6193 -0.1916  0.5322
  612MOL0     C84324  10.163   4.257   6.667  0.0501 -0.3739  0.2133
  612MOL0     C84325  10.092   4.295   6.780  0.4829  0.2007 -0.1895
  612MOL0     O84326   9.956   4.317   6.764  0.3359  0.7236 -0.4833
  612MOL0     C84327   9.880   4.391   6.868 -0.4884 -0.3666 -0.0161
  612MOL0     C84328   9.904   4.534   6.844 -1.2309 -0.4202  0.3213
  612MOL0     C84329   9.812   4.603   6.951 -0.4597 -0.1515  0.1784
  612MOL0     C84330   9.798   4.755   6.936  0.4890 -0.5238  1.3745
  612MOL0     C84331   9.696   4.819   7.046 -0.0477 -0.2028  0.5224
  612MOL0     C84332   9.640   4.955   7.005  0.3958  0.7529 -0.1695
  612MOL0     C84333   9.755   5.065   7.000  0.4523 -0.5385 -0.2147
  612MOL0     C84334   9.728   5.172   6.894 -0.4548 -0.8622  0.2826
  612MOL0     N84335   9.754   5.102   6.766  0.3261 -0.0747 -0.3673
  612MOL0     C84336   9.665   5.076   6.662  1.4385  0.2854  0.4271
  612MOL0     C84337   9.736   5.015   6.572  0.9592  0.4669  0.4662
  612MOL0     C84338   9.674   4.941   6.445 -0.2203 -0.9224 -0.4551
  612MOL0     C84339   9.693   5.028   6.317 -0.7925 -0.1478 -0.4188
  612MOL0     C84340   9.654   4.957   6.187  0.0335  1.1153  0.1220
  612MOL0     C84341   9.762   4.901   6.101 -0.3934 -0.2276 -0.2058
  612MOL0     O84342   9.810   4.778   6.158 -0.1459 -0.2177 -0.2040
  612MOL0     C84343   9.900   4.715   6.081 -0.7373  0.0939 -0.7567
  612MOL0     C84344   9.874   4.649   5.963  0.8044 -0.1202  0.7437
  612MOL0     C84345   9.973   4.588   5.885  0.4491 -0.6735  0.8130
  612MOL0     C84346   9.922   4.507   5.767 -0.1244  0.0545 -0.1667
  612MOL0     C84347  10.108   4.617   5.910 -0.1018  0.1388 -0.9227
  612MOL0     C84348  10.219   4.573   5.821 -0.6731  0.4766 -0.3381
  612MOL0     O84349  10.333   4.653   5.822 -0.4531  0.3642  0.1186
  612MOL0     C84350  10.435   4.624   5.732  0.0606  1.2030  0.0102
  612MOL0     C84351  10.418   4.583   5.596  0.1538  0.8207 -0.1548
  612MOL0     C84352  10.526   4.568   5.511  0.0382  0.5945  0.4314
  612MOL0     C84353  10.652   4.619   5.555  0.4180  0.7526 -0.4140
  612MOL0     O84354  10.738   4.611   5.452 -0.1321 -0.3138  0.1536
  612MOL0     C84355  10.861   4.676   5.473 -0.4287 -0.1325  0.1522
  612MOL0     C84356  10.976   4.636   5.380  0.2084  0.0760 -0.4197
  612MOL0     C84357  11.102   4.710   5.421  0.8051  0.9182  0.6695
  612MOL0     C84358  11.114   4.858   5.375  0.2978 -0.5709 -0.3731
  612MOL0     C84359  11.163   4.877   5.235 -0.5655  0.6085  0.0726
  612MOL0     C84360  11.200   5.026   5.207  0.4705 -0.1705 -0.1767
  612MOL0     C84361  11.339   5.079   5.264  0.0951  0.5846  0.5273
  612MOL0     C84362  11.371   5.224   5.203 -0.2680 -0.0686 -0.1377
  612MOL0    Cl84363  11.257   5.356   5.231  0.2382  0.0448 -0.0048
  612MOL0     C84364  10.670   4.662   5.688  0.2580  0.6657 -0.0496
  612MOL0     C84365  10.563   4.657   5.772  0.7281  0.3474 -0.3093
  612MOL0     O84366  10.212   4.467   5.758 -0.7546 -0.2285 -0.2374
  612MOL0     C84367  10.134   4.701   6.020 -0.1721  1.4629 -0.2998
  612MOL0     C84368  10.036   4.744   6.108  0.1019  0.3749 -0.0989
  612MOL0     N84369   9.870   5.016   6.614  0.0278  0.1808  0.5006
  612MOL0     N84370   9.877   5.066   6.726  0.3549 -0.0919 -0.1014
  612MOL0     C84371  10.160   4.301   6.903 -0.5428 -0.3456  0.0448
  612MOL0     C84372  10.296   4.251   6.911 -0.6175 -0.9730  0.0412
  612MOL0     C84373  10.604   4.371   6.774 -0.0525 -0.3208  0.7402
  612MOL0     C84374  10.601   4.473   6.874 -1.0191  0.6630  0.2998
  612MOL0     C84375  10.633   4.611   6.833  0.4863 -0.0441  0.1571
  612MOL0     C84376  10.674   4.631   6.699 -0.4903 -0.1176 -0.5849
  612MOL0     O84377  10.712   4.758   6.643  0.6411 -0.8458  0.6207
  612MOL0     C84378  10.721   4.872   6.726  0.3699  0.8909 -0.7032
  612MOL0     C84379  10.835   4.881   6.827  0.8246  0.5587 -0.1423
  612MOL0     C84380  10.970   4.838   6.783  0.9640 -0.0019 -0.9348
  612MOL0     C84381  11.012   4.927   6.655 -0.0578  1.9490 -0.1072
  612MOL0     C84382  11.005   5.067   6.692 -1.2974 -0.2776  0.4380
  612MOL0     C84383  10.999   5.186   6.720 -0.7523 -0.1668 -0.0901
  612MOL0     C84384  10.666   4.535   6.604 -1.0702  1.1523  0.2870
  612MOL0     C84385  10.634   4.404   6.636  0.1217 -0.7714 -1.4622
  612MOL0     C84386  10.635   4.289   6.540 -0.3037  0.8001 -0.0984
  612MOL0     H84387  10.333   4.175   6.579 -0.3356 -0.1959  0.1079
  612MOL0     H84388  10.121   4.251   6.567  0.8183 -1.1446 -0.0731
  612MOL0     H84389   9.915   4.365   6.968  3.3424  0.4496 -0.9779
  612MOL0     H84390   9.778   4.363   6.842  0.6622 -2.0727 -3.2854
  612MOL0     H84391  10.009   4.557   6.862 -0.9855 -0.8395 -0.5324
  612MOL0     H84392   9.875   4.564   6.743 -1.4991 -0.4852  0.3777
  612MOL0     H84393   9.713   4.561   6.932  0.2084 -1.1557 -1.2231
  612MOL0     H84394   9.845   4.575   7.051  0.2955  3.4312  1.0976
  612MOL0     H84395   9.899   4.798   6.940  1.2687 -1.6069 -2.1680
  612MOL0     H84396   9.758   4.777   6.836  3.1979  2.2875  0.7417
  612MOL0     H84397   9.732   4.834   7.148 -1.0789  1.8240  0.6322
  612MOL0     H84398   9.617   4.744   7.042  2.1109 -2.6436  0.6913
  612MOL0     H84399   9.589   4.950   6.909 -0.8425 -0.8100  0.5245
  612MOL0     H84400   9.562   4.979   7.079 -0.4717 -1.3397 -0.3394
  612MOL0     H84401   9.851   5.020   6.973  0.8671  1.5341 -2.5327
  612MOL0     H84402   9.768   5.114   7.097 -2.4256  1.1456 -0.5642
  612MOL0     H84403   9.622   5.200   6.898 -0.4091 -0.5662 -0.4050
  612MOL0     H84404   9.792   5.258   6.913 -2.5688  0.6162  1.0933
  612MOL0     H84405   9.559   5.101   6.660  1.2195 -0.5725 -2.4812
  612MOL0     H84406   9.567   4.926   6.454 -0.1835 -0.5666  0.6989
  612MOL0     H84407   9.709   4.838   6.447 -2.6058 -1.7699  0.0294
  612MOL0     H84408   9.643   5.124   6.333 -1.9662 -0.7409 -0.4346
  612MOL0     H84409   9.799   5.057   6.315 -1.3578  2.2177 -2.4800
  612MOL0     H84410   9.571   4.887   6.202 -0.8446  2.2815  0.8886
  612MOL0     H84411   9.616   5.033   6.117 -1.3128  0.3187 -0.0662
  612MOL0     H84412   9.709   4.887   6.006  0.4860 -0.0865 -0.7346
  612MOL0     H84413   9.842   4.975   6.091 -1.4666  0.9526 -0.2661
  612MOL0     H84414   9.770   4.633   5.936  1.2431  0.5693 -1.5654
  612MOL0     H84415   9.820   4.529   5.734 -1.5988 -0.4073  3.6399
  612MOL0     H84416   9.931   4.399   5.785 -0.7451  0.2336  1.3629
  612MOL0     H84417   9.994   4.529   5.688  1.5739 -2.2699  0.6197
  612MOL0     H84418  10.320   4.570   5.552 -0.2433  0.1052  0.9091
  612MOL0     H84419  10.519   4.509   5.421  1.0131 -0.6018  1.1160
  612MOL0     H84420  10.843   4.783   5.458 -2.7475 -0.3616  0.8405
  612MOL0     H84421  10.901   4.653   5.572  2.5344  0.8003 -0.7411
  612MOL0     H84422  11.000   4.530   5.393  0.4152  0.0309 -1.1292
  612MOL0     H84423  10.934   4.667   5.284 -2.2980  1.0837  0.9111
  612MOL0     H84424  11.187   4.647   5.393 -0.2474 -0.6718  0.9481
  612MOL0     H84425  11.098   4.711   5.530 -1.9240  3.4693  0.6549
  612MOL0     H84426  11.167   4.903   5.459 -1.7906 -2.0370  1.8700
  612MOL0     H84427  11.011   4.894   5.385  0.6064  0.0785  0.5952
  612MOL0     H84428  11.251   4.815   5.216 -1.0868  0.4235 -2.0465
  612MOL0     H84429  11.076   4.849   5.174 -1.8755  0.7995  1.7834
  612MOL0     H84430  11.122   5.096   5.239  0.1352 -0.5122 -0.2407
  612MOL0     H84431  11.188   5.028   5.099 -0.3792 -1.3346 -0.1319
  612MOL0     H84432  11.416   5.008   5.235  0.8052  0.6446  2.1567
  612MOL0     H84433  11.341   5.081   5.373  0.2924 -1.2434  0.5995
  612MOL0     H84434  11.396   5.221   5.096  0.7211  2.5810 -0.0494
  612MOL0     H84435  11.463   5.256   5.252 -2.5718  1.3358  3.7556
  612MOL0     H84436  10.766   4.680   5.735  0.8660 -2.5114  0.1411
  612MOL0     H84437  10.569   4.681   5.878  2.2053  1.5241 -0.6355
  612MOL0     H84438  10.237   4.727   6.041 -0.1877  2.0932 -0.9646
  612MOL0     H84439  10.063   4.807   6.192  0.5263  1.5790 -1.1122
  612MOL0     H84440  10.114   4.337   6.994  0.3913 -0.2721  0.5013
  612MOL0     H84441  10.358   4.245   7.000 -1.2969 -2.1744  0.4588
  612MOL0     H84442  10.580   4.443   6.976  2.2381  0.1031  0.9135
  612MOL0     H84443  10.610   4.689   6.905 -2.1404  0.1080 -0.7558
  612MOL0     H84444  10.732   4.954   6.654 -1.8849 -1.0121 -3.4653
  612MOL0     H84445  10.626   4.891   6.777 -0.5652 -2.9165 -0.7469
  612MOL0     H84446  10.800   4.811   6.903  1.3979  0.5480  0.1186
  612MOL0     H84447  10.835   4.980   6.874  0.4249  1.6854 -2.3616
  612MOL0     H84448  11.042   4.851   6.864  0.5920 -2.1767 -0.1822
  612MOL0     H84449  10.969   4.734   6.751  0.6032 -0.5672  0.8295
  612MOL0     H84450  10.948   4.903   6.570  2.7473 -0.8540 -1.6448
  612MOL0     H84451  11.113   4.909   6.616  0.3102 -0.7864  1.7814
  612MOL0     H84452  10.994   5.284   6.761  3.8017  0.2826 -0.1680
  612MOL0     H84453  10.689   4.561   6.501  2.7862  1.2731  1.0013
  612MOL0     H84454  10.718   4.226   6.573 -1.5711 -1.2244 -0.6276
  612MOL0     H84455  10.541   4.233   6.541  0.9103 -1.2994  0.8880
  612MOL0     H84456  10.658   4.316   6.437 -2.6793  0.3951 -0.7908
  613MOL0     O84457   2.822  11.116   6.147  0.0195  0.1871 -0.5119
  613MOL0     C84458   2.932  11.100   6.093  0.2907 -0.0319 -0.0497
  613MOL0     O84459   3.046  11.071   6.160  0.0441  0.0786 -0.7008
  613MOL0     C84460   3.035  11.065   6.302 -0.6302  0.0373 -0.5695
  613MOL0     C84461   3.124  11.154   6.370 -0.4679 -0.5972 -0.1375
  613MOL0     C84462   3.117  11.168   6.506  0.2437 -0.4905  0.4670
  613MOL0     C84463   3.018  11.095   6.578 -0.6424 -0.9478  0.3728
  613MOL0     O84464   3.004  11.116   6.714 -0.0694  0.4138 -1.0020
  613MOL0     C84465   3.054  11.233   6.778 -0.1801 -0.9236 -0.3979
  613MOL0     C84466   3.180  11.195   6.854 -0.3023  0.4758 -0.2959
  613MOL0     C84467   3.166  11.092   6.973  0.2827  0.1394  0.3252
  613MOL0     C84468   3.151  10.957   6.922  0.0729  0.1431  0.5739
  613MOL0     C84469   3.192  10.836   7.015 -0.2450 -0.0240  0.1620
  613MOL0     C84470   3.103  10.821   7.136 -0.5432 -0.4457  0.6882
  613MOL0     C84471   2.961  10.774   7.113 -0.0818 -0.3148 -1.1741
  613MOL0     C84472   2.844  10.879   7.093 -0.5986 -0.0726  0.1710
  613MOL0     N84473   2.832  10.982   7.202 -1.4110 -0.0152  0.4150
  613MOL0     C84474   2.827  10.954   7.340 -0.1448  0.8665 -0.5219
  613MOL0     C84475   2.815  11.073   7.407 -0.9128 -0.0460  0.1824
  613MOL0     C84476   2.816  11.095   7.555  0.3581  0.3272  0.1668
  613MOL0     C84477   2.689  11.066   7.630  0.1074 -0.2609  0.2038
  613MOL0     C84478   2.721  11.058   7.778  0.3121 -0.4910 -0.2721
  613MOL0     C84479   2.733  11.196   7.850  0.4225 -0.6537  0.0937
  613MOL0     O84480   2.596  11.260   7.857  0.1611 -0.1194 -0.9223
  613MOL0     C84481   2.607  11.399   7.868  0.0431  0.7874  1.0927
  613MOL0     C84482   2.715  11.462   7.931  0.2209 -1.1582  0.3559
  613MOL0     C84483   2.723  11.604   7.952  0.3309 -1.2016 -0.2642
  613MOL0     C84484   2.835  11.655   8.044  0.2536 -1.0289  1.2840
  613MOL0     C84485   2.618  11.679   7.885 -0.3652 -0.9500  0.8842
  613MOL0     C84486   2.617  11.825   7.872 -0.1238 -0.0299  0.1331
  613MOL0     O84487   2.527  11.878   7.787 -0.4717 -0.5849  0.4039
  613MOL0     C84488   2.521  12.015   7.786 -0.1493  0.2463 -0.9496
  613MOL0     C84489   2.561  12.073   7.668 -0.6764 -0.8168 -0.0100
  613MOL0     C84490   2.566  12.212   7.652  0.5012 -0.2768  0.1863
  613MOL0     C84491   2.517  12.297   7.752 -0.1706 -0.0597 -0.7590
  613MOL0     O84492   2.520  12.430   7.717 -0.6156 -0.0408  0.2405
  613MOL0     C84493   2.433  12.522   7.783  0.4836  0.4484 -0.2683
  613MOL0     C84494   2.289  12.534   7.725 -0.9452 -1.3023  0.2179
  613MOL0     C84495   2.300  12.595   7.575  0.3389 -0.0955  0.1276
  613MOL0     C84496   2.195  12.537   7.482  0.0975 -0.6751 -0.1325
  613MOL0     C84497   2.061  12.559   7.545  0.4132  0.5878 -0.7261
  613MOL0     C84498   1.953  12.478   7.469 -0.7595 -1.1960 -0.0839
  613MOL0     C84499   1.820  12.488   7.537 -0.6427  1.3276 -0.2137
  613MOL0     C84500   1.721  12.409   7.443 -0.4540  0.1307 -0.6853
  613MOL0    Cl84501   1.762  12.239   7.404  0.0811  0.6173  0.1715
  613MOL0     C84502   2.463  12.238   7.872 -0.3548  0.7151  0.4503
  613MOL0     C84503   2.476  12.096   7.888  0.2960 -0.4192  0.0974
  613MOL0     O84504   2.703  11.883   7.937  0.8054 -0.5495 -0.0255
  613MOL0     C84505   2.512  11.611   7.816  0.0297 -0.1727  0.6758
  613MOL0     C84506   2.513  11.474   7.806  0.4628 -0.0470  1.3112
  613MOL0     N84507   2.818  11.168   7.304 -0.3651 -0.4627 -0.2571
  613MOL0     N84508   2.819  11.110   7.193  0.4305 -0.4497  0.5716
  613MOL0     C84509   2.930  11.008   6.519  0.2461  0.9030  0.4700
  613MOL0     C84510   2.942  10.991   6.376  0.2916  0.0035  0.4905
  613MOL0     C84511   2.950  11.115   5.947 -0.1498  0.4868  0.1136
  613MOL0     C84512   3.063  11.060   5.891 -1.0581  0.2537 -0.1978
  613MOL0     C84513   3.094  11.061   5.763  0.4512 -0.0138  0.2318
  613MOL0     C84514   3.010  11.136   5.677  0.2695  0.6693 -0.6452
  613MOL0     O84515   3.064  11.142   5.556  0.1858 -0.2047  0.2038
  613MOL0     C84516   2.985  11.166   5.437  0.5725  0.4100  0.2997
  613MOL0     C84517   2.863  11.083   5.426  0.6610 -0.8786 -0.1693
  613MOL0     C84518   2.833  11.081   5.273 -1.3023 -0.4450 -0.0344
  613MOL0     C84519   2.721  10.986   5.231  0.5252  1.1064  0.2784
  613MOL0     C84520   2.785  10.850   5.214  0.1579 -0.3011 -0.9131
  613MOL0     C84521   2.832  10.740   5.178 -0.8722 -0.0707  0.4851
  613MOL0     C84522   2.891  11.177   5.722  0.3771 -0.3299 -0.3062
  613MOL0     C84523   2.858  11.172   5.858  0.2394  0.1330 -0.1963
  613MOL0     C84524   2.719  11.231   5.902 -1.1005  0.4470  0.4452
  613MOL0     H84525   3.195  11.203   6.305 -0.4001 -1.7056 -0.9332
  613MOL0     H84526   3.188  11.238   6.550 -0.7006  0.3885  0.6446
  613MOL0     H84527   2.976  11.262   6.849 -0.8476 -1.6203 -0.8317
  613MOL0     H84528   3.072  11.318   6.712  2.1881 -1.4981 -0.5638
  613MOL0     H84529   3.254  11.160   6.780  1.2988 -0.5938  1.7207
  613MOL0     H84530   3.236  11.277   6.901  1.7759 -1.3523  0.5659
  613MOL0     H84531   3.259  11.101   7.030  0.0272  1.6790  0.5394
  613MOL0     H84532   3.076  11.112   7.032  1.7355  2.4631  1.9389
  613MOL0     H84533   3.055  10.943   6.871 -0.0187  2.7368 -0.1223
  613MOL0     H84534   3.208  10.944   6.830 -1.1047 -3.4382  0.1965
  613MOL0     H84535   3.290  10.858   7.058 -1.6894  1.7013  2.8373
  613MOL0     H84536   3.198  10.745   6.954  0.3720  1.0745 -1.4713
  613MOL0     H84537   3.146  10.750   7.208  0.4234 -1.3155 -0.6971
  613MOL0     H84538   3.104  10.915   7.192  0.5060  0.1765 -0.3328
  613MOL0     H84539   2.924  10.718   7.199  2.6007 -2.3294 -1.2045
  613MOL0     H84540   2.966  10.699   7.034  1.5076 -1.0797 -0.3762
  613MOL0     H84541   2.866  10.918   6.993 -0.9129  3.8669  1.4334
  613MOL0     H84542   2.749  10.826   7.084 -1.1281  1.0774 -1.5326
  613MOL0     H84543   2.835  10.862   7.397  0.5617  2.0374  1.3615
  613MOL0     H84544   2.846  11.200   7.566 -0.0564  1.1942 -4.7797
  613MOL0     H84545   2.897  11.038   7.600  2.8097  4.4595  1.4819
  613MOL0     H84546   2.612  11.137   7.599  0.2916 -0.9326 -1.9888
  613MOL0     H84547   2.638  10.974   7.600 -1.9417  1.2399 -1.2551
  613MOL0     H84548   2.647  11.002   7.836  0.4376  2.7669  3.4810
  613MOL0     H84549   2.811  10.997   7.790  2.0494  1.6088 -1.8224
  613MOL0     H84550   2.762  11.177   7.954  0.0212 -2.2407 -0.0630
  613MOL0     H84551   2.805  11.261   7.799 -3.2415  4.2361  0.4207
  613MOL0     H84552   2.777  11.394   7.988  1.9230  1.1307  1.3956
  613MOL0     H84553   2.788  11.724   8.114 -2.1163 -0.2601 -0.8917
  613MOL0     H84554   2.922  11.699   7.993  0.3653 -1.3655  1.1780
  613MOL0     H84555   2.872  11.581   8.115  2.0202 -0.4489  1.0178
  613MOL0     H84556   2.589  12.016   7.581  0.3300  1.0141 -0.9437
  613MOL0     H84557   2.604  12.254   7.560  1.5279  1.2830  1.2758
  613MOL0     H84558   2.426  12.499   7.890  1.7412  5.1960  1.0661
  613MOL0     H84559   2.486  12.618   7.788 -0.1750  0.9559 -2.1495
  613MOL0     H84560   2.246  12.433   7.727 -1.5933 -1.0379  2.4483
  613MOL0     H84561   2.241  12.596   7.802  2.3084  2.3060 -0.3787
  613MOL0     H84562   2.396  12.585   7.523  0.0994  6.1712 -2.4419
  613MOL0     H84563   2.285  12.703   7.573  0.4949 -0.0796 -1.6250
  613MOL0     H84564   2.215  12.436   7.445  1.9864 -0.6736  0.7893
  613MOL0     H84565   2.212  12.595   7.390  0.1919  0.9035  0.8490
  613MOL0     H84566   2.061  12.532   7.651 -3.8032  0.0022 -0.7076
  613MOL0     H84567   2.042  12.667   7.547  3.1446  1.2343  3.1890
  613MOL0     H84568   1.981  12.373   7.473 -0.0295 -1.0201 -0.3709
  613MOL0     H84569   1.955  12.504   7.363 -1.9542 -0.5499  0.0338
  613MOL0     H84570   1.784  12.591   7.551  1.1430  1.9336  0.1978
  613MOL0     H84571   1.827  12.437   7.633 -1.8677  0.9698 -0.2955
  613MOL0     H84572   1.711  12.471   7.353  0.2236  1.3208  0.0143
  613MOL0     H84573   1.621  12.396   7.484 -2.0001 -0.8077 -4.3694
  613MOL0     H84574   2.424  12.295   7.955  3.0593  0.7602  2.2127
  613MOL0     H84575   2.435  12.038   7.970 -3.6967 -2.5382 -2.9982
  613MOL0     H84576   2.427  11.658   7.767  1.5342 -1.3590 -3.4877
  613MOL0     H84577   2.429  11.418   7.765  0.9830 -0.9277  1.4149
  613MOL0     H84578   2.865  10.943   6.576 -1.1576  1.9075  0.0687
  613MOL0     H84579   2.868  10.933   6.322  0.7886 -0.1104 -0.0731
  613MOL0     H84580   3.131  11.009   5.958 -0.9707  0.7273  0.0760
  613MOL0     H84581   3.189  11.017   5.736 -0.3440 -1.1702 -0.8187
  613MOL0     H84582   2.949  11.267   5.457  2.2520  0.6700  2.5259
  613MOL0     H84583   3.047  11.163   5.347 -3.5107  2.0941 -2.8780
  613MOL0     H84584   2.776  11.113   5.485  1.1248 -1.2554  0.7197
  613MOL0     H84585   2.891  10.980   5.447  3.0402  0.1438  2.2318
  613MOL0     H84586   2.810  11.179   5.231 -1.1936 -0.3192  0.1982
  613MOL0     H84587   2.917  11.041   5.213 -1.6267  1.5516 -1.9462
  613MOL0     H84588   2.671  11.007   5.136 -1.4847 -0.1848  0.9854
  613MOL0     H84589   2.650  11.002   5.313 -0.1591  2.9696 -0.6197
  613MOL0     H84590   2.873  10.646   5.147  2.1216  1.0557  0.7254
  613MOL0     H84591   2.828  11.228   5.650  2.9157  1.0208 -1.7040
  613MOL0     H84592   2.729  11.292   5.993  2.8463  1.6548 -0.5966
  613MOL0     H84593   2.668  11.283   5.820  0.4000 -0.2424 -0.9756
  613MOL0     H84594   2.655  11.145   5.920 -0.7738 -0.2993 -1.7403
  614MOL0     O84595  11.211   6.304  11.537  0.0740 -0.0764  0.0184
  614MOL0     C84596  11.251   6.391  11.620 -0.3753  0.4112  0.0323
  614MOL0     O84597  11.351   6.490  11.595  1.0825  0.4705  0.6429
  614MOL0     C84598  11.369   6.524  11.456  0.5351 -0.4925 -0.5042
  614MOL0     C84599  11.263   6.542  11.360 -1.0059  0.3471  0.2354
  614MOL0     C84600  11.290   6.614  11.247 -0.2950  0.4601 -0.6816
  614MOL0     C84601  11.422   6.639  11.209  0.4545  0.7335  0.7362
  614MOL0     O84602  11.449   6.682  11.081  0.2330  0.1160  0.7049
  614MOL0     C84603  11.504   6.807  11.065 -1.0275 -0.6442 -0.3827
  614MOL0     C84604  11.620   6.794  10.962 -0.5280  0.4576  0.5504
  614MOL0     C84605  11.727   6.901  10.993 -1.4712  0.2811  0.0407
  614MOL0     C84606  11.858   6.848  11.065 -0.5584  0.6908  0.0924
  614MOL0     C84607  11.929   6.759  10.957 -1.3474 -0.1433  0.0733
  614MOL0     C84608  12.061   6.692  10.994  0.6440 -0.1399 -0.3845
  614MOL0     C84609  12.118   6.638  10.867 -0.2014  0.5129  0.8210
  614MOL0     C84610  12.259   6.572  10.892  0.4473  0.8984 -0.3130
  614MOL0     N84611  12.270   6.424  10.925  0.8103  0.4545  0.3075
  614MOL0     C84612  12.360   6.347  10.871  0.0568 -1.4181 -0.5150
  614MOL0     C84613  12.332   6.222  10.901  0.2472 -0.5399 -0.9324
  614MOL0     C84614  12.408   6.097  10.874  1.2437  0.0172 -0.9581
  614MOL0     C84615  12.310   5.993  10.817  0.0799  0.0591  1.0345
  614MOL0     C84616  12.385   5.873  10.744 -0.8275 -0.7352  0.2131
  614MOL0     C84617  12.429   5.770  10.847 -0.1816  0.8994  0.4397
  614MOL0     O84618  12.564   5.788  10.888 -0.4412  0.4205  0.0471
  614MOL0     C84619  12.598   5.776  11.026 -0.3907  0.3754  0.3126
  614MOL0     C84620  12.524   5.708  11.123 -0.0097  0.4849  0.4887
  614MOL0     C84621  12.563   5.705  11.262  0.2270  0.5129 -0.3711
  614MOL0     C84622  12.461   5.625  11.345 -0.3274  0.1637  0.1618
  614MOL0     C84623  12.680   5.775  11.300  0.1799 -0.0786 -0.5077
  614MOL0     C84624  12.706   5.807  11.444 -0.8258 -0.6465  0.4764
  614MOL0     O84625  12.599   5.826  11.520 -0.4315 -0.8528  0.4645
  614MOL0     C84626  12.611   5.847  11.655 -0.1407 -0.2832  0.9454
  614MOL0     C84627  12.599   5.976  11.699  0.2121  0.0128 -0.1552
  614MOL0     C84628  12.623   6.013  11.834  0.0500 -1.1571 -0.3741
  614MOL0     C84629  12.651   5.916  11.925  0.8348 -0.4113  0.7670
  614MOL0     O84630  12.654   5.956  12.056 -0.1859 -0.0244 -0.3105
  614MOL0     C84631  12.622   5.868  12.164  0.5086  0.5427 -0.7243
  614MOL0     C84632  12.549   5.947  12.273  0.1482  0.0506 -0.0204
  614MOL0     C84633  12.477   5.846  12.367 -0.4783  0.1044  0.0154
  614MOL0     C84634  12.366   5.903  12.452  0.0169 -0.7973  0.8597
  614MOL0     C84635  12.271   5.811  12.526 -0.4747 -0.2737 -0.3223
  614MOL0     C84636  12.190   5.886  12.633 -0.0315 -0.2140 -0.2256
  614MOL0     C84637  12.112   5.789  12.734  0.3851  0.7801  0.3691
  614MOL0     C84638  12.202   5.693  12.827 -0.0619 -0.3282  0.3750
  614MOL0    Cl84639  12.281   5.812  12.932 -0.3113  0.2013  0.5563
  614MOL0     C84640  12.660   5.786  11.884 -0.1187 -0.3487 -0.3408
  614MOL0     C84641  12.646   5.747  11.750  0.7144 -0.6100  0.3229
  614MOL0     O84642  12.821   5.809  11.481 -0.4149 -0.2481 -0.0707
  614MOL0     C84643  12.758   5.830  11.207 -0.5753 -0.3345  1.1276
  614MOL0     C84644  12.719   5.829  11.071 -0.3061 -0.3299 -0.5715
  614MOL0     N84645  12.224   6.224  10.987 -0.1261  0.4482 -0.7507
  614MOL0     N84646  12.181   6.348  10.995 -0.6277 -0.1739 -0.3755
  614MOL0     C84647  11.527   6.605  11.295  0.1236  0.5262 -0.4522
  614MOL0     C84648  11.506   6.548  11.420 -0.1410  0.2595  0.4555
  614MOL0     C84649  11.193   6.379  11.765  0.3455 -0.9656  0.1699
  614MOL0     C84650  11.279   6.415  11.869  0.8085  0.0888 -0.5799
  614MOL0     C84651  11.233   6.425  12.002 -0.6106  0.4954  0.3969
  614MOL0     C84652  11.093   6.415  12.022 -0.5105 -0.0805  0.0700
  614MOL0     O84653  11.053   6.437  12.149  0.3831  0.1575 -0.2034
  614MOL0     C84654  10.932   6.521  12.164 -0.1181 -0.4161  0.8369
  614MOL0     C84655  10.911   6.643  12.065  0.7317  0.1824  0.1921
  614MOL0     C84656  10.792   6.744  12.087  0.1332 -0.1462 -0.0851
  614MOL0     C84657  10.855   6.885  12.120 -0.1290  0.1633 -0.5102
  614MOL0     C84658  10.754   6.991  12.119  0.3677  0.4019 -0.2984
  614MOL0     C84659  10.682   7.084  12.135  0.0508  0.7179 -1.0411
  614MOL0     C84660  11.010   6.375  11.923 -0.2632  0.4990  0.7005
  614MOL0     C84661  11.056   6.353  11.792 -0.9066 -0.0316 -0.4195
  614MOL0     C84662  10.959   6.316  11.689  0.3241  0.4481 -0.7057
  614MOL0     H84663  11.164   6.519  11.401 -0.5131 -0.4840  1.0039
  614MOL0     H84664  11.212   6.649  11.181 -1.1473 -4.2311 -2.5386
  614MOL0     H84665  11.545   6.832  11.164 -2.3025 -2.6776  0.7297
  614MOL0     H84666  11.432   6.880  11.027 -1.0529 -2.5405 -4.5193
  614MOL0     H84667  11.667   6.695  10.966  1.5173  1.4200  2.8056
  614MOL0     H84668  11.590   6.809  10.858 -1.0357  0.0895  0.6405
  614MOL0     H84669  11.747   6.957  10.901 -0.7445 -2.1821 -1.3953
  614MOL0     H84670  11.687   6.972  11.066  1.0167  0.8554  0.9718
  614MOL0     H84671  11.937   6.916  11.097  2.3726 -2.1807 -0.4215
  614MOL0     H84672  11.830   6.795  11.156 -0.0098  0.0925 -0.0795
  614MOL0     H84673  11.958   6.829  10.878  2.4856 -0.6391  0.8013
  614MOL0     H84674  11.864   6.682  10.915 -2.2293  2.0016 -2.8116
  614MOL0     H84675  12.141   6.757  11.032  1.3118  1.4521 -4.0998
  614MOL0     H84676  12.040   6.609  11.061  1.4038  0.8529  1.1456
  614MOL0     H84677  12.128   6.719  10.795  2.0124 -1.2652 -1.0470
  614MOL0     H84678  12.050   6.559  10.832  3.7082 -1.3830 -3.6756
  614MOL0     H84679  12.329   6.600  10.813  0.9846  2.4786  0.6850
  614MOL0     H84680  12.301   6.628  10.976 -0.1157  2.4395 -1.0315
  614MOL0     H84681  12.438   6.383  10.804  0.7062  0.9316  1.3811
  614MOL0     H84682  12.447   6.053  10.966 -1.7672  0.3633  0.6290
  614MOL0     H84683  12.482   6.126  10.799  1.4312  1.8304 -0.1304
  614MOL0     H84684  12.236   5.962  10.891  0.4341 -1.4166  0.8018
  614MOL0     H84685  12.251   6.038  10.737 -1.6174 -3.4478  0.1358
  614MOL0     H84686  12.312   5.826  10.677 -1.5467 -0.9985  1.1509
  614MOL0     H84687  12.472   5.913  10.691 -1.8080  1.2718  0.0306
  614MOL0     H84688  12.365   5.782  10.935 -2.8376  0.6659 -1.3192
  614MOL0     H84689  12.415   5.670  10.806 -3.0320  1.5241 -0.3083
  614MOL0     H84690  12.448   5.645  11.079 -1.2493  3.0637 -1.2947
  614MOL0     H84691  12.372   5.597  11.288 -0.2100  1.0360 -0.4634
  614MOL0     H84692  12.424   5.680  11.432 -0.7143  1.5583 -0.8719
  614MOL0     H84693  12.503   5.529  11.379  0.0388  0.4438  0.5239
  614MOL0     H84694  12.566   6.056  11.633  0.2578  0.0550 -0.1270
  614MOL0     H84695  12.602   6.114  11.868  3.2436 -0.7314  0.7255
  614MOL0     H84696  12.550   5.793  12.127 -0.3041  0.8494  0.1859
  614MOL0     H84697  12.712   5.811  12.189  0.3054  0.2443 -0.6689
  614MOL0     H84698  12.627   6.002  12.326 -0.5337  1.0315 -0.0207
  614MOL0     H84699  12.482   6.015  12.220 -0.6876 -1.7012 -1.3053
  614MOL0     H84700  12.543   5.790  12.434  0.1929  0.6717 -0.1680
  614MOL0     H84701  12.415   5.772  12.315 -1.1224 -0.7219  1.8477
  614MOL0     H84702  12.294   5.962  12.395  0.5592  0.7379  1.6923
  614MOL0     H84703  12.409   5.967  12.529 -0.4154 -3.3619  3.3726
  614MOL0     H84704  12.203   5.760  12.457 -0.0706  0.5025 -1.3090
  614MOL0     H84705  12.333   5.736  12.576  0.6217  2.5461  2.9331
  614MOL0     H84706  12.114   5.943  12.578 -1.0507 -3.0641 -2.0034
  614MOL0     H84707  12.240   5.969  12.684 -1.2400 -0.6768  1.8474
  614MOL0     H84708  12.044   5.726  12.676 -1.0232  2.7121 -0.2113
  614MOL0     H84709  12.044   5.842  12.801  0.7924  0.2580  1.1999
  614MOL0     H84710  12.273   5.636  12.767 -0.3054 -2.3104  1.8980
  614MOL0     H84711  12.138   5.619  12.876 -1.3656  1.7122  1.9436
  614MOL0     H84712  12.654   5.695  11.943 -2.3279 -1.0940 -1.6027
  614MOL0     H84713  12.661   5.648  11.707  0.1092  0.1023 -1.6361
  614MOL0     H84714  12.850   5.879  11.236 -0.5480 -0.8408  1.9356
  614MOL0     H84715  12.785   5.887  11.008 -2.7548  3.7015  0.2246
  614MOL0     H84716  11.633   6.606  11.271 -0.2681 -0.5618 -2.5021
  614MOL0     H84717  11.589   6.527  11.488  4.2380  1.7187 -3.8693
  614MOL0     H84718  11.381   6.452  11.864  2.0936 -2.8789  0.9950
  614MOL0     H84719  11.283   6.448  12.095 -2.1305 -2.4474  2.0943
  614MOL0     H84720  10.842   6.459  12.154 -0.9034  1.0558 -2.6581
  614MOL0     H84721  10.934   6.548  12.270  2.4450 -0.8483  0.9561
  614MOL0     H84722  10.902   6.599  11.966  1.6550 -0.5571  0.4284
  614MOL0     H84723  11.002   6.703  12.056 -0.1782  1.4137 -1.2080
  614MOL0     H84724  10.734   6.754  11.995  0.1725 -1.4466 -0.2769
  614MOL0     H84725  10.726   6.711  12.167 -0.8418  1.8658 -0.0056
  614MOL0     H84726  10.928   6.902  12.040 -0.6145  3.6682 -0.3545
  614MOL0     H84727  10.915   6.884  12.211 -1.9899 -1.7601  0.8176
  614MOL0     H84728  10.616   7.169  12.133  1.2213  1.7112 -0.0193
  614MOL0     H84729  10.913   6.343  11.960  0.5438 -1.5812  1.1777
  614MOL0     H84730  10.983   6.230  11.627  2.5515  1.8189 -1.8460
  614MOL0     H84731  10.865   6.277  11.730  1.8470 -4.6577 -1.4256
  614MOL0     H84732  10.946   6.397  11.617  0.7800 -1.4150 -2.9944
  615MOL0     O84733   9.405   5.891   5.394  0.0716  0.2725 -0.7289
  615MOL0     C84734   9.342   5.841   5.310 -0.0637 -0.5274 -0.9070
  615MOL0     O84735   9.357   5.718   5.263  0.3931  0.5002  0.4284
  615MOL0     C84736   9.467   5.639   5.296  0.4636 -0.5430  0.2534
  615MOL0     C84737   9.445   5.492   5.290 -0.9703 -0.0841 -0.1963
  615MOL0     C84738   9.543   5.401   5.313 -0.2775 -0.0500  0.2690
  615MOL0     C84739   9.674   5.454   5.345 -0.3097 -0.4610  0.0633
  615MOL0     O84740   9.765   5.360   5.386  0.5833 -0.5828  0.3681
  615MOL0     C84741   9.882   5.398   5.455  0.3493  0.9198  0.7471
  615MOL0     C84742   9.968   5.275   5.469 -0.0161 -1.5291 -1.1468
  615MOL0     C84743  10.099   5.304   5.545 -0.0414  0.3098 -0.4673
  615MOL0     C84744  10.079   5.361   5.688 -0.2096 -0.6841  0.6724
  615MOL0     C84745  10.203   5.407   5.743 -0.6219  0.7605  0.3504
  615MOL0     C84746  10.189   5.437   5.893 -0.6518  0.4324  0.1975
  615MOL0     C84747  10.325   5.496   5.945  0.1685 -0.7028 -0.0825
  615MOL0     C84748  10.304   5.574   6.081 -0.2362  0.2251  0.3519
  615MOL0     N84749  10.303   5.723   6.068 -0.3965 -0.0586 -0.2643
  615MOL0     C84750  10.216   5.804   6.129  0.1526 -0.8491 -0.5690
  615MOL0     C84751  10.242   5.929   6.076  1.3991 -0.2902 -0.4822
  615MOL0     C84752  10.172   6.050   6.124 -0.1329  0.2173 -0.8764
  615MOL0     C84753  10.033   6.049   6.059 -0.7104 -0.2277  0.4497
  615MOL0     C84754   9.938   6.172   6.089 -0.4341  0.6360  0.7081
  615MOL0     C84755   9.805   6.145   6.024 -0.3141 -0.3732  0.4730
  615MOL0     O84756   9.727   6.052   6.090  0.3658 -0.6093  0.5177
  615MOL0     C84757   9.609   6.003   6.030  0.2733 -0.4296 -0.2835
  615MOL0     C84758   9.561   5.871   6.064 -0.3960 -0.6399 -0.8057
  615MOL0     C84759   9.445   5.810   6.016  0.6742 -0.1452 -0.8637
  615MOL0     C84760   9.391   5.673   6.060 -0.4435  0.1275 -0.1069
  615MOL0     C84761   9.363   5.886   5.924  0.6443 -0.4215 -0.7175
  615MOL0     C84762   9.227   5.850   5.856 -0.2736 -0.0034 -0.3914
  615MOL0     O84763   9.178   5.927   5.768  0.4576 -0.3201  0.4738
  615MOL0     C84764   9.065   5.900   5.687  0.7076 -0.4875 -0.3885
  615MOL0     C84765   9.053   5.961   5.563  0.3526  0.8307  0.4784
  615MOL0     C84766   8.944   5.935   5.472 -0.5173  0.3291  0.1851
  615MOL0     C84767   8.844   5.852   5.520  0.9078 -0.5343 -0.5008
  615MOL0     O84768   8.730   5.834   5.439 -0.2288  0.2063  0.6233
  615MOL0     C84769   8.703   5.935   5.340  0.5543  0.2676 -0.2397
  615MOL0     C84770   8.567   5.947   5.292 -0.2982 -0.5056 -0.9491
  615MOL0     C84771   8.475   5.978   5.416 -0.6506 -0.5846  0.3064
  615MOL0     C84772   8.340   6.035   5.369 -0.2318  0.2676 -0.4019
  615MOL0     C84773   8.236   6.048   5.476  0.5194 -0.4673  0.6339
  615MOL0     C84774   8.102   6.082   5.411 -0.0769  0.0385  0.4908
  615MOL0     C84775   7.992   6.043   5.515 -0.5313 -0.2363 -0.0604
  615MOL0     C84776   7.849   6.083   5.464 -0.4724  0.3405  0.6355
  615MOL0    Cl84777   7.722   6.006   5.569 -0.3661  0.3377  0.2936
  615MOL0     C84778   8.846   5.805   5.645  0.1058 -0.3956 -0.4958
  615MOL0     C84779   8.957   5.822   5.730  0.7185  0.1682 -0.7464
  615MOL0     O84780   9.190   5.741   5.892 -0.0068 -0.3193 -1.0009
  615MOL0     C84781   9.417   6.017   5.893  0.2395  0.6097 -0.4723
  615MOL0     C84782   9.527   6.069   5.938 -0.8977 -0.4995 -0.7038
  615MOL0     N84783  10.342   5.913   5.986 -0.0089  0.7703  0.0292
  615MOL0     N84784  10.388   5.796   5.984  0.2632  0.1493  1.2140
  615MOL0     C84785   9.697   5.597   5.347  0.7116  0.5789  0.0488
  615MOL0     C84786   9.595   5.685   5.318 -1.0837  0.4469  0.2866
  615MOL0     C84787   9.243   5.921   5.246  1.1481  0.1473 -0.0262
  615MOL0     C84788   9.151   5.852   5.168 -0.0782  0.0614  0.1916
  615MOL0     C84789   9.056   5.921   5.098 -0.9180 -0.1098  0.2117
  615MOL0     C84790   9.046   6.062   5.105 -0.0294 -0.2594 -0.3499
  615MOL0     O84791   8.942   6.141   5.045 -0.1540  0.3807 -0.8161
  615MOL0     C84792   8.847   6.093   4.958  1.0504 -0.0065  0.6330
  615MOL0     C84793   8.712   6.159   4.975  0.6255 -0.5245 -0.5503
  615MOL0     C84794   8.704   6.292   4.900 -0.3509 -0.7281 -1.2798
  615MOL0     C84795   8.789   6.399   4.985  0.6395 -0.6854 -0.3543
  615MOL0     C84796   8.788   6.531   4.926 -0.1957  1.0122 -0.0918
  615MOL0     C84797   8.780   6.638   4.861 -0.5338  0.5507  0.5693
  615MOL0     C84798   9.142   6.130   5.184 -0.2782  0.0342 -0.8677
  615MOL0     C84799   9.239   6.072   5.254 -0.0869  0.9798  0.2118
  615MOL0     C84800   9.333   6.152   5.341 -0.0924  0.0654  1.1802
  615MOL0     H84801   9.356   5.449   5.245 -0.0806 -0.3703 -1.7675
  615MOL0     H84802   9.535   5.293   5.305  2.0937 -0.5542  3.0909
  615MOL0     H84803   9.854   5.442   5.550  0.0208  1.2242  0.5129
  615MOL0     H84804   9.937   5.472   5.396 -0.0226  1.3750  0.9648
  615MOL0     H84805   9.921   5.201   5.534  0.5541  1.6492  3.4078
  615MOL0     H84806   9.987   5.247   5.365 -3.2407  0.2832 -2.3475
  615MOL0     H84807  10.162   5.215   5.544 -0.3927  0.0412 -1.8543
  615MOL0     H84808  10.162   5.369   5.483  0.8273  0.4894  0.5871
  615MOL0     H84809  10.006   5.443   5.682 -2.4738 -2.7032 -1.4839
  615MOL0     H84810  10.035   5.279   5.746  2.5702 -1.7842  1.3592
  615MOL0     H84811  10.234   5.496   5.687 -1.8250  0.2041 -1.2616
  615MOL0     H84812  10.280   5.332   5.725 -1.0432  0.3238  0.3565
  615MOL0     H84813  10.111   5.513   5.907 -1.5485 -0.0706 -1.7273
  615MOL0     H84814  10.165   5.354   5.960 -2.6916  1.6316  1.0563
  615MOL0     H84815  10.358   5.572   5.874 -0.4832 -1.5485 -1.3255
  615MOL0     H84816  10.394   5.411   5.948  0.9095 -0.1028  0.1268
  615MOL0     H84817  10.207   5.545   6.122 -1.6428  2.4068 -1.2647
  615MOL0     H84818  10.386   5.542   6.146  0.8442  1.1005 -0.5338
  615MOL0     H84819  10.137   5.771   6.196  1.4645 -0.2549  1.3487
  615MOL0     H84820  10.232   6.141   6.114 -0.6397  0.5743 -0.7157
  615MOL0     H84821  10.157   6.045   6.232 -0.6724 -0.0549 -0.9618
  615MOL0     H84822  10.040   6.056   5.950 -0.6628  2.6548  0.5568
  615MOL0     H84823   9.980   5.960   6.093 -3.1282  0.9306 -0.0991
  615MOL0     H84824   9.909   6.192   6.192  0.9145  3.0382  0.6879
  615MOL0     H84825   9.969   6.266   6.041 -0.1991  0.1430 -0.1348
  615MOL0     H84826   9.746   6.236   6.043  1.4573  0.5101  2.0135
  615MOL0     H84827   9.821   6.125   5.918 -3.3313  1.7382 -0.5194
  615MOL0     H84828   9.620   5.814   6.135 -1.6770 -0.0534  0.8034
  615MOL0     H84829   9.464   5.637   6.133  0.5620  1.4497 -0.4086
  615MOL0     H84830   9.377   5.607   5.974  1.4912 -3.3145  1.9848
  615MOL0     H84831   9.301   5.689   6.121 -1.3909  2.0474 -1.8643
  615MOL0     H84832   9.132   6.025   5.524  0.3209  0.1812 -0.7094
  615MOL0     H84833   8.948   5.991   5.379 -0.9410  0.7170  0.3948
  615MOL0     H84834   8.736   6.037   5.363  2.2661 -0.2946 -0.0406
  615MOL0     H84835   8.761   5.911   5.251 -0.2740 -0.6664 -0.5389
  615MOL0     H84836   8.562   6.022   5.213 -0.2313 -0.4147 -0.8664
  615MOL0     H84837   8.542   5.848   5.252 -3.3673 -0.1701 -0.1226
  615MOL0     H84838   8.525   6.054   5.477  1.4771 -1.0294 -0.7837
  615MOL0     H84839   8.462   5.893   5.484 -3.4527 -0.9230 -0.5448
  615MOL0     H84840   8.299   5.972   5.291 -2.7599 -0.1843  1.1939
  615MOL0     H84841   8.356   6.135   5.327  2.8348 -0.1772 -0.5762
  615MOL0     H84842   8.241   5.957   5.536  0.2694  0.7833  2.6399
  615MOL0     H84843   8.269   6.128   5.543  4.3954 -0.4614 -1.0329
  615MOL0     H84844   8.088   6.023   5.321 -1.5051  0.6652  0.2630
  615MOL0     H84845   8.091   6.188   5.385 -1.6715 -0.1771  0.1875
  615MOL0     H84846   8.010   6.089   5.612  1.8181 -0.9565 -0.1075
  615MOL0     H84847   8.008   5.935   5.518  1.6954  0.0677  1.6096
  615MOL0     H84848   7.839   6.056   5.358 -2.1214  2.7862  0.0695
  615MOL0     H84849   7.836   6.191   5.481  0.2549  0.2568  1.8178
  615MOL0     H84850   8.760   5.743   5.670 -1.6602  0.3128 -4.1786
  615MOL0     H84851   8.948   5.775   5.828 -0.2194  0.2860 -0.7683
  615MOL0     H84852   9.361   6.079   5.824 -1.1698 -2.4066 -2.2771
  615MOL0     H84853   9.570   6.161   5.898  2.3179 -2.1444 -1.3998
  615MOL0     H84854   9.796   5.637   5.362  0.6830  1.2603 -1.4225
  615MOL0     H84855   9.618   5.788   5.294 -3.6798  0.8526 -0.9209
  615MOL0     H84856   9.159   5.748   5.139  0.9246  0.6603 -1.8285
  615MOL0     H84857   8.992   5.870   5.027 -1.0309  0.1953  0.0910
  615MOL0     H84858   8.882   6.130   4.860  2.3606  0.9224  1.4147
  615MOL0     H84859   8.820   5.987   4.964 -0.3832  0.1905 -1.2844
  615MOL0     H84860   8.680   6.161   5.079 -0.8992 -0.1770 -1.0004
  615MOL0     H84861   8.647   6.097   4.913  3.4129 -0.0783 -4.2742
  615MOL0     H84862   8.748   6.286   4.800  1.3856 -0.8052 -0.5521
  615MOL0     H84863   8.596   6.303   4.887 -0.5943 -1.1735  0.1724
  615MOL0     H84864   8.890   6.373   5.017  0.7162  2.7584  2.9262
  615MOL0     H84865   8.731   6.408   5.077  0.6790 -1.6202 -0.2272
  615MOL0     H84866   8.777   6.729   4.804  1.8817  0.0553 -0.4361
  615MOL0     H84867   9.139   6.237   5.204 -0.5777  0.5591 -3.4035
  615MOL0     H84868   9.439   6.131   5.322  0.5345  1.7204  2.6179
  615MOL0     H84869   9.306   6.258   5.336 -1.1286 -0.2165  0.1362
  615MOL0     H84870   9.305   6.116   5.440  0.4654 -0.6905  1.0746
  616MOL0     O84871   6.629   0.674   0.307  0.1147  0.8780 -0.1277
  616MOL0     C84872   6.581   0.782   0.277 -0.0099 -0.2636  0.2757
  616MOL0     O84873   6.532   0.871   0.369 -0.3540  0.3981  0.1061
  616MOL0     C84874   6.535   0.846   0.503 -0.1528 -0.0895 -0.0944
  616MOL0     C84875   6.630   0.757   0.572 -0.6379 -0.7927 -0.5639
  616MOL0     C84876   6.613   0.733   0.710  0.1376  0.5029 -0.1501
  616MOL0     C84877   6.520   0.792   0.787  0.4236 -0.0120  0.5106
  616MOL0     O84878   6.506   0.769   0.915 -0.2310  0.6608 -0.0657
  616MOL0     C84879   6.583   0.660   0.975  0.1071  0.6234 -1.3956
  616MOL0     C84880   6.506   0.606   1.099  1.0815 -0.1377  0.4015
  616MOL0     C84881   6.550   0.472   1.162 -0.0934  0.0258  0.0369
  616MOL0     C84882   6.529   0.467   1.314  0.5583 -0.6415 -0.0261
  616MOL0     C84883   6.614   0.358   1.375 -0.6849 -0.2990 -0.0718
  616MOL0     C84884   6.560   0.217   1.364 -0.5814 -0.0050 -0.0192
  616MOL0     C84885   6.422   0.199   1.414  0.0729  0.2435  0.0679
  616MOL0     C84886   6.315   0.215   1.311 -0.1449 -0.3317 -0.3206
  616MOL0     N84887   6.184   0.152   1.343  0.7713  0.4913  0.5933
  616MOL0     C84888   6.073   0.211   1.405  0.0610  0.9858 -0.2883
  616MOL0     C84889   5.990   0.098   1.421 -0.1313 -0.0217 -0.3004
  616MOL0     C84890   5.851   0.109   1.480  0.2922 -0.2493  0.6318
  616MOL0     C84891   5.764   0.158   1.368  0.9134  0.0844 -0.7786
  616MOL0     C84892   5.622   0.202   1.408 -0.7771 -0.4815  0.1586
  616MOL0     C84893   5.589   0.179   1.560 -0.4516  0.3084 -0.2292
  616MOL0     O84894   5.576   0.041   1.600 -0.7041 -0.9572  0.3283
  616MOL0     C84895   5.527   0.004   1.721 -0.4871 -0.5390  0.3461
  616MOL0     C84896   5.490   0.099   1.824 -0.8310 -0.0859  0.1285
  616MOL0     C84897   5.443   0.049   1.952 -0.2271 -0.4409 -0.2001
  616MOL0     C84898   5.396   0.162   2.045 -0.0738 -0.6645 -1.2047
  616MOL0     C84899   5.447  -0.081   1.985 -0.2723  0.6806  0.0105
  616MOL0     C84900   5.415  -0.143   2.115  0.1244  0.6174  0.1443
  616MOL0     O84901   5.408  -0.282   2.123  0.1221  0.4129  0.9695
  616MOL0     C84902   5.363  -0.355   2.239 -0.2917  0.7738  0.2133
  616MOL0     C84903   5.309  -0.481   2.204 -0.6500 -0.3916 -0.3140
  616MOL0     C84904   5.283  -0.569   2.312 -1.0109 -0.4206 -0.4692
  616MOL0     C84905   5.312  -0.533   2.445  0.4981  0.5010  0.0651
  616MOL0     O84906   5.305  -0.642   2.527  0.0319 -0.0427 -0.4660
  616MOL0     C84907   5.329  -0.615   2.667 -0.4626 -0.6132  0.2006
  616MOL0     C84908   5.289  -0.740   2.750  0.1953 -0.1685  0.7380
  616MOL0     C84909   5.260  -0.709   2.901 -0.6118  0.2636  0.9914
  616MOL0     C84910   5.380  -0.684   2.990 -0.3017 -0.3440  0.1772
  616MOL0     C84911   5.341  -0.635   3.132 -0.6030  1.0570  0.0369
  616MOL0     C84912   5.462  -0.646   3.222  0.8033  0.5578  0.0574
  616MOL0     C84913   5.433  -0.571   3.355  0.1696  0.0490 -0.1636
  616MOL0     C84914   5.466  -0.649   3.480 -0.1448 -0.0194 -0.0073
  616MOL0    Cl84915   5.630  -0.712   3.467  0.0200  0.1082  0.0008
  616MOL0     C84916   5.353  -0.407   2.472  1.2035  0.5925  0.3684
  616MOL0     C84917   5.382  -0.318   2.370  0.4138  0.6155 -0.8298
  616MOL0     O84918   5.398  -0.069   2.209  0.9051 -0.5412 -0.9513
  616MOL0     C84919   5.466  -0.171   1.877  0.3798 -0.0648 -0.1387
  616MOL0     C84920   5.500  -0.135   1.749 -0.1449 -0.1842 -0.2565
  616MOL0     N84921   6.047  -0.016   1.374  0.2852 -0.3377 -0.3816
  616MOL0     N84922   6.168   0.014   1.337 -0.3569  1.2945 -0.3347
  616MOL0     C84923   6.428   0.876   0.724 -0.7172 -0.3145  0.0621
  616MOL0     C84924   6.432   0.901   0.588 -0.1303  0.3784  0.7666
  616MOL0     C84925   6.590   0.841   0.142  0.4509 -0.1010 -0.4462
  616MOL0     C84926   6.592   0.984   0.129 -0.6179  0.1790  0.8852
  616MOL0     C84927   6.603   1.041  -0.000  0.1878 -0.0861 -0.5352
  616MOL0     C84928   6.591   0.954  -0.119 -0.7799 -0.8755 -1.1678
  616MOL0     O84929   6.607   1.006  -0.247  0.0704 -0.2357  0.0927
  616MOL0     C84930   6.610   1.150  -0.268 -0.6204 -0.4929  0.5710
  616MOL0     C84931   6.748   1.208  -0.257 -0.1059  0.1912 -0.2006
  616MOL0     C84932   6.745   1.348  -0.308  0.1756 -0.1986  0.2557
  616MOL0     C84933   6.646   1.444  -0.241 -0.5751  0.3355  0.1963
  616MOL0     C84934   6.637   1.434  -0.094 -0.1279  0.9780 -0.1732
  616MOL0     C84935   6.637   1.406   0.029 -0.3494 -0.6519  0.1503
  616MOL0     C84936   6.604   0.822  -0.106 -0.8478  0.4923  0.3787
  616MOL0     C84937   6.591   0.766   0.019 -0.0823  0.3519  0.2151
  616MOL0     C84938   6.570   0.617   0.020 -1.9754  0.5234 -0.1668
  616MOL0     H84939   6.710   0.699   0.528 -1.6179 -0.1438 -3.4563
  616MOL0     H84940   6.677   0.658   0.755 -2.6359 -4.2059 -3.1353
  616MOL0     H84941   6.685   0.692   1.002 -0.7083 -0.2339  3.6926
  616MOL0     H84942   6.606   0.575   0.910  0.5794 -0.0305 -0.3986
  616MOL0     H84943   6.508   0.687   1.172  3.8856 -0.9664  1.3928
  616MOL0     H84944   6.400   0.597   1.073  0.9031 -0.4696  1.2018
  616MOL0     H84945   6.494   0.399   1.105  0.4753 -0.5280  0.1761
  616MOL0     H84946   6.657   0.464   1.142  0.2615  3.7425 -0.2952
  616MOL0     H84947   6.573   0.564   1.339  4.0883 -1.7564 -1.2919
  616MOL0     H84948   6.424   0.471   1.344  0.7681  1.5728  0.5962
  616MOL0     H84949   6.635   0.385   1.479 -1.6590 -1.5744  0.4849
  616MOL0     H84950   6.713   0.354   1.330 -1.2392 -0.9363 -1.2857
  616MOL0     H84951   6.564   0.175   1.264 -0.2694 -1.6323  0.6473
  616MOL0     H84952   6.628   0.150   1.416 -0.4364  0.0917 -0.0847
  616MOL0     H84953   6.405   0.268   1.497  2.5738 -0.1759  0.9768
  616MOL0     H84954   6.424   0.097   1.452 -0.5638  0.4593  0.7167
  616MOL0     H84955   6.298   0.323   1.305  0.0014 -0.1845  1.3002
  616MOL0     H84956   6.349   0.175   1.215  0.9072 -1.2253  0.4036
  616MOL0     H84957   6.037   0.312   1.413 -3.0839  0.5290 -4.8442
  616MOL0     H84958   5.855   0.189   1.554 -4.2427  1.9375 -1.1221
  616MOL0     H84959   5.810   0.014   1.516  1.1372  0.3851  3.4758
  616MOL0     H84960   5.822   0.238   1.322  2.2411 -0.0450  0.5892
  616MOL0     H84961   5.757   0.072   1.301 -0.0768 -0.3742 -0.1147
  616MOL0     H84962   5.620   0.308   1.380  5.4633 -0.7113 -2.9090
  616MOL0     H84963   5.540   0.146   1.362 -1.7191  1.3365 -0.4912
  616MOL0     H84964   5.670   0.227   1.616  1.6590 -0.8698 -2.1351
  616MOL0     H84965   5.492   0.226   1.580 -0.3555 -0.1874  1.6178
  616MOL0     H84966   5.499   0.205   1.806 -0.2516  0.4118  2.9905
  616MOL0     H84967   5.458   0.169   2.135  1.8354  6.1886 -2.4604
  616MOL0     H84968   5.294   0.156   2.083 -0.4292 -0.5587 -2.1107
  616MOL0     H84969   5.403   0.261   1.998 -1.6284  0.5710  0.9980
  616MOL0     H84970   5.289  -0.507   2.101  0.0757  0.5281 -0.7035
  616MOL0     H84971   5.255  -0.669   2.281 -0.8546 -1.2003  1.7650
  616MOL0     H84972   5.428  -0.583   2.699 -0.7627  1.9071 -1.1008
  616MOL0     H84973   5.259  -0.537   2.700 -0.0157 -0.7510  1.5285
  616MOL0     H84974   5.196  -0.765   2.698 -1.8920  1.8359  3.2243
  616MOL0     H84975   5.362  -0.821   2.744  0.5347  0.0513  1.7685
  616MOL0     H84976   5.205  -0.791   2.946 -1.7971  0.0041 -0.8170
  616MOL0     H84977   5.195  -0.621   2.892 -1.8974 -0.8660 -1.8654
  616MOL0     H84978   5.445  -0.608   2.944 -0.6512 -0.2040 -0.0879
  616MOL0     H84979   5.433  -0.779   2.980 -2.4453 -1.5118 -0.8056
  616MOL0     H84980   5.296  -0.536   3.129 -1.6700  0.6001  0.5547
  616MOL0     H84981   5.267  -0.707   3.168 -0.3349 -1.3616 -3.6141
  616MOL0     H84982   5.550  -0.596   3.182  1.9668  1.9719  3.8690
  616MOL0     H84983   5.497  -0.747   3.244  0.2906  0.6736  1.5761
  616MOL0     H84984   5.331  -0.533   3.359  0.6709  1.4375 -0.2848
  616MOL0     H84985   5.498  -0.483   3.356  2.4159 -1.4686 -1.8990
  616MOL0     H84986   5.404  -0.738   3.492  0.9689 -1.1706 -2.0388
  616MOL0     H84987   5.457  -0.584   3.567 -0.2933 -0.9243  0.6701
  616MOL0     H84988   5.371  -0.376   2.574  1.0895  0.8437  0.3146
  616MOL0     H84989   5.426  -0.221   2.389 -0.9366  0.7937  1.8306
  616MOL0     H84990   5.449  -0.278   1.889 -0.9981  0.0739 -0.6859
  616MOL0     H84991   5.524  -0.211   1.675  0.6962 -0.4632  0.2814
  616MOL0     H84992   6.363   0.937   0.787  0.5443 -1.6256  2.7725
  616MOL0     H84993   6.360   0.961   0.532  0.0541  0.2845  0.4269
  616MOL0     H84994   6.587   1.050   0.215 -2.5821  1.5993 -0.2143
  616MOL0     H84995   6.620   1.148  -0.006 -0.1629 -0.0429 -0.8529
  616MOL0     H84996   6.576   1.174  -0.369 -1.2958  0.8998  1.0985
  616MOL0     H84997   6.530   1.193  -0.207 -1.4728  0.3529 -1.0840
  616MOL0     H84998   6.824   1.153  -0.314 -0.2524 -0.6562  0.3952
  616MOL0     H84999   6.778   1.210  -0.152 -0.6479 -1.3201  0.0114
  616MOL0     H85000   6.846   1.390  -0.309  1.1275 -2.3645 -0.8320
  616MOL0     H85001   6.713   1.332  -0.411 -1.8523  0.7693  0.6866
  616MOL0     H85002   6.544   1.431  -0.279 -1.0352  1.9932  0.7486
  616MOL0     H85003   6.663   1.549  -0.266  6.2570  0.1537  2.1468
  616MOL0     H85004   6.631   1.381   0.133 -0.9370 -3.0818 -0.3943
  616MOL0     H85005   6.617   0.770  -0.200 -0.4207  3.3121 -1.2376
  616MOL0     H85006   6.598   0.577  -0.078 -1.4356  0.5533 -0.0245
  616MOL0     H85007   6.636   0.580   0.099 -1.1496  0.6498 -0.7844
  616MOL0     H85008   6.467   0.589   0.044 -0.6445 -2.2976  3.0431
  617MOL0     O85009   0.802   4.103   7.164 -0.5344  0.3048 -0.1206
  617MOL0     C85010   0.729   4.135   7.260  0.8086 -0.0009  0.9050
  617MOL0     O85011   0.765   4.222   7.364  0.3096 -0.3559 -0.1016
  617MOL0     C85012   0.895   4.272   7.393  0.6133  0.5394 -0.2905
  617MOL0     C85013   1.019   4.224   7.359 -0.1897 -0.2436  0.1271
  617MOL0     C85014   1.130   4.307   7.390  0.3605  0.9218 -0.1268
  617MOL0     C85015   1.116   4.432   7.451  0.4813 -0.4743 -0.3013
  617MOL0     O85016   1.222   4.511   7.480 -0.2411 -0.1965  0.0958
  617MOL0     C85017   1.348   4.453   7.473  0.3179 -0.2034  0.6143
  617MOL0     C85018   1.463   4.548   7.517  0.2496  0.8872 -0.9267
  617MOL0     C85019   1.600   4.495   7.473  0.0419 -0.1742 -1.3819
  617MOL0     C85020   1.717   4.545   7.561  0.0471 -0.1941  0.1478
  617MOL0     C85021   1.842   4.583   7.492 -0.2394  0.0034  0.5979
  617MOL0     C85022   1.909   4.466   7.423 -0.3454 -0.7609  0.3479
  617MOL0     C85023   1.968   4.368   7.518 -0.0159  0.3738 -0.8127
  617MOL0     C85024   1.984   4.228   7.469  0.3380 -0.2161 -0.4369
  617MOL0     N85025   1.860   4.185   7.409 -0.4304 -0.1054 -0.0583
  617MOL0     C85026   1.848   4.140   7.280 -1.0813  0.3822 -0.2051
  617MOL0     C85027   1.721   4.087   7.270 -0.0970 -0.3799  0.1936
  617MOL0     C85028   1.669   4.037   7.139  0.3422  0.5568 -0.9720
  617MOL0     C85029   1.591   4.149   7.059 -0.7411  0.3923  0.2941
  617MOL0     C85030   1.683   4.226   6.963 -0.3674 -0.5666  0.1559
  617MOL0     C85031   1.593   4.320   6.883  0.7162 -0.5518 -0.8193
  617MOL0     O85032   1.497   4.244   6.805 -0.4976  0.0443  0.3192
  617MOL0     C85033   1.405   4.304   6.727 -0.1977  0.3542 -0.7965
  617MOL0     C85034   1.401   4.440   6.697 -0.4746  0.1740 -0.2753
  617MOL0     C85035   1.325   4.488   6.584  0.7756 -0.0820 -0.0719
  617MOL0     C85036   1.312   4.634   6.558 -0.4184  0.7404  0.6469
  617MOL0     C85037   1.243   4.380   6.521  0.2751  0.0009 -0.3988
  617MOL0     C85038   1.139   4.408   6.410 -0.7205 -0.0382 -0.1596
  617MOL0     O85039   1.081   4.530   6.416  0.1129 -0.4149  0.3354
  617MOL0     C85040   1.021   4.578   6.308  0.0186 -0.0736  0.4108
  617MOL0     C85041   0.928   4.503   6.237 -0.3212  0.2265  0.5795
  617MOL0     C85042   0.869   4.562   6.117 -0.4526 -0.4645  0.4184
  617MOL0     C85043   0.919   4.683   6.067  0.0743 -0.0060  1.2495
  617MOL0     O85044   0.871   4.729   5.947  0.1419  0.1964 -0.0290
  617MOL0     C85045   0.817   4.864   5.949 -0.8075 -0.4090 -0.4412
  617MOL0     C85046   0.785   4.903   5.803  0.4818  0.5591 -0.4546
  617MOL0     C85047   0.899   4.941   5.707  0.4435  0.4151 -0.3022
  617MOL0     C85048   0.947   5.090   5.714  0.1912 -0.2372  0.5931
  617MOL0     C85049   1.033   5.124   5.833  0.2774 -0.4726  0.2969
  617MOL0     C85050   1.096   5.261   5.824  0.1523 -0.4827 -0.2741
  617MOL0     C85051   1.197   5.297   5.939  1.4576 -0.1534  0.5403
  617MOL0     C85052   1.284   5.187   5.998 -0.3869  0.3204  0.1503
  617MOL0    Cl85053   1.201   5.074   6.106  0.1537 -0.2890  0.1468
  617MOL0     C85054   1.010   4.758   6.137 -0.5368 -0.5794 -0.2030
  617MOL0     C85055   1.058   4.704   6.260  0.3797 -0.8309 -0.0909
  617MOL0     O85056   1.113   4.320   6.331 -0.3615  0.0046  0.2539
  617MOL0     C85057   1.252   4.243   6.560 -0.0147 -0.3127 -0.0001
  617MOL0     C85058   1.336   4.210   6.663  0.0080  0.4440  0.5796
  617MOL0     N85059   1.669   4.086   7.393 -0.1080 -0.3362 -0.4730
  617MOL0     N85060   1.744   4.166   7.477  0.2767  0.1635  0.0766
  617MOL0     C85061   0.996   4.463   7.509  0.7312  0.7062  0.0260
  617MOL0     C85062   0.883   4.375   7.482 -0.3616  0.2738 -0.1678
  617MOL0     C85063   0.587   4.106   7.234 -0.3350  0.6479 -0.3644
  617MOL0     C85064   0.557   4.035   7.113  0.0401  0.6761  0.1427
  617MOL0     C85065   0.431   3.984   7.093  0.3535 -0.8856  0.1526
  617MOL0     C85066   0.331   3.989   7.189  0.4946 -0.1318  1.0609
  617MOL0     O85067   0.205   3.933   7.185  0.8386 -0.0970  1.0320
  617MOL0     C85068   0.156   3.820   7.108 -0.4310  0.6070 -0.3398
  617MOL0     C85069   0.021   3.769   7.169  0.0414 -0.0324 -1.1057
  617MOL0     C85070   0.062   3.661   7.273 -0.6893 -0.1999 -0.9509
  617MOL0     C85071   0.124   3.705   7.399  0.2048 -0.4411 -0.2350
  617MOL0     C85072   0.163   3.587   7.475 -0.2761 -0.4356 -0.8530
  617MOL0     C85073   0.203   3.481   7.519 -0.4685 -0.2134  0.3267
  617MOL0     C85074   0.355   4.086   7.288  0.0187 -0.6263 -0.6531
  617MOL0     C85075   0.480   4.146   7.318 -0.5531  0.5862 -0.1057
  617MOL0     C85076   0.484   4.245   7.424  0.5328 -0.4001  0.0764
  617MOL0     H85077   1.037   4.138   7.295  0.4348  0.5421 -0.7752
  617MOL0     H85078   1.225   4.274   7.348  0.8194  0.7075  1.0615
  617MOL0     H85079   1.374   4.436   7.368 -0.2568  2.2752  0.0134
  617MOL0     H85080   1.344   4.355   7.521 -3.4354 -0.6302 -0.2615
  617MOL0     H85081   1.439   4.650   7.487 -0.4649  0.7325 -0.8802
  617MOL0     H85082   1.482   4.539   7.624  3.0883 -0.1505 -1.4080
  617MOL0     H85083   1.604   4.388   7.491  0.2194 -0.2534 -1.8786
  617MOL0     H85084   1.617   4.499   7.365  1.6079 -1.4140 -1.2179
  617MOL0     H85085   1.683   4.644   7.592  1.2846  1.4590 -3.2154
  617MOL0     H85086   1.736   4.486   7.651  1.5099  0.1185  0.0623
  617MOL0     H85087   1.921   4.615   7.560  1.5724 -1.6747 -0.5842
  617MOL0     H85088   1.822   4.658   7.415  4.5181 -0.1285 -1.1295
  617MOL0     H85089   1.839   4.423   7.351  1.0386 -2.3731 -0.1022
  617MOL0     H85090   1.990   4.499   7.356 -2.2166  2.2725 -0.6338
  617MOL0     H85091   1.916   4.363   7.615  2.5704 -3.6078  0.6363
  617MOL0     H85092   2.068   4.399   7.549  1.1089 -1.6967 -2.1846
  617MOL0     H85093   2.071   4.212   7.404  1.2014  0.5290  0.5070
  617MOL0     H85094   2.000   4.162   7.554  0.9279  0.0507 -0.3391
  617MOL0     H85095   1.924   4.153   7.204  0.4589  0.1448  1.2419
  617MOL0     H85096   1.608   3.951   7.167 -2.0901  1.4064 -3.2469
  617MOL0     H85097   1.752   3.997   7.080  1.9399  2.0253  0.1594
  617MOL0     H85098   1.508   4.099   7.009 -0.5328 -0.1661  0.4888
  617MOL0     H85099   1.553   4.221   7.132 -2.5403  1.8094 -1.9127
  617MOL0     H85100   1.755   4.269   7.032 -2.3475  0.8454  1.4322
  617MOL0     H85101   1.729   4.152   6.896 -2.7523  0.4366 -2.8530
  617MOL0     H85102   1.536   4.385   6.950  0.4846  0.0290 -1.5604
  617MOL0     H85103   1.654   4.385   6.818  2.4847 -2.3384 -1.0453
  617MOL0     H85104   1.448   4.523   6.750  1.6283  0.1018 -1.8962
  617MOL0     H85105   1.393   4.679   6.615 -0.5498 -0.4049  1.7884
  617MOL0     H85106   1.211   4.663   6.590 -0.3853  0.5040  0.9797
  617MOL0     H85107   1.318   4.637   6.449 -1.3392  0.7847  0.5867
  617MOL0     H85108   0.908   4.402   6.272 -2.3470  1.0174  1.8455
  617MOL0     H85109   0.806   4.499   6.056  0.4706 -0.5922 -0.4193
  617MOL0     H85110   0.732   4.862   6.017 -1.9839 -0.1198 -1.8532
  617MOL0     H85111   0.884   4.944   5.984  2.1940 -1.6644 -2.8530
  617MOL0     H85112   0.718   4.830   5.756 -2.2361  3.7426 -1.9762
  617MOL0     H85113   0.716   4.987   5.819 -0.0640  0.4950 -2.2809
  617MOL0     H85114   0.856   4.926   5.607  1.9282 -1.9277 -0.6692
  617MOL0     H85115   0.979   4.867   5.711 -0.1304 -0.2473 -0.7906
  617MOL0     H85116   0.858   5.152   5.703 -1.3979 -2.6451 -1.4346
  617MOL0     H85117   1.006   5.109   5.623  1.4739 -2.2179  0.9481
  617MOL0     H85118   0.976   5.123   5.927 -0.3637 -2.5909 -0.0421
  617MOL0     H85119   1.106   5.043   5.847 -0.1738 -0.7863  0.9150
  617MOL0     H85120   1.024   5.342   5.812  0.2863 -0.4395 -0.8610
  617MOL0     H85121   1.149   5.265   5.728  1.2656  1.5006  0.3552
  617MOL0     H85122   1.131   5.338   6.017  1.1130 -3.3272  2.0901
  617MOL0     H85123   1.262   5.372   5.893  1.0320  1.6542  2.6489
  617MOL0     H85124   1.364   5.246   6.043 -0.5496  1.6151 -1.1635
  617MOL0     H85125   1.317   5.122   5.917  1.2351 -0.6939  1.5775
  617MOL0     H85126   1.030   4.860   6.108 -0.0635  0.1195  2.3489
  617MOL0     H85127   1.125   4.769   6.316  2.8306 -1.4783 -2.0906
  617MOL0     H85128   1.199   4.173   6.495  0.1863  0.5555 -1.1461
  617MOL0     H85129   1.352   4.111   6.704  0.2747 -0.4947 -1.6585
  617MOL0     H85130   0.995   4.550   7.573 -0.3805  2.6695 -2.4934
  617MOL0     H85131   0.782   4.395   7.518 -1.3152 -1.3527 -1.7098
  617MOL0     H85132   0.618   4.020   7.024 -1.4391  0.5478 -0.8936
  617MOL0     H85133   0.389   3.929   7.010 -0.9841 -0.4396  0.5179
  617MOL0     H85134   0.124   3.848   7.007 -3.2158 -0.4374  0.1636
  617MOL0     H85135   0.234   3.745   7.091 -1.2780 -0.1757 -0.8876
  617MOL0     H85136  -0.036   3.726   7.086  1.8289 -1.1892 -1.8016
  617MOL0     H85137  -0.035   3.851   7.213 -2.5471 -1.2531 -1.9085
  617MOL0     H85138  -0.026   3.600   7.299 -0.0424 -3.3796 -5.1273
  617MOL0     H85139   0.127   3.586   7.226  2.0679  1.7330 -0.4546
  617MOL0     H85140   0.051   3.768   7.450  1.6532  1.8377 -0.7760
  617MOL0     H85141   0.210   3.771   7.383  1.2233 -1.3029  1.3654
  617MOL0     H85142   0.239   3.385   7.550  1.2680  0.1369 -0.4675
  617MOL0     H85143   0.270   4.118   7.347  0.9188 -1.3569  1.0964
  617MOL0     H85144   0.386   4.261   7.470 -0.4601  0.7047 -2.2544
  617MOL0     H85145   0.556   4.207   7.498  0.0788 -1.2009  0.1239
  617MOL0     H85146   0.514   4.345   7.394 -0.2419 -1.2560 -4.2082
  618MOL0     O85147   2.776   3.437   8.164 -0.6011 -0.9715 -0.3909
  618MOL0     C85148   2.779   3.549   8.129  0.2417 -1.5474 -0.1704
  618MOL0     O85149   2.900   3.617   8.113 -0.0089 -0.4130 -0.3802
  618MOL0     C85150   3.028   3.564   8.115 -0.4152 -0.4042 -0.4963
  618MOL0     C85151   3.049   3.442   8.064 -0.1469  0.8113  0.6669
  618MOL0     C85152   3.186   3.401   8.040  0.4934  0.1692  0.0788
  618MOL0     C85153   3.288   3.486   8.083  0.0995 -0.3757  0.0549
  618MOL0     O85154   3.412   3.433   8.070 -0.4731  1.3092 -0.1903
  618MOL0     C85155   3.536   3.495   8.101 -0.2655 -0.2043  0.4462
  618MOL0     C85156   3.644   3.398   8.084 -0.1649  0.7901 -0.9627
  618MOL0     C85157   3.616   3.253   8.139 -0.4260  0.3951 -0.0041
  618MOL0     C85158   3.596   3.252   8.288  0.7438  0.5704 -0.2040
  618MOL0     C85159   3.585   3.114   8.351  0.1700 -0.7786  0.6887
  618MOL0     C85160   3.591   3.132   8.502  0.5324  0.3610  0.0233
  618MOL0     C85161   3.515   3.015   8.576 -0.1999 -0.2626 -0.4869
  618MOL0     C85162   3.513   3.022   8.727  0.3844 -0.7007 -0.7156
  618MOL0     N85163   3.628   2.946   8.777 -0.5200  0.2801 -0.4787
  618MOL0     C85164   3.757   2.980   8.788  0.6813 -0.0412  0.7717
  618MOL0     C85165   3.817   2.866   8.845 -0.0238  0.5580 -0.5331
  618MOL0     C85166   3.967   2.851   8.863  0.1826 -1.0204 -0.5636
  618MOL0     C85167   4.008   2.801   8.998 -0.2216 -0.4071 -0.3209
  618MOL0     C85168   3.934   2.868   9.123 -0.7211  0.4618  0.7896
  618MOL0     C85169   4.003   2.819   9.255 -0.4848 -0.4472 -0.3730
  618MOL0     O85170   4.000   2.673   9.277  0.1108 -0.4981  0.0597
  618MOL0     C85171   4.032   2.624   9.398 -0.4347 -0.1059 -0.5917
  618MOL0     C85172   4.078   2.699   9.506 -0.1508  0.3540  0.1533
  618MOL0     C85173   4.116   2.636   9.629 -0.5867 -0.3406  0.4053
  618MOL0     C85174   4.179   2.727   9.736  1.1680  0.6113 -0.0300
  618MOL0     C85175   4.089   2.498   9.641 -0.7779 -0.4562 -0.4579
  618MOL0     C85176   4.121   2.424   9.772  0.5282 -0.0592 -0.1233
  618MOL0     O85177   4.116   2.289   9.760 -0.3786  0.7835 -0.1397
  618MOL0     C85178   4.122   2.211   9.871 -0.0757  0.4871 -0.2211
  618MOL0     C85179   4.010   2.175   9.947  0.5297 -1.8381 -0.5719
  618MOL0     C85180   4.021   2.129  10.076  0.5966  0.4998  0.4851
  618MOL0     C85181   4.148   2.072  10.119 -0.0477  0.1105 -0.3636
  618MOL0     O85182   4.159   2.010  10.243  0.0884 -0.3242 -0.2118
  618MOL0     C85183   4.290   2.005  10.296  1.1571 -0.3984  0.1061
  618MOL0     C85184   4.344   1.862  10.260 -0.1375  0.0808  0.7053
  618MOL0     C85185   4.389   1.791  10.391 -0.8163 -0.1526  0.3880
  618MOL0     C85186   4.446   1.646  10.385 -0.6513  0.7642  0.3673
  618MOL0     C85187   4.331   1.544  10.374 -0.9651  0.1222 -0.0764
  618MOL0     C85188   4.380   1.391  10.351 -0.2492  0.9202  0.1654
  618MOL0     C85189   4.486   1.369  10.244 -0.6475  0.3754 -0.0027
  618MOL0     C85190   4.505   1.214  10.237 -0.0241  0.0672 -0.0388
  618MOL0    Cl85191   4.616   1.164  10.116  0.0343  0.4538 -0.2475
  618MOL0     C85192   4.258   2.080  10.033 -0.1710 -0.1621 -0.4934
  618MOL0     C85193   4.248   2.157   9.918 -0.2344  0.3277 -0.3229
  618MOL0     O85194   4.135   2.481   9.878 -0.0767 -0.7156 -0.5582
  618MOL0     C85195   4.035   2.425   9.541  0.5853  0.7158  0.3423
  618MOL0     C85196   3.991   2.488   9.426  1.2625 -1.0216  0.5514
  618MOL0     N85197   3.727   2.763   8.871  0.9461  0.1114  0.2614
  618MOL0     N85198   3.618   2.816   8.824  1.0090  0.0935  0.2429
  618MOL0     C85199   3.257   3.607   8.132  0.2732  0.4805 -0.8838
  618MOL0     C85200   3.126   3.644   8.154 -0.1365 -0.1675  1.2932
  618MOL0     C85201   2.655   3.637   8.127 -0.5359 -0.2891 -0.0281
  618MOL0     C85202   2.667   3.775   8.091 -0.7155  0.4350  1.1039
  618MOL0     C85203   2.558   3.849   8.076 -0.3211  0.4027  0.2223
  618MOL0     C85204   2.423   3.801   8.085  0.2987  0.5453 -0.0855
  618MOL0     O85205   2.319   3.883   8.055  0.5044 -0.0934 -0.0023
  618MOL0     C85206   2.230   3.899   8.168 -0.2371 -0.6105  0.2037
  618MOL0     C85207   2.288   4.009   8.270 -0.8605 -0.1930 -0.3468
  618MOL0     C85208   2.196   4.038   8.387  0.2922  0.2249  0.3738
  618MOL0     C85209   2.270   4.112   8.490  0.6633  0.1741  0.1830
  618MOL0     C85210   2.311   4.247   8.456  0.4675  0.2296 -0.7858
  618MOL0     C85211   2.354   4.357   8.437 -0.0824  0.7891  1.2622
  618MOL0     C85212   2.410   3.664   8.114 -0.1225 -0.3876 -0.1093
  618MOL0     C85213   2.518   3.585   8.152  0.4630 -0.8360  0.0672
  618MOL0     C85214   2.475   3.446   8.192  0.5026  0.1024  0.5051
  618MOL0     H85215   2.974   3.376   8.021  0.3211  0.4725  0.3540
  618MOL0     H85216   3.211   3.307   7.990  0.1549 -0.3569  0.8701
  618MOL0     H85217   3.526   3.543   8.199 -2.0343  4.6772 -1.7523
  618MOL0     H85218   3.559   3.575   8.029  3.0676 -1.5461 -0.1892
  618MOL0     H85219   3.663   3.390   7.977  0.9352  0.1196 -0.7283
  618MOL0     H85220   3.732   3.446   8.127 -1.8148  2.6919  0.5353
  618MOL0     H85221   3.529   3.209   8.090  0.9154 -1.4440 -0.8208
  618MOL0     H85222   3.705   3.193   8.120 -0.9019  0.3393 -2.3604
  618MOL0     H85223   3.685   3.299   8.332  0.3982 -0.9331  2.2722
  618MOL0     H85224   3.508   3.305   8.325 -0.2233 -2.1282  1.6114
  618MOL0     H85225   3.668   3.048   8.322  1.1404  1.1385 -1.2337
  618MOL0     H85226   3.493   3.063   8.321  1.0163 -0.7562 -2.3018
  618MOL0     H85227   3.696   3.133   8.534  0.5544  3.1940  0.0579
  618MOL0     H85228   3.553   3.228   8.537  3.7093  1.1717  1.6278
  618MOL0     H85229   3.575   2.927   8.550  2.7831  1.7597 -0.9887
  618MOL0     H85230   3.414   3.007   8.534 -2.0114 -1.8568  3.6091
  618MOL0     H85231   3.515   3.130   8.746  0.4472 -0.3807 -2.4288
  618MOL0     H85232   3.417   2.981   8.759  0.8111 -0.8551  0.4518
  618MOL0     H85233   3.786   3.075   8.744  0.0400 -0.2037 -0.0181
  618MOL0     H85234   4.011   2.950   8.845 -1.3555 -0.0998  0.4390
  618MOL0     H85235   4.006   2.786   8.785 -1.9587  1.7185 -4.2554
  618MOL0     H85236   3.987   2.694   8.996 -0.8308 -0.3851 -4.5723
  618MOL0     H85237   4.115   2.825   8.997 -1.1115  4.6331 -1.2616
  618MOL0     H85238   3.950   2.976   9.115 -2.4143  0.5959 -1.9134
  618MOL0     H85239   3.827   2.844   9.119 -0.6989  0.3442  0.9008
  618MOL0     H85240   4.109   2.848   9.254 -0.2733 -0.7734  2.5518
  618MOL0     H85241   3.962   2.857   9.349  1.0990 -1.5854  0.8406
  618MOL0     H85242   4.108   2.803   9.491  1.1570  0.5475  3.3561
  618MOL0     H85243   4.203   2.828   9.702  0.4423  0.9912  0.5613
  618MOL0     H85244   4.272   2.693   9.784  0.2459  1.8516  2.8806
  618MOL0     H85245   4.105   2.741   9.815 -2.0658 -2.8041 -2.1344
  618MOL0     H85246   3.906   2.187   9.920  1.0718 -0.8563 -2.3388
  618MOL0     H85247   3.933   2.107  10.136 -0.5352  2.2914 -0.4347
  618MOL0     H85248   4.352   2.088  10.259  0.1253  0.3710  0.0413
  618MOL0     H85249   4.292   2.021  10.404  1.1855  3.1008 -0.2931
  618MOL0     H85250   4.291   1.790  10.198  3.3007  0.5984 -3.2611
  618MOL0     H85251   4.437   1.872  10.202  0.0079  0.3520  0.9823
  618MOL0     H85252   4.313   1.784  10.470  1.0663  2.4093  2.6143
  618MOL0     H85253   4.469   1.843  10.445  0.1612 -1.7325  0.5280
  618MOL0     H85254   4.505   1.630  10.476 -0.3093  1.6339  0.3152
  618MOL0     H85255   4.522   1.631  10.307 -1.0081 -1.6200  0.4068
  618MOL0     H85256   4.283   1.540  10.472  2.6970 -0.3213  1.8592
  618MOL0     H85257   4.260   1.581  10.299  0.4906 -2.4750 -2.9601
  618MOL0     H85258   4.284   1.348  10.321  0.6179  0.1637 -1.6644
  618MOL0     H85259   4.424   1.353  10.444  1.3784  0.5650 -0.7091
  618MOL0     H85260   4.581   1.420  10.261  0.0649 -0.4872 -1.2258
  618MOL0     H85261   4.443   1.408  10.152  1.3357  3.1045  0.1202
  618MOL0     H85262   4.408   1.165  10.221 -0.1024  0.8988 -2.4960
  618MOL0     H85263   4.541   1.169  10.330  0.1924 -1.3293 -0.7692
  618MOL0     H85264   4.352   2.032  10.056 -0.1485  0.6702  1.3574
  618MOL0     H85265   4.327   2.179   9.847 -0.2869  2.4129  0.1774
  618MOL0     H85266   4.009   2.320   9.550  1.0260  0.2701 -2.6235
  618MOL0     H85267   3.932   2.429   9.357 -0.9900 -0.4777  1.9144
  618MOL0     H85268   3.346   3.661   8.163  0.1517  0.2975 -0.1903
  618MOL0     H85269   3.087   3.737   8.194  0.5419  0.7644 -0.1189
  618MOL0     H85270   2.761   3.822   8.065  0.0874 -1.4728  0.3981
  618MOL0     H85271   2.555   3.954   8.048 -0.5020 -0.5795 -4.0484
  618MOL0     H85272   2.134   3.928   8.125  0.8939 -2.4050 -4.1012
  618MOL0     H85273   2.225   3.808   8.229 -0.4945 -0.3679  0.5423
  618MOL0     H85274   2.310   4.106   8.224 -0.9278  0.9067  1.8142
  618MOL0     H85275   2.380   3.971   8.316 -2.4656 -3.4598  0.5224
  618MOL0     H85276   2.113   4.091   8.341  0.8078 -0.1256 -1.0213
  618MOL0     H85277   2.161   3.944   8.429 -2.2111 -0.0848 -2.1037
  618MOL0     H85278   2.353   4.058   8.537 -0.5440 -1.6709  0.3060
  618MOL0     H85279   2.193   4.109   8.568  1.8876  0.4956  1.4444
  618MOL0     H85280   2.402   4.452   8.420  0.6204  0.4483  1.3279
  618MOL0     H85281   2.314   3.614   8.122  0.6115 -1.8474 -0.0599
  618MOL0     H85282   2.530   3.425   8.284 -0.6398 -1.5272  0.8795
  618MOL0     H85283   2.368   3.432   8.209  0.5780  0.2832  1.1244
  618MOL0     H85284   2.502   3.365   8.123 -0.8939  1.3116 -1.5703
  619MOL0     O85285  10.145   9.732   9.819  0.3409 -0.1632  0.5255
  619MOL0     C85286  10.047   9.799   9.850  0.3956 -0.8140 -0.6223
  619MOL0     O85287   9.937   9.822   9.774 -0.1210  0.6312 -0.7091
  619MOL0     C85288   9.929   9.755   9.653  0.5660 -0.4166 -0.1409
  619MOL0     C85289   9.901   9.616   9.652  0.9231 -0.7653  0.0906
  619MOL0     C85290   9.840   9.560   9.541  0.1408  0.2102 -0.1597
  619MOL0     C85291   9.835   9.633   9.420 -0.4792 -0.2232 -0.0867
  619MOL0     O85292   9.785   9.587   9.302  0.1520  1.1603  1.0623
  619MOL0     C85293   9.764   9.445   9.299 -0.2246 -0.1858  0.4129
  619MOL0     C85294   9.680   9.402   9.182  0.2948 -0.9093  0.6209
  619MOL0     C85295   9.562   9.495   9.161  0.5141 -0.3892  0.5275
  619MOL0     C85296   9.478   9.465   9.025 -0.8583  0.7058  0.3224
  619MOL0     C85297   9.337   9.539   9.029 -0.2184  0.7289  0.3871
  619MOL0     C85298   9.335   9.683   8.981  0.0369 -0.1783 -0.0499
  619MOL0     C85299   9.180   9.732   8.985 -1.2780 -0.3894  0.0921
  619MOL0     C85300   9.182   9.877   8.937  0.4991  1.1081 -0.5138
  619MOL0     N85301   9.049   9.933   8.923  0.1180 -0.2367 -0.0475
  619MOL0     C85302   8.981   9.924   8.797 -0.3703  0.3744 -0.3761
  619MOL0     C85303   8.856   9.973   8.827  0.0268  0.7061  0.5726
  619MOL0     C85304   8.740   9.993   8.737 -0.0834 -0.1803 -0.1927
  619MOL0     C85305   8.594   9.985   8.784  0.4836  0.2384  0.5289
  619MOL0     C85306   8.566   9.861   8.878 -0.0767  0.0410  0.2191
  619MOL0     C85307   8.419   9.852   8.907 -0.5825 -0.1262 -1.0332
  619MOL0     O85308   8.371   9.965   8.985 -0.9536  0.0471 -0.0105
  619MOL0     C85309   8.324   9.964   9.107  0.9551  0.5959  0.6863
  619MOL0     C85310   8.234   9.860   9.152 -0.7933 -0.0509 -0.5245
  619MOL0     C85311   8.153   9.873   9.268  0.1216 -0.1471 -0.1591
  619MOL0     C85312   8.055   9.762   9.310 -0.1490  0.0262 -0.1739
  619MOL0     C85313   8.165   9.993   9.352  0.6624 -0.2978  0.4656
  619MOL0     C85314   8.102  10.018   9.478  1.0567  0.4477 -0.1259
  619MOL0     O85315   8.168  10.104   9.559  0.2676  0.5417 -0.3231
  619MOL0     C85316   8.104  10.146   9.672  0.4477  1.0477  0.4603
  619MOL0     C85317   7.976  10.207   9.673  0.6558 -0.0547  0.0916
  619MOL0     C85318   7.931  10.250   9.806  0.1654 -0.0182  0.5735
  619MOL0     C85319   8.015  10.246   9.924 -0.0466  0.2907  0.4069
  619MOL0     O85320   7.985  10.298  10.050  0.4332 -0.3100 -0.4990
  619MOL0     C85321   7.855  10.358  10.075 -0.1067 -0.2867 -0.7969
  619MOL0     C85322   7.861  10.412  10.216  0.5275  0.4174 -0.5186
  619MOL0     C85323   7.967  10.523  10.228 -0.3846 -0.2466 -0.0930
  619MOL0     C85324   7.965  10.574  10.374  0.6647  0.6268  0.4005
  619MOL0     C85325   7.829  10.646  10.405 -0.0699 -0.7655  0.7278
  619MOL0     C85326   7.783  10.764  10.309 -0.4643  0.3210  0.5264
  619MOL0     C85327   7.659  10.841  10.365 -0.1188  0.9553 -0.1332
  619MOL0     C85328   7.543  10.744  10.411 -0.0693 -0.4306 -0.3017
  619MOL0    Cl85329   7.388  10.831  10.388 -0.0437  0.2450 -0.5847
  619MOL0     C85330   8.141  10.203   9.901  0.8104  0.4069 -0.5610
  619MOL0     C85331   8.184  10.158   9.774 -0.0044 -0.5634 -0.5246
  619MOL0     O85332   8.001   9.955   9.502  0.2679  0.1796 -0.3426
  619MOL0     C85333   8.264  10.088   9.312  0.2328  0.0642  0.3805
  619MOL0     C85334   8.335  10.080   9.188  0.0947  0.7014  0.4631
  619MOL0     N85335   8.854   9.999   8.968 -0.2768 -0.4667 -0.2538
  619MOL0     N85336   8.970   9.971   9.027  0.0522  0.1219  0.2823
  619MOL0     C85337   9.869   9.767   9.428 -0.7932 -0.8878  0.4991
  619MOL0     C85338   9.907   9.831   9.543 -0.4396 -0.0426  0.0280
  619MOL0     C85339  10.041   9.876   9.984  0.6886  0.4310  0.4165
  619MOL0     C85340   9.970   9.998   9.986 -0.0969 -0.0621  0.5521
  619MOL0     C85341   9.984  10.070  10.102  0.4585 -0.1167 -0.2058
  619MOL0     C85342  10.032  10.022  10.225  0.2321 -0.8383  0.3956
  619MOL0     O85343  10.027  10.105  10.336 -0.5843 -0.0819 -0.7715
  619MOL0     C85344  10.046  10.047  10.473  0.3545 -0.1985 -0.0138
  619MOL0     C85345  10.013  10.145  10.590 -0.1741  1.5402  0.0822
  619MOL0     C85346   9.886  10.223  10.581 -0.4071  0.1194 -0.2006
  619MOL0     C85347   9.764  10.124  10.561  0.1048 -0.2689  0.2913
  619MOL0     C85348   9.642  10.210  10.565  0.4901  1.1777  1.2678
  619MOL0     C85349   9.540  10.263  10.595  0.4361 -0.1891 -0.5241
  619MOL0     C85350  10.085   9.893  10.214 -0.8737  0.5481  1.1579
  619MOL0     C85351  10.101   9.828  10.095  0.0231 -0.2100 -0.7350
  619MOL0     C85352  10.176   9.692  10.107  0.0016  0.1811  0.1063
  619MOL0     H85353   9.914   9.558   9.743 -0.4089 -3.0557 -1.0804
  619MOL0     H85354   9.830   9.452   9.547  0.2111  0.1465 -1.1156
  619MOL0     H85355   9.698   9.423   9.383 -2.3684  1.1360 -0.8303
  619MOL0     H85356   9.861   9.396   9.309 -0.0264  0.1873  0.3341
  619MOL0     H85357   9.744   9.407   9.093 -0.5831  2.4614  0.0178
  619MOL0     H85358   9.653   9.298   9.200 -0.3181 -0.6037  1.5435
  619MOL0     H85359   9.491   9.486   9.244  1.9255  0.6326  1.9261
  619MOL0     H85360   9.596   9.599   9.153  0.4137 -0.5271 -3.2458
  619MOL0     H85361   9.526   9.494   8.931  1.2449  1.0398  1.4364
  619MOL0     H85362   9.451   9.359   9.023 -1.3206  0.8182  0.4214
  619MOL0     H85363   9.292   9.520   9.127  0.0143 -1.6935  0.0894
  619MOL0     H85364   9.272   9.491   8.955 -2.5714  0.6073  2.4064
  619MOL0     H85365   9.406   9.743   9.039  1.4520 -1.9842  0.1630
  619MOL0     H85366   9.370   9.688   8.877  1.2785 -1.4413  0.2783
  619MOL0     H85367   9.137   9.721   9.085 -3.0386  1.4405 -0.3882
  619MOL0     H85368   9.118   9.667   8.923  0.8510 -1.4622 -1.0114
  619MOL0     H85369   9.238   9.933   9.012 -0.2600  1.2919 -0.0792
  619MOL0     H85370   9.237   9.884   8.843  0.0395  3.5856 -0.6761
  619MOL0     H85371   9.019   9.893   8.700  0.0224 -1.6506  0.3644
  619MOL0     H85372   8.745   9.911   8.664  0.2019 -1.2248  0.9627
  619MOL0     H85373   8.743  10.093   8.694 -0.5564 -0.8459 -1.8641
  619MOL0     H85374   8.575  10.079   8.836  0.7814  2.0227 -2.4123
  619MOL0     H85375   8.520   9.970   8.705  0.2149 -0.2646  0.8644
  619MOL0     H85376   8.604   9.769   8.833 -0.9071 -0.1396 -0.1348
  619MOL0     H85377   8.627   9.881   8.967 -0.2727 -1.5711  0.7390
  619MOL0     H85378   8.368   9.826   8.814  2.9029  1.5031 -3.5880
  619MOL0     H85379   8.416   9.769   8.979  2.3126  0.2774 -0.3306
  619MOL0     H85380   8.225   9.778   9.083  1.1570  0.7150 -1.7675
  619MOL0     H85381   8.070   9.667   9.256  1.5516  0.9178 -1.3431
  619MOL0     H85382   7.950   9.792   9.311 -0.1295  0.4777  3.9604
  619MOL0     H85383   8.086   9.743   9.413  0.2270  2.7106  0.2675
  619MOL0     H85384   7.915  10.214   9.584  1.0755  2.1441 -0.0901
  619MOL0     H85385   7.838  10.306   9.807  0.6461  0.8570 -0.5545
  619MOL0     H85386   7.836  10.443  10.009 -1.4928  0.2497  0.2521
  619MOL0     H85387   7.777  10.282  10.065 -0.3689 -0.3240  1.1652
  619MOL0     H85388   7.757  10.440  10.239 -0.5830 -1.1859 -3.1675
  619MOL0     H85389   7.890  10.329  10.281  2.4993 -0.4010 -2.3517
  619MOL0     H85390   7.931  10.596  10.154 -3.9245  2.3803  3.7369
  619MOL0     H85391   8.067  10.487  10.203  1.2771  2.4602  2.0060
  619MOL0     H85392   8.039  10.652  10.395  1.8456  0.1456 -1.6422
  619MOL0     H85393   7.975  10.491  10.444 -4.1274 -1.1850 -0.6463
  619MOL0     H85394   7.754  10.566  10.407 -0.9074 -0.0613 -0.6585
  619MOL0     H85395   7.833  10.686  10.506 -2.3861  1.6185 -0.0276
  619MOL0     H85396   7.763  10.749  10.202  0.6563  2.2262  0.0071
  619MOL0     H85397   7.865  10.836  10.309  0.9848 -1.2426  1.9508
  619MOL0     H85398   7.622  10.916  10.294 -0.6836  2.4248  1.6416
  619MOL0     H85399   7.688  10.900  10.452 -1.2315 -2.4145  2.7448
  619MOL0     H85400   7.569  10.720  10.514 -0.7746 -0.5658 -0.1514
  619MOL0     H85401   7.539  10.650  10.356  0.1171 -2.6423  3.2015
  619MOL0     H85402   8.208  10.211   9.985 -2.5124  2.1811  2.1527
  619MOL0     H85403   8.286  10.120   9.779  0.6023  1.1352  1.1421
  619MOL0     H85404   8.277  10.178   9.372  2.2478  0.7129 -0.9075
  619MOL0     H85405   8.397  10.162   9.155 -2.3003  2.0392 -1.0467
  619MOL0     H85406   9.858   9.824   9.336  0.6179  0.2036  0.9719
  619MOL0     H85407   9.937   9.935   9.550 -0.6082  0.0919 -1.1382
  619MOL0     H85408   9.914  10.040   9.903 -2.2805 -2.5981  0.6142
  619MOL0     H85409   9.937  10.168  10.106  1.8742  0.5798 -0.1367
  619MOL0     H85410   9.990   9.954  10.483  0.2462  0.0880  3.2569
  619MOL0     H85411  10.148  10.011  10.493 -0.3133 -1.3069  1.6062
  619MOL0     H85412  10.098  10.213  10.601  0.0075  1.1015  1.6522
  619MOL0     H85413  10.005  10.085  10.681 -1.0167  2.6386  0.7510
  619MOL0     H85414   9.876  10.293  10.665  3.9859 -0.6747  1.2762
  619MOL0     H85415   9.908  10.287  10.495  2.2973 -0.0834  0.2400
  619MOL0     H85416   9.752  10.056  10.646 -0.2321 -1.3683 -0.6074
  619MOL0     H85417   9.786  10.059  10.476 -1.0017  0.2381 -0.3977
  619MOL0     H85418   9.443  10.302  10.620  0.1843  0.1331 -1.9593
  619MOL0     H85419  10.129   9.846  10.302  0.0474  1.3449  1.1418
  619MOL0     H85420  10.262   9.684  10.040  0.7772  2.7489  0.6796
  619MOL0     H85421  10.225   9.675  10.204 -1.0447 -0.8624  0.4741
  619MOL0     H85422  10.111   9.604  10.107  0.3487 -0.1190  1.9661
  620MOL0     O85423   0.215  10.551  10.732  0.9318 -0.2232 -0.2540
  620MOL0     C85424   0.279  10.635  10.669  1.1246 -0.0359 -0.6266
  620MOL0     O85425   0.348  10.599  10.550  0.6697 -0.8765  0.9666
  620MOL0     C85426   0.334  10.483  10.481  0.5251 -0.1591 -0.0047
  620MOL0     C85427   0.452  10.434  10.431 -0.4608  0.2102 -0.0115
  620MOL0     C85428   0.455  10.318  10.348 -0.0475  0.7236  0.1554
  620MOL0     C85429   0.330  10.265  10.302 -0.0554 -0.1902  0.7648
  620MOL0     O85430   0.320  10.174  10.197 -0.5994  0.5286 -0.7182
  620MOL0     C85431   0.395  10.212  10.085 -0.1530 -0.3833  0.3542
  620MOL0     C85432   0.345  10.131   9.972 -0.5557 -0.0653 -1.1030
  620MOL0     C85433   0.382   9.980   9.996  0.6331 -0.7130  0.0092
  620MOL0     C85434   0.356   9.912   9.859 -0.3874 -0.3277 -0.1523
  620MOL0     C85435   0.351   9.760   9.856 -0.4320 -0.8522 -0.5111
  620MOL0     C85436   0.301   9.710   9.723  1.0304  0.9430  0.0291
  620MOL0     C85437   0.275   9.562   9.723  0.5293  0.5786  0.5050
  620MOL0     C85438   0.403   9.479   9.689 -0.7706 -0.4426 -0.0201
  620MOL0     N85439   0.367   9.341   9.664  0.0744  0.0211  0.5171
  620MOL0     C85440   0.356   9.269   9.536 -0.5967 -0.6975  0.0443
  620MOL0     C85441   0.318   9.143   9.570 -0.6502 -0.0724 -0.9350
  620MOL0     C85442   0.271   9.032   9.486 -0.9478  0.3406 -1.3666
  620MOL0     C85443   0.363   8.988   9.377  1.4462 -0.5353  0.4010
  620MOL0     C85444   0.264   8.919   9.275 -0.3629 -0.3895  0.2921
  620MOL0     C85445   0.331   8.832   9.175 -0.6145  1.1758 -0.4819
  620MOL0     O85446   0.456   8.881   9.130 -0.6439  0.7558  0.2725
  620MOL0     C85447   0.528   8.780   9.081 -0.2325  0.6507 -0.1762
  620MOL0     C85448   0.639   8.727   9.162 -0.4433  0.1647  1.2543
  620MOL0     C85449   0.710   8.620   9.107 -0.0765 -0.1627 -0.1333
  620MOL0     C85450   0.821   8.578   9.194 -0.9874  0.7587 -0.2200
  620MOL0     C85451   0.678   8.566   8.978 -1.0123 -0.6773 -0.1018
  620MOL0     C85452   0.750   8.456   8.915 -0.3902 -1.2665  0.6951
  620MOL0     O85453   0.691   8.394   8.803 -0.6006  0.1523 -0.2180
  620MOL0     C85454   0.753   8.323   8.702  0.0757 -0.0046  0.5817
  620MOL0     C85455   0.657   8.254   8.631  0.9301  0.3702  0.8764
  620MOL0     C85456   0.703   8.164   8.534 -0.0446  0.3357 -0.4397
  620MOL0     C85457   0.843   8.139   8.510  0.0744  0.9442  0.9369
  620MOL0     O85458   0.892   8.046   8.426  0.1722  0.4544  0.4793
  620MOL0     C85459   0.853   8.057   8.296 -0.4667 -0.0958  0.2438
  620MOL0     C85460   0.902   7.932   8.215  0.6596 -0.3007 -0.9476
  620MOL0     C85461   1.055   7.911   8.231  0.3477 -0.3433 -0.3534
  620MOL0     C85462   1.093   7.763   8.202 -0.0142  0.6315 -0.5223
  620MOL0     C85463   1.102   7.738   8.048  0.1829  0.4974 -0.0246
  620MOL0     C85464   1.244   7.763   8.001  0.0938 -0.2851 -0.2976
  620MOL0     C85465   1.250   7.755   7.846 -0.0338  0.3868  0.2789
  620MOL0     C85466   1.390   7.761   7.781 -0.3958  0.0859  0.4701
  620MOL0    Cl85467   1.397   7.758   7.606 -0.2188  0.0062 -0.0153
  620MOL0     C85468   0.928   8.207   8.588 -0.2933 -0.8679 -0.5061
  620MOL0     C85469   0.887   8.307   8.683 -0.2230  0.4210 -0.4320
  620MOL0     O85470   0.851   8.416   8.964  0.3905  0.4721  0.1795
  620MOL0     C85471   0.567   8.621   8.907  0.5545  0.2465  0.3189
  620MOL0     C85472   0.490   8.722   8.961  0.2308  0.3460 -0.7287
  620MOL0     N85473   0.310   9.132   9.711  0.6148 -0.5581  1.2658
  620MOL0     N85474   0.346   9.244   9.761  0.7139 -0.7418 -0.0216
  620MOL0     C85475   0.208  10.311  10.363 -0.2333 -0.5478 -0.7262
  620MOL0     C85476   0.213  10.415  10.460 -0.2555 -0.2730 -0.3892
  620MOL0     C85477   0.288  10.778  10.712 -0.4230  0.2138 -1.0813
  620MOL0     C85478   0.335  10.863  10.621  0.4328 -0.1463  0.3958
  620MOL0     C85479   0.346  11.004  10.643 -0.3081 -0.2283  0.1680
  620MOL0     C85480   0.310  11.056  10.767 -0.1214 -1.2177  0.2962
  620MOL0     O85481   0.294  11.197  10.772 -0.4875 -0.1442 -0.4323
  620MOL0     C85482   0.264  11.265  10.896  0.2501 -0.1512 -0.3703
  620MOL0     C85483   0.207  11.387  10.830  0.4203 -0.1056 -0.4261
  620MOL0     C85484   0.164  11.481  10.937 -0.8533 -0.2497 -0.0005
  620MOL0     C85485   0.119  11.616  10.878 -0.7456 -0.0040  0.7477
  620MOL0     C85486   0.077  11.707  10.981  1.1673 -0.4909 -0.9267
  620MOL0     C85487   0.053  11.774  11.083 -0.5573 -0.2512 -0.3848
  620MOL0     C85488   0.269  10.966  10.868 -0.7714  1.0674  0.3703
  620MOL0     C85489   0.258  10.827  10.843 -0.4620 -0.8792  0.0380
  620MOL0     C85490   0.220  10.743  10.961  0.6323 -0.1392 -0.2471
  620MOL0     H85491   0.540  10.495  10.452 -0.8504  0.3377  1.3884
  620MOL0     H85492   0.554  10.297  10.310  0.0559  2.5904 -0.7071
  620MOL0     H85493   0.501  10.190  10.102 -0.1670 -3.3252 -2.4070
  620MOL0     H85494   0.373  10.315  10.058 -2.7425 -0.7333  0.8597
  620MOL0     H85495   0.237  10.137   9.986 -0.5294 -1.9165  0.2669
  620MOL0     H85496   0.365  10.166   9.870 -2.6309  0.2657 -1.4430
  620MOL0     H85497   0.488   9.981  10.024  0.4422  0.5231  0.8007
  620MOL0     H85498   0.317   9.937  10.072  0.8230  0.5257  0.9192
  620MOL0     H85499   0.261   9.945   9.815  1.5442  3.7882 -1.7261
  620MOL0     H85500   0.420   9.955   9.782 -1.2513  3.4365  0.9916
  620MOL0     H85501   0.274   9.724   9.924  0.2198 -0.3544  0.5098
  620MOL0     H85502   0.453   9.724   9.873  0.5960  1.3705 -1.5924
  620MOL0     H85503   0.198   9.745   9.705  0.2482 -0.9482  0.5906
  620MOL0     H85504   0.364   9.746   9.642  1.1726  4.1492  1.3947
  620MOL0     H85505   0.194   9.534   9.655 -0.3050 -0.6741  1.9390
  620MOL0     H85506   0.233   9.548   9.823  1.9383 -0.5407  0.9651
  620MOL0     H85507   0.450   9.528   9.603  4.9915 -0.1881  2.7733
  620MOL0     H85508   0.480   9.493   9.766  3.4284 -0.8052 -3.7603
  620MOL0     H85509   0.366   9.302   9.434 -0.3710 -1.1511 -0.0824
  620MOL0     H85510   0.177   9.071   9.445 -0.6368  2.7042 -0.0432
  620MOL0     H85511   0.253   8.942   9.546 -1.1854  0.5318 -1.1437
  620MOL0     H85512   0.411   9.073   9.328 -0.4572  0.2383 -0.2162
  620MOL0     H85513   0.443   8.924   9.416  3.3017  1.3387 -0.1564
  620MOL0     H85514   0.192   8.851   9.321  0.5934 -2.2057 -0.7653
  620MOL0     H85515   0.213   8.995   9.215  1.1017 -0.8486 -1.6454
  620MOL0     H85516   0.332   8.732   9.220 -0.6798  1.0792 -0.6919
  620MOL0     H85517   0.264   8.822   9.089 -0.0533 -3.0255 -0.6461
  620MOL0     H85518   0.667   8.774   9.256 -0.0240  4.2549 -0.6762
  620MOL0     H85519   0.835   8.471   9.208  1.7701  0.7166 -2.3890
  620MOL0     H85520   0.813   8.623   9.294  0.8565  1.0587 -0.1707
  620MOL0     H85521   0.912   8.623   9.154  0.8738 -0.6336  2.1808
  620MOL0     H85522   0.553   8.281   8.643  1.4361  2.7702  0.4297
  620MOL0     H85523   0.629   8.106   8.478 -2.3645  1.2840  1.4511
  620MOL0     H85524   0.746   8.038   8.284 -0.2473 -0.2168 -1.7993
  620MOL0     H85525   0.900   8.137   8.239  3.1453 -2.3154 -0.2487
  620MOL0     H85526   0.843   7.854   8.265 -0.1409  1.4045  0.8765
  620MOL0     H85527   0.869   7.944   8.112 -1.4425  3.1344 -0.0149
  620MOL0     H85528   1.074   7.944   8.334 -2.9326 -0.4622  0.4033
  620MOL0     H85529   1.106   7.977   8.159  0.0556  2.5355  1.8815
  620MOL0     H85530   1.024   7.692   8.248 -2.2417  2.8609 -0.1648
  620MOL0     H85531   1.190   7.740   8.247 -0.4561 -0.6914 -0.2078
  620MOL0     H85532   1.089   7.631   8.029  3.0762 -0.1330  1.0548
  620MOL0     H85533   1.031   7.794   7.986 -1.1995 -0.1161  0.9422
  620MOL0     H85534   1.321   7.706   8.054  1.0657  0.5114 -0.8199
  620MOL0     H85535   1.249   7.870   8.023 -2.0950 -0.6770  2.8060
  620MOL0     H85536   1.187   7.834   7.805 -1.8060 -1.1148 -0.0374
  620MOL0     H85537   1.210   7.660   7.811  0.4135  0.3872 -0.2429
  620MOL0     H85538   1.450   7.680   7.824  0.1751  1.0353  1.5409
  620MOL0     H85539   1.434   7.858   7.807 -2.4879  1.0227  0.6723
  620MOL0     H85540   1.035   8.196   8.572  0.4268  2.8198  0.7969
  620MOL0     H85541   0.959   8.354   8.749 -0.0964 -1.2161  0.6712
  620MOL0     H85542   0.548   8.574   8.811 -0.5611  0.1666  0.5630
  620MOL0     H85543   0.403   8.767   8.915 -1.7539 -0.0276  2.3425
  620MOL0     H85544   0.109  10.276  10.336 -2.3722  1.4533  3.5234
  620MOL0     H85545   0.119  10.458  10.491  1.2826  1.5605  2.0779
  620MOL0     H85546   0.367  10.829  10.523 -0.6718 -0.4759  0.1396
  620MOL0     H85547   0.401  11.062  10.569  2.2889 -1.1650  1.2517
  620MOL0     H85548   0.200  11.200  10.958  0.1412 -0.5782 -0.9204
  620MOL0     H85549   0.350  11.292  10.958 -0.3108 -0.8012  0.7282
  620MOL0     H85550   0.120  11.357  10.771 -1.1985 -0.5137  2.0021
  620MOL0     H85551   0.285  11.431  10.768  1.9902 -0.2845  1.3344
  620MOL0     H85552   0.085  11.456  11.008  1.4044 -1.4626  2.2666
  620MOL0     H85553   0.252  11.495  11.002 -0.6249 -0.1660 -0.3236
  620MOL0     H85554   0.032  11.603  10.813  0.0482  0.2899 -0.4041
  620MOL0     H85555   0.198  11.660  10.815 -0.6730 -1.5956 -0.3222
  620MOL0     H85556   0.041  11.832  11.172  0.0802 -1.9019  0.8061
  620MOL0     H85557   0.229  10.996  10.965 -1.7916 -1.3481  0.7735
  620MOL0     H85558   0.207  10.798  11.055  1.8806 -0.5508  0.1917
  620MOL0     H85559   0.116  10.723  10.937  0.5983  1.5825 -1.7632
  620MOL0     H85560   0.290  10.660  10.977  1.2204  0.5789  1.1269
  621MOL0     O85561   9.965   0.455  11.133  0.0626  0.0438 -0.4018
  621MOL0     C85562  10.035   0.380  11.203  0.5762  0.5006  1.0766
  621MOL0     O85563   9.989   0.322  11.320 -0.7999  0.1801  0.6687
  621MOL0     C85564   9.884   0.365  11.392  0.3866  0.9685  0.7984
  621MOL0     C85565   9.833   0.491  11.397 -0.1873  0.4290 -0.4464
  621MOL0     C85566   9.729   0.526  11.487 -0.1239 -0.1677 -0.5492
  621MOL0     C85567   9.690   0.433  11.584 -0.7765 -0.3316 -0.3318
  621MOL0     O85568   9.601   0.449  11.691 -0.2925 -0.2101 -0.4659
  621MOL0     C85569   9.572   0.585  11.733  0.7471  0.2519 -0.3808
  621MOL0     C85570   9.477   0.597  11.853  0.4571 -0.3621 -0.4655
  621MOL0     C85571   9.455   0.742  11.894  0.3704 -0.8950  0.1406
  621MOL0     C85572   9.574   0.784  11.988 -0.8799  0.1661  0.6165
  621MOL0     C85573   9.549   0.925  12.023 -0.0743 -0.1698  1.2703
  621MOL0     C85574   9.599   1.021  11.922 -0.9479  0.4163  0.4348
  621MOL0     C85575   9.586   1.169  11.947 -0.0620 -0.0869 -1.0605
  621MOL0     C85576   9.449   1.221  11.902 -0.7187 -0.4319 -0.1611
  621MOL0     N85577   9.431   1.246  11.758  0.4912 -0.1647 -0.1240
  621MOL0     C85578   9.413   1.377  11.704  0.5709  0.7168  0.1823
  621MOL0     C85579   9.399   1.351  11.571  0.2529  0.1892 -0.5055
  621MOL0     C85580   9.390   1.451  11.455  0.2498  0.7663 -0.8094
  621MOL0     C85581   9.255   1.502  11.455 -0.0905  0.0151 -0.5912
  621MOL0     C85582   9.221   1.610  11.356  0.1203 -0.5196  0.5141
  621MOL0     C85583   9.070   1.633  11.324  0.1731 -0.4186 -0.0804
  621MOL0     O85584   9.020   1.530  11.228  0.0843 -0.0821 -1.1697
  621MOL0     C85585   8.898   1.540  11.166 -0.6465  0.6318 -0.0022
  621MOL0     C85586   8.790   1.625  11.198 -0.0422  0.6814  0.5850
  621MOL0     C85587   8.660   1.603  11.131 -0.3315 -0.4425 -0.0540
  621MOL0     C85588   8.542   1.685  11.181 -0.3005 -0.1345  0.5503
  621MOL0     C85589   8.651   1.498  11.032  0.4284 -0.2141  0.3641
  621MOL0     C85590   8.530   1.455  10.966 -0.4048 -1.0059 -0.9651
  621MOL0     O85591   8.432   1.554  10.955 -0.0554 -0.1984  0.5989
  621MOL0     C85592   8.319   1.519  10.879  0.0650 -0.5613 -0.2721
  621MOL0     C85593   8.300   1.573  10.752 -0.4037 -0.4656 -0.0824
  621MOL0     C85594   8.187   1.545  10.676  1.0361 -0.7759  0.2230
  621MOL0     C85595   8.084   1.464  10.721  0.0664  0.6460 -0.3019
  621MOL0     O85596   7.970   1.426  10.657 -0.7755  0.2487  0.9572
  621MOL0     C85597   7.912   1.518  10.564 -0.6529  0.4569 -0.8119
  621MOL0     C85598   7.785   1.465  10.500  0.6135 -0.5065 -0.9875
  621MOL0     C85599   7.671   1.438  10.601  0.0798 -0.0565  0.6204
  621MOL0     C85600   7.570   1.556  10.610  0.0619 -0.1477  0.9141
  621MOL0     C85601   7.449   1.504  10.680  0.0836  0.5594 -0.7553
  621MOL0     C85602   7.474   1.497  10.840 -0.0534 -0.3819 -0.0285
  621MOL0     C85603   7.353   1.421  10.896  0.5679  0.4497  0.5674
  621MOL0     C85604   7.370   1.395  11.033 -1.0513 -0.5372 -0.2123
  621MOL0    Cl85605   7.263   1.270  11.099 -0.4424  0.2123  0.3680
  621MOL0     C85606   8.103   1.408  10.855  0.8289 -0.6363  0.4714
  621MOL0     C85607   8.223   1.434  10.923  0.2865  0.6745  0.5153
  621MOL0     O85608   8.529   1.349  10.912  0.3522 -0.0048 -0.5145
  621MOL0     C85609   8.771   1.425  11.005  0.3192  0.9509 -0.8695
  621MOL0     C85610   8.887   1.442  11.079  0.3946  0.7403 -0.0918
  621MOL0     N85611   9.413   1.213  11.549 -0.1194  0.8170  0.0600
  621MOL0     N85612   9.432   1.157  11.656  0.0764  0.9520  0.5414
  621MOL0     C85613   9.735   0.304  11.580  0.2981  1.2515 -0.1100
  621MOL0     C85614   9.830   0.265  11.485  0.5045  0.4105  1.0978
  621MOL0     C85615  10.156   0.317  11.133 -0.0204  0.2662 -0.5037
  621MOL0     C85616  10.179   0.336  10.996  0.0201  0.2434  0.2018
  621MOL0     C85617  10.302   0.316  10.932 -0.3711  0.4904 -0.9301
  621MOL0     C85618  10.412   0.263  11.002 -0.8302 -0.8049  0.1724
  621MOL0     O85619  10.527   0.234  10.925  0.2465 -0.2098 -0.3175
  621MOL0     C85620  10.635   0.152  10.983 -0.3315  0.6588  0.9450
  621MOL0     C85621  10.754   0.169  10.891 -0.2661  0.0546  0.2592
  621MOL0     C85622  10.730   0.110  10.756 -0.3236  0.6394 -0.3465
  621MOL0     C85623  10.812   0.159  10.638 -0.0318  0.9687 -0.3164
  621MOL0     C85624  10.821   0.304  10.625  0.0469  0.0791 -0.1464
  621MOL0     C85625  10.843   0.420  10.600  0.6694 -0.3874  0.0211
  621MOL0     C85626  10.388   0.240  11.139 -0.8377  0.1147  0.3124
  621MOL0     C85627  10.270   0.275  11.207  0.0652 -1.1052 -0.7901
  621MOL0     C85628  10.286   0.288  11.361 -0.6627 -0.0380 -0.1187
  621MOL0     H85629   9.867   0.564  11.324 -0.6442  0.8931 -0.2050
  621MOL0     H85630   9.685   0.625  11.485  2.0240  0.8612 -0.3467
  621MOL0     H85631   9.536   0.642  11.647  1.0022  1.3265  0.2053
  621MOL0     H85632   9.663   0.643  11.746  2.0801 -1.5378 -1.2699
  621MOL0     H85633   9.386   0.542  11.826 -0.0355 -0.9920  2.2085
  621MOL0     H85634   9.519   0.541  11.936  0.8910 -3.9323 -2.8651
  621MOL0     H85635   9.443   0.807  11.806 -0.6943 -1.1049  0.1248
  621MOL0     H85636   9.365   0.761  11.952  0.6862 -1.7042  0.9079
  621MOL0     H85637   9.570   0.727  12.082 -0.7448  0.4637  0.8056
  621MOL0     H85638   9.668   0.764  11.936 -1.9902  2.2766 -2.4821
  621MOL0     H85639   9.577   0.959  12.124 -1.2177 -1.6178  2.1145
  621MOL0     H85640   9.441   0.939  12.027 -0.2082 -1.0582  0.8298
  621MOL0     H85641   9.707   1.003  11.931 -1.1048 -0.6821  0.2607
  621MOL0     H85642   9.575   0.997  11.818 -0.5480  1.1935  0.1530
  621MOL0     H85643   9.662   1.234  11.903 -0.9504  1.6105 -0.1929
  621MOL0     H85644   9.608   1.179  12.054  2.9719 -1.0885 -1.4864
  621MOL0     H85645   9.379   1.145  11.940  0.7260 -2.1842 -0.8419
  621MOL0     H85646   9.440   1.317  11.953 -1.8081 -1.0552  0.8986
  621MOL0     H85647   9.415   1.473  11.754  1.0210  1.5810 -1.4395
  621MOL0     H85648   9.423   1.399  11.365  0.6617 -1.0230  0.3229
  621MOL0     H85649   9.461   1.531  11.477  1.7274 -0.4331 -1.0629
  621MOL0     H85650   9.194   1.412  11.440 -0.8717  0.6837 -1.5079
  621MOL0     H85651   9.233   1.554  11.549 -1.3821  0.0701 -0.9050
  621MOL0     H85652   9.265   1.701  11.398 -1.0602  1.0444 -1.4809
  621MOL0     H85653   9.276   1.609  11.261  1.1028  0.8883  1.0396
  621MOL0     H85654   9.007   1.622  11.413  1.4383  0.6074  0.9706
  621MOL0     H85655   9.055   1.726  11.267 -0.6484 -0.4701  0.0336
  621MOL0     H85656   8.789   1.698  11.278 -4.2258 -2.8808  4.3933
  621MOL0     H85657   8.567   1.731  11.277  0.7346  0.2159  0.1306
  621MOL0     H85658   8.448   1.629  11.176  0.3827 -1.4063 -5.2512
  621MOL0     H85659   8.524   1.772  11.117 -0.4541 -2.1015 -2.2676
  621MOL0     H85660   8.376   1.641  10.716 -1.4522  0.4767 -0.5736
  621MOL0     H85661   8.179   1.590  10.578  1.8077 -1.9704 -0.4090
  621MOL0     H85662   7.890   1.605  10.626  1.2895  0.9067 -0.6889
  621MOL0     H85663   7.986   1.554  10.491  3.7922 -1.3250  2.3828
  621MOL0     H85664   7.739   1.531  10.426 -1.3794  5.0842  4.3919
  621MOL0     H85665   7.809   1.364  10.465  1.7711 -1.7981  3.0389
  621MOL0     H85666   7.696   1.411  10.704  0.4865  1.0377  0.8183
  621MOL0     H85667   7.615   1.351  10.566  0.9574 -0.6039  0.5510
  621MOL0     H85668   7.543   1.591  10.510 -2.0780 -0.4670  1.3159
  621MOL0     H85669   7.609   1.645  10.660  0.3780 -0.7284  1.7360
  621MOL0     H85670   7.372   1.581  10.673 -1.5980 -0.9687 -0.0741
  621MOL0     H85671   7.408   1.409  10.645 -0.6483 -0.6695  2.9218
  621MOL0     H85672   7.459   1.597  10.882 -0.7119 -0.0004 -1.1109
  621MOL0     H85673   7.566   1.443  10.864 -0.9330 -1.1345  1.8346
  621MOL0     H85674   7.331   1.323  10.854  2.7252  0.5959 -1.0477
  621MOL0     H85675   7.261   1.481  10.901 -0.3993 -0.7723 -1.3229
  621MOL0     H85676   7.362   1.487  11.092  1.9241  0.2016 -0.8391
  621MOL0     H85677   7.476   1.379  11.056 -1.1678  1.5498  2.2917
  621MOL0     H85678   8.044   1.343  10.919  1.3919  1.6712  3.5354
  621MOL0     H85679   8.239   1.383  11.018  1.7967  0.2132  0.0405
  621MOL0     H85680   8.776   1.338  10.940  0.2006  0.8143 -0.6948
  621MOL0     H85681   8.962   1.369  11.053 -1.0992 -0.8367 -0.1828
  621MOL0     H85682   9.717   0.233  11.660  2.4171  0.0054 -0.6598
  621MOL0     H85683   9.884   0.171  11.495 -2.7745 -1.9682 -1.2994
  621MOL0     H85684  10.101   0.368  10.928  0.6359 -3.6854 -2.7489
  621MOL0     H85685  10.317   0.330  10.825  0.4763  1.6292 -0.6876
  621MOL0     H85686  10.660   0.184  11.084 -1.6617  1.5566  1.0228
  621MOL0     H85687  10.611   0.045  10.988 -0.3945  0.4932 -1.6131
  621MOL0     H85688  10.839   0.113  10.933  1.3636 -0.0618 -2.8331
  621MOL0     H85689  10.775   0.276  10.885 -0.8670  0.1412 -0.4307
  621MOL0     H85690  10.745   0.002  10.764  0.4491  0.6857 -1.0297
  621MOL0     H85691  10.627   0.140  10.737  0.0528  1.4011 -1.2390
  621MOL0     H85692  10.773   0.116  10.545 -0.3210 -2.9336  1.4027
  621MOL0     H85693  10.914   0.121  10.645 -0.3854 -0.2099 -1.2033
  621MOL0     H85694  10.859   0.524  10.578 -0.6671 -0.0820  0.3997
  621MOL0     H85695  10.475   0.207  11.195 -0.8319  1.0262  0.8542
  621MOL0     H85696  10.228   0.213  11.416  0.1789 -0.2812  0.4774
  621MOL0     H85697  10.389   0.269  11.396 -0.6039 -2.7310 -1.4615
  621MOL0     H85698  10.253   0.384  11.399 -2.2633  0.3882 -2.4012
  622MOL0     O85699   5.904   8.747   7.864  0.5802 -0.3999 -0.1413
  622MOL0     C85700   5.811   8.819   7.876  1.4726 -0.5500  0.3564
  622MOL0     O85701   5.778   8.888   7.984  0.3158 -0.1017  0.4000
  622MOL0     C85702   5.857   8.928   8.087 -0.5316  0.7530 -0.7667
  622MOL0     C85703   5.816   9.039   8.164  0.0055 -0.0401 -0.1892
  622MOL0     C85704   5.885   9.058   8.286 -0.9077 -0.4282 -0.8373
  622MOL0     C85705   5.994   8.984   8.325 -0.2093  0.2281 -0.3361
  622MOL0     O85706   6.066   9.004   8.435 -0.1170 -0.1127  0.0733
  622MOL0     C85707   6.003   8.974   8.569 -1.1864 -0.3002 -1.1550
  622MOL0     C85708   6.108   8.914   8.665  0.3786  0.5099 -0.3315
  622MOL0     C85709   6.148   8.766   8.643  0.5638 -0.5779  0.5151
  622MOL0     C85710   6.039   8.666   8.686  0.0438  0.3315 -0.7619
  622MOL0     C85711   6.073   8.524   8.648  0.3746 -0.3982 -0.4840
  622MOL0     C85712   6.087   8.482   8.508  0.4855 -0.0738  0.4759
  622MOL0     C85713   5.955   8.481   8.425 -0.2108 -0.0953  0.2252
  622MOL0     C85714   5.961   8.391   8.307 -0.3084  0.7005  0.5142
  622MOL0     N85715   5.837   8.383   8.226 -0.5383  1.0744  0.0807
  622MOL0     C85716   5.810   8.445   8.108  0.8017 -0.2231 -0.9266
  622MOL0     C85717   5.681   8.417   8.070  0.7505 -0.0862 -0.2783
  622MOL0     C85718   5.603   8.468   7.957  0.1659 -0.3863 -0.2053
  622MOL0     C85719   5.612   8.389   7.826 -0.2442 -0.7561 -0.6106
  622MOL0     C85720   5.589   8.242   7.838  0.0585 -0.3894 -0.3092
  622MOL0     C85721   5.568   8.165   7.707 -1.1009 -0.3637  0.2980
  622MOL0     O85722   5.442   8.208   7.643  0.4216  0.6630  0.4644
  622MOL0     C85723   5.367   8.121   7.568 -0.0398  0.0546  0.3377
  622MOL0     C85724   5.231   8.142   7.558  0.1336  0.4358 -0.2223
  622MOL0     C85725   5.143   8.061   7.494 -0.1344 -0.3096  0.7774
  622MOL0     C85726   4.998   8.107   7.500 -0.5307  0.0219 -0.3773
  622MOL0     C85727   5.197   7.955   7.421 -0.1944 -0.4019  1.3491
  622MOL0     C85728   5.125   7.842   7.353 -0.4100 -0.2039 -0.2696
  622MOL0     O85729   5.199   7.768   7.267 -0.3393 -0.5247  0.7164
  622MOL0     C85730   5.131   7.710   7.160 -0.8880  0.3007  0.1383
  622MOL0     C85731   5.196   7.595   7.111  0.6658  0.6077  0.9974
  622MOL0     C85732   5.135   7.517   7.012  0.0172  0.3657  0.0503
  622MOL0     C85733   5.020   7.553   6.946  0.5461 -0.2349  0.1304
  622MOL0     O85734   4.974   7.484   6.840 -1.1966  0.2805 -0.0337
  622MOL0     C85735   5.063   7.450   6.730  0.0400 -0.2679  0.0417
  622MOL0     C85736   5.017   7.520   6.608 -0.0717 -0.5926 -0.8602
  622MOL0     C85737   4.860   7.505   6.592 -0.1649 -0.7694 -0.1888
  622MOL0     C85738   4.812   7.356   6.592  0.3761  0.2969  0.2698
  622MOL0     C85739   4.658   7.346   6.639  0.0916  1.2210  0.9010
  622MOL0     C85740   4.635   7.393   6.783 -0.3286  0.0212  0.1258
  622MOL0     C85741   4.516   7.306   6.837  0.0023 -0.2162  0.2402
  622MOL0     C85742   4.488   7.339   6.988  0.1265 -0.6840  0.9659
  622MOL0    Cl85743   4.623   7.313   7.100  0.1030  0.4172  0.1272
  622MOL0     C85744   4.962   7.669   6.995 -0.1886 -0.4290 -0.7893
  622MOL0     C85745   5.016   7.746   7.103  0.5031  0.7538 -0.1348
  622MOL0     O85746   5.006   7.832   7.372 -0.1329 -0.0828  0.5803
  622MOL0     C85747   5.340   7.932   7.420 -0.0334  0.0841 -0.0753
  622MOL0     C85748   5.412   8.017   7.493  0.0786  0.0752 -0.2768
  622MOL0     N85749   5.630   8.337   8.178  0.0403  0.0953 -0.1780
  622MOL0     N85750   5.729   8.305   8.255 -0.0576 -0.3334  0.3248
  622MOL0     C85751   6.043   8.876   8.250 -0.0973 -0.2882 -0.2949
  622MOL0     C85752   5.975   8.858   8.132 -0.5518  0.4009 -0.6374
  622MOL0     C85753   5.714   8.804   7.761 -0.2599  0.0125 -0.3445
  622MOL0     C85754   5.756   8.730   7.646  0.7265 -1.0096 -0.1721
  622MOL0     C85755   5.666   8.709   7.549 -0.1438  1.2993  0.6273
  622MOL0     C85756   5.534   8.741   7.547 -0.5342  0.2400  0.5555
  622MOL0     O85757   5.444   8.715   7.440  0.0196  0.2043 -0.4947
  622MOL0     C85758   5.474   8.607   7.347 -0.0888 -0.4112  0.9294
  622MOL0     C85759   5.354   8.548   7.291  0.7108 -0.3445  0.0604
  622MOL0     C85760   5.246   8.525   7.390  0.2714 -1.7130  0.4124
  622MOL0     C85761   5.128   8.453   7.326  0.1508  0.2974  0.0931
  622MOL0     C85762   5.030   8.437   7.430  0.3158  0.9730 -0.3858
  622MOL0     C85763   4.947   8.431   7.516  0.7686 -0.0010  0.2140
  622MOL0     C85764   5.488   8.808   7.665 -1.1010  0.7519  0.2137
  622MOL0     C85765   5.582   8.842   7.768 -0.2640 -0.2426  0.1807
  622MOL0     C85766   5.520   8.913   7.884 -0.3133  0.0206 -0.6306
  622MOL0     H85767   5.732   9.104   8.142  1.7746  1.8742 -1.7524
  622MOL0     H85768   5.865   9.143   8.349 -1.5959 -1.8842  0.9814
  622MOL0     H85769   5.920   8.903   8.579  1.1547 -2.8547  4.6430
  622MOL0     H85770   5.976   9.071   8.612  2.1340  0.7077 -1.0786
  622MOL0     H85771   6.203   8.968   8.672  0.3657  0.3020  2.1068
  622MOL0     H85772   6.065   8.915   8.766  2.4947 -1.6708  0.6878
  622MOL0     H85773   6.164   8.747   8.536 -3.3455 -0.4448 -0.2176
  622MOL0     H85774   6.243   8.746   8.694  1.0723 -0.0901 -0.2156
  622MOL0     H85775   6.025   8.666   8.794 -0.1046 -1.8893 -0.7268
  622MOL0     H85776   5.937   8.681   8.648 -1.0356 -3.4810  0.1463
  622MOL0     H85777   6.003   8.451   8.690  2.1671 -2.0352 -0.1838
  622MOL0     H85778   6.172   8.507   8.692  0.1268 -1.4713 -0.3143
  622MOL0     H85779   6.168   8.533   8.454 -0.5309 -0.8021 -1.8779
  622MOL0     H85780   6.111   8.375   8.507 -1.3134 -0.5139 -0.9761
  622MOL0     H85781   5.935   8.584   8.392  0.7498 -0.1449 -0.5368
  622MOL0     H85782   5.877   8.443   8.492 -0.5199  2.0418  1.1699
  622MOL0     H85783   6.045   8.430   8.247 -1.1356 -0.4829 -1.5126
  622MOL0     H85784   5.989   8.290   8.338 -0.7958  0.0911 -0.9664
  622MOL0     H85785   5.880   8.513   8.061  2.0251 -2.0261 -1.8402
  622MOL0     H85786   5.650   8.565   7.939  3.4929 -1.2664  2.5447
  622MOL0     H85787   5.498   8.483   7.985 -1.0088 -4.1067 -2.0057
  622MOL0     H85788   5.551   8.436   7.748 -2.9753  0.1959  1.9430
  622MOL0     H85789   5.719   8.394   7.804 -0.0166  1.1867  0.6969
  622MOL0     H85790   5.684   8.205   7.879  0.3396  0.5943 -0.0262
  622MOL0     H85791   5.514   8.205   7.908 -0.3334 -0.0530 -0.5511
  622MOL0     H85792   5.650   8.182   7.636 -1.8283 -2.6933 -1.2013
  622MOL0     H85793   5.570   8.062   7.743  1.5332 -1.3118 -2.1969
  622MOL0     H85794   5.186   8.209   7.631 -1.0136  0.2106 -0.7124
  622MOL0     H85795   4.970   8.156   7.407  1.8558 -1.5798 -2.0784
  622MOL0     H85796   4.976   8.178   7.580  0.4691 -0.9778  0.8262
  622MOL0     H85797   4.932   8.020   7.512  1.2507 -1.1139  2.2364
  622MOL0     H85798   5.284   7.545   7.151  0.0179 -0.4467  1.1492
  622MOL0     H85799   5.180   7.426   6.974  1.4895  1.9198 -2.1340
  622MOL0     H85800   5.167   7.472   6.755 -0.3643 -0.7059  2.2993
  622MOL0     H85801   5.059   7.346   6.697 -1.4238  0.6952 -3.2928
  622MOL0     H85802   5.040   7.627   6.606 -1.5473 -0.2631 -1.8658
  622MOL0     H85803   5.067   7.466   6.527  0.1363 -2.1042  0.2260
  622MOL0     H85804   4.835   7.549   6.494 -0.3366 -0.6592 -0.0954
  622MOL0     H85805   4.800   7.557   6.666  0.7749 -0.7387  0.5624
  622MOL0     H85806   4.871   7.290   6.656  1.7348  1.8774  0.7079
  622MOL0     H85807   4.801   7.329   6.486 -1.1083  0.9368  0.2405
  622MOL0     H85808   4.600   7.399   6.562  2.1406 -0.3309 -1.8870
  622MOL0     H85809   4.633   7.240   6.629  2.7787  0.3915  2.0854
  622MOL0     H85810   4.615   7.499   6.800 -0.2255 -0.0437  0.6685
  622MOL0     H85811   4.728   7.360   6.831  0.4646  0.9241 -0.7432
  622MOL0     H85812   4.530   7.199   6.819  3.2833  0.1696 -0.1792
  622MOL0     H85813   4.431   7.336   6.776 -0.0344 -1.2310 -0.2288
  622MOL0     H85814   4.400   7.279   7.013 -2.3313  3.2382  2.6167
  622MOL0     H85815   4.462   7.445   6.995  1.1189 -0.4191  0.7420
  622MOL0     H85816   4.866   7.708   6.964 -0.3038  2.0452  2.1697
  622MOL0     H85817   4.966   7.841   7.120 -1.1753  0.1491 -1.4613
  622MOL0     H85818   5.389   7.852   7.365  2.4850 -1.0132  3.3605
  622MOL0     H85819   5.519   7.998   7.495  0.7232  2.9868  2.6827
  622MOL0     H85820   6.125   8.827   8.301  0.5094  1.3574  0.3888
  622MOL0     H85821   5.991   8.766   8.077  0.6568  0.9399 -1.2063
  622MOL0     H85822   5.853   8.683   7.629  0.8614 -0.6498 -0.4302
  622MOL0     H85823   5.711   8.654   7.467  1.6493  0.4477  2.1093
  622MOL0     H85824   5.537   8.639   7.264 -1.2682 -0.6101 -0.0857
  622MOL0     H85825   5.525   8.524   7.397  4.0500  1.1206 -0.4055
  622MOL0     H85826   5.383   8.460   7.232  0.8405  0.6674 -1.4508
  622MOL0     H85827   5.319   8.624   7.220  2.2219 -1.3105 -1.8255
  622MOL0     H85828   5.279   8.460   7.472  2.9594 -0.0443  0.7626
  622MOL0     H85829   5.209   8.620   7.430 -0.2494 -3.6911  5.3468
  622MOL0     H85830   5.156   8.349   7.309  0.3965  0.3279  0.3069
  622MOL0     H85831   5.093   8.509   7.239  2.5276 -2.9569 -3.2742
  622MOL0     H85832   4.857   8.420   7.574  2.0351  1.1663  2.5242
  622MOL0     H85833   5.384   8.834   7.681 -0.2062  3.2732  2.9816
  622MOL0     H85834   5.413   8.925   7.865 -0.7291 -1.4721  0.5671
  622MOL0     H85835   5.533   8.838   7.963  1.9771  0.2068 -0.7788
  622MOL0     H85836   5.574   9.007   7.899  0.6117 -0.4574 -0.8791
  623MOL0     O85837   6.225   9.004   5.336  0.4109  0.1948  0.1960
  623MOL0     C85838   6.186   9.117   5.336 -0.5305  0.7452 -0.4372
  623MOL0     O85839   6.064   9.162   5.365 -0.6486  0.6959 -0.5682
  623MOL0     C85840   5.971   9.064   5.400  0.4214 -0.4053 -0.9111
  623MOL0     C85841   5.898   9.074   5.520 -1.0105  0.4914  0.6667
  623MOL0     C85842   5.801   8.978   5.552  0.2465 -0.1706  0.4270
  623MOL0     C85843   5.777   8.865   5.463  0.8992  0.6792 -0.5524
  623MOL0     O85844   5.682   8.767   5.480  0.5925  0.4215 -0.0160
  623MOL0     C85845   5.621   8.753   5.603 -0.3828 -0.2466 -0.6422
  623MOL0     C85846   5.531   8.621   5.599 -0.6921 -0.1211 -0.8922
  623MOL0     C85847   5.439   8.619   5.480  0.3420 -0.7152  0.1877
  623MOL0     C85848   5.328   8.732   5.499 -0.2146  0.6880 -0.0287
  623MOL0     C85849   5.276   8.768   5.367 -0.1542  0.6129  0.3065
  623MOL0     C85850   5.186   8.894   5.365 -0.5568 -0.0043 -0.2345
  623MOL0     C85851   5.146   8.915   5.222 -0.6321  0.2444 -0.0367
  623MOL0     C85852   5.008   8.989   5.203 -0.5301  0.6500  1.0949
  623MOL0     N85853   5.006   9.134   5.235 -0.1801  1.0666  0.0938
  623MOL0     C85854   4.963   9.175   5.360 -0.9174  0.3209 -0.8814
  623MOL0     C85855   4.959   9.311   5.346 -0.7235 -0.1708 -0.1669
  623MOL0     C85856   4.932   9.401   5.463  0.8335  0.3738 -0.7794
  623MOL0     C85857   4.901   9.542   5.421  0.4187  0.5145  0.3368
  623MOL0     C85858   4.820   9.606   5.537 -0.7534 -0.6106 -0.1299
  623MOL0     C85859   4.835   9.751   5.507  0.2762 -0.3240  0.6987
  623MOL0     O85860   4.776   9.833   5.614 -0.2100 -0.3720 -0.0415
  623MOL0     C85861   4.747   9.953   5.574  0.0614 -0.3910  0.0642
  623MOL0     C85862   4.623   9.984   5.519 -0.5590 -0.7271 -0.3214
  623MOL0     C85863   4.599  10.109   5.479  0.1018 -0.7962  0.0594
  623MOL0     C85864   4.475  10.123   5.392  0.0121  0.7379 -0.2778
  623MOL0     C85865   4.706  10.210   5.477 -0.6783 -0.5066  1.3842
  623MOL0     C85866   4.688  10.332   5.405  0.4646  0.0313 -0.2162
  623MOL0     O85867   4.794  10.379   5.331  0.2951 -0.9667 -0.1000
  623MOL0     C85868   4.778  10.519   5.315  0.0027  0.0151  0.1884
  623MOL0     C85869   4.850  10.598   5.406  0.4743  0.4331  0.2985
  623MOL0     C85870   4.843  10.741   5.399  0.6272  1.0633  0.0583
  623MOL0     C85871   4.755  10.806   5.314  0.2036  0.1761  0.1293
  623MOL0     O85872   4.767  10.944   5.308 -0.3622 -0.5051 -0.3720
  623MOL0     C85873   4.690  11.021   5.211 -0.4809 -0.0157 -0.1433
  623MOL0     C85874   4.691  11.170   5.256 -0.2169  0.3605  1.0988
  623MOL0     C85875   4.592  11.244   5.165  0.7685  0.6755 -0.5276
  623MOL0     C85876   4.588  11.382   5.230  1.0921  0.4127  1.0839
  623MOL0     C85877   4.464  11.450   5.168  0.1462 -0.0080  0.7557
  623MOL0     C85878   4.331  11.412   5.244  0.0635 -0.7423 -0.5635
  623MOL0     C85879   4.214  11.480   5.176 -0.7723 -0.4180  0.3663
  623MOL0     C85880   4.083  11.400   5.182  1.4044 -0.8222 -0.0131
  623MOL0    Cl85881   3.999  11.399   5.340  0.0163 -0.2245 -0.1033
  623MOL0     C85882   4.688  10.727   5.218  0.3623  0.3038 -1.1984
  623MOL0     C85883   4.693  10.583   5.230  0.6002  0.4046  0.6344
  623MOL0     O85884   4.579  10.392   5.418  0.0677 -0.3092 -0.5626
  623MOL0     C85885   4.817  10.182   5.557 -0.7160 -0.9491  0.0086
  623MOL0     C85886   4.837  10.053   5.600 -0.0788  1.1101  0.3783
  623MOL0     N85887   4.977   9.350   5.213 -0.4419 -0.2740 -0.1474
  623MOL0     N85888   5.012   9.238   5.151 -1.3104  0.0599  0.8561
  623MOL0     C85889   5.849   8.858   5.346  0.0141  1.1414  0.5372
  623MOL0     C85890   5.939   8.960   5.313  0.5031  0.3954 -0.2692
  623MOL0     C85891   6.280   9.216   5.279 -0.9352  1.2270  0.0193
  623MOL0     C85892   6.238   9.351   5.273 -0.0281 -0.1659 -0.5958
  623MOL0     C85893   6.323   9.449   5.229 -0.5051  0.4781  0.3646
  623MOL0     C85894   6.451   9.414   5.180  0.6974  0.1362 -0.2200
  623MOL0     O85895   6.529   9.515   5.117  0.3430  0.0130  0.1886
  623MOL0     C85896   6.531   9.499   4.973 -0.3972 -0.6223 -0.5854
  623MOL0     C85897   6.658   9.558   4.907  0.0770 -0.6788  0.2638
  623MOL0     C85898   6.782   9.475   4.949  0.3736  0.1076  0.1632
  623MOL0     C85899   6.909   9.508   4.869 -0.5003 -0.3407 -0.1697
  623MOL0     C85900   7.028   9.564   4.947 -0.5707 -0.2580  0.1104
  623MOL0     C85901   7.125   9.624   5.002 -0.6037 -0.4504  0.0675
  623MOL0     C85902   6.496   9.283   5.196 -0.2165 -0.4522 -0.5258
  623MOL0     C85903   6.415   9.182   5.240  0.1625 -0.1651  0.4020
  623MOL0     C85904   6.472   9.044   5.236 -0.0331 -0.0449 -0.0710
  623MOL0     H85905   5.924   9.155   5.588  0.7782 -0.0368  0.6669
  623MOL0     H85906   5.747   8.969   5.646 -0.5243 -3.5770 -0.1888
  623MOL0     H85907   5.552   8.834   5.630  5.0718  4.2448  2.0075
  623MOL0     H85908   5.688   8.743   5.689 -3.0467 -4.0175  1.2761
  623MOL0     H85909   5.592   8.530   5.594 -0.2848 -0.2429  3.2533
  623MOL0     H85910   5.479   8.609   5.694  2.6196  0.8952  1.2048
  623MOL0     H85911   5.485   8.644   5.384 -2.5998  2.4831 -0.6157
  623MOL0     H85912   5.394   8.519   5.473 -0.6081 -0.4112  1.4136
  623MOL0     H85913   5.252   8.691   5.568  1.4473  0.7361  1.9155
  623MOL0     H85914   5.362   8.828   5.537 -1.2448  1.3963 -0.8431
  623MOL0     H85915   5.229   8.691   5.305 -1.8996  3.0221 -1.5469
  623MOL0     H85916   5.363   8.787   5.303  1.0323 -1.5582  1.1685
  623MOL0     H85917   5.105   8.881   5.436 -1.2781 -2.3741 -1.3959
  623MOL0     H85918   5.234   8.987   5.398 -4.0228  0.7992  3.3628
  623MOL0     H85919   5.132   8.819   5.172  2.6255 -0.5076  0.2814
  623MOL0     H85920   5.214   8.974   5.160  0.1905 -2.3978 -1.7818
  623MOL0     H85921   4.994   8.974   5.096 -0.6010 -1.8238  1.4066
  623MOL0     H85922   4.933   8.929   5.256  1.3915 -2.3584  0.6505
  623MOL0     H85923   4.948   9.112   5.447 -1.5062 -2.6399 -2.9820
  623MOL0     H85924   5.023   9.424   5.519 -0.2168  1.7881  0.4088
  623MOL0     H85925   4.863   9.366   5.540 -0.1239 -2.8620 -2.9155
  623MOL0     H85926   4.991   9.597   5.390  0.0888  1.4234  0.9350
  623MOL0     H85927   4.833   9.542   5.335 -1.7444  1.2826  1.9560
  623MOL0     H85928   4.716   9.573   5.533 -1.2813  1.0716 -1.5841
  623MOL0     H85929   4.860   9.586   5.637 -1.9926 -0.8671  0.3353
  623MOL0     H85930   4.940   9.779   5.495  0.3963 -0.3348  1.6210
  623MOL0     H85931   4.797   9.786   5.411 -1.8839 -0.3180  1.4958
  623MOL0     H85932   4.547   9.908   5.512 -1.4849  0.1282  0.1281
  623MOL0     H85933   4.501  10.117   5.286 -0.6235 -0.3283 -0.3919
  623MOL0     H85934   4.416  10.209   5.425 -0.9630 -1.1370  3.4829
  623MOL0     H85935   4.408  10.041   5.419  1.0973 -0.6283 -1.5745
  623MOL0     H85936   4.912  10.551   5.481  1.6360 -1.9019 -2.0018
  623MOL0     H85937   4.913  10.800   5.456 -0.4448  0.1148  2.4879
  623MOL0     H85938   4.736  11.014   5.113 -2.0115 -5.4234 -0.8259
  623MOL0     H85939   4.584  10.993   5.219 -0.1448 -1.0018  1.6115
  623MOL0     H85940   4.670  11.161   5.363  0.8008 -1.6234  1.1738
  623MOL0     H85941   4.792  11.210   5.240 -0.0515  0.2485  1.8237
  623MOL0     H85942   4.495  11.193   5.158  1.9734 -1.5404 -2.5108
  623MOL0     H85943   4.629  11.243   5.063  2.8617  2.6863  0.1447
  623MOL0     H85944   4.669  11.452   5.211  0.6937  0.6745  0.2778
  623MOL0     H85945   4.586  11.372   5.339 -3.5005 -3.8993  0.9832
  623MOL0     H85946   4.495  11.555   5.171  2.8173 -0.5332 -2.9607
  623MOL0     H85947   4.452  11.437   5.060 -2.5748 -0.7135  1.0729
  623MOL0     H85948   4.336  11.430   5.352  1.3843  4.7444 -1.2109
  623MOL0     H85949   4.327  11.303   5.238  3.9635 -1.0117 -1.1188
  623MOL0     H85950   4.236  11.493   5.069 -0.6820  2.2826  0.6546
  623MOL0     H85951   4.194  11.581   5.212 -0.1933 -0.8577  1.9829
  623MOL0     H85952   4.109  11.298   5.152 -1.7598 -2.1507  1.3616
  623MOL0     H85953   4.012  11.443   5.111  2.1151  0.7326  0.1749
  623MOL0     H85954   4.631  10.773   5.138 -0.7807  1.5828  0.2865
  623MOL0     H85955   4.627  10.517   5.174 -0.8021  1.1317  1.3661
  623MOL0     H85956   4.880  10.265   5.586 -2.4651 -0.2211  2.0101
  623MOL0     H85957   4.935  10.031   5.640  1.4742  1.0967 -3.0629
  623MOL0     H85958   5.820   8.778   5.278  3.5543  1.1948 -1.2499
  623MOL0     H85959   5.986   8.959   5.215  0.9383 -1.4186 -0.0821
  623MOL0     H85960   6.137   9.380   5.296 -0.7200 -0.9451 -2.4629
  623MOL0     H85961   6.301   9.555   5.219  2.0251  1.0307 -0.1843
  623MOL0     H85962   6.520   9.393   4.950 -0.8514 -0.4573 -1.1618
  623MOL0     H85963   6.447   9.559   4.935 -0.2067 -0.7792 -1.2611
  623MOL0     H85964   6.684   9.661   4.935  2.8738 -1.6488  1.4879
  623MOL0     H85965   6.647   9.554   4.798  3.0770  2.4129 -0.3174
  623MOL0     H85966   6.802   9.478   5.057 -0.5919  1.3702  0.3187
  623MOL0     H85967   6.754   9.369   4.940 -1.5802  0.5873  0.2117
  623MOL0     H85968   6.872   9.568   4.785 -5.4849 -1.2784  1.0603
  623MOL0     H85969   6.947   9.420   4.817 -0.2051 -1.0194  1.1306
  623MOL0     H85970   7.208   9.680   5.039 -1.6909  1.8386 -0.7863
  623MOL0     H85971   6.591   9.253   5.154 -0.7621 -3.6073  0.2395
  623MOL0     H85972   6.573   9.061   5.198  0.1662  1.3503  1.0190
  623MOL0     H85973   6.483   8.993   5.332  0.5324 -3.0441 -1.5935
  623MOL0     H85974   6.405   8.989   5.169  0.0849 -0.0512 -0.1838
  624MOL0     O85975   1.035  10.822   9.896 -0.3409 -0.0161  0.1314
  624MOL0     C85976   1.128  10.807   9.971 -0.4787 -0.9102 -0.4720
  624MOL0     O85977   1.264  10.827   9.936  0.6037 -0.5770 -0.0416
  624MOL0     C85978   1.297  10.905   9.825 -0.1674 -0.2131  0.2337
  624MOL0     C85979   1.391  11.004   9.848  0.5709 -0.0142  0.6671
  624MOL0     C85980   1.439  11.085   9.740  0.7197  0.1367  0.7249
  624MOL0     C85981   1.384  11.057   9.610 -0.1655  0.7017 -1.3316
  624MOL0     O85982   1.435  11.125   9.511  0.1362 -0.5286  0.4850
  624MOL0     C85983   1.426  11.269   9.521 -0.5987  0.6207  0.4514
  624MOL0     C85984   1.455  11.330   9.380 -0.4711 -0.1836 -0.2324
  624MOL0     C85985   1.598  11.299   9.336 -0.1833 -0.0598 -0.2779
  624MOL0     C85986   1.628  11.374   9.206  0.5561  0.3338 -0.2730
  624MOL0     C85987   1.782  11.380   9.193 -0.1743 -0.6196  0.2285
  624MOL0     C85988   1.860  11.495   9.272  0.1767 -0.7697 -0.6018
  624MOL0     C85989   1.833  11.642   9.223  0.0816 -0.0186 -0.1135
  624MOL0     C85990   1.869  11.738   9.337 -0.8173 -0.0232  0.0974
  624MOL0     N85991   2.014  11.733   9.379  0.2462  0.0355  0.5848
  624MOL0     C85992   2.117  11.782   9.293  0.3779  0.4576  0.5504
  624MOL0     C85993   2.223  11.697   9.325 -0.0238  0.2442  0.5015
  624MOL0     C85994   2.361  11.692   9.259  0.6510 -0.8308 -0.1645
  624MOL0     C85995   2.455  11.765   9.346 -0.2188  0.5486  0.0929
  624MOL0     C85996   2.601  11.727   9.343  0.3230  0.0470  0.5020
  624MOL0     C85997   2.691  11.837   9.387  0.4954  0.3126 -0.0656
  624MOL0     O85998   2.662  11.867   9.525  1.1865  0.5635 -0.5606
  624MOL0     C85999   2.764  11.843   9.614  0.3358  0.8061  0.6757
  624MOL0     C86000   2.826  11.716   9.616 -0.1371  0.5969  0.4258
  624MOL0     C86001   2.923  11.679   9.713 -0.6452 -0.1617 -0.2446
  624MOL0     C86002   2.997  11.548   9.706  0.7111  0.3438 -0.6069
  624MOL0     C86003   2.954  11.769   9.819 -0.2920 -0.2595  0.1117
  624MOL0     C86004   3.043  11.750   9.938  0.1630  0.1374 -0.8089
  624MOL0     O86005   3.090  11.864  10.008 -0.2897  0.3690  0.8436
  624MOL0     C86006   3.122  11.842  10.143 -0.6599  0.5153  0.2237
  624MOL0     C86007   3.252  11.853  10.194 -0.0051  0.0166 -0.1802
  624MOL0     C86008   3.274  11.830  10.331  0.2555 -0.0633 -0.0933
  624MOL0     C86009   3.172  11.811  10.423  0.0803 -0.5579 -0.2636
  624MOL0     O86010   3.182  11.784  10.553 -0.4927  0.5579 -0.1225
  624MOL0     C86011   3.311  11.792  10.617  0.1595 -0.6506  0.2525
  624MOL0     C86012   3.373  11.655  10.622  0.4585  0.7486  0.3138
  624MOL0     C86013   3.470  11.626  10.731  0.2086 -0.9518  0.1504
  624MOL0     C86014   3.403  11.634  10.869 -0.5952  0.3494 -0.7435
  624MOL0     C86015   3.504  11.571  10.977 -0.9021 -0.3110  0.0064
  624MOL0     C86016   3.482  11.636  11.119  0.9647  0.0255  0.7039
  624MOL0     C86017   3.541  11.541  11.231  0.0211  0.4110 -0.2439
  624MOL0     C86018   3.562  11.601  11.365  0.8370 -0.8338  0.0938
  624MOL0    Cl86019   3.413  11.674  11.425 -0.0075 -0.3081  0.4547
  624MOL0     C86020   3.040  11.806  10.370 -0.0170  0.7173  0.6224
  624MOL0     C86021   3.023  11.840  10.236 -0.3749 -1.3152 -0.4598
  624MOL0     O86022   3.066  11.632   9.972 -0.3954 -0.3566  0.2181
  624MOL0     C86023   2.891  11.896   9.811 -0.4977 -0.3312  0.3544
  624MOL0     C86024   2.808  11.940   9.700  0.1483  0.5105  0.0762
  624MOL0     N86025   2.193  11.618   9.435 -0.4426  0.2886  0.2377
  624MOL0     N86026   2.072  11.636   9.458  0.0741  1.1771  0.5038
  624MOL0     C86027   1.300  10.949   9.586 -0.4207 -0.9351  0.3809
  624MOL0     C86028   1.251  10.878   9.696 -0.3837 -0.3716  1.3023
  624MOL0     C86029   1.094  10.761  10.100 -0.5572  0.0808  0.5309
  624MOL0     C86030   1.059  10.852  10.200  0.3830  0.0548  0.0569
  624MOL0     C86031   1.004  10.809  10.318  0.4968 -0.0139  1.0845
  624MOL0     C86032   0.992  10.672  10.345 -0.3306 -0.3645 -1.3149
  624MOL0     O86033   0.941  10.623  10.471  0.1694  0.4504 -0.7412
  624MOL0     C86034   0.830  10.695  10.523 -0.0329  0.1670  0.5498
  624MOL0     C86035   0.785  10.633  10.654  0.1073 -0.3909 -0.2185
  624MOL0     C86036   0.659  10.689  10.720  0.0724 -0.4162  0.7859
  624MOL0     C86037   0.676  10.824  10.795  0.0688 -0.2943 -0.0785
  624MOL0     C86038   0.691  10.935  10.713 -0.3055 -1.0196  0.6897
  624MOL0     C86039   0.707  11.031  10.642 -0.1384 -0.0660  0.3189
  624MOL0     C86040   1.048  10.578  10.259 -0.4826  0.4024  0.5046
  624MOL0     C86041   1.099  10.616  10.138 -0.8337  0.3641  0.0586
  624MOL0     C86042   1.171  10.519  10.048 -0.6115 -0.0409 -0.5196
  624MOL0     H86043   1.424  11.003   9.951 -1.6094 -0.0852  1.4028
  624MOL0     H86044   1.514  11.160   9.767 -0.6591  1.4133  1.1808
  624MOL0     H86045   1.491  11.310   9.598 -0.9797  0.3486  0.9300
  624MOL0     H86046   1.325  11.302   9.547 -1.2726  1.5224 -2.9038
  624MOL0     H86047   1.386  11.286   9.308 -0.9848 -1.5917  1.0726
  624MOL0     H86048   1.437  11.438   9.380  0.7326  0.0439 -1.4036
  624MOL0     H86049   1.668  11.323   9.416 -2.6720  3.1333  1.1849
  624MOL0     H86050   1.602  11.191   9.317  6.5060 -0.0650 -1.1745
  624MOL0     H86051   1.577  11.325   9.123  1.5698  0.8491 -1.2310
  624MOL0     H86052   1.585  11.474   9.216 -4.5115 -1.2241 -3.1416
  624MOL0     H86053   1.800  11.409   9.088 -2.8222  1.2355  0.1912
  624MOL0     H86054   1.822  11.280   9.207  0.7978 -0.0648  1.5877
  624MOL0     H86055   1.835  11.489   9.378 -1.0000 -0.3957 -0.8414
  624MOL0     H86056   1.969  11.484   9.273  0.2078 -1.1972 -2.9577
  624MOL0     H86057   1.724  11.649   9.222  0.1832  2.0295 -0.6875
  624MOL0     H86058   1.876  11.663   9.125 -2.9058 -0.0796 -1.5431
  624MOL0     H86059   1.849  11.843   9.313 -1.3398 -0.2181 -0.3349
  624MOL0     H86060   1.810  11.709   9.424 -0.3063  2.0584  1.2102
  624MOL0     H86061   2.107  11.847   9.206 -0.2856 -0.8493 -0.3884
  624MOL0     H86062   2.355  11.734   9.158 -0.5355 -1.8599 -0.5511
  624MOL0     H86063   2.381  11.585   9.261 -2.3330 -1.5042 -1.1904
  624MOL0     H86064   2.443  11.873   9.330 -0.3906  0.5611  0.2840
  624MOL0     H86065   2.418  11.746   9.448 -1.3886 -0.1600 -0.4489
  624MOL0     H86066   2.616  11.633   9.397 -0.5203  0.9546  2.4042
  624MOL0     H86067   2.633  11.716   9.239 -1.7656  1.3932 -0.3475
  624MOL0     H86068   2.794  11.806   9.365 -0.2327 -1.0792 -1.7566
  624MOL0     H86069   2.664  11.912   9.312 -1.6257 -0.8480 -0.5469
  624MOL0     H86070   2.801  11.641   9.541 -1.1384 -1.6008  2.8095
  624MOL0     H86071   3.100  11.559   9.743 -0.2539  0.0577  2.4438
  624MOL0     H86072   3.013  11.520   9.601  3.9306  0.7532 -0.3390
  624MOL0     H86073   2.947  11.458   9.744 -0.6762 -0.5076 -4.0212
  624MOL0     H86074   3.331  11.870  10.123 -1.8925  1.9422 -1.9586
  624MOL0     H86075   3.375  11.837  10.370 -0.3578  1.8905  1.2763
  624MOL0     H86076   3.384  11.862  10.575  2.5654 -3.2570 -0.2029
  624MOL0     H86077   3.290  11.840  10.713 -0.4408  0.7117 -0.5281
  624MOL0     H86078   3.292  11.582  10.630  0.9455  0.3255  1.5793
  624MOL0     H86079   3.415  11.635  10.523 -1.4213 -0.7165 -0.2573
  624MOL0     H86080   3.547  11.703  10.721  1.0588 -1.1910  3.6109
  624MOL0     H86081   3.512  11.526  10.727  0.1706 -0.9354 -3.1893
  624MOL0     H86082   3.313  11.573  10.861 -0.0504 -0.6853  0.5737
  624MOL0     H86083   3.383  11.740  10.887  0.0936  0.1187  1.6492
  624MOL0     H86084   3.490  11.463  10.993  0.8085 -0.3959  1.1830
  624MOL0     H86085   3.609  11.565  10.946 -0.6034 -1.1475  1.0910
  624MOL0     H86086   3.374  11.644  11.133  0.5128 -1.6904 -1.2499
  624MOL0     H86087   3.525  11.735  11.105 -0.8148  0.6219 -0.9217
  624MOL0     H86088   3.639  11.506  11.197  0.2639 -1.1256  1.8402
  624MOL0     H86089   3.472  11.456  11.229  0.9205 -0.3276 -0.7525
  624MOL0     H86090   3.640  11.677  11.358 -0.6451  0.6732 -0.9679
  624MOL0     H86091   3.577  11.525  11.442  0.7467 -0.5484  0.3993
  624MOL0     H86092   2.949  11.790  10.427  0.2783  2.4940  1.6449
  624MOL0     H86093   2.923  11.853  10.195 -0.2477 -4.2167 -1.9891
  624MOL0     H86094   2.912  11.969   9.888 -2.0080  0.1088  0.3870
  624MOL0     H86095   2.769  12.041   9.695 -0.9388  0.0677 -1.1528
  624MOL0     H86096   1.259  10.924   9.488  2.8251 -0.0853 -1.3173
  624MOL0     H86097   1.189  10.790   9.691  1.9875 -2.4084  4.1855
  624MOL0     H86098   1.069  10.959  10.186 -1.8071  0.5160  1.5886
  624MOL0     H86099   0.965  10.886  10.384  0.6518 -0.5537  1.8152
  624MOL0     H86100   0.861  10.799  10.543  1.1379 -0.5858  3.0272
  624MOL0     H86101   0.747  10.687  10.452  2.1489  0.3725 -2.2040
  624MOL0     H86102   0.871  10.634  10.722  0.1106 -3.2391 -0.0283
  624MOL0     H86103   0.777  10.524  10.641 -0.9629 -0.3456  0.0491
  624MOL0     H86104   0.573  10.694  10.652 -0.6805  0.4647  1.7659
  624MOL0     H86105   0.632  10.620  10.801 -0.8648 -3.0513 -1.6215
  624MOL0     H86106   0.767  10.808  10.853 -1.0315 -1.5351  1.3965
  624MOL0     H86107   0.590  10.837  10.862  0.3077  1.3141 -0.0476
  624MOL0     H86108   0.739  11.123  10.599  0.0289 -0.5748 -0.6879
  624MOL0     H86109   1.067  10.482  10.307  3.5556 -0.1963 -1.8194
  624MOL0     H86110   1.238  10.454  10.105 -0.1789  1.0445  0.2436
  624MOL0     H86111   1.102  10.474   9.976 -0.8860  4.5447 -3.4962
  624MOL0     H86112   1.231  10.569   9.972 -0.6841  0.7330 -0.0768
  625MOL0     O86113   0.668   1.282   3.041 -0.3780 -0.7584  0.4479
  625MOL0     C86114   0.705   1.173   3.081 -0.6025 -0.0553  0.2618
  625MOL0     O86115   0.751   1.153   3.211 -0.4332 -0.0919  0.0953
  625MOL0     C86116   0.747   1.256   3.295 -0.8631 -0.8181 -0.1505
  625MOL0     C86117   0.635   1.324   3.349 -0.3204  0.0844 -0.0035
  625MOL0     C86118   0.655   1.437   3.428  0.7321 -0.4550 -0.7303
  625MOL0     C86119   0.782   1.469   3.468  0.1436  1.0900  0.1212
  625MOL0     O86120   0.789   1.560   3.563 -0.0973 -0.3452 -0.9452
  625MOL0     C86121   0.884   1.674   3.551 -0.6473  0.6638  0.5898
  625MOL0     C86122   0.833   1.784   3.641 -0.6098  0.7684  0.1301
  625MOL0     C86123   0.894   1.917   3.599 -1.0900 -0.0722  0.0224
  625MOL0     C86124   0.819   2.031   3.652 -0.3119  0.4646 -1.1077
  625MOL0     C86125   0.911   2.167   3.662  0.5487  0.8770 -1.0650
  625MOL0     C86126   1.045   2.155   3.736  0.2850  0.4205  0.6323
  625MOL0     C86127   1.116   2.285   3.730 -0.8403  0.0146 -0.2252
  625MOL0     C86128   1.252   2.298   3.795 -0.3628 -0.0663  0.0967
  625MOL0     N86129   1.353   2.205   3.747  0.2160 -0.2686 -0.4159
  625MOL0     C86130   1.421   2.113   3.819 -0.0510  0.2847  0.2940
  625MOL0     C86131   1.532   2.066   3.747  0.7533  0.0882  1.3347
  625MOL0     C86132   1.631   1.968   3.770  0.0888  0.8156 -0.0436
  625MOL0     C86133   1.674   1.970   3.914 -0.3622 -0.5846  0.6394
  625MOL0     C86134   1.813   1.902   3.922 -0.6309 -0.2814 -0.3898
  625MOL0     C86135   1.856   1.859   4.060 -0.2381  0.9950 -1.0983
  625MOL0     O86136   1.770   1.747   4.110  0.5531 -0.3513  0.6359
  625MOL0     C86137   1.803   1.683   4.227  0.6417 -0.0512 -0.2403
  625MOL0     C86138   1.737   1.561   4.256  0.7702  0.1072 -0.4084
  625MOL0     C86139   1.766   1.481   4.366  0.4402  0.8015 -0.0349
  625MOL0     C86140   1.695   1.347   4.368  0.1656 -0.1301  1.0306
  625MOL0     C86141   1.863   1.527   4.458 -0.8454 -0.4488  0.7478
  625MOL0     C86142   1.906   1.453   4.581  0.8111 -0.4727  0.2725
  625MOL0     O86143   2.021   1.485   4.650  0.1529  0.3240 -0.0454
  625MOL0     C86144   2.067   1.394   4.739  0.0538  1.3283  0.3002
  625MOL0     C86145   1.995   1.337   4.852 -0.3923  0.3555  0.4036
  625MOL0     C86146   2.057   1.253   4.942  0.8732  0.0600  0.0572
  625MOL0     C86147   2.193   1.214   4.925  0.1344  0.5619 -0.3554
  625MOL0     O86148   2.266   1.133   5.012 -0.0808 -0.7084 -0.0458
  625MOL0     C86149   2.196   1.053   5.102 -0.4127  0.5096 -0.4244
  625MOL0     C86150   2.294   0.976   5.198  0.1482 -0.6949 -0.1146
  625MOL0     C86151   2.357   0.845   5.145 -0.3982 -0.4806  0.4872
  625MOL0     C86152   2.513   0.838   5.134 -0.3822  0.9080 -0.1198
  625MOL0     C86153   2.558   0.705   5.082 -0.8689 -0.2898 -0.5933
  625MOL0     C86154   2.698   0.668   5.149 -0.1792  0.6563 -0.3023
  625MOL0     C86155   2.805   0.760   5.089  0.0797  0.2276  0.0820
  625MOL0     C86156   2.939   0.753   5.173  0.1429  0.5191 -0.4129
  625MOL0    Cl86157   2.930   0.753   5.354 -0.0503  0.2835 -0.2909
  625MOL0     C86158   2.265   1.280   4.827 -0.1721  0.5204 -0.2189
  625MOL0     C86159   2.206   1.363   4.729 -0.5202 -0.9911 -0.3574
  625MOL0     O86160   1.829   1.370   4.623  0.5725 -0.3383  0.7439
  625MOL0     C86161   1.931   1.647   4.426 -0.0118 -0.5422  0.0378
  625MOL0     C86162   1.896   1.724   4.318 -0.5676  0.8298  0.6798
  625MOL0     N86163   1.521   2.140   3.632  0.1078  0.4177 -0.2698
  625MOL0     N86164   1.423   2.222   3.631 -0.6359 -0.4257 -0.8460
  625MOL0     C86165   0.887   1.386   3.434 -0.6202 -0.7314 -0.5803
  625MOL0     C86166   0.878   1.282   3.339  0.5198 -1.3227  0.5721
  625MOL0     C86167   0.687   1.054   2.999 -0.2978 -0.0310  0.7823
  625MOL0     C86168   0.757   0.944   3.044  0.8623  0.2798 -0.2319
  625MOL0     C86169   0.751   0.821   2.981  0.0676 -0.4641  0.2680
  625MOL0     C86170   0.658   0.806   2.878  0.9253 -0.6432  0.3512
  625MOL0     O86171   0.641   0.675   2.829  0.1581 -0.0098 -0.4624
  625MOL0     C86172   0.556   0.646   2.719  0.4764 -0.0852  0.6524
  625MOL0     C86173   0.606   0.685   2.579 -0.9217 -0.4359 -0.6626
  625MOL0     C86174   0.754   0.645   2.566 -0.1409  0.7824  0.6671
  625MOL0     C86175   0.804   0.665   2.420 -1.0257  1.5200  0.2279
  625MOL0     C86176   0.950   0.657   2.428  0.3656 -0.9890 -0.2578
  625MOL0     C86177   1.067   0.673   2.456 -0.4153  0.0897  0.2945
  625MOL0     C86178   0.589   0.922   2.832  0.1521  0.3456 -0.0931
  625MOL0     C86179   0.606   1.048   2.884 -0.3728  0.0764  0.3937
  625MOL0     C86180   0.529   1.161   2.821  0.5200  0.3543  0.1735
  625MOL0     H86181   0.538   1.280   3.327 -0.8494  0.4931  1.4026
  625MOL0     H86182   0.572   1.489   3.474 -0.1749 -3.1744  0.8989
  625MOL0     H86183   0.894   1.704   3.446 -0.1355  0.1291  0.4794
  625MOL0     H86184   0.983   1.653   3.591 -0.1155  1.3951 -0.3114
  625MOL0     H86185   0.723   1.791   3.636 -0.5714  1.8049 -4.4555
  625MOL0     H86186   0.864   1.764   3.743  3.0091  0.4054 -0.9168
  625MOL0     H86187   0.994   1.906   3.642 -1.2617  1.0372  0.7447
  625MOL0     H86188   0.902   1.919   3.490  0.1181 -1.5342  0.0531
  625MOL0     H86189   0.727   2.044   3.593 -2.1662 -1.2596  1.1936
  625MOL0     H86190   0.782   2.000   3.750  0.5395  0.8109 -0.6659
  625MOL0     H86191   0.847   2.242   3.710 -1.5313  1.8297 -4.8979
  625MOL0     H86192   0.933   2.195   3.559  2.2409 -0.2968 -1.0519
  625MOL0     H86193   1.025   2.117   3.836  1.4747 -0.0270  0.7204
  625MOL0     H86194   1.101   2.083   3.675 -1.3740 -1.0154  0.7633
  625MOL0     H86195   1.048   2.343   3.793 -1.1031 -1.5489  1.0060
  625MOL0     H86196   1.123   2.321   3.627  2.0873 -2.7365 -1.1365
  625MOL0     H86197   1.292   2.398   3.777 -0.5990  0.0276  0.0866
  625MOL0     H86198   1.237   2.302   3.903  1.4515 -1.7076  0.4654
  625MOL0     H86199   1.390   2.083   3.918  1.8382 -3.3519 -0.0598
  625MOL0     H86200   1.721   1.980   3.708 -1.2254  2.2270 -1.7705
  625MOL0     H86201   1.597   1.872   3.729  2.8153  0.1999 -1.1365
  625MOL0     H86202   1.693   2.070   3.954  0.5827 -1.4167  2.3783
  625MOL0     H86203   1.598   1.924   3.978  1.8617 -1.4922  2.7684
  625MOL0     H86204   1.816   1.814   3.858 -4.2462 -1.5423  0.9265
  625MOL0     H86205   1.886   1.979   3.895 -0.0594  0.5516  3.0589
  625MOL0     H86206   1.961   1.829   4.049 -1.1898 -2.9145 -0.9200
  625MOL0     H86207   1.839   1.937   4.134 -3.0221 -4.4923  5.0365
  625MOL0     H86208   1.658   1.545   4.184  1.0486  0.4406 -0.7941
  625MOL0     H86209   1.762   1.261   4.365  1.2421  0.6942 -0.7805
  625MOL0     H86210   1.638   1.337   4.275  0.7726 -1.1845  0.7538
  625MOL0     H86211   1.630   1.326   4.453 -2.6910 -1.9257 -1.4161
  625MOL0     H86212   1.887   1.346   4.858 -0.7389 -0.7291 -2.4057
  625MOL0     H86213   2.000   1.209   5.024  2.7027 -0.8150  0.9301
  625MOL0     H86214   2.127   1.116   5.161 -1.8275 -3.5910  2.7995
  625MOL0     H86215   2.135   0.973   5.059  1.7101 -1.1553 -0.5063
  625MOL0     H86216   2.371   1.045   5.232 -2.6313  2.8889 -0.4418
  625MOL0     H86217   2.237   0.943   5.286 -0.7676 -1.2027 -0.8731
  625MOL0     H86218   2.320   0.819   5.046 -1.9713  1.5977  0.4705
  625MOL0     H86219   2.299   0.766   5.193 -0.7505 -1.6781 -1.7911
  625MOL0     H86220   2.555   0.855   5.233 -0.3078 -2.2054  0.4724
  625MOL0     H86221   2.554   0.907   5.060 -0.2208  0.8553 -0.0802
  625MOL0     H86222   2.481   0.630   5.106  1.2145 -2.0768  0.9230
  625MOL0     H86223   2.572   0.699   4.974 -0.7615  1.7020 -0.7300
  625MOL0     H86224   2.722   0.566   5.118 -1.9289  1.1696 -3.9053
  625MOL0     H86225   2.691   0.673   5.258  1.0214 -0.3595 -0.1558
  625MOL0     H86226   2.765   0.862   5.095  2.5048  1.1546  1.6527
  625MOL0     H86227   2.830   0.735   4.985 -1.1983 -1.3895  0.1307
  625MOL0     H86228   3.007   0.832   5.141  1.2741 -0.7797 -1.3439
  625MOL0     H86229   2.983   0.658   5.140  3.4854  1.8469 -0.1502
  625MOL0     H86230   2.371   1.261   4.821 -0.3374 -0.7328  0.5775
  625MOL0     H86231   2.270   1.413   4.658 -0.1327 -3.2701 -1.7061
  625MOL0     H86232   2.015   1.685   4.483 -0.2925  1.0177 -0.5174
  625MOL0     H86233   1.960   1.811   4.305 -3.8137  3.8694  2.9798
  625MOL0     H86234   0.979   1.398   3.490 -1.5267 -0.0717  0.8212
  625MOL0     H86235   0.958   1.215   3.308 -0.4283 -1.0832 -2.7724
  625MOL0     H86236   0.831   0.943   3.124 -1.3375  0.5947  1.9224
  625MOL0     H86237   0.817   0.741   3.014  0.6318 -1.4541 -2.9199
  625MOL0     H86238   0.522   0.543   2.716 -2.4832  0.8113 -2.5455
  625MOL0     H86239   0.464   0.702   2.739 -0.0166 -0.1383 -1.2688
  625MOL0     H86240   0.604   0.792   2.559  0.3611 -0.3027 -0.1363
  625MOL0     H86241   0.546   0.630   2.506 -1.7250 -3.5563  2.0571
  625MOL0     H86242   0.820   0.699   2.634  0.1949  0.6897  0.4190
  625MOL0     H86243   0.768   0.541   2.597  0.2411  0.5432 -0.2849
  625MOL0     H86244   0.784   0.764   2.379  0.6652  2.0138  0.5521
  625MOL0     H86245   0.762   0.593   2.349  0.0038  0.9723  0.1524
  625MOL0     H86246   1.170   0.694   2.478  0.6885 -1.8211 -2.5208
  625MOL0     H86247   0.542   0.917   2.735  1.7403 -0.2326 -0.8747
  625MOL0     H86248   0.580   1.256   2.839 -0.2378  0.4772  1.8889
  625MOL0     H86249   0.515   1.146   2.714  1.0142  1.9541 -0.1327
  625MOL0     H86250   0.430   1.160   2.869 -1.4988 -1.1907 -3.5485
  626MOL0     O86251   9.879  10.077   1.980 -0.0610  0.3322  0.0774
  626MOL0     C86252   9.802  10.160   1.933  0.2537 -0.6658 -0.2823
  626MOL0     O86253   9.722  10.252   2.009 -0.7305 -0.4205 -0.6738
  626MOL0     C86254   9.753  10.273   2.141 -0.4714 -0.2612 -0.0160
  626MOL0     C86255   9.685  10.204   2.236  0.8929  0.5876 -0.1053
  626MOL0     C86256   9.721  10.221   2.373 -0.2529  0.0251 -0.5125
  626MOL0     C86257   9.821  10.318   2.418 -0.3287  1.3790  0.6976
  626MOL0     O86258   9.842  10.336   2.547 -0.8565  0.8973 -0.1420
  626MOL0     C86259   9.738  10.395   2.621 -1.0877 -0.3628 -0.6657
  626MOL0     C86260   9.663  10.299   2.718  0.1382  0.1544  0.2481
  626MOL0     C86261   9.644  10.368   2.856 -0.3672  0.5540 -0.5621
  626MOL0     C86262   9.566  10.282   2.943  0.1017 -0.2002  1.4105
  626MOL0     C86263   9.542  10.335   3.084 -0.5398 -0.1641 -0.0605
  626MOL0     C86264   9.429  10.242   3.148  0.2354 -0.6069 -0.5617
  626MOL0     C86265   9.369  10.297   3.289  0.4662 -0.1894 -0.2876
  626MOL0     C86266   9.348  10.179   3.382 -1.0566 -0.1998  0.3430
  626MOL0     N86267   9.271  10.202   3.504 -0.1668 -0.0236 -0.0777
  626MOL0     C86268   9.142  10.154   3.540  0.3244  0.3165  0.6476
  626MOL0     C86269   9.118  10.221   3.650 -0.6716  0.4109 -0.4553
  626MOL0     C86270   8.998  10.211   3.733 -0.8630  0.2314 -0.2800
  626MOL0     C86271   9.005  10.089   3.820  0.5368  0.2838 -0.6186
  626MOL0     C86272   8.866  10.078   3.893 -0.4101  0.9176  0.5751
  626MOL0     C86273   8.874  10.105   4.034 -0.1033  0.2936 -0.0445
  626MOL0     O86274   8.743  10.090   4.096  0.3313 -0.1083  0.2007
  626MOL0     C86275   8.728  10.147   4.215  0.1441 -0.2865  1.0716
  626MOL0     C86276   8.832  10.199   4.300  0.1549 -0.1783 -0.0521
  626MOL0     C86277   8.802  10.274   4.413 -0.1787 -0.4190 -0.3960
  626MOL0     C86278   8.924  10.325   4.489  0.7104 -0.7727 -0.1023
  626MOL0     C86279   8.667  10.288   4.457  0.9296  0.9160 -0.7026
  626MOL0     C86280   8.639  10.363   4.590 -0.8307 -0.4780 -0.2629
  626MOL0     O86281   8.736  10.382   4.683  0.0414 -0.3839 -0.1834
  626MOL0     C86282   8.726  10.454   4.799 -0.2219  0.2770  0.6351
  626MOL0     C86283   8.852  10.472   4.865  0.1218  0.9564  0.1852
  626MOL0     C86284   8.858  10.556   4.978  0.7094  0.2562 -0.3704
  626MOL0     C86285   8.745  10.626   5.024 -0.4066 -0.5942 -0.7151
  626MOL0     O86286   8.760  10.727   5.126  0.6098 -0.9427 -0.0241
  626MOL0     C86287   8.816  10.677   5.247  0.8249 -0.5232 -0.2884
  626MOL0     C86288   8.880  10.804   5.315  0.4340 -0.0020  0.4305
  626MOL0     C86289   8.942  10.760   5.449 -0.0547  0.2774  0.9676
  626MOL0     C86290   8.975  10.893   5.518 -0.7125  0.0685  0.6158
  626MOL0     C86291   9.045  10.869   5.652 -0.6885  0.2929  0.0348
  626MOL0     C86292   8.951  10.824   5.765  1.1123  0.5341 -0.2200
  626MOL0     C86293   9.039  10.808   5.888  0.6708  0.4570 -0.0518
  626MOL0     C86294   8.981  10.721   5.990 -0.9505 -0.0492  0.4979
  626MOL0    Cl86295   8.848  10.821   6.079  0.3155 -0.6527 -0.6364
  626MOL0     C86296   8.623  10.608   4.963  0.0459  0.2989  0.2055
  626MOL0     C86297   8.615  10.517   4.850  0.1182  0.3158  0.0425
  626MOL0     O86298   8.524  10.405   4.593  0.4240  0.4077  0.7106
  626MOL0     C86299   8.570  10.223   4.374  0.0736 -0.8984 -0.8357
  626MOL0     C86300   8.599  10.162   4.253  0.7035 -0.2663  0.1467
  626MOL0     N86301   9.212  10.323   3.668  0.1778  0.4582  0.2940
  626MOL0     N86302   9.318  10.297   3.593 -0.7670  0.1365  0.4914
  626MOL0     C86303   9.883  10.388   2.318  0.5341 -0.9695  0.0986
  626MOL0     C86304   9.860  10.362   2.184  0.4238 -1.0496  0.5148
  626MOL0     C86305   9.791  10.172   1.787 -0.2693  0.1458  0.1997
  626MOL0     C86306   9.665  10.215   1.740 -0.4261  0.4192  0.0442
  626MOL0     C86307   9.638  10.228   1.607 -0.0060  0.3414  0.1458
  626MOL0     C86308   9.726  10.175   1.511  0.3425  0.0712  0.4007
  626MOL0     O86309   9.689  10.177   1.381  0.0580  0.7594 -0.4787
  626MOL0     C86310   9.638  10.052   1.329 -0.1185  0.2829  1.0361
  626MOL0     C86311   9.493  10.023   1.360 -0.1290  0.1697 -0.6672
  626MOL0     C86312   9.400  10.125   1.300 -0.2176 -0.2888  0.4398
  626MOL0     C86313   9.256  10.089   1.327  0.6487  0.0449 -0.1761
  626MOL0     C86314   9.199   9.989   1.236 -0.4269 -0.2374  0.3791
  626MOL0     C86315   9.149   9.917   1.153 -1.0020  0.9617  1.1356
  626MOL0     C86316   9.854  10.122   1.559 -0.2946  0.3480 -0.3559
  626MOL0     C86317   9.886  10.128   1.695  0.1318  0.9693 -0.6568
  626MOL0     C86318  10.035  10.088   1.727  0.9043 -0.0841 -0.0628
  626MOL0     H86319   9.597  10.143   2.218  1.0517 -0.6094  2.6139
  626MOL0     H86320   9.658  10.174   2.447 -4.7537  2.1647 -2.5573
  626MOL0     H86321   9.657  10.433   2.557 -1.4743 -0.2279 -0.1043
  626MOL0     H86322   9.785  10.481   2.670  1.1490  0.3612 -3.7400
  626MOL0     H86323   9.573  10.251   2.678 -1.3892 -0.0580  3.5783
  626MOL0     H86324   9.734  10.218   2.737 -1.4592 -1.6337 -1.0064
  626MOL0     H86325   9.744  10.376   2.900 -0.9652  1.5076  0.6953
  626MOL0     H86326   9.598  10.467   2.857  1.0899  1.2722 -1.3268
  626MOL0     H86327   9.472  10.264   2.890  0.8453 -1.9197  0.6102
  626MOL0     H86328   9.623  10.189   2.953  1.4621  0.5861  1.1832
  626MOL0     H86329   9.504  10.437   3.077  3.3509  1.5076  0.8540
  626MOL0     H86330   9.631  10.345   3.146 -1.6865 -0.0088  1.6432
  626MOL0     H86331   9.343  10.230   3.081 -1.3390 -0.2219  1.2951
  626MOL0     H86332   9.457  10.136   3.155  0.6466 -0.4333  0.5924
  626MOL0     H86333   9.278  10.357   3.276 -0.7030 -1.7733  0.3066
  626MOL0     H86334   9.436  10.364   3.343 -0.0240  1.4840 -1.6517
  626MOL0     H86335   9.311  10.089   3.331  1.1382 -0.4689 -0.9062
  626MOL0     H86336   9.449  10.150   3.415 -0.1885 -1.6060 -3.0220
  626MOL0     H86337   9.078  10.081   3.492 -0.2618  1.5475 -0.4945
  626MOL0     H86338   8.906  10.221   3.675 -1.6940  1.0592  1.1349
  626MOL0     H86339   8.996  10.301   3.794 -1.4307  0.6213 -0.8553
  626MOL0     H86340   9.036  10.001   3.762 -0.8251 -0.9612  0.4533
  626MOL0     H86341   9.084  10.112   3.891 -0.3307  0.3058  0.3598
  626MOL0     H86342   8.779  10.124   3.844 -0.6098 -0.0247  0.0087
  626MOL0     H86343   8.855   9.969   3.889  2.4447  0.5942 -2.2715
  626MOL0     H86344   8.943  10.035   4.082  0.5236 -1.1590 -2.8100
  626MOL0     H86345   8.910  10.208   4.039 -0.1145  0.2647  0.6763
  626MOL0     H86346   8.935  10.174   4.278  0.7259  1.7258  0.2718
  626MOL0     H86347   9.017  10.335   4.431  1.3866  0.7990  1.1870
  626MOL0     H86348   8.940  10.270   4.582  0.1654 -1.7828 -0.5900
  626MOL0     H86349   8.917  10.430   4.518  2.4455 -0.7079  0.2215
  626MOL0     H86350   8.935  10.419   4.819 -0.1147 -1.6378  2.4570
  626MOL0     H86351   8.950  10.560   5.035  1.8084 -0.9117 -2.0037
  626MOL0     H86352   8.739  10.649   5.318 -0.5298 -3.6459 -2.7528
  626MOL0     H86353   8.886  10.595   5.225 -0.5375 -1.3098 -1.9037
  626MOL0     H86354   8.962  10.850   5.260 -0.0081 -0.0173 -0.2477
  626MOL0     H86355   8.801  10.877   5.336  0.6725 -0.1262  1.8864
  626MOL0     H86356   9.037  10.706   5.440  0.3325  1.2868 -3.9040
  626MOL0     H86357   8.866  10.708   5.506  1.3389 -2.8232  0.1824
  626MOL0     H86358   8.883  10.951   5.532  0.3310  1.6370  1.2722
  626MOL0     H86359   9.041  10.957   5.458 -1.5662  1.1914  0.8203
  626MOL0     H86360   9.120  10.794   5.626 -1.3312  0.0584 -1.2208
  626MOL0     H86361   9.100  10.954   5.693 -1.3067  0.1907  1.1030
  626MOL0     H86362   8.919  10.723   5.736 -0.9433  1.2206 -0.5061
  626MOL0     H86363   8.859  10.882   5.777 -0.5424 -2.2531  1.4835
  626MOL0     H86364   9.037  10.910   5.929  0.1302  0.6512 -0.5592
  626MOL0     H86365   9.137  10.764   5.867  0.5671  0.2540 -0.1086
  626MOL0     H86366   9.046  10.692   6.073  0.3167 -0.7875 -0.7091
  626MOL0     H86367   8.947  10.625   5.950  0.9008 -0.0880 -1.1182
  626MOL0     H86368   8.536  10.660   5.003 -1.0952 -2.4940  1.6656
  626MOL0     H86369   8.514  10.509   4.810  0.9517 -0.1938 -2.1060
  626MOL0     H86370   8.468  10.226   4.409  0.5815  0.8452  0.7047
  626MOL0     H86371   8.521  10.136   4.182  1.9707  1.5359 -2.0512
  626MOL0     H86372   9.956  10.465   2.341 -1.1494  0.8715 -0.3928
  626MOL0     H86373   9.913  10.423   2.112 -1.6137  0.4454  0.1693
  626MOL0     H86374   9.582  10.233   1.808  0.0010  0.0748  0.6636
  626MOL0     H86375   9.542  10.272   1.581  0.4347 -0.2921 -2.8450
  626MOL0     H86376   9.658  10.055   1.221  1.7090 -1.5207  1.2685
  626MOL0     H86377   9.694   9.966   1.367  0.1331 -1.6785 -3.1989
  626MOL0     H86378   9.489  10.020   1.469 -1.7425  3.4010 -0.5387
  626MOL0     H86379   9.464   9.923   1.327 -1.4221 -0.4813  2.1520
  626MOL0     H86380   9.426  10.223   1.339  1.6258 -1.6051  2.7645
  626MOL0     H86381   9.416  10.104   1.194 -1.0090  0.7441  0.0990
  626MOL0     H86382   9.208  10.187   1.324  3.2574  1.4234  0.7607
  626MOL0     H86383   9.249  10.055   1.431  0.1310 -1.9024 -0.7915
  626MOL0     H86384   9.090   9.856   1.087 -1.8498  1.9790  0.9350
  626MOL0     H86385   9.920  10.077   1.486 -2.8150  0.5592 -2.9423
  626MOL0     H86386  10.091  10.073   1.635  2.2988  2.4657  0.2956
  626MOL0     H86387  10.087  10.164   1.785  3.1883 -2.3567  1.0711
  626MOL0     H86388  10.029   9.997   1.788  0.8147 -0.3401 -0.4485
  627MOL0     O86389   2.289  10.560   4.661  0.3323  0.5576  0.3537
  627MOL0     C86390   2.300  10.592   4.539  0.9948 -0.4276 -0.3886
  627MOL0     O86391   2.278  10.715   4.484 -0.0973 -1.0366 -1.1210
  627MOL0     C86392   2.290  10.835   4.550  1.3290  0.9958 -0.1322
  627MOL0     C86393   2.230  10.948   4.486  0.2680 -0.7995  0.5273
  627MOL0     C86394   2.245  11.076   4.545 -0.2691  0.6215  0.3000
  627MOL0     C86395   2.310  11.095   4.667  0.5212  0.4543  0.9638
  627MOL0     O86396   2.323  11.221   4.727  0.2171  0.0210  1.0986
  627MOL0     C86397   2.465  11.259   4.722  0.3287 -0.0491 -0.5158
  627MOL0     C86398   2.492  11.381   4.809  0.3020  0.6189  0.8249
  627MOL0     C86399   2.435  11.380   4.953  0.2126  0.4232  0.2564
  627MOL0     C86400   2.470  11.259   5.030  0.2834  0.7562  0.6832
  627MOL0     C86401   2.442  11.267   5.177 -0.7231 -0.3387  0.3371
  627MOL0     C86402   2.530  11.368   5.253 -0.7618 -0.5315 -0.7316
  627MOL0     C86403   2.523  11.350   5.405 -0.7739 -0.9998  0.1945
  627MOL0     C86404   2.403  11.417   5.464  0.5773 -0.5497  0.0936
  627MOL0     N86405   2.267  11.345   5.446 -0.3541 -0.6086 -0.3078
  627MOL0     C86406   2.239  11.216   5.410  0.5896 -0.4232  0.6634
  627MOL0     C86407   2.102  11.207   5.421 -0.6321 -0.1487  0.3685
  627MOL0     C86408   2.021  11.089   5.391 -0.6916  0.9155 -0.4504
  627MOL0     C86409   1.990  11.079   5.244 -0.5581 -1.3207 -0.4097
  627MOL0     C86410   1.838  11.047   5.211 -0.2860  0.3731  0.3028
  627MOL0     C86411   1.794  10.902   5.250  0.0788 -0.3290 -0.2841
  627MOL0     O86412   1.653  10.918   5.275  0.4695 -0.2757 -0.0291
  627MOL0     C86413   1.574  10.935   5.163 -0.2275  0.6205 -0.3465
  627MOL0     C86414   1.500  11.054   5.155 -0.4150  1.2628 -0.0981
  627MOL0     C86415   1.424  11.093   5.042 -0.8202  0.5041 -0.0573
  627MOL0     C86416   1.362  11.223   5.034 -0.7434  0.8192 -0.1054
  627MOL0     C86417   1.419  10.995   4.938  0.4014 -0.7487 -0.6388
  627MOL0     C86418   1.340  11.025   4.810 -0.1215 -0.5453 -0.7360
  627MOL0     O86419   1.368  10.954   4.704 -0.8126  0.0381  0.2585
  627MOL0     C86420   1.324  10.985   4.577 -0.9182 -0.2428 -0.8981
  627MOL0     C86421   1.210  10.924   4.538  1.0380 -0.6349  0.4162
  627MOL0     C86422   1.154  10.961   4.408 -0.6990 -0.0734  0.5424
  627MOL0     C86423   1.216  11.057   4.330 -0.3622 -0.8420  0.2715
  627MOL0     O86424   1.178  11.101   4.208  0.5075  0.1954  0.8099
  627MOL0     C86425   1.040  11.112   4.170  0.3534 -0.2159  0.0115
  627MOL0     C86426   1.040  11.184   4.024 -1.1092  0.1107 -0.8589
  627MOL0     C86427   0.916  11.155   3.928 -1.0658 -0.1975  0.1161
  627MOL0     C86428   0.848  11.272   3.882  0.9278 -1.0219 -0.1921
  627MOL0     C86429   0.757  11.246   3.754 -0.9146  0.4587 -0.8441
  627MOL0     C86430   0.702  11.377   3.696 -0.3004 -0.3436 -0.0846
  627MOL0     C86431   0.598  11.368   3.597 -0.3377 -0.7227  0.4099
  627MOL0     C86432   0.657  11.347   3.456 -0.6403 -0.9455  0.0241
  627MOL0    Cl86433   0.567  11.410   3.332  0.1627 -0.2012  0.0157
  627MOL0     C86434   1.334  11.122   4.376  0.6670  0.1121  0.3322
  627MOL0     C86435   1.389  11.074   4.494 -0.2877 -0.1942  0.6933
  627MOL0     O86436   1.254  11.113   4.814 -0.6053 -0.4738  0.4203
  627MOL0     C86437   1.485  10.871   4.951  0.6172  0.0102  0.4765
  627MOL0     C86438   1.558  10.836   5.060  0.7356 -0.2396 -0.6111
  627MOL0     N86439   2.054  11.330   5.460 -0.2961  0.3485 -0.2679
  627MOL0     N86440   2.151  11.415   5.477  0.0923 -0.0540 -0.3540
  627MOL0     C86441   2.357  10.986   4.720 -0.1787 -0.0783  0.1063
  627MOL0     C86442   2.350  10.859   4.669  0.1894  0.6309 -0.2982
  627MOL0     C86443   2.327  10.492   4.439 -0.5297 -0.5422 -0.1256
  627MOL0     C86444   2.278  10.510   4.313 -0.6382 -0.0867  0.1044
  627MOL0     C86445   2.300  10.410   4.225  1.0544 -0.5646  0.0204
  627MOL0     C86446   2.358  10.291   4.257 -0.3011 -0.6997  0.8743
  627MOL0     O86447   2.382  10.185   4.172 -0.5849 -0.0081  0.6366
  627MOL0     C86448   2.321  10.198   4.044  0.6973  0.3347  0.5364
  627MOL0     C86449   2.314  10.060   3.978  0.0488  0.3204  0.1615
  627MOL0     C86450   2.245  10.063   3.842 -0.3772  0.1355  1.0518
  627MOL0     C86451   2.106  10.125   3.827 -1.1141 -0.4019  0.1876
  627MOL0     C86452   2.015  10.074   3.919  0.4129 -0.6638  0.2369
  627MOL0     C86453   1.938  10.019   3.995  0.0745  0.9481 -0.0284
  627MOL0     C86454   2.411  10.291   4.383  0.0739  0.5830  0.2603
  627MOL0     C86455   2.399  10.384   4.475 -0.7175 -0.1828  0.1828
  627MOL0     C86456   2.483  10.367   4.604  0.5356  0.0039 -0.0482
  627MOL0     H86457   2.175  10.922   4.397  1.4898 -1.7935  0.0439
  627MOL0     H86458   2.203  11.154   4.482 -1.1211 -0.1128 -0.0693
  627MOL0     H86459   2.509  11.270   4.623 -0.5895  0.6215 -0.8658
  627MOL0     H86460   2.526  11.176   4.759 -0.6103 -0.2417  0.6511
  627MOL0     H86461   2.599  11.398   4.814  0.4164  0.5882 -0.7888
  627MOL0     H86462   2.444  11.469   4.765 -0.5195 -0.8295 -1.3907
  627MOL0     H86463   2.472  11.469   5.004  0.3343  0.2956  0.3928
  627MOL0     H86464   2.328  11.402   4.944  0.4145  0.5858 -2.5364
  627MOL0     H86465   2.417  11.167   5.006  2.2360  0.1642 -1.7579
  627MOL0     H86466   2.575  11.240   5.004 -0.8277 -0.9522 -3.1480
  627MOL0     H86467   2.459  11.173   5.230 -0.4831 -0.0661  0.7498
  627MOL0     H86468   2.338  11.295   5.200 -0.4584 -1.0319  2.7393
  627MOL0     H86469   2.629  11.327   5.231 -0.8902 -0.5103 -1.3573
  627MOL0     H86470   2.521  11.468   5.210  0.1955 -0.0449  0.1539
  627MOL0     H86471   2.600  11.410   5.455 -3.7875  2.4011  1.2078
  627MOL0     H86472   2.536  11.246   5.436  0.1913 -1.3211 -1.1985
  627MOL0     H86473   2.420  11.444   5.569  2.7138 -0.4252 -0.2472
  627MOL0     H86474   2.393  11.513   5.413  0.1801 -2.7320 -4.4488
  627MOL0     H86475   2.310  11.143   5.373  1.3420  1.1056 -1.0840
  627MOL0     H86476   1.931  11.091   5.452  0.5815 -2.5156  1.8606
  627MOL0     H86477   2.065  10.994   5.424 -0.4996  0.8451 -0.8884
  627MOL0     H86478   1.999  11.176   5.194 -0.0262 -1.8911 -1.4746
  627MOL0     H86479   2.063  11.015   5.193  1.8611  0.4359  0.6703
  627MOL0     H86480   1.786  11.115   5.279  1.7790  0.2167  2.1446
  627MOL0     H86481   1.816  11.070   5.106 -0.2608 -2.1895 -0.3400
  627MOL0     H86482   1.803  10.826   5.173 -0.6430 -3.1356  2.2064
  627MOL0     H86483   1.856  10.869   5.334  1.3175  0.0319 -1.0275
  627MOL0     H86484   1.516  11.128   5.233 -1.7336  0.4762  0.9655
  627MOL0     H86485   1.254  11.225   5.016 -0.6300  0.4905 -0.8542
  627MOL0     H86486   1.421  11.274   4.957  3.7641  0.3243  2.6375
  627MOL0     H86487   1.372  11.282   5.126 -1.1432 -0.4236  0.7626
  627MOL0     H86488   1.161  10.861   4.611 -1.1506  0.1609 -0.2943
  627MOL0     H86489   1.061  10.924   4.367 -0.2383  0.2035 -0.7939
  627MOL0     H86490   0.994  11.013   4.164 -1.3538  0.3069  2.6982
  627MOL0     H86491   0.978  11.176   4.233 -1.1712 -1.8161  0.2383
  627MOL0     H86492   1.045  11.291   4.050 -0.9659  0.1884 -1.1994
  627MOL0     H86493   1.137  11.154   3.984  0.8678  0.6008  3.1227
  627MOL0     H86494   0.839  11.092   3.973 -2.8553  1.6423 -0.2274
  627MOL0     H86495   0.967  11.097   3.851  2.2042 -0.9771  2.6089
  627MOL0     H86496   0.929  11.341   3.855 -0.7561  0.3672 -2.0388
  627MOL0     H86497   0.803  11.327   3.965  0.4586  0.6218 -1.4758
  627MOL0     H86498   0.804  11.174   3.687 -0.6245 -3.0053  2.7288
  627MOL0     H86499   0.674  11.190   3.797 -1.4478  2.3597  0.7456
  627MOL0     H86500   0.783  11.445   3.668 -0.1700 -0.2741  0.4620
  627MOL0     H86501   0.652  11.440   3.770  0.3103  0.1359 -0.0763
  627MOL0     H86502   0.538  11.459   3.590 -0.3741 -0.8745 -2.8468
  627MOL0     H86503   0.522  11.293   3.619 -0.3206 -0.0797  2.9603
  627MOL0     H86504   0.664  11.238   3.445 -1.9096 -1.4046  2.8269
  627MOL0     H86505   0.760  11.386   3.461  0.1729 -2.8760 -0.7107
  627MOL0     H86506   1.367  11.200   4.307 -2.6668  0.7494 -0.7176
  627MOL0     H86507   1.473  11.111   4.551 -0.4283  0.7908  0.2810
  627MOL0     H86508   1.475  10.803   4.867  2.9761  0.2157 -0.0234
  627MOL0     H86509   1.597  10.736   5.076  1.2042 -0.2032 -1.4668
  627MOL0     H86510   2.401  10.997   4.819 -1.9189 -1.4899  1.0977
  627MOL0     H86511   2.394  10.770   4.712 -0.0667 -0.6670 -2.5779
  627MOL0     H86512   2.230  10.604   4.286  0.8289  0.1248 -2.0002
  627MOL0     H86513   2.261  10.426   4.125 -2.1817 -0.1130  1.2181
  627MOL0     H86514   2.214  10.220   4.052  0.3720 -0.9890  0.0990
  627MOL0     H86515   2.372  10.276   3.985 -2.1191  1.7245 -0.2554
  627MOL0     H86516   2.249   9.985   4.023  0.1855 -1.1065 -1.8851
  627MOL0     H86517   2.413  10.014   3.974  0.7492  1.6639 -4.4799
  627MOL0     H86518   2.320  10.124   3.790  2.1971 -2.2715  1.6417
  627MOL0     H86519   2.244   9.964   3.795  1.9694  0.9545 -1.0113
  627MOL0     H86520   2.068  10.096   3.728 -1.1705  1.8997 -0.5271
  627MOL0     H86521   2.099  10.234   3.828 -2.5126 -0.4856  1.1096
  627MOL0     H86522   1.879   9.981   4.075  1.7486 -1.9377 -0.0197
  627MOL0     H86523   2.473  10.204   4.405 -3.1049 -1.1926  3.1642
  627MOL0     H86524   2.431  10.355   4.699 -1.6455  1.1122 -1.0271
  627MOL0     H86525   2.559  10.288   4.608  1.9150  1.2630 -0.4788
  627MOL0     H86526   2.543  10.457   4.619  0.2841 -0.2050  2.7141
  628MOL0     O86527   7.032   4.135   8.215 -0.2394 -0.5337 -0.8609
  628MOL0     C86528   7.101   4.091   8.132 -0.6634  0.0893 -0.4613
  628MOL0     O86529   7.204   4.152   8.082 -0.2760 -0.1640  0.7436
  628MOL0     C86530   7.259   4.273   8.126 -0.9709 -0.4348  0.1895
  628MOL0     C86531   7.191   4.384   8.168 -0.0093  0.3644 -0.4790
  628MOL0     C86532   7.258   4.501   8.187 -0.3709 -0.2249 -0.1755
  628MOL0     C86533   7.398   4.512   8.169 -0.0171  0.0882  0.0744
  628MOL0     O86534   7.485   4.615   8.180  0.5240 -0.0798  0.3644
  628MOL0     C86535   7.459   4.704   8.289 -0.1463 -0.5304  0.9863
  628MOL0     C86536   7.552   4.825   8.247  0.0377 -0.2654  1.3165
  628MOL0     C86537   7.581   4.925   8.357 -0.0748 -0.0515  0.2250
  628MOL0     C86538   7.497   5.052   8.352 -0.0869  1.2320 -0.2386
  628MOL0     C86539   7.347   5.030   8.397 -0.6484 -0.0091  0.7180
  628MOL0     C86540   7.271   5.155   8.430 -0.4896 -0.2238  0.9956
  628MOL0     C86541   7.131   5.124   8.484 -0.3562 -0.5997  0.4543
  628MOL0     C86542   7.051   5.257   8.501 -1.8908 -0.5248 -0.2163
  628MOL0     N86543   7.096   5.336   8.616 -0.3166  0.2571  0.2292
  628MOL0     C86544   7.052   5.463   8.641  0.8303 -0.9790  0.6331
  628MOL0     C86545   7.126   5.507   8.752  0.3321 -0.5919  0.9320
  628MOL0     C86546   7.097   5.645   8.811 -0.5825  0.1231  0.2669
  628MOL0     C86547   7.223   5.702   8.879  0.4086  0.4088  0.0224
  628MOL0     C86548   7.192   5.830   8.955  0.0438 -0.3518 -0.5553
  628MOL0     C86549   7.318   5.895   9.003 -0.1302 -0.4469  0.2812
  628MOL0     O86550   7.383   5.821   9.119  0.7979 -0.2635 -0.4510
  628MOL0     C86551   7.500   5.854   9.163 -0.7977 -0.4405 -0.3567
  628MOL0     C86552   7.565   5.972   9.139 -0.3469 -0.1368 -0.3985
  628MOL0     C86553   7.700   5.998   9.185  1.3361 -0.3735  0.2319
  628MOL0     C86554   7.752   6.136   9.156 -0.5746  0.0745 -0.4197
  628MOL0     C86555   7.772   5.899   9.249 -0.2919 -0.1210  0.0776
  628MOL0     C86556   7.904   5.924   9.313  0.1470  0.0021  0.1416
  628MOL0     O86557   7.940   5.854   9.424 -0.2022  0.0509 -0.0396
  628MOL0     C86558   8.047   5.876   9.500 -0.4764 -1.1599 -0.0616
  628MOL0     C86559   8.083   5.767   9.581  1.3851 -0.6072  0.7628
  628MOL0     C86560   8.190   5.772   9.667  0.0410  0.3390  0.6884
  628MOL0     C86561   8.270   5.885   9.667  1.3154  0.1425 -0.4282
  628MOL0     O86562   8.378   5.884   9.736 -0.9693  0.3682  0.3331
  628MOL0     C86563   8.375   5.848   9.875  0.2034  0.1506  0.3718
  628MOL0     C86564   8.323   5.956   9.964 -0.3343  0.3798 -0.6023
  628MOL0     C86565   8.370   5.956  10.114 -0.8646  0.8739 -0.4846
  628MOL0     C86566   8.291   6.050  10.207 -0.1687  0.1655  0.2310
  628MOL0     C86567   8.270   6.017  10.359  0.9073  0.2675  0.6330
  628MOL0     C86568   8.384   6.015  10.449  0.8142 -0.3455  0.0138
  628MOL0     C86569   8.331   5.980  10.599 -0.1631  0.2738 -0.5308
  628MOL0     C86570   8.450   5.956  10.705  0.4284 -0.5553 -0.3583
  628MOL0    Cl86571   8.553   6.105  10.720  0.3568 -0.1206 -0.2757
  628MOL0     C86572   8.245   5.996   9.585  0.2001  0.3979  0.6582
  628MOL0     C86573   8.131   5.986   9.500  0.2980 -0.0050  0.2964
  628MOL0     O86574   7.967   6.018   9.262 -0.1843 -0.1332 -0.2676
  628MOL0     C86575   7.704   5.782   9.266 -0.0677  0.2924  0.3931
  628MOL0     C86576   7.574   5.754   9.232 -1.2025 -0.0266 -0.8488
  628MOL0     N86577   7.212   5.407   8.782  1.3451 -0.8277  0.5686
  628MOL0     N86578   7.200   5.308   8.703  0.6759  0.1431  0.4410
  628MOL0     C86579   7.460   4.401   8.119 -0.5088  0.3660 -0.6360
  628MOL0     C86580   7.397   4.281   8.099 -0.0698  0.0297  0.3786
  628MOL0     C86581   7.061   3.959   8.070  0.1251  0.0731 -0.5691
  628MOL0     C86582   6.928   3.936   8.024 -0.3683 -0.1406  0.4528
  628MOL0     C86583   6.880   3.811   7.965  0.7418 -0.7102 -0.3105
  628MOL0     C86584   6.965   3.698   7.966 -0.5149  0.4934  0.9451
  628MOL0     O86585   6.937   3.569   7.926  0.7275  0.1616 -0.4342
  628MOL0     C86586   6.837   3.565   7.819 -1.0113 -0.4694  0.6430
  628MOL0     C86587   6.862   3.446   7.731  1.0411  0.7493  0.7880
  628MOL0     C86588   6.805   3.458   7.594 -1.0102 -0.7613 -0.5379
  628MOL0     C86589   6.828   3.334   7.505 -0.6787  0.0798  0.0816
  628MOL0     C86590   6.757   3.207   7.544  0.3182  0.1911 -1.0334
  628MOL0     C86591   6.698   3.097   7.571  0.3486 -0.1463  0.1710
  628MOL0     C86592   7.085   3.718   8.033  0.2358 -0.2411 -0.0869
  628MOL0     C86593   7.140   3.843   8.078  0.8326  1.0963 -0.2513
  628MOL0     C86594   7.274   3.840   8.133  0.1333  0.0391  0.5346
  628MOL0     H86595   7.083   4.393   8.170  0.0999  3.2289 -2.1976
  628MOL0     H86596   7.190   4.582   8.213 -1.2557 -0.1221 -2.4942
  628MOL0     H86597   7.505   4.678   8.384 -0.2226  1.1116  1.5014
  628MOL0     H86598   7.351   4.723   8.290 -0.6310 -2.9700  1.7657
  628MOL0     H86599   7.646   4.786   8.209 -0.7170  0.4737 -1.6140
  628MOL0     H86600   7.510   4.860   8.152 -1.1927 -2.9421  0.7994
  628MOL0     H86601   7.582   4.880   8.457  3.8411 -0.2336  0.2434
  628MOL0     H86602   7.686   4.952   8.344 -0.4423  1.9969  1.0152
  628MOL0     H86603   7.536   5.120   8.429 -1.4052  0.0123  1.5940
  628MOL0     H86604   7.508   5.084   8.248 -0.0991 -2.6548 -1.5763
  628MOL0     H86605   7.343   4.971   8.489 -3.3525 -1.8539 -0.4616
  628MOL0     H86606   7.290   4.967   8.329  1.2742 -0.1080 -0.9092
  628MOL0     H86607   7.337   5.195   8.507  3.7160 -1.0433 -1.8333
  628MOL0     H86608   7.279   5.213   8.338  0.9320 -0.8301  0.7032
  628MOL0     H86609   7.132   5.055   8.569  1.5411  0.0128  0.9635
  628MOL0     H86610   7.078   5.066   8.409 -0.1236  1.1115 -1.1127
  628MOL0     H86611   7.073   5.323   8.417  0.6681 -2.1077 -0.9063
  628MOL0     H86612   6.944   5.239   8.515 -2.0493  0.0568 -0.6809
  628MOL0     H86613   6.966   5.516   8.602 -0.0556  0.7310  4.4278
  628MOL0     H86614   7.015   5.627   8.881 -2.0524 -0.6573 -1.5811
  628MOL0     H86615   7.071   5.716   8.731  0.7299  0.7937  0.3984
  628MOL0     H86616   7.265   5.622   8.941 -1.2060 -0.7245 -0.2875
  628MOL0     H86617   7.305   5.719   8.808  1.6254 -3.2195  0.3756
  628MOL0     H86618   7.126   5.906   8.911  0.8678 -0.5477 -2.2309
  628MOL0     H86619   7.131   5.812   9.043 -0.3965  5.1885  0.6489
  628MOL0     H86620   7.385   5.898   8.917  2.1541 -1.5058  1.9390
  628MOL0     H86621   7.298   6.000   9.026  0.9478  0.1809 -1.4903
  628MOL0     H86622   7.504   6.047   9.090  2.3283  2.1738 -0.3782
  628MOL0     H86623   7.791   6.175   9.250 -3.1316 -0.1355  0.8224
  628MOL0     H86624   7.670   6.199   9.119 -0.1574  2.1567  1.9810
  628MOL0     H86625   7.831   6.140   9.080 -2.2468  2.9846 -2.2288
  628MOL0     H86626   8.036   5.671   9.564 -2.7821  1.0802  1.7186
  628MOL0     H86627   8.212   5.683   9.724  2.1481 -0.1932 -0.8485
  628MOL0     H86628   8.316   5.758   9.896  0.0752  0.5640  1.9135
  628MOL0     H86629   8.479   5.823   9.898 -0.3477 -1.7888  0.9533
  628MOL0     H86630   8.370   6.046   9.922  1.4842  0.1500  0.8177
  628MOL0     H86631   8.214   5.963   9.961 -0.3137  0.5148 -1.5881
  628MOL0     H86632   8.472   5.994  10.129  0.8368 -3.9145  2.9534
  628MOL0     H86633   8.360   5.859  10.164 -2.9392  1.9841  1.4271
  628MOL0     H86634   8.197   6.087  10.166 -0.6611 -0.3964  0.8416
  628MOL0     H86635   8.354   6.139  10.219 -0.3317  0.1042  1.6055
  628MOL0     H86636   8.199   6.091  10.398  0.3233  1.2923 -2.1379
  628MOL0     H86637   8.224   5.918  10.362  1.3684 -0.2462 -3.7675
  628MOL0     H86638   8.421   6.118  10.455 -0.7196  0.1845  4.3789
  628MOL0     H86639   8.464   5.946  10.422  0.3359 -1.3598  1.0711
  628MOL0     H86640   8.261   5.897  10.581  2.0069 -2.1271  1.4122
  628MOL0     H86641   8.271   6.061  10.643 -1.9248 -1.3914  0.3147
  628MOL0     H86642   8.516   5.871  10.688  1.8982  0.0165  2.0660
  628MOL0     H86643   8.409   5.936  10.804 -0.4263  1.7499 -0.2029
  628MOL0     H86644   8.307   6.084   9.567  0.0753 -0.0964 -2.8831
  628MOL0     H86645   8.115   6.072   9.436 -2.4620 -0.7354 -0.1370
  628MOL0     H86646   7.753   5.696   9.311 -0.5544  0.5981  1.5413
  628MOL0     H86647   7.543   5.651   9.246  0.6096 -0.2767  2.3407
  628MOL0     H86648   7.566   4.405   8.094  0.0865  0.7266  1.7362
  628MOL0     H86649   7.451   4.193   8.065  0.7631  0.2257  1.1548
  628MOL0     H86650   6.862   4.023   8.025 -2.3580 -1.5846  1.0190
  628MOL0     H86651   6.777   3.810   7.931  0.2503  2.1123  0.7850
  628MOL0     H86652   6.733   3.569   7.853 -1.5847 -0.5116 -1.0499
  628MOL0     H86653   6.853   3.652   7.755  0.4903 -1.3511 -0.2338
  628MOL0     H86654   6.829   3.353   7.778 -2.4300 -0.0670 -2.6358
  628MOL0     H86655   6.967   3.424   7.713  0.5668 -0.5063 -0.6120
  628MOL0     H86656   6.698   3.478   7.594 -0.7308  0.9780  0.8809
  628MOL0     H86657   6.854   3.544   7.547 -2.4513 -1.4711 -3.6104
  628MOL0     H86658   6.935   3.309   7.504 -1.0983 -2.1316  1.8773
  628MOL0     H86659   6.806   3.366   7.403 -0.0647 -0.3737 -0.1960
  628MOL0     H86660   6.643   3.006   7.577  0.9258 -0.5640 -0.7432
  628MOL0     H86661   7.153   3.634   8.032  0.3894 -0.1281  0.4602
  628MOL0     H86662   7.337   3.760   8.095 -0.8979 -0.2867 -0.5536
  628MOL0     H86663   7.330   3.928   8.101  2.0315 -1.4085 -0.3421
  628MOL0     H86664   7.272   3.829   8.242 -1.0486  0.5289  0.5769
  629MOL0     O86665   9.302   5.124  11.100  0.3046  0.1651  0.2428
  629MOL0     C86666   9.368   5.221  11.070  0.0967 -0.0734  0.2162
  629MOL0     O86667   9.335   5.307  10.964  0.0701 -0.4752 -0.6292
  629MOL0     C86668   9.219   5.384  10.971 -0.6982 -0.1751 -0.3716
  629MOL0     C86669   9.194   5.470  10.858 -0.7930 -0.5957 -0.4987
  629MOL0     C86670   9.078   5.553  10.858 -0.2093 -0.3546  0.1420
  629MOL0     C86671   8.988   5.545  10.966  0.6421  0.1526  0.1879
  629MOL0     O86672   8.881   5.623  10.970  0.0829 -0.3062 -0.2861
  629MOL0     C86673   8.775   5.600  10.881 -0.0233  0.5931  0.7951
  629MOL0     C86674   8.659   5.698  10.889 -0.1073 -0.2804  0.7075
  629MOL0     C86675   8.605   5.698  11.036  0.8775  0.1978  0.3865
  629MOL0     C86676   8.505   5.806  11.071  1.2045 -0.4754  0.1126
  629MOL0     C86677   8.448   5.802  11.213  0.0827  0.1672 -0.1751
  629MOL0     C86678   8.354   5.671  11.234 -0.4632  0.3743  0.0938
  629MOL0     C86679   8.272   5.670  11.359 -0.4505 -0.1545 -1.6250
  629MOL0     C86680   8.137   5.745  11.333 -1.2477  0.1944 -0.0916
  629MOL0     N86681   8.069   5.765  11.462 -0.1098 -0.3989  0.2399
  629MOL0     C86682   8.043   5.677  11.568 -0.6390  0.0980 -0.0503
  629MOL0     C86683   8.022   5.754  11.671  0.4083  1.8856  0.0306
  629MOL0     C86684   7.994   5.695  11.809  0.0944 -0.3977 -0.8901
  629MOL0     C86685   7.847   5.662  11.819  0.3415 -0.9530  0.7044
  629MOL0     C86686   7.810   5.584  11.944 -0.2801  0.1220  0.3181
  629MOL0     C86687   7.668   5.528  11.955 -0.0652  0.2360  0.0508
  629MOL0     O86688   7.623   5.469  11.829 -0.1112  0.2294 -0.7581
  629MOL0     C86689   7.593   5.333  11.827  0.2392 -0.5478 -0.3973
  629MOL0     C86690   7.647   5.227  11.901  0.4335 -0.1576 -0.2330
  629MOL0     C86691   7.617   5.089  11.869  0.1079 -0.1746  1.1356
  629MOL0     C86692   7.692   4.976  11.943 -0.5061  0.1972 -0.2187
  629MOL0     C86693   7.532   5.053  11.757  0.4364 -0.3318  0.7045
  629MOL0     C86694   7.491   4.918  11.708 -0.2424  1.1852  0.2448
  629MOL0     O86695   7.575   4.819  11.738  1.2088 -0.0476  0.2649
  629MOL0     C86696   7.552   4.685  11.727 -0.5488  0.0882  0.3816
  629MOL0     C86697   7.521   4.614  11.851 -0.1784 -0.6549  0.6139
  629MOL0     C86698   7.500   4.475  11.847 -0.1660  0.4515 -0.7402
  629MOL0     C86699   7.504   4.404  11.735 -0.7399 -0.6975  1.2148
  629MOL0     O86700   7.481   4.266  11.753 -0.5769 -0.3303  0.0193
  629MOL0     C86701   7.444   4.185  11.644 -0.1735 -0.2246 -0.0573
  629MOL0     C86702   7.393   4.043  11.684  0.0314 -0.1355  0.4146
  629MOL0     C86703   7.394   3.937  11.568 -0.2093  0.2643 -0.5321
  629MOL0     C86704   7.340   3.979  11.432 -0.0676 -0.3931  0.0286
  629MOL0     C86705   7.349   3.874  11.331 -1.1799 -0.3341 -1.0962
  629MOL0     C86706   7.280   3.931  11.210  0.4993  1.2060  0.3238
  629MOL0     C86707   7.252   3.827  11.101 -0.1001  0.0005  0.8944
  629MOL0     C86708   7.242   3.890  10.956 -0.2958  0.2687  0.5210
  629MOL0    Cl86709   7.210   3.788  10.830 -0.2179  0.3059 -0.1913
  629MOL0     C86710   7.536   4.467  11.613  0.2478 -0.9020 -0.3042
  629MOL0     C86711   7.572   4.604  11.612  0.5318 -0.0203  0.1615
  629MOL0     O86712   7.390   4.911  11.637 -1.1032  0.0894 -0.3671
  629MOL0     C86713   7.466   5.160  11.694 -1.2156 -0.9189  0.4372
  629MOL0     C86714   7.495   5.294  11.731  0.1053 -0.4656 -0.6780
  629MOL0     N86715   8.011   5.881  11.629  0.5384 -0.5644  0.5563
  629MOL0     N86716   8.030   5.890  11.504 -0.5139 -0.1817  0.9035
  629MOL0     C86717   9.008   5.454  11.066  0.0234 -0.6870 -0.3405
  629MOL0     C86718   9.125   5.380  11.074  0.2556 -0.1461 -0.2262
  629MOL0     C86719   9.491   5.246  11.144 -0.9051 -0.1221 -0.8570
  629MOL0     C86720   9.543   5.380  11.134  0.0302  0.4130  0.8048
  629MOL0     C86721   9.657   5.408  11.216 -0.7218  0.7404  0.1929
  629MOL0     C86722   9.736   5.301  11.281  0.8024 -0.5284  0.0426
  629MOL0     O86723   9.850   5.334  11.348 -0.1976 -0.1173  0.1112
  629MOL0     C86724   9.951   5.402  11.261  1.7912  0.3583  0.2796
  629MOL0     C86725  10.013   5.334  11.131  0.1370  0.3012  1.0029
  629MOL0     C86726  10.133   5.228  11.168 -0.7727 -1.2564  0.0734
  629MOL0     C86727  10.089   5.120  11.269  0.4469 -0.1307 -0.8677
  629MOL0     C86728   9.978   5.036  11.228 -1.3405 -0.4437  0.2520
  629MOL0     C86729   9.879   4.981  11.187 -0.4962 -0.4803 -0.5956
  629MOL0     C86730   9.685   5.177  11.289 -0.1948  0.4136  0.1741
  629MOL0     C86731   9.562   5.145  11.223 -0.3469  0.6312 -0.4934
  629MOL0     C86732   9.500   5.013  11.265 -0.7330  0.4299  0.3688
  629MOL0     H86733   9.277   5.466  10.789 -1.2611 -2.4624 -1.0033
  629MOL0     H86734   9.068   5.622  10.775 -1.3604  0.2300  0.7424
  629MOL0     H86735   8.730   5.503  10.901  4.6575 -1.8786  0.7082
  629MOL0     H86736   8.802   5.599  10.775 -2.6804  1.9725  0.0088
  629MOL0     H86737   8.693   5.794  10.851 -3.3286  0.5013 -0.5931
  629MOL0     H86738   8.564   5.675  10.838  0.0179 -2.6365  1.4073
  629MOL0     H86739   8.560   5.601  11.059 -2.0437  0.9728 -1.3972
  629MOL0     H86740   8.695   5.711  11.096  0.3300  2.2649  0.8467
  629MOL0     H86741   8.550   5.905  11.067 -0.4979  0.2906 -1.1773
  629MOL0     H86742   8.425   5.798  10.997  1.9637 -2.6115 -0.5667
  629MOL0     H86743   8.382   5.888  11.203 -0.7327 -0.2817  1.2365
  629MOL0     H86744   8.528   5.800  11.288  1.0812 -1.3578 -1.2146
  629MOL0     H86745   8.290   5.658  11.147 -1.8956  1.8441  0.8713
  629MOL0     H86746   8.422   5.585  11.228 -0.9760  0.0781 -2.2048
  629MOL0     H86747   8.341   5.710  11.434  1.2133 -2.0193 -2.0809
  629MOL0     H86748   8.266   5.574  11.411  2.5946  2.1923  3.9995
  629MOL0     H86749   8.169   5.847  11.310  2.4862 -0.3949  1.7341
  629MOL0     H86750   8.082   5.694  11.254 -2.7186 -2.4310  2.4228
  629MOL0     H86751   8.061   5.571  11.552 -0.1110  0.2088 -0.2237
  629MOL0     H86752   8.018   5.775  11.880 -3.5164  0.7158 -0.7313
  629MOL0     H86753   8.052   5.605  11.834 -0.7810 -0.7994 -0.2977
  629MOL0     H86754   7.783   5.749  11.803 -1.6698 -1.8018  3.3658
  629MOL0     H86755   7.824   5.595  11.736 -0.9790  1.7235 -1.2302
  629MOL0     H86756   7.880   5.500  11.946  1.1160  1.1885 -1.0012
  629MOL0     H86757   7.825   5.649  12.031 -1.6398  1.0214 -0.0855
  629MOL0     H86758   7.661   5.457  12.038  2.1511  1.0171  0.9644
  629MOL0     H86759   7.602   5.613  11.973 -0.8384 -0.6983  1.9068
  629MOL0     H86760   7.723   5.243  11.977 -1.0000  0.8535  1.0437
  629MOL0     H86761   7.760   5.015  12.019  0.3310  0.2863 -0.9966
  629MOL0     H86762   7.758   4.926  11.872  4.0823  0.5473  3.3577
  629MOL0     H86763   7.634   4.896  11.991  1.7792  0.5649  3.5640
  629MOL0     H86764   7.515   4.675  11.940 -4.1105  2.8573 -1.6680
  629MOL0     H86765   7.475   4.421  11.938 -0.1610 -0.4565 -1.2774
  629MOL0     H86766   7.364   4.233  11.586  1.7296  2.1924 -0.8705
  629MOL0     H86767   7.524   4.177  11.570 -3.2524 -2.4013 -3.5300
  629MOL0     H86768   7.455   3.997  11.762  0.4973 -0.1731  0.0280
  629MOL0     H86769   7.290   4.050  11.722 -1.4370 -1.9078 -2.8281
  629MOL0     H86770   7.333   3.854  11.604  1.7727 -0.9400  0.2049
  629MOL0     H86771   7.494   3.895  11.555  0.2866  0.5341  1.9118
  629MOL0     H86772   7.377   4.079  11.407  1.4772  0.0171  3.3002
  629MOL0     H86773   7.232   3.997  11.425  0.3119  1.5839 -2.3620
  629MOL0     H86774   7.452   3.849  11.304  0.1023  3.3042 -0.1588
  629MOL0     H86775   7.298   3.781  11.357  1.7904 -1.5172  1.0805
  629MOL0     H86776   7.329   4.023  11.177 -2.7934  3.9053  2.3679
  629MOL0     H86777   7.178   3.963  11.234  0.5481 -0.7379  3.7099
  629MOL0     H86778   7.157   3.776  11.121  0.2920 -0.7491  0.9066
  629MOL0     H86779   7.333   3.753  11.105 -1.8060 -1.9550  1.4811
  629MOL0     H86780   7.328   3.955  10.936 -1.3409  1.1219 -1.4583
  629MOL0     H86781   7.158   3.960  10.960  1.1688  2.1736 -0.1962
  629MOL0     H86782   7.533   4.407  11.522 -1.1896 -2.4718  0.7245
  629MOL0     H86783   7.567   4.648  11.513  0.9648 -0.6273 -0.1355
  629MOL0     H86784   7.398   5.149  11.610 -0.3628 -2.7962 -0.0690
  629MOL0     H86785   7.448   5.376  11.677  0.7591 -0.4774 -1.2744
  629MOL0     H86786   8.932   5.462  11.143  3.1802  1.8544  2.8282
  629MOL0     H86787   9.150   5.325  11.164  0.0066  1.9273  1.1788
  629MOL0     H86788   9.503   5.456  11.067  1.1031  0.5619  0.3107
  629MOL0     H86789   9.711   5.502  11.221  1.0991 -0.1288 -1.7300
  629MOL0     H86790   9.920   5.505  11.242  0.2295 -0.2243 -0.4531
  629MOL0     H86791  10.032   5.419  11.333  1.7632 -1.3610  0.7615
  629MOL0     H86792  10.055   5.403  11.058 -0.0337  1.1534  1.6972
  629MOL0     H86793   9.930   5.290  11.075 -0.6707 -1.0627  3.1264
  629MOL0     H86794  10.159   5.184  11.071 -4.0677  1.0997 -2.0896
  629MOL0     H86795  10.217   5.287  11.205  0.3883 -2.6428 -0.2479
  629MOL0     H86796  10.054   5.168  11.361  0.2982  0.6833 -1.3377
  629MOL0     H86797  10.170   5.050  11.289  1.2460  0.2293 -2.7023
  629MOL0     H86798   9.804   4.911  11.158 -0.0525 -1.4611  0.5382
  629MOL0     H86799   9.727   5.111  11.365 -2.4872 -0.9873  0.3003
  629MOL0     H86800   9.453   4.966  11.178  0.5344  2.0122 -1.2691
  629MOL0     H86801   9.577   4.946  11.304 -3.3382 -3.2884 -0.3623
  629MOL0     H86802   9.423   5.020  11.341  0.6681 -1.7447  2.0973
  630MOL0     O86803   0.649  11.076  10.339 -0.6922  0.8815 -0.0732
  630MOL0     C86804   0.529  11.066  10.312  0.2978  0.2281 -0.2099
  630MOL0     O86805   0.469  10.954  10.289  0.4521  0.5173  0.5356
  630MOL0     C86806   0.522  10.850  10.208 -0.5346  0.0964 -0.7271
  630MOL0     C86807   0.653  10.842  10.156  0.1792 -0.2024  0.2591
  630MOL0     C86808   0.696  10.725  10.089 -0.4342  0.0120 -0.2563
  630MOL0     C86809   0.610  10.613  10.087  0.1699  0.0019 -0.2316
  630MOL0     O86810   0.643  10.493  10.045 -1.0586 -0.0213  0.0281
  630MOL0     C86811   0.777  10.448  10.085 -0.7564 -0.5262 -0.5956
  630MOL0     C86812   0.788  10.292  10.091 -0.0339 -0.3819 -0.7879
  630MOL0     C86813   0.729  10.248   9.956  0.6716  0.4820  0.5806
  630MOL0     C86814   0.742  10.099   9.954 -0.2257  0.9743  0.4563
  630MOL0     C86815   0.750  10.040   9.813  0.1690 -1.3381 -0.4757
  630MOL0     C86816   0.762   9.885   9.801  0.3902  0.0071 -0.5257
  630MOL0     C86817   0.723   9.843   9.661  0.0474  0.3018  0.6881
  630MOL0     C86818   0.731   9.688   9.644 -0.4639  0.2708 -0.6620
  630MOL0     N86819   0.671   9.642   9.517  0.5976  0.8901  0.0841
  630MOL0     C86820   0.720   9.540   9.432 -0.2247 -0.2847 -0.0365
  630MOL0     C86821   0.639   9.533   9.326 -0.0786 -0.2454  0.0178
  630MOL0     C86822   0.655   9.436   9.211 -0.6764 -0.8461 -0.1867
  630MOL0     C86823   0.529   9.355   9.173  0.5048 -0.3222 -0.6674
  630MOL0     C86824   0.550   9.272   9.052 -0.7048  0.1262 -0.8978
  630MOL0     C86825   0.439   9.170   9.014 -0.3835 -0.4202  0.1016
  630MOL0     O86826   0.315   9.250   8.998 -0.8931  0.1342 -0.4652
  630MOL0     C86827   0.200   9.190   8.977  1.1236  0.6079 -0.3026
  630MOL0     C86828   0.185   9.069   8.902 -0.9461  1.1977 -0.0496
  630MOL0     C86829   0.063   8.995   8.898  0.8044 -0.2245 -0.2450
  630MOL0     C86830   0.051   8.884   8.812 -0.0808  0.5825 -0.3438
  630MOL0     C86831  -0.048   9.059   8.958 -1.0220  0.1800  0.1554
  630MOL0     C86832  -0.185   9.000   8.961  0.9040  0.1717  1.4487
  630MOL0     O86833  -0.208   8.871   8.983 -0.3955 -0.4948  0.1737
  630MOL0     C86834  -0.333   8.822   8.982 -0.6628  0.7082 -1.0476
  630MOL0     C86835  -0.412   8.838   9.093  0.5388 -0.5184  0.0943
  630MOL0     C86836  -0.530   8.764   9.098 -0.0843  0.5260  0.4253
  630MOL0     C86837  -0.576   8.678   8.993  0.0082 -0.3027  0.7999
  630MOL0     O86838  -0.705   8.611   8.994  0.3817 -0.0642 -0.2524
  630MOL0     C86839  -0.791   8.623   9.106 -0.1026  0.6759  0.4299
  630MOL0     C86840  -0.929   8.555   9.072  0.4480 -0.0644 -0.8721
  630MOL0     C86841  -1.026   8.599   9.184 -0.4672 -0.4565  0.0076
  630MOL0     C86842  -1.074   8.745   9.160 -0.7134 -0.3069 -0.2985
  630MOL0     C86843  -1.138   8.802   9.289  0.0357 -0.1983  0.3656
  630MOL0     C86844  -1.168   8.946   9.276  0.7305 -0.3650 -0.0673
  630MOL0     C86845  -1.222   9.005   9.407 -0.2708  0.0199 -0.0732
  630MOL0     C86846  -1.372   8.971   9.409 -0.1187 -0.6531 -0.0575
  630MOL0    Cl86847  -1.472   9.108   9.466 -0.2872  0.4295  0.2634
  630MOL0     C86848  -0.496   8.676   8.878 -0.1838 -1.1108  0.7982
  630MOL0     C86849  -0.373   8.741   8.869 -0.6484 -0.5598 -1.2368
  630MOL0     O86850  -0.280   9.077   8.925  0.1674  0.4255 -0.0728
  630MOL0     C86851  -0.034   9.182   9.022  0.7484  0.0794 -0.1248
  630MOL0     C86852   0.090   9.245   9.027  0.0184 -0.8163 -0.3265
  630MOL0     N86853   0.539   9.622   9.337  0.5868  0.1654  0.5825
  630MOL0     N86854   0.559   9.694   9.446 -0.0657  0.2328 -0.8464
  630MOL0     C86855   0.478  10.628  10.128 -0.6733  0.8519 -0.1596
  630MOL0     C86856   0.441  10.737  10.196  0.6532 -0.7033  0.9860
  630MOL0     C86857   0.447  11.189  10.325  0.0855  0.3716 -0.9794
  630MOL0     C86858   0.313  11.181  10.294 -0.5462  0.1357 -0.2632
  630MOL0     C86859   0.229  11.285  10.297 -0.7620  0.2171  0.3546
  630MOL0     C86860   0.283  11.408  10.335  0.0916 -0.0818  0.6326
  630MOL0     O86861   0.191  11.504  10.310 -0.3236  0.2095 -0.4289
  630MOL0     C86862   0.218  11.638  10.353  0.3031  0.9443 -0.0880
  630MOL0     C86863   0.090  11.715  10.373 -0.2852  0.1205 -0.5031
  630MOL0     C86864   0.026  11.671  10.501 -0.4892 -0.3857 -0.7631
  630MOL0     C86865  -0.105  11.739  10.536 -0.0775  0.0900 -0.1428
  630MOL0     C86866  -0.213  11.696  10.451  0.0281 -0.3211  0.6119
  630MOL0     C86867  -0.316  11.662  10.384 -0.2736 -0.1789  0.0030
  630MOL0     C86868   0.417  11.426  10.363  1.2921 -0.3213 -0.7208
  630MOL0     C86869   0.501  11.319  10.361 -1.0267  0.5064 -0.5526
  630MOL0     C86870   0.647  11.355  10.370  0.2812  0.0862  0.0107
  630MOL0     H86871   0.718  10.928  10.168 -0.7609  0.6936 -0.9024
  630MOL0     H86872   0.799  10.720  10.055 -1.3495  0.5908 -3.4175
  630MOL0     H86873   0.802  10.486  10.184  1.3231 -2.0087 -0.4892
  630MOL0     H86874   0.850  10.489  10.015 -1.5922  2.9521  0.3639
  630MOL0     H86875   0.895  10.272  10.084 -0.1042 -1.8208  1.2996
  630MOL0     H86876   0.738  10.258  10.182 -5.2049  3.1629 -1.8449
  630MOL0     H86877   0.633  10.287   9.923  1.0162  1.0328  0.2274
  630MOL0     H86878   0.791  10.284   9.874  0.6159  0.0918  0.3630
  630MOL0     H86879   0.842  10.073   9.990 -0.8849 -2.0539  0.3520
  630MOL0     H86880   0.667  10.048  10.014  0.7668 -1.0788  0.0401
  630MOL0     H86881   0.838  10.087   9.770 -1.5056  1.1710 -1.3983
  630MOL0     H86882   0.659  10.067   9.759 -0.6328 -2.0143  0.4961
  630MOL0     H86883   0.864   9.851   9.823  1.0826  1.5200 -1.2402
  630MOL0     H86884   0.696   9.832   9.871  1.4653  1.6490  1.8905
  630MOL0     H86885   0.800   9.885   9.596 -0.5872  0.0074 -0.2702
  630MOL0     H86886   0.622   9.875   9.635  1.5436  4.0569 -1.2243
  630MOL0     H86887   0.840   9.677   9.639  0.0327  2.9997  1.8423
  630MOL0     H86888   0.695   9.635   9.733 -1.5601  1.4273 -0.3947
  630MOL0     H86889   0.799   9.468   9.453  1.6380  2.1039  1.6537
  630MOL0     H86890   0.733   9.364   9.238  0.1049  0.2924  0.6531
  630MOL0     H86891   0.693   9.505   9.135 -1.9884  1.1778  0.9172
  630MOL0     H86892   0.501   9.287   9.254  2.9866 -3.1446 -1.9641
  630MOL0     H86893   0.453   9.433   9.163 -0.0792 -0.6497  0.9040
  630MOL0     H86894   0.560   9.345   8.970  0.5429  1.0459  0.0403
  630MOL0     H86895   0.648   9.226   9.052 -0.2393  0.8465 -3.9342
  630MOL0     H86896   0.465   9.127   8.917 -0.3933  1.0726 -0.5960
  630MOL0     H86897   0.427   9.100   9.097  0.0525 -2.0216 -1.1510
  630MOL0     H86898   0.272   9.017   8.864  0.6239  2.4654  1.6097
  630MOL0     H86899   0.149   8.848   8.781 -0.4997  0.8174 -2.0428
  630MOL0     H86900   0.002   8.907   8.717 -1.6666  0.0848  0.3169
  630MOL0     H86901   0.010   8.795   8.861  3.2576  0.1817  2.1168
  630MOL0     H86902  -0.368   8.889   9.178  1.0621 -0.8402  0.0196
  630MOL0     H86903  -0.584   8.782   9.191  2.8685  1.6104  2.0712
  630MOL0     H86904  -0.739   8.576   9.190  3.2891  1.7248 -0.9276
  630MOL0     H86905  -0.808   8.729   9.127  0.5856  1.2184 -1.5154
  630MOL0     H86906  -0.965   8.610   8.985  0.0038  0.8427 -0.1298
  630MOL0     H86907  -0.927   8.448   9.052 -1.7817 -0.5272  0.9394
  630MOL0     H86908  -0.980   8.590   9.283  1.9151  2.3729 -0.7372
  630MOL0     H86909  -1.101   8.520   9.177 -0.3481 -0.5663 -0.0277
  630MOL0     H86910  -1.138   8.745   9.071  1.3087  0.3415 -1.8283
  630MOL0     H86911  -0.986   8.807   9.144 -0.3694 -1.2582 -2.4473
  630MOL0     H86912  -1.230   8.744   9.302  0.4445 -0.6628  1.2498
  630MOL0     H86913  -1.070   8.789   9.373 -0.0560  0.4897  0.5546
  630MOL0     H86914  -1.245   8.936   9.199  2.3067 -3.4499 -1.4225
  630MOL0     H86915  -1.088   9.010   9.238 -0.2498  1.3097  0.5627
  630MOL0     H86916  -1.204   9.112   9.415  1.5861 -0.2704  0.1788
  630MOL0     H86917  -1.179   8.954   9.495 -0.7873  1.4181  1.0274
  630MOL0     H86918  -1.398   8.891   9.478  0.8111 -0.7813  0.1559
  630MOL0     H86919  -1.410   8.937   9.312  1.9040 -2.2482 -0.3488
  630MOL0     H86920  -0.524   8.628   8.785  1.6281  0.1771 -0.5029
  630MOL0     H86921  -0.299   8.753   8.790 -0.0126  0.5930 -0.4933
  630MOL0     H86922  -0.108   9.250   9.063  1.7148  1.3503 -0.4285
  630MOL0     H86923   0.094   9.345   9.069 -1.3708  0.1526 -2.3303
  630MOL0     H86924   0.411  10.543  10.117  0.2943  0.1897 -1.1321
  630MOL0     H86925   0.343  10.755  10.239  0.5176  0.0660  0.3769
  630MOL0     H86926   0.274  11.085  10.262  3.5842 -2.6166  2.0691
  630MOL0     H86927   0.123  11.275  10.279 -0.2876  0.7368 -3.8714
  630MOL0     H86928   0.288  11.656  10.435  0.7147  0.8976 -0.4272
  630MOL0     H86929   0.274  11.692  10.276 -0.5991  0.8711 -0.8210
  630MOL0     H86930   0.028  11.689  10.286 -1.2296 -0.6809  0.3787
  630MOL0     H86931   0.109  11.823  10.373 -0.3488  0.4382  5.5013
  630MOL0     H86932   0.013  11.562  10.502 -0.8256 -0.3883 -2.5124
  630MOL0     H86933   0.092  11.687  10.587 -1.2482 -0.8017 -0.0740
  630MOL0     H86934  -0.091  11.847  10.537  0.3404  0.0720 -1.5315
  630MOL0     H86935  -0.143  11.717  10.636 -1.2262 -0.6519 -0.7232
  630MOL0     H86936  -0.404  11.640  10.326 -0.9692 -2.2717  1.7209
  630MOL0     H86937   0.454  11.528  10.374 -1.4801  0.4791  2.7547
  630MOL0     H86938   0.710  11.332  10.284 -3.0734 -0.9580 -2.3948
  630MOL0     H86939   0.667  11.459  10.398  2.2380 -0.7215  1.8751
  630MOL0     H86940   0.694  11.301  10.452  1.6568  2.7095  1.0862
  631MOL0     O86941   3.813   2.390  10.295 -0.6873  0.1252  0.4634
  631MOL0     C86942   3.728   2.304  10.272 -0.2051  1.0736  0.0349
  631MOL0     O86943   3.619   2.318  10.190 -0.5131  0.8956 -0.2182
  631MOL0     C86944   3.622   2.404  10.081 -0.4745  0.8867 -0.2289
  631MOL0     C86945   3.495   2.437  10.027  0.6568  0.0584 -0.8667
  631MOL0     C86946   3.489   2.501   9.901 -0.3961 -0.6361  0.2047
  631MOL0     C86947   3.612   2.546   9.834 -0.4529  0.0341 -0.8958
  631MOL0     O86948   3.608   2.626   9.716 -0.1034  0.0924 -2.1126
  631MOL0     C86949   3.691   2.587   9.604  0.7858 -0.1398 -0.3290
  631MOL0     C86950   3.636   2.664   9.487 -0.1480 -0.5741 -0.1058
  631MOL0     C86951   3.646   2.816   9.510 -0.7119 -0.8384  0.8327
  631MOL0     C86952   3.609   2.898   9.386  0.4095  0.1711 -0.4101
  631MOL0     C86953   3.625   3.045   9.404  0.6414 -0.2356 -0.7055
  631MOL0     C86954   3.583   3.124   9.277  0.6493  0.3422  0.3326
  631MOL0     C86955   3.633   3.269   9.295 -0.4808 -0.6129  0.0020
  631MOL0     C86956   3.611   3.329   9.443 -0.7724  0.0330  0.1281
  631MOL0     N86957   3.624   3.475   9.436  0.5108 -0.2278  0.4561
  631MOL0     C86958   3.700   3.545   9.527 -0.3410 -0.4958  0.4302
  631MOL0     C86959   3.695   3.674   9.490 -0.9031 -0.7434 -0.0981
  631MOL0     C86960   3.755   3.798   9.565  0.6853  0.7076  0.1291
  631MOL0     C86961   3.891   3.846   9.519  0.2036 -0.1734  0.5599
  631MOL0     C86962   3.994   3.746   9.571 -0.3137  0.6870  0.2162
  631MOL0     C86963   4.130   3.787   9.510 -0.9466  0.3824 -0.1366
  631MOL0     O86964   4.209   3.666   9.524 -0.2114  0.1067 -0.5812
  631MOL0     C86965   4.345   3.666   9.491 -0.2003 -0.5431  0.8267
  631MOL0     C86966   4.410   3.773   9.426  0.3170 -0.2033 -0.5863
  631MOL0     C86967   4.555   3.772   9.424  0.3744  0.3324 -0.2216
  631MOL0     C86968   4.616   3.905   9.369 -0.5865  0.2332 -0.4152
  631MOL0     C86969   4.632   3.662   9.479 -0.0479 -0.1840  0.3511
  631MOL0     C86970   4.776   3.643   9.494 -1.0999  0.0931 -0.3782
  631MOL0     O86971   4.822   3.515   9.495 -0.2077  0.0187  0.4352
  631MOL0     C86972   4.951   3.476   9.510  0.0808 -1.2725 -0.4017
  631MOL0     C86973   5.010   3.494   9.640 -0.7704  0.1063  0.0937
  631MOL0     C86974   5.141   3.452   9.660 -0.1870 -0.4113  0.5849
  631MOL0     C86975   5.217   3.386   9.568 -0.2859  0.7165  0.4027
  631MOL0     O86976   5.346   3.354   9.593 -1.1766 -0.4297  0.3104
  631MOL0     C86977   5.433   3.471   9.577 -0.6247  0.0314 -0.6065
  631MOL0     C86978   5.547   3.430   9.478 -0.6348 -0.2074 -1.0582
  631MOL0     C86979   5.490   3.395   9.337 -0.2316  0.1223 -0.8449
  631MOL0     C86980   5.605   3.322   9.264  1.5478 -0.4335  0.5571
  631MOL0     C86981   5.631   3.174   9.317  0.3557 -0.7609  0.1025
  631MOL0     C86982   5.698   3.095   9.203  0.4859  0.2027  0.7611
  631MOL0     C86983   5.716   2.944   9.242  0.5687  0.2068  0.0554
  631MOL0     C86984   5.573   2.878   9.259 -0.1056  0.3279 -1.0781
  631MOL0    Cl86985   5.504   2.873   9.091  0.0222 -0.4516 -0.2460
  631MOL0     C86986   5.158   3.374   9.445  0.6251  0.1043  0.4644
  631MOL0     C86987   5.028   3.422   9.412 -0.0134  0.4807  0.9145
  631MOL0     O86988   4.846   3.747   9.500  0.9080  0.0069 -0.4450
  631MOL0     C86989   4.561   3.554   9.534 -0.1173  0.0042  0.1653
  631MOL0     C86990   4.423   3.558   9.535 -0.4758  0.9404  0.3788
  631MOL0     N86991   3.632   3.686   9.367 -0.3955  0.4752 -0.6908
  631MOL0     N86992   3.586   3.558   9.341  0.3741 -0.4599  0.6886
  631MOL0     C86993   3.733   2.496   9.876  0.2585 -0.5289 -0.4457
  631MOL0     C86994   3.739   2.429  10.003  0.6340 -0.3793  0.1817
  631MOL0     C86995   3.743   2.176  10.341 -0.5376  0.5892 -0.1566
  631MOL0     C86996   3.863   2.150  10.414  0.6320 -0.2451 -0.2655
  631MOL0     C86997   3.891   2.027  10.484 -0.1009  0.1930  0.4442
  631MOL0     C86998   3.795   1.928  10.487 -0.6649  0.4382  0.2415
  631MOL0     O86999   3.833   1.802  10.531  0.0553 -0.5656 -0.6678
  631MOL0     C87000   3.973   1.772  10.564 -1.2693  0.1075 -0.0295
  631MOL0     C87001   3.993   1.616  10.569 -0.3079  0.2205 -0.2747
  631MOL0     C87002   3.961   1.549  10.705 -0.2901 -0.3406 -0.1667
  631MOL0     C87003   4.072   1.577  10.805 -0.2824  0.1591 -0.9688
  631MOL0     C87004   4.045   1.499  10.930  0.4963  0.5930  0.0243
  631MOL0     C87005   4.019   1.428  11.025 -0.9907  0.3528 -0.0334
  631MOL0     C87006   3.668   1.954  10.433 -0.6208 -0.8811  0.7360
  631MOL0     C87007   3.639   2.078  10.367 -0.1766  0.1438 -0.3476
  631MOL0     C87008   3.502   2.106  10.323  0.2046  0.1231  0.3338
  631MOL0     H87009   3.410   2.402  10.084  0.0698 -0.2885 -1.9228
  631MOL0     H87010   3.396   2.531   9.854 -0.7792 -0.0718  1.2780
  631MOL0     H87011   3.678   2.479   9.590 -0.6671  0.1042 -1.0944
  631MOL0     H87012   3.794   2.614   9.629  0.4703 -0.1323  1.0586
  631MOL0     H87013   3.693   2.640   9.397  1.7615 -0.6825  1.0887
  631MOL0     H87014   3.530   2.640   9.473  0.2935 -3.2988  0.6670
  631MOL0     H87015   3.577   2.849   9.588 -0.0174 -0.9405  1.5025
  631MOL0     H87016   3.749   2.842   9.536 -0.5187  1.5398 -1.8751
  631MOL0     H87017   3.675   2.868   9.304  0.7590  3.1524 -1.3221
  631MOL0     H87018   3.504   2.871   9.374 -0.1530  1.1196  1.8192
  631MOL0     H87019   3.725   3.070   9.440  0.8924 -2.9496  0.7427
  631MOL0     H87020   3.563   3.082   9.487  1.5957  1.0257 -0.5154
  631MOL0     H87021   3.614   3.082   9.181 -2.5268  0.2356 -0.7363
  631MOL0     H87022   3.475   3.121   9.290  0.1317  3.8990 -1.7097
  631MOL0     H87023   3.583   3.330   9.219 -0.0013 -0.4727 -0.2039
  631MOL0     H87024   3.739   3.275   9.268 -0.1973  1.7438  1.3277
  631MOL0     H87025   3.516   3.296   9.486  0.3146  0.4483  3.0376
  631MOL0     H87026   3.692   3.290   9.505  1.7853  0.9846 -2.3685
  631MOL0     H87027   3.765   3.511   9.607  1.5940 -0.9078 -1.1962
  631MOL0     H87028   3.776   3.770   9.669  3.3030  0.5312 -0.3762
  631MOL0     H87029   3.684   3.881   9.563 -1.7706 -1.3030 -0.0553
  631MOL0     H87030   3.888   3.860   9.411  0.4317  0.2322  0.6057
  631MOL0     H87031   3.909   3.944   9.564  1.3138  0.6699 -1.6062
  631MOL0     H87032   3.999   3.735   9.679 -1.9918  0.4406  0.2926
  631MOL0     H87033   3.978   3.646   9.530  0.7651  0.5214  0.1794
  631MOL0     H87034   4.136   3.826   9.408 -1.8463 -1.4064 -0.9223
  631MOL0     H87035   4.183   3.855   9.577  1.7499 -0.1209 -1.6341
  631MOL0     H87036   4.360   3.855   9.375 -0.2889 -1.0345 -1.3543
  631MOL0     H87037   4.655   3.967   9.451  2.4940 -2.3527  0.2838
  631MOL0     H87038   4.550   3.960   9.301  0.1852  0.5291 -0.9483
  631MOL0     H87039   4.698   3.879   9.301 -0.3611  0.9291 -0.4191
  631MOL0     H87040   4.952   3.546   9.715 -1.3172 -0.2099 -0.0993
  631MOL0     H87041   5.185   3.466   9.758 -2.7344 -0.4783  1.8334
  631MOL0     H87042   5.395   3.565   9.536 -1.0279  0.9261  1.6420
  631MOL0     H87043   5.481   3.497   9.672 -0.7954  0.7749 -0.7143
  631MOL0     H87044   5.625   3.506   9.464  0.3571 -1.3978 -2.3597
  631MOL0     H87045   5.601   3.348   9.526 -2.5071 -0.1955  1.2575
  631MOL0     H87046   5.462   3.483   9.279  0.0839  1.3187  0.7572
  631MOL0     H87047   5.404   3.329   9.352 -1.1062  1.6674  1.6641
  631MOL0     H87048   5.698   3.380   9.260  1.9030 -1.0602 -0.8557
  631MOL0     H87049   5.569   3.319   9.160  2.6284  0.1690  0.1529
  631MOL0     H87050   5.692   3.177   9.408  1.6445  6.4266 -0.3606
  631MOL0     H87051   5.531   3.133   9.333  0.7128 -1.7871 -0.2461
  631MOL0     H87052   5.789   3.152   9.183  0.8684 -0.2167  1.2707
  631MOL0     H87053   5.640   3.087   9.111  0.3602 -0.6439  0.9045
  631MOL0     H87054   5.763   2.934   9.340 -3.1875 -3.4960  1.7793
  631MOL0     H87055   5.764   2.887   9.161  0.1931 -0.5051  0.3217
  631MOL0     H87056   5.520   2.940   9.332  0.3337  0.3593 -0.7846
  631MOL0     H87057   5.564   2.775   9.293  0.2227  0.8222  0.6316
  631MOL0     H87058   5.204   3.315   9.367 -0.9513 -1.8508  0.9351
  631MOL0     H87059   4.994   3.382   9.317 -0.9765 -0.6972  1.7227
  631MOL0     H87060   4.600   3.475   9.596 -1.0960  0.3198  1.2238
  631MOL0     H87061   4.369   3.489   9.599 -1.5321 -1.0175 -2.3903
  631MOL0     H87062   3.821   2.526   9.820 -0.9849  1.2870 -1.5394
  631MOL0     H87063   3.836   2.383  10.020  0.6959 -1.0068 -1.5822
  631MOL0     H87064   3.936   2.230  10.415 -0.4872  0.8716 -2.3783
  631MOL0     H87065   3.987   2.020  10.533 -0.6239 -1.1480  1.3067
  631MOL0     H87066   4.043   1.813  10.490 -0.9094 -0.2126  0.1327
  631MOL0     H87067   3.998   1.818  10.659  0.7734 -0.3212 -0.3144
  631MOL0     H87068   4.098   1.590  10.552  0.7639  3.3612  0.7894
  631MOL0     H87069   3.931   1.560  10.498 -0.0733 -0.4625  0.0570
  631MOL0     H87070   3.867   1.591  10.742 -0.4309  0.1185 -1.0121
  631MOL0     H87071   3.948   1.440  10.701  2.6590 -0.8698  1.4362
  631MOL0     H87072   4.081   1.681  10.836 -2.2732  0.5765 -1.7008
  631MOL0     H87073   4.166   1.551  10.755  1.0361  2.1012  0.3268
  631MOL0     H87074   4.015   1.358  11.106  2.0933 -1.6690 -1.4486
  631MOL0     H87075   3.588   1.884  10.458 -0.9856 -0.2450  1.3785
  631MOL0     H87076   3.430   2.035  10.367 -1.8451  0.9860 -1.4426
  631MOL0     H87077   3.461   2.205  10.343  0.4944  0.2221  0.4342
  631MOL0     H87078   3.499   2.085  10.216 -3.0001 -0.5811  0.4537
  632MOL0     O87079   2.101   9.130   1.804 -0.0321 -0.3965 -0.3184
  632MOL0     C87080   2.014   9.204   1.847 -0.4799 -0.3421 -0.7337
  632MOL0     O87081   1.952   9.308   1.774 -0.4913  0.2112  0.9661
  632MOL0     C87082   1.996   9.313   1.645 -0.6105 -0.2875  0.6102
  632MOL0     C87083   1.920   9.260   1.537 -0.4120  0.2530  0.1034
  632MOL0     C87084   1.946   9.290   1.400 -0.0163  0.3086  0.0203
  632MOL0     C87085   2.063   9.375   1.376 -0.7432  0.9771  1.2950
  632MOL0     O87086   2.099   9.422   1.251 -0.1031  0.3089  0.0405
  632MOL0     C87087   2.054   9.352   1.138  0.4275  0.0464  0.3559
  632MOL0     C87088   2.041   9.445   1.017 -0.7043  0.5430  0.0882
  632MOL0     C87089   2.008   9.361   0.890  0.2164  0.3642  0.1359
  632MOL0     C87090   1.879   9.281   0.890 -0.4343  0.6494 -0.2929
  632MOL0     C87091   1.849   9.210   0.757  0.4330 -0.0960  0.2801
  632MOL0     C87092   1.726   9.112   0.758  0.2619 -0.0964 -0.3263
  632MOL0     C87093   1.664   9.102   0.620  0.0872 -0.8508 -0.0372
  632MOL0     C87094   1.750   9.023   0.515 -0.1986  0.2289 -0.4007
  632MOL0     N87095   1.874   9.076   0.462 -0.3869 -0.5666 -0.2982
  632MOL0     C87096   1.896   9.201   0.412  1.0590 -0.4073  0.1558
  632MOL0     C87097   2.025   9.211   0.377  0.3676  0.0290 -0.3812
  632MOL0     C87098   2.111   9.327   0.331  0.7089  0.4666 -0.0261
  632MOL0     C87099   2.213   9.388   0.427  0.4812  0.5805  0.4591
  632MOL0     C87100   2.305   9.502   0.370  0.5335  0.0037  0.8884
  632MOL0     C87101   2.432   9.555   0.448 -0.2323  1.2466  0.0192
  632MOL0     O87102   2.528   9.458   0.430  0.2916  0.4313  0.4247
  632MOL0     C87103   2.654   9.484   0.475 -0.7892 -0.1146 -0.0603
  632MOL0     C87104   2.745   9.377   0.456  0.6362 -0.2319  0.3600
  632MOL0     C87105   2.883   9.391   0.503  0.5309 -0.4386 -0.3917
  632MOL0     C87106   2.978   9.270   0.502  0.3737 -0.1309 -0.0872
  632MOL0     C87107   2.919   9.519   0.555  0.4432  0.1765  0.0685
  632MOL0     C87108   3.048   9.554   0.615  0.4328 -0.0918  0.4694
  632MOL0     O87109   3.108   9.663   0.565  0.4427 -0.3566 -0.3765
  632MOL0     C87110   3.236   9.705   0.610 -0.6707 -0.3201  0.5928
  632MOL0     C87111   3.334   9.612   0.667 -0.1651 -0.4859 -0.7263
  632MOL0     C87112   3.450   9.673   0.717 -0.8025  0.5336 -0.2126
  632MOL0     C87113   3.481   9.804   0.706 -0.3958  0.4672  0.5788
  632MOL0     O87114   3.611   9.861   0.719  0.8782  0.0525  0.2615
  632MOL0     C87115   3.729   9.782   0.723  0.3196  0.3216 -0.0673
  632MOL0     C87116   3.846   9.890   0.743  0.1761  0.4002  0.7183
  632MOL0     C87117   3.860  10.004   0.633 -0.0247  0.4313 -0.2438
  632MOL0     C87118   4.001  10.044   0.599 -0.7054 -0.5448  0.5867
  632MOL0     C87119   4.018  10.158   0.496 -0.3485 -0.4153  0.1975
  632MOL0     C87120   4.165  10.163   0.441  0.5080 -0.4098  0.0517
  632MOL0     C87121   4.178  10.093   0.304 -0.5333  0.5179  0.0682
  632MOL0     C87122   4.318  10.116   0.248 -0.1883  0.0339  0.4003
  632MOL0    Cl87123   4.319  10.286   0.217 -0.3742  0.5545 -0.5296
  632MOL0     C87124   3.381   9.883   0.659  1.1382  0.1975 -0.7318
  632MOL0     C87125   3.259   9.838   0.599 -1.3304 -0.8277  0.2013
  632MOL0     O87126   3.089   9.487   0.706  0.6683  0.8656 -0.1911
  632MOL0     C87127   2.818   9.623   0.561 -0.4264 -0.0338  0.4356
  632MOL0     C87128   2.691   9.607   0.525  0.1814  0.1622 -0.1803
  632MOL0     N87129   2.078   9.085   0.393 -0.1172  0.5092  0.4545
  632MOL0     N87130   1.990   9.010   0.448 -0.1638 -0.2817 -0.0113
  632MOL0     C87131   2.144   9.415   1.484 -0.0785 -0.5797 -0.1391
  632MOL0     C87132   2.123   9.370   1.616 -0.4404 -0.2321 -0.0488
  632MOL0     C87133   1.975   9.172   1.986 -0.0349  0.9212 -0.5664
  632MOL0     C87134   1.977   9.036   2.024  0.3764 -0.2520 -1.0880
  632MOL0     C87135   1.926   8.997   2.147  0.7964 -0.7117 -0.6830
  632MOL0     C87136   1.865   9.090   2.235 -1.1856  0.0639 -0.4525
  632MOL0     O87137   1.829   9.064   2.358  1.0595  1.0591 -0.1522
  632MOL0     C87138   1.842   8.933   2.423 -0.4055  0.5066 -0.5631
  632MOL0     C87139   1.764   8.942   2.556 -0.0415 -0.2329 -0.9778
  632MOL0     C87140   1.826   9.053   2.643 -0.5110 -0.2541  0.3648
  632MOL0     C87141   1.810   9.023   2.788 -0.2840 -0.6294  0.0884
  632MOL0     C87142   1.877   9.123   2.871 -0.1013  0.0001  1.6000
  632MOL0     C87143   1.928   9.216   2.941  0.6637  0.8540  0.9716
  632MOL0     C87144   1.855   9.224   2.196 -0.4760  0.6022  0.0625
  632MOL0     C87145   1.913   9.266   2.071  0.0774  0.5747  0.2146
  632MOL0     C87146   1.919   9.417   2.036  0.2764  0.6079  0.3464
  632MOL0     H87147   1.829   9.204   1.557 -1.2210  2.5145  3.7922
  632MOL0     H87148   1.866   9.268   1.331 -0.4148  0.1530  0.5234
  632MOL0     H87149   1.956   9.304   1.147 -0.2150  0.5811 -2.5557
  632MOL0     H87150   2.135   9.289   1.101 -0.6508  0.5166 -3.2418
  632MOL0     H87151   1.963   9.520   1.033 -0.2634  1.1237 -0.4232
  632MOL0     H87152   2.138   9.495   1.006  0.5516 -1.8660 -0.5451
  632MOL0     H87153   2.000   9.434   0.809 -1.1921 -0.0803 -0.1446
  632MOL0     H87154   2.095   9.299   0.865  0.5340 -0.0382  2.0567
  632MOL0     H87155   1.885   9.200   0.963  0.1018 -1.3268 -2.4146
  632MOL0     H87156   1.796   9.349   0.912 -2.0954 -1.4027  0.1104
  632MOL0     H87157   1.932   9.141   0.741  0.9831  0.7045 -0.3781
  632MOL0     H87158   1.845   9.287   0.680 -0.9732 -0.4879 -0.0603
  632MOL0     H87159   1.763   9.012   0.784  0.8318  0.5411  1.5033
  632MOL0     H87160   1.652   9.154   0.826  3.0061  1.1676  2.1057
  632MOL0     H87161   1.639   9.197   0.571 -3.6926 -1.5355  0.3044
  632MOL0     H87162   1.571   9.047   0.637  1.6009 -3.3335  0.6649
  632MOL0     H87163   1.774   8.926   0.558 -0.9195  0.0301 -0.4365
  632MOL0     H87164   1.685   9.008   0.428  0.6329 -1.9254 -0.7031
  632MOL0     H87165   1.826   9.284   0.421  0.9958 -0.3484 -0.7813
  632MOL0     H87166   2.034   9.400   0.305  2.9380  1.4338 -5.3626
  632MOL0     H87167   2.158   9.302   0.235  0.9017  1.5622 -0.2230
  632MOL0     H87168   2.164   9.431   0.515  3.3210  2.2335  1.3335
  632MOL0     H87169   2.286   9.316   0.466  1.8058  3.1204  2.9546
  632MOL0     H87170   2.334   9.477   0.268  0.6688  0.7070  0.7505
  632MOL0     H87171   2.238   9.587   0.354 -0.0376 -0.8906 -1.9127
  632MOL0     H87172   2.459   9.656   0.415 -1.5433  1.4208 -0.5877
  632MOL0     H87173   2.407   9.545   0.554  0.8820 -0.7957  0.1377
  632MOL0     H87174   2.714   9.287   0.405  1.1024 -0.3065  0.1996
  632MOL0     H87175   3.077   9.305   0.534  0.9147 -1.2235 -0.5087
  632MOL0     H87176   2.988   9.240   0.398 -0.3660  1.3808 -0.6148
  632MOL0     H87177   2.945   9.190   0.569  0.7357 -0.4870 -0.3310
  632MOL0     H87178   3.304   9.509   0.680  2.8489 -1.1044  3.4287
  632MOL0     H87179   3.528   9.608   0.756 -2.1051 -0.7583  0.3230
  632MOL0     H87180   3.718   9.702   0.796 -2.1198 -1.4866 -2.2102
  632MOL0     H87181   3.735   9.728   0.628  0.3325 -0.1431  0.1974
  632MOL0     H87182   3.843   9.938   0.842  1.1226 -2.0172  2.0187
  632MOL0     H87183   3.942   9.839   0.745  1.2141  2.2506  0.2066
  632MOL0     H87184   3.810  10.094   0.671 -1.1719  0.3787 -1.5268
  632MOL0     H87185   3.820   9.968   0.537 -0.6838  0.2120  0.1091
  632MOL0     H87186   4.065   9.964   0.560  0.9298  1.2118 -0.5088
  632MOL0     H87187   4.044  10.076   0.694  2.2005  1.0862 -1.1201
  632MOL0     H87188   3.940  10.157   0.420 -0.5326  3.8928  0.0811
  632MOL0     H87189   4.009  10.252   0.552  0.4279 -1.7916  2.7968
  632MOL0     H87190   4.226  10.112   0.516 -2.0232 -3.1675  0.4523
  632MOL0     H87191   4.182  10.266   0.407  0.3837 -1.6516 -4.5261
  632MOL0     H87192   4.116  10.133   0.223 -2.4353  0.4636  1.4387
  632MOL0     H87193   4.170   9.985   0.320  0.6636  0.4019 -0.0438
  632MOL0     H87194   4.333  10.053   0.160 -0.0849 -0.5537  0.8290
  632MOL0     H87195   4.392  10.104   0.327 -1.4604  1.5335  1.9001
  632MOL0     H87196   3.384   9.991   0.653 -0.0405  0.2681 -0.3336
  632MOL0     H87197   3.194   9.916   0.561 -0.5475  0.8664  2.1788
  632MOL0     H87198   2.857   9.714   0.606  4.2560 -1.7749  0.4900
  632MOL0     H87199   2.617   9.686   0.536  0.5002  0.5997 -1.0349
  632MOL0     H87200   2.227   9.480   1.461 -1.9581  0.9570 -3.1819
  632MOL0     H87201   2.200   9.398   1.687 -0.3216 -0.1893 -0.1942
  632MOL0     H87202   2.017   8.956   1.963 -0.6018 -0.3031 -1.6864
  632MOL0     H87203   1.942   8.893   2.170 -0.7779 -1.3580 -2.3303
  632MOL0     H87204   1.789   8.853   2.370  2.8924 -2.2910 -0.0307
  632MOL0     H87205   1.947   8.902   2.428 -0.9617 -1.4285  0.5522
  632MOL0     H87206   1.781   8.849   2.610  0.6795 -1.4576 -3.1850
  632MOL0     H87207   1.657   8.958   2.545  0.1297  1.8620 -0.1700
  632MOL0     H87208   1.934   9.057   2.622 -0.4601 -0.9070  0.4954
  632MOL0     H87209   1.789   9.152   2.616 -3.5416 -0.7633  2.1863
  632MOL0     H87210   1.849   8.922   2.802  0.7955  0.0578  2.5709
  632MOL0     H87211   1.701   9.025   2.800 -0.2306  1.6000  0.5616
  632MOL0     H87212   1.962   9.293   3.009 -1.5725 -0.9117  4.3533
  632MOL0     H87213   1.815   9.291   2.272  1.3367 -1.7559  3.3840
  632MOL0     H87214   1.947   9.457   2.134 -3.5453 -1.0723  2.3244
  632MOL0     H87215   1.995   9.446   1.963  0.9016 -1.6721  0.0387
  632MOL0     H87216   1.824   9.456   1.999 -1.3165 -1.1263  2.3982
  633MOL0     O87217   1.208   1.197   4.686  0.3012 -0.2556 -0.0520
  633MOL0     C87218   1.099   1.140   4.660  0.0490 -0.0656 -0.0800
  633MOL0     O87219   1.026   1.140   4.543 -1.1028 -0.4179 -0.2609
  633MOL0     C87220   1.035   1.245   4.453  0.1988  0.1792 -0.1348
  633MOL0     C87221   0.983   1.238   4.329  0.1714  0.5772 -0.4266
  633MOL0     C87222   0.979   1.343   4.239  0.4601  0.1947 -0.1676
  633MOL0     C87223   1.014   1.470   4.278  0.1778 -0.9481  0.3169
  633MOL0     O87224   0.975   1.579   4.205 -0.7419 -0.0779  0.4783
  633MOL0     C87225   0.874   1.667   4.263  0.5826  0.4202  0.3498
  633MOL0     C87226   0.821   1.765   4.162 -0.6613  0.7581 -0.7374
  633MOL0     C87227   0.746   1.870   4.235  0.2383 -0.6403  0.7661
  633MOL0     C87228   0.696   1.965   4.134  0.9814 -0.1281 -0.2610
  633MOL0     C87229   0.800   2.056   4.081  0.2226 -0.2805 -1.3734
  633MOL0     C87230   0.759   2.200   4.054  0.0189  0.0876 -0.1085
  633MOL0     C87231   0.638   2.209   3.955  0.4218 -0.5500 -0.5743
  633MOL0     C87232   0.586   2.349   3.955 -1.1099 -0.3586 -0.2836
  633MOL0     N87233   0.507   2.374   3.834  1.8294 -0.0553 -0.5691
  633MOL0     C87234   0.534   2.331   3.711  1.2179 -0.4239  0.2844
  633MOL0     C87235   0.427   2.375   3.633  0.1816  0.2395  0.9610
  633MOL0     C87236   0.417   2.332   3.489 -0.6339 -0.9190  0.0987
  633MOL0     C87237   0.359   2.192   3.469 -0.2628  0.1908  0.6689
  633MOL0     C87238   0.463   2.092   3.410 -0.0031 -0.1116 -0.1131
  633MOL0     C87239   0.448   1.955   3.479 -0.0162 -0.1568  0.6973
  633MOL0     O87240   0.473   1.945   3.620  0.4259 -0.1190 -0.4246
  633MOL0     C87241   0.410   1.849   3.693 -0.5150  0.3430  0.7440
  633MOL0     C87242   0.435   1.716   3.681 -0.2692  0.7442 -0.1702
  633MOL0     C87243   0.348   1.614   3.740  0.0266  0.0140  0.4163
  633MOL0     C87244   0.377   1.477   3.698 -0.7113  0.7665  0.4844
  633MOL0     C87245   0.240   1.661   3.823  0.0648  0.3924  0.0995
  633MOL0     C87246   0.143   1.569   3.890  0.6714 -0.2471  0.6816
  633MOL0     O87247   0.048   1.640   3.955  0.3064  0.2904  0.1529
  633MOL0     C87248  -0.033   1.589   4.050  0.9542 -1.2818  0.2911
  633MOL0     C87249   0.018   1.554   4.177  1.0040 -0.0938  0.3294
  633MOL0     C87250  -0.063   1.507   4.281  0.1225  0.5813  0.3575
  633MOL0     C87251  -0.204   1.508   4.263 -0.3288  0.0589  0.3738
  633MOL0     O87252  -0.279   1.485   4.375  0.1777  0.1417  0.7644
  633MOL0     C87253  -0.404   1.422   4.356 -0.0551  0.2965  0.1972
  633MOL0     C87254  -0.445   1.352   4.487  0.6041 -1.3721 -0.6354
  633MOL0     C87255  -0.598   1.339   4.487 -0.0864 -0.4403  0.1985
  633MOL0     C87256  -0.645   1.251   4.610 -0.3638 -0.4866 -0.1812
  633MOL0     C87257  -0.775   1.275   4.670  0.4242 -0.5470  1.6237
  633MOL0     C87258  -0.805   1.204   4.801 -0.4398  0.4528  0.6508
  633MOL0     C87259  -0.916   1.259   4.886 -0.7864 -0.5231  0.2164
  633MOL0     C87260  -0.962   1.166   4.999  0.4106  0.3547 -0.7306
  633MOL0    Cl87261  -0.985   0.999   4.937  0.4807 -0.2408 -0.1250
  633MOL0     C87262  -0.256   1.542   4.135 -0.0932  0.5009 -0.0918
  633MOL0     C87263  -0.173   1.587   4.029 -0.9886  0.0746 -0.2234
  633MOL0     O87264   0.161   1.448   3.903  0.0751 -0.0587 -0.6762
  633MOL0     C87265   0.225   1.805   3.828  0.6034  0.0524  0.0801
  633MOL0     C87266   0.309   1.895   3.773  0.0827  0.0336  1.2414
  633MOL0     N87267   0.337   2.427   3.717  0.5438  0.4850 -0.3250
  633MOL0     N87268   0.376   2.419   3.837  0.0100  0.7860 -0.1318
  633MOL0     C87269   1.091   1.483   4.393  0.3253 -0.7136  0.6730
  633MOL0     C87270   1.092   1.371   4.480 -0.6684  0.4881  0.1966
  633MOL0     C87271   1.075   1.028   4.748 -0.3732 -0.0658  0.7469
  633MOL0     C87272   1.131   0.901   4.720  0.3890  0.3194  0.1598
  633MOL0     C87273   1.112   0.800   4.813  0.6840  0.1546 -1.4218
  633MOL0     C87274   1.030   0.815   4.931  0.0827  0.4843  0.3033
  633MOL0     O87275   1.004   0.700   5.003 -0.3436 -0.3888 -0.0635
  633MOL0     C87276   0.927   0.718   5.121 -0.2136  0.1497  1.0381
  633MOL0     C87277   0.879   0.589   5.173  0.4942 -0.0268  0.6182
  633MOL0     C87278   0.787   0.522   5.078 -1.3186 -0.2109  0.7354
  633MOL0     C87279   0.695   0.429   5.148  0.5946  0.5279 -0.7259
  633MOL0     C87280   0.770   0.306   5.175  1.1339  0.5244  0.7832
  633MOL0     C87281   0.841   0.207   5.174  0.0917  1.3563  0.1177
  633MOL0     C87282   0.979   0.936   4.950 -0.7178 -0.3917 -0.8508
  633MOL0     C87283   1.003   1.046   4.864 -0.5434 -0.3141 -0.1690
  633MOL0     C87284   0.945   1.186   4.897 -0.5648  0.9274 -0.3342
  633MOL0     H87285   0.936   1.143   4.307 -4.0651  1.2219  4.2244
  633MOL0     H87286   0.939   1.337   4.138  2.9300 -1.9782 -1.1185
  633MOL0     H87287   0.909   1.721   4.351  1.5039 -2.6162  1.9811
  633MOL0     H87288   0.782   1.612   4.287 -1.8318  2.3930 -3.4554
  633MOL0     H87289   0.909   1.813   4.117 -0.2144 -1.3753 -2.3171
  633MOL0     H87290   0.752   1.720   4.089 -0.0463  2.0638 -2.1739
  633MOL0     H87291   0.663   1.815   4.282  0.1900  0.9864  2.7044
  633MOL0     H87292   0.798   1.935   4.306  0.7042  2.4517 -2.1451
  633MOL0     H87293   0.638   1.917   4.055  1.1011 -0.3316 -0.2254
  633MOL0     H87294   0.624   2.024   4.191  0.3437 -1.6302  0.5396
  633MOL0     H87295   0.837   2.030   3.982  3.2617  1.6397 -0.8709
  633MOL0     H87296   0.885   2.046   4.150  0.0082 -0.5499 -1.1484
  633MOL0     H87297   0.737   2.259   4.143  2.3047 -0.4624  0.8858
  633MOL0     H87298   0.844   2.251   4.007 -0.5090 -1.6386 -3.2368
  633MOL0     H87299   0.554   2.145   3.985 -0.0610  0.6920  0.9362
  633MOL0     H87300   0.661   2.177   3.854 -3.3842 -1.3562 -1.3569
  633MOL0     H87301   0.517   2.364   4.039  2.3078  1.4551  2.4709
  633MOL0     H87302   0.660   2.429   3.952 -1.2392 -0.1246  1.6410
  633MOL0     H87303   0.613   2.269   3.672  2.5319  1.2151  0.2062
  633MOL0     H87304   0.507   2.331   3.427 -0.6091 -0.3553  0.1189
  633MOL0     H87305   0.341   2.402   3.454 -0.6166 -0.6127  0.6614
  633MOL0     H87306   0.330   2.162   3.570  2.9444 -3.5324  0.7321
  633MOL0     H87307   0.267   2.197   3.411 -1.3215 -2.5453  1.9497
  633MOL0     H87308   0.438   2.093   3.304  1.0895  3.1405 -0.4526
  633MOL0     H87309   0.567   2.125   3.421  0.1790 -1.0474  1.1807
  633MOL0     H87310   0.348   1.915   3.459  0.4827 -0.4722 -1.3538
  633MOL0     H87311   0.514   1.886   3.426  0.7178  0.4245  0.8370
  633MOL0     H87312   0.501   1.679   3.603  0.7668  0.5840  0.7564
  633MOL0     H87313   0.404   1.462   3.593 -1.7635 -1.9300  0.5032
  633MOL0     H87314   0.282   1.422   3.704 -0.3695  0.1446  0.3290
  633MOL0     H87315   0.458   1.423   3.748 -0.4402  3.1556  2.8016
  633MOL0     H87316   0.126   1.561   4.184  0.8390  2.6894  1.3920
  633MOL0     H87317  -0.025   1.458   4.370 -1.9794 -3.4170 -0.6767
  633MOL0     H87318  -0.478   1.494   4.322  0.3580  0.3550 -0.5904
  633MOL0     H87319  -0.387   1.340   4.285 -1.9803  0.2598 -0.2686
  633MOL0     H87320  -0.398   1.254   4.497  3.7890  0.0580 -0.5845
  633MOL0     H87321  -0.419   1.412   4.575  1.2499 -1.3765 -0.8225
  633MOL0     H87322  -0.655   1.298   4.403  1.9579  0.1642 -1.5749
  633MOL0     H87323  -0.635   1.441   4.495  4.5205  1.4156  0.8066
  633MOL0     H87324  -0.568   1.265   4.688  0.5733 -4.2117 -0.2494
  633MOL0     H87325  -0.639   1.149   4.571 -3.0180 -1.2060  1.0448
  633MOL0     H87326  -0.769   1.384   4.681  1.8438 -0.4006  0.0430
  633MOL0     H87327  -0.855   1.252   4.599  1.0150  2.2080 -0.0823
  633MOL0     H87328  -0.712   1.218   4.856 -0.1460  0.0255  0.2694
  633MOL0     H87329  -0.821   1.098   4.777 -1.5763  1.4514 -4.0256
  633MOL0     H87330  -1.000   1.270   4.817 -1.0022  0.1346  0.5772
  633MOL0     H87331  -0.897   1.363   4.910  2.0484 -0.4374 -1.8883
  633MOL0     H87332  -1.047   1.206   5.055  1.2488 -0.4398  1.2348
  633MOL0     H87333  -0.883   1.163   5.075  0.7541 -0.4066 -1.1082
  633MOL0     H87334  -0.363   1.544   4.118 -0.1437 -0.6690  0.0628
  633MOL0     H87335  -0.221   1.617   3.936  0.2317  2.2881 -0.2081
  633MOL0     H87336   0.141   1.847   3.883  0.7612  1.1067 -0.4475
  633MOL0     H87337   0.289   2.001   3.775 -0.6434  0.0984 -2.4195
  633MOL0     H87338   1.124   1.577   4.437 -6.1364  2.3527  0.1979
  633MOL0     H87339   1.136   1.393   4.577 -0.5198 -1.8679  0.7379
  633MOL0     H87340   1.195   0.887   4.633  1.1282 -0.8413  0.8685
  633MOL0     H87341   1.170   0.707   4.810  2.1085  1.0265 -2.3543
  633MOL0     H87342   0.985   0.752   5.208  0.1189 -1.8201  1.6450
  633MOL0     H87343   0.847   0.790   5.109 -0.6424 -0.6172 -1.0840
  633MOL0     H87344   0.824   0.605   5.266 -2.5239 -1.7233 -0.7264
  633MOL0     H87345   0.961   0.519   5.190 -0.2363 -0.9382  0.4853
  633MOL0     H87346   0.725   0.589   5.018  0.9411  0.6863 -0.7474
  633MOL0     H87347   0.847   0.463   5.009  1.6975  2.0430  1.2426
  633MOL0     H87348   0.604   0.408   5.090  0.6269  0.2883 -0.6911
  633MOL0     H87349   0.654   0.456   5.246  0.9745 -2.2403  0.2771
  633MOL0     H87350   0.910   0.126   5.187 -1.1895  0.5595  2.6809
  633MOL0     H87351   0.912   0.973   5.027  0.6485  0.3674  0.0211
  633MOL0     H87352   1.019   1.265   4.889 -1.1774  1.3836 -1.9362
  633MOL0     H87353   0.872   1.226   4.826  1.2680  3.6100 -0.8429
  633MOL0     H87354   0.892   1.180   4.992  1.9451  0.3120  1.1070
  634MOL0     O87355   0.910   2.142   6.394  0.0516 -0.7934 -1.1717
  634MOL0     C87356   0.809   2.211   6.375  0.2299 -1.0996 -0.4022
  634MOL0     O87357   0.785   2.273   6.261  0.1282 -0.6677  1.6340
  634MOL0     C87358   0.867   2.272   6.149  0.9191  0.6488  0.2308
  634MOL0     C87359   1.006   2.263   6.152  0.1010 -0.1060 -0.1649
  634MOL0     C87360   1.081   2.237   6.037  0.9585 -0.7433 -0.7127
  634MOL0     C87361   1.017   2.249   5.913 -0.2762  0.0718  0.2244
  634MOL0     O87362   1.077   2.227   5.796 -0.5158 -0.2261 -0.7320
  634MOL0     C87363   1.219   2.225   5.784 -0.1929 -0.1372  0.7939
  634MOL0     C87364   1.250   2.254   5.628  0.0210 -0.5341 -0.0763
  634MOL0     C87365   1.174   2.183   5.524  0.5238  0.4374 -0.1748
  634MOL0     C87366   1.247   2.194   5.386 -0.8874 -0.0640  0.3918
  634MOL0     C87367   1.245   2.341   5.344 -0.7050  0.1428  0.0487
  634MOL0     C87368   1.266   2.360   5.190  0.8689 -0.2583  0.2862
  634MOL0     C87369   1.289   2.513   5.153 -0.5650  0.5477 -0.2655
  634MOL0     C87370   1.273   2.527   4.996  0.6209 -0.6571 -0.5234
  634MOL0     N87371   1.389   2.460   4.920  0.4179 -0.2469  0.2734
  634MOL0     C87372   1.508   2.522   4.889 -0.7742  0.9000  0.5664
  634MOL0     C87373   1.589   2.410   4.842 -0.4148  0.5173  1.0715
  634MOL0     C87374   1.732   2.413   4.811 -0.0614  0.4366 -0.5503
  634MOL0     C87375   1.806   2.281   4.776  0.2803 -0.2164  0.0396
  634MOL0     C87376   1.916   2.245   4.877 -0.6600  0.7529  0.1013
  634MOL0     C87377   2.036   2.347   4.878 -0.3846 -0.0388 -0.0029
  634MOL0     O87378   2.156   2.283   4.923  0.6330 -0.3424 -0.2066
  634MOL0     C87379   2.160   2.239   5.057  0.1341  0.2606 -0.1829
  634MOL0     C87380   2.257   2.142   5.086 -0.1616 -0.9455 -0.0749
  634MOL0     C87381   2.279   2.094   5.217 -0.2513 -1.1083 -0.5059
  634MOL0     C87382   2.406   2.008   5.239  0.8189  0.7181  0.6829
  634MOL0     C87383   2.198   2.138   5.325  0.6918  0.3241 -0.3029
  634MOL0     C87384   2.213   2.104   5.472  0.3276  0.2282  0.2198
  634MOL0     O87385   2.333   2.090   5.533 -0.1717  0.2602 -0.5981
  634MOL0     C87386   2.357   2.017   5.655 -0.2132 -0.3498 -1.3607
  634MOL0     C87387   2.264   1.997   5.757 -0.9669  0.1861  0.5994
  634MOL0     C87388   2.310   1.930   5.876  0.2093  0.0614  0.4432
  634MOL0     C87389   2.441   1.888   5.889 -0.1876  0.6372 -0.0548
  634MOL0     O87390   2.494   1.832   6.006  0.5390 -0.5439  0.4775
  634MOL0     C87391   2.418   1.730   6.075 -0.0393  0.0682  0.2750
  634MOL0     C87392   2.497   1.688   6.200  0.9783 -0.4769 -1.2153
  634MOL0     C87393   2.434   1.554   6.251  0.5598  0.2514 -1.3696
  634MOL0     C87394   2.320   1.576   6.351  0.1401  0.3439  0.1591
  634MOL0     C87395   2.280   1.437   6.399  0.3377  0.6280 -0.6859
  634MOL0     C87396   2.167   1.441   6.503  0.2961 -0.7406 -0.0403
  634MOL0     C87397   2.126   1.306   6.558 -0.7454 -0.5663  0.1304
  634MOL0     C87398   2.097   1.202   6.446 -0.7583 -0.0843 -0.0220
  634MOL0    Cl87399   1.980   1.258   6.320 -0.3151 -0.1009  0.1884
  634MOL0     C87400   2.535   1.922   5.777  0.2522 -0.0444 -0.5727
  634MOL0     C87401   2.488   1.977   5.664 -0.5007  0.0085  0.0127
  634MOL0     O87402   2.104   2.067   5.518  0.3063 -0.5189 -0.4150
  634MOL0     C87403   2.092   2.224   5.296  0.4525  0.3503 -0.5229
  634MOL0     C87404   2.077   2.274   5.165  0.3451 -0.2576 -0.2182
  634MOL0     N87405   1.500   2.300   4.845 -1.4287  0.0228  0.1352
  634MOL0     N87406   1.384   2.330   4.877  0.2675 -1.0229  0.6804
  634MOL0     C87407   0.883   2.288   5.905  0.2377  0.5965 -0.8628
  634MOL0     C87408   0.804   2.296   6.021 -0.2851  0.6283 -0.2472
  634MOL0     C87409   0.695   2.207   6.472 -0.4665 -0.0777 -0.9404
  634MOL0     C87410   0.564   2.246   6.446 -0.6988  1.3894  0.2621
  634MOL0     C87411   0.462   2.210   6.531 -0.0005 -0.0795  0.3764
  634MOL0     C87412   0.481   2.137   6.649  0.2180  0.3313  0.0174
  634MOL0     O87413   0.386   2.122   6.747  0.1704 -0.5591  0.7449
  634MOL0     C87414   0.247   2.152   6.716  0.3646 -0.5847  0.4813
  634MOL0     C87415   0.185   2.052   6.620  0.3701 -0.0950  0.2055
  634MOL0     C87416   0.038   2.094   6.581 -0.2310 -0.3695 -0.1492
  634MOL0     C87417  -0.027   1.993   6.483 -0.5366  0.1902 -1.2526
  634MOL0     C87418   0.044   1.969   6.357  0.5333 -0.0877 -0.2890
  634MOL0     C87419   0.114   1.960   6.254  0.7132 -0.0605 -0.1253
  634MOL0     C87420   0.609   2.102   6.683  0.5151 -0.2038  0.4571
  634MOL0     C87421   0.719   2.147   6.602  0.3501 -0.1354  0.2773
  634MOL0     C87422   0.859   2.124   6.669  1.3630  0.2796  0.0011
  634MOL0     H87423   1.061   2.252   6.245 -0.0096 -0.7049 -0.1664
  634MOL0     H87424   1.189   2.228   6.047  0.7343 -1.0258  2.2719
  634MOL0     H87425   1.265   2.132   5.818 -1.2568 -0.3675  1.6335
  634MOL0     H87426   1.261   2.308   5.842 -0.7832  0.4902  0.3432
  634MOL0     H87427   1.226   2.358   5.602  1.0951  0.5618  2.8335
  634MOL0     H87428   1.358   2.245   5.610  0.0144  1.5092 -1.5549
  634MOL0     H87429   1.173   2.077   5.551  0.1273  0.8936  1.7428
  634MOL0     H87430   1.070   2.213   5.508  0.3539  0.3412  0.6978
  634MOL0     H87431   1.345   2.145   5.391 -3.0294 -4.9871  0.4203
  634MOL0     H87432   1.195   2.137   5.308  0.1744  0.9754 -1.1384
  634MOL0     H87433   1.317   2.401   5.401 -2.0905  1.0397  0.9206
  634MOL0     H87434   1.148   2.380   5.376 -1.4366  0.4544 -2.3345
  634MOL0     H87435   1.353   2.299   5.161 -0.5798 -1.6815 -1.2722
  634MOL0     H87436   1.178   2.318   5.141  1.7544 -2.2694  0.3032
  634MOL0     H87437   1.387   2.543   5.192  0.2580 -0.0551 -1.7834
  634MOL0     H87438   1.219   2.580   5.202  2.3822  2.5221  1.6031
  634MOL0     H87439   1.177   2.485   4.964  0.7116 -2.2217  1.1052
  634MOL0     H87440   1.262   2.633   4.973  0.2042  0.1613  2.9027
  634MOL0     H87441   1.542   2.624   4.902  2.0767  0.0635  0.4223
  634MOL0     H87442   1.776   2.450   4.904 -0.2778  2.0924 -1.0652
  634MOL0     H87443   1.751   2.499   4.746 -0.9213  1.2418  0.2298
  634MOL0     H87444   1.732   2.200   4.782 -1.1996  0.9179 -1.8399
  634MOL0     H87445   1.845   2.282   4.674 -0.0819  3.6111 -0.2113
  634MOL0     H87446   1.875   2.237   4.978  0.4399 -0.2186  0.4939
  634MOL0     H87447   1.953   2.148   4.842  0.9487  1.4880 -0.3310
  634MOL0     H87448   2.058   2.361   4.772  2.3067 -3.7336 -0.1243
  634MOL0     H87449   2.008   2.438   4.932 -1.4065  0.3033 -1.0646
  634MOL0     H87450   2.320   2.113   5.003  1.2003  0.1856  0.5382
  634MOL0     H87451   2.495   2.071   5.248 -0.8698  2.9794  3.3306
  634MOL0     H87452   2.407   1.948   5.148  0.9402  1.7362  0.0006
  634MOL0     H87453   2.401   1.938   5.323 -0.9852  0.4138  0.3657
  634MOL0     H87454   2.160   2.027   5.750 -0.9930 -0.1754 -4.4207
  634MOL0     H87455   2.237   1.899   5.949 -2.0806 -2.5763 -2.6655
  634MOL0     H87456   2.321   1.771   6.105  0.2678  0.2193  1.1077
  634MOL0     H87457   2.397   1.644   6.010  1.6278 -0.0392 -0.1571
  634MOL0     H87458   2.601   1.668   6.174  0.3365 -3.4006 -1.8525
  634MOL0     H87459   2.486   1.776   6.265  3.2929  2.3050 -4.2464
  634MOL0     H87460   2.507   1.496   6.309 -1.0223  1.8714  2.5951
  634MOL0     H87461   2.390   1.492   6.172 -2.1746 -0.6849  0.7494
  634MOL0     H87462   2.240   1.627   6.297  0.5945  0.2558 -0.6012
  634MOL0     H87463   2.359   1.632   6.437 -0.3204 -3.2915  3.0396
  634MOL0     H87464   2.255   1.371   6.315 -0.3338 -1.5334  1.1164
  634MOL0     H87465   2.368   1.386   6.440  1.5897  3.9082  1.0471
  634MOL0     H87466   2.081   1.479   6.445 -0.0975 -0.4238  0.7369
  634MOL0     H87467   2.173   1.517   6.582  0.9618  2.1406 -2.6496
  634MOL0     H87468   2.044   1.320   6.629 -0.1602  0.4809  0.6224
  634MOL0     H87469   2.214   1.258   6.602 -0.8527 -1.7543 -0.9073
  634MOL0     H87470   2.071   1.105   6.488 -0.6964 -0.1056 -0.0318
  634MOL0     H87471   2.189   1.193   6.388 -2.2929  3.0445 -3.3441
  634MOL0     H87472   2.640   1.900   5.794  0.2447 -0.3610 -0.9238
  634MOL0     H87473   2.553   1.988   5.577  0.0647  0.2796  0.4635
  634MOL0     H87474   2.033   2.268   5.376 -0.6438  1.7179 -2.0320
  634MOL0     H87475   1.998   2.346   5.147  0.2156 -0.1499  0.7386
  634MOL0     H87476   0.847   2.290   5.803  5.3111 -0.0050 -2.9238
  634MOL0     H87477   0.699   2.325   6.023 -0.4882 -0.1268  0.2530
  634MOL0     H87478   0.537   2.285   6.349  3.7714 -0.4639 -2.0187
  634MOL0     H87479   0.359   2.235   6.509  0.8879  6.9271  1.8339
  634MOL0     H87480   0.187   2.165   6.807 -0.7795 -0.9123 -0.2096
  634MOL0     H87481   0.225   2.243   6.660 -1.0521 -1.1456  0.0969
  634MOL0     H87482   0.189   1.954   6.670 -2.6969  0.5192  1.9345
  634MOL0     H87483   0.247   2.039   6.532 -1.1346  0.2576 -0.9472
  634MOL0     H87484  -0.015   2.105   6.676 -0.5634 -0.2475 -0.3446
  634MOL0     H87485   0.024   2.198   6.549 -0.2531  1.5061  5.0350
  634MOL0     H87486  -0.126   2.033   6.463 -0.4165  1.0183 -0.2768
  634MOL0     H87487  -0.029   1.893   6.527 -0.2186 -0.1257 -1.9423
  634MOL0     H87488   0.171   1.953   6.164 -0.3564 -2.0049 -0.7047
  634MOL0     H87489   0.617   2.050   6.778  0.8342  2.7638  2.2214
  634MOL0     H87490   0.933   2.204   6.655  1.9618 -0.4460 -1.1000
  634MOL0     H87491   0.838   2.112   6.776 -1.9028  2.1809 -0.3113
  634MOL0     H87492   0.907   2.036   6.624  0.8953  0.8576 -1.6730
  635MOL0     O87493   0.940  10.277   8.789 -0.3737 -0.1135 -0.4203
  635MOL0     C87494   0.861  10.236   8.703 -0.3748  0.7172  0.4251
  635MOL0     O87495   0.862  10.113   8.658 -0.3931  0.4350 -0.1836
  635MOL0     C87496   0.970  10.028   8.676 -0.3550 -0.7781  0.9055
  635MOL0     C87497   1.106  10.055   8.691  0.8539 -0.6624  0.2890
  635MOL0     C87498   1.198   9.964   8.712 -0.5412  0.6658  0.9495
  635MOL0     C87499   1.154   9.828   8.706  0.6809 -0.2053  0.8616
  635MOL0     O87500   1.244   9.727   8.719 -0.1082  0.2826 -0.0179
  635MOL0     C87501   1.217   9.637   8.833 -0.9241 -0.1482 -0.4115
  635MOL0     C87502   1.342   9.563   8.876 -0.4269 -0.6934  0.3767
  635MOL0     C87503   1.353   9.545   9.029 -0.3473 -0.1822 -0.0084
  635MOL0     C87504   1.400   9.679   9.091  0.2064  0.5957 -0.2155
  635MOL0     C87505   1.435   9.667   9.245  0.4473 -0.6231 -0.1555
  635MOL0     C87506   1.501   9.795   9.294 -0.0015 -0.2307 -0.0293
  635MOL0     C87507   1.564   9.773   9.431 -0.0889 -0.7360  0.6144
  635MOL0     C87508   1.604   9.917   9.494  0.0951  0.1782 -0.3163
  635MOL0     N87509   1.503   9.987   9.570 -0.7887 -0.3697  0.3407
  635MOL0     C87510   1.485   9.978   9.712  0.9346 -0.7238  0.4987
  635MOL0     C87511   1.388  10.074   9.734  0.4054 -0.2244 -0.1463
  635MOL0     C87512   1.309  10.115   9.858 -0.1021 -1.2000  0.0737
  635MOL0     C87513   1.161  10.080   9.843 -0.3033  0.7852 -0.1369
  635MOL0     C87514   1.138   9.927   9.843 -1.0064 -0.7237 -0.0848
  635MOL0     C87515   1.137   9.875   9.702  1.3147  1.2965 -1.6834
  635MOL0     O87516   1.112   9.734   9.709  0.1569  0.3920  0.2759
  635MOL0     C87517   1.089   9.666   9.596  0.4510 -0.0410  0.3779
  635MOL0     C87518   1.096   9.528   9.611 -0.1960 -0.6322  0.1540
  635MOL0     C87519   1.090   9.441   9.506 -0.3780 -0.5364  0.1526
  635MOL0     C87520   1.109   9.292   9.542  0.2758  0.0892 -0.6063
  635MOL0     C87521   1.047   9.496   9.374  0.7186  0.0912 -0.0175
  635MOL0     C87522   1.011   9.399   9.257  0.0840 -0.8830  0.3600
  635MOL0     O87523   0.954   9.457   9.143 -0.9124  0.1314 -0.3447
  635MOL0     C87524   0.957   9.403   9.018 -0.2836  0.9295 -0.5535
  635MOL0     C87525   0.860   9.434   8.926  0.3985  0.7526  0.5905
  635MOL0     C87526   0.864   9.386   8.796 -0.3188  0.0088  0.3880
  635MOL0     C87527   0.973   9.308   8.755 -0.1346  0.2043  0.8049
  635MOL0     O87528   0.993   9.246   8.633 -0.7736 -0.5682 -0.1354
  635MOL0     C87529   0.878   9.218   8.557  0.6899 -0.2072  0.0155
  635MOL0     C87530   0.886   9.280   8.417 -0.1069  0.5342  0.1744
  635MOL0     C87531   0.834   9.436   8.423 -0.0265  0.5469 -0.2867
  635MOL0     C87532   0.914   9.516   8.328 -0.7014 -0.0693  1.0309
  635MOL0     C87533   0.872   9.664   8.334 -0.2059 -0.6679 -0.6532
  635MOL0     C87534   0.939   9.764   8.239  0.9508  0.3067  0.5765
  635MOL0     C87535   1.077   9.803   8.288 -0.5774 -0.0936  0.3165
  635MOL0     C87536   1.111   9.949   8.241 -0.3973 -0.4970 -0.9810
  635MOL0    Cl87537   1.277   9.977   8.271  0.1925  0.0683  0.5259
  635MOL0     C87538   1.071   9.267   8.849  1.2034 -0.1952 -0.2946
  635MOL0     C87539   1.057   9.313   8.977  0.6412  0.5312  0.5544
  635MOL0     O87540   1.038   9.282   9.267 -0.0240 -0.1970 -0.1444
  635MOL0     C87541   1.039   9.638   9.358  0.3558 -0.1334  0.5092
  635MOL0     C87542   1.058   9.723   9.476  0.4504 -0.5274  0.0155
  635MOL0     N87543   1.345  10.127   9.610  0.7663 -0.3026 -0.2993
  635MOL0     N87544   1.401  10.066   9.511  0.1001  0.1866  0.0602
  635MOL0     C87545   1.020   9.797   8.692  0.5945  0.2179 -0.1982
  635MOL0     C87546   0.923   9.897   8.669  0.0236 -0.9356 -0.5944
  635MOL0     C87547   0.749  10.313   8.646  0.0109  0.2054 -0.5547
  635MOL0     C87548   0.686  10.275   8.525 -0.2073 -0.0140 -0.0646
  635MOL0     C87549   0.588  10.360   8.457 -0.1081 -0.4655  0.3702
  635MOL0     C87550   0.566  10.485   8.511 -0.0754  0.0627 -0.0736
  635MOL0     O87551   0.461  10.550   8.453  0.6167  0.0999 -0.1219
  635MOL0     C87552   0.445  10.689   8.462  0.0379  1.5181  0.2379
  635MOL0     C87553   0.332  10.731   8.366  0.0027 -0.5932  0.6363
  635MOL0     C87554   0.380  10.732   8.214  0.2922  0.3957  0.3516
  635MOL0     C87555   0.338  10.593   8.153 -0.2496  0.2215 -0.5657
  635MOL0     C87556   0.360  10.577   8.012  1.0009 -0.8792  0.0637
  635MOL0     C87557   0.403  10.559   7.898 -0.4232 -1.1627 -0.8651
  635MOL0     C87558   0.629  10.531   8.629 -0.0136 -0.4026  1.4382
  635MOL0     C87559   0.717  10.443   8.697  0.5323  0.2187 -0.1241
  635MOL0     C87560   0.775  10.496   8.835  0.7519  0.3436  0.2192
  635MOL0     H87561   1.135  10.160   8.691  1.8191 -0.9265  0.0192
  635MOL0     H87562   1.304   9.981   8.731 -0.1316  0.1332 -0.7081
  635MOL0     H87563   1.136   9.570   8.802 -1.3541 -0.1040  0.5640
  635MOL0     H87564   1.187   9.698   8.919  0.4185 -1.5779  1.1500
  635MOL0     H87565   1.345   9.466   8.826  2.1070 -0.0384 -0.9292
  635MOL0     H87566   1.428   9.618   8.837 -0.5026 -0.0123  1.1367
  635MOL0     H87567   1.262   9.525   9.087 -1.0321  1.4085 -0.4755
  635MOL0     H87568   1.430   9.476   9.065 -0.1459  0.2772  0.4599
  635MOL0     H87569   1.494   9.707   9.042  0.7638  3.2890  2.1285
  635MOL0     H87570   1.321   9.754   9.077 -0.1240  0.2155 -0.4079
  635MOL0     H87571   1.507   9.585   9.243  0.7535 -0.3923 -2.9197
  635MOL0     H87572   1.345   9.659   9.307 -2.0019  5.0671 -2.2575
  635MOL0     H87573   1.573   9.816   9.215 -0.3491  0.3090 -0.2075
  635MOL0     H87574   1.433   9.881   9.297 -1.1609 -1.1375  1.0248
  635MOL0     H87575   1.656   9.717   9.412  1.1912  1.9075 -1.7273
  635MOL0     H87576   1.500   9.706   9.489  0.0257 -1.0322  0.4045
  635MOL0     H87577   1.685   9.898   9.564  0.6009 -1.2261 -1.2451
  635MOL0     H87578   1.646   9.993   9.427 -1.1794  2.8994  1.7517
  635MOL0     H87579   1.546   9.928   9.786 -0.7697 -1.2845  1.5889
  635MOL0     H87580   1.320  10.223   9.863  2.6182 -1.4360  0.6872
  635MOL0     H87581   1.359  10.073   9.946 -2.0717 -0.2166  1.7425
  635MOL0     H87582   1.122  10.116   9.938  1.2671 -2.1177  1.7651
  635MOL0     H87583   1.103  10.124   9.761 -2.5252 -0.0802  0.9060
  635MOL0     H87584   1.218   9.868   9.889  0.0125  0.6915 -0.0188
  635MOL0     H87585   1.045   9.905   9.898  0.0452 -0.3689  1.9213
  635MOL0     H87586   1.049   9.922   9.657 -1.3474 -0.6905  0.9964
  635MOL0     H87587   1.216   9.910   9.635  1.2926  0.6082 -2.0780
  635MOL0     H87588   1.132   9.488   9.706  1.2223  1.2457  0.4619
  635MOL0     H87589   1.006   9.255   9.547 -0.3480  1.3285 -2.7806
  635MOL0     H87590   1.179   9.264   9.621  3.6010  1.1048 -2.9597
  635MOL0     H87591   1.167   9.232   9.472  1.2033 -0.4128  0.5577
  635MOL0     H87592   0.770   9.491   8.949 -1.2476 -1.5294  0.0933
  635MOL0     H87593   0.800   9.435   8.723  1.0721  0.6456 -0.4608
  635MOL0     H87594   0.879   9.109   8.551  1.2324 -0.1450 -1.2456
  635MOL0     H87595   0.781   9.249   8.596  0.1693 -0.4764 -1.0559
  635MOL0     H87596   0.989   9.274   8.380 -0.4930 -1.1277 -0.7300
  635MOL0     H87597   0.827   9.222   8.346 -0.7231  2.1922 -0.7495
  635MOL0     H87598   0.844   9.465   8.528  1.7769 -3.5275  0.9068
  635MOL0     H87599   0.729   9.433   8.394  0.1413 -1.0456 -0.8335
  635MOL0     H87600   0.888   9.479   8.229 -1.8929  2.5689  0.2574
  635MOL0     H87601   1.022   9.504   8.347 -0.3328 -0.3070 -1.0049
  635MOL0     H87602   0.765   9.672   8.314  0.2853  1.4737 -3.0180
  635MOL0     H87603   0.889   9.699   8.436 -2.6096 -0.2741 -0.3266
  635MOL0     H87604   0.881   9.853   8.212 -0.3679 -1.3671 -2.5984
  635MOL0     H87605   0.946   9.721   8.139  3.1216  0.2759  0.6954
  635MOL0     H87606   1.139   9.721   8.250 -0.6461  0.1851 -0.4150
  635MOL0     H87607   1.090   9.795   8.397  1.8082 -0.7500  0.0345
  635MOL0     H87608   1.051  10.026   8.290  0.0797 -0.2173 -0.8278
  635MOL0     H87609   1.093   9.963   8.134 -0.3218  1.8146 -0.7383
  635MOL0     H87610   1.159   9.210   8.821  0.4480 -1.4412 -0.2037
  635MOL0     H87611   1.125   9.277   9.053 -0.3577 -3.6303 -0.2711
  635MOL0     H87612   1.016   9.697   9.270  1.8372  2.3213  1.6788
  635MOL0     H87613   1.063   9.831   9.467  1.9158 -0.6280 -0.6877
  635MOL0     H87614   0.979   9.697   8.691 -1.4903  1.0309  0.0083
  635MOL0     H87615   0.817   9.893   8.645 -0.1306  3.4072 -1.4004
  635MOL0     H87616   0.714  10.175   8.495  1.8770  0.2693  0.7901
  635MOL0     H87617   0.532  10.324   8.372 -2.1815  1.3010  0.8878
  635MOL0     H87618   0.422  10.737   8.558 -1.5701  0.9551  0.1533
  635MOL0     H87619   0.542  10.734   8.438  0.6351 -0.2263 -0.8051
  635MOL0     H87620   0.304  10.837   8.372  0.6838 -0.2641 -1.4172
  635MOL0     H87621   0.240  10.673   8.383  0.2419 -0.9185  0.8171
  635MOL0     H87622   0.342  10.823   8.169  0.4589  1.3830  2.1047
  635MOL0     H87623   0.489  10.743   8.211  0.4692 -0.5651  1.7093
  635MOL0     H87624   0.233  10.571   8.176  0.7418 -2.0840  2.5323
  635MOL0     H87625   0.393  10.510   8.199 -1.9698  0.7458  2.7339
  635MOL0     H87626   0.444  10.537   7.801 -1.7359 -0.0169 -1.7166
  635MOL0     H87627   0.591  10.621   8.677  0.0450 -0.2457  1.1884
  635MOL0     H87628   0.771  10.427   8.920 -0.5535  0.7284  0.4985
  635MOL0     H87629   0.879  10.521   8.811  1.4638 -0.7159  1.9915
  635MOL0     H87630   0.728  10.589   8.871  0.0587 -1.1316  3.5678
  636MOL0     O87631   9.816   8.570   4.390 -0.0412  1.0013 -0.1853
  636MOL0     C87632   9.906   8.617   4.324  0.8040  0.9665  0.4522
  636MOL0     O87633   9.931   8.573   4.194 -0.4284 -0.5241 -0.2729
  636MOL0     C87634   9.860   8.455   4.164  0.0594 -0.5407  0.2257
  636MOL0     C87635   9.907   8.322   4.212  0.0577 -1.0514  0.1994
  636MOL0     C87636   9.839   8.201   4.172  0.4148 -0.9188 -0.2246
  636MOL0     C87637   9.719   8.214   4.094  0.0939 -0.2073  0.0407
  636MOL0     O87638   9.664   8.096   4.041 -0.1553 -0.7992 -0.0050
  636MOL0     C87639   9.558   8.109   3.942 -0.0373  0.2344 -0.4394
  636MOL0     C87640   9.535   7.973   3.882  0.0117  1.0624  0.5953
  636MOL0     C87641   9.630   7.939   3.770  0.0882  0.6778 -0.4608
  636MOL0     C87642   9.606   7.796   3.712  0.0264  0.5166  0.1526
  636MOL0     C87643   9.688   7.778   3.581  0.5911 -0.9314 -1.0216
  636MOL0     C87644   9.672   7.630   3.538 -0.2976 -1.0616 -0.0671
  636MOL0     C87645   9.759   7.628   3.406 -0.8263  0.2494  0.5222
  636MOL0     C87646   9.743   7.490   3.336  0.0151 -0.8832 -0.2417
  636MOL0     N87647   9.610   7.421   3.344  0.5573  0.4718  0.6734
  636MOL0     C87648   9.507   7.441   3.253  0.8944 -0.3460 -1.0011
  636MOL0     C87649   9.414   7.353   3.301 -0.0283 -0.0137 -0.4405
  636MOL0     C87650   9.280   7.323   3.242 -0.0019  0.1292  0.1688
  636MOL0     C87651   9.169   7.402   3.314  0.2688 -1.5125  0.6275
  636MOL0     C87652   9.037   7.411   3.234  0.5855 -0.1394  0.8418
  636MOL0     C87653   9.055   7.518   3.120  0.1440  0.2001 -0.5992
  636MOL0     O87654   9.090   7.644   3.180  0.3637  0.4815 -1.1091
  636MOL0     C87655   8.989   7.725   3.240  0.2256 -0.8624 -0.7252
  636MOL0     C87656   9.042   7.827   3.327  0.7000 -0.2913 -0.3900
  636MOL0     C87657   8.966   7.928   3.392 -0.6138  0.8296  0.1696
  636MOL0     C87658   9.029   8.030   3.477  0.7444 -0.7688  0.1727
  636MOL0     C87659   8.830   7.922   3.366 -0.4221 -0.1207  0.2452
  636MOL0     C87660   8.737   8.016   3.433 -0.6278 -0.2837 -0.4028
  636MOL0     O87661   8.654   8.085   3.346 -0.2461  0.2833  0.5606
  636MOL0     C87662   8.535   8.135   3.406 -0.2309  0.2500  0.3123
  636MOL0     C87663   8.440   8.042   3.423 -1.1925  0.3536 -0.3970
  636MOL0     C87664   8.308   8.077   3.455  0.1915 -0.3499  0.0146
  636MOL0     C87665   8.275   8.208   3.480 -0.0579 -0.7681  0.6027
  636MOL0     O87666   8.142   8.242   3.516 -0.1265  0.0160  0.6563
  636MOL0     C87667   8.146   8.324   3.634  0.2130 -0.8161 -0.4917
  636MOL0     C87668   7.998   8.344   3.663  0.1360  0.9899 -0.0417
  636MOL0     C87669   7.967   8.443   3.775  0.1798 -0.7094 -0.4354
  636MOL0     C87670   7.821   8.446   3.822 -0.4598  1.0175  0.6017
  636MOL0     C87671   7.808   8.554   3.939  0.7090  0.9454  0.6652
  636MOL0     C87672   7.777   8.700   3.890  0.0800 -0.9744  0.7757
  636MOL0     C87673   7.790   8.796   4.006  0.3597 -0.2645 -0.2954
  636MOL0     C87674   7.795   8.937   3.968  0.0220  0.2614 -0.8283
  636MOL0    Cl87675   7.920   8.964   3.855 -0.2414 -0.4591 -0.2096
  636MOL0     C87676   8.378   8.305   3.460 -0.1120  0.4672 -0.4323
  636MOL0     C87677   8.506   8.268   3.425  0.1963  0.4041  0.2667
  636MOL0     O87678   8.705   8.014   3.553  0.2411  0.1464 -0.3710
  636MOL0     C87679   8.771   7.838   3.280 -1.3413  0.6679  0.1414
  636MOL0     C87680   8.851   7.734   3.218  0.6162 -0.7913  0.4021
  636MOL0     N87681   9.457   7.290   3.416 -0.4528 -0.4338  0.0274
  636MOL0     N87682   9.579   7.338   3.443 -0.1090  0.0860 -0.4341
  636MOL0     C87683   9.659   8.345   4.071  0.3428  0.5938 -0.5603
  636MOL0     C87684   9.741   8.459   4.098  0.6618 -0.5355  0.8729
  636MOL0     C87685  10.007   8.714   4.384 -0.3599 -0.2842 -0.2915
  636MOL0     C87686  10.121   8.747   4.306  0.6773  0.3760  0.6859
  636MOL0     C87687  10.218   8.829   4.361 -0.0262 -0.1164 -1.0683
  636MOL0     C87688  10.210   8.894   4.487  0.3258  0.3788  0.4344
  636MOL0     O87689  10.321   8.965   4.528  0.0560  0.5387 -0.2099
  636MOL0     C87690  10.311   9.043   4.647 -0.8126  1.2725  0.4238
  636MOL0     C87691  10.254   9.180   4.629 -0.2520 -0.0512 -0.6202
  636MOL0     C87692  10.239   9.279   4.760 -0.4720 -0.0040  0.3429
  636MOL0     C87693  10.184   9.209   4.882 -0.4948 -0.2664  0.1401
  636MOL0     C87694  10.151   9.331   4.973  0.0161 -0.0257 -1.4039
  636MOL0     C87695  10.136   9.407   5.070  0.7604  1.2614  0.8101
  636MOL0     C87696  10.090   8.876   4.552 -0.2708  0.0577  0.2692
  636MOL0     C87697   9.988   8.795   4.503  1.1813 -0.3852  0.4513
  636MOL0     C87698   9.869   8.771   4.585 -0.3829 -0.6147  0.5929
  636MOL0     H87699   9.996   8.338   4.272  2.7901  2.4233 -4.0698
  636MOL0     H87700   9.882   8.105   4.199  3.2266  0.8510  2.2854
  636MOL0     H87701   9.584   8.176   3.860  0.2310  1.3025  0.4844
  636MOL0     H87702   9.461   8.132   3.989 -2.4454 -2.7839 -3.4300
  636MOL0     H87703   9.538   7.897   3.961  2.9052  0.2405 -0.1516
  636MOL0     H87704   9.433   7.964   3.844 -1.2929 -0.9125  4.0712
  636MOL0     H87705   9.614   8.011   3.689 -0.4737  0.9585 -0.1006
  636MOL0     H87706   9.730   7.953   3.812 -0.4881  1.9567  0.5265
  636MOL0     H87707   9.630   7.711   3.777  1.1996 -1.4920 -2.7025
  636MOL0     H87708   9.499   7.799   3.692 -0.0057  1.9033  0.4913
  636MOL0     H87709   9.792   7.799   3.605  1.0474 -1.7086 -2.2177
  636MOL0     H87710   9.657   7.851   3.505  1.8125  1.6004  0.7650
  636MOL0     H87711   9.709   7.564   3.617  1.3495 -0.2107 -0.1011
  636MOL0     H87712   9.566   7.604   3.524 -0.1276 -1.9420  0.1707
  636MOL0     H87713   9.864   7.640   3.433  0.0752 -1.3737 -1.9576
  636MOL0     H87714   9.737   7.709   3.337 -2.1802 -0.1501  0.4539
  636MOL0     H87715   9.766   7.526   3.236 -2.1530  0.5110 -0.2869
  636MOL0     H87716   9.816   7.423   3.383  0.6864 -0.5950 -0.8549
  636MOL0     H87717   9.482   7.509   3.172 -3.2578  0.1582  0.4481
  636MOL0     H87718   9.242   7.223   3.261  0.6226  0.0055  0.8173
  636MOL0     H87719   9.271   7.337   3.134 -1.9064  2.9074  0.5739
  636MOL0     H87720   9.135   7.339   3.397  0.5865  0.4329  2.3243
  636MOL0     H87721   9.213   7.494   3.355  0.4821 -0.8583 -0.9884
  636MOL0     H87722   9.026   7.313   3.186  5.3319 -0.3253 -0.3523
  636MOL0     H87723   8.950   7.435   3.296 -0.3933  2.5578 -1.3541
  636MOL0     H87724   9.126   7.483   3.045  0.4361  1.0812 -0.7463
  636MOL0     H87725   8.968   7.520   3.054  2.2150  0.2480 -3.5131
  636MOL0     H87726   9.149   7.830   3.338  0.6961  0.7345 -0.4735
  636MOL0     H87727   9.119   7.997   3.530 -0.0726  1.3163  3.1152
  636MOL0     H87728   8.962   8.059   3.559 -0.4339 -1.1501 -0.6385
  636MOL0     H87729   9.054   8.120   3.420 -0.7514 -0.3967  0.0682
  636MOL0     H87730   8.456   7.936   3.407  2.3863  0.5450  1.0209
  636MOL0     H87731   8.225   8.007   3.457 -0.3857  0.0152 -3.5558
  636MOL0     H87732   8.188   8.276   3.722  1.0009  0.3489 -0.2044
  636MOL0     H87733   8.177   8.427   3.614 -2.4513  0.0423 -0.6199
  636MOL0     H87734   7.960   8.395   3.574  3.3807  1.6417 -1.1936
  636MOL0     H87735   7.953   8.246   3.677  1.5102  0.3444  0.0099
  636MOL0     H87736   7.994   8.537   3.727  0.1022 -0.3107  0.2860
  636MOL0     H87737   8.037   8.427   3.857 -1.4179 -0.0052  1.1380
  636MOL0     H87738   7.803   8.344   3.856  0.0584  0.7900  0.2102
  636MOL0     H87739   7.747   8.449   3.741 -0.0620  2.3184  0.2578
  636MOL0     H87740   7.727   8.521   4.005  0.1587  0.9660  0.0113
  636MOL0     H87741   7.902   8.552   3.996  0.1730 -1.6480  1.5743
  636MOL0     H87742   7.671   8.697   3.862 -0.3241 -0.3052  2.1500
  636MOL0     H87743   7.837   8.735   3.806 -1.9834  0.4214 -0.1874
  636MOL0     H87744   7.886   8.779   4.056 -0.1714 -4.7059 -0.3881
  636MOL0     H87745   7.714   8.784   4.083 -0.2656 -0.6208 -0.9581
  636MOL0     H87746   7.810   9.001   4.056  0.1290  0.3799 -0.9326
  636MOL0     H87747   7.700   8.974   3.929 -0.6018  0.0100  0.3900
  636MOL0     H87748   8.357   8.412   3.465 -1.3474  0.1898  1.2135
  636MOL0     H87749   8.587   8.341   3.428  0.8528 -0.3472  1.4769
  636MOL0     H87750   8.664   7.850   3.270 -1.2419  3.2035  1.3875
  636MOL0     H87751   8.797   7.667   3.151 -2.6605  0.5866  1.4630
  636MOL0     H87752   9.566   8.357   4.017 -0.3421 -0.1410  0.4288
  636MOL0     H87753   9.714   8.562   4.080  1.5206 -0.3088  0.8679
  636MOL0     H87754  10.132   8.705   4.207 -1.9742 -1.3179  1.0194
  636MOL0     H87755  10.307   8.846   4.301 -0.8567  0.5048 -2.1418
  636MOL0     H87756  10.260   8.994   4.730 -1.0832 -1.1547 -1.0857
  636MOL0     H87757  10.413   9.058   4.683  1.7950 -1.3975 -4.7091
  636MOL0     H87758  10.154   9.160   4.589 -0.9008  3.0597 -0.7704
  636MOL0     H87759  10.311   9.241   4.560 -1.1105  1.3219 -0.1636
  636MOL0     H87760  10.335   9.330   4.770 -0.9030  1.1689 -1.1170
  636MOL0     H87761  10.169   9.355   4.724 -1.4880 -0.7656  0.6585
  636MOL0     H87762  10.261   9.144   4.924 -1.6107 -0.5652  1.7901
  636MOL0     H87763  10.097   9.152   4.849 -1.2861  2.7469 -3.7384
  636MOL0     H87764  10.109   9.469   5.154 -2.4734 -0.2008  1.0070
  636MOL0     H87765  10.069   8.927   4.646 -2.0310  0.4875 -0.3172
  636MOL0     H87766   9.776   8.805   4.540  0.1598 -1.2938 -1.0972
  636MOL0     H87767   9.879   8.666   4.614  0.0166  0.2508  4.0559
  636MOL0     H87768   9.868   8.816   4.685 -1.6849 -0.0903  0.3551
  637MOL0     O87769   0.374   9.072   1.012 -0.1190  0.0845  0.2051
  637MOL0     C87770   0.406   9.018   1.120  0.5868  0.3654 -0.1688
  637MOL0     O87771   0.456   8.891   1.135 -0.3978 -0.0172 -0.1668
  637MOL0     C87772   0.449   8.800   1.029  0.3731 -0.6849  0.2445
  637MOL0     C87773   0.325   8.763   0.977 -0.5910  1.4046  1.0161
  637MOL0     C87774   0.320   8.654   0.882 -0.1102 -0.2188  0.8286
  637MOL0     C87775   0.447   8.605   0.836  0.6781  0.4660 -0.0704
  637MOL0     O87776   0.429   8.506   0.744  0.4502  0.1499 -0.2402
  637MOL0     C87777   0.539   8.481   0.656 -0.0103  0.1020 -0.5540
  637MOL0     C87778   0.484   8.386   0.544 -0.3373  0.0194 -0.6131
  637MOL0     C87779   0.602   8.360   0.449  0.4787  0.3256 -0.1847
  637MOL0     C87780   0.568   8.280   0.325  0.0386  0.9418 -0.2887
  637MOL0     C87781   0.678   8.283   0.221  0.3063 -0.3428 -0.0732
  637MOL0     C87782   0.653   8.156   0.122  0.6985 -0.6218 -0.0479
  637MOL0     C87783   0.713   8.020   0.172 -0.9596  0.1598 -0.5916
  637MOL0     C87784   0.705   7.907   0.066 -0.9825 -0.0180  0.4269
  637MOL0     N87785   0.792   7.931  -0.045  0.2126  0.4175  0.0264
  637MOL0     C87786   0.936   7.950  -0.035  0.8394  0.5212  0.1659
  637MOL0     C87787   0.966   8.011  -0.151 -0.8779 -0.3975  0.2926
  637MOL0     C87788   1.106   8.040  -0.188 -0.0936  0.4471 -0.1526
  637MOL0     C87789   1.118   8.190  -0.225 -0.7525  0.8170  0.1222
  637MOL0     C87790   1.090   8.225  -0.369 -0.3646 -0.0026  0.7738
  637MOL0     C87791   1.060   8.379  -0.383  0.1435 -0.4548  0.2910
  637MOL0     O87792   1.173   8.461  -0.337  0.5342 -0.4196 -0.5177
  637MOL0     C87793   1.165   8.548  -0.224  0.6901 -0.2018  0.0930
  637MOL0     C87794   1.278   8.607  -0.180  0.6991 -0.6359 -0.4493
  637MOL0     C87795   1.290   8.697  -0.078  0.2559  0.6552 -0.4604
  637MOL0     C87796   1.422   8.770  -0.053  0.1281  0.2246 -0.7071
  637MOL0     C87797   1.168   8.732  -0.011 -0.1411 -0.3087 -0.4503
  637MOL0     C87798   1.167   8.848   0.085 -0.2034  0.3088  0.8822
  637MOL0     O87799   1.281   8.865   0.168  0.0235  0.2234  0.8496
  637MOL0     C87800   1.281   8.971   0.252 -0.6201 -0.2738  0.4580
  637MOL0     C87801   1.185   8.988   0.353 -0.1298  0.2535  0.2291
  637MOL0     C87802   1.198   9.089   0.441 -0.0806  0.4102 -1.2045
  637MOL0     C87803   1.314   9.171   0.439  0.8186 -0.1469  0.0586
  637MOL0     O87804   1.322   9.273   0.535  0.0055  0.5121  0.2117
  637MOL0     C87805   1.389   9.399   0.501 -0.6442  0.0430  0.1965
  637MOL0     C87806   1.435   9.449   0.641 -0.2569  0.3364 -0.3095
  637MOL0     C87807   1.309   9.487   0.729 -0.2060 -0.5206 -0.2879
  637MOL0     C87808   1.358   9.514   0.872 -0.7098 -0.7790 -0.0399
  637MOL0     C87809   1.249   9.530   0.980  1.0308 -0.1435  0.5951
  637MOL0     C87810   1.135   9.632   0.952 -0.1904 -0.7527 -0.1747
  637MOL0     C87811   1.194   9.771   0.930 -0.3744  0.2358 -0.6513
  637MOL0     C87812   1.085   9.881   0.919  0.0828  0.0393 -0.2764
  637MOL0    Cl87813   0.948   9.887   1.033  0.4045 -0.1030 -0.1711
  637MOL0     C87814   1.417   9.144   0.347 -0.2038 -1.2659 -0.8942
  637MOL0     C87815   1.399   9.045   0.248  0.4650 -0.3642 -0.0589
  637MOL0     O87816   1.065   8.925   0.080  0.8154  0.6158  0.7156
  637MOL0     C87817   1.048   8.677  -0.051  0.7723  1.1307  0.2767
  637MOL0     C87818   1.044   8.589  -0.166 -0.3846  0.5423 -0.2349
  637MOL0     N87819   0.849   8.023  -0.228 -0.0640 -0.9572  0.1653
  637MOL0     N87820   0.752   7.981  -0.164 -0.1122  0.5879  0.3864
  637MOL0     C87821   0.565   8.659   0.876 -0.2745  0.4092  0.1496
  637MOL0     C87822   0.564   8.762   0.970 -0.9219 -0.4924  0.6238
  637MOL0     C87823   0.380   9.090   1.238 -0.0807 -0.2851  0.4755
  637MOL0     C87824   0.313   9.026   1.347  0.2756  0.0105  1.2337
  637MOL0     C87825   0.312   9.076   1.471 -0.0467 -0.7120 -0.4853
  637MOL0     C87826   0.390   9.191   1.506 -0.2836 -0.6180  0.2790
  637MOL0     O87827   0.389   9.263   1.622 -0.2602  0.2572 -0.0066
  637MOL0     C87828   0.515   9.260   1.693 -0.9395  0.2047 -0.8532
  637MOL0     C87829   0.561   9.393   1.763  0.2080  0.3175 -0.2792
  637MOL0     C87830   0.473   9.401   1.896 -0.1069 -0.7460 -0.1760
  637MOL0     C87831   0.542   9.338   2.021  0.2109 -0.4902  1.3342
  637MOL0     C87832   0.682   9.374   2.034 -0.5061  0.5390  0.9152
  637MOL0     C87833   0.801   9.396   2.035  0.6728 -0.5563 -1.2414
  637MOL0     C87834   0.466   9.255   1.404 -0.4711 -0.2475 -0.5229
  637MOL0     C87835   0.458   9.205   1.263  1.0051 -0.6561 -0.9182
  637MOL0     C87836   0.542   9.277   1.163 -0.4546 -0.0557  0.1634
  637MOL0     H87837   0.231   8.810   1.005 -0.2623  3.4061 -0.9273
  637MOL0     H87838   0.231   8.614   0.835  0.7444 -0.4580 -0.6498
  637MOL0     H87839   0.618   8.430   0.711  3.9781  4.6131 -1.4352
  637MOL0     H87840   0.585   8.573   0.620 -0.5584  0.3582 -0.6169
  637MOL0     H87841   0.442   8.304   0.602 -1.8206  0.2186 -1.3714
  637MOL0     H87842   0.401   8.428   0.487 -0.9031  2.1952  1.6136
  637MOL0     H87843   0.649   8.457   0.431  1.3817  0.6751  3.2997
  637MOL0     H87844   0.680   8.304   0.502 -0.5831 -1.2505 -0.2157
  637MOL0     H87845   0.552   8.179   0.364  2.1354  0.5639 -0.2612
  637MOL0     H87846   0.474   8.310   0.278 -0.1222 -1.2019 -1.4766
  637MOL0     H87847   0.783   8.278   0.251 -0.3387  1.6774  3.0418
  637MOL0     H87848   0.666   8.379   0.169 -1.4769 -0.3995  0.1707
  637MOL0     H87849   0.548   8.134   0.101  0.1803  1.1496  0.4870
  637MOL0     H87850   0.693   8.183   0.024  1.2147  0.8372  0.5341
  637MOL0     H87851   0.648   7.989   0.254 -2.9605  0.9184 -1.8098
  637MOL0     H87852   0.818   8.040   0.194 -1.7064  1.6814  2.1463
  637MOL0     H87853   0.733   7.811   0.109  1.2023  0.0802 -0.6359
  637MOL0     H87854   0.602   7.907   0.029 -0.7226 -1.1239 -0.3292
  637MOL0     H87855   0.998   7.925   0.051 -0.6350  1.7377  1.6230
  637MOL0     H87856   1.148   7.968  -0.258 -1.2649 -0.9954  0.5863
  637MOL0     H87857   1.178   8.025  -0.107 -0.7191  0.2145  0.3646
  637MOL0     H87858   1.052   8.249  -0.159 -0.2781  0.8661  0.5603
  637MOL0     H87859   1.218   8.221  -0.193 -1.2805  0.5504  2.1640
  637MOL0     H87860   1.169   8.193  -0.437 -1.1541  0.2656 -0.2784
  637MOL0     H87861   1.003   8.174  -0.408 -0.3107  1.5319 -1.5262
  637MOL0     H87862   1.026   8.414  -0.480  1.5611  1.1156  0.3252
  637MOL0     H87863   0.983   8.392  -0.306 -0.3299 -1.3426 -0.0197
  637MOL0     H87864   1.366   8.583  -0.240  0.9705  1.5793 -1.0205
  637MOL0     H87865   1.505   8.748  -0.120 -0.5346 -2.6798 -0.7097
  637MOL0     H87866   1.463   8.738   0.043 -1.0219 -0.5133 -0.4476
  637MOL0     H87867   1.398   8.876  -0.036 -0.4597  0.0016 -0.1041
  637MOL0     H87868   1.091   8.934   0.347  1.0278 -1.6732 -3.0192
  637MOL0     H87869   1.123   9.103   0.518 -0.7967  0.3742 -1.8938
  637MOL0     H87870   1.475   9.390   0.433  0.9501  1.0973  1.9477
  637MOL0     H87871   1.335   9.480   0.452  1.1927  0.1117 -1.8809
  637MOL0     H87872   1.495   9.372   0.691 -1.3881 -1.3451 -1.4176
  637MOL0     H87873   1.491   9.542   0.642  5.1667 -2.4770  2.2991
  637MOL0     H87874   1.240   9.402   0.727  1.3001 -1.7705 -0.9537
  637MOL0     H87875   1.261   9.577   0.688  0.0770  0.3935  1.3123
  637MOL0     H87876   1.411   9.610   0.876 -1.6881 -0.1507 -1.3723
  637MOL0     H87877   1.427   9.437   0.909  0.8288  1.6548  2.6101
  637MOL0     H87878   1.203   9.431   0.980 -1.1057  0.7904  0.6645
  637MOL0     H87879   1.296   9.537   1.079  2.3881 -0.4491  0.0018
  637MOL0     H87880   1.058   9.635   1.029  0.8937  1.2364  0.9312
  637MOL0     H87881   1.091   9.616   0.853 -3.6347  0.8153  0.9546
  637MOL0     H87882   1.245   9.779   0.834 -0.4422  2.1024 -0.5505
  637MOL0     H87883   1.255   9.786   1.019 -0.8031  1.1585 -0.5079
  637MOL0     H87884   1.041   9.870   0.820 -1.2200 -0.7716  0.3566
  637MOL0     H87885   1.146   9.967   0.949  0.1216 -0.8105  2.4125
  637MOL0     H87886   1.517   9.188   0.348 -0.0076 -1.6011 -2.6122
  637MOL0     H87887   1.469   9.035   0.167  0.0510  0.0930 -0.4819
  637MOL0     H87888   0.948   8.699  -0.016 -0.2166  2.6909 -3.0924
  637MOL0     H87889   0.948   8.555  -0.203 -0.3656  1.5192 -1.2248
  637MOL0     H87890   0.664   8.630   0.844  0.1648 -0.9744  2.4815
  637MOL0     H87891   0.657   8.808   1.002 -0.6997  0.5198 -1.3137
  637MOL0     H87892   0.271   8.926   1.333 -0.1813  0.5082 -1.4703
  637MOL0     H87893   0.257   9.024   1.549  0.5917 -1.2617 -0.3880
  637MOL0     H87894   0.517   9.181   1.769  2.7421  1.6100  0.7912
  637MOL0     H87895   0.595   9.257   1.619 -1.7469  3.0949 -1.9808
  637MOL0     H87896   0.529   9.478   1.703 -1.8934  0.4510  0.9466
  637MOL0     H87897   0.670   9.405   1.771  0.3741 -0.0715 -1.6178
  637MOL0     H87898   0.446   9.505   1.918 -1.7548 -1.6466  2.6093
  637MOL0     H87899   0.369   9.372   1.877 -0.7866  1.7885 -0.8295
  637MOL0     H87900   0.521   9.231   2.012  0.5126 -0.4251 -0.5712
  637MOL0     H87901   0.492   9.371   2.113 -1.3974  1.3672 -0.1149
  637MOL0     H87902   0.906   9.395   2.054  0.6730  0.0755 -1.1817
  637MOL0     H87903   0.525   9.344   1.420  0.3880 -1.1944  1.9017
  637MOL0     H87904   0.469   9.322   1.094 -1.2938 -0.5438  0.7187
  637MOL0     H87905   0.604   9.360   1.198  0.7131 -0.7780 -0.1287
  637MOL0     H87906   0.616   9.207   1.123  0.5038  0.7281  0.5259
  638MOL0     O87907   2.822   5.402   1.654  0.0764 -0.6812  0.3172
  638MOL0     C87908   2.814   5.421   1.776  0.1777 -0.5703  0.7858
  638MOL0     O87909   2.814   5.539   1.834 -0.7445  0.2058  0.4676
  638MOL0     C87910   2.811   5.650   1.760  0.1602 -0.2118 -0.0361
  638MOL0     C87911   2.902   5.674   1.653 -0.3374 -0.0693  0.7746
  638MOL0     C87912   2.894   5.789   1.570  0.0042 -0.2363  0.2224
  638MOL0     C87913   2.811   5.895   1.601  0.3380 -0.0597 -1.6084
  638MOL0     O87914   2.830   6.003   1.526 -0.0649 -0.2731 -0.5157
  638MOL0     C87915   2.819   6.131   1.595  0.2003  0.2865 -0.4781
  638MOL0     C87916   2.786   6.230   1.477  0.3623  0.2969 -0.0623
  638MOL0     C87917   2.888   6.231   1.365 -0.0200  0.0532  0.9141
  638MOL0     C87918   3.018   6.304   1.399 -0.5242  0.7307  0.2504
  638MOL0     C87919   3.119   6.277   1.284  0.0806  0.3304 -0.2571
  638MOL0     C87920   3.250   6.350   1.295  0.0723  0.1669  0.0316
  638MOL0     C87921   3.232   6.502   1.318 -0.6324  0.3767  0.3369
  638MOL0     C87922   3.363   6.577   1.312  0.7632 -0.1097  1.1659
  638MOL0     N87923   3.428   6.572   1.443  1.0249 -0.2339  0.3579
  638MOL0     C87924   3.387   6.659   1.544 -0.3438  0.4335 -0.1417
  638MOL0     C87925   3.484   6.661   1.638  0.7296  0.1604  0.9067
  638MOL0     C87926   3.467   6.730   1.769 -0.3732 -0.7734  0.5265
  638MOL0     C87927   3.551   6.671   1.880 -0.5583  0.1556 -0.5521
  638MOL0     C87928   3.512   6.738   2.002  0.4022 -0.3783  0.0144
  638MOL0     C87929   3.604   6.712   2.128 -0.2598  0.5257 -0.0190
  638MOL0     O87930   3.529   6.745   2.240  0.4224 -0.7575  0.1281
  638MOL0     C87931   3.460   6.651   2.308  1.0003  0.3137 -0.4790
  638MOL0     C87932   3.415   6.531   2.252  0.0162 -0.6858 -0.2201
  638MOL0     C87933   3.335   6.447   2.335 -0.5975  0.2279  0.0187
  638MOL0     C87934   3.295   6.315   2.261 -0.1510  0.1378 -0.5708
  638MOL0     C87935   3.297   6.477   2.469  1.0688  0.5630  0.5283
  638MOL0     C87936   3.217   6.387   2.551 -0.2945 -0.0930 -0.5079
  638MOL0     O87937   3.125   6.311   2.481  0.1921 -0.0293 -0.2656
  638MOL0     C87938   3.059   6.219   2.555  0.2899  0.1677 -0.2328
  638MOL0     C87939   3.058   6.083   2.508 -0.0032 -0.3020  0.5531
  638MOL0     C87940   2.978   5.989   2.569  0.0787 -0.0620  0.2396
  638MOL0     C87941   2.870   6.027   2.657 -0.4561  0.0369 -0.6308
  638MOL0     O87942   2.787   5.946   2.728  0.1332  0.5675 -1.0854
  638MOL0     C87943   2.718   5.838   2.655 -0.1132  0.3868 -0.4587
  638MOL0     C87944   2.606   5.774   2.741  0.3701  0.4508  0.1046
  638MOL0     C87945   2.506   5.701   2.641 -0.3344  0.3601 -1.0251
  638MOL0     C87946   2.470   5.552   2.678  0.5277 -0.4996 -0.0808
  638MOL0     C87947   2.384   5.496   2.570  0.1088  0.3008 -0.0238
  638MOL0     C87948   2.385   5.341   2.559 -0.3069  0.1155  0.1531
  638MOL0     C87949   2.298   5.316   2.433 -0.7619  0.0492 -0.1459
  638MOL0     C87950   2.324   5.183   2.372  0.1447 -0.7068  0.7680
  638MOL0    Cl87951   2.257   5.188   2.208  0.2871  0.0745  0.1218
  638MOL0     C87952   2.867   6.164   2.700 -0.3250  0.2740 -0.4065
  638MOL0     C87953   2.966   6.254   2.649  0.1285  0.0550 -0.1903
  638MOL0     O87954   3.254   6.366   2.669 -1.1985 -0.3890  0.1636
  638MOL0     C87955   3.336   6.605   2.513  0.0047  0.0131 -0.9583
  638MOL0     C87956   3.417   6.692   2.437 -0.1527 -0.0753  0.1448
  638MOL0     N87957   3.577   6.568   1.595 -0.3571  0.3453  0.9348
  638MOL0     N87958   3.547   6.520   1.480 -0.2925  0.3459  0.7103
  638MOL0     C87959   2.731   5.870   1.712  0.5847 -0.9887 -0.0618
  638MOL0     C87960   2.729   5.754   1.790  1.2360  0.3372 -0.2767
  638MOL0     C87961   2.762   5.305   1.852  0.3968  0.6172 -0.5126
  638MOL0     C87962   2.711   5.335   1.978 -0.1920 -0.4287  0.1360
  638MOL0     C87963   2.638   5.240   2.068 -0.3500 -0.1095  0.7179
  638MOL0     C87964   2.620   5.119   2.013  0.0645 -0.2376  0.0272
  638MOL0     O87965   2.537   5.025   2.082 -0.4961  0.8654 -0.4115
  638MOL0     C87966   2.598   4.929   2.165  0.5328 -0.0144  0.4032
  638MOL0     C87967   2.555   4.795   2.130 -0.4654  0.9467  0.0568
  638MOL0     C87968   2.409   4.781   2.151 -0.7829 -0.0484 -0.2180
  638MOL0     C87969   2.357   4.700   2.027  0.5929  0.2032 -0.3236
  638MOL0     C87970   2.239   4.623   2.074  0.1828  0.8223 -0.3583
  638MOL0     C87971   2.146   4.552   2.080 -0.1423  0.6064  0.0252
  638MOL0     C87972   2.674   5.075   1.890 -0.7851 -0.6114 -0.5270
  638MOL0     C87973   2.740   5.171   1.810  0.1548 -0.3172  0.5352
  638MOL0     C87974   2.800   5.128   1.680 -1.5351  0.3508  0.0872
  638MOL0     H87975   2.986   5.611   1.625 -1.0142  0.2486 -2.4028
  638MOL0     H87976   2.954   5.782   1.480 -3.1307  1.1790 -2.2162
  638MOL0     H87977   2.917   6.157   1.636  1.5736 -4.8517  0.1821
  638MOL0     H87978   2.747   6.151   1.675 -0.7811 -0.6341 -1.0910
  638MOL0     H87979   2.690   6.206   1.430  0.1169  1.2851 -0.1005
  638MOL0     H87980   2.778   6.332   1.517  1.8971  0.5528 -0.3583
  638MOL0     H87981   2.900   6.130   1.325  0.5115  1.0436 -1.6264
  638MOL0     H87982   2.851   6.301   1.290  1.3719  2.3506  2.2661
  638MOL0     H87983   2.990   6.410   1.394 -1.9688  0.5093  2.1203
  638MOL0     H87984   3.061   6.275   1.495  0.0480  1.2437  0.1577
  638MOL0     H87985   3.075   6.303   1.187  0.4718 -0.3158 -0.6119
  638MOL0     H87986   3.138   6.169   1.288  0.6227  0.4436  2.0409
  638MOL0     H87987   3.300   6.310   1.384  3.9830  2.1363 -1.0353
  638MOL0     H87988   3.305   6.327   1.203  1.0920 -0.6119  0.8177
  638MOL0     H87989   3.179   6.517   1.413 -2.2080 -1.8649 -0.1104
  638MOL0     H87990   3.165   6.536   1.238 -1.3286  0.4522  0.9345
  638MOL0     H87991   3.429   6.540   1.232 -0.8200  3.3019 -1.9762
  638MOL0     H87992   3.352   6.679   1.274 -0.3820 -1.2632 -1.8921
  638MOL0     H87993   3.292   6.711   1.546 -0.9659 -0.6741  2.1753
  638MOL0     H87994   3.363   6.729   1.802  0.0143 -1.2525  1.7965
  638MOL0     H87995   3.498   6.833   1.745 -2.4527 -0.5888 -1.7251
  638MOL0     H87996   3.539   6.563   1.893 -1.2675  0.2411 -0.4259
  638MOL0     H87997   3.656   6.678   1.853  1.1438  1.7670  5.1758
  638MOL0     H87998   3.514   6.848   1.996 -1.4992  0.0728  3.9303
  638MOL0     H87999   3.415   6.698   2.033  0.2710 -0.2922 -0.2798
  638MOL0     H88000   3.636   6.608   2.122 -2.6927 -0.2155 -1.4252
  638MOL0     H88001   3.693   6.775   2.136  1.2202 -1.6750  4.6997
  638MOL0     H88002   3.447   6.523   2.149 -3.3455  3.2509 -1.8526
  638MOL0     H88003   3.316   6.244   2.342  0.7804  1.4772  0.4013
  638MOL0     H88004   3.343   6.283   2.168 -1.5575 -0.1585 -1.2294
  638MOL0     H88005   3.186   6.306   2.252 -0.6431  1.8061  2.4687
  638MOL0     H88006   3.126   6.048   2.431 -0.6763  0.0194 -0.2034
  638MOL0     H88007   2.988   5.884   2.544  0.3868  0.0299 -0.0235
  638MOL0     H88008   2.673   5.888   2.568  2.6997  3.1659 -0.5026
  638MOL0     H88009   2.794   5.772   2.613  0.7464  1.7143 -1.0923
  638MOL0     H88010   2.645   5.708   2.818 -0.2939  1.3439  1.2298
  638MOL0     H88011   2.547   5.854   2.786 -4.8008 -1.5981 -2.2771
  638MOL0     H88012   2.556   5.702   2.543  2.9364 -2.1845  0.4041
  638MOL0     H88013   2.416   5.763   2.641  0.4538  1.6043  1.2992
  638MOL0     H88014   2.423   5.542   2.777  1.1147 -1.4991  0.1113
  638MOL0     H88015   2.559   5.490   2.689  0.4351 -0.5082  0.7253
  638MOL0     H88016   2.285   5.539   2.588 -0.3564 -1.6952  2.8792
  638MOL0     H88017   2.418   5.542   2.477  1.4119  1.1211  0.8220
  638MOL0     H88018   2.355   5.288   2.650  2.6899 -1.3192  0.4317
  638MOL0     H88019   2.491   5.320   2.541  1.2394  5.8708  0.5746
  638MOL0     H88020   2.331   5.395   2.364  1.3647 -2.1021 -1.7462
  638MOL0     H88021   2.195   5.347   2.453 -0.2989  2.2309 -0.7939
  638MOL0     H88022   2.262   5.108   2.423 -1.1402  0.3646  0.8370
  638MOL0     H88023   2.430   5.163   2.357  0.0270  0.5993 -2.9060
  638MOL0     H88024   2.788   6.191   2.770  1.3704 -1.1707  2.2804
  638MOL0     H88025   2.963   6.360   2.672 -4.0493 -0.2183  1.3991
  638MOL0     H88026   3.287   6.643   2.602 -1.1407  0.1577 -1.6368
  638MOL0     H88027   3.441   6.792   2.473  0.8735 -0.8883  1.8807
  638MOL0     H88028   2.666   5.956   1.729  0.8133 -0.5023 -1.4814
  638MOL0     H88029   2.656   5.756   1.871 -2.3131  1.7727 -3.2579
  638MOL0     H88030   2.711   5.432   2.027 -1.4220 -1.4829  2.4156
  638MOL0     H88031   2.588   5.266   2.161  0.5069  0.6777  0.9711
  638MOL0     H88032   2.707   4.926   2.158  0.7086 -2.2981  2.9141
  638MOL0     H88033   2.578   4.940   2.272  3.0956 -0.9476  1.0393
  638MOL0     H88034   2.617   4.728   2.191 -0.6299  1.3948  0.7244
  638MOL0     H88035   2.598   4.782   2.030  0.5606 -1.0036  0.7034
  638MOL0     H88036   2.405   4.726   2.246  0.6614  2.0970  1.2087
  638MOL0     H88037   2.350   4.870   2.172 -0.3643 -0.4445  3.4059
  638MOL0     H88038   2.439   4.639   1.990  0.7594  1.4334 -2.0807
  638MOL0     H88039   2.335   4.762   1.939 -2.6468  2.0706  1.5759
  638MOL0     H88040   2.073   4.479   2.106  0.0605  0.4123  0.0548
  638MOL0     H88041   2.675   4.971   1.860 -0.2308 -0.6910 -0.2522
  638MOL0     H88042   2.769   5.175   1.587 -2.9324 -1.1353 -0.2533
  638MOL0     H88043   2.906   5.153   1.692 -2.1855  2.0369  3.5120
  638MOL0     H88044   2.791   5.020   1.666  0.3117 -0.5449  4.3589
  639MOL0     O88045   0.586   6.950  11.450  0.2395  0.1033  1.2604
  639MOL0     C88046   0.499   6.872  11.411  0.5837 -0.6854 -0.8642
  639MOL0     O88047   0.511   6.744  11.358 -0.4239 -0.0147 -0.1028
  639MOL0     C88048   0.634   6.687  11.327  0.3478 -0.1507  0.1501
  639MOL0     C88049   0.657   6.542  11.347 -0.3833  0.2845  0.4102
  639MOL0     C88050   0.785   6.484  11.305 -0.0829  0.2015  0.7349
  639MOL0     C88051   0.882   6.560  11.245  0.2667  0.1863 -0.2548
  639MOL0     O88052   1.004   6.514  11.207 -0.0591  0.1179  0.5668
  639MOL0     C88053   1.021   6.379  11.159  0.1915  0.2295 -0.0007
  639MOL0     C88054   1.068   6.291  11.283 -0.6303 -0.1700  0.7456
  639MOL0     C88055   1.220   6.301  11.308 -0.0954 -0.2330 -0.1082
  639MOL0     C88056   1.269   6.185  11.398 -0.7509 -0.1167  0.2142
  639MOL0     C88057   1.424   6.194  11.416  0.7937 -0.7767  0.3316
  639MOL0     C88058   1.488   6.071  11.479  0.8235 -0.0824 -0.3539
  639MOL0     C88059   1.484   6.085  11.634 -0.0542  0.8211 -0.1104
  639MOL0     C88060   1.550   5.965  11.710  0.3018 -0.6589 -0.4813
  639MOL0     N88061   1.674   5.918  11.641 -0.3739 -0.5885 -0.6072
  639MOL0     C88062   1.711   5.782  11.627  0.7429  0.2551 -0.1207
  639MOL0     C88063   1.838   5.773  11.594 -0.4771  0.1624  0.1897
  639MOL0     C88064   1.923   5.658  11.548  0.2729 -0.7914  0.6369
  639MOL0     C88065   2.036   5.611  11.656 -0.2479  0.4768 -0.4733
  639MOL0     C88066   1.975   5.535  11.781  0.0084 -0.2570  1.1136
  639MOL0     C88067   2.060   5.437  11.844 -0.3051  0.8483 -0.4507
  639MOL0     O88068   2.010   5.413  11.982  0.4852 -0.5929  0.0330
  639MOL0     C88069   2.087   5.354  12.078  0.0084  0.0036  0.4715
  639MOL0     C88070   2.043   5.346  12.205  0.4625 -1.7666  0.1196
  639MOL0     C88071   2.119   5.293  12.313 -0.5542  0.9898 -0.4666
  639MOL0     C88072   2.047   5.287  12.449  0.0902  0.8083  0.2906
  639MOL0     C88073   2.253   5.239  12.288 -0.0440 -0.7063 -0.6344
  639MOL0     C88074   2.333   5.164  12.398  0.1110 -0.3580 -0.1729
  639MOL0     O88075   2.451   5.121  12.351 -0.2522  0.4893  0.1371
  639MOL0     C88076   2.539   5.081  12.450 -0.2834  0.4348  0.4744
  639MOL0     C88077   2.562   4.947  12.479  0.7365  0.1751  0.5489
  639MOL0     C88078   2.660   4.903  12.572 -0.4133 -0.1696 -0.3489
  639MOL0     C88079   2.734   5.001  12.640 -0.3259  0.4325  0.4284
  639MOL0     O88080   2.825   4.968  12.737 -0.1608  0.9883  0.1076
  639MOL0     C88081   2.767   4.906  12.854  0.6023 -0.6124  0.4428
  639MOL0     C88082   2.804   4.753  12.846  0.3833  1.0552 -0.0556
  639MOL0     C88083   2.960   4.731  12.833 -0.5368 -0.1452  0.0111
  639MOL0     C88084   3.007   4.583  12.833  0.3552 -0.8030  0.2749
  639MOL0     C88085   3.131   4.562  12.744  0.0755 -0.4164  0.6814
  639MOL0     C88086   3.200   4.422  12.735  0.5568 -0.6354 -0.4137
  639MOL0     C88087   3.121   4.323  12.640 -0.3149  0.3001  0.0060
  639MOL0     C88088   3.091   4.362  12.499  0.0871 -0.9664  0.1080
  639MOL0    Cl88089   3.218   4.455  12.432 -0.2545  0.1930 -0.9863
  639MOL0     C88090   2.702   5.137  12.625 -0.5874  0.0352 -0.6866
  639MOL0     C88091   2.606   5.173  12.527 -0.2635  0.8348 -0.2808
  639MOL0     O88092   2.287   5.150  12.514 -0.1059  0.1683 -0.2739
  639MOL0     C88093   2.299   5.256  12.153  0.0947  0.3676 -1.0281
  639MOL0     C88094   2.209   5.294  12.048  0.5136 -0.2515 -0.6550
  639MOL0     N88095   1.878   5.903  11.594 -0.7028  0.3538 -0.1092
  639MOL0     N88096   1.791   5.991  11.614 -0.2287  0.5951 -0.0236
  639MOL0     C88097   0.866   6.698  11.232  0.1063  0.2129  0.9962
  639MOL0     C88098   0.738   6.759  11.264 -0.0017  0.0381 -0.1426
  639MOL0     C88099   0.366   6.919  11.402 -0.1554  0.2609 -0.8890
  639MOL0     C88100   0.275   6.837  11.460 -0.0949 -0.1420  0.4142
  639MOL0     C88101   0.139   6.860  11.460 -0.6169 -0.7139 -0.1824
  639MOL0     C88102   0.094   6.984  11.408 -0.4041 -0.0759  0.4285
  639MOL0     O88103  -0.041   7.024  11.411  0.1151  0.4331  0.3928
  639MOL0     C88104  -0.129   6.932  11.481  0.0722  0.2361 -0.1392
  639MOL0     C88105  -0.274   6.985  11.460 -0.3810 -0.8240 -0.2351
  639MOL0     C88106  -0.300   6.988  11.312  0.8450  0.4284  1.4693
  639MOL0     C88107  -0.449   7.017  11.289  0.1169 -0.6587  1.0809
  639MOL0     C88108  -0.485   7.065  11.151  0.7367  1.3472 -0.1885
  639MOL0     C88109  -0.500   7.096  11.039  0.0319 -0.9388  0.5018
  639MOL0     C88110   0.188   7.083  11.365 -0.9504  0.0599 -0.2933
  639MOL0     C88111   0.324   7.048  11.359 -1.0119  0.8167 -0.1914
  639MOL0     C88112   0.428   7.139  11.290  0.9087 -0.5847 -1.0561
  639MOL0     H88113   0.578   6.477  11.383 -0.1411  0.3279  1.0329
  639MOL0     H88114   0.785   6.376  11.314  1.6426  0.0209 -0.8518
  639MOL0     H88115   1.082   6.375  11.069 -1.9336  0.5576 -1.5308
  639MOL0     H88116   0.925   6.337  11.126 -0.4487  1.6579 -0.0720
  639MOL0     H88117   1.020   6.303  11.380  0.0366 -5.2257  1.9512
  639MOL0     H88118   1.044   6.185  11.269  0.9291 -0.5325  0.7153
  639MOL0     H88119   1.266   6.298  11.209 -2.8398  3.6361 -1.7644
  639MOL0     H88120   1.243   6.401  11.348  1.4221 -0.4312 -0.4239
  639MOL0     H88121   1.215   6.185  11.492  1.3299 -1.6710  1.5091
  639MOL0     H88122   1.251   6.091  11.344 -0.8010 -0.6693  1.1824
  639MOL0     H88123   1.448   6.285  11.471 -1.1479 -1.1075  1.8575
  639MOL0     H88124   1.463   6.217  11.317 -1.8132  0.6843 -0.4500
  639MOL0     H88125   1.449   5.976  11.443  2.1924 -0.3388 -1.2480
  639MOL0     H88126   1.593   6.074  11.447  0.8495  1.3147 -0.2156
  639MOL0     H88127   1.377   6.104  11.648  0.1623  1.7156  0.4130
  639MOL0     H88128   1.521   6.181  11.669  0.5861 -0.6263  3.7368
  639MOL0     H88129   1.576   5.996  11.812  2.4928  0.6159 -1.3574
  639MOL0     H88130   1.476   5.886  11.700  1.4914 -1.8856  0.0256
  639MOL0     H88131   1.643   5.697  11.637  3.2864 -1.9090 -0.2862
  639MOL0     H88132   1.980   5.695  11.463 -0.2696  1.8550  1.3344
  639MOL0     H88133   1.857   5.574  11.523 -1.3374  0.4514  0.5355
  639MOL0     H88134   2.105   5.544  11.604 -0.3038  0.2974 -0.3163
  639MOL0     H88135   2.091   5.696  11.697 -1.2464  1.0679 -0.3283
  639MOL0     H88136   1.951   5.611  11.856 -0.8739 -1.3473  1.9643
  639MOL0     H88137   1.879   5.492  11.752 -0.8266 -1.3603  4.9395
  639MOL0     H88138   2.063   5.345  11.786 -1.4768 -0.5005  1.5145
  639MOL0     H88139   2.162   5.475  11.856  0.0222  1.5774 -4.4087
  639MOL0     H88140   1.954   5.401  12.234  3.2641  3.5562 -0.0967
  639MOL0     H88141   1.948   5.333  12.452  0.4281  1.4920  1.2230
  639MOL0     H88142   2.109   5.324  12.531  0.9548 -1.6622  0.8574
  639MOL0     H88143   2.032   5.182  12.478 -3.6052  0.3244 -2.6352
  639MOL0     H88144   2.506   4.872  12.425  3.8621 -1.5466 -0.5485
  639MOL0     H88145   2.685   4.801  12.599  1.8342  1.0667  2.8461
  639MOL0     H88146   2.813   4.950  12.943  1.4368 -1.7460  0.5975
  639MOL0     H88147   2.659   4.921  12.844  0.6783 -0.2965  0.0610
  639MOL0     H88148   2.758   4.699  12.929 -1.7858 -2.2603 -3.1144
  639MOL0     H88149   2.756   4.710  12.758  0.2845 -0.4537  0.7003
  639MOL0     H88150   3.008   4.789  12.913  0.0390  1.2690 -1.3089
  639MOL0     H88151   3.003   4.772  12.741 -2.1437 -0.3292 -0.8550
  639MOL0     H88152   2.926   4.513  12.809 -2.0971  1.6418  0.8584
  639MOL0     H88153   3.032   4.551  12.935 -0.0613 -1.8642  0.0520
  639MOL0     H88154   3.118   4.593  12.640  1.6594  0.2554  0.6683
  639MOL0     H88155   3.218   4.616  12.782  3.0803 -2.6937 -2.4130
  639MOL0     H88156   3.192   4.388  12.838  1.2511  2.5629  0.8163
  639MOL0     H88157   3.304   4.435  12.703  0.8323  0.7563  0.9282
  639MOL0     H88158   3.024   4.302  12.686  0.1508  0.8580  1.2883
  639MOL0     H88159   3.174   4.227  12.636 -0.4137  0.2715 -0.6855
  639MOL0     H88160   2.999   4.419  12.490 -1.1850 -3.1959 -2.5217
  639MOL0     H88161   3.067   4.278  12.433 -4.3188  1.3603 -1.6235
  639MOL0     H88162   2.760   5.207  12.685 -2.6535 -0.4496  2.0812
  639MOL0     H88163   2.569   5.274  12.512 -3.4979 -0.2633 -0.5760
  639MOL0     H88164   2.393   5.217  12.113  1.2983  1.4853  0.5788
  639MOL0     H88165   2.239   5.283  11.944  2.5214 -1.1682 -0.0250
  639MOL0     H88166   0.948   6.755  11.189  0.1684  0.0401  0.8866
  639MOL0     H88167   0.715   6.863  11.239  1.4852  0.7206  1.1773
  639MOL0     H88168   0.314   6.748  11.508  4.2358  0.1842 -2.0238
  639MOL0     H88169   0.071   6.783  11.496 -3.7029  1.1310 -1.6090
  639MOL0     H88170  -0.127   6.829  11.447 -0.0766 -0.5731  2.1161
  639MOL0     H88171  -0.100   6.931  11.587 -0.2112 -0.8336 -0.0628
  639MOL0     H88172  -0.295   7.086  11.494 -2.4827 -1.5991  0.9187
  639MOL0     H88173  -0.332   6.907  11.511 -0.6684  0.8545  2.1528
  639MOL0     H88174  -0.249   7.068  11.258  1.4493 -0.6829  0.3439
  639MOL0     H88175  -0.281   6.894  11.259  2.6734  0.4084  2.0976
  639MOL0     H88176  -0.485   7.089  11.363  1.2807  2.5680 -1.2414
  639MOL0     H88177  -0.495   6.921  11.313  1.4344 -0.4392  5.1656
  639MOL0     H88178  -0.510   7.101  10.932 -0.6082  3.2464  0.5983
  639MOL0     H88179   0.146   7.175  11.326 -0.5115  0.7512  0.8234
  639MOL0     H88180   0.370   7.209  11.230 -2.0810  1.1340  3.3551
  639MOL0     H88181   0.483   7.195  11.367  0.8448  1.2485 -2.2654
  639MOL0     H88182   0.503   7.080  11.236  2.5150  0.8898 -0.5472
  640MOL0     O88183   8.324   2.791   8.698 -0.2784 -0.3370 -0.7533
  640MOL0     C88184   8.259   2.682   8.717 -0.0162 -0.1560 -0.6316
  640MOL0     O88185   8.216   2.595   8.616  0.1175  0.5353 -0.1814
  640MOL0     C88186   8.240   2.648   8.490 -0.3453  0.0298 -0.1946
  640MOL0     C88187   8.350   2.597   8.426  0.0155  0.5433  0.0185
  640MOL0     C88188   8.382   2.637   8.295  0.4936 -0.4392  0.0279
  640MOL0     C88189   8.299   2.726   8.226  0.1795  0.2122 -0.0147
  640MOL0     O88190   8.329   2.778   8.106  0.4127  0.2151  0.3114
  640MOL0     C88191   8.380   2.691   8.006 -0.3917  0.0724  0.1046
  640MOL0     C88192   8.390   2.768   7.867 -0.0320  0.0355 -1.3707
  640MOL0     C88193   8.513   2.734   7.781  1.5570 -0.1247 -0.4863
  640MOL0     C88194   8.505   2.583   7.750 -0.0062  0.3590 -0.8564
  640MOL0     C88195   8.387   2.545   7.654 -0.4236 -0.2532  1.4044
  640MOL0     C88196   8.433   2.589   7.522  0.7274  0.0758 -0.7492
  640MOL0     C88197   8.343   2.563   7.402  0.6478 -0.1120  0.7621
  640MOL0     C88198   8.294   2.418   7.388  0.4134 -0.1938 -0.6383
  640MOL0     N88199   8.176   2.398   7.307  0.0591  0.1072 -0.4254
  640MOL0     C88200   8.060   2.339   7.339  0.0699  0.4409  0.5725
  640MOL0     C88201   7.999   2.320   7.218 -0.2627  0.8333 -0.4987
  640MOL0     C88202   7.862   2.263   7.218  0.0870 -0.5546  0.1791
  640MOL0     C88203   7.768   2.385   7.264 -0.2208 -0.2665  0.1948
  640MOL0     C88204   7.618   2.353   7.228  0.1929  0.2576  0.7985
  640MOL0     C88205   7.521   2.477   7.238 -0.0814 -0.5321  1.0032
  640MOL0     O88206   7.534   2.588   7.138  0.4359 -0.0232 -0.3312
  640MOL0     C88207   7.515   2.550   7.008 -0.2338 -0.4768 -0.2357
  640MOL0     C88208   7.614   2.491   6.931  0.8563  0.0314 -0.6242
  640MOL0     C88209   7.608   2.450   6.799 -0.0372  0.1117 -0.9249
  640MOL0     C88210   7.728   2.413   6.734  0.0788  0.4878 -0.2639
  640MOL0     C88211   7.474   2.460   6.746  0.6247 -0.1248  0.2690
  640MOL0     C88212   7.452   2.413   6.609  0.4951 -0.4710 -0.4461
  640MOL0     O88213   7.332   2.367   6.588 -0.1913  0.2426  0.3330
  640MOL0     C88214   7.297   2.318   6.466  0.1733  0.5178  0.6294
  640MOL0     C88215   7.355   2.202   6.410  0.1141  0.0176  0.2475
  640MOL0     C88216   7.318   2.150   6.285 -0.3849 -0.1532  0.2086
  640MOL0     C88217   7.243   2.230   6.201 -0.3648  0.4978  0.2632
  640MOL0     O88218   7.221   2.188   6.069 -0.4675  0.1450  0.4209
  640MOL0     C88219   7.176   2.280   5.968 -0.5314 -0.2451 -1.1277
  640MOL0     C88220   7.027   2.272   5.957 -0.2484 -0.1210  0.2552
  640MOL0     C88221   6.982   2.399   5.881 -0.1120  0.0543  0.4718
  640MOL0     C88222   7.070   2.428   5.754 -1.0439 -0.0746  0.1960
  640MOL0     C88223   7.017   2.545   5.668  0.1292  0.7487  0.3483
  640MOL0     C88224   7.106   2.549   5.540  0.0670  0.1754 -0.6708
  640MOL0     C88225   7.094   2.676   5.454  0.5539  0.3601 -0.1916
  640MOL0     C88226   6.954   2.709   5.405 -0.0731 -0.1160 -0.3877
  640MOL0    Cl88227   6.895   2.588   5.280 -0.4285 -0.4329 -0.3266
  640MOL0     C88228   7.189   2.349   6.256 -0.6629 -0.7165  0.2680
  640MOL0     C88229   7.214   2.389   6.389  0.4471  0.0852  0.6241
  640MOL0     O88230   7.533   2.439   6.527 -0.2723  0.1452  0.4576
  640MOL0     C88231   7.372   2.536   6.816 -0.1001  0.5610 -2.1012
  640MOL0     C88232   7.389   2.579   6.947 -0.5548 -0.7545 -0.7167
  640MOL0     N88233   8.060   2.385   7.114 -0.6933  0.0194  0.5377
  640MOL0     N88234   8.170   2.432   7.171 -0.5574  0.0876 -0.2986
  640MOL0     C88235   8.190   2.778   8.297 -0.4960 -0.0618 -0.1535
  640MOL0     C88236   8.160   2.738   8.426 -0.1910 -0.1624  0.3876
  640MOL0     C88237   8.223   2.656   8.856  0.2686  0.4474  0.0627
  640MOL0     C88238   8.308   2.687   8.958  0.1269  0.3373 -0.5726
  640MOL0     C88239   8.271   2.657   9.093 -1.6148 -0.7612  0.5212
  640MOL0     C88240   8.147   2.604   9.129 -0.7597  0.1712 -0.5969
  640MOL0     O88241   8.103   2.576   9.258  0.0237 -0.8450  0.1285
  640MOL0     C88242   8.183   2.617   9.364 -0.4838  0.5421 -0.2360
  640MOL0     C88243   8.090   2.592   9.484 -0.1576  0.4237  0.3444
  640MOL0     C88244   8.077   2.437   9.514 -0.1669  0.1674 -0.4090
  640MOL0     C88245   8.080   2.419   9.669  0.0110  0.1155 -0.2312
  640MOL0     C88246   7.944   2.448   9.721 -0.8445 -0.6912  0.4550
  640MOL0     C88247   7.828   2.442   9.756  0.3931  0.4765  0.5301
  640MOL0     C88248   8.051   2.601   9.027 -0.5577  0.7296  1.1517
  640MOL0     C88249   8.090   2.620   8.891 -0.2629  1.4338 -0.0856
  640MOL0     C88250   7.980   2.607   8.780 -0.1380  0.4467  0.5559
  640MOL0     H88251   8.413   2.528   8.481 -1.4142 -0.9281 -0.1305
  640MOL0     H88252   8.470   2.607   8.238 -0.4477 -1.0150 -1.1757
  640MOL0     H88253   8.315   2.604   7.993 -0.3594  0.2643 -1.6732
  640MOL0     H88254   8.483   2.667   8.035 -0.5016  2.4235  2.8716
  640MOL0     H88255   8.294   2.737   7.826 -1.0953 -1.7552  2.0320
  640MOL0     H88256   8.398   2.873   7.895 -1.3599  0.0043 -0.8055
  640MOL0     H88257   8.515   2.796   7.691  3.1001  0.6541  0.0625
  640MOL0     H88258   8.608   2.755   7.831  1.1660  2.5722 -0.7412
  640MOL0     H88259   8.604   2.541   7.733  1.6685  3.1796  1.0282
  640MOL0     H88260   8.492   2.535   7.847  1.7527  1.6359  0.0694
  640MOL0     H88261   8.286   2.585   7.672  0.0663  0.1741  3.5403
  640MOL0     H88262   8.380   2.436   7.657  1.9194 -0.5255 -0.4079
  640MOL0     H88263   8.463   2.694   7.515 -1.8739  1.1033  1.5542
  640MOL0     H88264   8.528   2.537   7.508  0.8115 -0.5135  1.6392
  640MOL0     H88265   8.391   2.591   7.308 -3.4066 -0.8110 -1.7806
  640MOL0     H88266   8.251   2.623   7.404  0.4806 -0.3773  2.2307
  640MOL0     H88267   8.376   2.357   7.350  1.8518 -0.2450  2.2476
  640MOL0     H88268   8.274   2.374   7.486 -0.9851  3.9845  1.1984
  640MOL0     H88269   8.040   2.290   7.434 -0.1836 -1.1126 -0.2623
  640MOL0     H88270   7.851   2.178   7.286  1.8164  0.0420  1.2638
  640MOL0     H88271   7.841   2.234   7.115 -0.7907 -0.2040  0.2548
  640MOL0     H88272   7.791   2.399   7.370  3.2807  1.6259 -0.6733
  640MOL0     H88273   7.790   2.477   7.209  0.3069 -0.7341 -0.3820
  640MOL0     H88274   7.612   2.331   7.121  3.2404  4.6189 -0.5404
  640MOL0     H88275   7.573   2.278   7.293  0.6144  0.5874  1.4876
  640MOL0     H88276   7.420   2.445   7.265  0.1846 -1.0332  1.4305
  640MOL0     H88277   7.549   2.524   7.332  0.9132 -0.8305  0.8702
  640MOL0     H88278   7.710   2.491   6.981 -0.1096  0.7501  1.3354
  640MOL0     H88279   7.741   2.305   6.739 -3.4605 -0.0155  1.3543
  640MOL0     H88280   7.810   2.460   6.788  0.0436 -1.2186  1.3833
  640MOL0     H88281   7.751   2.458   6.636  1.1138  1.3572  0.3575
  640MOL0     H88282   7.420   2.149   6.478  0.5078  1.8993  1.4290
  640MOL0     H88283   7.356   2.052   6.261  0.9498  0.7442 -1.5660
  640MOL0     H88284   7.212   2.378   6.002  1.9366 -2.0870  2.3186
  640MOL0     H88285   7.227   2.244   5.878 -0.5420 -0.8652 -0.8925
  640MOL0     H88286   7.008   2.177   5.906 -0.0709  0.8745 -1.7659
  640MOL0     H88287   6.975   2.279   6.053 -0.4104  2.4980  0.0365
  640MOL0     H88288   6.991   2.489   5.943  0.9392  0.0305  0.3742
  640MOL0     H88289   6.877   2.398   5.852  0.5796 -2.1735 -2.4399
  640MOL0     H88290   7.054   2.337   5.696 -1.6191  1.6318 -2.4629
  640MOL0     H88291   7.177   2.439   5.773 -0.7242  0.0673 -1.5369
  640MOL0     H88292   6.917   2.520   5.630  0.0482  0.1435  0.9495
  640MOL0     H88293   7.016   2.638   5.726  2.4413  0.3320  1.1432
  640MOL0     H88294   7.100   2.458   5.481  1.5281 -0.4594  0.1069
  640MOL0     H88295   7.210   2.545   5.575  0.5667  3.3933 -1.4532
  640MOL0     H88296   7.145   2.666   5.358 -1.4502  4.8233 -2.0328
  640MOL0     H88297   7.121   2.763   5.515 -0.5326 -0.8032  2.0928
  640MOL0     H88298   6.960   2.804   5.350 -0.8547 -0.3054 -0.8136
  640MOL0     H88299   6.880   2.720   5.484 -0.1750  0.9742 -0.6078
  640MOL0     H88300   7.115   2.401   6.196 -0.8516 -0.9019  0.3394
  640MOL0     H88301   7.181   2.480   6.437 -0.4106 -0.3104  0.7876
  640MOL0     H88302   7.267   2.546   6.788 -0.9870  0.8747  0.9933
  640MOL0     H88303   7.314   2.634   7.003 -0.4819  0.2949 -1.6105
  640MOL0     H88304   8.124   2.850   8.251  0.0561  2.0988  2.2033
  640MOL0     H88305   8.075   2.780   8.479  1.2636  0.8385  2.0796
  640MOL0     H88306   8.403   2.735   8.937 -0.2968  0.3282 -2.7667
  640MOL0     H88307   8.337   2.693   9.171 -1.1118 -0.9915  0.2078
  640MOL0     H88308   8.276   2.560   9.362 -0.2224  0.8774  1.3365
  640MOL0     H88309   8.209   2.724   9.362 -0.5802  0.6127  1.3619
  640MOL0     H88310   7.992   2.637   9.466  0.6552  2.1837  0.0398
  640MOL0     H88311   8.123   2.651   9.571 -3.3883  1.9176  0.7041
  640MOL0     H88312   7.993   2.381   9.471  0.2985 -3.1334  2.5649
  640MOL0     H88313   8.162   2.387   9.467 -1.0932 -0.4361 -1.5021
  640MOL0     H88314   8.160   2.472   9.720  0.6790 -0.9599 -0.1438
  640MOL0     H88315   8.095   2.311   9.680  1.5558  0.2094 -1.1497
  640MOL0     H88316   7.722   2.431   9.765 -0.2905  1.3387 -4.1752
  640MOL0     H88317   7.956   2.566   9.066  0.2933 -2.8971  0.3482
  640MOL0     H88318   7.881   2.594   8.825 -0.0834  2.1401  1.2142
  640MOL0     H88319   7.984   2.689   8.708  0.3380  1.2692  1.4988
  640MOL0     H88320   7.992   2.518   8.717 -0.0100  0.2699  0.8263
  641MOL0     O88321   5.230   3.473   1.295 -0.1572  0.2150 -0.5697
  641MOL0     C88322   5.220   3.369   1.227  0.0131 -0.7818  0.4521
  641MOL0     O88323   5.280   3.248   1.249  0.4040 -0.3501 -0.7051
  641MOL0     C88324   5.372   3.239   1.354  0.2339 -0.4191 -0.1314
  641MOL0     C88325   5.484   3.323   1.368 -0.3902  0.0276  0.0837
  641MOL0     C88326   5.574   3.308   1.472 -0.0952 -0.3228  0.8308
  641MOL0     C88327   5.561   3.193   1.555 -0.9522 -0.3979  0.7054
  641MOL0     O88328   5.666   3.162   1.636 -0.3577  1.1751 -0.0813
  641MOL0     C88329   5.713   3.259   1.733  0.5325  0.3160 -0.9563
  641MOL0     C88330   5.780   3.186   1.842  1.0820  1.0382 -0.3248
  641MOL0     C88331   5.930   3.182   1.843  0.8925 -0.2629 -0.1897
  641MOL0     C88332   5.975   3.112   1.711 -0.5381 -0.8623  0.2621
  641MOL0     C88333   6.133   3.099   1.700 -0.0076  0.0162 -0.6621
  641MOL0     C88334   6.175   3.058   1.562  0.3472  0.4724  0.6150
  641MOL0     C88335   6.314   3.126   1.533 -0.3038  0.4787 -0.2289
  641MOL0     C88336   6.425   3.072   1.629 -0.2950  0.2304  0.3543
  641MOL0     N88337   6.439   2.924   1.622 -0.1768  0.6184 -0.5094
  641MOL0     C88338   6.523   2.844   1.542  0.3251 -0.4315  0.1149
  641MOL0     C88339   6.512   2.715   1.592  0.7858 -0.7209 -0.7517
  641MOL0     C88340   6.582   2.590   1.533  0.6055 -0.3074 -0.4385
  641MOL0     C88341   6.684   2.526   1.626 -1.0170  0.0205  0.4774
  641MOL0     C88342   6.613   2.436   1.725  0.2344  0.3659  0.0816
  641MOL0     C88343   6.697   2.369   1.838  0.2964 -0.7565  0.1393
  641MOL0     O88344   6.781   2.483   1.880  0.3739 -0.3737  0.1260
  641MOL0     C88345   6.747   2.569   1.979 -0.5369 -0.1819 -0.0279
  641MOL0     C88346   6.842   2.660   2.027  0.2359 -0.4785  0.3146
  641MOL0     C88347   6.826   2.746   2.143  0.8779 -0.4458 -0.2874
  641MOL0     C88348   6.940   2.851   2.184 -0.4144  0.4239  0.0289
  641MOL0     C88349   6.698   2.742   2.201 -0.1481 -0.4098 -0.0927
  641MOL0     C88350   6.658   2.847   2.297 -0.7016 -1.0364  0.0756
  641MOL0     O88351   6.536   2.906   2.279 -0.5529 -0.2166  0.3690
  641MOL0     C88352   6.493   2.997   2.376  0.1603 -0.4347  0.1210
  641MOL0     C88353   6.384   2.974   2.460  0.7343  0.9250 -0.3328
  641MOL0     C88354   6.337   3.080   2.545 -0.2686 -0.0836  0.4188
  641MOL0     C88355   6.400   3.203   2.544 -0.2736  0.0471  0.2640
  641MOL0     O88356   6.341   3.316   2.593  0.7704  0.3737 -0.6101
  641MOL0     C88357   6.407   3.433   2.651 -0.0575 -0.6317 -0.1946
  641MOL0     C88358   6.323   3.483   2.773 -0.6383 -1.4409 -0.5790
  641MOL0     C88359   6.369   3.613   2.834  0.0501  0.6824  0.3518
  641MOL0     C88360   6.294   3.656   2.956  0.3199 -0.6021  0.4700
  641MOL0     C88361   6.160   3.721   2.921  0.2135 -0.0173  0.6139
  641MOL0     C88362   6.070   3.753   3.040  0.2399  0.1313 -0.4772
  641MOL0     C88363   5.924   3.786   3.017  0.6685  0.3294 -0.7910
  641MOL0     C88364   5.846   3.709   2.913 -0.1834  0.2106  0.8230
  641MOL0    Cl88365   5.686   3.782   2.885 -0.9121 -0.4611 -0.3893
  641MOL0     C88366   6.515   3.226   2.476  0.0757  1.2383 -0.2203
  641MOL0     C88367   6.559   3.129   2.388 -0.7054 -0.9262 -0.4867
  641MOL0     O88368   6.738   2.866   2.392 -0.1803  0.1049  0.6935
  641MOL0     C88369   6.593   2.671   2.146 -0.3027  0.9733  1.5753
  641MOL0     C88370   6.614   2.584   2.034 -0.0175  0.2277  0.3274
  641MOL0     N88371   6.413   2.715   1.693  0.2619 -0.1673 -0.6526
  641MOL0     N88372   6.372   2.836   1.708  0.3250 -0.4121  0.2670
  641MOL0     C88373   5.445   3.115   1.543  0.3236 -1.2298 -0.4124
  641MOL0     C88374   5.349   3.144   1.448  0.4675  0.0472  0.5178
  641MOL0     C88375   5.121   3.381   1.119  0.7944  0.0873  0.5530
  641MOL0     C88376   5.083   3.509   1.064 -0.6372  0.3458 -0.0354
  641MOL0     C88377   4.990   3.520   0.959 -0.2545  0.4472  0.0165
  641MOL0     C88378   4.927   3.405   0.905  0.9739 -0.9383  0.2621
  641MOL0     O88379   4.842   3.392   0.798  0.6188 -0.3096 -0.3985
  641MOL0     C88380   4.782   3.503   0.732 -0.1079  0.2432 -0.2478
  641MOL0     C88381   4.883   3.560   0.623 -0.0061  0.2466  0.4193
  641MOL0     C88382   4.891   3.449   0.519 -1.1464  1.3463  0.5334
  641MOL0     C88383   4.978   3.482   0.396  0.2555  0.1156 -0.3290
  641MOL0     C88384   5.119   3.482   0.429  0.4773  1.1473  0.3999
  641MOL0     C88385   5.233   3.505   0.457  0.5997 -0.4900 -0.4327
  641MOL0     C88386   4.969   3.283   0.961  0.4226  0.0879 -0.7345
  641MOL0     C88387   5.046   3.271   1.067  0.3650 -0.1272  0.2869
  641MOL0     C88388   5.031   3.132   1.128  0.4923 -0.1585 -0.3553
  641MOL0     H88389   5.502   3.393   1.287 -1.6900 -3.3584 -3.4038
  641MOL0     H88390   5.655   3.379   1.459 -0.9389  0.5491  0.1836
  641MOL0     H88391   5.624   3.296   1.785 -2.3077 -3.1173 -2.9445
  641MOL0     H88392   5.772   3.336   1.682  1.5988 -1.1033 -1.9633
  641MOL0     H88393   5.755   3.221   1.942 -0.9361  0.4486 -0.5707
  641MOL0     H88394   5.738   3.085   1.839  1.0864  1.0317 -0.1615
  641MOL0     H88395   5.978   3.281   1.838  1.1027 -0.4128 -1.1997
  641MOL0     H88396   5.979   3.139   1.931  0.0180  0.3702  0.6293
  641MOL0     H88397   5.922   3.017   1.700 -0.7896 -0.6944 -0.0010
  641MOL0     H88398   5.938   3.176   1.630 -5.2873 -0.8916  2.1073
  641MOL0     H88399   6.161   3.019   1.770 -0.9525  1.0993  1.0180
  641MOL0     H88400   6.189   3.190   1.722  0.7330  0.0316 -2.5029
  641MOL0     H88401   6.172   2.949   1.560 -0.0832  0.4963 -0.4268
  641MOL0     H88402   6.108   3.100   1.486  0.8086  5.2877  2.5154
  641MOL0     H88403   6.306   3.234   1.547 -0.6737  0.2907  1.0826
  641MOL0     H88404   6.349   3.088   1.436  1.2779  3.0489 -0.7957
  641MOL0     H88405   6.521   3.112   1.594  1.1080 -1.9265  1.5330
  641MOL0     H88406   6.402   3.098   1.732 -2.7747  0.5183 -0.2177
  641MOL0     H88407   6.603   2.890   1.484  2.5239 -1.6265  2.0017
  641MOL0     H88408   6.630   2.621   1.439 -1.5696  2.1686 -0.8417
  641MOL0     H88409   6.508   2.511   1.519  2.2636 -2.2090  0.8985
  641MOL0     H88410   6.743   2.466   1.556 -0.6747 -1.1588  1.7304
  641MOL0     H88411   6.739   2.604   1.679  0.2667  0.3180 -1.1823
  641MOL0     H88412   6.536   2.494   1.776 -2.2900 -1.3035 -1.5920
  641MOL0     H88413   6.555   2.358   1.675 -0.6359  0.6782  0.5838
  641MOL0     H88414   6.642   2.334   1.925  0.8469 -0.0858  0.7691
  641MOL0     H88415   6.768   2.295   1.798  0.8300  0.6350 -1.6381
  641MOL0     H88416   6.932   2.663   1.965  1.8142  3.0904  2.4609
  641MOL0     H88417   6.901   2.950   2.208 -2.7813 -0.3430 -0.3307
  641MOL0     H88418   7.011   2.866   2.102  2.5524  0.1442  2.3678
  641MOL0     H88419   6.999   2.813   2.268  0.9171 -1.0262 -1.4914
  641MOL0     H88420   6.333   2.880   2.442 -1.1558  1.8458  0.0380
  641MOL0     H88421   6.254   3.056   2.611 -0.4458  0.3538  0.3585
  641MOL0     H88422   6.499   3.386   2.687  0.6961  0.4016 -0.7229
  641MOL0     H88423   6.423   3.517   2.584 -0.1223  2.4327  3.2948
  641MOL0     H88424   6.217   3.504   2.758 -1.2728 -0.7293  3.6336
  641MOL0     H88425   6.336   3.404   2.848  1.8118 -0.4984  0.0823
  641MOL0     H88426   6.374   3.681   2.748 -3.9338 -1.2672 -1.6695
  641MOL0     H88427   6.472   3.596   2.868 -0.0973 -2.7336 -0.6130
  641MOL0     H88428   6.359   3.726   3.009  0.1065  0.7503 -0.9685
  641MOL0     H88429   6.283   3.567   3.018 -2.5409  0.1425  1.1627
  641MOL0     H88430   6.171   3.817   2.868  0.6022  0.8819  2.2520
  641MOL0     H88431   6.106   3.659   2.849 -1.7228 -1.7501  3.4068
  641MOL0     H88432   6.109   3.839   3.094  0.6189 -0.4217  0.1524
  641MOL0     H88433   6.076   3.665   3.105 -1.9097  0.2868  0.0028
  641MOL0     H88434   5.911   3.890   2.986 -0.9622  0.5360  0.4174
  641MOL0     H88435   5.868   3.765   3.110 -0.6720  1.1335 -1.3819
  641MOL0     H88436   5.822   3.604   2.933 -1.1579 -0.4809 -3.0893
  641MOL0     H88437   5.893   3.715   2.814 -1.7730 -0.6833 -0.0379
  641MOL0     H88438   6.568   3.321   2.472  0.8822  0.8192  0.2401
  641MOL0     H88439   6.647   3.149   2.327 -0.3109  1.9031  0.8418
  641MOL0     H88440   6.493   2.675   2.187 -0.2417 -3.3750  2.5891
  641MOL0     H88441   6.526   2.535   1.996  0.3797  0.4790 -0.9413
  641MOL0     H88442   5.413   3.035   1.608 -4.9890  0.9307  0.0845
  641MOL0     H88443   5.261   3.081   1.442  1.0455 -0.6925 -0.2875
  641MOL0     H88444   5.133   3.596   1.108  3.8499 -1.4777 -0.9477
  641MOL0     H88445   4.938   3.607   0.923 -4.1479 -1.2819  0.9459
  641MOL0     H88446   4.686   3.465   0.695  0.7212  0.4976 -2.8982
  641MOL0     H88447   4.749   3.583   0.799  1.5735  1.8185 -1.2128
  641MOL0     H88448   4.972   3.581   0.683  0.2402 -1.4012  0.6660
  641MOL0     H88449   4.838   3.647   0.576  0.2498  0.6156  0.8462
  641MOL0     H88450   4.937   3.368   0.576 -2.4456 -0.7482 -1.2183
  641MOL0     H88451   4.792   3.422   0.479 -0.4087 -3.8366  1.5158
  641MOL0     H88452   4.946   3.578   0.353  0.1404  1.6236  2.8222
  641MOL0     H88453   4.971   3.403   0.321 -1.6424  1.3691 -1.5480
  641MOL0     H88454   5.329   3.526   0.500  1.4229 -2.1893 -1.3390
  641MOL0     H88455   4.928   3.191   0.922  0.6032  0.4892 -1.9005
  641MOL0     H88456   5.117   3.068   1.107 -0.3892 -2.9429  3.4240
  641MOL0     H88457   5.029   3.137   1.238  1.1071  0.0705 -0.3477
  641MOL0     H88458   4.939   3.089   1.089 -0.0397  3.0596 -3.0418
  642MOL0     O88459  10.543  10.531   0.603 -0.3422  0.0765 -0.0869
  642MOL0     C88460  10.482  10.512   0.703  0.7553  0.0437 -0.3096
  642MOL0     O88461  10.528  10.454   0.819  0.3546  0.1903 -0.3128
  642MOL0     C88462  10.663  10.424   0.841  0.6110 -0.2348  0.6581
  642MOL0     C88463  10.709  10.298   0.858  0.2480  0.2677  0.4813
  642MOL0     C88464  10.850  10.281   0.864 -0.4220  0.8615  0.2512
  642MOL0     C88465  10.944  10.392   0.853 -0.3831  0.7557 -0.8286
  642MOL0     O88466  11.076  10.363   0.853  0.5522 -1.1345 -0.5273
  642MOL0     C88467  11.174  10.472   0.824 -0.1210  1.2302  0.2702
  642MOL0     C88468  11.301  10.390   0.791 -0.2666 -0.6295 -0.8179
  642MOL0     C88469  11.269  10.286   0.683  0.2587 -0.4695 -0.3638
  642MOL0     C88470  11.391  10.180   0.675  0.2465  0.9380 -0.3400
  642MOL0     C88471  11.382  10.091   0.547 -0.0817  0.3220  0.4929
  642MOL0     C88472  11.430  10.166   0.417 -0.7237  0.0608 -0.0865
  642MOL0     C88473  11.419  10.071   0.296 -0.0588  0.0089 -1.0887
  642MOL0     C88474  11.515  10.124   0.188  0.7018  0.2204  0.2315
  642MOL0     N88475  11.469  10.238   0.111  0.1756  0.0329 -0.1534
  642MOL0     C88476  11.539  10.354   0.100 -0.7809  0.3267 -0.2012
  642MOL0     C88477  11.471  10.420   0.004 -1.0775 -0.0913  0.9204
  642MOL0     C88478  11.501  10.550  -0.047 -0.1101 -0.6848  0.3084
  642MOL0     C88479  11.543  10.528  -0.199 -0.3263 -0.0458 -0.1573
  642MOL0     C88480  11.592  10.654  -0.271 -0.1616  0.4562 -0.3836
  642MOL0     C88481  11.510  10.780  -0.265 -0.3982  0.1552  0.0569
  642MOL0     O88482  11.593  10.885  -0.328 -0.0132  0.9846  0.2642
  642MOL0     C88483  11.545  11.009  -0.331 -0.2875 -0.0014 -0.2126
  642MOL0     C88484  11.407  11.046  -0.341  0.2127  0.5206  0.3302
  642MOL0     C88485  11.360  11.179  -0.339 -1.2169 -0.2377  0.2164
  642MOL0     C88486  11.212  11.196  -0.359 -1.0329 -0.0748 -0.4998
  642MOL0     C88487  11.454  11.283  -0.308 -0.7588 -0.4430  0.7681
  642MOL0     C88488  11.408  11.425  -0.276 -0.7248 -0.3586  1.2344
  642MOL0     O88489  11.281  11.445  -0.235 -0.1170 -0.4074 -0.3965
  642MOL0     C88490  11.216  11.569  -0.263 -0.3797 -0.5158 -0.4297
  642MOL0     C88491  11.239  11.675  -0.185 -0.1166 -0.8979 -0.3855
  642MOL0     C88492  11.184  11.803  -0.201 -0.1186  0.4457  0.9018
  642MOL0     C88493  11.083  11.816  -0.304  0.1160  0.5737 -0.0521
  642MOL0     O88494  11.020  11.933  -0.308 -0.6873 -0.3263  0.6253
  642MOL0     C88495  10.945  11.984  -0.423  0.4081 -0.1067  0.4983
  642MOL0     C88496  10.919  12.135  -0.440  0.1612 -0.3156 -0.1488
  642MOL0     C88497  10.814  12.176  -0.549  0.5965 -0.8727  0.6791
  642MOL0     C88498  10.677  12.146  -0.493  0.1569  0.3366 -0.0977
  642MOL0     C88499  10.574  12.210  -0.575 -0.3737 -0.2285 -0.0601
  642MOL0     C88500  10.438  12.184  -0.521  0.2810 -0.0379 -0.8636
  642MOL0     C88501  10.400  12.281  -0.409  0.2640 -0.5472  0.8376
  642MOL0     C88502  10.348  12.205  -0.286 -0.1468 -0.2387  0.2623
  642MOL0    Cl88503  10.258  12.328  -0.192  0.6868 -0.0147 -0.4267
  642MOL0     C88504  11.050  11.707  -0.369 -0.2471  0.9171  0.3050
  642MOL0     C88505  11.121  11.585  -0.361  0.2830 -0.3422 -0.5592
  642MOL0     O88506  11.492  11.510  -0.302  1.2976 -0.1803  0.0247
  642MOL0     C88507  11.591  11.247  -0.293  0.6779  0.4826 -0.3975
  642MOL0     C88508  11.631  11.114  -0.306  0.2141  0.0676 -0.7044
  642MOL0     N88509  11.361  10.357  -0.035  0.2921 -0.0071 -0.8168
  642MOL0     N88510  11.368  10.241   0.018  0.5823 -0.5643 -0.2089
  642MOL0     C88511  10.889  10.522   0.839  0.4216 -1.3173  0.4805
  642MOL0     C88512  10.753  10.533   0.826 -0.0886 -0.2197 -0.3853
  642MOL0     C88513  10.336  10.538   0.689  0.1875 -0.5238  0.0607
  642MOL0     C88514  10.266  10.593   0.804  1.1856 -0.2608 -1.5807
  642MOL0     C88515  10.133  10.626   0.797 -0.5348 -0.6254 -0.3161
  642MOL0     C88516  10.068  10.617   0.671  0.5640 -0.0027  0.6952
  642MOL0     O88517   9.941  10.664   0.636  0.4146 -0.7364  0.0177
  642MOL0     C88518   9.885  10.755   0.727  0.3977 -0.2333 -0.0099
  642MOL0     C88519   9.733  10.766   0.707  1.0030 -0.4603 -0.4199
  642MOL0     C88520   9.691  10.787   0.556  1.1596 -0.0118  0.3866
  642MOL0     C88521   9.659  10.649   0.484  0.7133  0.7827  0.9364
  642MOL0     C88522   9.619  10.675   0.345 -0.0932 -0.2152  1.1407
  642MOL0     C88523   9.595  10.697   0.229  0.1687  0.7089  0.0693
  642MOL0     C88524  10.135  10.569   0.556  0.9262  0.6426 -0.0672
  642MOL0     C88525  10.267  10.531   0.558 -0.0413 -0.3852 -0.2400
  642MOL0     C88526  10.328  10.477   0.436  0.3862  0.1454  0.1520
  642MOL0     H88527  10.646  10.211   0.849  2.1631 -1.4038  2.1713
  642MOL0     H88528  10.893  10.184   0.885 -0.8030  0.4568 -0.7702
  642MOL0     H88529  11.189  10.537   0.910  5.8830  1.8347 -0.8087
  642MOL0     H88530  11.139  10.528   0.737 -1.0253  1.8673  1.0219
  642MOL0     H88531  11.384  10.458   0.770  2.1704 -1.8020  3.6997
  642MOL0     H88532  11.333  10.339   0.883  2.7933 -0.2830 -1.5755
  642MOL0     H88533  11.178  10.228   0.701  0.4473 -0.5712  0.2983
  642MOL0     H88534  11.257  10.343   0.590  0.6197  0.8714  0.3805
  642MOL0     H88535  11.486  10.235   0.679 -1.2578  3.6803  3.5925
  642MOL0     H88536  11.391  10.117   0.764 -0.1762 -0.5626 -1.3585
  642MOL0     H88537  11.278  10.066   0.528  0.0884 -3.0646  3.0841
  642MOL0     H88538  11.452  10.007   0.550  0.1820  0.5569  1.2725
  642MOL0     H88539  11.374  10.259   0.402  0.2732  0.7639  0.4234
  642MOL0     H88540  11.536  10.191   0.426 -0.9905  1.1489  0.2393
  642MOL0     H88541  11.316  10.060   0.261 -1.4002 -1.1031  2.6969
  642MOL0     H88542  11.452   9.968   0.317  0.0045  0.6900  2.8400
  642MOL0     H88543  11.617  10.136   0.225  1.4428  0.0041 -1.6081
  642MOL0     H88544  11.503  10.042   0.116 -4.2943  0.8284 -0.0270
  642MOL0     H88545  11.631  10.378   0.152 -0.5933 -0.7629 -0.0104
  642MOL0     H88546  11.583  10.607  -0.001 -0.6571  2.9824 -2.7425
  642MOL0     H88547  11.421  10.623  -0.031  0.2050  0.0268 -1.1941
  642MOL0     H88548  11.621  10.453  -0.215 -1.5329 -1.3652 -0.0957
  642MOL0     H88549  11.446  10.506  -0.245 -1.4304  1.5588  1.2798
  642MOL0     H88550  11.691  10.678  -0.231 -0.9381 -1.4131  2.9929
  642MOL0     H88551  11.604  10.629  -0.377 -0.9618 -1.2866 -0.0892
  642MOL0     H88552  11.419  10.763  -0.324 -1.1720  1.5281  0.8006
  642MOL0     H88553  11.485  10.805  -0.162  1.5899  1.4241  0.2737
  642MOL0     H88554  11.340  10.960  -0.345  1.0600 -0.2022  1.2506
  642MOL0     H88555  11.163  11.106  -0.397 -0.2650 -0.4955 -0.5125
  642MOL0     H88556  11.171  11.281  -0.415 -0.1166  0.4357 -0.4213
  642MOL0     H88557  11.168  11.207  -0.260  0.1001  0.1330 -0.0021
  642MOL0     H88558  11.314  11.671  -0.107 -1.0783 -0.8785  0.5566
  642MOL0     H88559  11.202  11.894  -0.144  1.6153  0.3974  0.4565
  642MOL0     H88560  10.997  11.945  -0.511  0.3227  2.7509 -0.9534
  642MOL0     H88561  10.845  11.940  -0.420 -0.5382  2.0068  1.9797
  642MOL0     H88562  10.903  12.178  -0.341 -0.0460 -1.7225  0.4594
  642MOL0     H88563  11.015  12.179  -0.468 -0.5167 -0.8530 -3.8265
  642MOL0     H88564  10.825  12.122  -0.644  0.0396 -1.2041  0.8025
  642MOL0     H88565  10.824  12.285  -0.562 -0.2700 -0.5427  2.5375
  642MOL0     H88566  10.681  12.188  -0.392  1.1055  1.7393 -0.6856
  642MOL0     H88567  10.657  12.039  -0.497  1.1706  0.1632 -1.7231
  642MOL0     H88568  10.594  12.317  -0.569  0.7000 -0.4033 -0.3678
  642MOL0     H88569  10.591  12.165  -0.673  2.6742 -2.4997  1.3593
  642MOL0     H88570  10.427  12.082  -0.484  1.1252  0.5881  1.2892
  642MOL0     H88571  10.365  12.203  -0.600  1.1754  1.0997 -1.4547
  642MOL0     H88572  10.324  12.352  -0.444 -0.6051 -1.3870  0.9771
  642MOL0     H88573  10.483  12.345  -0.378 -0.4873  0.3079  1.1242
  642MOL0     H88574  10.438  12.176  -0.231  2.2606  4.3004 -0.8292
  642MOL0     H88575  10.290  12.114  -0.305  1.9817 -1.8307  0.9007
  642MOL0     H88576  10.966  11.693  -0.436 -0.1080 -0.6107  0.4148
  642MOL0     H88577  11.099  11.497  -0.422  1.9887 -0.6144 -0.8220
  642MOL0     H88578  11.653  11.327  -0.253  2.9627 -1.7185  0.8255
  642MOL0     H88579  11.737  11.112  -0.284  0.3535 -0.9152 -1.4043
  642MOL0     H88580  10.936  10.619   0.836  0.0151 -1.1591 -1.5748
  642MOL0     H88581  10.722  10.636   0.807 -3.3004 -0.8139  0.8509
  642MOL0     H88582  10.324  10.606   0.895 -1.2889  1.1822 -0.1260
  642MOL0     H88583  10.085  10.643   0.892  3.5396  1.5267  1.6198
  642MOL0     H88584   9.889  10.713   0.828  4.8594  2.5115  1.2527
  642MOL0     H88585   9.922  10.858   0.726 -3.5143  1.3732 -0.1731
  642MOL0     H88586   9.701  10.847   0.773 -1.1658 -0.7615 -0.9898
  642MOL0     H88587   9.692  10.678   0.759  4.5314 -0.2623  3.1531
  642MOL0     H88588   9.600  10.847   0.551 -1.4302 -3.4352  2.3034
  642MOL0     H88589   9.768  10.836   0.495  0.6999 -1.9367 -1.9039
  642MOL0     H88590   9.581  10.592   0.536  0.8323 -0.2454  0.0358
  642MOL0     H88591   9.752  10.594   0.498  0.2814  0.1522  1.3917
  642MOL0     H88592   9.561  10.701   0.127 -3.0803 -0.6782  0.9672
  642MOL0     H88593  10.076  10.559   0.465  1.0112  1.5944 -0.2364
  642MOL0     H88594  10.404  10.399   0.448  3.8916  3.2246 -0.2004
  642MOL0     H88595  10.253  10.441   0.365  0.7860 -3.3857  1.2964
  642MOL0     H88596  10.388  10.557   0.393  0.6095 -1.4171 -2.7048
  643MOL0     O88597  10.845   9.162   6.033  0.3661  0.8896  0.1635
  643MOL0     C88598  10.950   9.228   6.011 -0.2055 -1.0056  0.8399
  643MOL0     O88599  10.969   9.360   6.047  0.1346 -0.1663 -0.1705
  643MOL0     C88600  10.874   9.434   6.110  0.0008 -0.5689  0.6120
  643MOL0     C88601  10.857   9.436   6.252  0.0527  0.2919  0.2116
  643MOL0     C88602  10.766   9.520   6.313 -0.1357 -0.6181 -0.5488
  643MOL0     C88603  10.685   9.607   6.241 -0.6426  1.7346 -0.7212
  643MOL0     O88604  10.608   9.693   6.310 -0.5191  0.1759 -0.0051
  643MOL0     C88605  10.493   9.641   6.376  0.1609  0.5473  0.0476
  643MOL0     C88606  10.460   9.732   6.494 -0.6319 -1.1646  0.5959
  643MOL0     C88607  10.369   9.860   6.445 -0.3046 -0.0117 -0.4463
  643MOL0     C88608  10.225   9.829   6.390 -0.1789  0.8660 -0.3495
  643MOL0     C88609  10.120   9.838   6.495  0.0828 -0.1390  0.3776
  643MOL0     C88610  10.133   9.733   6.609  0.6796  0.6061 -0.4538
  643MOL0     C88611  10.027   9.776   6.722 -0.6802  0.0964  0.6274
  643MOL0     C88612  10.089   9.735   6.856  0.5113  0.5349 -1.1320
  643MOL0     N88613  10.078   9.600   6.891  1.0371  0.1632 -0.0148
  643MOL0     C88614  10.188   9.512   6.884  0.1538 -0.1916  0.6523
  643MOL0     C88615  10.133   9.394   6.931  0.3869 -1.4564 -0.0828
  643MOL0     C88616  10.193   9.266   6.957 -0.9991  0.1134 -0.1707
  643MOL0     C88617  10.272   9.278   7.081  0.2989 -0.2323  0.3152
  643MOL0     C88618  10.336   9.149   7.137  0.7827  0.3126 -0.1483
  643MOL0     C88619  10.440   9.093   7.041  0.6679 -0.5963  0.7578
  643MOL0     O88620  10.569   9.160   7.037  0.0304 -0.0633  0.7868
  643MOL0     C88621  10.671   9.110   6.963 -0.2068 -0.2924  0.0229
  643MOL0     C88622  10.646   9.020   6.865  0.2375  0.6204 -0.7094
  643MOL0     C88623  10.749   8.948   6.793  0.5654 -0.0817  0.1452
  643MOL0     C88624  10.694   8.850   6.691  0.8163  0.3601  0.1833
  643MOL0     C88625  10.884   8.971   6.821  0.2650 -0.8855  0.2645
  643MOL0     C88626  11.002   8.913   6.755 -0.9065 -0.7487  0.8096
  643MOL0     O88627  11.121   8.931   6.812 -0.1564 -0.4673  0.5679
  643MOL0     C88628  11.217   8.848   6.764  0.1998 -0.5290 -1.0812
  643MOL0     C88629  11.281   8.885   6.646 -0.2750  0.2272  1.4282
  643MOL0     C88630  11.405   8.825   6.602  1.1362 -0.4237  0.0519
  643MOL0     C88631  11.452   8.708   6.666 -0.0179 -0.0402 -0.5883
  643MOL0     O88632  11.547   8.643   6.600 -0.3081  0.5959 -0.1737
  643MOL0     C88633  11.533   8.499   6.596 -0.0480 -0.0458  0.2787
  643MOL0     C88634  11.398   8.438   6.540 -0.2513  0.0323 -0.6728
  643MOL0     C88635  11.325   8.514   6.428 -0.4193  0.3171  0.6015
  643MOL0     C88636  11.186   8.560   6.479 -0.3809 -0.0742 -0.4240
  643MOL0     C88637  11.088   8.442   6.485 -0.2650  0.1277 -0.4391
  643MOL0     C88638  10.940   8.490   6.501  0.2412 -0.6954  0.3792
  643MOL0     C88639  10.843   8.364   6.515  0.1112  0.4529 -0.8359
  643MOL0     C88640  10.700   8.411   6.542  0.6583 -0.0308 -0.2962
  643MOL0    Cl88641  10.575   8.285   6.480 -0.0614  0.0198 -0.2487
  643MOL0     C88642  11.377   8.672   6.787 -0.8773  0.2225  0.5038
  643MOL0     C88643  11.258   8.733   6.834 -0.3967 -0.4315 -0.2095
  643MOL0     O88644  10.972   8.854   6.641 -0.3983 -0.6007 -0.0830
  643MOL0     C88645  10.908   9.073   6.920  0.0459  0.1832 -0.4403
  643MOL0     C88646  10.800   9.146   6.981 -0.9113  0.2096  0.0659
  643MOL0     N88647  10.000   9.409   6.959  0.3898 -0.2262  0.2089
  643MOL0     N88648   9.965   9.533   6.922  0.5018 -0.4807 -1.0400
  643MOL0     C88649  10.707   9.619   6.099  0.4542 -0.1335 -0.0847
  643MOL0     C88650  10.795   9.531   6.043 -0.3558  1.0700  0.0361
  643MOL0     C88651  11.067   9.164   5.946 -0.5700  1.0596  0.3578
  643MOL0     C88652  11.193   9.227   5.938 -0.9110 -0.1791 -0.2834
  643MOL0     C88653  11.303   9.167   5.895 -0.5912  0.6529 -0.6897
  643MOL0     C88654  11.310   9.031   5.861  1.0421  0.3256 -0.5321
  643MOL0     O88655  11.427   8.968   5.833 -0.7189 -0.6225  0.5599
  643MOL0     C88656  11.416   8.852   5.757  0.5444  1.0614  0.7633
  643MOL0     C88657  11.540   8.799   5.687 -0.3141 -0.1286  0.5895
  643MOL0     C88658  11.509   8.692   5.581  0.4366 -0.3055 -0.7648
  643MOL0     C88659  11.630   8.687   5.476  1.2553 -1.0378  0.0940
  643MOL0     C88660  11.606   8.565   5.397 -0.3615 -0.1774 -0.5003
  643MOL0     C88661  11.588   8.462   5.339  0.1983  0.7511 -1.1094
  643MOL0     C88662  11.185   8.969   5.872 -0.0020  0.1698 -0.9245
  643MOL0     C88663  11.066   9.030   5.897  0.2452 -0.5990 -0.1028
  643MOL0     C88664  10.933   8.949   5.884  1.2047 -0.6637 -0.2856
  643MOL0     H88665  10.915   9.372   6.317 -0.6621  1.3022  1.9283
  643MOL0     H88666  10.769   9.506   6.421  4.8849  3.4397  0.2168
  643MOL0     H88667  10.519   9.544   6.420 -2.4758 -0.3155 -0.1200
  643MOL0     H88668  10.409   9.626   6.307  2.7125  1.1560 -3.4359
  643MOL0     H88669  10.404   9.681   6.572 -0.8782 -0.8452  0.6317
  643MOL0     H88670  10.552   9.763   6.545  0.5871 -1.4844 -1.3174
  643MOL0     H88671  10.366   9.928   6.530  1.9394 -1.0662  0.5712
  643MOL0     H88672  10.437   9.910   6.376 -1.1250 -1.5745 -2.4788
  643MOL0     H88673  10.220   9.909   6.317  0.8947  0.9249 -0.3713
  643MOL0     H88674  10.226   9.729   6.345  0.3363  0.5461  0.3480
  643MOL0     H88675  10.023   9.814   6.451 -0.9320 -0.2626  2.5368
  643MOL0     H88676  10.115   9.941   6.533 -1.8452  0.9590 -2.5218
  643MOL0     H88677  10.106   9.633   6.574 -1.9920  0.7678  0.9370
  643MOL0     H88678  10.231   9.747   6.655 -0.4908  2.6215  1.6486
  643MOL0     H88679   9.937   9.714   6.713  1.4683 -3.1564  0.1058
  643MOL0     H88680  10.006   9.884   6.718 -2.3855 -0.2030  0.5852
  643MOL0     H88681  10.198   9.751   6.856  0.7451 -0.2919 -4.4099
  643MOL0     H88682  10.049   9.805   6.929  2.3581 -0.9744  1.4984
  643MOL0     H88683  10.292   9.535   6.862 -0.7586  1.7267 -2.2028
  643MOL0     H88684  10.241   9.239   6.862 -0.7228  0.7136 -0.2025
  643MOL0     H88685  10.118   9.189   6.980  1.1154 -1.9072  0.3610
  643MOL0     H88686  10.355   9.347   7.066  1.4841 -1.6395  0.2566
  643MOL0     H88687  10.210   9.310   7.166 -1.0722 -2.3837  0.1922
  643MOL0     H88688  10.387   9.173   7.231  1.0920  3.0123 -0.8948
  643MOL0     H88689  10.268   9.064   7.143 -0.9353  1.7408  2.1496
  643MOL0     H88690  10.451   8.984   7.050  1.4052 -0.7307 -1.1970
  643MOL0     H88691  10.393   9.103   6.942 -2.2624 -2.5344  1.8310
  643MOL0     H88692  10.547   8.990   6.832  0.4372  0.5438 -1.2560
  643MOL0     H88693  10.718   8.868   6.586  1.4601 -2.4533 -0.2246
  643MOL0     H88694  10.585   8.842   6.679  0.9726 -1.2626 -0.3983
  643MOL0     H88695  10.761   8.766   6.711  2.2768  0.9406 -1.9133
  643MOL0     H88696  11.246   8.972   6.593 -2.9842 -1.7382 -0.2362
  643MOL0     H88697  11.456   8.860   6.512 -1.0295 -2.4275 -2.0783
  643MOL0     H88698  11.608   8.454   6.530  0.5157  1.0887  0.1272
  643MOL0     H88699  11.564   8.453   6.690 -2.4135  1.2658  1.7946
  643MOL0     H88700  11.423   8.341   6.496  0.8169  0.0975 -0.2386
  643MOL0     H88701  11.334   8.422   6.627 -0.1006  1.0427 -0.3669
  643MOL0     H88702  11.316   8.444   6.344 -2.2094  1.7382 -0.4711
  643MOL0     H88703  11.372   8.609   6.401  2.1323 -0.8323  0.7688
  643MOL0     H88704  11.153   8.636   6.409 -0.4474 -0.9343 -1.3590
  643MOL0     H88705  11.190   8.614   6.574 -2.0418 -0.7951  0.1007
  643MOL0     H88706  11.097   8.405   6.383  0.7964  0.9657 -0.6721
  643MOL0     H88707  11.116   8.372   6.563  1.0261  1.1133  0.0175
  643MOL0     H88708  10.911   8.554   6.418  0.1093 -3.1359 -1.5704
  643MOL0     H88709  10.931   8.552   6.591 -1.1216 -0.7572  0.2959
  643MOL0     H88710  10.875   8.303   6.600 -0.9539  2.8759  1.4235
  643MOL0     H88711  10.850   8.299   6.426 -3.0382  0.2583 -1.0622
  643MOL0     H88712  10.686   8.491   6.469  2.2583 -2.1375 -3.1177
  643MOL0     H88713  10.686   8.448   6.644 -3.4785  1.6392 -1.2561
  643MOL0     H88714  11.403   8.579   6.838 -0.2204  0.9133  1.4686
  643MOL0     H88715  11.210   8.701   6.926 -4.2022  2.3043 -0.9797
  643MOL0     H88716  11.010   9.097   6.947 -0.3545  0.7848  0.5651
  643MOL0     H88717  10.816   9.225   7.054  1.1976 -0.1414  0.0416
  643MOL0     H88718  10.657   9.681   6.026  0.0319  1.4538  1.4743
  643MOL0     H88719  10.815   9.538   5.936  1.7347 -2.0185  0.0947
  643MOL0     H88720  11.205   9.330   5.972 -2.4201 -0.6084  1.7105
  643MOL0     H88721  11.398   9.221   5.891 -1.3907  2.2875  0.9685
  643MOL0     H88722  11.387   8.763   5.814 -2.6091  0.1464 -1.9449
  643MOL0     H88723  11.336   8.861   5.683  1.1635 -2.7187 -0.5673
  643MOL0     H88724  11.612   8.750   5.754  0.9447 -2.5615 -2.3275
  643MOL0     H88725  11.592   8.884   5.641  0.2136 -1.3458 -1.1207
  643MOL0     H88726  11.490   8.602   5.641  0.1788  1.1301  1.3943
  643MOL0     H88727  11.414   8.717   5.531  0.5645  0.6152 -0.5591
  643MOL0     H88728  11.733   8.693   5.513  1.3888  4.2195 -0.3609
  643MOL0     H88729  11.622   8.771   5.407  0.9759  0.8043  2.2511
  643MOL0     H88730  11.590   8.375   5.276  4.5667  0.3272 -0.7245
  643MOL0     H88731  11.164   8.863   5.859 -4.2926  0.8330 -0.9033
  643MOL0     H88732  10.860   9.002   5.824 -0.7243  0.4361  2.7858
  643MOL0     H88733  10.962   8.851   5.845  0.5550 -0.7845 -0.4744
  643MOL0     H88734  10.888   8.936   5.983 -1.5051  3.5605 -0.7425
  644MOL0     O88735   1.333   8.149   9.465 -0.1573 -0.0745 -0.0598
  644MOL0     C88736   1.423   8.218   9.506 -0.0460 -0.4177 -0.2293
  644MOL0     O88737   1.409   8.333   9.580  0.6422 -0.1364  0.6655
  644MOL0     C88738   1.280   8.374   9.614  0.6860  0.5301  0.8121
  644MOL0     C88739   1.173   8.375   9.517  0.7163  0.1076 -1.1940
  644MOL0     C88740   1.052   8.432   9.558  0.6136  0.6846 -0.4780
  644MOL0     C88741   1.028   8.475   9.692  0.6919  0.7443  0.4973
  644MOL0     O88742   0.920   8.540   9.737 -0.2564 -0.4281  1.1318
  644MOL0     C88743   0.803   8.546   9.640 -1.5755  0.6905 -0.6037
  644MOL0     C88744   0.712   8.663   9.693 -1.0346  0.5144  1.0946
  644MOL0     C88745   0.580   8.668   9.615  0.1048  1.0492  0.6985
  644MOL0     C88746   0.484   8.770   9.683  0.3658 -0.2846  0.3439
  644MOL0     C88747   0.432   8.724   9.818 -0.1166 -0.8072  0.1030
  644MOL0     C88748   0.350   8.597   9.806 -0.4736 -0.4745 -0.0435
  644MOL0     C88749   0.281   8.572   9.943  0.1899 -0.5438  1.4672
  644MOL0     C88750   0.387   8.533  10.051 -0.2910 -0.4323  0.5373
  644MOL0     N88751   0.320   8.501  10.172 -0.0286  0.2442  0.0380
  644MOL0     C88752   0.266   8.378  10.207  0.6108 -0.2763  0.0312
  644MOL0     C88753   0.206   8.396  10.325 -0.7003  0.3921 -0.3166
  644MOL0     C88754   0.127   8.298  10.392 -0.5410 -0.3375  0.1371
  644MOL0     C88755  -0.006   8.346  10.441 -0.8934 -0.3859  0.1994
  644MOL0     C88756  -0.075   8.252  10.545 -0.2023 -0.4304 -0.3166
  644MOL0     C88757  -0.093   8.115  10.484 -0.2146  0.2917  0.1492
  644MOL0     O88758  -0.145   8.138  10.352  0.5775 -0.2471 -0.5080
  644MOL0     C88759  -0.249   8.057  10.311 -0.0547  0.5495 -1.0609
  644MOL0     C88760  -0.252   7.914  10.308  0.1715  0.8102 -0.6064
  644MOL0     C88761  -0.365   7.846  10.257 -0.5177 -0.1061  0.2432
  644MOL0     C88762  -0.363   7.703  10.258  1.1625  0.3992  0.8243
  644MOL0     C88763  -0.484   7.922  10.217  0.1833  0.1164 -0.2183
  644MOL0     C88764  -0.605   7.868  10.175  0.4804  0.1327  0.3703
  644MOL0     O88765  -0.723   7.924  10.227 -1.1109 -0.9733 -0.1708
  644MOL0     C88766  -0.843   7.897  10.170 -0.4733 -0.3726 -0.4315
  644MOL0     C88767  -0.918   7.802  10.234  0.9813 -0.0518 -0.1174
  644MOL0     C88768  -1.042   7.770  10.181  0.7960  0.5451 -0.8567
  644MOL0     C88769  -1.101   7.832  10.069 -0.3882  0.1925  0.5835
  644MOL0     O88770  -1.219   7.788  10.024  0.0102 -0.6184 -0.1464
  644MOL0     C88771  -1.282   7.856   9.912  0.3273 -0.1801 -0.4514
  644MOL0     C88772  -1.416   7.793   9.876 -0.3016  0.1355 -0.1088
  644MOL0     C88773  -1.537   7.859   9.950 -0.7333 -0.3513 -0.0364
  644MOL0     C88774  -1.650   7.761   9.941  0.2405 -0.5366  0.2584
  644MOL0     C88775  -1.776   7.832   9.946  0.2091  0.1688 -0.1186
  644MOL0     C88776  -1.898   7.731   9.974  0.6906  0.4870 -0.0091
  644MOL0     C88777  -2.031   7.802  10.013  0.2526 -0.3249  0.1543
  644MOL0     C88778  -2.136   7.701  10.046 -0.1573 -0.0746  1.3030
  644MOL0    Cl88779  -2.284   7.778  10.100 -0.1134 -0.3789  0.4768
  644MOL0     C88780  -1.024   7.935  10.004 -0.4589  0.4696  0.2431
  644MOL0     C88781  -0.894   7.964  10.053 -0.6233  0.0110 -0.3747
  644MOL0     O88782  -0.603   7.777  10.095  0.5548  0.6455 -0.5344
  644MOL0     C88783  -0.477   8.064  10.211 -0.1288 -0.4015 -0.2349
  644MOL0     C88784  -0.365   8.131  10.267  0.0729  0.7459  0.7652
  644MOL0     N88785   0.223   8.535  10.354 -0.1851  0.1188  0.7922
  644MOL0     N88786   0.288   8.594  10.259  0.6055  0.1131  0.5933
  644MOL0     C88787   1.139   8.475   9.774 -0.1634 -0.5690  0.4159
  644MOL0     C88788   1.259   8.428   9.738  0.5987 -0.0472 -0.1517
  644MOL0     C88789   1.567   8.176   9.480 -0.4012 -0.1929  0.0093
  644MOL0     C88790   1.671   8.219   9.562 -0.6035 -0.2509 -0.4658
  644MOL0     C88791   1.804   8.179   9.553  0.1162  0.5585 -0.2627
  644MOL0     C88792   1.843   8.090   9.449  0.7684  0.6113 -0.6947
  644MOL0     O88793   1.971   8.051   9.454 -0.0853  0.9594  0.4359
  644MOL0     C88794   1.998   7.922   9.392 -0.0168 -0.4998 -0.4667
  644MOL0     C88795   2.144   7.899   9.421 -0.0634  0.0628 -0.1202
  644MOL0     C88796   2.193   7.765   9.362  0.5003 -0.0201  0.0903
  644MOL0     C88797   2.351   7.759   9.363 -0.9749  0.6755 -0.1314
  644MOL0     C88798   2.405   7.838   9.251 -0.3648  0.1154  0.5159
  644MOL0     C88799   2.452   7.896   9.153  0.5030 -0.1874 -0.0622
  644MOL0     C88800   1.741   8.041   9.362  0.4872 -0.3562  0.1147
  644MOL0     C88801   1.607   8.082   9.379  0.6166 -0.1748 -0.6877
  644MOL0     C88802   1.503   8.030   9.285 -0.0365  0.1628 -0.0431
  644MOL0     H88803   1.169   8.349   9.412 -1.2818  4.1035 -2.2916
  644MOL0     H88804   0.972   8.434   9.484  0.8893  3.4025 -0.8151
  644MOL0     H88805   0.740   8.456   9.643  1.4048 -1.5717 -1.3000
  644MOL0     H88806   0.838   8.564   9.538  0.4482 -1.1503 -0.3032
  644MOL0     H88807   0.699   8.651   9.800  1.6579 -2.0260  1.2891
  644MOL0     H88808   0.757   8.761   9.677 -2.3172  1.0719  0.7784
  644MOL0     H88809   0.612   8.705   9.517  0.2379 -0.7783  0.0244
  644MOL0     H88810   0.543   8.567   9.598 -0.6717  1.7748 -2.7346
  644MOL0     H88811   0.537   8.863   9.704  1.9796 -0.4938 -2.3528
  644MOL0     H88812   0.402   8.793   9.613  1.2592 -1.2859 -1.0802
  644MOL0     H88813   0.361   8.798   9.857  1.9513  0.7457  1.0814
  644MOL0     H88814   0.516   8.714   9.887 -1.3012 -0.8143  1.5999
  644MOL0     H88815   0.279   8.601   9.722 -1.3727  1.4260  0.7462
  644MOL0     H88816   0.415   8.512   9.782 -1.3856 -0.3129 -3.5853
  644MOL0     H88817   0.211   8.490   9.924  1.9394 -2.4466  2.7735
  644MOL0     H88818   0.236   8.668   9.966  0.3765  0.8336 -2.9675
  644MOL0     H88819   0.460   8.455  10.030 -1.3008 -1.5960  1.2051
  644MOL0     H88820   0.451   8.621  10.063  2.3910 -1.9031 -1.7959
  644MOL0     H88821   0.284   8.282  10.159  1.3663 -0.8006  1.3041
  644MOL0     H88822   0.189   8.273  10.478 -1.5905 -1.5484  0.5633
  644MOL0     H88823   0.123   8.219  10.317  2.3826 -0.0946 -0.3951
  644MOL0     H88824   0.006   8.444  10.488 -3.8786 -0.3024  0.9791
  644MOL0     H88825  -0.071   8.359  10.354  0.6846  0.9457 -0.8480
  644MOL0     H88826  -0.010   8.247  10.633 -0.6176 -0.2106  0.0100
  644MOL0     H88827  -0.169   8.294  10.583  1.8545  3.7339  0.7262
  644MOL0     H88828   0.000   8.059  10.475 -0.1013  0.5242 -0.1474
  644MOL0     H88829  -0.149   8.047  10.549  1.8549  0.8668  2.7151
  644MOL0     H88830  -0.171   7.850  10.343 -2.2958 -0.6650  3.0051
  644MOL0     H88831  -0.381   7.661  10.158 -3.1583  0.4234  1.4054
  644MOL0     H88832  -0.446   7.679  10.324  0.1740  2.8650  0.5804
  644MOL0     H88833  -0.265   7.665  10.290  1.3057 -1.3147 -1.4002
  644MOL0     H88834  -0.867   7.753  10.316  0.8334  1.0942  0.6734
  644MOL0     H88835  -1.098   7.699  10.240  1.3179  1.0935  0.3354
  644MOL0     H88836  -1.290   7.965   9.927 -0.4093  0.1461 -2.8044
  644MOL0     H88837  -1.225   7.849   9.819 -0.2157  0.9581 -0.8918
  644MOL0     H88838  -1.425   7.799   9.767  0.9856 -1.8491 -0.3792
  644MOL0     H88839  -1.416   7.688   9.906  0.6384  0.0672 -0.3323
  644MOL0     H88840  -1.573   7.950   9.900 -1.1538 -0.7621 -0.4976
  644MOL0     H88841  -1.506   7.884  10.051  1.0965  1.1121 -0.9039
  644MOL0     H88842  -1.634   7.691  10.023  1.0059 -3.1957 -1.9839
  644MOL0     H88843  -1.656   7.708   9.846 -2.5917  2.2274 -1.3029
  644MOL0     H88844  -1.777   7.907  10.025  1.2934 -1.4871  1.5261
  644MOL0     H88845  -1.787   7.885   9.850 -3.0217 -0.1102 -0.0256
  644MOL0     H88846  -1.877   7.660  10.054 -3.9493 -0.2578  0.8578
  644MOL0     H88847  -1.912   7.669   9.885  1.2957  2.6361 -1.7095
  644MOL0     H88848  -2.058   7.875   9.937  2.2433  0.4229  0.0961
  644MOL0     H88849  -2.003   7.850  10.107  0.5954  0.1250 -0.1718
  644MOL0     H88850  -2.102   7.625  10.117 -0.6126 -0.8344  0.7306
  644MOL0     H88851  -2.168   7.644   9.958 -0.8514  1.4086  0.5449
  644MOL0     H88852  -1.074   7.988   9.923 -1.1297 -1.2369 -0.5134
  644MOL0     H88853  -0.826   8.032  10.003 -0.7618  0.1933 -0.3181
  644MOL0     H88854  -0.558   8.120  10.165 -2.3734 -2.9970  0.3409
  644MOL0     H88855  -0.362   8.240  10.265 -1.4644  0.8021 -1.1983
  644MOL0     H88856   1.124   8.497   9.880 -1.9448 -0.5560  0.1985
  644MOL0     H88857   1.341   8.436   9.809  1.5098  1.2769 -1.2905
  644MOL0     H88858   1.645   8.286   9.643 -0.0774  1.7994 -1.8896
  644MOL0     H88859   1.873   8.219   9.626 -2.1997  3.1522  0.6958
  644MOL0     H88860   1.943   7.837   9.432 -0.0392  0.1964  1.0574
  644MOL0     H88861   1.982   7.919   9.284 -0.0778  0.4515 -0.4944
  644MOL0     H88862   2.164   7.892   9.528  0.7735  2.2343 -0.0741
  644MOL0     H88863   2.206   7.981   9.383  2.8798 -1.9092  0.0859
  644MOL0     H88864   2.150   7.682   9.418 -1.0862  0.2388 -0.6712
  644MOL0     H88865   2.164   7.765   9.256  3.7718  1.8190 -0.9675
  644MOL0     H88866   2.389   7.657   9.360 -1.6568  0.4232 -0.3239
  644MOL0     H88867   2.393   7.812   9.449  1.0707  2.8787 -2.3367
  644MOL0     H88868   2.468   7.951   9.063 -2.0704 -0.4687 -0.7797
  644MOL0     H88869   1.758   7.981   9.273 -1.2574 -0.1683 -0.3799
  644MOL0     H88870   1.470   8.113   9.222 -1.1074  1.0511  1.6072
  644MOL0     H88871   1.543   7.944   9.232 -0.2875 -0.9986  1.5687
  644MOL0     H88872   1.414   7.982   9.327 -1.1924  1.1799 -1.2393
  645MOL0     O88873   9.411   0.995  10.787  0.1189  0.1182  0.4097
  645MOL0     C88874   9.394   0.877  10.799 -0.8690 -0.7289 -0.4962
  645MOL0     O88875   9.293   0.818  10.861  0.5823  0.3338 -0.4240
  645MOL0     C88876   9.205   0.896  10.938 -0.2659  0.1228  0.4370
  645MOL0     C88877   9.260   0.985  11.032  0.3540 -0.4444  0.0810
  645MOL0     C88878   9.172   1.057  11.112  0.5073 -0.0574 -0.1014
  645MOL0     C88879   9.035   1.039  11.107 -0.0891 -0.1609  0.5156
  645MOL0     O88880   8.944   1.104  11.189  0.1859 -0.2154 -0.2784
  645MOL0     C88881   9.003   1.187  11.292 -0.0994  0.2953  0.1483
  645MOL0     C88882   9.069   1.112  11.410 -0.2004  0.2002 -0.3924
  645MOL0     C88883   8.992   1.095  11.546 -0.2735 -0.6936 -0.0991
  645MOL0     C88884   9.099   1.049  11.642  0.5037 -0.1490  0.4162
  645MOL0     C88885   9.020   1.002  11.770 -0.5911 -0.5867 -1.0059
  645MOL0     C88886   9.113   0.952  11.889 -0.7944 -0.9399  0.5225
  645MOL0     C88887   9.031   0.916  12.011 -0.1363  0.6283  0.0141
  645MOL0     C88888   9.109   0.876  12.141 -0.5404 -0.7187  0.0607
  645MOL0     N88889   9.031   0.859  12.251 -0.0984 -0.2720 -0.2615
  645MOL0     C88890   8.932   0.771  12.257  0.3103  0.9251  0.4733
  645MOL0     C88891   8.854   0.806  12.364 -0.1391 -0.7148 -0.5226
  645MOL0     C88892   8.728   0.728  12.409  0.1714 -0.6638  0.0160
  645MOL0     C88893   8.620   0.771  12.313 -0.1357 -0.2045  0.9455
  645MOL0     C88894   8.581   0.921  12.329  0.0120 -0.6034  0.7945
  645MOL0     C88895   8.475   0.972  12.237 -0.7746  0.6871 -0.7065
  645MOL0     O88896   8.535   0.985  12.105  0.2687 -0.7649  0.1938
  645MOL0     C88897   8.441   1.002  12.008  0.4184  0.3824  0.5665
  645MOL0     C88898   8.493   0.981  11.874  0.1334 -0.6375  0.1960
  645MOL0     C88899   8.407   0.989  11.761  0.5417 -0.2052 -0.0698
  645MOL0     C88900   8.460   0.946  11.630  0.2811 -0.1536  0.5497
  645MOL0     C88901   8.271   1.033  11.782 -0.3605 -0.6554 -0.5025
  645MOL0     C88902   8.174   1.054  11.669  0.2376 -0.1898 -0.4223
  645MOL0     O88903   8.205   0.984  11.549  0.5501  0.2382 -0.2402
  645MOL0     C88904   8.155   1.007  11.423 -0.1876 -0.1252 -0.2068
  645MOL0     C88905   8.103   1.129  11.384  0.2107 -0.1558 -0.9048
  645MOL0     C88906   8.070   1.146  11.246  1.3154 -0.1199  0.0267
  645MOL0     C88907   8.069   1.039  11.156 -0.3857  0.0497 -0.0464
  645MOL0     O88908   8.017   1.056  11.036  0.3160 -0.7790  0.5128
  645MOL0     C88909   8.031   0.957  10.939 -0.4085  0.6891 -0.2759
  645MOL0     C88910   7.979   1.024  10.809  0.8297  0.5443  0.1999
  645MOL0     C88911   7.850   0.955  10.760 -0.2282 -0.3444 -0.2331
  645MOL0     C88912   7.838   0.960  10.603  0.1031  0.4913  0.1897
  645MOL0     C88913   7.948   0.881  10.525 -0.1554  0.4163  0.1266
  645MOL0     C88914   7.915   0.841  10.380 -0.2241  0.4768 -0.0803
  645MOL0     C88915   7.891   0.961  10.287  0.4867 -0.0880 -0.1600
  645MOL0     C88916   7.885   0.927  10.140  0.0889  0.5132 -0.1177
  645MOL0    Cl88917   7.723   0.870  10.085 -0.5477  0.4631  0.0211
  645MOL0     C88918   8.108   0.910  11.207 -0.1153  0.4978 -0.3553
  645MOL0     C88919   8.153   0.898  11.330 -0.8364  0.5151 -0.1725
  645MOL0     O88920   8.070   1.117  11.692 -0.4651 -0.1048  0.1920
  645MOL0     C88921   8.230   1.063  11.909  0.0525  0.1817  0.1043
  645MOL0     C88922   8.304   1.032  12.021  0.9260 -0.4413 -0.2919
  645MOL0     N88923   8.913   0.913  12.425 -0.4984  0.2072 -0.3555
  645MOL0     N88924   9.004   0.954  12.346  0.4121  0.5160  0.9338
  645MOL0     C88925   8.984   0.948  11.019  0.1156 -0.3561 -0.7507
  645MOL0     C88926   9.070   0.878  10.925  0.5996  0.5267  0.1482
  645MOL0     C88927   9.496   0.778  10.746 -0.5586 -0.0007 -0.6883
  645MOL0     C88928   9.463   0.642  10.741  0.2034  0.8038 -0.5211
  645MOL0     C88929   9.561   0.546  10.720 -0.0202  0.2092 -0.4044
  645MOL0     C88930   9.692   0.579  10.685  0.3709 -0.1453  0.5063
  645MOL0     O88931   9.787   0.478  10.676 -0.3445 -0.5828 -0.8258
  645MOL0     C88932   9.767   0.346  10.714  1.3531  1.0599 -0.4742
  645MOL0     C88933   9.783   0.345  10.862 -0.4808 -0.2508 -0.6377
  645MOL0     C88934   9.723   0.210  10.915 -0.4162 -0.6736 -0.6423
  645MOL0     C88935   9.807   0.096  10.867  0.1140 -0.6423  0.6209
  645MOL0     C88936   9.768  -0.025  10.946  0.0068  0.4131 -1.5535
  645MOL0     C88937   9.752  -0.129  11.004  0.2307  0.3497 -0.3010
  645MOL0     C88938   9.728   0.706  10.691  0.0717 -0.0567  0.2443
  645MOL0     C88939   9.639   0.804  10.725  0.0061 -0.5005 -1.0970
  645MOL0     C88940   9.706   0.944  10.728  0.8026 -0.3488 -0.0748
  645MOL0     H88941   9.367   0.997  11.023  0.2856  0.0005 -0.1368
  645MOL0     H88942   9.225   1.141  11.157  0.4342  4.0401 -6.4054
  645MOL0     H88943   8.931   1.258  11.334  0.8108  0.8877  0.7645
  645MOL0     H88944   9.082   1.245  11.244  0.7355 -0.2722  0.7950
  645MOL0     H88945   9.103   1.012  11.382  0.3758  0.5629 -1.0162
  645MOL0     H88946   9.158   1.174  11.426  0.2919 -0.3312 -1.0168
  645MOL0     H88947   8.943   1.187  11.579 -1.6841 -1.5587  0.3002
  645MOL0     H88948   8.909   1.025  11.535 -1.3200  0.8309 -2.5810
  645MOL0     H88949   9.137   0.953  11.604 -1.3828 -0.0611 -1.9242
  645MOL0     H88950   9.176   1.120  11.673  0.2075  0.3786 -0.0552
  645MOL0     H88951   8.939   0.933  11.748 -1.5530  0.3365 -0.4306
  645MOL0     H88952   8.955   1.086  11.798 -1.9603 -1.5445 -1.2180
  645MOL0     H88953   9.166   0.865  11.851  2.1768  1.6698 -1.9126
  645MOL0     H88954   9.187   1.031  11.905  0.7155 -1.9785 -1.0157
  645MOL0     H88955   8.964   0.831  11.995 -0.1962  0.7026 -0.1289
  645MOL0     H88956   8.967   0.999  12.043 -1.4816 -0.8322  1.2666
  645MOL0     H88957   9.153   0.776  12.131 -0.0544 -0.4538 -0.5269
  645MOL0     H88958   9.182   0.953  12.169 -1.8147  0.8708 -0.8753
  645MOL0     H88959   8.910   0.692  12.186 -1.9871  1.0439  0.9557
  645MOL0     H88960   8.714   0.756  12.514 -0.3501 -2.1451  0.3579
  645MOL0     H88961   8.732   0.619  12.401 -3.1574 -0.9398  0.6060
  645MOL0     H88962   8.652   0.766  12.209 -2.0900  3.3113 -0.0040
  645MOL0     H88963   8.531   0.709  12.322 -0.6559 -0.0612 -2.1840
  645MOL0     H88964   8.539   0.923  12.430  0.1874  3.5506  0.9857
  645MOL0     H88965   8.665   0.991  12.327  1.3777 -2.1133  2.4195
  645MOL0     H88966   8.397   0.897  12.252 -0.2139  0.6086  2.6081
  645MOL0     H88967   8.437   1.068  12.273  1.7293  0.1816  4.2011
  645MOL0     H88968   8.600   0.967  11.857  0.2623 -0.6080  0.9542
  645MOL0     H88969   8.566   0.926  11.652  0.6500  2.8981  2.0892
  645MOL0     H88970   8.441   1.017  11.550 -2.0642 -0.8250  0.4434
  645MOL0     H88971   8.414   0.850  11.605  1.6799 -0.9922  1.0162
  645MOL0     H88972   8.086   1.207  11.458 -1.2051 -1.1129 -0.1880
  645MOL0     H88973   8.050   1.249  11.216  0.2284 -0.0114  1.0087
  645MOL0     H88974   8.133   0.927  10.914  1.2483  4.3478  1.3431
  645MOL0     H88975   7.963   0.875  10.965 -1.8786  1.6429 -1.0117
  645MOL0     H88976   7.980   1.133  10.808 -1.8411  0.6637 -2.5642
  645MOL0     H88977   8.055   1.001  10.733  0.3879 -1.4713  0.3040
  645MOL0     H88978   7.756   0.986  10.807 -0.2082  0.6103 -0.7973
  645MOL0     H88979   7.858   0.847  10.778  3.7559  0.0313  1.5567
  645MOL0     H88980   7.811   1.060  10.570 -0.6714  0.6596  1.2851
  645MOL0     H88981   7.744   0.909  10.580  0.8880 -0.6834 -0.5000
  645MOL0     H88982   8.042   0.937  10.532 -1.3068  2.2118  3.5097
  645MOL0     H88983   7.968   0.797  10.591  3.2851  0.4587 -0.6535
  645MOL0     H88984   7.822   0.785  10.388  0.2188 -0.2477  0.0564
  645MOL0     H88985   7.993   0.777  10.338 -1.6237 -1.3200 -0.0300
  645MOL0     H88986   7.979   1.025  10.295 -0.3846  1.0694  0.6320
  645MOL0     H88987   7.800   1.013  10.320  2.1530  1.8374  1.6754
  645MOL0     H88988   7.952   0.846  10.110 -1.4786 -0.2514 -1.7589
  645MOL0     H88989   7.904   1.021  10.087 -1.6025  2.1612  1.9520
  645MOL0     H88990   8.092   0.822  11.145 -1.2958  1.7345 -1.8981
  645MOL0     H88991   8.192   0.804  11.368 -0.2113  1.1039  0.6896
  645MOL0     H88992   8.125   1.088  11.920 -0.2800 -0.8358 -0.5338
  645MOL0     H88993   8.248   1.031  12.113  0.6799 -3.1103 -0.4123
  645MOL0     H88994   8.883   0.910  11.025  0.0974 -0.1511  0.5395
  645MOL0     H88995   9.024   0.802  10.862  2.6088 -0.8134  0.2069
  645MOL0     H88996   9.368   0.590  10.752  0.2159  0.6577 -1.0778
  645MOL0     H88997   9.538   0.441  10.710  0.4600 -0.1476  1.7318
  645MOL0     H88998   9.673   0.298  10.686  0.0941  1.6612  2.3692
  645MOL0     H88999   9.846   0.287  10.666  0.3459  1.3523 -2.6107
  645MOL0     H89000   9.738   0.427  10.919  0.8642 -0.4864  0.8209
  645MOL0     H89001   9.891   0.359  10.873 -0.3999 -0.7011 -0.8496
  645MOL0     H89002   9.724   0.205  11.025 -0.0706  0.8516 -0.5537
  645MOL0     H89003   9.622   0.191  10.879 -2.2961 -2.4010  4.5558
  645MOL0     H89004   9.914   0.112  10.850  0.1264 -0.3609  0.9438
  645MOL0     H89005   9.763   0.069  10.771  1.8362 -2.5734  0.3054
  645MOL0     H89006   9.749  -0.228  11.044  2.0174  1.1236  1.9820
  645MOL0     H89007   9.827   0.738  10.664 -0.3743  1.4424  0.3127
  645MOL0     H89008   9.761   0.960  10.635 -1.0317  1.3733 -0.9299
  645MOL0     H89009   9.629   1.021  10.728  1.3848  0.2714  1.4101
  645MOL0     H89010   9.767   0.954  10.818 -0.9874  4.4638  0.8981
  646MOL0     O89011   5.032   3.617   3.092  0.1941 -0.0470  0.3555
  646MOL0     C89012   5.110   3.678   3.019 -0.2944  0.4440 -0.4239
  646MOL0     O89013   5.213   3.766   3.063 -1.3667 -0.0773  0.3215
  646MOL0     C89014   5.259   3.768   3.191  0.3427  0.7927 -0.8237
  646MOL0     C89015   5.190   3.732   3.309  1.2097 -0.1965  0.1011
  646MOL0     C89016   5.250   3.729   3.433  0.7306  0.8367  0.1357
  646MOL0     C89017   5.385   3.759   3.443 -0.6266 -0.3046 -0.4714
  646MOL0     O89018   5.470   3.753   3.562 -0.0928 -1.1953  0.8752
  646MOL0     C89019   5.418   3.746   3.692  0.3018 -0.2517 -0.3941
  646MOL0     C89020   5.527   3.762   3.796 -0.1469  0.4038 -0.0445
  646MOL0     C89021   5.598   3.893   3.790 -0.2922  0.1820  0.9889
  646MOL0     C89022   5.720   3.897   3.887 -0.5631  0.3188 -0.3026
  646MOL0     C89023   5.835   3.805   3.843  0.5046 -0.7348 -0.2427
  646MOL0     C89024   5.952   3.840   3.934 -0.3831 -0.2961 -0.6586
  646MOL0     C89025   6.070   3.747   3.914 -0.3583 -0.2457  0.9668
  646MOL0     C89026   6.145   3.740   3.786  0.0789 -0.9931  0.4685
  646MOL0     N89027   6.245   3.630   3.777 -0.0113 -0.6884  1.1920
  646MOL0     C89028   6.225   3.510   3.714  0.5394 -0.4641 -0.0438
  646MOL0     C89029   6.337   3.443   3.724 -0.5025 -0.9468  0.0153
  646MOL0     C89030   6.367   3.307   3.672 -0.7000  0.5543  0.4693
  646MOL0     C89031   6.265   3.213   3.725 -1.1816 -0.7058  0.0416
  646MOL0     C89032   6.278   3.070   3.660  0.1796 -1.1889  0.7203
  646MOL0     C89033   6.165   2.976   3.700  0.2889 -1.1209  0.1890
  646MOL0     O89034   6.126   2.980   3.837 -0.3659 -0.5382 -0.1806
  646MOL0     C89035   6.040   2.889   3.884  0.2437 -0.5617 -0.7254
  646MOL0     C89036   6.010   2.889   4.019  0.1379  1.1198  0.1228
  646MOL0     C89037   5.931   2.786   4.081 -0.1298 -0.4787  1.0814
  646MOL0     C89038   5.896   2.803   4.230 -0.3636  0.1823  0.0716
  646MOL0     C89039   5.893   2.676   4.002 -0.0175 -0.3015 -0.4857
  646MOL0     C89040   5.817   2.560   4.058 -0.7606 -0.0110  0.0449
  646MOL0     O89041   5.738   2.570   4.173  0.5813  0.2111  0.7143
  646MOL0     C89042   5.692   2.448   4.215 -0.4795  0.3490 -0.6843
  646MOL0     C89043   5.571   2.404   4.164 -0.2222 -0.6414  0.6922
  646MOL0     C89044   5.510   2.287   4.220 -1.1205 -0.8374 -0.0776
  646MOL0     C89045   5.583   2.198   4.299 -0.2886 -0.2649  0.0984
  646MOL0     O89046   5.548   2.077   4.341  1.0258  0.3871  0.2085
  646MOL0     C89047   5.434   2.009   4.274  0.1724 -0.9554  0.3257
  646MOL0     C89048   5.486   1.914   4.171  0.7363  1.0524  0.8062
  646MOL0     C89049   5.588   1.821   4.220  0.9192  0.7870 -0.2795
  646MOL0     C89050   5.518   1.715   4.316 -0.5833 -0.0138  0.2070
  646MOL0     C89051   5.619   1.637   4.403  0.3816 -0.2986  0.1343
  646MOL0     C89052   5.722   1.564   4.326  0.9327 -0.3612 -0.0919
  646MOL0     C89053   5.791   1.471   4.416  0.7582  0.0682 -0.2100
  646MOL0     C89054   5.925   1.425   4.364  0.2535  0.0860  0.5343
  646MOL0    Cl89055   5.905   1.305   4.235  0.3818  0.3644 -0.4803
  646MOL0     C89056   5.702   2.243   4.346  0.5023 -0.0054  0.1807
  646MOL0     C89057   5.760   2.372   4.312  0.4755 -0.1388 -0.3864
  646MOL0     O89058   5.826   2.459   3.992  0.1037 -0.3252 -0.3899
  646MOL0     C89059   5.920   2.675   3.864  0.4235 -0.5273  0.3349
  646MOL0     C89060   5.992   2.785   3.810 -0.1410  1.0265  0.8429
  646MOL0     N89061   6.427   3.517   3.795  0.1587 -0.8362  0.5222
  646MOL0     N89062   6.370   3.635   3.819 -0.4749 -0.6790 -0.1823
  646MOL0     C89063   5.459   3.798   3.330  0.4534 -0.6010 -0.1798
  646MOL0     C89064   5.399   3.803   3.213 -0.0892  0.3793  0.7516
  646MOL0     C89065   5.086   3.678   2.868 -0.5116  0.0280 -0.5385
  646MOL0     C89066   5.162   3.776   2.798 -0.1763  0.3119 -0.7903
  646MOL0     C89067   5.147   3.790   2.667 -0.5963  0.1925  0.1369
  646MOL0     C89068   5.065   3.702   2.595  0.8633  0.3020  0.1762
  646MOL0     O89069   5.041   3.711   2.458 -0.4707  0.6892  1.3227
  646MOL0     C89070   5.087   3.831   2.388 -0.6710 -0.3469 -0.0376
  646MOL0     C89071   5.081   3.848   2.236 -0.1891 -0.5821 -0.1272
  646MOL0     C89072   5.175   3.759   2.152  0.5008  0.1640 -0.0545
  646MOL0     C89073   5.160   3.812   2.007 -0.3661 -0.6233 -0.2244
  646MOL0     C89074   5.277   3.779   1.931 -0.1316  0.6911  0.4945
  646MOL0     C89075   5.378   3.754   1.870 -1.2690 -0.6411  0.0675
  646MOL0     C89076   4.985   3.606   2.656 -0.7215  0.1440 -0.4160
  646MOL0     C89077   4.998   3.595   2.797  0.2849  0.0650 -0.0586
  646MOL0     C89078   4.926   3.485   2.856  0.7253  0.7527 -0.6478
  646MOL0     H89079   5.087   3.697   3.308  0.7518  0.9297  1.7372
  646MOL0     H89080   5.190   3.708   3.521  2.7962  4.7757  2.8303
  646MOL0     H89081   5.373   3.648   3.712  0.7880 -0.7770 -1.7810
  646MOL0     H89082   5.363   3.839   3.706  2.5751  1.3908 -1.6733
  646MOL0     H89083   5.475   3.763   3.892 -0.5324  2.7382 -0.2037
  646MOL0     H89084   5.598   3.680   3.780  1.4098  0.2032  5.7677
  646MOL0     H89085   5.634   3.923   3.691 -1.9520  0.0119  0.3044
  646MOL0     H89086   5.520   3.961   3.825 -2.1553 -2.7532  2.9565
  646MOL0     H89087   5.740   4.005   3.881 -2.8388  0.8612  0.8797
  646MOL0     H89088   5.689   3.856   3.983  0.1841  0.8670  0.1859
  646MOL0     H89089   5.866   3.825   3.740 -1.8296  0.1575 -0.8209
  646MOL0     H89090   5.806   3.701   3.862 -0.4368 -1.0339 -2.8755
  646MOL0     H89091   5.978   3.946   3.924 -1.3284  0.1420  1.1305
  646MOL0     H89092   5.925   3.823   4.038  0.4057  4.1588  0.4822
  646MOL0     H89093   6.032   3.645   3.929  2.9534 -1.3554  2.9194
  646MOL0     H89094   6.141   3.782   3.990  1.0008 -0.3021 -0.2454
  646MOL0     H89095   6.074   3.740   3.702 -1.0076  3.9051  1.0757
  646MOL0     H89096   6.198   3.835   3.778 -2.4358  0.3419 -2.3102
  646MOL0     H89097   6.141   3.464   3.663 -0.1583 -0.4247  1.0333
  646MOL0     H89098   6.464   3.262   3.694 -0.0221  1.8025  0.1073
  646MOL0     H89099   6.356   3.307   3.563 -0.2869 -2.8347  0.2911
  646MOL0     H89100   6.272   3.204   3.834 -1.3846  0.6840  0.1929
  646MOL0     H89101   6.163   3.251   3.720 -0.4812  1.1888 -0.7150
  646MOL0     H89102   6.277   3.084   3.552 -0.4199  0.3848  0.8869
  646MOL0     H89103   6.366   3.016   3.696  0.5669 -0.1888  1.3151
  646MOL0     H89104   6.075   3.004   3.644 -0.9031 -1.4359  1.8735
  646MOL0     H89105   6.198   2.874   3.679 -0.3918 -1.0526 -1.3826
  646MOL0     H89106   6.046   2.981   4.063  2.9580  0.7814 -1.2450
  646MOL0     H89107   5.948   2.889   4.273  3.7564 -1.8909 -0.2195
  646MOL0     H89108   5.929   2.720   4.294 -1.1746 -0.4092 -0.2545
  646MOL0     H89109   5.788   2.812   4.245 -0.8672 -2.8437 -1.0109
  646MOL0     H89110   5.518   2.462   4.089 -2.4220 -3.5068 -0.1341
  646MOL0     H89111   5.407   2.270   4.189 -0.6170 -0.8685 -1.8609
  646MOL0     H89112   5.383   1.954   4.354  1.5748 -0.1243  1.8686
  646MOL0     H89113   5.366   2.074   4.218 -3.1090 -2.7470  1.8973
  646MOL0     H89114   5.404   1.853   4.132  2.8333 -1.6320  0.2777
  646MOL0     H89115   5.533   1.975   4.093 -0.5464  0.0490 -0.8319
  646MOL0     H89116   5.663   1.875   4.278  0.7137  1.4891 -0.6583
  646MOL0     H89117   5.627   1.759   4.138 -0.2928 -2.3102  1.3238
  646MOL0     H89118   5.455   1.640   4.267 -2.8680  0.5640  2.0503
  646MOL0     H89119   5.456   1.767   4.389 -0.4264  1.2260 -0.5297
  646MOL0     H89120   5.664   1.707   4.474 -2.0913 -2.1169  3.8223
  646MOL0     H89121   5.554   1.572   4.462 -1.6775  0.4696 -1.1647
  646MOL0     H89122   5.798   1.629   4.282  1.9404 -0.3456  1.5748
  646MOL0     H89123   5.673   1.498   4.254 -0.6114  0.3376  0.2813
  646MOL0     H89124   5.732   1.387   4.454 -0.6173  1.0396 -0.0959
  646MOL0     H89125   5.809   1.530   4.506  0.1996  1.3482 -0.9141
  646MOL0     H89126   5.972   1.376   4.450  2.3043  2.9167  1.1689
  646MOL0     H89127   5.990   1.506   4.332  0.4525  0.0205  0.7693
  646MOL0     H89128   5.753   2.174   4.412 -0.8844  1.0634  2.4885
  646MOL0     H89129   5.850   2.405   4.363 -0.6155  3.5119 -0.5602
  646MOL0     H89130   5.874   2.603   3.798  0.6248 -2.7834  2.4863
  646MOL0     H89131   6.023   2.785   3.706  0.4835  1.0163  1.0215
  646MOL0     H89132   5.559   3.836   3.347 -0.7517  2.0791  1.4216
  646MOL0     H89133   5.461   3.820   3.126  0.1494 -3.2720  0.0639
  646MOL0     H89134   5.235   3.844   2.841  2.3762 -1.6928 -1.6481
  646MOL0     H89135   5.197   3.877   2.625 -1.1592  2.1311  3.1854
  646MOL0     H89136   5.047   3.923   2.430  2.8446  1.9713 -1.3110
  646MOL0     H89137   5.195   3.839   2.406  0.3327 -2.2988 -3.9532
  646MOL0     H89138   5.086   3.954   2.214 -0.9163 -0.8026 -1.4371
  646MOL0     H89139   4.979   3.827   2.203 -1.3345  2.1551  1.3944
  646MOL0     H89140   5.281   3.763   2.177  0.5727  3.9078 -0.4261
  646MOL0     H89141   5.138   3.656   2.147 -1.8313  0.8462  1.4009
  646MOL0     H89142   5.143   3.919   1.995  0.7469 -0.2598  1.1394
  646MOL0     H89143   5.078   3.758   1.958  0.1983 -1.1388 -0.6205
  646MOL0     H89144   5.475   3.739   1.825 -0.2072  2.1623  1.1559
  646MOL0     H89145   4.917   3.550   2.594  0.3754 -0.7569 -0.8450
  646MOL0     H89146   4.900   3.418   2.773 -0.9270  3.7192 -2.6903
  646MOL0     H89147   4.984   3.419   2.921  0.2636 -1.5758 -2.4588
  646MOL0     H89148   4.834   3.526   2.898  0.2933  0.8406 -1.6672
  647MOL0     O89149   0.912   2.482   0.682  0.3624  0.3647 -0.2401
  647MOL0     C89150   0.926   2.594   0.643  0.8865 -0.6580  0.0639
  647MOL0     O89151   0.994   2.626   0.534  0.4552  0.7396 -0.7712
  647MOL0     C89152   1.081   2.530   0.483  0.2047  0.4299 -0.1019
  647MOL0     C89153   1.058   2.463   0.355  0.2471  0.2713  0.2401
  647MOL0     C89154   1.150   2.354   0.306  0.0303 -0.7676 -0.0296
  647MOL0     C89155   1.267   2.328   0.376  0.5392 -0.6325 -0.1622
  647MOL0     O89156   1.345   2.223   0.346 -1.0438  0.0613  0.3035
  647MOL0     C89157   1.286   2.099   0.360 -0.3993 -0.4785 -0.2883
  647MOL0     C89158   1.407   2.014   0.397 -0.6537 -0.1801 -0.5963
  647MOL0     C89159   1.370   1.874   0.473 -0.6659 -0.0784 -0.6069
  647MOL0     C89160   1.408   1.874   0.618  0.1862  0.7502 -0.8984
  647MOL0     C89161   1.379   1.745   0.697  0.0813 -0.0600 -0.0816
  647MOL0     C89162   1.238   1.679   0.694  0.1334 -0.2369  0.1842
  647MOL0     C89163   1.153   1.701   0.822 -0.5766 -0.3183  0.8108
  647MOL0     C89164   1.004   1.672   0.797 -0.6926 -0.1189  0.7160
  647MOL0     N89165   0.924   1.737   0.907 -0.3900 -0.5095 -0.3704
  647MOL0     C89166   0.941   1.737   1.038 -0.9162 -0.5118 -1.0608
  647MOL0     C89167   0.876   1.839   1.089 -0.2094  0.5562 -0.6873
  647MOL0     C89168   0.887   1.893   1.229 -0.4687 -0.4196  0.9406
  647MOL0     C89169   0.770   1.958   1.298  0.9471 -0.3959  0.0620
  647MOL0     C89170   0.731   2.100   1.237  0.5297 -0.1753  1.0144
  647MOL0     C89171   0.618   2.165   1.307 -0.2165  0.2247 -0.2456
  647MOL0     O89172   0.568   2.284   1.248 -0.2287 -0.3769 -0.1675
  647MOL0     C89173   0.634   2.405   1.280 -0.3728  0.5263 -0.1314
  647MOL0     C89174   0.570   2.520   1.231  0.2167  0.2101 -0.2587
  647MOL0     C89175   0.613   2.652   1.262  0.2669 -0.5021 -0.3466
  647MOL0     C89176   0.531   2.768   1.216 -1.0774 -0.5789 -0.3980
  647MOL0     C89177   0.735   2.670   1.338  0.1949 -0.3078  0.5495
  647MOL0     C89178   0.784   2.804   1.375 -0.9421 -0.5234 -0.0517
  647MOL0     O89179   0.825   2.888   1.271 -0.3040  0.2902  0.1203
  647MOL0     C89180   0.845   3.017   1.305  0.1589 -0.4396 -0.4028
  647MOL0     C89181   0.965   3.056   1.347 -0.0257  0.3119  0.2673
  647MOL0     C89182   0.989   3.189   1.390 -0.2314  0.1791 -0.0411
  647MOL0     C89183   0.886   3.286   1.393  0.3110 -0.1831 -0.1221
  647MOL0     O89184   0.923   3.417   1.420  0.1047 -0.8902 -0.1204
  647MOL0     C89185   0.849   3.527   1.382 -0.8176 -0.4138 -0.6582
  647MOL0     C89186   0.932   3.655   1.405 -0.1024  0.1265  0.1537
  647MOL0     C89187   0.855   3.777   1.350  0.0645 -0.5243  0.0459
  647MOL0     C89188   0.927   3.902   1.382 -1.2160  0.0360  0.0373
  647MOL0     C89189   0.883   4.032   1.322  0.4569 -0.5656 -0.8085
  647MOL0     C89190   0.743   4.071   1.353 -0.5448  0.7861  0.2812
  647MOL0     C89191   0.695   4.076   1.502 -0.0673  0.5387 -0.5770
  647MOL0     C89192   0.547   4.128   1.508  1.2016  0.0041 -0.2426
  647MOL0    Cl89193   0.498   4.138   1.692  0.1540  0.6556 -0.4082
  647MOL0     C89194   0.750   3.245   1.355  0.0011  0.8733 -0.4141
  647MOL0     C89195   0.743   3.109   1.319 -0.7470 -0.2435 -0.1632
  647MOL0     O89196   0.799   2.830   1.499  0.7499 -0.1109 -0.1110
  647MOL0     C89197   0.799   2.549   1.372  0.5348 -1.0657  0.5504
  647MOL0     C89198   0.751   2.418   1.351 -0.0026 -0.1803 -0.0051
  647MOL0     N89199   0.805   1.898   0.987 -0.2117 -0.2109  0.6675
  647MOL0     N89200   0.829   1.832   0.878  0.1388 -0.8036 -0.3948
  647MOL0     C89201   1.289   2.409   0.483 -0.0123 -1.0165 -0.5355
  647MOL0     C89202   1.206   2.498   0.542  0.4362 -0.7201 -0.8694
  647MOL0     C89203   0.851   2.708   0.713  0.6381  0.5034  0.8240
  647MOL0     C89204   0.783   2.807   0.642 -0.7397 -0.1707  0.0127
  647MOL0     C89205   0.719   2.911   0.697  0.4107 -0.4898 -0.3732
  647MOL0     C89206   0.700   2.914   0.829  0.1031  0.7955 -0.8571
  647MOL0     O89207   0.631   3.017   0.887  0.2855 -1.0783 -0.0838
  647MOL0     C89208   0.550   3.112   0.812 -0.2524  0.3853  0.4062
  647MOL0     C89209   0.450   3.190   0.896  0.3502 -0.1205 -0.4201
  647MOL0     C89210   0.509   3.281   1.002  0.4639 -0.9639  0.7182
  647MOL0     C89211   0.393   3.321   1.096 -0.2431  0.0799  1.2918
  647MOL0     C89212   0.427   3.425   1.195  0.0281  0.5399  0.0292
  647MOL0     C89213   0.461   3.509   1.274  0.7253  0.0359  0.5958
  647MOL0     C89214   0.763   2.825   0.906 -0.9717  0.8053  0.1623
  647MOL0     C89215   0.837   2.717   0.853  0.1521 -0.6910 -0.5401
  647MOL0     C89216   0.900   2.627   0.953  0.5120  0.1329 -1.1673
  647MOL0     H89217   0.963   2.474   0.303  0.2944 -0.1010  0.0679
  647MOL0     H89218   1.133   2.290   0.221  2.5302 -1.1360 -0.3532
  647MOL0     H89219   1.236   2.069   0.267 -0.9777  1.4103 -0.6299
  647MOL0     H89220   1.204   2.097   0.432  0.0876 -0.6887  0.2699
  647MOL0     H89221   1.465   1.992   0.307 -0.2141  0.4898 -0.4765
  647MOL0     H89222   1.476   2.072   0.458 -1.5932  2.2512 -1.7447
  647MOL0     H89223   1.262   1.863   0.464 -0.9134  2.5176 -1.7732
  647MOL0     H89224   1.421   1.786   0.434 -0.8606 -2.5863  4.1477
  647MOL0     H89225   1.513   1.903   0.612  0.9914 -1.7055  0.0832
  647MOL0     H89226   1.359   1.953   0.675 -0.0748 -1.0372  1.5109
  647MOL0     H89227   1.404   1.763   0.802 -0.9542  0.1477  0.1338
  647MOL0     H89228   1.446   1.672   0.650  1.3892  0.9490  0.1466
  647MOL0     H89229   1.181   1.723   0.612 -3.7909 -0.4252  2.5505
  647MOL0     H89230   1.258   1.572   0.684 -2.1342 -0.7346  0.3510
  647MOL0     H89231   1.167   1.804   0.856 -0.4764 -1.3110  4.0330
  647MOL0     H89232   1.191   1.639   0.903  3.8094  1.7211  0.6152
  647MOL0     H89233   0.969   1.715   0.703 -2.2359 -0.3240  1.1689
  647MOL0     H89234   0.993   1.564   0.782  1.3546 -0.0080 -2.5095
  647MOL0     H89235   1.005   1.671   1.097  0.6914  3.3229  1.8853
  647MOL0     H89236   0.972   1.963   1.233  0.2706 -1.3307  3.5043
  647MOL0     H89237   0.916   1.811   1.295 -1.6767 -1.3918  0.2986
  647MOL0     H89238   0.676   1.902   1.301  1.3070 -0.9672  0.9901
  647MOL0     H89239   0.800   1.981   1.401  0.1143 -1.7025  0.6152
  647MOL0     H89240   0.819   2.165   1.229 -0.1177  0.7954  1.6189
  647MOL0     H89241   0.700   2.082   1.133  1.3353  2.1012  0.3172
  647MOL0     H89242   0.536   2.092   1.310 -0.5900  0.6777  2.6181
  647MOL0     H89243   0.641   2.172   1.413  2.7803 -3.5723 -0.4296
  647MOL0     H89244   0.486   2.499   1.165 -0.0729 -0.2005  0.2359
  647MOL0     H89245   0.532   2.844   1.295  0.0328 -1.4501  0.4578
  647MOL0     H89246   0.429   2.731   1.221 -0.6927 -2.0934 -2.6690
  647MOL0     H89247   0.553   2.803   1.115 -2.6277  1.7944  0.0078
  647MOL0     H89248   1.042   2.980   1.339 -0.1928  0.1917 -0.2602
  647MOL0     H89249   1.094   3.210   1.407 -0.5439 -0.1513  2.9633
  647MOL0     H89250   0.832   3.509   1.275  2.6522 -3.0392 -0.9376
  647MOL0     H89251   0.757   3.538   1.439 -0.1341  1.9403  0.1321
  647MOL0     H89252   0.963   3.669   1.509  0.1825  0.4527  0.0245
  647MOL0     H89253   1.026   3.643   1.349  1.2659  0.9665  2.1572
  647MOL0     H89254   0.756   3.789   1.396 -0.3568  2.0485 -1.3617
  647MOL0     H89255   0.852   3.771   1.241  1.9716  2.9183 -0.3227
  647MOL0     H89256   1.032   3.905   1.351 -0.9864  0.6538  0.8596
  647MOL0     H89257   0.926   3.907   1.491 -0.6245  3.2876  0.0004
  647MOL0     H89258   0.947   4.118   1.341 -0.2054  0.4106 -2.6585
  647MOL0     H89259   0.881   4.019   1.213 -0.4176 -2.4558 -0.6015
  647MOL0     H89260   0.681   3.992   1.310 -1.9590  0.4654  2.7114
  647MOL0     H89261   0.725   4.168   1.307 -0.2821 -0.2872 -2.2095
  647MOL0     H89262   0.757   4.152   1.549 -2.7612  1.3071  2.0415
  647MOL0     H89263   0.691   3.989   1.568 -1.1078  0.5279 -0.6375
  647MOL0     H89264   0.474   4.066   1.457  0.3390 -0.0320  0.9717
  647MOL0     H89265   0.546   4.222   1.452  0.3765  1.1296  1.5263
  647MOL0     H89266   0.662   3.308   1.351 -0.8746 -0.3811 -1.7184
  647MOL0     H89267   0.643   3.075   1.293 -0.0239 -0.3980 -2.9902
  647MOL0     H89268   0.894   2.559   1.424  2.3830 -1.0751 -2.6106
  647MOL0     H89269   0.814   2.341   1.394 -0.1048  1.0432  2.5627
  647MOL0     H89270   1.384   2.402   0.537  0.0134  1.2177 -0.2109
  647MOL0     H89271   1.230   2.544   0.637 -0.5416 -0.6641 -0.6371
  647MOL0     H89272   0.786   2.815   0.534 -3.7838  0.0619 -0.1521
  647MOL0     H89273   0.667   2.976   0.628  3.7444  0.9685 -1.7083
  647MOL0     H89274   0.609   3.186   0.757 -2.0884  0.5184 -1.5298
  647MOL0     H89275   0.486   3.057   0.743 -0.4942 -0.5093  1.3179
  647MOL0     H89276   0.401   3.113   0.957  3.4466 -2.2055 -0.3428
  647MOL0     H89277   0.378   3.244   0.835  1.0174 -1.2101 -2.2547
  647MOL0     H89278   0.583   3.222   1.057  1.6267 -1.2000 -1.0242
  647MOL0     H89279   0.562   3.361   0.949 -0.3752 -1.6399 -1.2617
  647MOL0     H89280   0.353   3.232   1.144  3.0367 -0.7378  2.8147
  647MOL0     H89281   0.312   3.361   1.035 -1.4731 -1.4445  1.8633
  647MOL0     H89282   0.495   3.587   1.338  0.5477  1.6938 -1.2462
  647MOL0     H89283   0.757   2.842   1.013 -5.0077 -1.0211  0.3989
  647MOL0     H89284   0.911   2.673   1.051 -4.4014 -1.7204  0.5339
  647MOL0     H89285   0.848   2.532   0.967  2.0414 -0.5681  0.2024
  647MOL0     H89286   1.002   2.597   0.926  1.3960 -0.6075  2.5005
  648MOL0     O89287   1.215   6.012   4.709  0.0230 -1.2786  0.4277
  648MOL0     C89288   1.323   5.986   4.764 -1.6492 -0.5247  0.8340
  648MOL0     O89289   1.363   5.863   4.800 -0.4813 -0.5041 -0.8715
  648MOL0     C89290   1.286   5.755   4.758 -0.2442 -0.8041 -0.5497
  648MOL0     C89291   1.332   5.691   4.646  0.2332  0.3262 -0.0684
  648MOL0     C89292   1.253   5.586   4.597  0.0492  0.2803  0.4832
  648MOL0     C89293   1.126   5.559   4.651  0.4996  0.5688 -0.5374
  648MOL0     O89294   1.034   5.474   4.590 -0.0638  0.2519 -0.3234
  648MOL0     C89295   1.080   5.382   4.481 -0.5558 -0.0786  0.0478
  648MOL0     C89296   0.968   5.320   4.401 -0.5179 -0.2776 -0.1924
  648MOL0     C89297   0.843   5.300   4.475  0.6104 -0.0433 -0.0839
  648MOL0     C89298   0.752   5.237   4.371  0.2733 -0.2577  0.0621
  648MOL0     C89299   0.645   5.147   4.430  0.3716  0.0745 -0.2263
  648MOL0     C89300   0.539   5.224   4.503 -0.1739 -1.0825 -0.3202
  648MOL0     C89301   0.492   5.162   4.632  0.0138  0.3861  1.1238
  648MOL0     C89302   0.361   5.232   4.680 -0.6877 -0.1917 -0.0773
  648MOL0     N89303   0.278   5.145   4.764  1.5373  0.1856  0.0844
  648MOL0     C89304   0.220   5.025   4.729 -0.7793  0.2228 -0.7490
  648MOL0     C89305   0.170   4.988   4.847 -0.9873  0.2765  0.5846
  648MOL0     C89306   0.123   4.848   4.873  0.6799  0.1577 -0.5128
  648MOL0     C89307  -0.030   4.832   4.863  0.2341 -0.0445  1.0056
  648MOL0     C89308  -0.110   4.943   4.934  0.1395 -1.2669  0.4274
  648MOL0     C89309  -0.154   5.066   4.849  0.0691 -0.5152  0.6925
  648MOL0     O89310  -0.218   5.020   4.726  0.4110 -0.2714 -0.6530
  648MOL0     C89311  -0.307   5.104   4.662 -0.5693 -0.1835 -0.1619
  648MOL0     C89312  -0.402   5.040   4.585 -0.6924 -0.3892 -0.6401
  648MOL0     C89313  -0.516   5.111   4.524 -0.5984  0.5248  0.1340
  648MOL0     C89314  -0.614   5.037   4.430  0.1141  0.8074  0.3406
  648MOL0     C89315  -0.532   5.247   4.564 -0.6151 -0.0169  0.3841
  648MOL0     C89316  -0.650   5.331   4.534 -1.1062 -0.6104 -0.0247
  648MOL0     O89317  -0.743   5.301   4.452  0.1970  0.3779  0.2093
  648MOL0     C89318  -0.870   5.367   4.442 -0.2578  0.4550  0.5038
  648MOL0     C89319  -0.934   5.374   4.323 -0.4740  0.5326  0.3056
  648MOL0     C89320  -1.070   5.420   4.312 -0.2702  1.1070  0.7428
  648MOL0     C89321  -1.140   5.474   4.432  0.5357 -0.1536 -0.3380
  648MOL0     O89322  -1.268   5.523   4.422  0.1515 -0.2689  0.0327
  648MOL0     C89323  -1.354   5.454   4.333 -1.3457  0.7825  0.8006
  648MOL0     C89324  -1.498   5.493   4.332 -0.1103 -0.8497 -0.3653
  648MOL0     C89325  -1.533   5.631   4.275  0.0125  0.2020 -0.4300
  648MOL0     C89326  -1.467   5.742   4.352 -0.8130 -0.0477  0.1919
  648MOL0     C89327  -1.530   5.885   4.324  0.0093  0.1042  0.5378
  648MOL0     C89328  -1.436   5.996   4.378  0.3498 -0.1684  0.0347
  648MOL0     C89329  -1.501   6.134   4.377  0.1096  0.1314 -0.3562
  648MOL0     C89330  -1.538   6.204   4.248 -0.3378  0.4589  0.4405
  648MOL0    Cl89331  -1.394   6.212   4.134  0.0546  0.6731 -0.4274
  648MOL0     C89332  -1.062   5.475   4.547  0.4386  0.7817 -0.5573
  648MOL0     C89333  -0.933   5.425   4.552 -0.3181 -0.2363  0.8357
  648MOL0     O89334  -0.646   5.431   4.598  0.0784 -0.0875 -0.0309
  648MOL0     C89335  -0.430   5.315   4.636  0.2555  1.5367 -0.4353
  648MOL0     C89336  -0.320   5.238   4.676 -0.0218  0.7375  0.2400
  648MOL0     N89337   0.208   5.081   4.950  0.4655 -0.5137  0.4360
  648MOL0     N89338   0.252   5.186   4.888  0.4886  0.1289 -0.0511
  648MOL0     C89339   1.090   5.616   4.770 -0.2413  0.1912 -0.0147
  648MOL0     C89340   1.174   5.714   4.831  0.2711  0.5208 -0.2034
  648MOL0     C89341   1.422   6.091   4.789 -0.7445 -0.0451  0.1321
  648MOL0     C89342   1.493   6.090   4.905 -0.0846 -0.9576 -0.5491
  648MOL0     C89343   1.558   6.201   4.955  0.0766  0.6869  1.5841
  648MOL0     C89344   1.569   6.311   4.878  1.0164 -0.7182 -0.5218
  648MOL0     O89345   1.653   6.398   4.940  0.5633  0.2848 -0.8495
  648MOL0     C89346   1.646   6.530   4.889  0.6920 -0.1755  0.3924
  648MOL0     C89347   1.686   6.647   4.984 -0.6020  0.1241  0.2405
  648MOL0     C89348   1.826   6.633   5.031 -0.2068 -0.6835  0.4330
  648MOL0     C89349   1.941   6.594   4.937  0.0854  1.0861  0.2785
  648MOL0     C89350   1.930   6.661   4.816  0.3435 -0.3725  0.6726
  648MOL0     C89351   1.950   6.748   4.725  0.0555 -0.7402 -0.4512
  648MOL0     C89352   1.529   6.305   4.737 -0.1303 -0.1398 -0.2552
  648MOL0     C89353   1.438   6.197   4.691  0.0040  0.3444 -0.0607
  648MOL0     C89354   1.378   6.193   4.552 -0.0540  0.5016  0.2526
  648MOL0     H89355   1.426   5.705   4.593  0.6958 -1.6180  0.1596
  648MOL0     H89356   1.295   5.530   4.514  2.9373 -0.2791  2.1760
  648MOL0     H89357   1.142   5.307   4.530 -2.1723 -1.4925  0.0005
  648MOL0     H89358   1.148   5.426   4.407 -0.2842  0.0811  0.3887
  648MOL0     H89359   0.958   5.376   4.307  2.6164 -1.5121 -1.3854
  648MOL0     H89360   1.012   5.232   4.353 -2.7690 -0.2732 -2.4898
  648MOL0     H89361   0.849   5.227   4.557  0.8580 -1.6994 -1.5055
  648MOL0     H89362   0.800   5.392   4.516  2.8157  0.4192  1.3770
  648MOL0     H89363   0.710   5.313   4.304 -0.4493 -0.9088 -0.2354
  648MOL0     H89364   0.804   5.168   4.304  1.1681 -0.3781  0.8526
  648MOL0     H89365   0.693   5.074   4.495 -1.0244 -0.2355  0.4808
  648MOL0     H89366   0.594   5.100   4.345 -0.0178 -1.8899  1.0196
  648MOL0     H89367   0.574   5.324   4.529 -1.4750 -1.2525  2.4639
  648MOL0     H89368   0.453   5.229   4.435 -1.0462 -2.6214  0.6056
  648MOL0     H89369   0.568   5.156   4.711 -1.1831  0.2798  2.2842
  648MOL0     H89370   0.462   5.063   4.598 -1.0446  1.2708 -0.6843
  648MOL0     H89371   0.383   5.329   4.726 -3.0583  0.4561 -0.1718
  648MOL0     H89372   0.293   5.273   4.604 -0.2411 -0.4331 -0.6062
  648MOL0     H89373   0.197   4.970   4.638 -0.5748 -1.9449  0.4332
  648MOL0     H89374   0.144   4.827   4.978 -2.1221  1.7107  0.4340
  648MOL0     H89375   0.178   4.769   4.821  1.9514  2.3500 -2.7270
  648MOL0     H89376  -0.052   4.820   4.757  0.1066  0.1851  1.0072
  648MOL0     H89377  -0.062   4.742   4.917 -3.9412  1.7505  1.8855
  648MOL0     H89378  -0.198   4.902   4.986 -0.8000  1.6842  1.3436
  648MOL0     H89379  -0.046   4.991   5.008  1.5365 -2.6201  0.1458
  648MOL0     H89380  -0.230   5.123   4.904  1.5494  1.8677  0.3783
  648MOL0     H89381  -0.071   5.134   4.834 -0.7261  0.5093  0.8420
  648MOL0     H89382  -0.413   4.932   4.577 -2.9538 -0.4399  1.7481
  648MOL0     H89383  -0.701   5.008   4.489 -0.6980 -1.3423 -1.7501
  648MOL0     H89384  -0.576   4.945   4.384 -1.7329 -0.6200  1.4973
  648MOL0     H89385  -0.642   5.097   4.344  3.9995  0.0124 -1.7263
  648MOL0     H89386  -0.876   5.346   4.236  3.0938  0.8380  2.4142
  648MOL0     H89387  -1.107   5.402   4.212  1.1104 -0.4475  0.4597
  648MOL0     H89388  -1.312   5.474   4.234  1.1158  1.2413  1.8662
  648MOL0     H89389  -1.352   5.347   4.355  0.4244  1.1517  2.7995
  648MOL0     H89390  -1.556   5.421   4.274 -2.0030 -0.1300  0.5324
  648MOL0     H89391  -1.537   5.484   4.434 -0.2863  3.2224  0.0952
  648MOL0     H89392  -1.641   5.645   4.268 -0.0647 -0.7012 -1.2896
  648MOL0     H89393  -1.499   5.645   4.172  0.5445 -1.0078 -0.4357
  648MOL0     H89394  -1.358   5.744   4.343 -0.8591  0.7728 -0.3936
  648MOL0     H89395  -1.492   5.718   4.456 -1.3542 -1.8353 -0.3248
  648MOL0     H89396  -1.549   5.898   4.217 -1.2838  0.3769  0.7842
  648MOL0     H89397  -1.632   5.875   4.364 -0.0726 -0.3422  0.2320
  648MOL0     H89398  -1.344   5.997   4.319 -0.2968 -3.1151 -1.2403
  648MOL0     H89399  -1.404   5.966   4.478  1.9520 -2.3839 -1.0394
  648MOL0     H89400  -1.431   6.203   4.426  0.2039 -1.1223  1.3463
  648MOL0     H89401  -1.581   6.129   4.452  0.4215 -3.5862 -0.1042
  648MOL0     H89402  -1.575   6.306   4.265  0.1853  1.0663 -1.6361
  648MOL0     H89403  -1.609   6.142   4.193  1.6037  0.4616 -2.2775
  648MOL0     H89404  -1.099   5.503   4.645  0.9387  1.5410 -0.5767
  648MOL0     H89405  -0.894   5.420   4.653  0.2162  3.2821  0.9144
  648MOL0     H89406  -0.429   5.422   4.653 -1.3902  1.0173  4.0782
  648MOL0     H89407  -0.241   5.283   4.735 -1.2695 -1.1955  3.6739
  648MOL0     H89408   1.001   5.576   4.817 -0.4384 -0.8556 -1.2333
  648MOL0     H89409   1.155   5.774   4.920 -0.5046  3.4242 -2.1633
  648MOL0     H89410   1.497   6.005   4.972  0.3678  0.9934  2.0577
  648MOL0     H89411   1.609   6.186   5.049  0.3211 -1.0868  1.2023
  648MOL0     H89412   1.688   6.539   4.788 -1.5642 -0.2420 -0.6235
  648MOL0     H89413   1.544   6.550   4.856  1.2127 -1.0433 -1.9358
  648MOL0     H89414   1.623   6.636   5.073 -1.3983 -0.1216 -0.3432
  648MOL0     H89415   1.662   6.745   4.944 -2.9217 -0.5397 -0.1068
  648MOL0     H89416   1.848   6.727   5.082 -0.5263 -0.5022  0.2492
  648MOL0     H89417   1.825   6.549   5.100  1.4893 -1.5284 -0.4984
  648MOL0     H89418   1.923   6.488   4.919  0.5011  1.1816 -0.7584
  648MOL0     H89419   2.040   6.599   4.983  0.8141  0.9960 -1.2024
  648MOL0     H89420   1.968   6.818   4.647  1.7064 -0.6508 -0.0295
  648MOL0     H89421   1.535   6.389   4.669  1.2436  0.1518  0.1917
  648MOL0     H89422   1.395   6.290   4.504 -2.9291 -0.0898 -2.2742
  648MOL0     H89423   1.439   6.122   4.495 -0.0255  0.6984  0.0373
  648MOL0     H89424   1.269   6.187   4.559 -0.1765  1.3597 -0.6898
  649MOL0     O89425   1.092   5.817   9.006 -0.8804 -0.1791 -0.3185
  649MOL0     C89426   1.202   5.787   9.059 -0.0046  0.5800  0.3935
  649MOL0     O89427   1.252   5.842   9.174 -0.2966  0.0389 -0.2733
  649MOL0     C89428   1.178   5.923   9.263  0.1926 -0.4268  0.2170
  649MOL0     C89429   1.039   5.907   9.302  0.5659 -0.2152  0.5219
  649MOL0     C89430   0.978   5.987   9.406 -0.1757 -0.7159  0.4077
  649MOL0     C89431   1.049   6.081   9.483 -0.1921  0.8705  0.3896
  649MOL0     O89432   0.992   6.165   9.574 -0.2723  0.2804  0.1447
  649MOL0     C89433   0.846   6.166   9.574 -0.3379 -0.8960  0.1771
  649MOL0     C89434   0.803   6.309   9.594  0.1811  0.5507  0.0015
  649MOL0     C89435   0.652   6.300   9.606 -0.7775 -0.6215 -0.2151
  649MOL0     C89436   0.583   6.416   9.676  0.8637 -0.1254  0.1991
  649MOL0     C89437   0.437   6.387   9.728  1.3524 -0.2228 -0.3844
  649MOL0     C89438   0.416   6.248   9.805 -0.0856  0.5248 -0.2357
  649MOL0     C89439   0.274   6.257   9.879 -0.5565 -0.4115  0.4866
  649MOL0     C89440   0.152   6.262   9.783 -0.0920 -0.6559 -0.1442
  649MOL0     N89441   0.026   6.274   9.864  0.0768 -0.1862  0.3829
  649MOL0     C89442  -0.085   6.348   9.821 -0.4546 -0.7927  0.3623
  649MOL0     C89443  -0.187   6.337   9.910 -0.2523 -1.3019 -0.3019
  649MOL0     C89444  -0.318   6.403   9.909 -0.1532 -0.6639 -0.3299
  649MOL0     C89445  -0.320   6.551   9.953  0.6986 -0.6098  0.3453
  649MOL0     C89446  -0.459   6.616   9.953  0.2725  0.0733 -0.7569
  649MOL0     C89447  -0.470   6.771   9.959  0.3257 -0.6521 -1.3566
  649MOL0     O89448  -0.497   6.819   9.832  0.3215 -0.3570 -0.0337
  649MOL0     C89449  -0.388   6.865   9.754  0.1999 -0.2977 -0.7788
  649MOL0     C89450  -0.252   6.871   9.797  0.2528 -0.5357  0.2601
  649MOL0     C89451  -0.150   6.889   9.698 -0.6986 -0.0603  0.2548
  649MOL0     C89452  -0.014   6.899   9.755 -0.1948 -1.3343 -0.0168
  649MOL0     C89453  -0.185   6.906   9.562 -0.1876  0.3743 -0.6243
  649MOL0     C89454  -0.076   6.917   9.459 -0.4337 -0.4180 -0.0410
  649MOL0     O89455  -0.120   6.916   9.328  0.0165  0.7413  0.9719
  649MOL0     C89456  -0.047   6.861   9.222  0.6755  0.6935 -0.5621
  649MOL0     C89457   0.071   6.782   9.231  0.5804  0.1476  0.3639
  649MOL0     C89458   0.120   6.739   9.110  0.2967  0.4171 -0.1444
  649MOL0     C89459   0.070   6.761   8.984 -0.0897  0.4924 -0.4344
  649MOL0     O89460   0.135   6.710   8.874  0.0798 -0.4921  0.6101
  649MOL0     C89461   0.079   6.737   8.748  0.3397  1.2379  0.5603
  649MOL0     C89462   0.173   6.686   8.643 -0.0227 -0.0156 -0.0481
  649MOL0     C89463   0.196   6.527   8.645  0.0884 -0.0676 -0.5597
  649MOL0     C89464   0.282   6.477   8.535 -0.2425  0.8055 -0.3337
  649MOL0     C89465   0.343   6.335   8.546  0.0255  0.0221  0.1140
  649MOL0     C89466   0.394   6.285   8.415  1.5408  0.3735  0.0705
  649MOL0     C89467   0.546   6.307   8.394  0.7270 -0.6222  0.7470
  649MOL0     C89468   0.564   6.355   8.245 -0.2495 -0.2322  0.1308
  649MOL0    Cl89469   0.517   6.532   8.233 -0.0382  0.0309 -0.0867
  649MOL0     C89470  -0.053   6.828   8.986  0.4860 -0.7331 -1.5460
  649MOL0     C89471  -0.109   6.883   9.101  0.1101  0.8248 -1.0078
  649MOL0     O89472   0.046   6.913   9.492 -0.0695 -0.5225  0.8037
  649MOL0     C89473  -0.318   6.915   9.528  1.2788  0.3346 -0.4593
  649MOL0     C89474  -0.419   6.896   9.619  0.8285 -0.1462 -0.6521
  649MOL0     N89475  -0.141   6.254  10.009 -0.2160  0.6143 -0.5129
  649MOL0     N89476  -0.014   6.212   9.979 -0.0481 -0.4402 -0.5326
  649MOL0     C89477   1.187   6.090   9.456 -0.3202 -0.0222  1.2474
  649MOL0     C89478   1.245   6.015   9.346 -0.3167 -0.4587 -0.2260
  649MOL0     C89479   1.296   5.722   8.973 -0.2737  0.1159  0.4042
  649MOL0     C89480   1.316   5.779   8.843  0.0192  0.2609  0.0966
  649MOL0     C89481   1.388   5.704   8.752  0.3818  0.1146 -0.4572
  649MOL0     C89482   1.473   5.599   8.790 -1.5563  0.0324 -0.1075
  649MOL0     O89483   1.536   5.538   8.683 -0.2490 -0.3936 -0.3555
  649MOL0     C89484   1.614   5.414   8.714  0.0024 -0.5435 -1.1255
  649MOL0     C89485   1.662   5.341   8.589  0.2369 -0.5872  0.7643
  649MOL0     C89486   1.779   5.414   8.521  0.1520  0.0478 -0.3472
  649MOL0     C89487   1.839   5.339   8.402 -0.4439 -0.1925  0.5312
  649MOL0     C89488   1.934   5.403   8.317 -1.1832 -0.2740  0.3171
  649MOL0     C89489   2.016   5.459   8.239 -0.5081 -1.2799  0.4200
  649MOL0     C89490   1.460   5.552   8.915  0.0948  0.1338  0.2073
  649MOL0     C89491   1.377   5.611   9.006  0.4136  0.2975  0.1241
  649MOL0     C89492   1.386   5.558   9.144  0.9823  0.1375 -1.1568
  649MOL0     H89493   0.973   5.835   9.254 -0.5552 -0.7585  2.7651
  649MOL0     H89494   0.878   5.952   9.427 -0.3092  0.4999  2.0624
  649MOL0     H89495   0.816   6.100   9.657 -0.1048  2.2801  3.0103
  649MOL0     H89496   0.806   6.126   9.480  2.5995  0.3350 -1.7239
  649MOL0     H89497   0.840   6.343   9.692  2.2563 -0.9367 -0.1895
  649MOL0     H89498   0.852   6.367   9.515  2.2928 -1.4772 -0.3090
  649MOL0     H89499   0.611   6.294   9.505  2.3046 -1.6767 -1.5420
  649MOL0     H89500   0.620   6.209   9.658  0.2832 -1.0335 -0.2699
  649MOL0     H89501   0.647   6.450   9.757 -1.5806 -1.9740  3.1503
  649MOL0     H89502   0.578   6.497   9.603 -0.3303  0.2684  0.6911
  649MOL0     H89503   0.368   6.384   9.644 -2.9182 -0.0688  2.7497
  649MOL0     H89504   0.403   6.465   9.797 -0.6053 -0.1793 -1.3360
  649MOL0     H89505   0.424   6.168   9.731  1.9007  0.5395 -0.0922
  649MOL0     H89506   0.493   6.229   9.881  0.3766  1.4390 -0.4655
  649MOL0     H89507   0.266   6.352   9.933 -1.2706  0.3738 -0.9228
  649MOL0     H89508   0.276   6.178   9.954  1.2521  1.0372  2.0404
  649MOL0     H89509   0.160   6.349   9.716 -1.8282 -0.0367  0.4039
  649MOL0     H89510   0.148   6.173   9.719  1.3832  0.7498 -2.3817
  649MOL0     H89511  -0.079   6.422   9.742  1.5416  2.7078  3.4254
  649MOL0     H89512  -0.392   6.359   9.977 -0.8224  2.4910  1.1860
  649MOL0     H89513  -0.361   6.388   9.810 -0.8839 -3.6825  0.3341
  649MOL0     H89514  -0.286   6.565  10.056 -2.0284 -0.5206  1.3110
  649MOL0     H89515  -0.268   6.616   9.882 -2.8884  1.2525 -0.8451
  649MOL0     H89516  -0.524   6.584   9.872 -1.6603  0.5256  0.5367
  649MOL0     H89517  -0.518   6.578  10.037 -0.6056 -2.5967 -2.4535
  649MOL0     H89518  -0.547   6.806  10.028  1.4872  0.6786 -0.6797
  649MOL0     H89519  -0.372   6.801   9.996  0.5069 -1.9586 -0.6865
  649MOL0     H89520  -0.225   6.879   9.902  0.7160  0.8235  0.0571
  649MOL0     H89521   0.021   6.994   9.716 -0.2405 -1.4847 -0.4283
  649MOL0     H89522   0.050   6.825   9.705  2.1897  1.6992 -1.7903
  649MOL0     H89523  -0.011   6.904   9.864 -2.0981  0.1375  0.0154
  649MOL0     H89524   0.105   6.757   9.330 -2.2043 -1.1303  1.0935
  649MOL0     H89525   0.210   6.678   9.116 -1.6514 -2.5154  2.2217
  649MOL0     H89526  -0.005   6.669   8.736  1.2179 -0.1039  1.7182
  649MOL0     H89527   0.060   6.842   8.723 -3.3817  0.2236 -1.5319
  649MOL0     H89528   0.128   6.698   8.545 -0.7589 -1.3206  0.1092
  649MOL0     H89529   0.266   6.744   8.655  0.7279 -1.2705  0.3620
  649MOL0     H89530   0.103   6.470   8.648  1.0685 -1.7655  2.0070
  649MOL0     H89531   0.237   6.506   8.745 -1.3781  0.1166  0.1053
  649MOL0     H89532   0.359   6.554   8.532  1.0393 -0.3877  0.3288
  649MOL0     H89533   0.227   6.471   8.441 -1.7014 -2.9718  0.5558
  649MOL0     H89534   0.416   6.317   8.625 -1.0541 -0.5751  1.0115
  649MOL0     H89535   0.260   6.270   8.575 -1.5129  1.4785 -0.8542
  649MOL0     H89536   0.339   6.336   8.335 -0.4053 -1.6624 -0.0044
  649MOL0     H89537   0.375   6.177   8.408 -0.7362  0.5275  2.4969
  649MOL0     H89538   0.608   6.219   8.415  0.1935 -0.6847  2.1135
  649MOL0     H89539   0.583   6.387   8.459  1.1704  0.7219 -1.0847
  649MOL0     H89540   0.496   6.300   8.180 -3.1321  2.4102  0.6455
  649MOL0     H89541   0.669   6.333   8.222 -0.1787  1.3411 -1.2677
  649MOL0     H89542  -0.117   6.856   8.902 -1.9955  3.0728  1.2422
  649MOL0     H89543  -0.203   6.933   9.122 -0.8302 -1.2433 -0.0071
  649MOL0     H89544  -0.341   6.925   9.423 -2.4015 -0.0207  0.1866
  649MOL0     H89545  -0.524   6.887   9.592  0.8064 -0.5485 -0.4438
  649MOL0     H89546   1.244   6.168   9.505  2.2430 -1.0918  0.1532
  649MOL0     H89547   1.349   6.027   9.317  0.5016 -5.2935 -0.0444
  649MOL0     H89548   1.265   5.873   8.825 -0.4332  0.6280  2.8760
  649MOL0     H89549   1.395   5.732   8.647  2.7306 -0.6699 -0.5560
  649MOL0     H89550   1.697   5.443   8.779 -0.0959 -1.1975 -0.6905
  649MOL0     H89551   1.538   5.358   8.770 -1.8149  0.8492 -2.0963
  649MOL0     H89552   1.579   5.333   8.519  0.1978 -1.8161  0.9268
  649MOL0     H89553   1.681   5.236   8.615  2.7442 -0.4614 -0.3106
  649MOL0     H89554   1.748   5.511   8.479 -0.0496 -0.9741 -2.7276
  649MOL0     H89555   1.856   5.445   8.592  0.5006  2.2290 -1.5710
  649MOL0     H89556   1.758   5.331   8.328 -0.5034  0.4766  0.5130
  649MOL0     H89557   1.870   5.243   8.443  0.9440  0.4925  1.1500
  649MOL0     H89558   2.092   5.501   8.177 -1.8229 -1.6648 -1.5628
  649MOL0     H89559   1.533   5.480   8.949  0.8137  0.3861 -0.7549
  649MOL0     H89560   1.289   5.569   9.194  1.0400 -1.5641 -0.6217
  649MOL0     H89561   1.409   5.452   9.159 -2.4934 -0.8054 -1.5265
  649MOL0     H89562   1.455   5.621   9.200  1.0690 -2.4748  1.9841
  650MOL0     O89563   1.589   1.603   1.414  0.4714  1.0888  0.4228
  650MOL0     C89564   1.464   1.610   1.391  0.4631  0.0494  0.3037
  650MOL0     O89565   1.380   1.512   1.385 -0.3032 -0.3772 -0.4249
  650MOL0     C89566   1.420   1.386   1.443  0.5892  0.0930  0.2816
  650MOL0     C89567   1.515   1.361   1.547  0.1818  0.2834 -0.0818
  650MOL0     C89568   1.538   1.229   1.592 -0.4149  0.4267  0.0966
  650MOL0     C89569   1.469   1.123   1.549 -0.2501 -0.1009 -0.4731
  650MOL0     O89570   1.502   0.994   1.595  0.5218 -0.7752  0.1832
  650MOL0     C89571   1.470   0.875   1.519 -0.1913  1.0336 -0.3556
  650MOL0     C89572   1.531   0.749   1.580 -0.1807  0.2426 -0.2244
  650MOL0     C89573   1.676   0.745   1.540 -0.2404 -0.5577 -0.5966
  650MOL0     C89574   1.763   0.635   1.610  0.4814 -0.0477 -0.4131
  650MOL0     C89575   1.918   0.646   1.579 -0.9200 -0.5198 -1.0015
  650MOL0     C89576   1.993   0.528   1.650  0.0525 -0.2525  0.2185
  650MOL0     C89577   2.139   0.517   1.610  0.9437  0.3142 -0.8219
  650MOL0     C89578   2.234   0.597   1.694  0.4986  0.2152 -0.2680
  650MOL0     N89579   2.382   0.580   1.661  0.8352  0.4761  0.7168
  650MOL0     C89580   2.454   0.472   1.710 -0.4533  0.1883  0.1608
  650MOL0     C89581   2.572   0.479   1.655 -0.9673  0.3607  0.4005
  650MOL0     C89582   2.697   0.394   1.688  0.1626 -0.4316  0.7126
  650MOL0     C89583   2.768   0.428   1.823  0.1958 -0.1233  0.9347
  650MOL0     C89584   2.873   0.540   1.811  0.8949 -0.8840  0.5849
  650MOL0     C89585   2.958   0.580   1.928  0.4017  0.1709 -0.3388
  650MOL0     O89586   3.022   0.710   1.911  0.2171 -0.2316  0.1299
  650MOL0     C89587   3.117   0.739   2.007 -0.3873  0.3948 -0.4779
  650MOL0     C89588   3.197   0.645   2.071  0.2499  0.1601  0.1841
  650MOL0     C89589   3.283   0.676   2.173 -0.9804  0.3397 -0.0691
  650MOL0     C89590   3.358   0.560   2.250  0.2619  0.6551  0.4963
  650MOL0     C89591   3.298   0.812   2.211 -0.1832  0.5633 -0.6306
  650MOL0     C89592   3.394   0.859   2.309  0.5286 -0.4439 -1.4683
  650MOL0     O89593   3.379   0.996   2.337  0.4928  0.4178 -0.3220
  650MOL0     C89594   3.414   1.045   2.463  0.0931  1.0004 -0.4339
  650MOL0     C89595   3.394   0.975   2.584 -0.2579 -0.0457  0.5186
  650MOL0     C89596   3.424   1.034   2.700  1.1162 -0.1857  0.2652
  650MOL0     C89597   3.457   1.165   2.704 -0.3450  0.3938  0.1342
  650MOL0     O89598   3.466   1.210   2.837  0.8109  0.1991  0.5304
  650MOL0     C89599   3.372   1.309   2.875  0.0128  0.7930 -0.3327
  650MOL0     C89600   3.230   1.262   2.878 -0.4790 -0.5479 -0.2301
  650MOL0     C89601   3.122   1.362   2.934 -0.4769  0.7352  0.0044
  650MOL0     C89602   2.988   1.292   2.958  0.6102 -0.5061  0.2584
  650MOL0     C89603   2.885   1.396   3.001 -0.4776  0.0474  0.1498
  650MOL0     C89604   2.744   1.340   2.997 -0.5247 -1.1617  0.4614
  650MOL0     C89605   2.641   1.457   3.002 -0.4645 -0.5057  0.1186
  650MOL0     C89606   2.501   1.414   3.050 -0.0951 -0.2430 -0.5064
  650MOL0    Cl89607   2.387   1.444   2.907  0.0080 -0.7704 -0.2233
  650MOL0     C89608   3.473   1.240   2.586 -0.9058 -0.8126  0.0494
  650MOL0     C89609   3.453   1.176   2.462 -1.2683 -0.4082 -0.5086
  650MOL0     O89610   3.476   0.791   2.361 -0.3765  0.4109 -0.2518
  650MOL0     C89611   3.216   0.903   2.143 -0.2335 -0.1514  0.0839
  650MOL0     C89612   3.126   0.868   2.046 -0.2180 -0.3053  0.0737
  650MOL0     N89613   2.573   0.585   1.571  0.6512 -0.0038  0.1115
  650MOL0     N89614   2.460   0.651   1.579 -0.7854 -0.0689 -0.3331
  650MOL0     C89615   1.363   1.155   1.456  0.2231  0.3018  0.8698
  650MOL0     C89616   1.342   1.285   1.402 -1.1612  0.4830 -0.6144
  650MOL0     C89617   1.412   1.751   1.375  0.7142  0.2865 -0.1127
  650MOL0     C89618   1.461   1.854   1.452  0.0668  0.8241  0.5504
  650MOL0     C89619   1.423   1.983   1.441 -0.4894 -0.6501  0.1512
  650MOL0     C89620   1.330   2.017   1.348  0.5259  0.3157 -0.0694
  650MOL0     O89621   1.282   2.143   1.326 -0.0965  0.5166 -0.3786
  650MOL0     C89622   1.291   2.247   1.426  0.2041  0.9438 -0.5981
  650MOL0     C89623   1.301   2.369   1.337  0.3466  0.3505 -0.8951
  650MOL0     C89624   1.167   2.432   1.313 -0.2862  0.6549 -1.1511
  650MOL0     C89625   1.179   2.551   1.228  0.1423 -1.0156 -0.5787
  650MOL0     C89626   1.193   2.669   1.307 -0.5335 -0.2918  0.1401
  650MOL0     C89627   1.191   2.762   1.385 -0.2832  0.2578 -0.2985
  650MOL0     C89628   1.271   1.918   1.275 -0.6184 -0.6521  0.4435
  650MOL0     C89629   1.310   1.786   1.287 -0.7766 -0.2920 -0.6509
  650MOL0     C89630   1.239   1.685   1.202  0.3454  0.1676 -0.1832
  650MOL0     H89631   1.561   1.450   1.590 -2.0326  1.3828  0.1698
  650MOL0     H89632   1.629   1.214   1.650  0.4460  2.6843 -0.5466
  650MOL0     H89633   1.511   0.878   1.418 -2.6724  0.0328 -1.4777
  650MOL0     H89634   1.362   0.865   1.507  0.2289 -1.7078 -3.2775
  650MOL0     H89635   1.501   0.755   1.685 -0.0971  3.0915 -0.2667
  650MOL0     H89636   1.489   0.654   1.545 -0.0979  0.2455 -0.3349
  650MOL0     H89637   1.677   0.735   1.431  3.0913  0.2613 -0.7674
  650MOL0     H89638   1.734   0.836   1.558 -3.5134  1.7833 -1.0831
  650MOL0     H89639   1.731   0.627   1.715 -2.0718  1.8327 -0.9352
  650MOL0     H89640   1.727   0.551   1.550 -2.2260  0.8253 -0.1383
  650MOL0     H89641   1.955   0.742   1.616 -1.6973 -0.4038 -0.4942
  650MOL0     H89642   1.933   0.635   1.471 -0.4152  2.4224 -1.3205
  650MOL0     H89643   1.984   0.563   1.753 -1.5305  0.6805 -0.1950
  650MOL0     H89644   1.940   0.435   1.628  1.7408 -1.5282  1.2872
  650MOL0     H89645   2.143   0.571   1.515 -2.3036  3.3646  0.5524
  650MOL0     H89646   2.164   0.411   1.597 -1.7230 -0.3423 -1.3262
  650MOL0     H89647   2.217   0.704   1.680 -1.1248  0.2715  1.6455
  650MOL0     H89648   2.226   0.564   1.798 -0.3933  0.7690 -0.1511
  650MOL0     H89649   2.428   0.391   1.777  1.3216 -0.0242  0.6520
  650MOL0     H89650   2.772   0.403   1.609  1.9184 -0.9585  2.2643
  650MOL0     H89651   2.652   0.294   1.700 -0.4136 -0.0115  2.2153
  650MOL0     H89652   2.683   0.450   1.888 -0.2580  0.7628  0.0769
  650MOL0     H89653   2.813   0.337   1.865 -0.2781 -1.7797 -1.8767
  650MOL0     H89654   2.948   0.522   1.733 -0.0527  1.8143 -1.0935
  650MOL0     H89655   2.811   0.629   1.791 -0.2121 -1.9493 -0.9380
  650MOL0     H89656   2.879   0.585   2.003 -0.0609  2.2368 -0.9216
  650MOL0     H89657   3.026   0.493   1.928  2.8770  1.9516  1.2876
  650MOL0     H89658   3.207   0.545   2.029  0.8285  1.1029 -2.0981
  650MOL0     H89659   3.464   0.585   2.254 -0.1306  2.5991 -0.1350
  650MOL0     H89660   3.342   0.466   2.196 -0.0079  1.5938 -1.1287
  650MOL0     H89661   3.307   0.550   2.347 -0.7584  1.1159  0.0258
  650MOL0     H89662   3.355   0.874   2.580  1.1837 -0.9210  4.5037
  650MOL0     H89663   3.416   0.974   2.790 -1.6006 -0.6142 -0.1979
  650MOL0     H89664   3.393   1.342   2.978 -0.6387 -1.7635  0.7162
  650MOL0     H89665   3.380   1.393   2.806  1.6177  0.7996 -0.1872
  650MOL0     H89666   3.200   1.228   2.778  0.0457 -0.4106 -0.4364
  650MOL0     H89667   3.236   1.182   2.953 -3.7167  1.4213  2.4134
  650MOL0     H89668   3.119   1.444   2.862  1.2897  0.7260 -0.1337
  650MOL0     H89669   3.169   1.405   3.023  1.7172 -0.1996 -0.6248
  650MOL0     H89670   2.985   1.218   3.038 -3.6588 -1.0090 -0.1408
  650MOL0     H89671   2.963   1.244   2.863 -2.3596 -1.3174  1.3309
  650MOL0     H89672   2.897   1.416   3.108 -0.8971  2.2468 -0.1519
  650MOL0     H89673   2.888   1.485   2.936 -0.0176 -1.6728 -2.3391
  650MOL0     H89674   2.731   1.282   3.089  2.4134 -3.7889 -0.5724
  650MOL0     H89675   2.730   1.281   2.906  1.2952  1.4957 -1.6955
  650MOL0     H89676   2.637   1.495   2.899  1.7689  0.3200  0.2815
  650MOL0     H89677   2.684   1.536   3.064  1.5044  0.0609 -1.8253
  650MOL0     H89678   2.476   1.461   3.146  1.2535 -2.0104  0.7760
  650MOL0     H89679   2.485   1.310   3.080 -0.9152 -0.3050 -1.1268
  650MOL0     H89680   3.507   1.343   2.596  1.4176 -1.5057  0.0490
  650MOL0     H89681   3.456   1.216   2.362  0.4961  0.8678  0.0012
  650MOL0     H89682   3.220   1.010   2.159  0.4383 -0.0311 -0.8033
  650MOL0     H89683   3.058   0.941   2.004  2.1848  0.7795 -2.3003
  650MOL0     H89684   1.299   1.071   1.430  0.6555 -0.8402  3.1904
  650MOL0     H89685   1.265   1.310   1.330  0.2980  1.7095 -1.8524
  650MOL0     H89686   1.546   1.834   1.516  0.9093  0.9490 -0.5028
  650MOL0     H89687   1.469   2.060   1.501 -2.5220 -0.8263  2.0525
  650MOL0     H89688   1.208   2.249   1.497 -0.1128  2.8997 -0.9686
  650MOL0     H89689   1.386   2.240   1.481  0.2353 -1.6426 -0.8390
  650MOL0     H89690   1.356   2.348   1.245 -0.9518 -1.2169 -1.3695
  650MOL0     H89691   1.348   2.443   1.401  0.2031 -0.4499  0.1538
  650MOL0     H89692   1.102   2.362   1.259  0.1059 -0.8669  0.2360
  650MOL0     H89693   1.125   2.461   1.410 -1.6992  2.8725 -2.3405
  650MOL0     H89694   1.083   2.562   1.177 -2.3048  0.2390  3.8650
  650MOL0     H89695   1.267   2.548   1.162 -0.9129  2.3609 -2.3687
  650MOL0     H89696   1.190   2.860   1.430  2.2041 -0.2526  1.0151
  650MOL0     H89697   1.197   1.930   1.196  0.3489  0.8394 -0.2809
  650MOL0     H89698   1.151   1.648   1.257 -1.1970  2.8785 -0.6158
  650MOL0     H89699   1.215   1.738   1.110  2.5921 -2.0838 -2.2009
  650MOL0     H89700   1.303   1.602   1.173  0.1681 -0.1460  0.3016
  651MOL0     O89701   5.073   3.249   6.490  0.2031 -0.3032  0.6382
  651MOL0     C89702   4.989   3.340   6.500 -0.2806  1.0696 -0.7727
  651MOL0     O89703   4.887   3.373   6.404 -1.0835 -0.3978  0.4540
  651MOL0     C89704   4.896   3.277   6.299  0.5219 -0.7229  0.4330
  651MOL0     C89705   4.977   3.288   6.191 -0.6009  0.0148  1.5552
  651MOL0     C89706   4.963   3.204   6.081 -0.2026  0.5092  0.0041
  651MOL0     C89707   4.865   3.108   6.076 -0.2065 -0.1828 -0.4803
  651MOL0     O89708   4.857   3.034   5.954 -0.1395 -0.1195  0.0516
  651MOL0     C89709   4.730   2.980   5.917 -0.4183  0.5394 -0.5887
  651MOL0     C89710   4.698   2.943   5.770  0.4634 -0.3380 -0.0938
  651MOL0     C89711   4.752   2.802   5.737 -0.3940  0.2509 -0.1192
  651MOL0     C89712   4.769   2.780   5.584 -0.2009  0.1732 -0.0205
  651MOL0     C89713   4.790   2.629   5.544  0.2452  0.0579  0.6876
  651MOL0     C89714   4.885   2.540   5.619 -0.1169  0.4476 -0.2734
  651MOL0     C89715   4.873   2.397   5.573  0.2809  0.3311 -0.1594
  651MOL0     C89716   4.946   2.294   5.659  0.1964  0.1468  0.2326
  651MOL0     N89717   4.878   2.275   5.785  0.3306 -0.0848 -0.9664
  651MOL0     C89718   4.770   2.189   5.818  0.0573  0.7844 -0.0130
  651MOL0     C89719   4.775   2.194   5.955 -0.8025  0.5925 -0.4564
  651MOL0     C89720   4.689   2.119   6.047 -0.0257 -0.8126  0.4002
  651MOL0     C89721   4.549   2.166   6.018  0.0349 -0.3752 -0.9381
  651MOL0     C89722   4.448   2.120   6.126 -0.5044  0.7242  0.2205
  651MOL0     C89723   4.304   2.163   6.103  0.3778  0.1589 -1.1870
  651MOL0     O89724   4.275   2.306   6.074  0.3135  0.0078 -0.0032
  651MOL0     C89725   4.149   2.343   6.094  0.2989  0.1647  0.5284
  651MOL0     C89726   4.128   2.476   6.076  0.2900 -0.2375 -0.6789
  651MOL0     C89727   4.012   2.540   6.114  0.1255 -0.4812  0.5131
  651MOL0     C89728   4.016   2.689   6.115  0.7497 -0.6155 -0.1564
  651MOL0     C89729   3.896   2.462   6.151  0.8184 -1.5474  0.0615
  651MOL0     C89730   3.754   2.526   6.141  0.1312  0.6103  0.9039
  651MOL0     O89731   3.663   2.432   6.093  0.6874  0.9960  0.7409
  651MOL0     C89732   3.532   2.470   6.079 -0.7252  0.5457 -0.3438
  651MOL0     C89733   3.486   2.529   5.957  0.0134  0.2898 -0.3141
  651MOL0     C89734   3.356   2.559   5.939 -0.2688  0.3128 -0.2197
  651MOL0     C89735   3.263   2.525   6.036  1.1681  0.8621 -0.3167
  651MOL0     O89736   3.126   2.538   6.037 -0.0651  0.3315  0.0677
  651MOL0     C89737   3.074   2.528   5.904  0.6279  0.1005 -0.2693
  651MOL0     C89738   2.930   2.513   5.928  0.1187  0.5186 -1.0490
  651MOL0     C89739   2.866   2.486   5.792  0.0301  0.4671  1.1044
  651MOL0     C89740   2.862   2.331   5.770 -1.8336 -0.4948  0.2175
  651MOL0     C89741   2.802   2.287   5.632 -0.4970  0.4873  0.0166
  651MOL0     C89742   2.817   2.138   5.606 -0.9224  0.2013 -0.8592
  651MOL0     C89743   2.802   2.098   5.453 -0.4173  0.2613  0.6310
  651MOL0     C89744   2.870   1.968   5.433  0.2966  0.5053 -0.6538
  651MOL0    Cl89745   2.772   1.830   5.501 -0.4785 -0.1979  0.1207
  651MOL0     C89746   3.304   2.456   6.150 -0.6225  0.9057 -0.2335
  651MOL0     C89747   3.438   2.431   6.172  1.1983  0.4716  0.1253
  651MOL0     O89748   3.735   2.641   6.179  0.5412  0.0029  0.2018
  651MOL0     C89749   3.914   2.326   6.160 -0.3445 -0.3838 -0.0169
  651MOL0     C89750   4.037   2.268   6.138  0.8115 -0.8411  0.8482
  651MOL0     N89751   4.877   2.281   6.000  0.3423 -0.9252  0.3828
  651MOL0     N89752   4.932   2.334   5.892 -0.0073 -0.2527 -0.4734
  651MOL0     C89753   4.770   3.097   6.175 -0.1036 -1.2466  0.1453
  651MOL0     C89754   4.794   3.180   6.288 -0.2144  0.5696  0.0367
  651MOL0     C89755   4.983   3.424   6.623 -1.0005  0.4001  0.1283
  651MOL0     C89756   4.852   3.477   6.656 -0.7975 -1.4269  0.3101
  651MOL0     C89757   4.831   3.543   6.769 -0.7172 -0.1281  1.0790
  651MOL0     C89758   4.934   3.561   6.865  0.0100  0.1931  0.6934
  651MOL0     O89759   4.916   3.632   6.985  0.2911  0.1150  0.4813
  651MOL0     C89760   4.780   3.679   7.012 -0.1569  0.4496 -0.7066
  651MOL0     C89761   4.782   3.781   7.118 -0.2131 -0.5334 -0.1331
  651MOL0     C89762   4.851   3.733   7.251  0.8683  0.9786 -0.4511
  651MOL0     C89763   4.873   3.860   7.354 -1.4767  1.0347 -0.1964
  651MOL0     C89764   4.746   3.912   7.395  0.3324 -0.7778 -0.1684
  651MOL0     C89765   4.643   3.964   7.440 -0.1251 -0.1101  0.4166
  651MOL0     C89766   5.057   3.505   6.839 -0.1903 -0.1684 -0.3812
  651MOL0     C89767   5.090   3.435   6.717 -0.2504 -0.0080  0.2508
  651MOL0     C89768   5.233   3.388   6.694  0.3046  0.6873  0.5744
  651MOL0     H89769   5.047   3.370   6.206 -2.1989  1.2108  2.8603
  651MOL0     H89770   5.019   3.224   5.990 -0.4522  1.6489  0.0827
  651MOL0     H89771   4.655   3.055   5.944  0.0850  1.2161 -1.0442
  651MOL0     H89772   4.701   2.889   5.971 -0.1949 -1.1410 -3.1086
  651MOL0     H89773   4.590   2.943   5.754  0.5633  1.6432 -1.0913
  651MOL0     H89774   4.742   3.012   5.696  1.3217 -0.6923  0.0726
  651MOL0     H89775   4.845   2.781   5.791 -2.4971 -2.8662  2.6831
  651MOL0     H89776   4.682   2.725   5.770  2.4564 -2.7330 -0.4678
  651MOL0     H89777   4.674   2.804   5.535 -0.9663 -1.1668  0.7411
  651MOL0     H89778   4.836   2.855   5.542 -1.4426  1.1785 -0.2942
  651MOL0     H89779   4.829   2.621   5.442  1.7196 -1.0765  1.3061
  651MOL0     H89780   4.692   2.580   5.542 -0.5954  1.6395 -1.4825
  651MOL0     H89781   4.983   2.585   5.599  0.0089  1.3116  1.9781
  651MOL0     H89782   4.871   2.546   5.727  0.8045 -0.0890 -0.1092
  651MOL0     H89783   4.925   2.383   5.478 -3.5607  1.2141 -2.6163
  651MOL0     H89784   4.767   2.369   5.578 -0.0510  1.7006  2.9278
  651MOL0     H89785   4.945   2.201   5.601  2.6854 -0.9612  1.7834
  651MOL0     H89786   5.052   2.317   5.674  1.2962 -2.2222 -2.8352
  651MOL0     H89787   4.690   2.141   5.764 -0.4102 -1.5463  2.5507
  651MOL0     H89788   4.734   2.136   6.145  3.3700 -0.6488 -1.0359
  651MOL0     H89789   4.701   2.012   6.024 -2.0547 -1.1812  0.8568
  651MOL0     H89790   4.552   2.275   6.019  2.6320 -0.2046  3.7935
  651MOL0     H89791   4.535   2.126   5.917  0.5192 -1.9920 -0.4020
  651MOL0     H89792   4.440   2.011   6.123 -0.1410  0.6588  1.3083
  651MOL0     H89793   4.489   2.155   6.221  1.0461 -0.2526 -0.0519
  651MOL0     H89794   4.253   2.109   6.023 -3.4081  0.5116  0.7691
  651MOL0     H89795   4.257   2.136   6.197 -0.6200  0.7171 -1.5143
  651MOL0     H89796   4.206   2.540   6.037  0.2794  0.6537  0.7053
  651MOL0     H89797   3.981   2.742   6.204  0.4770  3.2723 -2.3572
  651MOL0     H89798   3.962   2.741   6.036 -2.2580  1.5359  2.9952
  651MOL0     H89799   4.119   2.727   6.111  0.3382  0.6109  0.2378
  651MOL0     H89800   3.551   2.571   5.881 -3.3969  2.6627 -2.2160
  651MOL0     H89801   3.323   2.589   5.841 -1.3420 -1.9790 -0.6076
  651MOL0     H89802   3.097   2.624   5.858 -1.4073  0.3037 -0.9466
  651MOL0     H89803   3.113   2.442   5.848 -0.8066 -2.2414  2.0442
  651MOL0     H89804   2.922   2.420   5.986  0.7585  1.7113  1.0766
  651MOL0     H89805   2.887   2.595   5.986  1.1140  0.3315 -0.0002
  651MOL0     H89806   2.926   2.533   5.713  1.3882 -1.5382  0.8482
  651MOL0     H89807   2.767   2.531   5.789  0.7221  2.0384 -0.7392
  651MOL0     H89808   2.806   2.287   5.853 -2.4452 -1.3840 -0.6547
  651MOL0     H89809   2.963   2.293   5.790 -1.1146  1.6918  1.0808
  651MOL0     H89810   2.694   2.300   5.623 -0.7025 -0.1673  1.2282
  651MOL0     H89811   2.833   2.346   5.546 -0.5822  0.6658  0.1080
  651MOL0     H89812   2.753   2.073   5.667 -0.5524 -1.5430 -2.2577
  651MOL0     H89813   2.916   2.116   5.646 -1.3705  0.2877  0.3702
  651MOL0     H89814   2.849   2.158   5.374 -0.7990 -1.4464 -0.9805
  651MOL0     H89815   2.697   2.083   5.424  0.1282  0.4606 -1.6894
  651MOL0     H89816   2.971   1.968   5.475 -1.1793 -2.1717  3.5771
  651MOL0     H89817   2.876   1.962   5.324  0.0336 -0.0232 -0.6431
  651MOL0     H89818   3.221   2.422   6.211 -1.8829  0.5800 -2.0457
  651MOL0     H89819   3.467   2.388   6.268 -0.1722  2.8202  1.6847
  651MOL0     H89820   3.833   2.266   6.200 -0.9120  0.4293  0.0858
  651MOL0     H89821   4.032   2.161   6.158 -0.8375 -0.7952  0.8460
  651MOL0     H89822   4.694   3.019   6.174  1.6628 -3.0985 -2.2763
  651MOL0     H89823   4.724   3.184   6.371 -0.4607  1.5277 -0.2070
  651MOL0     H89824   4.766   3.476   6.590 -2.3604  0.0523  2.1912
  651MOL0     H89825   4.732   3.587   6.773 -0.7352  0.2131 -1.5192
  651MOL0     H89826   4.727   3.719   6.925 -1.0806 -1.1768 -0.9293
  651MOL0     H89827   4.721   3.598   7.056 -0.9660  0.2068 -2.1630
  651MOL0     H89828   4.684   3.827   7.132  0.6359  0.5266  3.4086
  651MOL0     H89829   4.847   3.862   7.083 -0.8147 -0.5712 -1.3828
  651MOL0     H89830   4.786   3.660   7.300  0.2314  2.0691  0.3791
  651MOL0     H89831   4.947   3.688   7.225  0.2074 -2.5707  2.5074
  651MOL0     H89832   4.938   3.933   7.304  0.9835  0.6913  2.2505
  651MOL0     H89833   4.937   3.819   7.433 -2.6456 -0.9559 -0.2152
  651MOL0     H89834   4.548   4.010   7.460  1.2941  3.2190  0.1446
  651MOL0     H89835   5.139   3.521   6.909 -0.9975 -0.4601  0.6612
  651MOL0     H89836   5.281   3.423   6.785 -1.2934 -1.3354  2.2883
  651MOL0     H89837   5.250   3.280   6.695  0.6915  0.6902 -1.1641
  651MOL0     H89838   5.277   3.434   6.605 -1.4141 -0.4256 -0.9148
  652MOL0     O89839   2.589   3.756   4.855  0.4010 -0.4772  0.2780
  652MOL0     C89840   2.698   3.806   4.817  0.7353 -0.4108 -0.1016
  652MOL0     O89841   2.778   3.896   4.888 -0.2283  0.0776 -0.2167
  652MOL0     C89842   2.742   3.916   5.017  0.6442  0.3064 -0.1466
  652MOL0     C89843   2.694   4.038   5.064 -0.1878 -0.5370  0.8145
  652MOL0     C89844   2.655   4.065   5.193  0.6805 -0.0424 -0.2131
  652MOL0     C89845   2.651   3.959   5.286  0.1678 -0.8080 -0.1210
  652MOL0     O89846   2.607   3.988   5.408 -0.1483 -1.1960  0.0966
  652MOL0     C89847   2.507   3.897   5.463  0.4841 -0.5283 -0.1535
  652MOL0     C89848   2.532   3.871   5.607  0.0078 -0.3529  0.1892
  652MOL0     C89849   2.641   3.774   5.639 -0.1126  0.5291 -0.6023
  652MOL0     C89850   2.613   3.706   5.783 -1.1822  0.6856 -0.5674
  652MOL0     C89851   2.734   3.603   5.807  0.4874  0.2510 -0.4099
  652MOL0     C89852   2.723   3.530   5.942 -0.1269 -0.0102  0.2723
  652MOL0     C89853   2.832   3.426   5.971  0.4692  0.8328 -0.4149
  652MOL0     C89854   2.813   3.366   6.111  0.6849 -0.0368  0.1832
  652MOL0     N89855   2.784   3.470   6.215 -0.2268  0.5568 -0.7588
  652MOL0     C89856   2.880   3.543   6.272  0.1572  0.5666 -0.0569
  652MOL0     C89857   2.814   3.637   6.347 -0.4747 -0.0108  0.9667
  652MOL0     C89858   2.879   3.736   6.443  0.2894 -0.1309  0.2012
  652MOL0     C89859   2.803   3.703   6.575  0.2421 -0.5862 -0.4817
  652MOL0     C89860   2.843   3.808   6.684 -0.6668 -0.0979 -0.0264
  652MOL0     C89861   2.774   3.804   6.824  0.5265 -0.2820 -1.1518
  652MOL0     O89862   2.631   3.818   6.807 -0.0548 -0.2965  0.4876
  652MOL0     C89863   2.536   3.805   6.903  0.4555  1.5441 -0.7358
  652MOL0     C89864   2.405   3.845   6.869 -0.3862 -0.6279 -0.1485
  652MOL0     C89865   2.294   3.813   6.951  0.8345  0.4706 -0.1774
  652MOL0     C89866   2.165   3.865   6.888 -0.8770  0.3456  0.7015
  652MOL0     C89867   2.326   3.744   7.079  0.7528  0.5322  0.2882
  652MOL0     C89868   2.218   3.735   7.183  0.5275 -0.2545 -0.2628
  652MOL0     O89869   2.091   3.772   7.151 -0.1210  0.0406 -0.0890
  652MOL0     C89870   2.000   3.762   7.253 -0.3776 -0.1135  0.0330
  652MOL0     C89871   2.006   3.846   7.356 -0.4876 -0.0806  0.5580
  652MOL0     C89872   1.908   3.857   7.450  0.5832  0.2918 -0.3001
  652MOL0     C89873   1.796   3.763   7.441  0.0342  1.0082 -0.2754
  652MOL0     O89874   1.680   3.765   7.515  0.3858  0.8009 -0.4337
  652MOL0     C89875   1.692   3.734   7.657 -0.2921  0.1344 -0.1418
  652MOL0     C89876   1.558   3.716   7.722  1.1736 -0.5996 -0.4468
  652MOL0     C89877   1.485   3.593   7.672  0.0851  0.3274 -0.1205
  652MOL0     C89878   1.357   3.566   7.760 -0.1090  1.3644  0.0132
  652MOL0     C89879   1.286   3.454   7.675 -0.0007 -0.4524 -0.7833
  652MOL0     C89880   1.156   3.419   7.740  1.0574 -0.1151  0.1613
  652MOL0     C89881   1.070   3.333   7.641 -0.5092  0.1964  0.1412
  652MOL0     C89882   0.923   3.340   7.676 -0.0483  0.5878 -0.2007
  652MOL0    Cl89883   0.880   3.279   7.839  0.1081  0.0260 -0.3822
  652MOL0     C89884   1.792   3.676   7.327 -0.6730  0.5438  0.6945
  652MOL0     C89885   1.899   3.674   7.232  0.4778 -0.5134 -0.3533
  652MOL0     O89886   2.254   3.698   7.289  0.2847  0.4885  0.4485
  652MOL0     C89887   2.449   3.697   7.098 -0.4464  0.0308 -0.5494
  652MOL0     C89888   2.555   3.715   7.011  0.6741 -0.4237  0.5609
  652MOL0     N89889   2.682   3.622   6.313 -0.1752  0.5026 -0.8188
  652MOL0     N89890   2.663   3.512   6.246  0.2935 -1.1041 -0.1576
  652MOL0     C89891   2.710   3.835   5.244 -0.8445  0.3881 -0.1003
  652MOL0     C89892   2.756   3.812   5.111 -0.8735  0.9966 -0.1342
  652MOL0     C89893   2.723   3.783   4.669 -0.4967 -0.4857  0.1322
  652MOL0     C89894   2.786   3.894   4.604  0.8198 -0.1476  0.2714
  652MOL0     C89895   2.809   3.892   4.467 -0.3014 -0.0690 -1.0607
  652MOL0     C89896   2.767   3.788   4.386  0.5531  0.0974  0.0066
  652MOL0     O89897   2.768   3.771   4.255  0.3378 -1.1441 -0.3282
  652MOL0     C89898   2.844   3.879   4.182 -0.0669 -0.3736  0.4488
  652MOL0     C89899   2.842   3.865   4.036  0.9602 -0.1016  0.1860
  652MOL0     C89900   2.896   3.723   3.979 -0.4511  0.5276 -0.0468
  652MOL0     C89901   3.006   3.727   3.869  0.5842 -0.1782 -0.1413
  652MOL0     C89902   3.121   3.783   3.923 -0.5473  0.4817 -0.4362
  652MOL0     C89903   3.221   3.805   3.991 -0.3279  0.2049  0.8845
  652MOL0     C89904   2.701   3.679   4.446  0.6478 -0.5654  0.6113
  652MOL0     C89905   2.676   3.672   4.587 -0.7504 -0.8299  0.3713
  652MOL0     C89906   2.597   3.554   4.634  0.1060 -0.3422 -1.0239
  652MOL0     H89907   2.690   4.113   4.986 -1.5439 -1.6530 -0.2164
  652MOL0     H89908   2.604   4.157   5.219  3.6737  1.2834  1.5473
  652MOL0     H89909   2.503   3.802   5.408 -2.7875 -0.3746 -0.3863
  652MOL0     H89910   2.412   3.951   5.458  1.5980  1.6714  0.7707
  652MOL0     H89911   2.535   3.968   5.657 -0.0487  0.1683 -0.8098
  652MOL0     H89912   2.441   3.820   5.639 -1.9579  2.7445 -0.0930
  652MOL0     H89913   2.635   3.697   5.561 -3.2581 -0.3824  0.3826
  652MOL0     H89914   2.737   3.826   5.638 -0.6344  1.7032  1.8579
  652MOL0     H89915   2.622   3.772   5.871 -0.6777 -1.1401  0.8042
  652MOL0     H89916   2.517   3.654   5.773 -1.4496  0.1467  3.2836
  652MOL0     H89917   2.833   3.647   5.801  0.1407  0.9441 -1.1766
  652MOL0     H89918   2.735   3.530   5.725  1.9626  2.7114 -2.7172
  652MOL0     H89919   2.720   3.610   6.016 -1.3703 -2.1189  2.6410
  652MOL0     H89920   2.625   3.481   5.947 -1.2904  1.8413 -1.9918
  652MOL0     H89921   2.929   3.478   5.975  0.1907  1.2728  1.6759
  652MOL0     H89922   2.844   3.347   5.896 -0.9227  0.4515 -0.2460
  652MOL0     H89923   2.722   3.305   6.108  0.4655  0.1916  1.5806
  652MOL0     H89924   2.897   3.301   6.139  1.3796  0.8390  0.1594
  652MOL0     H89925   2.986   3.524   6.271  0.2768  1.0324  1.4003
  652MOL0     H89926   2.850   3.839   6.421 -4.1311 -0.8112  1.7774
  652MOL0     H89927   2.984   3.707   6.452  1.4397  3.9392  2.8294
  652MOL0     H89928   2.696   3.723   6.571  0.4689  1.4727  1.5384
  652MOL0     H89929   2.820   3.600   6.607  2.3710 -0.7407 -1.9113
  652MOL0     H89930   2.951   3.794   6.700 -0.7201  1.1175  1.7197
  652MOL0     H89931   2.838   3.910   6.644  1.7117  0.6392  1.3359
  652MOL0     H89932   2.799   3.710   6.874  0.6177 -1.3417 -3.1001
  652MOL0     H89933   2.821   3.881   6.886  2.0574 -0.6474 -1.8162
  652MOL0     H89934   2.398   3.917   6.789  0.0884 -2.1519 -1.6301
  652MOL0     H89935   2.142   3.966   6.924  1.0242  1.2136 -0.3423
  652MOL0     H89936   2.086   3.795   6.916 -0.9172 -0.4707 -1.2755
  652MOL0     H89937   2.181   3.883   6.781 -0.4639  1.0471  0.8738
  652MOL0     H89938   2.085   3.921   7.354  0.2631 -0.6788  3.3863
  652MOL0     H89939   1.918   3.917   7.539 -0.2921 -1.0763  0.7661
  652MOL0     H89940   1.756   3.648   7.678 -1.4811 -1.5192 -2.8675
  652MOL0     H89941   1.737   3.825   7.698  0.2720 -0.1709 -0.0716
  652MOL0     H89942   1.576   3.704   7.830 -3.3491  0.8010  0.6845
  652MOL0     H89943   1.496   3.805   7.715  1.8939  0.3546  3.0288
  652MOL0     H89944   1.559   3.514   7.692 -0.8913 -0.4706  0.4678
  652MOL0     H89945   1.460   3.609   7.567 -0.9882 -2.4571 -0.3955
  652MOL0     H89946   1.306   3.660   7.786 -0.3777  0.5025  2.9519
  652MOL0     H89947   1.388   3.519   7.853 -0.3721  2.6348  0.7715
  652MOL0     H89948   1.273   3.491   7.573  0.2761  0.8113 -0.3786
  652MOL0     H89949   1.350   3.366   7.680  1.9204  0.9412 -0.0703
  652MOL0     H89950   1.092   3.502   7.771 -2.0861 -2.6449  1.1752
  652MOL0     H89951   1.185   3.357   7.825  5.5488 -0.3413 -1.3072
  652MOL0     H89952   1.106   3.229   7.640 -2.0091 -0.4117  1.9787
  652MOL0     H89953   1.074   3.370   7.539 -0.0747 -0.4337 -0.0768
  652MOL0     H89954   0.858   3.295   7.600  0.3811 -1.4827  0.6065
  652MOL0     H89955   0.898   3.446   7.660 -1.6720  0.1643 -0.7005
  652MOL0     H89956   1.706   3.616   7.298  0.4434 -0.7458 -0.0880
  652MOL0     H89957   1.898   3.608   7.146 -1.7145 -4.7575  2.5908
  652MOL0     H89958   2.467   3.640   7.188 -1.2394  0.9430  0.2068
  652MOL0     H89959   2.642   3.654   7.034  1.5830 -0.3215 -2.2848
  652MOL0     H89960   2.718   3.754   5.316  2.5662  0.3611 -0.3301
  652MOL0     H89961   2.807   3.720   5.082  1.3670  0.6797  4.0098
  652MOL0     H89962   2.809   3.975   4.672  0.7391  0.9839 -0.9980
  652MOL0     H89963   2.876   3.967   4.427 -0.7539 -0.5904 -2.9315
  652MOL0     H89964   2.812   3.979   4.214  1.1330 -0.0016  0.5349
  652MOL0     H89965   2.950   3.872   4.210 -0.7355  0.9127  3.8297
  652MOL0     H89966   2.895   3.954   3.999  0.1294 -0.4167 -1.9122
  652MOL0     H89967   2.740   3.891   4.004  0.9264  0.8496  1.0019
  652MOL0     H89968   2.942   3.663   4.058  0.5262  0.9434 -0.2938
  652MOL0     H89969   2.811   3.668   3.938  1.1018  0.3981 -3.4094
  652MOL0     H89970   2.965   3.783   3.784  2.9308  0.1710 -1.1194
  652MOL0     H89971   3.031   3.632   3.820  0.2238  0.3785 -1.4414
  652MOL0     H89972   3.308   3.830   4.048 -0.4015  0.6648  0.8052
  652MOL0     H89973   2.674   3.600   4.376  0.6742  0.0597 -0.1214
  652MOL0     H89974   2.490   3.569   4.622 -0.2241 -0.1170  1.7542
  652MOL0     H89975   2.620   3.463   4.576  0.4853 -0.2866 -0.9674
  652MOL0     H89976   2.629   3.533   4.736  0.0816  0.4186 -0.8572
  653MOL0     O89977   6.542   9.570   0.956  0.2405 -0.4510  0.3346
  653MOL0     C89978   6.658   9.582   0.985 -0.5723 -0.2558  0.3364
  653MOL0     O89979   6.716   9.620   1.107 -0.2590  0.5503  0.6249
  653MOL0     C89980   6.631   9.660   1.202  1.8479  1.0929  0.4344
  653MOL0     C89981   6.665   9.776   1.266  0.2492 -0.1763 -0.9122
  653MOL0     C89982   6.590   9.826   1.369 -0.6433  0.4272  0.4727
  653MOL0     C89983   6.478   9.771   1.416  0.9122  0.8260 -0.5316
  653MOL0     O89984   6.398   9.806   1.525 -0.1310  0.6202 -0.5667
  653MOL0     C89985   6.461   9.827   1.655  0.1818  0.4608  0.6772
  653MOL0     C89986   6.361   9.762   1.761 -0.1860 -0.4614  1.0539
  653MOL0     C89987   6.428   9.743   1.895  0.2369  0.0490  0.5670
  653MOL0     C89988   6.320   9.717   2.004  0.5580 -0.4249  0.0205
  653MOL0     C89989   6.377   9.733   2.141 -0.5915  1.6898  0.5777
  653MOL0     C89990   6.413   9.879   2.179  0.2338 -0.0583  0.0002
  653MOL0     C89991   6.287   9.952   2.243 -0.8299  0.7484  0.0237
  653MOL0     C89992   6.293  10.032   2.370 -0.1400  0.0547  0.2921
  653MOL0     N89993   6.401  10.136   2.375 -0.0820 -0.3626 -0.9680
  653MOL0     C89994   6.536  10.113   2.376 -0.6567 -0.0594  0.2828
  653MOL0     C89995   6.592  10.232   2.390 -0.4266  1.2889  0.5823
  653MOL0     C89996   6.746  10.264   2.402  0.4988 -0.6866  0.3064
  653MOL0     C89997   6.810  10.299   2.276 -0.0513  0.3729 -0.1454
  653MOL0     C89998   6.952  10.356   2.301 -0.0972 -0.4109  0.5019
  653MOL0     C89999   7.058  10.272   2.371  0.8138 -0.4247 -0.0655
  653MOL0     O90000   7.078  10.150   2.303 -0.0203  0.2766 -0.5863
  653MOL0     C90001   7.131  10.037   2.368  0.1471 -0.5893  0.4639
  653MOL0     C90002   7.125   9.907   2.314 -0.6371  0.1759  0.2078
  653MOL0     C90003   7.199   9.797   2.373  0.1712  1.0788 -0.0929
  653MOL0     C90004   7.191   9.656   2.305 -0.9916 -0.0607  0.0002
  653MOL0     C90005   7.279   9.831   2.483 -0.2220  0.4950 -0.3931
  653MOL0     C90006   7.372   9.736   2.529 -0.6858  0.1431  0.1824
  653MOL0     O90007   7.371   9.720   2.663  0.1540  0.0097  0.7260
  653MOL0     C90008   7.461   9.646   2.728  0.3813  0.3337  1.3183
  653MOL0     C90009   7.456   9.502   2.709 -0.9213 -0.0962  0.7668
  653MOL0     C90010   7.531   9.419   2.791  0.7166 -0.6413 -0.6928
  653MOL0     C90011   7.622   9.467   2.883 -0.2630  0.0573 -0.2613
  653MOL0     O90012   7.705   9.382   2.955  0.2190  0.0936  0.5069
  653MOL0     C90013   7.840   9.416   2.952 -0.4277 -0.3504 -0.2476
  653MOL0     C90014   7.945   9.302   2.969  0.1813  0.0040  0.5793
  653MOL0     C90015   7.975   9.251   2.828  0.2817  0.5048 -1.2695
  653MOL0     C90016   7.956   9.093   2.826 -0.0140 -1.1379 -0.3818
  653MOL0     C90017   8.056   9.017   2.901  0.0481  0.1071  1.0124
  653MOL0     C90018   8.202   9.041   2.861 -0.5920  0.1011 -0.4262
  653MOL0     C90019   8.301   8.939   2.920 -0.3061 -0.1152  0.5800
  653MOL0     C90020   8.440   8.976   2.890 -0.1548  0.0898 -0.1467
  653MOL0    Cl90021   8.532   8.842   2.977  0.0086 -0.0136 -0.1070
  653MOL0     C90022   7.617   9.613   2.906 -1.1616 -0.4422 -0.0000
  653MOL0     C90023   7.546   9.702   2.820  0.1648  1.0325  0.1192
  653MOL0     O90024   7.442   9.674   2.449 -0.0621 -0.1949  0.3792
  653MOL0     C90025   7.286   9.957   2.527 -0.0941 -0.7889 -1.0270
  653MOL0     C90026   7.207  10.060   2.478 -0.6531 -0.8722 -0.5247
  653MOL0     N90027   6.490  10.324   2.405 -0.6164 -0.0624 -0.5108
  653MOL0     N90028   6.380  10.266   2.387  0.7886 -0.3540 -0.1114
  653MOL0     C90029   6.425   9.656   1.343  0.4559 -0.2627 -0.5459
  653MOL0     C90030   6.504   9.604   1.238 -0.6274  0.1440  0.1355
  653MOL0     C90031   6.756   9.545   0.879  0.2974 -0.2763 -0.4676
  653MOL0     C90032   6.884   9.583   0.894  0.6131 -0.5598  0.8146
  653MOL0     C90033   6.979   9.551   0.809  0.5919  0.3719  0.5145
  653MOL0     C90034   6.957   9.464   0.708 -0.1594 -1.6337 -0.2864
  653MOL0     O90035   7.061   9.430   0.622 -0.2770  0.3393  0.2239
  653MOL0     C90036   7.066   9.293   0.581  0.5954 -0.0959  0.5072
  653MOL0     C90037   7.208   9.247   0.550 -0.0810 -0.2283 -0.2615
  653MOL0     C90038   7.278   9.210   0.681  0.3584 -0.2850 -0.8180
  653MOL0     C90039   7.401   9.133   0.647  0.3848  0.0410  0.4214
  653MOL0     C90040   7.479   9.113   0.772 -0.1899 -0.2937  0.1631
  653MOL0     C90041   7.543   9.120   0.876 -0.2051 -1.0094  1.0927
  653MOL0     C90042   6.825   9.423   0.677 -0.1317 -0.1828 -0.4667
  653MOL0     C90043   6.727   9.467   0.766 -0.7433 -0.1753  0.2484
  653MOL0     C90044   6.584   9.402   0.734 -0.5282 -0.0643 -0.1350
  653MOL0     H90045   6.752   9.833   1.237 -1.3217  1.8811 -1.7777
  653MOL0     H90046   6.630   9.920   1.404  1.0685  0.5327 -1.5473
  653MOL0     H90047   6.488   9.932   1.668 -0.8541  1.2287 -2.5257
  653MOL0     H90048   6.549   9.764   1.644 -0.5743 -0.3452 -1.0932
  653MOL0     H90049   6.267   9.818   1.769 -2.0000 -3.3011  1.0623
  653MOL0     H90050   6.331   9.662   1.727  2.1043 -1.5967  2.1573
  653MOL0     H90051   6.500   9.660   1.896 -0.7451 -0.8670 -1.0915
  653MOL0     H90052   6.490   9.832   1.912  0.5762  0.0773 -0.7524
  653MOL0     H90053   6.236   9.785   1.986 -0.9243 -2.2853 -0.4325
  653MOL0     H90054   6.283   9.616   1.988 -0.4893 -0.4027  1.9566
  653MOL0     H90055   6.475   9.684   2.150 -1.6446 -0.7489 -0.3583
  653MOL0     H90056   6.309   9.693   2.216  1.0614  0.5147  1.5194
  653MOL0     H90057   6.489   9.881   2.257 -0.2158 -0.6617  0.4579
  653MOL0     H90058   6.453   9.939   2.096 -2.2267  0.8280 -0.6469
  653MOL0     H90059   6.202   9.885   2.260 -3.5960  3.6523 -1.3587
  653MOL0     H90060   6.250  10.011   2.158  1.6011  0.7734 -1.1086
  653MOL0     H90061   6.197  10.082   2.385 -0.9725 -1.8960  1.9438
  653MOL0     H90062   6.322   9.964   2.451 -1.3910 -3.1601 -1.7952
  653MOL0     H90063   6.587  10.021   2.350  0.9632  0.7475  0.4520
  653MOL0     H90064   6.792  10.179   2.453 -1.0380  0.4164  3.9078
  653MOL0     H90065   6.755  10.345   2.475  3.0055  0.0676 -0.7260
  653MOL0     H90066   6.816  10.212   2.210  1.6568 -2.7728  3.7770
  653MOL0     H90067   6.746  10.367   2.220 -0.7864  0.1546  0.4229
  653MOL0     H90068   6.985  10.384   2.201  3.5438  0.6217  1.8349
  653MOL0     H90069   6.944  10.450   2.357  1.7786 -0.4393  0.8805
  653MOL0     H90070   7.149  10.331   2.359  1.8759 -1.1726  3.3231
  653MOL0     H90071   7.030  10.259   2.476  2.5597 -0.1402  0.4567
  653MOL0     H90072   7.080   9.886   2.218  2.3212 -2.2783 -0.8150
  653MOL0     H90073   7.089   9.640   2.269 -1.1184 -0.3574  0.4785
  653MOL0     H90074   7.230   9.579   2.372  1.2871  1.6389  0.7728
  653MOL0     H90075   7.254   9.646   2.217 -1.3285  1.0710 -0.3825
  653MOL0     H90076   7.387   9.465   2.634  0.1336 -2.6643  0.9536
  653MOL0     H90077   7.532   9.312   2.772  3.1828 -0.2741 -3.3837
  653MOL0     H90078   7.867   9.478   2.866  0.4232 -0.5973 -0.1647
  653MOL0     H90079   7.843   9.493   3.030  0.2999 -0.1191 -0.4962
  653MOL0     H90080   8.042   9.335   3.006  1.0914  0.8690 -2.3248
  653MOL0     H90081   7.910   9.223   3.036  0.1597 -0.6593 -0.1926
  653MOL0     H90082   8.075   9.282   2.799  0.8787  0.9468  1.0549
  653MOL0     H90083   7.906   9.299   2.758  0.2054  1.4960 -0.5304
  653MOL0     H90084   7.953   9.070   2.719 -1.5945 -1.1016 -0.3759
  653MOL0     H90085   7.855   9.078   2.865  0.0496  2.8928  1.8079
  653MOL0     H90086   8.039   9.050   3.004 -1.3322  2.2984  0.1392
  653MOL0     H90087   8.046   8.908   2.896  3.2658 -0.3177  1.4552
  653MOL0     H90088   8.225   9.142   2.897  4.6629 -0.9039 -0.1365
  653MOL0     H90089   8.213   9.024   2.754 -1.9880 -2.9190 -0.1785
  653MOL0     H90090   8.282   8.855   2.852 -0.1453 -0.5353  1.0512
  653MOL0     H90091   8.284   8.892   3.017 -0.8353  0.3214  0.7047
  653MOL0     H90092   8.461   9.077   2.927 -0.2790  1.1008 -2.6370
  653MOL0     H90093   8.469   8.979   2.785 -3.0620 -2.0283 -1.1319
  653MOL0     H90094   7.667   9.662   2.988 -1.0997  1.4299 -1.1146
  653MOL0     H90095   7.548   9.810   2.818 -1.1562  1.0825  0.4823
  653MOL0     H90096   7.365   9.982   2.597  0.8704 -3.6418 -0.9861
  653MOL0     H90097   7.209  10.156   2.527  1.0500 -1.6400  1.0596
  653MOL0     H90098   6.332   9.605   1.367  0.8767 -0.3862  0.8966
  653MOL0     H90099   6.466   9.515   1.188 -0.4806 -0.3903  0.9601
  653MOL0     H90100   6.914   9.648   0.975  1.7994  0.0496 -0.0821
  653MOL0     H90101   7.079   9.584   0.834  0.8808  2.3134 -2.6068
  653MOL0     H90102   7.023   9.233   0.662  1.3128 -1.6126 -0.1990
  653MOL0     H90103   6.998   9.265   0.500  2.4869  1.8915 -1.9362
  653MOL0     H90104   7.260   9.327   0.496  1.1606  1.7578  3.4959
  653MOL0     H90105   7.204   9.156   0.490  2.6204  0.1766 -1.1863
  653MOL0     H90106   7.302   9.303   0.733 -1.3421  0.6371 -1.5945
  653MOL0     H90107   7.207   9.153   0.741  1.0076  0.7928  1.0315
  653MOL0     H90108   7.461   9.200   0.584 -0.2893  1.3020  1.0962
  653MOL0     H90109   7.382   9.034   0.604  4.4140 -2.4460  3.6378
  653MOL0     H90110   7.589   9.158   0.965  1.8591 -2.5228  0.7602
  653MOL0     H90111   6.790   9.350   0.604 -0.3630 -1.7107  1.1089
  653MOL0     H90112   6.504   9.472   0.710 -1.0692 -1.0517 -1.2745
  653MOL0     H90113   6.589   9.330   0.652 -2.1286 -2.1851  1.5164
  653MOL0     H90114   6.562   9.349   0.827 -1.3437 -0.0317 -0.3061
  654MOL0     O90115   8.639  11.016   1.348 -0.6511 -0.7221 -0.2840
  654MOL0     C90116   8.707  10.968   1.433 -0.8154 -0.1080  1.2625
  654MOL0     O90117   8.675  10.967   1.565  0.6881  0.0501 -0.4775
  654MOL0     C90118   8.571  11.042   1.618 -0.1612  0.2093  0.6389
  654MOL0     C90119   8.586  11.180   1.631  1.5121  0.0347  0.3686
  654MOL0     C90120   8.501  11.261   1.699  0.4055  0.2895 -0.2842
  654MOL0     C90121   8.377  11.208   1.741  0.0367 -0.4608 -0.4421
  654MOL0     O90122   8.285  11.301   1.785  0.3742  0.7327  0.2012
  654MOL0     C90123   8.142  11.287   1.765 -0.5303 -0.3159 -0.1060
  654MOL0     C90124   8.066  11.406   1.831 -0.0602 -0.4416 -0.6074
  654MOL0     C90125   7.925  11.432   1.789 -1.2979  0.3021  0.3093
  654MOL0     C90126   7.840  11.521   1.880  0.3019  0.8231  0.1963
  654MOL0     C90127   7.800  11.479   2.021 -1.0406  0.5468 -0.5148
  654MOL0     C90128   7.687  11.375   2.034 -1.0942  0.1780  1.5128
  654MOL0     C90129   7.649  11.370   2.180  0.4050  0.1646 -0.4156
  654MOL0     C90130   7.717  11.258   2.252  0.0059 -0.5390 -0.3436
  654MOL0     N90131   7.660  11.229   2.376 -0.7074  0.3537  0.2898
  654MOL0     C90132   7.635  11.329   2.470  0.9823  0.0970  0.2631
  654MOL0     C90133   7.556  11.257   2.566 -0.3472 -0.6100  0.4337
  654MOL0     C90134   7.486  11.328   2.682 -0.0347  0.2202  0.0793
  654MOL0     C90135   7.564  11.447   2.734  0.6483 -0.4598  0.1239
  654MOL0     C90136   7.472  11.530   2.826 -0.3176 -0.9156 -0.1160
  654MOL0     C90137   7.541  11.664   2.852 -0.6478  0.4738  0.0056
  654MOL0     O90138   7.665  11.638   2.928 -0.0240 -0.5117 -0.5806
  654MOL0     C90139   7.663  11.609   3.060  0.4055 -0.4974  0.5486
  654MOL0     C90140   7.548  11.611   3.140 -0.7410 -0.5228 -0.6675
  654MOL0     C90141   7.551  11.565   3.277 -0.4424  0.0904 -0.2736
  654MOL0     C90142   7.435  11.584   3.366  0.6859 -0.5175 -0.3626
  654MOL0     C90143   7.668  11.510   3.323 -0.6809 -0.6662 -0.5515
  654MOL0     C90144   7.688  11.453   3.457  0.4169  0.4057 -0.4041
  654MOL0     O90145   7.816  11.449   3.502 -0.3266  0.7345  0.1194
  654MOL0     C90146   7.838  11.445   3.639 -0.7880 -0.3190  0.1202
  654MOL0     C90147   7.955  11.383   3.684  1.5086  0.5268  0.8260
  654MOL0     C90148   7.979  11.379   3.820  0.3911  0.1644 -0.0857
  654MOL0     C90149   7.886  11.437   3.914 -0.9320  0.2122 -0.5066
  654MOL0     O90150   7.910  11.431   4.057 -0.4253  0.2556  0.7539
  654MOL0     C90151   8.037  11.391   4.112  0.9783  0.5419  0.5475
  654MOL0     C90152   8.024  11.242   4.123 -0.4730 -0.1104 -0.1436
  654MOL0     C90153   8.156  11.172   4.137 -0.0358 -0.8363  0.8610
  654MOL0     C90154   8.255  11.255   4.220 -0.1390 -0.3298 -0.2265
  654MOL0     C90155   8.379  11.158   4.260  0.0530 -0.0614  0.3447
  654MOL0     C90156   8.487  11.242   4.346  0.1021 -1.0882  0.5865
  654MOL0     C90157   8.614  11.168   4.379 -1.4779  0.1722  0.7679
  654MOL0     C90158   8.707  11.131   4.247 -0.3488  0.0955  0.2322
  654MOL0    Cl90159   8.770  11.286   4.177  0.2555 -0.0483  0.2774
  654MOL0     C90160   7.779  11.505   3.863 -0.0538  0.2161  0.3184
  654MOL0     C90161   7.750  11.503   3.725  0.2244 -0.1698 -0.7415
  654MOL0     O90162   7.597  11.382   3.499 -0.0278  0.8239 -0.4864
  654MOL0     C90163   7.786  11.516   3.237  0.2779 -1.3967  0.5675
  654MOL0     C90164   7.780  11.564   3.111 -0.3313 -0.9649 -0.1205
  654MOL0     N90165   7.551  11.125   2.526 -0.0977  0.0955 -0.4192
  654MOL0     N90166   7.605  11.110   2.415  0.8234  0.7584  0.3764
  654MOL0     C90167   8.351  11.073   1.719 -0.3733  0.7725 -0.8817
  654MOL0     C90168   8.456  10.984   1.669  0.3370  0.0438 -1.0189
  654MOL0     C90169   8.841  10.908   1.412 -0.5697 -0.1236 -0.6890
  654MOL0     C90170   8.910  10.861   1.529  0.6835 -0.4443 -0.4701
  654MOL0     C90171   9.043  10.820   1.533  0.2605  0.5950 -0.6767
  654MOL0     C90172   9.108  10.811   1.415  0.5182 -1.5920  0.9780
  654MOL0     O90173   9.243  10.808   1.432 -0.0286 -0.0840 -0.3190
  654MOL0     C90174   9.317  10.726   1.344 -0.3193 -1.0253 -0.1651
  654MOL0     C90175   9.423  10.821   1.280 -0.1580  0.5670 -0.4086
  654MOL0     C90176   9.528  10.742   1.200 -0.3907 -0.6038 -0.1748
  654MOL0     C90177   9.634  10.827   1.133 -0.4412  0.0666  0.3416
  654MOL0     C90178   9.769  10.807   1.169  0.8440 -0.7292 -0.6623
  654MOL0     C90179   9.888  10.809   1.181  0.1289  0.4200  0.0404
  654MOL0     C90180   9.041  10.830   1.293 -0.2712  0.4404  0.0508
  654MOL0     C90181   8.910  10.890   1.288  0.1736 -0.0981  1.0393
  654MOL0     C90182   8.855  10.942   1.157  0.1652  0.2240  0.4496
  654MOL0     H90183   8.677  11.218   1.586  1.6875 -2.8253 -2.0085
  654MOL0     H90184   8.516  11.368   1.707 -0.6040  0.3836  0.6932
  654MOL0     H90185   8.107  11.187   1.794 -4.1561  0.2564 -1.8963
  654MOL0     H90186   8.130  11.301   1.657 -0.5495 -0.2753 -0.0985
  654MOL0     H90187   8.062  11.396   1.940 -0.1329 -0.4048 -0.6069
  654MOL0     H90188   8.121  11.499   1.816 -0.5565  0.1003  0.7534
  654MOL0     H90189   7.927  11.473   1.688 -1.2269  1.2777  0.6915
  654MOL0     H90190   7.880  11.332   1.794  1.9976 -1.2356  2.6333
  654MOL0     H90191   7.892  11.617   1.878  0.3759  0.7760 -0.1138
  654MOL0     H90192   7.746  11.541   1.826 -0.6393 -0.9033  1.1064
  654MOL0     H90193   7.787  11.567   2.084  1.0706  1.4218 -1.1791
  654MOL0     H90194   7.886  11.420   2.056 -3.0020 -2.7541 -0.8284
  654MOL0     H90195   7.602  11.412   1.976  0.1196 -1.4974 -1.6200
  654MOL0     H90196   7.720  11.278   1.996 -1.2302  0.0964  1.6018
  654MOL0     H90197   7.541  11.351   2.177  0.6371 -1.1493 -2.7285
  654MOL0     H90198   7.663  11.465   2.233 -4.8260 -0.7024  3.3506
  654MOL0     H90199   7.708  11.174   2.182 -2.0658  0.2444 -1.0975
  654MOL0     H90200   7.817  11.301   2.261 -1.0424  1.8212  0.7027
  654MOL0     H90201   7.649  11.436   2.457 -1.0056  0.4268  0.5064
  654MOL0     H90202   7.486  11.256   2.765  2.0977 -0.1803 -0.1986
  654MOL0     H90203   7.383  11.351   2.654  0.5263  2.5404 -0.2785
  654MOL0     H90204   7.642  11.401   2.796  3.1934  4.2040  0.7939
  654MOL0     H90205   7.605  11.507   2.653 -2.3239  2.0734  0.3071
  654MOL0     H90206   7.367  11.550   2.802 -1.2380 -1.8420  2.7726
  654MOL0     H90207   7.474  11.478   2.922 -0.0908  0.2304  0.5223
  654MOL0     H90208   7.582  11.714   2.764  0.2316 -1.1745 -0.5903
  654MOL0     H90209   7.463  11.725   2.897 -2.2537 -1.8183  0.5431
  654MOL0     H90210   7.456  11.646   3.094 -0.2563 -1.7344 -2.6824
  654MOL0     H90211   7.473  11.625   3.461  1.6808  2.0324 -1.7587
  654MOL0     H90212   7.394  11.484   3.386  2.7493 -1.7044 -1.7378
  654MOL0     H90213   7.379  11.657   3.308 -0.8938 -0.1634  1.5267
  654MOL0     H90214   8.028  11.338   3.618  0.5298 -3.3136  2.1232
  654MOL0     H90215   8.064  11.324   3.859 -1.2435 -1.6783  1.0699
  654MOL0     H90216   8.116  11.418   4.041 -0.3095  1.7568 -0.4983
  654MOL0     H90217   8.058  11.442   4.206  0.1595  0.7112  0.6499
  654MOL0     H90218   7.969  11.216   4.214  2.8140 -0.5937  1.8761
  654MOL0     H90219   7.970  11.200   4.038  0.7808  0.4258 -1.2536
  654MOL0     H90220   8.206  11.151   4.042  1.0555 -0.4627  1.3413
  654MOL0     H90221   8.142  11.078   4.191  1.1354 -0.1047  2.4951
  654MOL0     H90222   8.204  11.294   4.309 -1.3086  2.5467 -2.0139
  654MOL0     H90223   8.288  11.345   4.168 -2.0377  3.4362  4.3392
  654MOL0     H90224   8.346  11.064   4.306 -1.8476 -0.6124 -1.9125
  654MOL0     H90225   8.430  11.129   4.168 -0.8852  0.4491 -0.3569
  654MOL0     H90226   8.431  11.262   4.438  0.0806  0.3356  0.2785
  654MOL0     H90227   8.506  11.339   4.300 -0.6080 -1.1443  0.1627
  654MOL0     H90228   8.582  11.071   4.418 -0.8015 -0.7431 -0.8245
  654MOL0     H90229   8.681  11.234   4.435 -0.1838 -0.3846 -0.0665
  654MOL0     H90230   8.642  11.074   4.181  0.4632  1.2588 -1.6378
  654MOL0     H90231   8.781  11.057   4.281  0.7029  0.8748 -0.3060
  654MOL0     H90232   7.720  11.560   3.936  0.5458 -0.7664  1.5990
  654MOL0     H90233   7.673  11.578   3.707 -0.8536 -0.7658  1.0879
  654MOL0     H90234   7.886  11.479   3.258  0.9868 -0.5936 -1.1522
  654MOL0     H90235   7.859  11.552   3.037 -1.6053  1.9622 -2.1561
  654MOL0     H90236   8.252  11.039   1.751  0.4699  1.5464  3.1151
  654MOL0     H90237   8.451  10.877   1.650  0.5568 -0.2031  0.2000
  654MOL0     H90238   8.864  10.856   1.627 -0.2655 -0.0086 -0.8727
  654MOL0     H90239   9.088  10.809   1.631  3.1390  1.9742 -1.7068
  654MOL0     H90240   9.371  10.642   1.389 -1.4141 -2.1691 -0.9348
  654MOL0     H90241   9.256  10.668   1.274 -2.2718 -1.0651  1.4749
  654MOL0     H90242   9.482  10.877   1.354  0.9709  0.2749 -1.0647
  654MOL0     H90243   9.379  10.899   1.217  0.4316  2.3343  1.2488
  654MOL0     H90244   9.582  10.680   1.272  1.9560  2.4712  0.9433
  654MOL0     H90245   9.467  10.687   1.128  0.2583 -0.4447 -0.8704
  654MOL0     H90246   9.623  10.934   1.156  1.0885  0.1976  0.6039
  654MOL0     H90247   9.643  10.814   1.025  1.7936  0.6639  0.4129
  654MOL0     H90248   9.994  10.796   1.175 -0.1852 -2.1753 -1.5789
  654MOL0     H90249   9.083  10.824   1.193  1.2001 -0.3661  0.6840
  654MOL0     H90250   8.750  10.912   1.148  0.3611  0.1359 -2.2971
  654MOL0     H90251   8.871  11.050   1.157 -3.1338  0.8004  0.0475
  654MOL0     H90252   8.905  10.902   1.069 -2.0881  1.0885 -1.3090
  655MOL0     O90253   5.718   2.453   0.182  0.1883 -0.0564  0.4085
  655MOL0     C90254   5.651   2.518   0.265  0.4681 -0.6196 -0.6697
  655MOL0     O90255   5.562   2.478   0.354 -0.5356  0.4102  0.7481
  655MOL0     C90256   5.522   2.350   0.324  0.0178 -0.0821  0.3694
  655MOL0     C90257   5.389   2.336   0.274  0.4786  0.7276 -0.5337
  655MOL0     C90258   5.342   2.212   0.229 -0.3751 -0.2404 -0.6852
  655MOL0     C90259   5.421   2.095   0.244  0.3269  0.3858 -0.4531
  655MOL0     O90260   5.362   1.975   0.225  0.1020 -0.4494  0.5764
  655MOL0     C90261   5.441   1.867   0.194 -0.1551  0.9244 -0.1436
  655MOL0     C90262   5.367   1.777   0.095 -0.2647 -0.1369 -0.2398
  655MOL0     C90263   5.459   1.679   0.030 -0.3908 -0.4799  0.2927
  655MOL0     C90264   5.407   1.625  -0.106  1.1338 -0.2580  0.9421
  655MOL0     C90265   5.287   1.530  -0.077 -0.6716 -0.3602  0.2975
  655MOL0     C90266   5.198   1.504  -0.195  1.2235 -0.4495  0.4249
  655MOL0     C90267   5.082   1.410  -0.159 -0.0256 -0.6901  0.1916
  655MOL0     C90268   5.068   1.299  -0.270  1.4130 -0.5195 -0.1968
  655MOL0     N90269   5.181   1.207  -0.273 -0.9015 -0.1440 -0.2856
  655MOL0     C90270   5.216   1.118  -0.170  0.2461 -0.0203  0.8400
  655MOL0     C90271   5.330   1.060  -0.209  0.1234 -0.5562  0.2605
  655MOL0     C90272   5.413   0.946  -0.144  0.3340 -0.4971  0.5652
  655MOL0     C90273   5.540   1.009  -0.081  0.2360  0.1853 -0.1125
  655MOL0     C90274   5.510   1.069   0.057 -0.1788  0.0630 -0.0891
  655MOL0     C90275   5.634   1.130   0.132 -0.1833 -0.1227 -0.1905
  655MOL0     O90276   5.747   1.040   0.151  0.3211 -0.5858  0.2640
  655MOL0     C90277   5.868   1.097   0.163  0.2350 -0.2677  0.3537
  655MOL0     C90278   5.962   1.089   0.057  0.7148  0.0120 -0.8615
  655MOL0     C90279   6.090   1.142   0.067  0.6370  0.3473 -0.0328
  655MOL0     C90280   6.197   1.116  -0.046  0.1786  0.7127 -0.4624
  655MOL0     C90281   6.118   1.219   0.183  0.9698  0.3649 -0.8753
  655MOL0     C90282   6.243   1.287   0.213 -0.7354  0.8383  1.0888
  655MOL0     O90283   6.235   1.415   0.261 -0.5475 -0.1811  0.1597
  655MOL0     C90284   6.354   1.492   0.292  0.5745 -0.1296 -0.7881
  655MOL0     C90285   6.414   1.490   0.421  0.1537 -0.3540 -0.0729
  655MOL0     C90286   6.525   1.559   0.436 -0.0646  0.3323 -0.4802
  655MOL0     C90287   6.574   1.641   0.336  0.6208 -0.2378  0.0740
  655MOL0     O90288   6.687   1.706   0.371  0.0150  1.4180  0.2647
  655MOL0     C90289   6.794   1.700   0.275 -0.3996  0.8716  0.2138
  655MOL0     C90290   6.923   1.727   0.349  0.0831 -0.3702  0.4687
  655MOL0     C90291   6.953   1.599   0.432 -0.5815 -0.1061 -0.3367
  655MOL0     C90292   7.075   1.627   0.520 -0.2724  0.1509  0.2553
  655MOL0     C90293   7.091   1.503   0.608 -0.1620  0.0938 -0.5161
  655MOL0     C90294   7.199   1.519   0.721  0.5063  0.1663  0.6646
  655MOL0     C90295   7.211   1.393   0.819  1.2158 -0.0944  0.0113
  655MOL0     C90296   7.117   1.398   0.936 -0.1797 -0.6151  0.0047
  655MOL0    Cl90297   7.120   1.235   1.009  0.3361 -0.1373 -0.1874
  655MOL0     C90298   6.513   1.658   0.208  0.0862  0.3743 -0.2831
  655MOL0     C90299   6.401   1.575   0.189  0.8466  0.0567 -0.4303
  655MOL0     O90300   6.351   1.228   0.199 -0.4697  0.0099  0.6357
  655MOL0     C90301   6.028   1.230   0.287 -0.8202  0.3937 -0.3378
  655MOL0     C90302   5.907   1.167   0.278 -0.5097 -0.2053 -0.1627
  655MOL0     N90303   5.369   1.109  -0.335  0.2392 -1.3923 -0.4003
  655MOL0     N90304   5.281   1.201  -0.371  0.0183 -0.5396  0.3715
  655MOL0     C90305   5.552   2.105   0.307 -0.5710  0.5937  0.0185
  655MOL0     C90306   5.596   2.231   0.342 -0.0131  0.2832  0.4492
  655MOL0     C90307   5.688   2.657   0.253  0.8515  0.1770 -0.4369
  655MOL0     C90308   5.606   2.733   0.169  0.4175  0.9484 -0.1877
  655MOL0     C90309   5.633   2.878   0.166 -1.1707  0.0455 -0.2850
  655MOL0     C90310   5.756   2.926   0.219  0.2439  0.6713  0.4019
  655MOL0     O90311   5.788   3.061   0.225 -0.0876  0.1401  0.1422
  655MOL0     C90312   5.772   3.146   0.111  0.5747  0.4420  0.6534
  655MOL0     C90313   5.850   3.112  -0.017 -1.4002  0.2081 -0.5932
  655MOL0     C90314   6.000   3.125   0.001 -0.2427 -0.3792 -0.3708
  655MOL0     C90315   6.078   3.014   0.072  0.3732 -0.7484  0.1178
  655MOL0     C90316   6.217   3.066   0.098 -0.0755 -0.5929 -0.4147
  655MOL0     C90317   6.332   3.102   0.135 -0.4941  0.1898 -0.0523
  655MOL0     C90318   5.833   2.847   0.303  0.7098 -0.8162 -0.0226
  655MOL0     C90319   5.799   2.708   0.316  0.3441 -0.4376 -0.0720
  655MOL0     C90320   5.885   2.624   0.395  0.5732 -0.0895  0.7942
  655MOL0     H90321   5.322   2.421   0.275  0.1276  0.4673 -1.2385
  655MOL0     H90322   5.248   2.203   0.176 -1.0196  1.2774  0.1360
  655MOL0     H90323   5.464   1.800   0.278  0.3293 -0.6297 -1.4523
  655MOL0     H90324   5.538   1.897   0.153 -0.0790  0.2740 -0.4602
  655MOL0     H90325   5.286   1.721   0.143  1.0819 -2.0054 -0.0387
  655MOL0     H90326   5.321   1.838   0.017  2.0498 -2.1835 -3.4653
  655MOL0     H90327   5.545   1.736  -0.005 -0.0502 -1.4707 -0.5316
  655MOL0     H90328   5.477   1.598   0.102 -1.5761 -0.3912  0.7244
  655MOL0     H90329   5.382   1.702  -0.180 -0.8362 -2.1543 -0.4738
  655MOL0     H90330   5.489   1.567  -0.150 -0.7688 -1.7278 -0.8559
  655MOL0     H90331   5.222   1.564   0.004 -0.2109  1.8455 -0.1937
  655MOL0     H90332   5.335   1.439  -0.040 -3.8217 -1.9459  0.7352
  655MOL0     H90333   5.154   1.597  -0.232  0.6737 -0.7794  0.2391
  655MOL0     H90334   5.259   1.470  -0.278 -1.3867  1.6968 -2.6185
  655MOL0     H90335   4.991   1.469  -0.170 -0.8138 -2.1377 -1.7570
  655MOL0     H90336   5.071   1.373  -0.057 -2.1128 -0.7283 -0.0076
  655MOL0     H90337   4.983   1.234  -0.248  1.9760 -0.3313  3.1782
  655MOL0     H90338   5.060   1.350  -0.366 -0.2971 -0.8924 -0.2738
  655MOL0     H90339   5.166   1.107  -0.074 -0.1146 -0.8801  0.5592
  655MOL0     H90340   5.443   0.867  -0.214 -0.2104 -2.4013  2.3872
  655MOL0     H90341   5.349   0.887  -0.078 -0.1483 -3.0715 -1.9856
  655MOL0     H90342   5.611   0.928  -0.060  1.6183  1.3230 -0.2235
  655MOL0     H90343   5.597   1.082  -0.140 -2.5763  0.0712 -3.2410
  655MOL0     H90344   5.440   1.153   0.053  1.7869  1.9086  1.4308
  655MOL0     H90345   5.469   0.989   0.119  2.0333 -1.0796 -0.0197
  655MOL0     H90346   5.663   1.223   0.083  0.5638 -1.3241 -2.1527
  655MOL0     H90347   5.601   1.151   0.234  0.7312  0.3356  0.0219
  655MOL0     H90348   5.954   1.029  -0.034  1.0832  2.2537 -2.4587
  655MOL0     H90349   6.172   1.042  -0.123 -2.1596 -0.4893  1.3373
  655MOL0     H90350   6.284   1.069  -0.000 -2.0336 -3.6628 -0.2177
  655MOL0     H90351   6.227   1.207  -0.098 -2.0021  1.5267 -0.3982
  655MOL0     H90352   6.383   1.430   0.506  1.6286 -0.5529  0.3481
  655MOL0     H90353   6.586   1.552   0.525  1.2921 -0.9170 -1.4463
  655MOL0     H90354   6.803   1.609   0.216 -0.5927 -0.3400  1.9582
  655MOL0     H90355   6.783   1.787   0.210 -0.9012  1.4169  0.9956
  655MOL0     H90356   6.998   1.753   0.274 -0.3146 -0.0188  0.1862
  655MOL0     H90357   6.918   1.813   0.415 -0.3407  0.6324 -0.8243
  655MOL0     H90358   6.970   1.509   0.372 -0.5600  1.7897 -3.3928
  655MOL0     H90359   6.862   1.572   0.486 -1.4869 -1.6051 -2.4466
  655MOL0     H90360   7.062   1.712   0.587  2.2076  1.5255 -0.9008
  655MOL0     H90361   7.164   1.657   0.464 -0.1885  1.5332  1.0912
  655MOL0     H90362   6.993   1.479   0.650 -0.0090 -1.3748 -0.9193
  655MOL0     H90363   7.126   1.420   0.546 -3.2387 -0.9460 -1.0412
  655MOL0     H90364   7.181   1.608   0.782  1.0976  0.7676 -0.0197
  655MOL0     H90365   7.292   1.533   0.666 -1.2700 -2.3149 -3.5357
  655MOL0     H90366   7.311   1.395   0.862  0.5896  0.1602  1.4946
  655MOL0     H90367   7.201   1.302   0.759  1.8344  0.2646 -0.6653
  655MOL0     H90368   7.017   1.414   0.895  0.3223  1.0535 -0.6287
  655MOL0     H90369   7.143   1.473   1.010  0.2748  0.6447 -1.3857
  655MOL0     H90370   6.548   1.722   0.128  1.5230  0.0734  0.0713
  655MOL0     H90371   6.354   1.575   0.091  1.2195  3.8653 -0.7854
  655MOL0     H90372   6.060   1.297   0.366 -0.9456 -1.3510  1.2713
  655MOL0     H90373   5.843   1.200   0.359  0.7547  0.0094  0.7900
  655MOL0     H90374   5.616   2.022   0.335  0.9723  1.1427 -1.6908
  655MOL0     H90375   5.684   2.226   0.405 -0.8763  0.6399  1.7241
  655MOL0     H90376   5.527   2.682   0.114  2.1886 -2.0758 -0.1743
  655MOL0     H90377   5.563   2.946   0.118 -1.8898  0.0527  0.7540
  655MOL0     H90378   5.668   3.155   0.079 -0.5600 -1.5490  3.4014
  655MOL0     H90379   5.800   3.245   0.149  0.6549  0.0261  1.6890
  655MOL0     H90380   5.816   3.176  -0.099 -0.4010 -0.8670 -1.9110
  655MOL0     H90381   5.823   3.013  -0.054 -1.0389 -1.0844  2.3887
  655MOL0     H90382   6.053   3.148  -0.091  2.6240 -2.2919  0.6512
  655MOL0     H90383   6.014   3.213   0.065 -2.6757 -0.4024  0.3153
  655MOL0     H90384   6.074   2.930   0.002 -0.5522 -1.4781  1.0242
  655MOL0     H90385   6.028   2.987   0.165 -1.1136 -0.4726 -0.5703
  655MOL0     H90386   6.433   3.128   0.158 -1.3167  1.8119  2.0624
  655MOL0     H90387   5.908   2.902   0.359 -1.6206  2.1863  0.3886
  655MOL0     H90388   5.875   2.634   0.503 -2.5613 -1.5616  0.7391
  655MOL0     H90389   5.886   2.516   0.374  1.6201 -0.0606  0.6367
  655MOL0     H90390   5.980   2.672   0.372  0.7457  0.9207  3.2795
  656MOL0     O90391   5.783  11.464   3.540 -0.6685 -0.3604  0.6195
  656MOL0     C90392   5.695  11.388   3.568 -0.6445  0.3742  0.3380
  656MOL0     O90393   5.617  11.319   3.476 -0.4086  0.9637 -0.3224
  656MOL0     C90394   5.658  11.338   3.349  0.6358 -0.2350  0.5386
  656MOL0     C90395   5.765  11.269   3.291 -0.2676 -0.1396 -0.0416
  656MOL0     C90396   5.810  11.312   3.171  0.3398  1.0751 -0.0302
  656MOL0     C90397   5.742  11.407   3.100 -0.4067 -0.3540  0.5813
  656MOL0     O90398   5.768  11.440   2.970  0.2573 -0.0404  0.5441
  656MOL0     C90399   5.774  11.330   2.880 -1.1285 -0.6705  0.0197
  656MOL0     C90400   5.648  11.256   2.888  1.0537 -0.0632  0.5955
  656MOL0     C90401   5.528  11.337   2.838 -0.0649 -0.8936 -1.1934
  656MOL0     C90402   5.397  11.270   2.875  0.0876 -0.0136 -0.1499
  656MOL0     C90403   5.284  11.358   2.805 -0.5432 -0.5969  1.5242
  656MOL0     C90404   5.157  11.275   2.845 -0.6407  0.1567  0.5835
  656MOL0     C90405   5.033  11.319   2.777  0.7409  0.8622 -0.2952
  656MOL0     C90406   5.000  11.468   2.794  0.0059  0.1879 -0.2168
  656MOL0     N90407   4.860  11.485   2.778  1.1838  0.7057 -0.6517
  656MOL0     C90408   4.767  11.430   2.866  0.0203  0.2125  0.5942
  656MOL0     C90409   4.650  11.451   2.806  0.8671 -0.6982  0.2428
  656MOL0     C90410   4.506  11.420   2.840 -0.8183  0.4008  0.5211
  656MOL0     C90411   4.464  11.438   2.985 -0.0425  0.0789 -0.5195
  656MOL0     C90412   4.449  11.581   3.021 -0.8855 -0.3496 -0.9321
  656MOL0     C90413   4.450  11.615   3.168 -0.4660 -0.5838  0.6609
  656MOL0     O90414   4.376  11.730   3.214 -0.9647  0.3302  0.4327
  656MOL0     C90415   4.246  11.726   3.253 -0.0686  0.1957  0.3477
  656MOL0     C90416   4.165  11.603   3.253 -0.1897  0.7188  0.0342
  656MOL0     C90417   4.033  11.594   3.290  0.1104 -0.1734  0.3427
  656MOL0     C90418   3.980  11.455   3.292  0.7261  0.2592 -0.3133
  656MOL0     C90419   3.971  11.713   3.333 -1.4649 -0.0856  0.2818
  656MOL0     C90420   3.835  11.721   3.388 -0.3624  0.9927  0.0039
  656MOL0     O90421   3.791  11.843   3.425 -0.0703  0.4400  0.3590
  656MOL0     C90422   3.652  11.866   3.420  0.0643 -0.1846  0.0979
  656MOL0     C90423   3.554  11.816   3.327 -0.8530  0.5638 -0.2769
  656MOL0     C90424   3.425  11.868   3.319  0.0137  0.4957  0.4366
  656MOL0     C90425   3.390  11.972   3.402  0.8044  0.8885  0.1178
  656MOL0     O90426   3.257  12.007   3.410 -0.1992  0.7604  0.1235
  656MOL0     C90427   3.219  12.111   3.498 -0.5162 -0.0905 -0.3268
  656MOL0     C90428   3.080  12.143   3.486  1.2321 -0.1395  0.1072
  656MOL0     C90429   3.044  12.176   3.339 -0.0776  1.1167 -0.7426
  656MOL0     C90430   2.898  12.213   3.323  0.6037  0.2126  0.4495
  656MOL0     C90431   2.847  12.243   3.182  0.7071 -0.4367 -0.0170
  656MOL0     C90432   2.933  12.350   3.118 -0.7349 -0.7531 -0.2208
  656MOL0     C90433   2.896  12.363   2.967 -1.0178 -0.2504  0.6532
  656MOL0     C90434   2.982  12.473   2.904 -0.4841  0.1304  0.3639
  656MOL0    Cl90435   3.159  12.438   2.907  0.5123 -0.1855  0.1410
  656MOL0     C90436   3.483  12.031   3.489  0.6275  0.7252  0.0270
  656MOL0     C90437   3.609  11.977   3.492  0.6891  0.8584 -0.0688
  656MOL0     O90438   3.762  11.616   3.369 -0.7061  0.0472 -0.3723
  656MOL0     C90439   4.037  11.834   3.317  1.0399  0.1229 -0.7459
  656MOL0     C90440   4.173  11.838   3.292  0.0518 -0.9917 -0.1063
  656MOL0     N90441   4.672  11.534   2.699 -0.3251 -0.3527 -0.0040
  656MOL0     N90442   4.803  11.554   2.681  0.2899  0.6936 -0.2781
  656MOL0     C90443   5.643  11.484   3.160  0.8830 -0.2716 -0.3916
  656MOL0     C90444   5.604  11.456   3.283 -0.1203  0.2295  0.4086
  656MOL0     C90445   5.679  11.373   3.711 -0.2626 -0.0144  0.4169
  656MOL0     C90446   5.622  11.245   3.755  0.3336 -0.1911 -0.7336
  656MOL0     C90447   5.604  11.216   3.891 -0.0292  0.0796  0.8893
  656MOL0     C90448   5.650  11.302   3.982  0.5920  0.3077  0.5456
  656MOL0     O90449   5.636  11.278   4.114  0.4995 -0.4883  0.0720
  656MOL0     C90450   5.731  11.191   4.174 -0.2625  0.1429 -0.3266
  656MOL0     C90451   5.690  11.040   4.188 -0.2701 -0.3500  0.5256
  656MOL0     C90452   5.824  10.972   4.230 -0.5360 -0.1465 -0.0122
  656MOL0     C90453   5.803  10.818   4.248  0.2276  0.5777 -0.7125
  656MOL0     C90454   5.789  10.733   4.127  0.1835  0.3500 -0.7451
  656MOL0     C90455   5.789  10.674   4.017 -0.9812 -0.4424  0.4460
  656MOL0     C90456   5.713  11.418   3.946  0.8536  0.6907  1.6140
  656MOL0     C90457   5.727  11.456   3.811  0.9832  0.0632 -0.1038
  656MOL0     C90458   5.778  11.590   3.779  0.5269  0.2109  0.3857
  656MOL0     H90459   5.811  11.191   3.350  1.6259  2.6895  2.5170
  656MOL0     H90460   5.896  11.272   3.117 -0.0107  1.2941 -0.7735
  656MOL0     H90461   5.852  11.262   2.914 -0.9586  0.0614  1.1553
  656MOL0     H90462   5.805  11.361   2.781  1.0871 -0.7925  0.6283
  656MOL0     H90463   5.661  11.172   2.820  0.8664  1.8619 -1.9378
  656MOL0     H90464   5.623  11.224   2.990 -1.2843  0.3276  0.2042
  656MOL0     H90465   5.527  11.438   2.880 -1.7432 -0.5161 -2.0369
  656MOL0     H90466   5.540  11.358   2.731 -2.7409  2.9074 -0.9422
  656MOL0     H90467   5.399  11.165   2.842  0.1392 -1.6877  4.3840
  656MOL0     H90468   5.381  11.278   2.983  2.9925  3.7348  0.2111
  656MOL0     H90469   5.288  11.363   2.696 -3.1478 -1.9009  1.2894
  656MOL0     H90470   5.290  11.459   2.847  1.0668  0.5967 -1.3390
  656MOL0     H90471   5.160  11.169   2.821  1.2327  0.2858  0.0762
  656MOL0     H90472   5.153  11.275   2.954 -1.0069 -2.2726  0.6216
  656MOL0     H90473   4.957  11.254   2.821  1.4575 -0.6924 -1.2622
  656MOL0     H90474   5.029  11.297   2.670  0.0251 -3.0166  0.3716
  656MOL0     H90475   5.013  11.492   2.900 -3.9927 -0.9484  0.6704
  656MOL0     H90476   5.071  11.524   2.733  1.4055 -0.5359  0.6830
  656MOL0     H90477   4.785  11.349   2.936 -0.4307 -1.4479 -1.1082
  656MOL0     H90478   4.496  11.315   2.808 -0.7376  0.4588  0.3018
  656MOL0     H90479   4.433  11.469   2.776 -1.4514  2.0863  2.4334
  656MOL0     H90480   4.368  11.390   3.004 -1.5124  2.7362 -0.7795
  656MOL0     H90481   4.534  11.383   3.050  1.0741 -0.5233 -2.1611
  656MOL0     H90482   4.524  11.639   2.967 -0.9855 -1.2829 -2.1372
  656MOL0     H90483   4.362  11.625   2.971 -1.0086  2.7713  1.6810
  656MOL0     H90484   4.421  11.525   3.223  0.3686 -1.0433  0.3596
  656MOL0     H90485   4.555  11.636   3.190 -1.3447  0.8967  4.2332
  656MOL0     H90486   4.210  11.506   3.232 -0.8796 -0.4953  3.5462
  656MOL0     H90487   3.894  11.449   3.223  0.5050  2.2103 -0.2481
  656MOL0     H90488   3.954  11.428   3.395 -0.8781  0.4654 -0.6282
  656MOL0     H90489   4.048  11.376   3.259 -2.3234 -2.0554 -1.6362
  656MOL0     H90490   3.577  11.723   3.275  2.0871 -0.5226  2.5805
  656MOL0     H90491   3.361  11.842   3.235  3.5300 -1.0783 -2.0147
  656MOL0     H90492   3.253  12.088   3.600 -1.2803  3.1944  0.7899
  656MOL0     H90493   3.268  12.206   3.477  2.0165 -0.7421  1.9811
  656MOL0     H90494   3.020  12.056   3.513 -0.3730  0.3279 -1.7545
  656MOL0     H90495   3.057  12.235   3.539  1.9768 -0.5237  1.1201
  656MOL0     H90496   3.054  12.082   3.285  1.1549  1.2197 -0.7252
  656MOL0     H90497   3.114  12.246   3.293  1.5324  0.2820  0.3115
  656MOL0     H90498   2.885  12.297   3.392  0.3685  0.6000 -0.0654
  656MOL0     H90499   2.835  12.131   3.360 -0.2572  0.2857 -0.7974
  656MOL0     H90500   2.835  12.153   3.121 -3.4140 -2.2704  3.0793
  656MOL0     H90501   2.747  12.286   3.187 -0.0332 -1.9223 -1.1014
  656MOL0     H90502   3.038  12.320   3.116 -0.9364 -1.4990  0.0243
  656MOL0     H90503   2.921  12.445   3.169 -2.9214 -1.0203 -0.1367
  656MOL0     H90504   2.793  12.397   2.956 -1.1628 -0.6783  0.6459
  656MOL0     H90505   2.917  12.264   2.925 -1.4365 -0.9883  2.0926
  656MOL0     H90506   2.963  12.565   2.958 -0.8045  0.6347 -0.5839
  656MOL0     H90507   2.956  12.484   2.798 -0.7588 -1.5631  0.2269
  656MOL0     H90508   3.451  12.108   3.559  1.4446  1.8624 -0.8084
  656MOL0     H90509   3.680  12.033   3.552 -0.5433  2.4514 -0.0316
  656MOL0     H90510   3.994  11.933   3.333 -3.5028 -1.8359  0.6876
  656MOL0     H90511   4.220  11.936   3.297  0.7051 -1.1526 -2.1928
  656MOL0     H90512   5.587  11.560   3.106 -1.8747 -1.3117  0.8676
  656MOL0     H90513   5.519  11.507   3.327 -0.6187  1.9085 -2.2697
  656MOL0     H90514   5.588  11.184   3.671 -0.0242  0.1896 -0.8715
  656MOL0     H90515   5.549  11.127   3.919 -1.9913 -0.0619 -2.7497
  656MOL0     H90516   5.827  11.200   4.122 -0.4422  0.6983 -0.5686
  656MOL0     H90517   5.747  11.220   4.278  2.4239 -0.5290 -0.4691
  656MOL0     H90518   5.653  11.008   4.090 -2.2188 -2.7581  1.9288
  656MOL0     H90519   5.610  11.027   4.262 -0.7084  0.0889  0.1320
  656MOL0     H90520   5.898  10.977   4.149  2.5894 -2.2492  2.5036
  656MOL0     H90521   5.867  11.017   4.320  1.0283  2.7505 -2.0103
  656MOL0     H90522   5.708  10.802   4.299  0.2768  2.3208  0.0056
  656MOL0     H90523   5.885  10.783   4.312  0.5425  0.7299 -1.0255
  656MOL0     H90524   5.786  10.632   3.919  1.3564  0.8982 -0.2851
  656MOL0     H90525   5.744  11.482   4.028  1.8925  0.3960  1.4705
  656MOL0     H90526   5.762  11.648   3.870 -0.9082 -3.4224  2.6888
  656MOL0     H90527   5.883  11.590   3.750 -0.4290 -0.2085 -3.7302
  656MOL0     H90528   5.718  11.638   3.700 -0.3156  0.2240  1.0187
  657MOL0     O90529   5.360   1.092   7.083  0.2799  0.2653 -0.1770
  657MOL0     C90530   5.312   1.035   7.182 -0.5354 -0.4624 -0.0468
  657MOL0     O90531   5.300   0.896   7.189 -0.7490  0.0023 -0.5316
  657MOL0     C90532   5.359   0.821   7.090 -0.3374  0.7346  0.9071
  657MOL0     C90533   5.493   0.832   7.062 -1.0807  0.0170 -0.5513
  657MOL0     C90534   5.543   0.733   6.975 -0.2509 -0.3071 -0.5456
  657MOL0     C90535   5.463   0.655   6.893  0.6256 -0.0453  0.0145
  657MOL0     O90536   5.514   0.572   6.802 -0.0546  0.6427  0.5590
  657MOL0     C90537   5.456   0.450   6.765 -0.7368 -0.3949  0.4415
  657MOL0     C90538   5.588   0.369   6.729 -0.5719 -0.0769  0.1546
  657MOL0     C90539   5.570   0.231   6.673 -0.2192 -0.1477 -0.7096
  657MOL0     C90540   5.711   0.184   6.631  0.5021  1.3981 -0.8195
  657MOL0     C90541   5.702   0.039   6.596  0.4892 -0.0544 -0.2813
  657MOL0     C90542   5.831   0.003   6.519 -0.2782 -0.9840 -0.2630
  657MOL0     C90543   5.835  -0.144   6.497  0.3487 -0.7404 -0.4122
  657MOL0     C90544   5.929  -0.186   6.391  0.2090  0.5459  1.2384
  657MOL0     N90545   5.876  -0.140   6.259 -0.3019 -0.3473 -0.1651
  657MOL0     C90546   5.750  -0.132   6.223  0.6544 -0.5023 -0.2404
  657MOL0     C90547   5.742  -0.048   6.120  0.4188 -0.8974 -0.1452
  657MOL0     C90548   5.623  -0.012   6.035 -0.1211 -1.2719  0.8551
  657MOL0     C90549   5.546   0.111   6.079 -0.3076 -0.1990  0.2360
  657MOL0     C90550   5.632   0.250   6.089 -0.7941  0.6021 -0.7235
  657MOL0     C90551   5.535   0.375   6.121 -0.9057 -0.2279  0.5281
  657MOL0     O90552   5.477   0.389   6.253 -0.4575 -0.7613 -0.2533
  657MOL0     C90553   5.408   0.505   6.284  0.6935 -0.4670 -0.3912
  657MOL0     C90554   5.307   0.567   6.201 -0.9072 -0.4823 -0.0309
  657MOL0     C90555   5.248   0.680   6.239 -0.7498  0.6207 -0.0274
  657MOL0     C90556   5.157   0.737   6.140  0.2157  0.7653 -0.6215
  657MOL0     C90557   5.275   0.736   6.365  1.2489 -0.2890  0.2035
  657MOL0     C90558   5.211   0.855   6.435 -0.0891 -0.3840 -0.2223
  657MOL0     O90559   5.251   0.875   6.566  1.0125  0.4332 -0.2745
  657MOL0     C90560   5.184   0.970   6.638  0.0759  0.0512  0.9252
  657MOL0     C90561   5.111   0.935   6.758 -0.8444  0.5751 -0.0077
  657MOL0     C90562   5.060   1.043   6.828 -0.0202  0.0899 -1.0300
  657MOL0     C90563   5.082   1.182   6.796 -0.5659  0.1340 -0.4225
  657MOL0     O90564   5.012   1.275   6.867 -0.3322  0.1911 -0.0955
  657MOL0     C90565   5.088   1.390   6.918  0.5083 -0.6837  0.4571
  657MOL0     C90566   5.009   1.463   7.023  0.6662  0.2346  1.4227
  657MOL0     C90567   4.873   1.509   6.974 -0.4764 -0.3414  0.1055
  657MOL0     C90568   4.803   1.582   7.100 -0.4380  0.1450  0.1392
  657MOL0     C90569   4.669   1.633   7.046  1.2257 -0.2084  0.0615
  657MOL0     C90570   4.580   1.681   7.160 -0.8480 -0.5321 -0.5534
  657MOL0     C90571   4.447   1.735   7.098 -0.1226 -0.0562 -0.5428
  657MOL0     C90572   4.373   1.823   7.202  0.2247  0.2137 -0.4010
  657MOL0    Cl90573   4.206   1.866   7.153 -0.3064  0.3950  0.4654
  657MOL0     C90574   5.165   1.213   6.691 -0.4336 -0.5398 -0.1519
  657MOL0     C90575   5.218   1.107   6.610 -1.4502 -0.4416 -0.2083
  657MOL0     O90576   5.150   0.934   6.363  0.1001  0.4603 -0.1708
  657MOL0     C90577   5.367   0.669   6.449  0.8934 -0.3248  1.2875
  657MOL0     C90578   5.426   0.557   6.406 -0.0358 -0.0175 -0.6027
  657MOL0     N90579   5.872  -0.031   6.084 -0.2001  0.0294  0.2295
  657MOL0     N90580   5.950  -0.087   6.163 -0.3105 -0.6647 -0.1194
  657MOL0     C90581   5.318   0.656   6.914  0.8469 -0.6184  0.1708
  657MOL0     C90582   5.273   0.741   7.014  0.9446 -0.3775 -0.4793
  657MOL0     C90583   5.260   1.118   7.292 -0.4687 -0.6034 -0.2988
  657MOL0     C90584   5.279   1.259   7.282 -0.6877  0.0472 -0.1371
  657MOL0     C90585   5.230   1.340   7.390  0.4834  0.2361  0.8977
  657MOL0     C90586   5.149   1.278   7.487 -1.0128 -0.1028 -0.4025
  657MOL0     O90587   5.078   1.356   7.575 -0.4271  0.0579  0.1263
  657MOL0     C90588   5.092   1.499   7.580  0.1182 -0.0068 -1.0626
  657MOL0     C90589   4.973   1.564   7.647 -0.5994  0.1820  0.6361
  657MOL0     C90590   4.846   1.556   7.560 -0.9579 -0.8151  0.5076
  657MOL0     C90591   4.834   1.688   7.474  0.6029  0.1292  0.4233
  657MOL0     C90592   4.796   1.800   7.557 -0.0392  0.2070  0.3179
  657MOL0     C90593   4.766   1.904   7.621 -0.5964 -0.3189 -0.3570
  657MOL0     C90594   5.128   1.143   7.495  0.8106 -0.4066 -0.1854
  657MOL0     C90595   5.188   1.059   7.404  0.4413 -0.2966 -0.3422
  657MOL0     C90596   5.164   0.911   7.426  0.1617  0.3077 -0.5134
  657MOL0     H90597   5.568   0.888   7.118  0.5838 -0.8864 -1.7976
  657MOL0     H90598   5.651   0.720   6.984  0.1248  1.6454 -1.8039
  657MOL0     H90599   5.395   0.465   6.676  1.7825  2.0844 -1.0078
  657MOL0     H90600   5.395   0.408   6.846  0.4690 -1.8742  0.6172
  657MOL0     H90601   5.637   0.433   6.655 -1.5681  2.5957  1.6695
  657MOL0     H90602   5.652   0.360   6.817 -0.6249  2.0248  0.4596
  657MOL0     H90603   5.530   0.162   6.748 -1.5734  0.4082 -0.8754
  657MOL0     H90604   5.493   0.224   6.596 -1.7103 -0.9440  0.7842
  657MOL0     H90605   5.724   0.253   6.547 -0.6381  2.3340 -0.2633
  657MOL0     H90606   5.784   0.206   6.710 -0.6337 -0.4080  0.8210
  657MOL0     H90607   5.621   0.010   6.529  1.3627  0.3478 -1.5468
  657MOL0     H90608   5.697  -0.020   6.688 -3.5811  2.2209  1.2143
  657MOL0     H90609   5.834   0.063   6.427 -0.7972 -0.0774  0.3007
  657MOL0     H90610   5.907   0.037   6.590 -1.1476  0.5983 -0.0473
  657MOL0     H90611   5.730  -0.167   6.475 -0.1392  0.4046  0.6083
  657MOL0     H90612   5.852  -0.189   6.595 -1.9869 -0.8886 -0.0302
  657MOL0     H90613   6.027  -0.150   6.423 -0.4923  2.3960  1.4335
  657MOL0     H90614   5.938  -0.295   6.379 -2.1812  0.3190  0.8854
  657MOL0     H90615   5.657  -0.174   6.260  1.3961 -2.3247 -0.3039
  657MOL0     H90616   5.558  -0.100   6.033  1.2524 -2.3185 -0.1116
  657MOL0     H90617   5.663   0.015   5.937  0.8084  1.0574  1.7958
  657MOL0     H90618   5.470   0.129   6.002 -0.4348  1.1090  0.6534
  657MOL0     H90619   5.491   0.078   6.167 -1.2012 -2.7724 -1.1697
  657MOL0     H90620   5.709   0.241   6.166 -1.7510 -5.2797 -0.0269
  657MOL0     H90621   5.685   0.263   5.995  0.1300 -1.1193 -0.4806
  657MOL0     H90622   5.587   0.467   6.093 -1.2637 -0.3481 -0.6103
  657MOL0     H90623   5.457   0.382   6.045 -1.9633  0.2608  1.6235
  657MOL0     H90624   5.278   0.518   6.109  3.0815 -0.5155 -1.4758
  657MOL0     H90625   5.110   0.656   6.084  0.4930  1.3325 -1.6883
  657MOL0     H90626   5.203   0.815   6.078 -0.3691  2.5241  1.0452
  657MOL0     H90627   5.065   0.772   6.189 -2.1355 -3.4272 -1.5794
  657MOL0     H90628   5.096   0.834   6.795  1.1583  0.2992  0.1864
  657MOL0     H90629   4.989   1.021   6.906  1.7566  1.4118  1.0864
  657MOL0     H90630   5.179   1.354   6.969  1.2530 -0.1618 -0.4778
  657MOL0     H90631   5.112   1.458   6.837 -0.8933 -0.5043  0.1770
  657MOL0     H90632   4.988   1.405   7.114 -2.9377 -2.9688 -1.1459
  657MOL0     H90633   5.067   1.553   7.045  1.7604 -0.1177  0.1440
  657MOL0     H90634   4.814   1.427   6.934 -1.9888  0.2414  1.0614
  657MOL0     H90635   4.876   1.583   6.894 -0.2134 -0.6531 -0.1758
  657MOL0     H90636   4.863   1.656   7.154 -1.7289  0.2964  1.4295
  657MOL0     H90637   4.775   1.502   7.170 -2.1915  0.2631 -0.3808
  657MOL0     H90638   4.689   1.720   6.982  0.9828 -1.2404 -1.4863
  657MOL0     H90639   4.623   1.552   6.989 -0.7347  1.0898 -0.3141
  657MOL0     H90640   4.636   1.758   7.213 -0.9680  1.3795 -2.9997
  657MOL0     H90641   4.561   1.598   7.229 -1.9843 -0.8820 -1.2571
  657MOL0     H90642   4.375   1.659   7.067 -2.2390  0.9264  1.5546
  657MOL0     H90643   4.481   1.793   7.012  0.6423  0.4812  0.1015
  657MOL0     H90644   4.437   1.907   7.232 -1.5453  1.1501  0.9354
  657MOL0     H90645   4.349   1.763   7.289  3.6692 -1.3163 -0.3455
  657MOL0     H90646   5.181   1.318   6.673 -2.4197 -0.1446  0.1745
  657MOL0     H90647   5.292   1.124   6.533  0.3107 -0.5663  1.3832
  657MOL0     H90648   5.402   0.702   6.546  0.2843  1.2238  1.0311
  657MOL0     H90649   5.505   0.518   6.469 -2.9509  2.0225  5.0834
  657MOL0     H90650   5.251   0.604   6.845  2.4690  0.2243 -2.1882
  657MOL0     H90651   5.168   0.744   7.040  0.2082 -4.8450 -2.0425
  657MOL0     H90652   5.334   1.299   7.197 -0.8993 -0.9758 -0.7754
  657MOL0     H90653   5.258   1.444   7.400  0.3472  0.3511  0.1801
  657MOL0     H90654   5.180   1.521   7.642 -1.7444 -3.4471  3.4105
  657MOL0     H90655   5.093   1.548   7.483 -1.9781  0.9622 -0.6690
  657MOL0     H90656   4.985   1.669   7.676 -1.5842 -0.0033  1.8055
  657MOL0     H90657   4.943   1.511   7.738  0.3193 -1.5042  0.0046
  657MOL0     H90658   4.845   1.463   7.502 -1.1095  1.6559 -3.8871
  657MOL0     H90659   4.755   1.552   7.620  0.3196  0.1298  2.6180
  657MOL0     H90660   4.765   1.681   7.390 -0.2463  0.2583  1.0915
  657MOL0     H90661   4.931   1.709   7.428 -0.4079  1.4716 -1.2140
  657MOL0     H90662   4.741   1.991   7.678  5.3813  1.4330  0.2604
  657MOL0     H90663   5.063   1.107   7.574  1.0278  0.4869  0.4146
  657MOL0     H90664   5.099   0.894   7.513 -0.1612  3.8759  0.0928
  657MOL0     H90665   5.119   0.850   7.346 -3.6766 -0.2122  1.7707
  657MOL0     H90666   5.260   0.861   7.444  0.1773 -0.0440 -1.5054
  658MOL0     O90667   5.687   7.660   8.774 -0.0393  0.0459  0.2295
  658MOL0     C90668   5.785   7.576   8.778 -0.2739  0.9969 -0.2259
  658MOL0     O90669   5.804   7.477   8.677  0.5338  0.2140  0.4666
  658MOL0     C90670   5.701   7.458   8.595  0.2904 -0.5363  0.2774
  658MOL0     C90671   5.606   7.359   8.626 -0.1358  1.4336  0.7206
  658MOL0     C90672   5.499   7.331   8.550 -0.1821 -0.6047  0.1406
  658MOL0     C90673   5.478   7.407   8.435 -0.9775  0.5915  0.4693
  658MOL0     O90674   5.374   7.391   8.348 -0.3261  0.2731 -0.3025
  658MOL0     C90675   5.397   7.280   8.263  0.4186  0.2212  1.2106
  658MOL0     C90676   5.273   7.252   8.166  0.4732  0.6473  0.3683
  658MOL0     C90677   5.150   7.189   8.248 -0.1219  0.4160  0.6569
  658MOL0     C90678   5.031   7.163   8.163  0.0570 -1.0877 -0.2691
  658MOL0     C90679   4.905   7.102   8.235 -1.6529 -0.0060  0.7733
  658MOL0     C90680   4.935   6.964   8.291 -0.1411 -0.3699 -0.0305
  658MOL0     C90681   4.821   6.885   8.326  0.3417  0.2102 -0.5491
  658MOL0     C90682   4.862   6.750   8.393 -0.4414 -0.4035  0.3295
  658MOL0     N90683   4.757   6.686   8.468 -0.2704  0.3071 -0.5662
  658MOL0     C90684   4.657   6.614   8.415  0.2323 -0.0918  1.1213
  658MOL0     C90685   4.548   6.621   8.490  0.5612 -0.5842  0.2314
  658MOL0     C90686   4.400   6.561   8.477 -0.3842  0.1620 -0.1655
  658MOL0     C90687   4.384   6.422   8.537 -0.3356 -0.5107  0.6241
  658MOL0     C90688   4.434   6.406   8.684  0.4987 -1.4750  1.0317
  658MOL0     C90689   4.380   6.275   8.739  0.3590 -0.5833 -0.3434
  658MOL0     O90690   4.440   6.260   8.870  0.3370 -0.0476  0.0201
  658MOL0     C90691   4.463   6.135   8.918  0.3865  0.4203  0.0064
  658MOL0     C90692   4.424   6.009   8.863 -0.1926  0.5132 -0.4194
  658MOL0     C90693   4.436   5.885   8.931 -0.1872  0.1034 -0.2927
  658MOL0     C90694   4.398   5.759   8.865  0.1048  0.1026 -0.1200
  658MOL0     C90695   4.485   5.890   9.060 -0.6342 -0.4175  0.6688
  658MOL0     C90696   4.521   5.757   9.125  0.4094 -1.0773  0.1361
  658MOL0     O90697   4.657   5.762   9.166 -0.0164 -0.5213  0.4571
  658MOL0     C90698   4.705   5.642   9.213 -0.4973 -0.2749  0.8420
  658MOL0     C90699   4.733   5.532   9.132 -0.2266 -0.6217  0.2448
  658MOL0     C90700   4.794   5.421   9.172 -0.9506  0.9716  0.0813
  658MOL0     C90701   4.839   5.420   9.305  1.1615 -0.4431 -1.1497
  658MOL0     O90702   4.905   5.312   9.353  0.1758 -0.8876  0.6394
  658MOL0     C90703   5.049   5.300   9.321 -0.5123 -0.1547  0.5627
  658MOL0     C90704   5.111   5.178   9.378 -0.7909  0.8553 -0.0294
  658MOL0     C90705   5.044   5.047   9.329 -0.0056  0.2682 -0.0263
  658MOL0     C90706   5.130   4.992   9.207  1.1902 -0.0701 -0.1706
  658MOL0     C90707   5.074   4.863   9.151 -0.4183 -0.1323  0.6819
  658MOL0     C90708   5.166   4.804   9.047 -0.1261 -0.7817 -0.3469
  658MOL0     C90709   5.112   4.687   8.951 -0.1771  0.5050  0.2502
  658MOL0     C90710   5.049   4.569   9.037 -0.7095 -0.3112 -0.1697
  658MOL0    Cl90711   5.170   4.522   9.161 -0.0682 -0.6805 -0.5381
  658MOL0     C90712   4.818   5.522   9.389 -0.0453 -0.3712 -0.1826
  658MOL0     C90713   4.753   5.639   9.344  0.4125 -0.4022 -1.2551
  658MOL0     O90714   4.450   5.664   9.129  0.1645  0.4528 -0.7114
  658MOL0     C90715   4.516   6.007   9.120 -0.5911 -0.5658 -0.4478
  658MOL0     C90716   4.508   6.130   9.057 -0.6847 -0.9321  0.2899
  658MOL0     N90717   4.591   6.674   8.609  1.4837 -1.0142  0.0220
  658MOL0     N90718   4.711   6.723   8.588 -0.3301 -0.1273  0.5072
  658MOL0     C90719   5.568   7.512   8.407 -0.1618 -0.3838  0.2355
  658MOL0     C90720   5.687   7.535   8.476  0.3954  0.2095 -0.2515
  658MOL0     C90721   5.890   7.576   8.886  0.0294  0.3692 -0.5773
  658MOL0     C90722   6.002   7.484   8.879  0.4565 -1.5401  0.4077
  658MOL0     C90723   6.095   7.481   8.978 -0.8836 -0.5394  0.5962
  658MOL0     C90724   6.072   7.536   9.108  0.4289 -0.7014  0.0069
  658MOL0     O90725   6.142   7.511   9.223  0.1002 -0.1175  0.5965
  658MOL0     C90726   6.254   7.429   9.216 -0.2592 -0.5932 -0.3065
  658MOL0     C90727   6.314   7.430   9.356 -1.0036  0.7550 -0.8857
  658MOL0     C90728   6.354   7.557   9.427  0.2231 -0.6735 -0.0356
  658MOL0     C90729   6.250   7.633   9.513  1.3491 -0.7253  0.2449
  658MOL0     C90730   6.292   7.689   9.650  0.1577  0.2716  0.1251
  658MOL0     C90731   6.301   7.716   9.765  0.7443  0.0713 -0.5515
  658MOL0     C90732   5.970   7.629   9.115 -0.9630 -0.7648  0.5651
  658MOL0     C90733   5.881   7.654   9.004 -0.3229 -0.6974 -0.3530
  658MOL0     C90734   5.796   7.778   9.000 -0.1982 -0.4239 -0.1625
  658MOL0     H90735   5.620   7.303   8.718  3.0497  0.3767 -0.2723
  658MOL0     H90736   5.437   7.247   8.578 -0.9854 -0.5713 -1.4700
  658MOL0     H90737   5.410   7.182   8.311 -2.9123 -0.3369  1.2189
  658MOL0     H90738   5.481   7.295   8.194 -0.3957  0.8708  0.3362
  658MOL0     H90739   5.239   7.345   8.121 -1.9227  0.5004  1.6944
  658MOL0     H90740   5.310   7.174   8.098 -1.7295 -1.3311  1.2764
  658MOL0     H90741   5.188   7.094   8.285 -0.2584 -1.9317 -4.3640
  658MOL0     H90742   5.121   7.243   8.338 -2.1578 -0.3013  0.4851
  658MOL0     H90743   4.993   7.254   8.115  0.2793 -1.6891 -1.6620
  658MOL0     H90744   5.062   7.104   8.076 -0.0927  0.8103 -1.6799
  658MOL0     H90745   4.837   7.099   8.149  2.2924  0.5040 -2.7098
  658MOL0     H90746   4.866   7.162   8.318 -0.7527  1.3388  0.2564
  658MOL0     H90747   4.994   6.912   8.214 -0.5010  2.2726 -2.2365
  658MOL0     H90748   5.002   6.970   8.377 -0.6079 -2.1566  0.5164
  658MOL0     H90749   4.763   6.862   8.237  0.0450  0.1907 -0.3533
  658MOL0     H90750   4.766   6.948   8.397  3.4064  1.9465  0.4957
  658MOL0     H90751   4.902   6.680   8.320  0.5479 -1.5050  1.8662
  658MOL0     H90752   4.946   6.768   8.461 -0.7008 -0.3513  0.6407
  658MOL0     H90753   4.659   6.559   8.321 -0.4580 -0.8747  1.5523
  658MOL0     H90754   4.377   6.560   8.370 -0.9971 -0.5413 -0.0346
  658MOL0     H90755   4.334   6.626   8.535 -1.1109 -0.7540  0.0469
  658MOL0     H90756   4.279   6.393   8.524 -0.4388  0.1418 -0.0735
  658MOL0     H90757   4.434   6.349   8.472 -1.6807 -2.0826  1.2923
  658MOL0     H90758   4.544   6.414   8.683  0.4572 -0.8710  0.8668
  658MOL0     H90759   4.390   6.488   8.741 -1.5324 -1.7821 -0.0097
  658MOL0     H90760   4.273   6.270   8.759  0.0697  2.4041 -0.7381
  658MOL0     H90761   4.403   6.188   8.676 -1.0129 -2.8744  2.1424
  658MOL0     H90762   4.380   6.007   8.764  2.9149 -4.0778 -2.0214
  658MOL0     H90763   4.325   5.696   8.916  1.2563  0.0406  1.5446
  658MOL0     H90764   4.483   5.690   8.860 -0.1682 -0.4460  1.9161
  658MOL0     H90765   4.355   5.774   8.766 -0.2369 -2.9950 -0.5436
  658MOL0     H90766   4.701   5.545   9.029 -2.3997  0.9047  1.0171
  658MOL0     H90767   4.812   5.338   9.104 -2.5777  0.4808  0.2069
  658MOL0     H90768   5.064   5.316   9.213 -1.0331 -0.5777  0.4244
  658MOL0     H90769   5.104   5.389   9.354  3.1009 -2.2211  0.6989
  658MOL0     H90770   5.219   5.170   9.360 -0.4847 -2.9226  2.3096
  658MOL0     H90771   5.101   5.180   9.487 -1.4627 -0.3428 -0.0498
  658MOL0     H90772   4.941   5.067   9.300 -0.4050 -1.7594 -0.1613
  658MOL0     H90773   5.043   4.968   9.405 -2.2949  0.6395  0.3946
  658MOL0     H90774   5.231   4.973   9.245  0.0670 -1.8982  2.0812
  658MOL0     H90775   5.133   5.062   9.122  0.5677  0.4088  0.1974
  658MOL0     H90776   5.062   4.789   9.231 -3.7763 -0.1860  0.2717
  658MOL0     H90777   4.976   4.871   9.102 -0.2258  0.6277  0.3978
  658MOL0     H90778   5.260   4.769   9.089  1.3743  2.8033 -0.3454
  658MOL0     H90779   5.191   4.888   8.981  0.7278 -1.6433 -1.1356
  658MOL0     H90780   5.205   4.659   8.900 -0.3925  1.6067 -0.7878
  658MOL0     H90781   5.035   4.727   8.885  0.6504  1.3381 -0.2335
  658MOL0     H90782   5.020   4.489   8.969 -0.2185  1.2290 -2.2716
  658MOL0     H90783   4.961   4.602   9.094 -0.4175  0.7147 -0.2867
  658MOL0     H90784   4.855   5.514   9.491 -2.1221  2.3501  0.9229
  658MOL0     H90785   4.760   5.726   9.409 -1.1407 -2.7643  2.4233
  658MOL0     H90786   4.565   5.987   9.215 -0.1150 -0.3099 -0.6349
  658MOL0     H90787   4.557   6.221   9.091 -2.1610  0.8712 -2.0673
  658MOL0     H90788   5.556   7.571   8.317  3.0943  0.2557  0.0850
  658MOL0     H90789   5.748   7.623   8.462  0.5538  0.0880 -0.3245
  658MOL0     H90790   6.028   7.439   8.784  0.1571  0.5301 -0.6909
  658MOL0     H90791   6.186   7.430   8.948 -1.0706  1.5863 -4.9038
  658MOL0     H90792   6.224   7.326   9.197  2.0494 -1.0238 -2.0335
  658MOL0     H90793   6.330   7.461   9.143  3.0413 -2.0144  2.2255
  658MOL0     H90794   6.409   7.376   9.346 -0.9323 -0.2583  3.1632
  658MOL0     H90795   6.255   7.373   9.429 -0.1860  0.5644 -0.3577
  658MOL0     H90796   6.436   7.535   9.496 -1.3577 -2.2705  1.4385
  658MOL0     H90797   6.390   7.621   9.345  0.6574 -0.6704  0.1524
  658MOL0     H90798   6.173   7.557   9.527  0.3161  0.4694  1.3606
  658MOL0     H90799   6.201   7.716   9.461  2.0850 -0.2548  0.2900
  658MOL0     H90800   6.288   7.764   9.860 -2.3486 -0.6126 -0.5267
  658MOL0     H90801   5.963   7.681   9.210 -2.2108  0.0504  0.0561
  658MOL0     H90802   5.692   7.746   9.004  0.4025 -2.7252 -1.5255
  658MOL0     H90803   5.809   7.839   9.090  5.5382 -1.9026  0.3995
  658MOL0     H90804   5.829   7.839   8.915 -3.3545 -0.7378 -1.7595
  659MOL0     O90805   3.558  10.524   3.656  0.3251 -0.0300 -0.3344
  659MOL0     C90806   3.440  10.487   3.661  0.4658 -0.8871  0.8598
  659MOL0     O90807   3.388  10.384   3.728 -0.2769 -0.2742  0.0643
  659MOL0     C90808   3.470  10.302   3.807 -0.5485 -0.2746 -0.2792
  659MOL0     C90809   3.482  10.165   3.786 -0.4551 -0.7535 -0.4300
  659MOL0     C90810   3.550  10.073   3.860 -0.4110  0.4747  0.8375
  659MOL0     C90811   3.623  10.133   3.970  0.4723 -0.2211 -0.3793
  659MOL0     O90812   3.693  10.040   4.040  0.0276  0.0776  0.6778
  659MOL0     C90813   3.763  10.075   4.157 -0.4049  0.5857 -0.1120
  659MOL0     C90814   3.845   9.950   4.213 -0.0660 -0.0742  0.8403
  659MOL0     C90815   3.878   9.943   4.355 -0.0999 -0.2198  0.2626
  659MOL0     C90816   3.975   9.831   4.401  0.7162 -0.0996  0.1396
  659MOL0     C90817   3.897   9.700   4.413  0.5120  0.9469 -0.9305
  659MOL0     C90818   3.941   9.638   4.544 -0.4779  0.1997 -0.3026
  659MOL0     C90819   3.866   9.503   4.544 -0.1469 -0.6013  0.2393
  659MOL0     C90820   3.723   9.493   4.608 -0.9985 -1.2260  0.3496
  659MOL0     N90821   3.626   9.569   4.525 -0.1058 -0.7127 -0.3527
  659MOL0     C90822   3.590   9.543   4.393 -0.0048  0.1169 -0.3413
  659MOL0     C90823   3.512   9.644   4.360  0.5583  0.1986  1.0789
  659MOL0     C90824   3.445   9.674   4.223  0.8404 -1.0345  0.6858
  659MOL0     C90825   3.332   9.781   4.222  0.1866 -0.0729  0.6453
  659MOL0     C90826   3.374   9.920   4.165  0.4642 -0.5106 -0.6412
  659MOL0     C90827   3.239   9.992   4.128 -0.4642 -0.4488  0.0044
  659MOL0     O90828   3.181   9.924   4.014 -0.0563 -0.6231  0.6111
  659MOL0     C90829   3.096  10.005   3.945  1.1721 -0.6796  0.4216
  659MOL0     C90830   2.955  10.001   3.961 -0.2040  0.0033  0.1145
  659MOL0     C90831   2.878  10.093   3.900  0.0412  0.7105 -0.0604
  659MOL0     C90832   2.730  10.065   3.915 -0.8565 -0.4278 -0.4694
  659MOL0     C90833   2.932  10.205   3.833  0.0950  0.3951 -0.7405
  659MOL0     C90834   2.830  10.303   3.775  0.0824 -0.0173  0.4296
  659MOL0     O90835   2.858  10.344   3.650 -0.3554  0.6571  0.1015
  659MOL0     C90836   2.767  10.426   3.587 -0.0069 -0.5850 -0.6788
  659MOL0     C90837   2.733  10.406   3.457  0.4074 -0.1367 -0.0047
  659MOL0     C90838   2.635  10.482   3.390  0.2429 -0.6736  0.0997
  659MOL0     C90839   2.593  10.604   3.453 -0.7047  0.5503  0.6377
  659MOL0     O90840   2.517  10.697   3.394  0.0507 -0.5015 -0.2341
  659MOL0     C90841   2.441  10.679   3.267  0.7766 -0.8212 -0.0797
  659MOL0     C90842   2.356  10.799   3.253 -0.9408  0.7868  0.6658
  659MOL0     C90843   2.298  10.835   3.113 -0.9658  0.4880 -0.3095
  659MOL0     C90844   2.238  10.710   3.041 -0.6902 -1.0303  0.7848
  659MOL0     C90845   2.118  10.646   3.115 -0.6618  0.4096 -0.2176
  659MOL0     C90846   2.005  10.596   3.023  0.0632  0.1506 -0.4490
  659MOL0     C90847   2.047  10.487   2.925 -0.5460  0.4206 -0.6362
  659MOL0     C90848   1.946  10.414   2.839 -0.1435  0.5198 -0.3766
  659MOL0    Cl90849   1.862  10.541   2.736  0.0136  0.1989 -0.1228
  659MOL0     C90850   2.634  10.630   3.579 -0.1376  0.2613 -0.1820
  659MOL0     C90851   2.711  10.539   3.650 -0.3171  0.1210 -0.4471
  659MOL0     O90852   2.743  10.348   3.850  0.2093 -0.0247 -0.8328
  659MOL0     C90853   3.065  10.196   3.794  0.3422  0.5018 -1.3840
  659MOL0     C90854   3.148  10.100   3.856 -0.7020 -1.7087 -0.5694
  659MOL0     N90855   3.494   9.733   4.467 -0.8554  0.6346 -0.0528
  659MOL0     N90856   3.564   9.684   4.561  0.0934 -0.2393 -0.1608
  659MOL0     C90857   3.605  10.267   3.999  0.0778 -0.6158 -0.1347
  659MOL0     C90858   3.525  10.353   3.926  0.2454  0.0029 -0.5665
  659MOL0     C90859   3.342  10.568   3.572 -0.4405  0.2305  0.6395
  659MOL0     C90860   3.204  10.520   3.562  0.2934  0.3909 -1.0786
  659MOL0     C90861   3.105  10.594   3.507 -0.3346 -0.4005  0.7494
  659MOL0     C90862   3.138  10.709   3.435 -0.6021  0.1243 -0.1198
  659MOL0     O90863   3.056  10.760   3.342  0.5827 -0.0999  0.1753
  659MOL0     C90864   2.933  10.691   3.305  0.5257  0.2152  0.4374
  659MOL0     C90865   2.858  10.760   3.205  0.2615  0.2744  0.0943
  659MOL0     C90866   2.785  10.882   3.272 -0.3580  0.5292 -0.6855
  659MOL0     C90867   2.705  10.962   3.170  0.3288  0.1754 -0.0494
  659MOL0     C90868   2.644  11.083   3.229 -0.1358  0.4802 -0.1824
  659MOL0     C90869   2.575  11.175   3.270  0.1796 -0.2563  0.0658
  659MOL0     C90870   3.265  10.757   3.439 -1.3474 -0.1023 -0.1910
  659MOL0     C90871   3.370  10.699   3.507 -0.4416 -0.1855  0.0083
  659MOL0     C90872   3.506  10.770   3.503  0.9398  0.8201 -0.5001
  659MOL0     H90873   3.433  10.122   3.699  0.3557  2.5252 -2.7253
  659MOL0     H90874   3.558   9.969   3.833  0.4259  0.5138  0.9177
  659MOL0     H90875   3.692  10.094   4.238 -1.0879 -3.2144  0.4117
  659MOL0     H90876   3.843  10.148   4.144 -0.0506 -0.0555 -1.8708
  659MOL0     H90877   3.788   9.857   4.198  2.9423 -1.7359 -1.3841
  659MOL0     H90878   3.936   9.938   4.153  1.0838 -0.2754  2.5692
  659MOL0     H90879   3.920  10.035   4.399 -0.6288 -1.0037  2.5775
  659MOL0     H90880   3.793   9.924   4.422 -0.0905  0.4668  0.4784
  659MOL0     H90881   4.055   9.816   4.328 -0.5971 -1.6133 -1.0540
  659MOL0     H90882   4.027   9.863   4.492  4.0749 -0.4457 -1.5026
  659MOL0     H90883   3.921   9.633   4.329 -2.3387 -1.9480  0.3246
  659MOL0     H90884   3.788   9.699   4.408  0.4539 -2.0959 -5.0928
  659MOL0     H90885   4.050   9.638   4.556 -0.6780  1.8010  2.2617
  659MOL0     H90886   3.911   9.704   4.626  3.2984  6.6336 -3.2954
  659MOL0     H90887   3.935   9.429   4.588  0.8880  0.2001  0.0124
  659MOL0     H90888   3.866   9.459   4.444  0.3469  2.5676 -1.2872
  659MOL0     H90889   3.694   9.388   4.598 -1.3170 -0.9706 -1.8896
  659MOL0     H90890   3.725   9.539   4.707  1.6860 -2.4285  0.9397
  659MOL0     H90891   3.632   9.460   4.336  1.4481  0.1371  0.6437
  659MOL0     H90892   3.400   9.582   4.184 -0.6438 -0.3004  0.6204
  659MOL0     H90893   3.527   9.713   4.161 -2.8465  2.4107 -2.5430
  659MOL0     H90894   3.256   9.738   4.156  3.0233 -1.5822 -1.8874
  659MOL0     H90895   3.294   9.799   4.323  2.2957 -2.1666  1.9181
  659MOL0     H90896   3.417   9.974   4.250 -0.6556 -0.2479 -0.2164
  659MOL0     H90897   3.448   9.906   4.086  0.9902 -3.5910  0.2776
  659MOL0     H90898   3.175   9.987   4.216  2.3576  3.4071  2.5763
  659MOL0     H90899   3.271  10.095   4.110 -0.4711 -0.4911 -0.2536
  659MOL0     H90900   2.905   9.913   4.000 -0.3995 -0.1638 -0.5065
  659MOL0     H90901   2.705   9.976   3.973  1.1433  1.1097  3.0312
  659MOL0     H90902   2.687  10.057   3.815  2.2740 -1.9125 -1.8507
  659MOL0     H90903   2.686  10.145   3.975  0.7100 -1.0080  1.5597
  659MOL0     H90904   2.767  10.322   3.397 -3.5232 -3.2114  1.6035
  659MOL0     H90905   2.597  10.455   3.292 -0.7837 -0.4520  0.4285
  659MOL0     H90906   2.507  10.678   3.180  1.6128  1.9631  0.4371
  659MOL0     H90907   2.378  10.590   3.275 -1.0688  0.3729 -0.7934
  659MOL0     H90908   2.269  10.775   3.315 -2.3289 -2.9647 -2.3189
  659MOL0     H90909   2.407  10.885   3.296  0.0333  0.3762  0.3416
  659MOL0     H90910   2.381  10.881   3.059  0.9605 -3.1190 -0.6623
  659MOL0     H90911   2.223  10.915   3.111  0.5021  2.0123  1.4522
  659MOL0     H90912   2.310  10.630   3.020 -1.0293 -0.6317 -2.4971
  659MOL0     H90913   2.208  10.743   2.941  2.4727 -0.4478 -0.0772
  659MOL0     H90914   2.160  10.570   3.181  3.4715  3.8907  1.6642
  659MOL0     H90915   2.062  10.719   3.174  3.9259  4.3254  0.0090
  659MOL0     H90916   1.957  10.680   2.972 -0.6237  0.7205  1.0792
  659MOL0     H90917   1.932  10.552   3.092  0.1843  0.3862 -0.1726
  659MOL0     H90918   2.091  10.413   2.994  0.3312  0.8961 -0.6634
  659MOL0     H90919   2.131  10.520   2.863 -0.8176  0.6136 -0.9004
  659MOL0     H90920   1.864  10.367   2.894  0.8590 -2.8399 -1.5397
  659MOL0     H90921   1.989  10.340   2.771  2.1782  3.8449 -2.8328
  659MOL0     H90922   2.600  10.721   3.628 -2.0310  0.8575 -2.3896
  659MOL0     H90923   2.746  10.566   3.750  0.3935 -2.8172  0.2058
  659MOL0     H90924   3.095  10.265   3.716  1.7644  1.2041 -0.2741
  659MOL0     H90925   3.256  10.111   3.848 -0.9714  0.7160 -1.5968
  659MOL0     H90926   3.646  10.306   4.092  0.8761  0.8041 -1.0577
  659MOL0     H90927   3.529  10.461   3.940  1.3445  0.0621 -1.2443
  659MOL0     H90928   3.173  10.434   3.620  0.6578 -0.1004 -1.6050
  659MOL0     H90929   3.000  10.567   3.511 -0.8317  0.6254 -2.5254
  659MOL0     H90930   2.930  10.592   3.258 -0.8856  1.0877 -1.4561
  659MOL0     H90931   2.873  10.677   3.396 -0.5384 -0.8147 -0.3831
  659MOL0     H90932   2.793  10.685   3.160  2.0768 -0.4606 -1.4535
  659MOL0     H90933   2.929  10.805   3.134  0.7813  2.6253  1.9686
  659MOL0     H90934   2.733  10.851   3.364  2.8933 -1.2184  0.7222
  659MOL0     H90935   2.867  10.944   3.310  0.2352 -0.6325 -0.0364
  659MOL0     H90936   2.625  10.908   3.118 -0.8841  0.7192  1.2015
  659MOL0     H90937   2.772  10.987   3.087 -0.8136  2.9998 -0.2332
  659MOL0     H90938   2.509  11.251   3.307 -2.4803 -2.3791 -0.0162
  659MOL0     H90939   3.295  10.843   3.381  0.6751  1.3983  2.8063
  659MOL0     H90940   3.579  10.693   3.478  0.3233 -0.1246  0.5063
  659MOL0     H90941   3.508  10.846   3.424 -0.7880  1.6528  0.2019
  659MOL0     H90942   3.527  10.815   3.600  1.8822 -2.5277  0.9775
  660MOL0     O90943   2.823  11.149   4.813  0.6823  0.2293  0.0841
  660MOL0     C90944   2.867  11.208   4.714  0.2570  0.1945  0.2141
  660MOL0     O90945   2.970  11.304   4.716 -0.4223  0.1582 -0.1555
  660MOL0     C90946   3.005  11.334   4.846 -0.0359 -0.3203 -0.2259
  660MOL0     C90947   2.949  11.443   4.906 -0.6067  0.8258  0.1123
  660MOL0     C90948   2.991  11.476   5.043  0.3278 -0.3715  0.4074
  660MOL0     C90949   3.073  11.390   5.112  0.4840 -0.4359 -0.3949
  660MOL0     O90950   3.117  11.405   5.244  0.0119  0.4742 -0.1845
  660MOL0     C90951   3.046  11.509   5.324  0.2802 -0.0749  0.5887
  660MOL0     C90952   3.133  11.538   5.449 -0.2326 -0.1669  0.0577
  660MOL0     C90953   3.058  11.641   5.548 -0.5505 -0.2862  0.5403
  660MOL0     C90954   2.937  11.574   5.620 -0.2528  0.0504 -0.1556
  660MOL0     C90955   2.880  11.682   5.711  0.1877  0.9664 -0.1493
  660MOL0     C90956   2.767  11.615   5.791  0.5707 -0.4120 -0.1474
  660MOL0     C90957   2.688  11.712   5.857 -0.4524 -0.7757  0.2001
  660MOL0     C90958   2.754  11.756   5.984 -0.3962 -0.2175 -0.6050
  660MOL0     N90959   2.711  11.678   6.105 -0.0615 -0.3281 -0.1869
  660MOL0     C90960   2.737  11.545   6.106 -0.7686 -0.5836  0.1936
  660MOL0     C90961   2.675  11.500   6.223  0.0763 -0.2345  0.8974
  660MOL0     C90962   2.714  11.371   6.286  0.9336 -0.1770 -0.2676
  660MOL0     C90963   2.715  11.377   6.442 -0.1784 -0.3572  1.3476
  660MOL0     C90964   2.581  11.366   6.503  0.1200 -0.2227  0.4936
  660MOL0     C90965   2.599  11.380   6.651  0.3027 -0.3512 -0.2398
  660MOL0     O90966   2.468  11.372   6.709 -0.3641 -0.6029  0.4523
  660MOL0     C90967   2.458  11.408   6.842  0.1466  0.3660 -0.2621
  660MOL0     C90968   2.564  11.411   6.942  0.6259 -0.7954  0.9037
  660MOL0     C90969   2.538  11.447   7.076 -0.3219  0.4966  0.1833
  660MOL0     C90970   2.661  11.446   7.171 -1.0964 -0.7052  0.1826
  660MOL0     C90971   2.414  11.509   7.112 -1.2534  0.3615  0.4825
  660MOL0     C90972   2.382  11.570   7.237  0.3901 -0.2144  0.4787
  660MOL0     O90973   2.280  11.657   7.236 -0.7029 -0.7494  0.1603
  660MOL0     C90974   2.241  11.722   7.356  0.4756 -0.1720  0.2556
  660MOL0     C90975   2.329  11.775   7.454  0.8136 -0.0964 -0.0748
  660MOL0     C90976   2.274  11.847   7.564  0.1600  0.1590 -0.3640
  660MOL0     C90977   2.131  11.861   7.586  0.3122  0.4927 -0.4806
  660MOL0     O90978   2.070  11.921   7.687 -0.8957  0.3473  0.5495
  660MOL0     C90979   2.099  11.868   7.823 -0.9249  0.9812  0.1802
  660MOL0     C90980   2.142  11.983   7.910 -0.1910  0.5969  1.0718
  660MOL0     C90981   2.031  12.083   7.936 -0.2188 -0.4909 -0.0255
  660MOL0     C90982   2.090  12.216   7.979  0.0533 -0.3951 -0.5729
  660MOL0     C90983   1.977  12.324   8.004 -0.6638 -0.3444  0.8658
  660MOL0     C90984   2.027  12.436   8.095 -0.0210 -0.3950  0.3872
  660MOL0     C90985   1.909  12.531   8.144  0.1032 -0.2960  0.1667
  660MOL0     C90986   1.959  12.641   8.240  0.2489 -1.6404  0.5840
  660MOL0    Cl90987   1.826  12.778   8.241  0.0048  0.3039  0.3491
  660MOL0     C90988   2.052  11.807   7.493  1.2555  0.1832  0.2034
  660MOL0     C90989   2.103  11.746   7.377  0.3865 -0.2923  0.2981
  660MOL0     O90990   2.445  11.531   7.335 -0.0141 -0.1953  0.0947
  660MOL0     C90991   2.316  11.508   7.011  0.0511 -0.8920  0.1290
  660MOL0     C90992   2.335  11.461   6.885  0.6434  0.2489  0.4804
  660MOL0     N90993   2.589  11.600   6.269 -1.1288 -0.3368 -0.5368
  660MOL0     N90994   2.616  11.710   6.191  0.0812 -0.1957  0.4199
  660MOL0     C90995   3.130  11.281   5.039  0.1994  0.3469 -0.3540
  660MOL0     C90996   3.093  11.245   4.916 -0.2818  0.2976  0.5771
  660MOL0     C90997   2.790  11.211   4.585 -0.0240 -0.0748  0.6761
  660MOL0     C90998   2.787  11.326   4.513 -0.8808  0.8744 -0.7843
  660MOL0     C90999   2.711  11.339   4.396 -0.4800 -0.6095 -0.4034
  660MOL0     C91000   2.632  11.231   4.347  0.4857 -0.4432 -0.5347
  660MOL0     O91001   2.562  11.256   4.225 -0.8124 -0.6310  0.2592
  660MOL0     C91002   2.423  11.236   4.244 -0.0121 -0.1951  0.1331
  660MOL0     C91003   2.354  11.374   4.252 -0.0004 -0.5437 -0.0050
  660MOL0     C91004   2.227  11.389   4.165  0.4171 -1.4079 -0.4676
  660MOL0     C91005   2.131  11.276   4.158  0.5698 -0.0728  0.1221
  660MOL0     C91006   2.053  11.276   4.037 -0.2897  0.1156  0.0233
  660MOL0     C91007   1.993  11.280   3.929  0.1113 -0.6832 -0.1554
  660MOL0     C91008   2.641  11.104   4.417 -0.1371  0.2373  0.5385
  660MOL0     C91009   2.720  11.099   4.528  0.3554 -0.6979 -1.3227
  660MOL0     C91010   2.729  10.964   4.593 -0.0677  0.1993  0.5851
  660MOL0     H91011   2.875  11.492   4.842 -0.5115 -1.1859 -1.6733
  660MOL0     H91012   2.953  11.562   5.096 -1.2695 -1.4438  1.0703
  660MOL0     H91013   2.946  11.472   5.347  0.8079 -2.2077 -0.3427
  660MOL0     H91014   3.052  11.604   5.270 -0.9875  2.5107  4.5566
  660MOL0     H91015   3.172  11.454   5.506  1.1060  0.0087 -0.5696
  660MOL0     H91016   3.223  11.592   5.420 -1.7645  3.3151  1.2160
  660MOL0     H91017   3.129  11.691   5.613  0.7578 -0.3646 -0.7732
  660MOL0     H91018   3.021  11.721   5.484 -2.4416 -2.1366 -0.8422
  660MOL0     H91019   2.861  11.529   5.555 -0.4039 -2.3838  1.5986
  660MOL0     H91020   2.976  11.498   5.688  2.1687 -0.9330 -2.4913
  660MOL0     H91021   2.837  11.762   5.651 -1.6171 -1.7950 -2.7773
  660MOL0     H91022   2.950  11.724   5.784 -0.3693  0.5688  0.6273
  660MOL0     H91023   2.703  11.555   5.724  1.9442 -2.8710  0.6004
  660MOL0     H91024   2.816  11.542   5.857  0.7698 -0.2166 -0.0789
  660MOL0     H91025   2.587  11.671   5.864 -1.0380  0.5050 -0.3494
  660MOL0     H91026   2.679  11.799   5.791 -4.0538  0.0187  1.4970
  660MOL0     H91027   2.863  11.744   5.978 -0.3366 -0.5727  0.7317
  660MOL0     H91028   2.729  11.862   5.992 -4.1703 -0.7682 -2.9934
  660MOL0     H91029   2.810  11.489   6.049 -1.7274 -2.0806  0.3686
  660MOL0     H91030   2.813  11.342   6.250  0.0439 -1.5069 -1.7450
  660MOL0     H91031   2.645  11.292   6.255  2.4736 -1.7325  0.0664
  660MOL0     H91032   2.784  11.300   6.478  1.1439  0.8439  1.4696
  660MOL0     H91033   2.751  11.479   6.460  1.7972 -1.2148  2.5627
  660MOL0     H91034   2.510  11.440   6.464  1.6543  1.8038  1.3275
  660MOL0     H91035   2.537  11.266   6.491  1.7973 -1.1134  1.5071
  660MOL0     H91036   2.656  11.294   6.688 -0.9371 -1.2061 -0.2428
  660MOL0     H91037   2.655  11.469   6.680  1.3739 -0.7173 -1.1080
  660MOL0     H91038   2.660  11.377   6.904  2.6585  2.5140  2.5924
  660MOL0     H91039   2.646  11.509   7.259  0.2414 -2.3746  1.6956
  660MOL0     H91040   2.757  11.469   7.124 -1.7865  0.3530 -0.7531
  660MOL0     H91041   2.671  11.344   7.210 -0.6880 -1.6810 -2.2646
  660MOL0     H91042   2.436  11.758   7.451  0.6440 -1.2955  0.2769
  660MOL0     H91043   2.349  11.878   7.636  2.4482 -2.7223 -1.3236
  660MOL0     H91044   2.016  11.811   7.865 -0.5975 -0.6492 -1.2588
  660MOL0     H91045   2.184  11.800   7.811 -0.8581  1.3416 -1.7125
  660MOL0     H91046   2.181  11.940   8.003 -0.2976 -0.4964  0.6295
  660MOL0     H91047   2.224  12.035   7.861  0.2366 -1.0168  0.0071
  660MOL0     H91048   1.958  12.048   8.010  0.7278 -0.4115  0.9800
  660MOL0     H91049   1.975  12.105   7.845  0.2449  1.6830  0.1442
  660MOL0     H91050   2.157  12.253   7.901  0.6844 -1.6255 -0.6454
  660MOL0     H91051   2.159  12.219   8.064 -0.8374 -1.6856  0.2186
  660MOL0     H91052   1.939  12.378   7.917  3.8309  0.1403 -1.0365
  660MOL0     H91053   1.886  12.281   8.047 -1.4015 -0.5684 -0.8513
  660MOL0     H91054   2.098  12.498   8.039 -0.2864 -1.2660 -0.9921
  660MOL0     H91055   2.070  12.385   8.181 -1.7850 -1.8066  0.4908
  660MOL0     H91056   1.840  12.472   8.206 -2.1313  0.1420 -1.7785
  660MOL0     H91057   1.869  12.572   8.051  1.3684 -0.9649 -0.7017
  660MOL0     H91058   2.057  12.674   8.202 -1.3254  0.6618 -1.8655
  660MOL0     H91059   1.993  12.613   8.340  1.3653  2.2399  1.4737
  660MOL0     H91060   1.946  11.826   7.510  1.2003  1.0279 -0.9832
  660MOL0     H91061   2.031  11.708   7.306  0.8413 -1.7051  0.5621
  660MOL0     H91062   2.221  11.562   7.018  1.6488  2.5534 -1.8847
  660MOL0     H91063   2.252  11.456   6.815  1.3856 -2.2009 -0.3379
  660MOL0     H91064   3.187  11.203   5.089 -2.9339 -1.8585  0.0262
  660MOL0     H91065   3.130  11.147   4.889  0.4994  0.1406  2.0996
  660MOL0     H91066   2.857  11.403   4.546  2.5914 -3.3423  2.9988
  660MOL0     H91067   2.722  11.429   4.336 -0.5470  0.9282  1.7400
  660MOL0     H91068   2.383  11.183   4.158 -2.6316 -1.1679  1.8242
  660MOL0     H91069   2.405  11.182   4.337  0.2015 -0.8608 -0.2092
  660MOL0     H91070   2.429  11.453   4.242  1.8361 -1.8927  2.1463
  660MOL0     H91071   2.314  11.389   4.353  1.6888  0.3378  0.5543
  660MOL0     H91072   2.184  11.475   4.218 -1.2225 -3.2457  1.3595
  660MOL0     H91073   2.260  11.426   4.068 -0.7951  4.4737  0.9658
  660MOL0     H91074   2.072  11.270   4.250  1.5313 -1.4715  0.6838
  660MOL0     H91075   2.188  11.184   4.142  1.9745  0.7270  0.3029
  660MOL0     H91076   1.946  11.291   3.834  2.0859 -1.4831 -1.2866
  660MOL0     H91077   2.597  11.019   4.365  2.4090  0.2805 -1.9330
  660MOL0     H91078   2.723  10.881   4.521 -0.9308 -0.0206  0.9006
  660MOL0     H91079   2.827  10.934   4.632  0.6179  1.5977 -0.0151
  660MOL0     H91080   2.652  10.947   4.669  1.4070 -0.3316  2.0105
  661MOL0     O91081  10.699   7.787   5.698  0.3767 -0.1898  0.3454
  661MOL0     C91082  10.612   7.754   5.780  0.2404  0.1080  0.2089
  661MOL0     O91083  10.571   7.625   5.800 -0.5736  0.0153 -0.3980
  661MOL0     C91084  10.664   7.523   5.792 -0.6386 -0.4769  0.5620
  661MOL0     C91085  10.616   7.400   5.758  0.6792  0.3215  0.0080
  661MOL0     C91086  10.698   7.294   5.727  0.3487  0.5623 -0.2373
  661MOL0     C91087  10.838   7.300   5.746  0.2767 -0.0563 -0.3452
  661MOL0     O91088  10.922   7.192   5.733  0.2681 -0.6809 -0.0435
  661MOL0     C91089  10.937   7.138   5.602  0.5229  0.6046  0.0037
  661MOL0     C91090  11.028   7.222   5.517  0.7466 -0.4874  0.4985
  661MOL0     C91091  11.177   7.184   5.519  1.1588  1.1023 -0.6608
  661MOL0     C91092  11.203   7.053   5.431  0.1320 -0.4952 -0.1916
  661MOL0     C91093  11.350   7.004   5.437 -0.8437 -0.1348 -0.2952
  661MOL0     C91094  11.388   6.889   5.338  0.2819 -0.1264  0.2678
  661MOL0     C91095  11.306   6.762   5.368  0.3652 -1.0249  0.1168
  661MOL0     C91096  11.344   6.636   5.305  0.5477  0.2235  0.7446
  661MOL0     N91097  11.277   6.518   5.369  0.6029 -0.2499  0.6773
  661MOL0     C91098  11.183   6.449   5.296 -0.4626 -0.5505 -0.8185
  661MOL0     C91099  11.146   6.347   5.378  0.3664  0.5596  0.7178
  661MOL0     C91100  11.040   6.245   5.352  0.2184 -0.2599 -1.5563
  661MOL0     C91101  10.906   6.303   5.383 -0.4168  0.3171 -1.3793
  661MOL0     C91102  10.793   6.196   5.396 -0.0208 -0.1431 -0.0943
  661MOL0     C91103  10.652   6.256   5.407  0.2362 -0.2649  0.9136
  661MOL0     O91104  10.564   6.146   5.399  0.3030  0.2552 -0.3305
  661MOL0     C91105  10.438   6.166   5.451 -1.0153 -0.3043  0.8047
  661MOL0     C91106  10.422   6.163   5.588  0.7943 -0.5081  0.0425
  661MOL0     C91107  10.293   6.180   5.652 -0.8641  0.1267  1.0025
  661MOL0     C91108  10.291   6.165   5.796  0.5514 -0.4784 -0.1687
  661MOL0     C91109  10.178   6.174   5.574 -0.2257  0.0600  0.6357
  661MOL0     C91110  10.040   6.182   5.618  0.2744  0.2740 -0.1505
  661MOL0     O91111   9.930   6.142   5.532  0.5167 -0.0535  0.1462
  661MOL0     C91112   9.806   6.186   5.557  0.2264  0.4947 -0.0121
  661MOL0     C91113   9.702   6.088   5.548  0.4908 -0.5635 -0.0475
  661MOL0     C91114   9.566   6.120   5.575  1.5630 -0.1397  0.8959
  661MOL0     C91115   9.537   6.259   5.616 -0.1701 -0.0312  0.0253
  661MOL0     O91116   9.406   6.309   5.629  0.1733  0.4274  0.5250
  661MOL0     C91117   9.381   6.445   5.669  0.9627 -0.5296 -0.4867
  661MOL0     C91118   9.234   6.477   5.694 -0.2144 -1.1592  0.1074
  661MOL0     C91119   9.177   6.376   5.789 -0.3551 -0.2574 -0.1827
  661MOL0     C91120   9.029   6.404   5.818  0.4630 -0.5533  0.4177
  661MOL0     C91121   8.952   6.286   5.879  0.1209 -0.2729 -0.6270
  661MOL0     C91122   9.041   6.207   5.974 -0.0015  0.1173  0.8658
  661MOL0     C91123   8.945   6.115   6.063  0.1541  0.2936  0.0670
  661MOL0     C91124   9.012   6.058   6.187  0.1318 -0.6579  0.2715
  661MOL0    Cl91125   9.012   6.177   6.314 -0.2384  0.0464 -0.3014
  661MOL0     C91126   9.646   6.348   5.617  0.0632 -0.0949 -0.3091
  661MOL0     C91127   9.779   6.316   5.594  0.3961  0.1253 -0.0914
  661MOL0     O91128  10.029   6.232   5.728  0.3382  0.4365 -0.2812
  661MOL0     C91129  10.193   6.160   5.435 -0.1049 -0.0014 -0.5572
  661MOL0     C91130  10.319   6.164   5.377  0.3169  0.1251  1.0870
  661MOL0     N91131  11.206   6.366   5.502  0.2311 -0.0321  0.6846
  661MOL0     N91132  11.296   6.463   5.487 -0.0991 -0.0594 -0.2224
  661MOL0     C91133  10.897   7.427   5.778  0.8212 -0.2100 -1.1559
  661MOL0     C91134  10.812   7.535   5.810 -0.2993 -1.3114  0.6584
  661MOL0     C91135  10.526   7.851   5.846  0.6619 -0.1194 -0.3833
  661MOL0     C91136  10.403   7.801   5.904  0.7156 -0.9081  0.0432
  661MOL0     C91137  10.315   7.886   5.978 -0.2672  1.0925  0.4777
  661MOL0     C91138  10.358   8.016   5.999  0.3059  0.3381 -0.4224
  661MOL0     O91139  10.299   8.089   6.108 -0.2150  0.3732  0.9221
  661MOL0     C91140  10.342   8.227   6.142  0.4918  0.0083  0.9918
  661MOL0     C91141  10.284   8.331   6.047 -0.4710 -0.6397 -0.5525
  661MOL0     C91142  10.130   8.351   6.065  0.0989 -0.3114 -0.0825
  661MOL0     C91143  10.067   8.407   5.938  0.3172 -0.2855  0.8095
  661MOL0     C91144  10.127   8.522   5.872  1.2899  0.2114  0.2322
  661MOL0     C91145  10.195   8.611   5.828 -0.6289 -0.0951  0.0939
  661MOL0     C91146  10.466   8.074   5.932  0.2530  0.2385  0.8334
  661MOL0     C91147  10.550   7.994   5.853  0.2288  0.6624  0.0005
  661MOL0     C91148  10.669   8.053   5.777 -0.9549  0.2329 -0.1940
  661MOL0     H91149  10.517   7.384   5.718  0.0123 -1.4951  2.1951
  661MOL0     H91150  10.658   7.198   5.696  1.7492 -0.3339  0.6063
  661MOL0     H91151  10.840   7.128   5.552  0.6463  0.5872 -0.2332
  661MOL0     H91152  10.982   7.039   5.618  0.7663  1.0017  2.0320
  661MOL0     H91153  10.977   7.215   5.420 -0.1058  3.4815  0.5260
  661MOL0     H91154  11.013   7.327   5.540  0.9478 -0.1443 -0.8416
  661MOL0     H91155  11.236   7.271   5.489  1.1947  1.8287  1.3416
  661MOL0     H91156  11.198   7.161   5.624 -4.0548 -4.8633 -0.3076
  661MOL0     H91157  11.137   6.968   5.453  0.1227 -1.2068 -2.5849
  661MOL0     H91158  11.180   7.082   5.328  2.4053 -1.5609 -1.0705
  661MOL0     H91159  11.356   6.977   5.542 -0.2118  0.2325 -0.2311
  661MOL0     H91160  11.421   7.087   5.429 -1.0345  0.5273  3.4143
  661MOL0     H91161  11.373   6.910   5.231 -0.7151  1.0889  0.6224
  661MOL0     H91162  11.492   6.860   5.353  0.0469 -1.5181 -0.5066
  661MOL0     H91163  11.202   6.774   5.339 -0.0809 -1.6947  1.3647
  661MOL0     H91164  11.300   6.745   5.476 -1.3026 -4.3251 -0.3801
  661MOL0     H91165  11.313   6.638   5.201 -2.2671 -4.6285  1.1767
  661MOL0     H91166  11.450   6.610   5.311  0.3024 -0.7220  1.2990
  661MOL0     H91167  11.153   6.469   5.193  1.1281  1.9970 -0.9027
  661MOL0     H91168  11.057   6.151   5.407  0.6261  1.2653  1.1411
  661MOL0     H91169  11.051   6.236   5.244  1.3697  1.1099 -1.5669
  661MOL0     H91170  10.902   6.363   5.475 -3.7499 -1.4395 -0.1990
  661MOL0     H91171  10.901   6.380   5.305 -0.7947  2.0746  0.3098
  661MOL0     H91172  10.812   6.119   5.320 -2.4069 -1.7551  0.8127
  661MOL0     H91173  10.812   6.142   5.490  0.8499 -0.0616 -0.2102
  661MOL0     H91174  10.632   6.314   5.497 -6.5102  0.7153 -0.7211
  661MOL0     H91175  10.628   6.324   5.326 -1.1670 -1.4273  0.3074
  661MOL0     H91176  10.502   6.154   5.662 -0.9770 -0.4132  2.0742
  661MOL0     H91177  10.386   6.137   5.842  0.8521  1.3517  0.4296
  661MOL0     H91178  10.222   6.090   5.835  1.9215 -0.4115  2.6773
  661MOL0     H91179  10.275   6.264   5.840 -0.4831  1.2279 -3.9346
  661MOL0     H91180   9.737   5.988   5.529  0.8336 -0.4622  0.0542
  661MOL0     H91181   9.482   6.052   5.578 -0.1034  1.6591 -1.3762
  661MOL0     H91182   9.430   6.465   5.764 -3.0587 -1.7608  2.0829
  661MOL0     H91183   9.420   6.519   5.599 -0.7584  0.8530 -0.0410
  661MOL0     H91184   9.209   6.572   5.743  2.0358 -1.9759  3.1452
  661MOL0     H91185   9.183   6.474   5.597 -1.6873  0.0192  0.8091
  661MOL0     H91186   9.227   6.394   5.885 -0.6383 -0.0326 -0.0767
  661MOL0     H91187   9.195   6.272   5.759 -1.5660 -0.2569 -0.9693
  661MOL0     H91188   8.979   6.444   5.729 -0.4125  1.8796  1.9057
  661MOL0     H91189   9.029   6.486   5.891 -3.8365  1.1805 -1.1440
  661MOL0     H91190   8.867   6.331   5.932  1.5599  1.6811  0.1000
  661MOL0     H91191   8.928   6.230   5.787 -0.3312 -0.0212 -0.6677
  661MOL0     H91192   9.086   6.285   6.036 -0.2776  1.5175 -0.6246
  661MOL0     H91193   9.112   6.150   5.913 -1.6198  0.4596 -1.4541
  661MOL0     H91194   8.917   6.028   6.002  2.4044  0.2408 -1.0314
  661MOL0     H91195   8.862   6.182   6.085 -0.1467  0.0619 -0.3286
  661MOL0     H91196   9.119   6.034   6.177  0.5047 -0.0272  2.2905
  661MOL0     H91197   8.961   5.963   6.207 -2.8220  0.8814  0.5737
  661MOL0     H91198   9.625   6.451   5.643  2.0049  0.2255  0.1388
  661MOL0     H91199   9.865   6.382   5.603  3.8828 -4.0400  0.2190
  661MOL0     H91200  10.109   6.166   5.366  2.1857  0.5028 -3.5033
  661MOL0     H91201  10.327   6.162   5.269 -0.6811 -2.0899  1.0120
  661MOL0     H91202  11.004   7.422   5.795  0.8814 -4.4347 -1.5119
  661MOL0     H91203  10.856   7.625   5.851 -1.0071  1.1837 -3.4233
  661MOL0     H91204  10.371   7.697   5.894  0.7176 -0.8143 -1.0445
  661MOL0     H91205  10.228   7.858   6.037  2.0463 -0.9573  3.1655
  661MOL0     H91206  10.310   8.237   6.246  0.5968 -0.9827  1.1293
  661MOL0     H91207  10.452   8.233   6.147  0.4894  0.1054  0.9505
  661MOL0     H91208  10.318   8.305   5.946  1.5487  1.3908 -0.4792
  661MOL0     H91209  10.324   8.428   6.077 -1.0416 -0.9082  1.1422
  661MOL0     H91210  10.091   8.257   6.106  3.0982 -0.6393  2.4316
  661MOL0     H91211  10.119   8.434   6.135  3.1060  1.0289 -1.0139
  661MOL0     H91212   9.961   8.428   5.955  0.5732  1.6935  0.1648
  661MOL0     H91213  10.071   8.325   5.866  0.9644 -0.1329  0.6598
  661MOL0     H91214  10.251   8.701   5.814  1.5728 -1.3006  0.6263
  661MOL0     H91215  10.494   8.179   5.934  0.0474  0.3816 -1.3826
  661MOL0     H91216  10.760   8.018   5.827 -0.9845  1.2951  0.6392
  661MOL0     H91217  10.673   8.024   5.672 -1.1338  0.0658 -0.1547
  661MOL0     H91218  10.663   8.162   5.783 -0.5951  0.7964 -5.5286
  662MOL0     O91219   0.737  10.389   5.780  0.2008  0.4243 -0.1353
  662MOL0     C91220   0.771  10.505   5.757  0.2421 -0.0952 -0.7879
  662MOL0     O91221   0.695  10.612   5.750  0.0264  0.3038 -0.1226
  662MOL0     C91222   0.569  10.616   5.805  0.1742 -0.1479  0.3066
  662MOL0     C91223   0.494  10.732   5.772 -0.0898  0.0846 -0.4141
  662MOL0     C91224   0.372  10.764   5.825  0.0200 -0.0384  0.4843
  662MOL0     C91225   0.308  10.660   5.900  0.1793 -0.0120  1.0840
  662MOL0     O91226   0.178  10.683   5.934  0.6016 -0.6541 -0.1663
  662MOL0     C91227   0.115  10.602   6.039 -0.1257  0.5472  0.1085
  662MOL0     C91228  -0.008  10.679   6.099 -0.4860 -0.8015 -0.0009
  662MOL0     C91229  -0.099  10.589   6.187  0.3261  0.1558 -0.1203
  662MOL0     C91230  -0.239  10.645   6.213 -0.4773  0.0482  0.4392
  662MOL0     C91231  -0.329  10.537   6.270 -0.6920  0.4259 -0.2864
  662MOL0     C91232  -0.464  10.596   6.303 -0.5923 -0.3508 -0.2854
  662MOL0     C91233  -0.557  10.492   6.338  0.5261  1.1021  0.3691
  662MOL0     C91234  -0.690  10.549   6.388  0.0243 -0.7974 -0.8461
  662MOL0     N91235  -0.792  10.467   6.449  0.3837 -0.1098 -0.4730
  662MOL0     C91236  -0.838  10.355   6.387  0.3654  0.2015  0.6745
  662MOL0     C91237  -0.935  10.313   6.475  0.3194  0.0704 -0.0743
  662MOL0     C91238  -1.013  10.194   6.446 -0.0218  0.7674  0.2378
  662MOL0     C91239  -1.140  10.219   6.367 -0.0422  0.9294  1.0513
  662MOL0     C91240  -1.239  10.309   6.443  0.7880 -0.6652 -0.3895
  662MOL0     C91241  -1.384  10.305   6.391 -0.8688 -0.8327 -0.0059
  662MOL0     O91242  -1.369  10.343   6.250 -0.4063 -0.4855 -1.2472
  662MOL0     C91243  -1.487  10.344   6.183  0.0356  0.3698  0.9651
  662MOL0     C91244  -1.599  10.408   6.228  0.3825 -0.3565 -0.3882
  662MOL0     C91245  -1.714  10.410   6.150  0.3935  0.5832 -0.0147
  662MOL0     C91246  -1.833  10.477   6.207 -0.7090  0.0021  0.1191
  662MOL0     C91247  -1.718  10.359   6.015 -0.2123  0.2481 -0.0004
  662MOL0     C91248  -1.844  10.351   5.942 -0.1823 -0.2467  0.2756
  662MOL0     O91249  -1.963  10.306   6.000 -0.5438  0.6616  0.8201
  662MOL0     C91250  -2.073  10.319   5.925  0.6562  0.4558 -0.0052
  662MOL0     C91251  -2.104  10.233   5.815  0.5801 -0.1193 -0.7010
  662MOL0     C91252  -2.216  10.250   5.724 -0.4810 -0.3943 -0.4778
  662MOL0     C91253  -2.312  10.354   5.749 -0.4379 -0.3516  0.5678
  662MOL0     O91254  -2.405  10.380   5.655  0.2615  0.2498  0.0871
  662MOL0     C91255  -2.528  10.446   5.681 -0.5431 -0.4297 -0.1096
  662MOL0     C91256  -2.647  10.352   5.626  0.2808 -0.1505  0.2422
  662MOL0     C91257  -2.617  10.311   5.480  0.0982 -0.3290 -0.7670
  662MOL0     C91258  -2.727  10.212   5.421 -0.5820 -0.4944 -0.2097
  662MOL0     C91259  -2.738  10.245   5.268 -0.0012  0.0911 -0.6775
  662MOL0     C91260  -2.646  10.157   5.183  0.7525 -0.5751 -0.1445
  662MOL0     C91261  -2.655  10.191   5.031  0.4126 -0.1820  0.5454
  662MOL0     C91262  -2.607  10.063   4.958 -0.4040 -0.1285 -0.5002
  662MOL0    Cl91263  -2.587  10.122   4.790 -0.2047 -0.3091 -0.4665
  662MOL0     C91264  -2.287  10.443   5.856 -0.3039  0.4856  0.0312
  662MOL0     C91265  -2.176  10.420   5.948  0.6368 -1.0858 -0.0041
  662MOL0     O91266  -1.820  10.363   5.817  0.8100  0.3441 -1.3604
  662MOL0     C91267  -1.596  10.300   5.969  0.2412 -0.2209 -1.8513
  662MOL0     C91268  -1.479  10.297   6.051  0.5951  0.1984 -0.2836
  662MOL0     N91269  -0.937  10.396   6.583  0.0557 -0.4373  0.4200
  662MOL0     N91270  -0.857  10.487   6.568 -1.0149 -0.9582 -1.4742
  662MOL0     C91271   0.381  10.544   5.928 -0.2981 -0.6352  0.0831
  662MOL0     C91272   0.513  10.526   5.893  1.3468  0.5252 -0.3475
  662MOL0     C91273   0.919  10.529   5.753 -0.2812  0.9126 -0.0760
  662MOL0     C91274   0.976  10.652   5.792 -0.2594  0.7955 -0.6788
  662MOL0     C91275   1.106  10.697   5.757 -0.0822 -0.2262 -0.1826
  662MOL0     C91276   1.192  10.599   5.697  0.0188  0.4044  0.1136
  662MOL0     O91277   1.320  10.632   5.663  0.6947  0.0467 -0.3857
  662MOL0     C91278   1.316  10.674   5.521  0.6437 -0.2857 -0.8217
  662MOL0     C91279   1.420  10.775   5.481 -0.4766 -0.3197 -0.1312
  662MOL0     C91280   1.422  10.906   5.563 -0.5986 -0.1920 -0.3403
  662MOL0     C91281   1.287  10.975   5.554 -0.2716 -0.4839  0.2954
  662MOL0     C91282   1.303  11.121   5.568  0.0984 -0.4924  0.0235
  662MOL0     C91283   1.302  11.245   5.560 -0.0044 -0.1044  0.4573
  662MOL0     C91284   1.145  10.466   5.663  0.4333  0.4200 -0.6797
  662MOL0     C91285   1.006  10.432   5.682  0.2731 -1.1639 -0.1422
  662MOL0     C91286   0.970  10.286   5.658  0.1678  0.6556  0.5464
  662MOL0     H91287   0.538  10.800   5.699  3.1428 -1.7424 -0.3409
  662MOL0     H91288   0.321  10.859   5.809 -1.0218 -0.7376 -0.4190
  662MOL0     H91289   0.187  10.571   6.115 -0.1149  0.6389  0.1362
  662MOL0     H91290   0.080  10.511   5.991 -0.5504  0.0580  1.3029
  662MOL0     H91291   0.036  10.763   6.153  1.2336  1.2802 -4.2008
  662MOL0     H91292  -0.058  10.725   6.013  0.5545 -0.7584 -0.5934
  662MOL0     H91293  -0.109  10.499   6.127  0.5403  0.1498 -0.1491
  662MOL0     H91294  -0.057  10.560   6.284 -1.7848 -1.4659  0.3887
  662MOL0     H91295  -0.226  10.732   6.278  0.4868  1.4319 -1.5008
  662MOL0     H91296  -0.275  10.684   6.117 -0.7179 -1.9544 -0.3436
  662MOL0     H91297  -0.285  10.492   6.360  0.7837  0.5230 -0.9427
  662MOL0     H91298  -0.347  10.462   6.193  0.1744 -0.6189  0.4988
  662MOL0     H91299  -0.451  10.656   6.393  0.2720 -1.0749  0.0820
  662MOL0     H91300  -0.515  10.653   6.224 -4.3266 -0.2443  1.9955
  662MOL0     H91301  -0.514  10.429   6.416 -1.6416  1.4198  1.9355
  662MOL0     H91302  -0.587  10.437   6.249 -3.1907  3.6971 -0.2456
  662MOL0     H91303  -0.659  10.616   6.469 -0.5522 -1.9936  0.3929
  662MOL0     H91304  -0.726  10.620   6.313 -1.2420 -1.2435 -0.6786
  662MOL0     H91305  -0.804  10.307   6.297  1.4202  0.0302  1.1487
  662MOL0     H91306  -1.040  10.156   6.545 -0.2996 -0.2401 -0.2162
  662MOL0     H91307  -0.959  10.114   6.393 -1.3363 -0.6050  0.9169
  662MOL0     H91308  -1.115  10.255   6.267  2.6912 -1.7961  0.5945
  662MOL0     H91309  -1.193  10.123   6.362  1.2083  0.1650  1.7224
  662MOL0     H91310  -1.237  10.280   6.548 -1.4215 -0.7981 -0.3450
  662MOL0     H91311  -1.187  10.403   6.422  1.0777 -1.0347 -1.3989
  662MOL0     H91312  -1.426  10.204   6.396 -1.7612 -0.5497 -1.3118
  662MOL0     H91313  -1.458  10.365   6.444  0.7406 -1.2271  2.8582
  662MOL0     H91314  -1.603  10.459   6.324  2.1650  2.3440 -1.6380
  662MOL0     H91315  -1.881  10.540   6.131  1.9317  0.4133 -1.3278
  662MOL0     H91316  -1.806  10.538   6.293  1.9202  0.6282 -1.0637
  662MOL0     H91317  -1.910  10.411   6.250 -0.7729 -0.8946 -1.3005
  662MOL0     H91318  -2.039  10.150   5.790  0.2247  0.2439 -3.0121
  662MOL0     H91319  -2.225  10.188   5.635  1.0954  0.5046 -1.3038
  662MOL0     H91320  -2.552  10.450   5.788  0.5713 -3.2317  0.3414
  662MOL0     H91321  -2.516  10.545   5.636  2.8755  0.7115  2.8288
  662MOL0     H91322  -2.653  10.255   5.676 -1.7327 -1.0935 -1.6626
  662MOL0     H91323  -2.742  10.405   5.631  0.2394 -0.1267 -0.7025
  662MOL0     H91324  -2.526  10.250   5.472  1.1808  1.1085  0.0693
  662MOL0     H91325  -2.596  10.399   5.420 -0.1616 -1.4899 -2.6500
  662MOL0     H91326  -2.822  10.209   5.474  0.6502  3.4626  2.7137
  662MOL0     H91327  -2.682  10.114   5.436  1.7522 -0.5721 -5.4436
  662MOL0     H91328  -2.844  10.231   5.246 -0.5942  2.3090  0.4539
  662MOL0     H91329  -2.734  10.353   5.250 -1.4567 -0.0254 -1.8607
  662MOL0     H91330  -2.679  10.055   5.205  1.8059 -1.1351 -1.0765
  662MOL0     H91331  -2.544  10.150   5.222 -0.0827 -2.7998  1.8896
  662MOL0     H91332  -2.597  10.281   5.014 -1.6963  1.3134  0.8194
  662MOL0     H91333  -2.758  10.211   4.997 -0.0844 -2.4146  0.5447
  662MOL0     H91334  -2.670   9.975   4.970 -0.4300 -0.3140 -1.9144
  662MOL0     H91335  -2.507  10.042   4.999 -0.9505  0.6107  1.3385
  662MOL0     H91336  -2.349  10.529   5.879  0.7606  1.2410  0.2033
  662MOL0     H91337  -2.161  10.491   6.029  0.7273  1.2584 -1.9651
  662MOL0     H91338  -1.584  10.272   5.865  4.3903 -0.2222 -1.5383
  662MOL0     H91339  -1.377  10.277   6.020  1.1855  1.3660  0.8172
  662MOL0     H91340   0.330  10.457   5.968 -0.9128 -1.5290 -2.4819
  662MOL0     H91341   0.554  10.433   5.930 -1.0407  0.1694  1.6502
  662MOL0     H91342   0.910  10.722   5.843 -2.0244 -1.1484 -0.1463
  662MOL0     H91343   1.146  10.792   5.791 -1.6507 -0.7964  3.9136
  662MOL0     H91344   1.330  10.579   5.468 -2.7651 -0.1417 -2.2108
  662MOL0     H91345   1.217  10.716   5.500  1.8489  1.9391 -2.4933
  662MOL0     H91346   1.438  10.795   5.375 -4.6721  1.3755 -0.7283
  662MOL0     H91347   1.515  10.726   5.505  1.2263  1.9834 -1.7537
  662MOL0     H91348   1.438  10.871   5.665 -1.7578 -3.4991 -1.1690
  662MOL0     H91349   1.513  10.958   5.530 -0.0509 -1.1035 -0.2859
  662MOL0     H91350   1.222  10.945   5.637  0.2595  0.2610  0.9980
  662MOL0     H91351   1.241  10.959   5.457  0.9687 -1.2877 -0.1885
  662MOL0     H91352   1.307  11.352   5.558  0.6429 -0.1109 -1.9561
  662MOL0     H91353   1.218  10.398   5.620 -0.2399 -0.9040  0.2013
  662MOL0     H91354   0.876  10.266   5.605  1.3780 -1.6142 -0.9102
  662MOL0     H91355   1.041  10.224   5.603  0.9105 -0.1185  2.2765
  662MOL0     H91356   0.963  10.241   5.758  0.4382 -0.6213  0.0150
  663MOL0     O91357   8.224   8.930   5.120  0.4367 -0.4575  0.7620
  663MOL0     C91358   8.246   9.031   5.062  0.0752 -0.5387  0.2308
  663MOL0     O91359   8.264   9.155   5.120 -0.1009 -0.8865  0.4568
  663MOL0     C91360   8.353   9.144   5.222 -0.1451  0.3537 -0.0134
  663MOL0     C91361   8.492   9.145   5.186  0.2119 -0.6761 -0.1884
  663MOL0     C91362   8.592   9.158   5.288 -0.1493 -0.7453  0.7211
  663MOL0     C91363   8.544   9.175   5.421 -0.2679 -0.5232 -0.4381
  663MOL0     O91364   8.648   9.187   5.507  0.4484  0.4287 -0.4687
  663MOL0     C91365   8.636   9.190   5.649  0.3655  0.6480  0.2979
  663MOL0     C91366   8.644   9.333   5.701 -0.5005  0.0841  0.5185
  663MOL0     C91367   8.665   9.346   5.849  0.7850 -0.5748  0.5723
  663MOL0     C91368   8.538   9.291   5.929 -0.8613  0.2393 -0.1498
  663MOL0     C91369   8.496   9.393   6.048  1.0307  0.4231  0.8659
  663MOL0     C91370   8.390   9.495   5.983 -0.2841  0.0389  0.0134
  663MOL0     C91371   8.341   9.606   6.073 -0.6353 -0.4936 -0.0662
  663MOL0     C91372   8.192   9.626   6.057 -0.8509  0.5712 -1.5069
  663MOL0     N91373   8.141   9.753   6.106 -0.0522 -0.0394 -0.0407
  663MOL0     C91374   8.205   9.841   6.190  0.1922  0.1068 -0.0069
  663MOL0     C91375   8.127   9.947   6.185  0.1273 -0.3059  0.3455
  663MOL0     C91376   8.157  10.086   6.236 -0.5304  0.7239  0.0012
  663MOL0     C91377   8.142  10.089   6.381 -0.3977  0.0112 -0.7680
  663MOL0     C91378   7.999  10.093   6.440  1.1777 -0.1143 -0.8928
  663MOL0     C91379   8.007  10.114   6.591 -0.4937 -0.6331  1.2249
  663MOL0     O91380   8.058  10.246   6.629  1.4200  0.1201  0.5912
  663MOL0     C91381   7.971  10.343   6.649 -0.3963  1.0045 -0.3554
  663MOL0     C91382   7.850  10.366   6.580 -0.4281  0.6948  0.8150
  663MOL0     C91383   7.769  10.475   6.615  0.0924  0.3321 -0.4985
  663MOL0     C91384   7.643  10.496   6.523 -1.3160  0.2789 -0.3467
  663MOL0     C91385   7.815  10.569   6.714 -0.4534  0.5869  1.3589
  663MOL0     C91386   7.734  10.682   6.759 -1.6778  0.2478  0.0471
  663MOL0     O91387   7.737  10.702   6.889  0.1831  0.0636  0.5382
  663MOL0     C91388   7.657  10.815   6.930 -0.6628 -0.2465 -0.6579
  663MOL0     C91389   7.523  10.811   6.949  0.2696 -0.6294 -0.2424
  663MOL0     C91390   7.456  10.932   6.978  0.0116 -0.2036 -1.0885
  663MOL0     C91391   7.523  11.055   7.015  0.2984  0.3773 -0.5477
  663MOL0     O91392   7.459  11.172   7.053  0.0049  0.2594 -0.0961
  663MOL0     C91393   7.329  11.187   7.014  0.2082  0.0570  0.0033
  663MOL0     C91394   7.301  11.336   6.996 -0.5191 -0.1700 -1.5926
  663MOL0     C91395   7.405  11.398   6.894 -0.0543  0.3639  0.0487
  663MOL0     C91396   7.509  11.488   6.970 -0.0649 -0.1453 -0.3212
  663MOL0     C91397   7.615  11.543   6.879 -0.2000 -0.3018 -0.8102
  663MOL0     C91398   7.710  11.637   6.952 -1.3746 -0.0909 -0.2336
  663MOL0     C91399   7.819  11.688   6.855  0.3383 -0.3437 -0.0995
  663MOL0     C91400   7.931  11.736   6.943 -0.7468 -0.5755  0.4382
  663MOL0    Cl91401   8.056  11.790   6.841 -0.0625 -0.3614 -0.2201
  663MOL0     C91402   7.668  11.046   7.007  0.0930  0.4786  0.2680
  663MOL0     C91403   7.730  10.928   6.954 -0.1603 -0.9180 -0.6410
  663MOL0     O91404   7.689  10.752   6.670 -0.8265  0.5516  0.8252
  663MOL0     C91405   7.935  10.543   6.775 -0.3129  0.0255 -0.6167
  663MOL0     C91406   8.016  10.439   6.741  0.5898 -0.2639  0.1753
  663MOL0     N91407   8.024   9.925   6.097 -0.4346  0.1199 -0.3000
  663MOL0     N91408   8.035   9.810   6.045  0.4461 -0.1550  1.3343
  663MOL0     C91409   8.409   9.179   5.460 -0.0139  0.7073  0.2136
  663MOL0     C91410   8.309   9.165   5.353 -0.2442 -0.0360  0.1680
  663MOL0     C91411   8.221   9.019   4.915 -0.1995 -0.2460 -0.2285
  663MOL0     C91412   8.201   9.133   4.831 -0.7147  0.1109 -0.6375
  663MOL0     C91413   8.194   9.135   4.690  0.1398  0.3891 -0.5670
  663MOL0     C91414   8.208   9.014   4.628 -0.8671  0.2134  0.5827
  663MOL0     O91415   8.198   9.005   4.496  0.2981 -0.0757  0.2181
  663MOL0     C91416   8.072   9.050   4.436  0.3757 -0.0852 -0.4421
  663MOL0     C91417   7.987   8.924   4.436  0.7576 -0.0355  0.3339
  663MOL0     C91418   8.044   8.818   4.348  0.3849  0.1293 -0.0879
  663MOL0     C91419   7.953   8.706   4.347 -0.2608  0.5203  0.0873
  663MOL0     C91420   7.985   8.594   4.276  0.6570  0.6233 -0.4880
  663MOL0     C91421   8.007   8.479   4.227 -0.2167  0.4480  0.0296
  663MOL0     C91422   8.230   8.896   4.700 -0.6748  0.0047 -0.3491
  663MOL0     C91423   8.236   8.896   4.843 -0.4332  0.3763 -0.0255
  663MOL0     C91424   8.279   8.763   4.904  0.4751  0.0371  0.5674
  663MOL0     H91425   8.522   9.128   5.084  4.2865  3.2850  0.0681
  663MOL0     H91426   8.697   9.156   5.260 -0.5151 -0.7069 -0.7411
  663MOL0     H91427   8.713   9.129   5.697 -1.5906  0.0327  2.9023
  663MOL0     H91428   8.542   9.145   5.681  1.0406  0.3320  1.9769
  663MOL0     H91429   8.741   9.364   5.661 -1.0948 -0.5145 -1.4874
  663MOL0     H91430   8.564   9.399   5.667  0.6120  2.5127  2.2788
  663MOL0     H91431   8.762   9.316   5.891  1.5998  2.1957  0.8264
  663MOL0     H91432   8.673   9.454   5.859  1.3713 -0.5518 -0.0443
  663MOL0     H91433   8.451   9.264   5.869  0.9609  1.8511 -3.8764
  663MOL0     H91434   8.577   9.199   5.973 -1.4855  0.7967  1.6507
  663MOL0     H91435   8.583   9.442   6.092  1.2328 -0.5773  1.6076
  663MOL0     H91436   8.447   9.325   6.118 -0.3534  0.6840  0.1900
  663MOL0     H91437   8.439   9.533   5.892  0.8155 -2.8615 -0.7025
  663MOL0     H91438   8.304   9.433   5.957  0.1601  0.1067 -1.7817
  663MOL0     H91439   8.396   9.699   6.051 -2.4458  0.8542  0.8447
  663MOL0     H91440   8.350   9.567   6.175 -1.2780 -0.9071 -0.1611
  663MOL0     H91441   8.148   9.599   5.960 -1.4255 -4.4306 -0.1340
  663MOL0     H91442   8.146   9.550   6.121  1.1360  1.3140  0.9785
  663MOL0     H91443   8.296   9.823   6.247  0.8066 -0.3524 -1.0726
  663MOL0     H91444   8.092  10.157   6.184 -0.9139  0.4269  0.0705
  663MOL0     H91445   8.257  10.114   6.201 -0.4885  0.5761  0.0005
  663MOL0     H91446   8.195  10.005   6.428 -0.8074  0.5181  0.6546
  663MOL0     H91447   8.182  10.184   6.418 -0.8685  0.6693 -1.9021
  663MOL0     H91448   7.961  10.169   6.371  2.2413  1.4876  0.2178
  663MOL0     H91449   7.959   9.991   6.430  2.4574 -0.5664 -1.5594
  663MOL0     H91450   7.905  10.102   6.628 -0.6603 -2.0999  0.3848
  663MOL0     H91451   8.070  10.035   6.633  0.8025 -0.4978 -0.3297
  663MOL0     H91452   7.816  10.296   6.504  2.1265  0.5318 -0.2670
  663MOL0     H91453   7.655  10.591   6.471  1.2258 -0.1676 -0.7363
  663MOL0     H91454   7.561  10.479   6.592 -0.6571 -1.3781  0.0773
  663MOL0     H91455   7.641  10.422   6.443 -1.1292 -0.4183  0.2828
  663MOL0     H91456   7.466  10.718   6.951 -0.6832 -0.0443  0.9053
  663MOL0     H91457   7.349  10.935   6.991  0.2581  0.0604  1.3897
  663MOL0     H91458   7.315  11.138   6.917  0.8984 -0.2605  0.0571
  663MOL0     H91459   7.257  11.143   7.084 -0.0151 -0.6932 -0.6773
  663MOL0     H91460   7.199  11.361   6.965 -1.6953  0.7823  2.3978
  663MOL0     H91461   7.305  11.379   7.097 -0.8415  1.5435 -2.2813
  663MOL0     H91462   7.345  11.458   6.826  1.0561 -1.3773 -2.6196
  663MOL0     H91463   7.458  11.330   6.826 -2.1243 -1.3363  0.0322
  663MOL0     H91464   7.561  11.424   7.042 -0.5389  0.3252  0.4506
  663MOL0     H91465   7.453  11.561   7.030  0.3281 -0.5983  0.6233
  663MOL0     H91466   7.674  11.461   6.836  0.3569 -1.5538  2.0907
  663MOL0     H91467   7.561  11.584   6.793 -1.5358 -2.4156 -1.0658
  663MOL0     H91468   7.751  11.605   7.048 -1.9482 -0.3646 -0.0721
  663MOL0     H91469   7.663  11.734   6.973 -0.7616  0.3528 -0.8995
  663MOL0     H91470   7.781  11.772   6.796  1.6058  0.7694  0.6167
  663MOL0     H91471   7.852  11.614   6.781  0.5450  1.8340 -2.3186
  663MOL0     H91472   7.963  11.655   7.009  5.4149 -0.2579 -1.5890
  663MOL0     H91473   7.909  11.826   7.002  0.7118  1.1373 -1.5052
  663MOL0     H91474   7.728  11.134   7.031  0.4018 -0.1672  1.9766
  663MOL0     H91475   7.833  10.921   6.919 -0.3182  1.0864 -1.6320
  663MOL0     H91476   7.970  10.607   6.856 -2.8717 -1.5905  1.9694
  663MOL0     H91477   8.106  10.424   6.799 -0.2638 -3.3099  0.9054
  663MOL0     H91478   8.366   9.191   5.559  1.1468 -2.5513  1.2350
  663MOL0     H91479   8.201   9.165   5.367 -0.5449 -1.7464 -1.7625
  663MOL0     H91480   8.196   9.219   4.897  0.1528 -1.3016  1.3730
  663MOL0     H91481   8.183   9.234   4.648 -2.8356  0.7075  0.7242
  663MOL0     H91482   8.033   9.138   4.488  1.7438  1.3693 -1.7338
  663MOL0     H91483   8.082   9.083   4.332 -1.2136  0.6440 -0.3904
  663MOL0     H91484   7.891   8.944   4.388 -0.1032 -2.9905  0.6054
  663MOL0     H91485   7.964   8.881   4.534 -2.1202 -3.8655 -1.7631
  663MOL0     H91486   8.056   8.854   4.245  0.9817 -1.2125 -0.5025
  663MOL0     H91487   8.143   8.783   4.379  0.3142 -0.1768 -0.2084
  663MOL0     H91488   7.865   8.741   4.290 -0.2146  1.0921  0.3654
  663MOL0     H91489   7.921   8.676   4.447  2.3708 -2.3588  0.2194
  663MOL0     H91490   8.009   8.383   4.179 -2.6170 -1.4711  3.3573
  663MOL0     H91491   8.241   8.806   4.640 -1.6514  0.5123 -1.3311
  663MOL0     H91492   8.280   8.691   4.822  0.0623 -0.4866  1.0076
  663MOL0     H91493   8.383   8.765   4.936  0.9804  4.9781 -0.6524
  663MOL0     H91494   8.215   8.722   4.983 -0.3207  2.3866  1.2215
  664MOL0     O91495   2.219   7.734  11.149  0.2326  0.0693 -0.3347
  664MOL0     C91496   2.103   7.779  11.170 -0.4246  0.8519  0.2552
  664MOL0     O91497   2.075   7.912  11.179  0.2058  0.6291 -0.8654
  664MOL0     C91498   2.169   8.017  11.186 -1.2649  0.8558 -0.0297
  664MOL0     C91499   2.233   8.058  11.304  0.0708 -0.2363  0.1456
  664MOL0     C91500   2.313   8.175  11.305  0.5579  0.3103  0.2294
  664MOL0     C91501   2.317   8.264  11.196  0.4064 -0.0989 -0.4147
  664MOL0     O91502   2.361   8.398  11.215  0.2276  0.2546 -0.2471
  664MOL0     C91503   2.277   8.505  11.191 -0.6960 -0.0233  0.5216
  664MOL0     C91504   2.355   8.636  11.206  0.0331 -0.9410  0.7358
  664MOL0     C91505   2.264   8.761  11.226 -0.5430  0.3811  0.8037
  664MOL0     C91506   2.343   8.896  11.240 -0.2286  0.7731 -0.2477
  664MOL0     C91507   2.268   9.022  11.276  0.8774  0.6692  0.1048
  664MOL0     C91508   2.197   9.015  11.412  0.1871  0.6402  0.0310
  664MOL0     C91509   2.117   9.144  11.436 -0.1200  0.0442  0.3316
  664MOL0     C91510   2.049   9.141  11.571  1.0931 -0.1499  0.6689
  664MOL0     N91511   1.947   9.042  11.591  0.4201 -0.4805  0.4189
  664MOL0     C91512   1.966   8.938  11.676 -1.0115 -0.7015  0.9391
  664MOL0     C91513   1.846   8.879  11.671 -0.2490 -0.2857 -0.1019
  664MOL0     C91514   1.809   8.765  11.755 -0.5993  0.3551  0.6299
  664MOL0     C91515   1.772   8.642  11.672  0.1417 -1.3497 -1.0444
  664MOL0     C91516   1.760   8.522  11.772  0.5223 -0.1613 -0.3725
  664MOL0     C91517   1.723   8.395  11.694  1.5740 -0.0384 -0.5543
  664MOL0     O91518   1.828   8.301  11.691  0.6282  0.0963  0.5966
  664MOL0     C91519   1.801   8.184  11.754 -0.2715  0.2801 -0.1314
  664MOL0     C91520   1.816   8.066  11.683  0.2519  0.8285 -0.2465
  664MOL0     C91521   1.795   7.937  11.734 -0.4695  0.0385  0.4346
  664MOL0     C91522   1.822   7.812  11.648 -0.0519 -0.7522 -0.3881
  664MOL0     C91523   1.757   7.926  11.866  0.4264 -0.6416  0.9357
  664MOL0     C91524   1.734   7.791  11.922 -0.0098  0.0045 -0.0207
  664MOL0     O91525   1.829   7.726  11.997 -1.1187  0.0249 -0.2997
  664MOL0     C91526   1.789   7.620  12.068  0.0186  0.4899  0.0390
  664MOL0     C91527   1.873   7.507  12.081 -0.2548  0.4713 -0.1070
  664MOL0     C91528   1.836   7.410  12.175 -0.8677 -0.4575 -0.9377
  664MOL0     C91529   1.721   7.427  12.256 -0.1348  0.9359 -0.1196
  664MOL0     O91530   1.681   7.328  12.344  0.6459 -0.0166 -0.5030
  664MOL0     C91531   1.564   7.243  12.317 -0.9122  0.0948 -0.6348
  664MOL0     C91532   1.606   7.108  12.251 -0.1721  0.1346 -0.3268
  664MOL0     C91533   1.506   7.059  12.145  0.0569  0.3794  0.1484
  664MOL0     C91534   1.537   7.118  12.012  0.4812 -0.2505  0.0156
  664MOL0     C91535   1.466   7.249  11.991 -0.2161  0.3723 -0.5566
  664MOL0     C91536   1.442   7.306  11.840 -0.9252  1.7817  0.1386
  664MOL0     C91537   1.581   7.307  11.755  0.9331  0.0766  1.2016
  664MOL0     C91538   1.676   7.425  11.808  0.4260 -1.1577  0.3045
  664MOL0    Cl91539   1.830   7.411  11.731 -0.0466 -0.2623 -0.4206
  664MOL0     C91540   1.643   7.541  12.239  0.5074  1.3209 -0.5738
  664MOL0     C91541   1.681   7.640  12.161 -0.3450  0.2576 -0.6588
  664MOL0     O91542   1.617   7.754  11.914 -0.7709 -0.3574 -0.7987
  664MOL0     C91543   1.742   8.042  11.947 -0.2287 -0.9145  0.4266
  664MOL0     C91544   1.765   8.168  11.889 -0.0367 -0.5600 -0.9721
  664MOL0     N91545   1.764   8.932  11.570  0.2913 -0.3536  0.0260
  664MOL0     N91546   1.828   9.029  11.523 -0.4456 -0.1918  1.0191
  664MOL0     C91547   2.245   8.214  11.083  0.1242 -0.3176  0.3692
  664MOL0     C91548   2.178   8.096  11.071  1.3528 -0.8802 -0.2682
  664MOL0     C91549   1.992   7.679  11.177  0.2298 -0.8469 -0.2403
  664MOL0     C91550   1.866   7.721  11.132 -0.2306 -0.0989  0.2834
  664MOL0     C91551   1.761   7.627  11.109 -0.3381 -0.2632  0.6373
  664MOL0     C91552   1.785   7.496  11.152 -0.0477  0.4135 -0.1359
  664MOL0     O91553   1.681   7.404  11.139 -0.8605  0.0629  1.0299
  664MOL0     C91554   1.659   7.328  11.249 -0.2017 -0.1363 -0.3013
  664MOL0     C91555   1.520   7.265  11.251 -0.7879 -0.0474 -0.2539
  664MOL0     C91556   1.483   7.195  11.375  0.5587  0.0980  0.0629
  664MOL0     C91557   1.520   7.044  11.367  1.5530 -0.4772 -0.2305
  664MOL0     C91558   1.485   6.976  11.495 -0.6910 -0.0485 -0.0119
  664MOL0     C91559   1.462   6.923  11.607  0.0782  0.1696 -0.1195
  664MOL0     C91560   1.903   7.459  11.219  0.2511 -0.2069  0.4266
  664MOL0     C91561   2.006   7.552  11.235  0.2421 -0.7892 -0.2984
  664MOL0     C91562   2.131   7.506  11.314 -0.0051  0.1110 -1.0644
  664MOL0     H91563   2.217   8.010  11.400  1.4041 -0.5153  0.2474
  664MOL0     H91564   2.348   8.193  11.406  1.3508 -1.7184  0.3654
  664MOL0     H91565   2.197   8.505  11.266  0.0076 -0.8289  1.2991
  664MOL0     H91566   2.231   8.502  11.092 -5.2876 -0.8008  2.4486
  664MOL0     H91567   2.414   8.625  11.297  0.1564 -2.7301  0.4771
  664MOL0     H91568   2.425   8.653  11.124  1.1790  0.3635  1.9391
  664MOL0     H91569   2.206   8.780  11.135  1.3774 -0.7823 -0.7574
  664MOL0     H91570   2.203   8.751  11.316 -1.5522 -1.0078  0.0071
  664MOL0     H91571   2.433   8.892  11.303 -1.6395 -0.5192  1.7901
  664MOL0     H91572   2.377   8.906  11.136  2.6817 -2.0399  0.2576
  664MOL0     H91573   2.181   9.037  11.211 -0.3870  0.8430  1.7920
  664MOL0     H91574   2.343   9.101  11.273  2.5291 -0.7332  1.9286
  664MOL0     H91575   2.127   8.931  11.408 -0.0702  0.8912 -1.3164
  664MOL0     H91576   2.272   8.997  11.489 -0.7273  0.6819  0.9463
  664MOL0     H91577   2.036   9.160  11.365 -1.7674  0.4230  2.1812
  664MOL0     H91578   2.190   9.225  11.430 -0.6655  0.8775  3.2386
  664MOL0     H91579   2.115   9.131  11.658 -1.2069 -4.3957  2.2525
  664MOL0     H91580   2.002   9.239  11.571 -2.6333 -1.6825 -2.2073
  664MOL0     H91581   2.047   8.900  11.737 -0.0780 -2.4450 -1.2606
  664MOL0     H91582   1.729   8.782  11.827  0.6096 -3.0646  3.0526
  664MOL0     H91583   1.900   8.733  11.806 -1.5978 -2.8705  0.6334
  664MOL0     H91584   1.677   8.652  11.619 -1.1241 -1.0723  1.1678
  664MOL0     H91585   1.858   8.613  11.611  2.4108 -0.8886  1.7483
  664MOL0     H91586   1.852   8.505  11.829 -0.5856  1.8580  2.2292
  664MOL0     H91587   1.689   8.548  11.850 -1.4327  1.8828 -2.6514
  664MOL0     H91588   1.634   8.354  11.742  0.3327  0.9309 -1.9485
  664MOL0     H91589   1.686   8.413  11.593 -1.0289 -1.2306  0.1018
  664MOL0     H91590   1.855   8.066  11.582 -0.8975 -3.0051 -0.8447
  664MOL0     H91591   1.897   7.830  11.570 -1.9196  1.0083 -1.8795
  664MOL0     H91592   1.722   7.804  11.605 -0.8583 -0.6062  1.3792
  664MOL0     H91593   1.862   7.732  11.711  1.4347  2.1235  2.6679
  664MOL0     H91594   1.963   7.496  12.022 -1.5047  1.7233 -2.4067
  664MOL0     H91595   1.895   7.325  12.208  0.8752  1.1552  0.3201
  664MOL0     H91596   1.540   7.214  12.419 -0.2981  2.8106  0.3650
  664MOL0     H91597   1.477   7.296  12.278 -1.9177 -0.0351  1.3067
  664MOL0     H91598   1.711   7.092  12.224  1.0975 -2.8520  5.0580
  664MOL0     H91599   1.602   7.033  12.331  0.0310 -0.8558 -1.2206
  664MOL0     H91600   1.405   7.079  12.181 -0.1443 -0.8528  0.2933
  664MOL0     H91601   1.519   6.951  12.137  1.3804  0.5158  0.2283
  664MOL0     H91602   1.503   7.053  11.931  2.4307  0.1096 -1.1737
  664MOL0     H91603   1.643   7.138  11.993  0.3087  0.6167 -0.1083
  664MOL0     H91604   1.369   7.242  12.041  0.2633  0.9715  0.4947
  664MOL0     H91605   1.522   7.325  12.046  2.2765 -0.7275 -1.4258
  664MOL0     H91606   1.413   7.412  11.840 -2.0381  1.4907  0.9900
  664MOL0     H91607   1.361   7.250  11.792  0.0102  0.7361 -0.2568
  664MOL0     H91608   1.551   7.336  11.654  0.7428 -2.8433  0.3344
  664MOL0     H91609   1.625   7.207  11.746 -1.8336 -1.0433 -1.6071
  664MOL0     H91610   1.692   7.420  11.917  0.0774 -0.8504  0.3684
  664MOL0     H91611   1.646   7.526  11.781  1.1955 -0.2431  2.5809
  664MOL0     H91612   1.562   7.551  12.311  0.2198  1.2165 -0.8794
  664MOL0     H91613   1.620   7.729  12.166 -2.0464 -0.9278  1.4633
  664MOL0     H91614   1.703   8.040  12.048  1.2401  3.1845  1.2549
  664MOL0     H91615   1.763   8.254  11.954 -1.5345 -1.8170  0.7444
  664MOL0     H91616   2.233   8.289  11.005  1.6658 -0.4031  0.0178
  664MOL0     H91617   2.115   8.074  10.986 -1.0832  0.6675  1.0408
  664MOL0     H91618   1.849   7.824  11.104  0.7630 -0.3927 -1.5909
  664MOL0     H91619   1.664   7.655  11.069 -0.4486 -2.0044 -0.3940
  664MOL0     H91620   1.741   7.256  11.243 -0.3234 -0.2135 -1.1652
  664MOL0     H91621   1.668   7.383  11.342  0.9941 -0.7781 -0.0157
  664MOL0     H91622   1.516   7.204  11.160  0.9510 -1.7240  0.7155
  664MOL0     H91623   1.456   7.354  11.247 -0.3669  0.4640  2.7075
  664MOL0     H91624   1.531   7.238  11.463 -2.9512  1.4149  1.5303
  664MOL0     H91625   1.374   7.193  11.385  0.1195  0.3120 -3.4385
  664MOL0     H91626   1.628   7.031  11.355  1.7495  0.1658  0.7547
  664MOL0     H91627   1.467   7.000  11.282 -0.2888  0.7548  0.2150
  664MOL0     H91628   1.442   6.878  11.702  0.6512 -0.4581 -0.2876
  664MOL0     H91629   1.922   7.360  11.260 -0.9547 -1.5906 -2.1154
  664MOL0     H91630   2.191   7.437  11.255  2.1494  1.2342 -0.2762
  664MOL0     H91631   2.195   7.593  11.330  1.2195 -1.1490  1.6925
  664MOL0     H91632   2.090   7.469  11.409 -2.3894 -0.3613 -2.2075
  665MOL0     O91633   0.681  10.470   6.213 -0.1198 -0.1786  0.2274
  665MOL0     C91634   0.769  10.558   6.207  0.3772 -0.0665  0.1143
  665MOL0     O91635   0.744  10.687   6.238 -0.8374 -0.2956  0.4419
  665MOL0     C91636   0.620  10.719   6.280 -0.0365  0.8718  0.0380
  665MOL0     C91637   0.596  10.761   6.409  1.1570  0.6659  0.5215
  665MOL0     C91638   0.468  10.786   6.450 -0.5151 -0.4484 -0.8868
  665MOL0     C91639   0.355  10.789   6.368 -0.4755  0.2962  0.1367
  665MOL0     O91640   0.229  10.807   6.420  0.3773 -0.2999 -0.0661
  665MOL0     C91641   0.207  10.873   6.546  0.9160  0.1617 -0.4664
  665MOL0     C91642   0.056  10.864   6.585 -0.0315  0.7591  0.1436
  665MOL0     C91643   0.013  10.714   6.590  0.2928 -0.0925  0.5265
  665MOL0     C91644  -0.126  10.704   6.646  0.0761 -0.1826 -0.3321
  665MOL0     C91645  -0.182  10.559   6.650 -0.3553 -0.0359 -0.5603
  665MOL0     C91646  -0.338  10.546   6.692  1.2126 -0.1129  0.4123
  665MOL0     C91647  -0.392  10.402   6.700  0.5280 -0.1602  0.2899
  665MOL0     C91648  -0.533  10.400   6.766  0.3765  0.7907 -0.4009
  665MOL0     N91649  -0.583  10.264   6.786 -0.3834 -0.0675  0.7343
  665MOL0     C91650  -0.687  10.198   6.727 -0.1640 -0.0394  0.5216
  665MOL0     C91651  -0.686  10.070   6.779 -0.6605  0.6086  0.2556
  665MOL0     C91652  -0.769   9.949   6.722 -0.2224  1.2545 -0.9827
  665MOL0     C91653  -0.774   9.933   6.575 -0.0388  0.2819 -1.2795
  665MOL0     C91654  -0.637   9.924   6.504 -0.3158  0.0237 -0.2897
  665MOL0     C91655  -0.641   9.998   6.372  0.0993 -1.2394  0.9903
  665MOL0     O91656  -0.513  10.030   6.311  0.1344  0.3861 -0.4111
  665MOL0     C91657  -0.439   9.943   6.233  0.0749 -0.7270  1.1361
  665MOL0     C91658  -0.325   9.991   6.166  0.5792 -0.2136 -0.3571
  665MOL0     C91659  -0.251   9.905   6.087  0.3188 -0.8702 -0.4573
  665MOL0     C91660  -0.139   9.971   6.001  0.1823 -0.3238 -0.0252
  665MOL0     C91661  -0.277   9.763   6.087 -0.3656 -0.3007 -0.3773
  665MOL0     C91662  -0.201   9.657   6.010 -0.8154 -0.8007  0.1852
  665MOL0     O91663  -0.095   9.700   5.919  0.4436  0.7024 -0.7340
  665MOL0     C91664  -0.084   9.635   5.797 -0.1292 -0.5218 -0.1462
  665MOL0     C91665  -0.190   9.620   5.708 -0.8575  0.8360  0.0314
  665MOL0     C91666  -0.165   9.544   5.589 -0.0601  0.2945  0.1324
  665MOL0     C91667  -0.037   9.501   5.549 -0.0304  1.0336 -0.0823
  665MOL0     O91668  -0.023   9.439   5.425 -0.6282  0.1153  0.8538
  665MOL0     C91669   0.101   9.458   5.334  0.0593  1.0300 -0.2006
  665MOL0     C91670   0.091   9.379   5.204  0.1591 -0.1849 -0.9506
  665MOL0     C91671   0.103   9.226   5.221 -0.2686  0.5750  0.6972
  665MOL0     C91672   0.058   9.145   5.096  0.1504  0.6204  0.0188
  665MOL0     C91673   0.066   8.992   5.112 -0.2593 -0.8562 -0.1876
  665MOL0     C91674   0.215   8.945   5.130  0.6326  0.1142 -0.8024
  665MOL0     C91675   0.292   8.919   4.993  0.3226 -0.3975  0.0155
  665MOL0     C91676   0.433   8.902   5.034 -0.7405  0.6181 -1.5721
  665MOL0    Cl91677   0.507   8.866   4.877  0.0623  0.3382  0.2977
  665MOL0     C91678   0.062   9.506   5.644 -0.2184 -0.3797 -0.7738
  665MOL0     C91679   0.036   9.572   5.767  0.3489 -0.1259  0.6805
  665MOL0     O91680  -0.237   9.539   6.017 -0.2250  0.5911  1.1709
  665MOL0     C91681  -0.384   9.714   6.167 -0.0548  0.1605  0.0286
  665MOL0     C91682  -0.468   9.803   6.225  0.1295  0.7374 -0.3818
  665MOL0     N91683  -0.585  10.061   6.875  0.0380 -0.3263 -0.4645
  665MOL0     N91684  -0.535  10.184   6.887 -0.6907 -0.0990  0.3162
  665MOL0     C91685   0.380  10.752   6.234  0.9289 -1.2146  1.3306
  665MOL0     C91686   0.513  10.722   6.187  0.4007  0.4706  0.7710
  665MOL0     C91687   0.907  10.510   6.185 -0.2944  0.1498  0.1672
  665MOL0     C91688   0.922  10.410   6.090 -0.6575  0.3223  0.1464
  665MOL0     C91689   1.039  10.354   6.063 -0.1279  0.2692  0.4325
  665MOL0     C91690   1.148  10.394   6.129  0.2530  0.2814  0.2099
  665MOL0     O91691   1.261  10.353   6.073 -0.0886 -0.7107 -0.5415
  665MOL0     C91692   1.393  10.404   6.116  0.1989  0.5900 -0.1929
  665MOL0     C91693   1.504  10.354   6.023  0.1710 -0.1962  0.1546
  665MOL0     C91694   1.476  10.372   5.875  0.4826 -0.2003  0.0335
  665MOL0     C91695   1.591  10.327   5.780  0.0007 -0.8795  1.0303
  665MOL0     C91696   1.556  10.336   5.638  0.2476  0.0575  0.6519
  665MOL0     C91697   1.508  10.351   5.523  0.9173 -0.3992  1.1269
  665MOL0     C91698   1.145  10.497   6.233  0.5890  0.4922  0.0684
  665MOL0     C91699   1.015  10.553   6.263 -0.6907  0.1269  0.7680
  665MOL0     C91700   1.002  10.650   6.377  0.2026 -0.5413 -0.0680
  665MOL0     H91701   0.682  10.762   6.475  0.0769  3.3689  2.0763
  665MOL0     H91702   0.469  10.798   6.558  4.2083 -1.7651 -0.5300
  665MOL0     H91703   0.226  10.978   6.523  1.1782  0.4254  0.8594
  665MOL0     H91704   0.269  10.835   6.628  1.3307  1.8707  0.0521
  665MOL0     H91705   0.031  10.929   6.669  0.9013  4.6688 -2.3260
  665MOL0     H91706  -0.006  10.903   6.503  0.5123  1.2488 -0.0445
  665MOL0     H91707   0.013  10.669   6.491 -0.2451  0.1362  0.4190
  665MOL0     H91708   0.088  10.663   6.652  2.5928  2.0294 -0.3505
  665MOL0     H91709  -0.131  10.752   6.745  0.8548  3.7360 -2.0213
  665MOL0     H91710  -0.192  10.764   6.583 -1.3088  0.5520  1.6810
  665MOL0     H91711  -0.119  10.507   6.723 -1.8364 -1.5216 -0.2952
  665MOL0     H91712  -0.163  10.504   6.557  1.7123  1.0412 -0.8412
  665MOL0     H91713  -0.367  10.582   6.791  0.3424 -0.8667  0.4461
  665MOL0     H91714  -0.395  10.597   6.613  1.6848  0.2599  0.3140
  665MOL0     H91715  -0.319  10.338   6.751  0.5001  0.3638  1.0021
  665MOL0     H91716  -0.397  10.352   6.603  1.2999  1.0058 -0.3757
  665MOL0     H91717  -0.521  10.431   6.870 -0.0007 -2.7663  0.8351
  665MOL0     H91718  -0.605  10.461   6.712  0.0074  1.8221  1.1892
  665MOL0     H91719  -0.753  10.240   6.652 -0.2570 -2.4652 -0.8297
  665MOL0     H91720  -0.872   9.961   6.757  0.0357  1.1897 -0.1809
  665MOL0     H91721  -0.744   9.856   6.774 -3.1379  0.8556 -0.0735
  665MOL0     H91722  -0.829   9.843   6.544 -2.9817  0.9026  1.5995
  665MOL0     H91723  -0.829  10.018   6.535 -0.1041  2.5587  3.1127
  665MOL0     H91724  -0.553   9.975   6.554 -0.3527  0.5255 -0.7257
  665MOL0     H91725  -0.601   9.823   6.483 -0.3738 -0.2293  0.7565
  665MOL0     H91726  -0.704   9.948   6.298 -0.3785 -0.4687  0.8594
  665MOL0     H91727  -0.683  10.096   6.396 -0.5541 -1.8033  2.2106
  665MOL0     H91728  -0.296  10.095   6.178 -0.1316  0.0938 -1.2079
  665MOL0     H91729  -0.142   9.927   5.901 -2.7120  1.2951 -0.7772
  665MOL0     H91730  -0.046   9.945   6.052  0.8784  1.4690 -0.3198
  665MOL0     H91731  -0.152  10.079   5.987  3.0985  0.0438 -0.5092
  665MOL0     H91732  -0.277   9.682   5.728 -0.9399  0.9984 -0.8026
  665MOL0     H91733  -0.242   9.561   5.515  0.7673 -0.9118 -1.0446
  665MOL0     H91734   0.099   9.564   5.304 -1.1088  1.1718  0.3201
  665MOL0     H91735   0.187   9.418   5.388 -2.1067 -1.0908  1.9464
  665MOL0     H91736  -0.005   9.410   5.162 -0.2026  1.5273  1.0003
  665MOL0     H91737   0.165   9.417   5.132 -1.3370  1.1814 -1.8410
  665MOL0     H91738   0.050   9.189   5.309  0.8618  1.8648  1.9793
  665MOL0     H91739   0.210   9.216   5.241 -0.5538 -2.9259  1.1405
  665MOL0     H91740   0.120   9.181   5.013  1.7812  1.7547  1.6458
  665MOL0     H91741  -0.048   9.151   5.072 -0.0131 -0.7014  0.3120
  665MOL0     H91742   0.001   8.967   5.197  0.5346  1.6017  1.2284
  665MOL0     H91743   0.010   8.948   5.028  1.5304 -1.0603 -1.3227
  665MOL0     H91744   0.214   8.853   5.189  0.4351  1.5373  1.5148
  665MOL0     H91745   0.267   9.018   5.192  0.0791 -0.4140  0.3074
  665MOL0     H91746   0.278   9.003   4.924  1.0086  0.1406  0.5225
  665MOL0     H91747   0.258   8.826   4.945 -1.4463  1.1283 -1.8926
  665MOL0     H91748   0.462   8.818   5.099 -1.7697 -0.0816 -1.9952
  665MOL0     H91749   0.470   8.994   5.081  1.2567  1.2132 -4.1040
  665MOL0     H91750   0.167   9.483   5.625  0.8369  1.0340  2.5053
  665MOL0     H91751   0.121   9.576   5.834  1.2914  1.1929 -0.5267
  665MOL0     H91752  -0.429   9.615   6.173  0.0349  0.0982 -0.3178
  665MOL0     H91753  -0.557   9.764   6.272  2.0045 -2.3996  0.8886
  665MOL0     H91754   0.297  10.747   6.165 -0.1355  0.9534  2.3535
  665MOL0     H91755   0.538  10.703   6.084 -1.1074 -1.4648  0.7135
  665MOL0     H91756   0.837  10.380   6.030  0.2812  0.0441 -1.0789
  665MOL0     H91757   1.046  10.275   5.989 -1.7596  1.1143 -0.6753
  665MOL0     H91758   1.391  10.514   6.115  2.0665  0.6617 -0.7578
  665MOL0     H91759   1.411  10.388   6.222 -1.9872  0.2189  0.1685
  665MOL0     H91760   1.516  10.247   6.044 -2.7972 -0.5499  0.4896
  665MOL0     H91761   1.594  10.411   6.049  0.3923 -0.3572 -0.2381
  665MOL0     H91762   1.386  10.312   5.861  0.4324 -0.1644  0.1993
  665MOL0     H91763   1.449  10.476   5.852 -1.1347  0.1541  2.9675
  665MOL0     H91764   1.619  10.227   5.814  2.3239  0.2649  2.7568
  665MOL0     H91765   1.681  10.386   5.799 -0.3594 -0.7240  2.3820
  665MOL0     H91766   1.468  10.380   5.428  2.4568  1.8014  1.0749
  665MOL0     H91767   1.235  10.544   6.270  1.4630 -1.7861  1.0131
  665MOL0     H91768   0.915  10.620   6.436 -1.5517 -0.9171 -2.6589
  665MOL0     H91769   1.098  10.658   6.428 -0.1001 -0.8436  0.5620
  665MOL0     H91770   0.971  10.743   6.328 -0.7179  0.1016  1.6545
  666MOL0     O91771   6.726   8.825   3.307 -0.4732 -0.6842  0.2069
  666MOL0     C91772   6.649   8.733   3.340  0.2340 -0.5600  0.5637
  666MOL0     O91773   6.568   8.668   3.253  0.5264  0.1220 -0.5375
  666MOL0     C91774   6.556   8.707   3.122 -0.4276  0.3096  1.0843
  666MOL0     C91775   6.671   8.701   3.044  0.1842 -0.9543 -0.8218
  666MOL0     C91776   6.651   8.716   2.905 -1.2617 -0.6974  0.3387
  666MOL0     C91777   6.526   8.734   2.843  0.1098  0.2026  0.3268
  666MOL0     O91778   6.499   8.761   2.708 -0.2344  0.1541 -0.0920
  666MOL0     C91779   6.537   8.895   2.682  0.9192  0.2822  0.7674
  666MOL0     C91780   6.673   8.893   2.615  0.1637 -0.2397  0.0385
  666MOL0     C91781   6.657   8.932   2.459  0.5537  0.1666  0.2818
  666MOL0     C91782   6.568   8.847   2.362  0.4381  1.5058  0.4273
  666MOL0     C91783   6.613   8.709   2.370 -0.6224  0.3825  0.7048
  666MOL0     C91784   6.529   8.612   2.283  0.0283  0.5313 -0.0269
  666MOL0     C91785   6.602   8.474   2.283 -0.1766 -0.7199 -0.1039
  666MOL0     C91786   6.539   8.352   2.212 -0.5959 -0.4714 -0.5587
  666MOL0     N91787   6.537   8.363   2.066  0.7071  1.2024 -0.6453
  666MOL0     C91788   6.645   8.362   1.979 -0.0655 -0.1617  0.1200
  666MOL0     C91789   6.592   8.366   1.858  0.1439 -0.2415  0.1288
  666MOL0     C91790   6.666   8.358   1.728 -0.6487  0.7461 -0.0012
  666MOL0     C91791   6.572   8.393   1.608  0.4428  0.1993 -0.1087
  666MOL0     C91792   6.631   8.359   1.478 -1.1490  0.0358 -0.0093
  666MOL0     C91793   6.526   8.385   1.363 -0.1674  0.6699 -0.3475
  666MOL0     O91794   6.414   8.296   1.381 -0.2475  0.4544  0.4116
  666MOL0     C91795   6.310   8.285   1.286  0.2887  0.1415 -0.5649
  666MOL0     C91796   6.296   8.389   1.199  0.2244 -0.1795  0.1491
  666MOL0     C91797   6.178   8.396   1.122  0.2861  0.0486  0.5659
  666MOL0     C91798   6.162   8.500   1.016 -1.0641  0.0748 -1.0020
  666MOL0     C91799   6.075   8.297   1.132 -0.2670 -0.0978  0.6572
  666MOL0     C91800   5.958   8.271   1.045 -0.4909  0.1541  0.1633
  666MOL0     O91801   5.854   8.194   1.096  0.1001  0.2812  0.8948
  666MOL0     C91802   5.739   8.173   1.020 -0.2839  0.7971 -0.7870
  666MOL0     C91803   5.616   8.199   1.077 -0.1911 -0.6308  0.5599
  666MOL0     C91804   5.500   8.216   0.992 -1.0009  0.2217  0.3713
  666MOL0     C91805   5.508   8.187   0.854  0.7696 -0.1914  0.5088
  666MOL0     O91806   5.404   8.200   0.773  0.7034 -1.0016  0.5768
  666MOL0     C91807   5.428   8.253   0.641 -0.1163 -0.1738 -0.2255
  666MOL0     C91808   5.311   8.315   0.562  0.0303 -0.0372 -0.5055
  666MOL0     C91809   5.347   8.400   0.442  0.5809  0.1803 -0.5019
  666MOL0     C91810   5.390   8.303   0.332 -0.8585 -0.4193  0.1029
  666MOL0     C91811   5.471   8.386   0.229 -0.3853  0.2910  0.4889
  666MOL0     C91812   5.488   8.303   0.096 -0.3903  1.0331  0.3270
  666MOL0     C91813   5.589   8.185   0.113  0.6070 -0.1221  0.8186
  666MOL0     C91814   5.647   8.139  -0.017  0.8558  0.3398 -0.4140
  666MOL0    Cl91815   5.741   7.993   0.011 -0.3299  0.2982  0.2777
  666MOL0     C91816   5.633   8.131   0.806  0.2767 -0.6672 -0.1137
  666MOL0     C91817   5.744   8.128   0.887 -0.6285  0.4046 -0.8326
  666MOL0     O91818   5.957   8.326   0.936 -0.8175 -0.0121 -0.3247
  666MOL0     C91819   6.090   8.201   1.237 -0.4189  1.2356  0.6759
  666MOL0     C91820   6.204   8.198   1.310  0.6054  0.7648 -1.2190
  666MOL0     N91821   6.455   8.365   1.869 -0.0974 -1.1338 -0.9150
  666MOL0     N91822   6.424   8.363   2.000 -0.4308 -0.2383  0.1220
  666MOL0     C91823   6.411   8.717   2.922  0.1196  0.2195 -0.0195
  666MOL0     C91824   6.428   8.710   3.061 -0.2536  0.2458 -1.0178
  666MOL0     C91825   6.648   8.697   3.489  0.3331  0.6551 -0.7132
  666MOL0     C91826   6.525   8.640   3.538 -0.1337  0.0415 -1.3500
  666MOL0     C91827   6.510   8.590   3.670 -0.5609 -0.2221 -0.5161
  666MOL0     C91828   6.617   8.596   3.757  0.1780 -0.3561  0.5485
  666MOL0     O91829   6.627   8.515   3.865  0.2603 -0.1571  0.5449
  666MOL0     C91830   6.504   8.496   3.947  0.5243 -0.0638 -0.0120
  666MOL0     C91831   6.447   8.359   3.916  0.4221  0.2460  0.0616
  666MOL0     C91832   6.526   8.250   3.991 -0.9318 -0.5176  0.5155
  666MOL0     C91833   6.492   8.104   3.935  0.5124 -0.0081  0.1233
  666MOL0     C91834   6.523   8.001   4.031  0.6621 -1.0038  0.0569
  666MOL0     C91835   6.556   7.921   4.105 -0.3970  0.2004 -0.1827
  666MOL0     C91836   6.725   8.663   3.716 -0.6104 -0.2858 -0.1888
  666MOL0     C91837   6.739   8.711   3.588 -0.6990  0.1658 -0.4179
  666MOL0     C91838   6.863   8.791   3.553 -0.4251  0.6630 -0.5322
  666MOL0     H91839   6.768   8.679   3.087  0.5429  0.8379 -0.6490
  666MOL0     H91840   6.741   8.710   2.844 -0.4219  1.2725  1.2755
  666MOL0     H91841   6.548   8.951   2.775 -2.2783  0.3951  1.1925
  666MOL0     H91842   6.446   8.927   2.629 -1.1235 -2.4162  2.3881
  666MOL0     H91843   6.739   8.965   2.663 -0.4847  0.1283  0.3917
  666MOL0     H91844   6.724   8.797   2.629 -0.2257 -0.2706  1.3771
  666MOL0     H91845   6.613   9.032   2.457  0.1798  0.1469  3.3871
  666MOL0     H91846   6.754   8.938   2.409 -0.7397  1.3952 -2.3164
  666MOL0     H91847   6.463   8.841   2.389  0.4584  0.7929  0.3472
  666MOL0     H91848   6.578   8.873   2.256  2.6726 -0.0790  0.1675
  666MOL0     H91849   6.603   8.666   2.470 -0.2949 -2.0687 -0.2221
  666MOL0     H91850   6.720   8.703   2.347 -0.5504  2.6898  0.2596
  666MOL0     H91851   6.425   8.607   2.318  0.1873 -2.1970  0.2480
  666MOL0     H91852   6.522   8.654   2.183 -0.6513 -0.5411 -0.4479
  666MOL0     H91853   6.633   8.450   2.385 -2.4910 -3.3061  0.0879
  666MOL0     H91854   6.697   8.489   2.230 -0.6187  1.5134 -0.3809
  666MOL0     H91855   6.594   8.265   2.250 -0.5861  0.5340  1.9203
  666MOL0     H91856   6.436   8.338   2.247 -1.4049 -1.6961 -3.1521
  666MOL0     H91857   6.750   8.358   2.007 -0.5635 -1.0581  2.0454
  666MOL0     H91858   6.717   8.264   1.705  1.8923  2.4430 -1.8300
  666MOL0     H91859   6.746   8.431   1.740  1.5893 -1.2467 -1.8196
  666MOL0     H91860   6.477   8.343   1.631  1.7072 -0.7955  3.7126
  666MOL0     H91861   6.541   8.498   1.606  0.0978  0.0970 -0.4078
  666MOL0     H91862   6.719   8.422   1.460 -1.2112 -0.3403 -1.8467
  666MOL0     H91863   6.655   8.253   1.477 -2.2766 -0.3333  2.6507
  666MOL0     H91864   6.499   8.490   1.373  1.1561  1.1748 -1.7398
  666MOL0     H91865   6.580   8.365   1.270  0.2215 -0.2620  0.0634
  666MOL0     H91866   6.365   8.472   1.197 -0.8072  0.7269  1.2756
  666MOL0     H91867   6.158   8.462   0.914 -0.9528 -1.3499 -0.4986
  666MOL0     H91868   6.251   8.559   1.041  0.0602 -1.9670  0.1597
  666MOL0     H91869   6.079   8.569   1.031  2.0679  3.6637  1.8921
  666MOL0     H91870   5.617   8.240   1.178 -1.3301  1.8932 -0.3672
  666MOL0     H91871   5.407   8.255   1.030 -0.7883  0.8661  0.2352
  666MOL0     H91872   5.496   8.337   0.656 -0.2871 -0.0412 -0.1905
  666MOL0     H91873   5.471   8.180   0.572  0.5741  4.0577 -4.9495
  666MOL0     H91874   5.242   8.233   0.540  1.1018 -0.9644 -0.5345
  666MOL0     H91875   5.252   8.376   0.632  0.3018  1.4027 -1.4999
  666MOL0     H91876   5.423   8.473   0.471  0.1059  0.8855 -1.0156
  666MOL0     H91877   5.258   8.453   0.407  0.0166 -1.1933 -1.2493
  666MOL0     H91878   5.300   8.262   0.285 -0.0432  0.5514 -2.4945
  666MOL0     H91879   5.458   8.223   0.362  0.8329  0.6382 -0.8026
  666MOL0     H91880   5.406   8.472   0.214  1.1416  0.9931 -2.8892
  666MOL0     H91881   5.567   8.425   0.265  1.1076  0.7816 -3.5555
  666MOL0     H91882   5.536   8.374   0.029  1.2261 -0.1012  0.2359
  666MOL0     H91883   5.394   8.263   0.056  0.0403 -0.0286  0.3480
  666MOL0     H91884   5.541   8.109   0.175  1.4968 -1.5980 -0.2535
  666MOL0     H91885   5.670   8.227   0.174 -0.0105  1.8174  0.3593
  666MOL0     H91886   5.705   8.207  -0.080  3.7769 -0.3042  1.3646
  666MOL0     H91887   5.561   8.111  -0.077  0.3947 -4.4822  2.0049
  666MOL0     H91888   5.638   8.105   0.700 -0.5332  0.9122 -0.5692
  666MOL0     H91889   5.834   8.076   0.855  0.5895  1.4166  0.7459
  666MOL0     H91890   6.022   8.122   1.265  2.4830 -0.3750  3.9694
  666MOL0     H91891   6.217   8.139   1.400 -2.3569  0.5184 -0.8654
  666MOL0     H91892   6.308   8.721   2.888  0.3555 -1.3527 -1.0189
  666MOL0     H91893   6.346   8.685   3.127  0.4260  0.8656  0.0954
  666MOL0     H91894   6.449   8.625   3.463  2.9999 -1.6576 -4.4957
  666MOL0     H91895   6.417   8.545   3.704 -0.1549  0.2519  1.3031
  666MOL0     H91896   6.512   8.476   4.054  0.7773 -4.1451 -0.6133
  666MOL0     H91897   6.434   8.579   3.935  2.0627  1.1844 -0.8333
  666MOL0     H91898   6.458   8.348   3.807  3.1562  0.1736  0.2620
  666MOL0     H91899   6.339   8.364   3.933 -0.7500  2.0801 -5.6767
  666MOL0     H91900   6.634   8.263   3.991 -1.0935  1.0794  1.6453
  666MOL0     H91901   6.496   8.256   4.096 -2.6798  3.0960 -0.0557
  666MOL0     H91902   6.543   8.088   3.839 -2.9468  1.1225 -2.0998
  666MOL0     H91903   6.385   8.101   3.911  0.4265  3.0823 -0.2746
  666MOL0     H91904   6.597   7.840   4.162  0.5593  1.9401  1.7197
  666MOL0     H91905   6.812   8.681   3.777 -1.8117 -0.4591  1.6497
  666MOL0     H91906   6.941   8.799   3.630  0.0092 -1.1612 -0.7555
  666MOL0     H91907   6.913   8.744   3.468  0.0219 -0.2189  0.2033
  666MOL0     H91908   6.854   8.895   3.518 -1.4228  0.7563 -0.0442
  667MOL0     O91909   5.528  10.835   0.905 -0.3639  0.0586 -0.3137
  667MOL0     C91910   5.428  10.901   0.895  0.9154  0.1713 -0.7221
  667MOL0     O91911   5.419  11.023   0.831 -0.8290 -0.1293 -0.2374
  667MOL0     C91912   5.529  11.108   0.849  0.2087  0.2389  0.0896
  667MOL0     C91913   5.624  11.104   0.951 -0.0807  0.4899 -0.6537
  667MOL0     C91914   5.734  11.192   0.949  0.5832 -0.0843 -0.9197
  667MOL0     C91915   5.740  11.302   0.863  0.1528  0.9589 -0.2559
  667MOL0     O91916   5.831  11.407   0.879  1.1247 -0.2488  0.1050
  667MOL0     C91917   5.912  11.424   1.001 -0.3181  0.7762 -0.2693
  667MOL0     C91918   6.011  11.550   0.999  0.2775 -0.9321  0.0261
  667MOL0     C91919   5.934  11.688   1.029  0.4971  0.2722  0.7844
  667MOL0     C91920   5.816  11.726   0.941  0.7807 -0.2442  0.2708
  667MOL0     C91921   5.862  11.788   0.804 -0.2007 -0.4537 -0.1599
  667MOL0     C91922   5.915  11.688   0.710 -1.1227 -0.6340  0.2438
  667MOL0     C91923   5.956  11.766   0.580 -0.3729 -0.2140 -0.5116
  667MOL0     C91924   5.961  11.669   0.469 -0.1638 -0.0066 -0.4400
  667MOL0     N91925   5.829  11.640   0.416  0.2954  0.1641  0.7950
  667MOL0     C91926   5.753  11.703   0.321  0.6790 -0.3369 -0.8990
  667MOL0     C91927   5.637  11.620   0.304  0.3575 -0.2326 -1.3991
  667MOL0     C91928   5.514  11.644   0.212 -0.1781 -0.6514 -0.2815
  667MOL0     C91929   5.476  11.802   0.191  0.2992  0.6153  0.1330
  667MOL0     C91930   5.338  11.814   0.146  0.1837 -1.6994  0.0074
  667MOL0     C91931   5.318  11.966   0.098  0.3804 -1.2438  0.5319
  667MOL0     O91932   5.182  11.970   0.053  0.6050  0.1194  0.2625
  667MOL0     C91933   5.154  11.967  -0.085  0.1112  0.1256 -0.6457
  667MOL0     C91934   5.229  12.038  -0.179 -0.1782 -0.1538 -0.1692
  667MOL0     C91935   5.193  12.041  -0.312 -0.4175 -0.2179 -0.0513
  667MOL0     C91936   5.280  12.139  -0.387 -0.9597  0.8101  0.3800
  667MOL0     C91937   5.083  11.976  -0.353 -0.6847  0.7432  0.3601
  667MOL0     C91938   5.040  11.975  -0.492 -1.3060  0.3645 -0.6492
  667MOL0     O91939   4.996  11.855  -0.540  0.5885 -0.6851 -0.0916
  667MOL0     C91940   4.915  11.859  -0.646 -0.1138  0.6791  0.5563
  667MOL0     C91941   4.962  11.902  -0.772  0.1462  0.0689 -1.5303
  667MOL0     C91942   4.874  11.899  -0.883  0.1146 -0.1342  0.3120
  667MOL0     C91943   4.738  11.855  -0.876  0.5654 -1.2928 -0.1118
  667MOL0     O91944   4.660  11.864  -0.989  0.3802 -0.0929 -0.2255
  667MOL0     C91945   4.554  11.770  -1.001  0.2468 -0.7807 -0.8134
  667MOL0     C91946   4.485  11.776  -1.136  0.2025  0.0827 -0.2779
  667MOL0     C91947   4.393  11.899  -1.169  0.2890  0.0131 -0.2576
  667MOL0     C91948   4.243  11.868  -1.182 -1.1930 -0.6586  0.2063
  667MOL0     C91949   4.160  11.994  -1.234  0.1885  0.2914  0.1911
  667MOL0     C91950   4.191  12.006  -1.389  0.0840 -0.0974 -0.1236
  667MOL0     C91951   4.089  12.104  -1.447  0.2985  0.0363 -0.6374
  667MOL0     C91952   4.125  12.143  -1.591  1.0141 -0.1295  0.2882
  667MOL0    Cl91953   3.982  12.118  -1.703  0.3681 -0.2121  0.1611
  667MOL0     C91954   4.697  11.807  -0.742  0.4546  0.2947  0.0535
  667MOL0     C91955   4.782  11.811  -0.633  0.7837 -0.6545  0.1033
  667MOL0     O91956   5.021  12.081  -0.541 -0.5301 -1.2099 -0.4109
  667MOL0     C91957   5.000  11.909  -0.263  0.1647  1.0337 -0.4221
  667MOL0     C91958   5.045  11.892  -0.132 -0.1000  0.1512  0.0931
  667MOL0     N91959   5.657  11.511   0.385 -0.3396 -0.2381  0.3460
  667MOL0     N91960   5.767  11.521   0.454 -0.2322 -0.3877  0.6880
  667MOL0     C91961   5.649  11.300   0.754 -1.0150 -0.2822  0.4739
  667MOL0     C91962   5.539  11.209   0.749  0.0175 -0.2397  0.5835
  667MOL0     C91963   5.295  10.835   0.922 -0.7271  0.2608  0.6434
  667MOL0     C91964   5.263  10.808   1.055  0.3378  0.3256  0.3987
  667MOL0     C91965   5.137  10.739   1.083 -0.1043  0.7347 -0.1497
  667MOL0     C91966   5.052  10.697   0.981  0.1868 -0.3032  1.0299
  667MOL0     O91967   4.931  10.648   1.006 -0.0905 -0.1248  0.4810
  667MOL0     C91968   4.914  10.520   0.960 -0.5802 -0.1178  0.0549
  667MOL0     C91969   5.005  10.430   1.045 -0.3164  0.1514 -0.1173
  667MOL0     C91970   4.987  10.280   0.997  0.1704 -0.7389  1.2404
  667MOL0     C91971   5.103  10.196   1.059 -0.7086 -0.1572  0.1138
  667MOL0     C91972   5.105  10.053   1.031 -0.3479 -0.2973 -0.0140
  667MOL0     C91973   5.097   9.932   1.006 -0.1061  0.1128  1.0616
  667MOL0     C91974   5.090  10.725   0.845 -0.5216 -0.6471  0.0793
  667MOL0     C91975   5.212  10.788   0.815 -0.6642 -0.5679 -0.0347
  667MOL0     C91976   5.235  10.821   0.679  0.6960  0.2713  0.4880
  667MOL0     H91977   5.611  11.037   1.036  1.0701  0.9148 -0.1255
  667MOL0     H91978   5.803  11.169   1.030  0.6150  1.7172 -0.4022
  667MOL0     H91979   5.975  11.335   1.005 -2.9503 -1.1688  1.0161
  667MOL0     H91980   5.854  11.427   1.093 -1.5574  1.8928 -1.0451
  667MOL0     H91981   6.076  11.541   1.087  0.0934  3.3954  0.8079
  667MOL0     H91982   6.080  11.553   0.915  0.3720  2.3669  0.1174
  667MOL0     H91983   5.895  11.670   1.130  1.3165 -0.2437  1.0252
  667MOL0     H91984   6.010  11.767   1.029 -2.0240  2.8607  1.1053
  667MOL0     H91985   5.749  11.643   0.913  2.1533 -1.2995 -0.0130
  667MOL0     H91986   5.759  11.797   1.001  1.5027 -0.6520  1.4866
  667MOL0     H91987   5.934  11.866   0.831 -0.6911  0.6909 -1.9448
  667MOL0     H91988   5.775  11.838   0.762  0.3853  2.1888  1.5813
  667MOL0     H91989   6.008  11.651   0.753  1.2626  2.2202 -2.0213
  667MOL0     H91990   5.851  11.601   0.696 -2.0502 -0.0260  0.5999
  667MOL0     H91991   6.055  11.807   0.603  0.4598 -2.3960  0.0098
  667MOL0     H91992   5.895  11.856   0.563  1.9886  2.0777  2.1766
  667MOL0     H91993   6.038  11.710   0.403  3.0408  0.6778  3.3217
  667MOL0     H91994   6.010  11.579   0.507  1.1600  0.2906 -1.4054
  667MOL0     H91995   5.769  11.799   0.273 -0.4841 -0.4941 -1.6428
  667MOL0     H91996   5.423  11.595   0.247 -2.4299  3.5862  0.4976
  667MOL0     H91997   5.543  11.596   0.118 -2.0581 -5.7275  1.3734
  667MOL0     H91998   5.481  11.855   0.287 -2.1001  0.5114  0.3673
  667MOL0     H91999   5.545  11.847   0.118  1.6942 -3.7062 -1.5113
  667MOL0     H92000   5.316  11.757   0.056  2.1729 -0.0025 -1.6878
  667MOL0     H92001   5.267  11.790   0.225 -1.0918 -0.6716 -0.7892
  667MOL0     H92002   5.324  12.035   0.183 -1.2202  0.2610 -0.4848
  667MOL0     H92003   5.376  11.997   0.011 -2.7921 -1.2900 -1.7733
  667MOL0     H92004   5.308  12.104  -0.146 -0.4840  1.6489 -2.7800
  667MOL0     H92005   5.240  12.239  -0.369 -0.9959  0.6740  1.0834
  667MOL0     H92006   5.274  12.105  -0.490  0.3994 -1.6365  1.0364
  667MOL0     H92007   5.386  12.131  -0.363 -0.6929 -2.0275 -1.2957
  667MOL0     H92008   5.065  11.933  -0.783 -0.3451  1.6623 -2.0156
  667MOL0     H92009   4.901  11.929  -0.984 -5.4244 -2.1377 -2.1638
  667MOL0     H92010   4.597  11.671  -0.986  1.7447 -0.1785 -0.9394
  667MOL0     H92011   4.469  11.787  -0.934 -0.0470  0.1181 -1.3865
  667MOL0     H92012   4.580  11.782  -1.192  1.3603  0.6258  1.6448
  667MOL0     H92013   4.437  11.680  -1.154  1.5855 -0.9249  1.1318
  667MOL0     H92014   4.427  11.939  -1.265  1.0609  1.7501  0.6952
  667MOL0     H92015   4.411  11.973  -1.090  2.2946 -0.7275  0.0177
  667MOL0     H92016   4.219  11.841  -1.079 -3.5139  1.5016  0.3272
  667MOL0     H92017   4.240  11.782  -1.249 -1.4653 -0.0482 -0.5745
  667MOL0     H92018   4.053  11.975  -1.218  0.4814 -0.9112  0.7618
  667MOL0     H92019   4.193  12.084  -1.181  0.2460 -0.5702  1.6796
  667MOL0     H92020   4.189  11.905  -1.430  0.2616 -0.5407  0.9178
  667MOL0     H92021   4.292  12.048  -1.398  0.7251 -1.6417 -0.5284
  667MOL0     H92022   4.083  12.194  -1.386 -0.7160 -1.1252  1.0874
  667MOL0     H92023   3.993  12.052  -1.441 -1.2314  2.5320 -2.2030
  667MOL0     H92024   4.215  12.095  -1.630  1.4680  3.6152 -4.1681
  667MOL0     H92025   4.143  12.250  -1.581 -2.2081  0.6836 -1.3883
  667MOL0     H92026   4.591  11.783  -0.741  0.5139 -0.2045 -1.7726
  667MOL0     H92027   4.747  11.789  -0.533  1.3750  1.9811  0.9498
  667MOL0     H92028   4.901  11.869  -0.277 -0.3158  1.8441  0.5264
  667MOL0     H92029   4.972  11.843  -0.068 -1.7633 -0.5020 -2.1512
  667MOL0     H92030   5.660  11.376   0.677 -0.0283 -1.5797 -0.7076
  667MOL0     H92031   5.473  11.212   0.664  0.0001 -0.1127  0.6015
  667MOL0     H92032   5.326  10.856   1.129 -0.4684 -0.5883  1.7108
  667MOL0     H92033   5.117  10.719   1.188 -1.0820 -2.3906 -0.8386
  667MOL0     H92034   4.810  10.493   0.982 -0.6244 -1.0835 -1.2201
  667MOL0     H92035   4.928  10.509   0.852 -0.7825  0.4140 -0.0262
  667MOL0     H92036   4.979  10.447   1.150  0.0507  1.2167 -0.1915
  667MOL0     H92037   5.108  10.456   1.019 -0.3646 -0.8831 -1.4815
  667MOL0     H92038   4.886  10.242   1.015  0.3439 -2.4855 -0.9364
  667MOL0     H92039   5.003  10.278   0.889  0.8978  1.5671  1.2559
  667MOL0     H92040   5.102  10.220   1.166 -1.6073  2.3824 -0.3981
  667MOL0     H92041   5.190  10.239   1.010 -2.3040  1.5374 -1.4064
  667MOL0     H92042   5.096   9.826   0.989 -0.2820  0.1485  0.8490
  667MOL0     H92043   5.024  10.701   0.763 -0.4877  0.6867 -0.3702
  667MOL0     H92044   5.195  10.919   0.652 -1.0041 -0.2318  0.9900
  667MOL0     H92045   5.338  10.842   0.649  0.3063  2.1838  0.3831
  667MOL0     H92046   5.191  10.741   0.617  3.1168  1.0158 -2.4069
  668MOL0     O92047   0.990   3.726   3.679  0.2147  0.6800  0.0642
  668MOL0     C92048   0.984   3.625   3.748 -0.8365 -0.6191  1.0767
  668MOL0     O92049   0.930   3.508   3.696  0.1705 -0.0807  0.3486
  668MOL0     C92050   0.853   3.509   3.584  0.7709  0.0437  0.1830
  668MOL0     C92051   0.750   3.615   3.564 -0.9374  0.9014  0.1847
  668MOL0     C92052   0.651   3.602   3.471  0.1825 -0.6886 -1.0138
  668MOL0     C92053   0.646   3.495   3.386  0.1289  0.1467 -0.5991
  668MOL0     O92054   0.526   3.490   3.309 -0.4403  0.0980 -0.4463
  668MOL0     C92055   0.523   3.397   3.207 -0.3732  0.4120 -0.6073
  668MOL0     C92056   0.413   3.424   3.095  0.7053 -0.5346 -0.4871
  668MOL0     C92057   0.327   3.548   3.109 -0.1597  0.0613  0.0200
  668MOL0     C92058   0.194   3.543   3.018 -0.3557  0.1298  1.0383
  668MOL0     C92059   0.211   3.507   2.868 -0.0248 -0.1513  0.0447
  668MOL0     C92060   0.309   3.592   2.785  0.0644  0.4544 -0.1587
  668MOL0     C92061   0.262   3.607   2.640 -0.0201 -0.3678  0.5771
  668MOL0     C92062   0.319   3.727   2.558  0.3788  0.5313  0.2588
  668MOL0     N92063   0.248   3.759   2.432 -0.0593 -0.4024  0.1450
  668MOL0     C92064   0.136   3.840   2.434  0.2081 -0.1751 -0.8213
  668MOL0     C92065   0.109   3.844   2.302  1.4918 -0.1247  1.1379
  668MOL0     C92066  -0.036   3.910   2.274 -0.8074 -0.4449 -0.0081
  668MOL0     C92067  -0.150   3.814   2.323 -0.9836 -0.4694  0.7988
  668MOL0     C92068  -0.280   3.852   2.255  0.0963 -0.0083  1.2216
  668MOL0     C92069  -0.407   3.770   2.279  1.0385  0.1329 -0.2945
  668MOL0     O92070  -0.425   3.736   2.417 -0.2168  0.0633  0.5540
  668MOL0     C92071  -0.473   3.821   2.509  0.7567 -0.0061 -0.4112
  668MOL0     C92072  -0.491   3.955   2.491 -0.2664  1.2444  0.7673
  668MOL0     C92073  -0.529   4.046   2.593  0.2291  0.3033  0.3076
  668MOL0     C92074  -0.533   4.196   2.560 -0.8499  0.2838 -0.3172
  668MOL0     C92075  -0.545   3.983   2.717  0.5401 -0.6682 -0.8288
  668MOL0     C92076  -0.602   4.062   2.842  0.2485  0.3398  0.3866
  668MOL0     O92077  -0.615   3.985   2.956  0.7915 -0.0267 -0.7981
  668MOL0     C92078  -0.661   4.022   3.080  0.4242 -0.0636 -0.3031
  668MOL0     C92079  -0.624   4.135   3.148 -0.9696 -0.8286  0.2266
  668MOL0     C92080  -0.671   4.158   3.280  0.5966 -0.3583  0.3073
  668MOL0     C92081  -0.757   4.063   3.343  0.9969  0.1489 -0.4948
  668MOL0     O92082  -0.787   4.099   3.472  0.6383 -0.2658 -0.5096
  668MOL0     C92083  -0.863   4.012   3.557 -0.1065 -0.0763  0.5294
  668MOL0     C92084  -0.899   4.074   3.687 -0.3349  0.8635  0.0249
  668MOL0     C92085  -0.993   4.189   3.662 -0.3361  0.1110  0.4913
  668MOL0     C92086  -1.017   4.261   3.794  0.8134  0.3993  0.0961
  668MOL0     C92087  -1.143   4.357   3.773  0.8608 -0.0825  0.4911
  668MOL0     C92088  -1.197   4.408   3.908 -0.0519  0.1129  0.5154
  668MOL0     C92089  -1.325   4.493   3.875 -0.9104 -0.1932  0.5187
  668MOL0     C92090  -1.399   4.576   3.978 -0.0624  1.1296 -0.3425
  668MOL0    Cl92091  -1.421   4.465   4.124 -0.4739 -0.0274 -0.4011
  668MOL0     C92092  -0.802   3.956   3.261  0.4344  0.5572 -0.4402
  668MOL0     C92093  -0.752   3.938   3.135  0.5895 -0.7203 -0.0485
  668MOL0     O92094  -0.615   4.182   2.848  0.3347 -0.2836 -0.1140
  668MOL0     C92095  -0.526   3.853   2.740 -0.6385 -0.5762 -0.1023
  668MOL0     C92096  -0.483   3.774   2.637 -0.1737 -0.0325  0.3104
  668MOL0     N92097   0.187   3.758   2.223 -0.2481  0.0712 -0.6998
  668MOL0     N92098   0.278   3.715   2.306  0.9443 -0.8926  0.0204
  668MOL0     C92099   0.762   3.408   3.385 -0.2583 -0.3787 -0.9582
  668MOL0     C92100   0.861   3.415   3.488 -0.4548  0.0656  0.5448
  668MOL0     C92101   1.033   3.645   3.893 -0.2518 -0.4265  1.2118
  668MOL0     C92102   1.065   3.775   3.936 -0.4544 -1.1102  0.3372
  668MOL0     C92103   1.130   3.791   4.058 -0.6094  0.2651  0.1590
  668MOL0     C92104   1.140   3.693   4.145  0.0243  0.8985  0.1215
  668MOL0     O92105   1.189   3.724   4.269  0.0307  0.7347 -0.0017
  668MOL0     C92106   1.100   3.723   4.375  0.4217  0.4495  0.3622
  668MOL0     C92107   1.122   3.848   4.465  0.7128 -1.1641  0.0278
  668MOL0     C92108   1.090   3.831   4.610  1.0912  0.9970 -0.1110
  668MOL0     C92109   1.107   3.944   4.719  0.2815  0.0976  0.7207
  668MOL0     C92110   1.238   4.006   4.732  0.7051  0.5851 -0.9124
  668MOL0     C92111   1.339   4.076   4.749  0.1508  0.4320 -0.7401
  668MOL0     C92112   1.104   3.564   4.108 -0.2730  0.8330 -0.3172
  668MOL0     C92113   1.062   3.533   3.979 -0.3184 -1.4079  0.2959
  668MOL0     C92114   1.055   3.389   3.944 -0.6041 -0.2960 -0.4367
  668MOL0     H92115   0.742   3.693   3.638  0.3045  1.8347 -0.6205
  668MOL0     H92116   0.582   3.685   3.482  3.0092  1.6016  1.0143
  668MOL0     H92117   0.509   3.293   3.237 -1.6727  0.5592 -0.6649
  668MOL0     H92118   0.618   3.409   3.154  0.2810  2.0808  0.8701
  668MOL0     H92119   0.461   3.435   2.997  1.5163  1.7436  0.1230
  668MOL0     H92120   0.341   3.342   3.080 -0.8220  1.0517 -2.3743
  668MOL0     H92121   0.294   3.571   3.211 -0.5253 -0.4366  0.0187
  668MOL0     H92122   0.393   3.632   3.088  3.3064 -2.3385  0.5129
  668MOL0     H92123   0.121   3.472   3.057 -1.7812  0.7140 -0.4372
  668MOL0     H92124   0.137   3.636   3.024 -0.0371  0.2618  2.4293
  668MOL0     H92125   0.114   3.523   2.820  0.9657  0.7043 -1.8087
  668MOL0     H92126   0.231   3.400   2.858  4.8302  0.5196  0.2651
  668MOL0     H92127   0.323   3.689   2.833  0.7072  1.6496 -2.5946
  668MOL0     H92128   0.410   3.549   2.786  0.0351  0.2809  2.2224
  668MOL0     H92129   0.152   3.612   2.642 -0.1865 -1.2809 -2.0870
  668MOL0     H92130   0.278   3.511   2.591 -0.4398 -0.8775  1.4239
  668MOL0     H92131   0.320   3.821   2.614 -1.7251  0.8207 -0.0906
  668MOL0     H92132   0.417   3.689   2.530 -0.0283  0.7214 -1.6330
  668MOL0     H92133   0.089   3.879   2.523  1.2984  1.9192 -1.1166
  668MOL0     H92134  -0.049   3.939   2.170  0.9707  3.1711  0.5914
  668MOL0     H92135  -0.046   4.008   2.322 -2.1370  0.7747 -2.6133
  668MOL0     H92136  -0.128   3.712   2.290 -0.2604 -0.7867  2.1695
  668MOL0     H92137  -0.152   3.820   2.432  0.6000  0.4693  0.8088
  668MOL0     H92138  -0.299   3.957   2.276 -2.1589 -0.1996  0.4429
  668MOL0     H92139  -0.258   3.839   2.148 -1.2791  0.9064  0.7912
  668MOL0     H92140  -0.485   3.833   2.236  0.0922 -0.3658  0.6479
  668MOL0     H92141  -0.396   3.680   2.218  1.6134  1.2153 -1.8292
  668MOL0     H92142  -0.473   4.003   2.395 -0.9332 -0.8763 -0.4968
  668MOL0     H92143  -0.501   4.251   2.648 -0.8617  0.6061 -0.5116
  668MOL0     H92144  -0.633   4.218   2.519 -0.8583 -2.1522 -1.8033
  668MOL0     H92145  -0.461   4.217   2.480  0.3953  1.5569  1.0890
  668MOL0     H92146  -0.551   4.195   3.096  0.4162 -1.8900  0.8623
  668MOL0     H92147  -0.642   4.249   3.331  0.9956  0.4396 -1.2874
  668MOL0     H92148  -0.950   4.003   3.492 -0.2528  1.1769  0.5303
  668MOL0     H92149  -0.813   3.915   3.560 -1.7581 -1.1295 -2.4500
  668MOL0     H92150  -0.953   3.993   3.736 -1.1288  0.8302 -0.8811
  668MOL0     H92151  -0.814   4.109   3.746  1.7691 -2.8914 -0.4779
  668MOL0     H92152  -1.087   4.152   3.620 -0.7847  0.0532  1.5018
  668MOL0     H92153  -0.948   4.259   3.591 -0.7197  0.9031  1.0199
  668MOL0     H92154  -0.926   4.318   3.817  1.5050 -0.9175  0.7219
  668MOL0     H92155  -1.024   4.194   3.880  1.5945  0.3541  0.1288
  668MOL0     H92156  -1.119   4.436   3.702 -1.5778 -0.2047 -0.5719
  668MOL0     H92157  -1.233   4.305   3.737 -0.6326  2.0486  0.9783
  668MOL0     H92158  -1.116   4.468   3.951  0.3411  0.3929 -0.5643
  668MOL0     H92159  -1.206   4.324   3.978  2.8193 -0.7785 -0.0230
  668MOL0     H92160  -1.410   4.434   3.839 -2.1086  2.2975 -1.0006
  668MOL0     H92161  -1.300   4.567   3.798  0.5134 -0.5647  0.6059
  668MOL0     H92162  -1.498   4.601   3.939 -0.2836 -0.6690 -1.0377
  668MOL0     H92163  -1.346   4.667   4.007 -0.6916  1.1469  0.8174
  668MOL0     H92164  -0.859   3.874   3.305  1.9488 -0.6131 -0.5725
  668MOL0     H92165  -0.780   3.840   3.098 -3.2366  0.0650  0.2680
  668MOL0     H92166  -0.537   3.806   2.838  0.5026  0.1502  0.3916
  668MOL0     H92167  -0.452   3.670   2.643 -1.2172 -0.4491 -1.0132
  668MOL0     H92168   0.781   3.340   3.302  6.4065  0.1925 -0.4362
  668MOL0     H92169   0.951   3.355   3.492 -0.1640  0.2955 -1.3610
  668MOL0     H92170   1.036   3.860   3.876  0.1328 -1.7130 -0.8152
  668MOL0     H92171   1.169   3.890   4.079 -0.0061 -0.1262  0.9529
  668MOL0     H92172   0.997   3.728   4.340 -0.3172 -1.5793  2.0508
  668MOL0     H92173   1.104   3.629   4.432  1.0800 -0.0558 -0.4903
  668MOL0     H92174   1.062   3.930   4.425  0.7397 -0.3954  1.5154
  668MOL0     H92175   1.225   3.882   4.454  0.8956  1.0120  5.4970
  668MOL0     H92176   0.984   3.805   4.600  1.1021  1.2636 -1.0130
  668MOL0     H92177   1.137   3.742   4.653 -0.5119  0.6251  0.9270
  668MOL0     H92178   1.083   3.901   4.817  1.9173 -2.0432  0.2676
  668MOL0     H92179   1.038   4.025   4.693 -0.3571 -0.2798  1.1904
  668MOL0     H92180   1.426   4.130   4.780 -1.7070  2.2183  1.8482
  668MOL0     H92181   1.124   3.491   4.186 -0.0229  2.1317  0.8836
  668MOL0     H92182   0.950   3.375   3.917 -1.3993  1.8490  1.2933
  668MOL0     H92183   1.120   3.374   3.856 -0.4071 -0.1991 -0.3091
  668MOL0     H92184   1.092   3.331   4.029 -2.1932  3.4719  3.1217
  669MOL0     O92185   2.974   3.524   7.525  0.3066  0.1601  0.0460
  669MOL0     C92186   2.898   3.502   7.616  0.6148  0.3865 -0.2641
  669MOL0     O92187   2.937   3.436   7.736 -0.5312  0.3279 -0.4569
  669MOL0     C92188   3.067   3.382   7.731  0.6719 -0.6749  0.1099
  669MOL0     C92189   3.177   3.462   7.705 -0.7239 -0.2106  0.2007
  669MOL0     C92190   3.301   3.409   7.690 -0.9011  0.1893  1.1146
  669MOL0     C92191   3.319   3.271   7.708  0.1460 -0.3954  0.5891
  669MOL0     O92192   3.431   3.199   7.692  0.1685  0.6677  0.4724
  669MOL0     C92193   3.554   3.267   7.707  0.1446  0.0007 -1.2000
  669MOL0     C92194   3.654   3.171   7.775  0.4821  0.4255  0.2549
  669MOL0     C92195   3.690   3.036   7.699 -0.5174 -1.1105  0.4316
  669MOL0     C92196   3.588   2.930   7.733  0.2273  1.4843  0.1748
  669MOL0     C92197   3.638   2.774   7.722  0.6820  0.7091  0.9928
  669MOL0     C92198   3.676   2.726   7.570  1.3763  0.6874 -0.0706
  669MOL0     C92199   3.729   2.586   7.574  0.1347  0.8250 -0.0323
  669MOL0     C92200   3.767   2.542   7.433  0.1025  0.4994 -0.8917
  669MOL0     N92201   3.840   2.407   7.415 -0.7958 -0.0033 -0.5410
  669MOL0     C92202   3.892   2.329   7.521  0.3928  1.2089  0.2501
  669MOL0     C92203   3.924   2.219   7.458  1.2126 -1.0222 -0.4359
  669MOL0     C92204   3.995   2.111   7.529 -0.5056 -0.5402  0.5324
  669MOL0     C92205   3.969   1.965   7.479 -0.0334 -0.9291  0.2281
  669MOL0     C92206   3.829   1.920   7.475 -0.5541  1.1314 -0.2823
  669MOL0     C92207   3.757   1.933   7.606  0.5654  0.5918  0.2519
  669MOL0     O92208   3.712   2.066   7.632  0.1820  0.7806  0.6365
  669MOL0     C92209   3.668   2.102   7.747 -0.1546 -0.2237 -0.7489
  669MOL0     C92210   3.635   2.017   7.857 -0.5367  0.4374 -0.4026
  669MOL0     C92211   3.594   2.066   7.977 -0.7053  0.1450  0.2106
  669MOL0     C92212   3.561   1.970   8.087  0.0979 -0.2746 -0.5900
  669MOL0     C92213   3.570   2.211   7.982 -0.8766  0.6596 -0.5517
  669MOL0     C92214   3.538   2.285   8.105 -0.0847  0.9822 -0.2186
  669MOL0     O92215   3.568   2.420   8.108  0.5102  0.1260  0.6713
  669MOL0     C92216   3.523   2.485   8.225 -0.2634  0.0636  1.2071
  669MOL0     C92217   3.608   2.576   8.282 -0.2956 -0.4533  0.3644
  669MOL0     C92218   3.562   2.673   8.382  0.2211  0.0791 -0.1738
  669MOL0     C92219   3.439   2.663   8.431 -0.3331 -0.2066  0.6037
  669MOL0     O92220   3.398   2.760   8.520 -0.5645  0.0684  0.0651
  669MOL0     C92221   3.273   2.752   8.595  0.2632  0.5957  0.3772
  669MOL0     C92222   3.293   2.687   8.734  0.7379  0.4007  0.1849
  669MOL0     C92223   3.166   2.672   8.816  0.0340 -0.7239 -0.2374
  669MOL0     C92224   3.073   2.570   8.755 -0.3772 -0.2563  0.6580
  669MOL0     C92225   2.955   2.548   8.851 -0.0255  0.3426  0.1679
  669MOL0     C92226   2.872   2.672   8.875 -0.0984  0.2624 -0.6370
  669MOL0     C92227   2.750   2.628   8.947 -0.6872 -0.7156 -0.6984
  669MOL0     C92228   2.646   2.751   8.935  0.3623 -0.8050  0.3404
  669MOL0    Cl92229   2.727   2.909   9.004  0.2617  0.0552  0.0421
  669MOL0     C92230   3.353   2.562   8.388 -0.6135  0.0667  0.5019
  669MOL0     C92231   3.392   2.478   8.278 -0.4860 -0.2774  0.5539
  669MOL0     O92232   3.486   2.219   8.199 -0.7277 -0.6595 -0.0761
  669MOL0     C92233   3.579   2.287   7.866  0.0057 -0.6781 -0.7539
  669MOL0     C92234   3.623   2.231   7.749  0.6072  0.3603 -0.5609
  669MOL0     N92235   3.895   2.222   7.326  0.2646  0.5951  0.2582
  669MOL0     N92236   3.851   2.331   7.298  0.3915  0.1342  0.0542
  669MOL0     C92237   3.209   3.192   7.742  0.3225 -0.7085  0.3725
  669MOL0     C92238   3.082   3.246   7.754 -0.3681  0.8094 -0.1234
  669MOL0     C92239   2.749   3.546   7.617  0.1830 -0.3734 -0.1358
  669MOL0     C92240   2.691   3.571   7.736  0.7648  0.2287 -0.2743
  669MOL0     C92241   2.551   3.612   7.743 -1.1095  0.4303 -0.0890
  669MOL0     C92242   2.483   3.629   7.627  0.1974  0.6085 -0.6814
  669MOL0     O92243   2.344   3.648   7.644 -0.2218  0.0367  0.2348
  669MOL0     C92244   2.296   3.785   7.625  0.0406 -0.2653  0.4903
  669MOL0     C92245   2.340   3.875   7.743  0.6518  0.0104  0.6606
  669MOL0     C92246   2.245   4.004   7.761  0.3515  0.1425 -0.3036
  669MOL0     C92247   2.326   4.134   7.752 -0.7038 -0.4475 -0.4202
  669MOL0     C92248   2.250   4.253   7.802  1.4694  0.2365  0.9058
  669MOL0     C92249   2.178   4.343   7.836 -0.3078 -0.0435  1.3563
  669MOL0     C92250   2.549   3.616   7.504 -0.3173  0.4912 -0.7093
  669MOL0     C92251   2.683   3.578   7.498 -0.7753 -0.4045 -0.8651
  669MOL0     C92252   2.754   3.573   7.367  0.3281  0.1543 -0.0077
  669MOL0     H92253   3.175   3.570   7.693  4.6176  0.2648  1.1591
  669MOL0     H92254   3.379   3.479   7.661  0.6657 -2.4396 -1.5523
  669MOL0     H92255   3.531   3.346   7.779 -2.1150 -0.0946 -1.7442
  669MOL0     H92256   3.593   3.307   7.613  0.4565 -1.1237 -1.5677
  669MOL0     H92257   3.747   3.228   7.787 -0.1756  1.2032  2.1211
  669MOL0     H92258   3.624   3.128   7.871  1.1451 -3.8611 -1.2504
  669MOL0     H92259   3.710   3.057   7.593  0.0847  0.0202  0.7551
  669MOL0     H92260   3.783   3.002   7.746  2.2941  0.7237 -3.2699
  669MOL0     H92261   3.543   2.937   7.833  1.5923  1.1258  0.8360
  669MOL0     H92262   3.510   2.942   7.657  0.3263  0.7011 -0.0548
  669MOL0     H92263   3.559   2.708   7.760  0.7274  0.3861  0.5333
  669MOL0     H92264   3.723   2.770   7.791  0.1152 -0.0614  1.6752
  669MOL0     H92265   3.587   2.725   7.506  2.6641  0.7777 -1.9485
  669MOL0     H92266   3.750   2.794   7.528  1.1232  0.7422 -0.4312
  669MOL0     H92267   3.661   2.513   7.619  0.3859  2.0423  2.5237
  669MOL0     H92268   3.816   2.584   7.640 -0.9447 -2.2018  1.4844
  669MOL0     H92269   3.669   2.533   7.387  0.1092 -0.0286 -0.8120
  669MOL0     H92270   3.828   2.617   7.382  2.3787  1.9201  3.3967
  669MOL0     H92271   3.914   2.340   7.627  1.7801 -1.1996  0.2675
  669MOL0     H92272   3.966   2.114   7.634 -3.9576 -3.1807 -0.1455
  669MOL0     H92273   4.103   2.123   7.513 -0.5908  1.8082  1.4081
  669MOL0     H92274   4.020   1.954   7.383 -0.5541 -2.1493  0.0782
  669MOL0     H92275   4.028   1.901   7.545  2.9307  1.5502  0.2361
  669MOL0     H92276   3.774   1.968   7.394 -0.8893  1.7550  0.3017
  669MOL0     H92277   3.847   1.812   7.469 -0.2211  1.2104 -0.7827
  669MOL0     H92278   3.674   1.864   7.588  0.0497  0.3316  3.0900
  669MOL0     H92279   3.815   1.886   7.686  0.2626 -3.9735 -1.8887
  669MOL0     H92280   3.642   1.909   7.861  2.7955  0.5576  3.0225
  669MOL0     H92281   3.620   1.878   8.081  0.3610 -0.4113  2.3105
  669MOL0     H92282   3.458   1.937   8.074 -0.0799  0.3121 -0.6997
  669MOL0     H92283   3.575   2.015   8.186  1.5548 -0.7797 -0.5385
  669MOL0     H92284   3.709   2.582   8.242 -0.1568 -0.8845  0.6357
  669MOL0     H92285   3.634   2.732   8.438 -1.6004  2.7848 -0.4849
  669MOL0     H92286   3.238   2.856   8.599  0.3925  0.6705 -0.2938
  669MOL0     H92287   3.190   2.699   8.546 -1.4226  1.3248  2.3035
  669MOL0     H92288   3.350   2.596   8.716  1.1738  0.6504  0.2771
  669MOL0     H92289   3.371   2.742   8.788  0.5530 -0.5150  1.4382
  669MOL0     H92290   3.129   2.775   8.818 -0.5249 -0.9160  2.1346
  669MOL0     H92291   3.198   2.645   8.917  0.2961 -1.4554 -0.5071
  669MOL0     H92292   3.117   2.472   8.739  2.3506  0.7314  1.5700
  669MOL0     H92293   3.033   2.604   8.659 -0.4958  0.6934  1.0284
  669MOL0     H92294   2.887   2.471   8.814  0.1319  1.3241 -2.2971
  669MOL0     H92295   2.989   2.516   8.950  0.4613  1.2186  0.2934
  669MOL0     H92296   2.842   2.705   8.775 -1.8018 -2.0702 -0.9750
  669MOL0     H92297   2.924   2.749   8.933  0.6760 -0.1593 -0.7567
  669MOL0     H92298   2.758   2.595   9.051 -3.2547 -0.2578 -0.2931
  669MOL0     H92299   2.707   2.548   8.885  1.5202 -0.2395 -3.0422
  669MOL0     H92300   2.551   2.740   8.988 -1.0703  1.8307 -1.4313
  669MOL0     H92301   2.608   2.768   8.834 -2.1574  1.1511  1.4864
  669MOL0     H92302   3.251   2.558   8.426 -1.8901  3.8430 -1.8897
  669MOL0     H92303   3.329   2.400   8.236 -0.4884  0.5438 -1.0368
  669MOL0     H92304   3.558   2.393   7.863  2.0211 -0.0910  2.1921
  669MOL0     H92305   3.625   2.301   7.666 -1.8335  2.8347  1.3050
  669MOL0     H92306   3.218   3.085   7.753 -0.4856 -1.4144 -3.9405
  669MOL0     H92307   2.988   3.192   7.765 -1.0774  2.1445  0.6104
  669MOL0     H92308   2.738   3.553   7.831  1.2014  2.4975  0.0049
  669MOL0     H92309   2.508   3.646   7.837  1.5174 -0.1612  1.4155
  669MOL0     H92310   2.327   3.827   7.529 -1.6872  1.2743  0.5539
  669MOL0     H92311   2.187   3.792   7.631  0.1511  2.4432  0.7736
  669MOL0     H92312   2.446   3.902   7.742  1.0496 -1.4763 -0.0175
  669MOL0     H92313   2.329   3.810   7.831 -1.1355 -0.4549  0.1499
  669MOL0     H92314   2.163   4.006   7.687 -0.3752  2.4287  0.4762
  669MOL0     H92315   2.196   4.001   7.858 -0.9715  1.4903 -0.8815
  669MOL0     H92316   2.363   4.161   7.652  0.0774  0.3574  0.0785
  669MOL0     H92317   2.408   4.121   7.822 -1.7534 -2.7367  0.4902
  669MOL0     H92318   2.115   4.416   7.884 -0.8120  0.3277  0.1768
  669MOL0     H92319   2.477   3.626   7.423 -0.3598 -1.3489 -0.9425
  669MOL0     H92320   2.667   3.575   7.300 -1.5727 -0.7442  2.2577
  669MOL0     H92321   2.818   3.661   7.361  0.9355 -0.2827 -0.0022
  669MOL0     H92322   2.819   3.488   7.346 -0.5157 -0.6949  0.6920
  670MOL0     O92323   3.483   6.894   7.106 -0.1640 -0.1855  0.3170
  670MOL0     C92324   3.466   6.783   7.160 -0.0745  0.5296  0.7755
  670MOL0     O92325   3.493   6.659   7.102 -0.0958 -0.3441 -0.2334
  670MOL0     C92326   3.555   6.630   6.985 -0.7644 -0.2160 -0.2260
  670MOL0     C92327   3.614   6.500   6.977  0.3587 -0.1972  0.4469
  670MOL0     C92328   3.667   6.458   6.851  1.0381 -0.4738 -0.2740
  670MOL0     C92329   3.640   6.529   6.736  0.1702  0.2670 -0.2729
  670MOL0     O92330   3.654   6.470   6.613 -0.5472  0.1942  0.0414
  670MOL0     C92331   3.666   6.329   6.605  0.5577 -0.9420  0.6730
  670MOL0     C92332   3.632   6.286   6.458 -0.1759 -0.9781  0.1124
  670MOL0     C92333   3.574   6.144   6.449 -0.4414  0.1637  0.6618
  670MOL0     C92334   3.431   6.130   6.404  0.0831 -0.3374  0.5115
  670MOL0     C92335   3.386   5.988   6.421  0.2364  0.7523  0.1785
  670MOL0     C92336   3.474   5.873   6.363 -0.7545  0.4745 -0.7047
  670MOL0     C92337   3.401   5.738   6.392 -0.2515  0.6524  0.6172
  670MOL0     C92338   3.454   5.628   6.298 -0.4978  0.6515  0.7803
  670MOL0     N92339   3.383   5.503   6.321 -0.4328  0.9207 -0.4105
  670MOL0     C92340   3.402   5.429   6.438 -0.0126 -0.6434 -0.2602
  670MOL0     C92341   3.350   5.310   6.416  0.1210  0.4705  0.2278
  670MOL0     C92342   3.348   5.207   6.526  0.4169 -0.3847  0.0793
  670MOL0     C92343   3.452   5.091   6.508  0.0836  0.0969 -0.9604
  670MOL0     C92344   3.599   5.129   6.518  0.1684 -0.1454 -1.0872
  670MOL0     C92345   3.655   5.163   6.662 -0.0791  0.0554  1.4155
  670MOL0     O92346   3.611   5.301   6.690 -0.1719 -0.0468 -0.2214
  670MOL0     C92347   3.684   5.408   6.659 -0.3145  0.6007  0.5398
  670MOL0     C92348   3.811   5.408   6.590  0.2426 -0.1501  0.4890
  670MOL0     C92349   3.876   5.536   6.568 -0.4200 -0.3791  0.0054
  670MOL0     C92350   4.019   5.528   6.516  0.7669  0.2016  0.6764
  670MOL0     C92351   3.810   5.657   6.592 -0.3994 -0.2537 -0.0121
  670MOL0     C92352   3.830   5.791   6.530  0.1316 -0.5571 -0.0730
  670MOL0     O92353   3.922   5.797   6.432  0.6453  0.2257 -0.1862
  670MOL0     C92354   3.948   5.915   6.364  0.3797  0.2567 -0.0389
  670MOL0     C92355   3.884   5.945   6.248  0.7800  0.8055 -0.5103
  670MOL0     C92356   3.924   6.051   6.175 -0.1365 -0.1447  0.0476
  670MOL0     C92357   4.022   6.141   6.225  1.1151 -0.3357  0.0324
  670MOL0     O92358   4.064   6.254   6.157 -0.1395 -0.4544  0.6592
  670MOL0     C92359   4.057   6.258   6.009  0.4645  0.4944  0.6725
  670MOL0     C92360   4.111   6.397   5.972  0.3096 -0.7913 -0.1675
  670MOL0     C92361   4.219   6.410   5.863 -0.1723  0.5309  0.3022
  670MOL0     C92362   4.171   6.368   5.722 -1.9769 -0.8760  0.1397
  670MOL0     C92363   4.280   6.394   5.621 -0.7781  0.0386  0.6944
  670MOL0     C92364   4.258   6.336   5.484  0.0944 -0.2681  0.1988
  670MOL0     C92365   4.383   6.359   5.400 -0.3424 -0.5460 -0.0570
  670MOL0     C92366   4.353   6.403   5.249 -0.2965  0.1870 -0.5631
  670MOL0    Cl92367   4.274   6.257   5.175  0.2488 -0.0493  0.1773
  670MOL0     C92368   4.064   6.126   6.354 -0.9402  0.0081 -0.0605
  670MOL0     C92369   4.036   6.007   6.420 -0.1381 -0.2710 -0.8687
  670MOL0     O92370   3.763   5.882   6.571 -0.0776 -0.6021  0.6696
  670MOL0     C92371   3.688   5.653   6.673 -0.4436 -0.0005  0.3678
  670MOL0     C92372   3.634   5.531   6.703  0.8246  0.0659 -0.3051
  670MOL0     N92373   3.299   5.321   6.287  0.5357  0.9577  0.1816
  670MOL0     N92374   3.306   5.431   6.230  0.6441 -0.3262 -1.0821
  670MOL0     C92375   3.608   6.660   6.743  0.0891  0.4544  0.0642
  670MOL0     C92376   3.559   6.707   6.867 -0.4657  0.3879 -0.1137
  670MOL0     C92377   3.411   6.774   7.292  0.6146 -0.7843  0.0968
  670MOL0     C92378   3.437   6.659   7.373  0.4408 -0.5682  0.3378
  670MOL0     C92379   3.394   6.646   7.510  0.9062  0.2262  0.7287
  670MOL0     C92380   3.338   6.751   7.577  0.7185 -0.3409 -0.3184
  670MOL0     O92381   3.308   6.734   7.706 -0.1413  0.1366 -0.1413
  670MOL0     C92382   3.243   6.837   7.781 -0.1743 -0.1447 -0.0569
  670MOL0     C92383   3.232   6.780   7.925  0.2968  0.3354  0.0958
  670MOL0     C92384   3.196   6.627   7.928  0.0247  0.7447 -0.3685
  670MOL0     C92385   3.209   6.570   8.071 -0.7242 -0.3544  0.5347
  670MOL0     C92386   3.139   6.646   8.176 -0.0814 -1.0548  0.0321
  670MOL0     C92387   3.084   6.723   8.251  0.5985 -0.2370 -0.0528
  670MOL0     C92388   3.309   6.860   7.498 -0.0975 -0.5802  0.4037
  670MOL0     C92389   3.353   6.875   7.372  0.2537  0.0994 -0.2877
  670MOL0     C92390   3.331   7.014   7.305  0.4732  0.8280  0.6199
  670MOL0     H92391   3.630   6.434   7.062  0.7559  0.1214  0.6283
  670MOL0     H92392   3.718   6.363   6.855 -1.8412 -2.0824  2.6908
  670MOL0     H92393   3.581   6.299   6.668 -0.2879  1.3163  0.6993
  670MOL0     H92394   3.754   6.274   6.641 -1.2672 -3.7461  1.1534
  670MOL0     H92395   3.570   6.361   6.407 -0.2841 -1.7089 -0.8715
  670MOL0     H92396   3.731   6.289   6.412 -0.2730  1.1936 -0.0581
  670MOL0     H92397   3.626   6.083   6.375 -1.3695 -1.2633  1.1520
  670MOL0     H92398   3.596   6.094   6.544 -1.4344  1.0602  1.3960
  670MOL0     H92399   3.365   6.190   6.467 -1.4055 -1.6090  0.2253
  670MOL0     H92400   3.430   6.166   6.300  1.2714  3.1709  1.5919
  670MOL0     H92401   3.282   5.988   6.387  0.4515  1.1030 -0.5004
  670MOL0     H92402   3.388   5.975   6.529  0.0902  0.4956  0.1490
  670MOL0     H92403   3.497   5.887   6.257 -3.6921 -0.1445 -1.5045
  670MOL0     H92404   3.562   5.873   6.427 -0.3689  0.5718 -1.2293
  670MOL0     H92405   3.293   5.744   6.381 -0.5410 -1.2135  1.8620
  670MOL0     H92406   3.409   5.706   6.497 -0.1314 -0.5543  0.2587
  670MOL0     H92407   3.432   5.661   6.196  0.1615  1.9077  1.0231
  670MOL0     H92408   3.562   5.612   6.300 -0.5298 -0.2203 -1.5211
  670MOL0     H92409   3.447   5.465   6.530 -1.5490  3.5423 -0.9037
  670MOL0     H92410   3.246   5.170   6.538  0.1686 -0.7344 -2.5927
  670MOL0     H92411   3.373   5.254   6.622 -0.9510  0.3372  0.1038
  670MOL0     H92412   3.432   5.005   6.572  1.3360  0.4636 -0.0462
  670MOL0     H92413   3.433   5.050   6.408  3.6235 -0.6274 -1.4486
  670MOL0     H92414   3.666   5.051   6.479  1.9977 -0.3342  2.0802
  670MOL0     H92415   3.611   5.218   6.455  0.8059  0.3555 -0.2759
  670MOL0     H92416   3.619   5.092   6.737  1.3300 -1.2933  0.8712
  670MOL0     H92417   3.762   5.146   6.670  0.6341  2.0613 -1.9431
  670MOL0     H92418   3.860   5.316   6.560 -0.6600 -0.4559 -0.1230
  670MOL0     H92419   4.069   5.480   6.601 -1.9445 -0.4808  1.9734
  670MOL0     H92420   4.059   5.627   6.492 -1.5302  1.1353  0.4360
  670MOL0     H92421   4.028   5.470   6.424 -2.2822  1.0158 -0.2348
  670MOL0     H92422   3.812   5.874   6.210  1.9601 -0.8720  0.2510
  670MOL0     H92423   3.878   6.067   6.078  0.4291  0.5897 -0.1105
  670MOL0     H92424   4.117   6.179   5.963 -3.4814 -2.9249  0.7166
  670MOL0     H92425   3.952   6.258   5.977  0.6022  1.4750  0.1902
  670MOL0     H92426   4.023   6.456   5.946  0.1087  0.9509  3.6881
  670MOL0     H92427   4.148   6.443   6.064  1.7335  1.2586 -1.6775
  670MOL0     H92428   4.311   6.358   5.889 -0.0652  0.5237 -0.0883
  670MOL0     H92429   4.242   6.517   5.872 -0.5951  0.5562  1.2794
  670MOL0     H92430   4.072   6.411   5.705 -1.1730  0.3652 -1.8221
  670MOL0     H92431   4.153   6.261   5.717 -2.4763 -0.8008  0.2778
  670MOL0     H92432   4.299   6.501   5.607  0.5178 -0.0981  1.2170
  670MOL0     H92433   4.369   6.338   5.652 -2.2957 -2.2317  1.2055
  670MOL0     H92434   4.170   6.377   5.433  0.5860 -0.2049 -0.6141
  670MOL0     H92435   4.225   6.232   5.496 -0.8169  0.0153  0.2218
  670MOL0     H92436   4.437   6.265   5.405 -2.0084 -1.4911  1.4324
  670MOL0     H92437   4.440   6.435   5.454  0.6379 -1.9518  0.9409
  670MOL0     H92438   4.448   6.413   5.194  0.1368 -0.7555 -0.0056
  670MOL0     H92439   4.298   6.497   5.246 -0.8105  0.1680  3.2735
  670MOL0     H92440   4.124   6.193   6.413 -2.1054  0.3320  0.8023
  670MOL0     H92441   4.090   5.981   6.511  1.0619 -3.2783 -2.2758
  670MOL0     H92442   3.632   5.743   6.698  0.3294  0.4749  0.4046
  670MOL0     H92443   3.546   5.539   6.765  0.8117 -2.6129  0.1430
  670MOL0     H92444   3.614   6.725   6.656 -0.5723 -0.4486 -0.6788
  670MOL0     H92445   3.527   6.811   6.873  1.4587  0.9987  0.2402
  670MOL0     H92446   3.489   6.574   7.329 -2.0716 -2.8108  1.4695
  670MOL0     H92447   3.411   6.554   7.565  0.2255  0.1639  0.8372
  670MOL0     H92448   3.289   6.936   7.775  0.4214 -0.2151  2.4379
  670MOL0     H92449   3.141   6.858   7.746 -0.0481  0.5752 -0.0152
  670MOL0     H92450   3.162   6.843   7.980  0.9127  2.6895 -1.6852
  670MOL0     H92451   3.327   6.790   7.979 -0.0605 -2.0232  1.3276
  670MOL0     H92452   3.094   6.613   7.890 -0.2078 -1.1695  0.8248
  670MOL0     H92453   3.270   6.574   7.867  1.8137  0.3925  1.9769
  670MOL0     H92454   3.316   6.573   8.092 -0.3839  2.0159 -1.0488
  670MOL0     H92455   3.167   6.469   8.069 -0.4318 -0.4752  0.4425
  670MOL0     H92456   3.034   6.793   8.315 -3.5788 -2.3866 -0.6083
  670MOL0     H92457   3.255   6.940   7.548  4.1676  4.6178 -2.1453
  670MOL0     H92458   3.274   7.019   7.211  1.8608  2.0530 -0.2013
  670MOL0     H92459   3.287   7.082   7.378 -4.6747 -0.1017 -1.2173
  670MOL0     H92460   3.430   7.045   7.269  0.0994 -1.6776 -3.1727
  671MOL0     O92461   8.521   0.739   8.389 -0.1249 -0.4959 -0.2223
  671MOL0     C92462   8.615   0.749   8.314  0.1104  1.2946  0.4046
  671MOL0     O92463   8.744   0.728   8.342  0.3808 -0.7503 -0.8945
  671MOL0     C92464   8.781   0.728   8.473  1.0087 -0.1711  0.2523
  671MOL0     C92465   8.751   0.815   8.580  0.0159  0.8152 -0.6982
  671MOL0     C92466   8.810   0.808   8.706 -0.3623  1.2888  0.2803
  671MOL0     C92467   8.904   0.705   8.729  0.3930 -0.4617  0.8212
  671MOL0     O92468   8.974   0.692   8.852 -0.1986  0.0990  0.4872
  671MOL0     C92469   8.888   0.698   8.971 -0.1882  0.1223 -0.7566
  671MOL0     C92470   8.949   0.628   9.096 -0.0447  0.1361 -0.1493
  671MOL0     C92471   9.097   0.669   9.122  0.5709  0.1910  0.3226
  671MOL0     C92472   9.087   0.786   9.211 -0.0018  0.6890 -0.6362
  671MOL0     C92473   9.230   0.842   9.243 -0.2462  0.3908 -0.6816
  671MOL0     C92474   9.303   0.752   9.348 -0.7179 -0.0030  0.5527
  671MOL0     C92475   9.445   0.734   9.312 -0.4009 -0.6347  0.5997
  671MOL0     C92476   9.478   0.615   9.210 -0.0198 -0.0606  0.1709
  671MOL0     N92477   9.624   0.625   9.175  0.4834 -0.1897  0.8714
  671MOL0     C92478   9.719   0.625   9.274  0.0815  0.1782  0.1649
  671MOL0     C92479   9.828   0.682   9.215 -0.0023  0.2287 -0.6933
  671MOL0     C92480   9.973   0.676   9.266  1.1027  0.7297 -0.0804
  671MOL0     C92481  10.013   0.821   9.308  0.4433 -0.7497  0.9228
  671MOL0     C92482  10.169   0.847   9.334 -0.6924  0.9790 -0.6249
  671MOL0     C92483  10.250   0.718   9.373  0.0227 -0.4292  0.4404
  671MOL0     O92484  10.391   0.745   9.401  0.6020  0.2820  0.4783
  671MOL0     C92485  10.479   0.750   9.291 -0.0442 -0.4021  0.6511
  671MOL0     C92486  10.550   0.637   9.252  0.7187 -0.0484 -0.2873
  671MOL0     C92487  10.620   0.629   9.133  0.0376  0.4073  0.2550
  671MOL0     C92488  10.653   0.491   9.080  0.2780  0.7900  0.5886
  671MOL0     C92489  10.635   0.745   9.051 -0.2579  0.3298 -0.5366
  671MOL0     C92490  10.702   0.761   8.927 -0.4219  0.0762 -1.1869
  671MOL0     O92491  10.802   0.671   8.901  0.2655 -0.2550 -0.3687
  671MOL0     C92492  10.851   0.668   8.774 -0.0215 -0.6266 -1.0615
  671MOL0     C92493  10.983   0.704   8.746 -0.4431 -0.5769  0.3360
  671MOL0     C92494  11.034   0.685   8.615  0.6067  0.5362 -0.3307
  671MOL0     C92495  10.955   0.635   8.512  0.5432  1.0462  0.1294
  671MOL0     O92496  11.010   0.641   8.390 -0.1196 -0.1975  0.5361
  671MOL0     C92497  10.923   0.652   8.278  0.6717  0.1035  0.2017
  671MOL0     C92498  11.019   0.653   8.159  0.1938 -0.0034 -0.1495
  671MOL0     C92499  11.090   0.521   8.142 -0.7995 -0.2064  0.3789
  671MOL0     C92500  11.160   0.529   8.002  0.4611 -0.6558  1.4885
  671MOL0     C92501  11.258   0.418   7.976 -0.6205  0.3116 -0.8123
  671MOL0     C92502  11.360   0.440   7.864 -0.2100  0.4925  0.0023
  671MOL0     C92503  11.293   0.466   7.729 -1.0118  0.2082 -0.0417
  671MOL0     C92504  11.374   0.399   7.618  0.5436  0.2301 -0.5268
  671MOL0    Cl92505  11.262   0.374   7.475  0.1299 -0.0508 -0.1010
  671MOL0     C92506  10.826   0.591   8.543  0.3127 -0.5176 -0.3355
  671MOL0     C92507  10.779   0.606   8.677  0.1765 -0.2530 -0.6989
  671MOL0     O92508  10.654   0.847   8.848  0.2440 -0.7264 -0.2504
  671MOL0     C92509  10.565   0.858   9.091  0.5276 -1.0796 -0.0231
  671MOL0     C92510  10.489   0.865   9.212 -0.2057  0.4513 -0.3377
  671MOL0     N92511   9.798   0.709   9.081 -0.3636  0.9328 -0.8845
  671MOL0     N92512   9.674   0.691   9.066  0.2224  0.0209 -0.2346
  671MOL0     C92513   8.943   0.625   8.620 -0.1487 -0.0826 -0.4717
  671MOL0     C92514   8.888   0.641   8.488  0.1693 -0.2603 -0.6698
  671MOL0     C92515   8.581   0.763   8.163 -0.8141 -0.7131  0.2252
  671MOL0     C92516   8.687   0.738   8.077 -1.0827 -0.0535 -0.4624
  671MOL0     C92517   8.684   0.751   7.942  0.7507 -0.3681 -0.0533
  671MOL0     C92518   8.563   0.794   7.880  0.8066  0.4387  0.9864
  671MOL0     O92519   8.566   0.816   7.743  0.0072 -0.5973 -0.7561
  671MOL0     C92520   8.448   0.858   7.670  0.0036  0.0818  0.0172
  671MOL0     C92521   8.503   0.923   7.546  0.2458 -0.8102  0.1291
  671MOL0     C92522   8.384   0.980   7.467 -0.5392  1.6040 -0.7863
  671MOL0     C92523   8.411   1.036   7.327 -0.5266  0.0815  0.1743
  671MOL0     C92524   8.460   0.919   7.239  0.9446 -0.0142 -0.1466
  671MOL0     C92525   8.493   0.813   7.209 -0.0180 -0.1936 -0.8242
  671MOL0     C92526   8.446   0.796   7.956 -0.8343  0.1285 -0.3279
  671MOL0     C92527   8.454   0.785   8.099  0.1507  0.8092  0.6633
  671MOL0     C92528   8.332   0.816   8.171  0.3292  0.0384  0.2138
  671MOL0     H92529   8.680   0.896   8.576  0.3283  1.6681  4.3890
  671MOL0     H92530   8.788   0.869   8.793  0.3133  1.6295  0.2165
  671MOL0     H92531   8.792   0.647   8.958  0.4595 -0.6280 -2.8842
  671MOL0     H92532   8.880   0.803   9.001 -3.7759 -0.7397  2.0242
  671MOL0     H92533   8.882   0.643   9.180 -1.7664 -3.7026 -0.6041
  671MOL0     H92534   8.945   0.521   9.073  1.8454 -0.4907  2.0900
  671MOL0     H92535   9.164   0.586   9.150  1.4496  0.0943 -1.8186
  671MOL0     H92536   9.152   0.706   9.034  3.7259  0.5400  2.2593
  671MOL0     H92537   9.031   0.868   9.167 -1.5498 -0.9646 -1.9049
  671MOL0     H92538   9.038   0.758   9.305  1.1521  0.8141  0.0281
  671MOL0     H92539   9.220   0.944   9.281 -1.4758  0.2525 -0.6063
  671MOL0     H92540   9.284   0.835   9.148 -1.4133  1.1805 -1.4324
  671MOL0     H92541   9.296   0.810   9.441 -1.4401  1.9203 -0.6652
  671MOL0     H92542   9.262   0.651   9.360 -0.7338 -0.1894 -0.8904
  671MOL0     H92543   9.502   0.719   9.404  2.2145  0.1218 -0.7758
  671MOL0     H92544   9.478   0.832   9.277 -1.4434  0.7797  3.3022
  671MOL0     H92545   9.460   0.517   9.255  2.1050 -1.9906 -2.8263
  671MOL0     H92546   9.408   0.616   9.127  0.9075 -2.1035 -0.6970
  671MOL0     H92547   9.709   0.582   9.373 -0.5174 -1.0219 -0.3939
  671MOL0     H92548  10.028   0.639   9.179  2.1341 -2.2772  1.7357
  671MOL0     H92549   9.990   0.597   9.339  2.8870  1.9230  0.8515
  671MOL0     H92550   9.980   0.894   9.233 -0.1308 -0.5672  1.3443
  671MOL0     H92551   9.960   0.840   9.402  0.5983 -0.1228  0.8850
  671MOL0     H92552  10.213   0.898   9.248 -3.5104  0.1224 -2.7259
  671MOL0     H92553  10.176   0.922   9.414 -1.0960  1.3848 -0.9641
  671MOL0     H92554  10.208   0.657   9.454  1.3990  0.1566  1.6478
  671MOL0     H92555  10.247   0.645   9.292 -1.5485 -1.6651  1.5580
  671MOL0     H92556  10.541   0.544   9.306 -0.0536  0.5419  0.6347
  671MOL0     H92557  10.629   0.409   9.148 -1.8881  0.9068  0.0582
  671MOL0     H92558  10.754   0.487   9.038  0.1587 -1.9482  0.3993
  671MOL0     H92559  10.584   0.470   8.998 -0.1905 -1.2357  1.4300
  671MOL0     H92560  11.048   0.739   8.826  0.2653 -1.6904  0.2700
  671MOL0     H92561  11.134   0.720   8.592 -0.7196  2.6356 -3.6830
  671MOL0     H92562  10.862   0.562   8.264  0.5815  0.6092 -4.0416
  671MOL0     H92563  10.853   0.737   8.286 -1.0032 -1.1756 -0.2923
  671MOL0     H92564  10.965   0.678   8.067  1.8224 -1.0002 -1.4200
  671MOL0     H92565  11.095   0.732   8.167 -0.2009  0.3384  0.3916
  671MOL0     H92566  11.013   0.444   8.148 -0.8149 -0.1164  1.6842
  671MOL0     H92567  11.162   0.514   8.224 -0.6507  1.9489  0.5106
  671MOL0     H92568  11.219   0.622   7.999  1.8298 -1.4077  3.2777
  671MOL0     H92569  11.080   0.538   7.928  0.6162 -0.7543  1.3060
  671MOL0     H92570  11.310   0.398   8.071 -3.0921 -1.9368  0.1788
  671MOL0     H92571  11.197   0.332   7.947  1.3330 -0.8330 -1.7222
  671MOL0     H92572  11.419   0.348   7.865 -1.0348 -0.0910  2.2385
  671MOL0     H92573  11.427   0.521   7.894  2.2213 -0.7704 -1.6563
  671MOL0     H92574  11.267   0.570   7.711  1.0258  0.7073 -0.3115
  671MOL0     H92575  11.197   0.415   7.735 -2.2043  2.3289 -0.3524
  671MOL0     H92576  11.407   0.300   7.651  0.8014  0.2515 -0.7169
  671MOL0     H92577  11.450   0.470   7.585 -1.7234  2.8506 -0.5269
  671MOL0     H92578  10.774   0.539   8.463 -0.1521 -3.0600  1.4580
  671MOL0     H92579  10.675   0.573   8.683 -0.1513  0.5343 -1.7686
  671MOL0     H92580  10.564   0.948   9.031  0.5722 -1.3177 -0.3840
  671MOL0     H92581  10.444   0.960   9.239 -4.3264 -0.0302 -4.2843
  671MOL0     H92582   9.017   0.545   8.625  1.2186  0.9580 -2.5926
  671MOL0     H92583   8.928   0.584   8.406  1.7609  2.0980 -1.6484
  671MOL0     H92584   8.791   0.716   8.097 -0.5104  3.2117  0.8777
  671MOL0     H92585   8.778   0.752   7.887  1.4549 -1.1083  1.0849
  671MOL0     H92586   8.394   0.767   7.642 -2.7788  1.4118  0.7671
  671MOL0     H92587   8.383   0.931   7.718  2.5940  2.0502  0.7933
  671MOL0     H92588   8.559   0.864   7.472 -0.9618  1.6789 -3.0110
  671MOL0     H92589   8.560   1.011   7.578  0.3212 -1.4428  1.8040
  671MOL0     H92590   8.315   0.897   7.454  2.0372 -0.5205 -1.6989
  671MOL0     H92591   8.330   1.049   7.533  2.0290  0.7596  2.5027
  671MOL0     H92592   8.476   1.123   7.335  0.7834 -0.9681  1.8221
  671MOL0     H92593   8.319   1.075   7.282  0.6679  0.6937 -1.8305
  671MOL0     H92594   8.524   0.710   7.209 -1.2240 -0.5754 -1.8097
  671MOL0     H92595   8.350   0.818   7.910 -2.4134  0.2634  2.7901
  671MOL0     H92596   8.239   0.791   8.119 -0.5131 -0.5367  1.9209
  671MOL0     H92597   8.332   0.754   8.261  1.6049 -1.5300 -0.8050
  671MOL0     H92598   8.327   0.923   8.194  1.1054  0.0863  0.1992
  672MOL0     O92599  11.296  11.549   0.486 -0.5240  1.6577  0.0740
  672MOL0     C92600  11.395  11.591   0.548 -0.5135  0.4146  0.9909
  672MOL0     O92601  11.404  11.709   0.602 -0.0320 -0.7494  0.4956
  672MOL0     C92602  11.293  11.771   0.657 -0.4373  0.5702  0.1181
  672MOL0     C92603  11.274  11.914   0.649 -0.7283  0.9477 -0.5681
  672MOL0     C92604  11.180  11.980   0.724  0.8133 -0.1962  0.6560
  672MOL0     C92605  11.082  11.904   0.795 -0.2853  0.6091  0.0729
  672MOL0     O92606  10.996  11.981   0.857 -0.0568 -0.4715 -0.1745
  672MOL0     C92607  10.914  11.909   0.958  0.1381  0.5772  0.0488
  672MOL0     C92608  10.799  12.001   1.003  0.2629 -1.0039  0.4315
  672MOL0     C92609  10.849  12.124   1.075  1.7080  0.2790 -0.1636
  672MOL0     C92610  10.898  12.084   1.221 -0.9452  0.4482 -0.6316
  672MOL0     C92611  10.928  12.215   1.301  0.4856  0.2142  1.0074
  672MOL0     C92612  10.995  12.194   1.436 -0.3537 -0.0652 -0.5037
  672MOL0     C92613  11.130  12.113   1.420  0.3406  0.1770  0.9043
  672MOL0     C92614  11.200  12.115   1.553 -0.1855  0.1573  0.5243
  672MOL0     N92615  11.323  12.042   1.545  0.2179  0.5297 -0.1003
  672MOL0     C92616  11.359  11.921   1.487 -0.3653 -0.4538 -0.6154
  672MOL0     C92617  11.488  11.902   1.523  0.6811 -0.0866 -0.8509
  672MOL0     C92618  11.558  11.778   1.480 -0.0839 -0.9857  0.1500
  672MOL0     C92619  11.713  11.788   1.436  0.4653  0.5334  0.5503
  672MOL0     C92620  11.794  11.658   1.439  0.3490  0.1214 -0.8289
  672MOL0     C92621  11.779  11.589   1.309  0.5797  0.4650  0.8501
  672MOL0     O92622  11.839  11.463   1.328 -0.3775  0.2463 -0.0130
  672MOL0     C92623  11.804  11.343   1.276  0.0637  0.1732 -0.6088
  672MOL0     C92624  11.699  11.319   1.185  0.6884  0.7025 -0.0301
  672MOL0     C92625  11.659  11.198   1.127  0.3873  0.1049  0.2011
  672MOL0     C92626  11.553  11.214   1.014 -0.6661  1.0299 -0.1955
  672MOL0     C92627  11.722  11.079   1.170 -0.1624 -1.1388 -0.5899
  672MOL0     C92628  11.692  10.942   1.123  0.3685  0.3164 -1.3504
  672MOL0     O92629  11.807  10.866   1.101  0.9364 -0.0359  0.7159
  672MOL0     C92630  11.796  10.736   1.058 -0.1681 -0.8201  0.3156
  672MOL0     C92631  11.693  10.674   0.989 -0.3060 -0.3438  0.8545
  672MOL0     C92632  11.714  10.545   0.946 -0.5793 -0.0294 -0.0938
  672MOL0     C92633  11.825  10.470   0.982  0.5022  0.5650  0.3408
  672MOL0     O92634  11.822  10.342   0.931 -0.2842 -0.7855  0.3191
  672MOL0     C92635  11.886  10.246   1.023 -0.4504  0.4609  0.3794
  672MOL0     C92636  11.883  10.117   0.944  0.1123  0.8328  0.0820
  672MOL0     C92637  11.759  10.030   0.976  0.3540 -0.2395 -0.8232
  672MOL0     C92638  11.754   9.964   1.120 -0.3872 -0.7418  0.5283
  672MOL0     C92639  11.611   9.902   1.147  0.6347 -0.2886 -1.0658
  672MOL0     C92640  11.492   9.985   1.200  0.6793 -0.4584 -0.3775
  672MOL0     C92641  11.407  10.054   1.095 -0.9839  0.7036  0.2728
  672MOL0     C92642  11.363  10.192   1.141 -0.2269  0.3089  0.3510
  672MOL0    Cl92643  11.497  10.296   1.167  0.1666 -0.2513  0.3155
  672MOL0     C92644  11.926  10.531   1.058  1.1740  0.1079 -0.4460
  672MOL0     C92645  11.912  10.665   1.088  0.6806 -0.4478 -0.3554
  672MOL0     O92646  11.576  10.916   1.095 -0.5014  0.2457 -1.0836
  672MOL0     C92647  11.826  11.094   1.267  0.6799 -0.1861 -0.7555
  672MOL0     C92648  11.860  11.219   1.317  0.6543 -0.5755  0.6134
  672MOL0     N92649  11.520  11.996   1.622 -0.2957 -0.7850  0.6200
  672MOL0     N92650  11.414  12.076   1.634  0.7514 -0.0855 -0.4967
  672MOL0     C92651  11.100  11.767   0.807  1.0629  0.5336 -0.4146
  672MOL0     C92652  11.198  11.701   0.734 -1.2200  0.4725 -0.4860
  672MOL0     C92653  11.516  11.501   0.546 -0.5709  0.1871  0.0516
  672MOL0     C92654  11.616  11.547   0.628 -0.0516  0.4844  0.3416
  672MOL0     C92655  11.737  11.480   0.658  1.3232 -0.0740  0.8392
  672MOL0     C92656  11.755  11.362   0.584  0.0729  0.2443  0.0379
  672MOL0     O92657  11.879  11.302   0.575  1.0761  0.6167  0.6299
  672MOL0     C92658  11.979  11.329   0.672 -0.2707  0.4530  1.0308
  672MOL0     C92659  11.930  11.275   0.810 -0.5313  0.1549 -1.0372
  672MOL0     C92660  12.046  11.274   0.917  0.8500 -0.5985 -0.4730
  672MOL0     C92661  12.125  11.143   0.938  1.1411  0.2920  0.2221
  672MOL0     C92662  12.188  11.106   0.811 -0.5990 -0.7123  0.1896
  672MOL0     C92663  12.228  11.080   0.695  0.0645  0.8653 -1.1887
  672MOL0     C92664  11.650  11.306   0.505 -1.0708  0.4801 -0.2625
  672MOL0     C92665  11.535  11.377   0.482  1.1618  0.1542 -0.5223
  672MOL0     C92666  11.437  11.318   0.383 -0.0743 -0.1801 -0.9566
  672MOL0     H92667  11.335  11.978   0.587 -1.7985  1.4806 -1.1047
  672MOL0     H92668  11.166  12.087   0.722  0.8054 -0.1479 -2.3220
  672MOL0     H92669  10.976  11.870   1.040  0.6113  1.0548 -0.0766
  672MOL0     H92670  10.861  11.826   0.911  1.4663  0.9027 -2.1642
  672MOL0     H92671  10.744  12.045   0.919 -0.0880  0.5868  1.4469
  672MOL0     H92672  10.722  11.956   1.067  0.3886  0.8590  2.0073
  672MOL0     H92673  10.937  12.176   1.037  2.1677 -0.3934 -0.0385
  672MOL0     H92674  10.776  12.203   1.091  1.0066 -0.0039 -1.8226
  672MOL0     H92675  10.815  12.034   1.270 -1.0497  2.8560  1.8948
  672MOL0     H92676  10.989  12.024   1.213 -2.0617 -1.0009 -4.4093
  672MOL0     H92677  10.836  12.275   1.309 -0.1322 -0.8465  2.2196
  672MOL0     H92678  10.994  12.278   1.240  1.6769 -0.3213  1.7076
  672MOL0     H92679  11.017  12.292   1.479 -6.0270  1.5266 -0.5098
  672MOL0     H92680  10.923  12.140   1.497  0.4847 -2.0471 -1.1709
  672MOL0     H92681  11.204  12.169   1.362 -0.5676 -0.3896 -0.8796
  672MOL0     H92682  11.113  12.009   1.391 -0.8922  0.4628  0.5577
  672MOL0     H92683  11.229  12.219   1.571  0.1580  1.1008 -4.1659
  672MOL0     H92684  11.139  12.082   1.638 -1.8179  2.2243  0.2603
  672MOL0     H92685  11.315  11.854   1.413  0.3750  0.3458 -1.8146
  672MOL0     H92686  11.500  11.738   1.397 -0.9311  0.3369  0.0717
  672MOL0     H92687  11.541  11.709   1.563  2.4079 -1.2695  0.5151
  672MOL0     H92688  11.723  11.838   1.340 -0.4069  1.4161  0.9073
  672MOL0     H92689  11.753  11.854   1.513  2.4978  1.9516 -1.5827
  672MOL0     H92690  11.896  11.689   1.463 -0.5550  1.8254  1.2013
  672MOL0     H92691  11.764  11.580   1.510 -0.7538  2.1506  1.0858
  672MOL0     H92692  11.675  11.562   1.287  0.2700 -0.2668  2.9379
  672MOL0     H92693  11.830  11.641   1.227  0.3414 -0.6380 -0.0217
  672MOL0     H92694  11.635  11.405   1.168  0.9735  2.1582  4.6207
  672MOL0     H92695  11.598  11.270   0.931  1.3717 -2.3486 -1.5694
  672MOL0     H92696  11.467  11.275   1.045 -1.3443  0.2391 -0.4678
  672MOL0     H92697  11.511  11.119   0.980  1.4903 -0.3768  0.8625
  672MOL0     H92698  11.598  10.720   0.964  1.5485  3.0747 -0.5006
  672MOL0     H92699  11.634  10.509   0.881  0.0161  3.0024 -2.7268
  672MOL0     H92700  11.992  10.271   1.037 -1.1116  2.3538  2.5862
  672MOL0     H92701  11.849  10.220   1.123  1.1317 -2.4229  0.3396
  672MOL0     H92702  11.879  10.143   0.838 -0.8298  2.7123  0.5241
  672MOL0     H92703  11.974  10.064   0.971 -0.2190  0.3531  0.2782
  672MOL0     H92704  11.741   9.941   0.915  1.0681 -2.4484  1.9511
  672MOL0     H92705  11.671  10.094   0.967  0.5316  0.8399  3.3322
  672MOL0     H92706  11.776  10.036   1.199 -0.2499  0.2523 -0.3925
  672MOL0     H92707  11.834   9.889   1.124 -0.3314 -0.6382  2.5475
  672MOL0     H92708  11.581   9.860   1.051 -0.0617  0.4700 -1.1876
  672MOL0     H92709  11.629   9.823   1.221  1.6236  0.5185 -0.4090
  672MOL0     H92710  11.523  10.064   1.269 -1.1327 -0.0986  0.0669
  672MOL0     H92711  11.424   9.920   1.256  2.0652 -1.2077  0.5017
  672MOL0     H92712  11.316   9.994   1.083 -2.1896  2.6067 -0.4684
  672MOL0     H92713  11.451  10.054   0.995 -0.6554 -0.1913  0.4001
  672MOL0     H92714  11.302  10.187   1.232 -2.5190 -2.1016 -1.1718
  672MOL0     H92715  11.297  10.226   1.060  2.1186 -0.0535 -1.8563
  672MOL0     H92716  12.009  10.469   1.093  0.0260 -1.3791 -0.2392
  672MOL0     H92717  11.990  10.725   1.133  0.9391 -1.5702  0.7321
  672MOL0     H92718  11.882  11.003   1.285 -0.7028 -0.8922  0.1584
  672MOL0     H92719  11.939  11.219   1.391  1.7143 -1.6388 -0.4680
  672MOL0     H92720  11.032  11.700   0.859  0.3001  1.4904 -0.1530
  672MOL0     H92721  11.206  11.593   0.743 -1.4166  0.5837  1.7535
  672MOL0     H92722  11.609  11.641   0.682 -1.0978 -0.0903  1.2482
  672MOL0     H92723  11.797  11.519   0.739  0.4024 -0.5805  1.7962
  672MOL0     H92724  12.067  11.276   0.634 -1.8466 -1.3663 -0.2944
  672MOL0     H92725  12.004  11.435   0.663 -0.4044  0.3513 -1.2745
  672MOL0     H92726  11.895  11.171   0.807  1.5157 -0.6441  0.3847
  672MOL0     H92727  11.850  11.337   0.851  0.1384  0.7401 -0.5727
  672MOL0     H92728  12.112  11.360   0.904 -2.0927  2.6052  3.1840
  672MOL0     H92729  11.979  11.295   1.001  0.3258 -1.9385 -0.5320
  672MOL0     H92730  12.053  11.067   0.972 -2.1935  2.4764 -1.3696
  672MOL0     H92731  12.204  11.168   1.009  0.3999  2.5999  0.3052
  672MOL0     H92732  12.256  11.058   0.594 -1.7136 -0.8540 -1.3629
  672MOL0     H92733  11.673  11.213   0.453  1.4996  1.2139 -0.5723
  672MOL0     H92734  11.480  11.225   0.344  1.3334  0.8039 -1.8552
  672MOL0     H92735  11.345  11.292   0.436 -0.0208  1.7682  0.1851
  672MOL0     H92736  11.411  11.380   0.296 -0.2243 -0.4868 -1.1348
  673MOL0     O92737   1.150   3.656   2.845  0.1731 -0.8434  0.2702
  673MOL0     C92738   1.058   3.645   2.932  0.0672 -0.0610  0.3299
  673MOL0     O92739   0.922   3.639   2.908 -1.0123 -0.2239 -0.4058
  673MOL0     C92740   0.869   3.666   2.789 -0.4685 -0.1646  0.7799
  673MOL0     C92741   0.894   3.787   2.730  0.7608 -0.1181  0.0672
  673MOL0     C92742   0.823   3.819   2.607 -0.0758 -0.7965  0.1936
  673MOL0     C92743   0.716   3.742   2.564  0.7760 -0.0187 -0.8006
  673MOL0     O92744   0.641   3.795   2.456 -0.5506 -0.3756  0.2574
  673MOL0     C92745   0.645   3.734   2.322 -0.1769  0.5891 -0.3041
  673MOL0     C92746   0.774   3.759   2.230 -0.7492  0.0789  0.1362
  673MOL0     C92747   0.795   3.652   2.119  0.7148  0.2012 -0.3334
  673MOL0     C92748   0.880   3.533   2.177 -0.4547  0.1205  0.3075
  673MOL0     C92749   0.877   3.398   2.097 -0.1812 -0.0272  0.0072
  673MOL0     C92750   0.896   3.430   1.948 -1.0249  0.4246  0.0647
  673MOL0     C92751   0.897   3.300   1.863  0.1978 -0.0128 -0.0742
  673MOL0     C92752   0.855   3.309   1.710 -0.4185 -0.0362  0.2425
  673MOL0     N92753   0.709   3.323   1.694 -1.0364  0.2301  0.9419
  673MOL0     C92754   0.615   3.226   1.669  0.1756 -0.2553  0.2416
  673MOL0     C92755   0.504   3.285   1.649 -1.2327 -0.2439  0.0857
  673MOL0     C92756   0.367   3.225   1.622 -0.7864 -0.1345 -0.6036
  673MOL0     C92757   0.306   3.288   1.506  1.7730 -0.2121  0.4182
  673MOL0     C92758   0.152   3.270   1.496 -0.1652  0.7293 -0.4014
  673MOL0     C92759   0.076   3.284   1.628 -0.0182  1.0309 -0.2341
  673MOL0     O92760  -0.057   3.322   1.599 -0.2298  0.3760 -0.0771
  673MOL0     C92761  -0.145   3.229   1.553 -0.3710  0.7323  0.3166
  673MOL0     C92762  -0.147   3.091   1.605 -0.4468 -0.6962  0.5419
  673MOL0     C92763  -0.211   2.985   1.535 -0.0309  0.0656  0.4013
  673MOL0     C92764  -0.204   2.843   1.581 -0.3999 -1.1160  0.5535
  673MOL0     C92765  -0.314   3.025   1.443  1.3615 -0.8607  0.7884
  673MOL0     C92766  -0.415   2.941   1.373 -0.5815 -0.0140 -0.9288
  673MOL0     O92767  -0.427   2.953   1.235 -0.0712  0.2017  0.1683
  673MOL0     C92768  -0.541   2.910   1.176  0.5393  0.0686 -0.3394
  673MOL0     C92769  -0.671   2.951   1.226 -0.8883 -0.6684 -0.2087
  673MOL0     C92770  -0.780   2.942   1.138  0.4354  0.4017 -0.0168
  673MOL0     C92771  -0.766   2.882   1.010 -0.7243 -0.0526 -0.5043
  673MOL0     O92772  -0.865   2.885   0.923  0.5112  0.0302 -0.4189
  673MOL0     C92773  -0.968   2.988   0.918  0.2519 -0.8065  0.2547
  673MOL0     C92774  -1.085   2.968   0.813 -0.1820 -0.8447 -0.0070
  673MOL0     C92775  -1.173   2.847   0.857  0.5803 -0.6745 -0.8653
  673MOL0     C92776  -1.289   2.835   0.750 -0.0148  0.3210 -0.9467
  673MOL0     C92777  -1.392   2.730   0.799  0.6779 -0.1839  0.4128
  673MOL0     C92778  -1.493   2.687   0.684  0.2805  0.1401  0.3383
  673MOL0     C92779  -1.429   2.592   0.573 -0.8702  0.2662 -1.0933
  673MOL0     C92780  -1.540   2.519   0.489 -0.1041 -0.2445 -0.7251
  673MOL0    Cl92781  -1.645   2.416   0.584 -0.0299 -0.1722  0.0939
  673MOL0     C92782  -0.646   2.833   0.970 -0.6208 -0.0932  1.6746
  673MOL0     C92783  -0.535   2.856   1.045 -0.4456 -1.5276 -0.0411
  673MOL0     O92784  -0.474   2.860   1.447  0.1829 -1.0215 -0.8156
  673MOL0     C92785  -0.330   3.158   1.405  0.8017  0.2299 -0.3878
  673MOL0     C92786  -0.245   3.259   1.455 -0.0655 -0.7064 -0.4982
  673MOL0     N92787   0.526   3.421   1.647 -0.2235  1.0503  0.2083
  673MOL0     N92788   0.647   3.446   1.679  0.3244 -0.2140  0.0045
  673MOL0     C92789   0.690   3.624   2.632  0.2812 -0.1584 -0.1878
  673MOL0     C92790   0.763   3.583   2.743  0.1829  0.3169  0.0870
  673MOL0     C92791   1.106   3.608   3.066 -0.6893 -0.9086 -0.2224
  673MOL0     C92792   1.216   3.525   3.073 -0.6756 -0.2992  0.4273
  673MOL0     C92793   1.279   3.501   3.190 -0.0010  0.4005  0.2452
  673MOL0     C92794   1.226   3.536   3.312 -1.0260 -0.3804  0.7361
  673MOL0     O92795   1.301   3.496   3.426  0.9268 -0.4046  0.0624
  673MOL0     C92796   1.283   3.580   3.544  0.4469 -0.2425 -0.2896
  673MOL0     C92797   1.291   3.498   3.674  0.6034 -0.7216  0.4705
  673MOL0     C92798   1.437   3.445   3.691 -0.0527 -0.5808 -0.5811
  673MOL0     C92799   1.460   3.433   3.838 -0.4146 -0.2504  0.7112
  673MOL0     C92800   1.599   3.385   3.853  0.2841 -0.1333  0.1058
  673MOL0     C92801   1.717   3.342   3.854  1.0741  0.1990  0.7223
  673MOL0     C92802   1.114   3.622   3.304 -0.2405  0.4803  1.0260
  673MOL0     C92803   1.058   3.664   3.181 -0.1206  0.3549 -0.6586
  673MOL0     C92804   0.942   3.756   3.181 -0.0134 -0.4273 -1.0395
  673MOL0     H92805   0.979   3.843   2.768  1.8378 -0.7760 -1.2349
  673MOL0     H92806   0.842   3.911   2.552 -1.1564 -0.1821  0.8076
  673MOL0     H92807   0.561   3.765   2.259 -3.2618 -3.7461  1.1606
  673MOL0     H92808   0.643   3.628   2.346 -0.2238  0.4899 -0.7462
  673MOL0     H92809   0.755   3.849   2.170 -2.3490 -0.8509 -0.8148
  673MOL0     H92810   0.862   3.772   2.294  1.2187 -0.3022 -2.3196
  673MOL0     H92811   0.703   3.613   2.073  1.0957 -1.6600  0.3667
  673MOL0     H92812   0.854   3.705   2.045 -0.1502  1.4966 -0.1344
  673MOL0     H92813   0.984   3.566   2.190  0.2287 -0.0089 -3.5432
  673MOL0     H92814   0.843   3.507   2.276 -0.2327  0.3032  0.4409
  673MOL0     H92815   0.794   3.330   2.121  0.0257  0.3764  2.0806
  673MOL0     H92816   0.958   3.334   2.133 -1.2000 -1.4948 -0.2012
  673MOL0     H92817   0.811   3.491   1.917 -3.8561 -1.9890  2.5011
  673MOL0     H92818   0.983   3.494   1.935 -2.4163  2.0752 -1.6722
  673MOL0     H92819   0.838   3.222   1.912 -0.0271  1.2825  1.8675
  673MOL0     H92820   0.999   3.262   1.868 -1.3589 -4.5297  1.4729
  673MOL0     H92821   0.909   3.390   1.662  1.8815 -2.4042 -1.4540
  673MOL0     H92822   0.887   3.211   1.672  0.1638 -0.8493  2.6205
  673MOL0     H92823   0.636   3.120   1.653 -0.3938  0.0573 -3.4147
  673MOL0     H92824   0.315   3.228   1.718 -0.4037 -0.4405 -0.3817
  673MOL0     H92825   0.390   3.120   1.604  2.0366  0.7422 -2.7802
  673MOL0     H92826   0.323   3.397   1.510 -0.3985  0.2961 -2.0773
  673MOL0     H92827   0.349   3.248   1.414 -1.5298 -0.1136 -1.3180
  673MOL0     H92828   0.096   3.333   1.426 -1.3407 -1.7383 -1.8513
  673MOL0     H92829   0.134   3.173   1.448  2.3903 -0.9163  1.6847
  673MOL0     H92830   0.074   3.191   1.684  2.1908  0.5235 -0.8766
  673MOL0     H92831   0.122   3.352   1.700 -1.1262 -1.7542  3.4271
  673MOL0     H92832  -0.076   3.057   1.679  0.1929  1.5937  1.0555
  673MOL0     H92833  -0.121   2.836   1.653  2.3107  0.8101 -2.1154
  673MOL0     H92834  -0.177   2.775   1.499 -2.0753 -1.4409  0.2498
  673MOL0     H92835  -0.294   2.806   1.630 -1.3862  0.5546  0.0774
  673MOL0     H92836  -0.696   2.994   1.322  0.6692 -4.5353  2.1946
  673MOL0     H92837  -0.879   2.975   1.170 -0.5135 -3.0109  0.8983
  673MOL0     H92838  -1.016   3.017   1.012 -1.8370 -0.6574 -0.8149
  673MOL0     H92839  -0.915   3.081   0.893 -3.5562  0.5295 -4.2060
  673MOL0     H92840  -1.144   3.060   0.812 -0.5434 -0.8628  3.8920
  673MOL0     H92841  -1.048   2.943   0.713  1.4616  3.4791 -0.7215
  673MOL0     H92842  -1.218   2.867   0.954  0.1380  2.1608 -1.5592
  673MOL0     H92843  -1.109   2.760   0.872  1.0620 -0.2287 -0.2682
  673MOL0     H92844  -1.256   2.801   0.651 -1.1632  1.0395 -1.5986
  673MOL0     H92845  -1.334   2.932   0.729 -0.2359  1.4725  3.8317
  673MOL0     H92846  -1.337   2.641   0.832  1.1218  0.3939  1.2708
  673MOL0     H92847  -1.443   2.767   0.888  0.3657 -1.4922  0.7892
  673MOL0     H92848  -1.546   2.764   0.626 -0.3498 -0.8284 -0.4027
  673MOL0     H92849  -1.578   2.637   0.732  0.8180 -0.6534  0.4742
  673MOL0     H92850  -1.361   2.520   0.619  0.9731  1.6554 -1.5512
  673MOL0     H92851  -1.372   2.657   0.505  3.1188 -0.3323  1.3435
  673MOL0     H92852  -1.492   2.460   0.410  0.5334  1.6640 -1.8469
  673MOL0     H92853  -1.597   2.595   0.434  2.1548  1.3812 -0.9550
  673MOL0     H92854  -0.640   2.785   0.873 -0.9461 -0.5344  1.8727
  673MOL0     H92855  -0.437   2.828   1.007  2.3293  0.6736  4.5964
  673MOL0     H92856  -0.414   3.192   1.345 -2.0367 -0.8396  2.6356
  673MOL0     H92857  -0.272   3.356   1.415  0.3453 -1.3327 -2.3903
  673MOL0     H92858   0.604   3.566   2.598  0.2659 -0.8912  1.0394
  673MOL0     H92859   0.762   3.490   2.799  1.4919 -0.7766 -1.6357
  673MOL0     H92860   1.257   3.498   2.976  0.7605 -1.6954  1.3661
  673MOL0     H92861   1.372   3.444   3.189 -0.3439 -0.2234 -1.6592
  673MOL0     H92862   1.366   3.652   3.545  0.6748 -0.4963 -0.8020
  673MOL0     H92863   1.184   3.626   3.547  0.6526  0.2397 -0.7604
  673MOL0     H92864   1.217   3.418   3.669  0.6929 -0.9398  2.0577
  673MOL0     H92865   1.261   3.563   3.757  1.2975  2.7308 -1.7656
  673MOL0     H92866   1.443   3.350   3.636 -1.3918 -0.8979 -0.2277
  673MOL0     H92867   1.502   3.525   3.655  0.6600 -0.9932 -0.2303
  673MOL0     H92868   1.389   3.358   3.874 -0.9651 -0.0848  0.0093
  673MOL0     H92869   1.452   3.530   3.889 -1.0947  0.5383 -0.7945
  673MOL0     H92870   1.817   3.308   3.839  0.0242 -1.8593 -2.8556
  673MOL0     H92871   1.053   3.652   3.389 -1.1021  0.0605  0.5634
  673MOL0     H92872   0.945   3.811   3.275  0.8659  0.0721 -1.3433
  673MOL0     H92873   0.936   3.820   3.092 -1.5441 -1.0736 -1.4289
  673MOL0     H92874   0.846   3.705   3.172 -1.3629  1.8670 -0.3684
  674MOL0     O92875   6.501   8.505  10.647  0.4683 -0.2985  0.4594
  674MOL0     C92876   6.424   8.417  10.616 -0.6732  0.4178  0.4167
  674MOL0     O92877   6.369   8.402  10.492  0.2917  0.4924  0.0701
  674MOL0     C92878   6.374   8.491  10.389 -0.4524  1.3256 -0.9862
  674MOL0     C92879   6.500   8.513  10.329  1.0636  0.3859 -0.9389
  674MOL0     C92880   6.508   8.599  10.228  0.2008 -0.0553  0.1717
  674MOL0     C92881   6.395   8.665  10.176  0.4541 -0.4582  0.5591
  674MOL0     O92882   6.417   8.765  10.081 -0.1516  0.6164  0.2067
  674MOL0     C92883   6.304   8.828  10.016  0.1343  0.0169  0.4056
  674MOL0     C92884   6.334   8.921   9.899 -0.3159  0.2970 -1.1836
  674MOL0     C92885   6.404   9.059   9.933 -0.1912 -0.9191  0.6148
  674MOL0     C92886   6.416   9.137   9.804  0.1754 -0.3816 -0.2090
  674MOL0     C92887   6.449   9.275   9.844  0.0815 -0.0977 -1.1366
  674MOL0     C92888   6.474   9.356   9.721  0.0791 -0.6629  0.7761
  674MOL0     C92889   6.353   9.440   9.667 -0.4793  0.6164 -0.2553
  674MOL0     C92890   6.259   9.366   9.571  0.4994 -0.9372  0.1652
  674MOL0     N92891   6.167   9.476   9.518  0.2080  0.5454 -0.7633
  674MOL0     C92892   6.059   9.530   9.583  0.1478  0.2474 -0.9191
  674MOL0     C92893   5.997   9.600   9.486  0.4016  0.0027  0.6198
  674MOL0     C92894   5.883   9.690   9.517  0.2324 -1.1088 -0.5903
  674MOL0     C92895   5.763   9.609   9.576  0.4186 -0.3038 -0.1163
  674MOL0     C92896   5.635   9.691   9.569  0.2588 -0.1844  0.1412
  674MOL0     C92897   5.520   9.604   9.612  0.9729 -0.5504  0.6485
  674MOL0     O92898   5.402   9.687   9.629 -0.1113 -0.5653  0.4109
  674MOL0     C92899   5.392   9.750   9.750 -0.4054 -0.0163  0.2317
  674MOL0     C92900   5.370   9.882   9.753  0.1998  0.7085  0.4751
  674MOL0     C92901   5.370   9.964   9.871 -0.2586 -0.5371 -0.9332
  674MOL0     C92902   5.347  10.111   9.867  0.7719  0.3619 -0.6486
  674MOL0     C92903   5.390   9.892   9.996 -0.0131 -0.3295  0.0734
  674MOL0     C92904   5.389   9.958  10.135 -0.2821  0.4208 -0.3660
  674MOL0     O92905   5.385   9.861  10.238 -0.1274 -0.3084 -0.4687
  674MOL0     C92906   5.379   9.916  10.362  0.3299  0.2111  0.4084
  674MOL0     C92907   5.472  10.011  10.399 -0.2114  0.3570  0.1880
  674MOL0     C92908   5.459  10.077  10.522  0.7715 -0.1839 -0.5829
  674MOL0     C92909   5.352  10.050  10.612 -0.1627  1.0302 -0.7352
  674MOL0     O92910   5.349  10.133  10.720  0.1314  0.5156 -0.0067
  674MOL0     C92911   5.345  10.053  10.843 -0.2419 -0.0081 -0.1066
  674MOL0     C92912   5.485  10.027  10.896 -0.2728 -0.6321 -0.7424
  674MOL0     C92913   5.589   9.942  10.810  0.1196 -0.2325 -0.2424
  674MOL0     C92914   5.695   9.877  10.897  0.1409  0.1760  1.0457
  674MOL0     C92915   5.796   9.797  10.814  0.4987  0.3565  1.1434
  674MOL0     C92916   5.774   9.656  10.851 -1.0414  0.4992 -0.3752
  674MOL0     C92917   5.872   9.573  10.772  0.0533 -1.0806  0.4227
  674MOL0     C92918   5.852   9.421  10.798 -0.2015  0.3894  0.3640
  674MOL0    Cl92919   5.947   9.347  10.665  0.0659  0.0233 -0.1032
  674MOL0     C92920   5.258   9.955  10.576  0.5478  0.6453  0.0871
  674MOL0     C92921   5.273   9.885  10.453 -0.4298  0.8453  0.4411
  674MOL0     O92922   5.387  10.082  10.148 -0.5157 -0.1832  0.7272
  674MOL0     C92923   5.410   9.748   9.991  0.1008  0.0188 -0.4108
  674MOL0     C92924   5.413   9.681   9.867 -0.0480  0.3838 -0.2044
  674MOL0     N92925   6.070   9.599   9.371  0.1317  0.1341  0.6478
  674MOL0     N92926   6.179   9.533   9.394 -0.3954  0.9318 -0.3706
  674MOL0     C92927   6.274   8.626  10.224  0.2367 -1.0510  0.5306
  674MOL0     C92928   6.257   8.535  10.327  0.7805 -0.1793  0.1333
  674MOL0     C92929   6.400   8.315  10.715 -0.3641 -0.8029  0.2754
  674MOL0     C92930   6.517   8.245  10.755  0.3078  0.0348 -0.4108
  674MOL0     C92931   6.500   8.144  10.853 -0.2247  0.2734  0.1149
  674MOL0     C92932   6.371   8.101  10.888 -0.8409  0.0858  0.6981
  674MOL0     O92933   6.345   8.002  10.977  0.0574 -0.4724 -0.2893
  674MOL0     C92934   6.357   7.868  10.936 -0.3070 -0.2298 -0.0949
  674MOL0     C92935   6.482   7.790  10.995  1.2601  0.1991  0.1974
  674MOL0     C92936   6.515   7.824  11.140 -0.1863  0.1800 -0.5818
  674MOL0     C92937   6.416   7.785  11.250 -0.3011 -0.2996 -0.4661
  674MOL0     C92938   6.480   7.712  11.359  0.0353  0.1847 -1.2904
  674MOL0     C92939   6.538   7.644  11.443 -0.6490 -0.1937  0.2514
  674MOL0     C92940   6.264   8.180  10.855 -0.0036  0.3101 -0.1501
  674MOL0     C92941   6.279   8.290  10.773 -0.0325  0.2169 -0.6551
  674MOL0     C92942   6.156   8.360  10.746 -0.1238  0.1162  0.0755
  674MOL0     H92943   6.592   8.467  10.363  0.6124 -1.8472 -2.4962
  674MOL0     H92944   6.601   8.631  10.183 -0.0494 -0.5083 -0.6907
  674MOL0     H92945   6.245   8.862  10.102  1.8662  0.0330  1.6416
  674MOL0     H92946   6.243   8.755   9.963  0.6519  0.7576 -1.2618
  674MOL0     H92947   6.409   8.863   9.844  0.0376 -1.4689  0.9849
  674MOL0     H92948   6.236   8.928   9.852 -0.9102 -0.4708 -0.0970
  674MOL0     H92949   6.345   9.111  10.008  1.9425 -1.5202  2.8315
  674MOL0     H92950   6.503   9.035   9.974  0.2622  0.5041  0.4013
  674MOL0     H92951   6.489   9.080   9.747 -0.4651 -0.4301 -0.9958
  674MOL0     H92952   6.327   9.137   9.740  1.5623  0.2301 -2.2112
  674MOL0     H92953   6.538   9.271   9.908  1.1098 -1.6874 -2.5991
  674MOL0     H92954   6.379   9.318   9.917 -0.5486 -2.5863 -0.1674
  674MOL0     H92955   6.547   9.434   9.743 -1.7476  0.5931  2.8528
  674MOL0     H92956   6.516   9.286   9.649  1.2411 -1.6708  2.3657
  674MOL0     H92957   6.407   9.501   9.594  3.8764 -1.5283  0.8086
  674MOL0     H92958   6.303   9.504   9.739 -1.2805 -0.8020  0.4981
  674MOL0     H92959   6.319   9.327   9.488 -3.3827  0.8419 -3.8910
  674MOL0     H92960   6.210   9.287   9.628 -0.1471  1.9088  3.9814
  674MOL0     H92961   6.016   9.509   9.680  1.1103  1.4038 -0.1998
  674MOL0     H92962   5.843   9.722   9.420 -0.5334 -0.5745 -0.1100
  674MOL0     H92963   5.924   9.762   9.588  2.0273 -2.3995 -0.2585
  674MOL0     H92964   5.751   9.525   9.508  0.3871  1.2417 -2.0871
  674MOL0     H92965   5.767   9.579   9.681 -2.7878  0.0245  0.1722
  674MOL0     H92966   5.657   9.771   9.640  0.6996  1.0602 -1.3411
  674MOL0     H92967   5.620   9.724   9.466 -2.8763 -2.4333 -0.2919
  674MOL0     H92968   5.493   9.526   9.541  0.7590 -0.6304  0.8158
  674MOL0     H92969   5.547   9.552   9.705 -3.2222 -2.2900  1.1280
  674MOL0     H92970   5.355   9.924   9.654  2.9560 -0.7042 -0.6528
  674MOL0     H92971   5.341  10.155   9.767  0.9640  1.9611  0.0101
  674MOL0     H92972   5.425  10.157   9.929 -2.0903 -1.3773  4.8004
  674MOL0     H92973   5.259  10.128   9.928  2.6334 -1.2090  2.7797
  674MOL0     H92974   5.548  10.041  10.329  2.2151 -1.8175  1.7167
  674MOL0     H92975   5.525  10.161  10.538 -0.3866  0.4529  1.0708
  674MOL0     H92976   5.292  10.122  10.910 -1.6941 -0.8135 -0.3862
  674MOL0     H92977   5.290   9.959  10.845  1.3805 -1.0378  3.3025
  674MOL0     H92978   5.534  10.124  10.910 -3.7237  1.2781 -0.6075
  674MOL0     H92979   5.475   9.973  10.991  1.9361 -3.1718 -1.8180
  674MOL0     H92980   5.632  10.006  10.731  0.7258 -1.2774 -0.7896
  674MOL0     H92981   5.547   9.849  10.769  2.9238 -1.2244 -1.1303
  674MOL0     H92982   5.646   9.807  10.966  3.0751 -0.2426  2.8641
  674MOL0     H92983   5.745   9.952  10.959 -0.2590  0.2152  1.3266
  674MOL0     H92984   5.798   9.818  10.707 -1.3569  2.2180  1.3989
  674MOL0     H92985   5.896   9.814  10.856  0.5897 -0.9718  1.5096
  674MOL0     H92986   5.670   9.629  10.834 -1.1662  0.8064 -0.1040
  674MOL0     H92987   5.804   9.633  10.954  1.0179  0.8585 -0.8375
  674MOL0     H92988   5.973   9.599  10.804 -0.8859  2.2174  1.0342
  674MOL0     H92989   5.854   9.591  10.665  0.6200 -2.8871 -0.0262
  674MOL0     H92990   5.745   9.414  10.779  0.0193  1.1502 -1.3282
  674MOL0     H92991   5.882   9.393  10.899 -0.3921  3.6007  1.4278
  674MOL0     H92992   5.190   9.934  10.658  0.9093 -0.0988  0.2081
  674MOL0     H92993   5.199   9.807  10.436  2.1409 -1.5096 -0.7958
  674MOL0     H92994   5.416   9.689  10.082 -0.8181  0.7019  0.1147
  674MOL0     H92995   5.432   9.574   9.871  1.3296  0.6109 -0.2959
  674MOL0     H92996   6.181   8.660  10.178 -0.4146 -0.0439  2.4959
  674MOL0     H92997   6.160   8.497  10.357  2.3899 -1.9620  3.6466
  674MOL0     H92998   6.619   8.268  10.727  0.5016 -0.8745 -0.4787
  674MOL0     H92999   6.581   8.084  10.895 -1.3962 -2.9132 -1.7846
  674MOL0     H93000   6.263   7.823  10.970  0.0105 -0.7590  0.0890
  674MOL0     H93001   6.360   7.856  10.827 -0.0120 -0.4767 -0.0593
  674MOL0     H93002   6.566   7.831  10.938  2.9509 -1.1997  1.5980
  674MOL0     H93003   6.480   7.681  10.982 -1.8682 -0.1177  2.2330
  674MOL0     H93004   6.616   7.789  11.164 -0.1126  0.3039 -0.7147
  674MOL0     H93005   6.517   7.933  11.148 -1.6798  0.1650  0.4186
  674MOL0     H93006   6.336   7.717  11.218 -1.2419 -1.5437  3.8286
  674MOL0     H93007   6.359   7.871  11.289 -0.5081  0.1982 -1.8257
  674MOL0     H93008   6.587   7.586  11.519 -1.5703 -0.9172  0.3182
  674MOL0     H93009   6.168   8.135  10.879  0.6804 -1.9083 -1.2210
  674MOL0     H93010   6.120   8.349  10.643 -2.7122  0.6577  0.8605
  674MOL0     H93011   6.075   8.329  10.813 -2.8961  3.1986 -1.5286
  674MOL0     H93012   6.169   8.466  10.768  1.9559 -0.1838  0.4741
  675MOL0     O93013   1.438   8.793   6.895  0.0522  0.7943 -0.2980
  675MOL0     C93014   1.496   8.692   6.859  0.1882  1.3541  0.4620
  675MOL0     O93015   1.615   8.688   6.802 -0.5648 -0.1367 -0.4181
  675MOL0     C93016   1.655   8.816   6.752 -0.3425  0.9969 -0.0829
  675MOL0     C93017   1.621   8.859   6.625 -0.6658 -0.2183 -0.0408
  675MOL0     C93018   1.651   8.988   6.589 -0.3768  0.0863  0.4741
  675MOL0     C93019   1.719   9.077   6.665 -0.6135  0.7105 -0.2512
  675MOL0     O93020   1.753   9.210   6.631 -0.6136  0.3658 -0.3239
  675MOL0     C93021   1.782   9.237   6.493 -0.3427 -0.0914 -0.2760
  675MOL0     C93022   1.908   9.153   6.443 -0.0779  0.7875  0.5463
  675MOL0     C93023   1.994   9.230   6.347  0.5614  0.0347 -0.5015
  675MOL0     C93024   2.071   9.128   6.259 -0.4430 -0.2784  0.4512
  675MOL0     C93025   2.184   9.202   6.187 -0.5770  0.4193  0.7323
  675MOL0     C93026   2.141   9.255   6.046  0.9345 -0.8980  0.1208
  675MOL0     C93027   2.252   9.323   5.970  0.0618  1.3819  1.3761
  675MOL0     C93028   2.351   9.218   5.914 -0.7924  0.0049  0.5381
  675MOL0     N93029   2.293   9.147   5.801  0.3763  0.9849  0.0970
  675MOL0     C93030   2.286   9.006   5.780  0.0367 -1.1955  0.7044
  675MOL0     C93031   2.237   8.998   5.656  0.2638 -0.5172 -0.1465
  675MOL0     C93032   2.213   8.862   5.583 -0.0256 -1.1231 -0.0445
  675MOL0     C93033   2.123   8.763   5.661 -0.2974 -0.3136 -0.4990
  675MOL0     C93034   1.981   8.801   5.681  0.8103 -0.3897 -0.7339
  675MOL0     C93035   1.899   8.695   5.766 -0.4327  0.1143  0.3614
  675MOL0     O93036   1.929   8.720   5.902  0.1934  0.8378 -1.3878
  675MOL0     C93037   1.860   8.653   6.003 -0.2867  0.7730  1.4805
  675MOL0     C93038   1.853   8.713   6.128  0.1073  0.1771 -0.4544
  675MOL0     C93039   1.786   8.639   6.235 -0.6001 -0.5396  0.1848
  675MOL0     C93040   1.793   8.705   6.368  0.3635 -0.9523 -0.4541
  675MOL0     C93041   1.728   8.513   6.222  0.0273 -0.0147  0.3278
  675MOL0     C93042   1.671   8.421   6.325 -0.1995 -0.8792 -0.5200
  675MOL0     O93043   1.608   8.300   6.285 -0.1309  0.1250 -0.2102
  675MOL0     C93044   1.575   8.205   6.379 -0.5358  0.5286 -0.4116
  675MOL0     C93045   1.460   8.132   6.356 -0.8571 -0.3375  0.2070
  675MOL0     C93046   1.444   8.016   6.439 -0.8678  0.6762  0.0357
  675MOL0     C93047   1.531   7.970   6.537 -0.2460  0.5098  0.3201
  675MOL0     O93048   1.515   7.853   6.617  0.0808  0.9918  0.6446
  675MOL0     C93049   1.428   7.740   6.576 -0.0618  0.5684  0.5136
  675MOL0     C93050   1.485   7.611   6.649 -0.1048  0.2547 -0.4649
  675MOL0     C93051   1.586   7.556   6.540  0.0657  1.2023 -0.8015
  675MOL0     C93052   1.652   7.425   6.601 -0.5793 -0.9537  0.4859
  675MOL0     C93053   1.792   7.400   6.535 -0.0109 -0.3738  0.3097
  675MOL0     C93054   1.785   7.364   6.390  0.0172  0.0878 -0.6489
  675MOL0     C93055   1.916   7.293   6.360  0.6614 -0.2086  0.1087
  675MOL0     C93056   1.925   7.263   6.211  0.5057  1.0369  0.7923
  675MOL0    Cl93057   1.916   7.086   6.164  0.1556  0.5684 -0.2591
  675MOL0     C93058   1.633   8.050   6.564 -0.2740 -0.0056  0.5772
  675MOL0     C93059   1.650   8.169   6.494 -0.0223 -0.4122 -0.1440
  675MOL0     O93060   1.684   8.463   6.444  0.7942 -0.7296 -0.6056
  675MOL0     C93061   1.732   8.463   6.094 -0.5366  0.2837  0.4645
  675MOL0     C93062   1.802   8.528   5.987  0.7192 -0.3669 -0.4149
  675MOL0     N93063   2.205   9.123   5.598 -0.3614  0.2092 -0.3681
  675MOL0     N93064   2.241   9.203   5.688 -0.2746 -0.7160  1.0143
  675MOL0     C93065   1.741   9.034   6.799 -0.4774 -0.8592  0.6195
  675MOL0     C93066   1.716   8.903   6.834 -0.1599 -0.4466 -0.2067
  675MOL0     C93067   1.418   8.557   6.865  0.4353  0.6105 -0.2942
  675MOL0     C93068   1.462   8.463   6.774 -0.3851  0.8001  0.0234
  675MOL0     C93069   1.404   8.333   6.764  0.1107  0.3966 -0.9415
  675MOL0     C93070   1.285   8.305   6.840  0.1122 -0.0017  0.0254
  675MOL0     O93071   1.225   8.179   6.833  0.5626 -0.2918 -0.0466
  675MOL0     C93072   1.222   8.120   6.700  0.0817  1.4238 -0.2865
  675MOL0     C93073   1.083   8.065   6.681  0.1813  1.0477 -0.6551
  675MOL0     C93074   1.061   8.003   6.545 -0.0215 -0.2394 -0.2857
  675MOL0     C93075   1.062   8.112   6.439 -0.8661 -0.4013  0.3560
  675MOL0     C93076   1.017   8.056   6.303  0.2069 -0.2814 -0.4531
  675MOL0     C93077   1.007   8.021   6.186  0.1031  0.0094 -0.4023
  675MOL0     C93078   1.244   8.401   6.929  0.7808  0.0095 -0.6813
  675MOL0     C93079   1.316   8.522   6.950 -0.4219 -0.4263  0.1612
  675MOL0     C93080   1.293   8.588   7.086 -0.5003 -0.5266 -0.4368
  675MOL0     H93081   1.557   8.792   6.568 -1.2792 -0.6589  1.1430
  675MOL0     H93082   1.625   9.032   6.494  0.7634  0.9903  0.5565
  675MOL0     H93083   1.795   9.345   6.492  0.8169 -0.2194 -0.9519
  675MOL0     H93084   1.694   9.207   6.436 -0.5541 -1.3343  0.6687
  675MOL0     H93085   1.966   9.128   6.532 -2.6046 -1.8135  1.6056
  675MOL0     H93086   1.876   9.060   6.395  0.7342  1.6002 -1.7146
  675MOL0     H93087   1.939   9.287   6.272 -0.1596 -2.1504 -1.7103
  675MOL0     H93088   2.061   9.298   6.401 -0.3156 -0.6155  1.5054
  675MOL0     H93089   2.122   9.062   6.330 -1.2300 -0.2729  1.0305
  675MOL0     H93090   2.007   9.060   6.201 -0.6028  0.2016  0.0661
  675MOL0     H93091   2.258   9.126   6.159 -0.5164  1.1323 -1.2004
  675MOL0     H93092   2.225   9.288   6.240  1.5851 -0.0211 -0.1117
  675MOL0     H93093   2.081   9.179   5.995  0.0421 -0.7720  0.9619
  675MOL0     H93094   2.066   9.333   6.057 -2.6866 -4.2425  1.7909
  675MOL0     H93095   2.317   9.385   6.033 -0.9597  0.8870  2.9566
  675MOL0     H93096   2.206   9.379   5.888  2.3815  0.4669 -0.6764
  675MOL0     H93097   2.440   9.269   5.876 -1.4052  0.3947 -0.3905
  675MOL0     H93098   2.379   9.143   5.989  1.8658 -0.2870 -0.6089
  675MOL0     H93099   2.339   8.924   5.826 -0.3202 -2.8570 -1.6309
  675MOL0     H93100   2.309   8.816   5.555 -0.5984 -1.8114 -0.9525
  675MOL0     H93101   2.156   8.881   5.492 -2.5442 -0.7013  1.5314
  675MOL0     H93102   2.141   8.671   5.604  2.5032  2.3516 -4.4717
  675MOL0     H93103   2.166   8.745   5.760 -1.1777  0.2841  0.0023
  675MOL0     H93104   1.988   8.895   5.737  0.7142 -1.5793  1.3618
  675MOL0     H93105   1.932   8.820   5.585 -4.7061  0.6629  1.8607
  675MOL0     H93106   1.791   8.696   5.749 -0.4541 -0.8345  0.4004
  675MOL0     H93107   1.943   8.599   5.738  1.7948  1.4871 -1.1619
  675MOL0     H93108   1.906   8.808   6.135 -0.3951  0.3386  1.7459
  675MOL0     H93109   1.829   8.639   6.448 -1.2321 -3.2978 -1.5476
  675MOL0     H93110   1.693   8.742   6.394  0.1043 -1.5257 -0.6075
  675MOL0     H93111   1.854   8.796   6.362 -0.2575 -0.2107  2.7164
  675MOL0     H93112   1.384   8.159   6.284 -2.1162 -2.8218  0.5120
  675MOL0     H93113   1.361   7.949   6.417  2.0376 -2.5936 -1.9344
  675MOL0     H93114   1.332   7.766   6.621 -0.3617 -0.5813  0.5602
  675MOL0     H93115   1.413   7.717   6.470 -0.6140 -1.2836  0.9702
  675MOL0     H93116   1.535   7.638   6.742 -0.2308 -1.9401  0.2974
  675MOL0     H93117   1.409   7.536   6.671  0.5933 -0.2042  0.4137
  675MOL0     H93118   1.667   7.629   6.529 -0.2612  1.7523  0.2322
  675MOL0     H93119   1.531   7.552   6.445  0.2423  0.8741 -0.8886
  675MOL0     H93120   1.581   7.344   6.582 -1.0952 -0.3757 -0.1253
  675MOL0     H93121   1.659   7.432   6.710 -2.5009 -1.5446  0.6851
  675MOL0     H93122   1.858   7.485   6.556 -2.9755  1.4970  2.7620
  675MOL0     H93123   1.841   7.319   6.591 -0.1622 -0.1790  0.7258
  675MOL0     H93124   1.789   7.449   6.321 -2.6707  0.4462 -0.4772
  675MOL0     H93125   1.700   7.298   6.371 -0.4238  0.5102 -0.1557
  675MOL0     H93126   1.917   7.195   6.408  1.3199 -0.7319 -0.9169
  675MOL0     H93127   2.005   7.350   6.389 -1.1567  1.9257  1.7094
  675MOL0     H93128   2.013   7.318   6.175 -2.0091  3.5574 -2.0376
  675MOL0     H93129   1.850   7.313   6.149  0.5664 -0.5666 -0.6409
  675MOL0     H93130   1.697   8.030   6.650  0.4328 -0.1038  0.0389
  675MOL0     H93131   1.751   8.205   6.509  1.1269 -3.3117 -0.2604
  675MOL0     H93132   1.695   8.363   6.074  1.5619 -0.5471  0.4653
  675MOL0     H93133   1.813   8.477   5.891 -0.6791  0.5893 -1.1216
  675MOL0     H93134   1.783   9.108   6.867 -0.5713 -0.5378  0.3321
  675MOL0     H93135   1.748   8.875   6.934  3.3049 -1.2746 -1.4043
  675MOL0     H93136   1.545   8.495   6.711 -1.9457  4.3007 -0.5247
  675MOL0     H93137   1.445   8.258   6.697  2.4608 -0.2438  1.0879
  675MOL0     H93138   1.251   8.185   6.616 -0.5137  1.5866 -0.3698
  675MOL0     H93139   1.300   8.043   6.693 -2.5056 -1.5679  1.3927
  675MOL0     H93140   1.006   8.143   6.694 -1.2637  0.0432 -2.6721
  675MOL0     H93141   1.067   7.977   6.744  1.8644 -0.9490 -2.8720
  675MOL0     H93142   1.149   7.940   6.530  1.3801  1.5104  0.2212
  675MOL0     H93143   0.966   7.950   6.539  0.1989 -0.5139 -1.9484
  675MOL0     H93144   1.163   8.147   6.417 -1.6962  1.0065 -1.4582
  675MOL0     H93145   1.002   8.201   6.460  0.2860  0.8525 -1.3744
  675MOL0     H93146   1.027   7.991   6.086 -0.7173 -1.8337 -0.0675
  675MOL0     H93147   1.164   8.373   6.996 -0.3210  4.3600  0.1238
  675MOL0     H93148   1.198   8.567   7.135 -0.0383  1.9627  1.7893
  675MOL0     H93149   1.370   8.572   7.162  2.0117  1.8161 -2.2548
  675MOL0     H93150   1.290   8.697   7.069 -1.8524 -0.4886 -0.0105
  676MOL0     O93151   3.520   2.674   4.072  0.0061  0.5515  0.8874
  676MOL0     C93152   3.595   2.728   3.991  0.6147  0.2770  0.1563
  676MOL0     O93153   3.660   2.850   4.006  0.4082  0.6338  0.5379
  676MOL0     C93154   3.597   2.928   4.101  0.5134 -0.3139  0.0197
  676MOL0     C93155   3.461   2.954   4.103  0.1376  0.5632 -1.9367
  676MOL0     C93156   3.412   3.028   4.210  0.6168 -0.6215 -0.6105
  676MOL0     C93157   3.494   3.088   4.307  0.4988 -0.4175  0.4275
  676MOL0     O93158   3.451   3.163   4.404  0.7519  0.0842 -0.5141
  676MOL0     C93159   3.332   3.130   4.483  0.1801  0.7149 -0.2882
  676MOL0     C93160   3.335   3.207   4.600  1.0340 -0.1770 -0.5157
  676MOL0     C93161   3.258   3.157   4.725  0.1333 -0.5480 -0.3301
  676MOL0     C93162   3.327   3.204   4.844  0.1247 -0.7145 -0.2881
  676MOL0     C93163   3.239   3.194   4.969  0.3543  0.5713 -0.2312
  676MOL0     C93164   3.311   3.265   5.084 -0.5115  0.1355  1.1868
  676MOL0     C93165   3.244   3.229   5.227  0.2949 -0.0107 -0.0751
  676MOL0     C93166   3.315   3.324   5.333  0.4449  0.6295 -0.0577
  676MOL0     N93167   3.452   3.297   5.363  0.5506 -0.0244  0.4000
  676MOL0     C93168   3.555   3.390   5.395  0.9114  0.6055 -0.4455
  676MOL0     C93169   3.659   3.311   5.436  0.2391  0.4175 -1.1099
  676MOL0     C93170   3.794   3.349   5.492 -0.3577  0.9075  0.0000
  676MOL0     C93171   3.828   3.499   5.460  1.0974  0.2759 -0.2261
  676MOL0     C93172   3.975   3.539   5.459  0.1825 -0.4987 -0.4501
  676MOL0     C93173   4.031   3.556   5.316 -0.3096 -0.3556  0.1481
  676MOL0     O93174   4.046   3.424   5.256  0.0771 -0.1322 -0.4140
  676MOL0     C93175   4.071   3.421   5.117 -0.1849  0.6150 -0.5695
  676MOL0     C93176   4.105   3.528   5.030 -0.8478  0.2617  0.1056
  676MOL0     C93177   4.141   3.507   4.896 -0.3216 -0.2200  0.9387
  676MOL0     C93178   4.202   3.625   4.818 -0.1369  0.3520 -0.2108
  676MOL0     C93179   4.117   3.383   4.834 -0.0491  0.4137  0.3321
  676MOL0     C93180   4.138   3.355   4.693  0.8088  0.4490 -1.2871
  676MOL0     O93181   4.059   3.427   4.605 -0.2238 -0.5006 -0.2685
  676MOL0     C93182   4.057   3.392   4.472  1.5577  0.2133  1.3434
  676MOL0     C93183   3.928   3.358   4.408 -0.0185 -0.1048  0.0231
  676MOL0     C93184   3.922   3.325   4.267  0.3466 -0.0497 -0.5462
  676MOL0     C93185   4.036   3.337   4.189 -0.9060  0.5632 -0.0595
  676MOL0     O93186   4.043   3.305   4.054 -0.3527 -0.1315  0.2748
  676MOL0     C93187   3.939   3.242   3.972 -0.3744  0.6760  0.2962
  676MOL0     C93188   4.004   3.189   3.842  0.5541  0.0524  0.1290
  676MOL0     C93189   3.925   3.088   3.759 -0.0367 -0.2043  0.1924
  676MOL0     C93190   3.793   3.154   3.713 -0.2261  0.2995 -0.5522
  676MOL0     C93191   3.739   3.082   3.593  0.9209 -0.7450 -0.6196
  676MOL0     C93192   3.593   3.126   3.576 -0.1650 -0.1540  0.3562
  676MOL0     C93193   3.534   3.031   3.474  0.4761 -0.2344 -0.3534
  676MOL0     C93194   3.402   3.085   3.428 -0.9314 -0.1960 -0.3215
  676MOL0    Cl93195   3.289   3.108   3.566  0.2670 -0.2616 -0.0194
  676MOL0     C93196   4.154   3.382   4.252 -0.2523  0.4813 -0.5342
  676MOL0     C93197   4.168   3.398   4.383  0.5985 -0.3187  0.4040
  676MOL0     O93198   4.233   3.285   4.666  0.3840  0.4973  0.0769
  676MOL0     C93199   4.079   3.279   4.918 -0.3353 -0.0550 -0.4740
  676MOL0     C93200   4.049   3.291   5.059  0.9061 -0.7821  0.3901
  676MOL0     N93201   3.629   3.175   5.430  0.5133 -0.9771  0.9426
  676MOL0     N93202   3.506   3.170   5.380  0.1576 -0.0719  0.5280
  676MOL0     C93203   3.631   3.069   4.293 -0.7936 -0.3309  0.2138
  676MOL0     C93204   3.687   2.981   4.202  0.0913  0.8564 -0.1515
  676MOL0     C93205   3.629   2.653   3.865 -0.5317 -0.5693  0.8161
  676MOL0     C93206   3.745   2.692   3.797  0.4958  0.5278  0.4746
  676MOL0     C93207   3.796   2.615   3.690 -0.7833  0.0279  1.0563
  676MOL0     C93208   3.733   2.495   3.651 -0.3733 -0.8485  0.3618
  676MOL0     O93209   3.782   2.408   3.548  0.6191  0.3477 -0.3050
  676MOL0     C93210   3.917   2.372   3.547 -0.3575 -0.2348 -0.2643
  676MOL0     C93211   3.918   2.215   3.568  0.7967 -0.5496  0.9930
  676MOL0     C93212   4.064   2.171   3.591 -0.1805  0.3650 -0.6691
  676MOL0     C93213   4.081   2.014   3.595  0.7042  0.4679  0.8575
  676MOL0     C93214   4.215   1.980   3.658  1.1278  0.1975 -0.4943
  676MOL0     C93215   4.322   1.948   3.706 -0.5382 -0.3718  0.4916
  676MOL0     C93216   3.607   2.474   3.698 -0.2949 -0.1581 -0.0586
  676MOL0     C93217   3.552   2.555   3.799 -0.4083 -0.4411  0.3074
  676MOL0     C93218   3.413   2.517   3.857  0.6222 -0.6038  0.1561
  676MOL0     H93219   3.395   2.905   4.032  0.7150 -4.1288  0.3499
  676MOL0     H93220   3.303   3.028   4.216  0.4783  0.1957 -2.3766
  676MOL0     H93221   3.345   3.026   4.515 -1.7247  0.0117 -1.6002
  676MOL0     H93222   3.241   3.132   4.422  0.1110 -1.7488 -0.3902
  676MOL0     H93223   3.436   3.236   4.628  1.0519 -0.4659 -0.2777
  676MOL0     H93224   3.284   3.302   4.578  1.6251  0.0459 -0.9356
  676MOL0     H93225   3.158   3.200   4.729  1.4232  2.6902  1.7082
  676MOL0     H93226   3.239   3.049   4.730  2.5851 -1.0358 -0.2957
  676MOL0     H93227   3.423   3.152   4.845 -0.9995 -2.8897  0.3706
  676MOL0     H93228   3.348   3.311   4.834  0.6862 -0.7421  0.5029
  676MOL0     H93229   3.233   3.086   4.985 -2.2237  0.9189  1.6415
  676MOL0     H93230   3.141   3.235   4.944  1.0132  1.7106 -1.0667
  676MOL0     H93231   3.415   3.233   5.095 -0.0284 -0.3910 -3.1554
  676MOL0     H93232   3.314   3.372   5.063  3.0524 -0.4794 -2.5991
  676MOL0     H93233   3.264   3.125   5.256  0.9555  0.3211  0.6793
  676MOL0     H93234   3.136   3.241   5.213 -0.0851 -0.5872  2.0033
  676MOL0     H93235   3.307   3.422   5.284  2.1894  0.3785 -0.9011
  676MOL0     H93236   3.266   3.335   5.430 -0.4804 -3.4277  0.1041
  676MOL0     H93237   3.552   3.498   5.401  3.4371  0.6460  2.0457
  676MOL0     H93238   3.861   3.273   5.450 -1.7877 -1.4961  1.8629
  676MOL0     H93239   3.783   3.339   5.600 -0.5301 -0.0572 -0.1008
  676MOL0     H93240   3.783   3.528   5.364 -1.0348  0.4659  0.7574
  676MOL0     H93241   3.767   3.554   5.532  0.0971 -0.2238 -0.6661
  676MOL0     H93242   3.980   3.638   5.505 -1.3922  0.5845 -2.4391
  676MOL0     H93243   4.034   3.471   5.521 -1.4090 -2.0048 -0.5242
  676MOL0     H93244   3.967   3.621   5.256 -0.0446 -3.2425 -3.7009
  676MOL0     H93245   4.132   3.598   5.327  0.6920 -2.2443 -1.1962
  676MOL0     H93246   4.108   3.629   5.071 -0.5149 -0.4938  2.0350
  676MOL0     H93247   4.143   3.660   4.732  1.7069  2.2066 -0.8148
  676MOL0     H93248   4.300   3.596   4.780 -1.5823 -0.4270 -3.7687
  676MOL0     H93249   4.215   3.699   4.898 -1.8669 -1.5052  1.9250
  676MOL0     H93250   3.837   3.355   4.467  0.7920 -0.4378  1.2935
  676MOL0     H93251   3.831   3.283   4.224 -0.5389  0.3623  0.8637
  676MOL0     H93252   3.881   3.157   4.011  1.7263 -0.5657  0.9004
  676MOL0     H93253   3.870   3.324   3.953  2.1447  2.2412 -3.2171
  676MOL0     H93254   4.013   3.280   3.782 -3.6184 -2.3391 -4.9502
  676MOL0     H93255   4.099   3.146   3.875  0.3446 -0.1298  0.4941
  676MOL0     H93256   3.899   2.999   3.817  1.4326 -0.6828  0.1546
  676MOL0     H93257   3.984   3.053   3.673  3.5264  2.3844  1.3534
  676MOL0     H93258   3.814   3.250   3.665 -1.3754  0.0689 -1.5656
  676MOL0     H93259   3.722   3.165   3.796  0.3944 -2.9396  0.5438
  676MOL0     H93260   3.794   3.107   3.502 -0.0709 -0.1059 -1.0544
  676MOL0     H93261   3.752   2.974   3.606  1.5322 -0.5985  0.0661
  676MOL0     H93262   3.602   3.225   3.530  2.7497  0.5486  2.1389
  676MOL0     H93263   3.525   3.127   3.662 -4.2311  4.5859 -2.3988
  676MOL0     H93264   3.523   2.933   3.522  2.8085 -0.2239  0.2862
  676MOL0     H93265   3.608   3.012   3.396  2.8347  0.9501  1.4695
  676MOL0     H93266   3.342   3.017   3.367 -3.6851  0.6248  1.3078
  676MOL0     H93267   3.426   3.177   3.375  2.4831 -0.9901 -0.4116
  676MOL0     H93268   4.238   3.394   4.185 -0.9132 -1.9479 -1.9339
  676MOL0     H93269   4.264   3.416   4.431 -0.4417  1.2746  1.9919
  676MOL0     H93270   4.077   3.182   4.868 -0.1578 -0.4979  0.3725
  676MOL0     H93271   4.028   3.204   5.120  2.5826 -0.8860  0.8420
  676MOL0     H93272   3.694   3.120   4.366  1.2647  0.7048 -2.1283
  676MOL0     H93273   3.795   2.965   4.205  0.1004  0.7506 -0.8113
  676MOL0     H93274   3.809   2.775   3.826  1.2956  0.3515 -0.7456
  676MOL0     H93275   3.893   2.642   3.649 -0.0135 -0.9420  2.1588
  676MOL0     H93276   3.957   2.401   3.449  1.4214 -1.5026  0.0425
  676MOL0     H93277   3.988   2.407   3.623  2.3247 -4.2245 -0.6549
  676MOL0     H93278   3.868   2.154   3.492  0.4508  0.3535  0.4796
  676MOL0     H93279   3.855   2.191   3.654 -1.5906  2.1223  0.1466
  676MOL0     H93280   4.128   2.209   3.511  0.3040 -3.2809 -2.1758
  676MOL0     H93281   4.087   2.220   3.687 -3.1324  0.7231 -0.0500
  676MOL0     H93282   4.069   1.962   3.499 -0.8457 -0.7667  1.6851
  676MOL0     H93283   3.993   1.987   3.653  0.2012  0.3798  0.0627
  676MOL0     H93284   4.420   1.926   3.743 -0.3336  0.2472  0.3233
  676MOL0     H93285   3.546   2.386   3.680 -1.5779  0.5861  0.5240
  676MOL0     H93286   3.367   2.603   3.907  1.1682  0.5139 -1.1959
  676MOL0     H93287   3.357   2.509   3.764 -0.5920 -3.1129  1.0181
  676MOL0     H93288   3.417   2.428   3.920  0.5203 -2.0231 -1.7595
  677MOL0     O93289  10.679   8.443   1.300 -0.8073  1.0552 -0.1394
  677MOL0     C93290  10.608   8.497   1.221  0.8728 -1.1108  0.1248
  677MOL0     O93291  10.568   8.447   1.102 -0.4196  0.0644 -0.0540
  677MOL0     C93292  10.592   8.314   1.079 -0.2268 -0.5128  0.4101
  677MOL0     C93293  10.534   8.220   1.164  0.9478 -0.1788 -0.7206
  677MOL0     C93294  10.559   8.085   1.153  0.3276 -0.3544 -0.9976
  677MOL0     C93295  10.637   8.031   1.045  0.2116 -0.7606 -0.1839
  677MOL0     O93296  10.665   7.896   1.044  0.2130 -0.3011 -0.9062
  677MOL0     C93297  10.795   7.865   1.003 -0.0470  0.2352 -0.9591
  677MOL0     C93298  10.892   7.904   1.108 -0.1194  0.1352 -0.0653
  677MOL0     C93299  11.035   7.870   1.067  0.8587  0.0968  0.6925
  677MOL0     C93300  11.055   7.725   1.027  0.0322 -0.6086 -0.0117
  677MOL0     C93301  11.200   7.706   0.988 -0.5262 -0.7823 -0.1279
  677MOL0     C93302  11.224   7.756   0.839 -0.2023  0.1683 -0.1971
  677MOL0     C93303  11.338   7.674   0.762 -0.5505 -0.4627  0.2679
  677MOL0     C93304  11.478   7.704   0.821  0.9090  0.0172 -0.6275
  677MOL0     N93305  11.511   7.846   0.824  0.2333  0.5870  0.1549
  677MOL0     C93306  11.508   7.925   0.937 -0.4443 -0.2438 -0.0318
  677MOL0     C93307  11.572   8.035   0.896 -1.1427 -0.3550 -0.3611
  677MOL0     C93308  11.580   8.148   0.989  1.0289  1.2534 -0.0457
  677MOL0     C93309  11.718   8.221   0.993 -0.4839  0.0908 -0.8908
  677MOL0     C93310  11.714   8.352   1.075 -0.1840 -0.8008 -0.0017
  677MOL0     C93311  11.668   8.338   1.215  0.7209 -0.0765  0.7133
  677MOL0     O93312  11.526   8.388   1.233  0.7209  1.1218 -0.5424
  677MOL0     C93313  11.499   8.448   1.353  0.2539 -0.1522  0.0944
  677MOL0     C93314  11.393   8.537   1.343 -0.1561 -0.1616 -0.0055
  677MOL0     C93315  11.353   8.616   1.449  0.8013 -0.5037 -0.1598
  677MOL0     C93316  11.247   8.716   1.412  0.3165  0.5264  0.1998
  677MOL0     C93317  11.414   8.612   1.574 -0.3987 -0.0330  0.4194
  677MOL0     C93318  11.356   8.688   1.684 -0.1016 -0.1484  0.0375
  677MOL0     O93319  11.339   8.820   1.667  0.1020  0.2038 -0.3495
  677MOL0     C93320  11.267   8.883   1.765 -0.0393 -0.1915 -0.2178
  677MOL0     C93321  11.123   8.899   1.763  0.5520 -0.0912 -0.1456
  677MOL0     C93322  11.060   8.974   1.862  0.2566 -0.5662  0.0697
  677MOL0     C93323  11.142   9.044   1.948 -0.2356 -0.4313  0.0380
  677MOL0     O93324  11.096   9.140   2.031  0.6947  0.5853  0.4366
  677MOL0     C93325  11.009   9.241   1.967  0.3421 -0.6637  0.3781
  677MOL0     C93326  10.939   9.329   2.076  0.3164 -0.3481 -0.3090
  677MOL0     C93327  11.038   9.416   2.160 -0.3233 -0.4428 -0.1356
  677MOL0     C93328  10.973   9.510   2.267 -1.1677 -0.5587 -0.2553
  677MOL0     C93329  11.076   9.603   2.328 -0.9381 -0.0039  0.4766
  677MOL0     C93330  11.017   9.694   2.427 -0.1559  0.3648  0.4135
  677MOL0     C93331  11.122   9.729   2.537  0.1720 -0.3719  0.0655
  677MOL0     C93332  11.233   9.821   2.487 -0.4424 -0.1457  0.7117
  677MOL0    Cl93333  11.329   9.869   2.632  0.2550  0.2518  0.2498
  677MOL0     C93334  11.283   9.029   1.950 -0.3228 -0.3729  0.3087
  677MOL0     C93335  11.348   8.943   1.858 -0.8281  0.5163 -0.5501
  677MOL0     O93336  11.305   8.617   1.772 -0.0489  0.6464  0.0619
  677MOL0     C93337  11.506   8.499   1.597  0.6192 -1.0984  0.5850
  677MOL0     C93338  11.553   8.421   1.485  0.0822 -0.3100  0.4513
  677MOL0     N93339  11.600   8.030   0.765 -0.1171  0.3922  0.4917
  677MOL0     N93340  11.572   7.914   0.720 -0.2590  0.6877 -0.6332
  677MOL0     C93341  10.694   8.130   0.959 -0.4176  0.1787  0.0830
  677MOL0     C93342  10.665   8.266   0.975 -0.4521  0.5126  0.0469
  677MOL0     C93343  10.543   8.633   1.258 -0.4549  0.7873 -0.4075
  677MOL0     C93344  10.628   8.723   1.322  0.4319  0.1334  0.1518
  677MOL0     C93345  10.576   8.845   1.366 -0.5009  0.1367  0.5512
  677MOL0     C93346  10.439   8.879   1.349 -0.0799  0.8717 -0.6403
  677MOL0     O93347  10.408   9.005   1.391 -0.6903  0.2032  0.5799
  677MOL0     C93348  10.268   9.035   1.378 -0.3245  0.1724 -0.2766
  677MOL0     C93349  10.181   8.970   1.495 -0.2133  0.1505 -0.1546
  677MOL0     C93350  10.033   8.986   1.475  0.2760  0.7669  0.0087
  677MOL0     C93351   9.958   8.861   1.519 -0.2320 -0.2057  0.2456
  677MOL0     C93352  10.005   8.731   1.477  0.3355 -0.4135 -0.4380
  677MOL0     C93353  10.049   8.615   1.464  0.6038  1.3102  0.3661
  677MOL0     C93354  10.351   8.777   1.299  0.2576 -0.2959  0.0111
  677MOL0     C93355  10.405   8.657   1.259  0.3393  0.6077  0.2980
  677MOL0     C93356  10.308   8.556   1.209  0.2045  0.1590 -0.5449
  677MOL0     H93357  10.480   8.246   1.255  3.4423 -2.0938  1.4703
  677MOL0     H93358  10.531   8.016   1.231 -0.0313  1.6982  0.7682
  677MOL0     H93359  10.823   7.922   0.914  1.4215  0.7565 -0.1972
  677MOL0     H93360  10.789   7.757   0.988 -0.6888  0.1429 -0.1484
  677MOL0     H93361  10.893   8.012   1.126  0.0039  0.1379 -0.0871
  677MOL0     H93362  10.868   7.847   1.198 -0.6016  1.0809  0.4278
  677MOL0     H93363  11.064   7.926   0.978  3.1835  0.3851  1.5687
  677MOL0     H93364  11.111   7.910   1.134  0.0231 -2.0083  3.0597
  677MOL0     H93365  11.034   7.667   1.118  1.1897 -1.6829 -0.4023
  677MOL0     H93366  10.988   7.695   0.947  1.9006 -0.6429 -1.6459
  677MOL0     H93367  11.212   7.598   0.993  3.9056 -0.4596 -0.0556
  677MOL0     H93368  11.278   7.746   1.053  3.0482 -4.1311 -1.9276
  677MOL0     H93369  11.133   7.738   0.781 -2.5035  3.8766  1.8990
  677MOL0     H93370  11.244   7.863   0.830  2.0239 -0.2499 -1.1075
  677MOL0     H93371  11.347   7.722   0.664 -1.7738  1.5637  1.0935
  677MOL0     H93372  11.312   7.569   0.751  0.7764 -0.8455  0.6438
  677MOL0     H93373  11.487   7.658   0.920  0.2516 -0.7045 -0.8920
  677MOL0     H93374  11.546   7.657   0.749 -0.6990 -0.8446 -1.6499
  677MOL0     H93375  11.467   7.911   1.037  2.7149 -1.4628  1.2332
  677MOL0     H93376  11.578   8.100   1.087 -1.0178 -0.7551 -0.9796
  677MOL0     H93377  11.502   8.223   0.968 -1.9602 -1.4608  0.5805
  677MOL0     H93378  11.785   8.152   1.044 -1.7700  0.0847  0.8953
  677MOL0     H93379  11.751   8.257   0.895  0.6497  3.1552  0.4968
  677MOL0     H93380  11.807   8.408   1.066 -0.6181 -0.1077 -0.3016
  677MOL0     H93381  11.634   8.408   1.026 -3.4756 -4.3578  0.7913
  677MOL0     H93382  11.676   8.233   1.247  3.1069  0.8898  3.7713
  677MOL0     H93383  11.737   8.393   1.280  0.5087  2.1848 -0.8581
  677MOL0     H93384  11.343   8.548   1.248  0.4855 -0.1639 -0.3486
  677MOL0     H93385  11.171   8.718   1.490 -2.2821 -0.7593 -2.1032
  677MOL0     H93386  11.185   8.667   1.336 -0.4475  2.4196 -0.4683
  677MOL0     H93387  11.289   8.806   1.365  2.3411 -0.7855 -0.6658
  677MOL0     H93388  11.052   8.851   1.697 -1.4025 -1.8799  3.0050
  677MOL0     H93389  10.954   8.994   1.855 -0.3866 -3.8137 -1.7228
  677MOL0     H93390  11.061   9.312   1.902 -1.9747  2.0961  1.3015
  677MOL0     H93391  10.923   9.203   1.912 -2.9820  4.3944  1.4016
  677MOL0     H93392  10.851   9.373   2.028  0.1055  0.6003  0.8951
  677MOL0     H93393  10.892   9.264   2.150  0.3669 -0.5958 -0.4947
  677MOL0     H93394  11.101   9.480   2.097 -1.0226  0.1713 -0.2342
  677MOL0     H93395  11.114   9.359   2.214 -2.9318 -1.4133  2.7551
  677MOL0     H93396  10.927   9.456   2.350 -1.2833  0.5153  0.3955
  677MOL0     H93397  10.902   9.580   2.221 -1.1388  0.3910  1.1007
  677MOL0     H93398  11.147   9.534   2.376  0.3490  0.3085 -0.8792
  677MOL0     H93399  11.137   9.656   2.255  0.9308 -1.2848  1.0208
  677MOL0     H93400  10.920   9.658   2.464  0.2283 -0.9248  0.2101
  677MOL0     H93401  10.998   9.784   2.369  0.3997 -0.6133 -1.3568
  677MOL0     H93402  11.166   9.641   2.584  0.4614 -1.9900 -2.9932
  677MOL0     H93403  11.076   9.791   2.615  0.5557  0.4631 -0.3553
  677MOL0     H93404  11.193   9.910   2.437  1.3710  1.0025  1.1959
  677MOL0     H93405  11.294   9.775   2.409 -1.5359  1.0487 -0.9265
  677MOL0     H93406  11.335   9.075   2.034 -2.1533 -2.4455  2.7492
  677MOL0     H93407  11.456   8.940   1.857 -0.8458 -0.3343 -0.6267
  677MOL0     H93408  11.543   8.471   1.695 -0.1406 -0.1894  1.1569
  677MOL0     H93409  11.636   8.354   1.502  1.1319  0.8264 -0.0106
  677MOL0     H93410  10.762   8.099   0.881 -1.6347 -0.9718 -0.5607
  677MOL0     H93411  10.690   8.325   0.887 -0.2580  0.2057 -0.1052
  677MOL0     H93412  10.733   8.710   1.346  0.3871  1.9554  1.5631
  677MOL0     H93413  10.641   8.921   1.409 -0.5926  0.5369 -0.0050
  677MOL0     H93414  10.243   9.141   1.387 -0.3246  0.2520 -1.1131
  677MOL0     H93415  10.234   9.007   1.278 -1.7259  1.9727 -0.3574
  677MOL0     H93416  10.207   9.021   1.588 -0.8514 -0.0260  0.1257
  677MOL0     H93417  10.214   8.866   1.507 -1.8456 -0.3844 -0.0490
  677MOL0     H93418   9.992   9.067   1.536 -0.7232 -1.1508  2.0333
  677MOL0     H93419  10.010   9.000   1.369  2.5486  0.4607 -0.5865
  677MOL0     H93420   9.857   8.864   1.476 -0.7795 -1.5820  1.3812
  677MOL0     H93421   9.959   8.860   1.628 -0.4221 -1.5852  0.2403
  677MOL0     H93422  10.062   8.511   1.443  0.8167  1.3036  0.5414
  677MOL0     H93423  10.244   8.797   1.288 -0.1049 -0.1607  2.9030
  677MOL0     H93424  10.206   8.593   1.220  1.3619  2.9866  2.3379
  677MOL0     H93425  10.324   8.537   1.103  2.8876 -0.7065 -0.0789
  677MOL0     H93426  10.323   8.463   1.265 -1.0111 -0.7901 -1.7373
  678MOL0     O93427  10.180   7.623   6.118 -0.2226 -0.1261  1.1212
  678MOL0     C93428  10.206   7.535   6.191  0.3240  0.5101  0.2762
  678MOL0     O93429  10.165   7.525   6.320  0.0123  0.3038  0.1194
  678MOL0     C93430  10.115   7.641   6.381  0.1944 -0.2303  0.0726
  678MOL0     C93431  10.195   7.746   6.408  0.3098 -0.5649 -0.3604
  678MOL0     C93432  10.155   7.876   6.464  0.1574 -0.4950  0.2640
  678MOL0     C93433  10.016   7.888   6.505 -0.5193 -0.4630 -0.3390
  678MOL0     O93434   9.965   8.002   6.559  0.7994 -0.1473  0.5119
  678MOL0     C93435   9.839   7.999   6.633  0.6228 -0.7402 -0.0855
  678MOL0     C93436   9.817   8.133   6.684  0.2961 -0.3760 -0.3215
  678MOL0     C93437   9.817   8.233   6.578  0.6794  0.1018  0.4828
  678MOL0     C93438   9.746   8.370   6.611  0.3177  1.0871  0.4109
  678MOL0     C93439   9.814   8.428   6.744 -0.1688  0.3751  0.6678
  678MOL0     C93440   9.761   8.569   6.764  0.3214 -0.5131  0.1491
  678MOL0     C93441   9.838   8.647   6.867 -0.2249  0.5530  0.2966
  678MOL0     C93442   9.859   8.567   7.000  0.1132 -0.7072  0.0803
  678MOL0     N93443   9.905   8.669   7.105  0.4330 -0.4700  0.0243
  678MOL0     C93444   9.817   8.747   7.177  1.3963  0.2788  0.4253
  678MOL0     C93445   9.899   8.810   7.269  0.1149 -0.2811  0.0796
  678MOL0     C93446   9.859   8.925   7.355 -0.6943  0.4053  0.3246
  678MOL0     C93447   9.830   8.896   7.499 -0.5794  0.1158  0.3499
  678MOL0     C93448   9.730   8.783   7.522 -0.0587  0.0930  0.5043
  678MOL0     C93449   9.589   8.821   7.468 -0.7187 -0.1686  0.3952
  678MOL0     O93450   9.495   8.724   7.493  0.0860 -0.1771  0.5836
  678MOL0     C93451   9.364   8.751   7.471  0.5666 -0.4514  0.1297
  678MOL0     C93452   9.267   8.664   7.526 -0.8166 -1.2850 -0.2239
  678MOL0     C93453   9.133   8.695   7.524  0.3472 -0.2756  1.2029
  678MOL0     C93454   9.037   8.596   7.584 -0.4934 -0.6333 -0.1490
  678MOL0     C93455   9.076   8.816   7.465 -0.4714 -0.0967  1.2940
  678MOL0     C93456   8.934   8.826   7.421  0.5181 -0.3229  0.4779
  678MOL0     O93457   8.861   8.938   7.454 -0.3612  0.6075 -0.3364
  678MOL0     C93458   8.735   8.967   7.402 -0.3354  0.5348 -0.3209
  678MOL0     C93459   8.705   8.939   7.268 -0.7384 -0.0698  0.4748
  678MOL0     C93460   8.576   8.974   7.225  0.4135  0.0025 -0.3123
  678MOL0     C93461   8.478   9.035   7.312  0.4101 -1.1319  1.2634
  678MOL0     O93462   8.350   9.070   7.269  0.3071  0.2693  0.4746
  678MOL0     C93463   8.348   9.205   7.212  0.6868 -0.9661 -0.2526
  678MOL0     C93464   8.242   9.209   7.104  0.5464 -0.4152  0.2552
  678MOL0     C93465   8.277   9.312   6.995 -0.3724  0.1730 -0.1245
  678MOL0     C93466   8.353   9.255   6.875  0.0193  0.4623  0.2167
  678MOL0     C93467   8.363   9.337   6.737 -0.1586  1.5138  0.5162
  678MOL0     C93468   8.449   9.460   6.750  0.0260 -0.1386  0.5008
  678MOL0     C93469   8.451   9.539   6.621  0.0111  0.0359  0.9522
  678MOL0     C93470   8.322   9.596   6.572 -0.2282  0.2441 -0.4999
  678MOL0    Cl93471   8.363   9.745   6.458  0.0077  0.0758 -0.1252
  678MOL0     C93472   8.520   9.067   7.436 -0.0867  1.1186  0.7494
  678MOL0     C93473   8.647   9.030   7.485  0.8200 -0.0265  0.2291
  678MOL0     O93474   8.876   8.716   7.385 -0.6878  0.0907  0.3283
  678MOL0     C93475   9.183   8.895   7.412  0.2414 -0.3088 -0.3185
  678MOL0     C93476   9.318   8.869   7.413  0.5679  0.2107  0.0075
  678MOL0     N93477  10.029   8.769   7.249 -0.1489  0.1396 -0.0601
  678MOL0     N93478  10.034   8.682   7.153  0.3894  0.5608 -0.3134
  678MOL0     C93479   9.940   7.773   6.479 -0.0902 -1.1595 -0.6472
  678MOL0     C93480   9.981   7.657   6.421  0.6304  0.3941  0.2398
  678MOL0     C93481  10.276   7.418   6.147 -1.4794  0.4984 -1.0679
  678MOL0     C93482  10.417   7.404   6.143  0.1363  0.0323  1.2471
  678MOL0     C93483  10.474   7.290   6.091 -0.1613 -1.3486  0.0144
  678MOL0     C93484  10.399   7.189   6.038  0.2820  0.5629 -0.1822
  678MOL0     O93485  10.458   7.081   5.978 -0.7580  0.0838  0.7013
  678MOL0     C93486  10.563   7.020   6.050 -0.7744 -0.5482 -0.8617
  678MOL0     C93487  10.562   6.869   6.033  0.3077 -0.3069 -0.3068
  678MOL0     C93488  10.646   6.793   6.135  0.0484  0.4920 -0.5204
  678MOL0     C93489  10.745   6.713   6.062 -0.8277  0.0884 -0.0385
  678MOL0     C93490  10.852   6.656   6.149 -0.5189  1.1413 -0.0985
  678MOL0     C93491  10.946   6.612   6.215 -0.2952  0.4936 -0.0064
  678MOL0     C93492  10.263   7.201   6.025  0.8277  0.4553 -0.6054
  678MOL0     C93493  10.201   7.312   6.087  1.2309  0.3807 -0.9154
  678MOL0     C93494  10.050   7.317   6.095 -0.5273 -0.1084 -0.5544
  678MOL0     H93495  10.302   7.734   6.396  1.2366  2.5354  2.9822
  678MOL0     H93496  10.218   7.961   6.487 -4.3834  3.3926  0.0356
  678MOL0     H93497   9.842   7.937   6.723 -0.8067  0.8835  1.1565
  678MOL0     H93498   9.759   7.970   6.564 -0.3123  1.8458 -0.2038
  678MOL0     H93499   9.716   8.141   6.727 -0.8053 -1.2805 -2.5838
  678MOL0     H93500   9.887   8.162   6.763 -1.4231 -1.7796  1.8429
  678MOL0     H93501   9.918   8.268   6.554  0.1771  0.4994 -1.1330
  678MOL0     H93502   9.771   8.198   6.486  2.0624 -2.2364  0.6084
  678MOL0     H93503   9.756   8.439   6.526 -2.5578 -0.1186 -1.0411
  678MOL0     H93504   9.640   8.356   6.632  0.3944 -1.3409 -0.5065
  678MOL0     H93505   9.922   8.440   6.752 -0.4961  3.9390  1.2348
  678MOL0     H93506   9.773   8.356   6.816 -0.2119 -0.2391  0.0410
  678MOL0     H93507   9.773   8.626   6.671 -0.4749  1.2808  1.0827
  678MOL0     H93508   9.655   8.577   6.787  0.1336 -0.8938 -0.5779
  678MOL0     H93509   9.784   8.740   6.884  1.6972  1.9404 -0.8048
  678MOL0     H93510   9.938   8.672   6.831 -0.0191  0.6972  0.9570
  678MOL0     H93511   9.776   8.503   7.033 -0.3233  0.7246  1.9131
  678MOL0     H93512   9.940   8.493   6.999  1.9747  0.8509  5.4665
  678MOL0     H93513   9.714   8.766   7.152  0.9430  0.5508  2.3303
  678MOL0     H93514   9.773   8.977   7.312  0.0920  0.7906 -0.8028
  678MOL0     H93515   9.941   8.996   7.354  0.9359 -1.3322  1.9757
  678MOL0     H93516   9.924   8.856   7.539 -0.2005 -0.1375 -0.7697
  678MOL0     H93517   9.806   8.983   7.561  1.1433 -0.5636  2.0792
  678MOL0     H93518   9.763   8.687   7.481 -1.4505 -0.8255  1.4427
  678MOL0     H93519   9.715   8.771   7.630  1.0575  1.1301  0.7966
  678MOL0     H93520   9.565   8.914   7.521  2.6167 -0.3025  2.3548
  678MOL0     H93521   9.587   8.843   7.360 -2.6156 -3.3928 -0.3573
  678MOL0     H93522   9.302   8.569   7.567  1.7930 -0.1414  0.3787
  678MOL0     H93523   9.086   8.525   7.651  2.4595 -0.7613 -2.2642
  678MOL0     H93524   8.980   8.536   7.512 -1.8192  1.0379 -0.5511
  678MOL0     H93525   8.953   8.648   7.631 -1.1518  0.7786 -2.6797
  678MOL0     H93526   8.783   8.896   7.206  1.1287  0.4713  2.3188
  678MOL0     H93527   8.547   8.963   7.121  3.2957 -1.3158 -1.0581
  678MOL0     H93528   8.323   9.271   7.295 -0.3872 -1.3134 -0.2946
  678MOL0     H93529   8.442   9.235   7.163 -0.4787  1.4709 -1.1739
  678MOL0     H93530   8.232   9.112   7.055  4.3715 -1.0460  0.4221
  678MOL0     H93531   8.146   9.233   7.149  0.1736 -2.2016  0.4787
  678MOL0     H93532   8.336   9.385   7.050  1.4778 -1.0972 -0.3468
  678MOL0     H93533   8.184   9.361   6.963 -3.4295 -1.3510  5.1036
  678MOL0     H93534   8.303   9.160   6.854  2.2663 -0.9581  0.9166
  678MOL0     H93535   8.454   9.232   6.911 -0.4140 -1.1967  0.4382
  678MOL0     H93536   8.412   9.272   6.664  1.1726 -1.0121  3.4508
  678MOL0     H93537   8.263   9.368   6.703 -0.9961  0.4081  1.8389
  678MOL0     H93538   8.554   9.440   6.770  0.4284  1.0153 -0.3195
  678MOL0     H93539   8.403   9.517   6.831 -0.9642 -2.9223  2.0325
  678MOL0     H93540   8.486   9.477   6.538 -1.4982  3.6537 -2.7607
  678MOL0     H93541   8.516   9.627   6.632 -1.3004  1.0580  0.8485
  678MOL0     H93542   8.256   9.633   6.652 -0.3192 -1.0238  0.0332
  678MOL0     H93543   8.263   9.522   6.518 -2.4456  0.3911  1.5500
  678MOL0     H93544   8.451   9.128   7.494  0.0955 -0.0892  2.3236
  678MOL0     H93545   8.680   9.056   7.585  3.8038  4.2508 -1.5663
  678MOL0     H93546   9.157   8.985   7.358 -0.4468 -1.4747 -2.0205
  678MOL0     H93547   9.386   8.949   7.387  1.3619 -0.1538  0.8830
  678MOL0     H93548   9.835   7.777   6.503  0.3169 -3.0742  1.8168
  678MOL0     H93549   9.912   7.577   6.398  1.5487 -0.1453 -0.7293
  678MOL0     H93550  10.469   7.488   6.187  0.0533 -0.6063  2.6034
  678MOL0     H93551  10.582   7.288   6.079 -0.3944 -1.2422 -2.5109
  678MOL0     H93552  10.657   7.067   6.020 -1.1028  0.8324  0.1632
  678MOL0     H93553  10.563   7.049   6.155 -1.2994 -1.9745 -0.4499
  678MOL0     H93554  10.592   6.848   5.930  0.8832 -0.1193 -0.1842
  678MOL0     H93555  10.454   6.854   6.038 -0.7505  4.7923 -1.9733
  678MOL0     H93556  10.700   6.858   6.205  2.0442 -0.1248 -1.4156
  678MOL0     H93557  10.578   6.727   6.189 -1.7178  0.1869 -2.9689
  678MOL0     H93558  10.796   6.777   5.989 -1.3802  0.5440 -0.0266
  678MOL0     H93559  10.700   6.633   6.002  3.2369 -1.1305 -1.8770
  678MOL0     H93560  11.023   6.562   6.272  1.5844  0.4062 -2.4679
  678MOL0     H93561  10.208   7.121   5.975 -1.3076  2.1546 -1.1604
  678MOL0     H93562   9.995   7.358   6.010  1.7470  1.5717 -1.3030
  678MOL0     H93563  10.027   7.210   6.103  0.4058 -0.2881 -0.1799
  678MOL0     H93564  10.017   7.356   6.192  0.8244 -1.6122  0.5513
  679MOL0     O93565   1.126   7.960   4.701  0.1578  0.2531  0.2451
  679MOL0     C93566   1.188   7.995   4.801 -0.2199  0.1958  0.2032
  679MOL0     O93567   1.164   8.112   4.867  1.2275 -0.0561 -0.7640
  679MOL0     C93568   1.049   8.176   4.820 -0.4941  0.0500  1.3380
  679MOL0     C93569   0.921   8.129   4.802  1.2751 -0.5600 -0.5931
  679MOL0     C93570   0.809   8.206   4.754 -0.3407 -0.5837 -0.0190
  679MOL0     C93571   0.839   8.346   4.721  0.5882 -0.2028 -0.1986
  679MOL0     O93572   0.745   8.423   4.670 -0.4282  0.1658  0.9857
  679MOL0     C93573   0.774   8.484   4.541 -0.1071  0.1128 -0.2367
  679MOL0     C93574   0.638   8.520   4.483 -0.2361  1.4231 -0.4489
  679MOL0     C93575   0.564   8.639   4.551  0.3563 -0.2287 -0.7532
  679MOL0     C93576   0.424   8.663   4.496  0.1190  0.5762 -1.0023
  679MOL0     C93577   0.351   8.765   4.576 -0.5100  0.3472 -0.4102
  679MOL0     C93578   0.216   8.776   4.541  0.8082 -0.4346 -0.0593
  679MOL0     C93579   0.120   8.834   4.658 -0.7763  1.3036 -0.6132
  679MOL0     C93580  -0.030   8.825   4.644  0.5766 -0.5422  0.1453
  679MOL0     N93581  -0.082   8.680   4.628 -0.0253 -0.6920 -0.4348
  679MOL0     C93582  -0.132   8.622   4.522 -0.3791 -0.5162 -0.3238
  679MOL0     C93583  -0.163   8.493   4.564  0.4675 -0.0857 -0.1524
  679MOL0     C93584  -0.204   8.403   4.457  0.3229 -0.1043  0.0723
  679MOL0     C93585  -0.272   8.284   4.509 -0.2743 -0.3740 -0.9145
  679MOL0     C93586  -0.298   8.187   4.394  0.2238  0.9750 -0.6169
  679MOL0     C93587  -0.426   8.220   4.307 -0.8507 -0.3891 -0.3535
  679MOL0     O93588  -0.461   8.097   4.244  0.6825 -0.1274 -0.2188
  679MOL0     C93589  -0.396   8.047   4.137  0.0228 -0.1869  0.7717
  679MOL0     C93590  -0.305   8.119   4.067 -0.1172 -0.7650  1.2007
  679MOL0     C93591  -0.245   8.075   3.950 -0.5880  0.3014 -0.3448
  679MOL0     C93592  -0.122   8.149   3.896 -0.2674 -0.1220  0.4286
  679MOL0     C93593  -0.278   7.944   3.900 -0.5272  0.5296  0.7631
  679MOL0     C93594  -0.243   7.899   3.759 -0.2124  0.9056 -0.1438
  679MOL0     O93595  -0.204   7.770   3.752 -0.3752  0.1945 -0.5695
  679MOL0     C93596  -0.145   7.728   3.640  1.0330 -0.2708  0.4805
  679MOL0     C93597  -0.020   7.670   3.652 -0.2765  0.3277  0.9326
  679MOL0     C93598   0.037   7.607   3.542  0.7792 -0.8686  0.8168
  679MOL0     C93599  -0.033   7.599   3.416  0.1677  0.2827  0.3761
  679MOL0     O93600   0.011   7.540   3.300  0.7704 -0.0021  0.2446
  679MOL0     C93601   0.120   7.453   3.313  0.5723  0.1373 -0.0903
  679MOL0     C93602   0.148   7.405   3.175  0.0302  0.5983  0.5599
  679MOL0     C93603   0.218   7.505   3.082  0.5480  0.0282  0.7565
  679MOL0     C93604   0.268   7.434   2.953 -0.7943  0.5507  0.5067
  679MOL0     C93605   0.332   7.522   2.846 -0.4762  0.1930  0.0605
  679MOL0     C93606   0.337   7.478   2.703  0.7360  0.0062 -0.0607
  679MOL0     C93607   0.393   7.591   2.614  0.1610 -0.5808  1.0302
  679MOL0     C93608   0.447   7.534   2.483  0.3180 -0.4337  0.2823
  679MOL0    Cl93609   0.312   7.511   2.377 -0.0518  0.3408  0.1229
  679MOL0     C93610  -0.157   7.667   3.409 -0.6582  0.0297  0.6164
  679MOL0     C93611  -0.217   7.720   3.522  0.0576 -0.4556  0.8575
  679MOL0     O93612  -0.264   7.979   3.670 -0.0793  0.3714  0.0131
  679MOL0     C93613  -0.373   7.871   3.970  1.1476 -0.1468 -0.1646
  679MOL0     C93614  -0.433   7.919   4.083  0.2527 -0.9416  0.3976
  679MOL0     N93615  -0.137   8.484   4.701  0.7306  0.5335 -0.3395
  679MOL0     N93616  -0.099   8.603   4.736 -0.4902  0.0258 -0.1672
  679MOL0     C93617   0.956   8.401   4.748 -0.2184  0.3457 -0.3780
  679MOL0     C93618   1.061   8.320   4.792 -1.2939  0.7362  0.0705
  679MOL0     C93619   1.305   7.913   4.836  0.7014  0.2428 -0.5386
  679MOL0     C93620   1.341   7.907   4.972 -0.1515  0.5164  0.0499
  679MOL0     C93621   1.421   7.804   5.028  0.2916 -0.3184  0.5862
  679MOL0     C93622   1.489   7.725   4.931 -0.1935  0.4784 -0.1650
  679MOL0     O93623   1.580   7.631   4.969  0.4895 -0.4700  0.4243
  679MOL0     C93624   1.518   7.517   5.022 -1.0465  0.3053 -0.0329
  679MOL0     C93625   1.570   7.476   5.169  0.4782  0.2475 -0.0207
  679MOL0     C93626   1.609   7.331   5.182  0.9968  0.2915  0.0775
  679MOL0     C93627   1.525   7.224   5.118  0.2451  0.6391 -0.8317
  679MOL0     C93628   1.603   7.101   5.097  0.1446  0.5845  0.3194
  679MOL0     C93629   1.663   7.003   5.090 -0.6218 -0.1815  0.5610
  679MOL0     C93630   1.469   7.748   4.787 -0.9996 -1.1303 -0.2137
  679MOL0     C93631   1.373   7.834   4.741  0.3474  1.1073 -0.0410
  679MOL0     C93632   1.353   7.818   4.591 -0.0517  0.0579  0.1695
  679MOL0     H93633   0.909   8.026   4.835 -1.2504 -0.3625 -0.6820
  679MOL0     H93634   0.708   8.169   4.747 -0.1824 -1.2327  0.9305
  679MOL0     H93635   0.828   8.413   4.479  0.6551 -1.1816  1.8017
  679MOL0     H93636   0.828   8.579   4.545 -0.8652  0.5262  3.1806
  679MOL0     H93637   0.651   8.539   4.376  0.9316 -0.9759 -0.7822
  679MOL0     H93638   0.580   8.427   4.485  1.4273  0.3625  0.0735
  679MOL0     H93639   0.554   8.614   4.657  1.4347  1.9457 -0.0728
  679MOL0     H93640   0.624   8.731   4.552 -0.4480  0.4143  2.9023
  679MOL0     H93641   0.421   8.708   4.396 -1.9650  2.5218 -0.1755
  679MOL0     H93642   0.376   8.565   4.500  1.0945  0.1188 -0.2889
  679MOL0     H93643   0.399   8.862   4.561 -1.8923  1.0836 -0.2621
  679MOL0     H93644   0.363   8.735   4.681  4.9459  0.3990 -0.7275
  679MOL0     H93645   0.207   8.849   4.460  0.9851  0.1314  0.4287
  679MOL0     H93646   0.167   8.683   4.512 -1.3444  0.2581  1.1049
  679MOL0     H93647   0.149   8.937   4.677  3.2084  0.6647 -2.2267
  679MOL0     H93648   0.132   8.767   4.744  2.0240  0.0366 -1.8586
  679MOL0     H93649  -0.065   8.864   4.740  4.3245 -0.0748  1.4678
  679MOL0     H93650  -0.072   8.892   4.568 -0.4844  2.0026  2.7857
  679MOL0     H93651  -0.148   8.668   4.425 -1.3166 -2.5785 -1.2164
  679MOL0     H93652  -0.114   8.377   4.401 -0.8946 -1.6693 -1.2834
  679MOL0     H93653  -0.277   8.457   4.395  1.5286  0.7517 -0.6636
  679MOL0     H93654  -0.215   8.228   4.585 -2.6872 -2.9004 -0.8306
  679MOL0     H93655  -0.361   8.317   4.563  1.6568 -0.0547  2.4132
  679MOL0     H93656  -0.209   8.187   4.332 -0.1289 -0.3389 -1.1598
  679MOL0     H93657  -0.307   8.085   4.433  1.5993  2.1049  3.1719
  679MOL0     H93658  -0.510   8.274   4.351 -0.6294  0.9656 -1.5031
  679MOL0     H93659  -0.398   8.287   4.225 -0.8099 -0.1269 -0.1252
  679MOL0     H93660  -0.293   8.226   4.083 -0.2442 -0.5983  0.2846
  679MOL0     H93661  -0.109   8.133   3.789  0.6269 -1.0264  0.6585
  679MOL0     H93662  -0.033   8.101   3.938 -0.8886 -0.9513  0.8025
  679MOL0     H93663  -0.127   8.259   3.895  0.6469  0.0851 -4.3967
  679MOL0     H93664   0.032   7.670   3.747 -0.8001 -0.4421  1.2270
  679MOL0     H93665   0.127   7.549   3.557  0.7923 -0.9670  0.3673
  679MOL0     H93666   0.211   7.506   3.342  2.2478 -1.4484 -2.1610
  679MOL0     H93667   0.094   7.378   3.388 -5.6755  1.1514 -0.7095
  679MOL0     H93668   0.212   7.317   3.183 -0.2030  0.5383  2.0107
  679MOL0     H93669   0.054   7.370   3.133  0.6807  1.4250 -1.7399
  679MOL0     H93670   0.306   7.547   3.131  0.2970  0.3991  0.8920
  679MOL0     H93671   0.150   7.586   3.053 -0.9795 -1.3896  0.1489
  679MOL0     H93672   0.186   7.383   2.902  0.8431 -3.1939  1.3052
  679MOL0     H93673   0.341   7.357   2.979 -0.2994 -0.1120 -2.4461
  679MOL0     H93674   0.293   7.624   2.852 -2.0428 -0.3384 -0.6775
  679MOL0     H93675   0.435   7.539   2.880 -0.7715  2.1511  0.0675
  679MOL0     H93676   0.233   7.457   2.676 -0.4835  0.3923  3.7910
  679MOL0     H93677   0.392   7.385   2.692 -0.4982 -0.4774 -2.9534
  679MOL0     H93678   0.491   7.620   2.651  2.3131 -1.8961 -2.9519
  679MOL0     H93679   0.316   7.664   2.587 -1.5723 -1.8577  2.2548
  679MOL0     H93680   0.493   7.436   2.493 -0.4552 -0.9507 -0.9946
  679MOL0     H93681   0.524   7.598   2.439  0.8687 -0.4920  1.1289
  679MOL0     H93682  -0.213   7.658   3.316  0.0113 -0.7396  0.2730
  679MOL0     H93683  -0.316   7.761   3.506 -0.0448 -0.6084  1.0952
  679MOL0     H93684  -0.393   7.767   3.946 -1.8750  0.2313  0.4246
  679MOL0     H93685  -0.509   7.862   4.137 -0.3932  0.1505  0.6892
  679MOL0     H93686   0.967   8.507   4.726  1.5166  0.7934  2.1927
  679MOL0     H93687   1.156   8.366   4.815 -0.3286  0.7786 -3.4244
  679MOL0     H93688   1.293   7.977   5.040  1.1644  1.2104  0.2901
  679MOL0     H93689   1.431   7.795   5.136  4.1418 -0.9031  0.3127
  679MOL0     H93690   1.409   7.525   5.028 -1.2033 -2.1149  2.4855
  679MOL0     H93691   1.556   7.442   4.953  0.9441 -1.0854  2.4047
  679MOL0     H93692   1.485   7.494   5.236 -0.9668 -3.3339 -0.6804
  679MOL0     H93693   1.655   7.540   5.193 -1.3185  1.8461  2.5459
  679MOL0     H93694   1.703   7.320   5.128  1.7035 -1.3016  1.5259
  679MOL0     H93695   1.625   7.314   5.289 -0.8807  3.1958  0.9175
  679MOL0     H93696   1.493   7.260   5.020  2.2460 -1.4452 -2.3709
  679MOL0     H93697   1.434   7.186   5.166  0.4462 -1.9826 -2.2882
  679MOL0     H93698   1.732   6.928   5.057 -0.3126  0.3903 -0.1209
  679MOL0     H93699   1.533   7.688   4.723  1.0739  2.5972 -1.9718
  679MOL0     H93700   1.298   7.906   4.556  1.7562  1.4603  0.6765
  679MOL0     H93701   1.454   7.822   4.549  0.3401  2.0970  1.1727
  679MOL0     H93702   1.300   7.727   4.562 -0.9167  0.4376  0.5199
  680MOL0     O93703   8.544   4.587  10.387 -0.6949  0.4617 -0.0951
  680MOL0     C93704   8.558   4.516  10.288 -0.0977 -0.3040  0.0256
  680MOL0     O93705   8.672   4.508  10.214  0.6443 -0.0896 -0.7311
  680MOL0     C93706   8.764   4.612  10.243  0.7523  0.3602 -0.2298
  680MOL0     C93707   8.827   4.636  10.363 -0.3325  0.8722  0.1809
  680MOL0     C93708   8.929   4.732  10.369  0.1721 -0.3618 -0.8802
  680MOL0     C93709   8.953   4.813  10.261  0.5618 -0.5894 -0.1878
  680MOL0     O93710   9.038   4.918  10.260 -0.2557 -1.1326 -0.3330
  680MOL0     C93711   9.039   5.010  10.373  0.5483 -0.1686 -0.0657
  680MOL0     C93712   9.166   5.005  10.441 -0.4162 -0.5206 -0.0270
  680MOL0     C93713   9.161   5.104  10.564  0.2362  1.1875  0.3720
  680MOL0     C93714   9.287   5.096  10.651  0.4974  1.3956  0.6468
  680MOL0     C93715   9.410   5.148  10.571  0.7500 -0.8280 -0.7277
  680MOL0     C93716   9.491   5.027  10.523  0.1704  0.6436  0.0375
  680MOL0     C93717   9.600   5.077  10.441 -0.9593  0.3909 -0.2292
  680MOL0     C93718   9.669   4.953  10.375 -0.4058 -0.2418  0.0655
  680MOL0     N93719   9.789   4.987  10.297  1.0207  0.8550  0.0753
  680MOL0     C93720   9.802   5.072  10.192  1.0818  1.2421  0.2912
  680MOL0     C93721   9.934   5.084  10.170 -0.1610 -0.0521  0.4378
  680MOL0     C93722   9.995   5.157  10.043  0.2393  0.5690  0.5408
  680MOL0     C93723  10.116   5.067   9.985 -0.1825 -0.4821  0.2074
  680MOL0     C93724  10.065   4.927   9.951  0.1838 -0.8989  0.1745
  680MOL0     C93725  10.169   4.841   9.881 -0.6755 -0.6882  0.7207
  680MOL0     O93726  10.227   4.909   9.768 -0.6764 -0.3605 -0.1868
  680MOL0     C93727  10.293   4.833   9.679  0.5881  0.3489 -0.3387
  680MOL0     C93728  10.352   4.904   9.568 -0.4246  0.5127 -0.2538
  680MOL0     C93729  10.415   4.839   9.463  0.3149  0.0003  0.5903
  680MOL0     C93730  10.494   4.916   9.358  0.1559  0.1511  0.6646
  680MOL0     C93731  10.423   4.699   9.463  0.0176  0.0420 -0.3833
  680MOL0     C93732  10.465   4.611   9.343  0.1187 -0.7369  0.6332
  680MOL0     O93733  10.525   4.491   9.365  0.3148 -0.1507 -0.3704
  680MOL0     C93734  10.559   4.417   9.258 -0.1237 -0.3573 -0.3659
  680MOL0     C93735  10.675   4.440   9.184 -0.7644  0.1775  0.3306
  680MOL0     C93736  10.690   4.388   9.051 -0.3393 -0.5412 -0.4672
  680MOL0     C93737  10.604   4.307   8.989  0.2120  0.2914  0.1388
  680MOL0     O93738  10.623   4.275   8.857  0.0476 -0.2870 -0.5235
  680MOL0     C93739  10.602   4.137   8.824 -0.6756  0.0806 -0.4162
  680MOL0     C93740  10.669   4.120   8.685  0.0118  0.1505 -0.1705
  680MOL0     C93741  10.621   3.981   8.637  0.8289  0.7073  1.1408
  680MOL0     C93742  10.748   3.902   8.598  0.5683  0.2765  0.0007
  680MOL0     C93743  10.719   3.751   8.603 -0.6693  0.1820 -0.0525
  680MOL0     C93744  10.840   3.674   8.599  0.2981 -0.7233  0.0861
  680MOL0     C93745  10.928   3.677   8.470  0.1037 -0.1501  0.9173
  680MOL0     C93746  11.044   3.590   8.469  0.2839 -0.8855 -0.4087
  680MOL0    Cl93747  11.148   3.627   8.604 -0.3540 -0.3888 -0.4206
  680MOL0     C93748  10.484   4.281   9.071  0.7587 -0.1710 -0.1571
  680MOL0     C93749  10.467   4.329   9.199 -0.4879  0.0993  0.4072
  680MOL0     O93750  10.442   4.655   9.235  0.1189  0.2733  0.0492
  680MOL0     C93751  10.380   4.628   9.579  0.6367  0.3596  0.3881
  680MOL0     C93752  10.309   4.693   9.679  0.4380  0.1797 -0.7039
  680MOL0     N93753  10.003   5.017  10.267 -0.6319  0.1662 -1.2120
  680MOL0     N93754   9.916   4.951  10.341  0.3972  0.3317  0.7730
  680MOL0     C93755   8.878   4.807  10.146  0.1860  0.0655  0.1915
  680MOL0     C93756   8.789   4.698  10.134 -0.1596 -1.1652 -0.2683
  680MOL0     C93757   8.443   4.436  10.242 -0.5974  0.8578  0.0755
  680MOL0     C93758   8.471   4.324  10.155  0.5974 -1.2358  1.0369
  680MOL0     C93759   8.366   4.242  10.099  0.0677  0.3757 -0.5945
  680MOL0     C93760   8.232   4.261  10.156  0.4458 -0.1621 -0.4144
  680MOL0     O93761   8.120   4.180  10.130  0.3606 -0.2254  0.8931
  680MOL0     C93762   8.133   4.101  10.008 -0.2007  0.4992  0.1477
  680MOL0     C93763   7.992   4.063   9.969  1.2742  0.5015  0.6395
  680MOL0     C93764   7.981   3.997   9.831 -0.8078 -0.4757 -0.5812
  680MOL0     C93765   7.887   3.879   9.809  0.1099  0.1465 -0.3287
  680MOL0     C93766   7.873   3.837   9.675 -1.4364 -0.2068  0.1623
  680MOL0     C93767   7.853   3.813   9.557  0.2271  0.5627 -0.1122
  680MOL0     C93768   8.211   4.359  10.261  0.2333  0.3653 -0.4635
  680MOL0     C93769   8.310   4.448  10.301  0.0196  0.9853  0.0868
  680MOL0     C93770   8.272   4.555  10.402 -1.4874 -0.6022 -0.3064
  680MOL0     H93771   8.802   4.573  10.448 -1.0332 -0.2819 -0.8558
  680MOL0     H93772   8.986   4.735  10.461 -0.5040 -2.3739 -0.3223
  680MOL0     H93773   8.953   4.985  10.436 -1.9055  0.3432 -3.0004
  680MOL0     H93774   9.017   5.109  10.332 -1.5686  0.8135  3.0892
  680MOL0     H93775   9.186   4.902  10.470 -3.6624 -0.5424  2.6335
  680MOL0     H93776   9.241   5.046  10.373 -1.2319 -0.3608 -0.8425
  680MOL0     H93777   9.144   5.207  10.535  0.4570  1.2822  0.5738
  680MOL0     H93778   9.084   5.063  10.631 -1.4609 -0.5322 -2.4455
  680MOL0     H93779   9.261   5.161  10.734 -1.3415  2.7916 -0.9095
  680MOL0     H93780   9.310   4.994  10.684 -1.4081 -1.5055 -5.3508
  680MOL0     H93781   9.468   5.219  10.632 -4.3964  1.5115  2.0715
  680MOL0     H93782   9.373   5.196  10.480 -2.4723 -1.3605  0.1785
  680MOL0     H93783   9.526   4.970  10.609 -4.2564  0.0211  1.6803
  680MOL0     H93784   9.428   4.961  10.462 -2.0755  2.0961  0.6541
  680MOL0     H93785   9.673   5.118  10.512 -0.1482  0.8840 -1.3158
  680MOL0     H93786   9.576   5.151  10.365  1.0790  0.9555 -0.3964
  680MOL0     H93787   9.697   4.871  10.442 -1.0304 -0.4239  0.1076
  680MOL0     H93788   9.599   4.915  10.300  0.5845  0.5112 -1.3017
  680MOL0     H93789   9.724   5.107  10.124 -0.1573 -1.2741  0.3152
  680MOL0     H93790  10.011   5.262  10.069 -2.0143  1.1980 -0.3771
  680MOL0     H93791   9.932   5.153   9.953  0.4819 -0.8072  0.4085
  680MOL0     H93792  10.150   5.119   9.895 -1.1422  0.0344  0.1194
  680MOL0     H93793  10.198   5.055  10.056  0.3264  1.5427  0.0367
  680MOL0     H93794  10.021   4.882  10.041  2.0580 -1.7036  0.7396
  680MOL0     H93795   9.977   4.934   9.885  0.0275  2.2922  0.5858
  680MOL0     H93796  10.239   4.801   9.956 -0.4791  0.2462  1.0490
  680MOL0     H93797  10.114   4.757   9.838 -0.0624  0.1940 -1.9809
  680MOL0     H93798  10.361   5.012   9.567  3.3409  0.3565  1.4090
  680MOL0     H93799  10.522   5.011   9.405 -1.3955  1.2603 -0.5606
  680MOL0     H93800  10.426   4.926   9.273 -0.1804  1.0438  1.0210
  680MOL0     H93801  10.582   4.853   9.342  0.3095  0.6688 -0.7123
  680MOL0     H93802  10.744   4.502   9.240  0.0457 -0.1922 -0.2352
  680MOL0     H93803  10.780   4.408   8.994 -0.2014 -1.7253 -0.6948
  680MOL0     H93804  10.633   4.069   8.904 -2.0342  2.5467  2.3923
  680MOL0     H93805  10.496   4.118   8.806  0.1757 -3.1376 -3.1264
  680MOL0     H93806  10.640   4.206   8.623  1.9231 -0.9894 -2.7929
  680MOL0     H93807  10.775   4.137   8.708 -0.4798  0.0411  2.5064
  680MOL0     H93808  10.551   3.990   8.554  3.5265  0.3028 -1.3500
  680MOL0     H93809  10.580   3.932   8.726  2.1953  1.9419  2.5146
  680MOL0     H93810  10.832   3.921   8.665  2.2991  1.2808 -2.3437
  680MOL0     H93811  10.774   3.941   8.499 -1.2940  1.3549 -0.1309
  680MOL0     H93812  10.674   3.732   8.702  2.5836  2.0216  1.9383
  680MOL0     H93813  10.649   3.712   8.528 -0.7979 -1.0482  0.6755
  680MOL0     H93814  10.825   3.570   8.632 -1.6506  0.0216  1.6989
  680MOL0     H93815  10.908   3.711   8.677 -0.5432 -0.3175  0.6467
  680MOL0     H93816  10.955   3.782   8.453 -0.9991 -0.2211 -1.7974
  680MOL0     H93817  10.860   3.641   8.391 -0.3914  1.4136  0.5928
  680MOL0     H93818  11.097   3.589   8.373 -1.8173 -3.5426 -1.7140
  680MOL0     H93819  11.017   3.484   8.477  0.1164 -0.9304 -1.3873
  680MOL0     H93820  10.396   4.237   9.026  1.3732 -0.2128 -1.3393
  680MOL0     H93821  10.382   4.302   9.261  1.4108 -2.0571  2.2488
  680MOL0     H93822  10.397   4.520   9.580  1.2455  0.4464 -0.0504
  680MOL0     H93823  10.270   4.635   9.761  0.0551  1.4900  0.0761
  680MOL0     H93824   8.905   4.880  10.069  1.1921 -0.8963 -0.4062
  680MOL0     H93825   8.743   4.686  10.037 -3.5808  1.9308  0.7062
  680MOL0     H93826   8.572   4.314  10.117 -0.3603 -1.4991 -1.6740
  680MOL0     H93827   8.402   4.157  10.043  0.9181 -0.8339  1.6361
  680MOL0     H93828   8.181   4.153   9.925 -2.6391  3.0433  0.2001
  680MOL0     H93829   8.179   4.004  10.030 -1.3088 -0.0492  0.1359
  680MOL0     H93830   7.920   4.145   9.971  1.9708  1.1915 -0.8302
  680MOL0     H93831   7.954   3.991  10.042 -0.5053  1.7365  0.9986
  680MOL0     H93832   7.962   4.078   9.759  4.1766  1.3898 -0.2236
  680MOL0     H93833   8.082   3.967   9.803 -0.6788 -2.2176  1.5425
  680MOL0     H93834   7.790   3.917   9.841  1.9175  5.9240 -0.5079
  680MOL0     H93835   7.914   3.787   9.862  5.4425  3.8934  4.9193
  680MOL0     H93836   7.826   3.788   9.457 -1.0417  2.8563 -0.4027
  680MOL0     H93837   8.108   4.359  10.297  0.6115  0.8765  0.6804
  680MOL0     H93838   8.268   4.658  10.367 -0.0944 -0.1376  0.8230
  680MOL0     H93839   8.174   4.536  10.448 -2.4705 -1.0931 -2.4953
  680MOL0     H93840   8.335   4.545  10.491 -0.6497  0.2052 -0.7986
  681MOL0     O93841   8.171   5.250  10.395  0.5340 -0.8739 -0.5481
  681MOL0     C93842   8.224   5.350  10.351 -0.4309 -1.1579 -0.4608
  681MOL0     O93843   8.278   5.448  10.427 -0.5053 -0.1823  0.2625
  681MOL0     C93844   8.327   5.409  10.543 -0.0543  0.2497 -1.1502
  681MOL0     C93845   8.417   5.297  10.563 -0.3944 -0.3490  0.0386
  681MOL0     C93846   8.471   5.260  10.688  0.1723 -0.4229  1.0119
  681MOL0     C93847   8.448   5.344  10.794  0.3819 -0.7678 -0.5920
  681MOL0     O93848   8.520   5.344  10.908  0.0609 -0.7463 -0.1282
  681MOL0     C93849   8.636   5.261  10.918 -0.1486 -0.0900 -0.1515
  681MOL0     C93850   8.687   5.267  11.056 -0.3386 -0.0683 -0.2210
  681MOL0     C93851   8.806   5.181  11.081  0.8951 -0.1478  0.1954
  681MOL0     C93852   8.835   5.172  11.227 -0.7732 -0.8416 -0.1752
  681MOL0     C93853   8.967   5.104  11.252  0.2151 -0.1684 -0.3676
  681MOL0     C93854   9.013   5.143  11.395 -0.1586  0.3760 -0.1698
  681MOL0     C93855   9.155   5.091  11.430  0.0416 -0.4426 -0.4443
  681MOL0     C93856   9.190   5.136  11.575 -0.5782 -0.3012 -0.4815
  681MOL0     N93857   9.211   5.285  11.571 -0.5625  0.4418 -1.2413
  681MOL0     C93858   9.329   5.351  11.548  0.0528 -0.2012 -0.2147
  681MOL0     C93859   9.302   5.480  11.580  0.5112  0.2847  0.6773
  681MOL0     C93860   9.403   5.587  11.577  0.6034  0.3739  0.0067
  681MOL0     C93861   9.473   5.592  11.437 -0.0759  0.8096  0.6584
  681MOL0     C93862   9.582   5.701  11.427 -0.5929 -0.4759 -0.8362
  681MOL0     C93863   9.710   5.654  11.489 -0.5168 -0.2753  0.2455
  681MOL0     O93864   9.718   5.662  11.624 -0.1961 -0.0930 -0.7050
  681MOL0     C93865   9.742   5.554  11.700 -0.4029  1.1669 -0.4881
  681MOL0     C93866   9.695   5.427  11.674 -0.2539 -0.1940  0.5197
  681MOL0     C93867   9.728   5.316  11.755  0.5727 -0.6728  0.4777
  681MOL0     C93868   9.677   5.183  11.713  0.2091  0.5171  0.1484
  681MOL0     C93869   9.820   5.335  11.866  0.1886  0.4107  0.3892
  681MOL0     C93870   9.857   5.231  11.965  1.7588  0.5328 -0.1909
  681MOL0     O93871   9.947   5.271  12.048  0.3763 -0.4900 -0.0201
  681MOL0     C93872  10.041   5.187  12.102 -0.7771 -0.6123 -0.4666
  681MOL0     C93873  10.012   5.097  12.204 -1.0133 -0.3597 -0.0913
  681MOL0     C93874  10.110   5.029  12.273 -0.1426 -0.5898  0.1354
  681MOL0     C93875  10.242   5.066  12.254  0.1688  0.8901 -0.8851
  681MOL0     O93876  10.346   5.031  12.344 -0.0922  0.2776 -0.2713
  681MOL0     C93877  10.309   4.968  12.471  0.0390  0.0124  0.6393
  681MOL0     C93878  10.444   4.927  12.542  1.0449  0.6272  0.9992
  681MOL0     C93879  10.512   5.040  12.607 -0.0966  0.1311 -1.2231
  681MOL0     C93880  10.629   4.987  12.688 -0.0685  1.2776 -0.6334
  681MOL0     C93881  10.727   4.888  12.617 -0.1369  0.0217 -0.1681
  681MOL0     C93882  10.867   4.875  12.672 -0.2826 -0.0254 -0.4532
  681MOL0     C93883  10.938   4.748  12.645  0.0950 -0.3696 -0.0699
  681MOL0     C93884  11.009   4.740  12.509  0.2451  0.6915 -0.2416
  681MOL0    Cl93885  11.068   4.576  12.478  0.1049  0.2784 -0.6251
  681MOL0     C93886  10.273   5.156  12.143  0.2110  0.5350 -0.6862
  681MOL0     C93887  10.174   5.209  12.064  0.4916  0.3676  0.1888
  681MOL0     O93888   9.797   5.122  11.970  0.3914  0.3206  0.2904
  681MOL0     C93889   9.862   5.468  11.888  0.5382  0.1584  0.6279
  681MOL0     C93890   9.831   5.577  11.803 -0.1667  0.4481 -0.5155
  681MOL0     N93891   9.166   5.486  11.610  0.8357  0.7598  0.3944
  681MOL0     N93892   9.115   5.369  11.615  0.6647  0.3782  0.3256
  681MOL0     C93893   8.354   5.450  10.778 -0.5850  0.1795 -0.7110
  681MOL0     C93894   8.295   5.481  10.663 -0.3880 -0.4474  0.8295
  681MOL0     C93895   8.247   5.374  10.210  0.4301  0.5657  0.9857
  681MOL0     C93896   8.347   5.469  10.170 -0.4343  0.5494 -1.2980
  681MOL0     C93897   8.374   5.487  10.039  0.5911 -0.6311 -0.9560
  681MOL0     C93898   8.308   5.423   9.938  0.9298 -0.2693 -0.9074
  681MOL0     O93899   8.346   5.454   9.808 -0.1795 -0.5317  0.3262
  681MOL0     C93900   8.418   5.348   9.730  0.1030 -0.6758 -0.4381
  681MOL0     C93901   8.312   5.277   9.634 -0.3659 -0.9640 -0.0641
  681MOL0     C93902   8.374   5.185   9.528 -0.7334 -1.2599 -0.0892
  681MOL0     C93903   8.415   5.049   9.593  0.2973 -0.1185 -0.2600
  681MOL0     C93904   8.287   4.976   9.618 -0.2406  0.5875  0.2821
  681MOL0     C93905   8.190   4.923   9.657  0.0702  0.8261  0.0302
  681MOL0     C93906   8.215   5.321   9.969 -0.2272  0.7628 -0.9167
  681MOL0     C93907   8.173   5.311  10.102 -1.2322  1.0934 -0.5622
  681MOL0     C93908   8.045   5.218  10.122 -0.2171 -0.2835  1.2938
  681MOL0     H93909   8.433   5.236  10.474  1.7106 -0.3679  0.3665
  681MOL0     H93910   8.534   5.173  10.703  3.1208  1.4891  0.5693
  681MOL0     H93911   8.710   5.279  10.840 -1.0020  0.1079 -0.9304
  681MOL0     H93912   8.603   5.159  10.894 -3.2081  0.7337  0.1314
  681MOL0     H93913   8.697   5.369  11.094 -3.7288 -0.3988  1.9404
  681MOL0     H93914   8.599   5.236  11.112 -0.2107  0.5499  0.3314
  681MOL0     H93915   8.791   5.081  11.039  1.6594  0.6251 -2.0199
  681MOL0     H93916   8.883   5.227  11.018  1.0015 -2.2478 -1.2978
  681MOL0     H93917   8.845   5.272  11.271  0.9742  0.3655 -3.0680
  681MOL0     H93918   8.752   5.122  11.278 -1.7108 -0.1955 -1.0051
  681MOL0     H93919   9.046   5.150  11.192 -0.2018  1.0778  0.0121
  681MOL0     H93920   8.956   4.996  11.241 -0.1918 -0.1266 -0.3776
  681MOL0     H93921   9.011   5.252  11.387 -3.7300  0.5152  0.9179
  681MOL0     H93922   8.937   5.111  11.467  1.6583  0.1780  1.7780
  681MOL0     H93923   9.220   5.146  11.361 -1.2001  0.6827 -0.7729
  681MOL0     H93924   9.158   4.983  11.418  0.5845 -0.4034 -0.6841
  681MOL0     H93925   9.102   5.116  11.637 -0.3618 -1.5118 -0.5383
  681MOL0     H93926   9.279   5.093  11.621  0.3914  1.1068 -0.9864
  681MOL0     H93927   9.420   5.297  11.526  0.7259  0.9330 -0.2502
  681MOL0     H93928   9.471   5.567  11.661  0.8750 -0.7308 -0.4562
  681MOL0     H93929   9.357   5.685  11.592  3.3305  1.8162 -0.4588
  681MOL0     H93930   9.510   5.494  11.404 -0.8292  1.4733 -2.4277
  681MOL0     H93931   9.395   5.611  11.363 -3.2692 -1.4470  3.1679
  681MOL0     H93932   9.600   5.726  11.322 -0.3907  4.0279  0.0665
  681MOL0     H93933   9.548   5.788  11.483  1.5250  0.8561 -1.5077
  681MOL0     H93934   9.728   5.556  11.444  1.1486  0.4028 -0.6726
  681MOL0     H93935   9.789   5.711  11.440 -0.4699 -1.5403 -1.2445
  681MOL0     H93936   9.625   5.413  11.592  0.9167  0.7272 -0.6793
  681MOL0     H93937   9.626   5.203  11.618 -0.1632  1.9431  0.6225
  681MOL0     H93938   9.607   5.140  11.785 -1.6196 -0.0028 -1.8484
  681MOL0     H93939   9.754   5.106  11.706 -0.6773 -0.3943  0.3603
  681MOL0     H93940   9.912   5.078  12.241 -1.6861 -1.6123 -2.3248
  681MOL0     H93941  10.084   4.942  12.333 -2.6746 -1.6490 -2.2864
  681MOL0     H93942  10.252   5.048  12.519 -3.9686  0.3393 -3.8334
  681MOL0     H93943  10.253   4.875  12.459  0.7651 -0.2639 -0.8570
  681MOL0     H93944  10.429   4.841  12.608  2.6046 -1.5933 -1.3681
  681MOL0     H93945  10.510   4.899  12.460  1.0641 -2.8976  2.0551
  681MOL0     H93946  10.458   5.094  12.685  2.6534  1.2984  0.0085
  681MOL0     H93947  10.543   5.117  12.535 -0.6329  3.2941  1.6521
  681MOL0     H93948  10.605   4.945  12.786  1.9947 -2.3790 -1.4749
  681MOL0     H93949  10.687   5.076  12.715  1.6339  0.8093 -2.4355
  681MOL0     H93950  10.682   4.789  12.611 -0.7287  0.2978 -0.3194
  681MOL0     H93951  10.738   4.915  12.512  0.0128  3.4026  0.6029
  681MOL0     H93952  10.864   4.884  12.781  1.0617  0.6282 -0.4453
  681MOL0     H93953  10.933   4.957  12.643  1.3084 -0.8962  0.5153
  681MOL0     H93954  10.858   4.673  12.654  1.1768 -1.9335 -2.4487
  681MOL0     H93955  11.013   4.715  12.718  1.4810 -0.3846 -1.4447
  681MOL0     H93956  11.089   4.815  12.505 -0.0684  1.1608  1.6662
  681MOL0     H93957  10.952   4.767  12.419 -0.7798  1.3886  0.5903
  681MOL0     H93958  10.377   5.174  12.119  0.8465  0.0266  1.4335
  681MOL0     H93959  10.192   5.292  11.997  1.8721  0.2036  0.3271
  681MOL0     H93960   9.907   5.504  11.981  0.9351  1.4606 -0.0392
  681MOL0     H93961   9.873   5.675  11.820 -2.7253  2.4432 -4.2677
  681MOL0     H93962   8.344   5.529  10.853  2.4773 -1.2706  1.4576
  681MOL0     H93963   8.231   5.569  10.660 -3.2189 -2.3735 -0.7257
  681MOL0     H93964   8.410   5.523  10.241 -0.8204  2.2493 -2.1911
  681MOL0     H93965   8.449   5.561  10.013  1.7752 -0.4117  2.5318
  681MOL0     H93966   8.494   5.402   9.672  0.6670 -0.5793  0.3678
  681MOL0     H93967   8.476   5.282   9.796  1.1173 -0.8152 -1.4439
  681MOL0     H93968   8.265   5.358   9.578  3.0796 -0.0042 -1.8728
  681MOL0     H93969   8.251   5.225   9.708  0.9118  0.6951  2.2784
  681MOL0     H93970   8.307   5.172   9.443 -1.2820 -5.9390  0.7706
  681MOL0     H93971   8.469   5.227   9.494 -1.4878  0.3086 -0.3142
  681MOL0     H93972   8.473   5.079   9.681 -0.7386 -1.7295  1.0291
  681MOL0     H93973   8.476   4.994   9.522 -1.2167 -1.1371 -0.8306
  681MOL0     H93974   8.107   4.870   9.699  0.1674  0.5951 -0.0704
  681MOL0     H93975   8.165   5.256   9.898 -0.2298  1.1820 -1.3060
  681MOL0     H93976   8.075   5.132  10.061 -3.3110  0.0945 -1.0687
  681MOL0     H93977   8.025   5.186  10.225  1.1515 -2.2888  0.9946
  681MOL0     H93978   7.961   5.265  10.069  1.1896  2.4593  1.2941
  682MOL0     O93979   2.481   8.635   3.705 -0.2759 -0.3196 -0.2317
  682MOL0     C93980   2.433   8.578   3.608  0.1748 -0.1158  0.4531
  682MOL0     O93981   2.299   8.531   3.604  0.0153  0.4402 -0.4253
  682MOL0     C93982   2.216   8.545   3.716  0.6116  1.2680 -0.6532
  682MOL0     C93983   2.140   8.654   3.717 -0.2290 -0.5305 -0.5641
  682MOL0     C93984   2.076   8.686   3.839 -0.1170 -0.9912  0.4191
  682MOL0     C93985   2.073   8.599   3.950 -0.2110  0.1980  0.2630
  682MOL0     O93986   1.998   8.628   4.066  0.3006 -0.1613  0.1262
  682MOL0     C93987   1.980   8.532   4.178 -0.3708 -0.6237  0.1383
  682MOL0     C93988   1.882   8.419   4.140  0.9073 -0.7858 -0.1045
  682MOL0     C93989   1.736   8.466   4.108  0.4486 -0.2020  0.5295
  682MOL0     C93990   1.651   8.336   4.092 -0.5533 -0.5344  0.4985
  682MOL0     C93991   1.505   8.372   4.054 -0.0272 -0.4131  1.1940
  682MOL0     C93992   1.417   8.441   4.159 -0.4403 -0.4098  0.1035
  682MOL0     C93993   1.277   8.464   4.108 -0.5770  0.5199  0.7981
  682MOL0     C93994   1.176   8.374   4.176  0.6416  0.8808  0.4081
  682MOL0     N93995   1.034   8.391   4.156 -0.2259  0.7489  0.4346
  682MOL0     C93996   0.965   8.325   4.054 -0.0606 -0.5844 -0.4062
  682MOL0     C93997   0.830   8.351   4.076 -0.0913 -0.2410 -0.8903
  682MOL0     C93998   0.725   8.306   3.981  1.1739  0.7932 -0.2368
  682MOL0     C93999   0.674   8.423   3.907 -0.9362 -0.7360  0.0759
  682MOL0     C94000   0.568   8.386   3.808  0.0008 -0.4497  0.7168
  682MOL0     C94001   0.628   8.313   3.682  0.4323  0.2399 -0.3664
  682MOL0     O94002   0.535   8.318   3.574  0.6236  0.0185 -0.5205
  682MOL0     C94003   0.591   8.325   3.446  0.6525 -0.3331 -0.0642
  682MOL0     C94004   0.730   8.316   3.418 -0.4490 -1.6788 -0.1170
  682MOL0     C94005   0.781   8.317   3.286  0.0769  0.5264  1.1763
  682MOL0     C94006   0.932   8.312   3.258 -0.5865 -0.5026  0.7766
  682MOL0     C94007   0.701   8.333   3.175  0.0275  0.2290 -0.2828
  682MOL0     C94008   0.747   8.329   3.038  0.4130 -0.1054  0.6176
  682MOL0     O94009   0.804   8.437   2.980 -0.1558 -0.3264  0.1941
  682MOL0     C94010   0.841   8.427   2.851  0.1571  1.0806  0.7552
  682MOL0     C94011   0.766   8.480   2.751 -0.1290 -0.5148  0.6494
  682MOL0     C94012   0.792   8.451   2.622  0.5959  0.1409  0.2813
  682MOL0     C94013   0.898   8.363   2.585 -1.0729  1.5586 -0.0251
  682MOL0     O94014   0.925   8.311   2.460  0.1394 -1.0816 -0.3951
  682MOL0     C94015   0.812   8.312   2.371  0.9967 -0.4258  0.6391
  682MOL0     C94016   0.860   8.237   2.250  1.0142  1.2989 -0.6064
  682MOL0     C94017   0.757   8.235   2.133 -0.2109 -0.6503 -0.2949
  682MOL0     C94018   0.763   8.106   2.036 -0.6097  0.4865  0.1637
  682MOL0     C94019   0.698   7.987   2.113  0.0451  0.2674 -0.2150
  682MOL0     C94020   0.689   7.866   2.024  0.6625  0.1437  0.0641
  682MOL0     C94021   0.651   7.733   2.082 -0.0648 -0.7189  0.1410
  682MOL0     C94022   0.511   7.727   2.122 -0.7008  0.4786  0.1113
  682MOL0    Cl94023   0.409   7.695   1.981  0.7739  0.0394 -0.2315
  682MOL0     C94024   0.990   8.323   2.685 -0.2173  0.1470 -0.5990
  682MOL0     C94025   0.956   8.353   2.820  1.0262  0.4709  0.5749
  682MOL0     O94026   0.724   8.219   2.987 -0.5406 -0.4776  0.5825
  682MOL0     C94027   0.564   8.332   3.208 -0.8528 -0.7061  0.2646
  682MOL0     C94028   0.507   8.335   3.336  1.2560  0.0071  0.5750
  682MOL0     N94029   0.817   8.425   4.193 -0.0038 -0.3053  1.6665
  682MOL0     N94030   0.942   8.442   4.241  0.0449  0.4926  0.5013
  682MOL0     C94031   2.166   8.497   3.936  0.0069  0.1041 -0.4002
  682MOL0     C94032   2.238   8.461   3.830  0.5943 -0.6660 -0.5376
  682MOL0     C94033   2.492   8.575   3.472 -0.6892  0.1051 -0.7169
  682MOL0     C94034   2.419   8.621   3.368  0.3036 -0.3356  0.2129
  682MOL0     C94035   2.469   8.616   3.240  0.3811 -0.0641 -0.2232
  682MOL0     C94036   2.591   8.567   3.212 -0.2020 -0.0681  0.5100
  682MOL0     O94037   2.638   8.549   3.083 -0.1433  0.5665 -0.7480
  682MOL0     C94038   2.681   8.658   3.010 -0.5016  0.1651  0.2569
  682MOL0     C94039   2.618   8.662   2.871  0.2224  0.4700 -0.9962
  682MOL0     C94040   2.668   8.557   2.779 -0.0377 -0.5944  0.8668
  682MOL0     C94041   2.605   8.576   2.647  0.8712  0.3846 -0.9403
  682MOL0     C94042   2.682   8.672   2.571 -0.3899  0.0323 -0.8989
  682MOL0     C94043   2.748   8.752   2.503  0.1792  0.3638 -0.6113
  682MOL0     C94044   2.668   8.514   3.314  0.4230 -0.1174 -0.9169
  682MOL0     C94045   2.613   8.512   3.446 -0.6660 -0.4907  0.4517
  682MOL0     C94046   2.712   8.449   3.550  0.5206 -0.3925 -0.4994
  682MOL0     H94047   2.145   8.709   3.624  0.4946 -1.4362 -1.0806
  682MOL0     H94048   2.030   8.783   3.855  2.3836  0.0370  1.9298
  682MOL0     H94049   1.952   8.586   4.269  0.8450  1.9291 -0.9030
  682MOL0     H94050   2.085   8.508   4.193 -0.4344 -2.0613 -1.3838
  682MOL0     H94051   1.921   8.368   4.051 -1.3223 -2.7193 -0.0857
  682MOL0     H94052   1.883   8.341   4.217  0.7189  0.5803  1.3372
  682MOL0     H94053   1.710   8.522   4.197  2.4752 -0.5238  1.3911
  682MOL0     H94054   1.737   8.532   4.021  4.8660  0.5529  0.9160
  682MOL0     H94055   1.692   8.272   4.014  0.2399 -1.9942  2.0312
  682MOL0     H94056   1.653   8.274   4.182  3.1375  3.4400  3.5612
  682MOL0     H94057   1.455   8.277   4.032  0.3625 -0.2090 -0.7441
  682MOL0     H94058   1.509   8.436   3.966 -1.1265 -2.6862 -0.6139
  682MOL0     H94059   1.404   8.370   4.240 -3.5174 -1.0224 -0.8047
  682MOL0     H94060   1.458   8.537   4.195  1.0512  0.3963 -3.2749
  682MOL0     H94061   1.282   8.432   4.004  0.9529 -0.6729  1.1938
  682MOL0     H94062   1.241   8.567   4.113  0.4342  1.0689 -1.7440
  682MOL0     H94063   1.193   8.271   4.145 -2.9847  0.1946  0.2630
  682MOL0     H94064   1.180   8.388   4.284 -3.6925  0.1073  0.8344
  682MOL0     H94065   0.990   8.257   3.973 -0.0378 -1.1494  0.0662
  682MOL0     H94066   0.648   8.252   4.037  0.8186  1.7947  0.2486
  682MOL0     H94067   0.759   8.231   3.908  1.2812  1.3671 -0.7876
  682MOL0     H94068   0.624   8.497   3.971 -0.9108 -0.9948  0.3934
  682MOL0     H94069   0.757   8.479   3.862 -0.6570  0.9263  2.4678
  682MOL0     H94070   0.482   8.335   3.854 -1.0620  0.9040  0.3045
  682MOL0     H94071   0.513   8.476   3.780 -4.0251 -1.6947  3.5669
  682MOL0     H94072   0.711   8.381   3.661 -0.4108  1.7310  0.9106
  682MOL0     H94073   0.658   8.212   3.710  0.1007  0.5645  1.2681
  682MOL0     H94074   0.799   8.290   3.498 -1.8131 -0.2577  1.6164
  682MOL0     H94075   0.973   8.246   3.334 -4.4536 -3.7039  0.3747
  682MOL0     H94076   0.966   8.416   3.269 -2.6952  0.1328  1.7172
  682MOL0     H94077   0.967   8.257   3.170 -0.4782 -3.4058  2.5266
  682MOL0     H94078   0.678   8.542   2.762  0.4622  0.1456  1.8408
  682MOL0     H94079   0.724   8.510   2.562  0.2915 -0.1951  0.2936
  682MOL0     H94080   0.729   8.255   2.414  0.4116  1.1050  1.6356
  682MOL0     H94081   0.780   8.414   2.348  0.8405 -0.3574  1.1549
  682MOL0     H94082   0.962   8.270   2.226  1.6649  0.3004  0.6287
  682MOL0     H94083   0.876   8.130   2.271 -0.7821  1.2294  0.5788
  682MOL0     H94084   0.770   8.323   2.069 -2.9576 -0.3681 -0.5911
  682MOL0     H94085   0.657   8.244   2.175  0.0783 -0.1475  0.2926
  682MOL0     H94086   0.868   8.089   2.011 -0.8821  1.9709 -2.4454
  682MOL0     H94087   0.713   8.117   1.939  0.7766 -1.2718 -0.8137
  682MOL0     H94088   0.767   7.973   2.196 -0.0770 -1.0956 -0.3164
  682MOL0     H94089   0.602   8.028   2.146  0.2648  1.3585 -0.9000
  682MOL0     H94090   0.792   7.842   1.994  1.5523  1.6668  1.7677
  682MOL0     H94091   0.617   7.890   1.945  0.0450 -2.5341 -0.2813
  682MOL0     H94092   0.717   7.702   2.164  1.0068  3.3146  1.0162
  682MOL0     H94093   0.665   7.657   2.004  2.8148  2.4396 -2.7510
  682MOL0     H94094   0.475   7.802   2.193 -0.2904  0.6599  0.1272
  682MOL0     H94095   0.493   7.630   2.169 -2.9422  0.1633 -1.2241
  682MOL0     H94096   1.076   8.259   2.669 -0.3179 -0.9881  2.7682
  682MOL0     H94097   1.020   8.305   2.893  0.2517  0.9946  1.6245
  682MOL0     H94098   0.499   8.332   3.121 -1.0074 -0.9884  0.3802
  682MOL0     H94099   0.399   8.340   3.341  1.0664 -2.2790 -0.0107
  682MOL0     H94100   2.193   8.438   4.024 -3.7332  0.6153  1.2842
  682MOL0     H94101   2.294   8.368   3.833 -3.0107 -3.0903  2.9085
  682MOL0     H94102   2.319   8.661   3.376 -0.2261 -1.1047 -1.9639
  682MOL0     H94103   2.395   8.636   3.162 -0.9828  1.4678  1.3875
  682MOL0     H94104   2.640   8.749   3.055 -2.1653 -0.4369  0.0116
  682MOL0     H94105   2.790   8.670   3.007 -0.4971  0.4106  1.1262
  682MOL0     H94106   2.657   8.754   2.826  2.3149  0.1431  0.0119
  682MOL0     H94107   2.509   8.663   2.879  0.1752 -2.7518 -0.0251
  682MOL0     H94108   2.775   8.567   2.761 -0.3530  0.2424 -0.6981
  682MOL0     H94109   2.644   8.458   2.818  0.3974 -0.5987  1.1340
  682MOL0     H94110   2.502   8.607   2.665  0.9390 -0.6627  1.6280
  682MOL0     H94111   2.613   8.486   2.585 -0.2585  0.9042 -1.8892
  682MOL0     H94112   2.801   8.822   2.442  1.2978 -0.1592 -0.2617
  682MOL0     H94113   2.764   8.472   3.289  1.2435  1.4538 -0.5105
  682MOL0     H94114   2.771   8.372   3.499 -1.8419 -0.5333 -3.2913
  682MOL0     H94115   2.778   8.525   3.593  3.2659 -1.7780 -2.0142
  682MOL0     H94116   2.650   8.393   3.621 -0.9090 -1.8545 -2.7634
  683MOL0     O94117   5.064   7.301   0.268 -0.1723  0.3114 -0.4651
  683MOL0     C94118   5.167   7.239   0.274  0.9401 -0.2072 -0.6710
  683MOL0     O94119   5.211   7.196   0.394 -0.1029  0.1934 -0.4270
  683MOL0     C94120   5.329   7.127   0.405 -0.5165 -1.3180  0.1938
  683MOL0     C94121   5.454   7.166   0.375  0.1013 -0.5500  0.2043
  683MOL0     C94122   5.561   7.076   0.378  0.1834 -0.2955  0.5454
  683MOL0     C94123   5.539   6.933   0.408  0.7204  0.3568 -1.1586
  683MOL0     O94124   5.630   6.836   0.430  0.0618  0.3812  0.3514
  683MOL0     C94125   5.771   6.865   0.402  0.3084 -0.2754 -0.1032
  683MOL0     C94126   5.833   6.735   0.440 -0.1228  0.1150  0.7192
  683MOL0     C94127   5.990   6.743   0.448 -0.0677  0.7277 -0.3726
  683MOL0     C94128   6.039   6.611   0.507 -0.1202  0.0703 -0.5931
  683MOL0     C94129   6.077   6.504   0.409  0.2543  0.3598 -0.6546
  683MOL0     C94130   6.048   6.356   0.454  0.1437 -1.2957 -0.8092
  683MOL0     C94131   6.065   6.264   0.337  0.8065  0.3780  0.4650
  683MOL0     C94132   6.014   6.121   0.372  1.3887 -0.4438  1.3449
  683MOL0     N94133   6.022   6.034   0.251 -0.3133  0.1000 -0.5619
  683MOL0     C94134   6.135   6.009   0.166 -0.0536  0.7439 -0.3581
  683MOL0     C94135   6.092   5.911   0.089  0.5423  0.4079 -0.5139
  683MOL0     C94136   6.174   5.856  -0.019 -0.0610  0.7796 -0.3112
  683MOL0     C94137   6.223   5.722   0.029  0.8902  0.0198  0.6090
  683MOL0     C94138   6.323   5.661  -0.070 -0.3693  0.0729 -0.2419
  683MOL0     C94139   6.409   5.535  -0.015  0.9207  0.7475  0.7325
  683MOL0     O94140   6.494   5.587   0.083  0.8949 -0.1279  0.0774
  683MOL0     C94141   6.590   5.513   0.146 -0.5584  0.2737 -0.7750
  683MOL0     C94142   6.700   5.582   0.197 -0.8396 -0.0687 -0.2843
  683MOL0     C94143   6.812   5.513   0.257 -0.6104  0.6673  0.1131
  683MOL0     C94144   6.932   5.598   0.300 -0.7705 -0.0729 -0.6514
  683MOL0     C94145   6.798   5.369   0.295 -0.6445 -0.5627 -0.0830
  683MOL0     C94146   6.889   5.304   0.390  0.0689 -0.5937 -0.8764
  683MOL0     O94147   6.906   5.172   0.363 -0.1929  0.6670 -0.2365
  683MOL0     C94148   6.993   5.095   0.430 -0.2391  0.1117  0.6528
  683MOL0     C94149   6.959   4.957   0.432  0.2024  0.4468 -0.9792
  683MOL0     C94150   7.050   4.861   0.484 -0.1607  0.1113 -0.7311
  683MOL0     C94151   7.180   4.900   0.518  0.1843  0.2342  0.7934
  683MOL0     O94152   7.270   4.809   0.577  1.0444  0.1790 -0.4943
  683MOL0     C94153   7.261   4.669   0.551  0.1076 -0.1389  0.1211
  683MOL0     C94154   7.174   4.591   0.653 -0.0587  0.3274 -0.2558
  683MOL0     C94155   7.189   4.434   0.630  0.2525 -1.1492 -0.6331
  683MOL0     C94156   7.325   4.366   0.653 -0.0317 -0.0962 -0.3256
  683MOL0     C94157   7.312   4.214   0.607 -0.5697  0.1495 -0.0255
  683MOL0     C94158   7.432   4.141   0.632  0.5618 -0.7502 -0.1117
  683MOL0     C94159   7.415   3.996   0.604 -1.0762 -0.2920  0.7597
  683MOL0     C94160   7.551   3.922   0.551  0.0960 -0.1710  0.2618
  683MOL0    Cl94161   7.665   3.916   0.684  0.1006 -0.1206  0.0202
  683MOL0     C94162   7.217   5.038   0.523  0.6948  0.1306  0.4202
  683MOL0     C94163   7.119   5.133   0.478 -0.3832  0.2539 -0.7779
  683MOL0     O94164   6.948   5.369   0.481  0.5983 -0.0455  0.3393
  683MOL0     C94165   6.692   5.302   0.237  0.9560 -0.3963 -1.3666
  683MOL0     C94166   6.596   5.371   0.161  0.2115  0.2393 -0.6232
  683MOL0     N94167   5.959   5.882   0.113 -0.1650 -0.2824 -0.6702
  683MOL0     N94168   5.925   5.949   0.218 -0.9387  0.0163 -0.1784
  683MOL0     C94169   5.408   6.894   0.447 -0.4997 -0.5856  0.1088
  683MOL0     C94170   5.304   6.996   0.447  0.4977  0.0021  0.5661
  683MOL0     C94171   5.233   7.206   0.139  0.5413  0.0976 -0.2208
  683MOL0     C94172   5.253   7.074   0.109 -0.3363  0.2260  0.7580
  683MOL0     C94173   5.309   7.037  -0.014  0.5538 -0.5784  0.3173
  683MOL0     C94174   5.325   7.136  -0.113 -0.0420  0.3360  0.0304
  683MOL0     O94175   5.347   7.091  -0.236  0.0381  0.0310  0.4402
  683MOL0     C94176   5.480   7.035  -0.262 -0.0433 -0.2202  0.4440
  683MOL0     C94177   5.489   7.048  -0.414  1.1162  0.6422 -0.4217
  683MOL0     C94178   5.403   6.957  -0.501 -1.2256 -0.5346  0.2675
  683MOL0     C94179   5.257   7.011  -0.528  0.0177  0.5231  0.2130
  683MOL0     C94180   5.217   7.005  -0.665 -0.2160 -0.5951  0.2365
  683MOL0     C94181   5.189   6.987  -0.786  0.4323 -0.1546 -0.2004
  683MOL0     C94182   5.290   7.264  -0.084  0.0760 -0.3122  0.6045
  683MOL0     C94183   5.248   7.304   0.038 -0.1101 -0.7975 -0.9332
  683MOL0     C94184   5.205   7.453   0.055 -0.2122  1.0159 -0.8083
  683MOL0     H94185   5.469   7.272   0.355 -0.1651 -0.7387 -1.0787
  683MOL0     H94186   5.658   7.117   0.352  0.0011  0.6231  1.2608
  683MOL0     H94187   5.807   6.941   0.472  0.2729 -0.6843  0.3672
  683MOL0     H94188   5.779   6.903   0.300 -2.2367 -0.0123 -0.2722
  683MOL0     H94189   5.776   6.692   0.523 -0.7026  0.9452  0.7644
  683MOL0     H94190   5.813   6.670   0.354  2.4181 -1.4398  1.1867
  683MOL0     H94191   6.032   6.753   0.348 -2.1167  0.4709 -1.3075
  683MOL0     H94192   6.040   6.824   0.502  0.7208  0.5247 -0.7858
  683MOL0     H94193   6.130   6.637   0.563  1.4189 -3.3993 -1.2194
  683MOL0     H94194   5.965   6.575   0.579  0.4241 -1.8915 -0.9427
  683MOL0     H94195   6.183   6.510   0.382  0.0068 -0.0251 -1.7597
  683MOL0     H94196   6.011   6.513   0.322  1.3281 -1.5684 -1.7329
  683MOL0     H94197   6.116   6.325   0.534 -1.6267 -2.4252  0.3294
  683MOL0     H94198   5.946   6.354   0.494  0.9642 -1.6075  1.4207
  683MOL0     H94199   6.170   6.262   0.306  0.0513  0.0093 -2.2986
  683MOL0     H94200   6.009   6.306   0.254  0.4374  0.2450  0.6426
  683MOL0     H94201   6.066   6.072   0.455  2.8552  0.7235  1.1583
  683MOL0     H94202   5.910   6.117   0.405  1.7701 -0.0578  2.6480
  683MOL0     H94203   6.233   6.051   0.182 -0.4465  0.8952  1.9464
  683MOL0     H94204   6.261   5.921  -0.029  0.5639 -0.2720 -2.0973
  683MOL0     H94205   6.124   5.848  -0.116  0.6758  0.8976 -0.7044
  683MOL0     H94206   6.266   5.744   0.127  1.7609 -0.1035  0.2652
  683MOL0     H94207   6.135   5.659   0.044  0.1116  1.2491  1.4126
  683MOL0     H94208   6.281   5.645  -0.169  2.0225 -0.4013 -1.2448
  683MOL0     H94209   6.392   5.745  -0.086 -3.2558  2.7566  0.5684
  683MOL0     H94210   6.355   5.447   0.019  0.2619 -0.0373 -2.0452
  683MOL0     H94211   6.478   5.491  -0.088  1.0970  0.2773  1.1772
  683MOL0     H94212   6.707   5.690   0.189 -0.3983 -0.2158 -2.2413
  683MOL0     H94213   7.030   5.552   0.284  2.1306  4.7956  0.9784
  683MOL0     H94214   6.937   5.626   0.406 -0.3491 -2.7442  0.1060
  683MOL0     H94215   6.934   5.691   0.242  0.7198  0.9252  0.9095
  683MOL0     H94216   6.873   4.913   0.383  1.4783 -2.4306 -0.7950
  683MOL0     H94217   7.030   4.756   0.498  3.0127 -0.7752 -2.0169
  683MOL0     H94218   7.239   4.659   0.444  1.5101  0.2857 -0.2283
  683MOL0     H94219   7.364   4.634   0.564  0.2184  0.8061  2.2275
  683MOL0     H94220   7.201   4.628   0.752 -1.2922 -0.6725  0.4802
  683MOL0     H94221   7.073   4.633   0.646 -0.1194  0.5508  1.6025
  683MOL0     H94222   7.140   4.418   0.534  2.1665  0.9107 -2.0808
  683MOL0     H94223   7.120   4.397   0.706 -1.5772 -1.4330 -2.3486
  683MOL0     H94224   7.366   4.366   0.754 -2.2633 -0.8625  0.6443
  683MOL0     H94225   7.401   4.420   0.595 -1.6898 -0.3024 -2.8452
  683MOL0     H94226   7.220   4.176   0.652 -1.8202  1.1815 -1.5839
  683MOL0     H94227   7.294   4.202   0.500  1.4396  0.3823 -0.4300
  683MOL0     H94228   7.452   4.148   0.739  1.7034 -0.7798 -0.3130
  683MOL0     H94229   7.511   4.192   0.577 -1.1441  1.2243 -0.8512
  683MOL0     H94230   7.340   3.980   0.526 -0.4740  0.2939  0.0385
  683MOL0     H94231   7.378   3.949   0.695  0.9416 -1.8009  0.8541
  683MOL0     H94232   7.590   3.979   0.466 -0.1649 -1.2461 -0.5916
  683MOL0     H94233   7.523   3.822   0.516  0.5580  0.2362 -1.3246
  683MOL0     H94234   7.314   5.066   0.564  1.5050  0.0873 -1.3502
  683MOL0     H94235   7.153   5.236   0.470 -3.3801  1.5424  1.0978
  683MOL0     H94236   6.683   5.194   0.246  2.0917 -0.3577  0.8784
  683MOL0     H94237   6.524   5.315   0.103  0.5071 -0.0307 -0.7275
  683MOL0     H94238   5.399   6.787   0.458  0.4730 -1.1986 -3.7246
  683MOL0     H94239   5.201   6.974   0.472  0.3349  0.2664  0.1341
  683MOL0     H94240   5.228   6.996   0.181 -0.2244 -1.0355 -0.5436
  683MOL0     H94241   5.351   6.942  -0.046  1.2187 -0.3036  0.3413
  683MOL0     H94242   5.565   7.091  -0.223  1.4496  0.7850 -3.6761
  683MOL0     H94243   5.500   6.931  -0.234  2.6531  0.0655 -0.1712
  683MOL0     H94244   5.591   7.022  -0.445  0.3289 -3.1443 -0.3298
  683MOL0     H94245   5.479   7.151  -0.450 -1.4110  0.0167 -1.6838
  683MOL0     H94246   5.452   6.959  -0.598 -1.8069  1.4882 -0.0336
  683MOL0     H94247   5.404   6.851  -0.473 -0.8893 -1.2359 -2.2038
  683MOL0     H94248   5.247   7.110  -0.484 -1.6374 -0.9041  3.3587
  683MOL0     H94249   5.182   6.952  -0.475 -0.7625 -1.3195 -2.7185
  683MOL0     H94250   5.166   6.962  -0.887  1.9761 -0.5682 -0.4743
  683MOL0     H94251   5.290   7.328  -0.172 -0.2534 -3.8551 -2.1902
  683MOL0     H94252   5.244   7.477   0.155  0.3352 -1.9354 -0.2220
  683MOL0     H94253   5.233   7.522  -0.025  1.5098  2.0201  0.5778
  683MOL0     H94254   5.096   7.454   0.062 -0.4022 -4.4337  2.7027
  684MOL0     O94255   2.845   9.954   3.253 -0.0595  0.1888  0.2866
  684MOL0     C94256   2.791   9.998   3.353 -0.1333 -0.8425  0.4650
  684MOL0     O94257   2.853  10.045   3.459 -0.2182 -0.3294  0.5022
  684MOL0     C94258   2.986  10.068   3.446  0.7109 -0.2684  0.1056
  684MOL0     C94259   3.038  10.192   3.388 -0.5006  0.3211 -0.1807
  684MOL0     C94260   3.177  10.213   3.396 -1.7656 -0.0082  1.1313
  684MOL0     C94261   3.265  10.108   3.431 -0.1557  0.6238 -0.4609
  684MOL0     O94262   3.409  10.109   3.425  0.6492  0.5351  0.7558
  684MOL0     C94263   3.462  10.231   3.373 -0.4033 -0.6682 -0.6361
  684MOL0     C94264   3.610  10.233   3.426  0.8116 -0.3208  0.4085
  684MOL0     C94265   3.697  10.120   3.365 -0.3581  0.0889 -0.8045
  684MOL0     C94266   3.665   9.990   3.437  0.3097 -0.2683  0.3612
  684MOL0     C94267   3.774   9.884   3.455  0.1092 -0.0433 -0.1185
  684MOL0     C94268   3.900   9.933   3.524 -0.3574 -0.4085 -0.6004
  684MOL0     C94269   3.987   9.815   3.578 -0.1939 -0.7245 -0.2393
  684MOL0     C94270   4.084   9.741   3.491  0.7475  0.0268  0.3108
  684MOL0     N94271   4.186   9.822   3.438  0.5955 -0.0158 -0.1911
  684MOL0     C94272   4.278   9.908   3.498  0.5991 -0.0548  0.9810
  684MOL0     C94273   4.354   9.945   3.394  0.5606 -0.8941 -0.0738
  684MOL0     C94274   4.479  10.025   3.421  0.6725 -0.0655 -0.4115
  684MOL0     C94275   4.449  10.170   3.418  0.5583  0.6895 -0.0190
  684MOL0     C94276   4.574  10.256   3.449  0.4476  0.0050  0.3385
  684MOL0     C94277   4.532  10.379   3.527  0.0827 -0.3439  0.3349
  684MOL0     O94278   4.491  10.338   3.659  0.4386 -0.0789 -0.1603
  684MOL0     C94279   4.430  10.433   3.729  1.6316  0.4228 -0.0483
  684MOL0     C94280   4.450  10.575   3.718  0.8171  0.1050  0.1717
  684MOL0     C94281   4.384  10.676   3.794  0.5235  0.0765 -0.1219
  684MOL0     C94282   4.432  10.827   3.810 -0.4735  0.7169  0.6674
  684MOL0     C94283   4.277  10.633   3.871 -0.0696 -0.3569 -0.4044
  684MOL0     C94284   4.181  10.727   3.940  0.0012  1.2816  0.6148
  684MOL0     O94285   4.149  10.836   3.873  0.1094 -0.3962  0.3698
  684MOL0     C94286   4.065  10.932   3.923 -0.8507  0.2664 -0.1891
  684MOL0     C94287   4.051  10.967   4.056 -1.2035  1.6574  0.2165
  684MOL0     C94288   3.962  11.066   4.103 -0.2169  0.1347  0.6813
  684MOL0     C94289   3.884  11.134   4.020  0.2824 -0.7033  0.1737
  684MOL0     O94290   3.803  11.240   4.059  0.7271 -0.0565 -0.5013
  684MOL0     C94291   3.759  11.258   4.192 -1.1789 -0.0365 -0.2971
  684MOL0     C94292   3.647  11.367   4.221 -0.1655  0.9024 -0.1843
  684MOL0     C94293   3.662  11.512   4.182  0.3044 -0.5192  0.8468
  684MOL0     C94294   3.721  11.525   4.038 -0.4144  0.0617  0.2727
  684MOL0     C94295   3.880  11.538   4.046 -0.1197 -1.1242  0.6328
  684MOL0     C94296   3.942  11.575   3.916 -0.1355  0.1590  0.7906
  684MOL0     C94297   3.907  11.473   3.807  0.0946 -0.6381 -0.1909
  684MOL0     C94298   3.968  11.512   3.674 -0.6361  0.0951 -0.0864
  684MOL0    Cl94299   4.138  11.456   3.661 -0.6099 -0.4868 -0.1978
  684MOL0     C94300   3.897  11.105   3.876  0.2190  0.2502 -0.0877
  684MOL0     C94301   3.994  11.010   3.831 -0.3264  1.1475 -0.3558
  684MOL0     O94302   4.143  10.699   4.055 -0.6403  0.0541  0.5319
  684MOL0     C94303   4.259  10.498   3.904 -0.4023 -0.6056  0.3400
  684MOL0     C94304   4.332  10.403   3.834 -0.3071 -0.0642  0.6573
  684MOL0     N94305   4.308   9.892   3.278  1.1414  0.6403 -0.0524
  684MOL0     N94306   4.208   9.816   3.308  0.0606 -0.4389  0.7912
  684MOL0     C94307   3.211   9.987   3.481  0.8906 -0.7880  0.3017
  684MOL0     C94308   3.075   9.975   3.495  0.8563 -0.4719 -1.2514
  684MOL0     C94309   2.642   9.974   3.366 -0.3147  0.0964  0.4009
  684MOL0     C94310   2.582   9.984   3.495  0.5289 -0.3643  0.5255
  684MOL0     C94311   2.453   9.950   3.520  0.2761 -1.5892 -0.2591
  684MOL0     C94312   2.359   9.939   3.419 -0.0974  0.2972  0.8642
  684MOL0     O94313   2.230   9.928   3.450  0.0494 -0.1468  0.6143
  684MOL0     C94314   2.123   9.922   3.354 -0.6794 -0.2583 -0.0344
  684MOL0     C94315   1.986   9.927   3.413  0.5380 -0.3916 -0.7323
  684MOL0     C94316   1.893   9.831   3.334 -0.1450  0.4526 -0.0711
  684MOL0     C94317   1.755   9.844   3.388  0.4240 -1.0284  0.9547
  684MOL0     C94318   1.747   9.791   3.530  0.6386 -1.0970 -0.1933
  684MOL0     C94319   1.738   9.744   3.644  0.5259 -0.6239 -0.6780
  684MOL0     C94320   2.408   9.946   3.289  0.1256  0.6454 -0.0576
  684MOL0     C94321   2.547   9.958   3.256  0.2599 -0.5517  0.3009
  684MOL0     C94322   2.577   9.948   3.104 -0.0009 -0.6845  0.2544
  684MOL0     H94323   2.965  10.259   3.346 -3.8946 -3.2443 -0.5644
  684MOL0     H94324   3.200  10.304   3.342  1.9860 -0.6537  1.3228
  684MOL0     H94325   3.420  10.326   3.407  1.7401  0.1760 -0.2090
  684MOL0     H94326   3.461  10.223   3.264 -0.8359  0.1816 -0.7035
  684MOL0     H94327   3.651  10.332   3.405 -0.7566 -0.1777 -2.6192
  684MOL0     H94328   3.612  10.216   3.534  0.2036  0.6415  0.5798
  684MOL0     H94329   3.675  10.113   3.259 -0.5532  2.7599 -1.0202
  684MOL0     H94330   3.804  10.143   3.373  0.3691 -3.1353  0.0137
  684MOL0     H94331   3.619  10.006   3.536 -0.1678 -1.6035  0.3704
  684MOL0     H94332   3.585   9.946   3.377 -1.5400  1.8070  1.1664
  684MOL0     H94333   3.800   9.849   3.355  0.2848 -2.0901  0.6134
  684MOL0     H94334   3.726   9.807   3.516  0.8239 -0.5509 -0.2007
  684MOL0     H94335   3.950  10.002   3.455 -4.1961  2.3424 -0.9911
  684MOL0     H94336   3.880   9.997   3.611  0.9294 -0.5333 -0.1838
  684MOL0     H94337   3.918   9.745   3.626 -0.0343 -1.9849 -1.7859
  684MOL0     H94338   4.043   9.855   3.663 -2.5208  1.6093  0.3385
  684MOL0     H94339   4.118   9.651   3.544  2.6778 -0.8850 -2.2936
  684MOL0     H94340   4.031   9.700   3.405  1.4091  0.0991 -0.1357
  684MOL0     H94341   4.293   9.928   3.604  3.8238 -4.1279  1.5793
  684MOL0     H94342   4.550  10.008   3.339  0.0083  1.2730 -1.2986
  684MOL0     H94343   4.527   9.998   3.516 -2.6480 -1.7761  0.9209
  684MOL0     H94344   4.415  10.187   3.315  2.1188 -0.9962 -0.8544
  684MOL0     H94345   4.361  10.198   3.477 -1.2698  3.3652 -3.6222
  684MOL0     H94346   4.643  10.190   3.503 -0.7486 -1.7594 -0.2215
  684MOL0     H94347   4.618  10.301   3.360 -0.0967  1.2872  0.7003
  684MOL0     H94348   4.603  10.460   3.515 -0.4748  0.2368  0.8731
  684MOL0     H94349   4.443  10.424   3.483 -0.8516 -0.1677  2.2636
  684MOL0     H94350   4.520  10.615   3.644  0.5887 -1.8883 -1.1974
  684MOL0     H94351   4.534  10.836   3.770 -1.5409 -0.5868 -2.6639
  684MOL0     H94352   4.433  10.851   3.917  2.1721 -1.2079  1.1968
  684MOL0     H94353   4.382  10.902   3.748 -0.5811 -2.1591 -3.1189
  684MOL0     H94354   4.117  10.915   4.126 -3.0241 -3.7077 -1.5268
  684MOL0     H94355   3.968  11.084   4.210  1.9073 -1.8590  0.9993
  684MOL0     H94356   3.734  11.158   4.227  3.9544 -0.7933  2.1999
  684MOL0     H94357   3.846  11.286   4.253 -0.2411 -0.0652 -1.5788
  684MOL0     H94358   3.551  11.329   4.186 -0.7890  1.0685  1.2786
  684MOL0     H94359   3.648  11.371   4.331  0.9113  2.2481 -0.2060
  684MOL0     H94360   3.735  11.562   4.247  0.1142 -0.8020  1.2847
  684MOL0     H94361   3.567  11.565   4.196  0.0418 -0.3797 -1.1590
  684MOL0     H94362   3.694  11.622   3.993 -0.3940  0.5246  1.2321
  684MOL0     H94363   3.690  11.437   3.982 -0.9478 -0.0735  0.7761
  684MOL0     H94364   3.910  11.604   4.128  0.0716 -0.2232 -0.1561
  684MOL0     H94365   3.921  11.439   4.072 -0.8145 -1.6544 -0.2286
  684MOL0     H94366   4.051  11.579   3.921  0.1864 -1.8211 -2.2640
  684MOL0     H94367   3.910  11.674   3.885  0.9984  0.4244  0.4372
  684MOL0     H94368   3.799  11.470   3.795 -0.0066  0.9179  0.1687
  684MOL0     H94369   3.942  11.373   3.834  0.5719 -0.1147  1.1976
  684MOL0     H94370   3.976  11.619   3.649  2.5263 -0.4317 -1.8593
  684MOL0     H94371   3.915  11.465   3.591  1.5839  0.8304 -2.0426
  684MOL0     H94372   3.844  11.167   3.804  1.0689 -0.4367 -1.3460
  684MOL0     H94373   4.008  10.992   3.725 -1.3649  0.7651 -0.4296
  684MOL0     H94374   4.190  10.473   3.984 -0.3475 -1.4692  0.1180
  684MOL0     H94375   4.308  10.300   3.861 -1.6823  0.7922  3.0613
  684MOL0     H94376   3.272   9.902   3.509  0.5920 -0.4674  2.0464
  684MOL0     H94377   3.035   9.881   3.531 -2.5601  0.7117 -1.6577
  684MOL0     H94378   2.650  10.009   3.576 -0.4601  1.4863  0.8515
  684MOL0     H94379   2.418   9.916   3.617 -0.2069 -0.1546  0.0964
  684MOL0     H94380   2.126  10.001   3.279 -1.4998  0.5169  0.7397
  684MOL0     H94381   2.138   9.830   3.295 -3.3943  0.4011 -1.9440
  684MOL0     H94382   1.949  10.029   3.408  1.7460  0.1703  0.8905
  684MOL0     H94383   1.987   9.895   3.517 -0.6053 -3.5448 -1.5608
  684MOL0     H94384   1.905   9.837   3.226  1.0447 -1.7658 -0.1124
  684MOL0     H94385   1.927   9.730   3.360 -1.3957  0.5170  2.0851
  684MOL0     H94386   1.683   9.798   3.320  1.6380 -0.7355 -0.5835
  684MOL0     H94387   1.728   9.950   3.387  0.9357 -0.9018 -0.3664
  684MOL0     H94388   1.721   9.703   3.741 -0.1350 -2.9252 -1.6914
  684MOL0     H94389   2.345   9.939   3.202  1.4772 -0.2996 -1.0031
  684MOL0     H94390   2.664  10.009   3.077  1.0323 -1.3412  1.9574
  684MOL0     H94391   2.590   9.844   3.073  2.0275 -0.8961  1.5976
  684MOL0     H94392   2.505   9.982   3.029  1.6723 -2.4819 -2.3131
  685MOL0     O94393   5.319   3.077   4.272  0.0075  0.5286 -0.1909
  685MOL0     C94394   5.302   2.970   4.208  0.4880 -0.4653 -0.4044
  685MOL0     O94395   5.365   2.936   4.098  0.3641  0.3983 -0.0767
  685MOL0     C94396   5.448   3.025   4.041 -0.4392  0.3130 -0.8630
  685MOL0     C94397   5.581   2.969   4.024  0.2431 -0.2424 -0.6754
  685MOL0     C94398   5.685   3.046   3.977 -0.4686  1.7615 -0.6077
  685MOL0     C94399   5.663   3.178   3.938 -0.2306 -0.0040  0.8831
  685MOL0     O94400   5.776   3.254   3.903 -0.1221  0.3305  0.2024
  685MOL0     C94401   5.896   3.226   3.962 -0.2218  0.8556  0.0622
  685MOL0     C94402   5.992   3.348   3.970  0.3116 -0.1222  0.0291
  685MOL0     C94403   6.128   3.329   4.056  0.7646 -0.5218  0.8723
  685MOL0     C94404   6.131   3.466   4.135  0.0990  0.9775  0.0813
  685MOL0     C94405   6.221   3.465   4.254 -0.9652 -1.4112 -0.2574
  685MOL0     C94406   6.216   3.590   4.342  0.4801  1.5778  0.3343
  685MOL0     C94407   6.077   3.608   4.395  0.1811  0.2179  0.5366
  685MOL0     C94408   6.067   3.726   4.491  0.2850 -0.6608 -0.1922
  685MOL0     N94409   6.125   3.683   4.619 -0.5763  0.5534 -0.7342
  685MOL0     C94410   6.054   3.628   4.721  0.1056  0.5305 -0.1299
  685MOL0     C94411   6.140   3.588   4.817 -0.1071  0.8548 -0.2713
  685MOL0     C94412   6.105   3.502   4.941  0.6234  0.0863 -0.0128
  685MOL0     C94413   6.228   3.472   5.027 -0.5819 -0.7588 -0.7682
  685MOL0     C94414   6.301   3.355   4.978 -0.4454  0.6570 -1.0594
  685MOL0     C94415   6.432   3.336   5.043 -0.7310  0.0740 -0.4955
  685MOL0     O94416   6.431   3.338   5.186 -0.0905 -0.4167 -0.9683
  685MOL0     C94417   6.436   3.223   5.259 -1.0516 -0.1230 -0.7129
  685MOL0     C94418   6.483   3.247   5.393  0.6855 -0.4488 -1.0678
  685MOL0     C94419   6.497   3.140   5.481  1.0542 -0.4018 -1.9998
  685MOL0     C94420   6.547   3.169   5.621 -1.3068  0.3093 -0.8433
  685MOL0     C94421   6.472   3.009   5.432  1.3442 -0.1488  0.5569
  685MOL0     C94422   6.509   2.891   5.505  0.3960 -0.5970  0.6371
  685MOL0     O94423   6.501   2.908   5.637 -0.5932 -0.5840  0.8580
  685MOL0     C94424   6.516   2.799   5.728  0.2894 -0.1452  0.7166
  685MOL0     C94425   6.635   2.732   5.743 -0.5282  0.5443  0.0099
  685MOL0     C94426   6.640   2.622   5.828  0.2905  0.3687  0.2479
  685MOL0     C94427   6.523   2.568   5.891 -0.3651 -0.6899 -0.2492
  685MOL0     O94428   6.548   2.465   5.976  0.2128 -0.5032  0.4959
  685MOL0     C94429   6.435   2.398   6.030  0.5912  1.2249  0.6378
  685MOL0     C94430   6.494   2.294   6.123  0.0955 -0.5003  0.2262
  685MOL0     C94431   6.578   2.194   6.042  0.3436 -0.4312 -1.0661
  685MOL0     C94432   6.689   2.149   6.130  0.0947  0.5647  0.0110
  685MOL0     C94433   6.767   2.037   6.067 -0.2278 -0.5184  0.3266
  685MOL0     C94434   6.857   1.972   6.165 -0.4718  0.4806  0.4855
  685MOL0     C94435   6.942   1.868   6.097 -0.4885 -0.9089 -0.0093
  685MOL0     C94436   6.997   1.759   6.193  0.0585 -0.9243 -0.2528
  685MOL0    Cl94437   7.098   1.846   6.319  0.1168  0.5323  0.1322
  685MOL0     C94438   6.396   2.633   5.866  0.2724  0.6216 -0.1424
  685MOL0     C94439   6.394   2.747   5.793 -0.2692  0.8228  1.0625
  685MOL0     O94440   6.542   2.790   5.439  0.6114  0.6937 -0.0705
  685MOL0     C94441   6.425   2.995   5.295  0.2540  0.8885 -1.0251
  685MOL0     C94442   6.409   3.100   5.212  0.3785 -0.5572  1.1594
  685MOL0     N94443   6.265   3.633   4.774 -0.0550  0.4151 -0.0946
  685MOL0     N94444   6.256   3.680   4.658 -0.1480 -0.8409  0.3613
  685MOL0     C94445   5.538   3.226   3.947 -0.4607  0.0620  0.0687
  685MOL0     C94446   5.427   3.157   3.992  0.4477 -0.6790 -1.0047
  685MOL0     C94447   5.207   2.861   4.260  0.6970  0.1446  0.5224
  685MOL0     C94448   5.228   2.730   4.211  0.1134 -0.4161  0.0722
  685MOL0     C94449   5.153   2.617   4.241  0.0973 -0.3050  1.1800
  685MOL0     C94450   5.044   2.632   4.321 -0.4879 -0.0437  0.3839
  685MOL0     O94451   4.960   2.527   4.340 -0.2052  0.7130 -0.4297
  685MOL0     C94452   4.998   2.411   4.421 -0.4916  0.8276  0.3272
  685MOL0     C94453   5.045   2.304   4.322  0.3786 -0.3679  0.0993
  685MOL0     C94454   5.048   2.162   4.380  0.2367  0.3328  0.1299
  685MOL0     C94455   5.067   2.058   4.273 -0.4414  0.6001  0.3835
  685MOL0     C94456   5.105   1.932   4.345  0.0058  0.4279  0.6226
  685MOL0     C94457   5.129   1.846   4.423  0.4689  0.1759 -0.3985
  685MOL0     C94458   5.011   2.756   4.379 -0.3851 -0.6452  0.1755
  685MOL0     C94459   5.091   2.871   4.345  0.6341  0.0545  0.2478
  685MOL0     C94460   5.068   3.005   4.411 -0.6765  0.8098 -0.0191
  685MOL0     H94461   5.602   2.865   4.046  0.9074 -0.1330 -0.7508
  685MOL0     H94462   5.780   2.997   3.958  0.0298  3.1342 -1.9566
  685MOL0     H94463   5.929   3.131   3.921 -3.0075  0.7296 -2.1440
  685MOL0     H94464   5.882   3.201   4.068 -0.7502  0.6504 -0.0495
  685MOL0     H94465   6.020   3.373   3.867 -2.2970 -3.7722 -1.7725
  685MOL0     H94466   5.926   3.431   3.995 -1.5222 -0.6438 -2.6713
  685MOL0     H94467   6.119   3.242   4.122 -2.0057  1.4753  3.4583
  685MOL0     H94468   6.220   3.313   4.001  0.1209 -0.5823 -0.2114
  685MOL0     H94469   6.186   3.537   4.072  0.4813  1.0902  0.5420
  685MOL0     H94470   6.030   3.485   4.172 -0.4997 -1.7963  0.0457
  685MOL0     H94471   6.322   3.443   4.217 -0.9386  0.5496 -1.4701
  685MOL0     H94472   6.216   3.370   4.309  1.6564 -1.5863 -0.1753
  685MOL0     H94473   6.291   3.572   4.420  1.4988  0.8663 -0.7728
  685MOL0     H94474   6.253   3.680   4.292  2.4084  0.6662  0.0454
  685MOL0     H94475   6.043   3.517   4.447 -3.7490  1.5914  0.7077
  685MOL0     H94476   6.005   3.615   4.313  1.7016 -2.5560 -1.1660
  685MOL0     H94477   6.142   3.797   4.454  1.7568 -0.6647  2.5084
  685MOL0     H94478   5.965   3.759   4.509  0.1360 -0.3807 -1.5094
  685MOL0     H94479   5.948   3.603   4.726 -0.8492  3.1068 -3.4418
  685MOL0     H94480   6.062   3.407   4.910  0.7060 -0.0209  0.1983
  685MOL0     H94481   6.040   3.567   5.001  0.4273 -0.5773  0.5048
  685MOL0     H94482   6.296   3.558   5.032  0.4954 -1.5057 -1.9348
  685MOL0     H94483   6.209   3.454   5.133  2.2929 -0.2580 -0.0680
  685MOL0     H94484   6.228   3.274   4.992  0.2635  0.5560  3.7123
  685MOL0     H94485   6.326   3.383   4.875 -3.1581  4.5053 -0.8905
  685MOL0     H94486   6.462   3.236   5.010 -1.1244  0.6045 -2.6161
  685MOL0     H94487   6.502   3.405   4.995 -0.2267 -1.1514 -1.5711
  685MOL0     H94488   6.508   3.350   5.413  0.7081 -0.3265 -1.7244
  685MOL0     H94489   6.592   3.266   5.644  2.2255 -1.5670  1.1472
  685MOL0     H94490   6.641   3.112   5.625 -0.5952  1.1056 -3.6630
  685MOL0     H94491   6.482   3.156   5.708 -2.1733 -1.1153 -1.6783
  685MOL0     H94492   6.714   2.763   5.676 -0.1686 -1.1826 -0.4012
  685MOL0     H94493   6.734   2.575   5.853 -0.2757 -0.7182  0.4043
  685MOL0     H94494   6.365   2.457   6.090 -2.9066 -2.7851  0.9791
  685MOL0     H94495   6.365   2.349   5.962  0.3897 -2.3326  3.1139
  685MOL0     H94496   6.552   2.351   6.197 -0.1794 -0.8504  0.7152
  685MOL0     H94497   6.403   2.246   6.160 -0.9950  1.1377 -0.1839
  685MOL0     H94498   6.615   2.230   5.945 -1.4852 -0.5516 -1.8610
  685MOL0     H94499   6.513   2.107   6.026 -2.1691  1.2531 -0.5403
  685MOL0     H94500   6.651   2.119   6.228  1.6641  1.5852  0.9929
  685MOL0     H94501   6.757   2.231   6.158 -0.7614  1.5463 -0.7210
  685MOL0     H94502   6.688   1.969   6.036 -0.6557 -0.9158  2.1283
  685MOL0     H94503   6.826   2.067   5.980 -1.0430  0.0159 -0.0504
  685MOL0     H94504   6.798   1.918   6.240  0.6028 -0.3695  0.7432
  685MOL0     H94505   6.910   2.056   6.211  1.9105 -0.2004 -0.8061
  685MOL0     H94506   7.024   1.907   6.035 -0.3631 -1.7954 -0.4289
  685MOL0     H94507   6.880   1.812   6.026  2.6689 -0.4710 -3.4203
  685MOL0     H94508   7.065   1.686   6.148 -0.8270 -0.3478 -2.7120
  685MOL0     H94509   6.920   1.704   6.248 -0.0478  1.6388  2.4408
  685MOL0     H94510   6.306   2.602   5.918 -0.0894  2.0756  0.1392
  685MOL0     H94511   6.309   2.812   5.776 -0.5728  0.5103  1.3684
  685MOL0     H94512   6.409   2.890   5.271 -0.4460 -0.6334  4.5748
  685MOL0     H94513   6.372   3.081   5.112 -0.7678  5.8403 -0.0900
  685MOL0     H94514   5.513   3.325   3.910 -1.1458 -0.3447 -0.5987
  685MOL0     H94515   5.325   3.193   3.984  0.6594  0.6267  1.3447
  685MOL0     H94516   5.305   2.708   4.137 -0.9118 -3.6970 -0.2068
  685MOL0     H94517   5.176   2.527   4.185 -0.9851  0.4275 -0.5108
  685MOL0     H94518   5.073   2.434   4.497  0.2110 -1.2979  0.3317
  685MOL0     H94519   4.911   2.365   4.471 -0.7967  1.5221  0.4524
  685MOL0     H94520   5.145   2.335   4.292  0.0253  0.7752  0.0725
  685MOL0     H94521   4.976   2.299   4.237  1.7006 -3.7191 -0.9328
  685MOL0     H94522   5.122   2.158   4.460 -1.1262  2.9564  1.6363
  685MOL0     H94523   4.950   2.140   4.423  0.3947 -1.7175 -0.4324
  685MOL0     H94524   5.148   2.079   4.202  0.0745  1.1313  1.1078
  685MOL0     H94525   4.975   2.040   4.217  0.3078 -1.3948 -0.2990
  685MOL0     H94526   5.150   1.768   4.494 -1.2008 -0.7078 -0.8267
  685MOL0     H94527   4.922   2.763   4.441 -0.4507  1.5293 -0.0976
  685MOL0     H94528   4.984   3.020   4.479 -2.2892  0.9972 -1.9461
  685MOL0     H94529   5.159   3.033   4.464 -2.4854  1.8595  2.7327
  685MOL0     H94530   5.059   3.070   4.324  2.7743  1.3925 -0.1013
  686MOL0     O94531   9.429   4.024   8.429  0.2672 -0.0858  0.1690
  686MOL0     C94532   9.536   4.091   8.440  0.4567  0.6205  0.7124
  686MOL0     O94533   9.624   4.084   8.350 -0.4455  0.0237 -0.1658
  686MOL0     C94534   9.616   4.001   8.245 -0.3753  1.2335  0.2050
  686MOL0     C94535   9.579   3.870   8.255 -0.2041  0.7488 -0.2609
  686MOL0     C94536   9.594   3.776   8.151  0.3651 -0.5524 -1.0272
  686MOL0     C94537   9.644   3.811   8.029 -0.2639 -0.6460 -1.1012
  686MOL0     O94538   9.652   3.726   7.930 -0.1992 -0.5845  0.4812
  686MOL0     C94539   9.690   3.596   7.971  0.3501 -0.0547  0.5264
  686MOL0     C94540   9.750   3.525   7.849  0.1134 -0.0835 -0.2526
  686MOL0     C94541   9.658   3.429   7.775  0.6112  0.3401  0.5043
  686MOL0     C94542   9.725   3.345   7.677  0.0597  0.5112 -0.0747
  686MOL0     C94543   9.680   3.206   7.642 -0.0256 -0.0762 -0.2376
  686MOL0     C94544   9.803   3.107   7.630  0.0915  0.6168 -0.2742
  686MOL0     C94545   9.760   2.960   7.613  1.0015  0.4469  0.3025
  686MOL0     C94546   9.718   2.934   7.467 -0.0612 -0.4160  0.2155
  686MOL0     N94547   9.681   2.792   7.436  0.1616  0.4849 -0.5640
  686MOL0     C94548   9.732   2.699   7.349 -0.9205 -0.7905 -0.4548
  686MOL0     C94549   9.683   2.580   7.380  1.2225  0.1964  0.1050
  686MOL0     C94550   9.720   2.447   7.311 -0.1386 -0.2495 -0.5462
  686MOL0     C94551   9.811   2.372   7.398  0.0630  0.0165 -0.3723
  686MOL0     C94552   9.846   2.223   7.355  0.3715 -0.2495  0.7007
  686MOL0     C94553   9.742   2.140   7.285  1.1379 -0.4226 -0.0739
  686MOL0     O94554   9.744   2.003   7.299  0.1647  0.0102 -0.2702
  686MOL0     C94555   9.662   1.919   7.217  0.4675 -0.3880 -0.7865
  686MOL0     C94556   9.518   1.911   7.235 -0.2007  0.0861  0.6468
  686MOL0     C94557   9.452   1.829   7.141 -0.0954  0.8609 -1.0162
  686MOL0     C94558   9.304   1.792   7.176 -1.1743  0.3066  0.3687
  686MOL0     C94559   9.518   1.755   7.035  0.8981 -1.1453  0.2819
  686MOL0     C94560   9.464   1.672   6.931  0.0215  0.7416 -0.3604
  686MOL0     O94561   9.544   1.573   6.860  0.7612 -0.4430 -0.1014
  686MOL0     C94562   9.491   1.476   6.784  0.0403 -0.5547 -0.1264
  686MOL0     C94563   9.374   1.490   6.706 -0.6400  0.5087 -0.1618
  686MOL0     C94564   9.334   1.385   6.626 -0.3385 -1.0909  0.3703
  686MOL0     C94565   9.406   1.271   6.611  0.2197  0.2190 -0.3439
  686MOL0     O94566   9.363   1.172   6.517 -0.5791  0.8017 -0.0137
  686MOL0     C94567   9.324   1.231   6.386 -0.9130 -0.6469 -0.6234
  686MOL0     C94568   9.295   1.103   6.292 -0.3555  0.2731 -0.5019
  686MOL0     C94569   9.203   1.144   6.183  0.6811  0.3070 -0.2619
  686MOL0     C94570   9.178   1.020   6.091 -0.4354  0.5819 -0.1652
  686MOL0     C94571   9.081   1.058   5.977  0.7782  0.5182  0.0476
  686MOL0     C94572   8.990   0.944   5.935  0.3183  0.5123 -0.2041
  686MOL0     C94573   8.883   0.975   5.818 -0.5064 -0.7824 -0.1657
  686MOL0     C94574   8.950   1.047   5.694 -0.3218  0.1452  0.3507
  686MOL0    Cl94575   9.069   0.940   5.616 -0.1686  0.7089 -0.3578
  686MOL0     C94576   9.517   1.254   6.697  0.0763  0.3982 -0.7879
  686MOL0     C94577   9.554   1.356   6.777 -0.3553 -0.6631 -0.1737
  686MOL0     O94578   9.346   1.697   6.904  0.9586  0.0085  0.0720
  686MOL0     C94579   9.652   1.773   7.021 -0.1160 -0.3605  0.1999
  686MOL0     C94580   9.723   1.854   7.112  1.5843 -0.3024 -0.0118
  686MOL0     N94581   9.588   2.603   7.477  0.0459  0.2242  0.9674
  686MOL0     N94582   9.591   2.724   7.511  0.7175 -0.0322 -0.4295
  686MOL0     C94583   9.694   3.947   8.018  0.0415 -0.0895 -0.0946
  686MOL0     C94584   9.685   4.046   8.126 -0.0152  0.0977  0.1157
  686MOL0     C94585   9.566   4.183   8.553 -1.1772  0.7220 -0.9105
  686MOL0     C94586   9.701   4.197   8.601 -0.6508 -0.1704 -0.1069
  686MOL0     C94587   9.728   4.268   8.723 -1.4742  0.7884 -0.9826
  686MOL0     C94588   9.617   4.332   8.787 -0.9193  0.5131 -0.1388
  686MOL0     O94589   9.618   4.399   8.906 -0.3538 -0.1924 -0.4731
  686MOL0     C94590   9.718   4.344   8.999  0.4364  1.0593 -0.6863
  686MOL0     C94591   9.725   4.430   9.134  0.2650 -0.2069 -0.3327
  686MOL0     C94592   9.604   4.415   9.230  0.8960  0.4368  0.1746
  686MOL0     C94593   9.618   4.489   9.365 -0.4273  1.2783  0.2554
  686MOL0     C94594   9.504   4.449   9.459 -0.4031 -0.3729  1.1198
  686MOL0     C94595   9.408   4.426   9.531  0.5232 -0.1651  0.0456
  686MOL0     C94596   9.485   4.328   8.731  0.3007  0.6278 -0.2204
  686MOL0     C94597   9.457   4.244   8.622 -1.5093 -0.1158 -0.4743
  686MOL0     C94598   9.311   4.231   8.593 -0.4826  0.8979  0.6887
  686MOL0     H94599   9.524   3.825   8.336  0.2356  3.7061  1.8270
  686MOL0     H94600   9.539   3.683   8.164 -1.1754  0.6348  2.0585
  686MOL0     H94601   9.614   3.527   8.008  1.5187 -1.5272  0.2842
  686MOL0     H94602   9.772   3.613   8.041  0.2756  1.9307  0.2157
  686MOL0     H94603   9.802   3.592   7.779 -3.0058  1.5377 -1.2297
  686MOL0     H94604   9.820   3.458   7.899 -0.5232 -0.9849 -0.5589
  686MOL0     H94605   9.613   3.358   7.846  2.8140 -1.2903  0.4054
  686MOL0     H94606   9.582   3.489   7.726  1.4948 -0.4482 -1.9585
  686MOL0     H94607   9.726   3.411   7.589  0.4168  0.6721  0.0476
  686MOL0     H94608   9.830   3.340   7.708  0.1985  2.5348 -0.1151
  686MOL0     H94609   9.629   3.204   7.546  1.5596 -1.0903 -1.1082
  686MOL0     H94610   9.618   3.177   7.727 -0.6051 -1.0363 -0.9660
  686MOL0     H94611   9.862   3.139   7.544 -0.9524  1.2768 -0.7557
  686MOL0     H94612   9.868   3.107   7.718 -1.4621  2.1950  0.9380
  686MOL0     H94613   9.675   2.933   7.677 -0.5916  0.4019 -1.7189
  686MOL0     H94614   9.841   2.891   7.637  0.4265  0.5292  2.7358
  686MOL0     H94615   9.626   2.990   7.448  0.1083 -0.2129 -0.0059
  686MOL0     H94616   9.781   2.982   7.392 -0.0187  0.5358  0.8389
  686MOL0     H94617   9.802   2.719   7.269 -0.5975  0.4449  0.1184
  686MOL0     H94618   9.762   2.451   7.210 -2.1581  2.5951 -1.4185
  686MOL0     H94619   9.622   2.401   7.297 -1.4766  2.5146 -1.0583
  686MOL0     H94620   9.897   2.440   7.391  0.0871 -0.1274 -1.5780
  686MOL0     H94621   9.792   2.368   7.506  4.1277 -1.1943  0.4676
  686MOL0     H94622   9.931   2.210   7.288  0.4413 -0.2420  0.7886
  686MOL0     H94623   9.864   2.175   7.451 -1.7758 -4.2445 -0.6507
  686MOL0     H94624   9.645   2.172   7.325  0.6671  1.7644 -2.7064
  686MOL0     H94625   9.753   2.157   7.178 -0.9454 -2.6315 -0.7121
  686MOL0     H94626   9.465   1.960   7.316 -1.6079 -3.0639  1.8114
  686MOL0     H94627   9.269   1.827   7.273  2.9221  2.0054  1.4774
  686MOL0     H94628   9.287   1.684   7.182  0.9418 -0.2057 -1.5716
  686MOL0     H94629   9.242   1.833   7.096 -0.8020 -2.0008 -1.1959
  686MOL0     H94630   9.311   1.578   6.692 -0.7764  0.4583  0.1253
  686MOL0     H94631   9.239   1.393   6.573 -0.6434 -0.7429  0.9660
  686MOL0     H94632   9.237   1.295   6.405  0.3166  0.4482  1.8241
  686MOL0     H94633   9.404   1.290   6.341 -1.3864 -0.6242 -1.4404
  686MOL0     H94634   9.392   1.065   6.257  0.3985  2.0508 -0.4415
  686MOL0     H94635   9.249   1.025   6.353  1.1803  0.4151  0.8858
  686MOL0     H94636   9.251   1.223   6.124  0.2989  2.1380  1.7524
  686MOL0     H94637   9.110   1.188   6.220  0.1391  1.4691 -2.7375
  686MOL0     H94638   9.133   0.939   6.148 -4.0490  2.0375 -0.6828
  686MOL0     H94639   9.276   0.982   6.059 -0.7928  0.0897 -0.7090
  686MOL0     H94640   9.029   1.152   5.993  0.9691  0.9613 -1.7141
  686MOL0     H94641   9.139   1.079   5.887 -0.8428  0.1198 -1.1502
  686MOL0     H94642   8.946   0.892   6.020  0.5362 -0.2284 -0.5343
  686MOL0     H94643   9.064   0.874   5.894 -1.2089 -2.3946  1.6176
  686MOL0     H94644   8.806   1.038   5.864  0.2667 -0.9337  1.4047
  686MOL0     H94645   8.838   0.880   5.790 -0.2826 -0.9504  0.0367
  686MOL0     H94646   8.984   1.148   5.720 -2.1929  1.2698 -1.2669
  686MOL0     H94647   8.870   1.058   5.620  1.8361 -1.6055 -2.4260
  686MOL0     H94648   9.572   1.161   6.697  1.0766  0.9812 -1.3258
  686MOL0     H94649   9.634   1.329   6.845 -1.4102 -0.7292  1.0923
  686MOL0     H94650   9.709   1.738   6.936  2.3754  2.9381  0.3198
  686MOL0     H94651   9.829   1.870   7.100  1.1174  1.0012 -3.8715
  686MOL0     H94652   9.738   3.969   7.922 -0.1602  0.1740 -0.1263
  686MOL0     H94653   9.735   4.142   8.128  0.7398 -0.2976  0.7722
  686MOL0     H94654   9.787   4.151   8.552 -1.3557 -0.5107 -1.0661
  686MOL0     H94655   9.832   4.279   8.751 -1.8576  3.6740 -0.3644
  686MOL0     H94656   9.694   4.239   9.016 -2.4498  1.8020  0.5701
  686MOL0     H94657   9.813   4.352   8.947  1.8152 -2.3536  1.0049
  686MOL0     H94658   9.729   4.538   9.121  1.2459 -0.2423 -0.4327
  686MOL0     H94659   9.816   4.393   9.182  1.4795  4.2515  1.2361
  686MOL0     H94660   9.508   4.449   9.190  2.3567  1.4994 -2.6491
  686MOL0     H94661   9.586   4.308   9.246  0.3034  0.4235 -0.5093
  686MOL0     H94662   9.616   4.597   9.349 -2.9130  0.7782 -4.2131
  686MOL0     H94663   9.717   4.461   9.404  1.0465  3.6126 -1.5099
  686MOL0     H94664   9.327   4.390   9.592  0.2432 -0.9407 -0.7585
  686MOL0     H94665   9.405   4.374   8.787 -1.7718 -1.5157 -1.2220
  686MOL0     H94666   9.259   4.309   8.649  0.0575  3.2026 -1.8116
  686MOL0     H94667   9.293   4.254   8.488  0.2493  0.8472  0.5436
  686MOL0     H94668   9.267   4.133   8.614  0.9843  0.1984  0.6774
  687MOL0     O94669  11.309   9.139   9.928  0.7869 -0.3376  1.1420
  687MOL0     C94670  11.244   9.196   9.839 -0.0544  0.0293 -0.5285
  687MOL0     O94671  11.159   9.132   9.748  0.6415  0.4056 -0.0814
  687MOL0     C94672  11.122   9.004   9.764 -0.7793  0.0014  0.4092
  687MOL0     C94673  11.085   8.938   9.881 -0.5605 -0.3028  0.2923
  687MOL0     C94674  11.037   8.802   9.877  0.2745 -0.1137  0.6372
  687MOL0     C94675  11.042   8.725   9.760  0.9213 -0.3582  0.1904
  687MOL0     O94676  11.010   8.593   9.768 -0.5914 -0.3974 -0.6442
  687MOL0     C94677  11.124   8.511   9.789 -0.2004  0.1558 -0.2494
  687MOL0     C94678  11.090   8.450   9.936 -0.6293 -1.0074  0.5689
  687MOL0     C94679  11.173   8.328   9.973  0.6304  0.4706 -0.3578
  687MOL0     C94680  11.325   8.348   9.978 -0.4917 -1.8308 -0.6606
  687MOL0     C94681  11.398   8.229   9.928 -1.4007 -0.1499 -0.2941
  687MOL0     C94682  11.548   8.232   9.965 -0.1257 -0.7812 -0.7414
  687MOL0     C94683  11.626   8.104   9.930  0.6920  0.0701 -0.8439
  687MOL0     C94684  11.613   8.073   9.777  0.1903  0.8686  0.1619
  687MOL0     N94685  11.671   8.178   9.678  0.0013 -0.3077  0.5881
  687MOL0     C94686  11.802   8.190   9.625 -0.3142 -0.5630  0.6323
  687MOL0     C94687  11.787   8.312   9.552  0.3170  0.4906  0.0065
  687MOL0     C94688  11.890   8.385   9.486 -0.0025  0.2661 -0.6288
  687MOL0     C94689  11.940   8.303   9.366  0.4048  0.2110  0.3925
  687MOL0     C94690  12.063   8.375   9.306 -0.1786  0.0251  0.3287
  687MOL0     C94691  12.086   8.285   9.176  0.3012 -0.6485 -0.1002
  687MOL0     O94692  11.978   8.273   9.085  0.8139  0.1809  0.1207
  687MOL0     C94693  11.985   8.173   8.995 -0.6539  0.3513  0.2515
  687MOL0     C94694  11.864   8.117   8.963 -0.3128 -0.4598  0.2659
  687MOL0     C94695  11.861   7.996   8.892 -0.1340 -0.5028 -0.5287
  687MOL0     C94696  11.720   7.948   8.864 -0.1029 -0.2109  0.0397
  687MOL0     C94697  11.977   7.935   8.839 -0.6853 -0.7486 -0.3327
  687MOL0     C94698  11.982   7.804   8.758 -0.3041  0.2401  0.1585
  687MOL0     O94699  12.107   7.756   8.745  0.4248 -1.2666  0.3590
  687MOL0     C94700  12.112   7.645   8.665  0.5939  0.2522 -0.3991
  687MOL0     C94701  12.035   7.523   8.687  0.6918  0.2510  0.9685
  687MOL0     C94702  12.062   7.419   8.600 -0.0349  0.1697 -0.7896
  687MOL0     C94703  12.139   7.431   8.486  0.3986  0.0390  0.0005
  687MOL0     O94704  12.150   7.319   8.405  0.2260 -0.4693  0.6427
  687MOL0     C94705  12.187   7.343   8.270 -0.0342  0.4621 -1.2997
  687MOL0     C94706  12.183   7.217   8.193  0.7251 -0.1813 -0.0147
  687MOL0     C94707  12.286   7.114   8.250 -0.3360  0.1501 -0.4521
  687MOL0     C94708  12.263   6.973   8.199 -0.1221  0.0566 -0.1380
  687MOL0     C94709  12.306   6.963   8.052  0.2433 -0.6353  1.0246
  687MOL0     C94710  12.314   6.823   8.004 -0.1821  0.8364 -0.2806
  687MOL0     C94711  12.242   6.798   7.874  0.5029 -0.8894  0.9020
  687MOL0     C94712  12.238   6.646   7.853  0.1471 -0.6849  0.2815
  687MOL0    Cl94713  12.379   6.580   7.767 -0.4138 -0.2952  0.8472
  687MOL0     C94714  12.215   7.552   8.467 -0.9163 -0.2896  0.3333
  687MOL0     C94715  12.194   7.664   8.547 -0.7685  0.2730 -0.3340
  687MOL0     O94716  11.876   7.745   8.733 -0.0109 -0.0503  0.6733
  687MOL0     C94717  12.103   8.007   8.862  0.6307 -0.0668 -0.1262
  687MOL0     C94718  12.102   8.120   8.939 -0.1757 -0.0655 -0.3762
  687MOL0     N94719  11.658   8.353   9.554  0.9496  0.2289 -0.6710
  687MOL0     N94720  11.592   8.275   9.622 -0.1725  0.5951  0.3460
  687MOL0     C94721  11.080   8.789   9.644 -1.1755 -0.3266 -0.8539
  687MOL0     C94722  11.119   8.927   9.645 -0.2898  0.4013  0.5789
  687MOL0     C94723  11.267   9.339   9.826  0.4720 -0.5137  0.0668
  687MOL0     C94724  11.394   9.389   9.839 -0.1718 -0.1312 -0.0786
  687MOL0     C94725  11.421   9.521   9.822 -0.5925 -0.7642  0.3831
  687MOL0     C94726  11.323   9.610   9.792  0.3812 -0.0961 -0.2801
  687MOL0     O94727  11.327   9.738   9.761 -0.5239 -0.2657 -0.2259
  687MOL0     C94728  11.458   9.808   9.754  1.3344  0.4109  0.1571
  687MOL0     C94729  11.519   9.837   9.890 -0.3206  0.2945  0.2102
  687MOL0     C94730  11.437   9.907  10.004  0.2318  0.3245 -0.1147
  687MOL0     C94731  11.551   9.950  10.111  0.2599  0.1216 -0.3398
  687MOL0     C94732  11.499   9.990  10.235  0.9043  0.2269  0.4420
  687MOL0     C94733  11.472  10.009  10.354 -0.7594 -0.5680  0.2140
  687MOL0     C94734  11.187   9.567   9.794  0.4065  0.4938  0.7806
  687MOL0     C94735  11.158   9.428   9.813 -0.6857  0.3392 -0.5744
  687MOL0     C94736  11.019   9.390   9.820 -0.9306  0.7044 -0.3596
  687MOL0     H94737  11.086   8.988   9.978 -2.8303  0.1274  0.1474
  687MOL0     H94738  10.987   8.746   9.956 -0.7522  2.8001  2.2112
  687MOL0     H94739  11.223   8.557   9.781 -0.1148 -0.0774 -0.5891
  687MOL0     H94740  11.118   8.423   9.724 -1.1090 -0.8454  1.1318
  687MOL0     H94741  11.096   8.536  10.004 -0.2109 -2.3105  2.2281
  687MOL0     H94742  10.988   8.413   9.927 -0.9034 -0.4135  1.1479
  687MOL0     H94743  11.138   8.306  10.074  0.8895  0.4435 -0.2716
  687MOL0     H94744  11.145   8.238   9.918 -3.2038  1.2154  0.1358
  687MOL0     H94745  11.352   8.435   9.918 -1.7952 -2.2804 -1.9612
  687MOL0     H94746  11.355   8.370  10.081 -3.8352 -0.2049  0.1156
  687MOL0     H94747  11.380   8.231   9.820  0.6873  0.6083 -0.6846
  687MOL0     H94748  11.349   8.142   9.972  1.7588 -2.1554 -0.4000
  687MOL0     H94749  11.602   8.314   9.917 -0.8788 -1.5216 -2.9722
  687MOL0     H94750  11.555   8.253  10.073 -3.7689 -2.3183 -0.0435
  687MOL0     H94751  11.577   8.019   9.979 -0.8611  0.3936 -1.7644
  687MOL0     H94752  11.733   8.115   9.945  0.4819 -1.3351  2.4204
  687MOL0     H94753  11.657   7.973   9.767 -0.6621  0.2266  2.3046
  687MOL0     H94754  11.508   8.050   9.757 -0.3768  1.8662  1.8679
  687MOL0     H94755  11.893   8.135   9.647  0.8472  1.4903  1.2637
  687MOL0     H94756  11.960   8.409   9.567 -1.4301  0.1388  0.6979
  687MOL0     H94757  11.852   8.482   9.454 -1.5190 -0.0566  0.1005
  687MOL0     H94758  11.970   8.207   9.409  0.3745 -0.5858 -1.3171
  687MOL0     H94759  11.857   8.286   9.298  1.0914  0.1931 -0.4547
  687MOL0     H94760  12.047   8.479   9.274 -1.0621  0.3372  1.7308
  687MOL0     H94761  12.151   8.365   9.370 -0.1426 -3.8756 -0.0905
  687MOL0     H94762  12.162   8.332   9.113 -1.6250  2.2252 -0.4351
  687MOL0     H94763  12.117   8.185   9.210 -2.0840 -1.1901  0.7103
  687MOL0     H94764  11.778   8.161   9.011  0.2695  1.6993 -0.5554
  687MOL0     H94765  11.703   7.849   8.909  1.2903  0.2296  1.6799
  687MOL0     H94766  11.712   7.930   8.757  2.1853  0.9841 -0.3853
  687MOL0     H94767  11.651   8.018   8.912  0.3067  1.0160 -1.1095
  687MOL0     H94768  11.983   7.489   8.776 -0.9661 -1.6903 -0.6558
  687MOL0     H94769  12.010   7.325   8.616  3.1474 -1.5625  0.2519
  687MOL0     H94770  12.127   7.422   8.224  1.2014  1.4408 -1.2858
  687MOL0     H94771  12.287   7.388   8.275  1.5572 -2.8446  0.8534
  687MOL0     H94772  12.077   7.192   8.198 -0.0001  2.6472  0.3751
  687MOL0     H94773  12.208   7.243   8.090 -0.5646 -0.0951 -0.3176
  687MOL0     H94774  12.282   7.122   8.359 -2.4638  2.7192 -0.6031
  687MOL0     H94775  12.387   7.150   8.230 -0.0734  0.6645  1.5285
  687MOL0     H94776  12.158   6.943   8.196 -0.1750  0.2967 -2.2466
  687MOL0     H94777  12.325   6.896   8.247 -2.7603 -1.4386  1.0589
  687MOL0     H94778  12.238   7.031   8.000  0.6857  0.1330  1.4316
  687MOL0     H94779  12.410   6.998   8.048  0.8220 -2.3280 -2.6849
  687MOL0     H94780  12.286   6.755   8.084  2.6737 -3.4989 -2.5570
  687MOL0     H94781  12.421   6.807   7.988  0.0640  2.5841 -0.6000
  687MOL0     H94782  12.302   6.834   7.790  0.9705 -1.1818  1.1100
  687MOL0     H94783  12.144   6.843   7.892  0.8035 -0.9583  2.9490
  687MOL0     H94784  12.155   6.633   7.782  1.2694 -1.4596 -0.9427
  687MOL0     H94785  12.205   6.590   7.941 -2.2882 -0.0577 -0.1524
  687MOL0     H94786  12.302   7.554   8.402 -0.5011  1.7885  0.8934
  687MOL0     H94787  12.225   7.765   8.522 -2.5451  0.8224 -0.4027
  687MOL0     H94788  12.190   7.972   8.807  1.9400  2.1533  0.3880
  687MOL0     H94789  12.199   8.161   8.966 -1.1603  0.7969  2.1219
  687MOL0     H94790  11.096   8.729   9.555 -0.8660  0.6869 -1.4955
  687MOL0     H94791  11.156   8.962   9.549  1.3873 -2.0141  0.2418
  687MOL0     H94792  11.484   9.330   9.847 -0.5125 -0.6413  0.0301
  687MOL0     H94793  11.524   9.554   9.833 -1.2427  1.5415  0.0298
  687MOL0     H94794  11.530   9.742   9.706 -0.5321  0.4877 -3.0610
  687MOL0     H94795  11.436   9.905   9.707 -1.6078 -0.1084  0.2593
  687MOL0     H94796  11.600   9.905   9.863  0.4259 -0.1048  1.3818
  687MOL0     H94797  11.570   9.749   9.930 -1.5931 -2.2270 -3.2053
  687MOL0     H94798  11.385   9.995   9.966  4.1406  3.5018  1.1425
  687MOL0     H94799  11.363   9.842  10.051  2.6462 -2.0875  0.6440
  687MOL0     H94800  11.608  10.034  10.071  1.7498  0.8000  2.9328
  687MOL0     H94801  11.609   9.860  10.132 -2.6445 -1.5461  1.2149
  687MOL0     H94802  11.444  10.028  10.455 -0.3513 -1.8053  0.5673
  687MOL0     H94803  11.116   9.640   9.758  1.9437  1.2405 -0.9064
  687MOL0     H94804  10.982   9.383   9.717 -1.1398  0.8673 -0.2978
  687MOL0     H94805  11.009   9.299   9.879  1.1713 -0.7585 -2.0924
  687MOL0     H94806  10.960   9.469   9.868  1.9423  0.8291  3.4301
  688MOL0     O94807   0.040   5.099   7.216  0.4530 -0.5892 -0.1588
  688MOL0     C94808   0.059   5.062   7.331 -0.0277  0.4592 -0.5003
  688MOL0     O94809   0.000   4.960   7.400  0.3282  0.4152  0.4121
  688MOL0     C94810  -0.125   4.929   7.359 -0.7223 -0.7214  0.0968
  688MOL0     C94811  -0.142   4.835   7.265  0.8979  0.6967 -0.1477
  688MOL0     C94812  -0.265   4.791   7.217  0.0283 -0.0069  1.2031
  688MOL0     C94813  -0.380   4.855   7.264 -0.2938 -0.7634  0.1018
  688MOL0     O94814  -0.493   4.801   7.217 -0.6335  0.3681 -0.2278
  688MOL0     C94815  -0.619   4.845   7.290  0.0369 -0.8813 -0.1926
  688MOL0     C94816  -0.739   4.769   7.243 -0.9659  0.3801 -0.7277
  688MOL0     C94817  -0.749   4.626   7.300  0.0353 -0.5765 -0.7840
  688MOL0     C94818  -0.882   4.549   7.273 -0.3085 -0.1844 -0.1549
  688MOL0     C94819  -0.903   4.407   7.350 -0.6903  0.2849 -0.0488
  688MOL0     C94820  -0.867   4.280   7.264 -0.8622  0.0294  0.1354
  688MOL0     C94821  -0.731   4.285   7.194 -0.3726  0.1878 -0.7947
  688MOL0     C94822  -0.683   4.138   7.156  0.0702  1.4180  0.9185
  688MOL0     N94823  -0.624   4.069   7.265 -0.1695 -0.7060 -0.7950
  688MOL0     C94824  -0.489   4.065   7.285  0.3920  0.5896 -0.6175
  688MOL0     C94825  -0.478   3.948   7.359 -0.4089  0.1279 -0.6344
  688MOL0     C94826  -0.355   3.891   7.413 -0.0091 -0.1152 -0.3538
  688MOL0     C94827  -0.320   3.975   7.536 -0.0427  0.0941 -0.5332
  688MOL0     C94828  -0.168   3.966   7.575 -0.3171  0.6005 -0.3372
  688MOL0     C94829  -0.087   4.046   7.465 -0.9632 -0.0686 -0.6809
  688MOL0     O94830   0.040   4.095   7.515 -0.8019  0.1329  0.0711
  688MOL0     C94831   0.048   4.186   7.619  1.2148  0.1347  0.4880
  688MOL0     C94832   0.173   4.227   7.664  0.1635  0.3996 -0.1916
  688MOL0     C94833   0.187   4.315   7.772 -0.2265 -1.2514 -0.2116
  688MOL0     C94834   0.318   4.313   7.841  0.2278 -0.6759  0.1591
  688MOL0     C94835   0.072   4.397   7.821  0.3466  0.1674  0.8400
  688MOL0     C94836   0.082   4.512   7.917 -0.3353  0.0053 -0.3997
  688MOL0     O94837   0.132   4.633   7.866 -0.1451 -0.2433  1.0868
  688MOL0     C94838   0.110   4.742   7.946  0.5362 -0.8376 -0.0939
  688MOL0     C94839   0.215   4.808   8.002  0.4311 -0.7561  0.1676
  688MOL0     C94840   0.196   4.923   8.079 -0.3723  0.1074  0.2287
  688MOL0     C94841   0.072   4.975   8.108 -0.8273  0.3730 -1.1948
  688MOL0     O94842   0.057   5.068   8.204  0.5239  0.5212 -0.1354
  688MOL0     C94843   0.070   5.201   8.154  0.9420  0.8219 -1.2845
  688MOL0     C94844   0.114   5.287   8.274  0.8066 -0.0270 -0.3075
  688MOL0     C94845  -0.001   5.298   8.383  0.2456  0.0721  0.1201
  688MOL0     C94846   0.009   5.423   8.476  0.0247 -0.5029  0.3318
  688MOL0     C94847  -0.083   5.402   8.601  0.0765  0.2520 -0.3061
  688MOL0     C94848  -0.239   5.380   8.596 -0.7752 -0.0914  0.3046
  688MOL0     C94849  -0.290   5.310   8.721 -0.0836  0.5372 -0.4265
  688MOL0     C94850  -0.448   5.335   8.744 -0.5321 -0.7637  0.8189
  688MOL0    Cl94851  -0.524   5.237   8.873 -0.2811 -0.1942 -0.0165
  688MOL0     C94852  -0.036   4.908   8.055  0.1374  0.0131 -0.0063
  688MOL0     C94853  -0.016   4.797   7.972  0.8691  0.4329 -1.5729
  688MOL0     O94854   0.026   4.502   8.020  0.6484  0.2382 -0.5892
  688MOL0     C94855  -0.053   4.356   7.770  0.1110  0.6482  0.2008
  688MOL0     C94856  -0.068   4.254   7.668  0.5205 -0.4914 -0.0787
  688MOL0     N94857  -0.601   3.895   7.389  0.4555 -0.7709 -0.0183
  688MOL0     N94858  -0.690   3.966   7.335 -0.1004 -0.1114 -0.0857
  688MOL0     C94859  -0.359   4.960   7.351  0.5691  0.3302 -0.6746
  688MOL0     C94860  -0.236   4.993   7.404  0.6112  0.0540  0.0744
  688MOL0     C94861   0.195   5.103   7.377  0.6540 -0.3952 -0.0225
  688MOL0     C94862   0.299   5.143   7.283  0.4897 -0.5180 -0.2094
  688MOL0     C94863   0.430   5.156   7.314  0.3224  0.6710  0.6879
  688MOL0     C94864   0.470   5.163   7.447 -0.0379  0.2403 -0.1063
  688MOL0     O94865   0.607   5.178   7.473 -0.8222  0.2434  0.2947
  688MOL0     C94866   0.648   5.199   7.611  0.2074 -0.1471 -0.4494
  688MOL0     C94867   0.799   5.195   7.629  0.8811 -0.0906  0.2157
  688MOL0     C94868   0.860   5.081   7.710 -1.4711  1.1741  0.6125
  688MOL0     C94869   1.006   5.111   7.755 -0.4363  0.0835 -0.5820
  688MOL0     C94870   1.003   5.223   7.851 -0.2350  0.2025  0.0355
  688MOL0     C94871   0.988   5.323   7.918  0.2169  0.3115 -0.2529
  688MOL0     C94872   0.367   5.147   7.538 -0.0470 -0.2095 -0.7771
  688MOL0     C94873   0.237   5.099   7.513 -0.3210  0.2716  0.8445
  688MOL0     C94874   0.147   5.052   7.623  0.3443 -0.2007 -1.0432
  688MOL0     H94875  -0.050   4.785   7.235  0.2402 -2.0468  1.9901
  688MOL0     H94876  -0.291   4.707   7.153 -1.1688 -0.9684  2.8578
  688MOL0     H94877  -0.628   4.950   7.260  2.6946 -0.7226 -0.7233
  688MOL0     H94878  -0.608   4.840   7.398 -0.3062  1.8600  0.0267
  688MOL0     H94879  -0.819   4.823   7.294 -2.0926 -3.5022  2.0800
  688MOL0     H94880  -0.762   4.778   7.136  1.4573 -1.5065 -1.4885
  688MOL0     H94881  -0.671   4.561   7.260 -0.4348 -1.3008 -0.5428
  688MOL0     H94882  -0.736   4.628   7.409  0.0421 -1.0553 -0.7753
  688MOL0     H94883  -0.958   4.621   7.304  0.9904 -0.2338  3.6386
  688MOL0     H94884  -0.900   4.522   7.169 -1.3551 -0.6655  0.1382
  688MOL0     H94885  -1.000   4.405   7.400  0.3143  1.0808  2.0634
  688MOL0     H94886  -0.824   4.402   7.426  1.2319  1.2006 -1.8834
  688MOL0     H94887  -0.864   4.205   7.343  0.2308  1.7793  1.8517
  688MOL0     H94888  -0.946   4.254   7.192 -1.2646  1.1636  0.1473
  688MOL0     H94889  -0.650   4.317   7.260  1.3702 -1.2202 -2.1679
  688MOL0     H94890  -0.741   4.355   7.110  0.5091  0.2752 -0.8305
  688MOL0     H94891  -0.764   4.072   7.123  0.5154 -0.9429  4.0319
  688MOL0     H94892  -0.610   4.151   7.076  0.0555 -0.0158  0.6522
  688MOL0     H94893  -0.408   4.132   7.257  0.1839  0.5943 -1.2128
  688MOL0     H94894  -0.284   3.904   7.331 -2.4894  1.6249 -2.4110
  688MOL0     H94895  -0.370   3.783   7.428  0.3379  0.0052  0.9402
  688MOL0     H94896  -0.342   4.082   7.525  1.8129  0.6775  0.8927
  688MOL0     H94897  -0.388   3.939   7.614 -0.2200 -2.6031 -1.8280
  688MOL0     H94898  -0.162   4.012   7.674 -2.4462 -0.0745  0.1612
  688MOL0     H94899  -0.134   3.862   7.573  1.3618  1.1091  0.1326
  688MOL0     H94900  -0.072   3.971   7.387 -2.5718 -1.2062  0.0555
  688MOL0     H94901  -0.141   4.130   7.419 -0.5714  0.1804 -0.6949
  688MOL0     H94902   0.259   4.180   7.617 -2.1470 -0.7890 -3.6454
  688MOL0     H94903   0.297   4.243   7.923 -0.3692 -1.9130 -1.0088
  688MOL0     H94904   0.336   4.417   7.868 -1.4526  0.1620 -1.6485
  688MOL0     H94905   0.398   4.276   7.777 -0.1926  1.7671 -1.9198
  688MOL0     H94906   0.320   4.785   7.985  0.2984  0.7990 -3.5553
  688MOL0     H94907   0.283   4.953   8.135 -0.5310  2.8074 -0.8258
  688MOL0     H94908   0.134   5.218   8.067 -0.5580  1.4334 -2.3152
  688MOL0     H94909  -0.026   5.240   8.120 -2.5761 -1.7500  4.2571
  688MOL0     H94910   0.206   5.246   8.316  1.4217  0.1876 -1.4102
  688MOL0     H94911   0.124   5.392   8.245 -0.5064  0.8438  2.1175
  688MOL0     H94912   0.007   5.201   8.435 -0.4085 -1.3800 -2.3264
  688MOL0     H94913  -0.102   5.289   8.341 -0.0220  0.3344  0.6957
  688MOL0     H94914  -0.026   5.509   8.419 -0.7837  0.3650  2.0697
  688MOL0     H94915   0.112   5.438   8.509  0.3579 -1.5180 -0.1866
  688MOL0     H94916  -0.043   5.306   8.634  0.7383  0.8889  0.7980
  688MOL0     H94917  -0.060   5.484   8.669  2.4272 -0.6900  0.1227
  688MOL0     H94918  -0.247   5.317   8.507  1.9293 -2.3022  1.4759
  688MOL0     H94919  -0.292   5.475   8.587  0.7426  0.7715  0.2600
  688MOL0     H94920  -0.228   5.318   8.811 -2.0839 -3.9760  1.7016
  688MOL0     H94921  -0.288   5.202   8.702  2.3873  0.0675  1.9564
  688MOL0     H94922  -0.493   5.324   8.645  1.2621 -0.7320 -0.0405
  688MOL0     H94923  -0.447   5.440   8.774  0.8970 -1.1016  2.0514
  688MOL0     H94924  -0.140   4.924   8.082  0.4344 -0.6345  1.6526
  688MOL0     H94925  -0.106   4.757   7.927  0.0944  2.2246 -1.6942
  688MOL0     H94926  -0.133   4.427   7.789 -0.5521 -0.2191  0.7475
  688MOL0     H94927  -0.164   4.239   7.618 -0.5459 -0.4620  1.8831
  688MOL0     H94928  -0.445   5.014   7.388 -0.7901 -3.4562  2.3135
  688MOL0     H94929  -0.239   5.076   7.475 -0.0651  4.0813 -4.1928
  688MOL0     H94930   0.262   5.175   7.186 -1.5855  2.2270  1.3318
  688MOL0     H94931   0.496   5.165   7.229  0.1659 -0.6712  0.3988
  688MOL0     H94932   0.609   5.298   7.639 -0.9959 -1.0137  1.0716
  688MOL0     H94933   0.604   5.131   7.683 -0.9435  2.0171  0.9919
  688MOL0     H94934   0.829   5.285   7.683  3.4689 -0.9576  0.3684
  688MOL0     H94935   0.839   5.187   7.527  1.1770 -2.1405  0.4321
  688MOL0     H94936   0.811   5.053   7.804  0.3846 -0.5259  1.1576
  688MOL0     H94937   0.854   4.987   7.654  0.2365  0.0828  2.1115
  688MOL0     H94938   1.073   5.121   7.669  1.1385 -0.3530  0.5663
  688MOL0     H94939   1.051   5.026   7.806  0.8030  1.1068  0.0696
  688MOL0     H94940   0.958   5.419   7.955 -2.4520 -0.5118 -0.0215
  688MOL0     H94941   0.393   5.172   7.641  0.4661  2.4676 -1.4711
  688MOL0     H94942   0.120   4.946   7.622 -2.3231  0.3949  0.4161
  688MOL0     H94943   0.210   5.074   7.710  1.0185 -0.1348 -1.5364
  688MOL0     H94944   0.052   5.106   7.631 -1.7549 -3.8663  2.8888
  689MOL0     O94945   3.464   6.847   4.711  0.1835  0.3953  0.1221
  689MOL0     C94946   3.514   6.855   4.601 -0.7326 -0.3493  0.1261
  689MOL0     O94947   3.647   6.865   4.571 -1.1931  0.6570  0.3112
  689MOL0     C94948   3.731   6.854   4.676  0.4042  0.7883 -0.4449
  689MOL0     C94949   3.740   6.737   4.758 -0.0100 -1.8000  0.2465
  689MOL0     C94950   3.844   6.731   4.858  0.1537 -0.0046  0.7340
  689MOL0     C94951   3.922   6.844   4.885 -1.6952 -0.6948  0.2693
  689MOL0     O94952   4.005   6.834   4.995 -1.2191  0.1995 -0.4603
  689MOL0     C94953   4.100   6.731   4.982  0.9123  0.5277  0.3101
  689MOL0     C94954   4.241   6.758   5.023  0.3187 -0.6352 -1.0463
  689MOL0     C94955   4.273   6.764   5.173 -0.1617 -0.5931 -0.4421
  689MOL0     C94956   4.158   6.727   5.271  0.7441  0.1871 -0.2122
  689MOL0     C94957   4.210   6.753   5.421  0.5573 -0.0575  0.5901
  689MOL0     C94958   4.087   6.743   5.526  0.1838  1.2989  0.7278
  689MOL0     C94959   4.140   6.776   5.660  0.1095 -0.4169 -0.2754
  689MOL0     C94960   4.040   6.747   5.781  0.2424 -0.0369  1.0940
  689MOL0     N94961   3.971   6.864   5.842 -1.1697  0.6342  1.1016
  689MOL0     C94962   3.843   6.898   5.828 -0.2213  0.4667 -1.5169
  689MOL0     C94963   3.817   6.992   5.916 -0.3875 -0.6418 -0.0694
  689MOL0     C94964   3.692   7.076   5.912 -0.4785  0.3071 -0.2074
  689MOL0     C94965   3.717   7.201   5.827 -0.2899  0.4383 -0.8099
  689MOL0     C94966   3.723   7.172   5.683  0.2766  1.0969 -0.1196
  689MOL0     C94967   3.732   7.291   5.582 -0.1731 -0.0348  0.2018
  689MOL0     O94968   3.630   7.393   5.613 -0.4465  0.4195  0.5037
  689MOL0     C94969   3.643   7.505   5.532  0.8766  0.6236 -0.3416
  689MOL0     C94970   3.690   7.524   5.404  0.0720  0.3538 -0.8393
  689MOL0     C94971   3.679   7.648   5.333  0.0441 -1.0155  0.3345
  689MOL0     C94972   3.738   7.651   5.189 -0.3786 -0.2316 -0.7403
  689MOL0     C94973   3.610   7.759   5.396 -0.0317  0.4000 -0.0348
  689MOL0     C94974   3.579   7.896   5.344 -0.0117  0.1282 -0.0225
  689MOL0     O94975   3.540   7.990   5.432  0.7757  0.0238  0.6728
  689MOL0     C94976   3.528   8.127   5.410  0.2781 -0.3492 -0.0850
  689MOL0     C94977   3.459   8.197   5.510 -0.5948 -0.8619  0.3256
  689MOL0     C94978   3.445   8.341   5.492 -0.8517 -0.0706  0.1869
  689MOL0     C94979   3.508   8.408   5.384 -0.5685  0.0435 -1.0496
  689MOL0     O94980   3.513   8.537   5.359 -0.1670 -0.3593 -0.1812
  689MOL0     C94981   3.447   8.619   5.458  0.7501 -0.9037  0.8950
  689MOL0     C94982   3.450   8.765   5.399  0.0351  0.3288  0.3594
  689MOL0     C94983   3.412   8.776   5.250 -0.5068 -0.0853 -0.2234
  689MOL0     C94984   3.413   8.919   5.192  0.9154  0.4385  0.1632
  689MOL0     C94985   3.399   8.934   5.042 -0.9076 -0.1152  0.1589
  689MOL0     C94986   3.287   8.870   4.981  1.2552  0.3606  0.6609
  689MOL0     C94987   3.268   8.912   4.825 -0.8046  0.0639 -1.0731
  689MOL0     C94988   3.166   8.830   4.749  0.2543  0.1421 -0.3447
  689MOL0    Cl94989   3.216   8.659   4.735 -0.1317  0.0885 -0.3141
  689MOL0     C94990   3.569   8.329   5.296 -0.1860  0.8203 -0.1924
  689MOL0     C94991   3.584   8.194   5.306  0.4634  0.2745 -0.7193
  689MOL0     O94992   3.588   7.909   5.224  0.3095  1.3007 -0.1775
  689MOL0     C94993   3.558   7.734   5.532 -0.7240  0.0283  0.3888
  689MOL0     C94994   3.574   7.612   5.595 -0.6405  0.9372  0.7224
  689MOL0     N94995   3.924   7.014   5.994  0.6617 -0.4712 -0.4538
  689MOL0     N94996   4.015   6.940   5.946 -0.3475  0.8819  0.0498
  689MOL0     C94997   3.912   6.961   4.812  1.1171 -0.1802  1.4656
  689MOL0     C94998   3.815   6.969   4.713  0.0734 -0.3776  0.3000
  689MOL0     C94999   3.419   6.855   4.492  0.5176  0.3368 -0.8152
  689MOL0     C95000   3.310   6.763   4.501  0.8346 -0.2564  0.5041
  689MOL0     C95001   3.230   6.737   4.395  0.3220  0.2093 -0.0660
  689MOL0     C95002   3.252   6.807   4.272  0.1172 -0.8531 -0.9997
  689MOL0     O95003   3.184   6.790   4.160 -0.7235  0.2809  0.7815
  689MOL0     C95004   3.250   6.710   4.068 -0.0287 -0.1801 -0.1947
  689MOL0     C95005   3.189   6.567   4.060  0.3004  0.0908 -0.0151
  689MOL0     C95006   3.274   6.473   4.151  0.9666 -0.8583 -0.2892
  689MOL0     C95007   3.247   6.323   4.106 -1.0471  0.8722 -0.5109
  689MOL0     C95008   3.312   6.241   4.212 -0.5849  0.3109 -0.1868
  689MOL0     C95009   3.375   6.169   4.287 -0.2398 -0.1793 -0.4091
  689MOL0     C95010   3.353   6.912   4.268  0.2573 -0.5442  0.2208
  689MOL0     C95011   3.433   6.936   4.380  0.2855  0.3760 -1.0366
  689MOL0     C95012   3.548   7.036   4.357 -0.1283  0.5477 -0.1227
  689MOL0     H95013   3.689   6.645   4.733  1.0886 -1.4858 -3.9233
  689MOL0     H95014   3.859   6.657   4.936 -2.8126  1.9457  3.3817
  689MOL0     H95015   4.121   6.700   4.879 -0.1769 -0.2024  0.2904
  689MOL0     H95016   4.054   6.645   5.031 -0.3101  1.8575  1.6002
  689MOL0     H95017   4.306   6.679   4.983  0.2551 -1.9141  1.1825
  689MOL0     H95018   4.259   6.855   4.976 -1.9646  0.4328  0.1405
  689MOL0     H95019   4.359   6.698   5.189  0.0226 -0.2619 -0.0521
  689MOL0     H95020   4.306   6.864   5.199  0.1487  0.0406 -2.9898
  689MOL0     H95021   4.075   6.792   5.241  2.2694  1.7952 -1.1174
  689MOL0     H95022   4.126   6.623   5.259 -1.3257  0.6490  0.7610
  689MOL0     H95023   4.242   6.857   5.433 -2.8632  0.9239  2.3849
  689MOL0     H95024   4.292   6.684   5.442 -1.8024 -2.6397  1.8307
  689MOL0     H95025   4.007   6.808   5.491  0.4993  1.2298 -0.1382
  689MOL0     H95026   4.048   6.640   5.528 -1.3268  1.7435  4.6712
  689MOL0     H95027   4.177   6.878   5.669  1.3968 -0.9348  0.5866
  689MOL0     H95028   4.227   6.711   5.676  0.1167 -1.7647 -4.5306
  689MOL0     H95029   3.970   6.666   5.757  0.5566 -0.6652  2.1933
  689MOL0     H95030   4.100   6.699   5.859  2.5542  0.7175 -0.1262
  689MOL0     H95031   3.781   6.846   5.755 -3.2831  1.3507  0.2714
  689MOL0     H95032   3.669   7.110   6.014 -1.2268  1.6793 -0.8009
  689MOL0     H95033   3.613   7.014   5.868 -1.0990 -0.2655  1.6285
  689MOL0     H95034   3.645   7.282   5.842  2.6412  2.8947  1.4942
  689MOL0     H95035   3.814   7.245   5.854 -0.0659  0.0999 -1.0634
  689MOL0     H95036   3.814   7.112   5.673 -0.6057 -1.9131  5.4800
  689MOL0     H95037   3.639   7.109   5.650 -1.1537  2.3116  1.0521
  689MOL0     H95038   3.831   7.338   5.584  0.3418 -0.4073 -4.4345
  689MOL0     H95039   3.718   7.256   5.479 -3.4781 -0.3434  0.6475
  689MOL0     H95040   3.740   7.437   5.363  3.4358  0.9965  1.4986
  689MOL0     H95041   3.826   7.716   5.196 -1.7224  1.4721  2.9847
  689MOL0     H95042   3.663   7.706   5.131  0.7749  1.6764 -0.5223
  689MOL0     H95043   3.760   7.549   5.159  0.6245 -1.2208  2.8870
  689MOL0     H95044   3.405   8.148   5.591  0.8427  0.1802  1.9988
  689MOL0     H95045   3.387   8.383   5.573  0.0647 -1.0634  1.3808
  689MOL0     H95046   3.346   8.583   5.481  1.2227 -1.4961  2.1607
  689MOL0     H95047   3.513   8.626   5.546  3.1592 -3.1453 -0.5747
  689MOL0     H95048   3.376   8.825   5.453 -0.5453  3.0384 -3.0264
  689MOL0     H95049   3.549   8.807   5.420  0.6007 -1.1566  0.7780
  689MOL0     H95050   3.309   8.744   5.232 -1.3610  2.1018  0.4436
  689MOL0     H95051   3.472   8.711   5.187  0.4159 -1.5270  2.0178
  689MOL0     H95052   3.512   8.951   5.226  1.0400 -0.6878  0.9522
  689MOL0     H95053   3.335   8.972   5.247  1.2362 -0.5770  1.6658
  689MOL0     H95054   3.396   9.042   5.025  1.6225  0.2597  1.6000
  689MOL0     H95055   3.487   8.896   4.990 -1.8223 -4.0403  1.2089
  689MOL0     H95056   3.197   8.899   5.036  0.4981  1.0756 -0.8935
  689MOL0     H95057   3.303   8.762   4.982  1.3117  0.2456 -2.5365
  689MOL0     H95058   3.369   8.897   4.786  1.6927  0.6140  4.2908
  689MOL0     H95059   3.243   9.018   4.833 -2.3149 -0.2290 -1.5680
  689MOL0     H95060   3.134   8.876   4.655 -3.9326  0.7664  1.1600
  689MOL0     H95061   3.071   8.822   4.803 -1.5814  0.8383 -3.2624
  689MOL0     H95062   3.617   8.382   5.215 -1.3124  1.5779 -0.3859
  689MOL0     H95063   3.641   8.148   5.226 -0.2208  0.8004 -1.5200
  689MOL0     H95064   3.496   7.801   5.590 -1.6913  0.9993 -1.6728
  689MOL0     H95065   3.535   7.586   5.693  1.3766 -1.1891  1.0534
  689MOL0     H95066   3.956   7.056   4.842  2.5184 -0.6303  0.9061
  689MOL0     H95067   3.794   7.061   4.658  1.7622 -0.1218  0.0088
  689MOL0     H95068   3.296   6.709   4.594  0.4260  1.9250  1.7688
  689MOL0     H95069   3.155   6.659   4.407  0.1945  0.2356 -0.6553
  689MOL0     H95070   3.228   6.770   3.979  1.6264  1.6834  0.5757
  689MOL0     H95071   3.358   6.704   4.080  0.0905 -1.1510 -1.4860
  689MOL0     H95072   3.205   6.528   3.959  0.7350  1.5236 -0.5218
  689MOL0     H95073   3.080   6.572   4.063  0.2580 -0.7788  2.8692
  689MOL0     H95074   3.382   6.487   4.145  0.8149 -0.1963 -2.9858
  689MOL0     H95075   3.238   6.500   4.251  1.4596  1.7804 -0.7300
  689MOL0     H95076   3.292   6.299   4.009 -2.5308  1.4741 -1.3801
  689MOL0     H95077   3.141   6.299   4.100 -1.0899  0.8015  0.3977
  689MOL0     H95078   3.448   6.130   4.354 -1.5640  1.4347  2.1390
  689MOL0     H95079   3.355   6.976   4.180 -1.5218  1.6673  1.6987
  689MOL0     H95080   3.539   7.116   4.283  0.0356 -1.2192 -2.1422
  689MOL0     H95081   3.566   7.100   4.443 -0.5268  2.1875 -1.2195
  689MOL0     H95082   3.639   6.982   4.328 -0.2916  0.9243 -1.4110
  690MOL0     O95083   1.049   5.360   2.814  0.2291  0.2037  0.0977
  690MOL0     C95084   0.951   5.411   2.770  0.0237 -0.2429  0.0517
  690MOL0     O95085   0.942   5.553   2.760 -0.0689  0.4837 -0.3639
  690MOL0     C95086   1.044   5.627   2.812 -1.1282 -0.4592  0.6883
  690MOL0     C95087   1.104   5.615   2.938 -0.6487  0.0154 -0.2480
  690MOL0     C95088   1.187   5.709   2.995  0.6844 -0.1794 -0.9536
  690MOL0     C95089   1.195   5.829   2.929 -0.9876 -1.1494  0.0136
  690MOL0     O95090   1.254   5.942   2.981 -0.1447  0.1175  0.1406
  690MOL0     C95091   1.347   5.932   3.083  0.6127 -0.1639 -0.3230
  690MOL0     C95092   1.388   6.070   3.132 -0.7386 -0.4914 -0.2921
  690MOL0     C95093   1.460   6.143   3.018 -0.0742  0.2550  0.8778
  690MOL0     C95094   1.502   6.278   3.074 -0.4461 -0.0998 -0.1250
  690MOL0     C95095   1.546   6.372   2.959 -0.0658  0.1584  0.2595
  690MOL0     C95096   1.584   6.507   3.015  0.9603 -0.4497 -0.2302
  690MOL0     C95097   1.569   6.622   2.922 -0.5666 -0.8527  0.5739
  690MOL0     C95098   1.697   6.627   2.828  0.4917 -0.2626 -0.3688
  690MOL0     N95099   1.687   6.731   2.732 -0.2496 -1.3752 -0.3028
  690MOL0     C95100   1.607   6.716   2.619 -0.4029  0.3845  0.2822
  690MOL0     C95101   1.597   6.836   2.559  0.2720  1.0704 -0.2197
  690MOL0     C95102   1.517   6.865   2.432 -0.9778  1.0815  0.2488
  690MOL0     C95103   1.612   6.843   2.310 -0.3204 -0.9965  0.3549
  690MOL0     C95104   1.549   6.886   2.174 -0.1123  0.4129  0.0331
  690MOL0     C95105   1.640   6.875   2.059  0.1845 -0.5549 -0.2042
  690MOL0     O95106   1.736   6.993   2.086 -0.3289  0.5134  0.6671
  690MOL0     C95107   1.811   7.013   1.975  0.6252 -0.2411 -0.8221
  690MOL0     C95108   1.753   7.052   1.856  0.1072  0.9085 -0.9635
  690MOL0     C95109   1.834   7.074   1.743  0.0173 -0.5154  0.5664
  690MOL0     C95110   1.772   7.152   1.632  0.4799 -0.5630 -0.4996
  690MOL0     C95111   1.978   7.034   1.751  0.2618 -0.8866 -0.5729
  690MOL0     C95112   2.072   7.014   1.626  0.5155  0.3549 -0.6408
  690MOL0     O95113   2.037   7.088   1.516  0.5223 -0.8136 -0.1943
  690MOL0     C95114   2.122   7.093   1.410  0.1764  0.6125 -0.8154
  690MOL0     C95115   2.203   6.989   1.365 -0.2740 -0.0614  0.0199
  690MOL0     C95116   2.287   6.999   1.255 -0.4656  0.0943 -0.4088
  690MOL0     C95117   2.300   7.119   1.183  0.0265  0.7676 -0.0270
  690MOL0     O95118   2.389   7.126   1.072  0.5581  0.3038  0.2973
  690MOL0     C95119   2.442   7.252   1.039  0.9394 -0.0195 -0.4175
  690MOL0     C95120   2.585   7.250   0.995 -0.8140  0.5841  0.6844
  690MOL0     C95121   2.613   7.153   0.884  0.4295  0.2739  0.7618
  690MOL0     C95122   2.579   7.223   0.749  0.6336 -0.3919 -0.7506
  690MOL0     C95123   2.578   7.123   0.639  0.7060  0.4071 -1.0779
  690MOL0     C95124   2.720   7.064   0.606  0.3955  0.6905 -0.0566
  690MOL0     C95125   2.731   6.917   0.550  0.5309 -0.4089 -0.2025
  690MOL0     C95126   2.604   6.834   0.580 -0.3337 -0.2298  0.3398
  690MOL0    Cl95127   2.570   6.809   0.756  0.4317  0.5200  0.2846
  690MOL0     C95128   2.219   7.226   1.230  0.5339  0.2702  0.9440
  690MOL0     C95129   2.125   7.208   1.335  1.0193  0.4735  0.7570
  690MOL0     O95130   2.167   6.933   1.639  0.3593 -0.5073  0.1274
  690MOL0     C95131   2.026   6.985   1.879 -0.0084  1.0598 -0.3504
  690MOL0     C95132   1.940   6.979   1.987 -0.6393 -0.1778  0.0181
  690MOL0     N95133   1.668   6.928   2.639  1.0395  0.0140 -0.0469
  690MOL0     N95134   1.698   6.866   2.752  0.3244  0.4906  0.0253
  690MOL0     C95135   1.138   5.854   2.806  1.1074 -0.3398 -0.3863
  690MOL0     C95136   1.064   5.754   2.747 -0.3003  0.5673 -0.3824
  690MOL0     C95137   0.834   5.333   2.723 -0.8679 -0.5500  0.5124
  690MOL0     C95138   0.725   5.405   2.673  0.4891 -0.4223  0.4206
  690MOL0     C95139   0.612   5.343   2.618 -0.1140  0.7328 -1.1058
  690MOL0     C95140   0.598   5.208   2.617 -0.5147  1.3334 -1.1581
  690MOL0     O95141   0.489   5.157   2.548  0.3922  0.3343 -0.0565
  690MOL0     C95142   0.497   5.008   2.529  0.0618  0.2287 -0.4298
  690MOL0     C95143   0.377   4.949   2.467  0.9476  0.4142  0.2152
  690MOL0     C95144   0.369   4.996   2.316 -0.5008  0.6890 -0.1006
  690MOL0     C95145   0.232   5.058   2.293 -0.5850  0.6457 -0.5803
  690MOL0     C95146   0.123   4.957   2.271 -0.0988  0.2047 -0.2930
  690MOL0     C95147   0.036   4.874   2.264  0.5878 -0.1362 -0.6140
  690MOL0     C95148   0.697   5.134   2.685  0.0136  0.6680 -0.1898
  690MOL0     C95149   0.817   5.194   2.741 -0.1613  0.2304  0.3692
  690MOL0     C95150   0.926   5.102   2.804  0.6035 -0.9369  0.0949
  690MOL0     H95151   1.094   5.521   2.991  1.7014 -1.4972 -2.2989
  690MOL0     H95152   1.231   5.682   3.090 -2.6370 -4.8976 -0.4464
  690MOL0     H95153   1.431   5.866   3.059  0.6677 -0.9942  1.9028
  690MOL0     H95154   1.285   5.892   3.165 -3.5541 -2.1327 -3.9934
  690MOL0     H95155   1.290   6.114   3.155 -1.1902 -0.7331 -1.6171
  690MOL0     H95156   1.462   6.065   3.211 -0.5703  4.4726  0.1618
  690MOL0     H95157   1.548   6.091   2.979  0.8398  2.2970  0.0681
  690MOL0     H95158   1.392   6.152   2.933  1.6752 -2.5657 -0.9940
  690MOL0     H95159   1.423   6.318   3.138 -3.4890 -4.7329 -0.4911
  690MOL0     H95160   1.595   6.276   3.132 -0.0682  0.1491 -0.7166
  690MOL0     H95161   1.457   6.386   2.897 -1.6328  1.7659  2.7194
  690MOL0     H95162   1.629   6.324   2.905 -1.5306 -2.1350 -0.1100
  690MOL0     H95163   1.514   6.527   3.097 -0.8368 -4.2543 -0.6208
  690MOL0     H95164   1.676   6.498   3.074 -0.2919 -2.4340  1.5852
  690MOL0     H95165   1.553   6.714   2.980 -0.9325 -0.5323 -0.0280
  690MOL0     H95166   1.486   6.615   2.851  1.0458 -0.4025 -1.4407
  690MOL0     H95167   1.780   6.661   2.889 -2.1007 -1.0094  3.9984
  690MOL0     H95168   1.718   6.532   2.777  1.2678 -1.3862  1.9425
  690MOL0     H95169   1.576   6.615   2.593  3.3517 -0.5408 -1.3076
  690MOL0     H95170   1.473   6.965   2.446 -1.5539  0.6295  1.8736
  690MOL0     H95171   1.431   6.798   2.423  0.5836 -1.0121  0.5092
  690MOL0     H95172   1.704   6.901   2.314 -1.1016  0.3352 -0.3089
  690MOL0     H95173   1.633   6.736   2.300 -0.8382 -1.6223  4.3912
  690MOL0     H95174   1.459   6.827   2.156 -1.7650  2.3837  1.2730
  690MOL0     H95175   1.528   6.994   2.176 -0.8979  0.2855  2.7359
  690MOL0     H95176   1.693   6.780   2.073 -0.5956 -1.2355 -1.5797
  690MOL0     H95177   1.587   6.882   1.963 -0.8437 -2.6130  0.1496
  690MOL0     H95178   1.647   7.072   1.852 -0.6819 -0.7277  4.0127
  690MOL0     H95179   1.679   7.196   1.669  0.4066  1.6440 -3.0058
  690MOL0     H95180   1.745   7.077   1.557  3.0169 -1.7691 -0.3474
  690MOL0     H95181   1.830   7.236   1.593  0.2922  0.5910  1.5716
  690MOL0     H95182   2.205   6.887   1.403  0.7911 -0.8703 -2.0539
  690MOL0     H95183   2.356   6.920   1.228 -0.1919 -0.3691  1.5461
  690MOL0     H95184   2.380   7.298   0.961  1.5489 -0.0250 -0.9144
  690MOL0     H95185   2.432   7.309   1.132 -1.8711 -0.1517 -0.5335
  690MOL0     H95186   2.620   7.353   0.983  0.5477  0.1853  1.0378
  690MOL0     H95187   2.634   7.205   1.082 -1.1725 -1.1997  0.0167
  690MOL0     H95188   2.567   7.056   0.901  2.3088 -0.2579  3.5248
  690MOL0     H95189   2.713   7.111   0.874  0.3743  0.6552 -2.8695
  690MOL0     H95190   2.662   7.289   0.721  1.1429 -1.8882 -3.0993
  690MOL0     H95191   2.486   7.281   0.748  2.1142  2.1561 -0.0408
  690MOL0     H95192   2.501   7.049   0.663  0.5496  0.5972 -0.9867
  690MOL0     H95193   2.543   7.173   0.548  1.3946 -1.7087 -2.5807
  690MOL0     H95194   2.781   7.073   0.696 -0.2714 -2.2129  0.7866
  690MOL0     H95195   2.755   7.136   0.532 -1.3959  1.1439 -0.5258
  690MOL0     H95196   2.816   6.870   0.601 -0.1349 -1.8106 -0.3444
  690MOL0     H95197   2.748   6.920   0.442 -2.6545 -0.6361 -0.8211
  690MOL0     H95198   2.624   6.735   0.537  0.7390 -0.0426  0.3598
  690MOL0     H95199   2.513   6.863   0.528 -1.2469 -1.0118  1.4618
  690MOL0     H95200   2.228   7.311   1.163 -2.3188 -1.2858 -1.6580
  690MOL0     H95201   2.061   7.294   1.354  0.1431  0.9264 -3.3016
  690MOL0     H95202   2.125   6.946   1.901  0.0150  2.2945  2.1214
  690MOL0     H95203   1.972   6.953   2.087 -0.2233  1.1065  0.2342
  690MOL0     H95204   1.150   5.954   2.765  1.9030 -0.6092 -0.8294
  690MOL0     H95205   1.010   5.769   2.654  0.3222 -0.6594 -0.9679
  690MOL0     H95206   0.739   5.513   2.665  1.4221 -0.4354  1.5660
  690MOL0     H95207   0.528   5.402   2.583  0.6804  2.7183  0.2225
  690MOL0     H95208   0.589   4.985   2.474 -0.0018  2.8242 -1.7790
  690MOL0     H95209   0.508   4.968   2.630  1.5941  1.4779 -0.0554
  690MOL0     H95210   0.291   4.980   2.528 -0.5577  1.9805 -2.5037
  690MOL0     H95211   0.388   4.841   2.467  2.8590  0.5693  0.8928
  690MOL0     H95212   0.450   5.064   2.288 -0.3834  0.3774 -0.5149
  690MOL0     H95213   0.380   4.913   2.247 -0.8284 -1.0047  1.7818
  690MOL0     H95214   0.244   5.113   2.200 -1.7452 -0.4846 -1.4228
  690MOL0     H95215   0.203   5.132   2.369  0.2448  1.6552 -1.2206
  690MOL0     H95216  -0.036   4.796   2.254  0.7315 -0.1808 -1.3604
  690MOL0     H95217   0.691   5.030   2.716 -1.1467  1.3518  2.0982
  690MOL0     H95218   0.880   5.003   2.797  0.1041 -0.6830 -0.2467
  690MOL0     H95219   1.015   5.094   2.740 -0.9138  0.3592 -2.3123
  690MOL0     H95220   0.956   5.126   2.907 -1.9853 -3.2620  1.5249
  691MOL0     O95221   1.094   2.289   2.722 -0.3318  0.5527  0.6485
  691MOL0     C95222   1.047   2.276   2.599 -0.8523 -0.5657 -0.9946
  691MOL0     O95223   0.915   2.251   2.571 -0.0850  0.6830  0.1929
  691MOL0     C95224   0.830   2.300   2.664 -0.1244  0.1991 -0.9069
  691MOL0     C95225   0.792   2.221   2.771  0.1824 -0.8169 -0.6503
  691MOL0     C95226   0.714   2.275   2.871  0.7647  0.2687 -0.8292
  691MOL0     C95227   0.674   2.410   2.874  0.7308  0.1568  0.3207
  691MOL0     O95228   0.608   2.455   2.985 -0.4872 -0.2469  0.0770
  691MOL0     C95229   0.571   2.592   2.999  0.2046 -0.0175  0.2436
  691MOL0     C95230   0.529   2.620   3.141  0.1167  0.2764  0.2370
  691MOL0     C95231   0.644   2.619   3.250  0.1694  0.0954 -1.2074
  691MOL0     C95232   0.586   2.669   3.383 -0.2123 -0.5830 -0.6638
  691MOL0     C95233   0.550   2.817   3.392  0.4834 -0.0970  0.1099
  691MOL0     C95234   0.486   2.843   3.520  0.7158  0.7602 -0.0958
  691MOL0     C95235   0.338   2.816   3.519  0.1666  0.7616 -0.0747
  691MOL0     C95236   0.286   2.841   3.659 -0.8887  0.1317 -0.8566
  691MOL0     N95237   0.143   2.805   3.673  0.2537  0.9476  0.5119
  691MOL0     C95238   0.093   2.679   3.688 -0.2767 -0.3212 -0.6806
  691MOL0     C95239  -0.038   2.671   3.681 -0.5993 -0.1252  0.2557
  691MOL0     C95240  -0.130   2.555   3.695 -0.1678 -0.1412 -0.6034
  691MOL0     C95241  -0.084   2.470   3.814 -0.2184  0.8793  0.4230
  691MOL0     C95242  -0.163   2.340   3.812  0.4128 -0.7929 -0.7842
  691MOL0     C95243  -0.120   2.248   3.924 -0.1070  1.3589 -0.0706
  691MOL0     O95244   0.010   2.203   3.917  0.5650  0.3300 -0.2849
  691MOL0     C95245   0.051   2.116   4.020 -0.0597 -0.7390  0.3185
  691MOL0     C95246  -0.030   2.048   4.106  0.2391 -0.0989  0.1218
  691MOL0     C95247   0.023   1.962   4.197 -0.7785  0.4581 -0.4327
  691MOL0     C95248  -0.081   1.898   4.304  0.5253 -0.4717  1.0827
  691MOL0     C95249   0.160   1.936   4.213 -0.1625  0.1576  0.6290
  691MOL0     C95250   0.227   1.850   4.315  0.3815 -0.0654  1.0307
  691MOL0     O95251   0.158   1.779   4.400  0.3050  0.5111 -0.0290
  691MOL0     C95252   0.205   1.757   4.534  0.5752 -0.2502  0.6135
  691MOL0     C95253   0.145   1.645   4.603 -0.0512  0.3639 -0.1429
  691MOL0     C95254   0.211   1.606   4.728 -0.6120  0.1911 -0.9434
  691MOL0     C95255   0.322   1.669   4.775  0.5333 -0.8027 -0.1666
  691MOL0     O95256   0.376   1.632   4.898  0.3483  0.5805  0.5548
  691MOL0     C95257   0.381   1.743   4.989 -0.3532  0.3928 -0.2852
  691MOL0     C95258   0.526   1.780   5.027  0.3064 -0.3303  0.1817
  691MOL0     C95259   0.617   1.659   5.084 -1.2406 -0.3267 -0.1871
  691MOL0     C95260   0.566   1.604   5.218  0.2883  0.3692 -1.3939
  691MOL0     C95261   0.681   1.546   5.311  0.4290  0.0055 -0.1889
  691MOL0     C95262   0.735   1.417   5.263  0.1167 -0.1491 -0.1365
  691MOL0     C95263   0.834   1.354   5.372 -0.2760 -0.2771 -0.3337
  691MOL0     C95264   0.956   1.302   5.297 -0.2173 -0.2628  0.1032
  691MOL0    Cl95265   1.090   1.289   5.429  0.3209 -0.4301  0.4954
  691MOL0     C95266   0.379   1.772   4.708  0.5670 -0.1430  0.2219
  691MOL0     C95267   0.326   1.811   4.590  0.2669  0.0554  0.5182
  691MOL0     O95268   0.351   1.834   4.293  0.0839 -0.2704 -0.5542
  691MOL0     C95269   0.240   1.999   4.111 -0.3659  0.2384  0.9840
  691MOL0     C95270   0.189   2.085   4.019 -1.1424 -0.0967 -0.7992
  691MOL0     N95271  -0.064   2.806   3.640 -0.0385 -0.4378  0.7118
  691MOL0     N95272   0.040   2.883   3.652 -0.0077 -0.1067  1.5453
  691MOL0     C95273   0.701   2.491   2.763 -0.2725 -0.4290  0.0604
  691MOL0     C95274   0.785   2.433   2.662  0.0808 -0.5898 -0.1387
  691MOL0     C95275   1.131   2.285   2.484  0.3647  0.4467 -0.0357
  691MOL0     C95276   1.079   2.225   2.359  1.1827 -0.6387 -0.8683
  691MOL0     C95277   1.144   2.214   2.243 -0.1830  0.0804  0.0013
  691MOL0     C95278   1.279   2.261   2.235  0.9367  0.5384 -0.2455
  691MOL0     O95279   1.363   2.263   2.127  0.1530  0.2755  0.3846
  691MOL0     C95280   1.305   2.213   2.003  0.1929 -0.0093  0.9788
  691MOL0     C95281   1.323   2.062   1.983  0.4329  0.4280  0.1363
  691MOL0     C95282   1.280   1.993   1.842 -0.2293 -0.7197 -0.4315
  691MOL0     C95283   1.144   2.023   1.816 -0.4414 -1.0075 -0.1525
  691MOL0     C95284   1.087   1.967   1.688 -0.1696 -0.9580  0.1165
  691MOL0     C95285   1.045   1.915   1.588  0.2534 -0.8738 -0.3278
  691MOL0     C95286   1.323   2.317   2.349 -0.4342  0.4099 -0.1865
  691MOL0     C95287   1.264   2.332   2.476 -0.0025  0.0197 -0.4857
  691MOL0     C95288   1.321   2.403   2.590  0.0307 -1.0206 -1.0209
  691MOL0     H95289   0.831   2.120   2.776  2.9190  0.2245  2.0659
  691MOL0     H95290   0.693   2.211   2.956  1.2283  0.0554 -0.8717
  691MOL0     H95291   0.485   2.607   2.934  0.6932 -0.8084 -0.6144
  691MOL0     H95292   0.643   2.667   2.966 -0.1314  0.4728  0.5995
  691MOL0     H95293   0.470   2.713   3.144 -3.6824 -1.8474 -1.3841
  691MOL0     H95294   0.450   2.551   3.173  0.6480  1.1903  4.0515
  691MOL0     H95295   0.685   2.518   3.256 -1.2344 -0.5888 -2.3492
  691MOL0     H95296   0.731   2.678   3.219  0.8351  0.8797  1.8341
  691MOL0     H95297   0.497   2.607   3.394 -1.3451  0.7299 -2.0031
  691MOL0     H95298   0.666   2.642   3.453 -1.3636 -4.3845 -0.5978
  691MOL0     H95299   0.491   2.845   3.305 -0.7441 -1.3473  0.5096
  691MOL0     H95300   0.638   2.883   3.388 -0.4494  1.1227 -2.2022
  691MOL0     H95301   0.532   2.782   3.600 -0.3683  1.5661  1.1814
  691MOL0     H95302   0.495   2.951   3.532 -0.2170  0.9819 -1.2830
  691MOL0     H95303   0.317   2.711   3.496 -1.6191  1.2635 -0.8781
  691MOL0     H95304   0.278   2.877   3.451 -3.5041 -0.1613  2.1016
  691MOL0     H95305   0.347   2.782   3.728 -3.2921 -1.7842 -0.1963
  691MOL0     H95306   0.293   2.950   3.671  2.8281 -0.0577 -0.0976
  691MOL0     H95307   0.168   2.606   3.715 -0.1207 -0.0107 -0.2681
  691MOL0     H95308  -0.135   2.497   3.603 -1.7084  1.3493 -1.5196
  691MOL0     H95309  -0.227   2.604   3.702  1.2878  2.9159  0.4140
  691MOL0     H95310   0.024   2.450   3.820 -0.2653  0.5296  0.1674
  691MOL0     H95311  -0.115   2.529   3.900 -2.0556  5.0106 -2.6987
  691MOL0     H95312  -0.266   2.374   3.825  1.1366  1.8089 -1.3628
  691MOL0     H95313  -0.150   2.284   3.719  1.1743  1.3222 -2.0128
  691MOL0     H95314  -0.127   2.302   4.019 -1.2109 -2.6942  2.4369
  691MOL0     H95315  -0.179   2.156   3.924  1.4617  0.3038 -1.2604
  691MOL0     H95316  -0.138   2.059   4.097  0.4265  0.4594 -2.0520
  691MOL0     H95317  -0.063   1.942   4.402  1.1169 -1.5594  1.4771
  691MOL0     H95318  -0.064   1.792   4.324 -0.1397 -1.1971 -1.7011
  691MOL0     H95319  -0.184   1.904   4.267  1.4468  2.3748 -1.4014
  691MOL0     H95320   0.052   1.599   4.571 -0.3293  0.4543  0.5135
  691MOL0     H95321   0.179   1.518   4.783 -0.2338  0.6588  0.0363
  691MOL0     H95322   0.319   1.827   4.958 -1.5070 -0.7646 -1.2227
  691MOL0     H95323   0.338   1.704   5.082 -0.6683  0.6091 -0.3387
  691MOL0     H95324   0.574   1.831   4.943 -3.1442 -0.1789 -1.8941
  691MOL0     H95325   0.523   1.865   5.095 -1.0554 -1.0617  1.0843
  691MOL0     H95326   0.714   1.706   5.101 -2.2057  1.1615  1.5320
  691MOL0     H95327   0.619   1.567   5.024  1.6992 -1.1252  0.9761
  691MOL0     H95328   0.492   1.532   5.183 -1.3341  2.1145 -1.6825
  691MOL0     H95329   0.531   1.686   5.281  2.6257 -1.8185  3.2783
  691MOL0     H95330   0.763   1.616   5.327  0.0602  0.2745  0.5921
  691MOL0     H95331   0.647   1.527   5.414 -2.5658  0.9000 -0.9069
  691MOL0     H95332   0.758   1.416   5.156 -1.5644 -3.7892 -0.6082
  691MOL0     H95333   0.651   1.347   5.264 -0.7512  0.8389 -0.8867
  691MOL0     H95334   0.778   1.275   5.423  0.9207 -1.0909 -0.2349
  691MOL0     H95335   0.864   1.432   5.442  1.8877  0.8174 -2.3732
  691MOL0     H95336   0.995   1.371   5.221  0.8259 -0.1406  0.7245
  691MOL0     H95337   0.918   1.212   5.248 -0.3262 -0.2621  0.1865
  691MOL0     H95338   0.464   1.818   4.757  0.9157 -1.3703  0.8038
  691MOL0     H95339   0.373   1.896   4.542 -1.0064 -0.0825 -1.0632
  691MOL0     H95340   0.344   1.967   4.111 -0.7757 -1.3389 -0.7026
  691MOL0     H95341   0.256   2.137   3.952 -2.2613  1.8392 -0.4854
  691MOL0     H95342   0.654   2.589   2.758  0.0171 -0.2710  0.4057
  691MOL0     H95343   0.831   2.487   2.580  2.8989 -1.5556  0.7041
  691MOL0     H95344   0.974   2.198   2.351 -0.2819  3.1939  2.1636
  691MOL0     H95345   1.093   2.171   2.157  0.5128  0.3101 -0.5361
  691MOL0     H95346   1.196   2.225   1.997  0.3243  0.6764 -0.5297
  691MOL0     H95347   1.353   2.265   1.919 -1.7699  1.4307  0.6550
  691MOL0     H95348   1.270   2.009   2.063  1.8256  0.3576  1.0445
  691MOL0     H95349   1.430   2.044   1.998  0.2923  0.9069  1.9395
  691MOL0     H95350   1.340   2.043   1.767 -0.9113 -2.0007 -1.8837
  691MOL0     H95351   1.318   1.890   1.843 -0.4037 -0.7845 -0.3959
  691MOL0     H95352   1.122   2.130   1.813 -0.4728 -0.9994  0.2433
  691MOL0     H95353   1.090   1.983   1.902 -0.4204  3.3856  2.1896
  691MOL0     H95354   1.010   1.865   1.500 -0.4325 -1.7096  0.3973
  691MOL0     H95355   1.428   2.342   2.338  0.0237 -1.5660 -0.8553
  691MOL0     H95356   1.412   2.461   2.571 -1.8421  1.2303 -3.9940
  691MOL0     H95357   1.244   2.474   2.621  0.8410 -1.0627  1.2749
  691MOL0     H95358   1.342   2.338   2.675  0.5535  0.5382  0.1043
  692MOL0     O95359   2.921   6.281   9.591  0.3595 -0.5897  0.2867
  692MOL0     C95360   2.928   6.379   9.512  0.2025  1.3001  0.0532
  692MOL0     O95361   3.006   6.482   9.530 -0.6413  0.5089 -0.0090
  692MOL0     C95362   3.067   6.485   9.645 -0.2654  0.5273  0.0155
  692MOL0     C95363   3.004   6.531   9.768  0.1214 -0.3035  0.3060
  692MOL0     C95364   3.072   6.550   9.885 -0.5587 -0.0320 -1.1325
  692MOL0     C95365   3.203   6.504   9.898  0.2505 -0.3140 -0.0166
  692MOL0     O95366   3.276   6.521  10.013  0.7420  0.0657  0.3861
  692MOL0     C95367   3.217   6.441  10.118 -0.0013 -0.1472 -0.5726
  692MOL0     C95368   3.321   6.408  10.229  0.7131 -0.2244  0.8078
  692MOL0     C95369   3.318   6.495  10.354  0.3799 -0.2928  1.0963
  692MOL0     C95370   3.187   6.498  10.436  0.3373  0.1488  1.0793
  692MOL0     C95371   3.205   6.573  10.573 -0.3380 -0.3204  0.2280
  692MOL0     C95372   3.076   6.596  10.652 -0.5328 -0.2068 -0.1010
  692MOL0     C95373   3.101   6.650  10.790  0.2045 -0.3856 -0.3806
  692MOL0     C95374   3.183   6.788  10.792  0.5988  1.1003 -0.1028
  692MOL0     N95375   3.153   6.873  10.912 -0.6953  0.6673  0.0994
  692MOL0     C95376   3.225   6.855  11.031 -0.7292 -0.8807  0.0243
  692MOL0     C95377   3.186   6.956  11.118  0.2577 -0.0789  0.3177
  692MOL0     C95378   3.249   6.995  11.248 -0.4411  0.2713  0.0657
  692MOL0     C95379   3.178   7.112  11.323 -0.5460 -0.6424 -0.4910
  692MOL0     C95380   3.213   7.113  11.475 -0.0880 -0.5331 -0.3519
  692MOL0     C95381   3.357   7.162  11.511 -0.9389  0.9276 -0.6697
  692MOL0     O95382   3.448   7.046  11.524  0.0825  0.6983  0.1768
  692MOL0     C95383   3.441   6.965  11.644  0.2973 -0.2232  0.3588
  692MOL0     C95384   3.537   6.855  11.644 -1.0167 -0.3714 -0.1404
  692MOL0     C95385   3.553   6.767  11.747 -0.9079 -1.6071  0.0682
  692MOL0     C95386   3.665   6.671  11.720  0.3757 -0.3737 -0.3275
  692MOL0     C95387   3.470   6.771  11.859 -0.2315  0.0191  0.4809
  692MOL0     C95388   3.463   6.656  11.957 -0.7977 -0.4301 -0.0152
  692MOL0     O95389   3.573   6.586  11.973 -0.7335 -0.3821  0.3206
  692MOL0     C95390   3.581   6.522  12.090 -0.2937 -0.8815 -0.3965
  692MOL0     C95391   3.708   6.547  12.140  0.1238  0.4513  0.3711
  692MOL0     C95392   3.753   6.485  12.262  0.5742 -0.2010 -0.2374
  692MOL0     C95393   3.660   6.411  12.339 -0.5323  1.3107 -0.8313
  692MOL0     O95394   3.717   6.371  12.460 -0.7958  0.9680 -0.1504
  692MOL0     C95395   3.624   6.318  12.557 -0.4373  0.3120 -0.5159
  692MOL0     C95396   3.697   6.238  12.670 -0.4508  0.4621  0.6381
  692MOL0     C95397   3.604   6.195  12.784  0.7076  0.4086  0.0467
  692MOL0     C95398   3.515   6.078  12.743  0.2124 -0.3420 -0.1360
  692MOL0     C95399   3.451   6.017  12.863  0.6284  0.3320 -0.5809
  692MOL0     C95400   3.349   5.900  12.829 -0.3354 -0.1662  0.9072
  692MOL0     C95401   3.300   5.829  12.952 -0.3527  0.3840 -0.4431
  692MOL0     C95402   3.260   5.680  12.920  0.2123 -0.3826  0.4473
  692MOL0    Cl95403   3.232   5.584  13.059  0.2572 -0.3007  0.2854
  692MOL0     C95404   3.531   6.382  12.283 -1.1131 -0.0573 -0.7134
  692MOL0     C95405   3.494   6.433  12.163  0.6674  0.3055  1.0280
  692MOL0     O95406   3.365   6.651  12.031 -0.2692  1.2297 -0.1803
  692MOL0     C95407   3.371   6.873  11.862 -1.0307 -0.0116  0.1916
  692MOL0     C95408   3.362   6.973  11.763  0.0562  0.0227 -0.3538
  692MOL0     N95409   3.084   7.020  11.056  0.4368  0.2867  0.1129
  692MOL0     N95410   3.070   6.982  10.930 -0.4795  1.0074  0.1178
  692MOL0     C95411   3.264   6.445   9.788 -0.6346 -0.0147  0.1561
  692MOL0     C95412   3.198   6.440   9.666  0.8747  0.0365 -0.0084
  692MOL0     C95413   2.856   6.382   9.384 -0.1434 -0.0540 -0.3099
  692MOL0     C95414   2.866   6.501   9.304 -0.1780 -0.1136 -0.1507
  692MOL0     C95415   2.798   6.518   9.185  0.8874 -0.0164 -0.3478
  692MOL0     C95416   2.721   6.411   9.130  0.9585 -0.1530 -0.3769
  692MOL0     O95417   2.669   6.412   9.009  0.8024  0.1950 -0.5446
  692MOL0     C95418   2.676   6.522   8.915  0.3134 -0.3305 -0.2485
  692MOL0     C95419   2.805   6.504   8.843 -0.0555 -0.3114 -0.1679
  692MOL0     C95420   2.902   6.613   8.879 -0.6725 -0.4454 -0.2311
  692MOL0     C95421   3.003   6.607   8.759 -0.1308 -0.8982 -0.3290
  692MOL0     C95422   3.096   6.718   8.778 -0.6690  0.3869 -1.0292
  692MOL0     C95423   3.187   6.805   8.800  0.9721 -0.5402  0.5448
  692MOL0     C95424   2.716   6.292   9.201  0.4329  0.1805  0.0835
  692MOL0     C95425   2.778   6.273   9.325 -0.4840  0.4088 -0.2999
  692MOL0     C95426   2.756   6.135   9.393  0.3123 -0.2197  0.5719
  692MOL0     H95427   2.897   6.550   9.771  0.2911  1.3463 -1.4594
  692MOL0     H95428   3.001   6.593   9.954  0.7156  4.2684 -2.1704
  692MOL0     H95429   3.180   6.345  10.082 -1.9169  0.3077  0.0481
  692MOL0     H95430   3.122   6.482  10.155  0.3384 -0.7351  0.9989
  692MOL0     H95431   3.309   6.304  10.263 -4.3176 -0.2539 -0.1780
  692MOL0     H95432   3.421   6.417  10.187  1.0793  2.2937  2.0525
  692MOL0     H95433   3.402   6.456  10.413  0.4159 -3.6017 -0.8475
  692MOL0     H95434   3.333   6.599  10.323 -0.2691  0.2598  2.5617
  692MOL0     H95435   3.101   6.538  10.381 -0.5090 -2.6848  0.1150
  692MOL0     H95436   3.158   6.395  10.461 -2.8067  0.1717 -1.7369
  692MOL0     H95437   3.250   6.670  10.550 -0.6604  0.6259  3.2087
  692MOL0     H95438   3.278   6.520  10.635  2.6018  2.5748 -0.4852
  692MOL0     H95439   3.028   6.670  10.586  2.4947 -0.3411 -2.7046
  692MOL0     H95440   3.011   6.509  10.663  0.4825 -0.7216  2.4480
  692MOL0     H95441   3.172   6.588  10.846  1.1293  0.0711 -1.0020
  692MOL0     H95442   3.005   6.647  10.841  0.9095 -1.8644  0.9355
  692MOL0     H95443   3.286   6.754  10.776 -0.3708 -1.6731 -1.2367
  692MOL0     H95444   3.153   6.838  10.699 -3.5504 -1.0836 -0.1698
  692MOL0     H95445   3.306   6.785  11.050 -0.1916 -0.5343 -0.9658
  692MOL0     H95446   3.346   7.031  11.214 -1.2903  0.8602 -1.8628
  692MOL0     H95447   3.255   6.911  11.319  1.3250 -0.6578 -1.1157
  692MOL0     H95448   3.215   7.205  11.278 -3.1643  0.6711 -0.1138
  692MOL0     H95449   3.070   7.116  11.309 -0.2198  2.8710 -4.0149
  692MOL0     H95450   3.154   7.180  11.537  1.1506  0.6382 -0.3908
  692MOL0     H95451   3.182   7.012  11.505 -1.4538  0.1064  0.4456
  692MOL0     H95452   3.401   7.224  11.432  0.8523  1.2576  0.5217
  692MOL0     H95453   3.348   7.208  11.611 -1.4138 -0.9503  0.1848
  692MOL0     H95454   3.602   6.843  11.558 -1.5641 -0.4804 -0.5410
  692MOL0     H95455   3.721   6.637  11.807  1.7401 -0.1992 -1.1166
  692MOL0     H95456   3.731   6.715  11.645 -1.6939  3.3447 -0.2249
  692MOL0     H95457   3.622   6.577  11.682 -1.9243 -0.1351  1.4315
  692MOL0     H95458   3.788   6.597  12.086 -0.2920  1.0656  0.3135
  692MOL0     H95459   3.853   6.491  12.304  1.1699 -3.3614 -0.9276
  692MOL0     H95460   3.578   6.406  12.602  0.7532  0.5444  0.3046
  692MOL0     H95461   3.561   6.251  12.498 -1.7365  1.8075 -0.8806
  692MOL0     H95462   3.758   6.159  12.626  0.0377  2.3838 -2.4976
  692MOL0     H95463   3.777   6.304  12.707  3.1610 -1.8304 -2.3662
  692MOL0     H95464   3.542   6.277  12.820 -1.2135 -1.1862  0.5553
  692MOL0     H95465   3.653   6.165  12.877  1.3232 -0.6860 -0.6029
  692MOL0     H95466   3.558   6.012  12.668 -0.1483 -2.2612  1.2706
  692MOL0     H95467   3.437   6.123  12.681  2.1045 -1.6572 -3.6915
  692MOL0     H95468   3.526   5.967  12.925 -0.6574 -1.9354 -0.7600
  692MOL0     H95469   3.405   6.093  12.927 -0.3449  0.4715 -1.4209
  692MOL0     H95470   3.398   5.824  12.768  1.0390 -0.1771  1.9827
  692MOL0     H95471   3.263   5.941  12.775 -0.4605  0.9621  1.9020
  692MOL0     H95472   3.219   5.889  12.995 -0.1898  0.0878  0.2908
  692MOL0     H95473   3.386   5.834  13.020  1.1221  0.8112 -2.2479
  692MOL0     H95474   3.333   5.638  12.849 -1.6025 -0.9409 -1.1772
  692MOL0     H95475   3.164   5.685  12.867  0.2266  0.4173  0.4815
  692MOL0     H95476   3.455   6.317  12.324 -0.8094 -0.3697 -0.6382
  692MOL0     H95477   3.401   6.404  12.116  0.9508 -0.1273  0.7267
  692MOL0     H95478   3.289   6.881  11.934  0.8042  2.2040  2.1971
  692MOL0     H95479   3.282   7.046  11.766  0.2916  0.2586  0.1242
  692MOL0     H95480   3.362   6.399   9.800 -0.6749 -0.7386 -1.8504
  692MOL0     H95481   3.255   6.399   9.583  0.0706  0.1379 -0.6120
  692MOL0     H95482   2.912   6.594   9.333 -0.5056  0.3609 -1.1174
  692MOL0     H95483   2.810   6.617   9.141 -3.7022  1.7038  1.6351
  692MOL0     H95484   2.593   6.516   8.844  1.1202  0.7572 -1.3331
  692MOL0     H95485   2.682   6.620   8.962  0.6584 -0.8872  0.9134
  692MOL0     H95486   2.790   6.486   8.736  1.5178 -0.5596 -0.3696
  692MOL0     H95487   2.844   6.403   8.860 -1.9321 -0.7647  1.8956
  692MOL0     H95488   2.869   6.717   8.890 -0.6328 -0.4275 -0.2818
  692MOL0     H95489   2.959   6.581   8.966  1.8538  1.4182 -1.0917
  692MOL0     H95490   2.960   6.620   8.660 -1.1920  1.6598  0.3964
  692MOL0     H95491   3.058   6.513   8.758 -0.4986 -1.1557  1.2358
  692MOL0     H95492   3.262   6.880   8.818  2.1752 -1.9248  1.5191
  692MOL0     H95493   2.661   6.209   9.158  1.6899 -0.8820  0.4646
  692MOL0     H95494   2.683   6.147   9.473 -0.2080 -1.4487  0.3018
  692MOL0     H95495   2.720   6.055   9.327  0.0326  0.4019 -0.0433
  692MOL0     H95496   2.846   6.091   9.437  0.4660 -2.7650 -1.9393
  693MOL0     O95497   3.645   5.265   4.124  0.2029  0.4677 -0.4993
  693MOL0     C95498   3.600   5.379   4.159 -0.1527  1.4446  0.0804
  693MOL0     O95499   3.534   5.470   4.080  0.6799 -0.0295  0.0374
  693MOL0     C95500   3.494   5.438   3.949 -0.8207  0.5030 -0.7556
  693MOL0     C95501   3.587   5.386   3.859  0.8161  0.3914 -0.0459
  693MOL0     C95502   3.540   5.351   3.739  0.2327 -0.0870  0.1374
  693MOL0     C95503   3.413   5.374   3.698  0.1050 -0.0079 -1.0170
  693MOL0     O95504   3.371   5.354   3.572  0.4779 -0.0897  0.3511
  693MOL0     C95505   3.472   5.363   3.469  0.7854  0.4444  0.3336
  693MOL0     C95506   3.395   5.359   3.337  0.6507  1.6844 -0.1484
  693MOL0     C95507   3.308   5.483   3.322 -0.2809  0.2669 -0.0190
  693MOL0     C95508   3.398   5.595   3.284  0.4066 -0.4067  0.2744
  693MOL0     C95509   3.317   5.727   3.251  0.0049  0.0056  0.7822
  693MOL0     C95510   3.304   5.834   3.360  0.1207  0.8738 -0.3612
  693MOL0     C95511   3.225   5.790   3.487 -0.5838  0.8518 -0.2751
  693MOL0     C95512   3.079   5.788   3.478 -0.1968  0.1547  0.0425
  693MOL0     N95513   3.018   5.765   3.611  0.2982 -0.3059 -0.6543
  693MOL0     C95514   2.979   5.639   3.656 -0.5880 -0.3965 -0.9405
  693MOL0     C95515   2.926   5.665   3.775 -0.1475  0.5380 -0.1036
  693MOL0     C95516   2.861   5.560   3.870 -0.0869 -0.3152 -1.1425
  693MOL0     C95517   2.755   5.491   3.793  1.0610  0.0133  0.6466
  693MOL0     C95518   2.661   5.412   3.888  0.0205  0.4167  0.3786
  693MOL0     C95519   2.561   5.324   3.812  0.7237  0.3586 -0.7376
  693MOL0     O95520   2.465   5.263   3.899  0.6685 -0.1181 -0.8305
  693MOL0     C95521   2.351   5.227   3.833  1.0162 -0.7564 -0.1172
  693MOL0     C95522   2.328   5.107   3.769 -0.3829 -0.7992 -0.4567
  693MOL0     C95523   2.209   5.087   3.695  0.5832  0.0355  0.0818
  693MOL0     C95524   2.208   4.961   3.601  0.4999  0.5331 -0.4859
  693MOL0     C95525   2.107   5.183   3.693 -0.6062  0.1874  0.3364
  693MOL0     C95526   1.988   5.175   3.617  0.1758 -0.2837  0.1589
  693MOL0     O95527   1.924   5.055   3.606  0.2319  1.1074  0.3473
  693MOL0     C95528   1.821   5.052   3.516 -0.5474 -0.1257 -0.7817
  693MOL0     C95529   1.833   5.010   3.384  0.8162  0.1504  0.0802
  693MOL0     C95530   1.717   4.999   3.313 -0.9589 -0.3978 -0.1509
  693MOL0     C95531   1.589   5.026   3.374 -0.7533 -0.1331  1.1555
  693MOL0     O95532   1.480   5.018   3.298  0.2441 -0.3674 -0.2355
  693MOL0     C95533   1.388   4.913   3.339  0.0125 -0.9100 -0.0237
  693MOL0     C95534   1.242   4.944   3.305 -1.2643  0.1278 -0.1871
  693MOL0     C95535   1.227   4.985   3.162  0.3338 -0.8827  0.5486
  693MOL0     C95536   1.297   4.910   3.050  1.2476 -0.2519  0.1305
  693MOL0     C95537   1.225   4.944   2.908 -1.4658  0.2882 -0.7720
  693MOL0     C95538   1.303   4.897   2.787  0.6552  0.3251 -1.2652
  693MOL0     C95539   1.449   4.941   2.808 -0.1100 -0.7579  0.0885
  693MOL0     C95540   1.528   4.929   2.682 -0.5212  0.7479  0.0314
  693MOL0    Cl95541   1.506   4.773   2.613  0.2599  0.3269 -0.0176
  693MOL0     C95542   1.584   5.079   3.502 -0.0612  0.2645  0.6837
  693MOL0     C95543   1.704   5.092   3.574  0.5855 -0.3761  0.3566
  693MOL0     O95544   1.942   5.285   3.583 -0.1899 -0.6858 -0.1463
  693MOL0     C95545   2.130   5.301   3.765  0.1921  0.5167  0.3636
  693MOL0     C95546   2.253   5.326   3.835  0.6879  0.1445 -0.5251
  693MOL0     N95547   2.914   5.804   3.797 -0.9596  0.1033 -0.2722
  693MOL0     N95548   2.973   5.866   3.688  1.0290  0.1180  0.3958
  693MOL0     C95549   3.325   5.435   3.781  0.5037  0.1464 -0.3674
  693MOL0     C95550   3.358   5.459   3.917 -0.3470 -0.0402  0.3698
  693MOL0     C95551   3.617   5.417   4.300  0.2578  0.2711 -0.0953
  693MOL0     C95552   3.565   5.544   4.333  0.0373  0.5415  0.4903
  693MOL0     C95553   3.554   5.585   4.463 -0.8687 -0.4900 -0.1375
  693MOL0     C95554   3.597   5.509   4.568  0.7305  0.3149  0.3495
  693MOL0     O95555   3.601   5.550   4.694 -0.8176  0.1245  0.8651
  693MOL0     C95556   3.552   5.455   4.789 -0.3605 -0.5012 -0.9177
  693MOL0     C95557   3.574   5.538   4.923  0.0512  1.0227 -0.7754
  693MOL0     C95558   3.494   5.487   5.043 -0.5021 -0.0461 -1.1016
  693MOL0     C95559   3.554   5.530   5.187  0.6599  0.0157  0.6696
  693MOL0     C95560   3.585   5.678   5.186  0.8113  0.5391  0.0678
  693MOL0     C95561   3.625   5.793   5.167 -0.1350  0.0296 -0.1261
  693MOL0     C95562   3.649   5.382   4.543 -0.0445  1.2661 -0.8906
  693MOL0     C95563   3.669   5.340   4.410  0.3810 -0.2880 -1.0210
  693MOL0     C95564   3.741   5.208   4.386  0.3223 -0.4382 -1.5758
  693MOL0     H95565   3.691   5.361   3.880  1.0989  2.1050  0.7470
  693MOL0     H95566   3.611   5.296   3.678 -1.0549 -1.2994 -0.3297
  693MOL0     H95567   3.548   5.285   3.469 -1.1612 -1.5703  1.8257
  693MOL0     H95568   3.520   5.461   3.472  0.9270  0.7208 -4.3455
  693MOL0     H95569   3.460   5.362   3.249 -0.7621 -3.1641 -1.6517
  693MOL0     H95570   3.337   5.267   3.327  0.6018  1.8422 -1.6068
  693MOL0     H95571   3.226   5.469   3.250  0.0292  0.7258 -0.4673
  693MOL0     H95572   3.253   5.500   3.415  0.4125 -1.2732  0.7072
  693MOL0     H95573   3.473   5.626   3.357  1.9605  1.2715 -1.9064
  693MOL0     H95574   3.446   5.570   3.189 -3.4444  0.9314 -2.2576
  693MOL0     H95575   3.215   5.699   3.223  0.1781  1.9975 -2.2528
  693MOL0     H95576   3.361   5.776   3.164 -0.2902  2.2290  1.8382
  693MOL0     H95577   3.405   5.860   3.392  1.2907 -0.7851 -2.4075
  693MOL0     H95578   3.252   5.926   3.331 -3.3688 -1.2951 -1.5398
  693MOL0     H95579   3.259   5.854   3.569  1.8375  0.9084 -1.2408
  693MOL0     H95580   3.268   5.695   3.521  1.5122  1.5789 -0.7454
  693MOL0     H95581   3.043   5.882   3.436 -1.5004 -1.4231 -2.7039
  693MOL0     H95582   3.064   5.701   3.412 -1.7219 -0.1398  0.7238
  693MOL0     H95583   3.003   5.547   3.603  3.8100  1.1872 -2.1387
  693MOL0     H95584   2.831   5.604   3.966 -1.3073  0.9371 -2.0441
  693MOL0     H95585   2.941   5.486   3.878 -1.6816 -2.5346 -3.9832
  693MOL0     H95586   2.693   5.567   3.745 -0.5927 -2.5358 -1.5444
  693MOL0     H95587   2.791   5.428   3.711  0.4058  1.6882 -0.9760
  693MOL0     H95588   2.725   5.349   3.951  2.0086  1.5456 -0.4481
  693MOL0     H95589   2.612   5.489   3.947  0.9980  0.7050  0.8318
  693MOL0     H95590   2.510   5.379   3.733 -0.5356 -2.3151 -1.9267
  693MOL0     H95591   2.610   5.235   3.770  0.7798  0.7470 -1.5154
  693MOL0     H95592   2.404   5.029   3.778  1.7481  1.3532  1.8120
  693MOL0     H95593   2.268   4.976   3.511 -1.4042  0.0726 -1.9180
  693MOL0     H95594   2.109   4.930   3.565 -0.1047  0.4086  1.1832
  693MOL0     H95595   2.258   4.883   3.658  2.2394  2.3871  0.6698
  693MOL0     H95596   1.924   4.966   3.347  0.2320 -0.3417 -0.8127
  693MOL0     H95597   1.721   4.968   3.209 -1.5260  1.9800 -0.9601
  693MOL0     H95598   1.412   4.819   3.289 -0.5524  0.2657 -2.6996
  693MOL0     H95599   1.393   4.910   3.448 -2.3719  1.0380  0.2199
  693MOL0     H95600   1.167   4.865   3.312 -0.8919 -0.1293  1.1739
  693MOL0     H95601   1.202   5.019   3.373  1.1050  1.7656 -0.4993
  693MOL0     H95602   1.249   5.091   3.147 -2.8655 -0.0384  0.9356
  693MOL0     H95603   1.117   4.982   3.161  0.1048  2.6235  1.4183
  693MOL0     H95604   1.295   4.804   3.077 -0.8998 -0.3720 -0.3598
  693MOL0     H95605   1.405   4.929   3.052  1.6112 -2.1663  0.9548
  693MOL0     H95606   1.123   4.904   2.912 -0.7993 -1.4223  2.0249
  693MOL0     H95607   1.226   5.053   2.910  1.5584  0.5893  5.4508
  693MOL0     H95608   1.259   4.942   2.698  0.5056  2.0692 -0.3460
  693MOL0     H95609   1.280   4.790   2.789  1.5185  0.1366 -1.1286
  693MOL0     H95610   1.493   4.870   2.879  0.8977  0.9433  1.2426
  693MOL0     H95611   1.462   5.040   2.853  0.6713 -1.4539  1.4616
  693MOL0     H95612   1.636   4.941   2.694 -0.6485 -0.4910  3.6926
  693MOL0     H95613   1.492   5.013   2.623  2.0063  1.3975 -0.6984
  693MOL0     H95614   1.495   5.124   3.545  1.4516  1.6629  2.5078
  693MOL0     H95615   1.699   5.137   3.673  3.2331  0.9108 -0.0048
  693MOL0     H95616   2.057   5.381   3.763  0.5345  0.8419  0.6187
  693MOL0     H95617   2.267   5.420   3.886  0.1916  1.4702 -2.6759
  693MOL0     H95618   3.226   5.459   3.745  0.6445  0.2410 -0.6926
  693MOL0     H95619   3.287   5.483   3.996  1.2328 -3.9457  3.2740
  693MOL0     H95620   3.558   5.620   4.256  3.8009 -0.5405 -1.1368
  693MOL0     H95621   3.522   5.687   4.484 -1.0285 -0.2226 -1.5629
  693MOL0     H95622   3.450   5.443   4.750 -0.2123  2.3915 -2.5568
  693MOL0     H95623   3.606   5.360   4.788  1.8587  0.5236  2.9486
  693MOL0     H95624   3.548   5.643   4.908  2.4398  2.2033  2.1637
  693MOL0     H95625   3.682   5.524   4.937 -0.0756 -1.1329 -1.5994
  693MOL0     H95626   3.389   5.515   5.030 -0.9715 -0.8930  0.6175
  693MOL0     H95627   3.500   5.378   5.045 -0.3353 -0.0267  0.2147
  693MOL0     H95628   3.640   5.473   5.225 -0.5627 -1.9219  0.7123
  693MOL0     H95629   3.472   5.514   5.257 -0.6814  1.3411 -0.5242
  693MOL0     H95630   3.668   5.891   5.165 -2.4290  1.1685  1.8316
  693MOL0     H95631   3.701   5.329   4.622  0.0774  2.6373 -0.0062
  693MOL0     H95632   3.810   5.216   4.300  0.9559 -0.1782 -1.0542
  693MOL0     H95633   3.804   5.197   4.475 -2.6670  2.2439  1.1322
  693MOL0     H95634   3.675   5.125   4.360  0.8730 -0.7934 -1.8520
  694MOL0     O95635   8.992   7.896   6.711 -0.5553  0.6191 -0.2082
  694MOL0     C95636   8.923   7.987   6.677 -0.6283 -0.2524 -0.8631
  694MOL0     O95637   8.790   7.971   6.644 -0.2178  0.0578  0.1002
  694MOL0     C95638   8.745   7.841   6.639 -0.6611 -0.1298 -1.4643
  694MOL0     C95639   8.701   7.766   6.759 -0.0964 -0.8948  0.0140
  694MOL0     C95640   8.664   7.636   6.754  0.6034 -0.0215 -0.2323
  694MOL0     C95641   8.666   7.566   6.636 -1.7568  0.3295  0.5944
  694MOL0     O95642   8.645   7.428   6.645 -0.2100 -0.1885 -0.3864
  694MOL0     C95643   8.610   7.362   6.524  0.6837 -0.3171 -1.2051
  694MOL0     C95644   8.542   7.235   6.563  0.1272  0.2905  0.4270
  694MOL0     C95645   8.432   7.242   6.676  0.7424 -0.1356 -0.4493
  694MOL0     C95646   8.391   7.106   6.738 -0.6736  0.7986  0.3203
  694MOL0     C95647   8.355   7.005   6.626  0.0966  0.1660  0.4521
  694MOL0     C95648   8.310   6.876   6.684  0.7560  0.6797 -2.1995
  694MOL0     C95649   8.278   6.778   6.567 -0.2318  0.6924  0.3139
  694MOL0     C95650   8.249   6.634   6.609  0.1435  0.0772 -1.2275
  694MOL0     N95651   8.204   6.561   6.495  1.1744  0.1315 -0.0147
  694MOL0     C95652   8.227   6.426   6.468  0.5000 -0.3887 -0.4297
  694MOL0     C95653   8.138   6.398   6.365  0.4812 -0.3373  0.4170
  694MOL0     C95654   8.139   6.285   6.278 -0.2075  0.8833 -0.4279
  694MOL0     C95655   8.092   6.148   6.341 -0.0785 -0.0533 -0.6125
  694MOL0     C95656   8.098   6.029   6.238 -0.7819  0.3655  0.6001
  694MOL0     C95657   8.102   5.881   6.289 -0.3763 -0.8904  0.5736
  694MOL0     O95658   7.983   5.854   6.365  0.0196  0.2677 -1.2205
  694MOL0     C95659   7.986   5.783   6.482 -0.2294  0.5203  0.5161
  694MOL0     C95660   8.106   5.744   6.544  0.8848  0.2200 -0.6160
  694MOL0     C95661   8.110   5.655   6.651 -0.1416  0.3720 -0.2562
  694MOL0     C95662   8.251   5.623   6.708  0.6428 -0.8196  0.5289
  694MOL0     C95663   7.984   5.600   6.692  0.1863 -0.4471 -0.5768
  694MOL0     C95664   7.971   5.496   6.799  0.0178  0.5806 -0.2169
  694MOL0     O95665   8.059   5.510   6.907  0.2779  0.4413 -0.9056
  694MOL0     C95666   8.066   5.405   6.995 -0.1938 -0.6068 -0.3248
  694MOL0     C95667   7.940   5.344   7.039 -0.7330  0.5116  0.0103
  694MOL0     C95668   7.944   5.232   7.121 -0.1607 -0.3570  0.0825
  694MOL0     C95669   8.061   5.200   7.183 -0.6598 -0.0879  0.3555
  694MOL0     O95670   8.083   5.091   7.266  0.4876 -0.3301 -0.5269
  694MOL0     C95671   8.008   4.965   7.256 -0.4716  0.4934  0.2267
  694MOL0     C95672   7.999   4.909   7.394 -0.2419  0.7241  0.1701
  694MOL0     C95673   8.134   4.912   7.471 -0.2796  0.2782 -0.1305
  694MOL0     C95674   8.127   4.862   7.612  0.7348 -0.2097 -0.4641
  694MOL0     C95675   8.269   4.863   7.670  0.0168  1.0364 -0.7767
  694MOL0     C95676   8.262   4.823   7.819 -0.7195  0.8928  0.4132
  694MOL0     C95677   8.395   4.807   7.890 -0.1058  0.5460  0.6043
  694MOL0     C95678   8.357   4.756   8.037 -0.4651  0.1257  0.4522
  694MOL0    Cl95679   8.283   4.591   8.045  0.5020 -0.3108 -0.1664
  694MOL0     C95680   8.182   5.272   7.152  0.6242 -0.3705  0.7244
  694MOL0     C95681   8.186   5.371   7.057  0.9571 -0.3179 -0.2463
  694MOL0     O95682   7.913   5.391   6.772  0.1967  0.3243  0.2356
  694MOL0     C95683   7.866   5.654   6.639 -0.5424  0.6501 -0.4235
  694MOL0     C95684   7.868   5.746   6.535 -0.6824 -0.2770  0.2502
  694MOL0     N95685   8.051   6.502   6.354 -0.0599 -0.2037  0.5580
  694MOL0     N95686   8.092   6.603   6.423  0.2242 -0.3473  0.0107
  694MOL0     C95687   8.717   7.625   6.516  0.1687 -0.5589  0.4798
  694MOL0     C95688   8.762   7.762   6.520 -0.0033  0.0382  0.2738
  694MOL0     C95689   8.980   8.116   6.670 -0.4165 -0.2802 -0.2480
  694MOL0     C95690   9.017   8.158   6.541  0.4986  0.1629 -0.9396
  694MOL0     C95691   9.084   8.285   6.525 -0.3699 -0.2508 -0.4149
  694MOL0     C95692   9.113   8.362   6.636  0.0546 -0.3518  0.3897
  694MOL0     O95693   9.188   8.470   6.639 -0.6744 -0.6313 -0.3793
  694MOL0     C95694   9.285   8.491   6.532 -0.0380 -0.7676 -0.0304
  694MOL0     C95695   9.394   8.592   6.574 -0.6097 -0.6073 -0.1396
  694MOL0     C95696   9.346   8.742   6.581  1.0486  0.1487 -0.2759
  694MOL0     C95697   9.458   8.831   6.659  0.1922  0.5034 -1.0678
  694MOL0     C95698   9.582   8.831   6.586 -0.3439 -0.1344  0.2709
  694MOL0     C95699   9.686   8.850   6.526  0.0168 -0.5639  0.9416
  694MOL0     C95700   9.070   8.321   6.754  0.4385  0.0175 -0.0337
  694MOL0     C95701   8.998   8.206   6.780 -0.6347 -0.2843  0.8159
  694MOL0     C95702   8.973   8.152   6.914  0.6385  0.0272  0.0602
  694MOL0     H95703   8.678   7.823   6.848 -0.7798 -0.6699 -0.2995
  694MOL0     H95704   8.625   7.591   6.844 -2.4682 -0.6828 -1.7777
  694MOL0     H95705   8.704   7.357   6.468  1.0123  3.2808 -1.2381
  694MOL0     H95706   8.534   7.420   6.469 -0.7302  3.7051  4.1092
  694MOL0     H95707   8.490   7.200   6.474 -2.0205 -0.7729  2.0142
  694MOL0     H95708   8.619   7.161   6.586 -0.2137 -0.2559 -0.1835
  694MOL0     H95709   8.472   7.316   6.746  2.3946  0.3665 -1.8393
  694MOL0     H95710   8.342   7.285   6.632  0.8954  2.1046  1.2839
  694MOL0     H95711   8.471   7.063   6.799 -0.3797 -0.1301 -0.6813
  694MOL0     H95712   8.303   7.129   6.799 -1.6981 -0.1990 -0.7255
  694MOL0     H95713   8.439   6.992   6.556  1.0527 -0.8871  1.7288
  694MOL0     H95714   8.280   7.053   6.563  0.4388  4.2140  2.7912
  694MOL0     H95715   8.382   6.823   6.748 -0.2938  1.1746 -0.5624
  694MOL0     H95716   8.230   6.895   6.756 -0.3424 -1.2621 -2.8259
  694MOL0     H95717   8.351   6.781   6.486  0.9132  3.4596  1.2984
  694MOL0     H95718   8.187   6.815   6.520 -0.5994  1.9204  1.9111
  694MOL0     H95719   8.332   6.584   6.661 -1.6563 -1.3100  0.4609
  694MOL0     H95720   8.159   6.641   6.671 -0.4196 -0.5810 -1.9490
  694MOL0     H95721   8.306   6.354   6.488 -0.6978 -1.8037 -0.6181
  694MOL0     H95722   8.243   6.264   6.250 -0.3537  2.3667 -2.2606
  694MOL0     H95723   8.091   6.300   6.181 -2.1141  1.4618  0.5669
  694MOL0     H95724   8.162   6.119   6.420 -0.4929 -0.5600 -0.4209
  694MOL0     H95725   7.987   6.157   6.371 -0.0680 -0.8238 -0.3269
  694MOL0     H95726   8.014   6.045   6.169 -1.1462 -0.1835  0.9163
  694MOL0     H95727   8.190   6.046   6.181  1.0984 -0.4114  3.2269
  694MOL0     H95728   8.095   5.809   6.207  0.0327 -0.3571  0.0568
  694MOL0     H95729   8.203   5.860   6.327  0.0067 -3.1326 -1.4793
  694MOL0     H95730   8.194   5.795   6.504 -0.5751  3.9483  0.5116
  694MOL0     H95731   8.267   5.683   6.798  1.9343  1.1713 -0.9145
  694MOL0     H95732   8.329   5.651   6.636  1.0578 -0.0060  1.2713
  694MOL0     H95733   8.262   5.519   6.741 -3.3062 -0.5687  3.1877
  694MOL0     H95734   7.844   5.378   7.002 -1.3773  3.0415  3.5000
  694MOL0     H95735   7.854   5.175   7.141 -0.7632  0.7536  0.6262
  694MOL0     H95736   7.910   4.976   7.208  0.0886 -0.6248 -1.2665
  694MOL0     H95737   8.061   4.898   7.187 -0.0835  0.0724  0.9227
  694MOL0     H95738   7.929   4.969   7.452 -2.0952 -0.8492 -0.3416
  694MOL0     H95739   7.954   4.810   7.402  0.2471  0.6314  2.1515
  694MOL0     H95740   8.165   5.016   7.479 -2.2418  0.8955  0.1475
  694MOL0     H95741   8.218   4.857   7.428 -0.5688 -1.2453  1.1420
  694MOL0     H95742   8.084   4.761   7.612  1.3789 -0.5062 -1.6943
  694MOL0     H95743   8.061   4.916   7.680 -0.2323 -1.0812 -0.6838
  694MOL0     H95744   8.330   4.797   7.608 -1.0426  0.3038 -1.0663
  694MOL0     H95745   8.312   4.963   7.658  1.3333  0.4816 -0.8283
  694MOL0     H95746   8.207   4.728   7.821  0.3923  0.1831 -0.9443
  694MOL0     H95747   8.203   4.893   7.878 -1.0098  1.7396 -0.8371
  694MOL0     H95748   8.451   4.901   7.889  3.4281 -1.3077 -2.6836
  694MOL0     H95749   8.473   4.747   7.844  0.1226  1.4934 -0.2957
  694MOL0     H95750   8.303   4.831   8.096 -1.0782  1.4632 -1.6803
  694MOL0     H95751   8.451   4.721   8.079  1.0869  3.1776 -0.1616
  694MOL0     H95752   8.276   5.238   7.192  1.6464 -1.2090 -2.1587
  694MOL0     H95753   8.277   5.406   7.008  1.5759 -0.1327  0.9969
  694MOL0     H95754   7.776   5.622   6.690  0.7900  0.3659  1.8692
  694MOL0     H95755   7.771   5.785   6.504 -0.4666  2.3574  2.4827
  694MOL0     H95756   8.735   7.568   6.425  0.5689 -2.8733  1.9012
  694MOL0     H95757   8.811   7.795   6.429  0.8528 -2.1798 -0.1324
  694MOL0     H95758   8.995   8.102   6.451 -1.2305 -0.1645 -0.3455
  694MOL0     H95759   9.097   8.331   6.427 -1.6397 -0.7242 -0.8233
  694MOL0     H95760   9.333   8.396   6.505 -0.8017 -0.7179 -1.6650
  694MOL0     H95761   9.239   8.527   6.440  0.6780 -1.1320 -0.5415
  694MOL0     H95762   9.477   8.579   6.503 -0.5748 -0.6437 -0.0930
  694MOL0     H95763   9.438   8.549   6.665  2.9525  0.4676 -1.1688
  694MOL0     H95764   9.325   8.786   6.483 -0.8952  2.5338  1.1216
  694MOL0     H95765   9.249   8.752   6.630  1.3883  2.6293  0.0193
  694MOL0     H95766   9.471   8.781   6.755  0.1696  2.2081 -0.1381
  694MOL0     H95767   9.422   8.934   6.669 -3.0862 -0.6563  0.5505
  694MOL0     H95768   9.768   8.874   6.461 -0.6866  3.0230  1.1955
  694MOL0     H95769   9.086   8.386   6.839 -1.0499 -0.4865  0.6756
  694MOL0     H95770   9.042   8.069   6.933  0.2967  0.4875  4.0926
  694MOL0     H95771   9.005   8.223   6.990 -0.7308  0.6664  0.0699
  694MOL0     H95772   8.868   8.125   6.922  0.4919  0.6372  0.2539
  695MOL0     O95773   8.816   3.911   3.182 -0.4574 -0.7074 -0.5576
  695MOL0     C95774   8.800   3.804   3.243  0.9697  0.0086 -0.3115
  695MOL0     O95775   8.679   3.746   3.286 -0.2004 -0.0684  0.4770
  695MOL0     C95776   8.564   3.822   3.255  0.2265  0.9213 -0.7989
  695MOL0     C95777   8.455   3.820   3.342 -1.3445 -0.8925 -0.3640
  695MOL0     C95778   8.343   3.902   3.328 -0.1083 -0.1250 -0.2029
  695MOL0     C95779   8.336   3.980   3.210  0.3035 -0.0131 -0.8304
  695MOL0     O95780   8.223   4.059   3.206 -0.0036  0.1427 -0.4779
  695MOL0     C95781   8.201   4.146   3.089 -0.7838  0.2607 -0.2782
  695MOL0     C95782   8.072   4.231   3.083  0.0403  0.6172 -0.2974
  695MOL0     C95783   7.939   4.157   3.083 -0.0027 -0.4236  0.1791
  695MOL0     C95784   7.909   4.064   2.969 -0.4680 -0.7814 -0.4762
  695MOL0     C95785   7.867   3.935   3.027 -0.4073 -0.3995  0.7032
  695MOL0     C95786   7.827   3.848   2.901 -0.6551  0.0251  0.3252
  695MOL0     C95787   7.759   3.718   2.937 -1.3747 -0.1526 -0.0599
  695MOL0     C95788   7.634   3.735   3.024  0.2602 -0.7966  0.0778
  695MOL0     N95789   7.534   3.832   2.963 -0.0261  0.8584 -0.2648
  695MOL0     C95790   7.495   3.840   2.828 -1.6586  0.6572 -0.5343
  695MOL0     C95791   7.437   3.958   2.810 -0.0004  0.5022 -0.9881
  695MOL0     C95792   7.379   3.993   2.682 -0.6119 -0.1556 -0.9599
  695MOL0     C95793   7.457   4.099   2.602  0.2625 -0.5189  0.0429
  695MOL0     C95794   7.475   4.250   2.648  0.1131  0.3467  0.2838
  695MOL0     C95795   7.352   4.343   2.628  0.0122  0.0442  0.3965
  695MOL0     O95796   7.288   4.322   2.499 -0.4070  0.7819  0.3605
  695MOL0     C95797   7.242   4.435   2.427  0.7072  0.0495  1.0631
  695MOL0     C95798   7.103   4.434   2.385  0.1401  0.1307  0.7193
  695MOL0     C95799   7.049   4.552   2.331  0.0236 -0.9400 -0.1883
  695MOL0     C95800   6.902   4.549   2.306  0.2805 -0.6555  0.1241
  695MOL0     C95801   7.133   4.661   2.291  0.6193 -0.9560 -0.2391
  695MOL0     C95802   7.081   4.772   2.201  0.0441 -0.5388  0.7298
  695MOL0     O95803   7.180   4.845   2.130 -0.6545  0.7772  0.5229
  695MOL0     C95804   7.129   4.938   2.042  0.3727  0.7974  0.0489
  695MOL0     C95805   7.094   4.890   1.915  1.0382 -0.2238  1.1707
  695MOL0     C95806   7.034   4.969   1.822 -0.2506 -0.2807  0.6504
  695MOL0     C95807   7.016   5.104   1.848 -0.1187  0.5608 -0.0934
  695MOL0     O95808   6.960   5.184   1.757 -0.6187  0.2095 -0.4521
  695MOL0     C95809   6.952   5.146   1.615  0.2757  0.0993  0.2292
  695MOL0     C95810   6.876   5.248   1.539 -0.0477 -0.0459 -0.5452
  695MOL0     C95811   6.734   5.191   1.514 -1.3719 -0.4350 -0.6555
  695MOL0     C95812   6.650   5.290   1.434 -0.0758  0.1637 -0.3419
  695MOL0     C95813   6.513   5.237   1.381  0.9556 -0.7366 -0.7168
  695MOL0     C95814   6.398   5.344   1.402  0.1588  0.3261 -0.2474
  695MOL0     C95815   6.272   5.296   1.340  1.0354 -0.2944 -0.3890
  695MOL0     C95816   6.226   5.152   1.355  1.1591  0.1561  0.3163
  695MOL0    Cl95817   6.067   5.137   1.269 -0.2913 -0.0596  0.0244
  695MOL0     C95818   7.067   5.153   1.971 -0.0161  0.9235 -0.0364
  695MOL0     C95819   7.131   5.070   2.066 -0.3262 -0.4729  0.7229
  695MOL0     O95820   6.958   4.792   2.192  0.6560  0.0691 -0.2726
  695MOL0     C95821   7.271   4.655   2.333 -0.0936  0.3171 -0.5619
  695MOL0     C95822   7.326   4.550   2.400 -1.4984  0.5112 -0.1302
  695MOL0     N95823   7.432   4.022   2.934  0.2780  0.0641  0.7079
  695MOL0     N95824   7.482   3.940   3.021 -1.0004  1.1923  0.1693
  695MOL0     C95825   8.431   3.974   3.112 -0.4543  0.4641 -0.3667
  695MOL0     C95826   8.538   3.889   3.136  0.5849  0.6291 -0.0751
  695MOL0     C95827   8.918   3.725   3.281  0.5648 -0.1010  0.6091
  695MOL0     C95828   9.015   3.799   3.350  0.1619 -0.0838  0.7854
  695MOL0     C95829   9.132   3.733   3.383 -0.5512 -1.2463  0.5944
  695MOL0     C95830   9.146   3.593   3.365  0.4662  0.5107  0.4652
  695MOL0     O95831   9.255   3.522   3.388 -0.2200 -0.5012  0.0650
  695MOL0     C95832   9.361   3.562   3.303  0.4181 -0.2374  0.8056
  695MOL0     C95833   9.415   3.453   3.214  0.0693  0.0909 -0.7730
  695MOL0     C95834   9.474   3.345   3.295  0.3146 -0.8702  0.0044
  695MOL0     C95835   9.563   3.259   3.212  0.0473  0.8117  0.2557
  695MOL0     C95836   9.696   3.314   3.176 -0.2049  0.6070  0.1776
  695MOL0     C95837   9.797   3.378   3.153 -0.2817  0.4164  0.4112
  695MOL0     C95838   9.044   3.524   3.299 -0.1369 -0.4697 -0.1987
  695MOL0     C95839   8.932   3.588   3.251 -0.1123  0.1937 -0.0998
  695MOL0     C95840   8.833   3.501   3.165 -0.2854 -0.1381 -0.6527
  695MOL0     H95841   8.469   3.756   3.429 -0.3377  2.7635  2.4059
  695MOL0     H95842   8.271   3.918   3.409  0.4981 -0.4385  0.4055
  695MOL0     H95843   8.210   4.086   2.998  1.8369  2.0445 -1.3349
  695MOL0     H95844   8.283   4.219   3.086 -0.9112  0.3844 -1.0488
  695MOL0     H95845   8.078   4.321   3.144 -0.4622  3.5892 -4.2849
  695MOL0     H95846   8.077   4.277   2.985  2.4286  1.6171  0.2132
  695MOL0     H95847   7.940   4.109   3.182 -1.1751 -1.6909 -0.3896
  695MOL0     H95848   7.861   4.234   3.083 -0.2311 -0.6107  1.7068
  695MOL0     H95849   7.840   4.120   2.905  1.6614  0.5344 -1.7615
  695MOL0     H95850   8.003   4.064   2.913  0.1689  5.2625 -0.1008
  695MOL0     H95851   7.781   3.953   3.093 -0.3347  0.8734  0.4905
  695MOL0     H95852   7.940   3.882   3.088 -0.7271  0.7022  2.0960
  695MOL0     H95853   7.769   3.913   2.835 -0.7358 -0.2116  0.1626
  695MOL0     H95854   7.911   3.827   2.835 -0.3959  3.3985 -0.6265
  695MOL0     H95855   7.834   3.655   2.984  0.6677  0.6549 -2.0707
  695MOL0     H95856   7.746   3.656   2.847 -0.0614  2.6689 -2.3652
  695MOL0     H95857   7.570   3.648   3.038 -2.3508  0.8317 -0.8516
  695MOL0     H95858   7.658   3.763   3.127  0.8239 -0.4733 -0.1366
  695MOL0     H95859   7.523   3.773   2.747  0.3571 -1.4057  1.6972
  695MOL0     H95860   7.276   4.022   2.704 -0.5336 -0.3278 -0.3555
  695MOL0     H95861   7.384   3.901   2.623  1.9817  0.5166 -1.9366
  695MOL0     H95862   7.554   4.051   2.586 -0.9015 -2.9565 -0.1990
  695MOL0     H95863   7.414   4.106   2.501  2.3369  3.1346 -0.7814
  695MOL0     H95864   7.508   4.255   2.752  1.6068  1.5907 -0.2256
  695MOL0     H95865   7.559   4.286   2.589 -1.2917  1.9236 -0.8624
  695MOL0     H95866   7.290   4.322   2.716  1.2934  1.6563  1.7378
  695MOL0     H95867   7.381   4.448   2.620 -0.9651  0.1978 -1.9388
  695MOL0     H95868   7.045   4.351   2.424 -2.2083  0.4261 -1.8381
  695MOL0     H95869   6.879   4.567   2.200  1.1295 -0.5407 -0.0516
  695MOL0     H95870   6.847   4.623   2.364  0.5657 -0.2179 -0.1502
  695MOL0     H95871   6.856   4.456   2.340 -1.3194  0.7071  1.8662
  695MOL0     H95872   7.081   4.783   1.905 -1.4086 -0.0057  1.3345
  695MOL0     H95873   6.991   4.922   1.734  0.4416  0.8784 -0.3422
  695MOL0     H95874   7.052   5.135   1.572 -0.3344  2.6207 -2.0764
  695MOL0     H95875   6.906   5.048   1.606 -0.1994  0.3285  0.1530
  695MOL0     H95876   6.859   5.346   1.585 -3.1752 -0.3121 -0.9252
  695MOL0     H95877   6.935   5.266   1.449  0.7375  0.2043  0.0092
  695MOL0     H95878   6.691   5.167   1.612  3.5450 -1.3593  1.5872
  695MOL0     H95879   6.731   5.107   1.445  0.3107 -0.8361 -0.2750
  695MOL0     H95880   6.707   5.337   1.354 -0.2558 -0.8508 -1.0748
  695MOL0     H95881   6.622   5.372   1.502  0.8599  0.3426 -0.1641
  695MOL0     H95882   6.526   5.220   1.274 -2.3222  3.6708 -2.1153
  695MOL0     H95883   6.482   5.146   1.432 -1.1322  1.0690  1.4905
  695MOL0     H95884   6.427   5.443   1.364 -0.0350  0.5543  0.1957
  695MOL0     H95885   6.381   5.350   1.510  1.9562  0.9050  0.0313
  695MOL0     H95886   6.270   5.312   1.232 -3.3058 -2.2252 -0.8247
  695MOL0     H95887   6.196   5.352   1.396  0.9778 -0.1112 -0.6518
  695MOL0     H95888   6.211   5.129   1.461 -1.3019 -1.5789 -0.3273
  695MOL0     H95889   6.295   5.087   1.300 -1.0048  1.7046 -4.8723
  695MOL0     H95890   7.061   5.260   1.987  0.9885  0.7430  1.8987
  695MOL0     H95891   7.170   5.117   2.155 -0.0168 -0.1187  0.4047
  695MOL0     H95892   7.321   4.747   2.304 -0.6899  0.4105 -1.3484
  695MOL0     H95893   7.430   4.554   2.429 -0.5677 -5.0771 -1.4052
  695MOL0     H95894   8.436   4.024   3.015 -1.3097 -0.9609 -1.1763
  695MOL0     H95895   8.598   3.877   3.046  0.6689  0.1459  0.0408
  695MOL0     H95896   9.002   3.906   3.354  2.5041  0.2374  1.2498
  695MOL0     H95897   9.211   3.799   3.419 -2.1292 -0.5125  2.9677
  695MOL0     H95898   9.335   3.642   3.234 -0.4612 -0.7900  0.4832
  695MOL0     H95899   9.434   3.601   3.375 -1.3484  0.1733  2.4473
  695MOL0     H95900   9.485   3.503   3.147 -0.5283  1.8126 -0.1836
  695MOL0     H95901   9.333   3.416   3.153  0.4085 -0.0613 -1.1351
  695MOL0     H95902   9.536   3.384   3.376  0.8750 -1.9430  0.1059
  695MOL0     H95903   9.395   3.280   3.333 -0.5337  1.3282  2.2602
  695MOL0     H95904   9.503   3.220   3.130  2.6424  0.6136 -1.6763
  695MOL0     H95905   9.580   3.174   3.279 -4.6668 -0.5330  0.0823
  695MOL0     H95906   9.865   3.455   3.123  0.7627 -0.6204  0.0245
  695MOL0     H95907   9.052   3.420   3.267 -1.1544 -1.4723  2.4732
  695MOL0     H95908   8.753   3.453   3.222 -1.6941  2.2385 -0.5021
  695MOL0     H95909   8.781   3.566   3.094  2.2204  0.4265 -2.0765
  695MOL0     H95910   8.888   3.428   3.106  2.4257  0.1044  1.3810
  696MOL0     O95911   8.604   2.862   9.140  0.1280 -0.9907  0.2666
  696MOL0     C95912   8.723   2.863   9.173  0.5402  0.2166  0.4831
  696MOL0     O95913   8.759   2.832   9.298 -0.3202 -0.0727 -0.8401
  696MOL0     C95914   8.658   2.810   9.394  0.1479  0.4392 -0.0308
  696MOL0     C95915   8.599   2.915   9.474 -0.5568 -0.2904  0.6943
  696MOL0     C95916   8.494   2.894   9.564 -0.5792  0.2604 -0.4038
  696MOL0     C95917   8.459   2.761   9.593  0.7999  0.3885  0.8745
  696MOL0     O95918   8.368   2.718   9.689 -0.3690 -0.0886  0.0570
  696MOL0     C95919   8.296   2.822   9.749 -0.3873  0.1824 -0.1601
  696MOL0     C95920   8.203   2.750   9.843 -0.3223  0.3059 -0.7048
  696MOL0     C95921   8.156   2.849   9.949  0.1276  0.7565  0.0341
  696MOL0     C95922   8.064   2.776  10.044 -0.4961  0.4607 -0.2855
  696MOL0     C95923   7.998   2.881  10.126 -0.4702 -0.3202 -0.4139
  696MOL0     C95924   7.922   2.816  10.236  0.2002  0.2450  0.7495
  696MOL0     C95925   7.877   2.931  10.336 -0.4794 -0.0799 -0.0423
  696MOL0     C95926   7.798   2.873  10.463  0.0919 -0.1932  0.2412
  696MOL0     N95927   7.746   2.980  10.553  0.2736  0.9187  0.5238
  696MOL0     C95928   7.810   3.092  10.601 -1.0207  0.0827  0.2364
  696MOL0     C95929   7.723   3.138  10.694 -0.0285  0.8310  0.4974
  696MOL0     C95930   7.738   3.266  10.777  0.7036  0.4762 -0.3258
  696MOL0     C95931   7.619   3.308  10.868 -0.5719 -0.0470 -0.4416
  696MOL0     C95932   7.667   3.416  10.964 -0.1022 -0.6565 -0.4813
  696MOL0     C95933   7.574   3.447  11.081  0.5483 -1.0211 -0.3227
  696MOL0     O95934   7.631   3.549  11.163  0.5968  0.3135  0.1963
  696MOL0     C95935   7.595   3.562  11.296  0.6598 -0.1741  0.4500
  696MOL0     C95936   7.484   3.502  11.356 -0.1556 -0.4412 -0.4202
  696MOL0     C95937   7.464   3.515  11.498  0.2132 -0.1465  1.3093
  696MOL0     C95938   7.339   3.455  11.542 -0.8067 -0.0325  0.2682
  696MOL0     C95939   7.568   3.576  11.577 -0.7341 -0.8454  0.1854
  696MOL0     C95940   7.573   3.575  11.722 -0.5834 -0.3289 -0.6825
  696MOL0     O95941   7.517   3.467  11.783  0.1033 -0.9052  0.5422
  696MOL0     C95942   7.505   3.469  11.920  1.2763  0.0280  0.3645
  696MOL0     C95943   7.374   3.468  11.974 -0.3359 -0.0044 -0.4482
  696MOL0     C95944   7.364   3.494  12.115  1.2728 -0.2345  1.2742
  696MOL0     C95945   7.469   3.508  12.200  0.3818  0.1639 -0.6319
  696MOL0     O95946   7.454   3.541  12.334  0.4772 -0.1528  0.1886
  696MOL0     C95947   7.400   3.668  12.355  0.8012  0.3825 -0.2565
  696MOL0     C95948   7.465   3.742  12.473 -0.1427 -0.4548 -0.5777
  696MOL0     C95949   7.484   3.668  12.606  0.5133  0.2707  0.7930
  696MOL0     C95950   7.613   3.715  12.676  1.1510 -0.6573  0.0871
  696MOL0     C95951   7.632   3.658  12.816 -0.5706  0.3247 -0.0881
  696MOL0     C95952   7.687   3.514  12.825 -1.0245  0.6029 -0.3522
  696MOL0     C95953   7.720   3.464  12.968  0.0114 -0.2687 -0.6577
  696MOL0     C95954   7.764   3.322  12.965 -0.4118 -0.6053 -0.1693
  696MOL0    Cl95955   7.843   3.282  13.108  0.3384  0.0914  0.0634
  696MOL0     C95956   7.595   3.483  12.151 -0.4015  0.6065 -0.1073
  696MOL0     C95957   7.615   3.465  12.009 -0.4955  1.2341 -0.6150
  696MOL0     O95958   7.614   3.676  11.776  0.1822  0.4463 -0.6677
  696MOL0     C95959   7.668   3.650  11.513  0.3010 -1.5956  0.8214
  696MOL0     C95960   7.676   3.643  11.374 -0.6951  0.0184 -0.0369
  696MOL0     N95961   7.608   3.057  10.696  0.2675 -0.1833 -0.1613
  696MOL0     N95962   7.637   2.961  10.623  0.0524 -0.4442  0.6752
  696MOL0     C95963   8.514   2.659   9.525  0.0149  0.5762  0.0013
  696MOL0     C95964   8.615   2.678   9.423 -0.3632 -0.7887  0.1136
  696MOL0     C95965   8.829   2.892   9.064  0.2325  0.1170  0.1929
  696MOL0     C95966   8.783   2.938   8.937  0.5409  0.1435 -1.0995
  696MOL0     C95967   8.866   2.982   8.830 -0.3538  0.7055 -1.0228
  696MOL0     C95968   9.001   2.998   8.859  0.0872 -0.6464  0.2173
  696MOL0     O95969   9.096   3.048   8.777  0.2903  0.1070  0.3268
  696MOL0     C95970   9.042   3.097   8.648 -0.2697  0.4657  0.3321
  696MOL0     C95971   8.974   3.236   8.669 -0.3827 -0.1659 -0.2445
  696MOL0     C95972   8.891   3.287   8.554 -0.1065 -1.4279 -0.0112
  696MOL0     C95973   8.990   3.348   8.448  0.1052 -0.7994 -0.2439
  696MOL0     C95974   8.909   3.374   8.329  0.5892 -0.2167 -1.2538
  696MOL0     C95975   8.847   3.402   8.227 -0.0256 -0.4757 -0.8774
  696MOL0     C95976   9.043   2.953   8.978  0.0528 -0.2824 -0.3793
  696MOL0     C95977   8.965   2.892   9.076 -0.2008 -0.0927  0.0114
  696MOL0     C95978   9.040   2.819   9.183  0.2235  0.9855  0.5774
  696MOL0     H95979   8.635   3.016   9.453 -0.9684 -0.3006 -0.0975
  696MOL0     H95980   8.454   2.985   9.609  0.2497  0.9983 -1.1217
  696MOL0     H95981   8.236   2.873   9.673  0.4258  1.8417  0.2642
  696MOL0     H95982   8.360   2.888   9.808 -0.1760 -0.4666  0.3490
  696MOL0     H95983   8.123   2.700   9.787  1.1207 -2.6567 -0.2968
  696MOL0     H95984   8.259   2.672   9.895 -1.5130 -1.0565 -1.3824
  696MOL0     H95985   8.232   2.897  10.011  0.7509 -0.8522  0.5852
  696MOL0     H95986   8.096   2.917   9.888  3.1331  2.6739 -1.0039
  696MOL0     H95987   8.000   2.703   9.994  1.2857 -1.4074 -0.0021
  696MOL0     H95988   8.123   2.703  10.102 -1.4101 -0.4961 -0.5243
  696MOL0     H95989   7.944   2.944  10.054 -3.3290 -1.2682  0.7582
  696MOL0     H95990   8.073   2.943  10.175 -1.3439  1.3525 -1.1144
  696MOL0     H95991   7.832   2.775  10.189  0.2189  3.9421 -3.0707
  696MOL0     H95992   7.982   2.733  10.276  1.5038 -0.4911 -2.4430
  696MOL0     H95993   7.807   2.993  10.279 -0.0574  1.8254  1.3899
  696MOL0     H95994   7.964   2.981  10.379 -0.7444  1.0939 -0.8257
  696MOL0     H95995   7.719   2.808  10.423  1.8194 -1.7195 -0.8609
  696MOL0     H95996   7.864   2.800  10.510  1.2203 -0.0636 -1.0870
  696MOL0     H95997   7.900   3.147  10.573 -0.1371 -0.7937  1.2500
  696MOL0     H95998   7.765   3.343  10.704  0.3021 -0.2683 -1.2661
  696MOL0     H95999   7.830   3.251  10.834  0.7601 -0.2517 -0.5971
  696MOL0     H96000   7.538   3.342  10.803 -0.9753  0.2288  0.1918
  696MOL0     H96001   7.602   3.213  10.919  0.0765 -0.8790 -1.7335
  696MOL0     H96002   7.756   3.376  11.015 -0.1479 -1.8177 -1.2587
  696MOL0     H96003   7.695   3.505  10.908  0.9992 -0.5482  0.1964
  696MOL0     H96004   7.478   3.478  11.037  0.7403 -1.1395 -0.8370
  696MOL0     H96005   7.546   3.358  11.139 -1.8414  0.8284  1.5659
  696MOL0     H96006   7.409   3.447  11.301 -0.1521  1.2461 -2.2236
  696MOL0     H96007   7.347   3.346  11.537 -0.6732  0.0425 -2.4706
  696MOL0     H96008   7.257   3.490  11.479 -2.6084  0.3093  2.6614
  696MOL0     H96009   7.326   3.496  11.643 -3.9962  0.7310 -0.3574
  696MOL0     H96010   7.290   3.464  11.905 -0.0778 -1.4980 -0.7179
  696MOL0     H96011   7.274   3.489  12.176  1.3133 -1.6199  1.2596
  696MOL0     H96012   7.417   3.734  12.269  1.2985  0.7236  0.0919
  696MOL0     H96013   7.293   3.667  12.378  0.9090  0.3926  0.2592
  696MOL0     H96014   7.562   3.782  12.442 -0.5034 -0.6474 -2.0688
  696MOL0     H96015   7.395   3.824  12.490 -0.7177 -1.0953  0.2140
  696MOL0     H96016   7.486   3.560  12.595  0.6124  0.2123  1.3561
  696MOL0     H96017   7.388   3.681  12.658  0.4779  2.2150  0.3342
  696MOL0     H96018   7.598   3.823  12.687 -4.5007 -1.1629  0.4885
  696MOL0     H96019   7.697   3.696  12.609  1.4912 -1.0183  0.6138
  696MOL0     H96020   7.699   3.728  12.868  1.4154 -1.4558 -0.1039
  696MOL0     H96021   7.533   3.653  12.861 -2.2958 -1.4453 -3.6518
  696MOL0     H96022   7.785   3.505  12.777  0.0830  2.6552  1.3734
  696MOL0     H96023   7.617   3.449  12.771 -0.4034  0.4207 -0.9574
  696MOL0     H96024   7.634   3.469  13.035  0.6180 -1.3163  0.2280
  696MOL0     H96025   7.793   3.529  13.018 -1.5207 -0.0185  1.3493
  696MOL0     H96026   7.832   3.300  12.883 -0.8377  0.7093 -0.9008
  696MOL0     H96027   7.672   3.263  12.960 -0.6928 -0.3080  1.1472
  696MOL0     H96028   7.680   3.483  12.219 -1.1893  1.3891  0.8997
  696MOL0     H96029   7.712   3.450  11.964 -0.0747  3.5651 -0.6364
  696MOL0     H96030   7.733   3.708  11.578 -0.5359 -0.6200  0.8176
  696MOL0     H96031   7.767   3.680  11.329  0.5312 -2.5328  0.1137
  696MOL0     H96032   8.466   2.564   9.546  0.7129 -0.0269 -1.1001
  696MOL0     H96033   8.652   2.593   9.366 -0.4910 -1.2614  0.7157
  696MOL0     H96034   8.676   2.955   8.939  0.2466 -1.4738  1.3237
  696MOL0     H96035   8.811   3.006   8.739 -0.1628 -0.3702 -1.4379
  696MOL0     H96036   9.127   3.117   8.582 -0.6594  2.0229  0.2654
  696MOL0     H96037   8.980   3.028   8.590  0.0556  0.4920 -0.0546
  696MOL0     H96038   9.052   3.304   8.705 -0.6805 -0.3854  0.8716
  696MOL0     H96039   8.902   3.234   8.752  0.4306  2.2512  0.6056
  696MOL0     H96040   8.838   3.195   8.529 -0.8561 -0.2821 -3.1375
  696MOL0     H96041   8.815   3.362   8.576  0.0563 -0.5762 -2.1622
  696MOL0     H96042   9.079   3.284   8.436 -0.1783 -1.4863  1.0844
  696MOL0     H96043   9.017   3.446   8.488  0.4040 -1.1018  0.3095
  696MOL0     H96044   8.775   3.414   8.148 -1.6553 -1.9442  0.3069
  696MOL0     H96045   9.149   2.951   8.997 -0.1239 -0.3394  0.6538
  696MOL0     H96046   9.075   2.879   9.268  1.4943  2.3266 -0.8281
  696MOL0     H96047   8.974   2.741   9.222 -1.0683  0.9184 -1.6115
  696MOL0     H96048   9.127   2.769   9.140 -2.5336 -2.3171 -1.7450
  697MOL0     O96049   8.444   9.484  10.982  0.5165 -0.6206 -0.0831
  697MOL0     C96050   8.525   9.486  10.894  0.3374 -0.9366  0.1038
  697MOL0     O96051   8.575   9.382  10.826 -0.5910 -0.1001 -0.0686
  697MOL0     C96052   8.515   9.260  10.840  0.1450 -0.3564  0.2230
  697MOL0     C96053   8.575   9.154  10.911  0.1439  0.0007  0.2677
  697MOL0     C96054   8.515   9.026  10.920  0.7982  0.1547  0.0705
  697MOL0     C96055   8.394   8.998  10.848 -0.0666 -0.3904 -0.4113
  697MOL0     O96056   8.355   8.869  10.855  1.0014  0.1221 -0.2571
  697MOL0     C96057   8.225   8.833  10.818  0.9568  0.0630  0.4440
  697MOL0     C96058   8.221   8.806  10.668  0.2220  0.7919  0.1678
  697MOL0     C96059   8.112   8.719  10.626 -0.4770  0.5172 -0.2351
  697MOL0     C96060   7.967   8.775  10.651 -0.1823  0.6265  0.4092
  697MOL0     C96061   7.860   8.661  10.620  0.2322  0.3095  0.6694
  697MOL0     C96062   7.711   8.722  10.634  0.1665 -0.1041 -0.3808
  697MOL0     C96063   7.690   8.817  10.753 -0.1346  0.0807  0.2460
  697MOL0     C96064   7.548   8.879  10.769 -0.3054 -0.2372  0.4351
  697MOL0     N96065   7.533   8.983  10.872  0.5995  0.6013  0.3515
  697MOL0     C96066   7.547   8.964  11.006 -0.5931  1.0004  0.6194
  697MOL0     C96067   7.572   9.081  11.055 -0.8316 -0.2998  0.5584
  697MOL0     C96068   7.587   9.096  11.206  0.0687 -0.2915  0.6337
  697MOL0     C96069   7.684   9.218  11.216  0.4584  0.7983  0.0416
  697MOL0     C96070   7.722   9.245  11.358 -0.3074  0.0702 -0.1074
  697MOL0     C96071   7.822   9.358  11.379 -0.5979 -0.9907 -1.0737
  697MOL0     O96072   7.771   9.493  11.365 -0.2194 -0.7704 -0.2283
  697MOL0     C96073   7.682   9.544  11.454 -0.2228  0.6150 -0.4479
  697MOL0     C96074   7.632   9.675  11.440  0.4966  0.9243  0.4986
  697MOL0     C96075   7.528   9.728  11.521  0.2031 -0.8040  0.7781
  697MOL0     C96076   7.502   9.874  11.498 -0.5447  0.2829 -0.1584
  697MOL0     C96077   7.472   9.650  11.624  1.0009  0.6094  0.2623
  697MOL0     C96078   7.361   9.702  11.715  0.3817  0.4735 -0.0504
  697MOL0     O96079   7.294   9.812  11.676  0.4726 -0.6729  0.7908
  697MOL0     C96080   7.242   9.892  11.773 -0.1361  0.1701 -0.4034
  697MOL0     C96081   7.101   9.908  11.772 -0.3567  0.0995  0.7866
  697MOL0     C96082   7.040   9.970  11.879 -0.1627 -0.6984  0.3863
  697MOL0     C96083   7.115  10.037  11.981 -0.7046 -0.1050  0.1441
  697MOL0     O96084   7.053  10.095  12.092 -0.0005  0.0907 -0.5812
  697MOL0     C96085   6.942  10.192  12.067  0.0532 -0.0209 -0.5606
  697MOL0     C96086   6.923  10.308  12.172  0.2015 -0.7849 -0.2288
  697MOL0     C96087   7.043  10.410  12.173 -0.4053 -0.8796  0.5660
  697MOL0     C96088   7.093  10.450  12.312  0.7052 -0.4230 -0.0054
  697MOL0     C96089   7.049  10.595  12.351 -0.5596 -0.0078 -0.4013
  697MOL0     C96090   7.162  10.692  12.313  0.2022 -1.1415  0.8355
  697MOL0     C96091   7.113  10.842  12.304 -0.7968 -0.2301  0.1811
  697MOL0     C96092   7.108  10.901  12.438 -0.5315 -0.3291  0.2989
  697MOL0    Cl96093   7.013  11.053  12.428  0.3137 -0.1770  0.3037
  697MOL0     C96094   7.261  10.037  11.972  0.0595 -0.2638  1.1050
  697MOL0     C96095   7.314   9.954  11.876  0.1361 -0.0294  0.3574
  697MOL0     O96096   7.364   9.650  11.824 -0.2417  0.2078  0.5053
  697MOL0     C96097   7.535   9.528  11.648  0.5745 -0.7307 -0.1513
  697MOL0     C96098   7.631   9.477  11.567 -0.9049  0.2460 -0.3468
  697MOL0     N96099   7.556   9.176  10.955 -0.5914  0.1153 -0.3592
  697MOL0     N96100   7.533   9.115  10.840 -0.5406 -0.4599 -0.6399
  697MOL0     C96101   8.339   9.108  10.785 -0.4354  0.3899 -0.1438
  697MOL0     C96102   8.403   9.231  10.779 -0.7286 -0.2426  0.6771
  697MOL0     C96103   8.571   9.629  10.852 -1.1135  0.8392 -1.2187
  697MOL0     C96104   8.697   9.634  10.779  1.3764  0.2026 -0.7836
  697MOL0     C96105   8.763   9.751  10.759  0.0947  0.3905  0.1636
  697MOL0     C96106   8.714   9.874  10.796  0.1125  0.5327 -1.2024
  697MOL0     O96107   8.785   9.990  10.797 -0.5290  0.7674  0.0692
  697MOL0     C96108   8.720  10.108  10.751 -0.1289  0.0263  1.2435
  697MOL0     C96109   8.825  10.191  10.682 -0.0837 -0.6526  0.1234
  697MOL0     C96110   8.757  10.273  10.574 -0.4917  1.4848  0.6834
  697MOL0     C96111   8.853  10.379  10.511  0.9409  0.3250  0.1870
  697MOL0     C96112   8.965  10.318  10.434  0.0749 -0.4874 -0.8804
  697MOL0     C96113   9.054  10.266  10.365  0.2341 -0.2818 -0.5620
  697MOL0     C96114   8.586   9.874  10.863 -0.1265 -0.5707  0.3820
  697MOL0     C96115   8.514   9.751  10.900 -0.6475  0.7922  0.1559
  697MOL0     C96116   8.392   9.768  10.984  0.0844  0.0752 -0.4584
  697MOL0     H96117   8.668   9.168  10.966  0.5369 -0.6109 -0.2283
  697MOL0     H96118   8.571   8.944  10.964  2.6499 -0.8872 -3.7545
  697MOL0     H96119   8.149   8.906  10.848  2.5026  1.1246  1.9861
  697MOL0     H96120   8.194   8.740  10.866 -2.0721  0.5115 -0.4179
  697MOL0     H96121   8.205   8.902  10.617  0.2014  0.7725  0.1374
  697MOL0     H96122   8.313   8.760  10.631  0.0631  1.4788 -1.1687
  697MOL0     H96123   8.112   8.707  10.517 -0.8038 -0.7427 -0.1068
  697MOL0     H96124   8.116   8.617  10.666 -0.7011 -0.2091 -1.9620
  697MOL0     H96125   7.959   8.790  10.759  1.6232 -0.2864  0.7094
  697MOL0     H96126   7.954   8.862  10.585 -0.4783 -0.2110 -0.6517
  697MOL0     H96127   7.882   8.571  10.677 -1.8162 -1.3945 -1.0277
  697MOL0     H96128   7.892   8.633  10.519  4.4829  0.2697  1.8591
  697MOL0     H96129   7.696   8.788  10.548  1.1772  2.4388  1.2806
  697MOL0     H96130   7.642   8.637  10.626  1.9855 -1.5578 -1.5378
  697MOL0     H96131   7.758   8.901  10.734 -0.8321  1.2716  2.6389
  697MOL0     H96132   7.705   8.778  10.855 -1.9879 -1.7124 -0.0974
  697MOL0     H96133   7.515   8.933  10.680 -0.8583  0.8188  1.2692
  697MOL0     H96134   7.470   8.805  10.789 -1.9791  1.3816  0.1762
  697MOL0     H96135   7.555   8.866  11.050  1.0026 -0.4071 -2.4838
  697MOL0     H96136   7.619   9.001  11.250 -4.0344 -0.1275  4.6778
  697MOL0     H96137   7.493   9.134  11.245 -0.5465  1.2470 -2.1009
  697MOL0     H96138   7.781   9.197  11.168 -0.6319  1.5060 -2.6242
  697MOL0     H96139   7.645   9.305  11.163 -1.5118 -1.7684 -3.0398
  697MOL0     H96140   7.627   9.260  11.411 -1.1058  0.5570 -1.6161
  697MOL0     H96141   7.763   9.151  11.396  0.4690  0.3769 -0.1828
  697MOL0     H96142   7.864   9.350  11.479 -1.5474  0.7337 -0.4995
  697MOL0     H96143   7.911   9.335  11.318  0.1726  1.1981 -0.8537
  697MOL0     H96144   7.667   9.724  11.349  0.0455 -3.9037 -2.6333
  697MOL0     H96145   7.406   9.903  11.453  0.6132  2.2624 -1.4663
  697MOL0     H96146   7.579   9.911  11.430 -1.7157  1.3934 -0.9293
  697MOL0     H96147   7.496   9.917  11.598 -2.1760  1.3415 -0.6757
  697MOL0     H96148   7.043   9.872  11.688  0.6348 -2.0337  0.9617
  697MOL0     H96149   6.936   9.987  11.903 -0.0414 -0.8850  1.0560
  697MOL0     H96150   6.964  10.236  11.969  0.8046 -3.0544 -1.8725
  697MOL0     H96151   6.841  10.150  12.063 -0.7175  1.3903  2.0122
  697MOL0     H96152   6.829  10.364  12.165  1.4341  1.4412 -0.0346
  697MOL0     H96153   6.909  10.268  12.273  0.2149  0.9792  0.5178
  697MOL0     H96154   7.004  10.502  12.128 -2.4647 -1.6795  0.5718
  697MOL0     H96155   7.121  10.373  12.107  2.1043  1.1038  2.2313
  697MOL0     H96156   7.202  10.446  12.314  0.8608  0.9044 -2.3616
  697MOL0     H96157   7.051  10.375  12.380 -3.0146 -1.5257 -3.0991
  697MOL0     H96158   6.947  10.616  12.317 -1.3972 -2.0976  0.5997
  697MOL0     H96159   7.045  10.600  12.461  3.7505  1.1604 -0.1077
  697MOL0     H96160   7.177  10.674  12.206  0.7710  0.5231  0.6215
  697MOL0     H96161   7.250  10.664  12.371 -0.0142 -0.7881  1.3431
  697MOL0     H96162   7.016  10.845  12.253 -0.1111  2.9623 -1.1676
  697MOL0     H96163   7.178  10.894  12.233  0.7229  0.5461  2.0790
  697MOL0     H96164   7.206  10.939  12.470  0.1085 -0.0239 -1.8758
  697MOL0     H96165   7.070  10.832  12.514  3.3133 -2.9377  0.1533
  697MOL0     H96166   7.313  10.091  12.050 -2.1971  0.7047  2.0369
  697MOL0     H96167   7.421   9.935  11.869 -0.0581 -0.5554 -4.0015
  697MOL0     H96168   7.508   9.479  11.741 -1.6425  4.7962  2.6159
  697MOL0     H96169   7.675   9.381  11.593  0.2674  0.5924 -0.9621
  697MOL0     H96170   8.245   9.097  10.730 -1.2545 -0.7791  1.4230
  697MOL0     H96171   8.353   9.315  10.730  2.2685  0.5866 -1.2225
  697MOL0     H96172   8.738   9.541  10.740  0.8024  0.0152 -0.9503
  697MOL0     H96173   8.862   9.745  10.715 -1.5920 -3.8046 -4.0082
  697MOL0     H96174   8.627  10.088  10.696  0.3669  0.4683  0.2233
  697MOL0     H96175   8.686  10.147  10.848 -1.1270  0.0948  0.8774
  697MOL0     H96176   8.908  10.126  10.651  0.1916 -1.7692  2.8553
  697MOL0     H96177   8.872  10.261  10.753 -0.6677 -0.7138  0.5794
  697MOL0     H96178   8.711  10.211  10.496  0.9282  0.3709  0.7003
  697MOL0     H96179   8.681  10.338  10.621 -1.4041  1.9072 -1.2722
  697MOL0     H96180   8.901  10.446  10.582  3.3006  2.5211 -3.1537
  697MOL0     H96181   8.784  10.436  10.449 -0.5469  0.9603  2.3324
  697MOL0     H96182   9.126  10.221  10.300 -1.2411  0.4727 -2.8631
  697MOL0     H96183   8.554   9.969  10.903 -1.0286  0.0889 -1.7693
  697MOL0     H96184   8.327   9.685  10.956  0.0940  0.1866 -0.8059
  697MOL0     H96185   8.410   9.761  11.092  0.5767 -1.6099 -0.6265
  697MOL0     H96186   8.332   9.855  10.955 -1.6130 -1.3358 -1.3817
  698MOL0     O96187   4.372   4.630   1.715  0.3706 -0.0146  0.9617
  698MOL0     C96188   4.465   4.656   1.638 -0.5898  0.0628  1.2555
  698MOL0     O96189   4.462   4.693   1.510  0.1860  0.8972 -1.1532
  698MOL0     C96190   4.338   4.676   1.448 -0.7591 -0.6488 -0.7473
  698MOL0     C96191   4.246   4.785   1.454  0.3732 -0.1710 -0.3235
  698MOL0     C96192   4.122   4.777   1.383  0.0211 -0.1062 -0.4491
  698MOL0     C96193   4.089   4.670   1.301 -0.3361 -0.1542 -0.2533
  698MOL0     O96194   3.972   4.658   1.231 -0.7790  0.2362 -0.3259
  698MOL0     C96195   3.906   4.778   1.194  0.5963  0.2353  0.2790
  698MOL0     C96196   3.783   4.739   1.121 -0.0782  1.0016  0.5336
  698MOL0     C96197   3.691   4.688   1.223  0.3378  0.3835 -0.2986
  698MOL0     C96198   3.549   4.648   1.164 -0.3284  0.7612  0.0435
  698MOL0     C96199   3.477   4.765   1.114  0.7949 -0.0279  0.4402
  698MOL0     C96200   3.449   4.860   1.223  0.2465 -0.4772  0.8218
  698MOL0     C96201   3.313   4.928   1.206 -0.9653  0.3061 -0.1007
  698MOL0     C96202   3.291   4.998   1.072 -0.3463 -0.3599 -0.1084
  698MOL0     N96203   3.377   5.117   1.050 -1.0348  0.6091  0.2436
  698MOL0     C96204   3.506   5.119   0.990  0.4726  0.0394  0.1384
  698MOL0     C96205   3.572   5.222   1.048 -0.6113  0.0880  0.0594
  698MOL0     C96206   3.714   5.270   1.021  0.0425 -0.4160  0.7067
  698MOL0     C96207   3.710   5.368   0.904  0.4980  0.4729  0.0967
  698MOL0     C96208   3.688   5.296   0.767 -0.6953  0.5550 -0.4580
  698MOL0     C96209   3.669   5.392   0.656  0.2817  1.2120 -0.4021
  698MOL0     O96210   3.791   5.453   0.614 -0.1579 -0.6070  0.7212
  698MOL0     C96211   3.873   5.401   0.519  0.3465 -1.1518  0.7914
  698MOL0     C96212   3.867   5.281   0.460 -0.3611 -0.2593 -0.7992
  698MOL0     C96213   3.956   5.247   0.353  0.3218  0.3374  0.4085
  698MOL0     C96214   3.936   5.104   0.311 -0.1320 -0.3499 -0.0849
  698MOL0     C96215   4.056   5.333   0.303  0.6093 -0.3028 -0.0240
  698MOL0     C96216   4.152   5.294   0.202 -0.9999 -0.6381  0.1558
  698MOL0     O96217   4.155   5.172   0.149  0.1683  0.5268 -0.2956
  698MOL0     C96218   4.267   5.127   0.086  0.1401  0.2807  0.7084
  698MOL0     C96219   4.242   5.036  -0.015  0.5168  0.0666  0.3560
  698MOL0     C96220   4.349   4.966  -0.077 -0.8992  0.6479  0.2896
  698MOL0     C96221   4.479   5.000  -0.029  0.0297  0.1297 -0.0093
  698MOL0     O96222   4.597   4.935  -0.072  0.1839 -0.0093 -0.5399
  698MOL0     C96223   4.577   4.791  -0.089 -0.7821  0.0584  0.4553
  698MOL0     C96224   4.709   4.726  -0.056  0.4498 -1.0680  0.3927
  698MOL0     C96225   4.749   4.757   0.087 -0.1769 -0.4118  0.5800
  698MOL0     C96226   4.875   4.669   0.124  0.3540 -0.3220  0.7513
  698MOL0     C96227   4.931   4.701   0.263 -0.0830  0.3785 -0.2535
  698MOL0     C96228   5.013   4.589   0.328 -0.5242  0.0589  0.6569
  698MOL0     C96229   5.136   4.560   0.236 -0.3177 -0.7776 -0.8468
  698MOL0     C96230   5.245   4.479   0.309  0.0854 -0.2192  1.1826
  698MOL0    Cl96231   5.367   4.440   0.169 -0.1676 -0.3852  0.6169
  698MOL0     C96232   4.500   5.095   0.077  0.0159  0.1344 -0.3680
  698MOL0     C96233   4.397   5.159   0.134 -0.2228  0.5834  0.9759
  698MOL0     O96234   4.225   5.387   0.160  0.3449  1.5759  0.3477
  698MOL0     C96235   4.056   5.458   0.369 -0.4657  0.8157 -0.9095
  698MOL0     C96236   3.968   5.497   0.473 -0.2877  0.8763  0.6201
  698MOL0     N96237   3.474   5.289   1.120 -0.1509 -0.0816 -0.1115
  698MOL0     N96238   3.359   5.229   1.123 -0.4102 -0.6769  0.0530
  698MOL0     C96239   4.174   4.554   1.304  0.4610 -1.7047  0.1164
  698MOL0     C96240   4.301   4.565   1.371  0.8578  0.0244  0.5465
  698MOL0     C96241   4.606   4.621   1.672 -0.2158 -0.1205 -0.5102
  698MOL0     C96242   4.691   4.557   1.583  0.0441 -0.2506 -0.0103
  698MOL0     C96243   4.821   4.522   1.621  0.2442  1.2562  0.4721
  698MOL0     C96244   4.876   4.553   1.742 -0.7252  0.1417 -0.4288
  698MOL0     O96245   5.000   4.510   1.785 -0.6403  0.7310 -0.6437
  698MOL0     C96246   5.108   4.442   1.710  0.6389 -0.1553 -0.3951
  698MOL0     C96247   5.201   4.539   1.642  0.6067 -0.9396 -1.5147
  698MOL0     C96248   5.128   4.598   1.519 -0.3282 -0.0189 -0.2896
  698MOL0     C96249   5.221   4.693   1.435 -0.2338  0.2520  0.2070
  698MOL0     C96250   5.261   4.821   1.493 -0.5732  0.1563  0.5295
  698MOL0     C96251   5.306   4.920   1.539 -0.5240 -0.3189  0.5553
  698MOL0     C96252   4.799   4.635   1.825 -0.1190  0.3581 -1.0207
  698MOL0     C96253   4.667   4.666   1.798 -0.5500  0.5708  0.2341
  698MOL0     C96254   4.584   4.744   1.898 -0.2118  0.3612  0.4596
  698MOL0     H96255   4.269   4.871   1.515 -2.8290  1.2063 -0.8503
  698MOL0     H96256   4.057   4.861   1.407  1.5752  0.2884  2.8520
  698MOL0     H96257   3.968   4.832   1.122 -0.9204  1.8642  0.1109
  698MOL0     H96258   3.897   4.846   1.279  2.0536  0.1625  0.5212
  698MOL0     H96259   3.741   4.827   1.072  0.6853  1.0615 -0.0435
  698MOL0     H96260   3.794   4.662   1.045 -4.8802 -1.7783  2.2437
  698MOL0     H96261   3.726   4.592   1.262  0.7314  0.1307 -1.2223
  698MOL0     H96262   3.679   4.746   1.314  3.0988 -1.3886  1.3425
  698MOL0     H96263   3.561   4.577   1.082 -0.3840 -0.3328  0.9476
  698MOL0     H96264   3.488   4.598   1.240  3.7071  0.2013  3.2483
  698MOL0     H96265   3.397   4.715   1.059  1.1774 -1.6907  1.3387
  698MOL0     H96266   3.533   4.821   1.038  0.6943 -1.2828 -0.5908
  698MOL0     H96267   3.435   4.812   1.320  0.1964  1.5706  1.8862
  698MOL0     H96268   3.530   4.933   1.220  0.0170 -0.2217 -1.5569
  698MOL0     H96269   3.308   4.996   1.291 -1.7150 -0.0196  0.1225
  698MOL0     H96270   3.232   4.858   1.230 -0.8555  0.6919  1.5038
  698MOL0     H96271   3.319   4.935   0.987  0.1464  1.3452 -1.2775
  698MOL0     H96272   3.186   5.026   1.062 -0.2589 -0.4923 -1.6024
  698MOL0     H96273   3.532   5.032   0.930  0.0564 -1.6167  2.2182
  698MOL0     H96274   3.784   5.190   0.997  0.7102  1.0388 -2.7887
  698MOL0     H96275   3.746   5.326   1.110 -0.2399  1.5352 -0.3497
  698MOL0     H96276   3.642   5.453   0.917  1.2974  1.2488 -0.6607
  698MOL0     H96277   3.806   5.419   0.904  0.2064  1.1055  2.0992
  698MOL0     H96278   3.774   5.229   0.754  0.4906  2.4778 -3.2114
  698MOL0     H96279   3.590   5.247   0.779 -1.0066  1.3537  0.4086
  698MOL0     H96280   3.619   5.340   0.574  0.9115 -2.0258  1.1438
  698MOL0     H96281   3.597   5.463   0.696  1.1727  0.6649  2.4045
  698MOL0     H96282   3.794   5.206   0.489  1.2517 -2.3956 -1.9358
  698MOL0     H96283   3.843   5.064   0.353 -1.6203  2.5810 -0.3295
  698MOL0     H96284   4.023   5.040   0.325 -0.1335 -1.4804 -3.9326
  698MOL0     H96285   3.924   5.115   0.202  0.7660 -0.6904 -0.2282
  698MOL0     H96286   4.140   5.016  -0.046 -0.9126  1.7850  3.4969
  698MOL0     H96287   4.336   4.894  -0.157 -1.4979  2.2262 -1.0910
  698MOL0     H96288   4.492   4.753  -0.032 -2.8518  3.5667 -0.0164
  698MOL0     H96289   4.569   4.771  -0.196  1.9487  0.6228  0.0736
  698MOL0     H96290   4.692   4.619  -0.072  0.8787 -0.9739 -0.7950
  698MOL0     H96291   4.788   4.757  -0.125 -0.2127 -0.8014 -0.2696
  698MOL0     H96292   4.668   4.731   0.156  0.9300  0.1344  2.1365
  698MOL0     H96293   4.777   4.862   0.102 -0.1584 -0.2454 -0.5832
  698MOL0     H96294   4.946   4.671   0.041 -2.7865 -2.1155 -2.2173
  698MOL0     H96295   4.835   4.568   0.119 -0.9185  0.0775  2.0399
  698MOL0     H96296   4.997   4.788   0.254 -0.4118  0.4484 -2.8988
  698MOL0     H96297   4.840   4.722   0.318  0.3458  1.1853  0.1729
  698MOL0     H96298   4.959   4.495   0.340  2.0346 -1.3463  1.9488
  698MOL0     H96299   5.050   4.630   0.423  0.6822  4.3125 -1.4174
  698MOL0     H96300   5.172   4.655   0.196  1.7974 -1.9958 -1.9970
  698MOL0     H96301   5.100   4.494   0.156 -2.5495 -3.3446  2.0011
  698MOL0     H96302   5.211   4.387   0.357  0.5883 -0.5937  0.8384
  698MOL0     H96303   5.278   4.537   0.396 -0.8740 -2.8913  3.4833
  698MOL0     H96304   4.598   5.115   0.118 -0.7387 -0.3888  1.8085
  698MOL0     H96305   4.419   5.235   0.208 -1.4568  1.3934  0.5468
  698MOL0     H96306   4.129   5.533   0.338 -0.1990 -0.1679 -2.8284
  698MOL0     H96307   3.986   5.595   0.517 -0.2003  2.2874 -2.3266
  698MOL0     H96308   4.147   4.460   1.257 -1.7819 -0.6370 -0.8821
  698MOL0     H96309   4.364   4.477   1.360 -0.0342 -0.4423 -1.2827
  698MOL0     H96310   4.648   4.531   1.486 -1.2780 -0.5472  0.6357
  698MOL0     H96311   4.878   4.454   1.558  1.3664  0.5243  2.1884
  698MOL0     H96312   5.166   4.398   1.792  0.6077  2.3512  1.0649
  698MOL0     H96313   5.078   4.363   1.641  1.8077  1.0256 -2.3630
  698MOL0     H96314   5.294   4.488   1.615  1.5714  0.3671 -0.7734
  698MOL0     H96315   5.219   4.622   1.710  3.2418 -0.5652 -2.5527
  698MOL0     H96316   5.106   4.514   1.452 -0.5477  0.8193 -1.3062
  698MOL0     H96317   5.039   4.652   1.553 -0.2254 -0.1652  0.2196
  698MOL0     H96318   5.168   4.725   1.344  2.1319  0.1095 -1.3069
  698MOL0     H96319   5.301   4.633   1.393 -1.8365 -0.9259 -1.3295
  698MOL0     H96320   5.337   5.020   1.559 -2.1827  0.4006 -0.1964
  698MOL0     H96321   4.851   4.671   1.913  4.4943 -0.3113 -3.1573
  698MOL0     H96322   4.548   4.832   1.844 -0.6321  1.0775  1.8460
  698MOL0     H96323   4.496   4.691   1.934 -0.5094  0.8364  0.4319
  698MOL0     H96324   4.647   4.770   1.984 -0.0814 -3.1528  1.5672
  699MOL0     O96325   8.827  10.408   8.575 -0.3056  0.0686 -0.0375
  699MOL0     C96326   8.706  10.378   8.608 -0.3737 -0.0399  0.6942
  699MOL0     O96327   8.629  10.283   8.532  0.1751  0.5243  0.9969
  699MOL0     C96328   8.685  10.257   8.410  0.9906  0.6331  0.2160
  699MOL0     C96329   8.774  10.154   8.382  0.5974  0.7722  1.1081
  699MOL0     C96330   8.819  10.142   8.248  0.3035 -0.1472 -0.1142
  699MOL0     C96331   8.775  10.221   8.147 -0.0370  1.0681  0.7947
  699MOL0     O96332   8.825  10.232   8.023  0.4044  0.4195 -0.0980
  699MOL0     C96333   8.888  10.125   7.952 -0.1430  0.3926 -0.5435
  699MOL0     C96334   8.881  10.157   7.798  0.2722  0.1101 -0.8052
  699MOL0     C96335   8.958  10.275   7.752  0.2375 -0.2554  0.6063
  699MOL0     C96336   8.910  10.341   7.616  0.3343  0.0524 -0.6535
  699MOL0     C96337   8.851  10.483   7.617  0.4075  0.2673 -0.2858
  699MOL0     C96338   8.795  10.532   7.486 -0.1583 -0.6686 -0.3075
  699MOL0     C96339   8.898  10.520   7.370 -0.2798 -0.0700  0.3071
  699MOL0     C96340   8.839  10.587   7.246  0.3937 -0.2245  0.4877
  699MOL0     N96341   8.942  10.632   7.159 -0.0011  0.1132  0.1167
  699MOL0     C96342   9.020  10.742   7.177 -0.8947 -0.0470 -0.5499
  699MOL0     C96343   9.079  10.765   7.057 -0.3640 -0.4448 -0.2010
  699MOL0     C96344   9.187  10.869   7.027  0.2302  0.4657  0.6015
  699MOL0     C96345   9.329  10.826   6.978 -0.7590 -0.2258 -0.2544
  699MOL0     C96346   9.427  10.937   7.016 -0.1912 -0.3924  0.1240
  699MOL0     C96347   9.449  10.953   7.169 -0.5379 -0.4105 -0.3699
  699MOL0     O96348   9.492  10.818   7.229 -1.0216  0.2337  0.5164
  699MOL0     C96349   9.521  10.778   7.358  0.4231  0.1282 -0.2174
  699MOL0     C96350   9.621  10.681   7.393  1.2283 -0.3051 -0.6085
  699MOL0     C96351   9.662  10.663   7.527 -0.0199  0.0242  0.7644
  699MOL0     C96352   9.762  10.552   7.555  0.4522  0.7428  0.3347
  699MOL0     C96353   9.600  10.741   7.622 -0.1913  0.5799  0.2857
  699MOL0     C96354   9.649  10.723   7.764 -0.0187 -0.9173 -0.7342
  699MOL0     O96355   9.613  10.609   7.827 -0.5680  0.0661 -0.3465
  699MOL0     C96356   9.642  10.600   7.963 -0.4725 -1.4339 -0.0006
  699MOL0     C96357   9.755  10.524   8.009 -0.6426  0.2199  0.5446
  699MOL0     C96358   9.781  10.506   8.144  0.0356 -0.1857 -0.2184
  699MOL0     C96359   9.698  10.575   8.232  0.4531  0.8015  0.3789
  699MOL0     O96360   9.746  10.575   8.359  0.3779  0.6586  0.0139
  699MOL0     C96361   9.701  10.672   8.454  0.4564 -0.0273 -0.2887
  699MOL0     C96362   9.758  10.660   8.602 -0.0177  0.0876 -1.3138
  699MOL0     C96363   9.699  10.523   8.651  0.3952 -0.2157 -0.1901
  699MOL0     C96364   9.724  10.506   8.796  0.2469 -0.1324 -0.4755
  699MOL0     C96365   9.689  10.359   8.851 -0.5536  0.8655  0.6003
  699MOL0     C96366   9.542  10.331   8.878 -0.6856  0.0657 -0.2294
  699MOL0     C96367   9.486  10.426   8.985 -0.9574  0.2122 -0.6214
  699MOL0     C96368   9.336  10.428   8.969  0.5618 -0.9099 -0.5463
  699MOL0    Cl96369   9.260  10.512   9.109  0.2212 -0.3283  0.2421
  699MOL0     C96370   9.590  10.653   8.183  0.4979 -0.5451 -0.2525
  699MOL0     C96371   9.564  10.671   8.054  0.1882  0.2910  1.4284
  699MOL0     O96372   9.696  10.821   7.818 -0.5111 -0.2691 -0.3531
  699MOL0     C96373   9.506  10.836   7.596 -0.2101 -0.1845  0.5379
  699MOL0     C96374   9.465  10.846   7.462 -0.2826  0.5758 -0.0422
  699MOL0     N96375   9.026  10.677   6.970 -1.1559 -0.3850  0.3916
  699MOL0     N96376   8.955  10.590   7.033 -0.0085  0.4514 -0.2221
  699MOL0     C96377   8.674  10.316   8.171 -0.7143  0.1212 -0.3137
  699MOL0     C96378   8.631  10.340   8.299 -0.0851 -0.0053 -0.1357
  699MOL0     C96379   8.652  10.429   8.735  0.3724  0.2625 -0.0207
  699MOL0     C96380   8.463  10.352   8.803 -0.3154  0.5137 -0.0081
  699MOL0     C96381   8.386  10.417   8.986 -0.3322 -0.7250 -0.1000
  699MOL0     C96382   8.495  10.558   9.104  0.3859  0.5422  0.0015
  699MOL0     O96383   8.446  10.602   9.224 -0.1920 -0.5129 -0.4777
  699MOL0     C96384   8.352  10.509   9.279  0.1908  0.2600 -0.0321
  699MOL0     C96385   8.337  10.559   9.422 -0.9064  0.4651 -0.5095
  699MOL0     C96386   8.439  10.510   9.519  0.2591 -0.1626  0.6464
  699MOL0     C96387   8.489  10.370   9.500  0.1845 -0.2191  0.2128
  699MOL0     C96388   8.542  10.323   9.624  0.1109 -0.7984 -0.3766
  699MOL0     C96389   8.578  10.266   9.722  0.0465 -0.6571  0.0606
  699MOL0     C96390   8.680  10.633   9.035  0.2111 -0.6184  0.4721
  699MOL0     C96391   8.757  10.573   8.852 -0.7457  0.2476 -0.1215
  699MOL0     C96392   8.893  10.618   8.828  0.0168 -0.8355 -0.0781
  699MOL0     H96393   8.794  10.094   8.470  0.9696  1.7047  1.6833
  699MOL0     H96394   8.903  10.076   8.233 -0.2481 -0.3483 -2.7842
  699MOL0     H96395   8.851  10.024   7.971  4.2237 -1.2229  0.6185
  699MOL0     H96396   8.993  10.111   7.979  0.5081 -1.3383 -3.5488
  699MOL0     H96397   8.916  10.073   7.738 -1.0978 -1.5967  0.6835
  699MOL0     H96398   8.774  10.171   7.781 -0.6625  0.7509  4.0143
  699MOL0     H96399   8.957  10.347   7.834  0.0203 -0.8101  1.0994
  699MOL0     H96400   9.063  10.250   7.731  0.8807  0.7588  2.3325
  699MOL0     H96401   8.992  10.350   7.543  0.7227  4.1311  0.0678
  699MOL0     H96402   8.829  10.281   7.574  0.1386 -0.3870  0.3363
  699MOL0     H96403   8.923  10.557   7.651  0.6726 -0.5824  1.0701
  699MOL0     H96404   8.776  10.485   7.696 -1.5028  0.3548 -2.0213
  699MOL0     H96405   8.708  10.473   7.455  1.7723 -4.5044  0.9039
  699MOL0     H96406   8.770  10.635   7.511 -1.7467 -1.6338  2.4471
  699MOL0     H96407   8.933  10.422   7.338  0.5777  0.6249 -0.9748
  699MOL0     H96408   8.978  10.587   7.404 -0.9731  0.9107  0.0726
  699MOL0     H96409   8.769  10.520   7.194 -0.7207  1.1818  0.1127
  699MOL0     H96410   8.787  10.674   7.287  0.1466 -1.0754  2.0707
  699MOL0     H96411   9.026  10.809   7.262 -2.8817 -2.7751  1.9728
  699MOL0     H96412   9.195  10.942   7.108  0.3970  2.8990 -1.4822
  699MOL0     H96413   9.147  10.929   6.945  0.3252  0.6166  0.6650
  699MOL0     H96414   9.359  10.731   7.024  0.5950 -0.6467 -1.8912
  699MOL0     H96415   9.330  10.803   6.871 -0.1640 -0.9629 -0.0984
  699MOL0     H96416   9.527  10.926   6.972 -1.2706 -2.0442 -2.1008
  699MOL0     H96417   9.401  11.036   6.978  0.7715 -0.2173 -0.1081
  699MOL0     H96418   9.521  11.031   7.196  0.6109 -1.9215  1.1814
  699MOL0     H96419   9.360  10.991   7.220  0.4475  2.8746 -0.8544
  699MOL0     H96420   9.651  10.619   7.310  0.2405 -1.3083 -0.2450
  699MOL0     H96421   9.785  10.524   7.658  3.5063 -2.2565 -0.9889
  699MOL0     H96422   9.855  10.571   7.501  0.5414  1.0409  0.5885
  699MOL0     H96423   9.712  10.464   7.514 -0.7548  0.5120  2.1837
  699MOL0     H96424   9.811  10.465   7.937 -1.9095  0.0147 -0.3160
  699MOL0     H96425   9.865  10.445   8.176  0.3878  0.3799 -0.0475
  699MOL0     H96426   9.743  10.761   8.407  2.4281  0.8218  2.7661
  699MOL0     H96427   9.593  10.689   8.464 -0.3489 -3.6037 -1.5526
  699MOL0     H96428   9.868  10.656   8.602 -0.0065  0.3259 -0.5058
  699MOL0     H96429   9.722  10.743   8.663  1.0059 -1.0307  0.9198
  699MOL0     H96430   9.748  10.444   8.593 -0.8273  1.7095 -4.2232
  699MOL0     H96431   9.591  10.518   8.637 -0.0092  0.1911  2.4017
  699MOL0     H96432   9.675  10.589   8.848  0.9292  3.4363 -4.8764
  699MOL0     H96433   9.831  10.522   8.808  0.0587  0.9727 -0.1152
  699MOL0     H96434   9.720  10.287   8.775 -0.6715 -0.5591  1.8627
  699MOL0     H96435   9.753  10.346   8.939  0.1821  1.4129  0.1640
  699MOL0     H96436   9.527  10.236   8.930 -1.2370  0.8634  1.1417
  699MOL0     H96437   9.473  10.333   8.793 -0.7675  0.8824 -0.1583
  699MOL0     H96438   9.513  10.532   8.990 -2.8554  0.7934  4.7558
  699MOL0     H96439   9.516  10.371   9.075 -1.9925 -1.5366 -1.2880
  699MOL0     H96440   9.294  10.327   8.966 -0.6550 -0.4619  0.2441
  699MOL0     H96441   9.314  10.492   8.883  2.3748 -1.2338 -1.2804
  699MOL0     H96442   9.519  10.689   8.256  1.1257 -2.3450  1.3090
  699MOL0     H96443   9.488  10.744   8.032  0.1775 -0.8263 -3.1600
  699MOL0     H96444   9.464  10.894   7.677 -2.6007 -2.1473  0.8501
  699MOL0     H96445   9.387  10.922   7.461  1.5433  2.6341  1.7596
  699MOL0     H96446   8.630  10.366   8.085 -1.9633 -0.9101 -0.2960
  699MOL0     H96447   8.554  10.414   8.320 -1.7689 -1.6261 -0.3397
  699MOL0     H96448   8.400  10.282   8.749 -1.3357 -0.8136  2.7177
  699MOL0     H96449   8.301  10.367   9.031  1.1927 -2.1062  1.4433
  699MOL0     H96450   8.264  10.533   9.218 -0.6275  1.7331  1.6466
  699MOL0     H96451   8.384  10.405   9.273 -0.8161 -0.0146 -0.7378
  699MOL0     H96452   8.236  10.526   9.449 -0.6800 -0.2111 -0.4672
  699MOL0     H96453   8.343  10.668   9.419  1.4151  0.5302  2.2528
  699MOL0     H96454   8.527  10.575   9.510  1.2269 -1.0341  2.9588
  699MOL0     H96455   8.397  10.519   9.619  1.7184 -2.1216  1.5263
  699MOL0     H96456   8.562  10.373   9.419 -2.1770  3.2157 -2.0462
  699MOL0     H96457   8.407  10.304   9.471  3.3183 -3.5259 -2.0102
  699MOL0     H96458   8.596  10.209   9.811 -0.2943  0.3882  0.8110
  699MOL0     H96459   8.736  10.699   9.100  0.6445 -1.9234  1.4715
  699MOL0     H96460   8.894  10.722   8.863 -2.1768 -1.4751  2.1676
  699MOL0     H96461   8.961  10.554   8.886 -0.8689 -1.9033 -0.1851
  699MOL0     H96462   8.914  10.624   8.721 -3.1671  1.4668 -0.7318
  700MOL0     O96463   8.615   7.588   4.063 -0.6658  0.7482 -0.7816
  700MOL0     C96464   8.560   7.577   4.175 -0.0023 -0.5971  0.9288
  700MOL0     O96465   8.453   7.506   4.204 -0.6530 -0.2673  0.4894
  700MOL0     C96466   8.384   7.442   4.109  0.5840 -0.8110  0.1417
  700MOL0     C96467   8.247   7.464   4.099 -0.1001  0.1778 -0.0347
  700MOL0     C96468   8.167   7.398   4.001 -0.5171 -0.0931  0.5841
  700MOL0     C96469   8.208   7.294   3.919  0.2261 -0.1694 -0.0840
  700MOL0     O96470   8.118   7.236   3.835 -0.1708  0.0387  0.6457
  700MOL0     C96471   8.164   7.203   3.708  0.0674  0.2621 -0.0763
  700MOL0     C96472   8.052   7.210   3.613  0.5047 -0.2832  0.8083
  700MOL0     C96473   8.074   7.127   3.490 -1.0448  0.2952  0.1084
  700MOL0     C96474   8.161   7.196   3.390  0.4056 -0.8184  1.0582
  700MOL0     C96475   8.156   7.120   3.259 -0.0474 -0.2164  1.1914
  700MOL0     C96476   8.218   7.203   3.139  0.6660 -0.4363  0.6305
  700MOL0     C96477   8.210   7.114   3.026  0.4474  0.2414  1.0556
  700MOL0     C96478   8.252   7.173   2.895  0.5965  0.7823 -0.8737
  700MOL0     N96479   8.257   7.064   2.799  0.0411  0.9856  0.6029
  700MOL0     C96480   8.148   7.008   2.726 -1.0732  0.8129  0.1094
  700MOL0     C96481   8.197   6.901   2.654  0.0497 -0.9456 -0.8277
  700MOL0     C96482   8.108   6.830   2.565 -0.9858 -1.1056 -0.1915
  700MOL0     C96483   8.122   6.676   2.591  0.3345 -0.5439  0.1341
  700MOL0     C96484   8.041   6.583   2.504  0.8954 -0.8914 -0.9417
  700MOL0     C96485   8.101   6.598   2.363  0.1744  0.3370  0.4767
  700MOL0     O96486   8.044   6.511   2.273  0.2042 -0.2273 -0.2236
  700MOL0     C96487   8.082   6.377   2.286 -0.9012  0.4122  0.5891
  700MOL0     C96488   7.995   6.273   2.281  0.7501  0.0589  0.0826
  700MOL0     C96489   8.038   6.138   2.287 -0.0080  0.4531  0.3495
  700MOL0     C96490   7.933   6.037   2.294  1.4085 -0.8377  0.4344
  700MOL0     C96491   8.177   6.115   2.287 -1.0772  1.2166  0.4989
  700MOL0     C96492   8.238   5.975   2.296  0.8512  0.0768 -1.0640
  700MOL0     O96493   8.370   5.958   2.253  0.4833  0.2393 -0.6616
  700MOL0     C96494   8.413   5.830   2.260 -0.6182 -0.9183 -0.6158
  700MOL0     C96495   8.485   5.793   2.375 -0.9642 -0.8038  0.4214
  700MOL0     C96496   8.563   5.676   2.371 -0.4404 -0.7947  0.0796
  700MOL0     C96497   8.547   5.577   2.273 -0.3946  0.1094 -0.3792
  700MOL0     O96498   8.625   5.461   2.284 -0.7132  0.9268 -0.8575
  700MOL0     C96499   8.595   5.364   2.186  0.8093 -0.9466 -0.3503
  700MOL0     C96500   8.680   5.241   2.211 -0.3903  0.1112 -0.0828
  700MOL0     C96501   8.611   5.112   2.157 -0.2524  0.1338  0.1353
  700MOL0     C96502   8.507   5.058   2.256  0.3571 -0.0534 -0.5683
  700MOL0     C96503   8.564   4.990   2.387 -0.7619 -0.1363  0.8621
  700MOL0     C96504   8.467   4.912   2.478 -0.4925  0.8837 -0.3219
  700MOL0     C96505   8.550   4.879   2.611 -0.8529  0.7981 -0.7753
  700MOL0     C96506   8.653   4.770   2.604 -1.0486 -0.1239 -0.0139
  700MOL0    Cl96507   8.594   4.620   2.528 -0.0476 -0.1603  0.3899
  700MOL0     C96508   8.456   5.605   2.165  0.5968  0.7246 -0.2493
  700MOL0     C96509   8.392   5.732   2.162  0.6274 -0.8152 -1.0353
  700MOL0     O96510   8.169   5.882   2.347  0.1790 -0.0928  0.2525
  700MOL0     C96511   8.267   6.218   2.292 -0.1714 -0.0018 -0.8306
  700MOL0     C96512   8.222   6.346   2.283  1.0546 -0.3967  1.1729
  700MOL0     N96513   8.330   6.899   2.675 -0.6125  0.0351  0.3088
  700MOL0     N96514   8.368   6.994   2.764  0.7152  0.4464 -0.3399
  700MOL0     C96515   8.349   7.258   3.940  0.4694  0.2143  0.7049
  700MOL0     C96516   8.431   7.330   4.027  0.0901  0.4828  0.1820
  700MOL0     C96517   8.627   7.650   4.286 -0.0292  1.3940 -0.5348
  700MOL0     C96518   8.709   7.755   4.258 -1.0371 -0.5793 -0.4817
  700MOL0     C96519   8.779   7.816   4.357 -0.8481 -1.6882  0.2647
  700MOL0     C96520   8.775   7.765   4.491 -0.2576  0.7907 -0.8983
  700MOL0     O96521   8.842   7.813   4.600 -0.0426 -0.3057  0.2861
  700MOL0     C96522   8.962   7.899   4.567  1.0226 -0.2819 -0.3874
  700MOL0     C96523   9.043   7.897   4.708 -0.4852 -0.7858  0.3581
  700MOL0     C96524   9.016   8.008   4.808 -0.6029 -0.0383 -0.0263
  700MOL0     C96525   9.076   7.964   4.940 -0.2544 -1.2740 -0.2472
  700MOL0     C96526   9.042   8.054   5.049  0.7921 -0.4029 -0.0460
  700MOL0     C96527   9.021   8.130   5.144 -0.4260 -0.6647  0.9499
  700MOL0     C96528   8.715   7.647   4.518  0.1364 -0.6527 -0.0540
  700MOL0     C96529   8.631   7.600   4.423  0.4788  0.2809  0.8524
  700MOL0     C96530   8.537   7.479   4.471  0.0066 -0.9020  0.5278
  700MOL0     H96531   8.203   7.536   4.167  1.1706 -1.8521  3.1630
  700MOL0     H96532   8.066   7.437   3.995  0.1096  1.4993 -0.2656
  700MOL0     H96533   8.210   7.104   3.714  3.3111  1.6120 -0.8703
  700MOL0     H96534   8.235   7.280   3.676  1.5142 -1.6201 -1.6408
  700MOL0     H96535   7.955   7.181   3.657  1.3735 -1.8206  1.8242
  700MOL0     H96536   8.031   7.314   3.586 -1.7299 -1.2391 -1.6001
  700MOL0     H96537   8.131   7.036   3.512 -0.5966  0.3732 -0.6686
  700MOL0     H96538   7.978   7.094   3.451 -0.5608  0.5489 -1.3614
  700MOL0     H96539   8.141   7.300   3.361  3.1487  0.1759  2.4093
  700MOL0     H96540   8.265   7.196   3.423 -0.2816 -1.5274  3.4106
  700MOL0     H96541   8.055   7.091   3.229  0.9005  0.7107 -3.7693
  700MOL0     H96542   8.211   7.026   3.268 -2.0484 -1.8224 -1.7913
  700MOL0     H96543   8.160   7.294   3.124  0.3049 -0.7684 -0.0480
  700MOL0     H96544   8.323   7.226   3.162  0.4915 -0.1635  1.1449
  700MOL0     H96545   8.108   7.075   3.030  0.0909  1.2271  4.2479
  700MOL0     H96546   8.274   7.027   3.043  1.8487  1.4868  2.4841
  700MOL0     H96547   8.185   7.247   2.850  0.7523 -0.5328 -3.4432
  700MOL0     H96548   8.348   7.225   2.894 -0.0852  2.1890  0.7793
  700MOL0     H96549   8.045   7.039   2.742 -0.8447  1.6768 -0.0305
  700MOL0     H96550   8.135   6.853   2.462 -2.3969 -0.3416 -0.4134
  700MOL0     H96551   8.005   6.854   2.592 -0.2724  2.9054 -0.4868
  700MOL0     H96552   8.229   6.656   2.592 -0.1360 -4.1176 -2.2876
  700MOL0     H96553   8.091   6.669   2.696  0.2098 -1.9709  0.0236
  700MOL0     H96554   8.059   6.479   2.535 -1.1655 -1.7877 -2.5402
  700MOL0     H96555   7.932   6.596   2.503  0.6951 -1.5693  2.0633
  700MOL0     H96556   8.086   6.698   2.323  0.2037 -0.4865 -1.7099
  700MOL0     H96557   8.209   6.582   2.373  0.0284  0.2983  2.4888
  700MOL0     H96558   7.889   6.296   2.274 -0.0557 -2.8728  1.2485
  700MOL0     H96559   7.932   5.984   2.390 -1.7101  1.7073  1.9667
  700MOL0     H96560   7.949   5.955   2.223  0.1256 -4.2814  3.7749
  700MOL0     H96561   7.836   6.085   2.278  0.5587 -2.1017  1.5697
  700MOL0     H96562   8.508   5.864   2.454  0.5205  1.1520 -1.6338
  700MOL0     H96563   8.624   5.657   2.458 -1.6349  2.0282  1.6856
  700MOL0     H96564   8.489   5.335   2.191  0.4306  0.4186  4.4491
  700MOL0     H96565   8.614   5.392   2.082  0.6505 -5.4280 -1.8246
  700MOL0     H96566   8.771   5.262   2.154  0.0247  1.7411  1.1136
  700MOL0     H96567   8.694   5.229   2.319 -0.8297  1.9608  0.2064
  700MOL0     H96568   8.690   5.039   2.137 -0.0757  0.8753 -2.1673
  700MOL0     H96569   8.557   5.150   2.070  0.1771  0.1665 -0.1185
  700MOL0     H96570   8.462   4.966   2.217  0.8315 -1.1528  1.3248
  700MOL0     H96571   8.442   5.140   2.287  3.2299  1.0260  3.4432
  700MOL0     H96572   8.647   4.929   2.351 -1.3887 -0.5839  0.1603
  700MOL0     H96573   8.615   5.072   2.438  0.4691 -1.1272  1.2884
  700MOL0     H96574   8.435   4.822   2.425 -2.0018  2.1011 -1.5586
  700MOL0     H96575   8.378   4.968   2.508 -3.0623 -3.5445  1.3556
  700MOL0     H96576   8.480   4.848   2.690 -0.1911  0.7167 -0.2038
  700MOL0     H96577   8.606   4.960   2.660  0.7058 -0.5469 -0.2147
  700MOL0     H96578   8.683   4.746   2.706  2.1440  2.4039 -0.1820
  700MOL0     H96579   8.742   4.808   2.551 -1.0568  1.7329  1.2272
  700MOL0     H96580   8.421   5.526   2.099 -0.3908 -0.6661  1.8464
  700MOL0     H96581   8.321   5.753   2.082 -0.3083 -1.9232 -0.5272
  700MOL0     H96582   8.374   6.206   2.304 -0.3271 -0.3766  0.3524
  700MOL0     H96583   8.289   6.430   2.297 -0.9341  1.9363 -2.1102
  700MOL0     H96584   8.401   7.188   3.875  0.9549 -0.0634  1.3879
  700MOL0     H96585   8.532   7.290   4.040  0.1004  0.0790 -1.0028
  700MOL0     H96586   8.728   7.784   4.155 -1.3333  0.8102 -0.1691
  700MOL0     H96587   8.829   7.906   4.323 -0.1692 -2.5418 -1.0534
  700MOL0     H96588   9.022   7.838   4.499 -0.7938 -2.5544 -0.0986
  700MOL0     H96589   8.940   7.997   4.524 -1.1356  0.2090  1.6189
  700MOL0     H96590   9.149   7.907   4.680 -0.4309  2.1437  1.2897
  700MOL0     H96591   9.017   7.799   4.748  0.7896 -2.3549 -2.3518
  700MOL0     H96592   9.059   8.097   4.762 -0.4827 -0.3857 -0.6011
  700MOL0     H96593   8.908   8.025   4.819 -0.3362  2.7185 -0.9507
  700MOL0     H96594   9.185   7.955   4.933 -0.1522 -0.2147 -0.1181
  700MOL0     H96595   9.039   7.867   4.975 -1.7267  0.3793  3.1419
  700MOL0     H96596   9.015   8.192   5.230 -0.2471 -2.2156  2.1225
  700MOL0     H96597   8.700   7.617   4.621  0.6967  1.5745  0.7135
  700MOL0     H96598   8.546   7.393   4.403  2.4040 -0.6269  0.4342
  700MOL0     H96599   8.566   7.447   4.572  1.1917  0.3392  0.5991
  700MOL0     H96600   8.433   7.511   4.487 -0.3255 -1.3993 -0.5516
  701MOL0     O96601   0.597   6.984   5.567  0.7243 -0.7878  0.1289
  701MOL0     C96602   0.501   6.962   5.488  0.5712  0.0113  0.9845
  701MOL0     O96603   0.499   6.839   5.423  0.5063 -0.2967 -0.9323
  701MOL0     C96604   0.539   6.730   5.498  0.1715 -0.0413 -0.2328
  701MOL0     C96605   0.605   6.639   5.428 -0.4509  0.3717  0.5123
  701MOL0     C96606   0.632   6.509   5.483  0.5358 -0.7052  0.3275
  701MOL0     C96607   0.598   6.485   5.615  0.6001  0.6785  0.1245
  701MOL0     O96608   0.621   6.370   5.687 -0.0662  1.1669  0.4333
  701MOL0     C96609   0.742   6.348   5.747  0.4829  0.3976  0.3202
  701MOL0     C96610   0.739   6.222   5.819  0.4655 -0.8514  1.0014
  701MOL0     C96611   0.854   6.203   5.916 -0.0717  1.6711 -0.6066
  701MOL0     C96612   0.834   6.081   6.001 -0.4159 -0.5451  0.2646
  701MOL0     C96613   0.960   6.040   6.075  0.1552 -0.3823 -0.5139
  701MOL0     C96614   0.939   5.940   6.195 -0.2309 -0.6181  0.4645
  701MOL0     C96615   1.052   5.922   6.298 -0.8318 -0.1267 -0.2201
  701MOL0     C96616   1.174   5.855   6.243 -0.5139  0.5989  0.8602
  701MOL0     N96617   1.181   5.723   6.277 -0.6158  0.4940 -0.8867
  701MOL0     C96618   1.247   5.679   6.395 -0.2889  0.5005 -0.0099
  701MOL0     C96619   1.263   5.542   6.375  1.1645 -0.0258  0.2045
  701MOL0     C96620   1.297   5.440   6.472 -0.1053  0.3264 -0.3462
  701MOL0     C96621   1.406   5.336   6.420  0.1096  0.2301  0.2114
  701MOL0     C96622   1.431   5.216   6.520  0.4556 -0.3465  0.5523
  701MOL0     C96623   1.560   5.142   6.477  0.3561 -1.0483 -0.0072
  701MOL0     O96624   1.682   5.213   6.495  0.5090 -0.1983  0.4939
  701MOL0     C96625   1.793   5.130   6.480  0.3996 -0.0435  0.1884
  701MOL0     C96626   1.803   5.055   6.364 -0.2896 -0.2469  0.3208
  701MOL0     C96627   1.901   4.949   6.356  1.0799  0.2374 -0.0334
  701MOL0     C96628   1.894   4.861   6.234  0.2138  1.2592  1.3545
  701MOL0     C96629   1.992   4.935   6.464 -0.6794 -1.3176 -0.7457
  701MOL0     C96630   2.097   4.836   6.451 -0.2672  0.7141 -0.2056
  701MOL0     O96631   2.144   4.793   6.569 -0.0345 -0.9938  0.8564
  701MOL0     C96632   2.188   4.669   6.577 -0.4888 -0.1918 -0.1057
  701MOL0     C96633   2.173   4.563   6.480 -0.8705  0.1013  0.6903
  701MOL0     C96634   2.225   4.437   6.496 -0.7488  0.6788  0.1412
  701MOL0     C96635   2.306   4.409   6.606 -0.1665  1.0844  0.7421
  701MOL0     O96636   2.377   4.291   6.630  0.7571  0.2464  0.1844
  701MOL0     C96637   2.402   4.188   6.528  0.2165 -1.0758 -0.4993
  701MOL0     C96638   2.538   4.210   6.464 -0.8688  0.6494  0.3126
  701MOL0     C96639   2.648   4.224   6.565 -0.3671  0.3297  0.7329
  701MOL0     C96640   2.787   4.220   6.502  0.6164  0.2276 -1.0499
  701MOL0     C96641   2.888   4.217   6.617  1.3437  0.5287 -0.3537
  701MOL0     C96642   3.034   4.185   6.568  0.1265 -0.0493 -0.2836
  701MOL0     C96643   3.091   4.288   6.462  0.3716 -0.7292 -0.4301
  701MOL0     C96644   3.241   4.248   6.423  0.7370 -0.0813  0.8414
  701MOL0    Cl96645   3.289   4.079   6.417  0.3194 -0.0838  0.4443
  701MOL0     C96646   2.319   4.503   6.709 -0.3522 -1.2179  0.5127
  701MOL0     C96647   2.258   4.631   6.698  0.4731 -0.9832 -0.2971
  701MOL0     O96648   2.154   4.815   6.344  0.8281  0.4211 -0.2815
  701MOL0     C96649   1.973   5.022   6.579 -0.0485  0.2984 -0.6777
  701MOL0     C96650   1.876   5.116   6.585 -0.3730  0.1080  0.5013
  701MOL0     N96651   1.197   5.508   6.257  0.5861 -1.0231  0.3904
  701MOL0     N96652   1.153   5.616   6.193 -0.6971 -0.3735  0.2350
  701MOL0     C96653   0.526   6.583   5.686 -0.2395  1.1252  0.7875
  701MOL0     C96654   0.505   6.707   5.631  0.0154  0.2283  0.7797
  701MOL0     C96655   0.393   7.073   5.473 -0.5368  0.4478 -0.4260
  701MOL0     C96656   0.301   7.069   5.366 -0.9715 -0.9780  0.4303
  701MOL0     C96657   0.217   7.174   5.335 -0.3668  0.2966  0.2273
  701MOL0     C96658   0.214   7.281   5.421  0.1992  0.6979 -0.2989
  701MOL0     O96659   0.120   7.374   5.398  0.5805  0.1084  1.0526
  701MOL0     C96660   0.117   7.494   5.475  0.2551  0.3589  1.3637
  701MOL0     C96661   0.011   7.585   5.420  0.4549 -0.5340 -0.1835
  701MOL0     C96662  -0.005   7.712   5.508  0.7761 -0.5506 -0.1942
  701MOL0     C96663  -0.137   7.783   5.439 -0.1979  0.5973  0.2226
  701MOL0     C96664  -0.155   7.917   5.485  0.0633  0.0503 -0.1526
  701MOL0     C96665  -0.155   8.043   5.504 -0.1179 -0.6600 -0.7522
  701MOL0     C96666   0.314   7.300   5.526  0.4456  0.2038 -1.1119
  701MOL0     C96667   0.392   7.185   5.559  0.0574  1.3278 -0.1077
  701MOL0     C96668   0.443   7.189   5.708 -0.6143  0.1075  0.9022
  701MOL0     H96669   0.620   6.651   5.321  1.2119  1.3627  0.8191
  701MOL0     H96670   0.669   6.436   5.412 -1.0701 -0.4794 -0.8006
  701MOL0     H96671   0.774   6.424   5.818 -0.3050  0.3976  0.6873
  701MOL0     H96672   0.814   6.349   5.665  0.0629 -2.0831 -0.1518
  701MOL0     H96673   0.653   6.220   5.886  1.5526  0.6455  2.5582
  701MOL0     H96674   0.731   6.147   5.740  3.4330  0.7150 -0.9774
  701MOL0     H96675   0.948   6.191   5.863  1.1470 -2.9080  2.0386
  701MOL0     H96676   0.866   6.287   5.985  1.1506  2.3026 -1.5448
  701MOL0     H96677   0.761   6.112   6.077  0.4815  1.3281  0.4252
  701MOL0     H96678   0.806   5.998   5.936 -1.2042 -0.5831  0.6447
  701MOL0     H96679   0.996   6.133   6.122 -3.6397  1.7591 -1.4182
  701MOL0     H96680   1.033   5.998   6.006 -2.3626 -0.5791 -3.2098
  701MOL0     H96681   0.843   5.965   6.241  0.3540  0.4358  1.1420
  701MOL0     H96682   0.919   5.844   6.145  3.6883 -1.1680 -0.3353
  701MOL0     H96683   1.015   5.864   6.383 -2.2727  2.5288  1.0970
  701MOL0     H96684   1.082   6.017   6.343  0.6777 -2.1696  3.5392
  701MOL0     H96685   1.173   5.863   6.134 -1.5012  1.3146  0.9117
  701MOL0     H96686   1.265   5.899   6.286 -1.6310  2.6288  1.2601
  701MOL0     H96687   1.278   5.736   6.481  0.9753  0.0334 -0.1370
  701MOL0     H96688   1.213   5.376   6.500  1.0289 -1.5880 -1.1290
  701MOL0     H96689   1.335   5.485   6.565 -2.1893 -0.4503  0.9405
  701MOL0     H96690   1.358   5.287   6.336 -3.3237  0.5573  1.8269
  701MOL0     H96691   1.497   5.390   6.391 -0.3656  0.6151 -0.6016
  701MOL0     H96692   1.460   5.252   6.619  0.1230  0.0419  0.5126
  701MOL0     H96693   1.345   5.149   6.521 -1.2371  1.6975  1.5264
  701MOL0     H96694   1.559   5.050   6.536  2.8270 -0.1568  1.5427
  701MOL0     H96695   1.540   5.129   6.370  0.4586  2.6967 -0.6154
  701MOL0     H96696   1.738   5.072   6.279 -0.2612  2.1704  0.7253
  701MOL0     H96697   1.971   4.898   6.166 -0.1776  1.0597  0.7946
  701MOL0     H96698   1.791   4.853   6.198  0.7771 -2.4359  0.1073
  701MOL0     H96699   1.910   4.754   6.253 -0.1178  0.9898  0.1889
  701MOL0     H96700   2.121   4.580   6.386  1.0470  0.6896 -0.3146
  701MOL0     H96701   2.198   4.364   6.421  0.5700 -0.3356  0.5978
  701MOL0     H96702   2.402   4.091   6.579  0.7676  0.3890  2.5516
  701MOL0     H96703   2.312   4.181   6.467 -1.4104  1.1391  1.4698
  701MOL0     H96704   2.560   4.124   6.400  0.3807  1.4040 -0.3330
  701MOL0     H96705   2.544   4.304   6.406 -2.7529  1.5181  1.4355
  701MOL0     H96706   2.654   4.131   6.623  1.0594  0.5258  0.9364
  701MOL0     H96707   2.635   4.310   6.631 -2.3644  0.3902  0.3116
  701MOL0     H96708   2.806   4.319   6.459  0.7972  1.6449  2.0328
  701MOL0     H96709   2.804   4.129   6.445 -0.4609 -0.8753  0.3309
  701MOL0     H96710   2.881   4.312   6.671  0.9614  0.4180 -0.2127
  701MOL0     H96711   2.852   4.135   6.678 -0.9744  0.8113 -1.2511
  701MOL0     H96712   3.029   4.089   6.514  2.0642 -1.8237  2.4509
  701MOL0     H96713   3.096   4.169   6.656  2.0402  2.5720 -1.0295
  701MOL0     H96714   3.104   4.386   6.509  0.2046  1.0682 -3.8820
  701MOL0     H96715   3.023   4.297   6.378  3.4219 -3.0812 -3.4262
  701MOL0     H96716   3.296   4.297   6.503  2.2769 -0.4810  0.0651
  701MOL0     H96717   3.263   4.297   6.327  1.5564  2.4422  2.2296
  701MOL0     H96718   2.378   4.485   6.798  1.2368  3.5607  0.6591
  701MOL0     H96719   2.273   4.700   6.781 -0.4244 -0.8967 -0.1975
  701MOL0     H96720   2.031   5.006   6.669 -1.4087 -2.1220 -0.1258
  701MOL0     H96721   1.869   5.180   6.673  1.7540  0.9932  0.0897
  701MOL0     H96722   0.487   6.586   5.787  0.2268  2.2408  0.9508
  701MOL0     H96723   0.453   6.777   5.696  1.4783  0.5290  1.6664
  701MOL0     H96724   0.321   6.991   5.294  1.8507  0.2889 -0.2906
  701MOL0     H96725   0.164   7.176   5.240 -0.5271  0.1374  0.3101
  701MOL0     H96726   0.088   7.469   5.578 -1.6084  1.4172  1.1351
  701MOL0     H96727   0.214   7.545   5.467 -0.2710  2.1709  4.6559
  701MOL0     H96728  -0.079   7.522   5.422 -0.7065  0.9748 -1.7183
  701MOL0     H96729   0.032   7.607   5.315 -0.4780 -2.9254 -0.9241
  701MOL0     H96730  -0.030   7.691   5.613  2.0893  1.0166  0.4697
  701MOL0     H96731   0.086   7.771   5.503  2.4517 -2.8147  1.3530
  701MOL0     H96732  -0.231   7.729   5.457 -0.0989  0.1261 -0.5978
  701MOL0     H96733  -0.136   7.770   5.330 -2.3487 -0.3723  0.2750
  701MOL0     H96734  -0.149   8.148   5.521 -0.4091 -1.0943  2.7287
  701MOL0     H96735   0.321   7.386   5.591 -0.7859 -0.3084 -0.2642
  701MOL0     H96736   0.552   7.202   5.709 -0.4100 -1.3605  2.0785
  701MOL0     H96737   0.391   7.274   5.751 -0.9606 -0.2555  1.2048
  701MOL0     H96738   0.415   7.100   5.765  1.8296  0.1792  2.3685
  702MOL0     O96739   2.342   7.366   8.778  0.3943  0.1296 -0.0011
  702MOL0     C96740   2.310   7.334   8.662  0.1840  0.5833 -0.0482
  702MOL0     O96741   2.403   7.329   8.560  0.9552 -0.4700 -0.4730
  702MOL0     C96742   2.534   7.311   8.587 -0.5385 -0.0822 -0.0744
  702MOL0     C96743   2.617   7.391   8.670  1.0668 -0.5792  0.7384
  702MOL0     C96744   2.751   7.361   8.675  0.1198 -0.1010  0.1392
  702MOL0     C96745   2.811   7.248   8.618  0.9818  0.6624  0.0609
  702MOL0     O96746   2.946   7.256   8.630  0.1113 -0.1801 -0.5762
  702MOL0     C96747   3.027   7.136   8.600  0.1873 -0.1454  0.0121
  702MOL0     C96748   3.174   7.176   8.586 -0.4798 -0.5342  0.0018
  702MOL0     C96749   3.249   7.066   8.497 -0.1224 -0.3721 -0.0217
  702MOL0     C96750   3.400   7.062   8.528 -0.6199  0.3336  0.2261
  702MOL0     C96751   3.471   6.922   8.488 -0.6244  0.1853 -0.5881
  702MOL0     C96752   3.505   6.909   8.340 -0.1989 -0.4510  0.4345
  702MOL0     C96753   3.604   6.790   8.326  0.2099  0.0868 -0.9146
  702MOL0     C96754   3.604   6.702   8.196  0.1065 -0.2618  0.5668
  702MOL0     N96755   3.659   6.777   8.083  0.0292 -0.9723 -0.4619
  702MOL0     C96756   3.621   6.757   7.956  0.3005  0.3205  0.3052
  702MOL0     C96757   3.711   6.825   7.876  0.8424 -0.8424  0.7820
  702MOL0     C96758   3.729   6.819   7.730  0.4014  0.4153  0.5382
  702MOL0     C96759   3.795   6.944   7.675  0.5288  0.0657  0.1476
  702MOL0     C96760   3.735   6.983   7.534 -0.3626  0.6165 -0.2978
  702MOL0     C96761   3.789   7.120   7.485  0.5456  0.4905 -0.3948
  702MOL0     O96762   3.729   7.176   7.367  0.2214  0.1370 -0.0753
  702MOL0     C96763   3.816   7.244   7.284  0.1355 -0.0068  1.7826
  702MOL0     C96764   3.783   7.247   7.144  0.1726  0.1403  0.2891
  702MOL0     C96765   3.857   7.337   7.056 -0.1221  0.1760 -0.5605
  702MOL0     C96766   3.821   7.328   6.912 -0.7555  0.5175  0.3904
  702MOL0     C96767   3.962   7.417   7.116 -0.0855 -0.3598  0.2248
  702MOL0     C96768   4.033   7.521   7.027  0.9124  0.7302 -0.0292
  702MOL0     O96769   4.166   7.544   7.051  0.3292 -0.1260  0.5172
  702MOL0     C96770   4.238   7.616   6.960 -0.9004  0.0144  0.9073
  702MOL0     C96771   4.351   7.672   7.014  0.9946  0.8937  0.7320
  702MOL0     C96772   4.439   7.753   6.933 -0.3702 -0.3375  0.4774
  702MOL0     C96773   4.412   7.769   6.790  0.4912 -0.4982  0.3707
  702MOL0     O96774   4.488   7.851   6.705 -0.3135 -0.4103  0.1023
  702MOL0     C96775   4.539   7.967   6.766  0.0756  0.3095  0.2370
  702MOL0     C96776   4.689   7.966   6.799  0.0895 -1.1047 -0.0165
  702MOL0     C96777   4.786   7.957   6.669  0.8685  0.1028 -0.8026
  702MOL0     C96778   4.936   7.970   6.695  0.2645  0.0481 -0.2156
  702MOL0     C96779   5.001   8.010   6.559  0.1832 -0.5967  0.0818
  702MOL0     C96780   5.157   8.018   6.579  0.0344  0.0253 -0.2536
  702MOL0     C96781   5.229   8.059   6.447  0.2139  0.5464 -0.4216
  702MOL0     C96782   5.179   8.181   6.366 -0.0039 -0.1548 -1.4320
  702MOL0    Cl96783   5.310   8.317   6.391  0.3118  0.0991  0.4233
  702MOL0     C96784   4.298   7.706   6.742 -1.1359 -0.2121  1.0427
  702MOL0     C96785   4.226   7.623   6.824  1.6403 -0.9640 -0.0617
  702MOL0     O96786   3.959   7.590   6.954 -0.5862  0.4919  0.3868
  702MOL0     C96787   3.979   7.414   7.250 -0.2384  0.7797  0.0967
  702MOL0     C96788   3.922   7.321   7.336 -0.1958 -0.5671  0.3082
  702MOL0     N96789   3.800   6.886   7.955 -0.6139 -0.1184  0.3019
  702MOL0     N96790   3.772   6.852   8.079 -0.0654 -0.6221 -0.0889
  702MOL0     C96791   2.727   7.154   8.551  0.1775  1.6078 -0.7817
  702MOL0     C96792   2.598   7.194   8.529  0.4023 -0.7796 -0.6029
  702MOL0     C96793   2.168   7.317   8.628  0.4702  0.1352 -0.2146
  702MOL0     C96794   2.137   7.302   8.494  0.6120 -0.0666  0.8333
  702MOL0     C96795   2.007   7.279   8.450  0.4178 -0.2594  0.1998
  702MOL0     C96796   1.897   7.279   8.533  0.8750  0.0628 -0.3868
  702MOL0     O96797   1.772   7.271   8.472  0.1004  0.1578 -0.4874
  702MOL0     C96798   1.657   7.234   8.551 -0.9716  0.1616 -0.3789
  702MOL0     C96799   1.561   7.174   8.458 -0.3875  0.0468 -0.0950
  702MOL0     C96800   1.442   7.113   8.542 -0.2464 -0.5430 -0.1829
  702MOL0     C96801   1.338   7.040   8.463 -0.0410 -1.6105 -0.7530
  702MOL0     C96802   1.365   6.897   8.438  0.0047 -0.1855  0.6994
  702MOL0     C96803   1.388   6.780   8.428  0.1181 -0.3382  0.6093
  702MOL0     C96804   1.923   7.308   8.662 -0.2791  0.3142 -0.7779
  702MOL0     C96805   2.055   7.311   8.718 -0.0372  0.5790  0.0185
  702MOL0     C96806   2.052   7.320   8.874  0.4748  0.2630  0.2707
  702MOL0     H96807   2.577   7.481   8.715 -0.4371 -1.3985  1.1261
  702MOL0     H96808   2.824   7.423   8.726  2.2291 -0.7764 -1.9033
  702MOL0     H96809   2.993   7.086   8.508  0.9130 -0.2398 -0.2095
  702MOL0     H96810   3.009   7.060   8.677 -2.9151  2.3796  2.0205
  702MOL0     H96811   3.173   7.277   8.544  0.8906  0.1889  1.5948
  702MOL0     H96812   3.232   7.187   8.678  0.3935  3.8480 -0.8541
  702MOL0     H96813   3.198   6.969   8.504 -2.0702  0.7141  2.1734
  702MOL0     H96814   3.230   7.096   8.394 -1.5665 -0.0611  0.3210
  702MOL0     H96815   3.429   7.153   8.475  1.6250 -0.4759 -0.0641
  702MOL0     H96816   3.413   7.068   8.637 -1.0522  0.3408  0.2803
  702MOL0     H96817   3.409   6.839   8.523 -0.2764 -0.2808 -1.0651
  702MOL0     H96818   3.568   6.924   8.538 -0.7431  0.1232 -0.3561
  702MOL0     H96819   3.413   6.885   8.286  1.0901 -3.7626 -0.5069
  702MOL0     H96820   3.541   7.005   8.302 -0.5112  0.5027  2.4075
  702MOL0     H96821   3.587   6.713   8.402  1.2036 -0.3630 -1.1291
  702MOL0     H96822   3.704   6.832   8.342  0.6069 -0.7950 -1.0206
  702MOL0     H96823   3.657   6.607   8.201 -0.9284 -0.9958 -1.2016
  702MOL0     H96824   3.499   6.673   8.184 -0.1837 -1.7164  5.0135
  702MOL0     H96825   3.542   6.693   7.920 -0.0811 -0.5628  2.5589
  702MOL0     H96826   3.637   6.785   7.681 -0.6569  2.6390  0.8580
  702MOL0     H96827   3.800   6.737   7.719  0.0665  0.4505 -2.6331
  702MOL0     H96828   3.777   7.031   7.740  2.8643 -0.1955  1.2289
  702MOL0     H96829   3.902   6.922   7.668 -0.2574 -4.0486 -2.2741
  702MOL0     H96830   3.752   6.912   7.452 -2.7257  0.4199 -0.6733
  702MOL0     H96831   3.628   7.003   7.535  0.0316  3.0340 -0.5926
  702MOL0     H96832   3.816   7.189   7.565 -0.1702  0.5081 -0.1570
  702MOL0     H96833   3.893   7.097   7.461  1.9542  1.6349  3.6884
  702MOL0     H96834   3.698   7.190   7.110  1.6563 -1.6512 -0.6302
  702MOL0     H96835   3.722   7.286   6.894 -0.0886 -0.6962 -0.6288
  702MOL0     H96836   3.881   7.282   6.833 -1.2178  0.3024  0.1599
  702MOL0     H96837   3.818   7.432   6.879 -2.4364 -0.1504 -1.7148
  702MOL0     H96838   4.380   7.649   7.116 -2.7699 -1.8039  1.3718
  702MOL0     H96839   4.530   7.788   6.980 -0.9188 -0.9852  2.1441
  702MOL0     H96840   4.533   8.036   6.681 -0.1548  0.7786  0.6342
  702MOL0     H96841   4.484   8.003   6.853  0.0555  0.9270 -0.0238
  702MOL0     H96842   4.718   8.063   6.839  0.4748 -1.8734  1.6902
  702MOL0     H96843   4.702   7.878   6.864  0.1769 -0.6609  0.5721
  702MOL0     H96844   4.768   8.039   6.599  2.2540 -1.3460 -2.9659
  702MOL0     H96845   4.766   7.857   6.631  0.5607  0.0739 -0.5648
  702MOL0     H96846   4.970   7.877   6.741 -2.0902 -0.8962 -0.2587
  702MOL0     H96847   4.963   8.056   6.757  2.5479  0.5772 -1.7865
  702MOL0     H96848   4.980   7.927   6.490 -2.4807  1.7637 -2.1869
  702MOL0     H96849   4.957   8.105   6.528 -0.9814 -0.1558  2.8551
  702MOL0     H96850   5.190   7.919   6.613 -1.6269 -0.6268 -0.3952
  702MOL0     H96851   5.182   8.085   6.661  1.3418 -0.7171 -0.0277
  702MOL0     H96852   5.236   7.968   6.387  1.2431  0.8633 -0.8131
  702MOL0     H96853   5.332   8.078   6.480  1.0419 -1.0140 -1.9848
  702MOL0     H96854   5.079   8.223   6.377  1.1958  3.3298 -2.5727
  702MOL0     H96855   5.188   8.151   6.261 -3.4730 -0.5904 -1.7002
  702MOL0     H96856   4.301   7.712   6.634  0.4342 -0.3370  1.0541
  702MOL0     H96857   4.137   7.586   6.774  0.4110  2.4320 -0.6419
  702MOL0     H96858   4.056   7.470   7.303 -1.3341  1.5072  0.9658
  702MOL0     H96859   3.929   7.320   7.444 -0.1665 -3.7244  0.3934
  702MOL0     H96860   2.769   7.065   8.506 -1.6400 -0.8268  1.9716
  702MOL0     H96861   2.529   7.121   8.489 -1.3070  0.0011  0.7652
  702MOL0     H96862   2.205   7.301   8.409  0.2452 -2.9966  0.4447
  702MOL0     H96863   2.001   7.270   8.342 -0.4998  0.8673  0.1239
  702MOL0     H96864   1.696   7.154   8.615  0.9441  0.4324 -1.1233
  702MOL0     H96865   1.620   7.321   8.606  1.3120  0.3942  0.9247
  702MOL0     H96866   1.594   7.087   8.401  2.4838  1.0604 -0.1381
  702MOL0     H96867   1.531   7.246   8.382 -0.7361 -1.4065 -1.3810
  702MOL0     H96868   1.485   7.037   8.608  0.1704 -0.7163 -0.6435
  702MOL0     H96869   1.385   7.188   8.598 -1.8662 -0.9092 -1.2696
  702MOL0     H96870   1.331   7.090   8.366  1.8501  1.1959  0.4250
  702MOL0     H96871   1.241   7.039   8.513  0.9820  0.6647  1.4692
  702MOL0     H96872   1.419   6.678   8.428  1.6347  0.0126 -2.0804
  702MOL0     H96873   1.848   7.321   8.740  0.9029 -1.6519  0.7820
  702MOL0     H96874   2.038   7.423   8.906 -3.4414 -0.0346 -0.0030
  702MOL0     H96875   1.961   7.279   8.919 -0.5663  1.7348 -0.4434
  702MOL0     H96876   2.142   7.275   8.917  0.3469  0.2615  0.5358
  703MOL0     O96877   5.449   1.576   7.145 -0.2361  0.1536  0.2531
  703MOL0     C96878   5.408   1.644   7.230 -0.0054 -0.2141 -0.5070
  703MOL0     O96879   5.462   1.651   7.364  0.3964  0.4347 -0.1152
  703MOL0     C96880   5.558   1.560   7.407  0.1070  0.4665 -0.9699
  703MOL0     C96881   5.614   1.443   7.345  0.1060  0.8727  0.2928
  703MOL0     C96882   5.715   1.369   7.417  0.0722 -0.7190 -0.6835
  703MOL0     C96883   5.742   1.397   7.547  0.6427 -0.1954 -0.4705
  703MOL0     O96884   5.839   1.313   7.597  0.6429  0.1613 -0.0609
  703MOL0     C96885   5.875   1.320   7.732 -0.4029 -0.1109 -0.0909
  703MOL0     C96886   6.000   1.250   7.772 -0.3387  0.4371  0.2052
  703MOL0     C96887   6.129   1.320   7.716 -0.3239  1.2899 -0.3093
  703MOL0     C96888   6.266   1.251   7.747 -0.4385  0.3796  0.3564
  703MOL0     C96889   6.376   1.257   7.634  1.3753  0.0111  0.2919
  703MOL0     C96890   6.522   1.201   7.658  1.1473 -0.2783  0.0800
  703MOL0     C96891   6.517   1.052   7.642  0.4511 -1.0094 -0.2158
  703MOL0     C96892   6.664   1.004   7.613 -1.0500  0.2795 -0.0634
  703MOL0     N96893   6.654   0.851   7.606 -0.4268 -0.5412  0.0321
  703MOL0     C96894   6.599   0.775   7.704 -0.2629 -0.5069 -0.3071
  703MOL0     C96895   6.644   0.648   7.665 -0.7546  0.6420 -0.0712
  703MOL0     C96896   6.603   0.519   7.734  0.7753  0.5928 -0.2147
  703MOL0     C96897   6.513   0.429   7.648  0.3071  0.0202 -0.9660
  703MOL0     C96898   6.590   0.304   7.607  0.3080  0.4176  0.6098
  703MOL0     C96899   6.685   0.328   7.484  0.2633 -1.0743  0.2783
  703MOL0     O96900   6.707   0.201   7.415 -0.3956  1.0393  0.2054
  703MOL0     C96901   6.802   0.184   7.320 -0.1570  0.3267  0.3475
  703MOL0     C96902   6.878   0.069   7.315 -0.0122  0.1777  0.2193
  703MOL0     C96903   6.989   0.048   7.224  0.2307  0.0507 -0.1339
  703MOL0     C96904   7.049  -0.086   7.211  0.1029  0.4001  1.3264
  703MOL0     C96905   7.019   0.161   7.132  1.0778 -0.3907 -0.2154
  703MOL0     C96906   7.139   0.176   7.051  0.4410 -1.0107 -0.5122
  703MOL0     O96907   7.148   0.294   6.964 -0.9126  0.5318 -0.5234
  703MOL0     C96908   7.270   0.327   6.920 -0.6561  0.7482  0.0672
  703MOL0     C96909   7.328   0.449   6.947 -0.0461 -0.1720 -0.2464
  703MOL0     C96910   7.457   0.493   6.915  0.6978  0.9708 -0.6764
  703MOL0     C96911   7.531   0.411   6.827 -0.0708 -0.4642  0.2049
  703MOL0     O96912   7.653   0.456   6.786 -0.4205  0.7528 -0.0446
  703MOL0     C96913   7.746   0.521   6.877 -0.1845 -0.3345 -0.5766
  703MOL0     C96914   7.843   0.610   6.797 -0.5254  0.5026 -0.4933
  703MOL0     C96915   7.983   0.609   6.860  0.3758  0.2600  0.1637
  703MOL0     C96916   8.072   0.706   6.787 -0.0565 -0.1928  0.3428
  703MOL0     C96917   8.141   0.806   6.867 -0.2351 -0.2906 -0.3290
  703MOL0     C96918   8.038   0.906   6.917 -1.0491 -0.2303  0.5807
  703MOL0     C96919   8.086   1.000   7.035  0.4045  0.7346 -0.2509
  703MOL0     C96920   7.971   1.096   7.085 -0.2537  0.5616 -0.0546
  703MOL0    Cl96921   7.949   1.207   6.955 -0.1531 -0.5906 -0.0485
  703MOL0     C96922   7.475   0.293   6.778 -0.2659  0.3567 -0.2870
  703MOL0     C96923   7.351   0.243   6.831 -0.6266  0.1155 -0.5446
  703MOL0     O96924   7.206   0.080   7.040  0.3242  0.8712  0.1200
  703MOL0     C96925   6.942   0.279   7.146  1.1920 -0.7283  0.6993
  703MOL0     C96926   6.837   0.290   7.238  0.0481 -0.0174 -0.3032
  703MOL0     N96927   6.726   0.654   7.552  0.4727 -0.7623 -0.1346
  703MOL0     N96928   6.736   0.778   7.524 -0.8514 -0.3633  0.0490
  703MOL0     C96929   5.673   1.498   7.618  0.3925 -0.2238 -0.0498
  703MOL0     C96930   5.594   1.586   7.537 -0.9099 -0.1397 -0.4077
  703MOL0     C96931   5.289   1.735   7.206 -0.3024 -0.3733 -0.8651
  703MOL0     C96932   5.230   1.808   7.315 -0.4650  0.2569 -0.4790
  703MOL0     C96933   5.107   1.886   7.299 -0.8491  0.5367  0.8480
  703MOL0     C96934   5.064   1.909   7.170 -0.6759  0.0161  0.6105
  703MOL0     O96935   4.961   1.999   7.151 -1.2047 -0.0939  0.7819
  703MOL0     C96936   4.923   2.032   7.012 -0.4736  0.1404  0.3431
  703MOL0     C96937   4.828   2.144   7.009  0.0830  0.2819 -0.0787
  703MOL0     C96938   4.806   2.191   6.864  0.8315 -1.4529 -0.3609
  703MOL0     C96939   4.727   2.107   6.767  0.3993 -0.4132  0.2420
  703MOL0     C96940   4.610   2.051   6.824  0.1529  0.9919  0.0162
  703MOL0     C96941   4.499   2.023   6.869  0.6207  0.0891  1.4269
  703MOL0     C96942   5.128   1.849   7.065 -0.2163  0.9090 -0.4615
  703MOL0     C96943   5.234   1.748   7.080 -0.3825 -0.4777  0.0288
  703MOL0     C96944   5.290   1.694   6.953 -0.0220 -0.8183  0.3823
  703MOL0     H96945   5.612   1.412   7.241  0.5676 -1.2015  0.8715
  703MOL0     H96946   5.779   1.291   7.376 -0.2456 -1.8957  0.9775
  703MOL0     H96947   5.793   1.287   7.796  1.1952 -2.8393  0.7358
  703MOL0     H96948   5.893   1.424   7.762  0.5961 -1.1957  3.6468
  703MOL0     H96949   6.016   1.257   7.880  1.2620  0.7595 -0.0421
  703MOL0     H96950   5.983   1.147   7.741 -1.4126  0.5619  0.3258
  703MOL0     H96951   6.114   1.329   7.608 -0.5871  0.6066 -0.3393
  703MOL0     H96952   6.139   1.415   7.769  2.6091 -1.9957  6.2988
  703MOL0     H96953   6.313   1.301   7.832 -0.4445  1.0684 -0.0464
  703MOL0     H96954   6.249   1.147   7.779  0.7184 -0.2651 -1.0556
  703MOL0     H96955   6.379   1.363   7.607  4.1220 -0.9010 -3.8762
  703MOL0     H96956   6.332   1.211   7.545 -2.9595  0.4565  1.9272
  703MOL0     H96957   6.586   1.255   7.588  0.2261  3.3859  1.8189
  703MOL0     H96958   6.551   1.219   7.762  0.7704  0.8288  0.0054
  703MOL0     H96959   6.453   1.026   7.557  0.5813  2.9202 -1.7281
  703MOL0     H96960   6.477   1.002   7.731 -1.0199 -3.2664 -2.0332
  703MOL0     H96961   6.709   1.055   7.527  1.0806  0.3839  1.0516
  703MOL0     H96962   6.730   1.029   7.696 -0.0657  0.4767 -0.8949
  703MOL0     H96963   6.533   0.810   7.782  1.2142 -0.6851  1.0726
  703MOL0     H96964   6.526   0.553   7.804 -1.9892 -0.5305 -2.5127
  703MOL0     H96965   6.692   0.469   7.772 -1.2796 -3.4189 -0.2013
  703MOL0     H96966   6.419   0.411   7.701  0.7584  0.8414  0.1571
  703MOL0     H96967   6.474   0.480   7.559 -1.7492 -1.0109 -0.7096
  703MOL0     H96968   6.645   0.253   7.687  0.6389 -0.2727 -0.0481
  703MOL0     H96969   6.510   0.238   7.571 -3.0553  2.5632  3.5460
  703MOL0     H96970   6.659   0.409   7.415 -0.2319 -1.0150  0.5265
  703MOL0     H96971   6.780   0.360   7.527 -0.6222  4.5690 -1.1116
  703MOL0     H96972   6.860  -0.008   7.389  1.7997 -2.0571 -1.5168
  703MOL0     H96973   6.981  -0.169   7.235  0.0046 -0.5800 -1.8823
  703MOL0     H96974   7.141  -0.102   7.268 -0.3979 -0.6750  1.8773
  703MOL0     H96975   7.074  -0.105   7.106  3.8317 -0.9529  2.2874
  703MOL0     H96976   7.267   0.507   7.016 -0.1097 -0.9138  0.3371
  703MOL0     H96977   7.485   0.595   6.940  1.7242  1.1368 -2.3187
  703MOL0     H96978   7.701   0.600   6.939 -2.3194 -2.6622  1.0613
  703MOL0     H96979   7.778   0.440   6.943 -2.6957 -0.0837  1.1133
  703MOL0     H96980   7.862   0.572   6.697 -2.9462  0.0223 -0.8114
  703MOL0     H96981   7.795   0.708   6.791 -0.7467  0.4604  0.4259
  703MOL0     H96982   8.029   0.511   6.846  0.4503  0.5190 -1.6175
  703MOL0     H96983   7.989   0.624   6.968 -0.2360 -1.5027  0.4793
  703MOL0     H96984   8.035   0.759   6.698  0.2106 -1.1556 -0.3535
  703MOL0     H96985   8.148   0.638   6.749 -1.4040 -0.0123 -3.0088
  703MOL0     H96986   8.191   0.754   6.949 -2.9408 -2.7397 -0.0591
  703MOL0     H96987   8.214   0.860   6.807 -1.2812  1.0694 -0.4415
  703MOL0     H96988   7.943   0.862   6.949 -1.7223  1.6899  1.4037
  703MOL0     H96989   8.031   0.976   6.833  1.1657  0.2461  0.7277
  703MOL0     H96990   8.177   1.059   7.023  0.2714  1.6348  2.4935
  703MOL0     H96991   8.099   0.929   7.117 -1.8759 -0.9027 -1.1696
  703MOL0     H96992   8.003   1.143   7.178  0.4387  0.9583 -0.4870
  703MOL0     H96993   7.878   1.043   7.107  0.6286 -1.8048 -1.6025
  703MOL0     H96994   7.531   0.226   6.714 -0.3600  0.2563 -0.2641
  703MOL0     H96995   7.321   0.144   6.799 -3.2722  0.9454 -0.8826
  703MOL0     H96996   6.955   0.365   7.082 -2.4949 -2.4408 -2.7284
  703MOL0     H96997   6.796   0.390   7.233  2.9457  1.3981  1.4651
  703MOL0     H96998   5.706   1.525   7.718 -1.4704  1.6963  0.1227
  703MOL0     H96999   5.543   1.671   7.584  0.4180 -0.3289  1.4709
  703MOL0     H97000   5.269   1.798   7.415  0.2672  1.6229 -0.6036
  703MOL0     H97001   5.065   1.930   7.389  0.2861  0.9691  1.1934
  703MOL0     H97002   5.015   2.062   6.962  1.0226 -3.1924  0.8784
  703MOL0     H97003   4.874   1.948   6.963  0.5547 -0.9222  1.0929
  703MOL0     H97004   4.862   2.231   7.067  0.4867  0.2399 -0.2500
  703MOL0     H97005   4.734   2.119   7.059  0.2139 -0.1703 -0.0585
  703MOL0     H97006   4.758   2.290   6.862  1.1707 -1.2805 -2.3526
  703MOL0     H97007   4.902   2.204   6.813  0.2900 -3.6508 -2.0807
  703MOL0     H97008   4.796   2.025   6.746 -0.4251 -0.8654 -0.8444
  703MOL0     H97009   4.704   2.170   6.680  0.2960  2.6923  2.3775
  703MOL0     H97010   4.402   2.006   6.911  0.2651 -4.4387 -0.5444
  703MOL0     H97011   5.106   1.865   6.960 -1.1500 -0.3841 -0.4895
  703MOL0     H97012   5.290   1.584   6.952  0.5222 -0.8435 -1.5868
  703MOL0     H97013   5.250   1.741   6.863  2.2103 -1.4020 -1.0023
  703MOL0     H97014   5.395   1.726   6.956 -0.5101  0.9524 -0.4915
  704MOL0     O97015   2.170   5.619   4.649 -0.4997 -0.2349 -0.2322
  704MOL0     C97016   2.113   5.511   4.632  2.3595 -0.3140 -0.1780
  704MOL0     O97017   2.063   5.468   4.517  0.4144 -0.6117  0.2557
  704MOL0     C97018   2.067   5.541   4.401 -0.2447  1.2315  0.2057
  704MOL0     C97019   2.073   5.678   4.382  0.9519  0.5179  1.1708
  704MOL0     C97020   2.053   5.725   4.253 -0.5776 -0.2712 -0.0622
  704MOL0     C97021   2.045   5.639   4.145 -0.5049 -0.9792 -0.8006
  704MOL0     O97022   2.037   5.681   4.012  0.2108  0.0956 -0.6369
  704MOL0     C97023   2.088   5.807   3.974 -1.1692 -0.2853  1.1973
  704MOL0     C97024   2.138   5.799   3.836 -0.1298  0.5233  0.6186
  704MOL0     C97025   2.072   5.706   3.739  0.4451 -0.0616  0.3366
  704MOL0     C97026   1.931   5.760   3.692 -0.5013 -0.7686  0.1368
  704MOL0     C97027   1.899   5.678   3.569  0.3573  0.0744 -0.0394
  704MOL0     C97028   1.769   5.724   3.505 -0.0321 -0.8157 -0.3824
  704MOL0     C97029   1.728   5.644   3.377  0.2891 -0.1222 -1.4113
  704MOL0     C97030   1.610   5.702   3.313 -0.2938  1.3210  0.1100
  704MOL0     N97031   1.592   5.658   3.171 -0.2350  0.3530 -0.2913
  704MOL0     C97032   1.492   5.571   3.126 -0.3784 -0.3312  0.1292
  704MOL0     C97033   1.514   5.562   2.992  0.3946 -0.0433  0.5453
  704MOL0     C97034   1.448   5.467   2.905 -0.4552  0.3436  0.4706
  704MOL0     C97035   1.438   5.325   2.973 -0.0789 -0.1314 -1.1372
  704MOL0     C97036   1.561   5.273   3.045 -0.6767  0.2298  0.1489
  704MOL0     C97037   1.675   5.256   2.938 -0.2325 -0.1926  0.0695
  704MOL0     O97038   1.791   5.198   2.989 -0.3314 -0.4193  0.0909
  704MOL0     C97039   1.898   5.259   3.063 -0.2878 -0.8916 -0.0151
  704MOL0     C97040   1.999   5.178   3.126 -0.2932 -0.5561  0.3230
  704MOL0     C97041   2.105   5.235   3.194 -0.6333 -0.0423 -0.2512
  704MOL0     C97042   2.208   5.150   3.265  0.0211  0.1211  0.3696
  704MOL0     C97043   2.119   5.377   3.208 -0.5341 -1.2451  0.0942
  704MOL0     C97044   2.221   5.445   3.290  1.4863 -0.8995  0.1482
  704MOL0     O97045   2.190   5.581   3.322  0.3158  0.0530  0.4529
  704MOL0     C97046   2.279   5.648   3.400 -0.0357 -0.1606 -0.1433
  704MOL0     C97047   2.347   5.600   3.513  0.9701  0.7526  0.6569
  704MOL0     C97048   2.413   5.680   3.606 -0.2443  0.3317 -0.2760
  704MOL0     C97049   2.407   5.814   3.587 -0.4495 -0.8983  0.4422
  704MOL0     O97050   2.484   5.899   3.659  0.0370 -0.0820  0.1536
  704MOL0     C97051   2.535   5.856   3.788 -0.0598  0.5980  0.3337
  704MOL0     C97052   2.603   5.977   3.862  0.0079 -0.8401  0.0952
  704MOL0     C97053   2.528   6.114   3.853 -0.0149  0.3642  0.1603
  704MOL0     C97054   2.615   6.225   3.932  0.0041  0.7328  1.0335
  704MOL0     C97055   2.596   6.363   3.859 -0.3898  0.0034 -0.5798
  704MOL0     C97056   2.704   6.457   3.903 -0.2852 -1.5885  0.7914
  704MOL0     C97057   2.678   6.605   3.849 -0.3015  0.0203 -0.1176
  704MOL0     C97058   2.802   6.694   3.883  0.6699 -0.9878  0.7881
  704MOL0    Cl97059   2.876   6.758   3.735  0.2401 -0.0351 -0.0615
  704MOL0     C97060   2.329   5.870   3.496  0.8221 -0.4512 -0.0504
  704MOL0     C97061   2.258   5.785   3.400 -0.0889 -0.5332 -0.2873
  704MOL0     O97062   2.328   5.386   3.301  0.2214  0.2517  0.1793
  704MOL0     C97063   2.012   5.454   3.150  0.3590 -0.3649  1.0182
  704MOL0     C97064   1.908   5.395   3.086  1.0621  0.4062  0.1409
  704MOL0     N97065   1.620   5.646   2.955 -0.3205 -0.4116  1.0010
  704MOL0     N97066   1.660   5.711   3.060  1.0890  0.6913  0.0666
  704MOL0     C97067   2.052   5.500   4.155 -0.1855 -1.0417 -0.3981
  704MOL0     C97068   2.058   5.458   4.286  0.3119  1.4118 -0.0215
  704MOL0     C97069   2.086   5.423   4.740 -0.0354  0.1578 -0.2396
  704MOL0     C97070   1.983   5.326   4.723  0.5567  0.4635  0.2196
  704MOL0     C97071   1.945   5.235   4.830 -0.4029 -0.5265 -1.4178
  704MOL0     C97072   2.007   5.251   4.953 -0.0600  0.2594 -0.0973
  704MOL0     O97073   1.981   5.152   5.042  0.1410  0.2220 -0.4557
  704MOL0     C97074   1.996   5.173   5.189 -0.0408  0.7788 -0.2362
  704MOL0     C97075   1.913   5.282   5.264 -0.0473 -0.1772  0.7511
  704MOL0     C97076   1.762   5.290   5.222 -0.3053  0.1447 -0.2535
  704MOL0     C97077   1.718   5.437   5.212 -0.0261  0.4872  0.2414
  704MOL0     C97078   1.727   5.511   5.342  0.3387 -0.8294  0.7173
  704MOL0     C97079   1.737   5.575   5.443  0.3487 -0.6896  1.3289
  704MOL0     C97080   2.111   5.352   4.966 -0.4935  1.1287 -0.2541
  704MOL0     C97081   2.156   5.427   4.859  0.3456  0.3185  0.5518
  704MOL0     C97082   2.278   5.522   4.885  0.4346  0.2218 -0.9156
  704MOL0     H97083   2.063   5.749   4.464 -1.0025 -0.4240  1.8072
  704MOL0     H97084   2.046   5.831   4.230  0.6019  0.0945  1.1850
  704MOL0     H97085   2.169   5.833   4.042 -0.7498 -2.7393  1.7272
  704MOL0     H97086   2.027   5.897   3.984  1.3049  1.3763  2.3848
  704MOL0     H97087   2.141   5.897   3.789 -1.4128  1.0544  1.5740
  704MOL0     H97088   2.240   5.767   3.858 -0.1747 -1.7461 -1.8791
  704MOL0     H97089   2.143   5.682   3.659 -0.3562  1.7670 -1.0041
  704MOL0     H97090   2.056   5.606   3.780  2.7164 -0.7183 -0.2274
  704MOL0     H97091   1.859   5.739   3.771  0.4502  2.7417  2.1531
  704MOL0     H97092   1.929   5.865   3.663 -0.6124 -1.1951 -1.4679
  704MOL0     H97093   1.893   5.570   3.589 -3.7155  0.4999  2.2632
  704MOL0     H97094   1.980   5.685   3.496  0.8171  1.6731  0.5714
  704MOL0     H97095   1.690   5.727   3.581 -0.7304  0.1151 -1.1157
  704MOL0     H97096   1.784   5.827   3.469  1.6242 -2.0030 -3.4150
  704MOL0     H97097   1.713   5.541   3.411  3.1890 -0.6741 -1.5190
  704MOL0     H97098   1.811   5.636   3.306  1.6146  0.7074 -0.0076
  704MOL0     H97099   1.525   5.667   3.372  0.9737 -0.1436  1.1536
  704MOL0     H97100   1.600   5.811   3.314  4.5455  1.9813  1.0722
  704MOL0     H97101   1.414   5.529   3.189 -0.5744 -0.1737 -0.0020
  704MOL0     H97102   1.514   5.460   2.817 -1.9087 -1.8257 -0.5323
  704MOL0     H97103   1.355   5.512   2.870 -1.0125 -1.3645 -0.3723
  704MOL0     H97104   1.346   5.335   3.031  0.4950  1.5201 -0.4284
  704MOL0     H97105   1.429   5.260   2.886  3.3672 -0.2429 -1.5609
  704MOL0     H97106   1.594   5.334   3.129  0.4195  2.7687 -2.0076
  704MOL0     H97107   1.531   5.176   3.086  1.2074 -0.4868 -0.0514
  704MOL0     H97108   1.640   5.213   2.845  0.5000 -1.7947  0.4908
  704MOL0     H97109   1.702   5.357   2.907  2.0393 -1.4439 -2.4260
  704MOL0     H97110   2.003   5.070   3.116 -2.4232 -0.7575  1.1543
  704MOL0     H97111   2.168   5.049   3.279  1.3487 -0.9246 -2.5284
  704MOL0     H97112   2.228   5.163   3.372  2.6643 -0.3828 -0.0071
  704MOL0     H97113   2.305   5.160   3.216 -0.2849 -0.6726 -0.4282
  704MOL0     H97114   2.349   5.493   3.531 -1.8563  1.0438  3.8566
  704MOL0     H97115   2.472   5.638   3.687  1.6006 -1.1555 -2.2639
  704MOL0     H97116   2.446   5.825   3.843 -1.9596  2.9880 -1.1537
  704MOL0     H97117   2.600   5.769   3.793 -3.0244 -1.7151  2.2576
  704MOL0     H97118   2.624   5.952   3.966  0.6325  1.1219  0.4825
  704MOL0     H97119   2.701   5.978   3.813 -0.9092 -2.1293 -1.8997
  704MOL0     H97120   2.429   6.090   3.894  0.3156 -1.8921 -0.2569
  704MOL0     H97121   2.505   6.149   3.752 -0.7545  1.8162  0.7993
  704MOL0     H97122   2.717   6.188   3.929 -0.6420 -1.2148  1.5604
  704MOL0     H97123   2.592   6.245   4.037  1.7298 -1.9143  2.0178
  704MOL0     H97124   2.603   6.353   3.750 -3.0117  2.2130 -1.0759
  704MOL0     H97125   2.494   6.396   3.877 -0.3291 -0.0243 -0.1906
  704MOL0     H97126   2.797   6.419   3.859 -0.0132  0.4627 -0.5416
  704MOL0     H97127   2.709   6.440   4.011 -3.6043 -1.0472  1.1207
  704MOL0     H97128   2.593   6.649   3.903 -0.4047  1.6068 -1.4869
  704MOL0     H97129   2.656   6.606   3.742  0.3797  0.1492 -0.2559
  704MOL0     H97130   2.876   6.630   3.932  1.1333  0.0338  1.4689
  704MOL0     H97131   2.771   6.774   3.951  0.3164 -0.8426  0.4574
  704MOL0     H97132   2.336   5.978   3.487  1.7439 -0.0410  3.8259
  704MOL0     H97133   2.190   5.834   3.331 -0.5718  0.3680  0.8050
  704MOL0     H97134   2.013   5.562   3.153  2.4989 -0.2660 -1.0881
  704MOL0     H97135   1.832   5.468   3.063  2.9695  1.7273 -2.5952
  704MOL0     H97136   2.042   5.439   4.066  0.4558 -1.2515 -0.3306
  704MOL0     H97137   2.037   5.352   4.296 -0.3102  1.3462 -1.7753
  704MOL0     H97138   1.926   5.310   4.632  0.9240  2.8184 -0.4949
  704MOL0     H97139   1.884   5.149   4.805  0.3342 -0.9202 -1.8714
  704MOL0     H97140   1.968   5.075   5.229 -2.9124  1.6308  0.0531
  704MOL0     H97141   2.104   5.190   5.199  0.1594  0.6260 -1.8626
  704MOL0     H97142   1.968   5.377   5.267  2.3197 -1.3962 -0.7352
  704MOL0     H97143   1.925   5.250   5.368 -0.2453  1.7887  1.4193
  704MOL0     H97144   1.736   5.244   5.126  1.5012 -1.0071 -0.2397
  704MOL0     H97145   1.715   5.243   5.309  1.3481  1.2166  1.2651
  704MOL0     H97146   1.617   5.438   5.171  0.0733 -2.5194 -0.2577
  704MOL0     H97147   1.793   5.489   5.150  0.5697 -0.8280 -0.1704
  704MOL0     H97148   1.741   5.641   5.527 -2.4263  0.2779  0.8065
  704MOL0     H97149   2.165   5.357   5.060  0.1958  0.5963 -0.6168
  704MOL0     H97150   2.242   5.625   4.895  1.4043  0.7028 -2.1152
  704MOL0     H97151   2.327   5.489   4.977 -1.4259  0.5789  0.2543
  704MOL0     H97152   2.345   5.514   4.799  1.7722  4.8908 -0.5872
  705MOL0     O97153  10.754   1.763   0.499 -0.7992 -0.4305  0.2666
  705MOL0     C97154  10.823   1.732   0.591  0.1925  0.2363  0.8438
  705MOL0     O97155  10.811   1.790   0.711 -0.0500 -0.3508  0.1193
  705MOL0     C97156  10.769   1.923   0.729 -0.3431 -0.3466  0.7142
  705MOL0     C97157  10.726   1.951   0.860  0.5200 -0.4652 -0.1839
  705MOL0     C97158  10.685   2.087   0.890  0.7149 -0.4853  0.1770
  705MOL0     C97159  10.711   2.193   0.794 -0.2418  0.0740 -0.1511
  705MOL0     O97160  10.677   2.322   0.816  0.6667 -0.4947  0.5032
  705MOL0     C97161  10.696   2.371   0.948 -0.1206 -0.5771  0.1434
  705MOL0     C97162  10.585   2.476   0.989 -0.3013 -0.0573  0.0154
  705MOL0     C97163  10.436   2.444   0.941 -0.1797  0.0978 -0.2781
  705MOL0     C97164  10.384   2.322   1.010  0.8680 -0.2079  0.1356
  705MOL0     C97165  10.239   2.306   0.964 -0.2907  0.4922  0.7952
  705MOL0     C97166  10.171   2.192   1.041 -0.0562  0.2896 -0.7429
  705MOL0     C97167  10.023   2.179   1.002  0.2295 -0.9730  0.3107
  705MOL0     C97168   9.937   2.084   1.086  0.3333  0.4811 -0.5000
  705MOL0     N97169  10.005   1.956   1.111  0.5673 -0.4596  0.1083
  705MOL0     C97170  10.032   1.869   1.008  0.0568  0.0578 -0.7885
  705MOL0     C97171  10.071   1.757   1.077 -0.6332  0.0606  0.6544
  705MOL0     C97172  10.102   1.628   1.003  0.8319  0.2955  0.3020
  705MOL0     C97173   9.980   1.546   0.962  0.1779  0.2390 -0.4372
  705MOL0     C97174  10.007   1.403   0.960  0.2127  0.4259 -0.0753
  705MOL0     C97175  10.145   1.347   0.914 -0.0788 -0.8221 -0.4539
  705MOL0     O97176  10.116   1.208   0.914 -0.3929 -0.6602  0.7704
  705MOL0     C97177  10.189   1.127   0.824  0.3353  0.1814  0.1578
  705MOL0     C97178  10.157   0.986   0.831  0.0442  0.0160 -0.2195
  705MOL0     C97179  10.234   0.897   0.755  0.9612 -0.1066  1.1661
  705MOL0     C97180  10.189   0.756   0.760  0.3543 -0.1091  0.2350
  705MOL0     C97181  10.346   0.945   0.682 -0.3606  0.1985 -0.0733
  705MOL0     C97182  10.464   0.861   0.626  0.1676  0.0602 -0.1128
  705MOL0     O97183  10.457   0.728   0.640 -0.3285 -0.5585  0.4285
  705MOL0     C97184  10.554   0.649   0.588  0.2786  1.1035  0.0472
  705MOL0     C97185  10.581   0.658   0.453 -0.9563  0.2722  0.0759
  705MOL0     C97186  10.690   0.597   0.398 -0.6881 -0.0157 -0.2283
  705MOL0     C97187  10.770   0.501   0.474 -0.7291 -0.0455  0.0786
  705MOL0     O97188  10.875   0.418   0.432  0.3681 -0.4609  0.2911
  705MOL0     C97189  10.916   0.441   0.291  0.3682 -0.3025  0.0013
  705MOL0     C97190  11.010   0.328   0.264  0.2926  0.3698  0.0195
  705MOL0     C97191  10.935   0.197   0.230  0.6012  0.1605 -0.6377
  705MOL0     C97192  11.013   0.092   0.153 -0.1522 -1.3067 -0.4153
  705MOL0     C97193  11.065  -0.021   0.246 -0.5477  0.0253 -0.1720
  705MOL0     C97194  11.144  -0.133   0.159  0.1569 -0.5215  0.7529
  705MOL0     C97195  11.058  -0.201   0.054  0.1630 -0.7000  0.8276
  705MOL0     C97196  11.090  -0.349   0.029 -0.7106  0.6397 -0.4103
  705MOL0    Cl97197  11.274  -0.358  -0.003  0.3843 -0.4101 -0.3517
  705MOL0     C97198  10.740   0.485   0.602  0.6725  0.0731 -0.2587
  705MOL0     C97199  10.632   0.556   0.667 -0.4368  0.7270  0.2741
  705MOL0     O97200  10.560   0.926   0.576  1.1041  0.4666 -0.9751
  705MOL0     C97201  10.363   1.082   0.660 -0.1764  0.6565  0.1319
  705MOL0     C97202  10.282   1.165   0.736 -0.4166  0.0548 -0.5144
  705MOL0     N97203  10.068   1.783   1.216 -0.1735 -0.0754  0.1344
  705MOL0     N97204  10.022   1.901   1.241  0.4247 -0.7126  0.3925
  705MOL0     C97205  10.745   2.159   0.671 -1.0544  0.5839  1.1639
  705MOL0     C97206  10.782   2.026   0.629  0.3292  0.1621 -0.4520
  705MOL0     C97207  10.916   1.607   0.585 -0.7804  0.2036 -0.6109
  705MOL0     C97208  10.963   1.559   0.699 -0.0071 -0.9783 -0.4431
  705MOL0     C97209  11.045   1.451   0.694  0.6401 -0.3814 -0.3547
  705MOL0     C97210  11.090   1.399   0.570 -0.5388  0.4452 -0.2289
  705MOL0     O97211  11.186   1.286   0.575  0.7034  0.6446  0.1660
  705MOL0     C97212  11.224   1.215   0.454  0.3077  0.9504  0.0874
  705MOL0     C97213  11.370   1.258   0.409  0.0506  0.1259  0.6322
  705MOL0     C97214  11.423   1.205   0.270  0.3335 -1.0812 -0.8513
  705MOL0     C97215  11.354   1.258   0.143 -0.1761 -0.5573 -0.5908
  705MOL0     C97216  11.417   1.212   0.019  0.3833  0.4180 -0.4247
  705MOL0     C97217  11.490   1.170  -0.075  0.6241  0.3251  1.7099
  705MOL0     C97218  11.054   1.457   0.455 -0.2065 -0.0323 -0.1378
  705MOL0     C97219  10.966   1.569   0.460  0.2465 -0.2299  0.3159
  705MOL0     C97220  10.941   1.633   0.326 -0.1818 -0.4204 -1.5690
  705MOL0     H97221  10.699   1.866   0.922  2.1196 -1.7424 -1.1710
  705MOL0     H97222  10.646   2.096   0.991  1.4471 -2.3054  0.6604
  705MOL0     H97223  10.792   2.421   0.959 -0.8363  0.4751  2.0706
  705MOL0     H97224  10.686   2.297   1.029  0.3233 -0.5939  0.1845
  705MOL0     H97225  10.576   2.481   1.097 -2.5597 -0.9400 -0.0933
  705MOL0     H97226  10.620   2.576   0.961 -0.8882  0.5285  1.3004
  705MOL0     H97227  10.368   2.529   0.957  0.0893  0.4433 -0.9334
  705MOL0     H97228  10.448   2.427   0.833  1.0857 -0.2115 -0.0990
  705MOL0     H97229  10.441   2.237   0.971 -0.2568 -1.1188  0.4257
  705MOL0     H97230  10.389   2.324   1.119  1.6275  0.0441  0.1074
  705MOL0     H97231  10.226   2.285   0.857 -1.7900  0.3289  0.9902
  705MOL0     H97232  10.178   2.396   0.981  1.2728  2.1111 -1.5619
  705MOL0     H97233  10.215   2.095   1.013  1.5369 -0.7461  4.3236
  705MOL0     H97234  10.180   2.198   1.150 -0.0196  0.6554 -0.7666
  705MOL0     H97235  10.028   2.145   0.899  1.5415  0.2785 -0.0770
  705MOL0     H97236   9.979   2.279   0.992 -1.7384 -2.0468 -3.9961
  705MOL0     H97237   9.921   2.133   1.183 -0.0945 -0.0547 -0.2980
  705MOL0     H97238   9.848   2.053   1.031  0.7975  0.0118 -0.9905
  705MOL0     H97239  10.042   1.873   0.900  0.6328 -3.1977 -0.9522
  705MOL0     H97240  10.172   1.565   1.059  1.4357 -3.0135 -3.7099
  705MOL0     H97241  10.149   1.659   0.909 -0.5950 -0.3587 -0.6687
  705MOL0     H97242   9.891   1.564   1.022 -0.2648  0.0923 -1.0366
  705MOL0     H97243   9.956   1.565   0.856 -2.8830 -0.6253 -0.0005
  705MOL0     H97244   9.999   1.379   1.066  0.4336 -2.5278 -0.6540
  705MOL0     H97245   9.928   1.345   0.911 -0.4348 -0.0319  1.4420
  705MOL0     H97246  10.187   1.381   0.819  0.1233 -0.5552 -0.2678
  705MOL0     H97247  10.212   1.366   0.999 -1.8157 -0.7973  0.9641
  705MOL0     H97248  10.076   0.951   0.894 -0.4321  0.3248 -0.6521
  705MOL0     H97249  10.173   0.724   0.656 -1.6304  0.0426  0.4709
  705MOL0     H97250  10.094   0.757   0.813 -0.1090  0.2867 -0.5906
  705MOL0     H97251  10.264   0.696   0.812  1.9667  0.3554 -1.4278
  705MOL0     H97252  10.517   0.706   0.380  1.8577  0.8475 -2.1986
  705MOL0     H97253  10.713   0.633   0.298 -2.0731 -0.9678 -0.9189
  705MOL0     H97254  10.828   0.446   0.227  0.5327 -0.3911 -0.2331
  705MOL0     H97255  10.970   0.536   0.289 -2.9066  1.7566  1.1227
  705MOL0     H97256  11.070   0.361   0.179 -2.0771  2.2266 -1.0537
  705MOL0     H97257  11.076   0.318   0.350 -0.0501 -1.0322  0.1478
  705MOL0     H97258  10.848   0.215   0.167  0.1971  0.4358 -0.0195
  705MOL0     H97259  10.888   0.157   0.321 -2.3667 -0.4366 -2.3135
  705MOL0     H97260  11.098   0.140   0.104 -0.8091 -0.2633 -0.5807
  705MOL0     H97261  10.949   0.043   0.079 -2.8323  2.5662 -1.0358
  705MOL0     H97262  11.131   0.034   0.314 -0.3536  1.7513 -1.7118
  705MOL0     H97263  10.981  -0.057   0.305  1.7288 -1.7171  2.2754
  705MOL0     H97264  11.175  -0.216   0.223 -4.0784 -0.0495  3.8556
  705MOL0     H97265  11.227  -0.082   0.110  1.5351 -3.7078 -0.4719
  705MOL0     H97266  11.063  -0.143  -0.039 -2.0054  3.1288  2.8567
  705MOL0     H97267  10.953  -0.180   0.077 -0.2559  0.0919 -1.4942
  705MOL0     H97268  11.052  -0.391  -0.065 -0.7910 -1.4669  0.5045
  705MOL0     H97269  11.059  -0.403   0.119  2.6401  1.8231  1.6804
  705MOL0     H97270  10.805   0.427   0.665 -0.5119 -1.0598 -0.0346
  705MOL0     H97271  10.603   0.542   0.770 -2.9974 -1.4625 -0.6087
  705MOL0     H97272  10.445   1.129   0.607  1.9808  1.3385  3.7359
  705MOL0     H97273  10.315   1.269   0.738  0.0058 -0.0631 -1.0350
  705MOL0     H97274  10.738   2.243   0.602 -3.0405 -2.0694 -2.1973
  705MOL0     H97275  10.833   1.999   0.537  1.8144 -1.9576  0.9038
  705MOL0     H97276  10.929   1.609   0.789  0.3625 -0.8112 -0.3969
  705MOL0     H97277  11.076   1.406   0.788 -0.1157  0.9090  0.5389
  705MOL0     H97278  11.240   1.113   0.490  3.1251  2.0387  2.2894
  705MOL0     H97279  11.145   1.231   0.380  2.2133  2.8907 -1.6308
  705MOL0     H97280  11.437   1.214   0.483 -2.1485 -1.5147  1.7217
  705MOL0     H97281  11.380   1.367   0.416  2.1197  0.3159 -2.6365
  705MOL0     H97282  11.527   1.236   0.263  0.1095  0.0948  0.5400
  705MOL0     H97283  11.416   1.095   0.275 -0.9008 -0.9732  1.0677
  705MOL0     H97284  11.360   1.367   0.148  0.7370 -0.4529 -2.7906
  705MOL0     H97285  11.251   1.222   0.142 -0.7948  0.7791  2.6587
  705MOL0     H97286  11.552   1.125  -0.149  1.1546  1.1045  1.6686
  705MOL0     H97287  11.100   1.421   0.364  0.2279  0.4164 -0.1001
  705MOL0     H97288  10.836   1.638   0.297 -0.2905  2.5779 -1.0191
  705MOL0     H97289  10.984   1.734   0.319  1.3879 -0.8573  0.7169
  705MOL0     H97290  10.993   1.579   0.246  1.7687 -0.2091 -0.5247
  706MOL0     O97291   0.984   3.523   8.668  1.4771 -0.7726  0.4902
  706MOL0     C97292   0.938   3.405   8.678 -0.5381  0.0841 -0.3174
  706MOL0     O97293   0.967   3.324   8.789 -0.4317 -0.0229  0.3321
  706MOL0     C97294   1.027   3.389   8.895 -0.0973 -1.0767  0.3016
  706MOL0     C97295   1.165   3.380   8.911 -0.8213 -0.5110  0.1610
  706MOL0     C97296   1.223   3.438   9.022  1.5073 -0.3962  0.7392
  706MOL0     C97297   1.145   3.503   9.121 -0.5808  0.3891 -0.5750
  706MOL0     O97298   1.194   3.548   9.235  0.1962 -0.6667 -0.8655
  706MOL0     C97299   1.304   3.475   9.297 -0.4577  0.0650  0.9375
  706MOL0     C97300   1.426   3.553   9.281 -0.3783 -0.0075  0.0680
  706MOL0     C97301   1.423   3.671   9.380  0.8540  0.0257  0.4619
  706MOL0     C97302   1.484   3.790   9.311 -1.3785 -0.4964  0.0163
  706MOL0     C97303   1.514   3.916   9.397 -0.2728 -0.3460  0.2327
  706MOL0     C97304   1.608   4.023   9.335 -0.2135 -0.6654  0.5731
  706MOL0     C97305   1.539   4.087   9.220  1.0047  0.3004 -0.3842
  706MOL0     C97306   1.619   4.186   9.144  1.0198  0.0258  0.1611
  706MOL0     N97307   1.547   4.261   9.039  0.1268 -0.4816 -0.9969
  706MOL0     C97308   1.439   4.215   8.972 -0.0912  0.5072 -0.2019
  706MOL0     C97309   1.386   4.323   8.915  0.7421 -0.0447 -0.3948
  706MOL0     C97310   1.255   4.312   8.843  0.2535  0.2475  0.3404
  706MOL0     C97311   1.129   4.347   8.924  0.1794  0.0704  0.3919
  706MOL0     C97312   1.008   4.279   8.850 -0.7033 -0.0298  0.1494
  706MOL0     C97313   0.876   4.329   8.923  0.3235  0.7123 -0.2068
  706MOL0     O97314   0.774   4.321   8.820  0.0770  0.0880  0.0791
  706MOL0     C97315   0.759   4.436   8.740 -0.2566 -0.3175  0.4619
  706MOL0     C97316   0.650   4.443   8.656  0.9128  0.0133 -0.5502
  706MOL0     C97317   0.621   4.552   8.573 -0.8722 -0.0949  0.2897
  706MOL0     C97318   0.494   4.538   8.488 -0.1085 -1.3797 -0.2626
  706MOL0     C97319   0.707   4.668   8.576 -0.5160  0.4308  1.0532
  706MOL0     C97320   0.670   4.797   8.499 -0.4273  0.6152  0.6951
  706MOL0     O97321   0.596   4.779   8.389  0.4240  0.3796  0.7334
  706MOL0     C97322   0.568   4.883   8.296 -0.4743  0.4879  0.1762
  706MOL0     C97323   0.571   4.848   8.161  0.1226 -0.0704  0.0608
  706MOL0     C97324   0.542   4.943   8.061 -0.0092  0.6139 -0.4213
  706MOL0     C97325   0.496   5.071   8.096 -0.2211 -0.4737  0.5580
  706MOL0     O97326   0.476   5.164   7.998 -0.6056 -0.3376  0.0650
  706MOL0     C97327   0.452   5.302   8.029 -0.3195 -0.2865  0.2656
  706MOL0     C97328   0.471   5.388   7.904 -0.5736 -0.7669 -0.4946
  706MOL0     C97329   0.418   5.533   7.919 -0.4751 -0.2239  1.1221
  706MOL0     C97330   0.520   5.631   7.966  0.6043 -1.0166 -0.3046
  706MOL0     C97331   0.457   5.772   8.003  0.2666  0.4537  0.9327
  706MOL0     C97332   0.414   5.861   7.890 -0.3613 -0.0030  0.5963
  706MOL0     C97333   0.312   5.966   7.931  0.4146 -0.7947  0.4550
  706MOL0     C97334   0.385   6.070   8.023 -0.3299 -0.2435 -0.0476
  706MOL0    Cl97335   0.327   6.056   8.187  0.3336 -0.3566  0.3190
  706MOL0     C97336   0.474   5.099   8.236 -0.7958  0.1104  0.1938
  706MOL0     C97337   0.512   5.007   8.338  0.3585 -0.3170  0.1500
  706MOL0     O97338   0.714   4.907   8.535  0.0422 -0.1114 -0.5479
  706MOL0     C97339   0.820   4.669   8.657  0.4832  0.3015  0.9539
  706MOL0     C97340   0.844   4.555   8.736 -0.1829  1.3132 -0.5179
  706MOL0     N97341   1.466   4.428   8.933  0.1710 -0.2680 -0.3025
  706MOL0     N97342   1.572   4.389   9.013  0.4716 -0.2148  0.5494
  706MOL0     C97343   1.007   3.511   9.105  0.4843  0.8332  0.6329
  706MOL0     C97344   0.951   3.457   8.987 -0.3685 -0.7607 -0.5666
  706MOL0     C97345   0.845   3.349   8.577  0.4805  0.2783  0.3154
  706MOL0     C97346   0.853   3.382   8.437  0.5268 -0.5672  0.2929
  706MOL0     C97347   0.767   3.328   8.337 -0.5165 -0.7070 -0.9057
  706MOL0     C97348   0.656   3.257   8.383  0.9325  0.2735  0.3106
  706MOL0     O97349   0.559   3.228   8.290 -0.1377  0.7288  0.1068
  706MOL0     C97350   0.429   3.187   8.324  0.2886  0.6701 -0.8044
  706MOL0     C97351   0.353   3.204   8.191  0.6550  0.7562 -0.4983
  706MOL0     C97352   0.206   3.195   8.222  0.1798  0.3040 -0.5116
  706MOL0     C97353   0.136   3.050   8.254 -0.5382 -0.8801  0.2858
  706MOL0     C97354  -0.009   3.059   8.247 -0.4415  0.1064  0.8699
  706MOL0     C97355  -0.131   3.064   8.252 -0.3402  0.3810  0.1588
  706MOL0     C97356   0.645   3.218   8.517  0.5736 -0.2647 -0.1402
  706MOL0     C97357   0.734   3.265   8.618 -0.8499  0.5042  0.0716
  706MOL0     C97358   0.695   3.245   8.760  0.3887 -0.2879  0.3669
  706MOL0     H97359   1.231   3.331   8.841 -0.7237  0.3610 -0.3668
  706MOL0     H97360   1.331   3.428   9.032  1.6754  1.7525  1.7035
  706MOL0     H97361   1.309   3.373   9.258 -3.3550  0.7033 -1.5113
  706MOL0     H97362   1.277   3.458   9.402 -0.8963  2.2969  1.2390
  706MOL0     H97363   1.515   3.496   9.309 -0.1378  0.7843  1.0028
  706MOL0     H97364   1.441   3.590   9.179 -0.3843  1.9252  0.7272
  706MOL0     H97365   1.321   3.710   9.392  0.6494 -0.1906 -0.5133
  706MOL0     H97366   1.463   3.641   9.478  2.2795 -3.3114 -0.9926
  706MOL0     H97367   1.581   3.758   9.272 -0.0632 -3.4798  4.9224
  706MOL0     H97368   1.420   3.825   9.229 -0.3903  0.1752 -0.4988
  706MOL0     H97369   1.564   3.890   9.492 -0.0025  0.8074  0.4244
  706MOL0     H97370   1.415   3.954   9.423 -2.0344 -3.3109 -1.5999
  706MOL0     H97371   1.623   4.100   9.411  1.5974 -1.6128  1.2287
  706MOL0     H97372   1.707   3.981   9.314  0.3457  0.5348  0.6863
  706MOL0     H97373   1.458   4.142   9.268 -0.5559 -2.1248 -0.0453
  706MOL0     H97374   1.494   4.013   9.153 -1.4532  0.6792  0.7130
  706MOL0     H97375   1.675   4.248   9.214  0.2428  1.8459 -0.7453
  706MOL0     H97376   1.697   4.142   9.081 -0.1036 -0.9927 -0.5857
  706MOL0     H97377   1.390   4.119   8.985  0.8281  0.1198  0.4903
  706MOL0     H97378   1.229   4.216   8.798  0.4194  0.0679  0.6217
  706MOL0     H97379   1.258   4.382   8.759 -0.5810  1.2905  1.1509
  706MOL0     H97380   1.123   4.319   9.030 -2.9949 -1.2708 -0.0045
  706MOL0     H97381   1.129   4.456   8.922  2.2732  0.0917  0.0244
  706MOL0     H97382   1.022   4.317   8.748 -0.2948  1.1496  0.6306
  706MOL0     H97383   1.012   4.170   8.843 -4.8352 -0.2530 -3.3153
  706MOL0     H97384   0.851   4.266   9.009  0.5916 -1.1610 -1.4419
  706MOL0     H97385   0.887   4.428   8.967 -1.1240  1.7798 -2.0739
  706MOL0     H97386   0.575   4.364   8.649  0.3968  0.5306 -0.9744
  706MOL0     H97387   0.504   4.544   8.379 -0.1780 -0.6732 -0.2341
  706MOL0     H97388   0.431   4.618   8.529 -1.0404 -2.3819  0.3204
  706MOL0     H97389   0.437   4.445   8.498 -0.1974 -1.4459 -1.2227
  706MOL0     H97390   0.596   4.750   8.120 -2.8552 -1.0048  0.2312
  706MOL0     H97391   0.560   4.904   7.961  0.8435  0.8572 -0.3696
  706MOL0     H97392   0.350   5.311   8.067 -0.4620  1.0442 -0.4011
  706MOL0     H97393   0.516   5.340   8.109 -1.0079  1.2040  0.1356
  706MOL0     H97394   0.577   5.377   7.878  0.5542 -2.2501  3.8573
  706MOL0     H97395   0.412   5.342   7.825 -3.0275  2.3649 -0.6723
  706MOL0     H97396   0.330   5.532   7.984 -1.0908  0.2233  0.3046
  706MOL0     H97397   0.390   5.566   7.819 -0.2286  0.8434  1.3917
  706MOL0     H97398   0.602   5.645   7.895  1.4407 -1.8520  0.4529
  706MOL0     H97399   0.575   5.605   8.058  4.8250  4.5359 -0.6613
  706MOL0     H97400   0.378   5.753   8.076  1.1729  1.6029  2.2748
  706MOL0     H97401   0.540   5.824   8.053 -0.0041  2.7983 -0.8612
  706MOL0     H97402   0.374   5.802   7.807  1.9465 -2.7654  1.2941
  706MOL0     H97403   0.499   5.913   7.845  0.9750 -2.9373 -0.5233
  706MOL0     H97404   0.226   5.912   7.972 -0.1885 -0.9234 -0.9197
  706MOL0     H97405   0.286   6.013   7.836 -2.5007  2.2793  2.5366
  706MOL0     H97406   0.372   6.172   7.986 -0.3528  0.4577  1.7950
  706MOL0     H97407   0.494   6.070   8.017 -0.2657 -1.3507 -6.2677
  706MOL0     H97408   0.436   5.195   8.267 -0.1275  0.3637  0.2359
  706MOL0     H97409   0.487   5.026   8.442 -1.3104  1.0007 -0.4478
  706MOL0     H97410   0.892   4.748   8.639  0.1089  0.6272  0.8882
  706MOL0     H97411   0.944   4.536   8.774  0.6640  1.0304 -2.7264
  706MOL0     H97412   0.940   3.545   9.183  0.3962 -0.1732  1.0114
  706MOL0     H97413   0.844   3.472   8.976 -0.4708 -0.7437  0.3845
  706MOL0     H97414   0.943   3.437   8.414 -0.0888  0.9093  1.2537
  706MOL0     H97415   0.792   3.350   8.234  2.2086  2.5872  0.2857
  706MOL0     H97416   0.424   3.088   8.369 -1.0817 -0.1125 -2.5464
  706MOL0     H97417   0.390   3.258   8.398 -0.1236 -0.4088  0.0266
  706MOL0     H97418   0.366   3.118   8.125 -1.5564  2.3190 -3.1456
  706MOL0     H97419   0.381   3.297   8.141  0.4365 -1.1510 -4.5255
  706MOL0     H97420   0.189   3.257   8.311 -0.8536 -1.2057  0.3790
  706MOL0     H97421   0.150   3.218   8.131  0.5745 -1.6181 -1.2846
  706MOL0     H97422   0.166   3.014   8.352  2.1863  1.8093  0.5777
  706MOL0     H97423   0.181   2.985   8.178 -0.0640 -2.5714  1.9468
  706MOL0     H97424  -0.237   3.053   8.242 -0.2511  1.7359 -3.8465
  706MOL0     H97425   0.551   3.166   8.533 -1.3521  2.3103 -2.2008
  706MOL0     H97426   0.773   3.176   8.794  1.4106  1.4505  1.6952
  706MOL0     H97427   0.707   3.337   8.817  1.3186 -0.0874 -0.1369
  706MOL0     H97428   0.592   3.214   8.779 -0.4352  2.9685  1.9172
  707MOL0     O97429   9.364  11.545   3.432  0.2671 -0.5084  0.0980
  707MOL0     C97430   9.250  11.510   3.437  0.0811 -0.8493  0.4213
  707MOL0     O97431   9.171  11.513   3.543  0.4010 -0.3686 -0.8563
  707MOL0     C97432   9.211  11.592   3.654  1.2964  0.3380 -0.4307
  707MOL0     C97433   9.217  11.730   3.650 -0.0736  0.0481  0.4513
  707MOL0     C97434   9.236  11.800   3.774  0.6111 -0.0787 -0.0983
  707MOL0     C97435   9.255  11.731   3.893 -0.0665 -0.7460 -0.3865
  707MOL0     O97436   9.270  11.796   4.018 -0.7515 -0.4634  0.6347
  707MOL0     C97437   9.175  11.902   4.045 -0.6789 -1.1985  0.3459
  707MOL0     C97438   9.027  11.878   4.060  0.0676 -0.1777 -0.0379
  707MOL0     C97439   8.991  11.777   4.181 -0.5396  0.7006 -0.2010
  707MOL0     C97440   9.087  11.785   4.306 -0.1365 -0.2740  0.6872
  707MOL0     C97441   9.009  11.715   4.422 -0.7194 -0.0588  0.0253
  707MOL0     C97442   9.089  11.740   4.550 -0.1871 -0.5403  0.3770
  707MOL0     C97443   9.024  11.706   4.693 -0.1708 -0.2745 -0.0150
  707MOL0     C97444   9.125  11.728   4.808 -0.0004 -0.0149  0.2367
  707MOL0     N97445   9.067  11.725   4.942  0.4564 -0.1817 -0.2399
  707MOL0     C97446   9.007  11.624   5.007  0.6314  0.3960 -0.8951
  707MOL0     C97447   8.978  11.668   5.136  0.5613  0.3417  1.0482
  707MOL0     C97448   8.891  11.595   5.236  0.0529  0.0671  0.1916
  707MOL0     C97449   8.950  11.460   5.282 -0.7408  0.2863  0.0483
  707MOL0     C97450   8.874  11.388   5.394  0.3500  0.3408 -0.0166
  707MOL0     C97451   8.892  11.239   5.398 -0.1395  0.8013 -0.1279
  707MOL0     O97452   8.813  11.154   5.318 -0.1581  0.3985  0.9313
  707MOL0     C97453   8.774  11.193   5.190 -0.1127 -0.3750 -0.3582
  707MOL0     C97454   8.662  11.270   5.163  0.3312  0.5167  0.7433
  707MOL0     C97455   8.623  11.317   5.033  0.0929 -0.2769  0.6147
  707MOL0     C97456   8.489  11.394   5.017  0.1614 -0.4334  0.4732
  707MOL0     C97457   8.706  11.271   4.926  0.8186  0.2307  0.5361
  707MOL0     C97458   8.706  11.321   4.786 -0.5025  0.1835  0.1358
  707MOL0     O97459   8.629  11.435   4.768  0.5178  0.1068 -0.5776
  707MOL0     C97460   8.585  11.491   4.647 -0.3826  0.0212 -0.8357
  707MOL0     C97461   8.661  11.495   4.534 -0.2994 -0.9136  0.7546
  707MOL0     C97462   8.622  11.540   4.406  0.5180  0.0918  0.1214
  707MOL0     C97463   8.490  11.587   4.384 -0.0925 -0.8760  0.0776
  707MOL0     O97464   8.419  11.641   4.270 -1.1899  0.2530 -0.7007
  707MOL0     C97465   8.503  11.686   4.165  0.1071 -0.1210  1.5704
  707MOL0     C97466   8.491  11.593   4.042 -0.1555  0.3174  0.1573
  707MOL0     C97467   8.353  11.601   3.979 -0.6290 -0.1372 -1.2207
  707MOL0     C97468   8.345  11.713   3.864  0.6533  0.1756 -0.1313
  707MOL0     C97469   8.242  11.676   3.760  0.5282  0.0189  0.2249
  707MOL0     C97470   8.277  11.576   3.649  0.2735 -0.0909 -0.2544
  707MOL0     C97471   8.197  11.611   3.522  0.3399 -0.5455 -0.5037
  707MOL0     C97472   8.267  11.712   3.426  0.0506 -0.2081 -0.0669
  707MOL0    Cl97473   8.228  11.864   3.488 -0.1055  0.2586 -0.2769
  707MOL0     C97474   8.411  11.587   4.503 -0.0640  0.2884  0.7786
  707MOL0     C97475   8.460  11.543   4.627  0.0075  0.5424  0.0694
  707MOL0     O97476   8.778  11.272   4.702 -0.5759 -0.5940 -0.5766
  707MOL0     C97477   8.819  11.193   4.954 -0.2085  0.8400 -0.1635
  707MOL0     C97478   8.860  11.163   5.083 -0.4617  0.5397 -0.1336
  707MOL0     N97479   9.004  11.806   5.132 -0.7678 -0.7032  0.9622
  707MOL0     N97480   9.067  11.833   5.020  0.6560  0.5594  0.7651
  707MOL0     C97481   9.232  11.596   3.900 -0.6156 -0.0908 -0.0258
  707MOL0     C97482   9.205  11.527   3.783 -0.0621 -1.0124 -0.7409
  707MOL0     C97483   9.179  11.442   3.320 -0.4932 -0.0756  0.2990
  707MOL0     C97484   9.037  11.433   3.306 -0.2010  0.0537 -0.9227
  707MOL0     C97485   8.968  11.365   3.208 -0.2635  0.6939  0.0615
  707MOL0     C97486   9.047  11.290   3.118 -0.3212  0.5779  0.2569
  707MOL0     O97487   8.973  11.230   3.020  0.0526  0.6458 -0.7118
  707MOL0     C97488   9.039  11.186   2.901 -0.8475 -0.3824  0.1470
  707MOL0     C97489   8.931  11.168   2.790 -0.6479  0.1059  0.1128
  707MOL0     C97490   8.789  11.135   2.849  0.4333  0.7632  0.8798
  707MOL0     C97491   8.800  10.991   2.914  0.2313  0.2939 -0.1701
  707MOL0     C97492   8.803  10.875   2.813  0.2552  0.1774  0.6462
  707MOL0     C97493   8.812  10.786   2.734 -0.1255  0.4021 -0.3545
  707MOL0     C97494   9.182  11.307   3.111  0.0950 -0.5365  0.9356
  707MOL0     C97495   9.250  11.378   3.221  0.1371 -0.2188  0.2772
  707MOL0     C97496   9.405  11.357   3.204  0.5681  0.7420  0.3551
  707MOL0     H97497   9.211  11.787   3.557  1.1401  0.2237  0.4590
  707MOL0     H97498   9.244  11.908   3.775 -1.2185  0.1804  3.2632
  707MOL0     H97499   9.188  11.976   3.966  1.6492 -1.2384  0.6254
  707MOL0     H97500   9.217  11.942   4.138 -0.4562 -1.9184  0.5650
  707MOL0     H97501   8.974  11.969   4.087 -2.8815 -1.9663  0.5959
  707MOL0     H97502   8.993  11.859   3.958  1.8545  0.2595 -0.7648
  707MOL0     H97503   8.888  11.794   4.214  0.3526  3.4457  1.5790
  707MOL0     H97504   8.992  11.675   4.143 -2.5635  0.0177  1.4117
  707MOL0     H97505   9.186  11.738   4.306  0.0017 -0.0372 -0.6511
  707MOL0     H97506   9.101  11.892   4.325 -0.7911 -0.1020  0.2500
  707MOL0     H97507   8.989  11.608   4.405 -1.7810  0.0715  0.3702
  707MOL0     H97508   8.912  11.764   4.437 -0.5399  0.0095  1.0390
  707MOL0     H97509   9.173  11.671   4.537  1.0068  1.3961 -3.8052
  707MOL0     H97510   9.150  11.831   4.547  1.1258 -1.3829  0.5674
  707MOL0     H97511   8.987  11.603   4.693 -0.8503 -0.0313  0.4062
  707MOL0     H97512   8.933  11.763   4.712  0.3613  1.2131 -1.6179
  707MOL0     H97513   9.197  11.647   4.804 -1.1531 -1.0341 -2.0194
  707MOL0     H97514   9.173  11.824   4.786  1.5688 -0.7116  0.5424
  707MOL0     H97515   8.969  11.528   4.972 -1.4877  0.3443  1.2050
  707MOL0     H97516   8.791  11.586   5.193  1.8389  4.1490 -6.3872
  707MOL0     H97517   8.886  11.660   5.323 -3.6988  1.1755 -0.6666
  707MOL0     H97518   8.969  11.409   5.187  5.8308  0.6131  0.7316
  707MOL0     H97519   9.050  11.479   5.324 -0.5258  0.2254 -0.4324
  707MOL0     H97520   8.910  11.427   5.490 -1.9292  2.0098  0.2519
  707MOL0     H97521   8.767  11.408   5.384 -1.6752 -5.3351  4.5226
  707MOL0     H97522   8.996  11.211   5.380 -0.0692 -0.8960  2.4410
  707MOL0     H97523   8.863  11.217   5.501 -2.8091 -3.0779 -1.4660
  707MOL0     H97524   8.604  11.299   5.249 -1.2971 -0.6229  0.0670
  707MOL0     H97525   8.438  11.368   4.924 -0.2510 -3.2864  1.4111
  707MOL0     H97526   8.500  11.502   5.027  0.2582 -0.3783 -0.1666
  707MOL0     H97527   8.424  11.384   5.104  0.4344  2.9607  1.1937
  707MOL0     H97528   8.765  11.466   4.550 -0.4447 -2.0641 -0.2399
  707MOL0     H97529   8.683  11.520   4.318 -0.3838 -2.8155  0.0552
  707MOL0     H97530   8.474  11.787   4.136 -1.6867 -1.1825 -0.6316
  707MOL0     H97531   8.608  11.692   4.194  0.4185  0.8795  0.2945
  707MOL0     H97532   8.566  11.615   3.965  3.2717 -0.1798  3.1155
  707MOL0     H97533   8.514  11.489   4.067  1.5427  0.7926  0.6367
  707MOL0     H97534   8.281  11.617   4.061 -1.9008  0.0167 -2.3251
  707MOL0     H97535   8.323  11.507   3.930  0.7831 -0.6978 -1.0528
  707MOL0     H97536   8.435  11.715   3.802  1.9422  0.4291  1.6579
  707MOL0     H97537   8.314  11.810   3.903 -2.3875 -0.0734 -1.6523
  707MOL0     H97538   8.154  11.637   3.812  0.2406  1.4433  0.8828
  707MOL0     H97539   8.220  11.774   3.714 -2.2611 -0.6490 -0.0974
  707MOL0     H97540   8.233  11.483   3.688  1.7884  0.2654  2.5860
  707MOL0     H97541   8.384  11.566   3.632  0.1443  0.7673 -1.6658
  707MOL0     H97542   8.103  11.649   3.561  1.6263  0.5250  1.7505
  707MOL0     H97543   8.184  11.523   3.457 -1.2580  0.5063 -1.6688
  707MOL0     H97544   8.220  11.708   3.327  0.4709  0.9167 -0.3297
  707MOL0     H97545   8.374  11.693   3.417  0.8100  3.1128  0.7567
  707MOL0     H97546   8.303  11.602   4.502  0.0637  1.9214  3.1149
  707MOL0     H97547   8.395  11.551   4.713  1.5684  2.4509  1.1771
  707MOL0     H97548   8.875  11.147   4.873 -2.6756  0.5666 -1.8291
  707MOL0     H97549   8.957  11.117   5.099 -1.4498 -1.3212  0.8287
  707MOL0     H97550   9.222  11.559   4.001  0.1596  3.7737  1.6809
  707MOL0     H97551   9.184  11.421   3.797 -3.2236 -0.2729  1.3797
  707MOL0     H97552   8.985  11.460   3.398  0.5433 -0.4280 -0.3526
  707MOL0     H97553   8.860  11.367   3.210 -0.2879  3.3821 -0.7044
  707MOL0     H97554   9.105  11.265   2.866 -2.3975  0.9068  0.0208
  707MOL0     H97555   9.097  11.095   2.916  3.8783  2.5063  1.2822
  707MOL0     H97556   8.970  11.089   2.726 -0.2884 -0.2253  0.7276
  707MOL0     H97557   8.917  11.263   2.737 -2.4730 -0.5938 -0.7281
  707MOL0     H97558   8.770  11.210   2.926 -2.6894 -0.2449  1.2329
  707MOL0     H97559   8.708  11.157   2.780  1.4297  1.9750  0.0456
  707MOL0     H97560   8.712  10.974   2.978  1.7914 -1.3718  1.6590
  707MOL0     H97561   8.893  10.982   2.970 -0.5463  0.1554  1.1554
  707MOL0     H97562   8.836  10.705   2.668 -0.5740 -0.4344  0.4843
  707MOL0     H97563   9.236  11.260   3.029 -2.6951 -0.3853 -1.1261
  707MOL0     H97564   9.427  11.300   3.113  1.8939  2.8092 -0.7007
  707MOL0     H97565   9.457  11.453   3.202  0.4330  0.8253 -1.5305
  707MOL0     H97566   9.442  11.293   3.285 -1.0450 -0.8648 -0.1038
  708MOL0     O97567   6.836   9.612  11.221  0.1450  0.0391  0.4500
  708MOL0     C97568   6.797   9.728  11.223  0.0086  0.3320 -0.1122
  708MOL0     O97569   6.672   9.780  11.255  0.2125 -0.8706  0.1690
  708MOL0     C97570   6.554   9.699  11.283 -0.2374 -0.9912 -0.6465
  708MOL0     C97571   6.484   9.747  11.393 -0.3819  0.0461  1.1975
  708MOL0     C97572   6.375   9.678  11.430 -0.7117 -0.0196  0.2780
  708MOL0     C97573   6.320   9.573  11.347 -0.1452 -0.1600  0.1857
  708MOL0     O97574   6.195   9.517  11.366 -0.8413  0.2323 -0.5599
  708MOL0     C97575   6.127   9.549  11.490  0.7141 -0.0336  0.4382
  708MOL0     C97576   5.993   9.477  11.488 -0.9642 -0.8096  0.1818
  708MOL0     C97577   5.902   9.530  11.373 -0.6902  0.5162 -0.6276
  708MOL0     C97578   5.806   9.424  11.335  0.3674  0.1754  1.0811
  708MOL0     C97579   5.712   9.473  11.222  0.3237  0.1532  0.3793
  708MOL0     C97580   5.594   9.387  11.193  0.7542 -0.6643 -1.1124
  708MOL0     C97581   5.627   9.280  11.095  0.0090 -0.6560 -0.5942
  708MOL0     C97582   5.507   9.202  11.064 -0.0927 -0.6919  0.0386
  708MOL0     N97583   5.556   9.095  10.980  0.5873  0.3417  0.5006
  708MOL0     C97584   5.549   9.079  10.840  0.2751  0.8814 -0.2421
  708MOL0     C97585   5.599   8.948  10.822  0.2759 -0.8782  0.3319
  708MOL0     C97586   5.629   8.893  10.694  0.5640  0.7801 -0.5955
  708MOL0     C97587   5.498   8.862  10.615 -0.0675 -0.1478 -0.5411
  708MOL0     C97588   5.392   8.782  10.684  0.7214  0.2250  0.0810
  708MOL0     C97589   5.452   8.657  10.741 -0.0094  0.5844 -0.0546
  708MOL0     O97590   5.514   8.580  10.640  0.0532  0.0827  0.5019
  708MOL0     C97591   5.575   8.464  10.682  0.1277 -0.2627  0.2222
  708MOL0     C97592   5.506   8.351  10.708  0.0726  0.9158  0.2757
  708MOL0     C97593   5.570   8.232  10.762  0.8303  0.0569  0.1744
  708MOL0     C97594   5.490   8.109  10.751  0.3185 -0.1075  0.6997
  708MOL0     C97595   5.695   8.246  10.829 -0.6161  0.0168  0.1294
  708MOL0     C97596   5.766   8.132  10.897  0.6840 -0.1466  0.0023
  708MOL0     O97597   5.892   8.159  10.942 -0.8790 -0.9284 -0.0678
  708MOL0     C97598   5.935   8.059  11.028 -0.3698  0.2477 -0.5959
  708MOL0     C97599   5.997   7.942  10.967  0.2349  0.4812  1.1949
  708MOL0     C97600   6.010   7.822  11.040  0.0134  0.7848 -0.2231
  708MOL0     C97601   5.964   7.820  11.169 -0.4049  0.1828 -0.5804
  708MOL0     O97602   5.993   7.701  11.241 -0.0161 -0.3253  0.6247
  708MOL0     C97603   6.052   7.727  11.372  0.2201 -0.6001  0.2447
  708MOL0     C97604   6.110   7.602  11.417 -0.7877 -0.1567 -0.2498
  708MOL0     C97605   6.166   7.603  11.561  0.2921 -0.5258  1.3807
  708MOL0     C97606   6.195   7.465  11.618 -0.5756 -0.1240  0.7691
  708MOL0     C97607   6.302   7.456  11.728 -0.9576 -0.7554  0.0193
  708MOL0     C97608   6.266   7.515  11.860  0.2338  0.4607 -0.3540
  708MOL0     C97609   6.164   7.433  11.937 -0.0064  0.0788  0.2476
  708MOL0     C97610   6.128   7.503  12.067 -0.3215 -0.2602 -0.3370
  708MOL0    Cl97611   6.266   7.543  12.182  0.0011  0.3868 -0.2609
  708MOL0     C97612   5.893   7.927  11.229 -0.6069  0.8678  0.9037
  708MOL0     C97613   5.889   8.048  11.158  0.0096  0.4511 -0.5306
  708MOL0     O97614   5.710   8.027  10.920 -0.2722 -0.2357 -0.2645
  708MOL0     C97615   5.767   8.366  10.804 -0.5543 -0.5210  0.4597
  708MOL0     C97616   5.709   8.475  10.734 -0.7453 -0.5331  0.2336
  708MOL0     N97617   5.611   8.884  10.942 -0.5434  0.3830  0.2895
  708MOL0     N97618   5.611   8.979  11.029  0.8583  0.8344  0.6093
  708MOL0     C97619   6.383   9.536  11.230 -0.3050  0.0938  0.0883
  708MOL0     C97620   6.502   9.610  11.191  0.7883  0.6231 -0.4082
  708MOL0     C97621   6.893   9.826  11.182 -1.1237 -0.7859 -0.1075
  708MOL0     C97622   6.872   9.897  11.058 -0.6019  0.7625  0.0507
  708MOL0     C97623   6.969   9.973  11.001 -0.5780  0.5797  0.4996
  708MOL0     C97624   7.096   9.989  11.062 -0.9656 -0.0378  0.0490
  708MOL0     O97625   7.183  10.067  10.994 -0.1636  0.1819 -0.3836
  708MOL0     C97626   7.325  10.050  11.022  0.2266 -0.5484  0.1039
  708MOL0     C97627   7.392  10.183  10.972  0.1703  0.3921 -0.3403
  708MOL0     C97628   7.385  10.318  11.053 -0.2503 -0.4111 -0.0462
  708MOL0     C97629   7.400  10.314  11.210  0.5568  1.0466 -0.1259
  708MOL0     C97630   7.501  10.214  11.236 -0.3630  0.0747 -0.7535
  708MOL0     C97631   7.588  10.129  11.263  0.5831 -0.3376 -0.6842
  708MOL0     C97632   7.117   9.928  11.199 -0.6757  0.1494  0.8120
  708MOL0     C97633   7.016   9.852  11.251  0.9166  0.4269  0.4098
  708MOL0     C97634   7.053   9.797  11.385 -0.0644  0.5965 -0.5373
  708MOL0     H97635   6.530   9.826  11.452  1.0211  3.2617 -3.6233
  708MOL0     H97636   6.313   9.717  11.510 -3.1844 -1.4953 -0.7883
  708MOL0     H97637   6.111   9.657  11.487 -2.2312 -0.2715 -5.0851
  708MOL0     H97638   6.182   9.500  11.571 -1.2780 -2.5476  0.3887
  708MOL0     H97639   6.014   9.372  11.466 -3.1048 -1.2847  0.2096
  708MOL0     H97640   5.950   9.484  11.588  1.2058 -1.7254  1.2423
  708MOL0     H97641   5.857   9.622  11.411  1.9955  0.5486  3.0459
  708MOL0     H97642   5.964   9.543  11.284  3.7850 -4.2260  1.3154
  708MOL0     H97643   5.860   9.334  11.305 -2.8929 -1.1108 -1.5206
  708MOL0     H97644   5.747   9.394  11.423 -1.6081  1.1157  0.1455
  708MOL0     H97645   5.770   9.478  11.130 -1.5729  1.9673 -0.7743
  708MOL0     H97646   5.680   9.573  11.250 -0.6279  0.4006 -1.4969
  708MOL0     H97647   5.540   9.350  11.281  0.5705  0.4773 -0.7258
  708MOL0     H97648   5.521   9.456  11.150 -0.3264 -3.0319 -3.3854
  708MOL0     H97649   5.700   9.207  11.131  0.0824 -0.6636 -0.7614
  708MOL0     H97650   5.674   9.329  11.009  0.5470 -1.6796 -0.9022
  708MOL0     H97651   5.463   9.149  11.149  0.3030 -1.8048 -0.4303
  708MOL0     H97652   5.420   9.249  11.018 -0.6404 -1.1345  0.6007
  708MOL0     H97653   5.517   9.143  10.759  0.9938 -0.2035 -1.4234
  708MOL0     H97654   5.683   8.800  10.715  1.9019  1.5287 -0.6538
  708MOL0     H97655   5.694   8.955  10.632  3.3616  0.6634  2.0058
  708MOL0     H97656   5.456   8.962  10.604 -0.2509 -0.1373  0.1981
  708MOL0     H97657   5.517   8.813  10.519  0.2436 -2.2391  0.5250
  708MOL0     H97658   5.341   8.828  10.769  1.2238  0.1087  0.4508
  708MOL0     H97659   5.308   8.761  10.617 -2.8362  0.9445  3.9123
  708MOL0     H97660   5.526   8.683  10.817  1.7657  0.3770 -1.6561
  708MOL0     H97661   5.369   8.599  10.783 -1.3371  3.3147  1.4396
  708MOL0     H97662   5.407   8.342  10.664  0.6371  1.2322 -1.0989
  708MOL0     H97663   5.557   8.031  10.713  0.1778 -1.3416  2.8636
  708MOL0     H97664   5.414   8.127  10.675 -0.3284  1.1547  1.6141
  708MOL0     H97665   5.440   8.072  10.840  2.2540 -0.3426  1.7486
  708MOL0     H97666   6.035   7.950  10.866 -4.1317  0.3781 -0.6516
  708MOL0     H97667   6.061   7.735  10.999 -0.2065  1.6895 -2.5338
  708MOL0     H97668   6.141   7.789  11.366 -1.1471  1.3267 -1.4282
  708MOL0     H97669   5.975   7.772  11.435 -0.7164 -0.1431 -1.1807
  708MOL0     H97670   6.036   7.522  11.409 -3.2108  1.8491  0.8358
  708MOL0     H97671   6.189   7.589  11.343 -1.2661  1.5036 -1.0988
  708MOL0     H97672   6.088   7.647  11.624  1.3955  0.6398  1.9811
  708MOL0     H97673   6.255   7.667  11.566 -0.7403  1.0141  0.6531
  708MOL0     H97674   6.221   7.399  11.534 -0.9912 -0.6832  1.0752
  708MOL0     H97675   6.104   7.426  11.663  0.4696  0.0107  3.1357
  708MOL0     H97676   6.315   7.348  11.741  0.4063 -0.6893 -0.7173
  708MOL0     H97677   6.398   7.491  11.689 -3.2896  4.4038 -2.0075
  708MOL0     H97678   6.234   7.619  11.845  2.7353  1.3392 -0.1762
  708MOL0     H97679   6.357   7.526  11.920  0.9330  1.4907 -1.5603
  708MOL0     H97680   6.190   7.329  11.959 -0.0001 -0.0598 -0.3927
  708MOL0     H97681   6.071   7.436  11.881  0.1002  1.4862  0.1204
  708MOL0     H97682   6.058   7.442  12.125  0.5635 -1.2321 -0.2628
  708MOL0     H97683   6.079   7.598  12.047 -1.3299 -0.9981 -1.5900
  708MOL0     H97684   5.836   7.912  11.320 -2.8566  2.0790 -0.2383
  708MOL0     H97685   5.833   8.130  11.203  2.3920  1.1017  1.4857
  708MOL0     H97686   5.873   8.372  10.826 -0.5777 -1.4912  0.8787
  708MOL0     H97687   5.763   8.563  10.700 -0.6756 -1.6493 -2.9277
  708MOL0     H97688   6.326   9.466  11.171 -0.0583 -0.8365  0.9261
  708MOL0     H97689   6.549   9.595  11.094  1.6735  0.2594  0.0644
  708MOL0     H97690   6.769   9.893  11.024  0.2287 -0.8456 -2.5739
  708MOL0     H97691   6.948  10.013  10.902 -2.4696 -0.0550  0.6110
  708MOL0     H97692   7.334  10.041  11.131 -2.6601 -4.0609  0.2691
  708MOL0     H97693   7.372   9.963  10.975  2.7944 -1.0131  3.2138
  708MOL0     H97694   7.347  10.209  10.876  0.9987  2.9832 -0.1002
  708MOL0     H97695   7.498  10.164  10.954 -0.0426 -0.6054 -0.6175
  708MOL0     H97696   7.463  10.391  11.026 -1.3648  1.5356  1.7390
  708MOL0     H97697   7.291  10.365  11.022 -0.2885 -0.0252  0.6384
  708MOL0     H97698   7.313  10.277  11.264  2.2019  1.2431  2.8981
  708MOL0     H97699   7.413  10.416  11.248 -1.6019  1.4260 -0.2855
  708MOL0     H97700   7.657  10.049  11.282 -0.8708 -1.7879 -1.2253
  708MOL0     H97701   7.211   9.934  11.252  0.2071 -4.0897  0.0260
  708MOL0     H97702   7.048   9.870  11.466 -0.8170 -0.9099  0.8399
  708MOL0     H97703   6.988   9.715  11.418  0.5770  0.2592 -0.0788
  708MOL0     H97704   7.155   9.757  11.377 -0.7311 -1.4060  0.2175
  709MOL0     O97705  11.145   0.225   9.741 -0.6497  0.0755  0.2845
  709MOL0     C97706  11.070   0.128   9.740 -0.2397 -0.4294 -0.4948
  709MOL0     O97707  10.965   0.112   9.837  0.8994  0.6086  0.1006
  709MOL0     C97708  10.969   0.197   9.939 -0.7527 -0.6824  0.2545
  709MOL0     C97709  10.867   0.298   9.940 -0.3044 -0.0567 -1.1404
  709MOL0     C97710  10.870   0.401  10.029  0.4672  0.0260 -0.2283
  709MOL0     C97711  10.974   0.417  10.114  0.0705  0.4548 -0.8154
  709MOL0     O97712  10.995   0.518  10.205  0.7974 -1.0764  0.1374
  709MOL0     C97713  10.987   0.649  10.150  0.5120  0.4840 -1.2703
  709MOL0     C97714  10.939   0.741  10.263  0.1629  0.9286  1.0883
  709MOL0     C97715  10.809   0.713  10.328  0.5721  0.2672  0.1263
  709MOL0     C97716  10.700   0.774  10.230 -0.1300  0.3951  0.4237
  709MOL0     C97717  10.575   0.810  10.322  0.4626  0.9347  0.3129
  709MOL0     C97718  10.472   0.874  10.233 -0.3385  0.7373  0.9997
  709MOL0     C97719  10.344   0.890  10.321 -1.0828  0.4090 -0.1558
  709MOL0     C97720  10.261   1.000  10.272 -0.0699  0.6932 -0.4460
  709MOL0     N97721  10.207   0.984  10.134 -0.1786 -0.0280 -0.3687
  709MOL0     C97722  10.264   1.040  10.023 -0.6771 -0.3833  0.3706
  709MOL0     C97723  10.212   0.956   9.924  1.3212  0.1849  0.2231
  709MOL0     C97724  10.236   0.955   9.783 -0.1833  0.0928  0.1056
  709MOL0     C97725  10.294   0.823   9.742 -0.1968 -0.2243 -0.4364
  709MOL0     C97726  10.435   0.786   9.801  0.1646  0.9586 -0.2838
  709MOL0     C97727  10.454   0.630   9.783  0.2145  0.9501  0.3323
  709MOL0     O97728  10.368   0.563   9.876  0.7988 -0.3139 -0.3904
  709MOL0     C97729  10.365   0.427   9.863 -0.1641  0.2677  1.0528
  709MOL0     C97730  10.259   0.361   9.913  0.3660  0.6811  0.5280
  709MOL0     C97731  10.252   0.217   9.913 -0.5784  0.8125 -0.3909
  709MOL0     C97732  10.126   0.155   9.960 -0.4520 -0.0133 -0.9566
  709MOL0     C97733  10.344   0.142   9.839 -0.5364  0.5061 -0.2008
  709MOL0     C97734  10.336  -0.001   9.812 -0.4873 -0.2724 -0.8320
  709MOL0     O97735  10.455  -0.071   9.830  1.2215  0.8118 -0.5430
  709MOL0     C97736  10.457  -0.170   9.730  0.2293 -0.5712 -0.5559
  709MOL0     C97737  10.520  -0.138   9.616 -0.1521 -0.4753  0.3704
  709MOL0     C97738  10.547  -0.235   9.517 -0.2495 -0.5031  0.3985
  709MOL0     C97739  10.495  -0.365   9.543  0.2021 -0.3890 -0.6126
  709MOL0     O97740  10.514  -0.467   9.460  0.6834  0.1917 -1.3773
  709MOL0     C97741  10.503  -0.450   9.325  0.3396 -0.7079 -0.4732
  709MOL0     C97742  10.506  -0.582   9.249 -0.9489  1.1044  0.2208
  709MOL0     C97743  10.379  -0.595   9.171  0.6286 -0.4528 -0.2694
  709MOL0     C97744  10.378  -0.745   9.127  0.5335 -0.0367 -0.4239
  709MOL0     C97745  10.252  -0.766   9.040 -0.1308  0.7964  1.0639
  709MOL0     C97746  10.237  -0.917   9.025  0.7047 -0.1343  0.8756
  709MOL0     C97747  10.117  -0.956   8.938 -0.7395 -0.5630 -0.7280
  709MOL0     C97748  10.081  -1.098   8.983  0.6181  0.8781 -0.5810
  709MOL0    Cl97749  10.182  -1.216   8.908 -0.1203 -0.1040 -0.2149
  709MOL0     C97750  10.446  -0.399   9.668  0.9663 -0.3292 -0.2602
  709MOL0     C97751  10.417  -0.299   9.764 -0.2575 -0.0748 -0.3616
  709MOL0     O97752  10.228  -0.051   9.791 -0.1536 -0.4686  0.9422
  709MOL0     C97753  10.456   0.205   9.775  1.3028 -0.9485  0.2899
  709MOL0     C97754  10.466   0.347   9.797 -0.4113 -0.5301 -0.1959
  709MOL0     N97755  10.110   0.876   9.979 -0.0368 -0.0087 -0.9008
  709MOL0     N97756  10.113   0.890  10.105 -0.2824 -0.2359  0.2090
  709MOL0     C97757  11.079   0.320  10.124  0.2206 -0.8278  0.3606
  709MOL0     C97758  11.081   0.215  10.028  1.2778  0.7152  0.0213
  709MOL0     C97759  11.054   0.040   9.617 -0.1275  0.3730 -0.5901
  709MOL0     C97760  10.950  -0.050   9.618 -0.2628 -0.1033 -0.2582
  709MOL0     C97761  10.914  -0.122   9.510  0.0768 -0.0414 -0.0945
  709MOL0     C97762  10.977  -0.110   9.393  0.0611 -0.8091 -0.0045
  709MOL0     O97763  10.945  -0.174   9.274 -0.1195  0.4554 -0.7891
  709MOL0     C97764  10.806  -0.180   9.257  0.2236 -0.3764 -0.5522
  709MOL0     C97765  10.773  -0.194   9.110  0.1883 -0.5146 -0.0880
  709MOL0     C97766  10.868  -0.288   9.050  1.4143  0.6779  0.6200
  709MOL0     C97767  10.831  -0.321   8.904  0.0073  0.1568 -0.1114
  709MOL0     C97768  10.743  -0.436   8.890 -0.5641  0.9220 -0.4081
  709MOL0     C97769  10.670  -0.528   8.916 -0.3421 -0.4965  0.2613
  709MOL0     C97770  11.090  -0.027   9.389 -0.5413 -0.0087  0.2071
  709MOL0     C97771  11.129   0.049   9.500 -0.2612 -0.0538 -0.1347
  709MOL0     C97772  11.256   0.122   9.496  0.0003 -0.2781 -0.1224
  709MOL0     H97773  10.795   0.294   9.859 -3.3090 -0.2685  1.3722
  709MOL0     H97774  10.798   0.482  10.027 -2.8706 -2.6465  1.4453
  709MOL0     H97775  10.951   0.659  10.047  3.5210 -0.1883 -2.4904
  709MOL0     H97776  11.088   0.682  10.124  0.0773  1.9675 -1.2178
  709MOL0     H97777  11.018   0.708  10.332  2.6291 -1.2319 -2.4471
  709MOL0     H97778  10.965   0.843  10.234  0.3466 -0.5370 -5.5908
  709MOL0     H97779  10.783   0.608  10.346 -0.3786  0.1758 -1.5475
  709MOL0     H97780  10.800   0.763  10.425 -2.0775 -4.0077  2.4001
  709MOL0     H97781  10.729   0.862  10.170 -1.1235  0.7030  0.3762
  709MOL0     H97782  10.673   0.701  10.153  0.1758  3.4118 -2.8161
  709MOL0     H97783  10.600   0.868  10.412  1.2578  0.9888  0.0639
  709MOL0     H97784  10.535   0.713  10.354  0.3161 -0.1628 -2.8812
  709MOL0     H97785  10.517   0.963  10.187 -0.9661  0.1085 -0.9267
  709MOL0     H97786  10.449   0.802  10.154  3.0006 -0.9679  1.3705
  709MOL0     H97787  10.375   0.931  10.418 -1.5803  2.3044 -0.7699
  709MOL0     H97788  10.275   0.806  10.337 -1.1088  0.6901  1.3058
  709MOL0     H97789  10.181   1.015  10.344 -0.1560  0.1556 -0.4280
  709MOL0     H97790  10.327   1.087  10.281 -1.7158  1.8477  1.0400
  709MOL0     H97791  10.334   1.123  10.018  0.6472 -1.5025 -1.7984
  709MOL0     H97792  10.301   1.037   9.753 -0.5634  1.3536  2.5476
  709MOL0     H97793  10.143   0.974   9.728  0.8289  1.2705 -1.2636
  709MOL0     H97794  10.222   0.747   9.774  0.2582 -0.5107 -0.0695
  709MOL0     H97795  10.309   0.805   9.635 -0.1518 -0.2195 -0.4314
  709MOL0     H97796  10.523   0.840   9.766  0.7882  0.3212  0.2715
  709MOL0     H97797  10.433   0.809   9.908 -1.9080 -0.5416  0.0581
  709MOL0     H97798  10.446   0.585   9.684  2.2438  1.3055 -0.0519
  709MOL0     H97799  10.554   0.594   9.813  0.3103  1.3521  0.4999
  709MOL0     H97800  10.175   0.404   9.968  1.6225  1.7223  1.7102
  709MOL0     H97801  10.051   0.218  10.010 -2.5253 -3.5218  0.7991
  709MOL0     H97802  10.143   0.075  10.033 -2.6813 -0.2995 -0.6809
  709MOL0     H97803  10.066   0.125   9.874 -1.1559  3.2799 -1.7507
  709MOL0     H97804  10.554  -0.036   9.598 -0.4909 -0.5568 -0.8709
  709MOL0     H97805  10.577  -0.199   9.419 -1.7278  3.2865  1.1389
  709MOL0     H97806  10.410  -0.400   9.296 -0.3339 -1.1604  0.8308
  709MOL0     H97807  10.593  -0.397   9.290  1.7420 -2.1529  0.7704
  709MOL0     H97808  10.586  -0.567   9.176 -0.2593 -0.0695  0.6947
  709MOL0     H97809  10.532  -0.667   9.313  1.5620  1.6960  0.0750
  709MOL0     H97810  10.378  -0.528   9.084 -5.1743  2.4298  1.5243
  709MOL0     H97811  10.291  -0.566   9.228  0.2060 -0.8626 -0.7010
  709MOL0     H97812  10.374  -0.815   9.211 -0.2860 -2.7208 -2.5217
  709MOL0     H97813  10.469  -0.772   9.073 -0.8282 -3.7394 -1.2035
  709MOL0     H97814  10.155  -0.727   9.072 -2.0812 -1.2869 -1.7864
  709MOL0     H97815  10.272  -0.727   8.940  3.2533  1.2626  1.7866
  709MOL0     H97816  10.226  -0.955   9.127 -3.1990 -2.7475 -0.2709
  709MOL0     H97817  10.325  -0.958   8.975 -0.1597  0.2319 -1.0130
  709MOL0     H97818  10.140  -0.956   8.831  3.0431  0.1819 -0.0789
  709MOL0     H97819  10.039  -0.883   8.962 -0.0602 -1.0182  3.8803
  709MOL0     H97820   9.977  -1.104   8.949 -0.0257 -0.3676  1.4368
  709MOL0     H97821  10.075  -1.119   9.090 -0.3615 -0.2574 -0.8234
  709MOL0     H97822  10.431  -0.506   9.679  1.0956 -0.4461 -1.1212
  709MOL0     H97823  10.374  -0.318   9.861 -0.7231  0.0757 -0.5344
  709MOL0     H97824  10.524   0.152   9.708  1.5624 -0.6250  0.2961
  709MOL0     H97825  10.555   0.391   9.752 -0.4912  1.2225  1.2594
  709MOL0     H97826  11.172   0.339  10.177  1.4981 -1.4363 -1.5546
  709MOL0     H97827  11.166   0.147  10.026  1.7664  1.0787 -4.8087
  709MOL0     H97828  10.901  -0.066   9.714  1.0620  0.2638  0.5063
  709MOL0     H97829  10.838  -0.198   9.530  2.2227 -1.9256  1.4302
  709MOL0     H97830  10.761  -0.270   9.299  2.6628 -0.8739  1.2485
  709MOL0     H97831  10.752  -0.098   9.305 -0.4579 -0.1044 -1.7445
  709MOL0     H97832  10.793  -0.094   9.068 -2.7756  0.3186  0.2420
  709MOL0     H97833  10.667  -0.213   9.093 -0.3548  1.7658  0.3559
  709MOL0     H97834  10.975  -0.268   9.065  1.0843  0.8312  3.2021
  709MOL0     H97835  10.853  -0.374   9.117 -2.0080  0.1293 -0.6369
  709MOL0     H97836  10.927  -0.336   8.855  0.1564  1.2028 -0.1599
  709MOL0     H97837  10.799  -0.228   8.855  0.4206  1.7294  2.3902
  709MOL0     H97838  10.588  -0.598   8.919  0.4581 -1.4703  3.0937
  709MOL0     H97839  11.150  -0.044   9.300  0.3623  0.2569  0.7634
  709MOL0     H97840  11.313   0.118   9.590  2.1822  1.1709 -1.2901
  709MOL0     H97841  11.309   0.100   9.403  0.4726  2.2763 -0.5282
  709MOL0     H97842  11.244   0.231   9.494  1.0466 -0.1370 -2.9997
  710MOL0     O97843   7.009  10.478   8.265 -0.0411  0.1329 -0.1153
  710MOL0     C97844   6.989  10.417   8.367  0.0637 -0.3281  0.2022
  710MOL0     O97845   6.922  10.297   8.374 -0.4211 -0.3451  0.0913
  710MOL0     C97846   6.960  10.216   8.480 -0.4774 -0.3910  0.3484
  710MOL0     C97847   6.900  10.205   8.601 -0.4632  0.4960 -0.2851
  710MOL0     C97848   6.947  10.128   8.708 -0.5264  0.8452  0.1997
  710MOL0     C97849   7.060  10.045   8.690  0.5397 -0.2627 -0.2799
  710MOL0     O97850   7.107   9.982   8.797  0.1349  0.3626  0.0986
  710MOL0     C97851   7.230   9.927   8.790 -0.5601 -0.8624 -0.8563
  710MOL0     C97852   7.269   9.923   8.935  0.2556  0.4126 -0.4395
  710MOL0     C97853   7.397   9.837   8.952  0.5345 -0.5254  0.4053
  710MOL0     C97854   7.528   9.904   8.904  0.7184  0.5174 -0.4544
  710MOL0     C97855   7.644   9.811   8.921  0.8384 -0.0497  0.3752
  710MOL0     C97856   7.763   9.907   8.898 -0.1316 -0.1929  1.4552
  710MOL0     C97857   7.883   9.824   8.918 -1.1302  0.2811  0.1951
  710MOL0     C97858   8.009   9.913   8.908  0.1898  0.2956 -0.0055
  710MOL0     N97859   8.029   9.968   8.774 -0.1892 -0.8079 -0.0020
  710MOL0     C97860   8.076   9.898   8.669 -0.0009 -0.2525 -0.0498
  710MOL0     C97861   8.051   9.976   8.562 -0.7941 -0.2993  0.4365
  710MOL0     C97862   8.105   9.939   8.428  0.2487  0.2949  0.6148
  710MOL0     C97863   8.245  10.020   8.409 -0.1197 -0.3377  0.7472
  710MOL0     C97864   8.305   9.978   8.276 -0.3940  0.1624  0.1908
  710MOL0     C97865   8.449  10.026   8.259  0.0588 -0.3672  0.0283
  710MOL0     O97866   8.510   9.936   8.167  0.7252  0.2340 -0.4272
  710MOL0     C97867   8.508   9.957   8.034  0.6083  0.0441 -0.0166
  710MOL0     C97868   8.597   9.891   7.959 -0.0685  0.6356  0.5609
  710MOL0     C97869   8.619   9.898   7.821  0.0216  0.4744 -0.6018
  710MOL0     C97870   8.725   9.801   7.768  0.4221  0.4206 -1.1682
  710MOL0     C97871   8.541   9.983   7.740  0.5063 -0.4946 -0.2951
  710MOL0     C97872   8.568  10.015   7.601  0.1703  1.2559  0.0143
  710MOL0     O97873   8.473  10.095   7.530  0.8524  0.4168 -0.0485
  710MOL0     C97874   8.493  10.149   7.400 -0.3683  0.8366 -0.3299
  710MOL0     C97875   8.380  10.167   7.321 -0.2706  0.3936 -0.4105
  710MOL0     C97876   8.391  10.236   7.203  0.4000 -0.1768  0.4619
  710MOL0     C97877   8.515  10.286   7.154  0.4613  0.5992 -0.5970
  710MOL0     O97878   8.531  10.362   7.039 -0.1875 -0.4074 -0.4049
  710MOL0     C97879   8.424  10.376   6.943  0.6063 -0.4474  0.3272
  710MOL0     C97880   8.482  10.439   6.805  0.3738  0.3024  0.1194
  710MOL0     C97881   8.536  10.582   6.824  0.4494 -0.0502  0.0030
  710MOL0     C97882   8.602  10.662   6.713  0.2585  0.5992  1.7168
  710MOL0     C97883   8.672  10.791   6.766 -0.1593  0.1777  0.5506
  710MOL0     C97884   8.773  10.850   6.680 -0.3663  0.1080 -0.2832
  710MOL0     C97885   8.833  10.967   6.755  0.6455 -0.0792 -0.0629
  710MOL0     C97886   8.925  11.051   6.683 -0.9235 -0.6911 -1.1236
  710MOL0    Cl97887   9.076  10.966   6.638  0.0064 -0.0341 -0.0226
  710MOL0     C97888   8.632  10.254   7.219  0.2884 -0.2787 -0.4298
  710MOL0     C97889   8.617  10.201   7.347  0.2710 -0.5984  1.5356
  710MOL0     O97890   8.674   9.982   7.548  0.5753  0.5973 -0.0236
  710MOL0     C97891   8.455  10.066   7.820  0.2817  0.1820  0.3723
  710MOL0     C97892   8.437  10.054   7.962  0.0335 -1.1702  0.9043
  710MOL0     N97893   8.016  10.099   8.606 -1.0192 -0.5167 -0.8416
  710MOL0     N97894   8.003  10.091   8.731  1.0003 -0.3669 -0.2377
  710MOL0     C97895   7.120  10.047   8.560  0.1948  0.0826  0.8228
  710MOL0     C97896   7.079  10.139   8.456 -0.1888 -0.4678 -0.3805
  710MOL0     C97897   7.027  10.490   8.490 -0.0915  0.5527 -0.2270
  710MOL0     C97898   6.931  10.536   8.575  0.1227 -0.6074 -0.4239
  710MOL0     C97899   6.964  10.603   8.696 -0.4308 -0.0872  0.2658
  710MOL0     C97900   7.101  10.618   8.723  0.1999 -0.2100 -0.9918
  710MOL0     O97901   7.130  10.664   8.847 -0.2911 -0.5339  0.5733
  710MOL0     C97902   7.157  10.807   8.859 -0.8544 -0.4440 -0.8312
  710MOL0     C97903   7.307  10.835   8.888  0.0693  0.1025 -1.1730
  710MOL0     C97904   7.369  10.725   8.973 -0.6914  0.3654 -0.1360
  710MOL0     C97905   7.524  10.733   8.999 -0.8043  0.0749  0.1886
  710MOL0     C97906   7.553  10.864   9.063  0.7116  0.4144  0.5017
  710MOL0     C97907   7.592  10.978   9.092  0.3024  0.1751 -0.1642
  710MOL0     C97908   7.203  10.576   8.636 -1.1239 -0.2585 -0.2033
  710MOL0     C97909   7.169  10.511   8.512  0.5826  0.3975 -1.5161
  710MOL0     C97910   7.276  10.453   8.426  0.1123 -0.1814  0.1082
  710MOL0     H97911   6.823  10.275   8.634 -0.1833  0.7510 -0.1575
  710MOL0     H97912   6.884  10.129   8.796 -2.9136 -2.1583 -1.2535
  710MOL0     H97913   7.314   9.987   8.754 -0.6946  0.6925  1.1913
  710MOL0     H97914   7.223   9.826   8.748 -0.4668 -0.2721 -2.3505
  710MOL0     H97915   7.272  10.024   8.976 -0.1345  0.4172 -0.4180
  710MOL0     H97916   7.198   9.868   8.998 -1.0630  1.2533 -1.1428
  710MOL0     H97917   7.403   9.815   9.059  2.1154 -3.8725 -0.2133
  710MOL0     H97918   7.377   9.741   8.902 -0.6888  0.7912 -1.7461
  710MOL0     H97919   7.516   9.942   8.802  0.1983 -0.4004 -0.7486
  710MOL0     H97920   7.539   9.995   8.964 -0.9224  0.2533  0.2973
  710MOL0     H97921   7.642   9.730   8.848  0.0422  0.7172 -0.4880
  710MOL0     H97922   7.648   9.766   9.020  0.7226  1.7982  1.2528
  710MOL0     H97923   7.748   9.953   8.799  0.1582 -2.2558  0.3983
  710MOL0     H97924   7.759  10.006   8.946 -0.3518  1.8675 -2.3609
  710MOL0     H97925   7.882   9.741   8.847 -0.3853 -0.4171  0.9692
  710MOL0     H97926   7.878   9.776   9.016  1.3900  2.0185  1.2909
  710MOL0     H97927   8.015   9.995   8.980 -4.2440 -0.5225  1.6273
  710MOL0     H97928   8.096   9.849   8.924 -0.0947  0.1048  0.8416
  710MOL0     H97929   8.122   9.800   8.669 -0.7596 -0.7060  2.7027
  710MOL0     H97930   8.036   9.953   8.345 -1.2424 -1.6590  1.4444
  710MOL0     H97931   8.125   9.831   8.421 -0.8371  0.0660  0.8581
  710MOL0     H97932   8.221  10.127   8.411 -1.9427 -0.6328 -1.4819
  710MOL0     H97933   8.318  10.000   8.487 -0.3667 -1.0530  0.7984
  710MOL0     H97934   8.305   9.869   8.283  0.7462  0.0739 -0.7233
  710MOL0     H97935   8.244  10.014   8.192 -0.5138  1.7741  0.9339
  710MOL0     H97936   8.438  10.125   8.214 -1.7282 -0.0554  1.0483
  710MOL0     H97937   8.510  10.028   8.349 -0.7493 -0.3356  0.5891
  710MOL0     H97938   8.656   9.814   8.008 -0.1071  0.6849  0.6857
  710MOL0     H97939   8.700   9.765   7.668 -0.4689 -2.5206  0.0027
  710MOL0     H97940   8.732   9.709   7.826 -0.7138 -0.9434 -3.0738
  710MOL0     H97941   8.819   9.856   7.761  1.5155 -1.1999  0.1175
  710MOL0     H97942   8.288  10.119   7.351  0.6425 -0.7847  0.6343
  710MOL0     H97943   8.306  10.265   7.142  2.7669 -0.7227 -3.4190
  710MOL0     H97944   8.395  10.280   6.899  2.5254 -0.6228 -0.6754
  710MOL0     H97945   8.338  10.441   6.961 -0.0812 -0.9338 -0.9795
  710MOL0     H97946   8.565  10.374   6.776 -1.0372 -1.7295  0.4161
  710MOL0     H97947   8.400  10.428   6.733  0.2579 -0.6702  0.3794
  710MOL0     H97948   8.616  10.582   6.899 -1.1000  2.5284  1.8325
  710MOL0     H97949   8.459  10.639   6.876 -1.4798 -3.9923  1.9053
  710MOL0     H97950   8.527  10.684   6.637  0.1856  0.4144  1.7340
  710MOL0     H97951   8.674  10.614   6.646 -1.3745  1.9541 -1.2264
  710MOL0     H97952   8.597  10.869   6.787 -0.1753  0.0578  0.9554
  710MOL0     H97953   8.728  10.771   6.857  1.5732  2.8376  0.1597
  710MOL0     H97954   8.717  10.885   6.593 -2.3348  2.1684  1.6935
  710MOL0     H97955   8.838  10.769   6.644 -2.9999 -1.6001 -1.4733
  710MOL0     H97956   8.876  10.923   6.846 -2.8348 -2.0354  0.8489
  710MOL0     H97957   8.756  11.039   6.784 -0.1206 -0.0789 -1.9705
  710MOL0     H97958   8.951  11.135   6.748 -1.0813 -1.6793  0.2555
  710MOL0     H97959   8.878  11.106   6.601 -3.0144  0.5253  0.7783
  710MOL0     H97960   8.735  10.282   7.198  0.4743 -0.6128  0.0066
  710MOL0     H97961   8.709  10.194   7.403  0.1461 -0.7700  1.7183
  710MOL0     H97962   8.402  10.148   7.772 -3.0081 -1.4044  1.0356
  710MOL0     H97963   8.367  10.117   8.016  0.8790  0.1634  0.5027
  710MOL0     H97964   7.209   9.987   8.542 -0.3240 -0.9412  1.5176
  710MOL0     H97965   7.122  10.151   8.357 -1.3997 -1.8695 -1.1140
  710MOL0     H97966   6.828  10.522   8.545  0.1525  0.5366 -1.0927
  710MOL0     H97967   6.881  10.626   8.762 -1.0135  0.7695 -0.7422
  710MOL0     H97968   7.117  10.863   8.774  0.9849  0.2241 -1.3050
  710MOL0     H97969   7.096  10.840   8.944  0.2841 -3.4247  1.3420
  710MOL0     H97970   7.328  10.932   8.934  4.0526 -2.0216  2.1275
  710MOL0     H97971   7.362  10.837   8.794 -2.1031 -0.8189 -2.5492
  710MOL0     H97972   7.317  10.727   9.069 -0.2767  3.0629  0.1297
  710MOL0     H97973   7.363  10.626   8.929 -0.0683  0.3858 -0.2753
  710MOL0     H97974   7.584  10.716   8.910 -3.1002 -1.5340 -1.1450
  710MOL0     H97975   7.553  10.649   9.062 -0.9145 -0.4341 -0.4296
  710MOL0     H97976   7.629  11.077   9.109  2.0530  0.2742 -3.6207
  710MOL0     H97977   7.304  10.600   8.665 -1.2916  0.6720 -0.3608
  710MOL0     H97978   7.344  10.394   8.489 -1.3664 -2.7423 -0.5172
  710MOL0     H97979   7.233  10.386   8.351 -2.0502  0.2169  0.9134
  710MOL0     H97980   7.327  10.539   8.383 -0.3899 -0.7173 -1.6364
  711MOL0     O97981   9.520   9.980   1.915 -0.6943 -0.5537  0.1172
  711MOL0     C97982   9.598   9.892   1.913 -0.3480 -0.6582  0.0226
  711MOL0     O97983   9.663   9.833   2.023  0.0929  0.4663  0.8721
  711MOL0     C97984   9.599   9.836   2.139 -0.4443 -0.6471 -0.7610
  711MOL0     C97985   9.677   9.859   2.248 -1.3932  0.8807  0.5099
  711MOL0     C97986   9.628   9.886   2.372  0.7036  0.0679 -0.1981
  711MOL0     C97987   9.486   9.901   2.391  0.3450 -0.4346  0.7566
  711MOL0     O97988   9.414   9.913   2.509 -0.2211  0.6973  0.7331
  711MOL0     C97989   9.489   9.904   2.630  0.4252 -0.0235  0.7058
  711MOL0     C97990   9.378   9.914   2.735  0.3048  0.1797 -0.0782
  711MOL0     C97991   9.422   9.854   2.869  0.1168 -0.6923  0.9085
  711MOL0     C97992   9.520   9.939   2.946  0.4887 -0.0308  0.2759
  711MOL0     C97993   9.555   9.871   3.076  0.2740  0.1806  0.8473
  711MOL0     C97994   9.672   9.939   3.144  0.7560 -0.1952  0.5647
  711MOL0     C97995   9.709   9.883   3.277  0.5803  0.7919 -0.5339
  711MOL0     C97996   9.605   9.935   3.385 -0.1715 -0.3807 -0.8548
  711MOL0     N97997   9.633   9.882   3.515  0.2011  0.2548 -0.6392
  711MOL0     C97998   9.630   9.747   3.554  0.2290 -0.5841 -0.0109
  711MOL0     C97999   9.678   9.750   3.677 -0.2480  0.2982  0.3890
  711MOL0     C98000   9.702   9.624   3.758 -0.1980  0.0970  0.5442
  711MOL0     C98001   9.844   9.609   3.823 -0.1007 -0.6097  0.4397
  711MOL0     C98002   9.941   9.579   3.700  0.3925  0.2839  0.5688
  711MOL0     C98003  10.086   9.570   3.731 -1.1778 -0.3858  0.1237
  711MOL0     O98004  10.144   9.480   3.629  0.0967 -0.2153 -0.0926
  711MOL0     C98005  10.255   9.422   3.650 -0.5673 -0.3133  0.0305
  711MOL0     C98006  10.275   9.307   3.579 -0.5437 -0.1807  1.3527
  711MOL0     C98007  10.395   9.229   3.595 -0.9078  0.1964  0.3396
  711MOL0     C98008  10.413   9.116   3.488 -0.5335 -0.8744  0.7590
  711MOL0     C98009  10.497   9.279   3.691 -0.0376 -0.5266 -0.3766
  711MOL0     C98010  10.629   9.213   3.736 -0.1322 -0.6328 -0.4911
  711MOL0     O98011  10.726   9.278   3.826  0.4549  0.1385  0.8201
  711MOL0     C98012  10.818   9.185   3.857 -0.3817  0.2274  0.3524
  711MOL0     C98013  10.802   9.097   3.972 -0.2639 -0.6583 -0.8232
  711MOL0     C98014  10.902   8.996   3.997  0.8763 -0.1445 -0.6568
  711MOL0     C98015  11.022   9.003   3.929 -0.1682  0.0145  0.9474
  711MOL0     O98016  11.123   8.914   3.966  0.1840 -0.6760  0.0150
  711MOL0     C98017  11.259   8.957   3.982  0.2448 -0.7305 -0.3773
  711MOL0     C98018  11.354   8.864   3.905  0.0854  0.9397  0.7048
  711MOL0     C98019  11.372   8.725   3.970  0.2762  0.5342 -0.3021
  711MOL0     C98020  11.421   8.727   4.114 -0.6325 -0.3436  0.6425
  711MOL0     C98021  11.491   8.606   4.159  0.5473  0.7234 -0.0430
  711MOL0     C98022  11.642   8.604   4.090  1.3478  0.1564  0.2882
  711MOL0     C98023  11.687   8.452   4.095  0.3133 -0.2265 -0.4805
  711MOL0     C98024  11.825   8.456   4.021  0.9114  0.1317 -0.0229
  711MOL0    Cl98025  11.954   8.499   4.125 -0.0806 -0.2548 -0.1963
  711MOL0     C98026  11.039   9.092   3.820  0.9574 -0.3849 -0.5311
  711MOL0     C98027  10.929   9.178   3.784 -0.5352  0.2180  0.7539
  711MOL0     O98028  10.638   9.100   3.688 -0.0773 -0.7916 -0.1755
  711MOL0     C98029  10.473   9.409   3.757  0.6160  0.5788  0.5357
  711MOL0     C98030  10.353   9.481   3.734  1.5913 -0.9540  0.3661
  711MOL0     N98031   9.724   9.876   3.713  0.0582  0.9854 -0.0398
  711MOL0     N98032   9.687   9.952   3.620 -0.3813 -0.6716  0.8762
  711MOL0     C98033   9.404   9.880   2.281 -0.7452 -0.3619 -0.1685
  711MOL0     C98034   9.457   9.836   2.161  0.1936 -0.2805  0.3856
  711MOL0     C98035   9.645   9.836   1.785 -0.1123 -0.0582  0.0301
  711MOL0     C98036   9.777   9.845   1.764 -0.1946 -0.3382  1.5568
  711MOL0     C98037   9.833   9.801   1.646  0.0415 -0.7456 -0.3608
  711MOL0     C98038   9.751   9.753   1.545  0.7938  0.1126  0.8808
  711MOL0     O98039   9.804   9.732   1.417  0.1512  0.4974 -0.0120
  711MOL0     C98040   9.776   9.598   1.352  0.7282  0.1401 -0.2531
  711MOL0     C98041   9.912   9.518   1.362  0.2035 -0.7980  0.3878
  711MOL0     C98042   9.924   9.428   1.480 -0.5932 -0.5567 -0.0448
  711MOL0     C98043  10.055   9.351   1.492  0.8982  0.3791  0.1727
  711MOL0     C98044  10.177   9.428   1.503 -0.0962 -0.0189  0.2382
  711MOL0     C98045  10.269   9.500   1.500 -0.0647 -0.0492 -0.2572
  711MOL0     C98046   9.614   9.742   1.562 -0.3946  0.2840 -0.4555
  711MOL0     C98047   9.555   9.793   1.682 -0.0203  0.5168 -0.6540
  711MOL0     C98048   9.409   9.771   1.688  0.6483 -0.3609 -0.0707
  711MOL0     H98049   9.784   9.859   2.231 -0.0951 -0.6555  6.4255
  711MOL0     H98050   9.694   9.908   2.455  0.3895  3.3952 -0.6894
  711MOL0     H98051   9.567   9.979   2.643  1.8921 -1.4553  0.4359
  711MOL0     H98052   9.535   9.807   2.651  3.4078  0.8549 -1.1306
  711MOL0     H98053   9.360  10.022   2.741 -1.1681  0.0546 -1.5783
  711MOL0     H98054   9.286   9.857   2.717  0.0235  0.0429  1.6361
  711MOL0     H98055   9.330   9.846   2.928  0.3312 -1.1995  1.1813
  711MOL0     H98056   9.455   9.751   2.857 -1.2189 -1.1514  1.0291
  711MOL0     H98057   9.607   9.949   2.880  0.7039 -1.5791  0.2970
  711MOL0     H98058   9.464  10.033   2.951 -0.3857 -0.5396  0.1930
  711MOL0     H98059   9.585   9.766   3.066  0.6650  0.2442  1.2679
  711MOL0     H98060   9.464   9.867   3.136 -2.1406  0.1628 -2.5682
  711MOL0     H98061   9.753   9.952   3.072  3.3453  0.2100  3.3456
  711MOL0     H98062   9.659  10.044   3.171  2.9881 -0.5247  3.4442
  711MOL0     H98063   9.807   9.921   3.308  0.2824  2.9116 -1.9759
  711MOL0     H98064   9.725   9.775   3.280 -0.3112  0.6478  2.4573
  711MOL0     H98065   9.605  10.043   3.405 -3.0265 -0.7709  2.1977
  711MOL0     H98066   9.502   9.901   3.368 -1.1574  1.8755  0.2218
  711MOL0     H98067   9.613   9.661   3.490  0.4169 -0.2632 -0.5045
  711MOL0     H98068   9.683   9.530   3.706 -3.2575 -1.1372  3.5149
  711MOL0     H98069   9.623   9.622   3.834 -0.3474 -0.7367  0.3761
  711MOL0     H98070   9.881   9.704   3.864  3.2868 -1.1499 -1.0154
  711MOL0     H98071   9.845   9.536   3.904  0.4588  0.6269  1.5863
  711MOL0     H98072   9.897   9.492   3.650  0.4571  0.1900  0.6745
  711MOL0     H98073   9.942   9.648   3.615 -0.9503 -1.4570 -0.9497
  711MOL0     H98074  10.128   9.671   3.724 -0.2116 -0.8593 -1.1783
  711MOL0     H98075  10.104   9.532   3.832 -2.9606  1.9917  1.4549
  711MOL0     H98076  10.210   9.284   3.495 -1.0407  3.2617  0.6719
  711MOL0     H98077  10.329   9.110   3.418  0.8635 -2.5077 -0.9008
  711MOL0     H98078  10.429   9.014   3.524 -1.4519 -0.9238  1.0541
  711MOL0     H98079  10.499   9.136   3.424 -1.2723  0.1473  0.0512
  711MOL0     H98080  10.715   9.111   4.036  0.4820  1.0320 -0.1079
  711MOL0     H98081  10.887   8.921   4.074  4.8362 -1.4507 -0.9339
  711MOL0     H98082  11.263   9.058   3.941 -2.3444 -0.5775 -0.4081
  711MOL0     H98083  11.293   8.964   4.086 -2.0117  0.7727  0.3192
  711MOL0     H98084  11.325   8.851   3.800  0.9971  0.1881  0.5339
  711MOL0     H98085  11.457   8.898   3.889  0.1055  0.1717 -1.0848
  711MOL0     H98086  11.445   8.674   3.907  1.7104  3.1616 -0.9167
  711MOL0     H98087  11.277   8.672   3.969  1.1039 -0.9845 -0.9019
  711MOL0     H98088  11.339   8.748   4.184 -0.9319 -2.8405  1.1075
  711MOL0     H98089  11.497   8.806   4.117 -0.1671 -0.7078 -0.8050
  711MOL0     H98090  11.496   8.595   4.267  1.1093  0.1865 -0.1196
  711MOL0     H98091  11.427   8.523   4.130 -0.2012  1.7721 -1.5703
  711MOL0     H98092  11.702   8.666   4.158 -0.3076 -0.8993  2.8974
  711MOL0     H98093  11.655   8.641   3.988  0.1151 -4.3256 -1.7543
  711MOL0     H98094  11.616   8.390   4.040  1.2821  0.3093 -2.4107
  711MOL0     H98095  11.688   8.423   4.201 -0.9590 -2.6072 -1.0642
  711MOL0     H98096  11.823   8.530   3.940 -1.0848  0.0029 -0.1350
  711MOL0     H98097  11.843   8.361   3.970  1.4930  1.0376 -1.5579
  711MOL0     H98098  11.122   9.087   3.749 -0.8693  0.2037 -2.8417
  711MOL0     H98099  10.942   9.247   3.702 -0.0096  0.9519  1.4347
  711MOL0     H98100  10.537   9.429   3.842 -1.8129 -0.8155  2.8666
  711MOL0     H98101  10.338   9.571   3.793  2.6811 -1.0183  0.7601
  711MOL0     H98102   9.299   9.897   2.306 -0.0723  1.9111  1.4232
  711MOL0     H98103   9.391   9.836   2.074  0.0584  2.2105  0.4110
  711MOL0     H98104   9.837   9.891   1.842  0.2414  1.0393  0.4568
  711MOL0     H98105   9.937   9.826   1.626 -0.1594  0.6664  0.1901
  711MOL0     H98106   9.696   9.542   1.400  0.3436 -0.2044 -1.2792
  711MOL0     H98107   9.748   9.610   1.247 -1.2951 -0.5817  0.1583
  711MOL0     H98108  10.003   9.577   1.347  0.5557 -1.7202 -1.4866
  711MOL0     H98109   9.899   9.456   1.273 -1.9895 -1.5909  1.1929
  711MOL0     H98110   9.906   9.481   1.574  1.8069  1.2411 -0.5028
  711MOL0     H98111   9.835   9.369   1.456 -2.1173  1.5111  0.1905
  711MOL0     H98112  10.073   9.280   1.411 -0.6923  0.1528 -0.0201
  711MOL0     H98113  10.037   9.303   1.589  0.3835  3.2570  1.6372
  711MOL0     H98114  10.355   9.564   1.488 -1.0680  0.8993 -3.7414
  711MOL0     H98115   9.551   9.722   1.476 -1.3554 -0.6184  0.4234
  711MOL0     H98116   9.355   9.808   1.601 -2.6746 -0.0224  1.9450
  711MOL0     H98117   9.405   9.662   1.684  2.6156 -0.4748  0.0806
  711MOL0     H98118   9.357   9.804   1.779 -1.3013 -1.8846 -0.5600
  712MOL0     O98119   0.268   1.709   3.246 -0.6108  0.6327 -0.1295
  712MOL0     C98120   0.276   1.634   3.150  0.4834  0.5992  0.1895
  712MOL0     O98121   0.378   1.624   3.065  0.1483  0.1513  0.3082
  712MOL0     C98122   0.475   1.716   3.085  0.2880  0.1717  0.5422
  712MOL0     C98123   0.593   1.695   3.156 -0.6372 -1.2977  0.1919
  712MOL0     C98124   0.688   1.800   3.175 -0.2564 -0.0028  0.6054
  712MOL0     C98125   0.672   1.919   3.104 -0.4677  0.2416  0.6348
  712MOL0     O98126   0.766   2.018   3.098  0.4315  0.1117  0.1952
  712MOL0     C98127   0.897   1.996   3.153  0.3125 -0.7527 -0.3783
  712MOL0     C98128   0.978   2.134   3.119  0.3002 -0.0533 -0.3029
  712MOL0     C98129   0.964   2.241   3.225 -0.5229  0.3829 -0.1942
  712MOL0     C98130   1.069   2.357   3.219  1.1289  0.2349  0.7766
  712MOL0     C98131   1.046   2.447   3.103  0.6835 -0.6149  0.8138
  712MOL0     C98132   1.111   2.578   3.120  0.1358  0.0358  0.2147
  712MOL0     C98133   1.110   2.668   2.988  1.5015 -0.6814 -0.2153
  712MOL0     C98134   0.977   2.679   2.909  0.2526 -0.1808 -0.1143
  712MOL0     N98135   0.990   2.741   2.772 -0.5321 -0.3545 -0.5844
  712MOL0     C98136   1.105   2.741   2.697  0.0654 -0.0079 -0.0619
  712MOL0     C98137   1.084   2.828   2.600  0.7256 -0.9839 -0.0913
  712MOL0     C98138   1.189   2.860   2.500 -0.3948 -0.2570  0.3750
  712MOL0     C98139   1.191   2.791   2.362  0.2593  0.5855 -0.3835
  712MOL0     C98140   1.326   2.823   2.301  0.3429 -0.3742 -0.2682
  712MOL0     C98141   1.351   2.765   2.159 -0.7144  0.2548 -0.1757
  712MOL0     O98142   1.315   2.628   2.167  0.2427  0.1252  0.0373
  712MOL0     C98143   1.226   2.595   2.071  0.0571 -1.0971  0.0092
  712MOL0     C98144   1.258   2.598   1.940  0.3427  0.9004  0.2949
  712MOL0     C98145   1.169   2.564   1.838  0.0419  0.1615 -0.0676
  712MOL0     C98146   1.212   2.608   1.702  0.1149  0.4997  0.4613
  712MOL0     C98147   1.040   2.509   1.875 -0.3004  0.3790  0.4060
  712MOL0     C98148   0.937   2.465   1.775  0.6182 -0.4168  1.2230
  712MOL0     O98149   0.821   2.424   1.826 -0.3247  0.3848  0.0237
  712MOL0     C98150   0.753   2.316   1.770 -0.1569 -0.0983  0.4763
  712MOL0     C98151   0.617   2.318   1.779  0.2614 -0.2078 -0.6579
  712MOL0     C98152   0.541   2.208   1.749  1.1175 -0.0470  0.0663
  712MOL0     C98153   0.594   2.100   1.683  0.1804 -0.9142  0.4160
  712MOL0     O98154   0.508   2.000   1.647  0.1304 -1.0090  0.8642
  712MOL0     C98155   0.567   1.875   1.617  0.0012  0.0223  0.4251
  712MOL0     C98156   0.443   1.799   1.565 -0.5528 -0.1398  0.0801
  712MOL0     C98157   0.366   1.728   1.676  1.2236  0.7643  0.0718
  712MOL0     C98158   0.234   1.665   1.631  0.7396  0.4201 -0.3822
  712MOL0     C98159   0.142   1.638   1.758  0.2673 -0.4001  0.1119
  712MOL0     C98160   0.038   1.755   1.781 -0.0222  0.8871  0.1062
  712MOL0     C98161  -0.046   1.730   1.901 -0.3606  0.3538 -0.2269
  712MOL0     C98162  -0.168   1.823   1.887  0.5229  0.0859  0.2043
  712MOL0    Cl98163  -0.293   1.783   1.997  0.2812 -0.2188  0.5911
  712MOL0     C98164   0.728   2.108   1.650 -0.4245 -0.4289 -0.7753
  712MOL0     C98165   0.810   2.204   1.694  1.0692 -0.1292 -0.8451
  712MOL0     O98166   0.960   2.456   1.652 -0.7123  0.0948  0.6032
  712MOL0     C98167   1.014   2.486   2.017 -0.2553 -0.3521 -0.3289
  712MOL0     C98168   1.110   2.541   2.110  0.2254  0.9463 -0.5195
  712MOL0     N98169   0.966   2.897   2.628 -0.1879 -0.4009  0.3994
  712MOL0     N98170   0.913   2.851   2.735  0.1408 -0.4240  0.2169
  712MOL0     C98171   0.547   1.945   3.028 -0.0643  1.5208 -0.5697
  712MOL0     C98172   0.453   1.846   3.027 -0.3766  0.4419  0.7680
  712MOL0     C98173   0.162   1.551   3.123 -0.1736 -0.6040  0.8726
  712MOL0     C98174   0.037   1.608   3.121  0.3225 -0.1504 -0.0316
  712MOL0     C98175  -0.065   1.525   3.071 -0.2862 -0.8496 -1.0248
  712MOL0     C98176  -0.057   1.385   3.041  0.2602 -0.0097  0.2915
  712MOL0     O98177  -0.182   1.327   3.017  0.0104  0.5460  0.2233
  712MOL0     C98178  -0.200   1.202   3.081  0.2137  0.0318  0.4206
  712MOL0     C98179  -0.193   1.084   2.977  0.5924  0.2411 -0.4209
  712MOL0     C98180  -0.334   1.007   2.966  0.0624  0.3603  0.6110
  712MOL0     C98181  -0.324   0.879   2.883  0.8161 -0.2692 -0.2446
  712MOL0     C98182  -0.452   0.806   2.889  0.8285 -0.0532  0.7279
  712MOL0     C98183  -0.568   0.770   2.896 -1.3799  0.2589  0.8401
  712MOL0     C98184   0.077   1.325   3.063  0.6106  0.8532 -0.2213
  712MOL0     C98185   0.181   1.408   3.105 -0.2087 -0.1239  0.1501
  712MOL0     C98186   0.316   1.347   3.136  0.4488 -0.1014  0.6687
  712MOL0     H98187   0.622   1.602   3.204 -1.3952 -3.0578 -2.4601
  712MOL0     H98188   0.775   1.781   3.237 -0.1636  3.4096  1.6940
  712MOL0     H98189   0.955   1.910   3.118  2.9511  0.7628 -0.0741
  712MOL0     H98190   0.893   1.978   3.261  3.1227  2.1488  0.3966
  712MOL0     H98191   1.084   2.107   3.114  0.1961 -1.4099  2.5976
  712MOL0     H98192   0.926   2.181   3.035  1.5228  2.4136  0.2450
  712MOL0     H98193   0.864   2.284   3.217 -1.2263 -1.3508 -1.4846
  712MOL0     H98194   0.959   2.188   3.320 -0.0054  2.2174  0.8952
  712MOL0     H98195   1.068   2.408   3.316 -2.1147  2.9241 -0.4682
  712MOL0     H98196   1.168   2.311   3.212  0.1440 -2.3911  2.4521
  712MOL0     H98197   0.939   2.469   3.099  0.8584  0.5804  2.0627
  712MOL0     H98198   1.083   2.409   3.007 -0.3880 -1.3895  0.6872
  712MOL0     H98199   1.055   2.640   3.191 -0.7749 -1.9465  1.3177
  712MOL0     H98200   1.212   2.572   3.161  0.0464  2.2642  0.9399
  712MOL0     H98201   1.186   2.639   2.915  1.1113 -0.8443 -0.5657
  712MOL0     H98202   1.110   2.769   3.030 -2.9172 -1.3794  2.0803
  712MOL0     H98203   0.937   2.577   2.906 -3.7719  1.1664  1.4745
  712MOL0     H98204   0.911   2.737   2.973  0.6816 -0.6808  0.8009
  712MOL0     H98205   1.186   2.669   2.696 -0.1836 -0.2844 -0.4877
  712MOL0     H98206   1.286   2.839   2.546  0.5517  1.4644 -0.7222
  712MOL0     H98207   1.178   2.968   2.487 -1.2685 -0.2516  1.1173
  712MOL0     H98208   1.181   2.684   2.379  2.1281  0.4645  0.1662
  712MOL0     H98209   1.109   2.823   2.297  0.8974  0.3614 -1.3146
  712MOL0     H98210   1.344   2.931   2.298  0.0898 -0.3521 -1.4824
  712MOL0     H98211   1.405   2.787   2.368  3.4464  3.5493 -1.4070
  712MOL0     H98212   1.303   2.826   2.081  2.7904  2.8273 -0.5892
  712MOL0     H98213   1.457   2.782   2.137 -0.2949  1.1213  2.2721
  712MOL0     H98214   1.355   2.633   1.904  1.7342  0.3743  3.2300
  712MOL0     H98215   1.299   2.671   1.682  0.6655 -1.2471 -3.7513
  712MOL0     H98216   1.130   2.666   1.659 -0.1560 -0.9752 -1.1130
  712MOL0     H98217   1.238   2.517   1.647  0.6045 -0.3233  1.9895
  712MOL0     H98218   0.580   2.399   1.841 -0.5244 -1.5411  0.6564
  712MOL0     H98219   0.433   2.214   1.761  1.2805 -0.1826  1.8638
  712MOL0     H98220   0.645   1.882   1.541 -0.1701 -1.5411  0.0698
  712MOL0     H98221   0.610   1.819   1.701 -3.5072 -0.8008  1.8090
  712MOL0     H98222   0.385   1.871   1.507 -1.2641 -1.7531 -1.3014
  712MOL0     H98223   0.463   1.715   1.499 -1.6420  1.4868 -2.4851
  712MOL0     H98224   0.343   1.801   1.754 -0.4772  1.1777 -0.7727
  712MOL0     H98225   0.427   1.644   1.712  1.5242  0.2567 -1.5336
  712MOL0     H98226   0.270   1.566   1.600 -1.4096 -1.4599  2.5891
  712MOL0     H98227   0.176   1.728   1.564 -0.5586  1.1507  1.3649
  712MOL0     H98228   0.072   1.556   1.742 -1.0137  0.4123  1.2703
  712MOL0     H98229   0.197   1.621   1.851 -0.4437  0.4434  0.7016
  712MOL0     H98230  -0.008   1.771   1.683  1.1030  2.2396 -0.2422
  712MOL0     H98231   0.101   1.843   1.800  1.4376  0.0852 -0.8609
  712MOL0     H98232   0.012   1.751   1.992  2.9324 -0.0891 -2.0576
  712MOL0     H98233  -0.063   1.622   1.909  0.2175  0.1846 -1.1134
  712MOL0     H98234  -0.197   1.805   1.783  0.7668  2.6214 -0.3569
  712MOL0     H98235  -0.152   1.931   1.891  0.8732 -0.0054  2.6061
  712MOL0     H98236   0.766   2.029   1.585  0.6258 -0.8529  0.3143
  712MOL0     H98237   0.916   2.208   1.672  1.0171  2.1986 -0.9691
  712MOL0     H98238   0.918   2.442   2.041 -1.7419  1.8858 -1.7657
  712MOL0     H98239   1.079   2.529   2.213 -4.0438 -0.2770 -1.7399
  712MOL0     H98240   0.541   2.041   2.979  2.7272  1.4492 -1.2175
  712MOL0     H98241   0.363   1.854   2.967 -0.4676 -2.2281  0.4180
  712MOL0     H98242   0.021   1.710   3.152  0.9323  0.6046 -2.0423
  712MOL0     H98243  -0.165   1.567   3.074  0.6469  1.8312  3.8954
  712MOL0     H98244  -0.139   1.174   3.167  0.4265 -0.4838  0.1057
  712MOL0     H98245  -0.301   1.222   3.119  1.2590  3.1056  1.9896
  712MOL0     H98246  -0.113   1.013   2.996  1.0927  0.8406 -0.2729
  712MOL0     H98247  -0.160   1.129   2.883  5.9870  3.0893  2.3887
  712MOL0     H98248  -0.363   0.966   3.063  0.9355 -1.2506  0.2305
  712MOL0     H98249  -0.418   1.068   2.931 -0.4756 -0.3649  0.6023
  712MOL0     H98250  -0.264   0.801   2.931 -2.6186 -2.0222  1.6113
  712MOL0     H98251  -0.290   0.916   2.786  2.0608  2.1083  1.0021
  712MOL0     H98252  -0.663   0.723   2.909 -1.5538  1.1056  3.1004
  712MOL0     H98253   0.072   1.218   3.048 -2.4015  0.7777  0.6203
  712MOL0     H98254   0.389   1.368   3.057 -1.7265  0.6680 -1.2400
  712MOL0     H98255   0.347   1.382   3.235 -2.9360 -0.6155  2.0369
  712MOL0     H98256   0.319   1.239   3.152  2.0207 -0.3504 -0.9569
  713MOL0     O98257   2.406   7.959   0.216 -0.0190  0.5238  0.1115
  713MOL0     C98258   2.296   8.006   0.184  0.3727 -1.0654  0.3695
  713MOL0     O98259   2.177   7.941   0.160  0.0232 -0.2109  0.4520
  713MOL0     C98260   2.200   7.801   0.178  1.1691  0.1871 -0.2695
  713MOL0     C98261   2.166   7.750   0.301  0.5188 -0.0534 -0.0956
  713MOL0     C98262   2.181   7.622   0.340 -0.3672 -1.2988 -0.0570
  713MOL0     C98263   2.241   7.531   0.247 -0.2288  0.0667 -0.2423
  713MOL0     O98264   2.265   7.395   0.271  0.2629 -0.2143  0.0727
  713MOL0     C98265   2.205   7.343   0.389  0.2140 -0.5520  0.4341
  713MOL0     C98266   2.249   7.195   0.397 -1.0058  0.3955  0.2450
  713MOL0     C98267   2.151   7.113   0.474 -0.1794 -0.1535  0.2261
  713MOL0     C98268   2.159   7.156   0.622 -0.2343 -0.1510 -0.6146
  713MOL0     C98269   2.094   7.057   0.723 -0.0552 -0.0312 -0.1924
  713MOL0     C98270   2.052   7.118   0.860  0.3904  0.2414 -0.8356
  713MOL0     C98271   1.912   7.061   0.911  0.3167 -0.4867 -0.0991
  713MOL0     C98272   1.872   7.101   1.057 -0.1582  0.0790  1.2328
  713MOL0     N98273   1.740   7.045   1.100 -1.3161 -0.1727 -0.4997
  713MOL0     C98274   1.706   6.914   1.131  0.9583 -0.3066  0.7576
  713MOL0     C98275   1.569   6.913   1.155 -0.0557 -0.3608  0.6406
  713MOL0     C98276   1.484   6.802   1.220 -0.1883  0.8848 -0.2690
  713MOL0     C98277   1.460   6.845   1.366  0.0918  1.4578  0.3789
  713MOL0     C98278   1.587   6.880   1.444  0.2623 -0.2002 -0.2685
  713MOL0     C98279   1.549   6.889   1.594 -0.5268  0.7126 -1.2870
  713MOL0     O98280   1.506   6.761   1.634  0.3813  0.4617 -0.2188
  713MOL0     C98281   1.584   6.667   1.701  0.6266  0.6537  1.1213
  713MOL0     C98282   1.721   6.672   1.703  0.6208 -0.1231 -0.8886
  713MOL0     C98283   1.808   6.572   1.761 -0.2797 -0.8217  0.0300
  713MOL0     C98284   1.957   6.600   1.738  0.1584 -0.3871  0.1006
  713MOL0     C98285   1.748   6.462   1.831  0.5790  0.0023  0.9079
  713MOL0     C98286   1.822   6.359   1.899 -0.3864 -0.2932 -0.4673
  713MOL0     O98287   1.735   6.288   1.971 -0.0208 -0.4998 -0.7486
  713MOL0     C98288   1.768   6.157   2.009  0.1549  0.3767  0.5677
  713MOL0     C98289   1.826   6.063   1.930 -0.3293 -0.7692  0.7826
  713MOL0     C98290   1.851   5.939   1.986 -0.0535 -0.3990  0.8590
  713MOL0     C98291   1.808   5.901   2.115  0.8932 -0.5299  1.1175
  713MOL0     O98292   1.823   5.781   2.176 -0.7042  0.7960 -0.1534
  713MOL0     C98293   1.883   5.684   2.087 -0.0716  0.9865 -0.2251
  713MOL0     C98294   1.856   5.548   2.137 -0.3658 -0.2454 -0.7430
  713MOL0     C98295   1.886   5.420   2.060 -0.4587 -0.0870  0.5916
  713MOL0     C98296   1.856   5.297   2.146  0.1788  0.5911  0.2958
  713MOL0     C98297   1.911   5.165   2.081  0.3082 -0.4302  0.0587
  713MOL0     C98298   1.823   5.144   1.958  0.9610 -0.2530  0.4977
  713MOL0     C98299   1.832   4.998   1.912  0.5798  0.6800  0.5849
  713MOL0     C98300   1.965   4.967   1.854  0.1564 -0.3105 -0.2310
  713MOL0    Cl98301   1.961   4.830   1.737  0.3542 -0.0397 -0.4811
  713MOL0     C98302   1.752   5.998   2.191  0.2855 -0.5935 -0.5292
  713MOL0     C98303   1.727   6.124   2.140 -0.4566 -0.4735 -0.8543
  713MOL0     O98304   1.942   6.344   1.903  0.5589  0.1795  0.6376
  713MOL0     C98305   1.606   6.447   1.819  0.3883 -0.9083 -0.3902
  713MOL0     C98306   1.527   6.551   1.756 -0.1578  0.0648  0.1182
  713MOL0     N98307   1.526   7.040   1.135 -0.0258  0.0487  0.0791
  713MOL0     N98308   1.622   7.110   1.105  0.0175 -0.3523 -0.0038
  713MOL0     C98309   2.266   7.569   0.109 -0.3367 -0.7827 -0.0326
  713MOL0     C98310   2.248   7.710   0.076 -0.9050  0.4590  0.1090
  713MOL0     C98311   2.297   8.148   0.154  0.0793  0.1975  0.1068
  713MOL0     C98312   2.178   8.220   0.174  0.5509  0.2917 -0.5829
  713MOL0     C98313   2.157   8.355   0.146 -0.4781 -0.4417 -0.2557
  713MOL0     C98314   2.260   8.424   0.091  0.8384  0.6201 -0.3854
  713MOL0     O98315   2.248   8.551   0.053  0.6620 -0.3175 -0.4502
  713MOL0     C98316   2.164   8.641   0.130  0.7368  0.2370  0.4315
  713MOL0     C98317   2.205   8.653   0.276  0.4157 -0.2223  0.1642
  713MOL0     C98318   2.357   8.670   0.283  0.1377  0.3163  0.6887
  713MOL0     C98319   2.396   8.721   0.416 -0.1106  0.0397  0.3023
  713MOL0     C98320   2.381   8.614   0.518  0.5911 -0.6571 -0.3853
  713MOL0     C98321   2.383   8.541   0.614  1.0586 -1.0869 -1.2253
  713MOL0     C98322   2.381   8.354   0.061 -0.5321  0.3376 -1.0676
  713MOL0     C98323   2.400   8.217   0.095 -0.2785  0.1096 -0.0784
  713MOL0     C98324   2.536   8.159   0.064 -0.4681 -0.6769  0.3646
  713MOL0     H98325   2.117   7.812   0.375  1.5744  4.3820 -2.7375
  713MOL0     H98326   2.140   7.586   0.434 -1.7475  0.2536 -0.0256
  713MOL0     H98327   2.096   7.349   0.380  0.3337 -1.3552 -3.1207
  713MOL0     H98328   2.248   7.410   0.464 -1.8352 -1.1260  2.2316
  713MOL0     H98329   2.238   7.154   0.296  1.5804  2.3505 -0.9645
  713MOL0     H98330   2.354   7.179   0.421  0.1911 -0.0505 -4.3940
  713MOL0     H98331   2.046   7.120   0.444 -0.2877  0.7950  0.8051
  713MOL0     H98332   2.180   7.008   0.461  1.0756  0.4443 -2.6494
  713MOL0     H98333   2.259   7.173   0.662 -0.9090  2.5884  0.1436
  713MOL0     H98334   2.106   7.252   0.625  1.5128  0.8209  1.2757
  713MOL0     H98335   2.167   6.977   0.734  1.2709  1.2783  0.9648
  713MOL0     H98336   2.013   7.004   0.672  0.8997 -0.5166 -1.2698
  713MOL0     H98337   2.130   7.114   0.936 -0.2432 -0.1727 -0.2007
  713MOL0     H98338   2.030   7.224   0.844  1.8465  0.6570 -0.2415
  713MOL0     H98339   1.915   6.953   0.896 -0.1562 -0.0703 -4.6254
  713MOL0     H98340   1.840   7.105   0.841  0.5318 -0.1847 -0.1308
  713MOL0     H98341   1.956   7.080   1.124 -0.4922  1.9209  2.3011
  713MOL0     H98342   1.874   7.210   1.069 -0.8980  0.1622  0.6783
  713MOL0     H98343   1.793   6.852   1.147  2.2029  1.2496  0.3325
  713MOL0     H98344   1.513   6.697   1.206 -2.0712  0.0346  1.7127
  713MOL0     H98345   1.386   6.804   1.172  0.2459  3.4757 -1.2099
  713MOL0     H98346   1.382   6.921   1.373 -2.8560 -1.2351 -0.4928
  713MOL0     H98347   1.409   6.766   1.423 -0.3262  1.7349  0.4001
  713MOL0     H98348   1.670   6.816   1.414  0.1363  0.3323 -1.8851
  713MOL0     H98349   1.606   6.987   1.425 -2.1064  0.2966 -0.2195
  713MOL0     H98350   1.629   6.922   1.661  0.2595 -3.2812  0.0506
  713MOL0     H98351   1.466   6.960   1.587 -1.5550 -0.1342  1.0641
  713MOL0     H98352   1.779   6.747   1.650  0.6612  0.2459 -0.3350
  713MOL0     H98353   1.999   6.625   1.836  0.4755 -1.9577  0.3899
  713MOL0     H98354   1.966   6.689   1.674  0.2098  0.3907  1.1590
  713MOL0     H98355   1.998   6.512   1.688 -4.1605 -2.1438 -0.7342
  713MOL0     H98356   1.848   6.083   1.825 -2.4711  1.2171  0.6355
  713MOL0     H98357   1.913   5.886   1.914  0.6625 -0.3965  1.4643
  713MOL0     H98358   1.835   5.682   1.988  2.3577 -1.4361 -1.4952
  713MOL0     H98359   1.990   5.704   2.079  0.2795  0.4474  2.3489
  713MOL0     H98360   1.908   5.545   2.233 -3.1242 -2.0124  0.8472
  713MOL0     H98361   1.750   5.539   2.162  0.3067 -0.5418  2.4586
  713MOL0     H98362   1.986   5.404   2.019  0.2433 -1.0637  2.5925
  713MOL0     H98363   1.821   5.411   1.972  1.3727  2.0448 -1.1230
  713MOL0     H98364   1.753   5.298   2.184  0.8282 -0.6192  2.2174
  713MOL0     H98365   1.921   5.301   2.234 -0.1172  3.8193  0.4934
  713MOL0     H98366   2.018   5.177   2.061  0.1029  2.9739  0.3046
  713MOL0     H98367   1.903   5.079   2.148  1.8804  1.0806  2.2992
  713MOL0     H98368   1.859   5.207   1.876 -1.7752  1.5119  0.5212
  713MOL0     H98369   1.722   5.186   1.966  1.2873  0.8236 -0.7636
  713MOL0     H98370   1.768   4.986   1.825  2.1415  2.1209 -0.8264
  713MOL0     H98371   1.805   4.925   1.989  2.4589 -1.9200 -1.0792
  713MOL0     H98372   2.032   4.933   1.933 -0.0930 -1.6757 -0.5906
  713MOL0     H98373   2.010   5.051   1.800  1.9660 -1.5551 -0.7238
  713MOL0     H98374   1.701   5.972   2.283 -2.0944 -2.4916 -2.2630
  713MOL0     H98375   1.665   6.190   2.200  0.8121  1.4361 -1.5238
  713MOL0     H98376   1.568   6.354   1.861  0.4607 -1.2100 -0.9734
  713MOL0     H98377   1.420   6.542   1.742 -0.2127  2.1970 -1.3008
  713MOL0     H98378   2.306   7.499   0.036 -1.9638  1.0726 -2.9248
  713MOL0     H98379   2.275   7.742  -0.024 -1.2641  0.7879  0.1125
  713MOL0     H98380   2.088   8.170   0.208 -0.3554  3.3564  2.0481
  713MOL0     H98381   2.067   8.411   0.168  0.3286  0.3820  1.1080
  713MOL0     H98382   2.180   8.740   0.087  0.3017 -0.4588 -1.4095
  713MOL0     H98383   2.058   8.618   0.114  0.5279  0.1051  1.8648
  713MOL0     H98384   2.163   8.564   0.323 -0.1716 -2.6912 -4.4682
  713MOL0     H98385   2.145   8.736   0.312 -0.2620 -0.8262  0.4334
  713MOL0     H98386   2.405   8.576   0.255  0.2276  1.0806 -2.0013
  713MOL0     H98387   2.385   8.748   0.212  0.3161 -0.1553  0.2288
  713MOL0     H98388   2.337   8.811   0.432 -1.1332 -0.0685 -2.4692
  713MOL0     H98389   2.502   8.750   0.417 -0.4606  1.5099  2.2446
  713MOL0     H98390   2.354   8.476   0.694  0.5192 -0.4838 -0.9174
  713MOL0     H98391   2.453   8.406  -0.001 -0.0260 -2.2220 -2.7921
  713MOL0     H98392   2.577   8.237  -0.000  0.9684 -1.0861  0.7379
  713MOL0     H98393   2.611   8.161   0.144 -2.0457  0.2753  1.8979
  713MOL0     H98394   2.524   8.065   0.009 -0.4845 -0.2228 -0.4043
  714MOL0     O98395   8.874  10.324   6.275  0.0021 -0.6852 -0.4232
  714MOL0     C98396   8.762  10.346   6.327  0.2206  0.5483 -0.9110
  714MOL0     O98397   8.671  10.249   6.355 -0.2192  0.8823 -1.1059
  714MOL0     C98398   8.721  10.119   6.370 -0.3100 -0.7669  0.6387
  714MOL0     C98399   8.822  10.099   6.464 -0.1757 -1.0279  0.3127
  714MOL0     C98400   8.863   9.973   6.501  0.6055  0.2212  0.1818
  714MOL0     C98401   8.802   9.859   6.444  0.4290  0.2124  0.2142
  714MOL0     O98402   8.848   9.729   6.472 -0.2291  0.2414 -0.4180
  714MOL0     C98403   8.929   9.716   6.590 -0.9637 -0.0418 -0.4954
  714MOL0     C98404   8.961   9.566   6.606  0.1345  0.9043 -0.4938
  714MOL0     C98405   9.056   9.529   6.715 -0.5485 -0.3631 -0.5398
  714MOL0     C98406   9.026   9.579   6.853 -0.6885  0.7076 -0.1370
  714MOL0     C98407   8.891   9.533   6.915 -0.3745 -0.0108 -0.5395
  714MOL0     C98408   8.900   9.392   6.978 -0.2519  0.2909 -0.0198
  714MOL0     C98409   8.776   9.361   7.065  0.3991 -0.3309  0.9837
  714MOL0     C98410   8.814   9.227   7.147  0.1185  0.2389  0.5702
  714MOL0     N98411   8.949   9.239   7.215 -0.1138  0.0642  0.2338
  714MOL0     C98412   8.984   9.321   7.310  0.0707 -0.7635  0.0279
  714MOL0     C98413   9.114   9.306   7.334  0.4036  0.2069 -0.7529
  714MOL0     C98414   9.189   9.384   7.432  0.3305 -0.5926  1.0171
  714MOL0     C98415   9.225   9.526   7.397 -0.6292 -0.4781  0.6349
  714MOL0     C98416   9.337   9.537   7.282  1.0901  0.2164 -0.7301
  714MOL0     C98417   9.281   9.568   7.139 -0.0711 -0.2606 -0.4565
  714MOL0     O98418   9.390   9.566   7.039  0.6285 -0.1610 -0.9178
  714MOL0     C98419   9.460   9.449   7.018  0.7970  0.7609 -0.3698
  714MOL0     C98420   9.400   9.320   7.030 -1.0396 -0.5343 -0.0424
  714MOL0     C98421   9.468   9.203   6.989 -0.4761  0.3942  0.7799
  714MOL0     C98422   9.394   9.075   6.997 -0.5917  0.2080  0.1061
  714MOL0     C98423   9.600   9.209   6.945  0.6612 -0.7213  0.8865
  714MOL0     C98424   9.692   9.093   6.911  0.4395 -0.2347  0.2880
  714MOL0     O98425   9.788   9.123   6.825 -0.3196  0.2252  0.1078
  714MOL0     C98426   9.904   9.054   6.832 -0.4531 -0.7217 -0.3814
  714MOL0     C98427   9.964   9.043   6.705 -0.3156  0.0477 -0.0243
  714MOL0     C98428  10.092   8.978   6.689  0.1288 -0.1577  0.9509
  714MOL0     C98429  10.147   8.921   6.801  0.6984 -0.8143  0.5110
  714MOL0     O98430  10.276   8.872   6.787  0.4615  0.1496 -0.4881
  714MOL0     C98431  10.281   8.735   6.840 -0.0771 -0.0100  0.0187
  714MOL0     C98432  10.337   8.629   6.738 -0.3108 -0.0158 -0.2535
  714MOL0     C98433  10.278   8.625   6.599  0.3957 -0.1283 -0.0327
  714MOL0     C98434  10.132   8.577   6.587 -0.9677 -0.7807 -0.0174
  714MOL0     C98435  10.069   8.582   6.447 -0.9097  0.4989 -0.5803
  714MOL0     C98436  10.087   8.715   6.371  0.0609 -0.3745 -1.4150
  714MOL0     C98437  10.013   8.716   6.239 -0.5609 -0.8805 -0.5225
  714MOL0     C98438  10.078   8.815   6.144  0.4613 -0.0206 -0.1316
  714MOL0    Cl98439   9.984   8.831   5.996 -0.2855 -0.0368 -0.2226
  714MOL0     C98440  10.086   8.943   6.924  0.4540  0.7981  0.6829
  714MOL0     C98441   9.961   8.997   6.943 -0.4197 -0.0230 -0.3488
  714MOL0     O98442   9.679   8.980   6.960  0.1818  0.2326  0.4772
  714MOL0     C98443   9.659   9.334   6.933  0.0395  0.0647 -0.3405
  714MOL0     C98444   9.585   9.450   6.960  0.0769  0.0483  0.0478
  714MOL0     N98445   9.163   9.205   7.246  0.1066  0.0871 -0.2772
  714MOL0     N98446   9.059   9.170   7.176  0.3900  0.3868 -0.2004
  714MOL0     C98447   8.704   9.883   6.344  0.4861  0.3623 -0.8249
  714MOL0     C98448   8.660  10.012   6.308  0.7574 -0.0329 -1.1524
  714MOL0     C98449   8.712  10.490   6.330 -0.0248  0.4930  0.1457
  714MOL0     C98450   8.806  10.583   6.360 -1.2404 -0.4068  0.0399
  714MOL0     C98451   8.781  10.719   6.368 -0.6529 -0.0897  0.0856
  714MOL0     C98452   8.657  10.765   6.345 -0.4948 -0.8293  0.7091
  714MOL0     O98453   8.638  10.909   6.359 -1.1432 -0.1650 -0.4264
  714MOL0     C98454   8.507  10.960   6.382 -0.1671  0.0704 -0.6564
  714MOL0     C98455   8.521  11.084   6.470 -0.0902  0.2246  0.3259
  714MOL0     C98456   8.390  11.166   6.479 -0.3821 -0.1618  0.0847
  714MOL0     C98457   8.426  11.296   6.540 -0.1963  0.8141  0.0311
  714MOL0     C98458   8.326  11.347   6.636  0.4412 -0.0117 -0.0158
  714MOL0     C98459   8.228  11.378   6.699 -0.1591 -0.3798 -0.2012
  714MOL0     C98460   8.557  10.678   6.313 -1.1572  0.6365  0.1026
  714MOL0     C98461   8.582  10.539   6.302  0.7415  0.1301  0.2220
  714MOL0     C98462   8.467  10.446   6.279  1.0629  0.5570  0.0853
  714MOL0     H98463   8.844  10.179   6.533  0.2884 -0.1671 -0.8055
  714MOL0     H98464   8.934   9.967   6.583 -0.4932 -1.0854  1.0879
  714MOL0     H98465   8.872   9.746   6.678 -1.4066 -1.2184 -0.3573
  714MOL0     H98466   9.026   9.764   6.577 -0.2986 -1.5585 -1.4951
  714MOL0     H98467   8.874   9.503   6.630  1.1748 -0.4863 -0.2650
  714MOL0     H98468   9.010   9.542   6.512  1.0626  1.8874 -0.2816
  714MOL0     H98469   9.071   9.420   6.720  0.8470 -0.2319 -1.1648
  714MOL0     H98470   9.161   9.559   6.701  0.3077 -0.9531  3.2949
  714MOL0     H98471   9.112   9.555   6.917 -0.2636 -0.3138 -1.0682
  714MOL0     H98472   9.030   9.688   6.851  1.6204  0.6835 -0.2982
  714MOL0     H98473   8.809   9.547   6.844  0.2486  0.6436 -1.1360
  714MOL0     H98474   8.881   9.601   7.000  3.7714 -1.4726  1.3643
  714MOL0     H98475   8.913   9.322   6.895  1.4494  0.3643  0.1403
  714MOL0     H98476   8.997   9.379   7.027 -0.5090 -0.2332  0.3563
  714MOL0     H98477   8.688   9.341   7.004  1.1861  0.0289 -0.3116
  714MOL0     H98478   8.752   9.448   7.127 -0.0523  0.9969 -0.9514
  714MOL0     H98479   8.729   9.197   7.208 -0.7971  1.2644 -0.1549
  714MOL0     H98480   8.826   9.147   7.073  1.2598  0.3545  0.6116
  714MOL0     H98481   8.925   9.395   7.363 -0.0756  0.4769 -1.7806
  714MOL0     H98482   9.286   9.336   7.445  1.2126  0.9450  0.3625
  714MOL0     H98483   9.143   9.369   7.530  0.9448 -0.7393  1.2806
  714MOL0     H98484   9.133   9.574   7.360 -0.3213 -1.4967 -1.6248
  714MOL0     H98485   9.272   9.574   7.483  2.4842 -4.2363  1.2904
  714MOL0     H98486   9.406   9.616   7.313  2.5797 -1.2339 -0.1940
  714MOL0     H98487   9.404   9.451   7.280 -0.7479 -1.2963 -3.2248
  714MOL0     H98488   9.207   9.491   7.114  2.1056 -1.7195 -2.8962
  714MOL0     H98489   9.230   9.664   7.152 -1.4209 -0.9338 -0.6128
  714MOL0     H98490   9.305   9.320   7.083 -2.1884  0.9609 -1.9578
  714MOL0     H98491   9.289   9.105   6.993 -0.3646  1.2922  1.5326
  714MOL0     H98492   9.403   9.034   7.098 -1.4276 -2.9374 -0.9817
  714MOL0     H98493   9.431   9.004   6.922  3.6666 -2.4036  4.1186
  714MOL0     H98494   9.920   9.094   6.620 -1.8584 -1.8682 -0.4374
  714MOL0     H98495  10.126   8.972   6.586 -2.0488  1.2827  0.0771
  714MOL0     H98496  10.342   8.718   6.929 -1.5982 -2.7355  0.6491
  714MOL0     H98497  10.189   8.697   6.886  0.9434  0.6679  2.7874
  714MOL0     H98498  10.446   8.630   6.731  0.1287 -5.3211  1.3868
  714MOL0     H98499  10.323   8.532   6.787 -0.3878  0.3717  0.5018
  714MOL0     H98500  10.341   8.559   6.538 -0.4699  1.5256 -2.9268
  714MOL0     H98501  10.285   8.728   6.563 -2.4942  0.6512  1.3602
  714MOL0     H98502  10.073   8.639   6.655  0.8679  1.2114 -0.1367
  714MOL0     H98503  10.129   8.475   6.627  1.2903 -0.3614  1.4142
  714MOL0     H98504  10.103   8.497   6.387 -0.4460 -0.7065  1.3112
  714MOL0     H98505   9.960   8.579   6.458 -0.8169  2.9747  2.0684
  714MOL0     H98506  10.193   8.743   6.376 -0.3146  0.8701  2.1270
  714MOL0     H98507  10.046   8.800   6.426  0.8596 -0.1548 -1.1470
  714MOL0     H98508   9.912   8.747   6.267 -0.7774 -1.3243 -0.7968
  714MOL0     H98509  10.006   8.615   6.197 -2.3770 -0.4185 -1.4277
  714MOL0     H98510  10.182   8.784   6.130 -0.2782 -1.8938 -1.9001
  714MOL0     H98511  10.088   8.913   6.192  2.2229  0.6914 -1.8093
  714MOL0     H98512  10.139   8.896   7.006  2.7597  3.4092  0.8433
  714MOL0     H98513   9.932   9.011   7.047 -2.2262  1.9773 -1.0592
  714MOL0     H98514   9.749   9.351   6.875 -0.4871  0.1437 -1.1673
  714MOL0     H98515   9.623   9.551   6.946  0.0037 -0.3382 -4.3457
  714MOL0     H98516   8.654   9.799   6.296  0.2537  0.7897 -1.3408
  714MOL0     H98517   8.582  10.016   6.233 -0.7445  1.6198  0.4010
  714MOL0     H98518   8.908  10.550   6.379 -1.6888 -1.5371  0.6127
  714MOL0     H98519   8.865  10.783   6.393 -0.8839 -0.1314  0.9841
  714MOL0     H98520   8.454  10.978   6.289 -0.7124 -2.6990 -0.9824
  714MOL0     H98521   8.449  10.884   6.435 -2.8387  2.1314 -0.4221
  714MOL0     H98522   8.584  11.146   6.405 -3.1632  3.7880  0.4101
  714MOL0     H98523   8.566  11.063   6.568  0.4726  1.8152  0.4418
  714MOL0     H98524   8.352  11.191   6.380 -0.2492  1.1027  0.3385
  714MOL0     H98525   8.318  11.111   6.540  1.7154 -1.2684  1.7149
  714MOL0     H98526   8.435  11.383   6.474  1.5742  0.5599 -0.0950
  714MOL0     H98527   8.515  11.290   6.604 -1.1272 -1.9589  1.2167
  714MOL0     H98528   8.137  11.399   6.753 -0.8277 -0.3933 -1.2974
  714MOL0     H98529   8.455  10.706   6.288  0.0800  1.8436 -4.6600
  714MOL0     H98530   8.382  10.490   6.224  1.2424  1.6298  0.6423
  714MOL0     H98531   8.497  10.362   6.217 -2.6993 -1.3957  0.5945
  714MOL0     H98532   8.432  10.403   6.373  3.2395  0.9360  1.1280
  715MOL0     O98533   0.157   6.849   2.401  0.2583  0.0892  0.5469
  715MOL0     C98534   0.229   6.939   2.362  0.1469 -0.6552  0.4293
  715MOL0     O98535   0.200   7.067   2.365 -0.3348  0.6324  0.5467
  715MOL0     C98536   0.098   7.110   2.441 -0.3058 -0.1746 -1.0545
  715MOL0     C98537  -0.034   7.051   2.447 -0.3743  0.6642 -0.8097
  715MOL0     C98538  -0.146   7.112   2.505 -0.0965 -0.2865 -0.5710
  715MOL0     C98539  -0.129   7.223   2.582  0.0294  0.5135  0.0045
  715MOL0     O98540  -0.222   7.266   2.672 -0.1095  0.0700 -0.3704
  715MOL0     C98541  -0.358   7.217   2.661 -0.1654  0.3018  0.0635
  715MOL0     C98542  -0.387   7.109   2.766 -0.4334 -0.2310 -0.1436
  715MOL0     C98543  -0.530   7.047   2.745 -0.4572 -0.0738 -0.6879
  715MOL0     C98544  -0.576   6.958   2.856  0.4482  0.1042 -0.6811
  715MOL0     C98545  -0.711   6.901   2.814  0.7374  0.5896  0.0851
  715MOL0     C98546  -0.796   6.836   2.923 -0.0085  0.7300  0.1815
  715MOL0     C98547  -0.747   6.684   2.955  0.2664 -0.3925  0.3134
  715MOL0     C98548  -0.639   6.672   3.060  0.5863 -0.5158  0.7662
  715MOL0     N98549  -0.688   6.707   3.190 -1.0554  0.4372  0.5809
  715MOL0     C98550  -0.678   6.833   3.252 -0.5016  0.7832  0.2366
  715MOL0     C98551  -0.694   6.800   3.381  0.7994  0.2635 -0.5204
  715MOL0     C98552  -0.690   6.902   3.498 -0.4957  1.0090  0.3074
  715MOL0     C98553  -0.831   6.958   3.539  0.3961  0.2348 -0.3285
  715MOL0     C98554  -0.932   6.835   3.585  0.8123  0.5562 -0.4873
  715MOL0     C98555  -1.068   6.881   3.652 -0.7402  0.2891 -0.6385
  715MOL0     O98556  -1.031   6.913   3.795 -0.7064  0.0470  0.3797
  715MOL0     C98557  -1.124   6.922   3.897  0.4375  0.0075  0.1253
  715MOL0     C98558  -1.080   6.932   4.028  0.0097  0.0570 -1.2894
  715MOL0     C98559  -1.174   6.927   4.137 -0.3492  0.4710 -0.4728
  715MOL0     C98560  -1.114   6.924   4.282 -0.4015  0.2871 -0.3873
  715MOL0     C98561  -1.307   6.923   4.115  0.4735 -0.5488 -0.4749
  715MOL0     C98562  -1.415   6.912   4.222  0.6330  0.2302  0.3941
  715MOL0     O98563  -1.394   6.957   4.339 -0.1980  0.4981  0.4647
  715MOL0     C98564  -1.480   6.933   4.442  0.1598 -0.1938  0.8872
  715MOL0     C98565  -1.559   7.038   4.491  0.4208 -0.3647 -0.0610
  715MOL0     C98566  -1.644   7.019   4.601  0.6962  0.0784 -0.4387
  715MOL0     C98567  -1.657   6.892   4.671 -0.1850 -0.7583  0.2436
  715MOL0     O98568  -1.741   6.872   4.773  0.2616 -0.2811  0.2202
  715MOL0     C98569  -1.876   6.908   4.761  0.7612 -0.8578  0.6355
  715MOL0     C98570  -1.935   6.881   4.904 -0.8925 -0.3291  0.0877
  715MOL0     C98571  -2.084   6.939   4.918 -0.5601  0.0039 -1.0157
  715MOL0     C98572  -2.192   6.883   4.833 -0.2957  0.3789 -0.4026
  715MOL0     C98573  -2.330   6.883   4.908  0.4335  0.4974  0.1817
  715MOL0     C98574  -2.444   6.867   4.804  0.4286 -0.2449  0.1353
  715MOL0     C98575  -2.452   6.716   4.765  0.3006 -0.0641 -0.4971
  715MOL0     C98576  -2.540   6.700   4.639  0.5628  1.2158 -0.9512
  715MOL0    Cl98577  -2.453   6.708   4.489  0.0111 -0.3489 -0.3450
  715MOL0     C98578  -1.568   6.794   4.624  1.0034  0.4573 -0.4380
  715MOL0     C98579  -1.480   6.819   4.518  0.2239 -0.2929  0.1707
  715MOL0     O98580  -1.522   6.860   4.187 -0.3649 -1.3300  0.0468
  715MOL0     C98581  -1.346   6.926   3.982 -0.1545 -0.0092  0.5277
  715MOL0     C98582  -1.259   6.927   3.874 -0.5074 -0.0603 -0.2861
  715MOL0     N98583  -0.714   6.659   3.394  0.2074 -0.6165 -0.0687
  715MOL0     N98584  -0.706   6.611   3.288 -0.5339  0.4009 -0.3667
  715MOL0     C98585  -0.002   7.282   2.580 -0.0725  0.0307 -0.7070
  715MOL0     C98586   0.105   7.231   2.510 -0.4376  0.8702 -0.4588
  715MOL0     C98587   0.353   6.910   2.277  1.2555  1.4267 -0.2388
  715MOL0     C98588   0.341   6.928   2.142  0.6836 -0.2512 -0.4751
  715MOL0     C98589   0.445   6.886   2.061 -0.8205  0.3010 -0.0846
  715MOL0     C98590   0.560   6.815   2.115 -0.0273 -0.5161  0.6472
  715MOL0     O98591   0.642   6.764   2.022 -0.6461  0.3221  0.5250
  715MOL0     C98592   0.734   6.655   2.041  0.6185 -0.5185  0.3010
  715MOL0     C98593   0.866   6.710   2.085  0.4357 -0.2457 -0.0806
  715MOL0     C98594   0.970   6.587   2.085  1.1219 -1.2115  0.1468
  715MOL0     C98595   1.120   6.631   2.100 -0.0185 -0.0230  0.2503
  715MOL0     C98596   1.167   6.669   1.967 -1.3998  0.6447 -0.6209
  715MOL0     C98597   1.214   6.710   1.861 -0.1970  0.5934 -0.0770
  715MOL0     C98598   0.565   6.799   2.254 -0.6642  0.2397  0.2328
  715MOL0     C98599   0.456   6.842   2.336  0.7543  0.7496 -0.2856
  715MOL0     C98600   0.467   6.826   2.487  0.0324  0.1019 -0.7408
  715MOL0     H98601  -0.052   6.956   2.398 -1.2206 -0.2505  1.1703
  715MOL0     H98602  -0.241   7.060   2.499 -1.8558  2.7572 -1.3395
  715MOL0     H98603  -0.394   7.190   2.561  1.8458 -1.7074 -0.1955
  715MOL0     H98604  -0.424   7.302   2.682 -2.6569 -1.3767 -0.5649
  715MOL0     H98605  -0.320   7.023   2.766 -1.1307 -0.9679  3.4914
  715MOL0     H98606  -0.374   7.152   2.866 -0.7620 -1.4653  0.4471
  715MOL0     H98607  -0.605   7.127   2.741 -1.1358 -0.7011 -0.8836
  715MOL0     H98608  -0.526   7.001   2.646  2.4669 -0.6864 -0.3615
  715MOL0     H98609  -0.504   6.878   2.875 -0.4794 -0.8337 -1.0337
  715MOL0     H98610  -0.587   7.011   2.951 -2.8559  2.3058 -2.1008
  715MOL0     H98611  -0.691   6.828   2.734  2.1037 -2.9071  3.3401
  715MOL0     H98612  -0.771   6.984   2.776 -2.2622 -1.6920 -0.5280
  715MOL0     H98613  -0.804   6.897   3.013 -2.0016  1.3586 -0.3774
  715MOL0     H98614  -0.899   6.827   2.888  0.8654 -0.7041 -2.3254
  715MOL0     H98615  -0.712   6.638   2.861 -1.7167  2.0295 -1.7661
  715MOL0     H98616  -0.836   6.635   2.995  0.7626  0.1879  2.1978
  715MOL0     H98617  -0.603   6.569   3.051 -0.4186 -0.7608 -0.6607
  715MOL0     H98618  -0.550   6.731   3.037 -0.9537  3.2823  3.4824
  715MOL0     H98619  -0.663   6.936   3.220 -1.8798  1.7678  2.5601
  715MOL0     H98620  -0.622   6.979   3.461  0.0742  1.2079  1.7142
  715MOL0     H98621  -0.648   6.869   3.593 -2.9023 -2.5195  0.3484
  715MOL0     H98622  -0.842   7.019   3.629 -1.9030 -1.5364  0.7174
  715MOL0     H98623  -0.870   7.011   3.452 -4.0738 -0.9278  0.7131
  715MOL0     H98624  -0.963   6.769   3.503  4.3080 -1.1778 -0.5934
  715MOL0     H98625  -0.889   6.766   3.658  1.7942  2.4144  0.7601
  715MOL0     H98626  -1.121   6.963   3.604 -0.8947  2.4565  2.9284
  715MOL0     H98627  -1.139   6.799   3.669  0.4098 -1.1755 -2.4333
  715MOL0     H98628  -0.975   6.935   4.056 -0.2079 -0.2546 -0.4270
  715MOL0     H98629  -1.113   7.028   4.318 -0.3712  0.7495 -1.6725
  715MOL0     H98630  -1.011   6.889   4.284 -0.5680 -0.4619 -2.5285
  715MOL0     H98631  -1.170   6.857   4.347 -2.7748  2.3535 -0.1382
  715MOL0     H98632  -1.566   7.138   4.448  0.1793 -0.9656 -1.5070
  715MOL0     H98633  -1.697   7.110   4.630 -2.4977 -1.3198 -1.3452
  715MOL0     H98634  -1.887   7.012   4.728 -1.7862 -0.9934  0.8178
  715MOL0     H98635  -1.935   6.852   4.688  1.1023 -0.9973  0.4673
  715MOL0     H98636  -1.918   6.777   4.932  0.6391 -0.6204 -1.7416
  715MOL0     H98637  -1.867   6.938   4.969 -2.2976 -0.0495  1.3964
  715MOL0     H98638  -2.089   7.049   4.916 -0.2846  0.1569  1.7359
  715MOL0     H98639  -2.116   6.922   5.022 -3.0607 -0.9726 -1.8660
  715MOL0     H98640  -2.161   6.780   4.813  1.1439  0.7029  0.0932
  715MOL0     H98641  -2.193   6.934   4.736  1.9527 -0.2423 -0.8013
  715MOL0     H98642  -2.336   6.811   4.991 -1.4630  3.2935  2.7049
  715MOL0     H98643  -2.348   6.974   4.967  0.1897  0.4932  0.1171
  715MOL0     H98644  -2.419   6.927   4.717  3.0741 -2.1083 -0.5213
  715MOL0     H98645  -2.539   6.911   4.835  0.2814  0.7590 -1.6460
  715MOL0     H98646  -2.493   6.667   4.854  0.7330 -0.0406 -0.2844
  715MOL0     H98647  -2.354   6.674   4.742  2.3373  2.2155  3.1105
  715MOL0     H98648  -2.630   6.762   4.638 -0.6860 -0.4980 -0.7318
  715MOL0     H98649  -2.588   6.604   4.661  2.0445  0.0478 -2.4999
  715MOL0     H98650  -1.564   6.699   4.676  0.9232  0.9447  0.4894
  715MOL0     H98651  -1.403   6.751   4.483  1.0817  1.4165 -1.4718
  715MOL0     H98652  -1.449   6.915   3.949 -0.5191 -0.6336  1.7901
  715MOL0     H98653  -1.291   6.932   3.771  0.8411  0.9805 -0.6864
  715MOL0     H98654   0.004   7.375   2.636  0.0219 -1.0948  1.2707
  715MOL0     H98655   0.193   7.293   2.521 -0.5024  0.5642  3.2988
  715MOL0     H98656   0.256   6.972   2.091  0.3409  1.0796  1.1831
  715MOL0     H98657   0.434   6.894   1.954  0.8205 -3.1708 -0.6427
  715MOL0     H98658   0.695   6.595   2.124 -0.7187  2.3705  1.8813
  715MOL0     H98659   0.736   6.609   1.942 -0.2777  1.2796 -0.5918
  715MOL0     H98660   0.859   6.749   2.187 -0.2934 -0.1669 -0.1544
  715MOL0     H98661   0.897   6.782   2.009 -2.0754 -0.4698 -1.4356
  715MOL0     H98662   0.946   6.515   2.164  1.1092 -2.4165 -0.9312
  715MOL0     H98663   0.952   6.530   1.994 -1.2275 -0.4797  0.0945
  715MOL0     H98664   1.183   6.549   2.137  1.6470  1.5288  0.9695
  715MOL0     H98665   1.145   6.710   2.171  0.8161 -0.1521  0.1150
  715MOL0     H98666   1.243   6.758   1.770 -3.1185  1.5784 -0.5604
  715MOL0     H98667   0.648   6.735   2.283 -0.5019 -0.0763 -0.8839
  715MOL0     H98668   0.570   6.814   2.522  0.3407 -0.7291 -1.8668
  715MOL0     H98669   0.421   6.914   2.533 -2.2150 -1.1176 -0.5292
  715MOL0     H98670   0.414   6.737   2.519 -1.5772  2.1532  2.9106
  716MOL0     O98671   7.667   9.167   1.226 -0.1112  0.3695 -1.0532
  716MOL0     C98672   7.605   9.177   1.334  0.0914  0.6397 -0.2330
  716MOL0     O98673   7.630   9.262   1.427 -0.9124  1.0018 -0.7363
  716MOL0     C98674   7.723   9.361   1.410 -0.4389  0.4782 -1.0217
  716MOL0     C98675   7.691   9.479   1.348  0.2079 -0.4111 -0.0201
  716MOL0     C98676   7.779   9.585   1.326 -0.8112  0.2621 -0.6787
  716MOL0     C98677   7.912   9.558   1.359 -0.1447  0.1920 -0.8810
  716MOL0     O98678   8.015   9.650   1.350 -0.2712 -0.5361  0.4590
  716MOL0     C98679   7.970   9.786   1.373 -0.7506  0.5769  0.0869
  716MOL0     C98680   8.085   9.873   1.398 -0.0963  0.0647  0.7177
  716MOL0     C98681   8.145   9.857   1.539 -0.2504  0.5753  0.6475
  716MOL0     C98682   8.208   9.988   1.573  0.1362  0.1520 -0.8257
  716MOL0     C98683   8.271   9.987   1.706  0.1392  0.6213 -0.8291
  716MOL0     C98684   8.333  10.121   1.745  0.0241  0.0569  0.5046
  716MOL0     C98685   8.439  10.102   1.842 -0.9028 -1.1533 -1.0064
  716MOL0     C98686   8.463  10.238   1.923  0.4256  0.4323 -1.4010
  716MOL0     N98687   8.540  10.208   2.042 -0.0274 -0.9103 -0.4770
  716MOL0     C98688   8.683  10.200   2.055  0.0333  0.2726 -0.1050
  716MOL0     C98689   8.703  10.183   2.190 -0.1854 -0.1507 -0.5455
  716MOL0     C98690   8.835  10.168   2.259 -0.5421 -0.2619  0.0975
  716MOL0     C98691   8.885  10.024   2.263  1.0777 -0.7430 -0.0879
  716MOL0     C98692   9.001   9.997   2.357 -0.0797  0.6567 -0.0198
  716MOL0     C98693   9.103  10.110   2.378  0.2394 -0.2536 -0.1339
  716MOL0     O98694   9.157  10.141   2.244  0.0440 -0.5256  0.3675
  716MOL0     C98695   9.240  10.253   2.239 -0.3422 -1.2464 -0.0285
  716MOL0     C98696   9.268  10.299   2.109  0.4706  0.2265  0.0526
  716MOL0     C98697   9.336  10.416   2.086  0.1742 -0.2048 -0.3856
  716MOL0     C98698   9.346  10.459   1.937 -0.0836 -0.3430 -0.3923
  716MOL0     C98699   9.403  10.486   2.192  0.3698  0.4226 -1.1514
  716MOL0     C98700   9.471  10.611   2.183  0.0906 -1.1928  0.4985
  716MOL0     O98701   9.495  10.685   2.295  0.3922  0.2375  0.1520
  716MOL0     C98702   9.546  10.811   2.292 -0.5115  0.2523  1.0435
  716MOL0     C98703   9.484  10.916   2.363  0.6901 -0.2766 -0.4661
  716MOL0     C98704   9.536  11.042   2.356  0.1498 -1.3225  0.2606
  716MOL0     C98705   9.647  11.075   2.278 -0.7197  0.1847 -0.0069
  716MOL0     O98706   9.675  11.213   2.276 -0.8842 -0.2702 -0.0381
  716MOL0     C98707   9.768  11.251   2.171  0.0309 -0.4122  0.3310
  716MOL0     C98708   9.711  11.233   2.030  0.4176  0.0672 -0.3413
  716MOL0     C98709   9.713  11.360   1.940  0.4755  1.2449 -1.3234
  716MOL0     C98710   9.676  11.314   1.792 -0.3468 -0.1770  0.2325
  716MOL0     C98711   9.641  11.433   1.703 -0.8697  0.7105 -0.1260
  716MOL0     C98712   9.639  11.413   1.548 -0.0718  0.4047 -0.3779
  716MOL0     C98713   9.527  11.329   1.485  0.3013  0.2867  0.0804
  716MOL0     C98714   9.553  11.283   1.344  0.2764  0.2896  0.5600
  716MOL0    Cl98715   9.599  11.436   1.247  0.0579  0.0669 -0.3252
  716MOL0     C98716   9.719  10.973   2.206  0.8838  0.2881 -1.0448
  716MOL0     C98717   9.665  10.846   2.217 -0.1062  0.1051  0.7193
  716MOL0     O98718   9.491  10.652   2.065 -0.0325  0.1875 -0.2869
  716MOL0     C98719   9.377  10.435   2.326  0.2021 -0.0044  0.2701
  716MOL0     C98720   9.298  10.322   2.354 -0.6247 -0.5034 -0.6783
  716MOL0     N98721   8.579  10.171   2.252 -0.5174 -0.4534  0.6850
  716MOL0     N98722   8.490  10.192   2.164  0.4492 -0.7813  0.2258
  716MOL0     C98723   7.949   9.434   1.400 -1.3049  0.6505 -0.0486
  716MOL0     C98724   7.858   9.338   1.446  0.1637  0.2838 -0.3880
  716MOL0     C98725   7.483   9.084   1.352  0.1135 -0.6870  0.1895
  716MOL0     C98726   7.424   9.044   1.230 -0.4567 -0.7738  0.1868
  716MOL0     C98727   7.308   8.971   1.233 -0.4578 -0.3318  0.4064
  716MOL0     C98728   7.242   8.923   1.345 -0.8295  0.2515 -0.7485
  716MOL0     O98729   7.122   8.866   1.343 -0.2580  0.3143  0.2943
  716MOL0     C98730   7.073   8.804   1.222  0.3835  0.1242 -0.3835
  716MOL0     C98731   6.973   8.695   1.261 -0.3426 -0.0637 -1.0423
  716MOL0     C98732   6.924   8.623   1.131 -0.4282 -0.0938  0.3481
  716MOL0     C98733   6.808   8.526   1.163  0.2078  0.0057  0.4728
  716MOL0     C98734   6.696   8.521   1.063  0.2846 -0.7850  0.1968
  716MOL0     C98735   6.611   8.495   0.976 -0.4377  0.2075 -0.0114
  716MOL0     C98736   7.303   8.961   1.476 -0.5802  1.1375  0.3731
  716MOL0     C98737   7.422   9.042   1.471 -0.1991  0.9101  0.5455
  716MOL0     C98738   7.480   9.060   1.603 -0.6171 -0.0250 -0.0414
  716MOL0     H98739   7.584   9.493   1.335  0.2438 -0.4236 -0.3276
  716MOL0     H98740   7.769   9.679   1.272 -0.2096  0.9661  0.4006
  716MOL0     H98741   7.888   9.804   1.443 -1.5360  2.8689 -1.2970
  716MOL0     H98742   7.922   9.820   1.280  1.5506  1.6885 -0.7698
  716MOL0     H98743   8.161   9.842   1.325  0.1916 -1.3034  1.5684
  716MOL0     H98744   8.047   9.971   1.367  1.4073  1.2242  2.3104
  716MOL0     H98745   8.067   9.837   1.613 -0.5425 -1.2292 -0.0898
  716MOL0     H98746   8.210   9.769   1.543  0.3811  1.0373  0.5626
  716MOL0     H98747   8.277  10.005   1.490 -0.2698  2.6228 -0.7550
  716MOL0     H98748   8.135  10.070   1.565  0.4727  0.7417  1.5003
  716MOL0     H98749   8.347   9.909   1.700  1.0683  1.1149  2.5332
  716MOL0     H98750   8.201   9.957   1.784  2.5842 -0.2969  1.1054
  716MOL0     H98751   8.374  10.177   1.660 -2.5068  4.3153  1.7962
  716MOL0     H98752   8.258  10.191   1.783  0.5786  0.7487  0.3525
  716MOL0     H98753   8.532  10.070   1.793 -1.1364  0.2293 -2.4238
  716MOL0     H98754   8.408  10.020   1.909 -1.4560 -0.6365 -0.6203
  716MOL0     H98755   8.513  10.315   1.865  0.0594  2.6523  1.0407
  716MOL0     H98756   8.376  10.289   1.966  3.6369  4.7475  0.7487
  716MOL0     H98757   8.750  10.189   1.970 -2.1441  1.2534 -2.0407
  716MOL0     H98758   8.818  10.209   2.359  3.7155  1.6184  0.2574
  716MOL0     H98759   8.905  10.236   2.209 -2.1379  2.3879  1.2426
  716MOL0     H98760   8.795   9.964   2.280 -0.6931 -0.0808 -5.3765
  716MOL0     H98761   8.915   9.991   2.163  0.8443 -1.4976  0.0849
  716MOL0     H98762   8.955   9.967   2.451 -1.3934 -1.7454 -1.3629
  716MOL0     H98763   9.057   9.908   2.329  1.1399  1.8918 -1.7435
  716MOL0     H98764   9.041  10.185   2.426 -0.9095 -2.8367  2.7765
  716MOL0     H98765   9.177  10.079   2.452 -1.5107  1.7548  2.6285
  716MOL0     H98766   9.229  10.233   2.032  1.1769  1.1061 -1.0894
  716MOL0     H98767   9.309  10.561   1.921  1.2094  0.2418  0.1961
  716MOL0     H98768   9.279  10.400   1.873 -1.2277  0.2913  0.1788
  716MOL0     H98769   9.445  10.451   1.892  0.1012  1.3736 -0.3654
  716MOL0     H98770   9.392  10.888   2.415  1.1107  0.2473  0.5922
  716MOL0     H98771   9.500  11.127   2.414  2.8169 -0.1814  0.4390
  716MOL0     H98772   9.793  11.356   2.188 -0.1146 -0.2296 -0.5293
  716MOL0     H98773   9.864  11.199   2.171  1.1484  1.3087 -3.3597
  716MOL0     H98774   9.761  11.155   1.973  1.7003  1.7893 -1.7137
  716MOL0     H98775   9.604  11.209   2.039  0.2495 -0.2769 -2.6177
  716MOL0     H98776   9.805  11.419   1.946  1.2565  0.2418 -2.7684
  716MOL0     H98777   9.636  11.422   1.986 -0.0317 -1.5397  1.9256
  716MOL0     H98778   9.589  11.255   1.820  0.4730 -0.7182  1.7693
  716MOL0     H98779   9.749  11.248   1.744 -0.8275 -1.1790  0.8434
  716MOL0     H98780   9.543  11.464   1.742 -0.5963 -0.2220  1.4211
  716MOL0     H98781   9.727  11.498   1.720  1.4429 -2.6851  2.7925
  716MOL0     H98782   9.735  11.366   1.524  1.3597  2.9964 -0.1376
  716MOL0     H98783   9.641  11.514   1.505  0.3265  0.0233 -1.2935
  716MOL0     H98784   9.433  11.384   1.471  0.9907  0.8556 -3.3130
  716MOL0     H98785   9.504  11.254   1.561  1.2613  2.5692  2.8315
  716MOL0     H98786   9.462  11.244   1.297  0.8571  2.1084 -2.3286
  716MOL0     H98787   9.643  11.221   1.343 -1.9086 -3.2078 -1.9283
  716MOL0     H98788   9.795  10.983   2.129 -0.6099  0.8808 -2.4885
  716MOL0     H98789   9.716  10.762   2.172 -0.2758 -0.7678  2.1017
  716MOL0     H98790   9.419  10.488   2.410 -0.2376 -2.1087  1.9093
  716MOL0     H98791   9.296  10.281   2.454 -1.3495 -1.1920 -0.9628
  716MOL0     H98792   8.054   9.411   1.412 -0.6848  3.7226  1.4695
  716MOL0     H98793   7.892   9.244   1.489  0.0034  0.9455  1.2685
  716MOL0     H98794   7.447   9.083   1.132 -3.9770 -0.1550 -0.5247
  716MOL0     H98795   7.265   8.964   1.133  3.5918  2.1111 -1.7928
  716MOL0     H98796   7.014   8.875   1.164 -2.6445 -1.8631  0.0566
  716MOL0     H98797   7.157   8.775   1.157  2.7746  1.6045  1.8196
  716MOL0     H98798   6.891   8.735   1.321 -0.4493 -0.5147 -0.8822
  716MOL0     H98799   7.027   8.620   1.319 -1.6011 -0.6669 -0.6267
  716MOL0     H98800   6.885   8.702   1.067  0.3520  1.5962  1.8841
  716MOL0     H98801   7.004   8.568   1.081 -0.7068 -1.2220  1.1037
  716MOL0     H98802   6.761   8.549   1.260  0.8592  1.7853  0.4052
  716MOL0     H98803   6.851   8.426   1.169  0.6243 -0.0191 -1.9543
  716MOL0     H98804   6.535   8.457   0.911  1.0586 -1.0019 -1.1409
  716MOL0     H98805   7.244   8.925   1.560  1.5906 -0.7214  1.1871
  716MOL0     H98806   7.573   9.004   1.619  0.8558  2.6796  1.7789
  716MOL0     H98807   7.506   9.166   1.615 -4.2587  1.0494 -0.5065
  716MOL0     H98808   7.410   9.041   1.685 -1.7012 -1.0780 -1.1810
  717MOL0     O98809   9.168   7.389  10.275  0.4799  0.6152 -0.1511
  717MOL0     C98810   9.122   7.468  10.360 -1.2044  0.1052 -0.1171
  717MOL0     O98811   9.183   7.511  10.474  0.0545  0.4474 -0.7489
  717MOL0     C98812   9.315   7.470  10.476 -0.0073  0.7032  0.3171
  717MOL0     C98813   9.424   7.513  10.395 -0.3300  0.5528 -0.7723
  717MOL0     C98814   9.548   7.451  10.428 -0.2622  0.4910  0.4115
  717MOL0     C98815   9.557   7.339  10.522 -0.6018 -0.0532  0.4244
  717MOL0     O98816   9.692   7.284  10.531 -0.7791  0.2120  0.1541
  717MOL0     C98817   9.706   7.148  10.593  0.1419 -0.2628  0.0140
  717MOL0     C98818   9.849   7.131  10.621  0.8365  0.4396  0.3237
  717MOL0     C98819   9.874   6.994  10.690 -0.1979 -0.9527  0.0728
  717MOL0     C98820  10.028   6.965  10.725  0.2384  0.0192 -0.2005
  717MOL0     C98821  10.057   7.026  10.864 -0.1580 -0.4297 -0.2697
  717MOL0     C98822  10.196   6.992  10.928  0.9415 -0.2659 -0.0960
  717MOL0     C98823  10.312   7.029  10.837 -0.2788  0.1929 -0.6160
  717MOL0     C98824  10.442   7.025  10.914  0.4978 -0.2251  0.0088
  717MOL0     N98825  10.524   7.138  10.871  0.0409 -0.2761  0.0102
  717MOL0     C98826  10.505   7.260  10.931 -0.5071  0.0325 -0.8938
  717MOL0     C98827  10.600   7.342  10.882 -1.1451 -0.5750  0.2703
  717MOL0     C98828  10.619   7.481  10.921  0.1376  0.9250 -0.1386
  717MOL0     C98829  10.620   7.508  11.077  0.3272  0.3452 -0.1042
  717MOL0     C98830  10.723   7.427  11.159 -0.6351  0.1429 -1.0153
  717MOL0     C98831  10.860   7.488  11.159 -1.0692 -0.0445  0.4173
  717MOL0     O98832  10.951   7.441  11.260  0.5099 -0.1558  0.3830
  717MOL0     C98833  11.074   7.478  11.273 -0.2686 -0.8468 -0.5768
  717MOL0     C98834  11.140   7.428  11.390  0.2442 -0.6169 -0.3508
  717MOL0     C98835  11.273   7.460  11.430  0.6795  0.2666  0.2324
  717MOL0     C98836  11.339   7.384  11.538 -0.3754  0.1091  0.4804
  717MOL0     C98837  11.344   7.552  11.352 -0.2344 -1.1132 -0.6710
  717MOL0     C98838  11.483   7.608  11.377  0.4467 -0.4814  0.0548
  717MOL0     O98839  11.555   7.546  11.475  0.5968  0.1552  0.5063
  717MOL0     C98840  11.684   7.574  11.490  0.3216  0.1884 -0.1615
  717MOL0     C98841  11.766   7.473  11.447 -0.0800 -0.3408 -0.1296
  717MOL0     C98842  11.903   7.491  11.439 -0.4932  0.7183  0.0314
  717MOL0     C98843  11.957   7.617  11.486 -1.1793  0.6246 -0.4206
  717MOL0     O98844  12.092   7.638  11.493  0.0971 -0.1497  0.5852
  717MOL0     C98845  12.166   7.617  11.369 -0.0731  0.6052 -0.5676
  717MOL0     C98846  12.281   7.524  11.413  0.9845  0.1520 -0.0246
  717MOL0     C98847  12.422   7.570  11.376  0.6029 -0.1121  0.3195
  717MOL0     C98848  12.514   7.455  11.405 -0.2236  0.4199 -0.5475
  717MOL0     C98849  12.655   7.502  11.375  0.4069  0.6372  0.1177
  717MOL0     C98850  12.703   7.601  11.483  0.4037 -0.0460 -0.6228
  717MOL0     C98851  12.854   7.589  11.491 -0.5625 -0.0875 -0.0984
  717MOL0     C98852  12.934   7.663  11.386  0.8065 -0.1580  0.5341
  717MOL0    Cl98853  13.111   7.653  11.410  0.9473 -0.2520 -0.4888
  717MOL0     C98854  11.876   7.720  11.523  0.7796  0.3082  0.6546
  717MOL0     C98855  11.737   7.698  11.529 -0.2706 -0.4693 -0.3537
  717MOL0     O98856  11.525   7.701  11.315 -0.4020 -0.4255  0.0250
  717MOL0     C98857  11.286   7.595  11.231 -0.6412  0.5494 -0.1463
  717MOL0     C98858  11.153   7.567  11.195 -0.6645  0.4500 -0.6837
  717MOL0     N98859  10.687   7.268  10.793 -0.2440  0.6074  0.0049
  717MOL0     N98860  10.630   7.149  10.785  0.4963 -0.1341  0.7413
  717MOL0     C98861   9.446   7.301  10.591 -0.1432 -0.4100 -0.4173
  717MOL0     C98862   9.328   7.368  10.573  0.0661 -0.6527  0.7501
  717MOL0     C98863   8.985   7.514  10.334 -0.7045 -0.0671  0.1317
  717MOL0     C98864   8.968   7.652  10.358  0.9290  0.1272 -0.0191
  717MOL0     C98865   8.842   7.712  10.335  0.4383  0.9146  1.6574
  717MOL0     C98866   8.733   7.631  10.287  0.1199  1.2617 -0.7653
  717MOL0     O98867   8.619   7.695  10.268  0.4266  0.3244 -0.1679
  717MOL0     C98868   8.505   7.609  10.259  0.6471 -0.0385 -0.6317
  717MOL0     C98869   8.376   7.684  10.277 -0.7229 -0.7020 -0.4699
  717MOL0     C98870   8.363   7.788  10.158  0.4264  0.1433 -0.8785
  717MOL0     C98871   8.227   7.849  10.169 -1.0546 -0.0936  1.2761
  717MOL0     C98872   8.123   7.774  10.101  0.9309 -0.4409 -0.3352
  717MOL0     C98873   8.028   7.710  10.063 -0.1412  0.0927  0.0401
  717MOL0     C98874   8.753   7.497  10.244 -0.8613  0.3056 -0.7199
  717MOL0     C98875   8.873   7.438  10.281 -0.7443 -1.3978  0.6294
  717MOL0     C98876   8.885   7.298  10.266  0.3735  0.5905  0.2006
  717MOL0     H98877   9.414   7.584  10.314 -1.7784  1.2078 -0.0562
  717MOL0     H98878   9.634   7.476  10.367 -1.4897  2.7805 -0.4824
  717MOL0     H98879   9.666   7.070  10.528  0.7174  1.1629 -2.1433
  717MOL0     H98880   9.657   7.137  10.690 -0.9513  0.5247 -0.4320
  717MOL0     H98881   9.905   7.118  10.528 -1.6648 -2.4424 -0.9708
  717MOL0     H98882   9.889   7.214  10.681  2.0216 -1.5420  2.4364
  717MOL0     H98883   9.818   6.981  10.783  1.7242 -2.2265  1.0984
  717MOL0     H98884   9.840   6.919  10.617 -2.3562  1.0181 -1.1138
  717MOL0     H98885  10.024   6.856  10.729 -0.1831 -0.1976 -3.4355
  717MOL0     H98886  10.091   7.007  10.646  0.7009 -1.2179 -0.5048
  717MOL0     H98887   9.970   7.008  10.927 -0.3103  1.0657 -0.0192
  717MOL0     H98888  10.044   7.134  10.852  2.2895  0.3112  2.4980
  717MOL0     H98889  10.205   7.057  11.016 -1.1634  1.6766 -1.2111
  717MOL0     H98890  10.196   6.891  10.969  5.6157 -0.7763 -0.8443
  717MOL0     H98891  10.291   7.132  10.808 -0.9099  1.1296  2.7200
  717MOL0     H98892  10.318   6.977  10.741  0.7813  0.2186 -0.5747
  717MOL0     H98893  10.423   7.045  11.020 -2.5832 -0.8713 -0.3277
  717MOL0     H98894  10.497   6.931  10.905  1.9877  0.8205 -3.3663
  717MOL0     H98895  10.434   7.286  11.008  1.5011 -0.3133  1.1767
  717MOL0     H98896  10.536   7.532  10.871 -2.4594 -1.4277  1.4852
  717MOL0     H98897  10.712   7.500  10.867  0.9632 -0.3054  0.7992
  717MOL0     H98898  10.622   7.615  11.096 -4.6335  0.8170 -0.8315
  717MOL0     H98899  10.523   7.471  11.113  2.0398 -1.0352  3.6323
  717MOL0     H98900  10.686   7.429  11.262  0.6383 -0.3176 -0.5254
  717MOL0     H98901  10.734   7.328  11.113  0.4699  0.3050 -1.1312
  717MOL0     H98902  10.904   7.468  11.061 -0.8494 -0.7527  0.6558
  717MOL0     H98903  10.854   7.597  11.156 -6.4472 -0.0356  2.0041
  717MOL0     H98904  11.090   7.349  11.445  0.8826 -1.9616 -1.6626
  717MOL0     H98905  11.340   7.458  11.618 -2.5543  2.5849 -1.5701
  717MOL0     H98906  11.439   7.347  11.515 -0.3216 -0.1370  1.1084
  717MOL0     H98907  11.281   7.295  11.564 -1.8373  0.4989 -1.2200
  717MOL0     H98908  11.723   7.377  11.422  0.5874 -0.1111 -2.4475
  717MOL0     H98909  11.973   7.412  11.413 -0.4546 -0.5345  3.4103
  717MOL0     H98910  12.114   7.569  11.286  0.5011 -0.6963 -0.1945
  717MOL0     H98911  12.207   7.715  11.343  1.4885  0.0315 -0.3719
  717MOL0     H98912  12.289   7.509  11.521  0.6948 -1.7621 -0.2399
  717MOL0     H98913  12.254   7.428  11.369 -0.1933  1.0375 -1.3609
  717MOL0     H98914  12.455   7.648  11.445  1.4053  1.4407 -1.7076
  717MOL0     H98915  12.419   7.614  11.276 -2.5180  1.0588  0.8068
  717MOL0     H98916  12.489   7.366  11.346 -0.6594 -0.4023  0.8116
  717MOL0     H98917  12.503   7.426  11.510 -1.0166  0.7632 -0.5231
  717MOL0     H98918  12.712   7.408  11.373 -1.1199 -0.5432  3.5815
  717MOL0     H98919  12.657   7.558  11.281 -1.2392  0.8585  0.1970
  717MOL0     H98920  12.669   7.581  11.585  1.3737  0.5900 -0.1638
  717MOL0     H98921  12.675   7.704  11.461 -1.9934 -0.3103  0.8517
  717MOL0     H98922  12.890   7.485  11.494  0.6665  0.3488  1.8845
  717MOL0     H98923  12.891   7.624  11.588 -2.7331 -0.9602  1.1259
  717MOL0     H98924  12.919   7.771  11.394  3.3539  0.3055 -0.1125
  717MOL0     H98925  12.905   7.618  11.291 -0.4362 -0.4301  1.0189
  717MOL0     H98926  11.907   7.824  11.537 -0.3631  0.3247  3.7770
  717MOL0     H98927  11.676   7.786  11.550 -0.2595 -0.5021 -0.1806
  717MOL0     H98928  11.343   7.646  11.154 -0.1763 -2.2587 -1.7970
  717MOL0     H98929  11.109   7.607  11.105 -0.1924  2.3182 -0.1392
  717MOL0     H98930   9.466   7.214  10.653  3.4517 -1.4960 -2.7729
  717MOL0     H98931   9.249   7.347  10.644  1.8121  1.6261  3.5901
  717MOL0     H98932   9.053   7.716  10.378  0.4555  0.3514  1.3865
  717MOL0     H98933   8.842   7.819  10.351  0.6632  2.1567 -4.2894
  717MOL0     H98934   8.505   7.560  10.161  0.8929 -1.5669  0.1103
  717MOL0     H98935   8.515   7.530  10.333  3.0159 -0.1143 -0.9635
  717MOL0     H98936   8.367   7.729  10.376  0.6204  0.3263 -0.7734
  717MOL0     H98937   8.296   7.609  10.273 -0.5261 -1.1436  2.1904
  717MOL0     H98938   8.429   7.875  10.172  0.4418 -0.1228  0.9098
  717MOL0     H98939   8.367   7.748  10.056 -1.5936  0.6418 -1.1918
  717MOL0     H98940   8.224   7.950  10.128  1.3426 -0.2858  0.4654
  717MOL0     H98941   8.202   7.870  10.273 -1.8558  2.9123  0.5726
  717MOL0     H98942   7.940   7.653  10.041  1.6632 -1.3386 -4.9420
  717MOL0     H98943   8.679   7.449  10.180 -3.1014  3.0023 -0.3876
  717MOL0     H98944   8.790   7.247  10.245  0.6544 -0.8372  2.1378
  717MOL0     H98945   8.969   7.281  10.198  1.4777  3.9459  0.5034
  717MOL0     H98946   8.915   7.259  10.363  0.9998  0.3296 -0.0960
  718MOL0     O98947   3.383   4.901   2.857  0.1453  0.3037 -0.2388
  718MOL0     C98948   3.391   4.982   2.948 -0.1141  1.1758 -0.6723
  718MOL0     O98949   3.334   4.961   3.074 -1.1739 -0.3877  0.0420
  718MOL0     C98950   3.273   4.840   3.118  0.5761 -0.4262 -0.0389
  718MOL0     C98951   3.304   4.716   3.067 -0.8891  0.9559 -0.9097
  718MOL0     C98952   3.238   4.608   3.122 -0.4982  0.2004  0.2698
  718MOL0     C98953   3.131   4.621   3.218  0.4091 -0.0407 -0.9674
  718MOL0     O98954   3.069   4.517   3.276 -0.9380 -0.3248  0.1859
  718MOL0     C98955   3.089   4.384   3.225 -0.5964 -0.1694 -0.7831
  718MOL0     C98956   2.987   4.341   3.117  0.6545  0.7496  0.0039
  718MOL0     C98957   2.844   4.337   3.172  0.7163  0.1109  0.5760
  718MOL0     C98958   2.743   4.295   3.074 -0.5369  0.7230 -1.1483
  718MOL0     C98959   2.757   4.158   3.016  0.2175 -0.1484  0.1134
  718MOL0     C98960   2.647   4.135   2.904 -0.7626  0.3760 -0.0991
  718MOL0     C98961   2.634   3.981   2.873 -0.0855 -0.1534  1.1705
  718MOL0     C98962   2.530   3.953   2.768 -0.5675 -0.2702 -0.3544
  718MOL0     N98963   2.507   3.806   2.749  1.0944 -0.3723 -0.5933
  718MOL0     C98964   2.446   3.715   2.845 -0.2689 -0.5979  0.0955
  718MOL0     C98965   2.466   3.591   2.789  0.7217 -0.3164 -0.3657
  718MOL0     C98966   2.401   3.462   2.819  0.7677 -0.2865  0.3017
  718MOL0     C98967   2.264   3.464   2.742 -0.0489  0.2182 -0.2116
  718MOL0     C98968   2.145   3.493   2.831  1.0730  0.8454  0.4764
  718MOL0     C98969   2.019   3.503   2.738  1.4265 -0.1830 -0.2302
  718MOL0     O98970   2.012   3.390   2.644 -0.0166 -0.5331 -0.6174
  718MOL0     C98971   1.921   3.382   2.548  1.2178 -0.7767 -0.0986
  718MOL0     C98972   1.805   3.468   2.535 -0.0278 -0.1612 -0.6475
  718MOL0     C98973   1.718   3.455   2.433 -0.0408 -0.3319  0.0330
  718MOL0     C98974   1.593   3.543   2.435 -0.6218 -0.4662 -0.1686
  718MOL0     C98975   1.737   3.353   2.341 -0.3490 -0.3029 -1.0789
  718MOL0     C98976   1.631   3.328   2.245 -0.2767  0.7303  0.3759
  718MOL0     O98977   1.551   3.225   2.299  0.0767 -0.1270  0.0365
  718MOL0     C98978   1.424   3.214   2.257 -0.2151 -0.1681  0.0546
  718MOL0     C98979   1.323   3.220   2.350  1.4369 -0.4055  0.2534
  718MOL0     C98980   1.194   3.179   2.321 -0.3514  0.4110  1.4482
  718MOL0     C98981   1.163   3.147   2.187  0.3638 -1.0496 -0.0347
  718MOL0     O98982   1.032   3.103   2.163  0.0421 -1.3583 -0.4585
  718MOL0     C98983   1.005   3.007   2.056  0.3067  0.3812  0.2659
  718MOL0     C98984   0.867   2.946   2.073 -0.2018 -0.6470 -0.6145
  718MOL0     C98985   0.844   2.833   1.981 -0.2800  1.2197  0.0391
  718MOL0     C98986   0.703   2.784   1.978  0.0481 -0.0664 -0.2179
  718MOL0     C98987   0.606   2.873   1.903 -0.5154  0.3935  0.3785
  718MOL0     C98988   0.470   2.827   1.910  0.4253  0.2702 -0.6911
  718MOL0     C98989   0.368   2.902   1.818 -0.0949 -0.4273 -0.8666
  718MOL0     C98990   0.384   2.840   1.674  0.1320  1.0895 -0.5673
  718MOL0    Cl98991   0.239   2.881   1.577 -0.2152  0.8146 -0.1186
  718MOL0     C98992   1.260   3.147   2.091 -0.3627  0.6468 -0.5225
  718MOL0     C98993   1.389   3.182   2.130  0.0278 -0.4285 -0.0042
  718MOL0     O98994   1.602   3.405   2.162 -0.3035  0.3221  1.2045
  718MOL0     C98995   1.844   3.256   2.363  0.4126 -0.7997 -0.3301
  718MOL0     C98996   1.937   3.276   2.463 -0.5004  0.6328 -0.2975
  718MOL0     N98997   2.544   3.621   2.677 -0.2311 -0.0251 -0.5140
  718MOL0     N98998   2.564   3.741   2.651 -0.8201  0.5879 -0.1627
  718MOL0     C98999   3.101   4.752   3.263  0.2086  0.0124 -0.4344
  718MOL0     C99000   3.176   4.860   3.211 -0.1980  0.8577 -0.2886
  718MOL0     C99001   3.456   5.113   2.920  0.6143 -0.1653 -0.1262
  718MOL0     C99002   3.421   5.221   3.004 -0.0766 -0.2662 -0.9493
  718MOL0     C99003   3.480   5.340   2.986 -1.0948  0.0139  0.8741
  718MOL0     C99004   3.569   5.362   2.889 -0.3363 -0.4689 -0.1510
  718MOL0     O99005   3.609   5.493   2.875 -0.5245 -0.6034 -0.1343
  718MOL0     C99006   3.699   5.536   2.775  0.0518  1.4916 -0.5512
  718MOL0     C99007   3.766   5.674   2.794 -0.0843  0.1940 -0.3704
  718MOL0     C99008   3.674   5.796   2.743  0.2397  0.2252 -0.1478
  718MOL0     C99009   3.549   5.830   2.831  0.6911  0.2960 -1.0962
  718MOL0     C99010   3.478   5.953   2.780 -0.3661  1.0927  0.7025
  718MOL0     C99011   3.440   6.036   2.704  0.2172  0.1933  0.0995
  718MOL0     C99012   3.611   5.255   2.805 -0.6018 -0.1665 -0.3154
  718MOL0     C99013   3.561   5.125   2.823  0.4635  0.5012 -0.2257
  718MOL0     C99014   3.607   5.019   2.724  0.7008 -0.0905  0.5944
  718MOL0     H99015   3.383   4.716   2.993  1.2987  3.8206  1.1955
  718MOL0     H99016   3.265   4.509   3.088 -4.3043  0.3675 -4.3093
  718MOL0     H99017   3.077   4.327   3.317  0.9810  0.4023 -0.1923
  718MOL0     H99018   3.185   4.348   3.188 -1.3241 -0.8114 -2.1014
  718MOL0     H99019   2.990   4.416   3.037  0.3547 -1.8965 -2.6432
  718MOL0     H99020   3.014   4.245   3.072  0.7154  1.2127 -0.9774
  718MOL0     H99021   2.826   4.281   3.264 -2.9087  2.0748  1.2499
  718MOL0     H99022   2.815   4.440   3.196  1.4363  0.5511 -0.3831
  718MOL0     H99023   2.646   4.306   3.123 -0.6095 -1.7405 -0.6587
  718MOL0     H99024   2.742   4.363   2.988  2.2599  0.3508 -1.5791
  718MOL0     H99025   2.740   4.083   3.094 -1.6780 -4.2152 -3.7994
  718MOL0     H99026   2.850   4.144   2.961 -0.1682 -1.8755 -0.1613
  718MOL0     H99027   2.549   4.165   2.943 -0.8111 -1.8607  1.7121
  718MOL0     H99028   2.669   4.198   2.817  0.2707  1.6221  1.0430
  718MOL0     H99029   2.619   3.918   2.962  2.1651 -2.2263  0.2094
  718MOL0     H99030   2.727   3.945   2.828 -0.3118 -1.8908  2.0137
  718MOL0     H99031   2.428   3.982   2.794 -0.2475  1.0566 -0.5012
  718MOL0     H99032   2.564   4.003   2.676 -1.4526 -1.0936 -1.1503
  718MOL0     H99033   2.383   3.755   2.924 -2.2731  0.8284 -2.0948
  718MOL0     H99034   2.374   3.451   2.924 -1.1821 -0.5076 -0.1863
  718MOL0     H99035   2.474   3.383   2.796  1.3586 -0.2425  1.9117
  718MOL0     H99036   2.272   3.549   2.673  3.4412 -0.5359 -0.9397
  718MOL0     H99037   2.240   3.365   2.703  1.1164  0.1330 -0.7671
  718MOL0     H99038   2.143   3.404   2.894  1.4255 -1.4578 -2.5604
  718MOL0     H99039   2.171   3.586   2.883 -1.1776  1.3709  0.8021
  718MOL0     H99040   1.928   3.502   2.799  0.2256  1.4108 -1.8964
  718MOL0     H99041   2.028   3.596   2.682  3.2538  1.3634  2.4089
  718MOL0     H99042   1.800   3.540   2.617  2.0880 -1.4538  0.7155
  718MOL0     H99043   1.515   3.470   2.454 -1.3395  0.8250  2.1834
  718MOL0     H99044   1.571   3.607   2.349 -0.0029 -0.5784 -0.4192
  718MOL0     H99045   1.600   3.621   2.511  5.6821 -1.0524  0.4015
  718MOL0     H99046   1.347   3.242   2.454 -2.1178  1.0727  0.8972
  718MOL0     H99047   1.114   3.161   2.393 -0.9220  0.0328  0.7388
  718MOL0     H99048   1.017   3.058   1.960  2.0735  1.4012  0.9778
  718MOL0     H99049   1.079   2.927   2.068  1.9324  2.0120  1.8032
  718MOL0     H99050   0.863   2.905   2.175 -0.4379 -1.0216 -0.7733
  718MOL0     H99051   0.791   3.021   2.053 -1.4511 -2.6058 -3.8687
  718MOL0     H99052   0.887   2.745   2.030 -1.6390  1.6062  2.0584
  718MOL0     H99053   0.892   2.855   1.885 -1.3885  1.6067 -0.4518
  718MOL0     H99054   0.661   2.778   2.079  0.7627  0.5691  0.1255
  718MOL0     H99055   0.694   2.683   1.936 -0.0905 -0.5160  0.8577
  718MOL0     H99056   0.604   2.978   1.935 -2.4835  0.0477  1.5617
  718MOL0     H99057   0.640   2.873   1.799 -1.9107  1.5121 -0.1107
  718MOL0     H99058   0.450   2.836   2.018 -0.2435 -2.7277 -0.4633
  718MOL0     H99059   0.464   2.719   1.892 -2.1557 -0.1004  1.6194
  718MOL0     H99060   0.389   3.009   1.825 -1.1165 -0.2546 -0.0454
  718MOL0     H99061   0.265   2.887   1.854  0.1791  2.9323  1.9187
  718MOL0     H99062   0.396   2.732   1.684 -1.1277  1.0716  1.3690
  718MOL0     H99063   0.481   2.863   1.628  2.3555 -2.6603  1.6995
  718MOL0     H99064   1.231   3.124   1.989  0.6972 -0.5443 -0.5843
  718MOL0     H99065   1.472   3.178   2.060 -0.9819 -0.7567 -1.2270
  718MOL0     H99066   1.865   3.168   2.304 -0.7802 -0.2818 -1.5957
  718MOL0     H99067   2.020   3.208   2.481  0.5426  2.3628  1.9888
  718MOL0     H99068   3.030   4.770   3.342  1.6729  1.2376  0.6748
  718MOL0     H99069   3.153   4.958   3.250  3.6705  0.5706  3.4345
  718MOL0     H99070   3.352   5.219   3.088  2.0209 -1.2643  0.8602
  718MOL0     H99071   3.462   5.425   3.051 -1.7940  2.3564 -2.1664
  718MOL0     H99072   3.773   5.456   2.766 -2.0769 -0.9974  1.9128
  718MOL0     H99073   3.651   5.542   2.677 -2.5520  0.4947  0.5519
  718MOL0     H99074   3.860   5.681   2.740  0.5335 -1.5591  0.3733
  718MOL0     H99075   3.786   5.684   2.902 -1.9680 -1.1127  0.1551
  718MOL0     H99076   3.727   5.891   2.734 -0.8956  0.7575 -1.6127
  718MOL0     H99077   3.641   5.775   2.641  2.9195 -0.3624 -0.9790
  718MOL0     H99078   3.569   5.839   2.938  1.6496  0.3956 -1.2789
  718MOL0     H99079   3.475   5.750   2.818 -0.1084  0.8557 -0.0861
  718MOL0     H99080   3.417   6.115   2.635  0.1804 -1.9933 -2.5675
  718MOL0     H99081   3.687   5.275   2.731  0.6701  1.2875  1.3194
  718MOL0     H99082   3.527   4.998   2.652  0.2595  1.1429  0.6978
  718MOL0     H99083   3.703   5.032   2.673  2.5714 -2.4568  3.2356
  718MOL0     H99084   3.618   4.926   2.780  0.0310  0.8491  2.3460
  719MOL0     O99085   2.779   9.031   2.885  0.0866  1.1062 -0.2233
  719MOL0     C99086   2.878   9.036   2.809 -0.1959  0.5906 -0.3306
  719MOL0     O99087   2.887   9.094   2.692  0.5354  0.3281  0.4020
  719MOL0     C99088   2.791   9.185   2.654 -0.4605  0.3396  0.1452
  719MOL0     C99089   2.735   9.170   2.523  0.1291  0.6510  0.1462
  719MOL0     C99090   2.634   9.249   2.478 -0.1472 -0.3387 -0.1153
  719MOL0     C99091   2.574   9.342   2.545 -0.8612 -0.1398  0.1020
  719MOL0     O99092   2.466   9.408   2.482  0.2236  0.1978  0.8214
  719MOL0     C99093   2.395   9.495   2.564  0.1795 -0.2000  0.3049
  719MOL0     C99094   2.283   9.552   2.476 -0.5080 -0.8370 -0.1320
  719MOL0     C99095   2.153   9.565   2.549 -0.4855  0.2058  0.2619
  719MOL0     C99096   2.069   9.677   2.471  0.0877 -0.6406  0.0815
  719MOL0     C99097   1.919   9.672   2.497  0.3227  0.6525 -1.0094
  719MOL0     C99098   1.872   9.690   2.648  0.9247 -0.0466  0.4973
  719MOL0     C99099   1.727   9.648   2.663 -0.4524 -0.0073  0.9618
  719MOL0     C99100   1.712   9.495   2.684 -0.7653  0.6526  0.3216
  719MOL0     N99101   1.576   9.467   2.731 -0.8978  0.0599 -0.1653
  719MOL0     C99102   1.500   9.356   2.688 -0.2699 -0.3611  0.6893
  719MOL0     C99103   1.382   9.375   2.753 -0.2715 -0.8023 -0.0466
  719MOL0     C99104   1.258   9.300   2.765 -0.2058  0.6170 -0.0080
  719MOL0     C99105   1.246   9.199   2.652  0.1296 -0.6168 -0.6994
  719MOL0     C99106   1.236   9.255   2.510 -0.8925 -0.5395 -0.2414
  719MOL0     C99107   1.268   9.158   2.394 -0.6747 -0.3365 -0.2784
  719MOL0     O99108   1.412   9.153   2.386  0.2068  0.5128 -0.0701
  719MOL0     C99109   1.459   9.041   2.325  0.2231  0.0556  0.0243
  719MOL0     C99110   1.517   9.047   2.198  0.4058 -0.2531 -0.5542
  719MOL0     C99111   1.575   8.935   2.137  0.4090 -0.6516 -0.5875
  719MOL0     C99112   1.619   8.962   1.993  0.8729  0.5360 -1.0139
  719MOL0     C99113   1.563   8.808   2.204 -0.9444 -0.8128  0.1438
  719MOL0     C99114   1.623   8.681   2.157  0.8520 -0.0638  0.6833
  719MOL0     O99115   1.554   8.569   2.196 -0.0635  0.4196  0.0787
  719MOL0     C99116   1.623   8.451   2.184  0.0710  0.4172  0.0520
  719MOL0     C99117   1.580   8.336   2.104 -0.2903 -0.1057  0.1243
  719MOL0     C99118   1.639   8.216   2.097 -0.4046  0.7777 -0.1432
  719MOL0     C99119   1.757   8.186   2.178 -0.8523  0.5108  0.4179
  719MOL0     O99120   1.834   8.067   2.173  0.3854  0.3515 -1.0337
  719MOL0     C99121   1.797   7.976   2.079  0.0266  0.5597  0.1049
  719MOL0     C99122   1.888   7.853   2.115  0.3604 -0.1739  0.7789
  719MOL0     C99123   1.892   7.800   2.261 -0.7076  0.0498  0.3457
  719MOL0     C99124   1.981   7.886   2.355 -0.7560  1.2061 -0.9592
  719MOL0     C99125   2.122   7.905   2.308 -0.0852  0.2225  0.2940
  719MOL0     C99126   2.208   7.963   2.416  0.4978  0.5537  0.9454
  719MOL0     C99127   2.203   8.121   2.408  0.7642  0.6550  0.6141
  719MOL0     C99128   2.315   8.166   2.496 -0.2339  0.3469 -0.4770
  719MOL0    Cl99129   2.295   8.339   2.527 -0.5131 -0.0138  0.0678
  719MOL0     C99130   1.806   8.302   2.258 -0.1590 -0.2017 -0.1349
  719MOL0     C99131   1.736   8.426   2.259  0.2698  0.2178 -0.0409
  719MOL0     O99132   1.724   8.683   2.083 -0.0022  0.1907  0.0535
  719MOL0     C99133   1.487   8.807   2.326 -0.6709 -0.6195  0.7495
  719MOL0     C99134   1.440   8.917   2.388  0.2351 -0.1828  0.2600
  719MOL0     N99135   1.388   9.494   2.819 -0.1016  0.0801  0.4641
  719MOL0     N99136   1.504   9.542   2.818 -0.5157 -0.1010  0.0556
  719MOL0     C99137   2.634   9.368   2.666 -0.5080 -0.1481 -0.5333
  719MOL0     C99138   2.731   9.291   2.721 -0.0410 -0.1175  0.0553
  719MOL0     C99139   2.990   8.963   2.856 -0.5706  0.4678  0.3122
  719MOL0     C99140   3.040   8.859   2.771 -0.9447 -0.3869  0.4045
  719MOL0     C99141   3.158   8.777   2.807  0.7886 -0.6261 -0.8547
  719MOL0     C99142   3.218   8.806   2.928 -0.6151 -0.2335  0.6504
  719MOL0     O99143   3.324   8.736   2.984 -0.6269 -0.0581 -0.0496
  719MOL0     C99144   3.331   8.597   2.960 -0.5193  0.4784  0.3760
  719MOL0     C99145   3.371   8.520   3.085  0.6348 -0.3159  0.3040
  719MOL0     C99146   3.251   8.489   3.175  0.2416  0.4435  0.3058
  719MOL0     C99147   3.224   8.607   3.275 -0.0202 -1.0920 -0.5175
  719MOL0     C99148   3.132   8.567   3.374  0.6765  0.8270  0.3225
  719MOL0     C99149   3.054   8.558   3.461  0.2623 -0.1948 -0.3621
  719MOL0     C99150   3.173   8.917   3.002  0.4535  0.7839  0.0440
  719MOL0     C99151   3.059   8.996   2.970 -0.4272 -0.1946  0.2998
  719MOL0     C99152   3.002   9.094   3.068  0.3428 -0.0267  0.7068
  719MOL0     H99153   2.782   9.086   2.474 -0.2777  0.0482  0.7689
  719MOL0     H99154   2.602   9.237   2.375 -0.3256 -3.0159  0.1735
  719MOL0     H99155   2.471   9.568   2.594  1.5269 -2.7761  3.9068
  719MOL0     H99156   2.352   9.445   2.652  2.3022 -0.0428  1.4938
  719MOL0     H99157   2.319   9.646   2.432 -0.0281 -0.2783  1.3739
  719MOL0     H99158   2.262   9.479   2.397 -0.4781 -2.2107  1.0838
  719MOL0     H99159   2.106   9.466   2.541 -0.7970  0.2178  1.6954
  719MOL0     H99160   2.170   9.590   2.654 -1.9164  1.2543  0.2733
  719MOL0     H99161   2.092   9.779   2.502  0.1035  0.2578 -2.6250
  719MOL0     H99162   2.105   9.665   2.368  2.0724 -3.0252  0.9634
  719MOL0     H99163   1.871   9.583   2.455  1.3711 -0.3254 -0.2085
  719MOL0     H99164   1.881   9.757   2.440 -2.1343 -0.1017 -0.6262
  719MOL0     H99165   1.941   9.650   2.723  1.8120  0.0762 -0.2306
  719MOL0     H99166   1.866   9.796   2.674  0.1997 -0.3876  1.8147
  719MOL0     H99167   1.666   9.697   2.586  0.1425  1.3855  1.3465
  719MOL0     H99168   1.692   9.697   2.754  4.1826  3.0041  1.4503
  719MOL0     H99169   1.741   9.432   2.599 -4.4005 -0.5855 -0.1779
  719MOL0     H99170   1.780   9.465   2.764  0.4515  2.1577 -0.1082
  719MOL0     H99171   1.520   9.271   2.623 -0.3027 -1.1729  1.7053
  719MOL0     H99172   1.180   9.377   2.764 -1.1391 -0.2962 -0.8479
  719MOL0     H99173   1.258   9.256   2.865  0.3551  0.2898 -0.1487
  719MOL0     H99174   1.328   9.128   2.663 -0.8295 -1.6494  0.0148
  719MOL0     H99175   1.149   9.148   2.661 -0.4068 -0.0584 -2.6651
  719MOL0     H99176   1.128   9.273   2.504 -1.2540 -0.2624  4.0730
  719MOL0     H99177   1.296   9.345   2.494  1.6198 -2.1318 -0.3633
  719MOL0     H99178   1.215   9.065   2.416 -0.2847 -0.0346  2.2207
  719MOL0     H99179   1.236   9.203   2.299 -0.9829  1.2729  0.5407
  719MOL0     H99180   1.514   9.149   2.161 -0.4678  0.0587  0.3456
  719MOL0     H99181   1.692   9.042   1.981  0.4857  1.1137  0.3063
  719MOL0     H99182   1.533   8.987   1.931 -0.0333  0.8953  0.3432
  719MOL0     H99183   1.662   8.867   1.959  1.3442  0.3081  0.1560
  719MOL0     H99184   1.500   8.356   2.033  0.9920  3.5503 -0.5341
  719MOL0     H99185   1.615   8.135   2.029  2.5721  1.2787 -1.9626
  719MOL0     H99186   1.695   7.937   2.083  0.4864 -0.9330 -1.2843
  719MOL0     H99187   1.823   8.022   1.983 -1.9520  0.4090 -0.5410
  719MOL0     H99188   1.849   7.778   2.046 -0.3586 -0.8559  1.8993
  719MOL0     H99189   1.992   7.862   2.081  0.4648 -1.1003  0.8171
  719MOL0     H99190   1.920   7.694   2.256 -1.7605 -0.2502  0.4585
  719MOL0     H99191   1.789   7.807   2.298 -0.3127 -0.1579  1.5270
  719MOL0     H99192   1.979   7.826   2.447 -1.0695  3.6990  0.7549
  719MOL0     H99193   1.920   7.975   2.373 -1.6967 -0.0026  2.7917
  719MOL0     H99194   2.158   7.804   2.289 -1.1335  0.0755 -1.0286
  719MOL0     H99195   2.138   7.946   2.208 -2.0097 -2.6912 -1.3413
  719MOL0     H99196   2.312   7.931   2.406  0.0738 -1.0753  1.4432
  719MOL0     H99197   2.171   7.939   2.516 -1.6837 -0.8199 -0.1050
  719MOL0     H99198   2.106   8.155   2.445  0.6756 -0.2074  1.1817
  719MOL0     H99199   2.203   8.158   2.305  0.4840  0.1069  0.4139
  719MOL0     H99200   2.415   8.161   2.451  0.8458 -1.1012  1.9050
  719MOL0     H99201   2.320   8.112   2.590 -0.1211 -0.2243 -0.8079
  719MOL0     H99202   1.890   8.300   2.327 -2.4019  0.5506  2.7811
  719MOL0     H99203   1.772   8.501   2.328 -0.6334  0.3498  0.3099
  719MOL0     H99204   1.451   8.714   2.367 -1.6534 -1.0759 -1.0328
  719MOL0     H99205   1.387   8.908   2.482 -3.2533  2.2357 -1.2648
  719MOL0     H99206   2.595   9.440   2.737  1.3978 -0.5423  0.9845
  719MOL0     H99207   2.750   9.301   2.827 -2.5133 -0.8782  0.6505
  719MOL0     H99208   2.977   8.840   2.685 -0.6997 -0.7277  0.2978
  719MOL0     H99209   3.204   8.707   2.739  3.1793 -1.7759  1.7416
  719MOL0     H99210   3.244   8.550   2.913 -0.5982 -0.9565  1.8864
  719MOL0     H99211   3.412   8.590   2.886  1.8930 -1.0658  2.9973
  719MOL0     H99212   3.453   8.575   3.133 -1.0212  1.5136  1.1776
  719MOL0     H99213   3.417   8.427   3.049 -0.3983 -1.0158  0.7362
  719MOL0     H99214   3.171   8.446   3.114 -0.4016 -1.6150  2.4387
  719MOL0     H99215   3.292   8.413   3.242  0.0730 -1.8313 -1.9631
  719MOL0     H99216   3.181   8.689   3.218 -0.1876  0.6659  1.9496
  719MOL0     H99217   3.316   8.639   3.325 -0.1606 -0.9582 -0.3440
  719MOL0     H99218   2.977   8.558   3.535  0.5698  2.0807  0.0182
  719MOL0     H99219   3.229   8.946   3.090  0.0165  0.3161  0.4778
  719MOL0     H99220   2.928   9.052   3.137 -2.0096  0.1401 -1.5624
  719MOL0     H99221   3.085   9.130   3.130  1.4326 -0.3630 -0.5264
  719MOL0     H99222   2.966   9.181   3.014  1.2027  0.7641  1.3755
  720MOL0     O99223   5.079   6.413   3.047 -0.4625  0.2280 -0.1658
  720MOL0     C99224   5.013   6.324   3.095 -0.3789  0.4835  0.3947
  720MOL0     O99225   4.888   6.341   3.140 -1.1026 -0.3968  0.5075
  720MOL0     C99226   4.813   6.451   3.121  0.2447 -0.4253 -0.2658
  720MOL0     C99227   4.851   6.569   3.184  0.6422 -0.4710  0.0031
  720MOL0     C99228   4.793   6.693   3.145  0.2222 -0.3919  0.0053
  720MOL0     C99229   4.684   6.690   3.062 -0.0413  0.0114  0.3585
  720MOL0     O99230   4.616   6.813   3.045 -0.0844 -0.2076  0.9751
  720MOL0     C99231   4.609   6.879   2.918 -0.4844  0.5980 -0.6957
  720MOL0     C99232   4.720   6.985   2.897  0.5003  0.6974 -0.4095
  720MOL0     C99233   4.687   7.133   2.905  0.8864  0.0160  1.1881
  720MOL0     C99234   4.811   7.202   2.958  1.5793 -0.1035  0.7538
  720MOL0     C99235   4.818   7.355   2.938  0.1886  0.3053 -0.3811
  720MOL0     C99236   4.856   7.389   2.795 -0.1263  0.5945  0.1080
  720MOL0     C99237   4.808   7.518   2.744  0.1326 -0.3007  0.7390
  720MOL0     C99238   4.878   7.560   2.625  0.8538 -0.1665  0.2137
  720MOL0     N99239   4.853   7.476   2.509  0.6653 -0.1675  0.1195
  720MOL0     C99240   4.749   7.482   2.414 -0.9316 -0.6958  0.2002
  720MOL0     C99241   4.788   7.407   2.310 -1.0532  1.2605 -0.5415
  720MOL0     C99242   4.736   7.380   2.172  0.0202  0.7661  0.0859
  720MOL0     C99243   4.725   7.235   2.151 -0.6265  0.3262  0.7980
  720MOL0     C99244   4.611   7.162   2.210 -0.2984  0.7117  0.4901
  720MOL0     C99245   4.469   7.186   2.149 -0.0735  0.0407 -0.1074
  720MOL0     O99246   4.435   7.125   2.019  0.8297  0.0861 -0.1856
  720MOL0     C99247   4.476   6.997   1.998  0.2746 -0.6713 -0.0386
  720MOL0     C99248   4.534   6.960   1.875  0.4010  1.3774 -0.2184
  720MOL0     C99249   4.546   6.818   1.836 -0.1443 -0.2417  0.4503
  720MOL0     C99250   4.593   6.783   1.698  0.3907  0.3151  0.7752
  720MOL0     C99251   4.512   6.721   1.927 -0.5559  0.3916 -0.3526
  720MOL0     C99252   4.522   6.561   1.905 -0.9278  0.3928 -0.8948
  720MOL0     O99253   4.429   6.487   1.976  0.5018  0.5186 -0.4327
  720MOL0     C99254   4.411   6.357   1.947 -0.2225  0.4888  0.7322
  720MOL0     C99255   4.474   6.254   2.013  0.6680 -0.9347  0.5545
  720MOL0     C99256   4.460   6.130   1.956 -1.0610  1.0378 -0.0507
  720MOL0     C99257   4.404   6.108   1.831  0.0949  0.7476  0.2806
  720MOL0     O99258   4.403   5.977   1.782 -0.7264 -0.1463  0.0111
  720MOL0     C99259   4.285   5.931   1.707 -0.6174 -0.3546 -1.6480
  720MOL0     C99260   4.297   5.774   1.687 -0.2466 -0.3421 -0.1165
  720MOL0     C99261   4.192   5.730   1.585 -0.2974 -0.4488 -0.4730
  720MOL0     C99262   4.202   5.584   1.565  0.5731 -0.4343 -0.1888
  720MOL0     C99263   4.084   5.521   1.468 -0.4550 -0.3526 -0.5592
  720MOL0     C99264   4.105   5.367   1.438  0.0664 -0.4856 -0.3457
  720MOL0     C99265   3.971   5.305   1.384  0.6748  0.3493  0.1151
  720MOL0     C99266   3.987   5.151   1.353 -0.7509 -0.8823  0.3520
  720MOL0    Cl99267   3.821   5.085   1.344 -0.0944 -0.2850  0.4582
  720MOL0     C99268   4.336   6.213   1.766 -0.7113 -0.0387 -1.1052
  720MOL0     C99269   4.344   6.337   1.828  0.1033  0.4575 -0.3143
  720MOL0     O99270   4.601   6.513   1.831  0.3212 -0.4184  0.7605
  720MOL0     C99271   4.447   6.762   2.043  0.2044  0.0159 -0.3696
  720MOL0     C99272   4.442   6.897   2.082  0.7357 -0.5119  0.5130
  720MOL0     N99273   4.915   7.363   2.341  0.1044 -0.7049  0.1194
  720MOL0     N99274   4.952   7.397   2.461  0.1019 -0.0686  0.1592
  720MOL0     C99275   4.641   6.572   3.006  0.8674  0.1948  0.6908
  720MOL0     C99276   4.697   6.450   3.042 -0.3283 -0.2457 -0.6845
  720MOL0     C99277   5.092   6.201   3.126  1.0463  0.0210 -0.0151
  720MOL0     C99278   5.171   6.196   3.233 -0.5055  0.1586 -0.0883
  720MOL0     C99279   5.248   6.080   3.270 -0.8729  0.0420  0.4564
  720MOL0     C99280   5.228   5.965   3.196 -0.1300 -0.9609  0.8529
  720MOL0     O99281   5.299   5.840   3.200  0.3372 -0.3438  0.1693
  720MOL0     C99282   5.392   5.813   3.308  1.0162  0.0570  0.9815
  720MOL0     C99283   5.424   5.663   3.303  0.1333  0.0059 -0.3328
  720MOL0     C99284   5.534   5.632   3.404 -0.1204 -0.2189  0.1212
  720MOL0     C99285   5.570   5.484   3.399 -1.2413  0.3809 -0.4687
  720MOL0     C99286   5.707   5.472   3.454  0.1774  0.2142  0.3404
  720MOL0     C99287   5.820   5.454   3.484  0.0874 -0.5953  0.3380
  720MOL0     C99288   5.133   5.968   3.090  0.6861  0.0928 -0.1248
  720MOL0     C99289   5.066   6.085   3.044 -0.1402 -1.1684 -0.2953
  720MOL0     C99290   4.987   6.098   2.925 -0.3387 -0.1961 -0.3332
  720MOL0     H99291   4.933   6.567   3.255 -0.0155  0.1029  0.7813
  720MOL0     H99292   4.817   6.791   3.186 -1.0328  0.3460 -0.9617
  720MOL0     H99293   4.517   6.936   2.905 -0.0441  1.7544  0.9715
  720MOL0     H99294   4.618   6.804   2.839 -2.4535 -1.5988  1.0279
  720MOL0     H99295   4.797   6.959   2.970 -1.6876 -0.0044  1.7941
  720MOL0     H99296   4.764   6.962   2.800  2.5183  0.2245  0.5705
  720MOL0     H99297   4.649   7.164   2.807 -1.8231 -0.5506  1.9987
  720MOL0     H99298   4.604   7.153   2.973 -0.4375 -1.2386 -0.0125
  720MOL0     H99299   4.818   7.183   3.066 -0.5046 -0.4043  0.8733
  720MOL0     H99300   4.895   7.167   2.898 -1.6252 -2.2434 -2.9330
  720MOL0     H99301   4.889   7.395   3.012 -0.5372  0.3223  0.3201
  720MOL0     H99302   4.717   7.386   2.963 -0.6270 -2.1714 -0.3392
  720MOL0     H99303   4.965   7.384   2.789  0.0904  0.0027  2.8570
  720MOL0     H99304   4.801   7.320   2.730 -0.3231  2.0486 -1.3176
  720MOL0     H99305   4.824   7.595   2.820  0.9051 -1.1999  1.5099
  720MOL0     H99306   4.699   7.513   2.731  0.3830 -1.4093 -1.4016
  720MOL0     H99307   4.847   7.663   2.602  0.1320 -0.3710  0.2655
  720MOL0     H99308   4.987   7.564   2.637  0.9249  1.2652 -0.6154
  720MOL0     H99309   4.659   7.542   2.420  0.0622  0.7095  2.6640
  720MOL0     H99310   4.800   7.403   2.086 -0.7491 -2.2321 -1.4302
  720MOL0     H99311   4.641   7.429   2.152 -2.3984 -2.9835  1.2799
  720MOL0     H99312   4.726   7.216   2.043 -1.2395  1.1196  0.6403
  720MOL0     H99313   4.818   7.186   2.179  0.5301  2.6186  1.2144
  720MOL0     H99314   4.628   7.054   2.218 -0.0831  0.6222 -0.7980
  720MOL0     H99315   4.615   7.186   2.316  2.0325 -1.0205  0.8939
  720MOL0     H99316   4.408   7.147   2.231  1.3381 -0.8481  0.5472
  720MOL0     H99317   4.456   7.294   2.150  1.2134  0.2049  0.1011
  720MOL0     H99318   4.577   7.034   1.808  1.9019 -0.9885 -2.0341
  720MOL0     H99319   4.528   6.706   1.657 -4.0158  3.0774  1.9304
  720MOL0     H99320   4.693   6.737   1.699  0.5226  0.6154  1.5139
  720MOL0     H99321   4.573   6.872   1.637 -0.1996  0.5956  1.3756
  720MOL0     H99322   4.543   6.263   2.097  0.7491 -1.5493  0.5551
  720MOL0     H99323   4.514   6.046   1.999 -1.7777  0.8783  0.5633
  720MOL0     H99324   4.190   5.948   1.759 -1.1231 -3.2341 -1.4331
  720MOL0     H99325   4.277   5.978   1.609 -1.6693 -1.0558 -1.9132
  720MOL0     H99326   4.399   5.740   1.667  0.6920  1.9911  0.2771
  720MOL0     H99327   4.285   5.729   1.786  0.9489  1.4843  0.9291
  720MOL0     H99328   4.211   5.792   1.497  0.4248  1.6730  1.1021
  720MOL0     H99329   4.098   5.761   1.632 -0.0436  1.0150 -0.8820
  720MOL0     H99330   4.214   5.530   1.659  2.6764  0.8132  0.3275
  720MOL0     H99331   4.291   5.565   1.504 -0.5296  0.4246 -2.1578
  720MOL0     H99332   3.984   5.542   1.505 -0.3134  0.6787 -0.7200
  720MOL0     H99333   4.090   5.568   1.369 -1.0191 -3.2298 -2.0639
  720MOL0     H99334   4.132   5.324   1.534 -1.3424 -1.0695 -0.1858
  720MOL0     H99335   4.188   5.354   1.369 -0.6475 -5.0404 -0.6552
  720MOL0     H99336   3.943   5.367   1.299 -1.0853  1.2391  1.2765
  720MOL0     H99337   3.904   5.317   1.470  0.8618  0.0503  0.3038
  720MOL0     H99338   4.041   5.116   1.442 -2.7575 -2.8245  0.8822
  720MOL0     H99339   4.052   5.125   1.269  3.0796  1.5923  2.2707
  720MOL0     H99340   4.273   6.209   1.678 -2.2258 -1.5426  0.0001
  720MOL0     H99341   4.302   6.420   1.771 -3.2255 -0.2624  0.8563
  720MOL0     H99342   4.396   6.694   2.111  1.7626  0.4459  1.2899
  720MOL0     H99343   4.386   6.925   2.172  2.1869 -0.3601  1.4006
  720MOL0     H99344   4.549   6.579   2.948  0.2127 -2.5879  1.2314
  720MOL0     H99345   4.656   6.356   3.007 -0.4727 -0.6971  0.6223
  720MOL0     H99346   5.205   6.287   3.282  1.7114 -0.0975 -1.0715
  720MOL0     H99347   5.315   6.086   3.355 -1.7858 -0.3945  1.2208
  720MOL0     H99348   5.483   5.870   3.287  1.3788 -1.3225 -1.6211
  720MOL0     H99349   5.355   5.845   3.405  3.3959 -0.2820  2.0757
  720MOL0     H99350   5.456   5.624   3.206 -1.6233 -2.9962  0.1824
  720MOL0     H99351   5.335   5.607   3.332 -0.1108  0.7791  0.4252
  720MOL0     H99352   5.609   5.703   3.369 -0.4100  0.3170  0.5599
  720MOL0     H99353   5.510   5.657   3.508 -0.5177 -0.1306  0.0096
  720MOL0     H99354   5.560   5.453   3.294  0.7202  1.4936 -1.0304
  720MOL0     H99355   5.502   5.429   3.465 -2.2067 -0.4070 -2.0599
  720MOL0     H99356   5.923   5.442   3.513  1.0010  0.6737 -2.1410
  720MOL0     H99357   5.123   5.882   3.025  3.6007  1.2334 -2.2437
  720MOL0     H99358   4.881   6.105   2.950 -0.4113  3.1463 -1.0632
  720MOL0     H99359   5.009   6.192   2.874  0.2907 -0.3268 -0.3022
  720MOL0     H99360   5.000   6.022   2.848 -0.2006 -0.8576  0.3336
  721MOL0     O99361   6.914   1.173   7.765 -0.1994 -0.0206  0.3489
  721MOL0     C99362   6.981   1.115   7.846 -0.9506 -0.0023 -0.5599
  721MOL0     O99363   6.964   1.123   7.977  0.1465  0.3574  0.3887
  721MOL0     C99364   6.877   1.211   8.041  0.0714  0.7000  0.6430
  721MOL0     C99365   6.917   1.334   8.090 -0.6743 -0.6469  0.3164
  721MOL0     C99366   6.823   1.433   8.125 -0.1756  0.2347 -0.8945
  721MOL0     C99367   6.682   1.399   8.120 -0.2299 -0.5984  0.8116
  721MOL0     O99368   6.601   1.501   8.165 -0.3964 -0.2147 -0.2426
  721MOL0     C99369   6.457   1.497   8.128 -0.3333 -0.0679  0.1455
  721MOL0     C99370   6.376   1.421   8.227 -0.0731 -0.0218 -0.5479
  721MOL0     C99371   6.219   1.411   8.207 -0.7001  0.6149 -0.5585
  721MOL0     C99372   6.163   1.287   8.279 -0.1511  0.1186 -0.1640
  721MOL0     C99373   6.196   1.270   8.432  0.0981 -0.9269 -1.2879
  721MOL0     C99374   6.108   1.367   8.515 -0.3462 -0.1564 -0.5583
  721MOL0     C99375   6.129   1.381   8.660  0.7008  0.2459 -0.0704
  721MOL0     C99376   5.998   1.421   8.725  0.4016  0.1291  0.0552
  721MOL0     N99377   5.897   1.316   8.717  0.4956 -0.2217 -0.3850
  721MOL0     C99378   5.895   1.184   8.734  0.2774 -0.3310 -0.2615
  721MOL0     C99379   5.785   1.137   8.664 -0.2648 -0.9316 -0.0038
  721MOL0     C99380   5.765   0.994   8.633  0.1594  0.2285  0.2131
  721MOL0     C99381   5.747   0.984   8.480  0.0807  0.1566 -0.0461
  721MOL0     C99382   5.708   0.832   8.428 -1.2215 -0.0749 -0.1428
  721MOL0     C99383   5.726   0.820   8.272 -0.1736 -0.2186  0.6474
  721MOL0     O99384   5.868   0.831   8.265 -0.1045 -0.1350  0.6546
  721MOL0     C99385   5.920   0.844   8.139 -0.6644  0.4432 -0.2219
  721MOL0     C99386   6.059   0.853   8.141 -0.0873  0.6888 -0.1807
  721MOL0     C99387   6.142   0.863   8.028 -0.2269  0.3891  0.7637
  721MOL0     C99388   6.290   0.843   8.061 -0.0091  0.1675 -0.1935
  721MOL0     C99389   6.078   0.877   7.907 -0.2582  0.4330  0.6144
  721MOL0     C99390   6.152   0.881   7.773 -0.0607 -0.7770 -0.6887
  721MOL0     O99391   6.073   0.867   7.661  0.0383 -0.2748  0.6581
  721MOL0     C99392   6.158   0.834   7.545 -0.2249  0.5449 -0.7809
  721MOL0     C99393   6.224   0.712   7.525 -0.2742  0.1809  0.4815
  721MOL0     C99394   6.294   0.682   7.412  0.7785 -0.0350  1.2520
  721MOL0     C99395   6.300   0.785   7.315 -0.7573 -0.1299 -0.4541
  721MOL0     O99396   6.357   0.766   7.194  0.2043  0.1308  0.3706
  721MOL0     C99397   6.497   0.740   7.205 -0.2092 -0.9888 -0.5088
  721MOL0     C99398   6.530   0.633   7.113 -0.7849  0.5843  0.8823
  721MOL0     C99399   6.681   0.626   7.076 -0.8375 -0.4391 -0.5618
  721MOL0     C99400   6.724   0.708   6.950 -0.4264  0.1608  0.6098
  721MOL0     C99401   6.875   0.693   6.928  0.4189  1.2000 -0.3859
  721MOL0     C99402   6.898   0.593   6.822  0.2604  0.0482 -0.6849
  721MOL0     C99403   7.045   0.569   6.782  0.3691 -0.9624 -0.7720
  721MOL0     C99404   7.056   0.443   6.701 -0.0752  0.0653  0.4809
  721MOL0    Cl99405   6.968   0.477   6.541  0.1407 -0.2899 -0.5279
  721MOL0     C99406   6.240   0.905   7.327 -0.2637 -0.1329 -0.0372
  721MOL0     C99407   6.162   0.926   7.438  0.3018  0.2395 -0.0052
  721MOL0     O99408   6.270   0.889   7.772  0.0651 -0.4038  0.0109
  721MOL0     C99409   5.935   0.875   7.904 -0.7464 -0.3389  0.1213
  721MOL0     C99410   5.858   0.854   8.021  0.0645  0.1588  0.1769
  721MOL0     N99411   5.705   1.242   8.635  0.0754 -0.5936  0.0083
  721MOL0     N99412   5.780   1.346   8.656  0.2115  0.5921 -0.5886
  721MOL0     C99413   6.640   1.283   8.048 -0.2292 -0.3593 -0.6519
  721MOL0     C99414   6.742   1.187   8.012 -0.2026  0.4948 -0.8638
  721MOL0     C99415   7.101   1.032   7.805  0.8897  0.3600 -0.2601
  721MOL0     C99416   7.163   0.951   7.904  0.3876  0.2238  0.7057
  721MOL0     C99417   7.266   0.868   7.873 -0.4890 -0.4875  0.2284
  721MOL0     C99418   7.315   0.860   7.739 -0.3707  0.2822  0.2862
  721MOL0     O99419   7.422   0.772   7.703  0.5713 -0.3209 -0.5275
  721MOL0     C99420   7.482   0.691   7.810 -0.3948 -0.4106 -0.1522
  721MOL0     C99421   7.562   0.580   7.734 -0.7517 -0.8012 -0.5956
  721MOL0     C99422   7.585   0.459   7.819 -0.3443 -0.3598  0.1193
  721MOL0     C99423   7.670   0.478   7.937 -0.2278 -0.2677  0.9136
  721MOL0     C99424   7.671   0.366   8.029  0.1748 -0.4097 -0.3399
  721MOL0     C99425   7.672   0.279   8.116  0.2177 -0.1910  0.4168
  721MOL0     C99426   7.260   0.942   7.648  0.0393  0.5534  0.5167
  721MOL0     C99427   7.153   1.027   7.681  0.5385  0.9961 -0.5179
  721MOL0     C99428   7.086   1.083   7.556  0.0733 -0.7586 -0.7786
  721MOL0     H99429   7.024   1.346   8.099 -0.4511 -1.1026 -1.2898
  721MOL0     H99430   6.850   1.527   8.172 -1.3276  0.2435 -0.2232
  721MOL0     H99431   6.451   1.460   8.025 -0.7298 -0.4421  0.3024
  721MOL0     H99432   6.417   1.599   8.131 -3.9976 -1.2512 -1.8559
  721MOL0     H99433   6.420   1.321   8.232  1.1330  0.3378 -2.8146
  721MOL0     H99434   6.394   1.465   8.326 -2.3640  2.0274 -0.9362
  721MOL0     H99435   6.171   1.500   8.247 -1.2836  0.6765 -1.3647
  721MOL0     H99436   6.193   1.408   8.101  1.3521  0.6107 -1.1162
  721MOL0     H99437   6.055   1.275   8.268 -0.1651 -0.5871  0.6770
  721MOL0     H99438   6.203   1.204   8.219 -3.5805  1.2744 -4.6177
  721MOL0     H99439   6.302   1.288   8.455 -0.7712  1.3044  1.5660
  721MOL0     H99440   6.173   1.170   8.469 -0.3394  0.0568  1.2376
  721MOL0     H99441   6.124   1.473   8.490 -0.0140  0.8006  3.1223
  721MOL0     H99442   6.006   1.336   8.491 -0.4200  0.8219 -1.6530
  721MOL0     H99443   6.207   1.456   8.674 -0.7922  2.0684 -1.1060
  721MOL0     H99444   6.169   1.284   8.692  0.8261  0.9488  1.9876
  721MOL0     H99445   6.017   1.455   8.827 -0.4357  1.4692 -0.2080
  721MOL0     H99446   5.960   1.508   8.670  3.1516  0.8789 -0.7945
  721MOL0     H99447   5.973   1.123   8.777  1.1617  2.0132  1.6371
  721MOL0     H99448   5.676   0.953   8.682  1.1419 -2.9016 -0.3983
  721MOL0     H99449   5.852   0.938   8.669  0.4761  2.7750  3.9729
  721MOL0     H99450   5.666   1.048   8.444 -1.2638 -0.6966  1.3360
  721MOL0     H99451   5.839   1.019   8.433  0.6484 -0.8254  0.3110
  721MOL0     H99452   5.774   0.765   8.485  1.4105  3.7944  1.8449
  721MOL0     H99453   5.606   0.809   8.458 -0.5963  0.6506  2.8832
  721MOL0     H99454   5.678   0.730   8.233 -2.3602  1.4804 -0.8200
  721MOL0     H99455   5.678   0.904   8.220  2.2051  0.5301 -0.4777
  721MOL0     H99456   6.104   0.849   8.240  0.9956  1.6708 -0.6160
  721MOL0     H99457   6.303   0.813   8.165  1.8060 -0.7955 -0.6706
  721MOL0     H99458   6.350   0.930   8.033 -1.1160  1.1766  0.4410
  721MOL0     H99459   6.332   0.762   8.000  0.7924  2.5531 -3.0720
  721MOL0     H99460   6.206   0.639   7.604 -0.8506 -0.9497 -0.6655
  721MOL0     H99461   6.354   0.594   7.392  3.7468  1.6616  2.0817
  721MOL0     H99462   6.541   0.836   7.174 -0.1560 -0.5586  0.8074
  721MOL0     H99463   6.546   0.716   7.300 -1.9907  0.4371  0.8476
  721MOL0     H99464   6.483   0.535   7.127  2.8742 -1.4987 -0.1670
  721MOL0     H99465   6.480   0.657   7.019 -0.2640 -1.5017  0.0156
  721MOL0     H99466   6.698   0.518   7.071 -0.7266 -0.6422  2.4752
  721MOL0     H99467   6.730   0.660   7.168  1.1854  3.2251 -2.7618
  721MOL0     H99468   6.697   0.810   6.980 -2.1942  0.1321 -0.7257
  721MOL0     H99469   6.666   0.680   6.862  2.3518 -1.3158 -0.8717
  721MOL0     H99470   6.920   0.792   6.911  2.6391  0.4013  0.4505
  721MOL0     H99471   6.918   0.659   7.023 -0.5512  1.3459  0.1129
  721MOL0     H99472   6.845   0.625   6.732  2.3737  1.5659 -1.4923
  721MOL0     H99473   6.842   0.506   6.857 -0.2059 -0.5719 -2.7862
  721MOL0     H99474   7.100   0.568   6.877 -1.6015 -1.1635  0.4192
  721MOL0     H99475   7.081   0.645   6.713 -1.0288 -2.5133 -3.3737
  721MOL0     H99476   7.017   0.351   6.747 -0.3906  0.7463  1.6468
  721MOL0     H99477   7.162   0.432   6.679 -0.3001 -0.1632 -0.5139
  721MOL0     H99478   6.226   0.969   7.241  1.6499 -1.1525 -1.1752
  721MOL0     H99479   6.098   1.014   7.445  2.1276  1.5984  0.8027
  721MOL0     H99480   5.876   0.885   7.813 -1.5503  1.9065  0.8115
  721MOL0     H99481   5.749   0.849   8.024  0.0709 -0.2358 -0.1160
  721MOL0     H99482   6.534   1.264   8.036 -0.2385  0.6412 -2.4082
  721MOL0     H99483   6.708   1.100   7.957 -3.2519 -1.2694  3.2844
  721MOL0     H99484   7.123   0.954   8.005  1.2039 -0.9837  1.0775
  721MOL0     H99485   7.310   0.806   7.950  1.9907 -0.0819 -0.7595
  721MOL0     H99486   7.550   0.754   7.867 -0.3334 -1.4118  0.9253
  721MOL0     H99487   7.414   0.651   7.886  1.9244 -0.9832  1.7441
  721MOL0     H99488   7.652   0.630   7.696 -1.8718  0.0454 -2.2574
  721MOL0     H99489   7.499   0.555   7.648  0.5370 -2.1753 -1.1961
  721MOL0     H99490   7.493   0.419   7.864 -0.2264  0.2701  0.9312
  721MOL0     H99491   7.624   0.380   7.754  0.7432 -0.4551  0.8693
  721MOL0     H99492   7.629   0.568   7.984  0.5994  1.5985 -1.6786
  721MOL0     H99493   7.768   0.512   7.900 -0.7389 -1.1708 -1.4519
  721MOL0     H99494   7.664   0.213   8.200 -0.9336 -0.3157  0.2261
  721MOL0     H99495   7.299   0.934   7.547  1.9309 -1.5939  1.3340
  721MOL0     H99496   7.133   1.043   7.465  0.2324 -1.8964 -0.2111
  721MOL0     H99497   6.979   1.064   7.560  0.1362 -0.9310  0.5026
  721MOL0     H99498   7.101   1.191   7.554 -2.7721 -0.2814 -3.1540
  722MOL0     O99499   9.614   5.616   2.370  0.0935  0.4643 -0.3698
  722MOL0     C99500   9.526   5.542   2.408  0.7682  0.7121  0.9444
  722MOL0     O99501   9.448   5.564   2.517  0.5723 -0.6868 -0.1859
  722MOL0     C99502   9.481   5.657   2.612 -0.8962 -0.3151  0.2520
  722MOL0     C99503   9.537   5.774   2.587  0.6380  0.7071 -0.5309
  722MOL0     C99504   9.563   5.865   2.691  0.8752 -0.0813  0.7331
  722MOL0     C99505   9.539   5.843   2.830 -0.7275 -0.5691  0.3207
  722MOL0     O99506   9.571   5.923   2.930  0.1336  0.2246 -0.2836
  722MOL0     C99507   9.637   6.050   2.905 -0.3624  0.1156  0.0174
  722MOL0     C99508   9.694   6.100   3.038  1.0727  0.7860  0.9230
  722MOL0     C99509   9.751   6.236   3.011 -0.2727 -0.0499  0.7196
  722MOL0     C99510   9.825   6.309   3.127 -0.1005 -0.4238  0.5609
  722MOL0     C99511   9.723   6.372   3.230 -0.2877  0.1417 -0.2832
  722MOL0     C99512   9.797   6.424   3.353 -0.7947  0.6383  0.0116
  722MOL0     C99513   9.921   6.515   3.335 -0.0330  0.0524 -0.4449
  722MOL0     C99514   9.912   6.661   3.290 -0.5235 -0.3746  0.1594
  722MOL0     N99515  10.046   6.696   3.246  0.0259 -0.0176 -0.2652
  722MOL0     C99516  10.161   6.685   3.328 -0.8201  0.2063 -0.1879
  722MOL0     C99517  10.269   6.712   3.242  0.0444  1.2841  0.9969
  722MOL0     C99518  10.408   6.706   3.280 -0.4290  0.0263  0.2858
  722MOL0     C99519  10.489   6.610   3.180  0.2777 -0.6479  0.6988
  722MOL0     C99520  10.457   6.465   3.193  0.2386 -0.1092  0.2883
  722MOL0     C99521  10.519   6.410   3.320 -0.4174  0.3065  0.7385
  722MOL0     O99522  10.519   6.270   3.296  0.2315 -0.4080  0.5686
  722MOL0     C99523  10.412   6.195   3.339 -0.6508 -0.0025  0.5428
  722MOL0     C99524  10.427   6.061   3.327  0.3942  0.2325  0.6492
  722MOL0     C99525  10.326   5.963   3.358 -0.1838  0.2794 -1.1312
  722MOL0     C99526  10.363   5.823   3.366 -0.5678 -0.1322 -0.0683
  722MOL0     C99527  10.203   6.010   3.398  1.0035 -0.4357 -0.4897
  722MOL0     C99528  10.087   5.924   3.425  0.2340  0.0600  0.6034
  722MOL0     O99529   9.989   5.943   3.329 -0.3003  0.1774 -0.3203
  722MOL0     C99530   9.895   5.841   3.312  0.9324  0.6954 -0.0308
  722MOL0     C99531   9.930   5.708   3.288  0.6571  0.4274 -0.2816
  722MOL0     C99532   9.838   5.608   3.251 -0.8673  0.3507 -0.2528
  722MOL0     C99533   9.705   5.647   3.230 -0.5075 -0.2940  0.3218
  722MOL0     O99534   9.625   5.552   3.176  0.7325  0.3384  1.0087
  722MOL0     C99535   9.485   5.557   3.199 -0.4573  0.4471 -0.2888
  722MOL0     C99536   9.399   5.436   3.155 -0.5667 -0.0899 -0.3342
  722MOL0     C99537   9.440   5.308   3.226 -0.0712  0.1295 -0.3332
  722MOL0     C99538   9.367   5.172   3.192  0.4479 -0.4501 -0.3488
  722MOL0     C99539   9.222   5.184   3.242  0.7213  0.2299  0.0245
  722MOL0     C99540   9.132   5.097   3.156  0.4021 -0.0283  0.4738
  722MOL0     C99541   9.085   4.973   3.225 -0.3781 -0.2501  0.1864
  722MOL0     C99542   8.995   4.990   3.346  0.3642 -0.0954 -0.6564
  722MOL0    Cl99543   8.909   4.838   3.384 -0.7029  0.1636  0.2525
  722MOL0     C99544   9.668   5.780   3.238  0.0791  1.2870 -0.1558
  722MOL0     C99545   9.761   5.876   3.274  0.4021  0.6875 -0.7616
  722MOL0     O99546  10.079   5.845   3.512  0.0196 -0.5159 -0.5295
  722MOL0     C99547  10.190   6.147   3.424 -0.6230 -0.3522  0.0023
  722MOL0     C99548  10.294   6.238   3.403 -0.3269  0.8468  0.7435
  722MOL0     N99549  10.213   6.736   3.119 -0.2298 -0.2127  0.6619
  722MOL0     N99550  10.085   6.707   3.115 -0.2666 -0.6361 -0.0764
  722MOL0     C99551   9.488   5.708   2.853 -1.0784 -1.2045  0.7550
  722MOL0     C99552   9.465   5.621   2.748 -0.3438 -0.2006  0.4515
  722MOL0     C99553   9.499   5.421   2.326  0.8631 -0.1755 -0.1264
  722MOL0     C99554   9.443   5.305   2.386  0.2895 -0.8810 -0.7800
  722MOL0     C99555   9.424   5.186   2.316  0.2944  0.2230  1.0087
  722MOL0     C99556   9.446   5.179   2.175  1.0841 -0.4450 -0.8556
  722MOL0     O99557   9.417   5.061   2.107  0.4664 -0.4412  0.2245
  722MOL0     C99558   9.514   5.010   2.016  0.2164 -0.6423 -0.1198
  722MOL0     C99559   9.542   4.862   2.033 -0.3982 -1.0002 -0.2469
  722MOL0     C99560   9.418   4.773   2.004  0.9259 -0.2133 -0.4998
  722MOL0     C99561   9.445   4.619   1.997 -0.8341 -0.8001 -0.6590
  722MOL0     C99562   9.474   4.566   2.131 -0.3256 -0.5774 -0.3453
  722MOL0     C99563   9.480   4.529   2.242 -0.3569  0.2439 -0.3370
  722MOL0     C99564   9.494   5.296   2.124  0.5818  0.0630  0.0334
  722MOL0     C99565   9.524   5.415   2.193  0.8545  0.5509  0.8348
  722MOL0     C99566   9.572   5.531   2.103 -0.4251  0.3929 -0.1098
  722MOL0     H99567   9.583   5.809   2.495 -1.0169  0.6386 -1.4358
  722MOL0     H99568   9.603   5.963   2.666  0.7097 -0.1456  0.1832
  722MOL0     H99569   9.563   6.123   2.870  1.5146  1.1186 -2.0996
  722MOL0     H99570   9.718   6.054   2.832 -1.5058 -1.7804 -1.4451
  722MOL0     H99571   9.628   6.107   3.125 -4.5541  3.1457 -3.0021
  722MOL0     H99572   9.779   6.037   3.067  2.4052  2.4754  0.8088
  722MOL0     H99573   9.796   6.237   2.911 -1.8606 -1.0268 -0.0370
  722MOL0     H99574   9.676   6.311   2.985  0.3393  0.3510  0.0477
  722MOL0     H99575   9.890   6.239   3.181 -0.0790  0.8310  2.2316
  722MOL0     H99576   9.880   6.390   3.078 -0.9683 -0.9476 -1.3732
  722MOL0     H99577   9.637   6.312   3.261 -2.6212  4.4426  2.6569
  722MOL0     H99578   9.678   6.458   3.179  4.0368  1.7965 -1.8092
  722MOL0     H99579   9.715   6.467   3.410 -1.5141 -2.8175  1.8186
  722MOL0     H99580   9.842   6.347   3.416 -1.6590  1.4280  1.6464
  722MOL0     H99581   9.988   6.450   3.278 -1.4740 -0.3025 -1.7929
  722MOL0     H99582   9.978   6.520   3.428 -0.4240 -0.5216 -0.1627
  722MOL0     H99583   9.837   6.661   3.210 -1.8390 -0.3315  1.3599
  722MOL0     H99584   9.884   6.719   3.378  1.9792 -0.4693  1.1062
  722MOL0     H99585  10.159   6.653   3.432  1.1342  0.3619 -0.0548
  722MOL0     H99586  10.413   6.672   3.384  1.7023 -1.0080 -0.1118
  722MOL0     H99587  10.449   6.807   3.278  0.1035 -0.1924 -1.3626
  722MOL0     H99588  10.472   6.637   3.076  4.7916 -1.6868 -0.5417
  722MOL0     H99589  10.596   6.625   3.195  0.5418  0.6603 -1.8955
  722MOL0     H99590  10.350   6.445   3.183  0.3386 -1.1030  1.0849
  722MOL0     H99591  10.506   6.422   3.105  1.3799 -3.9344  2.5800
  722MOL0     H99592  10.623   6.443   3.317  0.3723 -1.8600 -3.6937
  722MOL0     H99593  10.472   6.437   3.415  3.2818  0.6960  2.6496
  722MOL0     H99594  10.524   6.026   3.293  0.5313 -0.0020  1.2669
  722MOL0     H99595  10.320   5.767   3.282 -0.6897 -3.5591  2.0676
  722MOL0     H99596  10.314   5.775   3.451 -0.1107 -3.0451 -1.3085
  722MOL0     H99597  10.469   5.799   3.382 -1.2017 -3.5436 -0.1042
  722MOL0     H99598  10.038   5.696   3.293  0.6332 -1.5790 -2.6116
  722MOL0     H99599   9.879   5.510   3.229 -0.9533  0.3710 -0.5018
  722MOL0     H99600   9.462   5.562   3.306 -3.1781  1.4807 -0.8204
  722MOL0     H99601   9.448   5.650   3.154  0.7013  2.2775  2.2915
  722MOL0     H99602   9.294   5.450   3.185 -0.3945  1.2548 -0.2961
  722MOL0     H99603   9.401   5.430   3.046 -2.9783  3.5115 -0.7562
  722MOL0     H99604   9.435   5.322   3.334  0.9002 -0.7230 -0.1637
  722MOL0     H99605   9.539   5.266   3.203 -0.5204 -1.7222  0.8903
  722MOL0     H99606   9.426   5.090   3.235  0.3471 -1.9903 -2.9641
  722MOL0     H99607   9.363   5.173   3.083  2.0110  1.2601 -0.4295
  722MOL0     H99608   9.224   5.157   3.348  4.0965  0.7318  0.1960
  722MOL0     H99609   9.184   5.287   3.248 -0.3512 -0.1050 -0.7384
  722MOL0     H99610   9.183   5.057   3.068 -1.1034 -0.6764 -0.1186
  722MOL0     H99611   9.045   5.155   3.125  0.8183  1.4378  1.9105
  722MOL0     H99612   9.173   4.916   3.258 -0.1037  1.5030  2.7707
  722MOL0     H99613   9.040   4.914   3.145  1.3967 -1.8900  0.3245
  722MOL0     H99614   8.918   5.063   3.320  0.9347  0.2993 -1.2573
  722MOL0     H99615   9.048   5.026   3.434 -0.3133  1.2625 -0.7799
  722MOL0     H99616   9.566   5.805   3.212  0.0958  1.6689  0.1255
  722MOL0     H99617   9.734   5.980   3.293  3.8375  1.6896 -0.7204
  722MOL0     H99618  10.092   6.182   3.455  0.1593 -0.5055  2.9343
  722MOL0     H99619  10.281   6.345   3.417  1.3203  1.1225  0.4736
  722MOL0     H99620   9.464   5.695   2.958 -1.9718  0.4617  0.7870
  722MOL0     H99621   9.432   5.519   2.765 -0.6578  0.2710  2.9832
  722MOL0     H99622   9.422   5.290   2.492 -1.3868 -0.2386 -0.9908
  722MOL0     H99623   9.412   5.090   2.366  2.7979 -1.0914 -0.6944
  722MOL0     H99624   9.486   5.021   1.911 -0.9177  1.8724  0.3483
  722MOL0     H99625   9.604   5.069   2.034 -0.4239  1.5916 -3.3845
  722MOL0     H99626   9.589   4.835   2.128 -0.6960  3.7225  1.4921
  722MOL0     H99627   9.618   4.827   1.962 -1.0704 -0.5799 -1.2007
  722MOL0     H99628   9.342   4.793   2.080  1.0832  1.3826 -0.7232
  722MOL0     H99629   9.389   4.808   1.904  3.1032 -0.4713 -1.2903
  722MOL0     H99630   9.522   4.584   1.929  0.9581 -1.2067  1.4691
  722MOL0     H99631   9.356   4.563   1.966  0.3774 -3.6742  0.7265
  722MOL0     H99632   9.475   4.489   2.341  0.5667 -2.1696 -1.1804
  722MOL0     H99633   9.523   5.288   2.019 -1.2752 -0.2926 -0.4845
  722MOL0     H99634   9.507   5.619   2.114  0.2785  1.0773 -1.1777
  722MOL0     H99635   9.676   5.554   2.126 -0.6090  3.3082 -1.6750
  722MOL0     H99636   9.573   5.502   1.997  1.2360  1.9604 -0.5667
  723MOL0     O99637   3.068   3.040  10.176  0.2872  0.1642 -0.2948
  723MOL0     C99638   2.980   3.113  10.222 -0.2759 -0.7004  0.1245
  723MOL0     O99639   2.916   3.214  10.156 -0.4849  0.0311  0.3198
  723MOL0     C99640   2.948   3.252  10.027 -0.2419 -0.1612 -0.1369
  723MOL0     C99641   2.971   3.391   9.998 -0.3346 -0.1363 -0.2442
  723MOL0     C99642   2.991   3.435   9.870  0.3531  0.5597  0.2895
  723MOL0     C99643   3.004   3.337   9.766  0.2653  0.1938  1.4510
  723MOL0     O99644   3.008   3.368   9.629 -0.6404  0.4550  0.0558
  723MOL0     C99645   2.882   3.422   9.589 -0.9222  0.4337 -0.0968
  723MOL0     C99646   2.845   3.374   9.455 -1.1875  0.0111  0.6827
  723MOL0     C99647   2.778   3.230   9.465 -0.1626 -0.4698 -0.2280
  723MOL0     C99648   2.629   3.253   9.469 -0.4106 -0.0842 -0.2301
  723MOL0     C99649   2.549   3.141   9.388 -0.2977  0.5233 -0.0873
  723MOL0     C99650   2.586   2.989   9.419  0.1523  0.6338 -0.2967
  723MOL0     C99651   2.477   2.891   9.377  0.0664  0.5573  0.4831
  723MOL0     C99652   2.528   2.745   9.377 -0.4053 -0.2108 -0.1801
  723MOL0     N99653   2.416   2.663   9.331 -0.8168 -0.6594  1.3841
  723MOL0     C99654   2.311   2.618   9.404  0.8638 -1.8997  0.0995
  723MOL0     C99655   2.251   2.515   9.334 -0.4536  0.0411 -0.5009
  723MOL0     C99656   2.128   2.434   9.371  0.7265  0.5087  0.1197
  723MOL0     C99657   2.159   2.350   9.504 -1.2307  0.4586 -0.7053
  723MOL0     C99658   2.043   2.247   9.517 -0.2665 -0.2312  0.3641
  723MOL0     C99659   2.066   2.153   9.634 -0.2447 -0.0333  0.1853
  723MOL0     O99660   2.048   2.253   9.736  0.7744  0.2015 -0.7558
  723MOL0     C99661   2.092   2.225   9.863 -0.5851 -0.1706 -0.5905
  723MOL0     C99662   2.152   2.103   9.918 -0.0291 -0.6547  0.9305
  723MOL0     C99663   2.195   2.101  10.052  0.0396  0.6129  0.4831
  723MOL0     C99664   2.261   1.972  10.104 -0.0779  0.5786 -1.2548
  723MOL0     C99665   2.194   2.220  10.131  0.3857 -0.4889 -0.9316
  723MOL0     C99666   2.236   2.229  10.272  0.6624  0.9087 -0.3949
  723MOL0     O99667   2.315   2.133  10.310  0.6752  0.8371  0.0402
  723MOL0     C99668   2.343   2.121  10.447 -0.2837 -0.7862  0.1700
  723MOL0     C99669   2.449   2.202  10.507  0.3206 -0.5402 -0.2929
  723MOL0     C99670   2.476   2.178  10.651  0.5900 -0.6530  0.7071
  723MOL0     C99671   2.419   2.076  10.718 -0.1305 -0.4556  0.0813
  723MOL0     O99672   2.443   2.048  10.858 -0.4503 -0.2823  0.4031
  723MOL0     C99673   2.553   2.118  10.921 -0.5848  0.1877 -0.6149
  723MOL0     C99674   2.564   2.065  11.064 -1.0226 -0.4362 -0.7094
  723MOL0     C99675   2.476   2.151  11.152 -0.2490 -0.1862 -0.4259
  723MOL0     C99676   2.483   2.127  11.298  0.9615 -0.0377 -0.4679
  723MOL0     C99677   2.361   2.173  11.370 -0.0269  0.6396 -0.1164
  723MOL0     C99678   2.386   2.147  11.520  1.0636 -0.0988  0.1392
  723MOL0     C99679   2.275   2.184  11.617 -0.5011 -1.2016  0.3275
  723MOL0     C99680   2.271   2.336  11.634 -0.8095 -0.0398 -0.5754
  723MOL0    Cl99681   2.099   2.373  11.683  0.1106  0.6145 -0.1220
  723MOL0     C99682   2.316   2.003  10.654  0.3545  0.8242 -0.3231
  723MOL0     C99683   2.282   2.021  10.522 -0.1192  1.1581  0.1592
  723MOL0     O99684   2.212   2.325  10.343 -0.1704  0.3318  0.3938
  723MOL0     C99685   2.141   2.337  10.071  0.4722  0.7913  0.5185
  723MOL0     C99686   2.090   2.342   9.945  0.3952  0.8504  0.2435
  723MOL0     N99687   2.340   2.492   9.234 -1.2874  0.0971 -0.2142
  723MOL0     N99688   2.430   2.579   9.222  0.0090  1.3565 -0.0178
  723MOL0     C99689   2.982   3.201   9.790  0.4415  0.3108  1.0443
  723MOL0     C99690   2.943   3.159   9.923  0.3903  0.7585  0.1732
  723MOL0     C99691   2.946   3.110  10.370 -0.1250  0.9952  0.2075
  723MOL0     C99692   2.914   3.227  10.434  0.2713 -0.4943  0.2342
  723MOL0     C99693   2.885   3.224  10.574  1.1796  0.3745 -0.3217
  723MOL0     C99694   2.887   3.104  10.651 -0.5284 -0.2963 -0.0475
  723MOL0     O99695   2.859   3.118  10.785  0.5009 -0.4949  0.3069
  723MOL0     C99696   2.828   2.998  10.859  0.5436  0.4187  0.2750
  723MOL0     C99697   2.778   3.028  10.992  0.2033  0.3693  0.8938
  723MOL0     C99698   2.663   3.113  11.010 -0.0835 -0.4223  0.3820
  723MOL0     C99699   2.619   3.100  11.155 -0.3961 -1.0031  0.3341
  723MOL0     C99700   2.484   3.163  11.172  1.1499  0.0398  0.1564
  723MOL0     C99701   2.377   3.213  11.187  0.5599 -0.3418  0.2112
  723MOL0     C99702   2.920   2.990  10.583  0.2605  0.4571  0.1677
  723MOL0     C99703   2.946   2.990  10.444  0.7886  0.0041  1.0566
  723MOL0     C99704   2.977   2.858  10.375 -0.2780 -0.1033 -0.2495
  723MOL0     H99705   2.969   3.466  10.076 -0.4180  0.2486 -0.6150
  723MOL0     H99706   3.013   3.541   9.860  0.0638  0.5541 -0.4865
  723MOL0     H99707   2.907   3.528   9.590  2.1876 -0.1592 -1.7902
  723MOL0     H99708   2.804   3.407   9.664  0.9551 -0.6217  1.7477
  723MOL0     H99709   2.781   3.446   9.403 -0.9856  1.1351  1.9512
  723MOL0     H99710   2.933   3.372   9.390 -2.5151  2.2715 -1.3857
  723MOL0     H99711   2.797   3.179   9.370  0.7460 -0.4833 -0.0514
  723MOL0     H99712   2.804   3.170   9.553 -0.4301  1.7043  1.3913
  723MOL0     H99713   2.607   3.276   9.574  3.3196  3.7380  0.0052
  723MOL0     H99714   2.607   3.346   9.416  0.6348  0.2177 -0.1502
  723MOL0     H99715   2.570   3.151   9.281 -1.3711  1.2021 -0.2571
  723MOL0     H99716   2.440   3.148   9.397 -0.2834  2.3272 -0.9076
  723MOL0     H99717   2.682   2.961   9.375 -0.2101 -1.3920  0.1038
  723MOL0     H99718   2.599   2.978   9.527 -0.1909  2.8702  0.0120
  723MOL0     H99719   2.458   2.901   9.270 -2.3313 -3.2529  0.3682
  723MOL0     H99720   2.388   2.899   9.440 -0.5801  1.1019 -0.4749
  723MOL0     H99721   2.614   2.735   9.310  1.5190  1.6120  1.8689
  723MOL0     H99722   2.577   2.721   9.472 -1.5667 -2.3546 -0.0654
  723MOL0     H99723   2.289   2.656   9.504  0.0830 -0.1615 -0.6916
  723MOL0     H99724   2.111   2.360   9.293  0.7031  0.4919  0.1401
  723MOL0     H99725   2.036   2.490   9.384  1.2454  1.5162 -0.4251
  723MOL0     H99726   2.260   2.309   9.508 -0.8132  1.3770 -1.3657
  723MOL0     H99727   2.162   2.417   9.590 -0.3942 -3.2194  2.4167
  723MOL0     H99728   1.953   2.307   9.528  1.4841  2.2946  2.3019
  723MOL0     H99729   2.033   2.184   9.429  1.7159 -0.1576  0.0413
  723MOL0     H99730   1.988   2.077   9.630  0.8046 -1.1590  0.4653
  723MOL0     H99731   2.165   2.110   9.650  0.1391  0.4218 -0.8854
  723MOL0     H99732   2.150   2.011   9.861  1.0774  0.4959 -1.1073
  723MOL0     H99733   2.240   1.883  10.045 -0.8566 -0.6401  0.7445
  723MOL0     H99734   2.211   1.950  10.199  1.7286  2.9258  0.3509
  723MOL0     H99735   2.369   1.982  10.120  0.4334 -1.7769 -2.7889
  723MOL0     H99736   2.505   2.281  10.457  1.9171 -2.7336 -2.2303
  723MOL0     H99737   2.547   2.246  10.696  0.0334  0.0380  0.5539
  723MOL0     H99738   2.643   2.091  10.865 -1.7939 -2.5606 -1.3715
  723MOL0     H99739   2.542   2.227  10.921 -2.8848  0.0349  1.2046
  723MOL0     H99740   2.545   1.958  11.075  2.0924 -1.0272  0.0980
  723MOL0     H99741   2.670   2.066  11.091 -1.1394 -3.8740  0.2983
  723MOL0     H99742   2.375   2.123  11.119  0.6857 -1.4153 -2.4359
  723MOL0     H99743   2.493   2.258  11.137 -1.6374  0.3003  1.0982
  723MOL0     H99744   2.576   2.175  11.331  0.8235 -0.8319  1.1920
  723MOL0     H99745   2.487   2.021  11.326 -1.7198  0.9451  5.1441
  723MOL0     H99746   2.340   2.278  11.349 -1.8999  0.0238 -1.7210
  723MOL0     H99747   2.269   2.122  11.340  1.2867 -1.1063 -1.4543
  723MOL0     H99748   2.476   2.201  11.549  0.4284  0.3281  1.3982
  723MOL0     H99749   2.384   2.040  11.541 -3.3637 -0.0174  1.2437
  723MOL0     H99750   2.294   2.134  11.712 -2.1087 -1.8789  0.3350
  723MOL0     H99751   2.180   2.144  11.580  0.0567 -0.9169 -1.5511
  723MOL0     H99752   2.301   2.386  11.541  1.3574 -0.1286  0.0227
  723MOL0     H99753   2.334   2.363  11.719 -2.4888  3.4171 -0.2348
  723MOL0     H99754   2.287   1.915  10.711  1.3439 -0.1318 -1.2459
  723MOL0     H99755   2.207   1.955  10.480 -0.5148  2.4798 -1.3206
  723MOL0     H99756   2.132   2.427  10.132 -1.0301  0.4289  0.8798
  723MOL0     H99757   2.048   2.430   9.897  3.2529  1.6043 -1.1229
  723MOL0     H99758   2.986   3.136   9.704  0.1351 -0.3819  1.5393
  723MOL0     H99759   2.921   3.055   9.947  0.6780  0.7576  0.4356
  723MOL0     H99760   2.911   3.322  10.383  2.2038 -0.6608 -0.2533
  723MOL0     H99761   2.856   3.322  10.610  0.0094  0.5906 -1.7788
  723MOL0     H99762   2.748   2.951  10.802 -0.5336  1.5812  0.8025
  723MOL0     H99763   2.912   2.930  10.877 -0.6448 -1.8974 -2.2144
  723MOL0     H99764   2.862   3.077  11.042  0.1487 -0.2170  1.5693
  723MOL0     H99765   2.768   2.932  11.043 -1.2081 -0.4337 -0.8221
  723MOL0     H99766   2.685   3.218  10.993 -2.1075 -0.1800 -1.1931
  723MOL0     H99767   2.584   3.101  10.935  1.2368  1.0479 -1.3325
  723MOL0     H99768   2.692   3.157  11.215 -0.6595  1.7437 -1.7542
  723MOL0     H99769   2.623   2.994  11.181  2.8336 -1.6969 -2.2268
  723MOL0     H99770   2.271   3.227  11.192  0.8733  2.1426  1.3554
  723MOL0     H99771   2.924   2.900  10.643 -1.0430  1.3349  1.6874
  723MOL0     H99772   3.077   2.858  10.330 -0.0073  2.5641  0.1923
  723MOL0     H99773   2.976   2.779  10.450  0.6752  0.8492  0.8045
  723MOL0     H99774   2.914   2.828  10.290  2.3102 -2.4691 -1.5011
  724MOL0     O99775   0.799  10.405   8.078 -0.0958  0.8303  0.4520
  724MOL0     C99776   0.842  10.360   8.182  0.5942 -0.4514 -1.3033
  724MOL0     O99777   0.837  10.233   8.221  0.2303  0.3498  0.1330
  724MOL0     C99778   0.817  10.146   8.122 -0.5298  0.1902  0.5763
  724MOL0     C99779   0.922  10.127   8.030 -0.8613 -0.5464  0.5616
  724MOL0     C99780   0.907  10.029   7.933 -0.1641 -0.5226 -0.4325
  724MOL0     C99781   0.795   9.946   7.936 -0.8042  0.4553 -0.6203
  724MOL0     O99782   0.780   9.858   7.837 -0.6134  0.6215  0.0200
  724MOL0     C99783   0.885   9.748   7.834  0.1677 -0.2797 -0.3945
  724MOL0     C99784   0.861   9.657   7.715 -0.0868 -0.1952  0.3334
  724MOL0     C99785   0.883   9.728   7.575  0.2052 -0.7304  0.0191
  724MOL0     C99786   1.018   9.802   7.562 -0.5233  1.0340  0.9392
  724MOL0     C99787   1.036   9.850   7.412 -0.4566  0.9820  0.6855
  724MOL0     C99788   1.168   9.914   7.390 -0.3750 -0.2176  0.7594
  724MOL0     C99789   1.209   9.941   7.244 -0.4027 -0.7463  0.3152
  724MOL0     C99790   1.334  10.035   7.227  0.1027  0.1670 -0.1455
  724MOL0     N99791   1.383  10.048   7.081  0.7695  0.2414 -0.4345
  724MOL0     C99792   1.425   9.946   7.011 -0.3595  0.1104  0.3907
  724MOL0     C99793   1.453  10.005   6.894  1.0409 -0.2455  0.0522
  724MOL0     C99794   1.496   9.939   6.766  0.2903  0.4115 -0.6968
  724MOL0     C99795   1.465  10.012   6.637 -0.3942  0.2810 -0.5832
  724MOL0     C99796   1.464   9.921   6.527  0.0356  0.4141 -0.3693
  724MOL0     C99797   1.413   9.986   6.406 -0.1158 -0.9107 -0.2851
  724MOL0     O99798   1.451   9.912   6.295 -0.3484 -0.5741  0.5407
  724MOL0     C99799   1.561   9.953   6.223 -0.0356  0.1507 -0.2668
  724MOL0     C99800   1.644  10.068   6.242  0.3350  0.8500  0.3672
  724MOL0     C99801   1.755  10.087   6.170 -0.0196  0.0641  0.9342
  724MOL0     C99802   1.841  10.210   6.200 -0.5579 -0.5717 -0.7379
  724MOL0     C99803   1.789  10.008   6.058  0.6633 -0.5032  0.6489
  724MOL0     C99804   1.902  10.042   5.966  0.7024  1.4106  1.6196
  724MOL0     O99805   1.868  10.030   5.833  0.3274  0.5290  0.2150
  724MOL0     C99806   1.955  10.079   5.730 -0.9828  0.6394  0.2823
  724MOL0     C99807   1.907  10.145   5.625  0.2636  0.2574  0.3624
  724MOL0     C99808   1.987  10.184   5.513  0.4102 -0.2286  0.4457
  724MOL0     C99809   2.117  10.149   5.510  0.2474  0.4978  0.3584
  724MOL0     O99810   2.205  10.192   5.409  0.5297 -0.1219  0.3131
  724MOL0     C99811   2.149  10.234   5.280  0.9458 -0.0250 -0.6333
  724MOL0     C99812   2.276  10.246   5.201  0.4347  1.1748  0.2364
  724MOL0     C99813   2.337  10.106   5.164  0.1661 -0.4412 -0.6509
  724MOL0     C99814   2.315  10.058   5.024  1.1314  0.1406 -0.5590
  724MOL0     C99815   2.173  10.055   4.959  0.8372  0.2660 -0.7007
  724MOL0     C99816   2.087   9.939   5.019 -0.6372  1.3237 -0.5718
  724MOL0     C99817   1.942   9.948   4.981  0.5008  0.7153 -0.3024
  724MOL0     C99818   1.857  10.009   5.093  0.1123  0.1037 -0.2165
  724MOL0    Cl99819   1.712  10.106   5.014 -0.3419 -0.0384 -0.0266
  724MOL0     C99820   2.170  10.089   5.624 -0.7119  0.4904  0.6577
  724MOL0     C99821   2.094  10.056   5.731 -0.0039  0.6137  0.6878
  724MOL0     O99822   2.011  10.066   6.010 -0.1484 -0.4078 -0.0353
  724MOL0     C99823   1.699   9.900   6.036  0.0894 -0.7846  0.4695
  724MOL0     C99824   1.604   9.864   6.122  0.8069  0.1250 -0.3824
  724MOL0     N99825   1.424  10.137   6.899  0.0892  0.0059 -0.0873
  724MOL0     N99826   1.388  10.163   7.013  0.7299 -0.6443 -0.3490
  724MOL0     C99827   0.706   9.945   8.044  0.2928  0.3135  0.0463
  724MOL0     C99828   0.710  10.051   8.131 -0.2620 -0.7402  0.5203
  724MOL0     C99829   0.879  10.461   8.282 -0.6828  0.0020  0.1539
  724MOL0     C99830   0.833  10.595   8.260 -0.0265  0.0288  0.4642
  724MOL0     C99831   0.870  10.692   8.353  0.3514  0.7067 -0.1804
  724MOL0     C99832   0.936  10.664   8.470 -0.1336  0.1027 -0.3577
  724MOL0     O99833   0.967  10.746   8.575 -0.5546  0.0834  0.0382
  724MOL0     C99834   0.938  10.882   8.551  1.1200 -0.4296 -0.0009
  724MOL0     C99835   0.971  10.965   8.668 -0.3444 -0.1235 -0.2796
  724MOL0     C99836   1.119  10.969   8.709  0.2247 -0.8009 -0.1447
  724MOL0     C99837   1.190  11.071   8.612  0.0877 -0.5348  0.5714
  724MOL0     C99838   1.330  11.029   8.609 -0.2830  0.3009  0.1715
  724MOL0     C99839   1.445  11.003   8.622 -0.8633  0.9930 -0.6244
  724MOL0     C99840   0.990  10.536   8.483  1.6285 -0.2799 -0.2028
  724MOL0     C99841   0.955  10.437   8.394  0.2244 -0.3077 -0.5137
  724MOL0     C99842   1.016  10.302   8.428 -0.4643 -0.5594 -0.0075
  724MOL0     H99843   0.994  10.207   8.021  0.4869 -1.8386 -0.8480
  724MOL0     H99844   0.984  10.011   7.858  2.9133  0.7758  2.1992
  724MOL0     H99845   0.881   9.688   7.926 -2.6814  1.4838  0.7597
  724MOL0     H99846   0.989   9.782   7.832  2.1903 -5.3487  1.5880
  724MOL0     H99847   0.927   9.570   7.720 -0.8717 -0.7593  1.1853
  724MOL0     H99848   0.760   9.614   7.717 -0.0018 -0.6968 -2.3149
  724MOL0     H99849   0.874   9.649   7.500 -0.4011  0.0683 -0.7707
  724MOL0     H99850   0.792   9.788   7.561 -0.8232 -2.5725 -1.5015
  724MOL0     H99851   1.003   9.891   7.624 -1.9402  2.7418 -1.6693
  724MOL0     H99852   1.100   9.747   7.609  0.0667  0.3119 -0.8315
  724MOL0     H99853   0.958   9.923   7.388 -1.8641 -0.0102  2.0645
  724MOL0     H99854   1.027   9.768   7.340  2.1542  2.0018 -0.9531
  724MOL0     H99855   1.183  10.009   7.444  3.0141  0.1447 -0.5375
  724MOL0     H99856   1.238   9.839   7.428 -0.9880 -1.5000 -0.5811
  724MOL0     H99857   1.134  10.005   7.196 -0.6898 -0.8103  0.6716
  724MOL0     H99858   1.226   9.847   7.191  0.2106 -0.6640  0.3608
  724MOL0     H99859   1.313  10.132   7.274  1.5947 -1.1715  3.5977
  724MOL0     H99860   1.416   9.995   7.287 -2.8651  0.9992  5.0548
  724MOL0     H99861   1.443   9.841   7.030 -1.7600 -0.2857 -0.3604
  724MOL0     H99862   1.448   9.841   6.762  1.0338  0.0539 -0.9174
  724MOL0     H99863   1.602   9.919   6.781  0.0347  0.4655  1.4964
  724MOL0     H99864   1.363  10.050   6.640 -0.6721 -0.2644 -2.1437
  724MOL0     H99865   1.539  10.090   6.618  0.2470 -0.5658 -1.7278
  724MOL0     H99866   1.565   9.879   6.535  1.1773  3.3536  2.7318
  724MOL0     H99867   1.405   9.830   6.541 -0.7520  0.4917 -2.7297
  724MOL0     H99868   1.304   9.982   6.411 -0.1922  0.5297  4.3242
  724MOL0     H99869   1.450  10.089   6.408 -1.1844 -0.5281  0.1097
  724MOL0     H99870   1.628  10.145   6.316 -1.6209  1.4712 -0.6204
  724MOL0     H99871   1.869  10.255   6.104 -0.3860 -0.9433 -0.8639
  724MOL0     H99872   1.931  10.176   6.253 -1.0142  0.6285  0.8752
  724MOL0     H99873   1.784  10.276   6.265  0.2625 -0.7178  0.1472
  724MOL0     H99874   1.799  10.151   5.616  0.1665 -2.0163 -0.7140
  724MOL0     H99875   1.935  10.249   5.443  0.4233 -2.6145 -1.9615
  724MOL0     H99876   2.083  10.166   5.226  2.0767 -3.7137  2.1863
  724MOL0     H99877   2.105  10.333   5.292  1.6459  0.0619  1.6748
  724MOL0     H99878   2.259  10.311   5.114  0.7224  2.8234  1.3735
  724MOL0     H99879   2.351  10.301   5.258 -0.5238  0.9844  1.7494
  724MOL0     H99880   2.301  10.044   5.247  0.6645  1.1928  0.8613
  724MOL0     H99881   2.446  10.116   5.173 -0.1591  4.4044  0.6881
  724MOL0     H99882   2.367   9.966   4.996 -0.3263 -0.8433 -0.1000
  724MOL0     H99883   2.378  10.119   4.958 -1.2234 -0.7859 -3.8722
  724MOL0     H99884   2.125  10.147   4.994 -0.2010 -1.6267  3.5817
  724MOL0     H99885   2.173  10.050   4.850 -2.1816  0.7895 -0.8021
  724MOL0     H99886   2.098   9.946   5.128  0.3113  0.4394 -0.5937
  724MOL0     H99887   2.129   9.844   4.983  1.4015  2.4268 -1.2657
  724MOL0     H99888   1.892   9.852   4.964 -2.2693  1.7782  1.1947
  724MOL0     H99889   1.924  10.007   4.891 -0.7264  0.7763 -0.0403
  724MOL0     H99890   1.900  10.070   5.172 -1.4604 -0.1377  0.8878
  724MOL0     H99891   1.798   9.929   5.140  0.0008 -0.6327 -1.5540
  724MOL0     H99892   2.275  10.061   5.619  0.3100  3.8406 -4.3526
  724MOL0     H99893   2.139  10.002   5.815 -1.3162 -0.7007  0.5800
  724MOL0     H99894   1.710   9.859   5.936  1.5946  1.2682 -0.2964
  724MOL0     H99895   1.539   9.777   6.112 -0.5295  0.1355  4.9211
  724MOL0     H99896   0.623   9.875   8.037  0.5123  0.2032 -2.0387
  724MOL0     H99897   0.636  10.064   8.209 -1.6000  1.5378 -1.0043
  724MOL0     H99898   0.763  10.625   8.183 -2.6595 -2.0349  1.8695
  724MOL0     H99899   0.831  10.792   8.339 -1.5730  0.2547  1.3813
  724MOL0     H99900   1.005  10.910   8.469  0.7908 -0.2467 -0.2098
  724MOL0     H99901   0.833  10.905   8.530  1.5858  2.2570  0.2246
  724MOL0     H99902   0.925  10.917   8.754 -3.1680 -1.5437 -2.4279
  724MOL0     H99903   0.944  11.070   8.652  3.9970  1.3541  0.6251
  724MOL0     H99904   1.131  11.008   8.810 -0.0443 -0.5324 -0.2155
  724MOL0     H99905   1.178  10.877   8.723 -0.5893 -1.2917  0.1165
  724MOL0     H99906   1.183  11.171   8.656 -0.3247 -0.4459  0.3148
  724MOL0     H99907   1.147  11.083   8.512 -1.8174  0.9670  1.5025
  724MOL0     H99908   1.547  10.972   8.618 -1.2188 -0.1330 -2.8996
  724MOL0     H99909   1.053  10.517   8.569  2.6212 -1.4020 -1.1436
  724MOL0     H99910   0.940  10.226   8.448 -2.3446  1.4492  0.8660
  724MOL0     H99911   1.068  10.280   8.335 -0.8348  3.8737 -1.5085
  724MOL0     H99912   1.080  10.304   8.518  0.5850 -0.2703 -0.7375
  725MOL0     O99913   6.450   0.032   4.342  0.1600  0.9839 -0.1678
  725MOL0     C99914   6.516   0.127   4.296  0.1224  0.3342  0.1407
  725MOL0     O99915   6.636   0.114   4.242 -1.0673 -0.6343  0.0672
  725MOL0     C99916   6.670  -0.003   4.190 -0.2566  0.2799 -0.0643
  725MOL0     C99917   6.645  -0.019   4.054  0.1208 -0.3416 -0.0137
  725MOL0     C99918   6.665  -0.152   4.000  0.6576  0.0267  0.0095
  725MOL0     C99919   6.709  -0.253   4.085 -0.8033  0.4618 -0.1199
  725MOL0     O99920   6.731  -0.383   4.033 -0.2567  0.3236  0.5333
  725MOL0     C99921   6.852  -0.449   4.079 -0.4329 -1.9036  1.3801
  725MOL0     C99922   6.907  -0.550   3.976  0.0338 -0.2039  0.9045
  725MOL0     C99923   7.007  -0.641   4.044  1.1233  0.1047 -0.2335
  725MOL0     C99924   7.158  -0.611   4.009  0.3272 -0.2307  0.1327
  725MOL0     C99925   7.255  -0.676   4.109 -0.4003  0.0793 -0.0010
  725MOL0     C99926   7.404  -0.661   4.065 -0.8257 -0.3636  0.9153
  725MOL0     C99927   7.499  -0.716   4.170  0.1944 -0.2414  0.2684
  725MOL0     C99928   7.505  -0.876   4.175  0.1608 -0.3062 -0.3799
  725MOL0     N99929   7.593  -0.935   4.280  0.7059  0.0787  0.0583
  725MOL0     C99930   7.575  -0.915   4.419 -0.4245  0.3141  0.0201
  725MOL0     C99931   7.673  -1.002   4.469 -0.4337 -0.1647 -0.1360
  725MOL0     C99932   7.706  -1.000   4.616 -0.1549 -0.2586 -0.0656
  725MOL0     C99933   7.576  -0.997   4.706 -0.7130 -0.7661 -0.3239
  725MOL0     C99934   7.626  -0.988   4.851  1.1697  0.3696  0.8302
  725MOL0     C99935   7.507  -0.991   4.943 -0.3001  0.9511  0.2230
  725MOL0     O99936   7.430  -0.872   4.948 -0.8085 -0.2124  0.6867
  725MOL0     C99937   7.396  -0.818   5.074  0.6545 -0.2100 -1.8300
  725MOL0     C99938   7.414  -0.678   5.089 -0.2995  1.1501 -0.7144
  725MOL0     C99939   7.391  -0.617   5.215  0.5199 -0.6163  0.3312
  725MOL0     C99940   7.421  -0.472   5.220  1.1983 -0.2851  1.0059
  725MOL0     C99941   7.340  -0.695   5.323  0.9928  0.5169  0.9744
  725MOL0     C99942   7.334  -0.645   5.460 -1.1073 -0.3396 -0.5615
  725MOL0     O99943   7.250  -0.701   5.550 -0.3371  0.2500  0.1128
  725MOL0     C99944   7.213  -0.637   5.669 -0.2810 -0.0060 -0.1988
  725MOL0     C99945   7.139  -0.720   5.761 -0.3213  0.5217  1.1187
  725MOL0     C99946   7.096  -0.680   5.885 -0.1219  0.6737 -1.5244
  725MOL0     C99947   7.132  -0.551   5.929  0.4646  0.4951 -0.9455
  725MOL0     O99948   7.092  -0.529   6.056 -0.2203 -0.4298  0.0571
  725MOL0     C99949   7.052  -0.390   6.074  0.2423 -0.2750 -0.0121
  725MOL0     C99950   6.918  -0.384   6.155  0.0093 -0.2738 -0.2225
  725MOL0     C99951   6.793  -0.443   6.101 -0.1528  0.1744  0.0641
  725MOL0     C99952   6.678  -0.409   6.189  1.0616 -0.8324 -1.6328
  725MOL0     C99953   6.530  -0.463   6.154 -0.3094 -0.3998  1.3472
  725MOL0     C99954   6.495  -0.415   6.015  0.2481  0.0063  0.4971
  725MOL0     C99955   6.345  -0.393   5.999  0.5977 -0.1871 -1.2228
  725MOL0     C99956   6.305  -0.246   6.018  0.3846 -0.4308  0.6306
  725MOL0    Cl99957   6.325  -0.182   6.172 -0.6908 -0.1782 -0.2237
  725MOL0     C99958   7.203  -0.469   5.850 -0.4193  0.9663 -0.4354
  725MOL0     C99959   7.238  -0.507   5.719  0.2451 -0.2555  0.0479
  725MOL0     O99960   7.425  -0.571   5.490 -0.1727  0.3278 -0.5985
  725MOL0     C99961   7.285  -0.816   5.286  0.0870  0.5658 -1.2633
  725MOL0     C99962   7.327  -0.895   5.179 -0.3882 -0.0182  0.2947
  725MOL0     N99963   7.753  -1.059   4.373 -0.2896  0.7130  0.6962
  725MOL0     N99964   7.711  -1.004   4.259 -0.3933 -0.5791 -0.3469
  725MOL0     C99965   6.732  -0.228   4.215 -0.2184  0.2832 -1.1821
  725MOL0     C99966   6.717  -0.103   4.264  0.0411 -0.6809  0.7303
  725MOL0     C99967   6.465   0.266   4.307  0.1694 -0.0299  0.5767
  725MOL0     C99968   6.533   0.353   4.393 -0.3507  0.0208 -0.4225
  725MOL0     C99969   6.475   0.472   4.431 -0.7264  0.5305  0.3502
  725MOL0     C99970   6.354   0.517   4.375 -0.5801 -0.0875  0.0784
  725MOL0     O99971   6.293   0.637   4.406  0.3169  0.4811  0.9942
  725MOL0     C99972   6.334   0.710   4.518  0.2917  0.6373  0.7999
  725MOL0     C99973   6.298   0.862   4.515  0.0275 -0.2591 -0.3975
  725MOL0     C99974   6.151   0.884   4.529  0.1879  0.4002  0.7210
  725MOL0     C99975   6.105   1.028   4.539 -0.4397  1.1266 -0.2821
  725MOL0     C99976   6.177   1.117   4.453 -1.1089 -0.7417 -0.9599
  725MOL0     C99977   6.233   1.213   4.394 -0.4116  0.0449  0.0671
  725MOL0     C99978   6.292   0.433   4.288 -0.0938  0.0541  0.2397
  725MOL0     C99979   6.345   0.308   4.244 -0.4016  0.1437 -0.7670
  725MOL0     C99980   6.276   0.212   4.151  0.2648  0.6612 -0.2311
  725MOL0     H99981   6.625   0.075   4.004 -1.9529  1.5438  3.9176
  725MOL0     H99982   6.634  -0.174   3.898 -2.5380  0.8495  0.6777
  725MOL0     H99983   6.829  -0.507   4.168  1.9695 -3.0864  1.3171
  725MOL0     H99984   6.931  -0.381   4.112 -0.9979  0.9017 -2.3329
  725MOL0     H99985   6.826  -0.603   3.925 -1.3547  2.6843 -0.1095
  725MOL0     H99986   6.959  -0.487   3.903  0.4437 -2.6443 -1.0417
  725MOL0     H99987   6.992  -0.634   4.152  1.0562  1.5825 -0.3142
  725MOL0     H99988   7.001  -0.742   4.003  0.9188  0.6044 -1.4846
  725MOL0     H99989   7.183  -0.649   3.910 -0.2536  0.6887 -0.3884
  725MOL0     H99990   7.179  -0.504   4.002  3.6369 -0.8000 -0.4000
  725MOL0     H99991   7.243  -0.785   4.112  1.4974 -0.2723 -2.2269
  725MOL0     H99992   7.247  -0.629   4.207 -0.6989 -0.8543  0.4420
  725MOL0     H99993   7.428  -0.703   3.967  0.3412  0.5072  0.8000
  725MOL0     H99994   7.426  -0.555   4.046 -2.0718 -0.4402 -1.2316
  725MOL0     H99995   7.474  -0.687   4.273  0.8334 -4.8624  1.9923
  725MOL0     H99996   7.595  -0.681   4.130  0.7306 -3.4159 -1.5408
  725MOL0     H99997   7.406  -0.916   4.198 -0.2663  1.9910  2.3624
  725MOL0     H99998   7.541  -0.921   4.082 -5.2099 -1.0209 -2.4587
  725MOL0     H99999   7.513  -0.842   4.469 -1.4252 -0.1856 -0.4747
  725MOL0     H    0   7.766  -0.910   4.634  2.1563 -2.1977  2.9305
  725MOL0     H    1   7.769  -1.086   4.640 -2.1793 -0.8432  3.8872
  725MOL0     H    2   7.522  -0.906   4.679  1.1040  0.5935  0.3840
  725MOL0     H    3   7.514  -1.086   4.695 -0.9634 -0.6705  0.2740
  725MOL0     H    4   7.695  -1.070   4.871  0.9230  0.4543  2.0699
  725MOL0     H    5   7.694  -0.903   4.863  2.9803 -0.2311 -3.3255
  725MOL0     H    6   7.440  -1.073   4.919  1.5098 -0.7997  0.8955
  725MOL0     H    7   7.551  -0.993   5.044  1.1085  0.6455 -0.3719
  725MOL0     H    8   7.456  -0.615   5.011  1.1061  1.8341  0.5321
  725MOL0     H    9   7.427  -0.440   5.115 -3.2177 -3.6019 -0.5533
  725MOL0     H   10   7.513  -0.448   5.275  0.2752 -0.1593  2.5339
  725MOL0     H   11   7.335  -0.423   5.267 -0.8655 -2.8206  0.0853
  725MOL0     H   12   7.109  -0.816   5.719 -3.1216  1.8370 -0.1128
  725MOL0     H   13   7.028  -0.747   5.939 -2.6378  1.4501 -3.5228
  725MOL0     H   14   7.132  -0.345   6.133  0.0998  1.3748 -1.0205
  725MOL0     H   15   7.045  -0.334   5.981  0.9488 -1.1264 -0.5907
  725MOL0     H   16   6.932  -0.425   6.255 -4.5179 -0.2346  0.6672
  725MOL0     H   17   6.911  -0.278   6.181 -0.0048 -0.3482  0.0695
  725MOL0     H   18   6.813  -0.550   6.086 -1.6459  0.0761 -1.5618
  725MOL0     H   19   6.774  -0.407   6.000 -0.9076  0.2378  0.2254
  725MOL0     H   20   6.671  -0.300   6.191 -0.1651 -0.9111 -0.3916
  725MOL0     H   21   6.698  -0.436   6.293  1.6492  0.2048 -1.4636
  725MOL0     H   22   6.516  -0.571   6.144  1.9327 -0.5366 -2.7064
  725MOL0     H   23   6.473  -0.422   6.238 -1.6797 -0.6205  0.5647
  725MOL0     H   24   6.525  -0.485   5.936  0.4391  2.1777 -1.4451
  725MOL0     H   25   6.537  -0.318   5.989  0.2417 -0.4126 -1.2426
  725MOL0     H   26   6.287  -0.463   6.060  2.0012  1.0324  1.6562
  725MOL0     H   27   6.329  -0.396   5.890  2.7518  1.7213 -1.6728
  725MOL0     H   28   6.200  -0.237   5.987 -0.2777  1.6501  3.1294
  725MOL0     H   29   6.367  -0.180   5.957 -0.2654 -1.5416 -1.3264
  725MOL0     H   30   7.223  -0.374   5.899 -1.2693  1.1389 -0.3998
  725MOL0     H   31   7.302  -0.441   5.662  0.9577 -2.5283 -1.9208
  725MOL0     H   32   7.240  -0.872   5.368  0.7237 -0.8526 -1.8497
  725MOL0     H   33   7.312  -1.000   5.157  0.5865  0.1130 -1.1320
  725MOL0     H   34   6.753  -0.309   4.284  1.1303  1.7211  0.1954
  725MOL0     H   35   6.742  -0.085   4.368  1.8766 -1.7744  0.5307
  725MOL0     H   36   6.632   0.332   4.431 -0.1770  0.8486 -0.3981
  725MOL0     H   37   6.531   0.537   4.497  1.3841  0.3275 -1.1463
  725MOL0     H   38   6.286   0.650   4.596 -2.6491  0.9599 -0.6093
  725MOL0     H   39   6.442   0.713   4.533  0.4128 -0.2196  0.1893
  725MOL0     H   40   6.345   0.906   4.427  1.0046  1.9674  1.1626
  725MOL0     H   41   6.343   0.909   4.603  2.9873  0.9697 -2.4168
  725MOL0     H   42   6.099   0.836   4.445  2.0386  0.4419 -0.4971
  725MOL0     H   43   6.131   0.835   4.625  4.0191 -2.5822  0.2819
  725MOL0     H   44   6.124   1.058   4.642  0.0877  0.3648 -0.1534
  725MOL0     H   45   5.996   1.028   4.530 -0.8384  3.4266  2.8394
  725MOL0     H   46   6.282   1.298   4.352 -3.0784  1.3413 -0.6528
  725MOL0     H   47   6.198   0.468   4.244 -0.8700  0.3034  2.0035
  725MOL0     H   48   6.259   0.262   4.055  0.0126  2.7084  0.8340
  725MOL0     H   49   6.335   0.124   4.123 -1.1110 -0.7165  1.0140
  725MOL0     H   50   6.181   0.177   4.192 -1.1607  1.7673 -2.3861
  726MOL0     O   51  10.871   9.026   7.455  0.3905 -0.5232  0.2429
  726MOL0     C   52  10.924   9.130   7.405  0.1126  0.3851  0.3307
  726MOL0     O   53  11.027   9.123   7.326  0.4481  0.3002 -0.4260
  726MOL0     C   54  11.099   9.007   7.309  0.7745  1.3983  1.0399
  726MOL0     C   55  11.115   8.898   7.391  0.2128 -0.2434 -0.1890
  726MOL0     C   56  11.198   8.794   7.353 -0.8983 -0.1209 -0.5816
  726MOL0     C   57  11.259   8.785   7.234  0.6027  0.3200  0.2237
  726MOL0     O   58  11.334   8.681   7.191 -0.3937  0.3184  0.4076
  726MOL0     C   59  11.343   8.556   7.267  0.5906 -0.2095  0.1943
  726MOL0     C   60  11.359   8.432   7.181 -0.6018  0.5146  1.2338
  726MOL0     C   61  11.486   8.438   7.093  0.5609 -0.0541  0.1455
  726MOL0     C   62  11.615   8.371   7.166  0.3012  0.0300 -0.3466
  726MOL0     C   63  11.714   8.366   7.060  0.1928 -0.5039  0.4620
  726MOL0     C   64  11.854   8.334   7.114 -0.3557  0.1061  0.2721
  726MOL0     C   65  11.870   8.195   7.164 -0.2684  0.6664 -0.0359
  726MOL0     C   66  12.003   8.170   7.240  1.0566 -0.0138  0.4333
  726MOL0     N   67  12.008   8.246   7.365  0.6744  0.9255 -0.8185
  726MOL0     C   68  12.089   8.355   7.388  0.4321  0.4486  0.5046
  726MOL0     C   69  12.091   8.371   7.527 -1.6368 -0.3401  0.6627
  726MOL0     C   70  12.136   8.500   7.604  0.0822 -0.2643 -0.3242
  726MOL0     C   71  12.021   8.579   7.664 -0.1626 -1.1772  0.3294
  726MOL0     C   72  12.073   8.720   7.706 -0.0036  0.0174  1.0785
  726MOL0     C   73  11.956   8.820   7.752  0.2917 -0.6988 -0.8389
  726MOL0     O   74  11.889   8.761   7.871 -0.0873  0.0452  0.3622
  726MOL0     C   75  11.821   8.845   7.957  0.5829  0.3901 -0.5868
  726MOL0     C   76  11.685   8.823   7.970 -0.8216 -0.2513 -0.9979
  726MOL0     C   77  11.618   8.906   8.069  0.2921  0.4467  0.4265
  726MOL0     C   78  11.473   8.890   8.077 -0.6003  0.0557 -0.0603
  726MOL0     C   79  11.690   9.006   8.143  0.1505 -0.3935 -0.4390
  726MOL0     C   80  11.627   9.090   8.252 -0.1836  0.6126 -0.3365
  726MOL0     O   81  11.717   9.173   8.314 -0.0449  0.1808 -0.2055
  726MOL0     C   82  11.677   9.257   8.407 -0.1697 -0.1771  0.0948
  726MOL0     C   83  11.650   9.209   8.537 -0.9034 -0.5521 -0.0623
  726MOL0     C   84  11.630   9.302   8.633  0.5643  0.5405 -0.7517
  726MOL0     C   85  11.611   9.439   8.604  0.2305 -0.5252  0.6133
  726MOL0     O   86  11.589   9.536   8.696 -0.5110 -0.4200  0.8093
  726MOL0     C   87  11.579   9.499   8.830 -0.5889 -0.7936  0.8940
  726MOL0     C   88  11.539   9.618   8.924 -0.3442 -1.0562  0.1164
  726MOL0     C   89  11.626   9.742   8.903  0.4499  0.1455 -0.4642
  726MOL0     C   90  11.605   9.855   9.005 -0.0164 -0.4322 -0.0974
  726MOL0     C   91  11.495   9.957   8.959 -0.3163 -0.5452 -0.1037
  726MOL0     C   92  11.464  10.062   9.064  0.0553 -0.6427  0.6582
  726MOL0     C   93  11.343  10.155   9.050 -0.1960 -0.0543 -0.3224
  726MOL0     C   94  11.360  10.270   9.148  0.4136 -0.8982 -0.0070
  726MOL0    Cl   95  11.214  10.371   9.121  0.8584 -0.0351 -0.6981
  726MOL0     C   96  11.645   9.480   8.475 -0.2181  0.2967 -0.0246
  726MOL0     C   97  11.671   9.397   8.376  0.0371  0.2797 -0.8782
  726MOL0     O   98  11.506   9.111   8.245 -0.0848  0.0815  0.2258
  726MOL0     C   99  11.822   9.026   8.108 -0.2945  0.5748  0.0075
  726MOL0     C  100  11.888   8.950   8.020  0.0511 -0.6922 -1.3463
  726MOL0     N  101  12.028   8.263   7.571  0.1106  0.7925 -0.5644
  726MOL0     N  102  11.978   8.181   7.482 -0.4420  0.4536  0.0576
  726MOL0     C  103  11.247   8.890   7.148  0.0491 -0.1407  0.7519
  726MOL0     C  104  11.171   9.003   7.185  0.6811  0.0486 -0.2481
  726MOL0     C  105  10.875   9.267   7.427 -1.5595 -0.3602  0.7752
  726MOL0     C  106  10.963   9.380   7.432 -1.2934  0.5385 -0.3679
  726MOL0     C  107  10.920   9.512   7.460  0.2452  0.7246  0.2768
  726MOL0     C  108  10.779   9.532   7.481 -0.2799 -0.1621 -0.0988
  726MOL0     O  109  10.727   9.656   7.511  0.3124  0.4186 -0.0917
  726MOL0     C  110  10.801   9.780   7.493 -0.6745 -0.2091  0.4607
  726MOL0     C  111  10.722   9.885   7.414 -0.4772  0.0740  0.3521
  726MOL0     C  112  10.794  10.016   7.400  0.5600 -0.1853  0.0979
  726MOL0     C  113  10.699  10.106   7.310 -0.4552  0.2978 -1.1516
  726MOL0     C  114  10.573  10.127   7.374 -0.9909 -0.3169 -0.5442
  726MOL0     C  115  10.465  10.136   7.416 -0.1372  0.5505 -0.6783
  726MOL0     C  116  10.686   9.423   7.455  0.7688  0.0072 -0.0873
  726MOL0     C  117  10.732   9.295   7.436 -0.0682 -0.1247  0.7452
  726MOL0     C  118  10.627   9.185   7.427 -0.0881  1.5640 -0.0559
  726MOL0     H  119  11.075   8.903   7.492 -0.6392  0.0672 -0.5275
  726MOL0     H  120  11.213   8.720   7.431 -0.0119  3.1116  2.5603
  726MOL0     H  121  11.250   8.533   7.318  1.8982 -2.4505  1.7262
  726MOL0     H  122  11.419   8.576   7.343  0.4243 -1.0061  0.5774
  726MOL0     H  123  11.363   8.337   7.235  1.2411 -2.2087 -3.1045
  726MOL0     H  124  11.269   8.427   7.120  0.4141 -0.8596 -0.2378
  726MOL0     H  125  11.463   8.395   6.995 -0.4225  2.7710 -0.9782
  726MOL0     H  126  11.512   8.540   7.062 -0.6275 -0.0027 -0.7443
  726MOL0     H  127  11.659   8.417   7.255 -2.4575 -1.5990  2.0763
  726MOL0     H  128  11.577   8.271   7.189 -0.1196  0.3551  0.4040
  726MOL0     H  129  11.717   8.466   7.014 -0.4292 -0.3135  0.8281
  726MOL0     H  130  11.685   8.285   6.993 -0.3742  0.0381  0.0304
  726MOL0     H  131  11.934   8.351   7.041  0.0602  4.4544  1.4444
  726MOL0     H  132  11.868   8.401   7.199 -2.3665 -1.1902  1.7085
  726MOL0     H  133  11.862   8.123   7.082 -1.8859 -0.4655  1.0513
  726MOL0     H  134  11.793   8.163   7.235  0.5288  2.4512  1.7383
  726MOL0     H  135  12.012   8.063   7.262 -0.0909 -0.1906  0.1190
  726MOL0     H  136  12.087   8.187   7.173 -0.3348 -3.5788 -2.5327
  726MOL0     H  137  12.124   8.415   7.305 -0.8717 -0.1704 -0.5304
  726MOL0     H  138  12.187   8.569   7.537  0.1919  1.1218  1.1392
  726MOL0     H  139  12.203   8.480   7.687  2.8705  0.9906 -2.1332
  726MOL0     H  140  11.942   8.591   7.588  2.7105  2.1578 -2.5313
  726MOL0     H  141  11.986   8.534   7.757  0.3054  0.4992  1.3643
  726MOL0     H  142  12.138   8.710   7.793  1.1608 -1.7668  0.0469
  726MOL0     H  143  12.136   8.765   7.629 -0.9567 -0.4288 -0.0007
  726MOL0     H  144  12.003   8.911   7.790 -1.5801 -1.6605  4.7531
  726MOL0     H  145  11.888   8.832   7.667  0.0348 -0.9649 -0.6720
  726MOL0     H  146  11.645   8.742   7.911  0.8121 -3.0896  1.5187
  726MOL0     H  147  11.444   8.896   8.183 -0.4078  0.6429 -0.0417
  726MOL0     H  148  11.444   8.796   8.029  0.3310  0.7620 -2.0990
  726MOL0     H  149  11.429   8.976   8.025 -0.2935  0.1015 -0.2450
  726MOL0     H  150  11.635   9.102   8.536  0.9774 -0.8516 -0.9024
  726MOL0     H  151  11.612   9.262   8.733 -3.5452 -1.0766 -1.9360
  726MOL0     H  152  11.502   9.426   8.855  1.2846 -1.9499  3.8044
  726MOL0     H  153  11.679   9.464   8.857  2.2952  3.2624 -3.0844
  726MOL0     H  154  11.434   9.643   8.910 -0.7732 -0.9394  2.9409
  726MOL0     H  155  11.534   9.586   9.028 -3.6374 -0.9558  0.0930
  726MOL0     H  156  11.593   9.786   8.808  0.3831  2.3455  0.4993
  726MOL0     H  157  11.730   9.713   8.886  0.1371 -1.4440  0.1529
  726MOL0     H  158  11.702   9.905   9.013 -1.1774  1.8214  0.9078
  726MOL0     H  159  11.581   9.813   9.103  1.2024 -1.2450 -0.1295
  726MOL0     H  160  11.518  10.002   8.862 -2.2887 -0.8444 -0.7584
  726MOL0     H  161  11.402   9.902   8.944 -1.4996  0.5607  2.5367
  726MOL0     H  162  11.555  10.115   9.095 -0.0128 -0.0833 -0.0895
  726MOL0     H  163  11.451   9.992   9.148 -2.5682 -1.6927 -0.5345
  726MOL0     H  164  11.253  10.098   9.075  1.3461 -0.9369  4.1756
  726MOL0     H  165  11.338  10.202   8.952  0.5976  1.3741  0.2888
  726MOL0     H  166  11.445  10.336   9.126 -2.5411  2.9000 -1.1947
  726MOL0     H  167  11.372  10.227   9.248 -0.4882  1.8987  1.4161
  726MOL0     H  168  11.656   9.584   8.444  1.2106  0.5474  1.2281
  726MOL0     H  169  11.695   9.431   8.276  0.0182  1.4893 -0.4897
  726MOL0     H  170  11.884   9.102   8.156 -0.2501  0.3131  0.3675
  726MOL0     H  171  11.990   8.980   7.998  0.4960 -0.4014  0.8394
  726MOL0     H  172  11.305   8.882   7.057 -2.8507  1.1200 -1.3237
  726MOL0     H  173  11.170   9.082   7.110  0.0943 -1.2766 -1.6950
  726MOL0     H  174  11.069   9.366   7.413 -1.6123 -3.5897  0.0139
  726MOL0     H  175  10.990   9.594   7.472  1.9428 -0.6488  0.1631
  726MOL0     H  176  10.832   9.828   7.587  0.6117 -3.4583  1.8473
  726MOL0     H  177  10.893   9.765   7.436 -1.5965 -3.3756 -0.3914
  726MOL0     H  178  10.620   9.893   7.455 -0.0393  1.2674  1.2844
  726MOL0     H  179  10.714   9.838   7.316  0.8096  0.1763  0.1778
  726MOL0     H  180  10.808  10.063   7.498 -0.0434 -0.5515  0.3676
  726MOL0     H  181  10.890  10.000   7.350 -0.4871 -1.8546 -1.5319
  726MOL0     H  182  10.684  10.058   7.213 -3.2516 -4.1649  1.1731
  726MOL0     H  183  10.743  10.206   7.300 -1.9949  0.9716 -1.3915
  726MOL0     H  184  10.363  10.145   7.448  0.2304  1.0720  0.3958
  726MOL0     H  185  10.580   9.440   7.468  1.1767  1.2373  2.0663
  726MOL0     H  186  10.616   9.141   7.526 -2.5524 -2.2059 -1.7800
  726MOL0     H  187  10.531   9.219   7.387 -1.0879 -0.3579  0.5633
  726MOL0     H  188  10.668   9.106   7.363  1.9929  0.4370  2.4511
  727MOL0     O  189   4.884  10.093   2.477  0.3267  0.2701 -0.5270
  727MOL0     C  190   4.899  10.035   2.372  0.2506 -0.4861 -1.5407
  727MOL0     O  191   4.996  10.068   2.291  0.1494  0.2514 -0.2982
  727MOL0     C  192   5.063  10.194   2.306 -0.1286 -0.2628  0.3792
  727MOL0     C  193   5.161  10.203   2.407 -0.3361  0.7098  0.5980
  727MOL0     C  194   5.237  10.316   2.410 -0.5432 -0.4789 -1.2799
  727MOL0     C  195   5.232  10.416   2.310 -0.4188 -0.0833 -0.3772
  727MOL0     O  196   5.308  10.526   2.326 -0.3507 -0.1935 -0.7890
  727MOL0     C  197   5.384  10.567   2.212 -0.4643  0.2935 -0.0976
  727MOL0     C  198   5.514  10.637   2.246  0.4723 -0.5658  0.7695
  727MOL0     C  199   5.636  10.550   2.228  0.0887 -0.0785  0.9462
  727MOL0     C  200   5.777  10.609   2.265  0.0717 -0.7385 -0.2141
  727MOL0     C  201   5.892  10.528   2.215  0.0257  0.0554 -0.5562
  727MOL0     C  202   6.020  10.603   2.253 -0.1992 -0.3104 -0.4718
  727MOL0     C  203   6.147  10.523   2.220  0.5667  0.1390  0.1562
  727MOL0     C  204   6.273  10.599   2.279  0.6648 -0.4362 -0.0028
  727MOL0     N  205   6.299  10.722   2.196  0.5419  0.5259  0.2324
  727MOL0     C  206   6.311  10.723   2.053 -0.0523  0.5524 -0.8053
  727MOL0     C  207   6.343  10.849   2.031  0.8137 -0.1468  1.0012
  727MOL0     C  208   6.377  10.901   1.893  0.4445 -0.8208  0.4772
  727MOL0     C  209   6.515  10.854   1.846  0.1663  0.4634  0.2445
  727MOL0     C  210   6.515  10.716   1.782  0.0344  0.9960 -0.5776
  727MOL0     C  211   6.653  10.666   1.732 -0.1858 -0.6948 -0.5680
  727MOL0     O  212   6.725  10.640   1.850 -0.1101 -0.4269  0.4461
  727MOL0     C  213   6.859  10.626   1.832 -0.9762  0.0849 -0.0362
  727MOL0     C  214   6.933  10.663   1.940 -0.5934  0.4923 -0.2221
  727MOL0     C  215   7.076  10.661   1.943  0.1759 -0.1314 -0.2570
  727MOL0     C  216   7.149  10.713   2.074 -0.0892  0.0311  1.0017
  727MOL0     C  217   7.157  10.636   1.828 -0.7842 -0.5001  0.4114
  727MOL0     C  218   7.304  10.645   1.813 -0.1928 -0.7794 -0.2132
  727MOL0     O  219   7.362  10.586   1.709  0.3972  0.4704 -0.0557
  727MOL0     C  220   7.494  10.567   1.710  0.1604  0.8614  0.0391
  727MOL0     C  221   7.572  10.636   1.610 -0.4362  0.0834 -0.6455
  727MOL0     C  222   7.707  10.598   1.592 -1.2080  0.1220  0.4199
  727MOL0     C  223   7.755  10.495   1.679  0.0455 -0.2625  0.4655
  727MOL0     O  224   7.885  10.452   1.672  1.0222  0.4862  0.1588
  727MOL0     C  225   7.988  10.550   1.700 -1.2303  0.4041 -0.2298
  727MOL0     C  226   8.112  10.457   1.726  0.1176  0.1848 -0.7226
  727MOL0     C  227   8.239  10.542   1.765 -0.1634  0.2052 -0.7672
  727MOL0     C  228   8.312  10.593   1.634 -0.0398 -0.6727  0.0654
  727MOL0     C  229   8.462  10.604   1.668  0.1656 -0.3584  0.1737
  727MOL0     C  230   8.545  10.651   1.551 -0.4251  1.0902  0.1101
  727MOL0     C  231   8.536  10.543   1.432 -1.2473  0.4386  0.5438
  727MOL0     C  232   8.647  10.577   1.325 -1.0349  1.0888 -0.5797
  727MOL0    Cl  233   8.826  10.561   1.380  0.1557 -0.1234 -0.5343
  727MOL0     C  234   7.680  10.425   1.778  0.6477  0.4490 -0.0608
  727MOL0     C  235   7.547  10.462   1.788 -0.0459 -0.5166  0.1422
  727MOL0     O  236   7.361  10.701   1.903 -0.3108 -0.2672 -0.1345
  727MOL0     C  237   7.081  10.604   1.711  0.6722 -0.5317  0.4780
  727MOL0     C  238   6.938  10.601   1.715  0.0277  0.3698  0.2235
  727MOL0     N  239   6.329  10.926   2.141 -0.2165 -0.0586 -0.4661
  727MOL0     N  240   6.310  10.848   2.245 -0.5313 -0.1587 -0.4423
  727MOL0     C  241   5.123  10.412   2.226 -0.3518 -0.2380 -0.0237
  727MOL0     C  242   5.043  10.304   2.213  0.0656  0.1139 -0.1913
  727MOL0     C  243   4.816   9.911   2.364 -0.1298 -0.8316 -0.7680
  727MOL0     C  244   4.863   9.818   2.268  0.3944 -0.3214  0.1735
  727MOL0     C  245   4.807   9.686   2.266  0.1605 -0.5391 -0.3827
  727MOL0     C  246   4.693   9.660   2.337  0.6868 -0.3320 -0.2451
  727MOL0     O  247   4.628   9.540   2.328 -0.5236  0.5317 -0.9429
  727MOL0     C  248   4.627   9.464   2.204  0.6967 -0.3476 -0.6895
  727MOL0     C  249   4.490   9.395   2.182 -0.0930 -0.4141  0.2429
  727MOL0     C  250   4.371   9.492   2.170  0.9048  0.0082 -0.2389
  727MOL0     C  251   4.243   9.391   2.179  0.3429 -0.4356  0.4983
  727MOL0     C  252   4.113   9.457   2.134  0.7178 -0.3131 -0.2830
  727MOL0     C  253   4.006   9.510   2.107  0.1076 -0.4901 -0.3209
  727MOL0     C  254   4.638   9.751   2.429 -0.2188  0.0998  0.3337
  727MOL0     C  255   4.697   9.878   2.441 -0.3161 -0.5620 -0.3375
  727MOL0     C  256   4.623   9.985   2.533 -0.6897  0.4732  0.1837
  727MOL0     H  257   5.164  10.119   2.476 -0.2961  1.3057  1.3276
  727MOL0     H  258   5.315  10.326   2.484 -0.7019  1.1351 -1.3015
  727MOL0     H  259   5.318  10.628   2.150  1.7068 -1.6521 -4.8156
  727MOL0     H  260   5.409  10.477   2.154  0.3621 -0.2636  1.0949
  727MOL0     H  261   5.524  10.729   2.187 -2.7900 -0.8522 -0.4444
  727MOL0     H  262   5.506  10.669   2.350 -0.6939 -1.0997  0.8507
  727MOL0     H  263   5.616  10.466   2.296 -1.4482 -0.4988  0.0254
  727MOL0     H  264   5.630  10.520   2.123  0.1786  3.3067 -0.1558
  727MOL0     H  265   5.778  10.707   2.215  0.3531 -1.3632 -1.4746
  727MOL0     H  266   5.791  10.626   2.372  2.9523 -0.1491 -0.6080
  727MOL0     H  267   5.887  10.516   2.106  1.2010  1.9728 -0.8705
  727MOL0     H  268   5.887  10.432   2.266 -1.1680 -0.0161 -0.7673
  727MOL0     H  269   6.006  10.685   2.181 -3.9386 -0.6631 -0.3173
  727MOL0     H  270   6.029  10.638   2.356  1.9061  2.2053 -1.3925
  727MOL0     H  271   6.166  10.506   2.113  0.6756  1.6239 -0.0740
  727MOL0     H  272   6.132  10.424   2.264 -0.9448  0.2495 -0.0444
  727MOL0     H  273   6.255  10.620   2.385  3.1693  0.9923  0.2405
  727MOL0     H  274   6.372  10.551   2.281  3.6238  4.8481 -0.3337
  727MOL0     H  275   6.324  10.638   1.987 -0.7405  0.5240 -0.9076
  727MOL0     H  276   6.385  11.010   1.890  1.1367 -0.8807  0.0693
  727MOL0     H  277   6.302  10.872   1.818  1.5386 -1.6561 -0.3194
  727MOL0     H  278   6.544  10.924   1.767  1.3899  0.5631  0.7713
  727MOL0     H  279   6.579  10.853   1.934  1.8542 -0.3974 -0.9385
  727MOL0     H  280   6.488  10.645   1.860  1.4501  0.2379 -0.7435
  727MOL0     H  281   6.449  10.710   1.695 -0.7936  1.1894  0.0277
  727MOL0     H  282   6.636  10.575   1.673 -5.4415  0.1119 -0.8430
  727MOL0     H  283   6.704  10.745   1.677 -0.2795 -1.4698 -1.8122
  727MOL0     H  284   6.884  10.699   2.030  4.2476  0.0817  2.9771
  727MOL0     H  285   7.225  10.650   2.121  0.1083  0.6830  1.5739
  727MOL0     H  286   7.084  10.729   2.161  0.8477 -1.4502  2.0385
  727MOL0     H  287   7.190  10.810   2.044 -2.6805  0.5509 -1.2952
  727MOL0     H  288   7.519  10.696   1.537  2.1897  0.8569 -2.0353
  727MOL0     H  289   7.769  10.639   1.512 -1.6991 -1.5392 -0.8713
  727MOL0     H  290   8.018  10.609   1.613 -1.9671 -0.1458 -0.8744
  727MOL0     H  291   7.974  10.617   1.785 -0.5713 -1.5023  1.4599
  727MOL0     H  292   8.090  10.381   1.801 -1.6572 -0.9519 -2.2780
  727MOL0     H  293   8.141  10.405   1.634 -1.9681  0.3795 -1.5442
  727MOL0     H  294   8.302  10.481   1.831 -2.3760  0.9288  2.2083
  727MOL0     H  295   8.206  10.624   1.828  2.3152 -1.0053  2.3727
  727MOL0     H  296   8.274  10.692   1.606  1.7774 -0.4180 -1.7582
  727MOL0     H  297   8.292  10.529   1.548 -3.4835 -1.7128  1.5003
  727MOL0     H  298   8.476  10.667   1.756  2.7664 -0.3999 -0.1390
  727MOL0     H  299   8.511  10.509   1.692  1.7761 -0.3973 -2.7546
  727MOL0     H  300   8.649  10.671   1.580 -0.0701 -0.2270 -0.1761
  727MOL0     H  301   8.502  10.742   1.509 -1.0214 -0.4046 -2.8340
  727MOL0     H  302   8.435  10.545   1.390 -0.8243  1.3005 -0.4721
  727MOL0     H  303   8.557  10.441   1.464  0.9954 -0.1836 -2.4645
  727MOL0     H  304   8.640  10.677   1.280 -2.3951  0.9424 -0.7481
  727MOL0     H  305   8.632  10.503   1.246  0.3483 -0.4591  0.5467
  727MOL0     H  306   7.730  10.341   1.825 -0.7043 -1.7864 -2.3539
  727MOL0     H  307   7.486  10.404   1.857 -0.5712 -0.1991 -0.0457
  727MOL0     H  308   7.138  10.572   1.625 -1.9428 -2.7519 -0.5980
  727MOL0     H  309   6.889  10.571   1.623  3.0769 -1.6793 -0.8673
  727MOL0     H  310   5.109  10.496   2.158 -0.8685  0.1715  0.5691
  727MOL0     H  311   4.968  10.295   2.135  0.5282 -0.9795 -0.5204
  727MOL0     H  312   4.946   9.842   2.202  2.8373 -1.3801  2.6481
  727MOL0     H  313   4.837   9.604   2.202  0.0424 -0.6643 -0.2790
  727MOL0     H  314   4.644   9.534   2.121 -2.6214  1.9611  0.3534
  727MOL0     H  315   4.711   9.394   2.209  0.0535 -1.0609  2.7871
  727MOL0     H  316   4.471   9.317   2.257  0.2088  0.6743  1.4923
  727MOL0     H  317   4.499   9.348   2.084 -0.9327 -3.6799  1.5585
  727MOL0     H  318   4.360   9.567   2.250 -4.9119 -1.8677  1.2025
  727MOL0     H  319   4.388   9.540   2.074  3.0739 -1.4688 -0.6883
  727MOL0     H  320   4.230   9.346   2.278  0.8344  0.6667  1.0867
  727MOL0     H  321   4.255   9.309   2.108  0.7207 -0.8973  1.0900
  727MOL0     H  322   3.920   9.570   2.087 -0.9720 -2.5015 -2.1421
  727MOL0     H  323   4.547   9.718   2.478 -1.6206  1.2693 -1.3839
  727MOL0     H  324   4.623  10.088   2.498 -1.8728  0.4417  0.0337
  727MOL0     H  325   4.519   9.952   2.542 -0.6183  0.5313  1.4483
  727MOL0     H  326   4.675   9.985   2.630  1.7149  0.0030 -1.0237
  728MOL0     O  327   1.286   4.733   7.750  0.8048  0.8714  0.0812
  728MOL0     C  328   1.363   4.679   7.828 -1.4327 -0.0933 -0.6508
  728MOL0     O  329   1.331   4.584   7.920  0.7180  0.0176 -0.2345
  728MOL0     C  330   1.219   4.519   7.892 -0.3256  0.3135  0.4522
  728MOL0     C  331   1.104   4.561   7.961 -0.6232 -0.2138  0.1842
  728MOL0     C  332   0.981   4.503   7.935 -0.0207 -0.7373  0.3520
  728MOL0     C  333   0.971   4.392   7.850 -0.4911 -0.1719 -0.0016
  728MOL0     O  334   0.847   4.336   7.846 -0.4027  1.2834  0.3019
  728MOL0     C  335   0.828   4.202   7.807 -0.0335  0.1359  0.6493
  728MOL0     C  336   0.679   4.157   7.809  0.0886  0.2146 -0.0023
  728MOL0     C  337   0.683   3.998   7.803 -0.0217  0.1137  0.0799
  728MOL0     C  338   0.576   3.931   7.709 -0.6143  1.3567 -0.1489
  728MOL0     C  339   0.438   3.942   7.773  0.3146  0.5426 -0.0748
  728MOL0     C  340   0.335   3.884   7.685  0.4850 -0.1078 -0.9747
  728MOL0     C  341   0.197   3.866   7.754 -0.4752 -0.9962 -0.1297
  728MOL0     C  342   0.179   3.733   7.834 -0.1601  0.0622 -0.3288
  728MOL0     N  343   0.041   3.715   7.877  0.3799  0.4343 -0.3690
  728MOL0     C  344  -0.068   3.677   7.798  0.2182  0.1122  0.1878
  728MOL0     C  345  -0.180   3.719   7.856  0.3564  1.3614 -0.0091
  728MOL0     C  346  -0.324   3.692   7.824  0.7373  0.2679 -0.2492
  728MOL0     C  347  -0.381   3.579   7.907  0.8196  0.1042 -0.2414
  728MOL0     C  348  -0.536   3.591   7.934 -1.1316  0.1299 -0.6203
  728MOL0     C  349  -0.577   3.481   8.033 -0.4489 -0.5880 -0.4948
  728MOL0     O  350  -0.713   3.490   8.030 -0.4800 -0.4504 -0.2434
  728MOL0     C  351  -0.781   3.435   8.135  0.4364  0.2636 -0.9034
  728MOL0     C  352  -0.731   3.391   8.262  0.0697 -0.5692  0.2120
  728MOL0     C  353  -0.815   3.334   8.352  0.4250  1.2484 -0.2175
  728MOL0     C  354  -0.758   3.282   8.481 -0.6245  0.5975 -0.1110
  728MOL0     C  355  -0.955   3.325   8.327 -0.3956  0.3926  0.2064
  728MOL0     C  356  -1.054   3.263   8.421 -0.6090  0.0839 -0.6401
  728MOL0     O  357  -1.185   3.264   8.369 -0.4773 -0.2933  0.1779
  728MOL0     C  358  -1.269   3.182   8.436 -0.0944 -0.0904  0.2866
  728MOL0     C  359  -1.246   3.037   8.442  0.6688 -0.3315 -0.6547
  728MOL0     C  360  -1.361   2.967   8.500 -0.9894 -0.1269 -0.3534
  728MOL0     C  361  -1.482   3.021   8.557 -1.0004 -0.4656 -0.3645
  728MOL0     O  362  -1.583   2.956   8.620  0.0803 -0.0009  0.4000
  728MOL0     C  363  -1.560   2.854   8.714 -0.0567  0.1912 -0.3144
  728MOL0     C  364  -1.461   2.895   8.827  0.8590 -0.3381 -0.2751
  728MOL0     C  365  -1.478   3.034   8.890 -0.3290  0.4057  0.3653
  728MOL0     C  366  -1.395   3.053   9.009  0.6203  0.6475  0.3591
  728MOL0     C  367  -1.393   3.198   9.057  0.0494 -0.2983  0.1563
  728MOL0     C  368  -1.323   3.297   8.968 -0.1316  0.6600  0.3602
  728MOL0     C  369  -1.182   3.259   8.921  0.4549 -0.1856  0.7275
  728MOL0     C  370  -1.118   3.376   8.846  0.5995  0.5516  1.0767
  728MOL0    Cl  371  -1.066   3.511   8.947 -0.3389  0.2776  0.8880
  728MOL0     C  372  -1.494   3.161   8.550 -0.2024 -0.5865  0.0210
  728MOL0     C  373  -1.385   3.236   8.498  0.2695  0.1961  0.1517
  728MOL0     O  374  -1.029   3.264   8.544  0.1336 -0.3445  0.5187
  728MOL0     C  375  -1.011   3.384   8.202  0.0108  0.3291 -0.3232
  728MOL0     C  376  -0.918   3.435   8.114  0.4983 -0.2141 -0.2623
  728MOL0     N  377  -0.135   3.796   7.969 -0.2756  0.9174 -0.6797
  728MOL0     N  378  -0.012   3.790   7.978 -0.2478 -1.0721  0.6224
  728MOL0     C  379   1.089   4.343   7.783  0.1602  0.1193  0.6762
  728MOL0     C  380   1.211   4.409   7.804  0.0883 -0.6690 -0.2856
  728MOL0     C  381   1.500   4.727   7.821 -0.1801 -0.8026 -0.3398
  728MOL0     C  382   1.600   4.648   7.897  0.0273 -0.1049  0.5236
  728MOL0     C  383   1.734   4.687   7.903 -0.0231 -0.0358 -0.3234
  728MOL0     C  384   1.782   4.799   7.829  0.7069 -0.6908  0.0808
  728MOL0     O  385   1.908   4.851   7.831  0.8091 -1.1209  0.5378
  728MOL0     C  386   2.007   4.767   7.856 -0.2784  0.3949 -0.4862
  728MOL0     C  387   2.139   4.816   7.806 -0.5302  0.2562  0.2046
  728MOL0     C  388   2.249   4.715   7.826  0.3205 -0.0231  0.3012
  728MOL0     C  389   2.389   4.777   7.797  0.0158  0.6724 -1.0104
  728MOL0     C  390   2.436   4.799   7.659 -0.3200 -0.3024 -0.1726
  728MOL0     C  391   2.486   4.810   7.548  0.3886  0.6649  0.9929
  728MOL0     C  392   1.684   4.893   7.789 -1.0397 -0.4809  0.3462
  728MOL0     C  393   1.552   4.850   7.761  0.3406 -1.0717  0.9842
  728MOL0     C  394   1.461   4.950   7.684 -0.2399 -1.0287 -0.0656
  728MOL0     H  395   1.130   4.641   8.030 -0.1505 -0.7855  0.6745
  728MOL0     H  396   0.900   4.546   7.991  2.5158  1.2632  2.7431
  728MOL0     H  397   0.901   4.133   7.850  1.0720  0.3448 -0.7885
  728MOL0     H  398   0.864   4.190   7.704 -2.2515  1.0300 -0.2814
  728MOL0     H  399   0.636   4.186   7.905  0.1837  0.6262 -0.0794
  728MOL0     H  400   0.623   4.209   7.730  1.8975  1.2050 -0.7183
  728MOL0     H  401   0.784   3.964   7.780  0.4779 -0.2570  2.5932
  728MOL0     H  402   0.659   3.961   7.903  1.3820 -2.5025 -0.4652
  728MOL0     H  403   0.586   3.986   7.615 -0.2321 -0.5968 -1.3081
  728MOL0     H  404   0.598   3.824   7.705 -2.1774  0.9763  0.6776
  728MOL0     H  405   0.411   4.047   7.790  1.0011  0.4347  1.9103
  728MOL0     H  406   0.453   3.888   7.867  1.8693  1.1086  0.0253
  728MOL0     H  407   0.318   3.949   7.598 -1.8774  4.7910  2.6528
  728MOL0     H  408   0.367   3.780   7.675  0.5995 -0.4149  1.8340
  728MOL0     H  409   0.114   3.878   7.684  2.0239  3.9871 -2.7356
  728MOL0     H  410   0.187   3.949   7.825 -0.0752 -2.1039  1.2802
  728MOL0     H  411   0.214   3.647   7.777  2.0200  0.3902  0.4486
  728MOL0     H  412   0.246   3.749   7.919 -0.6964  2.5569 -0.3177
  728MOL0     H  413  -0.072   3.624   7.704 -2.4694 -0.4499  0.5506
  728MOL0     H  414  -0.339   3.652   7.723 -0.5725 -0.4854  0.2171
  728MOL0     H  415  -0.389   3.779   7.836 -1.5649 -1.5577  1.4295
  728MOL0     H  416  -0.362   3.488   7.849 -0.3620 -0.3458  0.0352
  728MOL0     H  417  -0.326   3.581   8.001  1.1572 -0.1267 -0.4321
  728MOL0     H  418  -0.563   3.686   7.981  2.3796  1.4607 -0.9707
  728MOL0     H  419  -0.585   3.582   7.837 -0.5454  0.5729 -0.9639
  728MOL0     H  420  -0.543   3.383   8.000 -0.7395 -0.8195 -0.1084
  728MOL0     H  421  -0.531   3.517   8.125 -0.3400 -0.3549 -0.6376
  728MOL0     H  422  -0.625   3.395   8.284  0.1822  1.4135 -0.5072
  728MOL0     H  423  -0.790   3.180   8.500 -0.4145  0.0821 -2.2381
  728MOL0     H  424  -0.763   3.359   8.559  2.4570 -0.0019  0.8024
  728MOL0     H  425  -0.653   3.262   8.462 -0.4691 -0.6127  1.7605
  728MOL0     H  426  -1.155   3.000   8.398  1.9638  1.3353  0.4919
  728MOL0     H  427  -1.351   2.860   8.514  2.1859  0.3848  2.6400
  728MOL0     H  428  -1.657   2.827   8.759 -2.3236 -1.4470 -5.4067
  728MOL0     H  429  -1.531   2.759   8.669 -1.7708  0.4049 -2.0354
  728MOL0     H  430  -1.465   2.820   8.907 -2.6761 -1.8788 -1.6962
  728MOL0     H  431  -1.361   2.889   8.782  0.9209 -1.1585 -0.0425
  728MOL0     H  432  -1.584   3.060   8.894 -0.1959  2.8363 -4.5161
  728MOL0     H  433  -1.449   3.108   8.815  0.8288 -1.6967 -1.4166
  728MOL0     H  434  -1.291   3.021   8.998  0.3830  0.4418 -1.7333
  728MOL0     H  435  -1.441   2.989   9.084 -4.1882 -1.6133 -3.9337
  728MOL0     H  436  -1.491   3.224   9.097 -1.5727 -0.4727 -3.3483
  728MOL0     H  437  -1.328   3.178   9.143  0.8307 -1.5359 -0.6887
  728MOL0     H  438  -1.319   3.386   9.031  0.5510  1.9548 -1.4130
  728MOL0     H  439  -1.385   3.335   8.886 -0.8323 -1.8895 -0.3923
  728MOL0     H  440  -1.184   3.169   8.860 -0.6586  0.3704 -0.0822
  728MOL0     H  441  -1.113   3.232   9.002  3.1459  1.5040 -0.8504
  728MOL0     H  442  -1.187   3.398   8.764 -1.3890 -1.0250  2.2260
  728MOL0     H  443  -1.026   3.346   8.796 -0.3852  0.1703 -0.5832
  728MOL0     H  444  -1.582   3.210   8.590  1.2793  3.0938 -0.8244
  728MOL0     H  445  -1.388   3.345   8.499 -0.9704  0.1971 -0.7702
  728MOL0     H  446  -1.112   3.354   8.176  1.1835 -4.1318 -0.6903
  728MOL0     H  447  -0.963   3.469   8.021  0.4860  2.5303  0.6639
  728MOL0     H  448   1.075   4.256   7.719  0.1846  0.7968 -0.2691
  728MOL0     H  449   1.300   4.368   7.757  0.3273  0.5621 -0.9576
  728MOL0     H  450   1.561   4.564   7.953 -0.1728  0.0589  0.6318
  728MOL0     H  451   1.803   4.631   7.966 -1.0716 -1.2562 -0.2397
  728MOL0     H  452   2.005   4.764   7.965 -0.4953 -0.4465 -0.5085
  728MOL0     H  453   1.983   4.669   7.813 -2.2619  1.5913 -2.2547
  728MOL0     H  454   2.161   4.914   7.849 -0.8210  0.2557  0.3617
  728MOL0     H  455   2.121   4.825   7.699  1.2277 -2.8677 -0.4607
  728MOL0     H  456   2.248   4.686   7.931  1.3826 -0.0368  0.3189
  728MOL0     H  457   2.232   4.628   7.762 -0.4831  0.1029  0.3342
  728MOL0     H  458   2.462   4.705   7.835 -3.0461 -0.9600  2.4486
  728MOL0     H  459   2.388   4.871   7.854  0.6299 -0.3545  0.7540
  728MOL0     H  460   2.536   4.839   7.458  1.0250  1.8153  1.6966
  728MOL0     H  461   1.706   4.996   7.764  0.9829 -1.2532 -1.3698
  728MOL0     H  462   1.523   5.039   7.667  1.5686 -1.9710  1.3048
  728MOL0     H  463   1.431   4.908   7.587 -0.3677 -2.3543  0.5307
  728MOL0     H  464   1.369   4.980   7.736 -1.2800  1.0310 -2.8149
  729MOL0     O  465   4.829   4.864   2.134 -0.3829  0.0903 -0.1751
  729MOL0     C  466   4.812   4.993   2.136  0.0832  0.3500 -0.4346
  729MOL0     O  467   4.800   5.067   2.027  1.0750 -0.1701  0.2757
  729MOL0     C  468   4.828   5.018   1.902 -0.4858 -0.3229  0.9846
  729MOL0     C  469   4.950   4.949   1.880 -0.0838  0.2112  0.7097
  729MOL0     C  470   4.987   4.908   1.746  0.2627 -0.0011  0.2077
  729MOL0     C  471   4.895   4.929   1.638 -0.3872 -0.5541 -0.1897
  729MOL0     O  472   4.923   4.916   1.505  0.4995  0.4903 -0.5804
  729MOL0     C  473   4.944   5.044   1.439 -0.8236  0.2109  1.0559
  729MOL0     C  474   4.968   5.011   1.289  0.0418  0.5457 -0.0628
  729MOL0     C  475   4.849   4.970   1.201 -0.3773 -0.2310 -0.2048
  729MOL0     C  476   4.883   4.890   1.072 -0.5934  0.2180 -0.2729
  729MOL0     C  477   4.904   4.962   0.936  0.4941  0.5996  0.1327
  729MOL0     C  478   4.958   4.858   0.826  0.1626 -0.7074 -0.1156
  729MOL0     C  479   5.015   4.941   0.708  0.3975 -0.7806  0.0633
  729MOL0     C  480   5.062   4.837   0.603 -0.0234 -0.3788  0.9686
  729MOL0     N  481   5.184   4.779   0.642 -0.0291 -0.7590  0.2945
  729MOL0     C  482   5.297   4.842   0.673 -0.2652 -0.6424  0.5758
  729MOL0     C  483   5.373   4.752   0.729 -0.5129  0.0604  0.3351
  729MOL0     C  484   5.513   4.781   0.790  0.3923  0.3998  0.1872
  729MOL0     C  485   5.510   4.835   0.934 -0.6491  0.2495  0.3153
  729MOL0     C  486   5.498   4.720   1.044  0.7118 -0.3343  0.4877
  729MOL0     C  487   5.540   4.787   1.165 -0.0482 -0.3213  0.7844
  729MOL0     O  488   5.683   4.788   1.155  0.2441  0.2117  0.0892
  729MOL0     C  489   5.747   4.822   1.274  0.7731  0.5829 -0.1414
  729MOL0     C  490   5.679   4.848   1.394 -1.5497 -0.1332  0.6230
  729MOL0     C  491   5.756   4.909   1.507 -0.2956 -0.0537  0.1787
  729MOL0     C  492   5.679   4.953   1.631 -0.3743  0.1595  0.4491
  729MOL0     C  493   5.895   4.926   1.497  0.8325  1.2386  0.0317
  729MOL0     C  494   5.972   4.970   1.614 -1.0365 -0.0880 -0.6783
  729MOL0     O  495   6.094   4.909   1.622 -0.7025 -0.1370 -0.0149
  729MOL0     C  496   6.193   4.932   1.715 -0.1330  0.1990 -0.1944
  729MOL0     C  497   6.176   4.929   1.849  0.0645  1.0565  0.0700
  729MOL0     C  498   6.283   4.940   1.938 -0.0965 -0.3584 -0.0180
  729MOL0     C  499   6.412   4.956   1.889  0.2780  0.4172  0.0567
  729MOL0     O  500   6.509   4.976   1.984 -0.1992  0.4247 -1.1214
  729MOL0     C  501   6.649   4.967   1.960  0.3709 -0.9271 -1.0768
  729MOL0     C  502   6.737   4.991   2.085 -0.5773 -0.7596 -0.0119
  729MOL0     C  503   6.729   5.139   2.117 -0.7441  0.0222  0.3173
  729MOL0     C  504   6.809   5.171   2.252  0.3489 -0.0057 -0.3426
  729MOL0     C  505   6.813   5.316   2.298  0.0602 -0.3455 -0.1433
  729MOL0     C  506   6.683   5.372   2.368 -0.1497 -0.2394  0.4928
  729MOL0     C  507   6.726   5.499   2.450  0.7774 -1.5594  0.5665
  729MOL0     C  508   6.608   5.575   2.507 -0.3380 -0.5733 -0.2332
  729MOL0    Cl  509   6.664   5.692   2.635  0.0856 -0.0781 -0.6222
  729MOL0     C  510   6.440   4.952   1.751  1.2548  0.3275 -0.1281
  729MOL0     C  511   6.330   4.937   1.667  0.3301 -0.2312  0.3976
  729MOL0     O  512   5.937   5.066   1.687 -0.9299 -0.5624  0.4126
  729MOL0     C  513   5.956   4.885   1.385  0.4017  0.9160 -0.0419
  729MOL0     C  514   5.890   4.846   1.273  0.2977  0.0186 -0.2509
  729MOL0     N  515   5.319   4.624   0.716  0.0728  0.4609 -0.6343
  729MOL0     N  516   5.199   4.646   0.667 -0.0982 -0.2193 -0.2739
  729MOL0     C  517   4.771   4.985   1.670  0.4154 -0.1751 -0.2760
  729MOL0     C  518   4.728   5.025   1.804  0.6033 -0.1662  0.4590
  729MOL0     C  519   4.791   5.064   2.265  0.5715  0.7428  0.6649
  729MOL0     C  520   4.888   5.163   2.300  0.2236 -0.6316  0.4055
  729MOL0     C  521   4.897   5.208   2.436 -0.6364 -0.0836 -0.8395
  729MOL0     C  522   4.816   5.156   2.536  0.3217  0.3972 -0.3131
  729MOL0     O  523   4.836   5.168   2.671 -1.2384 -0.5107 -0.3501
  729MOL0     C  524   4.957   5.242   2.711 -0.0257  0.0113 -0.1199
  729MOL0     C  525   4.966   5.246   2.865 -0.2373  0.1794 -0.0219
  729MOL0     C  526   4.854   5.319   2.942 -0.6674 -0.3681 -0.4339
  729MOL0     C  527   4.906   5.363   3.079 -0.2064 -0.1265  0.0576
  729MOL0     C  528   5.013   5.461   3.084 -0.2568  0.0582  0.0857
  729MOL0     C  529   5.096   5.551   3.095 -0.2872  0.8167 -0.0775
  729MOL0     C  530   4.719   5.059   2.497  0.2634  0.0460  0.4198
  729MOL0     C  531   4.702   5.017   2.365  0.8793 -0.3697 -1.0770
  729MOL0     C  532   4.593   4.916   2.332 -0.1626 -0.0920 -0.0310
  729MOL0     H  533   5.013   4.937   1.967  0.1133  0.2530  0.5743
  729MOL0     H  534   5.077   4.856   1.716 -0.6884 -1.1099 -0.8286
  729MOL0     H  535   5.033   5.086   1.486 -0.2080 -0.9799  0.9879
  729MOL0     H  536   4.858   5.110   1.451 -1.4025 -0.3673  0.2362
  729MOL0     H  537   5.012   5.104   1.252  3.0807  0.5671  3.0919
  729MOL0     H  538   5.038   4.928   1.275  0.6965  1.0762  0.0234
  729MOL0     H  539   4.785   4.898   1.254  1.5718 -1.1596  0.9955
  729MOL0     H  540   4.802   5.065   1.173  0.9914  0.6598  0.4301
  729MOL0     H  541   4.983   4.846   1.082  0.7965  2.9921 -1.0375
  729MOL0     H  542   4.807   4.813   1.054 -1.2173  0.6587  0.4222
  729MOL0     H  543   4.987   5.029   0.960 -0.0986  0.9096  1.3774
  729MOL0     H  544   4.811   5.011   0.906 -1.5820 -2.3787  1.2615
  729MOL0     H  545   5.034   4.785   0.855  1.8646 -0.2064 -2.9531
  729MOL0     H  546   4.875   4.794   0.795  1.6387 -2.1288 -1.3092
  729MOL0     H  547   5.093   5.007   0.746  0.5299  0.7701 -2.6141
  729MOL0     H  548   4.933   5.000   0.665  2.7148  0.7622 -2.5939
  729MOL0     H  549   4.984   4.762   0.590 -0.9498  0.7360 -0.2245
  729MOL0     H  550   5.085   4.882   0.506  1.0898 -2.5903  0.1212
  729MOL0     H  551   5.305   4.948   0.654 -3.1343 -0.5935 -0.9261
  729MOL0     H  552   5.572   4.849   0.728  1.4570 -0.9390 -0.3279
  729MOL0     H  553   5.571   4.688   0.789 -0.0691  0.1142 -0.2930
  729MOL0     H  554   5.602   4.894   0.939  0.0462 -0.4305 -2.6132
  729MOL0     H  555   5.426   4.905   0.944 -0.5920  0.3799 -0.1048
  729MOL0     H  556   5.395   4.687   1.062  0.7062  0.0686  1.2308
  729MOL0     H  557   5.562   4.632   1.028 -1.6796 -2.3614  1.3935
  729MOL0     H  558   5.494   4.885   1.175 -0.1991 -0.1577 -1.1391
  729MOL0     H  559   5.504   4.720   1.244 -1.1974  0.2630  0.7776
  729MOL0     H  560   5.573   4.830   1.411 -1.7064 -3.0291 -2.3908
  729MOL0     H  561   5.582   4.902   1.633  1.1068 -2.8894  0.2175
  729MOL0     H  562   5.674   5.062   1.634 -1.0201  0.1193  1.6715
  729MOL0     H  563   5.714   4.906   1.723 -2.0538 -0.4169  0.8415
  729MOL0     H  564   6.074   4.921   1.884 -0.2693 -3.9283 -1.3675
  729MOL0     H  565   6.271   4.955   2.045  0.2928 -2.9439  0.4740
  729MOL0     H  566   6.675   4.874   1.908  0.3285 -0.7162 -1.4812
  729MOL0     H  567   6.674   5.052   1.895 -2.1763  2.7770  2.3255
  729MOL0     H  568   6.695   4.924   2.160 -0.6364 -1.8297 -0.9705
  729MOL0     H  569   6.841   4.969   2.058  0.4498  2.1717  1.1289
  729MOL0     H  570   6.624   5.164   2.129 -0.8055 -0.4109  0.6870
  729MOL0     H  571   6.756   5.198   2.028 -2.2783  0.7761  0.3095
  729MOL0     H  572   6.913   5.136   2.245  0.1220 -0.9097  0.6140
  729MOL0     H  573   6.755   5.111   2.325  0.8175 -0.0567 -0.0330
  729MOL0     H  574   6.895   5.318   2.370  0.6378  2.0206 -0.7799
  729MOL0     H  575   6.844   5.377   2.213  1.2403 -0.6969  0.0154
  729MOL0     H  576   6.650   5.300   2.443  0.9059 -1.5919 -0.2867
  729MOL0     H  577   6.612   5.401   2.291  0.8471  5.0523  1.2138
  729MOL0     H  578   6.767   5.576   2.384  1.3016 -1.6357  0.7984
  729MOL0     H  579   6.795   5.484   2.534  0.2118  3.1521  2.1607
  729MOL0     H  580   6.559   5.502   2.572 -0.6650 -1.8443 -1.8529
  729MOL0     H  581   6.547   5.634   2.438  0.8126  1.3231  0.2929
  729MOL0     H  582   6.543   4.963   1.718  1.1549 -2.9078 -1.9836
  729MOL0     H  583   6.335   4.936   1.559 -1.1065  1.0087  0.2858
  729MOL0     H  584   6.063   4.877   1.372 -0.0296 -1.7842 -3.4662
  729MOL0     H  585   5.944   4.819   1.183  0.4842  2.9522 -1.1170
  729MOL0     H  586   4.697   5.001   1.592 -0.1276  0.4755  0.3581
  729MOL0     H  587   4.626   5.057   1.822  0.4151 -2.0138  3.2059
  729MOL0     H  588   4.961   5.192   2.225  1.1370 -0.6378  1.2655
  729MOL0     H  589   4.970   5.284   2.464 -2.5952  1.4780  0.2671
  729MOL0     H  590   5.050   5.202   2.670 -0.4633 -0.8404 -0.3046
  729MOL0     H  591   4.933   5.346   2.687 -1.6427 -0.6666 -1.6367
  729MOL0     H  592   5.056   5.305   2.880 -0.4234  1.8409 -4.0829
  729MOL0     H  593   4.987   5.144   2.898  2.2229  1.7141  3.6855
  729MOL0     H  594   4.820   5.410   2.892  0.0383  1.2215  1.8150
  729MOL0     H  595   4.770   5.250   2.938  0.1091 -1.2690 -2.1682
  729MOL0     H  596   4.940   5.271   3.125  1.9593  0.7372  0.3003
  729MOL0     H  597   4.823   5.387   3.146 -0.3592 -0.9073  0.1503
  729MOL0     H  598   5.167   5.625   3.126 -0.1812  2.2684 -3.3104
  729MOL0     H  599   4.652   5.026   2.576  0.0035 -1.3011 -0.3387
  729MOL0     H  600   4.555   4.921   2.230 -2.3499  2.2365  0.8028
  729MOL0     H  601   4.628   4.814   2.352  0.8679 -0.1161 -1.7502
  729MOL0     H  602   4.506   4.938   2.394 -0.9491 -2.3337 -0.2366
  730MOL0     O  603   3.528   3.247   1.854 -0.3397  0.3531  0.4757
  730MOL0     C  604   3.546   3.339   1.768 -0.2114  0.6654  0.1688
  730MOL0     O  605   3.471   3.447   1.743  0.2647  1.5281 -0.1297
  730MOL0     C  606   3.373   3.480   1.834  0.3153  0.1777  0.4327
  730MOL0     C  607   3.284   3.407   1.914  0.8886  0.2405 -0.4177
  730MOL0     C  608   3.191   3.469   2.005  0.2158 -0.1102  0.1887
  730MOL0     C  609   3.179   3.609   2.016  0.4094  0.0043  0.4623
  730MOL0     O  610   3.083   3.665   2.088  0.2235 -0.0603  0.7640
  730MOL0     C  611   3.113   3.705   2.213 -1.0759  0.2223  0.9131
  730MOL0     C  612   3.177   3.592   2.303 -0.5825 -0.0442 -0.0215
  730MOL0     C  613   3.181   3.642   2.445  0.3039 -0.0807 -0.1459
  730MOL0     C  614   3.255   3.531   2.526  0.3410  0.3147 -0.5969
  730MOL0     C  615   3.224   3.548   2.673  0.2492 -0.3008  0.2553
  730MOL0     C  616   3.352   3.573   2.755 -0.4410  0.5203 -0.2782
  730MOL0     C  617   3.433   3.443   2.783  0.5823 -0.9318 -0.2076
  730MOL0     C  618   3.395   3.378   2.922 -0.2145  0.5128 -0.3476
  730MOL0     N  619   3.450   3.470   3.014 -0.3971 -0.0852  0.4464
  730MOL0     C  620   3.583   3.519   3.025  0.4524 -0.6611  0.0897
  730MOL0     C  621   3.583   3.606   3.125 -0.1550 -0.1210  1.3416
  730MOL0     C  622   3.705   3.691   3.171 -0.0948  0.3800 -0.0347
  730MOL0     C  623   3.785   3.651   3.297  0.0404  0.3071  0.3010
  730MOL0     C  624   3.695   3.643   3.418 -0.8285  0.2168 -0.5089
  730MOL0     C  625   3.782   3.667   3.542 -0.8486  0.9130  0.6197
  730MOL0     O  626   3.894   3.567   3.545  0.1960 -0.8164  0.4631
  730MOL0     C  627   3.991   3.580   3.642 -0.2837  0.0528  0.4202
  730MOL0     C  628   4.113   3.545   3.596  0.2970 -1.0498 -0.4838
  730MOL0     C  629   4.227   3.547   3.676 -0.4615 -0.0426 -0.4709
  730MOL0     C  630   4.354   3.496   3.615  0.5333 -0.6987 -0.3304
  730MOL0     C  631   4.217   3.602   3.806 -0.1671 -0.7465  0.3288
  730MOL0     C  632   4.319   3.609   3.915  0.6580 -0.6269  0.1901
  730MOL0     O  633   4.300   3.684   4.028  0.7955 -1.2511 -0.4969
  730MOL0     C  634   4.404   3.716   4.111 -0.2393  0.0444 -0.5880
  730MOL0     C  635   4.443   3.848   4.118  0.7333  0.3352 -0.4528
  730MOL0     C  636   4.547   3.894   4.197  0.3950 -0.0780  0.0221
  730MOL0     C  637   4.617   3.799   4.271 -0.4018  0.1479  0.2961
  730MOL0     O  638   4.723   3.832   4.351  0.0017  0.4404 -1.1700
  730MOL0     C  639   4.817   3.936   4.299  0.7857  0.7071 -0.2694
  730MOL0     C  640   4.945   3.912   4.378  0.2165 -0.3969 -0.3193
  730MOL0     C  641   5.070   3.960   4.310 -0.1577  0.3535 -0.7664
  730MOL0     C  642   5.191   3.916   4.394  0.0249 -0.3955 -0.5577
  730MOL0     C  643   5.320   3.941   4.318 -0.3511 -0.3436  1.4709
  730MOL0     C  644   5.436   3.943   4.417 -0.1254 -0.1149 -0.0971
  730MOL0     C  645   5.562   3.921   4.330  0.4832 -0.0103  0.6332
  730MOL0     C  646   5.687   3.976   4.392  0.2393 -0.6284 -0.3161
  730MOL0    Cl  647   5.828   3.884   4.311  0.8015  0.0022 -0.3092
  730MOL0     C  648   4.586   3.661   4.261  0.2510 -0.7255  0.0899
  730MOL0     C  649   4.485   3.625   4.180  1.0242  0.2069  0.4475
  730MOL0     O  650   4.426   3.548   3.893 -0.4858 -0.3922 -0.1845
  730MOL0     C  651   4.092   3.649   3.856  1.1730 -0.9316  0.8113
  730MOL0     C  652   3.979   3.640   3.769  0.4446  1.1398  0.5582
  730MOL0     N  653   3.465   3.585   3.194  1.2219 -0.4010  1.4155
  730MOL0     N  654   3.387   3.505   3.126 -0.8267 -0.5792  0.0545
  730MOL0     C  655   3.258   3.680   1.931 -1.3204 -0.6798  0.2259
  730MOL0     C  656   3.358   3.622   1.844  1.2343 -0.8498 -0.5306
  730MOL0     C  657   3.654   3.309   1.662 -0.0318 -0.1708 -0.4313
  730MOL0     C  658   3.632   3.346   1.526  0.5241 -0.0373 -0.0374
  730MOL0     C  659   3.730   3.329   1.427 -0.1965  0.1584 -0.9344
  730MOL0     C  660   3.860   3.281   1.462 -0.2599 -0.3856  0.3499
  730MOL0     O  661   3.948   3.282   1.354  0.0899 -0.2349 -0.1611
  730MOL0     C  662   4.081   3.238   1.361  0.1179  0.6595  0.2615
  730MOL0     C  663   4.127   3.229   1.220  0.4794  0.0897  0.1281
  730MOL0     C  664   4.100   3.361   1.137 -0.4230 -0.0705 -0.2263
  730MOL0     C  665   4.233   3.415   1.075 -0.3175 -0.0377  0.2240
  730MOL0     C  666   4.314   3.446   1.192  0.2290  0.8585 -0.5474
  730MOL0     C  667   4.354   3.503   1.292  0.5387  0.6281  0.1784
  730MOL0     C  668   3.888   3.251   1.594 -0.1822  0.2216 -0.4540
  730MOL0     C  669   3.788   3.261   1.693 -0.6897 -0.5717 -0.1391
  730MOL0     C  670   3.836   3.224   1.830  0.0593  0.5594 -0.1904
  730MOL0     H  671   3.278   3.301   1.890  0.9961  0.6565 -2.4513
  730MOL0     H  672   3.125   3.405   2.062  1.7528 -2.8030 -0.8366
  730MOL0     H  673   3.018   3.746   2.249 -1.9806  2.3832 -3.3571
  730MOL0     H  674   3.188   3.784   2.200  0.8186 -1.8273 -1.5167
  730MOL0     H  675   3.106   3.510   2.285 -2.7622  1.8394 -0.4856
  730MOL0     H  676   3.280   3.569   2.275 -0.3218  0.4549  0.5012
  730MOL0     H  677   3.229   3.738   2.466 -1.7544  0.9748 -0.0570
  730MOL0     H  678   3.076   3.641   2.474  0.6882 -0.8426  1.3236
  730MOL0     H  679   3.226   3.428   2.503 -4.2686  1.2868 -0.0292
  730MOL0     H  680   3.362   3.544   2.504  0.4363  0.8486  0.1598
  730MOL0     H  681   3.175   3.460   2.716  0.5039  0.0916  1.3991
  730MOL0     H  682   3.149   3.626   2.686 -0.5702 -1.0059 -0.1602
  730MOL0     H  683   3.410   3.647   2.700 -1.3383  2.4694  1.2773
  730MOL0     H  684   3.324   3.627   2.846 -4.7149  1.5041 -1.9227
  730MOL0     H  685   3.542   3.447   2.783  0.6657 -1.4859 -2.5050
  730MOL0     H  686   3.424   3.366   2.705  1.7971 -1.3023 -0.0075
  730MOL0     H  687   3.288   3.360   2.932  0.1132 -0.6221  1.6311
  730MOL0     H  688   3.439   3.279   2.937  2.7685  1.6885 -0.6557
  730MOL0     H  689   3.677   3.500   2.975  0.8576  0.8911  0.2328
  730MOL0     H  690   3.664   3.792   3.178  0.3640  0.6872 -1.4270
  730MOL0     H  691   3.777   3.697   3.089  0.2635 -0.4197  0.2097
  730MOL0     H  692   3.821   3.548   3.285 -0.0341  0.3451 -0.2871
  730MOL0     H  693   3.872   3.718   3.296  0.7906 -0.6467  0.4482
  730MOL0     H  694   3.608   3.708   3.409  0.0025  1.5350  0.5634
  730MOL0     H  695   3.655   3.541   3.418  0.9437 -0.5254 -1.8977
  730MOL0     H  696   3.829   3.765   3.536 -3.4718  2.2337  0.3893
  730MOL0     H  697   3.728   3.659   3.637 -0.3008  1.6334  1.0065
  730MOL0     H  698   4.128   3.509   3.494  0.5060  0.1322 -0.8776
  730MOL0     H  699   4.340   3.477   3.508  2.5646 -0.1269 -0.7328
  730MOL0     H  700   4.401   3.414   3.672  0.0833 -1.5592 -1.1658
  730MOL0     H  701   4.423   3.581   3.619  1.4477 -1.4402  0.2003
  730MOL0     H  702   4.381   3.923   4.070  1.0205  0.3247 -0.8449
  730MOL0     H  703   4.569   4.000   4.200  1.8645 -0.2912 -1.7874
  730MOL0     H  704   4.828   3.910   4.193  2.2679 -4.9678  0.9328
  730MOL0     H  705   4.788   4.041   4.310 -0.7594  0.2331  0.4985
  730MOL0     H  706   4.943   3.960   4.476 -1.3934 -1.3056  0.1260
  730MOL0     H  707   4.942   3.804   4.394 -2.0736 -0.2032  0.9414
  730MOL0     H  708   5.054   4.067   4.294 -1.5964  0.3805  0.5606
  730MOL0     H  709   5.075   3.918   4.209 -3.1572 -1.0381 -0.4580
  730MOL0     H  710   5.182   3.811   4.419  0.5151 -0.7509 -1.7705
  730MOL0     H  711   5.205   3.971   4.488 -2.6037  0.2885 -0.4975
  730MOL0     H  712   5.324   3.861   4.243 -1.1604 -1.0683  2.1665
  730MOL0     H  713   5.320   4.036   4.264  0.9481 -0.1725  1.7395
  730MOL0     H  714   5.426   3.862   4.489 -1.6228 -0.7681 -0.9952
  730MOL0     H  715   5.430   4.033   4.479  0.5143  1.4674 -2.2096
  730MOL0     H  716   5.542   3.956   4.228 -0.3906 -1.7008  0.1997
  730MOL0     H  717   5.567   3.812   4.323  1.5433 -0.0567  1.7123
  730MOL0     H  718   5.681   3.941   4.495 -0.5745  0.8135  0.1403
  730MOL0     H  719   5.695   4.085   4.395 -0.8324 -0.5668  2.2645
  730MOL0     H  720   4.649   3.586   4.308  0.7933 -0.9321 -0.9337
  730MOL0     H  721   4.456   3.520   4.176 -1.3954  0.8543 -0.7077
  730MOL0     H  722   4.068   3.685   3.955  2.1700 -0.4786  0.9014
  730MOL0     H  723   3.889   3.679   3.814 -1.1997  0.8358 -2.2079
  730MOL0     H  724   3.233   3.784   1.912 -3.1265 -1.1455 -0.1922
  730MOL0     H  725   3.407   3.687   1.771  0.5893  0.2505 -0.0117
  730MOL0     H  726   3.530   3.372   1.500  0.4562 -2.1068 -2.1139
  730MOL0     H  727   3.717   3.347   1.320 -0.2328 -1.5852 -1.2532
  730MOL0     H  728   4.146   3.308   1.413 -1.1005  0.8808  1.5251
  730MOL0     H  729   4.081   3.136   1.400  3.6319  1.6588  3.4482
  730MOL0     H  730   4.085   3.147   1.162 -0.3846 -0.2901  1.2580
  730MOL0     H  731   4.233   3.200   1.217  0.2201 -0.8424 -2.4491
  730MOL0     H  732   4.048   3.329   1.046  3.4873 -2.2126 -1.9616
  730MOL0     H  733   4.043   3.431   1.198 -2.8583 -1.5846 -0.6203
  730MOL0     H  734   4.224   3.517   1.036 -1.1415 -0.7646 -1.6100
  730MOL0     H  735   4.271   3.359   0.989  0.2532  1.2432 -0.3812
  730MOL0     H  736   4.396   3.553   1.377  0.6652  1.2279 -0.2230
  730MOL0     H  737   3.986   3.219   1.629 -0.4922 -0.6164 -0.3466
  730MOL0     H  738   3.832   3.119   1.858  2.3855  1.1246  2.8027
  730MOL0     H  739   3.938   3.261   1.847 -0.2053  2.2550 -1.9553
  730MOL0     H  740   3.778   3.285   1.900 -2.0881  0.1179 -1.4801
  731MOL0     O  741   6.341   4.736   8.085  0.8599  0.2678  0.0848
  731MOL0     C  742   6.333   4.613   8.073  0.1551  0.7237  1.1137
  731MOL0     O  743   6.279   4.526   8.162 -0.5586  0.3500  0.0967
  731MOL0     C  744   6.223   4.545   8.287  1.3509 -0.3572  0.3473
  731MOL0     C  745   6.177   4.434   8.358  0.4383 -0.2359  0.3298
  731MOL0     C  746   6.125   4.446   8.489  0.7827  0.4721 -1.0492
  731MOL0     C  747   6.133   4.568   8.551  0.3434  1.0408  0.1334
  731MOL0     O  748   6.110   4.588   8.683  0.2101  0.4837  0.2381
  731MOL0     C  749   6.008   4.513   8.749  0.1791 -0.2851  0.2764
  731MOL0     C  750   6.025   4.501   8.899 -0.0364  0.3307  0.5008
  731MOL0     C  751   5.996   4.632   8.958  0.0606  0.0407 -0.8436
  731MOL0     C  752   5.978   4.616   9.105 -0.0769 -0.7148 -0.8409
  731MOL0     C  753   6.011   4.747   9.170  0.3448  0.2173 -0.4284
  731MOL0     C  754   5.946   4.754   9.302 -0.3420  0.4082 -0.6893
  731MOL0     C  755   5.953   4.897   9.376  0.6823  0.3685 -0.2862
  731MOL0     C  756   6.092   4.946   9.415 -0.1733  0.0810  0.0583
  731MOL0     N  757   6.154   4.843   9.500  1.0004 -0.8195  0.6459
  731MOL0     C  758   6.258   4.766   9.454  0.1302  0.1591 -0.1515
  731MOL0     C  759   6.307   4.704   9.555  0.0739  0.0904 -0.1398
  731MOL0     C  760   6.428   4.614   9.535  1.0932 -0.9052  0.2997
  731MOL0     C  761   6.390   4.484   9.466  0.8447 -0.1569  0.1220
  731MOL0     C  762   6.279   4.418   9.546 -0.3156  0.0800 -0.7358
  731MOL0     C  763   6.317   4.362   9.693  0.5119 -0.5374 -0.6802
  731MOL0     O  764   6.444   4.307   9.704  0.1855 -0.6255 -0.1683
  731MOL0     C  765   6.476   4.195   9.636 -0.5141  0.9330  0.2075
  731MOL0     C  766   6.613   4.161   9.645 -0.4972 -0.2267 -0.1629
  731MOL0     C  767   6.661   4.039   9.591  0.0544  0.2753 -0.1449
  731MOL0     C  768   6.808   4.012   9.609  1.3289  0.7168  0.5302
  731MOL0     C  769   6.570   3.951   9.534 -0.1766 -0.0495 -0.8191
  731MOL0     C  770   6.605   3.813   9.475  0.2609  0.3654 -0.7222
  731MOL0     O  771   6.506   3.755   9.396 -0.8815 -0.1260 -0.5364
  731MOL0     C  772   6.498   3.626   9.351  0.5992 -0.0783  0.2792
  731MOL0     C  773   6.597   3.527   9.345  0.6147 -0.5622  0.8622
  731MOL0     C  774   6.573   3.400   9.284 -0.0275 -0.3669 -0.0209
  731MOL0     C  775   6.450   3.357   9.247  0.4044  0.8360  0.1742
  731MOL0     O  776   6.417   3.234   9.196 -0.3767  0.1131  0.1927
  731MOL0     C  777   6.503   3.124   9.233 -0.5162 -1.6914  0.6744
  731MOL0     C  778   6.573   3.066   9.121 -0.1308 -0.0381  0.2813
  731MOL0     C  779   6.501   2.971   9.022 -0.9456 -1.0504  0.8491
  731MOL0     C  780   6.587   2.912   8.905  0.1852 -0.2619 -0.4572
  731MOL0     C  781   6.659   2.792   8.949 -0.0945  0.5687 -0.2606
  731MOL0     C  782   6.566   2.669   8.967 -0.6409 -0.4591  0.1069
  731MOL0     C  783   6.648   2.549   8.998  0.3765 -0.2305  0.1878
  731MOL0     C  784   6.571   2.431   8.997  0.6005  0.2726  0.5889
  731MOL0    Cl  785   6.439   2.450   9.114  0.4296  0.0102 -0.2978
  731MOL0     C  786   6.348   3.456   9.258 -0.5680 -0.1225  0.6932
  731MOL0     C  787   6.370   3.586   9.303  0.5096 -0.8138 -0.6216
  731MOL0     O  788   6.712   3.758   9.501  0.0150 -0.1064  0.1543
  731MOL0     C  789   6.435   3.989   9.526 -0.1856 -0.4001 -0.4689
  731MOL0     C  790   6.386   4.101   9.585  0.2239 -0.3766 -0.5555
  731MOL0     N  791   6.249   4.748   9.666 -0.8374  0.1211 -0.0653
  731MOL0     N  792   6.160   4.839   9.637 -0.0321 -0.1425  0.1968
  731MOL0     C  793   6.157   4.678   8.468  0.0917 -0.2970 -1.3746
  731MOL0     C  794   6.206   4.666   8.340 -0.1491  0.9026  0.9611
  731MOL0     C  795   6.389   4.547   7.955 -0.0785  0.1055  0.5316
  731MOL0     C  796   6.308   4.360   7.931  0.2881  0.2827 -0.0025
  731MOL0     C  797   6.337   4.244   7.763  0.1620  0.2773 -0.7367
  731MOL0     C  798   6.456   4.317   7.606 -0.0848 -0.4969 -0.3239
  731MOL0     O  799   6.496   4.245   7.493  0.1848 -0.2042 -0.7242
  731MOL0     C  800   6.566   4.318   7.397 -0.4191  0.5088 -0.0728
  731MOL0     C  801   6.608   4.231   7.274 -0.8765 -0.7630  0.6156
  731MOL0     C  802   6.676   4.097   7.321 -0.8888 -0.0221  0.0479
  731MOL0     C  803   6.659   4.001   7.204 -1.0794  0.8807  0.0433
  731MOL0     C  804   6.714   3.869   7.240 -0.5010 -0.5559  0.7728
  731MOL0     C  805   6.757   3.762   7.278  0.5172  0.2506  0.7994
  731MOL0     C  806   6.543   4.517   7.620 -0.0759 -0.3792  0.4349
  731MOL0     C  807   6.512   4.630   7.799  0.8817  0.0234  0.2523
  731MOL0     C  808   6.567   4.768   7.806  0.2202 -0.3952 -0.0638
  731MOL0     H  809   6.180   4.342   8.299  1.0881 -0.1713  0.2629
  731MOL0     H  810   6.116   4.347   8.533  2.3808 -0.3827 -2.4877
  731MOL0     H  811   6.011   4.408   8.717  1.5097  0.2753 -1.6175
  731MOL0     H  812   5.908   4.554   8.729 -0.9515 -3.7737 -2.4026
  731MOL0     H  813   5.965   4.418   8.939  0.4878  0.1273  0.8737
  731MOL0     H  814   6.122   4.461   8.929 -1.6609 -4.2965  0.4355
  731MOL0     H  815   6.083   4.696   8.939 -1.0290  1.3192 -1.7403
  731MOL0     H  816   5.906   4.677   8.913 -0.2132 -1.0714 -1.4392
  731MOL0     H  817   5.877   4.587   9.135  0.8356 -0.4635  3.1228
  731MOL0     H  818   6.044   4.537   9.142 -2.5868 -2.0333  1.1954
  731MOL0     H  819   5.959   4.823   9.111  0.7233  2.3817  1.8367
  731MOL0     H  820   6.119   4.766   9.173  0.1824  1.1179  0.1478
  731MOL0     H  821   5.837   4.742   9.296 -0.4021  1.5710 -3.0173
  731MOL0     H  822   5.983   4.669   9.360  1.0637  0.8157 -0.9456
  731MOL0     H  823   5.900   4.898   9.472 -0.4883  0.8785 -0.9207
  731MOL0     H  824   5.911   4.974   9.311 -0.4368 -1.0004 -1.2366
  731MOL0     H  825   6.150   4.969   9.325  0.4460  0.6897  0.6016
  731MOL0     H  826   6.086   5.033   9.481  1.4938 -0.6058  1.1836
  731MOL0     H  827   6.291   4.758   9.351 -2.3505  3.5580 -1.4033
  731MOL0     H  828   6.477   4.580   9.627  3.9138 -1.9237 -1.4439
  731MOL0     H  829   6.501   4.666   9.472 -2.3069  1.5202 -1.9455
  731MOL0     H  830   6.343   4.503   9.370  0.0560  1.2486  0.7501
  731MOL0     H  831   6.471   4.411   9.456  0.4101 -0.4836 -1.1924
  731MOL0     H  832   6.184   4.472   9.546 -0.2040  0.2927  0.0012
  731MOL0     H  833   6.253   4.334   9.482  0.2163 -0.2925 -0.4738
  731MOL0     H  834   6.305   4.448   9.760  0.0351 -2.5218  1.9320
  731MOL0     H  835   6.245   4.286   9.722 -0.8362  1.0754  0.3490
  731MOL0     H  836   6.677   4.239   9.685  1.3160 -0.1971 -2.8540
  731MOL0     H  837   6.858   3.990   9.515  0.9956 -0.6580  0.6503
  731MOL0     H  838   6.827   3.925   9.672  1.5611 -0.2994 -0.8970
  731MOL0     H  839   6.863   4.101   9.643  1.7087  0.4937  0.5110
  731MOL0     H  840   6.696   3.560   9.374  1.2482 -2.5201  1.0724
  731MOL0     H  841   6.654   3.331   9.261 -0.8392 -1.2225 -0.3638
  731MOL0     H  842   6.576   3.149   9.311 -0.1258  0.3405 -0.2808
  731MOL0     H  843   6.425   3.057   9.271 -2.0820 -1.8007 -2.4516
  731MOL0     H  844   6.595   3.150   9.055  1.6731 -0.8085 -0.1459
  731MOL0     H  845   6.670   3.026   9.151  2.0523  1.2613 -4.1470
  731MOL0     H  846   6.415   3.021   8.977 -0.5160 -2.4862 -1.7702
  731MOL0     H  847   6.466   2.886   9.082 -0.1957 -1.0538  1.2962
  731MOL0     H  848   6.661   2.985   8.872  0.9852  0.3162  2.3596
  731MOL0     H  849   6.518   2.891   8.822  0.1202 -1.6734 -0.0772
  731MOL0     H  850   6.719   2.762   8.862 -0.0714 -1.3881  0.3816
  731MOL0     H  851   6.723   2.819   9.034 -2.5077 -1.9206  2.5700
  731MOL0     H  852   6.514   2.647   8.874 -0.8479 -4.0614  0.9390
  731MOL0     H  853   6.500   2.691   9.052  0.5144 -3.1830  1.8333
  731MOL0     H  854   6.696   2.558   9.096  0.5885 -1.3940  0.1993
  731MOL0     H  855   6.725   2.532   8.922  0.6184 -0.2494  0.4331
  731MOL0     H  856   6.627   2.340   9.020 -0.0889 -0.5510 -0.8661
  731MOL0     H  857   6.534   2.404   8.898  2.8813 -1.6455  0.1720
  731MOL0     H  858   6.254   3.414   9.223  0.2779 -1.9280  0.4991
  731MOL0     H  859   6.287   3.652   9.324  1.1602 -0.1500 -0.1019
  731MOL0     H  860   6.359   3.931   9.474 -3.8256  2.1155  1.5485
  731MOL0     H  861   6.279   4.118   9.592  0.1860 -1.0177  3.8276
  731MOL0     H  862   6.136   4.775   8.512 -1.1933 -1.6567  1.2672
  731MOL0     H  863   6.231   4.759   8.290  2.5827 -0.1874  0.0469
  731MOL0     H  864   6.230   4.318   7.994 -1.7152  0.7182 -2.0608
  731MOL0     H  865   6.296   4.143   7.764  1.5842 -0.3417  1.4527
  731MOL0     H  866   6.496   4.393   7.359 -0.2127  0.3502 -0.7725
  731MOL0     H  867   6.651   4.370   7.442  0.9237  0.0627 -1.9655
  731MOL0     H  868   6.679   4.283   7.208 -0.1786 -0.8118  1.3155
  731MOL0     H  869   6.518   4.208   7.217 -0.2981 -0.0614 -0.6316
  731MOL0     H  870   6.780   4.117   7.347 -0.2271  0.8300 -2.8739
  731MOL0     H  871   6.616   4.050   7.400  2.9906 -2.4965  1.8070
  731MOL0     H  872   6.704   4.039   7.112  0.1065 -1.8423 -0.5963
  731MOL0     H  873   6.555   3.978   7.182 -0.8080 -2.8528  1.8927
  731MOL0     H  874   6.788   3.670   7.322 -1.1344  0.4972  2.6402
  731MOL0     H  875   6.625   4.547   7.556 -0.5334  1.9713  0.8646
  731MOL0     H  876   6.557   4.801   7.909  2.6974 -1.9549  0.7654
  731MOL0     H  877   6.671   4.786   7.778 -0.1209  3.8290  0.7667
  731MOL0     H  878   6.507   4.829   7.738  1.9779  2.1728  0.5583
  732MOL0     O  879   1.197   0.513   3.858  0.6698  0.8347 -0.5436
  732MOL0     C  880   1.174   0.632   3.886 -0.5934  0.9717 -0.9385
  732MOL0     O  881   1.213   0.744   3.827  0.4895 -0.7593  0.0232
  732MOL0     C  882   1.298   0.723   3.719  1.6404 -0.1650  0.1850
  732MOL0     C  883   1.262   0.681   3.589  0.3621 -0.6231 -0.5897
  732MOL0     C  884   1.358   0.668   3.488  0.9390  0.5396 -0.8007
  732MOL0     C  885   1.494   0.699   3.513  0.3009 -0.3549 -0.4306
  732MOL0     O  886   1.585   0.692   3.418 -0.0315 -0.6401 -0.3632
  732MOL0     C  887   1.548   0.690   3.279  0.4165  0.3399  0.3303
  732MOL0     C  888   1.651   0.749   3.177 -0.0228 -0.6952 -0.1385
  732MOL0     C  889   1.612   0.748   3.030 -0.1634 -0.6174  0.8989
  732MOL0     C  890   1.733   0.727   2.942  0.3354  0.9985  0.1070
  732MOL0     C  891   1.701   0.709   2.791 -0.2791  1.0320 -0.7616
  732MOL0     C  892   1.666   0.832   2.722  0.0165 -0.5608 -0.5123
  732MOL0     C  893   1.640   0.820   2.570 -1.0038  0.2120  0.3981
  732MOL0     C  894   1.504   0.769   2.521 -0.1532 -0.0311  0.8962
  732MOL0     N  895   1.463   0.632   2.567 -0.9382 -0.3639  0.1253
  732MOL0     C  896   1.496   0.509   2.511 -0.0974 -0.5007 -0.2265
  732MOL0     C  897   1.416   0.415   2.580  0.3302  0.0682  0.5326
  732MOL0     C  898   1.424   0.269   2.563  0.3506 -0.7174 -0.1393
  732MOL0     C  899   1.377   0.241   2.428 -0.6872 -0.3339 -0.4801
  732MOL0     C  900   1.390   0.093   2.401 -0.1611 -0.1462  0.2563
  732MOL0     C  901   1.336   0.071   2.250  0.0295  0.5940 -0.7742
  732MOL0     O  902   1.368   0.159   2.140  0.1448 -0.1236  0.3911
  732MOL0     C  903   1.319   0.124   2.013  0.0127  0.2213 -0.7677
  732MOL0     C  904   1.231   0.019   1.978 -1.1611  0.4179 -0.1074
  732MOL0     C  905   1.174  -0.002   1.850  0.8470 -0.3878 -0.5399
  732MOL0     C  906   1.056  -0.110   1.835  0.3007  0.1140 -0.0007
  732MOL0     C  907   1.214   0.081   1.741  0.4371  0.1576 -0.4465
  732MOL0     C  908   1.159   0.078   1.600  0.1889 -0.1051 -0.7157
  732MOL0     O  909   1.134  -0.046   1.545 -0.1290  0.7360 -0.4234
  732MOL0     C  910   1.081  -0.039   1.418 -0.1345  0.0474  1.1719
  732MOL0     C  911   1.173  -0.019   1.311 -0.3530 -0.7550  0.1984
  732MOL0     C  912   1.132  -0.017   1.179 -0.7003  0.2851  1.6163
  732MOL0     C  913   0.994  -0.026   1.151  0.0721  0.0532 -0.4589
  732MOL0     O  914   0.956  -0.002   1.017  0.1335  1.0459 -0.6074
  732MOL0     C  915   0.826  -0.047   0.978 -0.3064 -0.8107 -0.0817
  732MOL0     C  916   0.822  -0.063   0.828 -0.5829  0.0515 -0.0207
  732MOL0     C  917   0.918  -0.171   0.771 -0.0012 -0.4408 -0.0021
  732MOL0     C  918   0.909  -0.176   0.614  0.6373 -0.4280 -0.3847
  732MOL0     C  919   0.983  -0.303   0.554  0.6920  0.4392 -0.2777
  732MOL0     C  920   0.981  -0.308   0.408 -0.1167 -0.0365  0.5220
  732MOL0     C  921   1.058  -0.185   0.351 -0.3179  0.5212  0.6019
  732MOL0     C  922   1.089  -0.204   0.203 -0.0825  0.4395  0.2499
  732MOL0    Cl  923   0.927  -0.175   0.135 -0.8328 -0.3380 -0.1503
  732MOL0     C  924   0.904  -0.051   1.261 -0.6701  0.7869  0.3907
  732MOL0     C  925   0.946  -0.064   1.394  0.1588 -0.6921  0.1825
  732MOL0     O  926   1.134   0.178   1.542  0.2837 -1.1614 -0.0908
  732MOL0     C  927   1.296   0.192   1.774  0.2707 -0.1507 -0.0315
  732MOL0     C  928   1.348   0.215   1.908  0.0481  0.1839  0.4558
  732MOL0     N  929   1.356   0.486   2.685 -0.4225 -0.2980  0.7803
  732MOL0     N  930   1.377   0.615   2.672  0.6078  0.1938 -0.6084
  732MOL0     C  931   1.526   0.739   3.643  0.5205 -0.6608 -0.9303
  732MOL0     C  932   1.433   0.749   3.748  0.5240  0.8177  0.1955
  732MOL0     C  933   1.103   0.631   4.012 -0.5512 -0.4348  0.2679
  732MOL0     C  934   1.019   0.749   4.040 -0.2439 -0.8017 -0.6655
  732MOL0     C  935   0.958   0.772   4.161  1.1566  1.1182 -0.5573
  732MOL0     C  936   0.968   0.677   4.263 -0.5381  0.3230 -0.5307
  732MOL0     O  937   0.918   0.706   4.389  0.4242 -0.2368 -0.1683
  732MOL0     C  938   0.920   0.841   4.445  1.2382 -0.4216 -0.4673
  732MOL0     C  939   0.769   0.870   4.426 -0.6729  0.1698  1.1157
  732MOL0     C  940   0.689   0.803   4.533 -0.6859 -0.7597  0.3048
  732MOL0     C  941   0.721   0.855   4.675 -0.1486  0.0820 -0.3610
  732MOL0     C  942   0.604   0.846   4.767  0.9083  0.3335 -0.1870
  732MOL0     C  943   0.512   0.816   4.842  0.4351  0.0048 -0.9468
  732MOL0     C  944   1.043   0.557   4.242  0.4781 -0.3321  0.9940
  732MOL0     C  945   1.114   0.536   4.119 -0.2035  0.3003 -0.9224
  732MOL0     C  946   1.206   0.413   4.111 -0.0771  0.6289  0.3543
  732MOL0     H  947   1.166   0.664   3.541 -0.1550 -0.3291  0.3242
  732MOL0     H  948   1.315   0.646   3.391  0.1063 -0.1649 -0.2938
  732MOL0     H  949   1.449   0.732   3.260  0.4380  0.4759  0.5180
  732MOL0     H  950   1.546   0.586   3.246 -2.7856  1.2278 -3.0049
  732MOL0     H  951   1.671   0.854   3.198 -2.6432 -0.3800  1.1403
  732MOL0     H  952   1.741   0.687   3.187  0.7729  0.4242 -0.2310
  732MOL0     H  953   1.539   0.671   3.005 -3.2842  2.3490  0.0391
  732MOL0     H  954   1.572   0.847   3.005  2.8572  0.4454 -0.1617
  732MOL0     H  955   1.806   0.807   2.959  0.9806  0.6079 -0.7615
  732MOL0     H  956   1.780   0.632   2.970 -3.6862 -1.4615 -0.6902
  732MOL0     H  957   1.621   0.635   2.785 -0.9737  1.3163  2.6729
  732MOL0     H  958   1.791   0.661   2.751 -0.4513  0.3310 -0.3347
  732MOL0     H  959   1.580   0.882   2.768  0.0377  1.8917 -2.8565
  732MOL0     H  960   1.750   0.902   2.734  1.9762 -2.1231 -3.6935
  732MOL0     H  961   1.717   0.758   2.522  0.1603  3.8492 -3.0233
  732MOL0     H  962   1.643   0.918   2.522 -1.8238 -0.6456 -1.4892
  732MOL0     H  963   1.425   0.840   2.549 -0.4903 -0.5648  1.3237
  732MOL0     H  964   1.506   0.782   2.412 -0.4340  1.6844  1.0571
  732MOL0     H  965   1.573   0.495   2.436  1.8077  0.3885  1.4855
  732MOL0     H  966   1.359   0.220   2.637  1.8358  0.0832  1.7937
  732MOL0     H  967   1.524   0.225   2.578 -1.0936 -4.3531 -0.0499
  732MOL0     H  968   1.275   0.281   2.424  0.7059  3.9674  0.7910
  732MOL0     H  969   1.443   0.288   2.355 -0.8847 -0.4000 -0.7032
  732MOL0     H  970   1.494   0.063   2.416  0.0239  0.3147 -0.0818
  732MOL0     H  971   1.327   0.036   2.470 -1.5171 -0.3417 -1.0983
  732MOL0     H  972   1.353  -0.034   2.222  0.6285 -0.4272  2.8630
  732MOL0     H  973   1.228   0.081   2.259  0.2441  2.2937  0.1719
  732MOL0     H  974   1.198  -0.044   2.060  1.3280  2.0604  2.3352
  732MOL0     H  975   1.038  -0.174   1.922 -0.7105  2.1472  1.3592
  732MOL0     H  976   1.074  -0.163   1.741  3.1881  0.2129  0.3974
  732MOL0     H  977   0.960  -0.058   1.842  0.1726 -0.3125  4.2303
  732MOL0     H  978   1.277  -0.024   1.341 -0.8396  3.2617  3.2812
  732MOL0     H  979   1.209  -0.000   1.105 -3.6957  0.2739 -1.8075
  732MOL0     H  980   0.808  -0.150   1.010  3.4624 -1.7804 -0.6975
  732MOL0     H  981   0.743   0.018   1.010 -1.2098 -0.9241 -2.0755
  732MOL0     H  982   0.718  -0.089   0.806 -0.5618 -0.1738  0.1436
  732MOL0     H  983   0.849   0.036   0.789 -0.6041  0.3462  0.6871
  732MOL0     H  984   0.879  -0.267   0.806 -0.2192 -0.6541 -0.8212
  732MOL0     H  985   1.020  -0.169   0.813 -0.7570  0.1601  1.9112
  732MOL0     H  986   0.961  -0.086   0.578 -1.6340  1.3208  0.4426
  732MOL0     H  987   0.806  -0.174   0.578  0.4847 -0.2849  0.0630
  732MOL0     H  988   1.083  -0.300   0.600  0.4000  0.6949  0.3428
  732MOL0     H  989   0.942  -0.400   0.583  1.0042  0.4216  0.1098
  732MOL0     H  990   0.879  -0.314   0.370  1.3437 -2.6576 -3.7310
  732MOL0     H  991   1.037  -0.400   0.387  1.1193 -0.0190  3.3023
  732MOL0     H  992   1.161  -0.179   0.386 -0.0914  0.2864 -0.0148
  732MOL0     H  993   1.010  -0.089   0.371  0.0282  1.5060 -2.7060
  732MOL0     H  994   1.113  -0.307   0.176  0.4414 -0.4580  3.6740
  732MOL0     H  995   1.167  -0.142   0.158  1.3815 -2.3749 -1.3744
  732MOL0     H  996   0.803  -0.065   1.223  0.5108 -1.9119 -2.2483
  732MOL0     H  997   0.864  -0.066   1.465 -0.9024 -2.4674 -0.9919
  732MOL0     H  998   1.318   0.257   1.690  1.1573 -0.1753  0.1648
  732MOL0     H  999   1.415   0.297   1.929  1.0975 -0.0610 -1.6859
  732MOL0     H 1000   1.626   0.768   3.673 -0.1567  0.5275  0.3167
  732MOL0     H 1001   1.462   0.789   3.845  2.2025  2.1761 -0.8318
  732MOL0     H 1002   0.999   0.824   3.964  0.9677 -0.6594 -0.8679
  732MOL0     H 1003   0.897   0.860   4.178  1.1994  0.7224  1.9786
  732MOL0     H 1004   0.960   0.849   4.546 -0.1826  1.2567  0.0126
  732MOL0     H 1005   0.992   0.908   4.395  1.2294  0.3339  0.5055
  732MOL0     H 1006   0.743   0.842   4.323 -1.2001  1.3002  0.9298
  732MOL0     H 1007   0.759   0.979   4.423  0.5472  0.3036  1.4030
  732MOL0     H 1008   0.592   0.848   4.512  0.4642  1.4383 -0.7099
  732MOL0     H 1009   0.682   0.694   4.524 -1.0725 -0.5857 -2.1565
  732MOL0     H 1010   0.751   0.960   4.675 -2.1911  0.7225  1.0673
  732MOL0     H 1011   0.802   0.790   4.711 -1.5327 -1.8314 -0.5721
  732MOL0     H 1012   0.431   0.804   4.911  0.9933  1.2025 -0.0607
  732MOL0     H 1013   1.045   0.475   4.314 -3.4617 -0.8292  0.7961
  732MOL0     H 1014   1.215   0.359   4.207 -2.5526 -0.2635  0.1600
  732MOL0     H 1015   1.181   0.330   4.044 -1.1663 -0.0498  1.5437
  732MOL0     H 1016   1.304   0.453   4.086 -0.1968  0.1682 -0.9524
  733MOL0     O 1017  11.538   3.102   9.635  0.1402  0.5081 -0.1453
  733MOL0     C 1018  11.551   3.220   9.607  0.9522 -0.3876 -0.0317
  733MOL0     O 1019  11.666   3.291   9.613 -0.4695 -0.1296  0.1872
  733MOL0     C 1020  11.776   3.238   9.679 -0.6923 -0.2958  0.2606
  733MOL0     C 1021  11.846   3.116   9.646  1.4112 -0.3797  0.0236
  733MOL0     C 1022  11.962   3.078   9.718 -0.3410  0.6473 -1.0582
  733MOL0     C 1023  11.999   3.145   9.835 -0.3461 -0.4442  1.0279
  733MOL0     O 1024  12.114   3.104   9.904 -0.0872  0.0363 -0.2384
  733MOL0     C 1025  12.096   2.968   9.959 -0.2820  0.6246  0.2290
  733MOL0     C 1026  12.189   2.954  10.081 -0.6203 -0.5775  0.1201
  733MOL0     C 1027  12.131   2.863  10.192 -0.4920 -0.0778 -0.1070
  733MOL0     C 1028  12.213   2.835  10.312 -0.1896 -0.9754  0.5387
  733MOL0     C 1029  12.148   2.729  10.401  0.8874  1.0969 -0.5155
  733MOL0     C 1030  12.174   2.582  10.349 -0.0239 -0.2460 -0.0734
  733MOL0     C 1031  12.114   2.469  10.437  0.2486 -0.1098  0.3461
  733MOL0     C 1032  12.214   2.425  10.540 -0.0587 -0.2091  0.4219
  733MOL0     N 1033  12.157   2.329  10.626 -0.0495 -0.1245 -0.3961
  733MOL0     C 1034  12.135   2.196  10.581  0.1304  0.0606  0.6675
  733MOL0     C 1035  12.071   2.153  10.688  1.3617 -0.4136 -0.0529
  733MOL0     C 1036  12.001   2.031  10.724 -0.1645 -0.1239 -0.5505
  733MOL0     C 1037  11.851   2.046  10.699 -0.7193 -0.0118  0.6971
  733MOL0     C 1038  11.770   1.914  10.737  0.2240 -0.5619  1.0919
  733MOL0     C 1039  11.620   1.936  10.747 -0.6704  0.1525  0.4941
  733MOL0     O 1040  11.544   1.879  10.637  0.0384 -0.7420 -0.0315
  733MOL0     C 1041  11.545   1.745  10.610 -0.1369 -0.3989 -0.4591
  733MOL0     C 1042  11.496   1.695  10.496 -0.0449  0.4490 -0.4598
  733MOL0     C 1043  11.504   1.562  10.449 -0.3957 -0.2813 -0.7641
  733MOL0     C 1044  11.429   1.538  10.319 -0.0359  0.3992  0.4294
  733MOL0     C 1045  11.563   1.471  10.538  0.8682  0.8454 -0.8629
  733MOL0     C 1046  11.542   1.318  10.521  0.5214  0.5532 -0.4533
  733MOL0     O 1047  11.603   1.239  10.619  0.0112 -0.6899 -0.3270
  733MOL0     C 1048  11.581   1.108  10.621 -1.0445  0.3535  0.0110
  733MOL0     C 1049  11.610   1.026  10.519  0.5325  1.5008 -0.3276
  733MOL0     C 1050  11.599   0.885  10.537  1.1175  0.3943 -0.8117
  733MOL0     C 1051  11.571   0.835  10.658 -0.0328  0.0518 -0.5268
  733MOL0     O 1052  11.587   0.698  10.669  0.2723 -0.4921 -0.1137
  733MOL0     C 1053  11.573   0.632  10.792 -0.7011 -0.0363  0.3390
  733MOL0     C 1054  11.598   0.482  10.757  0.2324  0.0180  0.3020
  733MOL0     C 1055  11.735   0.429  10.717 -0.3270  0.1835  0.6059
  733MOL0     C 1056  11.841   0.452  10.831 -0.3452 -0.5847  0.1318
  733MOL0     C 1057  11.980   0.395  10.802  0.4465  0.6665 -0.6480
  733MOL0     C 1058  12.086   0.417  10.908  0.0805  0.0006 -0.7979
  733MOL0     C 1059  12.232   0.407  10.845  0.3907 -0.3960 -0.9693
  733MOL0     C 1060  12.337   0.458  10.940 -0.0444  1.3033 -0.5615
  733MOL0    Cl 1061  12.382   0.338  11.065  0.1859  0.4115  0.1378
  733MOL0     C 1062  11.539   0.920  10.770  0.5127 -0.0158 -0.1711
  733MOL0     C 1063  11.549   1.056  10.750  0.9915  0.3215  0.0182
  733MOL0     O 1064  11.446   1.275  10.448 -0.6994  0.3559 -0.1321
  733MOL0     C 1065  11.614   1.515  10.666  0.6823 -0.3913 -0.3517
  733MOL0     C 1066  11.600   1.646  10.698 -0.5014 -0.1330 -0.0547
  733MOL0     N 1067  12.067   2.240  10.799 -0.1954 -0.4067  0.1310
  733MOL0     N 1068  12.114   2.349  10.754  0.4377 -0.0289 -0.1136
  733MOL0     C 1069  11.930   3.269   9.865 -0.0196 -0.0037 -0.8153
  733MOL0     C 1070  11.828   3.309   9.787 -0.5278  0.4912 -0.6272
  733MOL0     C 1071  11.435   3.300   9.553 -0.7079 -0.7118  0.8351
  733MOL0     C 1072  11.426   3.436   9.604 -1.1410 -0.2151  0.1921
  733MOL0     C 1073  11.328   3.524   9.556 -0.5866  0.4983  0.2847
  733MOL0     C 1074  11.227   3.463   9.467 -0.9704 -0.2061  0.1257
  733MOL0     O 1075  11.129   3.539   9.407  0.2681  0.1329 -0.4940
  733MOL0     C 1076  11.124   3.686   9.400 -0.1594  0.0893  0.3379
  733MOL0     C 1077  11.213   3.756   9.296  0.7900  0.6960 -0.1800
  733MOL0     C 1078  11.367   3.728   9.318  0.6656  0.7629  1.5366
  733MOL0     C 1079  11.434   3.829   9.228 -0.9924 -0.2740 -0.1018
  733MOL0     C 1080  11.578   3.819   9.251  0.2418 -0.6357  0.3066
  733MOL0     C 1081  11.698   3.820   9.258 -0.0376 -0.1961 -1.1815
  733MOL0     C 1082  11.248   3.340   9.407  0.9535 -0.4283  0.0892
  733MOL0     C 1083  11.352   3.257   9.450 -1.2398 -0.9557 -0.5606
  733MOL0     C 1084  11.359   3.124   9.376 -0.4338  0.5213  1.6111
  733MOL0     H 1085  11.803   3.070   9.557  1.9179 -1.2857  0.2356
  733MOL0     H 1086  12.022   2.993   9.686 -2.9269 -0.6873 -2.7657
  733MOL0     H 1087  12.128   2.888   9.893  0.8831 -1.5215  3.1876
  733MOL0     H 1088  11.993   2.948   9.990 -0.3492 -0.6425 -0.7645
  733MOL0     H 1089  12.286   2.917  10.049  0.0410  0.4265  0.8935
  733MOL0     H 1090  12.200   3.051  10.129  0.2214 -0.4307 -0.3595
  733MOL0     H 1091  12.036   2.903  10.230 -0.1513 -0.5935  1.3295
  733MOL0     H 1092  12.112   2.771  10.137  2.0118  0.2208 -1.5993
  733MOL0     H 1093  12.316   2.813  10.282  0.0310  1.2622 -0.6050
  733MOL0     H 1094  12.220   2.932  10.363  0.2376  0.2877 -1.7900
  733MOL0     H 1095  12.041   2.750  10.405  0.3790 -1.0920 -1.2455
  733MOL0     H 1096  12.184   2.752  10.502 -4.1692  4.7268  0.8335
  733MOL0     H 1097  12.126   2.578  10.250  0.9618 -0.2493 -0.5611
  733MOL0     H 1098  12.283   2.573  10.339  0.1651  2.2906 -1.2273
  733MOL0     H 1099  12.087   2.391  10.365 -1.6918 -0.9045  1.8538
  733MOL0     H 1100  12.019   2.499  10.481 -0.3583 -0.6009 -0.5841
  733MOL0     H 1101  12.313   2.397  10.502 -0.9880 -2.2451 -0.7059
  733MOL0     H 1102  12.241   2.513  10.599  2.6026 -1.1336  0.7618
  733MOL0     H 1103  12.161   2.148  10.487  1.5356 -0.1434  1.1440
  733MOL0     H 1104  12.019   1.998  10.827 -0.3834  1.8510  0.1630
  733MOL0     H 1105  12.038   1.958  10.651  0.8593  0.6126 -0.7852
  733MOL0     H 1106  11.812   2.132  10.754 -1.7338  0.8352 -1.2345
  733MOL0     H 1107  11.831   2.066  10.593 -0.5732 -2.6830  0.0906
  733MOL0     H 1108  11.795   1.833  10.668 -1.1301 -0.7340  0.7844
  733MOL0     H 1109  11.802   1.884  10.837  1.6558  1.1924  1.2293
  733MOL0     H 1110  11.589   1.906  10.848 -2.3959 -1.5375 -0.4534
  733MOL0     H 1111  11.609   2.044  10.734  1.5305  0.2548 -0.9659
  733MOL0     H 1112  11.463   1.765  10.420  0.3751  1.8533  0.6025
  733MOL0     H 1113  11.327   1.529  10.359  0.5233 -0.9063  1.6741
  733MOL0     H 1114  11.462   1.446  10.270 -2.6626 -0.0202 -0.7379
  733MOL0     H 1115  11.454   1.621  10.253 -1.9691 -1.5827 -3.0976
  733MOL0     H 1116  11.631   1.069  10.421  0.0352  3.2433  0.2905
  733MOL0     H 1117  11.598   0.816  10.454 -1.0552 -1.1763  0.4285
  733MOL0     H 1118  11.652   0.670  10.858 -0.3702  1.2913 -0.7953
  733MOL0     H 1119  11.473   0.642  10.836 -1.1742 -2.8071  0.1160
  733MOL0     H 1120  11.565   0.416  10.838  2.7031 -0.5782  0.8906
  733MOL0     H 1121  11.540   0.460  10.666  2.4076  0.1665 -1.2044
  733MOL0     H 1122  11.768   0.457  10.617  0.2928  2.0161  1.2765
  733MOL0     H 1123  11.726   0.321  10.706 -1.6944  0.3683 -0.4273
  733MOL0     H 1124  11.802   0.419  10.928  1.5254 -4.1887 -0.1860
  733MOL0     H 1125  11.845   0.561  10.841 -4.5005 -0.0787 -1.6694
  733MOL0     H 1126  11.980   0.287  10.782 -1.8509  0.0120  2.0652
  733MOL0     H 1127  12.005   0.440  10.706 -3.4676 -0.7012 -2.5047
  733MOL0     H 1128  12.066   0.340  10.984 -2.5235  1.0997 -0.2399
  733MOL0     H 1129  12.080   0.520  10.945 -0.8220  0.6732 -2.7174
  733MOL0     H 1130  12.223   0.461  10.751 -2.7126 -0.5854 -0.8860
  733MOL0     H 1131  12.252   0.304  10.815 -1.7845 -0.5414 -2.1163
  733MOL0     H 1132  12.307   0.551  10.989 -2.1629  0.9477 -1.1119
  733MOL0     H 1133  12.423   0.460  10.873 -0.6491  1.7986 -1.3324
  733MOL0     H 1134  11.518   0.880  10.868 -2.8636 -0.2461 -0.8687
  733MOL0     H 1135  11.530   1.122  10.834 -0.7357  3.3856 -2.5322
  733MOL0     H 1136  11.652   1.448  10.743 -2.3866 -1.1659  0.6216
  733MOL0     H 1137  11.647   1.681  10.789 -0.8578 -0.3509  0.2147
  733MOL0     H 1138  11.954   3.342   9.941  2.0556 -1.5879  0.1493
  733MOL0     H 1139  11.778   3.405   9.802  0.6050  0.9370  0.4549
  733MOL0     H 1140  11.489   3.463   9.688 -0.0562 -1.3457 -0.2278
  733MOL0     H 1141  11.322   3.623   9.600  0.1721  0.5986  0.1741
  733MOL0     H 1142  11.020   3.716   9.383 -0.0462 -0.0964 -0.7908
  733MOL0     H 1143  11.152   3.722   9.499  3.2775 -4.1834  1.2327
  733MOL0     H 1144  11.183   3.861   9.304 -2.2266 -0.0767  0.1599
  733MOL0     H 1145  11.183   3.712   9.201 -3.4552 -2.4662  2.2355
  733MOL0     H 1146  11.403   3.744   9.420  1.9951 -0.0720  1.2218
  733MOL0     H 1147  11.387   3.626   9.285 -0.8070  1.1649 -0.8957
  733MOL0     H 1148  11.416   3.930   9.267  3.1201  0.2025  0.9873
  733MOL0     H 1149  11.402   3.819   9.124 -1.3975 -2.0087  0.1526
  733MOL0     H 1150  11.805   3.830   9.264 -0.0247  0.4783 -2.3666
  733MOL0     H 1151  11.174   3.310   9.333  0.4943 -0.7773  0.6869
  733MOL0     H 1152  11.450   3.064   9.383 -2.0452 -2.7523 -1.8204
  733MOL0     H 1153  11.275   3.059   9.401  1.3080 -1.6197  2.2099
  733MOL0     H 1154  11.363   3.162   9.274  1.2332  2.6483  2.3881
  734MOL0     O 1155   3.750   3.413   9.861  0.4706 -0.5088 -0.2108
  734MOL0     C 1156   3.681   3.474   9.944 -0.5566 -0.1711  0.7599
  734MOL0     O 1157   3.551   3.441   9.967  0.4288 -0.2871 -0.3256
  734MOL0     C 1158   3.512   3.322   9.914  0.0366  0.4845  0.9046
  734MOL0     C 1159   3.406   3.332   9.816 -0.2982  0.4198 -0.1547
  734MOL0     C 1160   3.355   3.225   9.740 -0.5836 -0.1032  0.5982
  734MOL0     C 1161   3.400   3.099   9.780 -0.5424 -0.4687 -0.3715
  734MOL0     O 1162   3.370   2.990   9.701  0.1987 -0.8440 -0.8910
  734MOL0     C 1163   3.245   2.923   9.734 -0.6971 -0.0199  0.2685
  734MOL0     C 1164   3.260   2.835   9.866  0.0266 -0.3404  0.5701
  734MOL0     C 1165   3.137   2.751   9.880  0.6245  0.5649 -0.3972
  734MOL0     C 1166   3.122   2.664  10.007 -0.3705  0.3397  0.8816
  734MOL0     C 1167   2.990   2.583  10.027  0.0954  0.3432 -0.4934
  734MOL0     C 1168   2.989   2.488  10.148  0.8322 -0.1353 -0.2090
  734MOL0     C 1169   3.096   2.383  10.145  0.1550 -0.5137  0.0448
  734MOL0     C 1170   3.080   2.292  10.263 -0.2260  0.0673  0.4675
  734MOL0     N 1171   2.942   2.251  10.277 -0.1750  0.4767 -0.0753
  734MOL0     C 1172   2.895   2.140  10.209 -0.9004  0.7813  0.1738
  734MOL0     C 1173   2.777   2.116  10.270 -0.4352  0.3803 -0.2516
  734MOL0     C 1174   2.680   2.014  10.225  0.2671 -0.1389 -0.4506
  734MOL0     C 1175   2.696   1.885  10.310 -0.3791 -0.2916  0.7799
  734MOL0     C 1176   2.641   1.911  10.460 -0.1244 -0.8346  0.4158
  734MOL0     C 1177   2.649   1.781  10.549  0.1073 -0.0237 -0.3249
  734MOL0     O 1178   2.783   1.766  10.589  0.4691  0.4994  0.2973
  734MOL0     C 1179   2.826   1.770  10.720  0.2776  0.2898  0.5677
  734MOL0     C 1180   2.752   1.711  10.821 -0.1881  0.0657  0.5406
  734MOL0     C 1181   2.797   1.701  10.950  0.5204  1.5636  0.0628
  734MOL0     C 1182   2.694   1.622  11.039 -0.1147  0.6548  0.3890
  734MOL0     C 1183   2.904   1.779  10.992 -0.0674 -0.5750 -1.0008
  734MOL0     C 1184   2.950   1.794  11.125  0.1314 -0.9868  0.0338
  734MOL0     O 1185   3.084   1.822  11.143  0.0141 -0.1908 -0.6928
  734MOL0     C 1186   3.139   1.886  11.257 -0.1955 -1.0128  0.0019
  734MOL0     C 1187   3.089   2.005  11.307 -0.2114 -0.8014 -0.0182
  734MOL0     C 1188   3.136   2.067  11.419  0.7060 -0.3997 -0.5164
  734MOL0     C 1189   3.254   2.033  11.478 -1.0280  0.7395  0.1272
  734MOL0     O 1190   3.297   2.108  11.582  0.3896 -0.3403 -0.0550
  734MOL0     C 1191   3.393   2.053  11.667 -0.6097 -0.2389  0.2449
  734MOL0     C 1192   3.415   2.126  11.804 -0.3639 -0.2150  0.5859
  734MOL0     C 1193   3.289   2.132  11.891  0.2498 -0.7210  1.9311
  734MOL0     C 1194   3.319   2.183  12.033  0.3116 -0.0453  0.1127
  734MOL0     C 1195   3.200   2.176  12.128 -0.2733 -0.3304 -1.6513
  734MOL0     C 1196   3.082   2.270  12.120 -0.2607  0.0947 -0.6722
  734MOL0     C 1197   2.966   2.248  12.214  0.1416 -0.3032  0.4108
  734MOL0     C 1198   2.846   2.348  12.205 -0.0464 -0.0339 -0.6724
  734MOL0    Cl 1199   2.889   2.526  12.202 -0.0661  0.0943 -0.1830
  734MOL0     C 1200   3.307   1.909  11.432 -0.0912 -0.4013  0.2213
  734MOL0     C 1201   3.254   1.838  11.319  0.5550  0.3076 -0.1414
  734MOL0     O 1202   2.868   1.816  11.213 -0.4533 -0.3083 -0.3157
  734MOL0     C 1203   2.987   1.835  10.890  0.1226 -0.3374  0.1820
  734MOL0     C 1204   2.946   1.817  10.758  0.1500 -0.2170 -0.0762
  734MOL0     N 1205   2.756   2.204  10.371 -0.0394  0.3032  0.2620
  734MOL0     N 1206   2.847   2.287  10.374 -1.1456  0.2001  0.1339
  734MOL0     C 1207   3.485   3.081   9.895 -0.0750 -0.4230 -0.3356
  734MOL0     C 1208   3.546   3.189   9.963  0.7039  0.7102  0.4201
  734MOL0     C 1209   3.738   3.578  10.014 -0.4699 -0.1733  0.4054
  734MOL0     C 1210   3.741   3.709   9.957 -0.0598  0.0633 -0.2431
  734MOL0     C 1211   3.811   3.798  10.029  0.4254  0.1725  0.1152
  734MOL0     C 1212   3.888   3.766  10.141  0.7108 -1.4251 -0.4198
  734MOL0     O 1213   3.974   3.867  10.176  0.3495  0.1319  0.2879
  734MOL0     C 1214   4.023   3.890  10.298  0.4227  0.4115  0.5295
  734MOL0     C 1215   4.094   4.025  10.292  0.0351 -0.1095 -0.0926
  734MOL0     C 1216   4.237   4.024  10.232  0.0610  0.5225 -1.3788
  734MOL0     C 1217   4.347   4.017  10.345  0.5225 -0.3155 -0.9876
  734MOL0     C 1218   4.473   3.982  10.276  1.0704  0.3327 -0.5355
  734MOL0     C 1219   4.572   3.954  10.211  0.7309  1.2229  0.4020
  734MOL0     C 1220   3.883   3.637  10.191  0.2621 -0.7855 -0.2019
  734MOL0     C 1221   3.806   3.545  10.128 -0.0894  0.7917 -1.1739
  734MOL0     C 1222   3.809   3.406  10.189  0.0489  0.3271 -0.2237
  734MOL0     H 1223   3.369   3.431   9.792 -0.1141 -0.0493 -2.5676
  734MOL0     H 1224   3.298   3.240   9.649  1.6198  3.5298 -0.4037
  734MOL0     H 1225   3.225   2.846   9.659  2.5380  0.6160 -1.4265
  734MOL0     H 1226   3.159   2.990   9.726 -2.0305 -1.8659 -2.6681
  734MOL0     H 1227   3.346   2.768   9.851 -1.1859 -1.4671 -1.9623
  734MOL0     H 1228   3.269   2.898   9.955 -0.3078  0.0900  0.3013
  734MOL0     H 1229   3.052   2.819   9.885  1.7136  1.9195  0.2065
  734MOL0     H 1230   3.132   2.680   9.796  2.2793  0.0981 -0.1541
  734MOL0     H 1231   3.206   2.596  10.021 -1.2645 -1.3476 -1.2870
  734MOL0     H 1232   3.130   2.747  10.077  2.7810 -0.1748  1.2935
  734MOL0     H 1233   2.980   2.516   9.941 -2.0723 -0.6850  0.5001
  734MOL0     H 1234   2.899   2.643  10.034  1.4698  2.3440  2.1105
  734MOL0     H 1235   2.992   2.548  10.240 -1.5646 -1.4117  0.7969
  734MOL0     H 1236   2.885   2.454  10.146 -0.1069  2.5683 -0.9863
  734MOL0     H 1237   3.197   2.423  10.142 -0.1426  0.2075 -2.0866
  734MOL0     H 1238   3.084   2.325  10.053  1.8141 -2.4894  1.0018
  734MOL0     H 1239   3.148   2.207  10.254 -0.9058 -0.8920  3.3494
  734MOL0     H 1240   3.103   2.347  10.354 -0.8938  0.9736  0.1053
  734MOL0     H 1241   2.940   2.086  10.126 -0.8909 -1.4247  1.5605
  734MOL0     H 1242   2.707   1.986  10.123  2.8329 -3.5553  0.9496
  734MOL0     H 1243   2.580   2.058  10.219  0.9165  1.8827  1.7970
  734MOL0     H 1244   2.635   1.805  10.267  0.8896 -1.5235  1.1863
  734MOL0     H 1245   2.801   1.858  10.325  0.7028  2.5650 -0.7410
  734MOL0     H 1246   2.693   1.995  10.505 -0.4067 -1.3934  1.8730
  734MOL0     H 1247   2.541   1.955  10.460  1.3140  3.0961  3.7029
  734MOL0     H 1248   2.573   1.798  10.626  0.7937  1.1132  0.1295
  734MOL0     H 1249   2.621   1.691  10.493  3.4408  0.0689 -2.4359
  734MOL0     H 1250   2.653   1.677  10.794 -0.3624  1.3627 -0.5691
  734MOL0     H 1251   2.657   1.536  10.982 -0.2479 -0.2070  1.7334
  734MOL0     H 1252   2.614   1.692  11.062 -1.2034 -0.0999 -0.9101
  734MOL0     H 1253   2.748   1.593  11.130  0.8671  0.1438 -0.3274
  734MOL0     H 1254   2.997   2.042  11.262  0.8806 -0.2932 -1.9609
  734MOL0     H 1255   3.066   2.144  11.446  0.0114 -0.9972 -0.5852
  734MOL0     H 1256   3.366   1.951  11.695 -2.8722  0.0230 -0.8241
  734MOL0     H 1257   3.488   2.040  11.616 -0.9213  1.7977 -0.9720
  734MOL0     H 1258   3.492   2.067  11.854  2.2520  0.4868 -2.3223
  734MOL0     H 1259   3.462   2.223  11.783  2.3232 -1.4920  0.3259
  734MOL0     H 1260   3.261   2.027  11.889 -0.9617 -0.4851 -1.8698
  734MOL0     H 1261   3.206   2.193  11.854  2.8452  2.1720  0.3051
  734MOL0     H 1262   3.352   2.287  12.027 -0.9596  0.3398 -0.9010
  734MOL0     H 1263   3.389   2.119  12.087 -0.9608 -1.1970  0.4551
  734MOL0     H 1264   3.161   2.074  12.138 -1.2663  0.2040  0.7545
  734MOL0     H 1265   3.242   2.185  12.229 -0.4033 -4.5670 -1.0226
  734MOL0     H 1266   3.058   2.269  12.013  2.3651  0.9029 -1.3401
  734MOL0     H 1267   3.124   2.369  12.140  1.9004 -0.9478  0.2581
  734MOL0     H 1268   3.009   2.262  12.313  4.5301  1.6485 -1.4835
  734MOL0     H 1269   2.923   2.148  12.216  1.8200 -1.0360  1.6797
  734MOL0     H 1270   2.774   2.340  12.286 -0.3850  2.2582 -0.6845
  734MOL0     H 1271   2.812   2.323  12.104  1.1451 -0.9905 -0.8598
  734MOL0     H 1272   3.399   1.871  11.474  0.3722  0.8517  0.3953
  734MOL0     H 1273   3.302   1.743  11.295  0.6586  0.9732 -2.8151
  734MOL0     H 1274   3.086   1.879  10.903  1.5893 -1.3825 -5.1249
  734MOL0     H 1275   3.015   1.831  10.675  0.3609 -4.2206 -0.7931
  734MOL0     H 1276   3.526   2.983   9.918  2.3877  0.4203 -0.8096
  734MOL0     H 1277   3.627   3.179  10.034  2.6580  1.0591 -1.6538
  734MOL0     H 1278   3.682   3.723   9.868 -2.9494 -1.3554  1.3267
  734MOL0     H 1279   3.827   3.899   9.992  3.4933  0.2389  1.3269
  734MOL0     H 1280   3.938   3.896  10.367  1.0735 -0.7702  1.4690
  734MOL0     H 1281   4.093   3.814  10.335  0.5771  0.9524  1.3614
  734MOL0     H 1282   4.106   4.075  10.389  0.0171  1.3981 -0.8430
  734MOL0     H 1283   4.024   4.087  10.235  2.8210  1.9764 -1.4634
  734MOL0     H 1284   4.248   3.933  10.173  1.5892  0.0881 -0.4784
  734MOL0     H 1285   4.253   4.106  10.162 -1.8271  1.9218 -0.2624
  734MOL0     H 1286   4.308   3.939  10.411 -6.2365  3.5686  0.6193
  734MOL0     H 1287   4.368   4.109  10.400 -0.3896 -2.9268  4.3418
  734MOL0     H 1288   4.667   3.942  10.163  0.7463 -2.8121  1.0928
  734MOL0     H 1289   3.936   3.610  10.281  0.5717  0.2328 -0.0550
  734MOL0     H 1290   3.827   3.402  10.297  4.7013  0.2561 -0.7809
  734MOL0     H 1291   3.724   3.340  10.170  0.8254 -0.9548  0.5367
  734MOL0     H 1292   3.880   3.338  10.140  1.2390  3.5578 -3.4792
  735MOL0     O 1293   6.683   8.334   6.123 -0.2920 -0.8882  0.0324
  735MOL0     C 1294   6.705   8.452   6.115 -0.4602  0.1099 -0.3343
  735MOL0     O 1295   6.793   8.513   6.201 -0.1878  0.4762  0.2018
  735MOL0     C 1296   6.815   8.464   6.331 -0.3313 -0.5180 -0.7774
  735MOL0     C 1297   6.717   8.488   6.429  0.0934 -0.4117 -0.0850
  735MOL0     C 1298   6.739   8.443   6.560  0.1601 -1.0742 -0.1316
  735MOL0     C 1299   6.862   8.394   6.595 -0.4824  0.5080 -0.9478
  735MOL0     O 1300   6.887   8.363   6.732 -0.6223  0.3232 -0.6204
  735MOL0     C 1301   7.020   8.395   6.778  0.1595 -0.2066  0.5932
  735MOL0     C 1302   7.013   8.387   6.934 -0.2050  0.4211  0.1123
  735MOL0     C 1303   6.948   8.491   7.026 -0.1466  0.3418  0.9474
  735MOL0     C 1304   7.004   8.629   6.990 -0.9866  0.6165 -0.7272
  735MOL0     C 1305   6.970   8.742   7.085  0.2653  0.6876  0.1862
  735MOL0     C 1306   7.061   8.746   7.207  0.5227  0.4201  0.2076
  735MOL0     C 1307   7.046   8.875   7.298  0.2526  0.2766  0.3821
  735MOL0     C 1308   7.076   8.851   7.442 -0.0645  0.2420  0.0886
  735MOL0     N 1309   7.069   8.975   7.513 -0.0891  0.0785 -0.4015
  735MOL0     C 1310   7.168   9.072   7.520  0.7776  0.2726 -0.3289
  735MOL0     C 1311   7.098   9.179   7.575 -0.4756  0.1766 -0.7454
  735MOL0     C 1312   7.159   9.302   7.623 -0.0486  0.9341 -0.2080
  735MOL0     C 1313   7.249   9.293   7.751  0.5582 -0.5648  0.7389
  735MOL0     C 1314   7.258   9.434   7.825  0.3451  0.0182  0.8589
  735MOL0     C 1315   7.349   9.439   7.942  0.0611  0.7337 -0.5537
  735MOL0     O 1316   7.320   9.322   8.034  0.5027  0.5069 -0.7302
  735MOL0     C 1317   7.416   9.311   8.138  0.1934 -0.2130  0.9892
  735MOL0     C 1318   7.443   9.179   8.170 -0.2323 -0.2122  0.3734
  735MOL0     C 1319   7.534   9.136   8.270 -0.2265  0.0771  0.7357
  735MOL0     C 1320   7.556   8.983   8.273 -0.1632 -0.4324  0.1485
  735MOL0     C 1321   7.599   9.230   8.349 -0.1432 -0.3037 -0.3962
  735MOL0     C 1322   7.706   9.206   8.456  0.7183  0.7713  0.2641
  735MOL0     O 1323   7.702   9.081   8.506  0.2008  0.5070 -0.0613
  735MOL0     C 1324   7.777   9.057   8.612  0.1067 -0.2419 -0.1151
  735MOL0     C 1325   7.915   9.070   8.625 -0.0604 -0.1443  1.0164
  735MOL0     C 1326   7.978   9.047   8.748 -0.5214 -0.3163  0.0499
  735MOL0     C 1327   7.907   8.981   8.849  0.6435 -0.2735  0.4770
  735MOL0     O 1328   7.954   8.958   8.976 -0.4950  0.8319  0.2627
  735MOL0     C 1329   8.097   8.978   9.000  0.4749 -0.4060  0.3319
  735MOL0     C 1330   8.130   9.133   9.023  0.0684  0.1867 -1.0763
  735MOL0     C 1331   8.280   9.187   9.049 -0.5427 -0.7000  0.2642
  735MOL0     C 1332   8.300   9.341   9.054 -0.9028 -0.8061  0.1649
  735MOL0     C 1333   8.444   9.372   9.106 -0.2993 -0.3517  0.3424
  735MOL0     C 1334   8.549   9.376   8.978  0.9225  0.3296 -0.2499
  735MOL0     C 1335   8.691   9.343   9.009 -0.8360 -0.4580  0.0547
  735MOL0     C 1336   8.773   9.466   9.053  0.0162  0.0080  0.3486
  735MOL0    Cl 1337   8.776   9.604   8.936  0.1424 -0.3013  0.6254
  735MOL0     C 1338   7.771   8.949   8.827  0.0352 -1.1892  0.1967
  735MOL0     C 1339   7.706   8.990   8.711  0.1143  0.1010  0.8401
  735MOL0     O 1340   7.770   9.304   8.494 -0.0370  0.0479 -0.8038
  735MOL0     C 1341   7.571   9.370   8.311  0.3140 -0.4466 -0.5820
  735MOL0     C 1342   7.487   9.408   8.203  0.0925  0.8233  0.4832
  735MOL0     N 1343   6.966   9.151   7.609  0.0225  0.4176 -0.4728
  735MOL0     N 1344   6.956   9.027   7.564  0.2594  0.0415 -1.1832
  735MOL0     C 1345   6.964   8.382   6.496 -0.1262 -0.1765 -0.9667
  735MOL0     C 1346   6.944   8.414   6.365  0.0452  0.1783  0.0432
  735MOL0     C 1347   6.650   8.529   6.004  0.1688 -0.1539 -1.0608
  735MOL0     C 1348   6.730   8.639   5.958  0.6588  0.6573  0.5498
  735MOL0     C 1349   6.669   8.718   5.861  0.1894 -0.0212 -0.5329
  735MOL0     C 1350   6.545   8.685   5.803  0.8568 -0.0472  0.8536
  735MOL0     O 1351   6.497   8.775   5.698  0.7682  0.5522 -0.5191
  735MOL0     C 1352   6.439   8.712   5.582 -1.1286  0.6208  0.6285
  735MOL0     C 1353   6.292   8.722   5.603  0.3185 -0.2761 -0.2451
  735MOL0     C 1354   6.222   8.645   5.489  1.0068  0.4883  0.5400
  735MOL0     C 1355   6.068   8.629   5.523 -0.2926 -0.1844 -1.0195
  735MOL0     C 1356   6.004   8.513   5.468  0.5131 -0.1489 -0.8120
  735MOL0     C 1357   5.975   8.406   5.420 -0.5949  0.1519 -1.1908
  735MOL0     C 1358   6.473   8.577   5.842 -1.0300 -0.2061  0.5198
  735MOL0     C 1359   6.526   8.500   5.949  0.5815 -0.0445  0.3137
  735MOL0     C 1360   6.441   8.376   5.988  0.1905  0.2219  0.6634
  735MOL0     H 1361   6.621   8.524   6.395  0.4748 -0.2084 -0.9825
  735MOL0     H 1362   6.660   8.450   6.634 -2.6364  3.2574 -3.0577
  735MOL0     H 1363   7.048   8.495   6.744  0.1460 -1.3201 -3.1388
  735MOL0     H 1364   7.090   8.321   6.737  1.8024  1.0840  0.9720
  735MOL0     H 1365   6.968   8.289   6.951 -0.4960  0.5480  0.0884
  735MOL0     H 1366   7.113   8.382   6.979 -0.0814 -3.1634 -0.3082
  735MOL0     H 1367   6.839   8.482   7.030  0.0079 -3.1671  0.2457
  735MOL0     H 1368   6.986   8.465   7.125  2.8192  1.2303  0.1661
  735MOL0     H 1369   7.112   8.615   6.981 -1.0137  0.8644 -1.4857
  735MOL0     H 1370   6.979   8.664   6.889 -0.6826 -1.4488 -1.5709
  735MOL0     H 1371   6.864   8.725   7.110  0.4149 -1.3401 -0.3292
  735MOL0     H 1372   6.985   8.835   7.030  2.6308 -1.5117 -3.3017
  735MOL0     H 1373   7.037   8.654   7.261 -0.5796  1.2407  1.1491
  735MOL0     H 1374   7.162   8.749   7.165 -0.0873  3.8376 -1.3346
  735MOL0     H 1375   6.942   8.908   7.288 -0.1273 -0.9813  0.0299
  735MOL0     H 1376   7.116   8.947   7.254  0.8303 -0.2715  0.3958
  735MOL0     H 1377   7.002   8.786   7.489  0.1338  0.5739  0.8628
  735MOL0     H 1378   7.174   8.802   7.447 -0.8503 -1.4399 -0.2121
  735MOL0     H 1379   7.268   9.083   7.477  1.0759  3.2314  0.8788
  735MOL0     H 1380   7.079   9.377   7.630  3.2024  4.6036  1.8035
  735MOL0     H 1381   7.217   9.329   7.535  0.3907 -0.0211 -0.2288
  735MOL0     H 1382   7.206   9.225   7.825  2.7884  2.0153  4.7932
  735MOL0     H 1383   7.354   9.267   7.732  0.1476 -2.6253  1.0621
  735MOL0     H 1384   7.288   9.521   7.765  1.4376 -0.4170  0.7393
  735MOL0     H 1385   7.164   9.458   7.875  0.2387  3.8314 -0.7788
  735MOL0     H 1386   7.445   9.436   7.890 -2.4930  0.0550 -5.9136
  735MOL0     H 1387   7.335   9.535   7.991 -0.5371 -0.6787  2.2300
  735MOL0     H 1388   7.389   9.107   8.109  0.8224 -0.8293  0.1427
  735MOL0     H 1389   7.657   8.949   8.249 -0.7844 -1.1156 -1.6677
  735MOL0     H 1390   7.478   8.942   8.209 -1.7024  1.6483  0.5994
  735MOL0     H 1391   7.527   8.945   8.371 -2.0323 -0.5841 -0.4272
  735MOL0     H 1392   7.977   9.116   8.548  2.0236 -3.6479  0.3272
  735MOL0     H 1393   8.083   9.073   8.746 -0.3640 -0.8611 -2.8512
  735MOL0     H 1394   8.122   8.924   9.092  0.2377 -0.6611  0.2512
  735MOL0     H 1395   8.158   8.949   8.914  1.4985  2.6951 -0.1141
  735MOL0     H 1396   8.098   9.182   8.931 -1.6181 -0.0248 -0.6310
  735MOL0     H 1397   8.073   9.157   9.113  1.9874 -2.1942  0.9465
  735MOL0     H 1398   8.345   9.152   8.968  1.0260 -0.3563  1.3204
  735MOL0     H 1399   8.316   9.146   9.144  4.6383  0.6822 -0.7743
  735MOL0     H 1400   8.231   9.378   9.131 -0.0476 -3.2418  2.2399
  735MOL0     H 1401   8.283   9.390   8.957 -0.3808 -4.5170 -1.9770
  735MOL0     H 1402   8.433   9.469   9.155  2.2384  1.0222 -1.5303
  735MOL0     H 1403   8.483   9.305   9.183  0.9983  0.9418  0.8730
  735MOL0     H 1404   8.527   9.476   8.937  1.4301  0.8435  0.6957
  735MOL0     H 1405   8.518   9.297   8.909  0.2322  0.8165 -0.5214
  735MOL0     H 1406   8.736   9.297   8.921 -2.6211 -0.3874 -0.9411
  735MOL0     H 1407   8.684   9.267   9.088 -5.1186  1.0654  1.4457
  735MOL0     H 1408   8.876   9.432   9.062 -0.8497 -2.8201  0.4615
  735MOL0     H 1409   8.730   9.495   9.149  0.2501  0.8470  0.2085
  735MOL0     H 1410   7.716   8.924   8.917 -0.4706  1.0369  0.5515
  735MOL0     H 1411   7.601   8.967   8.699  0.0994  0.8555 -0.6024
  735MOL0     H 1412   7.616   9.454   8.363 -1.2340 -1.1353  2.0507
  735MOL0     H 1413   7.460   9.512   8.189 -0.1942  0.8909  1.4572
  735MOL0     H 1414   7.062   8.339   6.514 -0.6932 -0.9460  0.3958
  735MOL0     H 1415   7.007   8.401   6.277 -2.1084  0.1271 -1.5879
  735MOL0     H 1416   6.828   8.679   5.981  0.0754  2.1727  0.5137
  735MOL0     H 1417   6.718   8.810   5.832  2.4815  0.1785  3.2173
  735MOL0     H 1418   6.465   8.763   5.489  1.2505  0.8241  1.3397
  735MOL0     H 1419   6.465   8.607   5.570 -1.9400  0.7266 -3.3152
  735MOL0     H 1420   6.257   8.826   5.608  1.8078  0.2313  0.2721
  735MOL0     H 1421   6.255   8.672   5.693  0.1875 -2.8965 -1.6562
  735MOL0     H 1422   6.238   8.691   5.391  0.2803  2.5911  1.3567
  735MOL0     H 1423   6.255   8.543   5.467 -0.7994  0.0022 -0.1149
  735MOL0     H 1424   6.006   8.716   5.503  1.7258  1.0005 -2.4545
  735MOL0     H 1425   6.062   8.610   5.631 -3.0939  3.5305 -0.3303
  735MOL0     H 1426   5.962   8.302   5.398  1.4711  0.2216 -3.0670
  735MOL0     H 1427   6.384   8.548   5.787  0.0264 -1.9632 -0.3709
  735MOL0     H 1428   6.488   8.280   5.965 -0.9046  0.6806 -4.8049
  735MOL0     H 1429   6.402   8.387   6.090 -1.5526  1.2635 -0.0696
  735MOL0     H 1430   6.355   8.387   5.922  0.7752  4.5073  0.3607
  736MOL0     O 1431   8.732   1.646   5.078  0.9112 -0.8804 -0.5050
  736MOL0     C 1432   8.663   1.660   5.179 -0.2717 -0.8051  0.2953
  736MOL0     O 1433   8.602   1.559   5.256 -0.2137 -0.2817 -0.7725
  736MOL0     C 1434   8.637   1.433   5.226 -0.0958  0.6937 -0.7450
  736MOL0     C 1435   8.612   1.374   5.097 -0.0838 -0.6651  0.6154
  736MOL0     C 1436   8.668   1.255   5.074  0.0747  0.6237  0.0139
  736MOL0     C 1437   8.746   1.190   5.168  0.2380 -0.0889 -0.6444
  736MOL0     O 1438   8.810   1.078   5.127  0.6525  1.0156 -0.2811
  736MOL0     C 1439   8.828   0.972   5.227 -0.4017 -0.1194 -0.3465
  736MOL0     C 1440   8.880   0.839   5.173  1.3613  0.1882  0.0032
  736MOL0     C 1441   8.906   0.731   5.276 -0.3481  0.4311  0.4790
  736MOL0     C 1442   8.788   0.718   5.375 -0.2347  0.5220 -0.1752
  736MOL0     C 1443   8.784   0.571   5.424  0.0247  0.1361  0.2846
  736MOL0     C 1444   8.920   0.522   5.484 -0.0575 -0.4407  0.3438
  736MOL0     C 1445   8.909   0.369   5.513  0.0396  1.3479  0.3975
  736MOL0     C 1446   9.032   0.320   5.585  0.3173  0.0980  0.0765
  736MOL0     N 1447   9.165   0.368   5.527  0.3231  0.8733 -0.0753
  736MOL0     C 1448   9.202   0.331   5.402 -0.2067 -0.2368 -0.5854
  736MOL0     C 1449   9.308   0.404   5.371 -1.1429 -1.0216 -0.7369
  736MOL0     C 1450   9.377   0.399   5.243 -0.1316  0.3477  0.9031
  736MOL0     C 1451   9.512   0.313   5.250 -0.6224  0.3852  0.3253
  736MOL0     C 1452   9.599   0.338   5.132  0.3568  0.0864 -0.3944
  736MOL0     C 1453   9.576   0.240   5.016 -0.6209 -1.0480  0.4658
  736MOL0     O 1454   9.598   0.103   5.060  0.1810  0.4077 -0.2023
  736MOL0     C 1455   9.577   0.002   4.966  0.4071  0.0900 -0.5794
  736MOL0     C 1456   9.557   0.021   4.829 -0.1932 -0.7938  0.7357
  736MOL0     C 1457   9.551  -0.086   4.740  0.3729 -0.0332  0.1974
  736MOL0     C 1458   9.544  -0.042   4.586 -0.1846  0.3847 -0.0010
  736MOL0     C 1459   9.526  -0.217   4.794 -0.5280 -0.5659 -0.1172
  736MOL0     C 1460   9.515  -0.340   4.712 -0.0606  0.2251 -0.3809
  736MOL0     O 1461   9.520  -0.326   4.581 -0.4548 -0.3346  0.1035
  736MOL0     C 1462   9.592  -0.414   4.516 -0.1419  0.5883 -0.2992
  736MOL0     C 1463   9.733  -0.404   4.506 -0.2136  0.2542 -0.5913
  736MOL0     C 1464   9.806  -0.480   4.418 -0.2366  0.1061  0.0856
  736MOL0     C 1465   9.746  -0.577   4.344  0.5775 -0.4111  0.1362
  736MOL0     O 1466   9.803  -0.650   4.246 -0.8654  0.1383  0.5827
  736MOL0     C 1467   9.848  -0.576   4.135 -0.7196  0.5432 -0.5410
  736MOL0     C 1468   9.906  -0.674   4.030  0.1956  0.2484  0.3684
  736MOL0     C 1469   9.944  -0.598   3.892 -0.0776 -0.1640  0.1529
  736MOL0     C 1470   9.984  -0.714   3.797  0.2549 -0.4677 -0.9572
  736MOL0     C 1471   9.987  -0.673   3.656 -0.3902 -0.3761 -0.2488
  736MOL0     C 1472  10.038  -0.787   3.564  0.0235  0.1938 -0.0420
  736MOL0     C 1473   9.952  -0.910   3.548  0.5960  0.8435  0.4426
  736MOL0     C 1474   9.903  -0.958   3.413  0.4893  0.0444 -0.0062
  736MOL0    Cl 1475  10.023  -0.944   3.289  0.4697  0.3078 -0.2811
  736MOL0     C 1476   9.610  -0.605   4.367  0.5663  1.1088 -0.2183
  736MOL0     C 1477   9.533  -0.522   4.459 -0.1158  0.0275  0.2709
  736MOL0     O 1478   9.492  -0.450   4.773  0.2560 -0.1790  0.1058
  736MOL0     C 1479   9.532  -0.234   4.933  0.5084 -0.4551  0.5303
  736MOL0     C 1480   9.566  -0.125   5.015 -0.2610  1.0275 -0.2494
  736MOL0     N 1481   9.346   0.479   5.487 -0.4450 -0.4278 -0.2787
  736MOL0     N 1482   9.266   0.451   5.583  0.3248 -0.0598 -0.7809
  736MOL0     C 1483   8.758   1.252   5.294  0.6618  0.0389 -0.4431
  736MOL0     C 1484   8.705   1.367   5.325  0.8124  0.2710  0.8133
  736MOL0     C 1485   8.624   1.797   5.214 -1.1368 -0.2171  0.3265
  736MOL0     C 1486   8.499   1.819   5.272 -0.5704  0.5478  0.2474
  736MOL0     C 1487   8.458   1.951   5.307 -0.0206 -0.3800  0.1833
  736MOL0     C 1488   8.529   2.065   5.263 -0.1304  0.9526  1.1760
  736MOL0     O 1489   8.485   2.184   5.291  0.4511 -0.0644 -0.4296
  736MOL0     C 1490   8.532   2.302   5.225 -0.0706 -0.0537 -0.4069
  736MOL0     C 1491   8.660   2.365   5.279  0.1415 -1.0555  0.5381
  736MOL0     C 1492   8.731   2.471   5.196  0.2877 -0.6368  1.4324
  736MOL0     C 1493   8.646   2.597   5.166 -0.7615  0.0991 -0.1534
  736MOL0     C 1494   8.714   2.668   5.055 -0.3332 -0.1982  0.0052
  736MOL0     C 1495   8.760   2.735   4.962 -0.7241  0.1832 -0.9825
  736MOL0     C 1496   8.653   2.040   5.193 -0.2690 -0.4154  0.1622
  736MOL0     C 1497   8.704   1.911   5.178 -0.3652 -0.3422  0.2628
  736MOL0     C 1498   8.852   1.899   5.140  0.4384  0.0330 -0.5997
  736MOL0     H 1499   8.563   1.432   5.019 -0.9011 -0.6863  1.0935
  736MOL0     H 1500   8.663   1.204   4.979 -0.7713 -2.1539  1.4383
  736MOL0     H 1501   8.727   0.957   5.266 -0.5849 -0.7784 -1.0418
  736MOL0     H 1502   8.888   1.012   5.310  1.5052 -2.3482 -0.5471
  736MOL0     H 1503   8.801   0.790   5.116  1.2897 -0.5866  0.7507
  736MOL0     H 1504   8.969   0.847   5.109  2.9161  0.6932  2.1279
  736MOL0     H 1505   8.908   0.634   5.226 -1.0592 -1.2119  3.3954
  736MOL0     H 1506   9.002   0.750   5.325 -0.0916 -1.6455  0.8958
  736MOL0     H 1507   8.806   0.778   5.464  0.9248  0.0608 -0.0780
  736MOL0     H 1508   8.691   0.727   5.325 -0.3495 -1.1596 -0.3255
  736MOL0     H 1509   8.770   0.504   5.339 -1.9208  1.4797 -0.5339
  736MOL0     H 1510   8.696   0.559   5.488 -1.4334  1.5874 -1.3384
  736MOL0     H 1511   9.000   0.557   5.418 -0.9774  0.1939 -0.4686
  736MOL0     H 1512   8.931   0.573   5.579  1.4325 -1.1508  0.5895
  736MOL0     H 1513   8.914   0.308   5.422  1.6319  0.4033  1.0777
  736MOL0     H 1514   8.820   0.329   5.564  0.0995  0.0125 -0.4663
  736MOL0     H 1515   9.038   0.352   5.689 -1.7360 -0.1136  0.3123
  736MOL0     H 1516   9.025   0.211   5.582  1.8220 -0.0052 -1.1983
  736MOL0     H 1517   9.162   0.258   5.331 -0.0891 -0.6610 -0.2195
  736MOL0     H 1518   9.396   0.501   5.209  0.6360  0.2250  0.9326
  736MOL0     H 1519   9.307   0.349   5.175  1.1905 -0.7988  0.3114
  736MOL0     H 1520   9.570   0.336   5.340  0.0081  1.2679 -0.2798
  736MOL0     H 1521   9.480   0.210   5.269  0.8851  0.0587  1.2876
  736MOL0     H 1522   9.582   0.443   5.107 -1.4997  0.3973  1.7751
  736MOL0     H 1523   9.704   0.326   5.160 -0.0984 -1.2924  0.8612
  736MOL0     H 1524   9.475   0.261   4.980  0.1384 -0.1342 -1.2328
  736MOL0     H 1525   9.647   0.260   4.935 -0.6631  0.2088  0.7076
  736MOL0     H 1526   9.561   0.123   4.791 -0.3512  0.2261  3.2090
  736MOL0     H 1527   9.540   0.064   4.558 -3.6471  0.1357 -0.9727
  736MOL0     H 1528   9.447  -0.074   4.546  1.9268 -4.3694 -2.0392
  736MOL0     H 1529   9.621  -0.091   4.527 -1.1521  0.0470 -1.0191
  736MOL0     H 1530   9.786  -0.319   4.549  2.1945 -2.1777  1.6634
  736MOL0     H 1531   9.914  -0.470   4.411 -0.3098  2.2835  1.0837
  736MOL0     H 1532   9.765  -0.526   4.085 -1.2188 -1.3285 -1.7001
  736MOL0     H 1533   9.921  -0.499   4.161 -0.3702  0.6452 -1.7706
  736MOL0     H 1534   9.994  -0.733   4.057  1.5303  1.3868 -1.2915
  736MOL0     H 1535   9.818  -0.738   4.015 -0.5472  1.3124 -0.0209
  736MOL0     H 1536  10.025  -0.528   3.913 -0.0202  0.2411 -1.2941
  736MOL0     H 1537   9.856  -0.543   3.856  1.0450  0.9063 -1.0533
  736MOL0     H 1538   9.917  -0.800   3.800 -0.4293  0.0523 -1.3024
  736MOL0     H 1539  10.080  -0.748   3.838 -1.2318 -2.1395  1.4093
  736MOL0     H 1540   9.885  -0.635   3.641 -0.2095  0.8758  1.4116
  736MOL0     H 1541  10.055  -0.591   3.632 -1.0292 -0.0583 -1.0304
  736MOL0     H 1542  10.122  -0.828   3.622 -3.4868 -1.5921  4.4672
  736MOL0     H 1543  10.070  -0.753   3.466  1.5600  1.4817  0.8725
  736MOL0     H 1544   9.868  -0.908   3.617  0.5735  0.0696  0.4409
  736MOL0     H 1545  10.002  -1.000   3.584 -1.2453 -1.2659 -1.8661
  736MOL0     H 1546   9.822  -0.891   3.382  2.6468  2.3702 -0.9869
  736MOL0     H 1547   9.873  -1.063   3.412 -0.0776  0.2020 -1.1941
  736MOL0     H 1548   9.565  -0.676   4.299  2.5956  1.9104 -2.5514
  736MOL0     H 1549   9.427  -0.541   4.471 -0.9582  2.4048 -2.2927
  736MOL0     H 1550   9.530  -0.335   4.971  2.7667  0.0081  2.0173
  736MOL0     H 1551   9.572  -0.132   5.124 -0.7978  0.2756 -0.2627
  736MOL0     H 1552   8.816   1.204   5.372  3.3715 -0.2346 -2.4806
  736MOL0     H 1553   8.723   1.425   5.415 -0.1982  1.2069  0.4324
  736MOL0     H 1554   8.435   1.734   5.293 -2.0073  2.3413  3.9795
  736MOL0     H 1555   8.368   1.978   5.362  0.4975  1.1726  0.3155
  736MOL0     H 1556   8.540   2.272   5.120 -1.7571 -4.6533  0.5297
  736MOL0     H 1557   8.449   2.371   5.245  1.0209  1.4785 -1.0306
  736MOL0     H 1558   8.733   2.284   5.285  3.9767  1.8857 -1.8898
  736MOL0     H 1559   8.638   2.418   5.371  1.9374 -0.7366  0.8068
  736MOL0     H 1560   8.817   2.505   5.255 -1.4839  3.4522  2.0679
  736MOL0     H 1561   8.769   2.428   5.103  3.6595  0.6383  2.1010
  736MOL0     H 1562   8.644   2.664   5.253  2.5275  1.2764 -0.8534
  736MOL0     H 1563   8.547   2.564   5.132 -0.9025  2.2763 -2.1113
  736MOL0     H 1564   8.775   2.800   4.879 -0.7697 -0.6334 -1.6463
  736MOL0     H 1565   8.730   2.103   5.149  1.9965 -3.6766 -0.9088
  736MOL0     H 1566   8.905   1.989   5.173  0.9176  0.0559 -1.4045
  736MOL0     H 1567   8.893   1.811   5.188 -1.4950 -1.6018 -1.7646
  736MOL0     H 1568   8.861   1.887   5.032  0.8913 -1.3199 -0.4232
  737MOL0     O 1569   9.710   2.341   4.759  0.0052  0.4426 -0.0114
  737MOL0     C 1570   9.679   2.376   4.868  1.0128 -0.0128 -0.2833
  737MOL0     O 1571   9.604   2.308   4.959 -0.3928 -0.6703 -0.3655
  737MOL0     C 1572   9.532   2.194   4.909 -0.7975  0.7725 -0.8953
  737MOL0     C 1573   9.446   2.205   4.802 -0.3613 -0.1609  1.1433
  737MOL0     C 1574   9.368   2.112   4.747  0.9550 -0.7429  0.3463
  737MOL0     C 1575   9.352   1.993   4.815 -0.7675  0.6408  0.1427
  737MOL0     O 1576   9.278   1.889   4.776  0.0450  0.1851  0.1229
  737MOL0     C 1577   9.154   1.897   4.847 -0.3876 -0.7230  0.6753
  737MOL0     C 1578   9.090   1.761   4.846  0.1090  0.5308 -0.0960
  737MOL0     C 1579   9.157   1.670   4.946  0.4500  0.4027  0.0255
  737MOL0     C 1580   9.065   1.547   4.972  1.1028  0.7219 -0.9254
  737MOL0     C 1581   9.037   1.468   4.847 -0.1279  0.1651  0.4575
  737MOL0     C 1582   8.979   1.332   4.878 -1.1895  0.8264 -0.0656
  737MOL0     C 1583   9.056   1.237   4.972  0.1986 -0.6112 -1.1057
  737MOL0     C 1584   9.040   1.093   4.925 -0.4243 -0.0872  0.2690
  737MOL0     N 1585   9.114   1.045   4.809  0.1042 -0.5991  0.5606
  737MOL0     C 1586   9.238   1.012   4.801  0.5786  1.1937 -0.5389
  737MOL0     C 1587   9.257   0.952   4.673  0.4307 -0.9844 -0.6008
  737MOL0     C 1588   9.378   0.897   4.621  0.3560  0.8012 -0.8389
  737MOL0     C 1589   9.437   0.989   4.522  0.0200  0.8887  0.5022
  737MOL0     C 1590   9.583   0.979   4.493  0.4477 -0.6192  0.0937
  737MOL0     C 1591   9.639   1.112   4.433  0.0550  0.3111  0.5383
  737MOL0     O 1592   9.683   1.113   4.295  0.6239 -0.0167 -0.6384
  737MOL0     C 1593   9.587   1.065   4.208 -0.2025 -0.0268  0.2277
  737MOL0     C 1594   9.453   1.107   4.211 -1.1238 -0.1053  0.7148
  737MOL0     C 1595   9.357   1.038   4.140  0.4041 -0.4784  0.5096
  737MOL0     C 1596   9.201   1.073   4.168 -0.2667 -0.8422  0.4374
  737MOL0     C 1597   9.402   0.943   4.037  0.3164  0.2521  1.2273
  737MOL0     C 1598   9.316   0.874   3.929 -0.3714 -0.5228  0.8795
  737MOL0     O 1599   9.351   0.743   3.895 -0.0960 -0.4951  0.1020
  737MOL0     C 1600   9.278   0.685   3.792  0.5190 -0.8926 -0.1305
  737MOL0     C 1601   9.316   0.687   3.665  0.0367 -0.1773 -0.0098
  737MOL0     C 1602   9.234   0.643   3.563 -0.1592 -0.8635 -0.5237
  737MOL0     C 1603   9.104   0.596   3.593  1.0913 -0.0185  0.2443
  737MOL0     O 1604   9.015   0.542   3.499  0.7446 -0.0014 -0.6037
  737MOL0     C 1605   9.065   0.534   3.363  0.6333  0.7818 -0.1049
  737MOL0     C 1606   8.977   0.447   3.264 -0.3977  0.6101 -0.9677
  737MOL0     C 1607   8.966   0.302   3.326  0.5391  0.6785  0.7013
  737MOL0     C 1608   8.849   0.226   3.254 -0.8761  0.7912 -0.0131
  737MOL0     C 1609   8.870   0.222   3.099 -0.0843 -0.0648 -0.8261
  737MOL0     C 1610   8.788   0.112   3.021  0.7917  0.2575  0.3290
  737MOL0     C 1611   8.817   0.106   2.871  0.9508 -0.1771  0.1192
  737MOL0     C 1612   8.959   0.093   2.832 -0.4372 -0.4193  0.3522
  737MOL0    Cl 1613   8.977   0.035   2.663 -0.1593  0.2388 -0.0281
  737MOL0     C 1614   9.057   0.602   3.718 -0.0004 -0.8079 -0.8478
  737MOL0     C 1615   9.147   0.646   3.823  0.2357 -0.1718 -0.0602
  737MOL0     O 1616   9.234   0.942   3.865  0.1527 -0.1016 -0.1096
  737MOL0     C 1617   9.540   0.904   4.033  0.4684  0.3718 -0.0213
  737MOL0     C 1618   9.631   0.965   4.121 -0.0682 -0.1562  0.5263
  737MOL0     N 1619   9.131   0.956   4.614 -0.2953  0.3685  0.4517
  737MOL0     N 1620   9.053   1.015   4.688 -0.1460  0.0532  0.5717
  737MOL0     C 1621   9.438   1.971   4.934  0.6293 -0.8724 -0.0236
  737MOL0     C 1622   9.516   2.076   4.973  0.1964  0.8074 -0.3163
  737MOL0     C 1623   9.713   2.517   4.918  0.8485 -0.5559 -0.5620
  737MOL0     C 1624   9.650   2.569   5.035  0.1687 -0.1177 -0.3689
  737MOL0     C 1625   9.689   2.697   5.089 -0.1328  1.2016 -1.1555
  737MOL0     C 1626   9.778   2.777   5.030  0.0655 -0.0315  0.9825
  737MOL0     O 1627   9.806   2.896   5.087 -0.2736 -0.3198 -0.3618
  737MOL0     C 1628   9.920   2.954   5.041  0.4699  0.7176 -0.2475
  737MOL0     C 1629   9.952   3.080   5.138 -0.1246  0.0983 -0.4065
  737MOL0     C 1630   9.836   3.150   5.216  0.1791  0.2591 -0.0146
  737MOL0     C 1631   9.816   3.095   5.357  0.6485 -0.1133 -0.3996
  737MOL0     C 1632   9.737   3.176   5.447  0.3305 -0.2381  0.0220
  737MOL0     C 1633   9.670   3.246   5.533 -0.3918  0.0995 -0.4060
  737MOL0     C 1634   9.826   2.730   4.906 -0.3617  0.2981  0.3597
  737MOL0     C 1635   9.803   2.602   4.855  0.2910 -0.1166  0.0455
  737MOL0     C 1636   9.888   2.571   4.731 -0.3325 -0.4124 -0.1159
  737MOL0     H 1637   9.441   2.302   4.753  0.7255 -0.3640  0.6119
  737MOL0     H 1638   9.304   2.145   4.666 -1.8184  1.0833  3.0623
  737MOL0     H 1639   9.081   1.957   4.791  0.8285 -0.4818 -0.7198
  737MOL0     H 1640   9.163   1.933   4.950 -0.1587 -1.2577  0.8457
  737MOL0     H 1641   8.990   1.774   4.888  0.8041  0.5845  1.6302
  737MOL0     H 1642   9.097   1.722   4.744  1.2249  1.5170 -0.4159
  737MOL0     H 1643   9.258   1.636   4.921 -0.1350 -1.3466 -0.0901
  737MOL0     H 1644   9.173   1.719   5.042  1.1332 -1.5076  0.9366
  737MOL0     H 1645   9.130   1.487   5.036 -2.8635 -1.0047  1.9286
  737MOL0     H 1646   8.979   1.556   5.039  2.1474 -1.2222  0.8051
  737MOL0     H 1647   9.130   1.452   4.792  0.4716 -2.8640  2.1082
  737MOL0     H 1648   8.969   1.524   4.782  1.1874 -1.9172 -2.9691
  737MOL0     H 1649   8.881   1.339   4.924 -0.0788 -3.0123  3.5309
  737MOL0     H 1650   8.978   1.293   4.775 -0.5203  0.5787  0.0139
  737MOL0     H 1651   9.004   1.253   5.066 -0.8254 -3.4410 -1.0888
  737MOL0     H 1652   9.164   1.247   4.986  0.2257 -1.7930 -0.2348
  737MOL0     H 1653   9.069   1.035   5.013  0.4467  0.2879  0.2401
  737MOL0     H 1654   8.934   1.072   4.908 -0.1856 -2.2851  1.1826
  737MOL0     H 1655   9.321   1.025   4.869  1.4974  0.0418 -1.3805
  737MOL0     H 1656   9.362   0.797   4.581 -0.6300  1.5161 -2.2964
  737MOL0     H 1657   9.450   0.877   4.701  0.0761  0.8059 -0.5838
  737MOL0     H 1658   9.380   0.975   4.430 -0.3705  1.1488  0.6986
  737MOL0     H 1659   9.405   1.083   4.568  0.2171 -0.5251  3.8196
  737MOL0     H 1660   9.629   0.959   4.590  2.0072 -0.1402 -0.5138
  737MOL0     H 1661   9.606   0.893   4.429  1.9105 -0.2917  0.1362
  737MOL0     H 1662   9.582   1.200   4.462 -0.3232 -0.0751  0.9905
  737MOL0     H 1663   9.736   1.108   4.484  0.6444 -0.5699 -0.6118
  737MOL0     H 1664   9.424   1.190   4.275  0.8155  1.0650  0.1636
  737MOL0     H 1665   9.142   0.989   4.205 -1.0014 -0.5216 -0.0021
  737MOL0     H 1666   9.151   1.111   4.079  3.1387  0.1558 -1.2105
  737MOL0     H 1667   9.203   1.159   4.236  3.4185 -1.0802  0.8262
  737MOL0     H 1668   9.424   0.698   3.652  0.4041  2.4109  3.6377
  737MOL0     H 1669   9.273   0.630   3.463 -0.0788 -0.6512 -0.5190
  737MOL0     H 1670   9.068   0.637   3.328 -0.9956  0.9606  0.1798
  737MOL0     H 1671   9.162   0.484   3.375 -0.2267 -1.1129 -0.6467
  737MOL0     H 1672   8.882   0.501   3.261 -0.5055  0.4461 -0.6129
  737MOL0     H 1673   9.029   0.439   3.168 -2.6212 -2.7682 -2.0895
  737MOL0     H 1674   8.953   0.308   3.435 -2.3006 -1.2988  0.5956
  737MOL0     H 1675   9.062   0.256   3.304  1.2351  2.1302  0.5784
  737MOL0     H 1676   8.752   0.271   3.278  0.4695  1.9076  4.1309
  737MOL0     H 1677   8.860   0.127   3.300  3.3455  1.9869  2.0351
  737MOL0     H 1678   8.843   0.321   3.062  2.1484  0.4387 -1.2375
  737MOL0     H 1679   8.978   0.212   3.083  0.0762 -1.3019  0.7814
  737MOL0     H 1680   8.680   0.125   3.033 -0.0522 -3.1075 -2.1404
  737MOL0     H 1681   8.823   0.020   3.069  0.2821  0.2752  0.7467
  737MOL0     H 1682   8.776   0.195   2.823 -0.9459 -0.8735  0.3636
  737MOL0     H 1683   8.768   0.025   2.815 -1.2062  0.7279  0.5858
  737MOL0     H 1684   9.020   0.022   2.888  0.6278 -0.8902 -1.3269
  737MOL0     H 1685   9.002   0.193   2.846  0.4681 -0.6780 -0.5064
  737MOL0     H 1686   8.961   0.557   3.738  0.2543  0.0852  3.0753
  737MOL0     H 1687   9.108   0.651   3.924  1.1853 -1.6608  0.4213
  737MOL0     H 1688   9.584   0.828   3.970  0.4977  0.3830 -0.0143
  737MOL0     H 1689   9.735   0.935   4.119  0.6905  2.2665 -0.7785
  737MOL0     H 1690   9.441   1.869   4.970 -0.7576 -0.4521  1.4308
  737MOL0     H 1691   9.600   2.060   5.040  2.9483  1.0922 -3.4592
  737MOL0     H 1692   9.567   2.516   5.082 -0.1853  0.5732 -0.1949
  737MOL0     H 1693   9.642   2.742   5.176  2.9058 -1.3675  2.1103
  737MOL0     H 1694  10.001   2.883   5.023  1.9630  2.2880 -0.0936
  737MOL0     H 1695   9.893   2.995   4.943  0.9183  2.1341  0.1813
  737MOL0     H 1696   9.985   3.147   5.059 -0.3513  0.9689  0.2241
  737MOL0     H 1697  10.035   3.059   5.207  0.0037 -2.2338 -1.1804
  737MOL0     H 1698   9.861   3.256   5.223 -1.6030  0.8292 -1.2908
  737MOL0     H 1699   9.740   3.136   5.165 -1.2264  0.1715  2.4832
  737MOL0     H 1700   9.917   3.094   5.399 -0.3572 -0.1776  2.1873
  737MOL0     H 1701   9.777   2.993   5.361  0.8205 -0.1423  0.7854
  737MOL0     H 1702   9.616   3.298   5.609  5.7044  0.2783  4.5862
  737MOL0     H 1703   9.905   2.782   4.854  1.2977 -2.4795 -0.1229
  737MOL0     H 1704   9.911   2.465   4.719 -0.3763 -0.2439 -2.0663
  737MOL0     H 1705   9.822   2.590   4.645 -1.5873  0.6273  1.0259
  737MOL0     H 1706   9.981   2.628   4.725  0.1879 -1.1184  1.0401
  738MOL0     O 1707   8.168   6.702  10.625  0.2812 -0.5970  0.4558
  738MOL0     C 1708   8.168   6.673  10.747  0.0258  0.0723  0.6636
  738MOL0     O 1709   8.203   6.752  10.841 -0.0182 -0.1446 -0.6444
  738MOL0     C 1710   8.226   6.885  10.788 -0.6710  0.6940 -0.7103
  738MOL0     C 1711   8.355   6.915  10.747  0.2236  0.8674  0.2919
  738MOL0     C 1712   8.399   7.043  10.730  1.3100 -0.0336 -0.0014
  738MOL0     C 1713   8.305   7.147  10.738  1.1523 -0.1892  0.0675
  738MOL0     O 1714   8.322   7.276  10.700  0.0902  0.2995  0.2008
  738MOL0     C 1715   8.450   7.316  10.655 -0.7103 -0.5129 -0.1862
  738MOL0     C 1716   8.468   7.475  10.655 -0.2270  0.3899 -0.7740
  738MOL0     C 1717   8.616   7.508  10.607  0.3664  0.2719  0.4021
  738MOL0     C 1718   8.702   7.528  10.729 -0.9859 -0.3849 -1.8172
  738MOL0     C 1719   8.847   7.532  10.688  0.5349 -0.2035  0.7175
  738MOL0     C 1720   8.930   7.545  10.809 -0.6631 -0.0682 -1.3761
  738MOL0     C 1721   9.075   7.581  10.778  0.0557  0.0312  1.2822
  738MOL0     C 1722   9.162   7.582  10.908  0.5142  0.1749  0.7044
  738MOL0     N 1723   9.130   7.693  10.997  0.4365 -0.5095  0.2619
  738MOL0     C 1724   9.131   7.695  11.132 -0.4545 -0.9307  0.1047
  738MOL0     C 1725   9.177   7.820  11.164  0.1692  0.1792 -0.4176
  738MOL0     C 1726   9.191   7.857  11.310 -0.2147 -0.7533  0.1869
  738MOL0     C 1727   9.054   7.910  11.371  0.0720 -0.4998  0.2985
  738MOL0     C 1728   9.092   7.944  11.513 -0.1258  0.8072 -0.6678
  738MOL0     C 1729   8.977   8.010  11.591  0.2754 -0.8677 -0.5799
  738MOL0     O 1730   8.990   8.151  11.578  0.0433 -0.2901 -0.3829
  738MOL0     C 1731   9.075   8.227  11.644 -0.9405  0.8586  0.1770
  738MOL0     C 1732   9.149   8.183  11.754 -0.3041 -0.1488  0.5500
  738MOL0     C 1733   9.251   8.268  11.814  0.3121  1.6130 -0.6100
  738MOL0     C 1734   9.346   8.206  11.925  0.2915 -0.0884 -0.1653
  738MOL0     C 1735   9.263   8.405  11.775  0.5710 -0.0235 -0.0950
  738MOL0     C 1736   9.354   8.499  11.834  0.5245 -0.7771  0.2762
  738MOL0     O 1737   9.315   8.626  11.822 -0.5358  0.1891 -0.3085
  738MOL0     C 1738   9.395   8.723  11.874 -0.0969 -0.0298 -0.1666
  738MOL0     C 1739   9.454   8.727  12.001  0.6048  0.7889  0.5474
  738MOL0     C 1740   9.524   8.839  12.045 -0.4110  1.3064 -0.0748
  738MOL0     C 1741   9.545   8.954  11.971  0.6336  0.6794 -0.3793
  738MOL0     O 1742   9.618   9.063  12.002  0.3143 -0.1404  0.3729
  738MOL0     C 1743   9.653   9.077  12.145 -0.2975  0.1090  0.7466
  738MOL0     C 1744   9.800   9.019  12.142 -0.7147 -0.2116 -0.2626
  738MOL0     C 1745   9.839   9.003  12.286 -0.4531  0.3451  0.4533
  738MOL0     C 1746   9.996   8.967  12.295 -0.4436  0.0645 -0.6963
  738MOL0     C 1747  10.088   9.080  12.297 -0.0435 -0.1532 -1.7381
  738MOL0     C 1748  10.151   9.097  12.161  0.6700  0.2884  0.0086
  738MOL0     C 1749  10.278   9.013  12.132  0.8397 -0.0897 -0.9187
  738MOL0     C 1750  10.364   9.069  12.019  0.5370 -1.5039 -0.4319
  738MOL0    Cl 1751  10.515   8.972  12.010  0.1247 -0.4983 -0.0535
  738MOL0     C 1752   9.482   8.950  11.844  0.4038 -0.4910 -0.4768
  738MOL0     C 1753   9.399   8.838  11.804 -0.1359  0.6196 -0.1748
  738MOL0     O 1754   9.458   8.462  11.886 -0.1225  1.1836  0.7166
  738MOL0     C 1755   9.187   8.438  11.663 -0.2423  0.0268 -0.8740
  738MOL0     C 1756   9.091   8.354  11.601  0.9393  0.1983  0.0021
  738MOL0     N 1757   9.196   7.890  11.045 -0.3150  0.2629 -0.2908
  738MOL0     N 1758   9.177   7.813  10.948  0.3621 -0.2966 -0.0193
  738MOL0     C 1759   8.172   7.114  10.778 -0.2700  0.2929 -0.3479
  738MOL0     C 1760   8.140   6.986  10.805  0.2434 -0.3850 -1.2020
  738MOL0     C 1761   8.116   6.542  10.778 -0.1924  0.5026  0.2492
  738MOL0     C 1762   8.213   6.440  10.803 -0.0361  0.1302 -1.2225
  738MOL0     C 1763   8.177   6.311  10.829 -0.0853 -0.4675  1.8723
  738MOL0     C 1764   8.047   6.272  10.795 -0.4981  0.2014  0.7995
  738MOL0     O 1765   8.020   6.140  10.775 -0.3402 -0.2598 -0.1840
  738MOL0     C 1766   7.985   6.061  10.890  0.9834 -0.5954 -0.3849
  738MOL0     C 1767   7.998   5.919  10.853 -0.8282  0.2421  0.5606
  738MOL0     C 1768   7.945   5.820  10.953  0.0893  0.3652  0.3407
  738MOL0     C 1769   7.923   5.673  10.909 -0.7727 -0.5374 -0.6150
  738MOL0     C 1770   8.022   5.583  10.959 -0.5293 -0.4902 -0.1836
  738MOL0     C 1771   8.090   5.508  11.020  0.2416  0.6632  0.6018
  738MOL0     C 1772   7.945   6.365  10.756  0.7463  0.1377 -0.5788
  738MOL0     C 1773   7.983   6.500  10.751 -0.8433  1.0023  0.6507
  738MOL0     C 1774   7.879   6.600  10.692 -1.4131 -0.2898 -0.4174
  738MOL0     H 1775   8.417   6.826  10.745 -0.4783  0.3830 -1.2305
  738MOL0     H 1776   8.502   7.061  10.704  0.4849  3.1419 -1.6102
  738MOL0     H 1777   8.467   7.277  10.554 -0.1814 -4.3773  1.2218
  738MOL0     H 1778   8.516   7.277  10.733 -1.0180 -0.6650 -0.0001
  738MOL0     H 1779   8.394   7.519  10.587  1.1378  1.1220 -1.8318
  738MOL0     H 1780   8.433   7.519  10.749 -1.8077 -1.0798 -0.6198
  738MOL0     H 1781   8.652   7.433  10.535 -1.1936  0.1466 -0.3106
  738MOL0     H 1782   8.617   7.603  10.554  1.0911 -0.3800 -0.8058
  738MOL0     H 1783   8.674   7.622  10.779 -0.2645 -0.7786 -0.6387
  738MOL0     H 1784   8.697   7.445  10.800  0.0438  2.2139  1.5401
  738MOL0     H 1785   8.875   7.616  10.624 -0.9156 -1.5061 -1.7786
  738MOL0     H 1786   8.865   7.440  10.632 -4.0655 -0.4385 -0.8159
  738MOL0     H 1787   8.892   7.626  10.872  2.6458  1.9871 -1.7440
  738MOL0     H 1788   8.935   7.446  10.855  2.6181 -0.7152 -2.8433
  738MOL0     H 1789   9.091   7.678  10.729 -0.5501 -0.8865 -0.8688
  738MOL0     H 1790   9.100   7.495  10.715 -0.4384 -1.3666  2.9052
  738MOL0     H 1791   9.124   7.493  10.960 -1.7733  1.3601  1.1467
  738MOL0     H 1792   9.270   7.569  10.894  0.4390  1.9159 -1.9834
  738MOL0     H 1793   9.103   7.631  11.215 -0.2982 -1.3676 -0.1719
  738MOL0     H 1794   9.268   7.934  11.321 -0.2269 -0.2298 -2.8081
  738MOL0     H 1795   9.214   7.770  11.374 -1.0514  0.2914  1.9855
  738MOL0     H 1796   9.016   7.996  11.315  0.1005 -1.4017 -1.1671
  738MOL0     H 1797   8.976   7.833  11.368 -1.3268  0.8594  0.5749
  738MOL0     H 1798   9.121   7.854  11.569  0.5164  1.6908  0.4441
  738MOL0     H 1799   9.165   8.025  11.512 -0.9124  1.8531  3.8409
  738MOL0     H 1800   8.875   7.982  11.559  0.3657  1.2197 -3.0988
  738MOL0     H 1801   9.004   7.981  11.692  1.7098  1.7983 -0.1094
  738MOL0     H 1802   9.129   8.085  11.798 -3.2779  0.8455  1.6931
  738MOL0     H 1803   9.443   8.180  11.882  0.8339 -0.6188  1.3423
  738MOL0     H 1804   9.297   8.116  11.962 -1.4187  1.3946  1.4629
  738MOL0     H 1805   9.340   8.279  12.007  0.5132 -1.3143  0.9644
  738MOL0     H 1806   9.452   8.641  12.066 -1.9892  0.5721  0.2583
  738MOL0     H 1807   9.593   8.829  12.128  0.8127  1.7126 -1.0094
  738MOL0     H 1808   9.661   9.179  12.183  2.6089  0.1681  0.2576
  738MOL0     H 1809   9.581   9.028  12.209 -1.5523  1.3213  0.3138
  738MOL0     H 1810   9.813   8.924  12.091  2.5571 -0.0952  0.1086
  738MOL0     H 1811   9.864   9.095  12.097  0.4392 -0.7958  0.3419
  738MOL0     H 1812   9.790   8.918  12.335  1.1389 -0.8331  0.1031
  738MOL0     H 1813   9.813   9.086  12.352 -0.2136 -0.0472  1.0596
  738MOL0     H 1814  10.030   8.885  12.230  2.7261  0.0539  0.7661
  738MOL0     H 1815   9.991   8.925  12.396 -1.6860  1.9172  0.0527
  738MOL0     H 1816  10.024   9.166  12.319 -0.7508 -1.3416  1.3206
  738MOL0     H 1817  10.160   9.068  12.378 -0.5563  0.9946 -1.0958
  738MOL0     H 1818  10.189   9.200  12.158  3.9985 -0.8096 -0.6107
  738MOL0     H 1819  10.071   9.085  12.088  1.3801 -0.1861 -0.7115
  738MOL0     H 1820  10.254   8.906  12.120  1.0925 -0.5826  2.2250
  738MOL0     H 1821  10.335   9.013  12.225  2.7664 -0.1333 -2.0395
  738MOL0     H 1822  10.383   9.175  12.041  0.5535 -0.7721 -3.5550
  738MOL0     H 1823  10.303   9.074  11.929 -3.4077 -3.4898  1.8657
  738MOL0     H 1824   9.499   9.037  11.781 -0.3541 -0.4479 -0.6372
  738MOL0     H 1825   9.329   8.842  11.721 -1.3752 -0.5716  0.7721
  738MOL0     H 1826   9.197   8.541  11.631  2.4048 -0.0282 -0.4424
  738MOL0     H 1827   9.032   8.389  11.517 -1.8676 -1.2285  1.2273
  738MOL0     H 1828   8.092   7.187  10.785 -0.5473  0.0703 -1.1081
  738MOL0     H 1829   8.043   6.948  10.832  2.3004 -4.0257  2.0692
  738MOL0     H 1830   8.319   6.462  10.811 -0.0833  0.3026 -1.0656
  738MOL0     H 1831   8.263   6.247  10.846 -0.1643 -0.9357  0.5985
  738MOL0     H 1832   8.040   6.071  10.984  1.1552 -1.3963 -0.3922
  738MOL0     H 1833   7.880   6.082  10.912  1.4061  1.1656  0.0925
  738MOL0     H 1834   8.105   5.903  10.836 -1.0385  0.5214 -1.1921
  738MOL0     H 1835   7.936   5.910  10.764 -0.0679  0.3166  0.0073
  738MOL0     H 1836   8.002   5.818  11.046  3.5001  3.3239 -1.3950
  738MOL0     H 1837   7.844   5.850  10.983  1.0295  2.2157  1.8623
  738MOL0     H 1838   7.927   5.682  10.800  1.7957 -2.4156 -0.7708
  738MOL0     H 1839   7.825   5.635  10.940 -0.3903 -0.2610  0.9828
  738MOL0     H 1840   8.165   5.442  11.059 -0.1393  1.6122  3.1809
  738MOL0     H 1841   7.846   6.335  10.724  0.6635  0.3095 -0.4838
  738MOL0     H 1842   7.831   6.557  10.604 -2.1468 -0.6683  0.1557
  738MOL0     H 1843   7.795   6.620  10.759  0.1397  1.6150  1.1190
  738MOL0     H 1844   7.917   6.700  10.669 -3.6329  1.0226  1.2212
  739MOL0     O 1845   2.977   4.642   6.606 -0.3131  0.1477  0.1838
  739MOL0     C 1846   2.920   4.747   6.582 -0.0949 -0.2249  0.2462
  739MOL0     O 1847   2.933   4.866   6.655  0.6158  0.3881  0.5581
  739MOL0     C 1848   3.042   4.884   6.740  0.7221 -0.5722  0.8163
  739MOL0     C 1849   3.099   5.010   6.737 -0.6840 -0.1988  0.1711
  739MOL0     C 1850   3.206   5.046   6.821 -0.1133 -0.6918  0.1885
  739MOL0     C 1851   3.259   4.949   6.902 -0.2151 -0.7414  0.3653
  739MOL0     O 1852   3.360   4.984   6.990  0.0170  0.2388 -0.4429
  739MOL0     C 1853   3.476   4.895   6.976 -0.0580 -0.5962  1.0444
  739MOL0     C 1854   3.569   4.912   7.088  0.5465  0.3809 -0.7049
  739MOL0     C 1855   3.615   5.062   7.093  0.0521 -0.4942  0.9519
  739MOL0     C 1856   3.732   5.070   7.192 -1.1982  0.2604 -0.1591
  739MOL0     C 1857   3.860   4.989   7.140 -0.0089  0.1786  0.3819
  739MOL0     C 1858   3.976   5.031   7.225 -0.5127 -1.3362 -0.4080
  739MOL0     C 1859   4.100   4.965   7.205 -0.4183  0.8756 -0.7580
  739MOL0     C 1860   4.101   4.804   7.213 -1.0743 -0.1175 -0.1911
  739MOL0     N 1861   4.228   4.739   7.186 -0.2794  0.7970  0.6131
  739MOL0     C 1862   4.333   4.743   7.277 -0.0048 -0.6583  0.6303
  739MOL0     C 1863   4.436   4.687   7.204  1.2561  0.2573 -0.0434
  739MOL0     C 1864   4.572   4.696   7.258 -0.1051 -0.2119  0.6355
  739MOL0     C 1865   4.625   4.552   7.260  0.1676 -0.3189  0.8507
  739MOL0     C 1866   4.759   4.529   7.333  1.0657  0.4079 -0.0194
  739MOL0     C 1867   4.810   4.392   7.297 -0.6158  0.1384 -0.0639
  739MOL0     O 1868   4.711   4.292   7.259 -0.0515  0.0938 -0.5007
  739MOL0     C 1869   4.711   4.227   7.137  0.7614 -0.2238 -0.2858
  739MOL0     C 1870   4.779   4.274   7.023 -0.5036 -0.3326  0.7248
  739MOL0     C 1871   4.780   4.206   6.902  0.0472 -1.1997  0.0421
  739MOL0     C 1872   4.839   4.285   6.780  0.6381 -0.2677  0.2292
  739MOL0     C 1873   4.714   4.084   6.897 -0.4456  0.2305  0.0906
  739MOL0     C 1874   4.734   4.008   6.770 -0.9983  0.0829  0.3394
  739MOL0     O 1875   4.846   4.027   6.688 -0.3853 -0.2667 -0.5147
  739MOL0     C 1876   4.836   3.958   6.571  0.0764 -0.2732 -0.3577
  739MOL0     C 1877   4.778   4.015   6.462  0.1254  0.1846  0.3561
  739MOL0     C 1878   4.788   3.959   6.332  0.3670  1.4027 -0.0476
  739MOL0     C 1879   4.854   3.820   6.316  0.5280 -1.0675 -1.0146
  739MOL0     O 1880   4.843   3.760   6.202  0.2301  0.1032  0.5480
  739MOL0     C 1881   4.928   3.653   6.160 -0.1395 -0.2148 -0.6939
  739MOL0     C 1882   4.944   3.666   6.006 -0.1002 -0.1085 -0.1007
  739MOL0     C 1883   5.055   3.574   5.960 -0.8593  0.8491  1.0484
  739MOL0     C 1884   5.104   3.605   5.810 -0.4022  0.3997  0.4228
  739MOL0     C 1885   5.239   3.545   5.754  0.2437 -0.3097 -0.3400
  739MOL0     C 1886   5.256   3.564   5.602  0.0031  0.0616 -0.0057
  739MOL0     C 1887   5.242   3.704   5.561 -0.1785  0.8435  1.5240
  739MOL0     C 1888   5.338   3.798   5.637 -0.1676  0.9547 -0.8631
  739MOL0    Cl 1889   5.505   3.751   5.607  0.1393 -0.1533 -0.2479
  739MOL0     C 1890   4.904   3.765   6.445 -0.3721 -0.2424  0.5619
  739MOL0     C 1891   4.888   3.829   6.564 -0.3854  0.2925  0.0582
  739MOL0     O 1892   4.644   3.942   6.741 -0.8485 -0.0684 -0.4342
  739MOL0     C 1893   4.624   4.045   7.004 -1.4902  0.1630 -1.1517
  739MOL0     C 1894   4.625   4.116   7.128  0.0948 -0.2003 -0.3034
  739MOL0     N 1895   4.389   4.659   7.080 -0.0157  0.4773  0.1869
  739MOL0     N 1896   4.273   4.693   7.066 -0.2525 -0.3514  0.2396
  739MOL0     C 1897   3.193   4.826   6.917  0.7835 -0.6494  0.5666
  739MOL0     C 1898   3.099   4.787   6.817  0.7196 -0.0656 -0.2285
  739MOL0     C 1899   2.826   4.744   6.464 -1.3531 -0.1460  1.0180
  739MOL0     C 1900   2.707   4.673   6.464  1.4407  0.1995 -0.2921
  739MOL0     C 1901   2.622   4.689   6.363 -0.2901  1.4131  0.5922
  739MOL0     C 1902   2.640   4.781   6.262 -0.5885  0.2817  0.2064
  739MOL0     O 1903   2.541   4.811   6.169 -0.5214  0.4150 -0.4808
  739MOL0     C 1904   2.421   4.735   6.167 -0.6713  0.3931  0.4586
  739MOL0     C 1905   2.321   4.798   6.060 -0.1160  0.8215  0.2531
  739MOL0     C 1906   2.359   4.803   5.910 -0.2539  0.2228 -0.2456
  739MOL0     C 1907   2.251   4.865   5.818 -0.9687 -0.5630 -0.1716
  739MOL0     C 1908   2.322   4.903   5.691  1.3255  0.5667 -0.3963
  739MOL0     C 1909   2.394   4.944   5.602  0.1153 -1.5707  0.2300
  739MOL0     C 1910   2.759   4.853   6.264 -0.3266  0.1280  0.6004
  739MOL0     C 1911   2.857   4.829   6.357 -1.3856 -0.5586 -0.9865
  739MOL0     C 1912   2.994   4.891   6.339  0.3356  0.7146 -0.6256
  739MOL0     H 1913   3.058   5.088   6.675  1.9602  3.4531  2.5951
  739MOL0     H 1914   3.255   5.142   6.806  0.4106 -0.8713  0.6872
  739MOL0     H 1915   3.527   4.921   6.883  1.7747 -0.8097  1.9567
  739MOL0     H 1916   3.456   4.788   6.962  2.6844 -0.7338 -4.5370
  739MOL0     H 1917   3.518   4.880   7.179 -1.1391 -2.7151 -2.5554
  739MOL0     H 1918   3.642   4.831   7.081 -2.3538 -2.5864  0.4873
  739MOL0     H 1919   3.651   5.103   6.998 -0.9313  1.3894  1.3444
  739MOL0     H 1920   3.534   5.130   7.122 -0.4222  0.7496 -2.7060
  739MOL0     H 1921   3.767   5.173   7.198  0.1038 -0.0681 -1.4166
  739MOL0     H 1922   3.710   5.039   7.295  1.6045 -0.5677  0.2786
  739MOL0     H 1923   3.887   5.012   7.036 -0.0175 -0.4280  0.2430
  739MOL0     H 1924   3.843   4.881   7.143  0.5337 -0.0932 -2.7642
  739MOL0     H 1925   3.985   5.137   7.202  0.9298 -1.6527 -1.4052
  739MOL0     H 1926   3.941   5.016   7.328 -0.1951  0.8626  0.0573
  739MOL0     H 1927   4.161   5.001   7.289  0.1672  0.6954 -1.0979
  739MOL0     H 1928   4.150   4.992   7.111 -1.8275 -2.7838 -2.7557
  739MOL0     H 1929   4.072   4.775   7.315 -0.3862 -1.6910 -0.4068
  739MOL0     H 1930   4.033   4.760   7.139 -0.3536  1.3070 -1.7702
  739MOL0     H 1931   4.340   4.776   7.380  1.6331 -0.9731  0.6447
  739MOL0     H 1932   4.585   4.748   7.353  3.0806 -2.1240  1.3699
  739MOL0     H 1933   4.628   4.748   7.180  0.4851 -0.1567  1.0905
  739MOL0     H 1934   4.551   4.491   7.313 -2.1743  0.2396 -1.5909
  739MOL0     H 1935   4.612   4.515   7.157  2.5727 -1.8421  1.0068
  739MOL0     H 1936   4.834   4.604   7.303  2.2825 -1.1017 -0.9153
  739MOL0     H 1937   4.739   4.539   7.440  1.7918  1.8082  0.0146
  739MOL0     H 1938   4.872   4.400   7.207 -3.4923  0.4253 -2.1827
  739MOL0     H 1939   4.867   4.356   7.383  0.4592 -1.5023 -1.4031
  739MOL0     H 1940   4.836   4.367   7.022 -2.3617  0.9269 -1.9035
  739MOL0     H 1941   4.946   4.265   6.769  0.3474 -3.9179  2.5659
  739MOL0     H 1942   4.811   4.391   6.786 -0.6015 -0.3057 -2.9560
  739MOL0     H 1943   4.801   4.250   6.684  0.9966  0.8869 -0.3596
  739MOL0     H 1944   4.727   4.111   6.464  2.9569  1.9996 -2.5522
  739MOL0     H 1945   4.736   4.009   6.251  1.0911 -0.2435 -1.6002
  739MOL0     H 1946   5.022   3.668   6.215 -1.3551  0.4983  1.3001
  739MOL0     H 1947   4.902   3.552   6.195 -1.2678 -0.3309 -1.8027
  739MOL0     H 1948   4.849   3.651   5.955 -1.6773  3.4327  1.4351
  739MOL0     H 1949   4.969   3.770   5.982 -2.0937 -0.2281 -3.1187
  739MOL0     H 1950   5.022   3.470   5.967  1.3573 -0.2027 -1.9499
  739MOL0     H 1951   5.144   3.576   6.024 -1.8123  0.7782  2.4295
  739MOL0     H 1952   5.104   3.712   5.787 -1.4204 -0.3573 -3.9971
  739MOL0     H 1953   5.022   3.567   5.748  0.4919 -0.7729 -0.0767
  739MOL0     H 1954   5.327   3.588   5.802  2.5683 -1.0335 -3.6196
  739MOL0     H 1955   5.227   3.436   5.764 -0.6495 -0.4200 -2.1844
  739MOL0     H 1956   5.168   3.520   5.553 -1.3625  1.0613  1.4560
  739MOL0     H 1957   5.352   3.523   5.570  0.9102  0.0064  2.5739
  739MOL0     H 1958   5.135   3.729   5.561 -0.0220  1.6117  0.2139
  739MOL0     H 1959   5.267   3.714   5.455 -0.1322 -0.5140  1.3993
  739MOL0     H 1960   5.325   3.782   5.744  1.1583 -2.7334 -1.0939
  739MOL0     H 1961   5.316   3.902   5.611 -2.4507  0.8888  0.5574
  739MOL0     H 1962   4.947   3.666   6.435  3.2944  1.2292  0.3208
  739MOL0     H 1963   4.943   3.781   6.645 -1.5961 -1.2273  0.0327
  739MOL0     H 1964   4.557   3.962   6.984 -2.0235 -0.6752  3.1458
  739MOL0     H 1965   4.566   4.089   7.215  0.4539  1.5037  0.5188
  739MOL0     H 1966   3.232   4.755   6.989  0.5025 -0.0829  1.2964
  739MOL0     H 1967   3.078   4.680   6.820  0.4771 -0.0015  1.4524
  739MOL0     H 1968   2.688   4.612   6.552 -0.5447 -0.9149 -1.3986
  739MOL0     H 1969   2.542   4.616   6.369  1.4825 -0.5480  4.0132
  739MOL0     H 1970   2.453   4.640   6.124 -1.6886  0.8311 -1.4032
  739MOL0     H 1971   2.371   4.730   6.264  2.0440  2.1243  2.0824
  739MOL0     H 1972   2.286   4.897   6.091 -0.7497 -0.1163  2.7759
  739MOL0     H 1973   2.232   4.735   6.051  1.7151 -1.8467 -0.5645
  739MOL0     H 1974   2.452   4.859   5.898 -1.5791  2.5815 -0.0577
  739MOL0     H 1975   2.392   4.702   5.884  0.2084  0.3656 -0.2247
  739MOL0     H 1976   2.207   4.946   5.877  0.0639 -1.3261  1.7454
  739MOL0     H 1977   2.178   4.785   5.803  0.4353 -1.9358  0.0728
  739MOL0     H 1978   2.454   4.993   5.528 -0.3564 -1.2334  0.0666
  739MOL0     H 1979   2.777   4.930   6.189  1.1260 -2.6400 -2.1327
  739MOL0     H 1980   2.992   4.959   6.252 -0.5316  2.9953  1.0690
  739MOL0     H 1981   3.027   4.945   6.428  1.8783 -1.9197  0.5072
  739MOL0     H 1982   3.078   4.824   6.321  0.1876 -0.0760  1.4020
  740MOL0     O 1983   6.867   4.669   8.870  0.0531 -0.4086  0.2291
  740MOL0     C 1984   6.968   4.627   8.930  0.3093  0.3571  0.0094
  740MOL0     O 1985   7.015   4.490   8.943 -0.2401 -0.2683  0.0557
  740MOL0     C 1986   6.944   4.389   8.880 -0.0101 -0.7115  0.0503
  740MOL0     C 1987   6.929   4.266   8.934 -0.4107 -0.1892 -0.2692
  740MOL0     C 1988   6.868   4.166   8.867 -0.0154  0.7327  0.5999
  740MOL0     C 1989   6.813   4.178   8.738  0.9163 -0.2407  0.3536
  740MOL0     O 1990   6.762   4.069   8.665 -0.8025 -0.3703  0.3929
  740MOL0     C 1991   6.737   4.086   8.523  0.6212  0.5203  0.2513
  740MOL0     C 1992   6.716   3.946   8.467 -0.7120 -0.0876  0.2389
  740MOL0     C 1993   6.836   3.854   8.484 -0.2581  0.1482  0.1853
  740MOL0     C 1994   6.812   3.735   8.389 -0.0741 -0.3482 -0.4824
  740MOL0     C 1995   6.947   3.653   8.378 -0.0664  0.5565  0.7774
  740MOL0     C 1996   6.925   3.527   8.290  0.7661  0.1736  0.4240
  740MOL0     C 1997   6.844   3.419   8.362  0.4893  1.1413 -0.6414
  740MOL0     C 1998   6.796   3.304   8.261  0.0911 -0.1300  0.5192
  740MOL0     N 1999   6.904   3.210   8.214  0.2560 -0.4856  0.1877
  740MOL0     C 2000   6.999   3.252   8.127 -0.3797  1.1783  0.0893
  740MOL0     C 2001   7.054   3.133   8.088  0.7915  0.1278  1.2584
  740MOL0     C 2002   7.131   3.114   7.959  0.1783 -0.3711 -0.0321
  740MOL0     C 2003   7.040   3.153   7.846 -0.6907 -0.2274 -0.2370
  740MOL0     C 2004   7.080   3.085   7.716 -1.0650  0.7531 -0.9486
  740MOL0     C 2005   7.013   2.950   7.696 -0.0334  0.1888 -0.7792
  740MOL0     O 2006   7.095   2.859   7.769  0.7131  0.0108  0.3695
  740MOL0     C 2007   7.110   2.737   7.708  0.0789 -1.1064 -0.5454
  740MOL0     C 2008   7.007   2.677   7.633 -0.7571  0.0980  0.4728
  740MOL0     C 2009   7.019   2.541   7.594 -0.7364 -0.0667 -0.0776
  740MOL0     C 2010   6.908   2.466   7.529  0.2342 -0.4183  1.1975
  740MOL0     C 2011   7.144   2.462   7.615  0.0772 -1.3820 -0.9752
  740MOL0     C 2012   7.179   2.320   7.580  0.3048 -0.4143  0.2785
  740MOL0     O 2013   7.281   2.263   7.645  0.2402  0.3021 -0.6559
  740MOL0     C 2014   7.304   2.124   7.625  0.3755 -0.0222  0.0621
  740MOL0     C 2015   7.340   2.064   7.508 -0.1392  0.2388  0.4714
  740MOL0     C 2016   7.355   1.923   7.500 -0.4735 -0.3423  0.0734
  740MOL0     C 2017   7.324   1.842   7.610  0.4149  0.1360 -0.8115
  740MOL0     O 2018   7.345   1.708   7.610 -0.6864  0.3438  0.7012
  740MOL0     C 2019   7.283   1.638   7.509 -0.1385 -0.4475  0.5530
  740MOL0     C 2020   7.330   1.495   7.519  0.4374  0.0288  0.3833
  740MOL0     C 2021   7.482   1.481   7.540 -1.0798 -0.2125 -0.4905
  740MOL0     C 2022   7.513   1.466   7.690  0.2682  0.3309  0.9759
  740MOL0     C 2023   7.645   1.394   7.710  0.7194  0.0305  0.0152
  740MOL0     C 2024   7.777   1.483   7.684 -0.4197 -0.8142 -0.0396
  740MOL0     C 2025   7.910   1.411   7.732  0.2897  1.3410  0.6282
  740MOL0     C 2026   7.942   1.279   7.650  0.2401 -0.1388 -0.0116
  740MOL0    Cl 2027   8.093   1.217   7.715  0.1631 -0.3618 -0.3394
  740MOL0     C 2028   7.287   1.904   7.732  0.9034 -0.4063  0.0291
  740MOL0     C 2029   7.286   2.040   7.740 -0.2254 -0.3914  0.3824
  740MOL0     O 2030   7.103   2.256   7.506 -0.1724 -0.1306  0.3075
  740MOL0     C 2031   7.243   2.536   7.680  0.0331  0.1496 -0.4758
  740MOL0     C 2032   7.230   2.669   7.726 -0.8559  0.8392  0.4203
  740MOL0     N 2033   7.001   3.023   8.159 -0.0867 -0.0838 -0.2820
  740MOL0     N 2034   6.913   3.081   8.238 -0.8682  0.4631 -0.2739
  740MOL0     C 2035   6.831   4.306   8.676 -0.0654  0.2164  0.3959
  740MOL0     C 2036   6.888   4.409   8.745  0.4043  0.1986 -0.9664
  740MOL0     C 2037   7.045   4.734   8.997  0.0016  0.1427 -0.7562
  740MOL0     C 2038   7.109   4.701   9.121  0.1749  0.1737  0.3634
  740MOL0     C 2039   7.178   4.789   9.194  0.8381 -0.6071 -1.0749
  740MOL0     C 2040   7.217   4.915   9.156  0.5552  0.7126 -0.2307
  740MOL0     O 2041   7.305   4.984   9.239  0.4408 -0.0343  0.4370
  740MOL0     C 2042   7.357   5.110   9.191  0.1516 -0.4696  1.1670
  740MOL0     C 2043   7.469   5.172   9.294  0.2246 -0.1799 -0.6026
  740MOL0     C 2044   7.408   5.236   9.419  0.5443 -0.2929 -0.0550
  740MOL0     C 2045   7.416   5.391   9.409 -0.7760  0.9876 -0.0196
  740MOL0     C 2046   7.555   5.436   9.440  0.4239  0.3420  0.9329
  740MOL0     C 2047   7.665   5.484   9.465 -0.6540  0.3935 -0.4900
  740MOL0     C 2048   7.158   4.954   9.037  1.3971  0.1585  0.6728
  740MOL0     C 2049   7.074   4.863   8.959  0.2888 -0.0868  0.5993
  740MOL0     C 2050   7.029   4.918   8.824  0.3385 -0.0610 -0.0058
  740MOL0     H 2051   6.985   4.257   9.027 -4.3960  2.3515  2.7355
  740MOL0     H 2052   6.868   4.066   8.911 -1.5077  1.6726  2.9227
  740MOL0     H 2053   6.811   4.139   8.463 -0.4442 -0.1819 -1.7777
  740MOL0     H 2054   6.637   4.127   8.506 -0.4050 -2.8022 -3.2788
  740MOL0     H 2055   6.626   3.895   8.503 -0.0180 -1.4757  0.0567
  740MOL0     H 2056   6.698   3.971   8.362 -2.2321  1.4075  0.8004
  740MOL0     H 2057   6.937   3.889   8.460 -0.4491 -0.3509 -1.5146
  740MOL0     H 2058   6.839   3.827   8.590 -1.1465  0.6342  0.3434
  740MOL0     H 2059   6.731   3.679   8.436  1.3227 -2.3792 -0.3433
  740MOL0     H 2060   6.787   3.768   8.288  0.3021 -1.5615 -0.9989
  740MOL0     H 2061   6.983   3.613   8.473 -0.0868 -1.2876  0.0595
  740MOL0     H 2062   7.027   3.718   8.342  0.6022  0.8958  2.7382
  740MOL0     H 2063   6.877   3.553   8.195 -0.2946 -2.1927  0.2265
  740MOL0     H 2064   7.019   3.481   8.258  0.0073 -1.3818  0.3251
  740MOL0     H 2065   6.751   3.462   8.399 -1.3768  0.0691 -3.7006
  740MOL0     H 2066   6.901   3.380   8.446  1.1762  0.7349 -1.2837
  740MOL0     H 2067   6.719   3.245   8.312 -0.5211  0.8706  0.7826
  740MOL0     H 2068   6.752   3.345   8.170 -2.0755 -3.1989  0.0310
  740MOL0     H 2069   7.002   3.353   8.089  0.6494  1.6347  1.3113
  740MOL0     H 2070   7.168   3.012   7.944  0.0461 -0.4241 -0.0089
  740MOL0     H 2071   7.222   3.174   7.951 -0.2160  0.0163 -2.1566
  740MOL0     H 2072   6.935   3.127   7.859 -0.4689 -2.3577 -2.0590
  740MOL0     H 2073   7.040   3.262   7.837 -0.8785 -0.2829 -1.0474
  740MOL0     H 2074   7.046   3.134   7.624  0.8788 -1.7708 -3.2005
  740MOL0     H 2075   7.189   3.074   7.715 -1.0463  0.2048  1.5625
  740MOL0     H 2076   6.907   2.947   7.726  0.2442  1.3180  0.3946
  740MOL0     H 2077   7.033   2.934   7.590  2.2394  3.4023 -0.9775
  740MOL0     H 2078   6.910   2.724   7.623  0.4952  2.5605 -1.1622
  740MOL0     H 2079   6.949   2.422   7.438 -1.7065  0.9567 -0.4429
  740MOL0     H 2080   6.819   2.525   7.503 -1.6185 -3.5113 -0.0899
  740MOL0     H 2081   6.870   2.382   7.587 -1.4383 -1.1930 -0.8848
  740MOL0     H 2082   7.361   2.135   7.429 -0.0249  2.0313  2.0325
  740MOL0     H 2083   7.384   1.868   7.411 -0.7199 -0.7201  0.2236
  740MOL0     H 2084   7.174   1.639   7.515 -0.2641  3.0195 -0.2565
  740MOL0     H 2085   7.305   1.683   7.412 -0.8881  1.8787  1.3892
  740MOL0     H 2086   7.271   1.441   7.594 -1.2636  1.4689  0.1384
  740MOL0     H 2087   7.311   1.441   7.425 -1.6359  0.8127  0.3042
  740MOL0     H 2088   7.547   1.560   7.501 -1.2152 -0.4907 -1.2849
  740MOL0     H 2089   7.501   1.390   7.483 -0.4944 -0.5802  0.2736
  740MOL0     H 2090   7.432   1.401   7.723 -0.2157 -0.4766 -1.5536
  740MOL0     H 2091   7.508   1.553   7.756  1.9099  1.0130  0.2705
  740MOL0     H 2092   7.640   1.365   7.816 -2.4353 -3.6264 -0.8955
  740MOL0     H 2093   7.643   1.304   7.647  4.8499  2.7458 -4.6902
  740MOL0     H 2094   7.773   1.574   7.744  0.8494 -1.9237  1.8170
  740MOL0     H 2095   7.783   1.509   7.578 -1.5110  0.5482  0.1907
  740MOL0     H 2096   7.897   1.395   7.839 -0.1176 -4.0784  0.0088
  740MOL0     H 2097   7.998   1.472   7.709  1.2021 -0.4680 -0.9785
  740MOL0     H 2098   7.949   1.299   7.543  1.4254  1.0504  0.2598
  740MOL0     H 2099   7.867   1.202   7.666  0.6142  0.1325  4.2983
  740MOL0     H 2100   7.263   1.851   7.824  0.4684 -0.2178  0.0303
  740MOL0     H 2101   7.275   2.086   7.837  0.6992  0.3137  0.1667
  740MOL0     H 2102   7.338   2.490   7.704 -0.1765 -0.3742 -0.6388
  740MOL0     H 2103   7.314   2.701   7.787  1.6069 -0.6750 -1.9762
  740MOL0     H 2104   6.798   4.321   8.573  1.9153  1.6627 -0.1038
  740MOL0     H 2105   6.894   4.508   8.699 -0.4856 -0.3064 -2.2522
  740MOL0     H 2106   7.108   4.597   9.154  3.6643  0.3194  1.3914
  740MOL0     H 2107   7.213   4.759   9.292 -0.4333  2.9700  0.6561
  740MOL0     H 2108   7.408   5.103   9.094 -2.1596 -0.4005 -0.1299
  740MOL0     H 2109   7.276   5.182   9.179  1.0606  0.6913  1.7133
  740MOL0     H 2110   7.535   5.244   9.245  2.4588 -1.9801 -0.3856
  740MOL0     H 2111   7.540   5.094   9.323  3.7894  3.1082  0.3083
  740MOL0     H 2112   7.302   5.209   9.427  0.8621 -0.9800  3.6202
  740MOL0     H 2113   7.455   5.211   9.514 -1.9630  2.5583  2.1306
  740MOL0     H 2114   7.353   5.435   9.486 -2.6398  0.0963 -0.9705
  740MOL0     H 2115   7.389   5.424   9.308 -0.4604 -2.2161 -1.2724
  740MOL0     H 2116   7.766   5.502   9.495 -0.8237  1.2083 -0.3962
  740MOL0     H 2117   7.174   5.053   8.995 -2.5938  1.3699  1.6043
  740MOL0     H 2118   7.068   5.020   8.817  2.5357 -0.8960 -0.7893
  740MOL0     H 2119   7.054   4.865   8.731  1.4022 -1.1637  0.8715
  740MOL0     H 2120   6.921   4.908   8.814  0.5007 -2.1268 -0.1278
  741MOL0     O 2121   6.140  11.468  11.349 -0.2537 -0.1219 -0.1687
  741MOL0     C 2122   6.149  11.381  11.259  0.5325 -0.0828  0.4601
  741MOL0     O 2123   6.177  11.401  11.130 -0.5639 -0.3449  0.4691
  741MOL0     C 2124   6.168  11.526  11.070 -0.6993 -0.0123 -0.9442
  741MOL0     C 2125   6.250  11.634  11.121 -0.0235 -0.5264  0.3317
  741MOL0     C 2126   6.276  11.750  11.051  0.9515  0.0541  0.5354
  741MOL0     C 2127   6.208  11.767  10.931 -0.0436  0.2516 -0.4889
  741MOL0     O 2128   6.229  11.885  10.862 -0.9743  0.6693 -0.0531
  741MOL0     C 2129   6.272  11.859  10.731 -0.5803 -0.7354  0.0394
  741MOL0     C 2130   6.395  11.956  10.712 -0.7014 -0.0996  0.2765
  741MOL0     C 2131   6.513  11.895  10.785  0.1613  0.5105 -1.0178
  741MOL0     C 2132   6.550  11.748  10.731 -0.1842 -1.5367  0.0683
  741MOL0     C 2133   6.524  11.647  10.834 -0.1206  0.2775 -0.7079
  741MOL0     C 2134   6.563  11.508  10.794  0.1425 -0.1558  0.4695
  741MOL0     C 2135   6.526  11.406  10.907 -1.1158  0.1096 -0.0892
  741MOL0     C 2136   6.602  11.275  10.888 -0.4611  0.1708  1.0186
  741MOL0     N 2137   6.539  11.183  10.795 -0.9179  0.4398  0.3131
  741MOL0     C 2138   6.552  11.204  10.656  0.6859 -0.2417  0.1679
  741MOL0     C 2139   6.481  11.105  10.603  0.5908 -0.2999  0.1988
  741MOL0     C 2140   6.469  11.084  10.455  1.0643  0.5962  0.4578
  741MOL0     C 2141   6.375  11.201  10.406  0.0374 -0.2675 -0.4549
  741MOL0     C 2142   6.349  11.210  10.256 -0.0938 -0.9242  0.3134
  741MOL0     C 2143   6.289  11.091  10.176  0.6588  0.3282 -0.2951
  741MOL0     O 2144   6.383  10.989  10.153 -0.2260  0.8728  0.7415
  741MOL0     C 2145   6.337  10.861  10.139 -0.5844  0.5378 -0.7373
  741MOL0     C 2146   6.441  10.762  10.120  0.6619 -0.9713  0.0860
  741MOL0     C 2147   6.408  10.624  10.099 -0.2996 -0.5606  1.0397
  741MOL0     C 2148   6.527  10.526  10.117  0.0473  0.3544 -0.2530
  741MOL0     C 2149   6.270  10.596  10.085  0.2713 -0.2809 -0.0587
  741MOL0     C 2150   6.232  10.460  10.070 -0.0669 -0.5259  0.6803
  741MOL0     O 2151   6.308  10.396   9.977  0.1905  0.0507  1.2255
  741MOL0     C 2152   6.291  10.267   9.941 -0.2412  0.0647 -0.3226
  741MOL0     C 2153   6.407  10.188   9.926 -0.7120  0.3089 -0.5547
  741MOL0     C 2154   6.398  10.058   9.879 -0.2488  0.8329  0.0519
  741MOL0     C 2155   6.276  10.007   9.851 -0.6614  0.5824  0.9997
  741MOL0     O 2156   6.265   9.887   9.782  0.0284 -0.2179 -0.7422
  741MOL0     C 2157   6.174   9.862   9.675  0.5520  1.2900 -0.1657
  741MOL0     C 2158   6.222   9.910   9.544  0.4175 -0.4390 -0.6611
  741MOL0     C 2159   6.180  10.056   9.502 -0.2186  1.2891 -0.6495
  741MOL0     C 2160   6.292  10.127   9.436  0.0947 -0.1253 -0.6450
  741MOL0     C 2161   6.394  10.160   9.545  0.2273 -0.1104  0.9498
  741MOL0     C 2162   6.510  10.227   9.485 -0.1285 -0.0729 -0.1325
  741MOL0     C 2163   6.627  10.264   9.583  0.1870  0.5468 -0.8358
  741MOL0     C 2164   6.690  10.397   9.560 -1.5745  0.3478 -0.0763
  741MOL0    Cl 2165   6.810  10.424   9.683  0.3487  0.1913 -0.3772
  741MOL0     C 2166   6.163  10.083   9.870  0.2674  0.7252 -0.1436
  741MOL0     C 2167   6.173  10.216   9.901 -0.2749 -0.6903 -0.8654
  741MOL0     O 2168   6.132  10.412  10.124  0.3395 -0.3662 -0.6293
  741MOL0     C 2169   6.170  10.695  10.088 -0.2755  0.8981 -0.3973
  741MOL0     C 2170   6.206  10.823  10.122 -1.0049 -0.3885  0.3099
  741MOL0     N 2171   6.432  11.031  10.699 -0.5685 -0.0124 -0.2248
  741MOL0     N 2172   6.473  11.068  10.813 -0.1672  0.3031  0.3033
  741MOL0     C 2173   6.127  11.670  10.881  0.2525 -0.3902  0.3177
  741MOL0     C 2174   6.101  11.553  10.953 -0.3675  0.1876  0.5749
  741MOL0     C 2175   6.136  11.236  11.301 -0.1674 -0.3020  0.2885
  741MOL0     C 2176   6.029  11.192  11.379 -0.0547  0.6617  0.7554
  741MOL0     C 2177   6.012  11.060  11.421 -0.1773 -0.4144 -0.4909
  741MOL0     C 2178   6.103  10.958  11.374  1.0146 -1.7767 -1.3114
  741MOL0     O 2179   6.105  10.828  11.414 -0.2804  0.4058 -0.8904
  741MOL0     C 2180   6.009  10.770  11.501  0.1160 -0.3822 -0.7584
  741MOL0     C 2181   5.882  10.734  11.422 -1.1021  0.3261 -0.0688
  741MOL0     C 2182   5.769  10.662  11.490  0.6496  0.4121 -0.3801
  741MOL0     C 2183   5.711  10.743  11.604  0.1995  1.0235  0.0662
  741MOL0     C 2184   5.651  10.870  11.570  1.2855 -0.1143 -0.5395
  741MOL0     C 2185   5.601  10.976  11.531 -0.4512  0.3039 -0.2740
  741MOL0     C 2186   6.205  10.997  11.289 -0.4904 -0.1022 -0.7804
  741MOL0     C 2187   6.226  11.128  11.252 -0.3876 -0.6104  0.1003
  741MOL0     C 2188   6.353  11.157  11.173 -0.0245  0.3917 -0.3855
  741MOL0     H 2189   6.295  11.603  11.214  0.5664 -0.7554 -0.0201
  741MOL0     H 2190   6.341  11.827  11.093  1.1686  1.8327 -2.7079
  741MOL0     H 2191   6.187  11.899  10.676 -2.8975 -1.1533  3.0535
  741MOL0     H 2192   6.295  11.759  10.692 -0.0946 -1.1714  1.3703
  741MOL0     H 2193   6.422  11.966  10.606  0.6906  1.2276  0.7057
  741MOL0     H 2194   6.370  12.057  10.747 -1.3718  0.7043 -2.2867
  741MOL0     H 2195   6.595  11.966  10.769  0.7115 -0.1695 -1.2175
  741MOL0     H 2196   6.480  11.890  10.889 -4.9547 -1.3285 -2.4033
  741MOL0     H 2197   6.511  11.745  10.629 -4.8596  2.6692  1.3156
  741MOL0     H 2198   6.659  11.743  10.730 -0.1413 -0.8030 -2.0120
  741MOL0     H 2199   6.422  11.639  10.873  1.4302 -0.4261  3.9112
  741MOL0     H 2200   6.577  11.666  10.928 -1.2146 -1.5648  0.3340
  741MOL0     H 2201   6.511  11.477  10.703 -1.2464  0.2080  1.1117
  741MOL0     H 2202   6.670  11.509  10.771 -0.0592  0.1114 -0.4775
  741MOL0     H 2203   6.420  11.385  10.892 -1.0074 -0.3547 -0.2147
  741MOL0     H 2204   6.551  11.452  11.003  0.7321 -0.9645 -0.0098
  741MOL0     H 2205   6.707  11.276  10.856 -0.6529 -4.1699 -0.3411
  741MOL0     H 2206   6.588  11.216  10.979 -2.6672 -1.5598 -0.3512
  741MOL0     H 2207   6.615  11.275  10.602  0.8926 -0.7547 -0.2707
  741MOL0     H 2208   6.425  10.984  10.444  0.0022  1.1372 -0.5056
  741MOL0     H 2209   6.569  11.093  10.412  1.1008 -0.5421  0.2835
  741MOL0     H 2210   6.285  11.202  10.468  1.7488  3.8173  2.3306
  741MOL0     H 2211   6.436  11.288  10.428 -1.2972 -0.0110  2.7031
  741MOL0     H 2212   6.280  11.294  10.246  0.5025 -0.3456  0.9723
  741MOL0     H 2213   6.447  11.238  10.217 -0.9878 -0.1121 -1.4643
  741MOL0     H 2214   6.209  11.056  10.241  1.6210  2.8211  2.4370
  741MOL0     H 2215   6.257  11.119  10.075 -1.6462 -2.4102 -0.4286
  741MOL0     H 2216   6.542  10.801  10.124  0.3511 -0.2443  1.9907
  741MOL0     H 2217   6.564  10.520  10.220  3.3551 -2.9944 -1.4232
  741MOL0     H 2218   6.607  10.568  10.056  0.0896  3.4627  1.7464
  741MOL0     H 2219   6.505  10.426  10.076  1.4258 -0.0882  0.0426
  741MOL0     H 2220   6.509  10.221   9.938  0.6109 -2.6264 -2.7887
  741MOL0     H 2221   6.486  10.013   9.835 -0.8892 -0.6569  0.2383
  741MOL0     H 2222   6.151   9.756   9.676 -1.7872  1.7369 -0.6429
  741MOL0     H 2223   6.088   9.916   9.716  0.0119 -1.9030  3.4322
  741MOL0     H 2224   6.329   9.891   9.530  0.2664 -1.6803 -0.1795
  741MOL0     H 2225   6.168   9.850   9.470 -1.9837  1.9248 -0.9798
  741MOL0     H 2226   6.140  10.113   9.586 -2.2256  0.2125 -0.7986
  741MOL0     H 2227   6.103  10.042   9.425 -1.7420 -1.1266  1.1669
  741MOL0     H 2228   6.264  10.224   9.395  1.5587  1.3348  1.5698
  741MOL0     H 2229   6.338  10.067   9.356  0.3940 -1.9178  0.7784
  741MOL0     H 2230   6.355  10.207   9.636 -2.5837 -2.2050  0.9592
  741MOL0     H 2231   6.430  10.062   9.581  2.1326 -0.2565 -1.1417
  741MOL0     H 2232   6.476  10.316   9.432  0.0878 -1.2117 -2.3000
  741MOL0     H 2233   6.545  10.166   9.401 -0.4588  0.8287 -0.9563
  741MOL0     H 2234   6.713  10.197   9.578  0.8232  1.2456  0.1647
  741MOL0     H 2235   6.601  10.241   9.687 -1.0562 -5.1653 -2.0869
  741MOL0     H 2236   6.612  10.472   9.546 -1.2583  0.6208 -0.3969
  741MOL0     H 2237   6.735  10.375   9.462 -3.9518 -0.2375 -1.0948
  741MOL0     H 2238   6.061  10.053   9.847  0.9181 -0.3434 -1.8460
  741MOL0     H 2239   6.092  10.288   9.902  1.8710  1.9369  1.3989
  741MOL0     H 2240   6.069  10.662  10.067 -0.7972  1.8845  0.4069
  741MOL0     H 2241   6.133  10.903  10.131  0.4972  0.9477  1.1967
  741MOL0     H 2242   6.085  11.688  10.783  0.2704  2.3815  0.7577
  741MOL0     H 2243   6.054  11.472  10.898  0.9258  0.6168 -1.2666
  741MOL0     H 2244   5.939  11.251  11.392 -1.8613 -2.0969  1.8813
  741MOL0     H 2245   5.917  11.036  11.466 -0.0269  1.5259  0.9923
  741MOL0     H 2246   6.047  10.672  11.531 -3.4435 -0.9735  2.6371
  741MOL0     H 2247   5.985  10.831  11.588 -2.6698 -0.6391 -1.2616
  741MOL0     H 2248   5.924  10.676  11.340 -0.1549  3.0329 -1.6381
  741MOL0     H 2249   5.852  10.826  11.370  0.8621  2.6781  2.5920
  741MOL0     H 2250   5.693  10.660  11.412 -0.3092  0.3734  0.5287
  741MOL0     H 2251   5.787  10.556  11.514 -1.9072 -0.3809 -1.6598
  741MOL0     H 2252   5.786  10.742  11.684  2.5915 -1.0668 -1.9848
  741MOL0     H 2253   5.628  10.681  11.637 -2.4911  3.0223 -2.5046
  741MOL0     H 2254   5.556  11.068  11.499 -3.5045 -2.1249 -4.0228
  741MOL0     H 2255   6.281  10.924  11.262  1.0223  0.3305  1.9261
  741MOL0     H 2256   6.428  11.083  11.202 -1.1728  0.2202  2.4411
  741MOL0     H 2257   6.326  11.150  11.067  1.6282 -2.0163 -0.7388
  741MOL0     H 2258   6.398  11.255  11.193  0.2341 -0.0733  1.3976
  742MOL0     O 2259   4.234   7.495  10.475  0.5468  0.0538  0.0644
  742MOL0     C 2260   4.338   7.459  10.428  0.6326 -0.5174 -0.0116
  742MOL0     O 2261   4.443   7.546  10.409 -0.2064 -0.0583 -0.0769
  742MOL0     C 2262   4.441   7.677  10.454 -0.3402  0.1825 -0.3492
  742MOL0     C 2263   4.463   7.776  10.365  0.0907  0.4484 -0.2066
  742MOL0     C 2264   4.451   7.908  10.408 -0.1630 -0.7167 -0.0488
  742MOL0     C 2265   4.422   7.954  10.535  0.5757 -0.6892  0.3920
  742MOL0     O 2266   4.419   8.091  10.561  0.3147  0.2723  0.4021
  742MOL0     C 2267   4.446   8.140  10.693 -0.9089  0.1641 -0.1337
  742MOL0     C 2268   4.426   8.292  10.710  0.4816  0.3264  0.2408
  742MOL0     C 2269   4.488   8.340  10.841 -0.0780 -0.1021 -0.2567
  742MOL0     C 2270   4.487   8.490  10.834 -0.1314 -0.6166 -0.8786
  742MOL0     C 2271   4.556   8.538  10.963 -0.0856  0.7417  0.3359
  742MOL0     C 2272   4.567   8.694  10.972  0.4966 -0.6678  1.1101
  742MOL0     C 2273   4.665   8.719  11.080  0.3633 -0.5117  0.9943
  742MOL0     C 2274   4.637   8.679  11.224  0.1045  0.1739  0.6243
  742MOL0     N 2275   4.514   8.736  11.279 -0.6993 -0.9531  0.0815
  742MOL0     C 2276   4.506   8.861  11.341  0.1381 -0.8515 -0.1268
  742MOL0     C 2277   4.381   8.864  11.387 -0.4462 -0.0214 -0.0355
  742MOL0     C 2278   4.324   8.976  11.457 -0.4070 -0.9207 -0.5719
  742MOL0     C 2279   4.256   8.931  11.589 -0.0971  0.1116 -0.0358
  742MOL0     C 2280   4.271   9.031  11.698 -0.4890 -0.2557 -0.1466
  742MOL0     C 2281   4.180   9.008  11.833 -0.1457  0.7085  0.2209
  742MOL0     O 2282   4.035   8.990  11.812 -0.7475 -0.7784  0.9805
  742MOL0     C 2283   3.954   8.984  11.922 -1.1195  0.3474 -0.5727
  742MOL0     C 2284   3.837   8.909  11.909 -0.1479  0.3951  0.5403
  742MOL0     C 2285   3.733   8.911  12.007 -0.2131 -0.1216 -0.0447
  742MOL0     C 2286   3.592   8.843  11.972  0.6062  0.2337 -0.2165
  742MOL0     C 2287   3.763   8.973  12.129  0.9739  1.0083  0.8222
  742MOL0     C 2288   3.666   8.997  12.233  0.5094  0.0687  0.1975
  742MOL0     O 2289   3.552   9.066  12.183  0.1184 -0.0665 -0.1382
  742MOL0     C 2290   3.427   9.039  12.224 -0.1487  0.4221  0.2510
  742MOL0     C 2291   3.352   9.149  12.256  0.3489  1.1526  0.2916
  742MOL0     C 2292   3.225   9.127  12.305  1.2461  0.1340 -0.4102
  742MOL0     C 2293   3.164   9.002  12.305  1.0057  0.8008 -0.3575
  742MOL0     O 2294   3.035   9.000  12.370  0.4983  0.5303 -0.0937
  742MOL0     C 2295   2.987   8.892  12.443  0.3728 -0.7186 -0.2505
  742MOL0     C 2296   2.878   8.951  12.543 -0.4540  0.3566  0.5066
  742MOL0     C 2297   2.789   8.845  12.606  0.4589 -0.1050  0.1070
  742MOL0     C 2298   2.791   8.836  12.754 -0.5868  0.1579  0.7587
  742MOL0     C 2299   2.714   8.703  12.802 -0.6509 -0.2728 -0.0210
  742MOL0     C 2300   2.670   8.726  12.946 -0.3233 -0.2692 -0.2310
  742MOL0     C 2301   2.590   8.596  12.991  0.5033  0.2680  0.8804
  742MOL0     C 2302   2.586   8.588  13.131 -0.2129 -0.2184 -0.4942
  742MOL0    Cl 2303   2.757   8.580  13.196 -0.3891  0.0649  0.0608
  742MOL0     C 2304   3.243   8.889  12.278 -0.2175 -0.4322 -0.0568
  742MOL0     C 2305   3.379   8.906  12.240  0.6113  1.2879  0.0279
  742MOL0     O 2306   3.664   8.917  12.330  0.7112 -0.0811  1.2309
  742MOL0     C 2307   3.885   9.030  12.147 -0.5161 -0.3098 -0.7647
  742MOL0     C 2308   3.985   9.043  12.044 -0.2954 -0.8099 -0.3806
  742MOL0     N 2309   4.314   8.744  11.367 -0.2687 -0.1096 -0.2088
  742MOL0     N 2310   4.395   8.673  11.300  0.2473 -0.4821  1.0572
  742MOL0     C 2311   4.419   7.850  10.630  0.2521  0.1754 -0.7013
  742MOL0     C 2312   4.418   7.714  10.586 -0.0035  0.7023  0.1143
  742MOL0     C 2313   4.358   7.322  10.366 -0.4158  0.1433  0.0092
  742MOL0     C 2314   4.466   7.307  10.275 -0.7023  0.5855 -0.7550
  742MOL0     C 2315   4.510   7.180  10.226 -0.0461  0.0153  0.2332
  742MOL0     C 2316   4.451   7.061  10.271 -0.2119 -0.3112 -0.3269
  742MOL0     O 2317   4.479   6.935  10.220 -0.4230 -0.2117 -0.0532
  742MOL0     C 2318   4.615   6.886  10.237  0.8753 -0.6988 -0.1738
  742MOL0     C 2319   4.667   6.903  10.376 -0.3463 -0.2506 -0.0010
  742MOL0     C 2320   4.812   6.842  10.396 -0.0045 -0.0996 -0.1057
  742MOL0     C 2321   4.927   6.917  10.325  0.5747  0.1772 -0.1293
  742MOL0     C 2322   5.062   6.866  10.362  0.5195 -0.6949  0.3234
  742MOL0     C 2323   5.176   6.841  10.393  0.5710  0.9411 -0.0521
  742MOL0     C 2324   4.342   7.071  10.362 -0.4497  0.1673  0.6446
  742MOL0     C 2325   4.300   7.199  10.409  0.2042 -0.1811 -0.2043
  742MOL0     C 2326   4.190   7.201  10.515 -0.5863  0.4414  0.0184
  742MOL0     H 2327   4.499   7.753  10.265  1.7296 -1.1684  0.7009
  742MOL0     H 2328   4.461   7.997  10.346  3.2057  0.5244  2.0034
  742MOL0     H 2329   4.554   8.124  10.706 -0.5510  1.2430 -1.5870
  742MOL0     H 2330   4.394   8.088  10.774 -2.2984  1.1659 -0.3391
  742MOL0     H 2331   4.490   8.319  10.625  0.3348  0.3813  0.1477
  742MOL0     H 2332   4.325   8.327  10.687  0.1184 -0.4546  0.5981
  742MOL0     H 2333   4.430   8.317  10.931 -0.2504  2.4690  0.3544
  742MOL0     H 2334   4.593   8.311  10.846  0.0260 -0.2634 -2.4723
  742MOL0     H 2335   4.550   8.531  10.755  1.9453  1.3537  1.6013
  742MOL0     H 2336   4.387   8.533  10.822 -0.1561 -0.3440  0.1551
  742MOL0     H 2337   4.652   8.487  10.970  0.3560  1.1190 -2.0885
  742MOL0     H 2338   4.489   8.497  11.039 -0.8784  0.2828 -0.5849
  742MOL0     H 2339   4.607   8.729  10.877  0.3683  0.8122  1.5681
  742MOL0     H 2340   4.479   8.757  10.986  0.5441 -0.0924 -0.8363
  742MOL0     H 2341   4.673   8.828  11.089  3.8510 -0.6243  0.5893
  742MOL0     H 2342   4.765   8.690  11.046  0.3219  0.2304  0.1929
  742MOL0     H 2343   4.649   8.572  11.243 -1.2970  0.1892  1.7532
  742MOL0     H 2344   4.719   8.730  11.275  0.9625 -0.9386  0.3725
  742MOL0     H 2345   4.578   8.942  11.343  1.2438 -1.8153  0.5449
  742MOL0     H 2346   4.245   9.022  11.398 -0.1707  0.5729  0.2383
  742MOL0     H 2347   4.394   9.057  11.479  0.0676 -1.3184 -0.6055
  742MOL0     H 2348   4.147   8.924  11.577 -0.3068  1.9258  0.5144
  742MOL0     H 2349   4.294   8.832  11.616  3.3419  1.4824  0.6510
  742MOL0     H 2350   4.374   9.044  11.732  1.1152  3.4838 -5.1571
  742MOL0     H 2351   4.237   9.125  11.654 -1.3314 -0.1393  0.7049
  742MOL0     H 2352   4.226   8.915  11.869  3.0000  1.6771 -0.9485
  742MOL0     H 2353   4.202   9.085  11.908 -1.1321  1.3277 -0.1198
  742MOL0     H 2354   3.822   8.868  11.809 -0.1686  2.2813 -0.2868
  742MOL0     H 2355   3.615   8.789  11.880  0.7695  3.3754 -2.1837
  742MOL0     H 2356   3.531   8.932  11.954  0.1196 -0.1489 -0.4813
  742MOL0     H 2357   3.559   8.776  12.052  0.2612  0.5086 -0.1219
  742MOL0     H 2358   3.384   9.252  12.245 -0.3016  1.1658 -2.0516
  742MOL0     H 2359   3.153   9.205  12.331  1.4119 -0.2866  1.4147
  742MOL0     H 2360   2.941   8.814  12.380  0.9192 -0.3266 -1.1462
  742MOL0     H 2361   3.063   8.849  12.509 -0.1416 -1.8805 -0.3802
  742MOL0     H 2362   2.939   9.007  12.615 -0.2962  0.6786  0.1269
  742MOL0     H 2363   2.812   9.028  12.504  0.0336 -0.1300 -1.3859
  742MOL0     H 2364   2.831   8.750  12.572  1.4028 -0.1806  1.3926
  742MOL0     H 2365   2.689   8.867  12.569  0.0814 -1.1315  0.4740
  742MOL0     H 2366   2.747   8.927  12.793 -1.3245  0.0133  0.2850
  742MOL0     H 2367   2.897   8.826  12.781  0.8628 -0.1665 -4.0658
  742MOL0     H 2368   2.635   8.676  12.732  0.4042  0.8036 -1.6912
  742MOL0     H 2369   2.794   8.629  12.809  0.7679  1.0500 -1.3002
  742MOL0     H 2370   2.606   8.814  12.946  0.5899  0.4228 -1.3786
  742MOL0     H 2371   2.765   8.742  12.999 -0.6657 -2.3336  1.1178
  742MOL0     H 2372   2.646   8.508  12.958  2.7665  1.1270  2.1679
  742MOL0     H 2373   2.489   8.588  12.949  0.9292  0.2364 -0.1902
  742MOL0     H 2374   2.534   8.499  13.166  0.7037  0.5318  3.2919
  742MOL0     H 2375   2.529   8.666  13.182  0.1911 -0.8019  0.9086
  742MOL0     H 2376   3.196   8.792  12.288  0.1154 -0.7283 -1.2772
  742MOL0     H 2377   3.449   8.825  12.224  0.6147  1.1700  0.6302
  742MOL0     H 2378   3.904   9.073  12.245 -1.1830 -0.0642 -0.7375
  742MOL0     H 2379   4.054   9.122  12.070  0.2875 -1.0810 -1.0808
  742MOL0     H 2380   4.406   7.876  10.735 -1.6283 -0.1976 -0.8094
  742MOL0     H 2381   4.411   7.626  10.650 -0.9994  0.7830  0.1270
  742MOL0     H 2382   4.526   7.395  10.253 -1.0358  1.2138  0.7613
  742MOL0     H 2383   4.580   7.187  10.143  1.7569  2.6329  1.8255
  742MOL0     H 2384   4.603   6.780  10.215  0.4408 -1.3919  2.9203
  742MOL0     H 2385   4.680   6.932  10.162  2.1443 -2.8933 -0.5009
  742MOL0     H 2386   4.602   6.850  10.446  0.9965 -2.6223 -0.4425
  742MOL0     H 2387   4.658   7.009  10.400 -1.4284  0.1792 -2.0797
  742MOL0     H 2388   4.841   6.831  10.501  0.1305 -3.5743 -0.3937
  742MOL0     H 2389   4.811   6.740  10.356 -0.6160  0.0201 -0.3991
  742MOL0     H 2390   4.901   7.020  10.351 -1.0682  0.1308 -1.4801
  742MOL0     H 2391   4.916   6.921  10.217 -1.9866 -2.5183 -0.0880
  742MOL0     H 2392   5.273   6.804  10.419 -0.4521 -1.3736  0.7527
  742MOL0     H 2393   4.293   6.979  10.391 -2.4643  0.7529 -0.5904
  742MOL0     H 2394   4.114   7.270  10.476  0.6983  2.3320  0.7238
  742MOL0     H 2395   4.157   7.103  10.551  0.5379  1.2732  3.6868
  742MOL0     H 2396   4.231   7.257  10.600  0.2963  0.1456 -0.2032
  743MOL0     O 2397   9.615   8.627   7.963 -0.0604  0.0800 -0.4668
  743MOL0     C 2398   9.516   8.686   7.927  0.1957 -0.8026  0.5631
  743MOL0     O 2399   9.387   8.638   7.933  0.6583 -0.5227 -0.2882
  743MOL0     C 2400   9.368   8.503   7.934  1.2525 -0.3510 -0.2931
  743MOL0     C 2401   9.439   8.411   7.847  1.4365 -0.2315 -0.0863
  743MOL0     C 2402   9.397   8.277   7.855 -0.5590 -0.2941  0.2130
  743MOL0     C 2403   9.288   8.234   7.939 -0.6318  0.0252 -0.7858
  743MOL0     O 2404   9.269   8.102   7.921  0.1180  0.2595  0.6317
  743MOL0     C 2405   9.150   8.043   7.958  0.2972  0.1751 -0.7793
  743MOL0     C 2406   9.140   7.885   7.935 -0.9653  0.4386 -0.0555
  743MOL0     C 2407   9.256   7.809   8.003  0.6980  0.1992 -0.0308
  743MOL0     C 2408   9.226   7.785   8.151 -0.5657 -0.2625  0.4830
  743MOL0     C 2409   9.141   7.666   8.190  0.9263  0.4406  0.2331
  743MOL0     C 2410   9.113   7.666   8.339 -0.2504  0.1340 -0.4032
  743MOL0     C 2411   9.017   7.545   8.371  0.8988  0.3789  0.3051
  743MOL0     C 2412   8.972   7.561   8.518 -0.0112 -0.6360 -0.2118
  743MOL0     N 2413   9.076   7.496   8.599  0.4283  0.2956 -0.9394
  743MOL0     C 2414   9.183   7.554   8.657 -0.1186 -0.5689 -0.6271
  743MOL0     C 2415   9.244   7.450   8.727 -0.4566  0.6978  0.0583
  743MOL0     C 2416   9.384   7.437   8.785  1.2052 -1.2466 -0.0804
  743MOL0     C 2417   9.483   7.371   8.699 -0.6000 -0.0559  0.5263
  743MOL0     C 2418   9.561   7.251   8.779  0.1504 -0.3402  0.9479
  743MOL0     C 2419   9.681   7.195   8.700  0.3724  0.0398 -0.0609
  743MOL0     O 2420   9.769   7.295   8.667 -0.0402  0.3511 -0.2470
  743MOL0     C 2421   9.824   7.294   8.542 -0.0532  0.8967 -0.4032
  743MOL0     C 2422   9.858   7.169   8.481  0.9640 -0.0048 -0.3061
  743MOL0     C 2423   9.925   7.181   8.355 -0.1077  0.0777 -0.0877
  743MOL0     C 2424   9.946   7.049   8.281  0.9387 -0.9389  0.4475
  743MOL0     C 2425   9.954   7.306   8.288  0.2042  0.3167  0.6544
  743MOL0     C 2426  10.035   7.322   8.165 -0.0551 -0.4812 -0.4150
  743MOL0     O 2427  10.012   7.433   8.096 -0.6008  0.8202 -0.3649
  743MOL0     C 2428  10.096   7.455   7.988 -0.4009  1.0906  0.4189
  743MOL0     C 2429  10.242   7.469   7.995  1.0416  0.6908 -0.1231
  743MOL0     C 2430  10.314   7.506   7.882  0.1026 -0.2676 -0.1842
  743MOL0     C 2431  10.240   7.518   7.751 -0.6998 -0.2915 -0.6188
  743MOL0     O 2432  10.311   7.561   7.644 -0.0930  0.1412 -0.2258
  743MOL0     C 2433  10.247   7.620   7.534 -0.2818 -0.3993  0.5378
  743MOL0     C 2434  10.360   7.669   7.436  1.7462  0.1711 -0.3650
  743MOL0     C 2435  10.432   7.547   7.368 -0.6805  0.1841 -0.1815
  743MOL0     C 2436  10.565   7.610   7.314  0.2642  0.7714 -0.4213
  743MOL0     C 2437  10.627   7.546   7.194  0.2248 -0.3121 -0.3578
  743MOL0     C 2438  10.692   7.405   7.221  0.0615  0.8228 -0.3465
  743MOL0     C 2439  10.745   7.358   7.087  1.2500  0.4097  0.1866
  743MOL0     C 2440  10.842   7.249   7.135  0.0948  0.0749  0.1494
  743MOL0    Cl 2441  10.884   7.134   7.002 -0.2502 -0.1793 -0.1701
  743MOL0     C 2442  10.105   7.495   7.747  0.4166 -0.5433 -0.0875
  743MOL0     C 2443  10.039   7.478   7.869 -0.3698 -0.3975  0.5169
  743MOL0     O 2444  10.124   7.237   8.138 -0.1985 -0.2449 -0.8660
  743MOL0     C 2445   9.907   7.424   8.349  0.1818 -0.5849  1.6373
  743MOL0     C 2446   9.850   7.420   8.480  0.7601 -0.2395  0.6656
  743MOL0     N 2447   9.161   7.342   8.735 -0.1964  1.1253 -0.3013
  743MOL0     N 2448   9.056   7.369   8.663  0.8739 -0.7228 -0.1858
  743MOL0     C 2449   9.211   8.331   8.005  0.5959 -0.1838 -0.3173
  743MOL0     C 2450   9.258   8.457   8.013  0.1855  0.2880  0.4587
  743MOL0     C 2451   9.538   8.825   7.875  0.3687  0.6606  0.0011
  743MOL0     C 2452   9.432   8.872   7.797  0.2699 -0.3789 -0.0496
  743MOL0     C 2453   9.424   9.006   7.741 -1.0132 -0.3130  0.1605
  743MOL0     C 2454   9.521   9.096   7.768 -0.9745  0.1535  0.8773
  743MOL0     O 2455   9.504   9.227   7.711  0.6494  0.2451 -0.0940
  743MOL0     C 2456   9.620   9.308   7.698  0.2324 -0.2299  0.2103
  743MOL0     C 2457   9.628   9.365   7.558  0.2117  0.6208  0.6204
  743MOL0     C 2458   9.626   9.241   7.460  0.9111  0.8313 -0.2610
  743MOL0     C 2459   9.637   9.268   7.309  0.4068 -0.7148 -0.0890
  743MOL0     C 2460   9.772   9.261   7.256  0.1753  0.6822 -1.4801
  743MOL0     C 2461   9.889   9.260   7.213  0.3190  0.2747  0.6781
  743MOL0     C 2462   9.635   9.045   7.834 -0.4076 -0.6699 -0.6011
  743MOL0     C 2463   9.645   8.910   7.885  0.1780  0.5447  0.5134
  743MOL0     C 2464   9.760   8.882   7.979  0.4941  0.1367  0.0117
  743MOL0     H 2465   9.509   8.448   7.773  3.3932  1.8424  2.6027
  743MOL0     H 2466   9.447   8.201   7.796  0.9279  1.7270 -1.2672
  743MOL0     H 2467   9.064   8.089   7.909  0.4640  0.0579 -1.1880
  743MOL0     H 2468   9.136   8.054   8.066 -0.4067  2.7590 -1.0613
  743MOL0     H 2469   9.050   7.834   7.969 -0.4632  0.4279  1.3335
  743MOL0     H 2470   9.143   7.862   7.828 -0.4611  0.0677  0.0334
  743MOL0     H 2471   9.280   7.717   7.949  3.1196 -0.0847  1.4132
  743MOL0     H 2472   9.345   7.872   7.993 -1.4836  3.1593 -3.3336
  743MOL0     H 2473   9.326   7.767   8.193 -0.2821 -1.9796 -0.8219
  743MOL0     H 2474   9.202   7.878   8.202  6.2244  3.1003 -1.2148
  743MOL0     H 2475   9.186   7.573   8.154  1.5498  0.2792  1.3718
  743MOL0     H 2476   9.048   7.657   8.134  2.7244 -1.1548 -2.7992
  743MOL0     H 2477   9.206   7.651   8.394  1.1024 -0.3273 -2.6730
  743MOL0     H 2478   9.063   7.759   8.368 -0.3191  0.4116 -1.3715
  743MOL0     H 2479   9.063   7.446   8.368  1.4977  0.6035  1.5548
  743MOL0     H 2480   8.933   7.545   8.301 -0.6564  0.2453  2.0926
  743MOL0     H 2481   8.954   7.660   8.562 -0.5676 -1.2134  0.8938
  743MOL0     H 2482   8.876   7.509   8.520 -0.9253  0.8941 -1.8124
  743MOL0     H 2483   9.227   7.651   8.637  2.0466 -1.1408  0.8854
  743MOL0     H 2484   9.373   7.379   8.878 -3.1015 -1.0552 -0.2533
  743MOL0     H 2485   9.427   7.536   8.803 -2.2367  0.3296  0.2722
  743MOL0     H 2486   9.430   7.333   8.612  0.9361  1.3446 -1.1069
  743MOL0     H 2487   9.549   7.445   8.652 -1.5404  0.3539 -0.1612
  743MOL0     H 2488   9.593   7.283   8.878 -0.1146  4.4845 -0.2900
  743MOL0     H 2489   9.483   7.177   8.802 -0.8791  0.5929  0.5761
  743MOL0     H 2490   9.732   7.118   8.760  2.5261  1.0197 -0.5426
  743MOL0     H 2491   9.635   7.146   8.614  1.2052  1.5376 -1.4264
  743MOL0     H 2492   9.834   7.078   8.533 -2.4571  0.6929 -0.4583
  743MOL0     H 2493  10.053   7.024   8.278  1.3791  0.6429  1.7552
  743MOL0     H 2494   9.897   7.058   8.183 -0.1536 -1.2566  0.9561
  743MOL0     H 2495   9.906   6.966   8.340  2.3186 -2.1940 -0.3121
  743MOL0     H 2496  10.291   7.468   8.092 -3.9865  1.3505  2.7571
  743MOL0     H 2497  10.414   7.543   7.901 -1.1430  2.8345  0.8919
  743MOL0     H 2498  10.186   7.555   7.471 -0.8546  0.0453  0.6197
  743MOL0     H 2499  10.188   7.707   7.565 -0.8113 -0.8165  0.7239
  743MOL0     H 2500  10.299   7.705   7.353  0.1851  0.8994  1.0386
  743MOL0     H 2501  10.425   7.750   7.472  0.7393  1.5613 -1.5386
  743MOL0     H 2502  10.364   7.507   7.292 -2.5777 -0.5220  1.7706
  743MOL0     H 2503  10.449   7.467   7.441  0.8934  1.8782  1.4316
  743MOL0     H 2504  10.645   7.605   7.388  0.7875 -1.7693 -1.0800
  743MOL0     H 2505  10.541   7.715   7.294 -0.1872  0.5740 -0.9630
  743MOL0     H 2506  10.541   7.536   7.128  1.0413  0.8270 -1.6542
  743MOL0     H 2507  10.700   7.616   7.152 -0.4752 -0.6178 -2.1768
  743MOL0     H 2508  10.620   7.341   7.273  0.5308 -0.7557 -1.5604
  743MOL0     H 2509  10.779   7.422   7.285  1.5245  1.3485 -2.3632
  743MOL0     H 2510  10.812   7.432   7.043 -1.1230  1.6640 -1.5493
  743MOL0     H 2511  10.667   7.325   7.018 -1.5702  2.2258  2.3068
  743MOL0     H 2512  10.795   7.185   7.210  1.0384  1.0148  1.5977
  743MOL0     H 2513  10.926   7.294   7.188  1.4450 -0.5105 -1.4057
  743MOL0     H 2514  10.045   7.500   7.657  0.6364  0.5894 -0.1876
  743MOL0     H 2515   9.931   7.485   7.871 -0.2950  4.8377 -0.3384
  743MOL0     H 2516   9.934   7.517   8.300  0.3023 -2.0550 -1.3109
  743MOL0     H 2517   9.824   7.513   8.528  0.9626  0.8123 -1.1487
  743MOL0     H 2518   9.115   8.304   8.050  1.0290  1.7411  1.9293
  743MOL0     H 2519   9.203   8.531   8.070  0.0942 -0.6418  1.6156
  743MOL0     H 2520   9.351   8.802   7.778  2.2106 -3.0551  0.9315
  743MOL0     H 2521   9.332   9.049   7.703 -2.3010 -0.8389  2.4931
  743MOL0     H 2522   9.613   9.389   7.771  2.0720  1.3271 -1.2465
  743MOL0     H 2523   9.708   9.244   7.707 -1.3705 -3.7123 -4.5443
  743MOL0     H 2524   9.714   9.429   7.534  0.7744  0.4294  2.0482
  743MOL0     H 2525   9.539   9.428   7.551 -1.0543 -0.9110  2.1828
  743MOL0     H 2526   9.694   9.162   7.492  0.1393  0.8798  1.6606
  743MOL0     H 2527   9.527   9.194   7.467  0.6936  0.9802 -1.9679
  743MOL0     H 2528   9.597   9.364   7.275 -1.2831 -1.3494 -0.0326
  743MOL0     H 2529   9.576   9.191   7.260  0.3369 -1.2843  0.8779
  743MOL0     H 2530   9.983   9.262   7.161 -0.9405 -1.9878 -1.9447
  743MOL0     H 2531   9.716   9.114   7.854 -2.7371  2.5376 -1.4253
  743MOL0     H 2532   9.813   8.791   7.949  0.3512 -0.6391  1.9665
  743MOL0     H 2533   9.832   8.965   7.980 -1.0787  1.6001 -1.3938
  743MOL0     H 2534   9.716   8.868   8.078 -4.6059  2.4041 -1.6250
  744MOL0     O 2535   7.765   8.186   2.443  0.2088  0.4335 -0.7214
  744MOL0     C 2536   7.833   8.190   2.540  0.8166 -0.2396 -0.0805
  744MOL0     O 2537   7.852   8.102   2.645  0.4079 -0.3195  0.1015
  744MOL0     C 2538   7.809   7.973   2.618  0.3475 -0.4511 -0.3164
  744MOL0     C 2539   7.898   7.884   2.558 -0.6940 -0.7801 -0.2235
  744MOL0     C 2540   7.851   7.758   2.515  0.6247 -0.3407  0.5680
  744MOL0     C 2541   7.716   7.717   2.543  0.0841  0.4184  0.6296
  744MOL0     O 2542   7.675   7.586   2.510  0.4375 -0.0176 -0.4798
  744MOL0     C 2543   7.538   7.564   2.488  0.4677 -0.7084 -0.5307
  744MOL0     C 2544   7.533   7.448   2.398 -0.1103  0.0971  0.2601
  744MOL0     C 2545   7.394   7.395   2.353  0.0483 -0.2547  0.1785
  744MOL0     C 2546   7.404   7.254   2.298 -0.0774  0.5090  0.5923
  744MOL0     C 2547   7.267   7.209   2.225 -0.3403 -0.8175 -0.4442
  744MOL0     C 2548   7.272   7.091   2.127 -0.3821 -0.6160 -0.0078
  744MOL0     C 2549   7.132   7.023   2.116  0.3732 -0.1052  0.2190
  744MOL0     C 2550   7.090   6.969   2.261  0.6645  1.1198  0.2493
  744MOL0     N 2551   6.987   6.853   2.263 -1.0496 -0.0652  0.8644
  744MOL0     C 2552   6.955   6.784   2.151  0.2095 -0.6885  0.0844
  744MOL0     C 2553   6.863   6.689   2.196 -0.3339 -0.8366  0.3107
  744MOL0     C 2554   6.789   6.594   2.102  0.0628 -0.9709 -0.7498
  744MOL0     C 2555   6.834   6.586   1.959  0.7959  0.4557 -0.2309
  744MOL0     C 2556   6.980   6.551   1.937  0.3461 -0.0869 -0.6244
  744MOL0     C 2557   7.050   6.649   1.843 -0.8077 -0.0334 -0.2014
  744MOL0     O 2558   7.147   6.582   1.752 -0.0971 -0.8501 -0.2078
  744MOL0     C 2559   7.100   6.538   1.629  1.0280  0.4847 -0.1243
  744MOL0     C 2560   6.959   6.548   1.595 -0.1186  1.0449 -0.2894
  744MOL0     C 2561   6.914   6.490   1.474 -0.3373 -1.3129 -0.5055
  744MOL0     C 2562   6.761   6.497   1.450  0.1195  0.0900  0.4581
  744MOL0     C 2563   7.010   6.435   1.380  0.2127  0.6662 -0.2998
  744MOL0     C 2564   6.982   6.388   1.240 -0.0444  0.4264 -0.3715
  744MOL0     O 2565   7.097   6.331   1.181  0.2090  0.4733  0.6335
  744MOL0     C 2566   7.090   6.280   1.047 -0.7297  0.1795  0.2201
  744MOL0     C 2567   7.038   6.362   0.948  0.1925  0.3528  0.2438
  744MOL0     C 2568   7.052   6.322   0.816  0.1147  0.7534 -0.4782
  744MOL0     C 2569   7.120   6.198   0.774  0.2182 -1.0200 -0.1657
  744MOL0     O 2570   7.117   6.141   0.648  0.7003 -0.3324 -0.1846
  744MOL0     C 2571   7.045   6.199   0.541  0.0841 -0.5534  0.2130
  744MOL0     C 2572   7.049   6.104   0.412  1.1087  0.4501 -1.0818
  744MOL0     C 2573   7.188   6.060   0.364 -1.5478  0.2057  0.8339
  744MOL0     C 2574   7.194   5.994   0.223 -0.2620 -0.3258 -0.7977
  744MOL0     C 2575   7.337   5.969   0.170 -0.7858 -0.0518  0.1323
  744MOL0     C 2576   7.433   5.870   0.241 -0.0318 -0.1750  0.5401
  744MOL0     C 2577   7.412   5.724   0.190 -0.1722  0.3797  0.1363
  744MOL0     C 2578   7.441   5.695   0.036  0.0902 -0.0663 -0.6549
  744MOL0    Cl 2579   7.610   5.721  -0.019  0.1615 -0.3653 -0.3937
  744MOL0     C 2580   7.160   6.116   0.874 -0.3489 -0.1525 -0.5049
  744MOL0     C 2581   7.159   6.157   1.006 -0.2094  0.2724 -0.1639
  744MOL0     O 2582   6.873   6.414   1.187  0.3116  0.6403 -0.6503
  744MOL0     C 2583   7.137   6.417   1.434 -0.3885 -0.0613 -0.4078
  744MOL0     C 2584   7.184   6.470   1.547  0.0667 -0.4639  0.3042
  744MOL0     N 2585   6.845   6.704   2.333 -0.3849 -0.2543  0.3994
  744MOL0     N 2586   6.918   6.806   2.366  0.9407  0.2302  0.2846
  744MOL0     C 2587   7.636   7.811   2.614 -0.1007  0.1562  0.0526
  744MOL0     C 2588   7.677   7.939   2.649 -0.4562 -0.2975 -0.8286
  744MOL0     C 2589   7.877   8.332   2.565  0.0098  0.7876  0.1310
  744MOL0     C 2590   7.793   8.437   2.526 -0.5060  0.8661 -0.7168
  744MOL0     C 2591   7.836   8.565   2.543 -0.2892  0.3369  0.4488
  744MOL0     C 2592   7.950   8.600   2.614 -0.5501  0.3352 -0.8568
  744MOL0     O 2593   7.974   8.732   2.636 -0.2637 -0.4033 -0.2722
  744MOL0     C 2594   8.094   8.774   2.583 -1.2086 -0.6360  0.5685
  744MOL0     C 2595   8.069   8.821   2.447 -0.5098 -0.6021  1.0707
  744MOL0     C 2596   7.991   8.949   2.427 -0.3385 -0.1700 -0.2804
  744MOL0     C 2597   7.913   8.950   2.293  0.0494 -0.7234 -0.4504
  744MOL0     C 2598   7.843   9.079   2.265  0.2664  0.7104 -0.5408
  744MOL0     C 2599   7.777   9.180   2.253 -1.8658  0.9199 -0.5556
  744MOL0     C 2600   8.030   8.494   2.661 -0.3203 -0.0783 -0.2006
  744MOL0     C 2601   7.999   8.358   2.628  0.5513  0.0840  0.0760
  744MOL0     C 2602   8.106   8.253   2.663 -0.2403 -0.4576 -0.2997
  744MOL0     H 2603   8.001   7.915   2.550 -1.1156  0.5948 -0.5974
  744MOL0     H 2604   7.919   7.684   2.473  0.8630  1.0455 -1.6145
  744MOL0     H 2605   7.487   7.651   2.446  0.0668  0.8265  2.7778
  744MOL0     H 2606   7.477   7.548   2.578 -0.9587 -0.1232 -1.3480
  744MOL0     H 2607   7.591   7.477   2.310  0.8352  0.4369  0.9716
  744MOL0     H 2608   7.574   7.358   2.445 -2.0080 -0.8127  0.2507
  744MOL0     H 2609   7.318   7.395   2.431  0.3364 -2.4412  0.5289
  744MOL0     H 2610   7.360   7.457   2.270  3.0589  1.5766  0.1374
  744MOL0     H 2611   7.487   7.246   2.228  0.4888  4.0520  0.6871
  744MOL0     H 2612   7.422   7.185   2.381  0.0675 -0.7175 -0.4269
  744MOL0     H 2613   7.228   7.300   2.179 -3.4089 -0.2878  2.7604
  744MOL0     H 2614   7.194   7.184   2.303  0.0684 -1.3372 -0.2175
  744MOL0     H 2615   7.311   7.123   2.029  0.9996 -1.6515  0.1743
  744MOL0     H 2616   7.345   7.014   2.151  2.1356  0.6908 -2.7581
  744MOL0     H 2617   7.132   6.941   2.044  0.2659 -0.8081  1.0027
  744MOL0     H 2618   7.065   7.098   2.076 -1.2249 -0.6150  1.8094
  744MOL0     H 2619   7.163   6.903   2.310 -0.6328 -2.3846 -2.1850
  744MOL0     H 2620   7.044   7.044   2.326 -3.6042 -2.2280  1.6214
  744MOL0     H 2621   6.981   6.796   2.046 -2.6441 -0.4575 -0.6638
  744MOL0     H 2622   6.680   6.602   2.106 -0.0096 -1.8264 -0.8841
  744MOL0     H 2623   6.800   6.494   2.146  2.7819  0.7246  3.0207
  744MOL0     H 2624   6.778   6.500   1.923  2.5829 -1.0607  0.4363
  744MOL0     H 2625   6.803   6.678   1.909  0.5339  0.9726  0.8547
  744MOL0     H 2626   7.036   6.528   2.028  1.1397 -0.5120 -1.2081
  744MOL0     H 2627   6.985   6.453   1.888 -2.1380 -0.1556 -0.8407
  744MOL0     H 2628   6.991   6.722   1.788  1.0856  1.4183 -0.4257
  744MOL0     H 2629   7.107   6.707   1.916 -1.2155 -2.6880  2.4453
  744MOL0     H 2630   6.887   6.591   1.664  1.8010 -0.5061  2.9101
  744MOL0     H 2631   6.752   6.581   1.380 -0.2967 -0.8448 -0.6420
  744MOL0     H 2632   6.708   6.519   1.543 -1.5822  2.0325 -0.8878
  744MOL0     H 2633   6.714   6.406   1.412  1.3839 -0.8589  1.1097
  744MOL0     H 2634   6.991   6.458   0.968 -1.1333 -0.3508  0.6608
  744MOL0     H 2635   7.000   6.376   0.738  1.1726  1.0552 -0.9959
  744MOL0     H 2636   6.949   6.243   0.568 -0.2494 -1.4364  0.4939
  744MOL0     H 2637   7.103   6.289   0.517 -1.9370  0.7018 -0.1942
  744MOL0     H 2638   6.988   6.016   0.429  0.2360  1.0100 -1.2302
  744MOL0     H 2639   7.008   6.160   0.327  1.1344  1.2712 -0.5713
  744MOL0     H 2640   7.221   5.992   0.443 -3.7731 -2.3185 -0.2672
  744MOL0     H 2641   7.258   6.144   0.364 -2.8577  1.3342  0.3522
  744MOL0     H 2642   7.145   6.066   0.158 -0.6047  0.3911  0.2166
  744MOL0     H 2643   7.134   5.904   0.231 -0.1492 -0.2684  1.9951
  744MOL0     H 2644   7.334   5.943   0.064  1.6552 -0.4480  0.0968
  744MOL0     H 2645   7.381   6.069   0.172 -2.2256  0.5935  0.2787
  744MOL0     H 2646   7.433   5.880   0.350 -0.3058 -0.4066  0.5632
  744MOL0     H 2647   7.535   5.905   0.223  0.2497 -1.9113 -1.7988
  744MOL0     H 2648   7.308   5.695   0.206 -0.2784  0.8944  0.3724
  744MOL0     H 2649   7.466   5.655   0.256 -0.9958  0.1369  0.5644
  744MOL0     H 2650   7.381   5.759  -0.029  0.0136  2.5719  1.8291
  744MOL0     H 2651   7.419   5.589   0.019  0.9568 -0.3183 -0.2865
  744MOL0     H 2652   7.197   6.019   0.843  0.4585 -0.7105  2.0018
  744MOL0     H 2653   7.211   6.101   1.084  1.1457 -2.1192 -2.6121
  744MOL0     H 2654   7.221   6.368   1.384 -0.6271 -2.0981  1.0477
  744MOL0     H 2655   7.289   6.463   1.572  1.0301 -0.7901 -3.2660
  744MOL0     H 2656   7.531   7.794   2.638 -0.4773 -0.5319 -1.8928
  744MOL0     H 2657   7.600   7.998   2.696  0.5259 -1.1331  1.9873
  744MOL0     H 2658   7.695   8.423   2.480 -2.1046  3.9424  1.3764
  744MOL0     H 2659   7.775   8.644   2.502  0.6502 -0.0420 -1.8466
  744MOL0     H 2660   8.137   8.848   2.651  0.9850  0.8905 -2.2325
  744MOL0     H 2661   8.172   8.698   2.584 -2.4976 -1.9996  1.5401
  744MOL0     H 2662   8.039   8.738   2.383 -1.2083  1.5910 -1.6702
  744MOL0     H 2663   8.163   8.854   2.401 -0.8408  1.9219  2.0368
  744MOL0     H 2664   7.905   8.960   2.495 -0.3508 -1.6447 -0.0033
  744MOL0     H 2665   8.058   9.034   2.420  0.1386 -0.6820 -3.5395
  744MOL0     H 2666   7.854   8.860   2.309  0.6872 -1.0093  0.3456
  744MOL0     H 2667   7.988   8.944   2.213 -0.5713  0.2349 -1.1253
  744MOL0     H 2668   7.731   9.277   2.253  0.2816  2.0250  1.1761
  744MOL0     H 2669   8.117   8.518   2.720 -0.0402  1.0929 -1.0530
  744MOL0     H 2670   8.092   8.217   2.765 -2.3824 -0.0435 -0.3904
  744MOL0     H 2671   8.090   8.166   2.599 -0.4087 -0.7460  0.1308
  744MOL0     H 2672   8.207   8.294   2.664 -0.2559 -0.4290  0.0843
  745MOL0     O 2673   1.565   7.622   3.121 -0.0471  0.6422 -0.2764
  745MOL0     C 2674   1.575   7.743   3.116 -0.1647 -0.3112  0.3544
  745MOL0     O 2675   1.502   7.831   3.197  0.4043  0.2725  0.2039
  745MOL0     C 2676   1.418   7.773   3.285  0.3367  0.1661 -0.5343
  745MOL0     C 2677   1.441   7.807   3.421 -0.1453 -0.5957 -0.6863
  745MOL0     C 2678   1.351   7.758   3.521 -0.3712 -0.4711 -1.0572
  745MOL0     C 2679   1.251   7.676   3.491 -0.1333  0.7488  0.3870
  745MOL0     O 2680   1.176   7.641   3.599 -0.1540  0.9521  0.1304
  745MOL0     C 2681   1.092   7.528   3.583 -0.0527 -0.3163 -0.0668
  745MOL0     C 2682   0.999   7.518   3.705 -0.0366  0.0750 -0.4334
  745MOL0     C 2683   0.919   7.387   3.696 -0.4516  0.1912 -0.0367
  745MOL0     C 2684   0.851   7.366   3.830  0.1116  0.4008 -0.0100
  745MOL0     C 2685   0.751   7.249   3.821 -0.0173 -0.1510  0.3850
  745MOL0     C 2686   0.715   7.194   3.964  0.2326 -0.5638 -1.0614
  745MOL0     C 2687   0.674   7.304   4.067  1.9104 -0.7185  0.3695
  745MOL0     C 2688   0.544   7.373   4.008 -0.3221  0.2212  0.1804
  745MOL0     N 2689   0.460   7.432   4.110  0.3734  0.1542 -0.5951
  745MOL0     C 2690   0.417   7.353   4.221 -0.5147 -0.1100  0.0704
  745MOL0     C 2691   0.323   7.435   4.281 -0.0692 -0.2205  0.9882
  745MOL0     C 2692   0.247   7.407   4.409  0.3412  0.0399  1.2364
  745MOL0     C 2693   0.297   7.498   4.527  0.2540 -0.9611 -0.3317
  745MOL0     C 2694   0.209   7.466   4.647  0.7508 -0.5879 -0.2560
  745MOL0     C 2695   0.054   7.475   4.629  0.5084 -0.2254  0.2940
  745MOL0     O 2696  -0.019   7.494   4.756  0.2268  0.1083 -0.3929
  745MOL0     C 2697  -0.054   7.622   4.795 -0.1635  0.0321 -0.5194
  745MOL0     C 2698  -0.052   7.741   4.710  0.0021  1.1055 -0.0720
  745MOL0     C 2699  -0.099   7.863   4.755 -1.1112 -0.5819  0.2957
  745MOL0     C 2700  -0.095   7.974   4.663  1.2716 -0.2970  0.1293
  745MOL0     C 2701  -0.150   7.879   4.882 -0.5418  0.1694 -0.9111
  745MOL0     C 2702  -0.228   7.995   4.936  0.3966  0.2993 -0.5254
  745MOL0     O 2703  -0.218   8.021   5.073  0.0303 -0.3042 -0.0988
  745MOL0     C 2704  -0.245   8.152   5.102 -0.7087 -1.7633  0.1817
  745MOL0     C 2705  -0.328   8.179   5.210 -0.4251  0.1671  0.8892
  745MOL0     C 2706  -0.357   8.313   5.253  1.0287 -0.4685 -0.1531
  745MOL0     C 2707  -0.306   8.428   5.195 -0.1156 -0.1330  0.0363
  745MOL0     O 2708  -0.300   8.561   5.234  0.3834  0.2122 -0.1465
  745MOL0     C 2709  -0.422   8.621   5.271  0.6816  0.0596 -0.3714
  745MOL0     C 2710  -0.395   8.752   5.360 -0.7387  0.1381  0.4447
  745MOL0     C 2711  -0.355   8.882   5.290  0.4185 -0.4258  0.0776
  745MOL0     C 2712  -0.321   9.003   5.382 -0.0799 -0.7990  0.2805
  745MOL0     C 2713  -0.428   9.062   5.476  0.4846  0.4209 -1.3854
  745MOL0     C 2714  -0.389   9.210   5.523 -0.0941  0.0267 -0.1185
  745MOL0     C 2715  -0.506   9.278   5.589  0.5265  0.8733  0.2911
  745MOL0     C 2716  -0.464   9.414   5.639 -0.3490 -0.2853  0.2472
  745MOL0    Cl 2717  -0.605   9.485   5.724  0.1767 -0.4316 -0.3161
  745MOL0     C 2718  -0.212   8.397   5.097  0.2536  0.6884 -0.4175
  745MOL0     C 2719  -0.183   8.269   5.045  0.1685 -0.2487 -0.2259
  745MOL0     O 2720  -0.297   8.055   4.863  0.5155 -0.3660  0.3245
  745MOL0     C 2721  -0.148   7.767   4.968  0.6055  0.4919  0.1867
  745MOL0     C 2722  -0.104   7.643   4.929 -1.0396 -0.9968  0.4588
  745MOL0     N 2723   0.318   7.558   4.213 -0.6192  0.5220  0.3991
  745MOL0     N 2724   0.403   7.559   4.108  0.7234 -0.1127 -0.7602
  745MOL0     C 2725   1.238   7.631   3.356 -0.0945 -0.3022 -0.3546
  745MOL0     C 2726   1.316   7.677   3.253  0.1156 -0.5424 -0.5240
  745MOL0     C 2727   1.682   7.794   3.025 -0.7518 -0.2942  0.8259
  745MOL0     C 2728   1.732   7.714   2.930 -0.2935  0.0358  0.8411
  745MOL0     C 2729   1.835   7.765   2.842 -1.1342  0.1616  0.6288
  745MOL0     C 2730   1.868   7.901   2.847 -0.9774  0.0331 -0.4781
  745MOL0     O 2731   1.966   7.944   2.749  0.2757  0.4523  0.6494
  745MOL0     C 2732   2.024   8.068   2.765 -0.4340 -0.8936  0.0270
  745MOL0     C 2733   1.942   8.175   2.688  0.7813 -0.6330  0.4459
  745MOL0     C 2734   1.981   8.329   2.706  0.1562 -0.0805  0.2155
  745MOL0     C 2735   1.930   8.430   2.600  0.4645  0.1260  1.2021
  745MOL0     C 2736   1.963   8.571   2.629 -0.1426  0.9677 -0.5274
  745MOL0     C 2737   1.966   8.681   2.667 -0.0610 -0.1216 -1.0637
  745MOL0     C 2738   1.815   7.984   2.942 -0.1679 -0.2436 -0.1739
  745MOL0     C 2739   1.735   7.927   3.037  0.4933  0.1114  0.2264
  745MOL0     C 2740   1.697   8.024   3.147  0.8996  0.4747 -0.3100
  745MOL0     H 2741   1.515   7.881   3.451  0.7196 -1.0758 -1.5488
  745MOL0     H 2742   1.364   7.798   3.621  2.0571 -0.0059 -1.4882
  745MOL0     H 2743   1.133   7.432   3.548  0.0698  0.6855 -2.9592
  745MOL0     H 2744   1.030   7.562   3.499 -0.3381 -2.3635 -0.7551
  745MOL0     H 2745   1.059   7.521   3.796  1.0113  0.1080 -1.1175
  745MOL0     H 2746   0.917   7.590   3.706 -3.0367 -3.0308  1.9955
  745MOL0     H 2747   0.857   7.398   3.607 -2.9998 -0.4950  1.5533
  745MOL0     H 2748   0.995   7.309   3.686  1.9951  2.6843 -2.5298
  745MOL0     H 2749   0.936   7.344   3.895 -0.1055 -2.0911 -0.4870
  745MOL0     H 2750   0.809   7.456   3.876 -2.0971 -1.1349  1.1893
  745MOL0     H 2751   0.805   7.167   3.772 -0.9872  1.4348 -3.6897
  745MOL0     H 2752   0.664   7.269   3.758  0.4885 -1.1729 -0.6657
  745MOL0     H 2753   0.621   7.142   3.943 -0.9428  2.0779 -2.7959
  745MOL0     H 2754   0.787   7.125   4.011 -0.4326 -0.1888  0.5845
  745MOL0     H 2755   0.757   7.374   4.074  0.9411  0.4533  0.5904
  745MOL0     H 2756   0.650   7.257   4.163 -0.9041 -0.2773 -0.0202
  745MOL0     H 2757   0.574   7.456   3.944  2.4107 -1.2959 -0.6879
  745MOL0     H 2758   0.478   7.313   3.944 -2.2517  2.2795  0.1121
  745MOL0     H 2759   0.453   7.257   4.258  1.7016  0.8107  0.4782
  745MOL0     H 2760   0.274   7.304   4.434 -0.6683 -0.7356 -0.6593
  745MOL0     H 2761   0.139   7.422   4.399 -0.1314 -3.1740  0.4664
  745MOL0     H 2762   0.399   7.467   4.554  0.0645 -0.9490  0.4150
  745MOL0     H 2763   0.294   7.597   4.481  2.6747 -1.9885 -3.0424
  745MOL0     H 2764   0.216   7.362   4.680 -2.8754  0.0563  3.3464
  745MOL0     H 2765   0.232   7.537   4.727 -3.7512  0.9893 -0.0838
  745MOL0     H 2766   0.023   7.547   4.553 -1.0051 -2.2548 -1.1262
  745MOL0     H 2767   0.014   7.384   4.584 -0.8718  0.5923 -0.1759
  745MOL0     H 2768   0.001   7.734   4.615 -0.9830 -1.2605 -0.5219
  745MOL0     H 2769  -0.049   8.068   4.696  4.4165 -0.6345 -2.6722
  745MOL0     H 2770  -0.195   8.004   4.630  1.3808 -1.8128 -1.7429
  745MOL0     H 2771  -0.037   7.965   4.570 -2.1607 -0.4556 -2.1784
  745MOL0     H 2772  -0.376   8.100   5.266 -1.2970 -0.4994 -0.7327
  745MOL0     H 2773  -0.444   8.319   5.317  0.3037 -2.1892 -0.9005
  745MOL0     H 2774  -0.481   8.642   5.181 -1.1882 -2.9138  0.0135
  745MOL0     H 2775  -0.488   8.556   5.330 -2.1766  1.4074 -1.8389
  745MOL0     H 2776  -0.491   8.777   5.406 -1.9647  0.1355 -1.9759
  745MOL0     H 2777  -0.321   8.722   5.435 -0.1392 -0.8558 -0.5334
  745MOL0     H 2778  -0.444   8.906   5.231  0.7280 -1.4159 -0.8271
  745MOL0     H 2779  -0.272   8.866   5.221  1.3355  1.2380  0.7528
  745MOL0     H 2780  -0.299   9.081   5.309 -0.1120 -1.3174 -0.2923
  745MOL0     H 2781  -0.231   8.986   5.442 -0.4532  0.6273  1.3018
  745MOL0     H 2782  -0.529   9.052   5.434  0.2089  0.1253 -0.6705
  745MOL0     H 2783  -0.427   9.000   5.566  2.4797 -1.0877 -2.3580
  745MOL0     H 2784  -0.355   9.280   5.446 -1.5775  1.5833  0.5827
  745MOL0     H 2785  -0.301   9.197   5.587  2.3421 -2.4707 -3.5624
  745MOL0     H 2786  -0.534   9.212   5.672 -5.0073  3.0255  0.5486
  745MOL0     H 2787  -0.595   9.284   5.526  0.6655  0.7612  0.0809
  745MOL0     H 2788  -0.445   9.487   5.559  0.8989  0.8198  1.5101
  745MOL0     H 2789  -0.380   9.402   5.708 -1.4561 -0.6545  1.5610
  745MOL0     H 2790  -0.159   8.482   5.053  1.0181  1.5944  2.1154
  745MOL0     H 2791  -0.115   8.267   4.961 -0.4838  2.6624 -0.9542
  745MOL0     H 2792  -0.204   7.761   5.061 -3.5116  3.5363 -1.7710
  745MOL0     H 2793  -0.113   7.553   4.989 -0.4606 -0.3881  1.4797
  745MOL0     H 2794   1.175   7.545   3.338  2.1849 -2.4154  1.1063
  745MOL0     H 2795   1.313   7.637   3.152 -2.6773 -3.1348  0.4337
  745MOL0     H 2796   1.715   7.607   2.932 -0.7612  0.1126  1.0724
  745MOL0     H 2797   1.876   7.695   2.770 -1.3635  1.6436 -1.0150
  745MOL0     H 2798   2.042   8.097   2.868 -2.2920 -0.2261  0.2135
  745MOL0     H 2799   2.125   8.051   2.727 -0.1121 -2.3398  1.4178
  745MOL0     H 2800   1.843   8.158   2.732  0.3968 -0.0414 -0.1760
  745MOL0     H 2801   1.934   8.142   2.584 -2.8260 -0.4030  0.5255
  745MOL0     H 2802   1.935   8.364   2.799 -1.4825 -0.5976 -0.3549
  745MOL0     H 2803   2.090   8.336   2.713  0.0110  0.8037  2.6613
  745MOL0     H 2804   1.821   8.425   2.594  0.4497  1.9451 -1.7293
  745MOL0     H 2805   1.978   8.422   2.502  0.1611 -0.6892  1.1100
  745MOL0     H 2806   1.957   8.776   2.716  1.3675 -1.0422  1.1400
  745MOL0     H 2807   1.851   8.085   2.959 -0.0734  0.0520 -1.9377
  745MOL0     H 2808   1.716   7.998   3.252 -1.5342  7.2660  2.3583
  745MOL0     H 2809   1.764   8.110   3.141  0.1815  1.0554 -0.0775
  745MOL0     H 2810   1.594   8.060   3.149  1.2860  1.6625 -0.6121
  746MOL0     O 2811   3.851   3.045   0.340  0.2706 -0.7967 -0.4119
  746MOL0     C 2812   3.855   3.132   0.247  0.0398  0.1319 -0.6012
  746MOL0     O 2813   3.947   3.121   0.146 -0.8735  0.4526  0.4168
  746MOL0     C 2814   4.055   3.037   0.156  0.0752  0.1359 -0.9092
  746MOL0     C 2815   4.137   3.017   0.268  0.4957  0.2372 -1.0717
  746MOL0     C 2816   4.239   2.915   0.264 -0.6876 -0.3636 -1.0382
  746MOL0     C 2817   4.260   2.845   0.145  0.2319  1.0645 -0.2543
  746MOL0     O 2818   4.350   2.738   0.163  0.9144 -0.9552 -0.0180
  746MOL0     C 2819   4.398   2.672   0.049 -0.7526  0.1161  0.5792
  746MOL0     C 2820   4.482   2.557   0.099 -0.0756 -0.0943  1.2776
  746MOL0     C 2821   4.606   2.581   0.201 -0.1157 -0.4893 -0.3241
  746MOL0     C 2822   4.724   2.646   0.137  0.4742  0.6206  0.4159
  746MOL0     C 2823   4.774   2.587   0.005  0.0845  0.0188 -0.0556
  746MOL0     C 2824   4.914   2.650  -0.032  1.2630  0.2108 -0.3252
  746MOL0     C 2825   5.007   2.529  -0.085 -0.5534 -0.6704 -0.6510
  746MOL0     C 2826   5.155   2.582  -0.093 -0.3471 -0.3796  0.2800
  746MOL0     N 2827   5.242   2.476  -0.146 -0.4922  0.0232 -0.1267
  746MOL0     C 2828   5.274   2.355  -0.086  0.9733  0.4627  0.3287
  746MOL0     C 2829   5.354   2.301  -0.182  0.4083 -0.6524  0.3518
  746MOL0     C 2830   5.411   2.164  -0.171  1.1010  0.0136  0.3152
  746MOL0     C 2831   5.539   2.140  -0.243 -0.7476  0.1289 -0.6421
  746MOL0     C 2832   5.649   2.246  -0.196  0.0910  0.5133  0.4504
  746MOL0     C 2833   5.697   2.226  -0.055  0.1626  0.0599  0.3602
  746MOL0     O 2834   5.791   2.121  -0.076 -0.4719 -0.0435 -0.2241
  746MOL0     C 2835   5.861   2.088   0.032  1.1402  0.1045 -0.7881
  746MOL0     C 2836   5.875   1.952   0.058 -0.2713  0.1896 -0.1616
  746MOL0     C 2837   5.937   1.905   0.173  0.7614 -0.4185  0.7069
  746MOL0     C 2838   5.944   1.759   0.185  0.0508  0.8414  0.6145
  746MOL0     C 2839   5.988   1.992   0.270 -0.1034 -0.1877  0.7446
  746MOL0     C 2840   6.069   1.954   0.389  0.0808  0.4023 -0.0826
  746MOL0     O 2841   6.143   2.050   0.450  0.4115  0.4620 -0.3030
  746MOL0     C 2842   6.258   2.019   0.518 -0.2868 -0.5996  0.5723
  746MOL0     C 2843   6.301   2.119   0.610  0.2343  0.5732  0.1862
  746MOL0     C 2844   6.429   2.097   0.680  0.0815  0.4361  0.0327
  746MOL0     C 2845   6.508   1.983   0.652 -1.1214 -0.1911 -0.0397
  746MOL0     O 2846   6.634   1.968   0.713 -0.1616 -0.5854 -0.5730
  746MOL0     C 2847   6.687   1.834   0.710 -0.0277  0.6026  0.1894
  746MOL0     C 2848   6.773   1.800   0.839 -0.7742 -0.1868 -0.5518
  746MOL0     C 2849   6.699   1.817   0.971 -0.2676 -0.5924 -1.1369
  746MOL0     C 2850   6.791   1.778   1.088 -0.0362  0.0394 -0.4414
  746MOL0     C 2851   6.858   1.644   1.086  0.6390 -0.8718 -0.1366
  746MOL0     C 2852   6.764   1.529   1.067  0.6246  0.0577 -0.6535
  746MOL0     C 2853   6.686   1.502   1.199 -0.2487 -0.1673 -0.7947
  746MOL0     C 2854   6.642   1.360   1.212  0.5962 -0.2681 -0.5597
  746MOL0    Cl 2855   6.766   1.235   1.212 -0.5033  0.4108  0.2781
  746MOL0     C 2856   6.461   1.890   0.556 -1.1585  0.0894 -0.1844
  746MOL0     C 2857   6.344   1.916   0.484 -0.7816 -0.2482  0.3990
  746MOL0     O 2858   6.047   1.842   0.434  0.3925 -0.4157  1.0076
  746MOL0     C 2859   5.972   2.129   0.251  0.3829 -0.0599 -0.3539
  746MOL0     C 2860   5.907   2.178   0.138 -0.8897 -0.3950  0.1503
  746MOL0     N 2861   5.380   2.383  -0.286  0.0418 -0.0873 -0.4453
  746MOL0     N 2862   5.294   2.481  -0.270 -0.7357 -0.2583  0.3407
  746MOL0     C 2863   4.185   2.862   0.034 -0.1947 -0.9594 -0.5666
  746MOL0     C 2864   4.079   2.951   0.049  0.8785 -0.5174  0.4590
  746MOL0     C 2865   3.761   3.247   0.252  0.4722 -0.9111 -0.9621
  746MOL0     C 2866   3.802   3.368   0.201  0.4581  0.2774 -0.9992
  746MOL0     C 2867   3.722   3.478   0.195  0.1337 -0.2978 -0.5151
  746MOL0     C 2868   3.593   3.482   0.251  0.6991 -0.4779  0.1473
  746MOL0     O 2869   3.508   3.583   0.283 -0.7706 -0.7730  0.5825
  746MOL0     C 2870   3.543   3.716   0.234  0.3301 -0.2999 -0.0701
  746MOL0     C 2871   3.650   3.770   0.313 -0.4522 -0.0858 -0.0884
  746MOL0     C 2872   3.608   3.781   0.463 -0.4822  0.4307 -0.5440
  746MOL0     C 2873   3.715   3.852   0.550 -0.7002  0.5042  0.5095
  746MOL0     C 2874   3.639   3.918   0.654 -0.1347 -0.2516 -0.1147
  746MOL0     C 2875   3.592   3.963   0.756 -0.0576  0.9735  0.4814
  746MOL0     C 2876   3.546   3.359   0.300  0.8243  0.1517 -0.5715
  746MOL0     C 2877   3.628   3.250   0.306 -0.2423  0.2689  0.4273
  746MOL0     C 2878   3.566   3.132   0.376 -0.2568 -0.0187  0.2974
  746MOL0     H 2879   4.118   3.080   0.354  0.2930 -0.5612 -0.5289
  746MOL0     H 2880   4.308   2.899   0.347 -0.0131  2.7538 -0.8972
  746MOL0     H 2881   4.455   2.737  -0.018 -1.7006  1.0858  0.6798
  746MOL0     H 2882   4.317   2.624  -0.008  1.3394 -5.0534  1.4894
  746MOL0     H 2883   4.414   2.491   0.154  1.1930 -0.4095  2.5558
  746MOL0     H 2884   4.515   2.497   0.014 -1.2726  1.2169 -0.1529
  746MOL0     H 2885   4.588   2.640   0.292 -0.1991 -0.8881 -0.0803
  746MOL0     H 2886   4.635   2.483   0.239 -0.6000 -0.6881 -0.4518
  746MOL0     H 2887   4.698   2.749   0.111  0.3080  0.6450  0.6761
  746MOL0     H 2888   4.809   2.656   0.205  1.2549 -1.5674 -0.1362
  746MOL0     H 2889   4.700   2.611  -0.072 -1.9246  0.6918  1.9892
  746MOL0     H 2890   4.781   2.478   0.014 -1.4537 -0.0287  0.9439
  746MOL0     H 2891   4.895   2.729  -0.105 -0.5869 -0.3035 -0.4471
  746MOL0     H 2892   4.961   2.697   0.055  0.2202 -0.7444  0.7936
  746MOL0     H 2893   4.971   2.512  -0.187 -1.6794 -0.9153 -0.2262
  746MOL0     H 2894   5.001   2.447  -0.013  1.3215  1.5849  2.3305
  746MOL0     H 2895   5.162   2.666  -0.162  2.2428  2.1089  3.2653
  746MOL0     H 2896   5.184   2.615   0.007 -2.0290 -0.4188  0.8167
  746MOL0     H 2897   5.238   2.322   0.010 -1.5035  1.8685 -0.0129
  746MOL0     H 2898   5.342   2.091  -0.216 -1.4269  2.2824  0.2574
  746MOL0     H 2899   5.391   2.142  -0.066 -4.4364 -2.0715 -0.8097
  746MOL0     H 2900   5.577   2.041  -0.219  0.1793  1.2916  3.4103
  746MOL0     H 2901   5.518   2.151  -0.350 -0.8520 -4.0779 -1.2245
  746MOL0     H 2902   5.736   2.260  -0.261 -0.4003  2.5608  0.1565
  746MOL0     H 2903   5.604   2.344  -0.213 -0.6326 -0.0093 -0.8258
  746MOL0     H 2904   5.744   2.321  -0.027 -1.4397  1.2999 -0.9369
  746MOL0     H 2905   5.614   2.202   0.011 -1.0386 -0.4519 -1.2538
  746MOL0     H 2906   5.830   1.881  -0.010 -1.7681 -2.4047  3.2223
  746MOL0     H 2907   5.888   1.722   0.271  0.5008 -0.3761  0.4127
  746MOL0     H 2908   6.047   1.721   0.183 -0.2399  0.0396  0.3490
  746MOL0     H 2909   5.907   1.710   0.094  2.3508 -0.1375  0.1245
  746MOL0     H 2910   6.242   2.205   0.639  1.0130  0.8199  1.1204
  746MOL0     H 2911   6.457   2.169   0.756 -3.3704  1.5469  0.4191
  746MOL0     H 2912   6.614   1.753   0.704  0.4124  0.2466 -0.6695
  746MOL0     H 2913   6.762   1.830   0.630  0.8496  0.1049  1.0177
  746MOL0     H 2914   6.803   1.695   0.832 -3.5903 -1.3343  2.1881
  746MOL0     H 2915   6.850   1.877   0.834 -0.1416 -0.6468  1.3767
  746MOL0     H 2916   6.614   1.749   0.966  0.2027 -1.1067 -2.7346
  746MOL0     H 2917   6.667   1.920   0.989  1.8684 -0.1912  0.8456
  746MOL0     H 2918   6.736   1.775   1.182 -0.8193 -0.6759 -0.9007
  746MOL0     H 2919   6.870   1.852   1.086  0.6243 -0.6428 -2.6688
  746MOL0     H 2920   6.920   1.632   0.997 -0.3973 -0.9009 -0.8560
  746MOL0     H 2921   6.915   1.632   1.179  0.8150 -0.5458 -0.2006
  746MOL0     H 2922   6.837   1.448   1.053 -1.4565 -1.7306 -1.7913
  746MOL0     H 2923   6.693   1.532   0.984 -0.5602 -0.2320  0.3273
  746MOL0     H 2924   6.603   1.573   1.203  1.4017  1.8286 -0.2487
  746MOL0     H 2925   6.751   1.509   1.287 -0.0651  0.8742 -0.9980
  746MOL0     H 2926   6.556   1.347   1.146  0.6869  0.7762 -0.9083
  746MOL0     H 2927   6.588   1.363   1.307 -1.5935  1.9985 -1.7666
  746MOL0     H 2928   6.528   1.811   0.526  1.0905  1.3004  1.3937
  746MOL0     H 2929   6.335   1.850   0.399  2.2323  1.1001 -1.1221
  746MOL0     H 2930   6.031   2.196   0.313 -0.1903 -0.2362  0.3960
  746MOL0     H 2931   5.897   2.285   0.126 -2.5029 -0.3931  1.2396
  746MOL0     H 2932   4.197   2.804  -0.057 -1.7830 -0.3085 -1.2195
  746MOL0     H 2933   3.999   2.956  -0.023 -0.4123 -1.0986  1.8090
  746MOL0     H 2934   3.903   3.371   0.160 -0.2157  1.9944 -2.7055
  746MOL0     H 2935   3.742   3.572   0.145 -0.1589  2.6379  4.2611
  746MOL0     H 2936   3.566   3.711   0.127 -1.7441  0.3995 -0.5980
  746MOL0     H 2937   3.454   3.779   0.234 -1.1020 -2.2144 -0.8621
  746MOL0     H 2938   3.685   3.861   0.263 -0.3735 -1.0112 -1.7586
  746MOL0     H 2939   3.736   3.703   0.314 -0.9862 -0.7877 -0.1609
  746MOL0     H 2940   3.510   3.828   0.454 -2.2710 -3.1834 -1.6333
  746MOL0     H 2941   3.583   3.684   0.505  0.2504 -0.0239 -1.1440
  746MOL0     H 2942   3.762   3.931   0.491  1.0327 -0.4000  0.6083
  746MOL0     H 2943   3.789   3.787   0.596 -0.2084  0.4555 -0.3346
  746MOL0     H 2944   3.555   4.000   0.850  1.0337  0.4036  1.1650
  746MOL0     H 2945   3.451   3.362   0.351  2.3877  0.9632  2.5080
  746MOL0     H 2946   3.598   3.126   0.481  0.3820 -2.2802  0.0255
  746MOL0     H 2947   3.457   3.139   0.363 -0.3007 -2.5864 -1.4814
  746MOL0     H 2948   3.606   3.042   0.329  7.0582  2.3087  0.7755
  747MOL0     O 2949   9.587   7.261   1.170 -0.7828 -0.8572 -0.5733
  747MOL0     C 2950   9.559   7.156   1.218 -0.4179  0.7764  0.2299
  747MOL0     O 2951   9.443   7.131   1.299  0.1863  0.3258  0.5495
  747MOL0     C 2952   9.388   7.240   1.367 -0.0383 -0.1732 -0.5046
  747MOL0     C 2953   9.412   7.240   1.506 -0.1769  0.3566 -0.3126
  747MOL0     C 2954   9.349   7.340   1.582  0.2618 -0.0871  0.1999
  747MOL0     C 2955   9.285   7.450   1.518  0.0305 -0.5173  0.0691
  747MOL0     O 2956   9.221   7.549   1.597 -0.4043 -0.4067  0.8326
  747MOL0     C 2957   9.260   7.685   1.583 -0.8237 -0.2771  0.2199
  747MOL0     C 2958   9.173   7.775   1.677  0.1022 -0.7512  0.2640
  747MOL0     C 2959   9.028   7.781   1.629  0.5397  0.4549 -0.2642
  747MOL0     C 2960   8.948   7.874   1.727 -0.0237  0.0128  0.8181
  747MOL0     C 2961   8.797   7.862   1.702 -0.7032  0.6742 -0.2201
  747MOL0     C 2962   8.718   7.943   1.802 -0.3458 -0.3177 -0.5907
  747MOL0     C 2963   8.571   7.937   1.797 -0.4299 -0.8395  0.2216
  747MOL0     C 2964   8.511   7.803   1.863  0.6642 -0.6726  0.1043
  747MOL0     N 2965   8.365   7.803   1.872  0.6470  0.2793 -0.2238
  747MOL0     C 2966   8.271   7.896   1.829  1.0495  0.1243 -0.1007
  747MOL0     C 2967   8.156   7.850   1.873 -0.0894  0.1063 -0.1388
  747MOL0     C 2968   8.018   7.913   1.865 -0.4716  0.0183 -0.2632
  747MOL0     C 2969   8.004   7.976   1.723 -0.1844  1.0629 -0.2336
  747MOL0     C 2970   7.863   8.043   1.710  0.3855  0.2836  0.4474
  747MOL0     C 2971   7.847   8.159   1.815 -0.2102  0.2145 -0.5193
  747MOL0     O 2972   7.745   8.253   1.768  0.6793 -0.2707  0.2983
  747MOL0     C 2973   7.770   8.370   1.691  0.2430 -0.2735 -0.5765
  747MOL0     C 2974   7.662   8.462   1.672 -0.3025 -1.1172  0.1280
  747MOL0     C 2975   7.676   8.587   1.620 -0.2885 -0.1938  0.5336
  747MOL0     C 2976   7.548   8.673   1.593  0.7990 -0.4405  0.0514
  747MOL0     C 2977   7.802   8.630   1.564  0.5685 -1.0245 -0.4135
  747MOL0     C 2978   7.830   8.769   1.504 -0.7136  0.8303  0.3738
  747MOL0     O 2979   7.936   8.784   1.417  0.4734 -0.6167 -0.3542
  747MOL0     C 2980   7.989   8.908   1.388  0.9904  0.2634  0.5625
  747MOL0     C 2981   7.922   8.991   1.304  0.0097  0.7551 -0.0647
  747MOL0     C 2982   7.990   9.111   1.251 -0.0380 -0.2568 -0.0667
  747MOL0     C 2983   8.128   9.136   1.285  0.0096 -0.0290  1.2097
  747MOL0     O 2984   8.187   9.240   1.215  0.8030 -0.3395  0.0606
  747MOL0     C 2985   8.329   9.252   1.204 -0.4841 -0.2429 -0.0204
  747MOL0     C 2986   8.361   9.398   1.170 -0.2199 -0.5966  0.1962
  747MOL0     C 2987   8.341   9.508   1.279 -0.6517  0.0330  0.0175
  747MOL0     C 2988   8.412   9.636   1.227  0.9463 -0.7765  0.3899
  747MOL0     C 2989   8.458   9.728   1.345  0.4127  0.1454 -0.5371
  747MOL0     C 2990   8.607   9.697   1.383  0.2205 -0.3693  0.5733
  747MOL0     C 2991   8.657   9.808   1.474 -0.1132 -0.2296  0.0287
  747MOL0     C 2992   8.695   9.941   1.413  0.2852  0.7576  0.4612
  747MOL0    Cl 2993   8.831   9.892   1.313 -0.3172  0.1290 -0.0481
  747MOL0     C 2994   8.186   9.039   1.372 -0.7496 -1.0817  0.2671
  747MOL0     C 2995   8.118   8.929   1.415  1.0382 -0.5449  0.0572
  747MOL0     O 2996   7.763   8.861   1.550  0.1107 -0.9021  0.6494
  747MOL0     C 2997   7.904   8.535   1.564 -1.2126  0.6576  0.4605
  747MOL0     C 2998   7.895   8.412   1.636  0.0072 -0.3991  0.2787
  747MOL0     N 2999   8.181   7.725   1.925  0.5222 -0.2851  0.2947
  747MOL0     N 3000   8.299   7.695   1.922  0.0304  0.2800  0.3412
  747MOL0     C 3001   9.260   7.447   1.375 -0.8099 -0.6491  0.6155
  747MOL0     C 3002   9.315   7.343   1.301  0.5740  0.4140 -0.5969
  747MOL0     C 3003   9.657   7.040   1.210 -0.4039  0.7833  0.8274
  747MOL0     C 3004   9.647   6.922   1.292  0.0773 -0.1308  0.5013
  747MOL0     C 3005   9.729   6.820   1.285 -0.0365 -0.2022  0.4439
  747MOL0     C 3006   9.838   6.807   1.192 -0.4457 -0.1154  0.2391
  747MOL0     O 3007   9.929   6.703   1.179  0.3232  0.1721  0.1686
  747MOL0     C 3008   9.869   6.573   1.202 -0.1934  0.0498 -0.9992
  747MOL0     C 3009   9.989   6.469   1.213  0.2712  0.0885  0.1454
  747MOL0     C 3010  10.069   6.487   1.342  0.3106 -0.4065 -0.0696
  747MOL0     C 3011  10.154   6.363   1.371 -0.2755 -0.3345  0.1151
  747MOL0     C 3012  10.283   6.409   1.417  0.6851  0.0756  0.1060
  747MOL0     C 3013  10.388   6.430   1.474  0.5312 -0.0037  0.4285
  747MOL0     C 3014   9.853   6.923   1.119  0.6325  0.1955  0.2102
  747MOL0     C 3015   9.775   7.041   1.134  0.0701 -0.4446  0.3602
  747MOL0     C 3016   9.816   7.153   1.040  0.3030  0.1173 -0.2592
  747MOL0     H 3017   9.463   7.157   1.554 -1.0701 -0.2738 -0.4184
  747MOL0     H 3018   9.355   7.341   1.690 -1.1145 -2.1910  0.3501
  747MOL0     H 3019   9.258   7.725   1.481  3.2044  0.7730  0.3728
  747MOL0     H 3020   9.367   7.694   1.606 -0.7962  1.3973 -0.4651
  747MOL0     H 3021   9.175   7.740   1.780 -1.2086  1.3401  1.0756
  747MOL0     H 3022   9.206   7.879   1.673 -0.7038 -0.4967 -0.1467
  747MOL0     H 3023   9.036   7.819   1.527  1.2011  0.3581 -0.2520
  747MOL0     H 3024   8.979   7.684   1.617 -1.1511  0.7157  3.2095
  747MOL0     H 3025   8.976   7.846   1.829  0.8842  1.9734  1.1511
  747MOL0     H 3026   8.974   7.978   1.711 -1.4037 -0.0697 -2.7465
  747MOL0     H 3027   8.759   7.759   1.695 -1.4550  0.9757 -0.7423
  747MOL0     H 3028   8.772   7.902   1.603 -0.9969  0.6690 -0.1496
  747MOL0     H 3029   8.733   7.900   1.901 -0.7753  1.0972  0.1084
  747MOL0     H 3030   8.763   8.042   1.799 -0.8577  0.0503  1.9910
  747MOL0     H 3031   8.524   7.964   1.702  2.9029  0.6172 -1.1613
  747MOL0     H 3032   8.536   8.023   1.855  1.4523  1.0943 -1.3830
  747MOL0     H 3033   8.551   7.720   1.804 -2.5194 -2.1544 -0.1955
  747MOL0     H 3034   8.535   7.798   1.970  0.0217 -2.9190  0.1946
  747MOL0     H 3035   8.285   7.995   1.786 -3.4258 -0.4046 -3.4977
  747MOL0     H 3036   8.010   7.996   1.935  1.8018  0.6349 -0.6663
  747MOL0     H 3037   7.939   7.837   1.873  0.1971 -0.6391  0.2402
  747MOL0     H 3038   8.086   8.039   1.688  0.0517  1.0737  0.3213
  747MOL0     H 3039   7.995   7.896   1.650 -2.6011 -0.6131  1.7078
  747MOL0     H 3040   7.851   8.093   1.614 -0.1774  0.1508  0.4455
  747MOL0     H 3041   7.788   7.963   1.709  2.0587 -1.3425 -0.1657
  747MOL0     H 3042   7.814   8.106   1.904 -1.1981  1.0821 -0.3459
  747MOL0     H 3043   7.946   8.203   1.831  0.2394 -1.1174  0.5609
  747MOL0     H 3044   7.563   8.424   1.694 -0.7206  0.9809  2.2504
  747MOL0     H 3045   7.562   8.726   1.498 -0.6958 -0.1978 -0.0459
  747MOL0     H 3046   7.560   8.750   1.669  1.4163 -0.0959 -0.3836
  747MOL0     H 3047   7.459   8.611   1.603  1.7126 -1.5342  1.8478
  747MOL0     H 3048   7.822   8.969   1.267 -0.0412  0.3242  0.3279
  747MOL0     H 3049   7.929   9.179   1.192 -1.1884  0.3373  1.7386
  747MOL0     H 3050   8.370   9.228   1.303  0.1857  0.1310 -0.2018
  747MOL0     H 3051   8.378   9.177   1.141  1.3273 -0.8650  1.9906
  747MOL0     H 3052   8.464   9.392   1.132 -0.4141  0.1897 -0.4920
  747MOL0     H 3053   8.295   9.428   1.088 -0.4944  1.6012  1.1636
  747MOL0     H 3054   8.379   9.483   1.378 -2.3466 -2.7336  0.0948
  747MOL0     H 3055   8.233   9.522   1.291 -0.6639  1.9937 -1.8320
  747MOL0     H 3056   8.339   9.698   1.176  2.4403  3.0927  2.5551
  747MOL0     H 3057   8.501   9.607   1.171 -1.1708 -2.4314 -2.3954
  747MOL0     H 3058   8.460   9.836   1.327 -1.7353  0.1375 -1.0524
  747MOL0     H 3059   8.388   9.717   1.429 -0.1092  0.4420 -0.9265
  747MOL0     H 3060   8.668   9.696   1.292  1.8794  1.2206  1.6000
  747MOL0     H 3061   8.611   9.602   1.438 -2.4351  0.2509  1.9911
  747MOL0     H 3062   8.746   9.776   1.529  1.3759  2.8978 -0.2993
  747MOL0     H 3063   8.577   9.835   1.544 -2.1005 -0.5600 -1.9883
  747MOL0     H 3064   8.738  10.006   1.491  0.0816  1.4371  0.0201
  747MOL0     H 3065   8.623   9.984   1.343  0.3512 -0.8800 -0.6762
  747MOL0     H 3066   8.292   9.044   1.396 -1.1884 -1.4828  2.4344
  747MOL0     H 3067   8.181   8.862   1.472  3.3569 -1.2557 -3.0820
  747MOL0     H 3068   8.003   8.562   1.528 -1.0226 -5.0596 -5.0454
  747MOL0     H 3069   7.990   8.362   1.647  1.9338  1.8570 -3.8935
  747MOL0     H 3070   9.202   7.524   1.325  0.0884 -0.5332 -0.2685
  747MOL0     H 3071   9.307   7.337   1.193  0.8110  1.6294 -0.6940
  747MOL0     H 3072   9.566   6.915   1.364  0.7331  0.9916  1.3825
  747MOL0     H 3073   9.706   6.731   1.342 -0.6694  1.5334  3.0407
  747MOL0     H 3074   9.802   6.575   1.289 -1.5799  4.8558 -1.8982
  747MOL0     H 3075   9.807   6.533   1.121 -1.4579 -0.3393  0.1340
  747MOL0     H 3076  10.058   6.489   1.131  0.8348 -0.4041  0.4937
  747MOL0     H 3077   9.947   6.368   1.206 -2.0702  1.1049 -2.7705
  747MOL0     H 3078  10.129   6.577   1.326 -0.8857 -0.0678 -3.2221
  747MOL0     H 3079  10.006   6.507   1.430 -1.3386  2.7545 -1.7855
  747MOL0     H 3080  10.174   6.304   1.281  2.8966 -2.4234  1.9880
  747MOL0     H 3081  10.100   6.294   1.436 -0.7549 -1.1199 -1.0797
  747MOL0     H 3082  10.479   6.443   1.528  0.0562  1.0745  1.0011
  747MOL0     H 3083   9.949   6.942   1.072  0.7542  2.3194  1.2004
  747MOL0     H 3084   9.870   7.228   1.099  1.4619 -1.1337  0.3190
  747MOL0     H 3085   9.891   7.109   0.974  1.3615 -2.9217  2.6824
  747MOL0     H 3086   9.737   7.191   0.975 -0.9689  0.7470  1.5790
  748MOL0     O 3087  10.186   8.815   5.515  0.2396 -0.5166 -0.2716
  748MOL0     C 3088  10.284   8.865   5.464 -0.0183 -0.4035  0.3643
  748MOL0     O 3089  10.403   8.882   5.537 -0.5277  1.0691 -0.5392
  748MOL0     C 3090  10.395   8.908   5.677  0.5919 -0.2752  0.5282
  748MOL0     C 3091  10.283   8.957   5.743  0.3214  0.2768  0.3966
  748MOL0     C 3092  10.282   8.982   5.883  1.0795  0.7165 -0.0198
  748MOL0     C 3093  10.399   8.977   5.962 -0.0334  1.0638  0.4339
  748MOL0     O 3094  10.400   9.006   6.095 -0.0635 -0.1356 -0.2936
  748MOL0     C 3095  10.411   9.149   6.117  0.5812  0.3019 -0.8311
  748MOL0     C 3096  10.489   9.157   6.254 -0.3549  0.2766  0.2165
  748MOL0     C 3097  10.419   9.207   6.375  0.1523  0.2138 -0.2820
  748MOL0     C 3098  10.517   9.244   6.498 -0.3810  0.3413  0.1057
  748MOL0     C 3099  10.450   9.304   6.615 -0.3206  0.3178 -0.2461
  748MOL0     C 3100  10.547   9.340   6.733  0.0452  0.2864 -0.9135
  748MOL0     C 3101  10.607   9.482   6.730  0.3756  0.2188 -1.0344
  748MOL0     C 3102  10.749   9.470   6.791 -0.0525  0.0904 -0.8695
  748MOL0     N 3103  10.838   9.431   6.685 -0.8736  0.1644  0.4692
  748MOL0     C 3104  10.857   9.299   6.634  0.4706 -1.2688 -1.4324
  748MOL0     C 3105  10.977   9.322   6.565 -0.2938  0.2201  0.4160
  748MOL0     C 3106  11.040   9.211   6.495 -0.2965 -0.8178  0.0980
  748MOL0     C 3107  10.955   9.107   6.412  0.2459  0.3039  1.1348
  748MOL0     C 3108  11.032   8.989   6.353  0.0471  0.9771  0.5252
  748MOL0     C 3109  10.933   8.869   6.310 -0.6294 -0.2416  0.7362
  748MOL0     O 3110  10.997   8.801   6.214  0.1533  0.4643  0.1127
  748MOL0     C 3111  10.939   8.694   6.150  0.2602 -0.6341  0.2096
  748MOL0     C 3112  10.798   8.676   6.127 -0.8302 -0.2404 -0.1421
  748MOL0     C 3113  10.755   8.553   6.094  0.3830 -0.0838 -0.2749
  748MOL0     C 3114  10.599   8.539   6.074 -0.2347  0.3795 -0.4464
  748MOL0     C 3115  10.844   8.446   6.101 -1.3396  0.2463  0.5550
  748MOL0     C 3116  10.788   8.306   6.088  0.3882  0.4377 -0.1562
  748MOL0     O 3117  10.825   8.212   6.173  0.0893  0.3076  0.9469
  748MOL0     C 3118  10.816   8.076   6.154  1.1608  0.1681 -0.3450
  748MOL0     C 3119  10.721   8.002   6.225  0.3103  0.4936  0.2119
  748MOL0     C 3120  10.724   7.864   6.210  0.0874 -0.0244 -0.4604
  748MOL0     C 3121  10.816   7.800   6.120 -1.1305  0.0280  0.4585
  748MOL0     O 3122  10.825   7.666   6.114 -0.1515 -0.0244  0.5342
  748MOL0     C 3123  10.960   7.616   6.126 -0.0501  0.1386  0.0876
  748MOL0     C 3124  11.064   7.676   6.228  0.5625  0.4666 -0.2682
  748MOL0     C 3125  11.157   7.558   6.263  0.3196  0.3168  0.1258
  748MOL0     C 3126  11.266   7.622   6.347  0.4945  0.4622 -0.2802
  748MOL0     C 3127  11.347   7.504   6.409 -0.6048  0.4559 -0.4980
  748MOL0     C 3128  11.438   7.458   6.295 -0.3571 -0.3046  0.4699
  748MOL0     C 3129  11.524   7.328   6.338 -0.4890 -0.9077 -0.6003
  748MOL0     C 3130  11.586   7.268   6.211  0.0990 -0.0733  0.3984
  748MOL0    Cl 3131  11.695   7.138   6.266  0.3153  0.0826  0.0857
  748MOL0     C 3132  10.900   7.881   6.037 -0.4090 -0.2123 -0.3167
  748MOL0     C 3133  10.900   8.017   6.064  0.0782 -0.3650  0.3194
  748MOL0     O 3134  10.711   8.279   5.992 -1.5427  1.0016  0.1811
  748MOL0     C 3135  10.983   8.463   6.121  0.5820 -0.8576  0.1986
  748MOL0     C 3136  11.030   8.589   6.148  0.4273 -0.2108  0.6626
  748MOL0     N 3137  11.011   9.455   6.542  0.6154  0.4255 -0.0429
  748MOL0     N 3138  10.931   9.517   6.625 -0.4514  0.4058  1.1334
  748MOL0     C 3139  10.516   8.924   5.895  0.1636 -0.7579  1.1019
  748MOL0     C 3140  10.513   8.900   5.754 -0.2051 -0.6302  0.0890
  748MOL0     C 3141  10.303   8.874   5.313 -0.0095  0.3018 -0.0584
  748MOL0     C 3142  10.422   8.830   5.258 -0.0675 -0.5928  1.0872
  748MOL0     C 3143  10.433   8.821   5.118  0.1925 -0.1166 -0.3039
  748MOL0     C 3144  10.326   8.859   5.030  0.0311 -0.2401 -0.7896
  748MOL0     O 3145  10.318   8.839   4.895  0.4525  0.3619 -0.3782
  748MOL0     C 3146  10.375   8.721   4.841  0.4286  1.0704  0.5484
  748MOL0     C 3147  10.255   8.636   4.792  0.0654  0.9293 -0.6207
  748MOL0     C 3148  10.296   8.544   4.686 -0.3856 -0.3352 -0.5615
  748MOL0     C 3149  10.183   8.501   4.590  0.4348 -0.1181 -0.0056
  748MOL0     C 3150  10.231   8.462   4.456  0.2337 -0.1561  0.0230
  748MOL0     C 3151  10.277   8.439   4.345  0.3198  0.4352 -0.3790
  748MOL0     C 3152  10.206   8.898   5.095  1.0870  0.0275 -1.1632
  748MOL0     C 3153  10.194   8.907   5.233 -0.2606  0.7491  0.4316
  748MOL0     C 3154  10.074   8.979   5.284 -0.8450 -0.6589  1.1859
  748MOL0     H 3155  10.183   8.970   5.702  0.1112  1.8052  1.3169
  748MOL0     H 3156  10.196   9.008   5.944 -1.0452 -4.6793 -0.2451
  748MOL0     H 3157  10.310   9.190   6.113  1.4787  2.5443 -2.1288
  748MOL0     H 3158  10.472   9.196   6.039 -0.1766  2.9895  0.1025
  748MOL0     H 3159  10.524   9.055   6.272 -1.9300 -0.1735  0.8879
  748MOL0     H 3160  10.581   9.214   6.237  1.3613 -2.3961 -0.2147
  748MOL0     H 3161  10.376   9.304   6.348 -0.2287  1.4548  3.9660
  748MOL0     H 3162  10.344   9.139   6.415  0.5377  0.5292  1.0278
  748MOL0     H 3163  10.575   9.152   6.509 -1.7765 -0.9716 -2.5847
  748MOL0     H 3164  10.594   9.314   6.463  1.4800 -0.6767  1.8843
  748MOL0     H 3165  10.369   9.237   6.645  0.3005  0.2662  1.4049
  748MOL0     H 3166  10.398   9.399   6.597  0.5471  0.4816 -2.0897
  748MOL0     H 3167  10.489   9.338   6.826 -0.5883 -3.1914 -1.2503
  748MOL0     H 3168  10.621   9.260   6.740 -1.5049 -1.1985 -0.9753
  748MOL0     H 3169  10.542   9.546   6.792  0.0267 -3.4230  2.8283
  748MOL0     H 3170  10.606   9.508   6.624 -2.1116  0.5115 -0.9956
  748MOL0     H 3171  10.783   9.569   6.822  0.2363 -0.8456  2.1126
  748MOL0     H 3172  10.751   9.418   6.887  1.0053 -0.9761 -1.4366
  748MOL0     H 3173  10.813   9.203   6.659 -1.5121  0.2167  1.4070
  748MOL0     H 3174  11.108   9.158   6.564  0.6913 -1.1106 -1.0594
  748MOL0     H 3175  11.102   9.267   6.425 -0.9141  1.5054  1.3163
  748MOL0     H 3176  10.870   9.086   6.479 -0.1172 -0.3700  0.4854
  748MOL0     H 3177  10.909   9.163   6.330  2.7054  3.6856  1.8859
  748MOL0     H 3178  11.078   9.036   6.266  2.1964  2.4964  2.3751
  748MOL0     H 3179  11.106   8.950   6.423 -0.7700 -0.1753  0.7707
  748MOL0     H 3180  10.921   8.809   6.401  2.7430  2.5545  3.3067
  748MOL0     H 3181  10.837   8.913   6.281  1.5049  1.1779 -5.7082
  748MOL0     H 3182  10.735   8.761   6.148  0.8620  1.1810 -0.6133
  748MOL0     H 3183  10.582   8.507   5.971 -4.2993 -0.1267  0.2227
  748MOL0     H 3184  10.548   8.636   6.081  0.6869  0.8038  0.7176
  748MOL0     H 3185  10.551   8.474   6.148  0.1004 -0.8711 -1.2987
  748MOL0     H 3186  10.655   8.048   6.298 -0.6259  1.0487 -0.9477
  748MOL0     H 3187  10.661   7.798   6.268  2.2280 -0.5238  1.4296
  748MOL0     H 3188  10.938   7.516   6.165 -3.4715  0.5337 -0.5576
  748MOL0     H 3189  11.002   7.620   6.024 -2.9881  3.2460 -1.2011
  748MOL0     H 3190  11.114   7.767   6.192 -0.2081  1.4679  1.0753
  748MOL0     H 3191  11.004   7.708   6.314  0.5144  2.0116 -0.8476
  748MOL0     H 3192  11.205   7.521   6.172  2.2737 -1.9565  1.9688
  748MOL0     H 3193  11.110   7.476   6.318 -0.8265 -1.1914 -2.8866
  748MOL0     H 3194  11.228   7.686   6.426  0.8214  1.0437 -0.5875
  748MOL0     H 3195  11.323   7.689   6.281 -1.6154  0.2131 -2.5099
  748MOL0     H 3196  11.412   7.548   6.486  3.9308 -1.6196 -2.7450
  748MOL0     H 3197  11.282   7.429   6.455  4.0194 -2.8087  1.6202
  748MOL0     H 3198  11.502   7.541   6.263 -2.0035  1.6900  2.0633
  748MOL0     H 3199  11.377   7.431   6.208  2.0645  1.1685 -1.8475
  748MOL0     H 3200  11.465   7.255   6.394  1.0700 -0.7078  1.4489
  748MOL0     H 3201  11.606   7.357   6.405 -1.9248  0.1033  0.8192
  748MOL0     H 3202  11.643   7.336   6.148 -2.4613 -0.1759 -2.2937
  748MOL0     H 3203  11.506   7.228   6.147 -0.4498  2.5779 -0.6872
  748MOL0     H 3204  10.973   7.836   5.971 -0.0803 -2.5721  1.5082
  748MOL0     H 3205  10.944   8.094   6.002 -1.4417  0.9893  0.8584
  748MOL0     H 3206  11.035   8.368   6.125  0.3583 -1.0554 -1.2476
  748MOL0     H 3207  11.134   8.598   6.177  0.1364  0.1260  1.6263
  748MOL0     H 3208  10.616   8.920   5.938  1.9225  0.0348 -2.5077
  748MOL0     H 3209  10.599   8.885   5.688 -1.5610  0.7762 -2.1463
  748MOL0     H 3210  10.493   8.789   5.329  0.1131 -0.0998  1.1903
  748MOL0     H 3211  10.528   8.800   5.069 -1.2929  0.7764 -3.8816
  748MOL0     H 3212  10.438   8.746   4.755 -0.5483 -1.6553 -1.1047
  748MOL0     H 3213  10.426   8.659   4.916 -2.3799 -1.0461  0.8810
  748MOL0     H 3214  10.179   8.705   4.753 -0.2645  0.4617 -0.8268
  748MOL0     H 3215  10.220   8.580   4.879  1.8925  1.5362  0.5490
  748MOL0     H 3216  10.370   8.603   4.630 -0.6850  2.6175  1.8709
  748MOL0     H 3217  10.350   8.461   4.734  0.4555  1.0430  0.9884
  748MOL0     H 3218  10.095   8.565   4.580  1.3444  0.8472 -2.3875
  748MOL0     H 3219  10.137   8.412   4.635 -1.0786  0.3271 -0.6371
  748MOL0     H 3220  10.323   8.411   4.252 -0.6934  0.1917 -0.8179
  748MOL0     H 3221  10.123   8.914   5.027  1.3007  1.2290 -1.1621
  748MOL0     H 3222  10.047   9.057   5.213  0.7356 -1.3578 -0.2516
  748MOL0     H 3223   9.982   8.921   5.297 -3.3728  2.1437 -2.4402
  748MOL0     H 3224  10.086   9.030   5.380 -1.1749 -0.0191  0.8921
  749MOL0     O 3225   7.019   7.047   1.300 -0.3635 -0.0537 -0.6629
  749MOL0     C 3226   7.031   6.945   1.238 -0.0318 -0.4866 -0.4426
  749MOL0     O 3227   6.939   6.850   1.227  0.3871 -0.2407  1.2051
  749MOL0     C 3228   6.831   6.845   1.309 -0.3367  0.0378 -0.0039
  749MOL0     C 3229   6.868   6.862   1.450 -1.3789 -0.1278  0.2392
  749MOL0     C 3230   6.767   6.857   1.547  0.5744 -0.3176  0.1984
  749MOL0     C 3231   6.634   6.834   1.513 -0.2893  0.1317  0.3804
  749MOL0     O 3232   6.559   6.812   1.625 -0.1696 -0.1517 -0.4876
  749MOL0     C 3233   6.432   6.753   1.607 -0.1454 -0.3003  0.1050
  749MOL0     C 3234   6.384   6.701   1.740 -0.6168  0.9331 -0.7424
  749MOL0     C 3235   6.457   6.568   1.780  1.3019 -0.0977 -0.0622
  749MOL0     C 3236   6.402   6.505   1.915 -0.1782  0.5203 -0.5090
  749MOL0     C 3237   6.453   6.362   1.918  0.2634  0.8520 -0.1397
  749MOL0     C 3238   6.393   6.285   2.035 -0.4597  0.5601  0.0815
  749MOL0     C 3239   6.421   6.129   2.009  0.1191 -0.0214 -0.6002
  749MOL0     C 3240   6.498   6.078   2.131  0.8207  0.1437  1.2203
  749MOL0     N 3241   6.524   5.931   2.130 -0.7685  1.0323  0.2184
  749MOL0     C 3242   6.636   5.866   2.076 -0.3416 -0.8455 -0.9924
  749MOL0     C 3243   6.603   5.729   2.085 -0.5484  0.6027  0.3573
  749MOL0     C 3244   6.684   5.615   2.054  0.2347 -0.5984  0.7713
  749MOL0     C 3245   6.675   5.580   1.908 -0.4158  0.1385  0.0136
  749MOL0     C 3246   6.782   5.472   1.870 -0.0611 -0.0617  0.6621
  749MOL0     C 3247   6.929   5.526   1.873  0.1066  0.1529  0.2282
  749MOL0     O 3248   6.980   5.493   1.999  0.4336  0.0690 -0.0519
  749MOL0     C 3249   7.102   5.541   2.019  0.3520 -1.1425 -0.2379
  749MOL0     C 3250   7.140   5.545   2.155 -0.3657  0.3973  0.4813
  749MOL0     C 3251   7.270   5.588   2.194  0.1692  0.7404  0.0721
  749MOL0     C 3252   7.310   5.585   2.345 -0.3344  0.3561 -0.1076
  749MOL0     C 3253   7.365   5.629   2.095 -0.4505  0.1042  0.6265
  749MOL0     C 3254   7.502   5.670   2.115 -0.3786 -0.2055  0.3493
  749MOL0     O 3255   7.564   5.717   1.997  0.1875 -0.1122 -0.9067
  749MOL0     C 3256   7.680   5.778   1.996 -0.7025  0.5235 -0.5529
  749MOL0     C 3257   7.674   5.902   1.935  0.8580 -0.7458 -0.0825
  749MOL0     C 3258   7.796   5.970   1.921 -0.5745  1.1383 -0.7012
  749MOL0     C 3259   7.920   5.913   1.945  0.0683 -0.8627  0.0517
  749MOL0     O 3260   8.039   5.970   1.932  0.4551 -0.1190 -0.2558
  749MOL0     C 3261   8.050   6.111   1.917  0.3208  0.0456  0.6321
  749MOL0     C 3262   8.197   6.145   1.936 -0.5171 -0.3811  0.9850
  749MOL0     C 3263   8.218   6.291   1.910  0.3021 -0.6870  0.6768
  749MOL0     C 3264   8.367   6.328   1.931 -0.1101 -0.3569 -0.1052
  749MOL0     C 3265   8.387   6.461   1.860 -0.0079 -0.5595 -0.9136
  749MOL0     C 3266   8.526   6.516   1.887 -0.7598 -0.3726 -0.5890
  749MOL0     C 3267   8.548   6.645   1.795 -0.2806  0.0211  0.1698
  749MOL0     C 3268   8.690   6.689   1.795 -0.0071  0.2257 -0.8388
  749MOL0    Cl 3269   8.760   6.720   1.961 -0.9153  0.0232 -0.0931
  749MOL0     C 3270   7.917   5.789   2.015 -0.4043  0.7664 -0.6633
  749MOL0     C 3271   7.794   5.717   2.040 -0.8936 -1.2918 -0.6954
  749MOL0     O 3272   7.561   5.653   2.215 -0.1580  0.0299 -0.1819
  749MOL0     C 3273   7.322   5.619   1.963  0.1104  0.0728  0.0934
  749MOL0     C 3274   7.193   5.593   1.924  0.5262 -0.0095 -0.5994
  749MOL0     N 3275   6.501   5.724   2.176 -0.2392 -0.0705  0.5792
  749MOL0     N 3276   6.454   5.833   2.199 -0.7324  0.3283 -1.4017
  749MOL0     C 3277   6.598   6.819   1.376  1.1704  0.4768  0.9221
  749MOL0     C 3278   6.697   6.829   1.275  0.6377  1.5304 -0.3150
  749MOL0     C 3279   7.152   6.923   1.167 -0.3527  0.3338  0.5945
  749MOL0     C 3280   7.199   7.026   1.079  1.2638  0.5920  0.3434
  749MOL0     C 3281   7.317   7.010   1.020 -0.3967 -0.5864  0.5371
  749MOL0     C 3282   7.385   6.888   1.024  0.7072  0.5566  1.1734
  749MOL0     O 3283   7.496   6.859   0.948  0.3836  0.1514  1.3300
  749MOL0     C 3284   7.579   6.969   0.905  0.9585  0.2523 -0.2629
  749MOL0     C 3285   7.708   6.980   0.983  0.4490 -0.2547 -0.2308
  749MOL0     C 3286   7.757   6.836   1.014 -0.6945  0.3262  0.0380
  749MOL0     C 3287   7.898   6.840   1.067 -0.7943 -0.4986 -0.2531
  749MOL0     C 3288   8.000   6.861   0.966  0.6201  0.2999  0.6231
  749MOL0     C 3289   8.088   6.880   0.882  0.0066  0.0810  0.2914
  749MOL0     C 3290   7.338   6.782   1.097 -0.1811 -0.0475 -1.2869
  749MOL0     C 3291   7.220   6.798   1.173  0.4861 -0.7298  1.3512
  749MOL0     C 3292   7.188   6.683   1.260  0.0740  0.1736  0.3225
  749MOL0     H 3293   6.971   6.882   1.479 -0.5652 -3.7627  0.4085
  749MOL0     H 3294   6.805   6.874   1.648  0.6916  0.9249 -0.0338
  749MOL0     H 3295   6.424   6.671   1.535  0.3299 -0.8466  0.6515
  749MOL0     H 3296   6.366   6.831   1.571 -0.9475 -1.7610 -1.7543
  749MOL0     H 3297   6.406   6.762   1.829 -3.4105 -2.4753  2.5805
  749MOL0     H 3298   6.276   6.685   1.735 -0.7877  0.8975  1.7230
  749MOL0     H 3299   6.447   6.494   1.701  0.5891  0.1083 -0.1736
  749MOL0     H 3300   6.564   6.588   1.793  1.0238  2.2230 -0.8099
  749MOL0     H 3301   6.433   6.560   2.005  3.7578 -1.3213 -0.5298
  749MOL0     H 3302   6.294   6.494   1.904  0.0443  0.2302 -2.9598
  749MOL0     H 3303   6.562   6.360   1.931 -0.0158 -0.1999  2.8555
  749MOL0     H 3304   6.427   6.309   1.826 -0.0781  0.0006  0.4344
  749MOL0     H 3305   6.433   6.328   2.127 -0.7001 -0.8877  0.8862
  749MOL0     H 3306   6.284   6.297   2.034 -0.4934  0.2571  0.0287
  749MOL0     H 3307   6.472   6.102   1.916 -0.4016 -4.4079  0.1828
  749MOL0     H 3308   6.336   6.061   2.010  0.9048 -1.0303 -0.4790
  749MOL0     H 3309   6.599   6.120   2.138  0.4905  0.6510  3.4930
  749MOL0     H 3310   6.446   6.096   2.225 -2.8176 -1.0996 -0.3836
  749MOL0     H 3311   6.724   5.917   2.039 -0.5790 -1.7680 -2.9702
  749MOL0     H 3312   6.660   5.524   2.110  1.9266 -0.0154  2.5385
  749MOL0     H 3313   6.789   5.630   2.082  1.3401 -2.0684 -2.1513
  749MOL0     H 3314   6.574   5.550   1.876 -0.6941 -1.4431  2.1627
  749MOL0     H 3315   6.713   5.663   1.849  2.7647 -0.7298  0.6595
  749MOL0     H 3316   6.781   5.376   1.922 -1.6093 -2.9088 -4.0014
  749MOL0     H 3317   6.750   5.434   1.773 -3.2873  1.5847  0.9496
  749MOL0     H 3318   6.983   5.489   1.785  0.7451 -2.0245  1.4581
  749MOL0     H 3319   6.924   5.634   1.860  3.5802  0.3530 -0.3116
  749MOL0     H 3320   7.068   5.498   2.221 -1.5474 -1.0529 -1.7065
  749MOL0     H 3321   7.403   5.635   2.375 -1.1548  1.3225  0.9423
  749MOL0     H 3322   7.320   5.480   2.375  0.9509  0.6143  0.3975
  749MOL0     H 3323   7.230   5.624   2.409 -0.1967 -0.4481  0.5714
  749MOL0     H 3324   7.585   5.953   1.899  2.1046  1.8474  0.2440
  749MOL0     H 3325   7.798   6.067   1.873 -1.6531  0.5798 -1.9378
  749MOL0     H 3326   8.007   6.144   1.822 -3.1848 -1.7416  1.4177
  749MOL0     H 3327   7.995   6.169   1.992  0.4675  2.6206 -1.1272
  749MOL0     H 3328   8.217   6.126   2.042 -0.9067  1.4806  1.4125
  749MOL0     H 3329   8.265   6.091   1.869  1.2902  0.8730  1.7326
  749MOL0     H 3330   8.155   6.359   1.969 -0.3764  2.2736 -3.0165
  749MOL0     H 3331   8.185   6.321   1.810  3.1051  0.6138  0.0709
  749MOL0     H 3332   8.435   6.248   1.900 -2.3475 -2.1036 -0.7765
  749MOL0     H 3333   8.379   6.348   2.038  3.0187 -1.5679 -0.1260
  749MOL0     H 3334   8.362   6.442   1.755 -0.1392 -0.1072 -0.9673
  749MOL0     H 3335   8.322   6.538   1.904  2.2744  3.0193 -3.2058
  749MOL0     H 3336   8.604   6.448   1.853 -0.2325  0.0325 -0.2142
  749MOL0     H 3337   8.529   6.544   1.992 -0.7169  0.9783 -0.9316
  749MOL0     H 3338   8.480   6.724   1.830 -1.3742 -0.4229 -0.8835
  749MOL0     H 3339   8.510   6.619   1.696  1.4796  0.6280 -0.7136
  749MOL0     H 3340   8.695   6.775   1.728 -1.4158 -0.1620 -1.4729
  749MOL0     H 3341   8.756   6.614   1.750 -0.3867  0.6208 -2.0895
  749MOL0     H 3342   8.010   5.740   2.042 -0.6831 -0.9455 -2.5982
  749MOL0     H 3343   7.799   5.618   2.085 -1.0031 -1.2322 -0.5506
  749MOL0     H 3344   7.383   5.644   1.877 -1.6889 -0.6135 -1.4648
  749MOL0     H 3345   7.166   5.598   1.819  0.4932  2.4683 -0.5311
  749MOL0     H 3346   6.495   6.797   1.349  1.2649 -0.8192  1.5817
  749MOL0     H 3347   6.686   6.820   1.168  1.1883  1.1140 -0.3393
  749MOL0     H 3348   7.142   7.116   1.059 -0.6729 -0.3849  1.2384
  749MOL0     H 3349   7.347   7.097   0.963  0.5312 -2.0202 -1.2706
  749MOL0     H 3350   7.597   6.962   0.797  0.0584 -1.3437 -0.3297
  749MOL0     H 3351   7.541   7.068   0.930 -1.2748 -0.9635  1.4933
  749MOL0     H 3352   7.682   7.031   1.076  0.4476 -0.8477  0.0974
  749MOL0     H 3353   7.782   7.043   0.932  0.9110 -0.8854 -0.3589
  749MOL0     H 3354   7.699   6.793   1.097 -1.8987  0.7913 -0.5485
  749MOL0     H 3355   7.735   6.788   0.918 -4.8683 -0.7087  1.2827
  749MOL0     H 3356   7.924   6.742   1.109  1.2955 -0.1226 -0.5914
  749MOL0     H 3357   7.911   6.921   1.140 -3.2676  3.1064 -3.4226
  749MOL0     H 3358   8.155   6.863   0.801 -2.6443 -0.6057 -1.9294
  749MOL0     H 3359   7.404   6.697   1.102 -0.4538 -0.1938  0.0377
  749MOL0     H 3360   7.270   6.611   1.270 -0.4938 -0.1476  3.3387
  749MOL0     H 3361   7.157   6.706   1.362  2.0362 -1.0036  1.2525
  749MOL0     H 3362   7.106   6.625   1.217 -0.0034 -0.1859  0.9414
  750MOL0     O 3363   7.076   1.167   8.421  0.3414  0.0741  0.0048
  750MOL0     C 3364   7.015   1.054   8.406  0.1337 -0.8287  0.2491
  750MOL0     O 3365   6.873   1.037   8.432 -1.0470  0.0502  0.3692
  750MOL0     C 3366   6.818   1.153   8.478 -0.2953  0.0712 -0.2714
  750MOL0     C 3367   6.854   1.197   8.614  0.1207 -1.0832 -0.2633
  750MOL0     C 3368   6.774   1.300   8.671  0.1542  0.8954 -0.3629
  750MOL0     C 3369   6.686   1.380   8.593  0.4519  0.5716 -0.5515
  750MOL0     O 3370   6.612   1.487   8.646 -0.2805 -0.1472  0.2857
  750MOL0     C 3371   6.666   1.567   8.743 -0.1618 -0.0782  0.0191
  750MOL0     C 3372   6.584   1.680   8.794  0.8558 -0.1276 -0.2584
  750MOL0     C 3373   6.468   1.632   8.873 -0.3704  0.7983 -0.3801
  750MOL0     C 3374   6.359   1.745   8.897  0.3296 -0.8936 -0.2723
  750MOL0     C 3375   6.218   1.682   8.940  0.2954 -0.1626  0.3464
  750MOL0     C 3376   6.217   1.626   9.082 -0.0412 -0.4120  0.2186
  750MOL0     C 3377   6.236   1.725   9.186  0.1023 -0.9449 -0.0261
  750MOL0     C 3378   6.116   1.747   9.273 -0.5816 -0.1846 -0.0655
  750MOL0     N 3379   6.098   1.625   9.359  0.3906 -0.1430  0.4252
  750MOL0     C 3380   6.179   1.524   9.401 -0.3411 -0.8447  0.5824
  750MOL0     C 3381   6.116   1.461   9.498  0.4655 -0.7581 -0.0983
  750MOL0     C 3382   6.165   1.348   9.581 -0.4279 -0.5212 -0.5545
  750MOL0     C 3383   6.076   1.227   9.584 -0.6471  0.6028 -0.6444
  750MOL0     C 3384   5.935   1.249   9.646  0.1385  0.4554 -0.9290
  750MOL0     C 3385   5.931   1.273   9.798 -0.2886  0.2110 -0.0932
  750MOL0     O 3386   6.005   1.160   9.846 -0.0568  1.0166 -0.1731
  750MOL0     C 3387   6.036   1.171   9.985  0.0045 -0.0417 -0.1525
  750MOL0     C 3388   5.978   1.259  10.075  0.0056 -1.2326  0.2086
  750MOL0     C 3389   6.027   1.284  10.207 -0.4356 -0.1994 -0.1973
  750MOL0     C 3390   5.965   1.396  10.286 -0.0267 -0.4272  0.6777
  750MOL0     C 3391   6.130   1.194  10.260 -0.1160 -0.0330 -0.3910
  750MOL0     C 3392   6.175   1.196  10.401  0.2723 -0.0936  0.3329
  750MOL0     O 3393   6.184   1.318  10.458  0.0665  0.1078  0.3409
  750MOL0     C 3394   6.210   1.333  10.587 -0.9752 -0.0391 -0.6402
  750MOL0     C 3395   6.118   1.367  10.678 -0.2331 -0.1656 -0.5650
  750MOL0     C 3396   6.132   1.362  10.813  0.4256  0.3165 -0.2594
  750MOL0     C 3397   6.261   1.331  10.862  0.2134  0.2502 -0.5366
  750MOL0     O 3398   6.292   1.315  10.994 -0.2049  0.4531 -0.3113
  750MOL0     C 3399   6.196   1.246  11.078 -0.7197  0.3333  0.6943
  750MOL0     C 3400   6.225   1.092  11.097  0.2197  0.3342 -0.3161
  750MOL0     C 3401   6.274   1.006  10.976 -0.1616  0.3039  0.0807
  750MOL0     C 3402   6.426   1.014  10.946  1.0912  0.2149  0.7732
  750MOL0     C 3403   6.485   0.909  10.846  0.7717  0.4595 -0.2759
  750MOL0     C 3404   6.419   0.903  10.703 -0.5740  0.9919 -0.5036
  750MOL0     C 3405   6.500   0.804  10.619 -0.7183  0.8671  0.3582
  750MOL0     C 3406   6.451   0.819  10.474 -0.5523  0.1006  1.7972
  750MOL0    Cl 3407   6.555   0.707  10.359  0.3874  0.4393  0.2454
  750MOL0     C 3408   6.365   1.322  10.775  0.2318  0.7891 -0.5950
  750MOL0     C 3409   6.346   1.316  10.641  0.3916 -0.3557  0.3830
  750MOL0     O 3410   6.201   1.086  10.453 -0.0935 -0.2200  0.2069
  750MOL0     C 3411   6.188   1.097  10.169 -0.1642  0.9466 -0.1650
  750MOL0     C 3412   6.143   1.090  10.038 -0.1524 -0.0577  0.4571
  750MOL0     N 3413   5.991   1.520   9.520  0.4402 -0.1143  0.5375
  750MOL0     N 3414   5.986   1.614   9.434  0.2445 -0.6193  0.1071
  750MOL0     C 3415   6.668   1.341   8.454 -0.6526 -0.0189 -0.0886
  750MOL0     C 3416   6.732   1.224   8.403  1.3471  0.1192  0.5028
  750MOL0     C 3417   7.085   0.928   8.358 -0.2432 -0.0174  0.5676
  750MOL0     C 3418   7.010   0.811   8.381 -0.0522  0.0372 -0.4158
  750MOL0     C 3419   7.071   0.682   8.374  0.3947  0.1781  0.1010
  750MOL0     C 3420   7.201   0.663   8.322 -0.2530 -0.0480  0.6921
  750MOL0     O 3421   7.258   0.539   8.305  1.6650  0.2934 -0.3020
  750MOL0     C 3422   7.390   0.530   8.356  0.0309  0.7888 -0.7977
  750MOL0     C 3423   7.451   0.386   8.350  0.0735  0.2740  0.0079
  750MOL0     C 3424   7.381   0.281   8.433  0.1478 -0.1394 -0.5339
  750MOL0     C 3425   7.352   0.304   8.580 -0.0585  0.0278  0.1501
  750MOL0     C 3426   7.267   0.192   8.628  1.1178 -1.1111  0.2334
  750MOL0     C 3427   7.207   0.092   8.653 -0.5136  0.1834  0.0810
  750MOL0     C 3428   7.262   0.780   8.267  1.0068 -0.4346 -0.0027
  750MOL0     C 3429   7.209   0.912   8.288  0.2775 -0.9099 -1.0590
  750MOL0     C 3430   7.280   1.031   8.229 -0.5185  0.0451  0.2310
  750MOL0     H 3431   6.925   1.145   8.677  0.4871 -0.1066  0.1473
  750MOL0     H 3432   6.785   1.323   8.776 -2.6944  0.1181  0.1901
  750MOL0     H 3433   6.747   1.606   8.682 -0.3731 -2.2552 -1.7796
  750MOL0     H 3434   6.697   1.503   8.826  0.3359 -0.4081 -0.4207
  750MOL0     H 3435   6.641   1.735   8.869 -3.9285  0.6443  3.2786
  750MOL0     H 3436   6.552   1.747   8.714  1.0562  0.5934  0.2577
  750MOL0     H 3437   6.416   1.557   8.812 -1.4706  0.3949  0.9899
  750MOL0     H 3438   6.499   1.588   8.968 -0.9733 -0.3583 -0.6968
  750MOL0     H 3439   6.411   1.815   8.963 -0.9457 -0.3501  0.1966
  750MOL0     H 3440   6.349   1.789   8.797  1.6117 -2.2428 -1.0206
  750MOL0     H 3441   6.199   1.608   8.862  0.2747  2.1133 -1.9139
  750MOL0     H 3442   6.140   1.758   8.925  1.0860  0.1554 -2.9818
  750MOL0     H 3443   6.124   1.570   9.092  0.3767 -1.5721 -1.7174
  750MOL0     H 3444   6.301   1.556   9.083  1.3139  1.1512  0.4441
  750MOL0     H 3445   6.264   1.819   9.137  0.9665 -1.9343 -1.5101
  750MOL0     H 3446   6.326   1.698   9.242  1.0414 -1.0929 -1.5419
  750MOL0     H 3447   6.132   1.826   9.347 -2.3889 -1.2819  1.5852
  750MOL0     H 3448   6.026   1.772   9.215  0.2432 -0.4777 -1.5193
  750MOL0     H 3449   6.273   1.500   9.352 -0.5821 -0.4554 -0.0786
  750MOL0     H 3450   6.179   1.381   9.684 -3.1786 -3.0214  0.7500
  750MOL0     H 3451   6.263   1.312   9.548  2.2696  1.8557  3.8847
  750MOL0     H 3452   6.066   1.201   9.478  2.1352  2.2359 -1.4055
  750MOL0     H 3453   6.131   1.148   9.636  1.8999  2.5252 -0.2138
  750MOL0     H 3454   5.888   1.337   9.602 -1.5632 -0.7228 -1.5655
  750MOL0     H 3455   5.867   1.165   9.628 -2.0541  0.6617  4.3850
  750MOL0     H 3456   5.975   1.370   9.823 -1.1485  0.1634  1.7509
  750MOL0     H 3457   5.833   1.276   9.848 -1.1132 -1.7021 -1.5001
  750MOL0     H 3458   5.897   1.324  10.044  1.9972  1.6101  0.5629
  750MOL0     H 3459   6.032   1.482  10.300 -0.0016 -0.1716 -0.8797
  750MOL0     H 3460   5.934   1.363  10.386 -0.1916  2.0530  1.5265
  750MOL0     H 3461   5.876   1.428  10.231  0.2779 -2.2700 -0.9779
  750MOL0     H 3462   6.021   1.392  10.635 -0.0349 -0.4240 -1.1635
  750MOL0     H 3463   6.042   1.369  10.873 -1.4839 -2.5352 -2.5427
  750MOL0     H 3464   6.208   1.297  11.174  2.1082  1.7932 -0.3157
  750MOL0     H 3465   6.098   1.259  11.031  0.9298 -2.8024 -4.5375
  750MOL0     H 3466   6.300   1.096  11.177  1.9105 -1.5141 -1.7290
  750MOL0     H 3467   6.129   1.054  11.134 -1.0997  2.2053 -1.6086
  750MOL0     H 3468   6.208   1.025  10.891  1.4566 -0.4816 -1.4173
  750MOL0     H 3469   6.256   0.900  10.994  1.4994 -0.3854 -1.9867
  750MOL0     H 3470   6.474   1.008  11.044 -0.9933 -1.3280  1.7803
  750MOL0     H 3471   6.453   1.114  10.910  4.0787 -0.3032  1.3039
  750MOL0     H 3472   6.590   0.940  10.836  0.2789  1.7186 -2.0125
  750MOL0     H 3473   6.473   0.811  10.893 -0.0412 -0.3586 -2.0982
  750MOL0     H 3474   6.424   0.999  10.650 -1.1165  1.6097  0.5227
  750MOL0     H 3475   6.311   0.887  10.716 -0.9772  3.0604 -0.9060
  750MOL0     H 3476   6.486   0.699  10.646  2.7242 -0.0576 -0.8185
  750MOL0     H 3477   6.608   0.823  10.627 -1.0569  2.4404  1.7853
  750MOL0     H 3478   6.468   0.916  10.428 -2.5153  1.1761  3.1883
  750MOL0     H 3479   6.344   0.803  10.459 -0.0839 -0.4902 -1.5689
  750MOL0     H 3480   6.465   1.302  10.810  0.4050 -0.6026 -1.7969
  750MOL0     H 3481   6.428   1.292  10.575  0.2026  0.5913 -0.2121
  750MOL0     H 3482   6.258   1.019  10.197 -0.1893  1.1793  0.5527
  750MOL0     H 3483   6.196   1.016   9.979 -0.9569 -0.2336 -0.0656
  750MOL0     H 3484   6.589   1.400   8.409  0.3232 -0.0786 -1.9610
  750MOL0     H 3485   6.700   1.194   8.304 -3.1075  0.1108  1.7629
  750MOL0     H 3486   6.907   0.813   8.415 -0.9825  0.3838 -2.9758
  750MOL0     H 3487   7.011   0.597   8.402 -1.0472  0.2435 -2.4450
  750MOL0     H 3488   7.452   0.590   8.289  0.8297 -2.0379 -2.7591
  750MOL0     H 3489   7.396   0.567   8.459  0.6144 -0.3323 -0.4166
  750MOL0     H 3490   7.558   0.386   8.372 -0.4148 -0.7580  2.7873
  750MOL0     H 3491   7.440   0.343   8.250 -3.4043 -3.6042  1.7621
  750MOL0     H 3492   7.285   0.252   8.389 -0.3768  2.1196 -0.9900
  750MOL0     H 3493   7.446   0.193   8.429  3.3102  2.0195 -0.7364
  750MOL0     H 3494   7.299   0.396   8.606 -0.1191  0.0615 -0.0854
  750MOL0     H 3495   7.450   0.292   8.627 -0.6048 -0.5942  1.1731
  750MOL0     H 3496   7.166  -0.003   8.681  1.8386 -1.1238 -0.6360
  750MOL0     H 3497   7.344   0.761   8.198 -0.3501 -5.0350 -0.6686
  750MOL0     H 3498   7.317   1.099   8.306 -1.8042  0.0366  0.8778
  750MOL0     H 3499   7.358   1.001   8.158 -2.3189 -1.4834 -1.2454
  750MOL0     H 3500   7.213   1.088   8.163  0.4449 -1.0893 -1.8497
  751MOL0     O 3501   5.180  10.348   1.805  0.2789 -0.0330  0.0073
  751MOL0     C 3502   5.079  10.359   1.867 -0.0248 -0.2686  0.1302
  751MOL0     O 3503   4.998  10.251   1.892 -0.6732  0.1102  0.4088
  751MOL0     C 3504   5.055  10.132   1.878  0.5365  0.0985 -0.4618
  751MOL0     C 3505   5.018  10.058   1.762  0.2725  0.1620 -1.1206
  751MOL0     C 3506   5.039   9.916   1.753  1.0938  0.1706 -0.0467
  751MOL0     C 3507   5.107   9.849   1.850  0.3468  1.0922  1.2592
  751MOL0     O 3508   5.121   9.711   1.854 -0.5143  0.2629 -0.6876
  751MOL0     C 3509   5.147   9.649   1.726 -0.0751  0.6003  0.0333
  751MOL0     C 3510   5.243   9.532   1.746 -0.2689  0.7190 -0.2618
  751MOL0     C 3511   5.231   9.435   1.625 -0.6300  0.0870  0.4864
  751MOL0     C 3512   5.328   9.452   1.507  0.3753  0.5396  0.5284
  751MOL0     C 3513   5.461   9.377   1.515  0.1380  0.2243 -0.0225
  751MOL0     C 3514   5.559   9.461   1.598 -0.5122  0.2480  0.2106
  751MOL0     C 3515   5.708   9.422   1.570  0.5471 -0.7657 -0.5106
  751MOL0     C 3516   5.744   9.278   1.588  0.3811 -0.0939  0.2414
  751MOL0     N 3517   5.738   9.252   1.730  0.3447  0.1046  0.4992
  751MOL0     C 3518   5.644   9.156   1.783  0.2622 -1.2321 -0.4005
  751MOL0     C 3519   5.695   9.147   1.906 -1.3152 -0.7030 -0.5453
  751MOL0     C 3520   5.637   9.086   2.031  0.0321  0.6033 -0.2455
  751MOL0     C 3521   5.603   9.182   2.147  0.6754 -0.3411  0.7495
  751MOL0     C 3522   5.496   9.293   2.106 -1.4396  0.2678 -0.6002
  751MOL0     C 3523   5.536   9.426   2.028  0.0818  0.1236  0.5915
  751MOL0     O 3524   5.637   9.499   2.093  0.3909  0.2493 -0.9259
  751MOL0     C 3525   5.706   9.598   2.021  1.0175  0.3251  0.1939
  751MOL0     C 3526   5.796   9.660   2.089 -0.4920  1.3515 -0.2747
  751MOL0     C 3527   5.877   9.770   2.051  0.4526  0.5201 -1.1254
  751MOL0     C 3528   5.962   9.829   2.154  0.2276 -0.6690  0.4045
  751MOL0     C 3529   5.855   9.811   1.918  0.0540 -0.4664  1.1333
  751MOL0     C 3530   5.919   9.938   1.867  0.0259  1.1149 -0.2577
  751MOL0     O 3531   5.933   9.945   1.733 -0.2156 -0.2051 -0.1291
  751MOL0     C 3532   5.940  10.065   1.665  0.1043  1.2471  0.6426
  751MOL0     C 3533   5.825  10.126   1.610 -0.8577  0.0647 -0.1281
  751MOL0     C 3534   5.843  10.235   1.526 -0.7909  0.4055  0.1939
  751MOL0     C 3535   5.968  10.296   1.507  1.1427 -0.1836  0.6246
  751MOL0     O 3536   5.966  10.405   1.418  0.1630  1.2667  0.2545
  751MOL0     C 3537   6.056  10.516   1.454  0.6915 -0.9240  0.5616
  751MOL0     C 3538   6.183  10.524   1.370 -1.1369 -0.4516 -0.0381
  751MOL0     C 3539   6.163  10.540   1.217 -0.1353  1.0342  0.5660
  751MOL0     C 3540   6.287  10.535   1.132  0.6458  0.4531 -1.7412
  751MOL0     C 3541   6.330  10.389   1.087  0.6021 -0.4636  1.1519
  751MOL0     C 3542   6.468  10.398   1.006  0.7343  0.4067  1.0182
  751MOL0     C 3543   6.503  10.262   0.942  0.0732  0.1991  0.1983
  751MOL0     C 3544   6.603  10.286   0.825 -0.7201  0.0009 -0.1865
  751MOL0    Cl 3545   6.721  10.413   0.859  0.3473  0.3029 -0.3790
  751MOL0     C 3546   6.079  10.234   1.563  0.3073 -0.2779 -1.1366
  751MOL0     C 3547   6.075  10.115   1.640  0.1626 -1.5235 -0.4820
  751MOL0     O 3548   5.951  10.029   1.942 -0.1581 -0.5259  0.3546
  751MOL0     C 3549   5.765   9.740   1.829  0.3268  1.2694 -0.0484
  751MOL0     C 3550   5.698   9.625   1.882  0.2318 -0.3254 -0.6914
  751MOL0     N 3551   5.815   9.216   1.923 -0.8261  0.0537 -0.0035
  751MOL0     N 3552   5.837   9.281   1.815  0.1299 -0.0755 -0.8102
  751MOL0     C 3553   5.152   9.919   1.965 -0.2574 -0.0364 -1.0572
  751MOL0     C 3554   5.130  10.065   1.978 -0.1645  0.2009  0.7574
  751MOL0     C 3555   5.027  10.497   1.895  1.3984  0.2580  0.4366
  751MOL0     C 3556   4.887  10.501   1.929 -0.8265  1.0395 -0.3733
  751MOL0     C 3557   4.825  10.622   1.975 -0.2428  1.2762 -0.7190
  751MOL0     C 3558   4.899  10.740   1.965  0.1849  0.0782  0.3900
  751MOL0     O 3559   4.839  10.858   1.996 -0.1365 -0.0233 -0.1031
  751MOL0     C 3560   4.895  10.925   2.108  0.7996  0.2545 -0.2010
  751MOL0     C 3561   4.799  10.914   2.232  0.2458  0.2126  0.4230
  751MOL0     C 3562   4.849  10.790   2.316  0.1000  0.1728  1.0921
  751MOL0     C 3563   4.741  10.744   2.416 -0.0706  0.6424  0.8138
  751MOL0     C 3564   4.709  10.849   2.511  0.3270 -0.4510 -0.2948
  751MOL0     C 3565   4.681  10.943   2.584 -0.6512  0.2438  0.1103
  751MOL0     C 3566   5.037  10.735   1.932  0.5752 -1.1520 -0.0161
  751MOL0     C 3567   5.100  10.617   1.902  0.1970 -0.3033 -0.8907
  751MOL0     C 3568   5.245  10.632   1.861  0.0791 -0.4688  0.2432
  751MOL0     H 3569   4.947  10.111   1.699 -2.9866  1.7407  3.3340
  751MOL0     H 3570   4.983   9.870   1.672 -2.7139  0.0895  2.3651
  751MOL0     H 3571   5.196   9.722   1.661  3.6410 -0.5613  1.3012
  751MOL0     H 3572   5.050   9.609   1.695  0.0632  0.8763 -0.7671
  751MOL0     H 3573   5.349   9.557   1.756  0.6914 -2.1588 -1.8930
  751MOL0     H 3574   5.215   9.478   1.837 -0.0186  0.4225 -0.3572
  751MOL0     H 3575   5.229   9.327   1.645  2.2380 -0.8555 -3.0971
  751MOL0     H 3576   5.131   9.452   1.585  0.1597 -0.1467 -1.7692
  751MOL0     H 3577   5.282   9.409   1.417  3.0205 -3.3526  0.7810
  751MOL0     H 3578   5.344   9.557   1.480 -0.3206  0.0635 -2.0629
  751MOL0     H 3579   5.505   9.377   1.415  2.6047  1.9358  0.9510
  751MOL0     H 3580   5.435   9.283   1.565 -2.0756  0.8536  0.1382
  751MOL0     H 3581   5.539   9.568   1.585  0.8565  0.2618 -2.5742
  751MOL0     H 3582   5.526   9.441   1.700 -3.8455 -0.7932 -0.9282
  751MOL0     H 3583   5.783   9.486   1.616  0.1174  0.5690 -1.6091
  751MOL0     H 3584   5.728   9.449   1.466 -2.1523 -1.6717 -1.3622
  751MOL0     H 3585   5.676   9.215   1.530  0.6207  1.5582 -1.9935
  751MOL0     H 3586   5.845   9.253   1.553  0.1078 -3.5575  1.5764
  751MOL0     H 3587   5.558   9.116   1.730  0.9118 -0.4074 -2.1561
  751MOL0     H 3588   5.710   9.016   2.072  0.3162 -0.2768 -2.1627
  751MOL0     H 3589   5.543   9.034   2.014 -0.2001  0.7151  0.6526
  751MOL0     H 3590   5.562   9.132   2.235 -0.7360  2.4147  1.7832
  751MOL0     H 3591   5.692   9.231   2.188 -0.5236  1.5109  1.2482
  751MOL0     H 3592   5.423   9.243   2.042 -2.9164 -0.6005  1.6621
  751MOL0     H 3593   5.481   9.331   2.207  1.6838 -1.6566  0.7507
  751MOL0     H 3594   5.562   9.391   1.928 -4.1443 -3.8852  0.5809
  751MOL0     H 3595   5.447   9.489   2.026  0.8486  1.2913  1.6997
  751MOL0     H 3596   5.808   9.632   2.193 -0.7209 -0.3423 -0.6671
  751MOL0     H 3597   5.926   9.931   2.168 -3.3626 -1.8079  0.4034
  751MOL0     H 3598   6.065   9.824   2.116 -0.2773  1.7533 -1.5434
  751MOL0     H 3599   5.944   9.778   2.249  2.9377 -0.7754  0.9439
  751MOL0     H 3600   5.730  10.074   1.621  0.3583 -2.3710 -0.4034
  751MOL0     H 3601   5.764  10.270   1.461 -0.7973 -1.7227 -1.0388
  751MOL0     H 3602   5.995  10.605   1.436  1.6596 -0.2497  0.5384
  751MOL0     H 3603   6.082  10.520   1.560  0.1542 -0.0398  0.6694
  751MOL0     H 3604   6.231  10.620   1.393 -0.2403 -0.4843 -1.6241
  751MOL0     H 3605   6.251  10.443   1.402 -2.6973 -2.8342 -2.3642
  751MOL0     H 3606   6.120  10.637   1.191 -1.0473  0.6927  0.7694
  751MOL0     H 3607   6.102  10.464   1.167 -3.4668  3.5074  0.5271
  751MOL0     H 3608   6.374  10.595   1.160  0.3543  0.0293  0.2066
  751MOL0     H 3609   6.246  10.587   1.045 -3.2526  1.7954  0.6247
  751MOL0     H 3610   6.345  10.317   1.168  2.9023 -2.0832 -0.5476
  751MOL0     H 3611   6.251  10.350   1.022  1.6848  1.6978 -1.6785
  751MOL0     H 3612   6.548  10.428   1.074 -0.8252  4.5377  1.3182
  751MOL0     H 3613   6.455  10.469   0.924  2.4647  0.8001  1.0465
  751MOL0     H 3614   6.408  10.216   0.912 -1.6476  2.8289  1.1871
  751MOL0     H 3615   6.542  10.188   1.012 -0.1047 -0.8098 -0.7409
  751MOL0     H 3616   6.542  10.309   0.737 -1.1015  3.8710  0.9006
  751MOL0     H 3617   6.666  10.199   0.804 -0.8532  0.2180 -1.5719
  751MOL0     H 3618   6.180  10.272   1.550  1.2677 -2.3259 -0.1364
  751MOL0     H 3619   6.158  10.059   1.681  0.4858 -0.7227 -0.0316
  751MOL0     H 3620   5.754   9.767   1.724  0.0470  2.9560  0.3829
  751MOL0     H 3621   5.630   9.563   1.824 -4.9573  2.0207  2.2847
  751MOL0     H 3622   5.193   9.861   2.046 -1.4402  0.1849 -0.2736
  751MOL0     H 3623   5.165  10.125   2.060  3.7357 -0.0005 -0.5439
  751MOL0     H 3624   4.832  10.408   1.936 -1.0185  1.1044 -0.9798
  751MOL0     H 3625   4.720  10.629   2.002  0.2519 -1.3928  2.5453
  751MOL0     H 3626   4.999  10.906   2.136  0.9440  0.7008 -0.4235
  751MOL0     H 3627   4.882  11.030   2.079 -0.1914  1.0343  2.7061
  751MOL0     H 3628   4.698  10.905   2.191 -0.5958  1.8076  2.0133
  751MOL0     H 3629   4.810  11.002   2.296 -1.1110  1.5338 -1.0775
  751MOL0     H 3630   4.884  10.711   2.249 -1.7024 -1.2419  1.7268
  751MOL0     H 3631   4.937  10.816   2.375  0.2676  0.7590  0.5923
  751MOL0     H 3632   4.784  10.663   2.474 -0.5140 -0.4007 -0.2758
  751MOL0     H 3633   4.653  10.718   2.357 -0.1596  1.5945  0.5035
  751MOL0     H 3634   4.684  11.027   2.649  0.9827  0.6069 -0.3942
  751MOL0     H 3635   5.088  10.830   1.944 -0.5390 -0.8072  2.9833
  751MOL0     H 3636   5.263  10.590   1.762  2.1819  0.8594 -0.0171
  751MOL0     H 3637   5.268  10.739   1.871 -2.6488  0.2298 -0.3785
  751MOL0     H 3638   5.299  10.570   1.934  0.6737  0.6003  0.7461
  752MOL0     O 3639   5.204   8.116   4.487 -0.2000 -0.1921  0.0602
  752MOL0     C 3640   5.131   8.143   4.574 -0.1400  0.0909  0.0741
  752MOL0     O 3641   5.160   8.240   4.669  0.5294 -0.0661 -0.1954
  752MOL0     C 3642   5.097   8.271   4.783 -1.0905 -0.1841  0.2301
  752MOL0     C 3643   5.065   8.180   4.888  0.1546 -0.4566  0.2091
  752MOL0     C 3644   5.019   8.221   5.014  0.0727 -0.4183  0.0239
  752MOL0     C 3645   4.993   8.359   5.042  0.3445 -0.2635  1.0460
  752MOL0     O 3646   4.934   8.398   5.158 -0.0144  0.6278 -0.1995
  752MOL0     C 3647   4.887   8.530   5.181  0.4864 -0.3951 -0.2063
  752MOL0     C 3648   4.831   8.562   5.317 -0.2027  0.3180 -0.9477
  752MOL0     C 3649   4.947   8.550   5.421  0.0382  0.6729  0.1351
  752MOL0     C 3650   4.882   8.547   5.565  0.1777  0.4045 -0.0908
  752MOL0     C 3651   4.988   8.597   5.664  0.4851  0.7687  0.3827
  752MOL0     C 3652   4.941   8.596   5.811  0.6551  0.3970  0.8506
  752MOL0     C 3653   5.028   8.676   5.906 -0.2181 -0.1545 -0.4635
  752MOL0     C 3654   4.968   8.824   5.916  0.1725  0.2739 -0.1014
  752MOL0     N 3655   5.029   8.933   5.842 -0.1273 -0.0143 -0.0394
  752MOL0     C 3656   5.149   8.994   5.876  0.1674  0.1951  0.1255
  752MOL0     C 3657   5.190   9.067   5.767  1.1320 -0.4537  0.6683
  752MOL0     C 3658   5.308   9.167   5.771 -0.1816  0.6036  0.1411
  752MOL0     C 3659   5.357   9.193   5.632 -0.5697 -0.3405 -0.2111
  752MOL0     C 3660   5.272   9.301   5.561  0.8647 -0.0398  0.1387
  752MOL0     C 3661   5.335   9.328   5.428  0.9764  0.5493  0.3728
  752MOL0     O 3662   5.469   9.380   5.458 -0.6325 -0.9720  0.1841
  752MOL0     C 3663   5.575   9.334   5.388  0.3822  0.6120  0.3285
  752MOL0     C 3664   5.574   9.211   5.317  0.4805  0.1676  0.0092
  752MOL0     C 3665   5.667   9.173   5.221 -0.2512  0.1450 -0.0224
  752MOL0     C 3666   5.639   9.037   5.153 -0.1226 -1.2871 -0.2150
  752MOL0     C 3667   5.773   9.266   5.193  0.3634  1.3503  1.2432
  752MOL0     C 3668   5.875   9.244   5.078  0.0293  0.1455  0.0736
  752MOL0     O 3669   5.969   9.342   5.068 -0.2583 -0.0595  0.3293
  752MOL0     C 3670   6.032   9.354   4.946  0.0178 -0.3310 -0.4489
  752MOL0     C 3671   6.148   9.288   4.931  0.3923  0.6505  0.5290
  752MOL0     C 3672   6.210   9.278   4.806  0.3910  0.8438  1.1548
  752MOL0     C 3673   6.150   9.347   4.703  0.4628 -0.5896  0.2283
  752MOL0     O 3674   6.208   9.339   4.584 -0.2990  0.5327  1.4585
  752MOL0     C 3675   6.130   9.320   4.473  0.0855  0.7251 -0.2505
  752MOL0     C 3676   6.103   9.438   4.389  0.1089 -0.3286  0.4762
  752MOL0     C 3677   6.160   9.427   4.246 -0.0389  0.5569 -0.3644
  752MOL0     C 3678   6.120   9.543   4.168 -0.2050 -0.8104 -0.7897
  752MOL0     C 3679   6.153   9.527   4.029 -0.8036 -0.5586 -0.2331
  752MOL0     C 3680   6.035   9.468   3.950  0.9391 -0.1851  0.2976
  752MOL0     C 3681   5.912   9.564   3.905  0.0568 -0.0699  0.8024
  752MOL0     C 3682   5.841   9.518   3.776  0.4838  0.3749  0.3832
  752MOL0    Cl 3683   5.681   9.602   3.754  0.1071 -0.3646  0.1041
  752MOL0     C 3684   6.033   9.429   4.716  0.7682 -0.1955 -0.5065
  752MOL0     C 3685   5.969   9.435   4.846  0.3503 -0.4311 -0.0738
  752MOL0     O 3686   5.872   9.144   4.999  0.3440 -0.1169 -0.6572
  752MOL0     C 3687   5.769   9.388   5.262 -0.1912  0.8674  0.3032
  752MOL0     C 3688   5.676   9.423   5.367  0.1338 -1.1439 -0.1670
  752MOL0     N 3689   5.099   9.040   5.670  0.2344  0.0618  1.0747
  752MOL0     N 3690   4.999   8.964   5.709 -0.4920  0.7113 -0.2310
  752MOL0     C 3691   5.033   8.447   4.940  0.5060  0.1109  0.1989
  752MOL0     C 3692   5.093   8.407   4.816 -0.4564 -0.3909  0.2509
  752MOL0     C 3693   4.997   8.079   4.570 -0.7520  1.1586  0.3860
  752MOL0     C 3694   4.876   8.151   4.582  0.4416  0.1917 -0.0199
  752MOL0     C 3695   4.749   8.094   4.544  0.1104 -0.2146 -0.3922
  752MOL0     C 3696   4.740   7.961   4.507  0.6748  0.9504 -0.5219
  752MOL0     O 3697   4.623   7.899   4.461  0.3310  0.0962 -0.4692
  752MOL0     C 3698   4.523   7.985   4.411 -0.0971 -0.2820  0.8391
  752MOL0     C 3699   4.397   7.909   4.358  0.3289 -0.6280 -0.2671
  752MOL0     C 3700   4.342   7.801   4.441  0.1266  0.8143 -0.6656
  752MOL0     C 3701   4.315   7.843   4.584 -0.4647  0.6382  0.5766
  752MOL0     C 3702   4.201   7.923   4.596  0.8822 -0.1440 -1.3070
  752MOL0     C 3703   4.097   7.982   4.570 -0.3833 -0.9853 -1.0158
  752MOL0     C 3704   4.855   7.887   4.511 -0.0055 -0.1740  0.6063
  752MOL0     C 3705   4.986   7.940   4.533  0.8559  0.5518 -0.0389
  752MOL0     C 3706   5.108   7.853   4.507 -0.9864  0.0531 -0.2762
  752MOL0     H 3707   5.061   8.074   4.866  2.5771 -0.3989 -0.7356
  752MOL0     H 3708   5.012   8.146   5.092  2.5559  1.0857  1.8475
  752MOL0     H 3709   4.818   8.552   5.099 -0.3924  1.9923  1.0685
  752MOL0     H 3710   4.967   8.604   5.167 -0.1482  0.2294 -0.6064
  752MOL0     H 3711   4.793   8.664   5.325  1.4297  0.8136  1.5247
  752MOL0     H 3712   4.752   8.490   5.338  2.2285 -2.1927  0.2356
  752MOL0     H 3713   5.003   8.458   5.406  0.5041  0.7139  1.5129
  752MOL0     H 3714   5.010   8.639   5.414  0.8671  0.1392  0.7467
  752MOL0     H 3715   4.800   8.620   5.570  1.1718  1.6061 -0.7434
  752MOL0     H 3716   4.837   8.449   5.585 -2.2659  1.4573 -0.0026
  752MOL0     H 3717   5.009   8.700   5.635  2.6739 -0.1833 -1.8587
  752MOL0     H 3718   5.075   8.530   5.660  0.4426  0.7280  0.1072
  752MOL0     H 3719   4.838   8.633   5.811  0.8990  1.1267  1.9280
  752MOL0     H 3720   4.930   8.490   5.834 -0.3469 -0.3906 -2.6451
  752MOL0     H 3721   5.134   8.683   5.879  0.0634  1.9320  0.9873
  752MOL0     H 3722   5.022   8.626   6.003  0.8690 -0.4871 -0.5541
  752MOL0     H 3723   4.867   8.808   5.875 -0.6117 -2.4268  2.5147
  752MOL0     H 3724   4.962   8.856   6.020  1.0849  2.6674 -0.7265
  752MOL0     H 3725   5.198   8.980   5.971 -0.4805 -1.4403  0.2563
  752MOL0     H 3726   5.398   9.129   5.821  0.6320 -1.4391 -2.6580
  752MOL0     H 3727   5.281   9.265   5.812  1.0363  1.0592 -0.1012
  752MOL0     H 3728   5.459   9.229   5.651 -0.5998 -2.0064  4.3808
  752MOL0     H 3729   5.368   9.099   5.577 -1.1262 -0.5259 -0.0173
  752MOL0     H 3730   5.168   9.270   5.546  0.5734 -1.3505  3.8361
  752MOL0     H 3731   5.272   9.391   5.622  0.7742 -0.6265  1.0279
  752MOL0     H 3732   5.339   9.238   5.365 -4.6259  0.3913 -0.2993
  752MOL0     H 3733   5.280   9.409   5.379  1.6456 -0.4634 -2.2115
  752MOL0     H 3734   5.507   9.129   5.339 -0.1980 -0.8433 -4.7171
  752MOL0     H 3735   5.727   8.982   5.120  0.3320 -1.5848  1.3688
  752MOL0     H 3736   5.577   9.047   5.064 -0.9158 -2.7860  0.1432
  752MOL0     H 3737   5.593   8.965   5.221  2.5208 -1.3906  1.6579
  752MOL0     H 3738   6.188   9.228   5.012 -1.8460  0.3552  1.4701
  752MOL0     H 3739   6.303   9.226   4.790  0.2442  0.8617  0.1537
  752MOL0     H 3740   6.188   9.247   4.417 -2.3850 -0.6905 -1.1174
  752MOL0     H 3741   6.035   9.268   4.487 -0.0393  1.0749  0.2574
  752MOL0     H 3742   5.995   9.448   4.376  0.5218  4.1050 -1.3954
  752MOL0     H 3743   6.136   9.532   4.435 -1.2633  1.0222 -1.1456
  752MOL0     H 3744   6.118   9.340   4.196  2.6427 -0.7013 -0.5854
  752MOL0     H 3745   6.268   9.417   4.263 -0.5955 -0.7454  3.3520
  752MOL0     H 3746   6.166   9.629   4.218  0.4511 -1.1033 -0.8891
  752MOL0     H 3747   6.011   9.549   4.177 -0.0330 -1.1906  3.4754
  752MOL0     H 3748   6.160   9.632   3.999 -2.0541  0.0664  1.4708
  752MOL0     H 3749   6.242   9.465   4.017  1.1395  2.2488 -1.5290
  752MOL0     H 3750   5.999   9.381   4.005 -0.5572  0.2515  0.0634
  752MOL0     H 3751   6.083   9.429   3.860  1.5059 -3.0570  1.7210
  752MOL0     H 3752   5.940   9.664   3.871 -3.3701  1.0371  0.8294
  752MOL0     H 3753   5.847   9.588   3.989 -0.5816  2.8725 -0.3861
  752MOL0     H 3754   5.819   9.411   3.776 -0.5132  0.5359  2.4314
  752MOL0     H 3755   5.899   9.540   3.686 -0.9295  2.8606 -0.0214
  752MOL0     H 3756   6.004   9.497   4.637 -1.4791  0.3624  0.7100
  752MOL0     H 3757   5.887   9.501   4.875 -0.6877 -1.4231 -0.6830
  752MOL0     H 3758   5.861   9.446   5.255  1.3390 -1.1936  1.7659
  752MOL0     H 3759   5.679   9.523   5.408 -0.6556 -0.8384 -0.8322
  752MOL0     H 3760   5.013   8.553   4.954 -0.8476  0.1243 -1.5013
  752MOL0     H 3761   5.116   8.479   4.739  2.5350  0.3865  1.7248
  752MOL0     H 3762   4.875   8.259   4.593 -0.1024  0.1621  0.2256
  752MOL0     H 3763   4.661   8.157   4.556  1.5165  1.8176 -0.2799
  752MOL0     H 3764   4.486   8.042   4.497  1.8471  0.1072  1.4719
  752MOL0     H 3765   4.563   8.042   4.326 -1.4876 -1.8931 -1.0045
  752MOL0     H 3766   4.409   7.881   4.252  0.8106 -2.1191  0.1594
  752MOL0     H 3767   4.318   7.984   4.357 -0.8637 -1.7567  1.8818
  752MOL0     H 3768   4.251   7.755   4.400 -0.3530 -0.6212  1.8212
  752MOL0     H 3769   4.413   7.719   4.455 -0.7868  0.3461  1.5485
  752MOL0     H 3770   4.407   7.886   4.623  0.6678 -0.5067 -0.7326
  752MOL0     H 3771   4.294   7.751   4.639  1.1359 -1.3640 -1.9523
  752MOL0     H 3772   4.004   8.027   4.542  1.2599  2.3924 -1.5186
  752MOL0     H 3773   4.842   7.781   4.493  2.9481 -1.0616  2.9176
  752MOL0     H 3774   5.180   7.871   4.587 -0.6977  2.0466 -0.9241
  752MOL0     H 3775   5.100   7.744   4.509 -1.2666  0.0815  1.9326
  752MOL0     H 3776   5.150   7.883   4.410 -0.7777  2.2669  0.4433
  753MOL0     O 3777   9.175  10.585   5.169  0.0756 -0.0266  0.2669
  753MOL0     C 3778   9.205  10.697   5.209 -0.4305  0.1202 -0.0274
  753MOL0     O 3779   9.176  10.815   5.146  0.0642  0.4715 -0.4967
  753MOL0     C 3780   9.163  10.814   5.009 -0.5627  0.5862 -0.6171
  753MOL0     C 3781   9.029  10.812   4.947 -0.1441 -0.2347  0.2585
  753MOL0     C 3782   9.039  10.822   4.807  0.7186 -0.6518  0.3874
  753MOL0     C 3783   9.157  10.836   4.735  0.4188 -0.0483  0.6441
  753MOL0     O 3784   9.145  10.838   4.596  0.2582  0.7472 -0.4858
  753MOL0     C 3785   9.230  10.754   4.519  0.0577  1.0976 -0.6349
  753MOL0     C 3786   9.172  10.741   4.377  0.8994 -0.0768  0.2069
  753MOL0     C 3787   9.217  10.616   4.297  0.0350 -0.1054 -0.6724
  753MOL0     C 3788   9.179  10.658   4.151 -0.6067  0.8142 -0.2791
  753MOL0     C 3789   9.229  10.541   4.061  0.5259 -1.1293 -0.0205
  753MOL0     C 3790   9.225  10.593   3.916 -0.1063  0.0202 -0.1921
  753MOL0     C 3791   9.093  10.656   3.864 -0.3912 -0.1184  0.0400
  753MOL0     C 3792   9.083  10.670   3.708  0.2557  0.5827  0.6970
  753MOL0     N 3793   9.152  10.791   3.661  0.2361 -0.8517 -1.0302
  753MOL0     C 3794   9.184  10.818   3.529  0.3563  0.2479 -1.2058
  753MOL0     C 3795   9.232  10.944   3.531  0.2008 -0.3724 -0.5789
  753MOL0     C 3796   9.284  11.018   3.417  0.0211 -0.0918 -0.2714
  753MOL0     C 3797   9.424  10.972   3.372 -0.2352 -0.2918  0.9729
  753MOL0     C 3798   9.456  10.984   3.219  0.8996 -0.6473 -0.0552
  753MOL0     C 3799   9.367  10.898   3.133  0.7595 -0.3578  0.4664
  753MOL0     O 3800   9.398  10.767   3.168  0.1363  0.7960  0.7272
  753MOL0     C 3801   9.349  10.678   3.073 -0.0218  0.2150 -0.2180
  753MOL0     C 3802   9.397  10.679   2.939  0.2655 -0.0592 -0.0581
  753MOL0     C 3803   9.337  10.591   2.847  0.2489 -0.3048 -0.1678
  753MOL0     C 3804   9.385  10.588   2.706  0.3277  0.4382  0.2876
  753MOL0     C 3805   9.220  10.507   2.881 -0.8608  0.5918 -0.2002
  753MOL0     C 3806   9.139  10.419   2.792 -0.0030 -0.9302 -0.5305
  753MOL0     O 3807   9.008  10.389   2.833 -0.6426  0.1317 -0.5381
  753MOL0     C 3808   8.942  10.293   2.777 -0.9872 -1.1192  0.2504
  753MOL0     C 3809   8.983  10.166   2.798  0.2138  0.0806 -0.5534
  753MOL0     C 3810   8.927  10.049   2.744  0.6165  0.1889 -0.9580
  753MOL0     C 3811   8.812  10.071   2.668  0.2446 -0.0843 -0.4999
  753MOL0     O 3812   8.757   9.964   2.607 -0.0038 -0.3340  0.0535
  753MOL0     C 3813   8.618   9.972   2.574  0.1988 -0.2856  0.0197
  753MOL0     C 3814   8.572   9.820   2.551  0.2523 -0.8302 -0.1251
  753MOL0     C 3815   8.442   9.811   2.472  0.2519 -1.3757 -0.0743
  753MOL0     C 3816   8.398   9.673   2.438 -0.9995 -0.3019 -0.4301
  753MOL0     C 3817   8.297   9.680   2.321  0.0148 -0.1439 -0.1758
  753MOL0     C 3818   8.254   9.536   2.303 -0.4303 -0.5209  0.0377
  753MOL0     C 3819   8.137   9.492   2.378  1.8265 -0.2290  0.3964
  753MOL0     C 3820   8.005   9.499   2.299  0.5121  0.4411  0.0296
  753MOL0    Cl 3821   8.021   9.396   2.151 -0.2737  0.6509 -0.4004
  753MOL0     C 3822   8.766  10.199   2.640  0.1597  0.4904  0.0938
  753MOL0     C 3823   8.832  10.317   2.694 -0.3627  0.7731  0.2459
  753MOL0     O 3824   9.186  10.367   2.686 -0.0900 -0.4992 -0.2359
  753MOL0     C 3825   9.173  10.519   3.015 -0.6410 -0.0843  0.6425
  753MOL0     C 3826   9.246  10.587   3.106 -0.8766 -0.3531 -1.4863
  753MOL0     N 3827   9.238  11.000   3.662  0.1063  0.2635  0.1850
  753MOL0     N 3828   9.183  10.909   3.738 -0.1431  1.1236  0.7444
  753MOL0     C 3829   9.273  10.842   4.802  0.2565 -0.3184  1.1512
  753MOL0     C 3830   9.280  10.833   4.941  0.0501  0.1610 -1.2139
  753MOL0     C 3831   9.277  10.706   5.332  0.2520  1.3906  0.3910
  753MOL0     C 3832   9.301  10.834   5.378 -0.4378 -0.6957 -0.5000
  753MOL0     C 3833   9.369  10.861   5.498 -0.2401  0.4141 -1.0246
  753MOL0     C 3834   9.437  10.759   5.569  0.2985  0.3503 -0.2139
  753MOL0     O 3835   9.518  10.788   5.677  0.7072  0.3086 -0.5975
  753MOL0     C 3836   9.554  10.681   5.770  0.6631 -0.3041  0.2927
  753MOL0     C 3837   9.600  10.750   5.899  0.1162  0.0443 -0.1389
  753MOL0     C 3838   9.751  10.784   5.892  0.9074 -0.3057  0.1910
  753MOL0     C 3839   9.780  10.916   5.966  0.2449  0.5534  0.0207
  753MOL0     C 3840   9.779  10.894   6.113 -0.2170 -0.5617  0.3063
  753MOL0     C 3841   9.772  10.880   6.237 -0.1233  0.2611  0.3346
  753MOL0     C 3842   9.430  10.635   5.505  0.1429 -0.5961 -0.0918
  753MOL0     C 3843   9.355  10.596   5.394  0.0835 -1.5842  0.3440
  753MOL0     C 3844   9.359  10.456   5.350 -0.5519  0.2200 -0.4732
  753MOL0     H 3845   8.939  10.818   5.006 -0.1319  3.3933  0.1358
  753MOL0     H 3846   8.940  10.835   4.764 -1.0136  0.1899  4.1888
  753MOL0     H 3847   9.222  10.658   4.571  0.7988  2.0652  1.3892
  753MOL0     H 3848   9.337  10.776   4.517 -0.1774  2.2980 -2.3169
  753MOL0     H 3849   9.068  10.728   4.410  0.3717 -2.8493 -2.0686
  753MOL0     H 3850   9.187  10.835   4.324  0.5536  0.1861  0.5723
  753MOL0     H 3851   9.322  10.589   4.307 -0.5944 -2.6581 -0.4121
  753MOL0     H 3852   9.154  10.533   4.329  0.3739  0.2796  1.0810
  753MOL0     H 3853   9.072  10.679   4.138 -2.0044 -3.0798  2.8198
  753MOL0     H 3854   9.234  10.750   4.131 -1.0790  1.0578 -0.4603
  753MOL0     H 3855   9.162  10.454   4.070  0.0671 -0.7900 -0.1265
  753MOL0     H 3856   9.329  10.516   4.097  1.2989  2.4292  0.6028
  753MOL0     H 3857   9.302  10.668   3.898 -3.2450  3.5473 -0.0614
  753MOL0     H 3858   9.231  10.504   3.853 -0.6177 -0.4632  0.4230
  753MOL0     H 3859   9.068  10.751   3.913  2.9370  1.9636 -1.9168
  753MOL0     H 3860   9.017  10.588   3.904 -0.6417  0.8318  1.2406
  753MOL0     H 3861   9.131  10.582   3.663 -0.7355 -0.4475  1.6023
  753MOL0     H 3862   8.979  10.674   3.674 -0.1375 -2.1856  1.2740
  753MOL0     H 3863   9.188  10.768   3.432  1.9880  1.5489 -1.8454
  753MOL0     H 3864   9.282  11.127   3.431  1.4359  0.0261 -0.8440
  753MOL0     H 3865   9.227  10.985   3.330 -0.1872 -0.1973 -0.0965
  753MOL0     H 3866   9.506  11.012   3.432  2.3883 -2.7637 -0.6914
  753MOL0     H 3867   9.448  10.869   3.402  0.3856 -0.7710 -0.9557
  753MOL0     H 3868   9.454  11.083   3.174  2.1177 -1.7105 -2.6622
  753MOL0     H 3869   9.559  10.951   3.200  0.3447 -3.1932  0.8695
  753MOL0     H 3870   9.259  10.911   3.141  0.6787 -0.7825  0.0616
  753MOL0     H 3871   9.401  10.921   3.032 -1.3659  3.8445  0.4990
  753MOL0     H 3872   9.480  10.742   2.910  0.7492  0.1474  1.6622
  753MOL0     H 3873   9.464  10.661   2.684 -1.1364  1.5860 -1.5021
  753MOL0     H 3874   9.299  10.626   2.649  1.0721  4.2048  1.3528
  753MOL0     H 3875   9.415  10.490   2.671  1.5510  0.8844  0.0464
  753MOL0     H 3876   9.062  10.168   2.872 -0.7677  1.0254  0.4986
  753MOL0     H 3877   8.980   9.958   2.767  2.1380  1.6657  1.9097
  753MOL0     H 3878   8.556  10.013   2.655 -0.4523  0.6423 -0.9280
  753MOL0     H 3879   8.603  10.019   2.477 -0.0708  0.7079  0.5342
  753MOL0     H 3880   8.648   9.761   2.500 -1.5429 -2.5736 -0.9571
  753MOL0     H 3881   8.562   9.771   2.649  3.4383 -0.0308  0.7070
  753MOL0     H 3882   8.463   9.859   2.376  3.3167  2.4552  2.1896
  753MOL0     H 3883   8.355   9.863   2.514  0.5471  0.2791 -1.4014
  753MOL0     H 3884   8.348   9.638   2.529 -0.5048 -0.8201 -0.3499
  753MOL0     H 3885   8.481   9.605   2.417 -0.1626  0.6993 -0.4677
  753MOL0     H 3886   8.216   9.749   2.343  0.0666 -0.2754  0.4500
  753MOL0     H 3887   8.348   9.717   2.231  0.3520 -1.0564 -0.3715
  753MOL0     H 3888   8.347   9.480   2.322  1.4455  0.9107 -3.7790
  753MOL0     H 3889   8.222   9.528   2.198 -0.5361  3.1363 -0.3434
  753MOL0     H 3890   8.133   9.548   2.473  0.3053 -0.1967  0.3410
  753MOL0     H 3891   8.151   9.392   2.421  0.1212 -0.5466  0.2876
  753MOL0     H 3892   7.994   9.604   2.268  1.5915  0.4585 -0.3200
  753MOL0     H 3893   7.923   9.469   2.365  0.6941  0.9440  0.4986
  753MOL0     H 3894   8.684  10.210   2.570  0.8140  0.1211 -0.7513
  753MOL0     H 3895   8.797  10.416   2.665 -1.3921 -0.0250 -1.4018
  753MOL0     H 3896   9.083  10.476   3.059 -2.8587  3.4263 -0.1318
  753MOL0     H 3897   9.224  10.574   3.211 -2.1354  2.0139 -1.3905
  753MOL0     H 3898   9.368  10.859   4.753  0.3504  0.8608  1.7247
  753MOL0     H 3899   9.375  10.843   4.992 -0.4261 -1.7387  0.1718
  753MOL0     H 3900   9.264  10.923   5.329 -0.8131 -0.4418  0.2270
  753MOL0     H 3901   9.387  10.965   5.525  0.9599 -0.6052  2.7577
  753MOL0     H 3902   9.471  10.614   5.794  0.2355 -0.6141 -1.8787
  753MOL0     H 3903   9.634  10.619   5.728  0.1969 -1.0503  0.4812
  753MOL0     H 3904   9.584  10.680   5.981 -2.6067 -2.5613 -2.6478
  753MOL0     H 3905   9.527  10.828   5.922 -2.7583 -3.1085  2.4736
  753MOL0     H 3906   9.801  10.695   5.931  1.4447  0.8196  2.2399
  753MOL0     H 3907   9.767  10.794   5.784 -2.4739  1.0969 -0.3099
  753MOL0     H 3908   9.708  10.991   5.933  0.0277 -0.6167 -2.3959
  753MOL0     H 3909   9.876  10.954   5.931  1.1155 -1.8688 -0.4695
  753MOL0     H 3910   9.767  10.872   6.343 -1.7888 -3.0370  0.1462
  753MOL0     H 3911   9.481  10.561   5.566 -2.9147 -0.0986  3.4860
  753MOL0     H 3912   9.272  10.405   5.393  0.9344 -2.6573 -0.5921
  753MOL0     H 3913   9.381  10.447   5.243  1.1076 -1.5573 -0.0514
  753MOL0     H 3914   9.441  10.407   5.404 -1.1166  0.9471  1.0807
  754MOL0     O 3915   1.203   3.960   7.749 -0.6349 -0.6450  0.2078
  754MOL0     C 3916   1.224   3.987   7.861  0.4320 -0.1383 -0.5149
  754MOL0     O 3917   1.139   3.947   7.966 -0.3075 -0.2109 -0.6818
  754MOL0     C 3918   1.027   3.871   7.955 -0.1687 -0.7569 -0.1583
  754MOL0     C 3919   0.923   3.898   8.052 -0.5153  0.2899  1.0969
  754MOL0     C 3920   0.812   3.824   8.058  0.5111 -0.0293 -0.1471
  754MOL0     C 3921   0.784   3.722   7.962 -0.9680 -0.5441  0.0181
  754MOL0     O 3922   0.662   3.655   7.967 -0.3518 -0.1951  0.3336
  754MOL0     C 3923   0.644   3.518   7.918  0.4976 -0.4584  0.1248
  754MOL0     C 3924   0.516   3.522   7.825 -0.0127  0.4067 -0.5506
  754MOL0     C 3925   0.503   3.401   7.730 -0.8469 -0.0817  0.3820
  754MOL0     C 3926   0.475   3.265   7.794 -0.9188 -0.9311 -0.5581
  754MOL0     C 3927   0.324   3.245   7.831 -0.7824 -0.8262  0.6992
  754MOL0     C 3928   0.267   3.096   7.817 -0.5457 -0.3141 -0.6912
  754MOL0     C 3929   0.127   3.080   7.760  0.0905 -0.4366 -0.5121
  754MOL0     C 3930   0.040   3.149   7.865  0.0046 -0.3184  0.8082
  754MOL0     N 3931  -0.105   3.155   7.825 -0.2982  0.1214 -0.0230
  754MOL0     C 3932  -0.148   3.159   7.697 -0.6387  0.0021 -0.5276
  754MOL0     C 3933  -0.281   3.196   7.706 -0.2713  0.0877 -0.0801
  754MOL0     C 3934  -0.379   3.222   7.588 -0.9301  0.5802 -0.9951
  754MOL0     C 3935  -0.421   3.092   7.516 -0.2310  0.2313 -0.2329
  754MOL0     C 3936  -0.521   3.012   7.602  0.6556 -0.1670 -0.1373
  754MOL0     C 3937  -0.574   2.896   7.522 -0.3316  1.3344 -0.2840
  754MOL0     O 3938  -0.462   2.824   7.466 -0.1238  0.8074  0.2821
  754MOL0     C 3939  -0.492   2.725   7.375  0.7225  0.2064  1.0750
  754MOL0     C 3940  -0.393   2.659   7.308 -0.5032  0.6716 -0.1782
  754MOL0     C 3941  -0.408   2.565   7.200  0.3228 -0.1234  0.0493
  754MOL0     C 3942  -0.279   2.513   7.144 -0.5854  0.0821 -0.2872
  754MOL0     C 3943  -0.537   2.521   7.158 -1.0442  0.2061  0.7053
  754MOL0     C 3944  -0.560   2.422   7.050 -0.2416  0.6941 -0.1694
  754MOL0     O 3945  -0.450   2.355   6.991  0.1260  0.4957  0.7403
  754MOL0     C 3946  -0.497   2.251   6.905 -0.0881 -0.8509  0.2086
  754MOL0     C 3947  -0.546   2.282   6.773 -0.9905 -0.3700 -0.2026
  754MOL0     C 3948  -0.556   2.184   6.675  0.3275  0.5422 -0.4391
  754MOL0     C 3949  -0.527   2.053   6.718  0.5568  0.2077  0.1981
  754MOL0     O 3950  -0.539   1.960   6.615 -0.6963  0.0182  0.1380
  754MOL0     C 3951  -0.421   1.870   6.617 -0.2167 -0.1568  0.8386
  754MOL0     C 3952  -0.385   1.824   6.476 -0.3814  0.1668  1.0312
  754MOL0     C 3953  -0.464   1.707   6.416 -0.2200 -0.4523  0.0537
  754MOL0     C 3954  -0.467   1.688   6.270 -0.2742 -0.3858  1.3875
  754MOL0     C 3955  -0.563   1.569   6.221 -0.6153 -0.3536 -0.4640
  754MOL0     C 3956  -0.566   1.563   6.068 -0.3604 -0.0057  0.8351
  754MOL0     C 3957  -0.449   1.474   6.011 -0.2050 -0.0771 -0.3808
  754MOL0     C 3958  -0.446   1.490   5.861  0.7372 -0.5169  0.4534
  754MOL0    Cl 3959  -0.535   1.368   5.771 -0.2030  0.0446  0.2032
  754MOL0     C 3960  -0.501   2.018   6.854  0.0723 -0.4117 -0.0845
  754MOL0     C 3961  -0.464   2.118   6.942  0.1628 -0.2911  0.8502
  754MOL0     O 3962  -0.676   2.388   7.035 -0.5602 -0.1817  0.0249
  754MOL0     C 3963  -0.642   2.594   7.217  0.2907 -0.0058 -0.0074
  754MOL0     C 3964  -0.618   2.699   7.314  0.0315  0.2340  0.2526
  754MOL0     N 3965  -0.316   3.197   7.839 -0.6135 -0.3311 -0.1045
  754MOL0     N 3966  -0.207   3.176   7.911 -0.2320 -0.3493 -0.2708
  754MOL0     C 3967   0.888   3.695   7.869  0.2720  0.5868 -0.4228
  754MOL0     C 3968   1.006   3.772   7.860 -0.0592 -0.0625  0.1752
  754MOL0     C 3969   1.327   4.079   7.902 -0.4014 -0.6271 -0.2141
  754MOL0     C 3970   1.341   4.115   8.036  0.4568 -0.0751 -0.3726
  754MOL0     C 3971   1.438   4.197   8.089 -1.2919 -0.7741 -0.1892
  754MOL0     C 3972   1.538   4.260   8.010 -0.2969 -0.7121  0.1627
  754MOL0     O 3973   1.643   4.343   8.045 -0.6814 -0.1783 -1.0325
  754MOL0     C 3974   1.637   4.390   8.182  0.0949  0.4591  0.3794
  754MOL0     C 3975   1.746   4.494   8.212 -0.0826 -0.2723 -0.2705
  754MOL0     C 3976   1.884   4.444   8.157 -0.7656  0.1418  0.2096
  754MOL0     C 3977   1.977   4.564   8.194  0.3513 -0.2568  0.4730
  754MOL0     C 3978   2.116   4.543   8.173 -0.3497 -0.1411  0.8756
  754MOL0     C 3979   2.237   4.515   8.147  1.0735  0.2787  0.2956
  754MOL0     C 3980   1.523   4.226   7.868 -0.0474  0.4024  0.3123
  754MOL0     C 3981   1.424   4.141   7.812 -0.8172 -0.2575 -0.7813
  754MOL0     C 3982   1.414   4.127   7.657 -0.4614  0.4613 -0.0162
  754MOL0     H 3983   0.933   3.986   8.114 -1.5441  3.0008 -2.2951
  754MOL0     H 3984   0.745   3.856   8.137 -0.1991  1.7624 -1.4121
  754MOL0     H 3985   0.623   3.442   7.993 -0.0704 -0.7788 -0.3515
  754MOL0     H 3986   0.722   3.479   7.852 -0.4677  1.2937 -2.1955
  754MOL0     H 3987   0.435   3.534   7.898 -0.3707  0.8077 -1.0098
  754MOL0     H 3988   0.515   3.608   7.757 -0.9949 -0.6659 -1.9651
  754MOL0     H 3989   0.448   3.437   7.642  2.3427  1.7614 -1.0086
  754MOL0     H 3990   0.599   3.387   7.680 -0.9231 -1.4622  0.5988
  754MOL0     H 3991   0.493   3.190   7.717 -1.7993 -0.0947 -1.6194
  754MOL0     H 3992   0.540   3.241   7.879 -2.4332 -3.7974 -0.0848
  754MOL0     H 3993   0.271   3.308   7.759  1.4748 -0.7138 -0.9743
  754MOL0     H 3994   0.307   3.290   7.929  2.2779  0.9705  0.5414
  754MOL0     H 3995   0.334   3.040   7.750 -1.1496 -2.2769  0.2792
  754MOL0     H 3996   0.276   3.036   7.907  1.2385 -1.7796 -1.7695
  754MOL0     H 3997   0.100   2.975   7.745 -3.8711  0.4857 -0.8769
  754MOL0     H 3998   0.126   3.127   7.661 -1.0303  2.3276  0.7273
  754MOL0     H 3999   0.044   3.112   7.968 -2.0784 -1.9080  0.3785
  754MOL0     H 4000   0.069   3.254   7.855 -0.6529 -0.3093 -1.4113
  754MOL0     H 4001  -0.092   3.146   7.605 -0.3821 -0.8934 -0.2488
  754MOL0     H 4002  -0.322   3.280   7.514  0.0999  0.1256 -0.5725
  754MOL0     H 4003  -0.473   3.272   7.613 -0.0435  1.2334  1.2809
  754MOL0     H 4004  -0.468   3.107   7.418 -0.7666 -1.4328 -0.2673
  754MOL0     H 4005  -0.338   3.027   7.489 -2.0379 -0.9776 -3.5010
  754MOL0     H 4006  -0.469   2.963   7.685  1.3242 -1.8905 -1.5338
  754MOL0     H 4007  -0.607   3.072   7.635 -2.4412 -1.3490 -5.0556
  754MOL0     H 4008  -0.625   2.832   7.595  2.8556 -1.3957 -0.2211
  754MOL0     H 4009  -0.640   2.932   7.442 -0.7714  0.8064 -0.1695
  754MOL0     H 4010  -0.292   2.686   7.337 -0.0896 -2.2946  1.5182
  754MOL0     H 4011  -0.279   2.403   7.149  0.6211  0.0947  0.3629
  754MOL0     H 4012  -0.192   2.557   7.194 -0.3444  0.6922 -1.2220
  754MOL0     H 4013  -0.291   2.540   7.039 -0.5481  1.6070  0.0827
  754MOL0     H 4014  -0.549   2.384   6.736 -1.4739 -0.5127 -0.5589
  754MOL0     H 4015  -0.572   2.210   6.570 -0.0549  1.3277 -0.1957
  754MOL0     H 4016  -0.332   1.914   6.663 -1.5327 -0.8069  4.2947
  754MOL0     H 4017  -0.442   1.788   6.686  2.6941 -0.2965  1.7215
  754MOL0     H 4018  -0.411   1.915   6.422 -0.1207  0.6322  1.6828
  754MOL0     H 4019  -0.280   1.798   6.488 -0.9135 -1.8011  1.8647
  754MOL0     H 4020  -0.569   1.718   6.445 -0.6457 -2.0422 -0.7269
  754MOL0     H 4021  -0.421   1.611   6.448  0.7301 -2.0046 -4.8931
  754MOL0     H 4022  -0.370   1.659   6.228 -0.8506  1.9076 -1.9654
  754MOL0     H 4023  -0.508   1.778   6.224  0.0661 -1.3688 -0.9958
  754MOL0     H 4024  -0.534   1.468   6.249 -4.6548 -1.5041  0.2669
  754MOL0     H 4025  -0.660   1.593   6.266 -1.2172 -2.3473 -0.6371
  754MOL0     H 4026  -0.549   1.668   6.040  0.1349 -1.0241 -3.3613
  754MOL0     H 4027  -0.657   1.536   6.014 -0.3571 -1.0809  1.3520
  754MOL0     H 4028  -0.448   1.373   6.053 -1.2722  1.4515  3.8031
  754MOL0     H 4029  -0.357   1.523   6.046  0.2875 -1.1387 -0.1673
  754MOL0     H 4030  -0.340   1.496   5.837  0.9267 -0.4465  1.2973
  754MOL0     H 4031  -0.478   1.588   5.824  3.4237  0.5596  0.8187
  754MOL0     H 4032  -0.494   1.914   6.885  1.3526 -0.0607  0.8597
  754MOL0     H 4033  -0.414   2.096   7.036  0.6441  0.3232  0.7373
  754MOL0     H 4034  -0.740   2.559   7.188  1.7549 -2.3443 -2.6976
  754MOL0     H 4035  -0.707   2.756   7.340 -0.4632 -1.2341  1.9962
  754MOL0     H 4036   0.874   3.607   7.806  2.8313 -3.0339  3.5799
  754MOL0     H 4037   1.077   3.744   7.783  0.4713 -1.9974  1.3247
  754MOL0     H 4038   1.270   4.084   8.112  0.4125  0.8224 -0.0316
  754MOL0     H 4039   1.432   4.208   8.197 -1.5294 -4.0466  0.2265
  754MOL0     H 4040   1.537   4.434   8.192 -0.4651 -0.6828  0.0866
  754MOL0     H 4041   1.651   4.308   8.253  1.9175 -3.7600 -4.2148
  754MOL0     H 4042   1.753   4.517   8.319  1.4882 -0.8695 -0.2195
  754MOL0     H 4043   1.716   4.585   8.160 -4.0758 -3.3291 -4.0474
  754MOL0     H 4044   1.917   4.350   8.203 -1.0118  0.2329  0.5739
  754MOL0     H 4045   1.890   4.427   8.049 -0.2566  1.6588 -0.0210
  754MOL0     H 4046   1.971   4.586   8.301  1.6108 -4.6940  1.6652
  754MOL0     H 4047   1.954   4.654   8.136  1.4617 -0.2684 -0.0171
  754MOL0     H 4048   2.334   4.485   8.113  0.2313  2.0958 -4.5555
  754MOL0     H 4049   1.582   4.280   7.795  0.3054  1.0961  1.0882
  754MOL0     H 4050   1.420   4.020   7.633 -0.7142  0.4390  0.0186
  754MOL0     H 4051   1.318   4.159   7.615  1.0869  1.3100 -3.2985
  754MOL0     H 4052   1.490   4.181   7.599  1.0626 -0.9175  0.6233
  755MOL0     O 4053   4.836   0.872   9.109 -0.5910 -0.9057 -0.1133
  755MOL0     C 4054   4.708   0.876   9.100  0.1662  0.6436 -0.9567
  755MOL0     O 4055   4.628   0.952   9.188  0.1324  0.1413 -0.2666
  755MOL0     C 4056   4.691   1.015   9.293 -1.0444 -0.9202 -0.4200
  755MOL0     C 4057   4.719   1.150   9.279 -0.0143 -0.5485 -0.7652
  755MOL0     C 4058   4.786   1.219   9.380  0.2643  1.1292  0.2912
  755MOL0     C 4059   4.822   1.140   9.499 -0.1572 -0.4471  0.1238
  755MOL0     O 4060   4.877   1.216   9.599 -0.1043 -0.8463  0.6078
  755MOL0     C 4061   4.768   1.296   9.657 -0.1753  0.3201 -0.0703
  755MOL0     C 4062   4.815   1.358   9.789 -0.1992 -0.7854  0.4057
  755MOL0     C 4063   4.713   1.461   9.848  0.1324  0.4632  0.4030
  755MOL0     C 4064   4.625   1.535   9.747 -0.4017 -0.4020 -0.2991
  755MOL0     C 4065   4.492   1.586   9.815 -0.0368 -0.9662  0.4932
  755MOL0     C 4066   4.431   1.705   9.741 -0.1873  0.2244 -0.6609
  755MOL0     C 4067   4.288   1.721   9.799 -0.7625  0.5669  0.3309
  755MOL0     C 4068   4.207   1.835   9.738  0.6591  0.2202 -0.8632
  755MOL0     N 4069   4.136   1.807   9.605 -0.5678 -0.3293  1.1835
  755MOL0     C 4070   4.171   1.715   9.513 -0.7004 -1.1731  0.5691
  755MOL0     C 4071   4.080   1.740   9.412 -0.8604  0.4722  0.2927
  755MOL0     C 4072   4.048   1.661   9.295  0.6398  0.4139  1.1577
  755MOL0     C 4073   3.920   1.570   9.308  0.7655  0.6095 -1.3580
  755MOL0     C 4074   3.789   1.644   9.306  0.1372 -0.4847 -0.1850
  755MOL0     C 4075   3.674   1.552   9.258  0.6083  0.4299 -0.0928
  755MOL0     O 4076   3.679   1.429   9.337 -0.6046  0.0367  0.1824
  755MOL0     C 4077   3.635   1.423   9.469 -0.0944 -0.4596 -0.2558
  755MOL0     C 4078   3.563   1.528   9.535 -0.0368  0.3702  0.7093
  755MOL0     C 4079   3.519   1.512   9.666 -0.8601  0.2537 -0.0695
  755MOL0     C 4080   3.449   1.637   9.724 -0.4918  0.2368  1.1433
  755MOL0     C 4081   3.539   1.398   9.736  0.5043 -1.0137 -0.1191
  755MOL0     C 4082   3.492   1.367   9.876 -0.0665  0.3074 -0.2705
  755MOL0     O 4083   3.585   1.300   9.958  0.3975  0.3088 -0.1342
  755MOL0     C 4084   3.546   1.277  10.086 -0.4909  1.0774 -0.0183
  755MOL0     C 4085   3.435   1.185  10.109 -0.8448 -0.6638 -0.2159
  755MOL0     C 4086   3.398   1.171  10.251 -0.7051 -0.4389 -0.5083
  755MOL0     C 4087   3.465   1.244  10.355 -0.3481  0.5690  0.0321
  755MOL0     O 4088   3.421   1.246  10.486 -0.2509  0.5851  0.7928
  755MOL0     C 4089   3.305   1.170  10.515  0.5325  0.2219 -0.3626
  755MOL0     C 4090   3.264   1.169  10.667 -0.7976  0.4492 -0.5448
  755MOL0     C 4091   3.339   1.074  10.752 -0.5570  0.2261 -0.4978
  755MOL0     C 4092   3.479   1.128  10.792  0.0670 -0.3974  0.1659
  755MOL0     C 4093   3.561   1.009  10.835 -0.1901  0.2075  0.7238
  755MOL0     C 4094   3.708   1.047  10.870  0.4791  1.1250 -0.2143
  755MOL0     C 4095   3.805   0.921  10.849  0.0488 -0.4633 -0.1321
  755MOL0     C 4096   3.785   0.807  10.947 -0.2981  0.7338  0.7566
  755MOL0    Cl 4097   3.778   0.878  11.114  0.3188  0.4807 -0.0272
  755MOL0     C 4098   3.570   1.330  10.323 -0.1885 -0.4317  0.5166
  755MOL0     C 4099   3.609   1.346  10.190  0.7346 -0.2311 -1.1262
  755MOL0     O 4100   3.376   1.393   9.904 -0.3218 -0.1322 -0.3613
  755MOL0     C 4101   3.604   1.294   9.672 -0.0609  0.3844 -1.1923
  755MOL0     C 4102   3.652   1.305   9.539 -0.4182 -0.1498 -0.1352
  755MOL0     N 4103   3.998   1.850   9.457  0.2678  0.4824 -0.0774
  755MOL0     N 4104   4.040   1.888   9.573 -0.3069  0.2212 -0.3151
  755MOL0     C 4105   4.770   1.010   9.518  0.2831 -0.0680  0.8889
  755MOL0     C 4106   4.699   0.946   9.415  0.0747 -0.8785  0.6145
  755MOL0     C 4107   4.632   0.770   9.023 -0.4364 -0.6538  1.1393
  755MOL0     C 4108   4.491   0.752   9.046  0.2411 -0.4756 -0.6910
  755MOL0     C 4109   4.408   0.658   8.985  0.2308 -0.7844 -0.2044
  755MOL0     C 4110   4.466   0.560   8.900 -0.3941  0.9011 -0.1853
  755MOL0     O 4111   4.412   0.459   8.830 -0.2019 -0.0803 -0.2218
  755MOL0     C 4112   4.270   0.468   8.809  0.2777  0.2574  0.4069
  755MOL0     C 4113   4.234   0.378   8.696 -0.9356  0.0293 -0.0699
  755MOL0     C 4114   4.276   0.233   8.740  0.0009 -0.2487 -0.4054
  755MOL0     C 4115   4.196   0.124   8.668  0.9142  1.2510 -0.4491
  755MOL0     C 4116   4.247   0.100   8.535 -0.9205 -0.4767 -0.4653
  755MOL0     C 4117   4.298   0.100   8.423  0.0320  0.4114  0.0658
  755MOL0     C 4118   4.596   0.580   8.872  0.2039  0.2703 -0.2782
  755MOL0     C 4119   4.682   0.678   8.929  0.5463 -0.1052  0.2090
  755MOL0     C 4120   4.833   0.674   8.885 -0.2559 -0.5698  0.8256
  755MOL0     H 4121   4.683   1.206   9.193 -1.5452  2.6266  1.7301
  755MOL0     H 4122   4.816   1.323   9.367  1.3289  0.5128 -3.1244
  755MOL0     H 4123   4.675   1.238   9.662  0.1942 -0.3940 -1.2385
  755MOL0     H 4124   4.759   1.380   9.587 -1.5219 -1.4898 -2.1955
  755MOL0     H 4125   4.833   1.276   9.859 -1.7260 -2.2102 -0.8070
  755MOL0     H 4126   4.912   1.407   9.775  0.4241 -2.4942 -1.6315
  755MOL0     H 4127   4.642   1.416   9.919 -1.6455  0.0025 -1.5439
  755MOL0     H 4128   4.775   1.533   9.901  2.6444 -2.8032  2.2052
  755MOL0     H 4129   4.681   1.610   9.691 -2.5654  1.3949 -0.1921
  755MOL0     H 4130   4.588   1.474   9.663  1.3745  1.8392 -2.8813
  755MOL0     H 4131   4.512   1.632   9.912 -0.0200  1.7745 -0.7213
  755MOL0     H 4132   4.425   1.502   9.835 -0.1584 -0.8304  0.6535
  755MOL0     H 4133   4.497   1.790   9.758  1.9845 -1.6719  0.9353
  755MOL0     H 4134   4.408   1.680   9.637 -0.7471 -0.9263 -0.2785
  755MOL0     H 4135   4.292   1.748   9.905 -2.6820 -0.7745  0.7971
  755MOL0     H 4136   4.223   1.633   9.794  1.4193 -1.4323  3.3976
  755MOL0     H 4137   4.127   1.848   9.811  0.1774  2.8695 -1.7463
  755MOL0     H 4138   4.275   1.920   9.749  1.0005 -0.0771 -0.6657
  755MOL0     H 4139   4.248   1.639   9.519 -1.2364 -1.7937 -0.3109
  755MOL0     H 4140   4.138   1.611   9.258 -0.7528 -2.1854  1.0773
  755MOL0     H 4141   4.012   1.736   9.224  1.9132  0.4009  0.4733
  755MOL0     H 4142   3.926   1.506   9.220 -0.8218  0.1968 -1.1848
  755MOL0     H 4143   3.930   1.518   9.404 -0.5752 -1.4754 -2.2880
  755MOL0     H 4144   3.768   1.698   9.398  0.6912 -0.7160  0.0811
  755MOL0     H 4145   3.794   1.717   9.224 -1.2294 -0.1831 -0.0229
  755MOL0     H 4146   3.578   1.603   9.249  1.6042  2.0791 -2.0263
  755MOL0     H 4147   3.694   1.506   9.161 -0.1214 -2.7983  1.1440
  755MOL0     H 4148   3.553   1.621   9.480  1.4250 -0.6471 -1.3811
  755MOL0     H 4149   3.494   1.730   9.689 -0.1237 -0.4611 -0.3613
  755MOL0     H 4150   3.464   1.634   9.832 -0.6572  1.3949  1.2058
  755MOL0     H 4151   3.341   1.641   9.713 -0.8347 -0.5803  3.6088
  755MOL0     H 4152   3.384   1.139  10.025 -0.4869 -4.1232  1.3046
  755MOL0     H 4153   3.309   1.110  10.265 -0.4920 -0.6219  0.0651
  755MOL0     H 4154   3.221   1.203  10.453  0.5174 -3.3202 -2.4947
  755MOL0     H 4155   3.321   1.064  10.492  2.6361  0.7768 -1.7696
  755MOL0     H 4156   3.273   1.265  10.718  0.0478  1.1356 -1.9243
  755MOL0     H 4157   3.158   1.141  10.675 -0.7438  0.3924 -0.0412
  755MOL0     H 4158   3.358   0.977  10.707  2.2063  0.2860  0.3736
  755MOL0     H 4159   3.280   1.049  10.841 -0.5763  3.6251  0.5817
  755MOL0     H 4160   3.481   1.204  10.871  3.8205 -1.7441  1.5837
  755MOL0     H 4161   3.530   1.167  10.704  2.8111  1.2471  2.3104
  755MOL0     H 4162   3.520   0.959  10.924  2.2166 -3.3730  0.0139
  755MOL0     H 4163   3.560   0.923  10.768  0.6715  1.4907 -1.0016
  755MOL0     H 4164   3.707   1.096  10.968  2.7785  1.0785 -0.1146
  755MOL0     H 4165   3.735   1.138  10.815  0.5655  2.6337  2.1881
  755MOL0     H 4166   3.909   0.957  10.849  0.1797 -0.2204 -4.9269
  755MOL0     H 4167   3.784   0.889  10.746 -0.2346  2.4931 -1.0975
  755MOL0     H 4168   3.864   0.731  10.942 -1.5167 -0.5510 -0.2230
  755MOL0     H 4169   3.699   0.753  10.906  0.0510  1.2502 -0.7352
  755MOL0     H 4170   3.629   1.372  10.403 -3.0749  1.6154  1.7531
  755MOL0     H 4171   3.698   1.404  10.167 -0.0625  2.1856  1.3881
  755MOL0     H 4172   3.618   1.204   9.731 -2.7561 -0.3924 -1.6111
  755MOL0     H 4173   3.716   1.233   9.490  1.0812  1.5093 -0.7255
  755MOL0     H 4174   4.784   0.961   9.615  1.6122 -0.5459  0.4784
  755MOL0     H 4175   4.653   0.847   9.415 -0.1307 -0.8580 -2.3359
  755MOL0     H 4176   4.450   0.822   9.118 -1.9085 -3.4148  1.1586
  755MOL0     H 4177   4.303   0.664   9.011 -0.1965 -0.3277 -1.9076
  755MOL0     H 4178   4.216   0.441   8.900 -1.1045 -1.0723 -0.7573
  755MOL0     H 4179   4.239   0.568   8.777 -0.8799  0.8075  2.9873
  755MOL0     H 4180   4.284   0.407   8.603 -4.3541  2.6620 -1.2969
  755MOL0     H 4181   4.128   0.389   8.672 -1.6267 -3.3873  0.8272
  755MOL0     H 4182   4.384   0.227   8.724 -0.0753  0.8342 -1.4627
  755MOL0     H 4183   4.245   0.215   8.844 -0.5334 -2.0242 -0.8352
  755MOL0     H 4184   4.088   0.140   8.664  0.9719  1.4519 -3.5623
  755MOL0     H 4185   4.212   0.027   8.717  0.9564  1.6748  0.3941
  755MOL0     H 4186   4.336   0.115   8.324  2.2638  0.0204  0.8124
  755MOL0     H 4187   4.637   0.503   8.807  0.8708  0.6007 -0.2589
  755MOL0     H 4188   4.849   0.595   8.811 -0.1173  0.1069  0.1171
  755MOL0     H 4189   4.850   0.767   8.830  3.3777 -3.6362 -4.1532
  755MOL0     H 4190   4.899   0.663   8.972  1.1478  1.4621  0.1059
  756MOL0     O 4191   1.139   9.250   6.553  0.0655  0.3529  0.3053
  756MOL0     C 4192   1.216   9.175   6.616  0.2578 -1.7963 -0.2062
  756MOL0     O 4193   1.304   9.080   6.564  0.0456 -1.2033  0.4863
  756MOL0     C 4194   1.329   9.082   6.431  0.0518 -0.0058 -0.5184
  756MOL0     C 4195   1.373   8.961   6.385 -0.5747  0.0728 -0.6334
  756MOL0     C 4196   1.430   8.941   6.259 -0.0775  0.1601 -0.3487
  756MOL0     C 4197   1.447   9.060   6.189  0.4788  0.2939  0.9474
  756MOL0     O 4198   1.513   9.052   6.069  0.3884  0.0904  0.1947
  756MOL0     C 4199   1.660   9.046   6.088  0.5282 -0.1794 -0.2032
  756MOL0     C 4200   1.721   9.130   5.971  0.4580 -1.1798 -0.2314
  756MOL0     C 4201   1.696   9.081   5.823 -0.1830  0.0475 -0.5470
  756MOL0     C 4202   1.800   9.144   5.726 -0.1130 -0.1882 -0.5684
  756MOL0     C 4203   1.778   9.107   5.577 -0.2238 -0.9516  0.5631
  756MOL0     C 4204   1.870   9.168   5.475 -0.1506 -0.6583  0.3080
  756MOL0     C 4205   1.830   9.120   5.335  0.0601 -0.7156  0.1923
  756MOL0     C 4206   1.922   9.161   5.228 -0.4603  0.2900  0.2956
  756MOL0     N 4207   1.872   9.132   5.097 -0.0653 -0.5589  0.1351
  756MOL0     C 4208   1.865   9.225   4.990 -0.2393 -0.3267 -0.1283
  756MOL0     C 4209   1.839   9.151   4.883  0.2399  0.4215 -0.2271
  756MOL0     C 4210   1.847   9.201   4.743  0.4104 -0.6395 -0.0665
  756MOL0     C 4211   1.860   9.097   4.642 -0.0642 -0.3597 -0.2841
  756MOL0     C 4212   1.897   9.143   4.507 -0.5920 -1.5070  1.4213
  756MOL0     C 4213   1.929   9.022   4.426  0.3094 -0.2097  0.9082
  756MOL0     O 4214   1.815   8.939   4.428  0.7167 -0.1497  0.5304
  756MOL0     C 4215   1.713   8.951   4.340  0.4143 -0.0622  0.2917
  756MOL0     C 4216   1.680   9.067   4.260 -0.7807 -0.1028 -0.0284
  756MOL0     C 4217   1.568   9.083   4.176 -0.8597  0.1106 -0.5597
  756MOL0     C 4218   1.545   9.212   4.128 -0.5789 -0.4532 -0.1166
  756MOL0     C 4219   1.493   8.963   4.150  0.2766 -0.5588  0.4538
  756MOL0     C 4220   1.379   8.962   4.049  0.5118 -0.0141  0.5116
  756MOL0     O 4221   1.320   9.081   3.998 -0.6431 -0.3657  0.5937
  756MOL0     C 4222   1.199   9.077   3.942  0.1312 -0.4883  0.2997
  756MOL0     C 4223   1.097   8.979   3.935  0.1352 -0.0721  0.3600
  756MOL0     C 4224   0.979   9.003   3.872  0.3453 -0.2637 -0.4550
  756MOL0     C 4225   0.947   9.126   3.834  0.1001  0.2717  0.1094
  756MOL0     O 4226   0.839   9.162   3.760 -0.0607  0.1905  0.6728
  756MOL0     C 4227   0.748   9.054   3.731 -0.3419 -0.5355  0.5711
  756MOL0     C 4228   0.657   9.105   3.623 -0.4729  0.4788 -0.5770
  756MOL0     C 4229   0.577   9.221   3.678 -1.1074 -0.8180  0.1028
  756MOL0     C 4230   0.435   9.187   3.722 -0.8547 -0.6195 -0.2400
  756MOL0     C 4231   0.353   9.315   3.747 -0.0569 -0.0707 -0.5111
  756MOL0     C 4232   0.235   9.270   3.833  0.4142  0.4489 -0.3390
  756MOL0     C 4233   0.138   9.382   3.844  0.6029 -0.0062  0.7434
  756MOL0     C 4234   0.011   9.343   3.919  0.5999  0.0226  0.0566
  756MOL0    Cl 4235  -0.072   9.207   3.822  0.0684 -0.1095  0.0808
  756MOL0     C 4236   1.035   9.226   3.859 -0.4362 -0.1389 -0.1038
  756MOL0     C 4237   1.166   9.206   3.902 -0.2819 -0.2947 -0.0364
  756MOL0     O 4238   1.341   8.848   4.025 -0.4603  0.0591  0.5832
  756MOL0     C 4239   1.542   8.846   4.209  0.2069  0.3077 -0.1022
  756MOL0     C 4240   1.638   8.838   4.307  0.3112  0.1073  0.3539
  756MOL0     N 4241   1.841   9.017   4.918  0.4435 -0.4918  1.2723
  756MOL0     N 4242   1.843   9.011   5.045 -0.5333  0.8435  0.7324
  756MOL0     C 4243   1.388   9.183   6.224 -0.1289 -0.7132 -0.4810
  756MOL0     C 4244   1.330   9.195   6.349  0.5178 -0.1787  0.3323
  756MOL0     C 4245   1.227   9.190   6.755  1.5211 -1.1908  0.3753
  756MOL0     C 4246   1.308   9.105   6.828  1.1559 -0.1001  0.4070
  756MOL0     C 4247   1.342   9.125   6.960 -0.6404  0.4057  0.2419
  756MOL0     C 4248   1.292   9.239   7.023 -1.0249 -0.4083  0.3854
  756MOL0     O 4249   1.342   9.260   7.145 -0.0408 -0.4078 -0.8451
  756MOL0     C 4250   1.304   9.362   7.235  0.5265 -0.8215  0.5699
  756MOL0     C 4251   1.391   9.485   7.215  0.3820  0.7297 -0.1942
  756MOL0     C 4252   1.384   9.592   7.329 -0.8533  0.3267  1.3572
  756MOL0     C 4253   1.520   9.658   7.351 -0.2525  0.3881  0.8619
  756MOL0     C 4254   1.627   9.572   7.410 -0.0770 -0.2263  0.7471
  756MOL0     C 4255   1.715   9.496   7.440  0.2846  0.9567 -0.3725
  756MOL0     C 4256   1.190   9.315   6.957  0.3164 -0.0925 -1.1250
  756MOL0     C 4257   1.164   9.296   6.824 -0.0497 -0.5051  0.7827
  756MOL0     C 4258   1.088   9.402   6.769 -0.4605 -0.6671 -0.7682
  756MOL0     H 4259   1.374   8.883   6.461 -0.1078  2.7869  2.3813
  756MOL0     H 4260   1.481   8.853   6.219  1.5215  0.4914  0.8608
  756MOL0     H 4261   1.698   8.944   6.077  1.8468  0.3360 -0.6652
  756MOL0     H 4262   1.696   9.082   6.185  2.1608 -0.2848 -0.7247
  756MOL0     H 4263   1.692   9.235   5.969  1.5942 -0.8646 -1.3941
  756MOL0     H 4264   1.830   9.130   5.984  0.1698 -1.0226  2.9742
  756MOL0     H 4265   1.732   8.978   5.817 -0.3913  0.0089 -1.1725
  756MOL0     H 4266   1.593   9.106   5.797  0.0691  2.5717  0.5474
  756MOL0     H 4267   1.764   9.247   5.726 -1.6869 -0.6945 -1.7275
  756MOL0     H 4268   1.907   9.136   5.749 -0.4251 -1.1003  0.7153
  756MOL0     H 4269   1.678   9.128   5.536  1.0299 -1.1649 -2.9196
  756MOL0     H 4270   1.790   8.999   5.571 -0.5258 -0.9365 -0.4698
  756MOL0     H 4271   1.851   9.276   5.485 -1.4939 -0.7386 -1.0688
  756MOL0     H 4272   1.977   9.155   5.494 -0.1756 -2.3321 -0.5404
  756MOL0     H 4273   1.733   9.169   5.326  1.0794  1.4920  0.5258
  756MOL0     H 4274   1.831   9.011   5.333  3.4430 -0.7823 -0.6257
  756MOL0     H 4275   1.952   9.266   5.233 -2.3668  0.9577 -1.0167
  756MOL0     H 4276   2.014   9.108   5.254 -2.2874 -4.6074 -2.0047
  756MOL0     H 4277   1.904   9.326   4.992  0.0423 -0.4206 -0.6630
  756MOL0     H 4278   1.937   9.262   4.730  1.0882 -0.9021  2.6043
  756MOL0     H 4279   1.753   9.253   4.725  1.5818  1.6374  0.1159
  756MOL0     H 4280   1.933   9.019   4.669  0.4234  0.3783  0.5929
  756MOL0     H 4281   1.762   9.049   4.642 -1.7834  2.9310 -1.3380
  756MOL0     H 4282   1.809   9.195   4.467 -1.9026 -2.3973  3.0432
  756MOL0     H 4283   1.984   9.208   4.511 -1.0354 -0.8391  0.5686
  756MOL0     H 4284   1.965   9.043   4.325  1.4006 -2.4540  0.7801
  756MOL0     H 4285   2.010   8.970   4.476 -0.9002 -1.6898  1.4161
  756MOL0     H 4286   1.748   9.151   4.273 -0.0283 -0.6932 -0.0899
  756MOL0     H 4287   1.506   9.214   4.026  0.2260  0.9538 -0.4367
  756MOL0     H 4288   1.628   9.284   4.129 -0.8917 -0.0591  2.0314
  756MOL0     H 4289   1.472   9.266   4.190 -2.3589 -2.0172 -0.7601
  756MOL0     H 4290   1.127   8.879   3.967  5.6149  0.6203 -1.6538
  756MOL0     H 4291   0.919   8.914   3.856  1.1790 -0.8954 -0.1642
  756MOL0     H 4292   0.805   8.964   3.705  1.0990  0.0263  1.6490
  756MOL0     H 4293   0.676   9.008   3.799 -0.5227 -2.3513 -0.7468
  756MOL0     H 4294   0.714   9.135   3.535 -1.6337 -0.8560 -1.8224
  756MOL0     H 4295   0.594   9.021   3.595  0.4120 -0.8724  1.2723
  756MOL0     H 4296   0.584   9.300   3.603 -0.6690 -1.4690 -0.5530
  756MOL0     H 4297   0.614   9.267   3.770 -0.0777  0.8163 -1.0882
  756MOL0     H 4298   0.434   9.119   3.807 -1.1047 -0.7622 -0.3584
  756MOL0     H 4299   0.401   9.146   3.626  2.2366 -2.1223 -0.8332
  756MOL0     H 4300   0.402   9.399   3.796  0.0198 -1.4636  1.9589
  756MOL0     H 4301   0.324   9.341   3.645 -3.3055  1.6717  0.7350
  756MOL0     H 4302   0.263   9.242   3.935 -1.3382 -0.9654 -0.1998
  756MOL0     H 4303   0.187   9.188   3.779  0.2599  0.5042 -0.2883
  756MOL0     H 4304   0.105   9.417   3.746  2.3659  2.8773  1.0699
  756MOL0     H 4305   0.179   9.466   3.900 -1.2871 -0.2594  2.6408
  756MOL0     H 4306  -0.054   9.429   3.937 -0.3754 -1.0124  1.7946
  756MOL0     H 4307   0.045   9.289   4.007  0.0775  0.4524  0.5271
  756MOL0     H 4308   1.009   9.328   3.832  2.1870  0.3379 -1.1111
  756MOL0     H 4309   1.237   9.287   3.909 -1.1956  0.4935  0.3222
  756MOL0     H 4310   1.491   8.754   4.182  0.4093  0.7304 -2.0609
  756MOL0     H 4311   1.665   8.754   4.369  0.8976 -1.4541 -1.8747
  756MOL0     H 4312   1.401   9.266   6.156 -1.7637  0.5124  0.6208
  756MOL0     H 4313   1.301   9.297   6.370 -0.3167  0.4503 -3.2682
  756MOL0     H 4314   1.362   9.024   6.780 -1.4100 -0.8022 -1.4881
  756MOL0     H 4315   1.422   9.059   6.990 -2.6902 -2.4264 -0.1055
  756MOL0     H 4316   1.202   9.398   7.217  0.7463  0.0599  1.0216
  756MOL0     H 4317   1.304   9.330   7.340  3.7963 -1.5064  0.4547
  756MOL0     H 4318   1.358   9.549   7.133 -0.5238  3.4290  2.1178
  756MOL0     H 4319   1.493   9.448   7.205  0.0182 -0.0441 -1.2557
  756MOL0     H 4320   1.309   9.667   7.302 -0.1094  0.6874  0.2131
  756MOL0     H 4321   1.361   9.538   7.422  0.2017 -1.5297  0.5912
  756MOL0     H 4322   1.509   9.749   7.412  2.3230  1.2246  0.2095
  756MOL0     H 4323   1.556   9.703   7.258 -0.3508  3.6260  2.2502
  756MOL0     H 4324   1.801   9.433   7.455 -0.6366 -1.3396 -3.6265
  756MOL0     H 4325   1.153   9.402   7.009  1.4333  1.3458 -2.6486
  756MOL0     H 4326   1.128   9.445   6.677 -1.4334 -0.4352 -1.1009
  756MOL0     H 4327   0.987   9.365   6.747 -0.9720  2.3070 -4.5062
  756MOL0     H 4328   1.075   9.492   6.829  2.8165 -0.2681 -0.4666
  757MOL0     O 4329   7.690  10.364   2.781 -1.3755 -0.0674  0.2706
  757MOL0     C 4330   7.603  10.395   2.858  1.0778 -1.0112  0.1667
  757MOL0     O 4331   7.506  10.484   2.827  0.0774 -0.0977  0.2718
  757MOL0     C 4332   7.476  10.533   2.698 -1.0928 -0.2861 -0.0373
  757MOL0     C 4333   7.499  10.662   2.654  0.7098  0.4787  0.0443
  757MOL0     C 4334   7.479  10.704   2.523  0.8842  0.7425 -0.5542
  757MOL0     C 4335   7.435  10.613   2.427  0.6835 -0.1524  0.0297
  757MOL0     O 4336   7.414  10.649   2.299  0.1887 -0.0563 -0.1211
  757MOL0     C 4337   7.503  10.751   2.249  0.5346  0.9503  0.5909
  757MOL0     C 4338   7.654  10.713   2.261 -0.2989  0.4299 -0.5793
  757MOL0     C 4339   7.736  10.810   2.179 -0.0021  0.6185  0.2045
  757MOL0     C 4340   7.731  10.776   2.031 -0.2236 -0.4600 -1.2716
  757MOL0     C 4341   7.812  10.876   1.951 -0.1360  0.1566 -0.0789
  757MOL0     C 4342   7.775  10.876   1.808 -1.0902 -0.0370 -0.1260
  757MOL0     C 4343   7.819  11.007   1.740  0.0922 -0.5980 -0.7658
  757MOL0     C 4344   7.792  10.994   1.586 -0.0981  0.1320 -0.3214
  757MOL0     N 4345   7.914  10.955   1.513 -0.4902  1.0239 -0.3296
  757MOL0     C 4346   8.019  11.037   1.470  0.3412  0.1638 -0.2238
  757MOL0     C 4347   8.116  10.948   1.436 -0.6907 -0.1585 -0.0998
  757MOL0     C 4348   8.250  10.973   1.373 -1.0812 -0.3682 -0.6217
  757MOL0     C 4349   8.244  11.039   1.235 -0.2997  0.0647 -0.3473
  757MOL0     C 4350   8.368  11.012   1.148  1.1875 -0.0210 -0.4219
  757MOL0     C 4351   8.317  11.042   1.004 -0.0996  0.2329  0.6443
  757MOL0     O 4352   8.416  11.036   0.899 -0.4219  0.0632 -0.1955
  757MOL0     C 4353   8.504  10.933   0.869 -0.2742 -0.0893 -0.2396
  757MOL0     C 4354   8.468  10.797   0.879 -0.6461  0.4898  0.2479
  757MOL0     C 4355   8.576  10.698   0.875 -0.0297  0.6733  0.3281
  757MOL0     C 4356   8.546  10.552   0.914  0.2757  0.5634 -0.3957
  757MOL0     C 4357   8.704  10.734   0.822  0.4114  0.7862 -0.1811
  757MOL0     C 4358   8.814  10.636   0.824  0.1235 -0.1757  0.1623
  757MOL0     O 4359   8.910  10.670   0.917 -0.5898  0.6373 -0.7162
  757MOL0     C 4360   9.033  10.619   0.904  0.1268 -0.7518 -0.7148
  757MOL0     C 4361   9.118  10.672   0.809 -0.2828  1.2109  0.1255
  757MOL0     C 4362   9.244  10.615   0.807  0.7046  0.1953 -0.1328
  757MOL0     C 4363   9.294  10.526   0.902  0.5094  0.8569  0.8510
  757MOL0     O 4364   9.426  10.496   0.908  0.3785  0.1212 -0.3189
  757MOL0     C 4365   9.460  10.364   0.945  0.1452  0.2576 -0.1766
  757MOL0     C 4366   9.611  10.366   0.970 -0.1504 -0.6815  0.2624
  757MOL0     C 4367   9.689  10.228   0.961  0.2114 -0.3363 -0.5895
  757MOL0     C 4368   9.821  10.238   1.040 -0.1268 -0.1886 -0.9496
  757MOL0     C 4369   9.910  10.115   1.018  0.6237 -1.0555  0.6135
  757MOL0     C 4370  10.058  10.145   1.018  0.9454  0.6672 -0.5616
  757MOL0     C 4371  10.120  10.189   1.155 -0.3124 -0.0340  0.4888
  757MOL0     C 4372  10.273  10.204   1.149  0.0714 -0.0961  0.2485
  757MOL0    Cl 4373  10.315  10.318   1.020 -0.4790 -0.0547  0.0050
  757MOL0     C 4374   9.205  10.485   1.001  0.8802 -0.3210 -0.6001
  757MOL0     C 4375   9.077  10.533   1.001 -0.2800  0.5350  0.3835
  757MOL0     O 4376   8.812  10.535   0.757  0.4336  0.6289  0.1094
  757MOL0     C 4377   8.733  10.874   0.798  0.1689  0.0560  0.5640
  757MOL0     C 4378   8.633  10.975   0.826 -0.0013 -0.3284 -0.0140
  757MOL0     N 4379   8.077  10.816   1.470 -0.1569 -0.5012  0.1368
  757MOL0     N 4380   7.963  10.829   1.529  0.2616 -0.0848  0.0150
  757MOL0     C 4381   7.405  10.477   2.477 -0.1154 -1.1620  0.0749
  757MOL0     C 4382   7.434  10.442   2.607 -0.1184  0.5938 -0.8971
  757MOL0     C 4383   7.599  10.334   2.988  0.2050  1.5333 -1.0530
  757MOL0     C 4384   7.519  10.385   3.094  0.2280 -1.0189 -0.1043
  757MOL0     C 4385   7.497  10.318   3.210  0.0089  0.3476 -0.5714
  757MOL0     C 4386   7.576  10.211   3.248 -0.9624 -0.8359  0.2172
  757MOL0     O 4387   7.586  10.168   3.373 -0.3821  0.4880 -0.1730
  757MOL0     C 4388   7.483  10.196   3.481  0.1155  0.1283  0.8377
  757MOL0     C 4389   7.354  10.120   3.457  0.5793 -0.1147  0.1956
  757MOL0     C 4390   7.338   9.968   3.487 -0.2798  0.4986  1.0172
  757MOL0     C 4391   7.390   9.913   3.632  0.5774  0.0106  0.6917
  757MOL0     C 4392   7.344  10.007   3.742 -1.1747  0.0872 -0.4746
  757MOL0     C 4393   7.319  10.077   3.839 -0.3117 -0.2431 -0.6408
  757MOL0     C 4394   7.670  10.167   3.151 -0.0931 -0.3844 -0.3080
  757MOL0     C 4395   7.660  10.214   3.023 -0.2394 -1.2369 -0.2406
  757MOL0     C 4396   7.729  10.121   2.922 -0.1348 -0.1745 -0.1505
  757MOL0     H 4397   7.521  10.737   2.728 -1.8349  1.3021  0.0799
  757MOL0     H 4398   7.490  10.812   2.511 -0.8856  0.8219 -1.9619
  757MOL0     H 4399   7.474  10.842   2.302 -1.5226 -2.5887  6.5485
  757MOL0     H 4400   7.484  10.763   2.142  0.8109  0.1975  0.4487
  757MOL0     H 4401   7.698  10.738   2.359 -3.5138  0.1453  1.0605
  757MOL0     H 4402   7.673  10.607   2.241  3.3497  0.2990  2.3371
  757MOL0     H 4403   7.697  10.911   2.194 -0.9595  0.4729 -1.0818
  757MOL0     H 4404   7.841  10.801   2.206  1.3550  3.7643 -3.2137
  757MOL0     H 4405   7.765  10.672   2.024 -1.1236 -0.9420  0.9095
  757MOL0     H 4406   7.626  10.792   2.004 -1.1316  1.2650  2.5494
  757MOL0     H 4407   7.914  10.840   1.969 -1.0887 -2.8028 -0.0542
  757MOL0     H 4408   7.809  10.975   1.996 -4.2677  1.7295 -3.1212
  757MOL0     H 4409   7.812  10.791   1.750 -2.7209  0.0141 -1.3089
  757MOL0     H 4410   7.666  10.865   1.815 -0.9659 -0.9020  0.7077
  757MOL0     H 4411   7.923  11.030   1.766 -1.0838  0.8889  3.4514
  757MOL0     H 4412   7.755  11.087   1.779 -0.0829  0.2926 -2.7298
  757MOL0     H 4413   7.706  10.934   1.555  0.6567  0.2499 -2.9132
  757MOL0     H 4414   7.756  11.087   1.541  0.9901  1.5989  1.6535
  757MOL0     H 4415   8.026  11.145   1.454 -3.0246  0.8980  2.1299
  757MOL0     H 4416   8.317  10.886   1.374  1.7237  1.6509  0.2730
  757MOL0     H 4417   8.303  11.039   1.442 -0.6646 -2.8407  1.6032
  757MOL0     H 4418   8.157  10.995   1.184  0.3476 -1.0609 -0.5301
  757MOL0     H 4419   8.230  11.145   1.254  0.5706 -0.1904  2.1346
  757MOL0     H 4420   8.444  11.082   1.184  1.8871  0.1535 -2.1333
  757MOL0     H 4421   8.400  10.907   1.149  2.1465  0.2574  0.7049
  757MOL0     H 4422   8.229  10.985   0.971 -0.7244  1.5099  0.0339
  757MOL0     H 4423   8.289  11.147   1.013  0.3108  0.2980  1.1632
  757MOL0     H 4424   8.374  10.785   0.930 -0.1959  1.9128  1.4996
  757MOL0     H 4425   8.588  10.531   1.012 -0.7400 -0.3294 -0.1277
  757MOL0     H 4426   8.595  10.480   0.848  1.5881 -0.1751  1.3255
  757MOL0     H 4427   8.439  10.528   0.910  0.9396 -3.5462  1.0948
  757MOL0     H 4428   9.075  10.741   0.736 -4.0743 -1.4318 -0.4604
  757MOL0     H 4429   9.318  10.645   0.733  0.9013  2.0315  0.7630
  757MOL0     H 4430   9.419  10.333   1.041  0.2183  1.3580  0.2222
  757MOL0     H 4431   9.440  10.290   0.867  3.9364 -1.3377  0.1689
  757MOL0     H 4432   9.653  10.451   0.915 -1.0581 -0.1125  0.4179
  757MOL0     H 4433   9.607  10.391   1.076  2.4072  1.7765 -0.0965
  757MOL0     H 4434   9.699  10.208   0.854  1.9548  1.8321 -0.8931
  757MOL0     H 4435   9.630  10.140   0.990  3.0349 -3.6759 -3.8473
  757MOL0     H 4436   9.798  10.244   1.147  0.0970 -2.3090 -0.7322
  757MOL0     H 4437   9.870  10.332   1.014 -0.3432  0.2483  0.1543
  757MOL0     H 4438   9.884  10.046   1.100 -1.8010  0.4841  1.2350
  757MOL0     H 4439   9.898  10.063   0.922  2.5735  1.3719 -1.0543
  757MOL0     H 4440  10.085  10.218   0.940  3.3132  1.3873  0.8426
  757MOL0     H 4441  10.110  10.055   0.982  0.9157  0.7669 -0.8568
  757MOL0     H 4442  10.087  10.119   1.232  0.5694 -1.5212 -0.4368
  757MOL0     H 4443  10.073  10.285   1.179 -1.2962 -0.2067 -0.6471
  757MOL0     H 4444  10.334  10.117   1.125 -0.6586  0.0802 -2.6545
  757MOL0     H 4445  10.297  10.249   1.245 -0.6303  1.7983 -0.4187
  757MOL0     H 4446   9.241  10.415   1.075  1.0908  0.2214 -0.1786
  757MOL0     H 4447   9.012  10.495   1.080 -2.0609 -1.1628 -1.7498
  757MOL0     H 4448   8.829  10.894   0.751 -0.7392 -2.0641 -2.4938
  757MOL0     H 4449   8.634  11.083   0.816 -5.3576  0.4648  3.8110
  757MOL0     H 4450   7.373  10.401   2.407  0.8354 -5.3576  3.7480
  757MOL0     H 4451   7.432  10.338   2.636 -1.9476  0.5774 -0.9919
  757MOL0     H 4452   7.476  10.480   3.063 -0.1278 -1.1091  0.1054
  757MOL0     H 4453   7.426  10.362   3.280  1.9779  0.6109  1.3764
  757MOL0     H 4454   7.538  10.189   3.575  1.7085  5.1167  0.5280
  757MOL0     H 4455   7.451  10.300   3.474  1.0171  0.2924 -2.8172
  757MOL0     H 4456   7.325  10.112   3.352  1.3098 -1.9760  0.0825
  757MOL0     H 4457   7.277  10.177   3.510  1.8065  1.9524 -0.1691
  757MOL0     H 4458   7.232   9.944   3.478 -0.5063  1.9157 -0.7192
  757MOL0     H 4459   7.405   9.908   3.425  1.6389  0.7263  2.7549
  757MOL0     H 4460   7.496   9.888   3.624  0.3151 -1.2165  0.9198
  757MOL0     H 4461   7.332   9.824   3.655 -2.2118  1.7241  0.6978
  757MOL0     H 4462   7.287  10.126   3.929  2.1723  0.5282 -0.1100
  757MOL0     H 4463   7.740  10.093   3.186  0.1842 -1.4319 -2.8211
  757MOL0     H 4464   7.828  10.162   2.900 -0.7098  0.8831 -0.8494
  757MOL0     H 4465   7.735  10.015   2.949  4.2886 -0.8589 -2.8271
  757MOL0     H 4466   7.668  10.120   2.832  0.1490  0.6690 -0.3601
  758MOL0     O 4467   8.068  10.919   2.170 -0.2118  0.1856 -0.2091
  758MOL0     C 4468   8.175  10.893   2.231  0.5363 -0.0098 -0.0656
  758MOL0     O 4469   8.208  10.773   2.272  0.5422  0.8398  0.2391
  758MOL0     C 4470   8.124  10.671   2.237  0.2915  0.3173 -0.2273
  758MOL0     C 4471   8.104  10.574   2.341 -0.8675  0.0422  0.0814
  758MOL0     C 4472   8.022  10.463   2.318 -0.1636 -0.0472  0.6693
  758MOL0     C 4473   7.968  10.442   2.190  0.7001  0.2271 -0.2923
  758MOL0     O 4474   7.876  10.347   2.170 -0.5557 -0.2107  0.2532
  758MOL0     C 4475   7.885  10.255   2.059  0.0005  0.0744  0.6957
  758MOL0     C 4476   8.009  10.164   2.062 -0.4294  1.2578 -0.8447
  758MOL0     C 4477   8.015  10.084   2.195  0.8026  0.5619  0.0758
  758MOL0     C 4478   8.142  10.019   2.243  0.7442 -0.3684  0.4581
  758MOL0     C 4479   8.242  10.110   2.308 -0.9497 -0.3307  0.0616
  758MOL0     C 4480   8.197  10.145   2.456 -0.5024  0.2298  0.1348
  758MOL0     C 4481   8.308  10.216   2.530 -0.6713 -0.8422  0.1424
  758MOL0     C 4482   8.263  10.274   2.664 -0.0414 -0.3184  0.1533
  758MOL0     N 4483   8.253  10.169   2.766 -0.4072  1.0727  0.2032
  758MOL0     C 4484   8.141  10.127   2.832 -0.0165 -0.1912 -0.3113
  758MOL0     C 4485   8.192  10.059   2.942  0.4460  0.2691 -0.1800
  758MOL0     C 4486   8.109  10.001   3.055 -0.9109 -0.3582  0.5415
  758MOL0     C 4487   8.035  10.102   3.147 -0.2061  1.1093  0.4301
  758MOL0     C 4488   8.129  10.188   3.233 -0.1848 -0.5396 -0.0520
  758MOL0     C 4489   8.271  10.143   3.274  0.1190  0.4794  1.5159
  758MOL0     O 4490   8.267  10.011   3.346 -0.3026 -0.9743  1.1210
  758MOL0     C 4491   8.389   9.959   3.396  1.5334  0.4606 -0.6494
  758MOL0     C 4492   8.516  10.022   3.400 -0.3127 -0.0750 -0.5096
  758MOL0     C 4493   8.627   9.956   3.452 -0.0997  0.3118  0.1948
  758MOL0     C 4494   8.763  10.029   3.439  0.3996 -0.3943 -0.0011
  758MOL0     C 4495   8.615   9.828   3.506 -0.0611  0.5303 -0.0191
  758MOL0     C 4496   8.725   9.740   3.563  0.4459  0.1842 -0.0173
  758MOL0     O 4497   8.690   9.635   3.642  1.0118  0.5332 -0.1235
  758MOL0     C 4498   8.780   9.540   3.690  0.1604 -0.0657 -1.0642
  758MOL0     C 4499   8.743   9.450   3.790  0.8763 -0.3713 -0.3723
  758MOL0     C 4500   8.830   9.360   3.852 -0.4884  0.2117  0.3071
  758MOL0     C 4501   8.968   9.362   3.815  0.0933 -0.2617  0.3265
  758MOL0     O 4502   9.066   9.296   3.887 -0.1294 -0.6057  0.2202
  758MOL0     C 4503   9.036   9.204   3.989  0.7319  0.4810  0.6607
  758MOL0     C 4504   9.147   9.121   4.055 -0.5987  0.0959  0.1071
  758MOL0     C 4505   9.261   9.092   3.949 -0.2801  0.7293 -0.3785
  758MOL0     C 4506   9.226   9.011   3.826 -0.2655  0.0749  0.4174
  758MOL0     C 4507   9.312   9.048   3.707 -0.1214  0.1381  0.1991
  758MOL0     C 4508   9.329   8.929   3.612 -0.0423  0.4632  0.3711
  758MOL0     C 4509   9.204   8.847   3.572 -0.4058  0.9254  0.1779
  758MOL0     C 4510   9.088   8.932   3.512 -0.1027 -0.0909  0.5827
  758MOL0    Cl 4511   9.150   9.033   3.388  0.1400  0.3481  0.0918
  758MOL0     C 4512   9.004   9.443   3.704  0.7578  0.6032 -0.6126
  758MOL0     C 4513   8.914   9.526   3.640  0.0581 -0.4806  0.0370
  758MOL0     O 4514   8.840   9.779   3.535 -0.2346  0.1328 -0.1370
  758MOL0     C 4515   8.492   9.764   3.501  0.0858 -0.2478  0.7197
  758MOL0     C 4516   8.376   9.819   3.445  0.6280  1.9983 -0.2101
  758MOL0     N 4517   8.332  10.063   2.938 -0.1177  0.0792  0.5111
  758MOL0     N 4518   8.367  10.120   2.830 -0.3477 -0.1894  0.8978
  758MOL0     C 4519   8.002  10.519   2.083  0.6688 -0.2865 -0.1052
  758MOL0     C 4520   8.084  10.637   2.108  0.3424 -0.9261  0.3398
  758MOL0     C 4521   8.275  10.993   2.247  0.6282  0.0823 -1.0360
  758MOL0     C 4522   8.383  10.963   2.329 -0.3864  0.1512 -0.3727
  758MOL0     C 4523   8.474  11.064   2.372 -0.1077  0.2765 -0.2686
  758MOL0     C 4524   8.457  11.191   2.341  0.4566  1.1023  0.4192
  758MOL0     O 4525   8.532  11.297   2.380  0.0394  0.2592 -0.6785
  758MOL0     C 4526   8.635  11.321   2.282  0.3350 -0.1373 -0.1186
  758MOL0     C 4527   8.692  11.458   2.338 -0.5612  0.2136  1.2095
  758MOL0     C 4528   8.594  11.574   2.298 -0.5639 -0.7547  0.2928
  758MOL0     C 4529   8.661  11.711   2.295 -0.6354 -0.6139 -0.0278
  758MOL0     C 4530   8.714  11.763   2.425 -0.8060  0.9623  0.8418
  758MOL0     C 4531   8.778  11.803   2.520 -0.1489  0.3747 -0.5130
  758MOL0     C 4532   8.350  11.219   2.254 -0.3265 -0.7909 -0.3060
  758MOL0     C 4533   8.260  11.124   2.204  0.2578  0.4431  1.5839
  758MOL0     C 4534   8.153  11.178   2.103 -0.3526  0.2234  0.7424
  758MOL0     H 4535   8.151  10.584   2.439  0.9164 -3.5230 -0.2412
  758MOL0     H 4536   8.002  10.406   2.408 -2.0281 -1.5322 -0.6087
  758MOL0     H 4537   7.891  10.299   1.959 -2.6095 -3.5045 -1.3113
  758MOL0     H 4538   7.795  10.192   2.061 -1.4091  1.9406 -0.5295
  758MOL0     H 4539   8.011  10.110   1.968 -0.8234 -1.1661  0.4636
  758MOL0     H 4540   8.105  10.215   2.067 -0.3165  0.9249  1.1903
  758MOL0     H 4541   7.967  10.135   2.280  0.7858  0.6547  0.0108
  758MOL0     H 4542   7.956   9.996   2.168  3.2148 -1.3585  0.6863
  758MOL0     H 4543   8.114   9.935   2.308  0.8956 -0.4142  0.4645
  758MOL0     H 4544   8.186   9.971   2.156  1.8114 -1.9015  1.7839
  758MOL0     H 4545   8.258  10.210   2.265  0.2046  0.0227  1.2387
  758MOL0     H 4546   8.339  10.061   2.318 -1.7206 -1.6706  1.4107
  758MOL0     H 4547   8.107  10.207   2.461  0.0127  1.0022 -0.0104
  758MOL0     H 4548   8.174  10.051   2.506 -1.8552  0.1043 -0.6809
  758MOL0     H 4549   8.342  10.300   2.469 -0.6482 -1.3760 -0.6020
  758MOL0     H 4550   8.399  10.155   2.539  1.2079  1.7027 -0.4570
  758MOL0     H 4551   8.335  10.349   2.699  0.0847  0.3688 -1.4771
  758MOL0     H 4552   8.168  10.329   2.663  0.5608  0.7527 -0.3770
  758MOL0     H 4553   8.038  10.147   2.801 -0.1513  0.6293  0.6282
  758MOL0     H 4554   8.170   9.936   3.117  0.3821 -1.3354 -1.6471
  758MOL0     H 4555   8.035   9.936   3.006  0.7429 -0.8875 -1.3849
  758MOL0     H 4556   7.970  10.157   3.079 -2.6889 -2.4465 -0.3599
  758MOL0     H 4557   7.968  10.053   3.219  0.3303 -0.5723 -0.1773
  758MOL0     H 4558   8.145  10.282   3.180  0.9769 -0.7051 -0.0178
  758MOL0     H 4559   8.067  10.207   3.321 -1.7134  2.8187 -1.6902
  758MOL0     H 4560   8.324  10.116   3.182 -2.4475 -0.0012  0.0832
  758MOL0     H 4561   8.323  10.223   3.328 -2.7177  1.2787  3.2685
  758MOL0     H 4562   8.530  10.122   3.359  3.3034  0.0994  0.7799
  758MOL0     H 4563   8.743  10.115   3.375 -1.3088  0.0461  1.0333
  758MOL0     H 4564   8.833   9.961   3.390  0.4735 -0.5985  0.3817
  758MOL0     H 4565   8.799  10.068   3.535  0.3749  1.1467 -0.5909
  758MOL0     H 4566   8.643   9.436   3.829  0.5891 -2.8150 -1.8292
  758MOL0     H 4567   8.797   9.278   3.916  0.5178 -1.5301 -1.3078
  758MOL0     H 4568   8.999   9.267   4.070 -0.9745  2.5948 -1.5838
  758MOL0     H 4569   8.958   9.136   3.954  2.4015 -0.7042 -0.9398
  758MOL0     H 4570   9.191   9.187   4.130  3.2336 -0.5319 -1.3237
  758MOL0     H 4571   9.114   9.026   4.099  1.7097 -1.7023 -1.7752
  758MOL0     H 4572   9.344   9.038   3.993 -2.4162 -0.9127  1.9369
  758MOL0     H 4573   9.297   9.191   3.921 -4.5362  2.2303 -1.4176
  758MOL0     H 4574   9.121   9.035   3.808 -0.5455 -0.6705  0.9796
  758MOL0     H 4575   9.231   8.904   3.846 -1.2607  0.1447  1.1013
  758MOL0     H 4576   9.271   9.137   3.659  1.6737  2.7889  3.2593
  758MOL0     H 4577   9.410   9.084   3.738  0.3800 -2.1379  1.5426
  758MOL0     H 4578   9.402   8.871   3.669 -0.8881  0.5822  1.6152
  758MOL0     H 4579   9.364   8.958   3.513 -1.3112 -0.6033 -0.4344
  758MOL0     H 4580   9.167   8.793   3.660 -1.4174 -1.5708 -1.6568
  758MOL0     H 4581   9.241   8.771   3.503 -1.0567  0.7887 -0.0302
  758MOL0     H 4582   9.035   8.992   3.586  0.2644 -1.5446  2.0964
  758MOL0     H 4583   9.008   8.868   3.474  1.3973 -1.4529 -0.4615
  758MOL0     H 4584   9.109   9.445   3.677  0.8703 -0.1604 -0.2609
  758MOL0     H 4585   8.949   9.568   3.547 -0.5309  2.2924  0.9600
  758MOL0     H 4586   8.478   9.661   3.531 -1.4815  0.0854  1.2039
  758MOL0     H 4587   8.278   9.773   3.449  1.3830  0.1996 -1.4591
  758MOL0     H 4588   7.956  10.517   1.985  0.3752 -1.1761  0.0362
  758MOL0     H 4589   8.101  10.699   2.020 -2.7586  3.3052  2.3483
  758MOL0     H 4590   8.388  10.857   2.349  0.2558  0.1186 -0.6604
  758MOL0     H 4591   8.562  11.031   2.427 -0.2374 -1.5646 -1.0834
  758MOL0     H 4592   8.716  11.248   2.277 -0.7549 -1.6912  2.7289
  758MOL0     H 4593   8.601  11.339   2.180 -1.5196  1.4375  0.6887
  758MOL0     H 4594   8.790  11.462   2.290 -1.6494 -0.9705 -1.2516
  758MOL0     H 4595   8.711  11.442   2.445  0.5246 -3.4746  0.6127
  758MOL0     H 4596   8.551  11.559   2.199 -1.5492 -2.5575  0.9507
  758MOL0     H 4597   8.504  11.576   2.361 -1.0032  0.5340 -0.3266
  758MOL0     H 4598   8.595  11.790   2.258  1.1264  1.8694  1.7667
  758MOL0     H 4599   8.746  11.702   2.226 -2.0665 -2.4417 -1.6678
  758MOL0     H 4600   8.841  11.816   2.605  2.3730 -1.1912 -1.9887
  758MOL0     H 4601   8.353  11.324   2.226 -1.7231 -0.4234  0.8185
  758MOL0     H 4602   8.182  11.138   2.006  0.7422 -0.2496  1.2487
  758MOL0     H 4603   8.053  11.143   2.131 -0.9673 -1.0395 -2.5344
  758MOL0     H 4604   8.152  11.287   2.097 -0.1839  0.2332  0.8719
  759MOL0     O 4605   8.193   6.463   7.403  0.4369  0.3198  0.3164
  759MOL0     C 4606   8.201   6.396   7.504  0.9349  0.1029 -0.6726
  759MOL0     O 4607   8.167   6.269   7.522 -0.5323  1.0523 -0.0266
  759MOL0     C 4608   8.098   6.209   7.425  0.6120  0.3151 -0.1423
  759MOL0     C 4609   7.967   6.231   7.430 -0.1847  0.7487 -0.2048
  759MOL0     C 4610   7.883   6.170   7.338 -0.3710  0.3079  0.4890
  759MOL0     C 4611   7.929   6.086   7.241 -0.0817  0.4714  0.2042
  759MOL0     O 4612   7.834   6.018   7.162  0.1873  0.6122  0.1261
  759MOL0     C 4613   7.855   6.010   7.028  0.1335 -0.6241  0.3619
  759MOL0     C 4614   7.849   5.863   6.985 -0.0703  0.3494  1.0489
  759MOL0     C 4615   7.708   5.831   6.967  0.7680  0.6370 -0.1108
  759MOL0     C 4616   7.689   5.678   6.969  0.5627 -0.7960 -0.5354
  759MOL0     C 4617   7.541   5.642   6.954  0.1361  0.5246  0.0532
  759MOL0     C 4618   7.489   5.645   6.808  0.3882  0.9183  0.7258
  759MOL0     C 4619   7.355   5.571   6.781  0.0212  0.4543 -0.5571
  759MOL0     C 4620   7.360   5.417   6.792  0.5595  0.0569  0.0009
  759MOL0     N 4621   7.461   5.349   6.708  0.9814  0.3993  0.1116
  759MOL0     C 4622   7.573   5.278   6.750  0.7315 -0.3113  0.4612
  759MOL0     C 4623   7.631   5.238   6.639  0.6243 -0.2318 -0.1873
  759MOL0     C 4624   7.760   5.158   6.639  0.5946 -0.4432 -0.3792
  759MOL0     C 4625   7.858   5.194   6.536 -0.9834 -0.4743 -0.4385
  759MOL0     C 4626   7.986   5.104   6.551  0.3480 -0.0456  0.1191
  759MOL0     C 4627   7.943   4.958   6.552 -0.0595  0.1800 -0.5350
  759MOL0     O 4628   8.049   4.869   6.514  0.6789 -0.7612 -0.8692
  759MOL0     C 4629   8.056   4.812   6.394  0.4069  0.1285  0.4159
  759MOL0     C 4630   8.179   4.761   6.359  0.1609 -0.1640 -0.2982
  759MOL0     C 4631   8.201   4.704   6.231  0.1857 -0.3672  0.1125
  759MOL0     C 4632   8.350   4.661   6.213  0.3312 -0.2229 -0.6609
  759MOL0     C 4633   8.108   4.699   6.128 -0.3762  0.4285  0.0305
  759MOL0     C 4634   8.127   4.646   5.993 -0.5702 -0.4693 -0.6390
  759MOL0     O 4635   8.235   4.565   5.971  0.0779 -0.1340  0.1717
  759MOL0     C 4636   8.246   4.510   5.840  0.3045 -1.1984 -0.5998
  759MOL0     C 4637   8.127   4.447   5.797  0.1824 -0.3706 -0.5409
  759MOL0     C 4638   8.123   4.380   5.671  0.1071 -1.3465 -0.1287
  759MOL0     C 4639   8.237   4.370   5.596 -0.1999  0.7026 -0.7395
  759MOL0     O 4640   8.230   4.295   5.479  1.0031  1.3262 -0.1382
  759MOL0     C 4641   8.339   4.288   5.384  0.3614  1.0366  0.1284
  759MOL0     C 4642   8.276   4.220   5.255  0.1164 -0.2529 -0.7692
  759MOL0     C 4643   8.379   4.200   5.151 -0.9735 -0.5424 -0.6557
  759MOL0     C 4644   8.310   4.169   5.025  0.9250  0.6420  0.2473
  759MOL0     C 4645   8.403   4.125   4.908  0.8320  0.3648 -0.3869
  759MOL0     C 4646   8.489   4.244   4.863 -0.5428 -0.2904  0.2173
  759MOL0     C 4647   8.597   4.174   4.771 -0.3904 -0.0661 -0.0345
  759MOL0     C 4648   8.709   4.285   4.749 -0.7653 -0.0484  0.4515
  759MOL0    Cl 4649   8.640   4.435   4.678 -0.0224 -0.1415  0.2274
  759MOL0     C 4650   8.353   4.431   5.640 -0.6719  0.6843  0.6943
  759MOL0     C 4651   8.361   4.509   5.758  1.2924  0.4000  0.0380
  759MOL0     O 4652   8.053   4.689   5.905  0.8861 -0.0943 -0.1106
  759MOL0     C 4653   7.982   4.759   6.159 -0.4940  0.4870 -0.7535
  759MOL0     C 4654   7.954   4.807   6.292 -0.3668 -0.5634  0.2631
  759MOL0     N 4655   7.566   5.295   6.529  0.0898  0.1750  0.1309
  759MOL0     N 4656   7.471   5.362   6.572  0.5421 -0.3536 -0.1549
  759MOL0     C 4657   8.067   6.075   7.230  0.4510  0.0244 -1.0394
  759MOL0     C 4658   8.146   6.141   7.313  0.4534 -0.3655 -0.5369
  759MOL0     C 4659   8.254   6.463   7.629  0.2387  0.5926  0.8353
  759MOL0     C 4660   8.384   6.436   7.676  0.1963 -0.7288  0.1503
  759MOL0     C 4661   8.452   6.522   7.764 -0.2975 -0.4648 -0.5000
  759MOL0     C 4662   8.398   6.638   7.813 -0.1510  0.0885  0.3434
  759MOL0     O 4663   8.485   6.723   7.879  0.4590 -0.4938  0.0956
  759MOL0     C 4664   8.422   6.828   7.958 -0.2732 -1.0969  0.3156
  759MOL0     C 4665   8.520   6.922   8.041 -0.0751 -0.4318  0.9048
  759MOL0     C 4666   8.594   7.024   7.954 -0.3032  1.2448  0.8675
  759MOL0     C 4667   8.721   6.956   7.887 -0.8340 -0.8055 -0.1691
  759MOL0     C 4668   8.815   6.905   7.988 -0.0265 -0.3316 -0.3213
  759MOL0     C 4669   8.899   6.881   8.070  0.2416 -1.1623 -0.8205
  759MOL0     C 4670   8.267   6.665   7.761  0.2542 -0.4000 -0.8451
  759MOL0     C 4671   8.194   6.575   7.677  0.2161 -1.1183  0.2214
  759MOL0     C 4672   8.065   6.636   7.633  0.6981  0.9691  0.9748
  759MOL0     H 4673   7.916   6.293   7.503  0.0958 -1.1980  1.7314
  759MOL0     H 4674   7.777   6.188   7.350 -1.4025 -4.5531  0.6650
  759MOL0     H 4675   7.952   6.050   6.997  0.1939 -1.6295 -0.7819
  759MOL0     H 4676   7.788   6.079   6.975  0.8049 -0.0716  0.2174
  759MOL0     H 4677   7.889   5.858   6.883 -2.8649  0.3302 -0.1249
  759MOL0     H 4678   7.903   5.803   7.058 -1.6199  0.0251  1.9734
  759MOL0     H 4679   7.657   5.882   7.049  2.8293  1.9098  0.4287
  759MOL0     H 4680   7.682   5.861   6.865  2.3880 -2.2413 -1.5047
  759MOL0     H 4681   7.742   5.635   6.884 -2.1351 -1.7094 -1.8832
  759MOL0     H 4682   7.729   5.625   7.056  0.0570 -2.2241 -1.1326
  759MOL0     H 4683   7.469   5.705   7.006 -2.8088 -0.7818 -2.1043
  759MOL0     H 4684   7.530   5.538   6.985 -0.8494  0.3658 -0.7565
  759MOL0     H 4685   7.473   5.749   6.778 -1.0655 -0.1322 -2.7513
  759MOL0     H 4686   7.564   5.603   6.741 -1.4443 -1.5827  0.0673
  759MOL0     H 4687   7.325   5.590   6.677 -2.1221 -2.9849 -0.7170
  759MOL0     H 4688   7.271   5.613   6.837 -1.2062 -0.4231 -1.6774
  759MOL0     H 4689   7.392   5.401   6.896  2.0908 -0.7549 -0.5707
  759MOL0     H 4690   7.262   5.375   6.769  2.3629 -3.2586 -2.5095
  759MOL0     H 4691   7.598   5.265   6.854  0.5343  0.7985  0.6684
  759MOL0     H 4692   7.728   5.053   6.643  1.6195 -0.7420  2.8329
  759MOL0     H 4693   7.810   5.163   6.736  1.6088  0.4616 -0.9334
  759MOL0     H 4694   7.816   5.167   6.439 -2.5776 -0.6718  0.2752
  759MOL0     H 4695   7.884   5.301   6.539 -0.3147 -0.4056 -4.2805
  759MOL0     H 4696   8.057   5.129   6.472  0.7380 -1.7435 -0.0919
  759MOL0     H 4697   8.033   5.133   6.645  0.0350 -0.4222  0.3938
  759MOL0     H 4698   7.907   4.921   6.648 -0.5685  1.3732 -0.2338
  759MOL0     H 4699   7.862   4.958   6.477  0.3253  0.4253 -0.9578
  759MOL0     H 4700   8.257   4.745   6.433 -1.2287  1.1189  1.5611
  759MOL0     H 4701   8.385   4.728   6.134 -0.6727 -2.4175 -3.1225
  759MOL0     H 4702   8.359   4.553   6.193  2.6604 -0.8794  2.7965
  759MOL0     H 4703   8.417   4.671   6.300 -0.4229  1.0153 -0.1989
  759MOL0     H 4704   8.036   4.442   5.856  1.0053  1.2515  0.9500
  759MOL0     H 4705   8.035   4.334   5.629 -0.0982  0.1641 -1.4564
  759MOL0     H 4706   8.388   4.380   5.350 -2.8993  1.8801 -2.9500
  759MOL0     H 4707   8.415   4.222   5.427  0.3458  1.0425  0.1646
  759MOL0     H 4708   8.236   4.120   5.272 -1.7468  0.0906 -2.6891
  759MOL0     H 4709   8.207   4.295   5.214 -0.1681 -0.5742 -0.8845
  759MOL0     H 4710   8.441   4.113   5.172 -2.6611 -1.7647 -0.4833
  759MOL0     H 4711   8.433   4.295   5.142 -3.1245  1.0879  1.9123
  759MOL0     H 4712   8.244   4.245   4.982  1.2723  0.6371 -0.3199
  759MOL0     H 4713   8.246   4.081   5.033  0.7013  0.8548  0.8009
  759MOL0     H 4714   8.458   4.042   4.952  0.9241  1.5421  1.8334
  759MOL0     H 4715   8.343   4.092   4.823 -0.3106  1.8560 -0.1938
  759MOL0     H 4716   8.539   4.296   4.945 -0.7069 -0.7581  0.6142
  759MOL0     H 4717   8.422   4.312   4.809 -1.3901 -1.2468  0.0276
  759MOL0     H 4718   8.548   4.143   4.679 -2.3378 -3.0875  1.8536
  759MOL0     H 4719   8.636   4.086   4.822  0.6552  0.7033  0.5329
  759MOL0     H 4720   8.782   4.248   4.677  0.0402 -2.1771  2.2157
  759MOL0     H 4721   8.764   4.304   4.842 -0.5758 -0.5477  0.4462
  759MOL0     H 4722   8.441   4.431   5.576 -0.5857 -2.0429  0.6640
  759MOL0     H 4723   8.446   4.566   5.792  1.5363 -0.7529  1.4377
  759MOL0     H 4724   7.910   4.763   6.077 -1.3113 -1.9163 -0.2353
  759MOL0     H 4725   7.853   4.842   6.312  0.6808  3.2791 -0.2644
  759MOL0     H 4726   8.111   6.014   7.152  1.7694 -2.3302  1.3866
  759MOL0     H 4727   8.253   6.149   7.299  0.1729  1.3159 -2.0259
  759MOL0     H 4728   8.435   6.342   7.652  2.7174  1.0466 -2.0218
  759MOL0     H 4729   8.553   6.507   7.800 -0.9205 -1.7929  0.7570
  759MOL0     H 4730   8.365   6.891   7.889 -1.5126  1.1033  3.2016
  759MOL0     H 4731   8.354   6.787   8.033 -1.7035 -0.2399 -0.4754
  759MOL0     H 4732   8.578   6.858   8.108  0.2655  1.3517  2.3838
  759MOL0     H 4733   8.446   6.977   8.100  0.3920  2.1078 -0.7095
  759MOL0     H 4734   8.528   7.053   7.871 -0.0425  0.1017  0.2335
  759MOL0     H 4735   8.626   7.112   8.010 -0.7019  1.0463  1.4151
  759MOL0     H 4736   8.769   7.016   7.810  2.3649 -0.7927  1.6553
  759MOL0     H 4737   8.686   6.870   7.828  1.5663 -1.4023 -0.8020
  759MOL0     H 4738   8.960   6.863   8.156 -0.9300 -0.6151  0.1614
  759MOL0     H 4739   8.218   6.757   7.790  2.0819  0.6499 -0.9654
  759MOL0     H 4740   8.073   6.709   7.552 -0.8962 -1.2907 -1.3877
  759MOL0     H 4741   7.996   6.559   7.597  0.6050  2.8627 -3.5860
  759MOL0     H 4742   8.010   6.676   7.718  0.7064 -0.1316  1.5209
  760MOL0     O 4743   4.704   7.548   3.802 -0.8867 -0.0860  0.1710
  760MOL0     C 4744   4.747   7.653   3.857  1.1374  0.8416 -0.3997
  760MOL0     O 4745   4.709   7.778   3.825  0.0467  0.0561  0.9791
  760MOL0     C 4746   4.594   7.811   3.753  0.1418  0.0948  0.7962
  760MOL0     C 4747   4.517   7.731   3.665 -0.0032 -0.0499 -0.2187
  760MOL0     C 4748   4.411   7.772   3.597  0.0154  0.3490  0.0527
  760MOL0     C 4749   4.354   7.900   3.610 -0.0642 -0.2588  0.6632
  760MOL0     O 4750   4.239   7.939   3.562  1.1630 -0.5654 -0.0814
  760MOL0     C 4751   4.134   7.919   3.650  0.7880 -0.3717 -0.5564
  760MOL0     C 4752   3.999   7.947   3.582 -0.5118  0.7641  1.1791
  760MOL0     C 4753   3.893   7.946   3.693  0.0539 -0.4583  0.2520
  760MOL0     C 4754   3.761   8.006   3.633  0.3000 -0.1043  0.8294
  760MOL0     C 4755   3.667   7.891   3.571 -0.7023 -0.8457 -0.1269
  760MOL0     C 4756   3.578   7.834   3.684 -0.6582  0.3094 -0.3895
  760MOL0     C 4757   3.449   7.758   3.632 -0.3269  0.1930  0.8451
  760MOL0     C 4758   3.486   7.622   3.563 -0.3318  1.2283  0.1894
  760MOL0     N 4759   3.360   7.565   3.505  0.0295 -0.4870  0.9264
  760MOL0     C 4760   3.237   7.542   3.564  0.8365  0.1495  0.0313
  760MOL0     C 4761   3.170   7.497   3.459  0.1107  0.3307 -0.3268
  760MOL0     C 4762   3.021   7.487   3.448  0.4615 -0.4277  0.6279
  760MOL0     C 4763   2.972   7.336   3.440 -0.1641  0.0814 -0.6306
  760MOL0     C 4764   3.002   7.280   3.311 -0.1474 -0.1611  0.6837
  760MOL0     C 4765   2.899   7.172   3.276  0.0392  0.7678 -0.2937
  760MOL0     O 4766   2.857   7.158   3.136 -0.3662 -0.6873 -0.0828
  760MOL0     C 4767   2.827   7.029   3.100  0.7392  0.9578 -0.3058
  760MOL0     C 4768   2.833   6.906   3.180 -0.5881  0.2444  0.1204
  760MOL0     C 4769   2.799   6.788   3.117 -0.9477 -0.1482  0.5402
  760MOL0     C 4770   2.800   6.672   3.211 -0.7865  0.0251 -0.2309
  760MOL0     C 4771   2.768   6.767   2.984  0.3397  0.1763 -0.3382
  760MOL0     C 4772   2.739   6.639   2.916  0.2069  0.4836  0.9011
  760MOL0     O 4773   2.659   6.648   2.803 -0.2658  0.0626  0.3563
  760MOL0     C 4774   2.632   6.528   2.740  0.5155  0.6378  0.8138
  760MOL0     C 4775   2.546   6.436   2.789 -0.1126 -0.2412  0.5098
  760MOL0     C 4776   2.519   6.315   2.720 -0.1188 -0.9379  0.5112
  760MOL0     C 4777   2.574   6.299   2.596  0.0513  0.0981 -0.0923
  760MOL0     O 4778   2.541   6.203   2.504  0.2586 -0.3276 -0.1653
  760MOL0     C 4779   2.429   6.119   2.512 -0.5266 -0.0919  0.4086
  760MOL0     C 4780   2.431   6.037   2.376 -0.4361 -0.5024 -0.5062
  760MOL0     C 4781   2.306   5.954   2.363  0.1595 -0.5595 -0.0543
  760MOL0     C 4782   2.182   6.034   2.322  0.3541 -0.3570 -0.7275
  760MOL0     C 4783   2.183   6.093   2.192  0.4531 -0.3692 -0.7400
  760MOL0     C 4784   2.207   5.990   2.078 -0.3703 -0.1050  0.4810
  760MOL0     C 4785   2.181   6.044   1.943 -0.3481 -0.1368  0.4611
  760MOL0     C 4786   2.288   6.124   1.878  0.0160 -0.8099 -0.8693
  760MOL0    Cl 4787   2.429   6.008   1.840  0.0659  0.5061 -0.3140
  760MOL0     C 4788   2.676   6.383   2.546 -0.2553  0.8440  0.9690
  760MOL0     C 4789   2.694   6.505   2.619 -0.0503 -0.0959 -0.3781
  760MOL0     O 4790   2.782   6.535   2.966  0.1469  0.1341 -0.0662
  760MOL0     C 4791   2.755   6.893   2.914 -0.3890 -0.5105  0.4042
  760MOL0     C 4792   2.791   7.017   2.972 -0.4746 -1.0497 -0.2121
  760MOL0     N 4793   3.244   7.489   3.345 -0.2122  0.0375 -0.5340
  760MOL0     N 4794   3.366   7.510   3.388  0.0993 -1.1184 -0.0702
  760MOL0     C 4795   4.424   7.986   3.692  0.2252  0.9444 -0.7057
  760MOL0     C 4796   4.546   7.942   3.757 -0.3258  0.2533 -0.8263
  760MOL0     C 4797   4.825   7.635   3.983 -0.1187  0.0532 -0.5094
  760MOL0     C 4798   4.888   7.514   4.000  0.3891  0.5781 -0.2542
  760MOL0     C 4799   4.967   7.490   4.123 -0.2284 -0.3709  0.1522
  760MOL0     C 4800   4.987   7.587   4.219  0.3272 -0.1828  0.3680
  760MOL0     O 4801   5.039   7.566   4.345 -0.0051  0.1551  0.4712
  760MOL0     C 4802   5.089   7.430   4.374 -1.1333 -0.0916 -0.0722
  760MOL0     C 4803   5.181   7.443   4.494 -0.9724 -0.1398  0.0533
  760MOL0     C 4804   5.310   7.531   4.470 -0.2258 -0.2952  0.2910
  760MOL0     C 4805   5.401   7.560   4.597  0.2782 -0.8924 -0.4402
  760MOL0     C 4806   5.451   7.439   4.654  0.6515 -0.0419  0.0223
  760MOL0     C 4807   5.487   7.329   4.691  0.6947  0.1425  0.2418
  760MOL0     C 4808   4.920   7.709   4.201 -0.3568 -0.6926 -0.5185
  760MOL0     C 4809   4.845   7.743   4.084  0.2283 -0.4246  0.1279
  760MOL0     C 4810   4.766   7.871   4.097 -0.0016 -0.8346  0.3411
  760MOL0     H 4811   4.560   7.634   3.640  0.0743 -0.2616  0.7008
  760MOL0     H 4812   4.356   7.698   3.541  1.6928 -0.3913 -0.6992
  760MOL0     H 4813   4.146   7.994   3.728 -1.1247 -1.0133  0.4148
  760MOL0     H 4814   4.134   7.813   3.678 -2.1998 -0.5203 -0.7728
  760MOL0     H 4815   4.003   8.039   3.523 -4.9049 -1.1834 -2.7582
  760MOL0     H 4816   3.971   7.866   3.513 -1.4645  0.7610  1.5583
  760MOL0     H 4817   3.876   7.846   3.734  5.4165 -0.5727  3.0696
  760MOL0     H 4818   3.912   8.000   3.787  0.2270 -3.6850  2.2106
  760MOL0     H 4819   3.700   8.069   3.698 -1.7472  0.4996 -1.5301
  760MOL0     H 4820   3.782   8.069   3.546  0.3115 -2.2707 -0.8114
  760MOL0     H 4821   3.725   7.817   3.514  2.9352  0.7719  1.1617
  760MOL0     H 4822   3.602   7.929   3.492  2.7876  1.6905 -2.0383
  760MOL0     H 4823   3.647   7.768   3.738  3.8170  3.7534 -1.2742
  760MOL0     H 4824   3.549   7.914   3.753  0.3126 -0.3339  0.8079
  760MOL0     H 4825   3.390   7.817   3.561  1.5361 -1.1096 -1.9559
  760MOL0     H 4826   3.400   7.735   3.727  1.4467 -0.5365  1.6247
  760MOL0     H 4827   3.568   7.637   3.492  1.5494  1.0033  2.2070
  760MOL0     H 4828   3.531   7.553   3.635  3.5582  0.7132 -2.4474
  760MOL0     H 4829   3.195   7.571   3.660 -2.5109 -1.1428 -0.8979
  760MOL0     H 4830   2.991   7.532   3.352 -1.8522 -4.3155 -0.6847
  760MOL0     H 4831   2.976   7.539   3.532  0.6391 -1.7328  1.5596
  760MOL0     H 4832   3.011   7.279   3.525 -2.5665 -0.9641 -0.1495
  760MOL0     H 4833   2.865   7.344   3.463  0.2021 -0.5904  1.5690
  760MOL0     H 4834   2.985   7.355   3.234  0.2322 -2.2107 -1.5022
  760MOL0     H 4835   3.104   7.242   3.309 -0.5782 -1.3307 -0.0009
  760MOL0     H 4836   2.948   7.081   3.311 -1.7097  0.2433  0.9460
  760MOL0     H 4837   2.809   7.174   3.338  1.0370  0.2934  1.2140
  760MOL0     H 4838   2.870   6.910   3.282 -1.7732 -1.7681  0.6876
  760MOL0     H 4839   2.716   6.604   3.195 -0.9695 -0.3082  1.8635
  760MOL0     H 4840   2.779   6.707   3.312 -4.6380 -0.0950 -0.8312
  760MOL0     H 4841   2.887   6.605   3.205 -0.8548  0.0442 -2.1204
  760MOL0     H 4842   2.505   6.445   2.890  0.2986 -0.8849  0.7384
  760MOL0     H 4843   2.438   6.258   2.764 -1.8909  1.9902  1.3640
  760MOL0     H 4844   2.446   6.040   2.585  0.9549 -1.9917 -1.8371
  760MOL0     H 4845   2.336   6.176   2.527 -1.3361 -1.5437  1.1057
  760MOL0     H 4846   2.447   6.103   2.290  5.1529 -1.1533 -0.3241
  760MOL0     H 4847   2.512   5.964   2.380 -1.3234 -1.4641  0.6385
  760MOL0     H 4848   2.300   5.892   2.453  1.0323  0.2731  0.6036
  760MOL0     H 4849   2.339   5.880   2.290  2.0839  0.7988 -0.6324
  760MOL0     H 4850   2.149   6.108   2.396  0.5416 -0.9540 -0.0301
  760MOL0     H 4851   2.099   5.962   2.325 -1.1989  1.3986  1.2626
  760MOL0     H 4852   2.083   6.137   2.189  0.7708  0.5760  1.3510
  760MOL0     H 4853   2.253   6.175   2.204 -2.0604  1.7010  0.9541
  760MOL0     H 4854   2.148   5.901   2.099  0.2516 -1.9723 -4.4287
  760MOL0     H 4855   2.311   5.956   2.084 -0.4175 -0.1047  1.7226
  760MOL0     H 4856   2.087   6.099   1.935 -0.6701 -0.8170 -0.6702
  760MOL0     H 4857   2.173   5.960   1.873 -0.7359  0.5830 -0.3799
  760MOL0     H 4858   2.324   6.196   1.952 -0.3557  0.0101 -1.4716
  760MOL0     H 4859   2.265   6.188   1.792  0.4288 -0.7269 -0.9217
  760MOL0     H 4860   2.731   6.356   2.457  2.5501  1.8933  2.2480
  760MOL0     H 4861   2.772   6.575   2.591  0.9270 -0.9105  0.2355
  760MOL0     H 4862   2.721   6.880   2.812 -0.6726 -2.2264  0.6715
  760MOL0     H 4863   2.790   7.114   2.922  1.8487 -1.0562 -0.3572
  760MOL0     H 4864   4.390   8.087   3.714 -1.0551  0.3341  0.2047
  760MOL0     H 4865   4.602   8.018   3.809  1.1438 -1.8460  0.8402
  760MOL0     H 4866   4.883   7.430   3.930  3.9150  1.1094 -1.3569
  760MOL0     H 4867   5.008   7.390   4.130  1.8205  0.3491 -0.9362
  760MOL0     H 4868   5.000   7.366   4.383 -2.6693  1.5192 -2.5774
  760MOL0     H 4869   5.149   7.388   4.293  1.0961  3.4833 -0.4753
  760MOL0     H 4870   5.206   7.344   4.532 -2.2578 -1.0204 -1.2965
  760MOL0     H 4871   5.122   7.487   4.575  1.1881 -0.6488  2.0242
  760MOL0     H 4872   5.365   7.469   4.399 -1.3888  0.1276 -1.0215
  760MOL0     H 4873   5.277   7.623   4.421 -1.3884 -0.0945  1.3777
  760MOL0     H 4874   5.338   7.623   4.660  2.1973  1.6384 -0.8757
  760MOL0     H 4875   5.484   7.623   4.562 -0.5354  0.1195 -0.5998
  760MOL0     H 4876   5.519   7.230   4.716  0.8974  0.5867  1.8172
  760MOL0     H 4877   4.933   7.779   4.283 -2.9766 -2.7482  1.8869
  760MOL0     H 4878   4.779   7.943   4.016 -2.3948  1.4882  1.8838
  760MOL0     H 4879   4.660   7.845   4.098 -0.3020  0.3505  0.8236
  760MOL0     H 4880   4.801   7.916   4.190  2.2951 -0.9093 -0.4302
  761MOL0     O 4881   3.049   5.216  11.126 -0.4853  0.2406  0.9760
  761MOL0     C 4882   3.007   5.107  11.130 -0.3785  0.2982 -0.3103
  761MOL0     O 4883   2.927   5.055  11.032  0.0312  0.3145 -1.1191
  761MOL0     C 4884   2.804   5.100  10.995  0.9868 -0.5064 -0.4833
  761MOL0     C 4885   2.732   5.011  10.918  0.2772  0.6337  0.0259
  761MOL0     C 4886   2.607   5.042  10.869 -0.0874  0.2603 -0.2552
  761MOL0     C 4887   2.545   5.168  10.904 -0.2196 -0.7769  0.7633
  761MOL0     O 4888   2.433   5.232  10.864  0.3323 -1.0176  0.2961
  761MOL0     C 4889   2.340   5.172  10.776  0.7520  0.2537 -0.5213
  761MOL0     C 4890   2.236   5.091  10.844  0.9712  0.1295  0.2196
  761MOL0     C 4891   2.148   5.174  10.940 -0.6037 -0.2062  0.1023
  761MOL0     C 4892   2.026   5.091  10.987  0.4139  0.1258  1.2365
  761MOL0     C 4893   1.940   5.070  10.864  0.7060 -0.0107  1.0238
  761MOL0     C 4894   1.781   5.056  10.893 -0.3433 -0.2779 -0.5699
  761MOL0     C 4895   1.748   4.975  11.022  0.7500  1.0002  0.3456
  761MOL0     C 4896   1.603   4.932  11.040 -0.6374 -0.7271  0.2412
  761MOL0     N 4897   1.517   5.051  11.016  1.5124  0.9190  0.1854
  761MOL0     C 4898   1.437   5.114  11.115  0.7971 -0.5820  0.2041
  761MOL0     C 4899   1.347   5.186  11.047  0.2901  0.1483  0.1879
  761MOL0     C 4900   1.241   5.276  11.109 -0.5967  0.2125  0.8417
  761MOL0     C 4901   1.104   5.216  11.114 -0.6846 -1.8307  0.3815
  761MOL0     C 4902   1.103   5.074  11.180 -0.4210 -0.5024 -0.3456
  761MOL0     C 4903   1.079   5.085  11.330 -0.2535 -0.2804 -0.1427
  761MOL0     O 4904   0.950   5.133  11.369  0.7197 -0.4232 -0.0640
  761MOL0     C 4905   0.945   5.194  11.491  0.5501  0.2499  0.2548
  761MOL0     C 4906   0.859   5.298  11.495  0.6062 -1.3048 -0.1577
  761MOL0     C 4907   0.819   5.360  11.622  0.1726  0.1458  0.2993
  761MOL0     C 4908   0.705   5.459  11.614  0.6713 -0.4460  0.0422
  761MOL0     C 4909   0.885   5.306  11.738  0.4491 -0.2129 -0.5063
  761MOL0     C 4910   0.855   5.363  11.880  0.2718  0.6754  0.0255
  761MOL0     O 4911   0.810   5.496  11.888  0.0148  0.3454 -0.0662
  761MOL0     C 4912   0.725   5.547  11.991  0.0668 -0.1839 -0.1312
  761MOL0     C 4913   0.659   5.478  12.090  0.4892 -0.0996 -0.4675
  761MOL0     C 4914   0.583   5.546  12.190 -0.1867  0.6369  0.5664
  761MOL0     C 4915   0.559   5.688  12.179  0.4288  0.2552 -0.5718
  761MOL0     O 4916   0.487   5.754  12.280 -0.0681 -0.3364 -0.0702
  761MOL0     C 4917   0.434   5.886  12.252 -1.2668 -0.2054 -0.4264
  761MOL0     C 4918   0.334   5.917  12.357  0.2350  0.8158 -0.1098
  761MOL0     C 4919   0.259   6.052  12.319 -0.9126  0.2511  0.0972
  761MOL0     C 4920   0.121   6.068  12.384  0.2298  0.3213  0.5957
  761MOL0     C 4921   0.063   6.201  12.344  0.8029 -0.7365 -0.2934
  761MOL0     C 4922  -0.069   6.220  12.414 -1.8992 -0.6907 -0.3326
  761MOL0     C 4923  -0.138   6.343  12.354 -0.0668  0.5514 -0.0829
  761MOL0     C 4924  -0.294   6.361  12.390  0.4458 -0.1204  0.3946
  761MOL0    Cl 4925  -0.331   6.370  12.567 -0.3486  0.0679  0.1206
  761MOL0     C 4926   0.625   5.753  12.076  1.1216 -0.7149 -0.4220
  761MOL0     C 4927   0.704   5.686  11.983  0.2871 -1.0535 -0.0937
  761MOL0     O 4928   0.890   5.295  11.981 -0.1306 -0.5027 -0.4524
  761MOL0     C 4929   0.973   5.207  11.724  0.7818  0.0674 -0.5472
  761MOL0     C 4930   1.008   5.150  11.605  0.3498 -0.8261  0.0665
  761MOL0     N 4931   1.372   5.152  10.908  0.5135 -0.5111  0.2810
  761MOL0     N 4932   1.463   5.064  10.893 -0.2927 -0.1551  0.0585
  761MOL0     C 4933   2.629   5.251  10.985  0.6051 -0.2973 -0.0863
  761MOL0     C 4934   2.756   5.226  11.020 -0.6618 -0.7680 -0.1595
  761MOL0     C 4935   3.064   5.015  11.234  0.2314  0.1787  0.4206
  761MOL0     C 4936   3.081   4.888  11.198 -0.0960  0.4445 -0.3302
  761MOL0     C 4937   3.160   4.799  11.264 -0.9648  0.8420 -0.3505
  761MOL0     C 4938   3.206   4.823  11.399  0.1438 -0.0878 -0.1915
  761MOL0     O 4939   3.273   4.738  11.488  0.5661  0.2682 -0.1674
  761MOL0     C 4940   3.311   4.608  11.430 -0.0988  0.1457  0.2387
  761MOL0     C 4941   3.358   4.518  11.548 -0.0658 -0.0740 -0.5505
  761MOL0     C 4942   3.459   4.587  11.643  0.9232  0.8144  0.2374
  761MOL0     C 4943   3.508   4.480  11.749 -0.5751 -0.2023 -0.0543
  761MOL0     C 4944   3.569   4.560  11.854  0.2346 -0.0100 -0.3437
  761MOL0     C 4945   3.608   4.651  11.930  0.0882  0.4739 -0.5330
  761MOL0     C 4946   3.168   4.944  11.447  0.0360  0.0296  0.2742
  761MOL0     C 4947   3.097   5.039  11.366  0.2110  0.0672 -0.2572
  761MOL0     C 4948   3.055   5.179  11.429 -0.1564 -0.0038 -1.0570
  761MOL0     H 4949   2.781   4.917  10.895 -1.9878 -0.5585 -0.2708
  761MOL0     H 4950   2.554   4.975  10.801 -0.7833 -0.3200  0.8212
  761MOL0     H 4951   2.389   5.119  10.694 -0.0398  0.4576 -1.1389
  761MOL0     H 4952   2.285   5.252  10.725 -0.0890  1.5325  2.2040
  761MOL0     H 4953   2.182   5.047  10.760 -1.5500  0.9578  1.3240
  761MOL0     H 4954   2.272   5.009  10.907  1.3822  0.8040  0.8816
  761MOL0     H 4955   2.196   5.188  11.037  0.1115  0.2686 -0.3070
  761MOL0     H 4956   2.119   5.269  10.895 -3.1212 -0.0862  1.7771
  761MOL0     H 4957   2.045   4.991  11.026 -1.8468 -0.5173  0.8030
  761MOL0     H 4958   1.970   5.142  11.066 -0.6686  1.8436 -0.5329
  761MOL0     H 4959   1.974   4.978  10.816 -0.5771  0.8836 -1.8572
  761MOL0     H 4960   1.948   5.148  10.787 -4.3935 -0.0231  0.1502
  761MOL0     H 4961   1.720   5.146  10.899  0.0267 -0.0367 -0.3570
  761MOL0     H 4962   1.744   5.016  10.798  0.5122  0.9758 -1.4687
  761MOL0     H 4963   1.767   5.049  11.100 -1.7249  1.1349  0.8945
  761MOL0     H 4964   1.818   4.892  11.040  0.7335  1.3558  2.1539
  761MOL0     H 4965   1.586   4.837  10.989 -1.0301 -3.0918  4.3165
  761MOL0     H 4966   1.590   4.897  11.143  1.8569  0.6708  1.1326
  761MOL0     H 4967   1.429   5.101  11.223  1.5385 -0.1031  0.3239
  761MOL0     H 4968   1.237   5.366  11.048  3.8748 -0.4944 -0.9517
  761MOL0     H 4969   1.277   5.302  11.209  1.5557  0.7210  0.0046
  761MOL0     H 4970   1.037   5.281  11.171 -0.1296  0.6880 -1.6508
  761MOL0     H 4971   1.062   5.209  11.013  1.3503 -1.4503 -0.5563
  761MOL0     H 4972   1.017   5.022  11.136 -0.8310 -1.1446  1.1393
  761MOL0     H 4973   1.198   5.024  11.163  2.4566  3.7949  1.3981
  761MOL0     H 4974   1.103   4.984  11.366  2.0733  1.3966  3.6858
  761MOL0     H 4975   1.157   5.147  11.375 -0.7403 -0.1464  0.5346
  761MOL0     H 4976   0.804   5.312  11.403  1.7683 -5.2286 -1.6442
  761MOL0     H 4977   0.745   5.559  11.634  0.6280 -0.4458  0.1286
  761MOL0     H 4978   0.626   5.436  11.686 -2.1801 -1.3465 -3.1140
  761MOL0     H 4979   0.653   5.466  11.518  1.0659  2.7552 -0.0492
  761MOL0     H 4980   0.654   5.370  12.087 -0.3579 -0.1005  0.5448
  761MOL0     H 4981   0.526   5.501  12.270 -0.9674  1.3961  0.4500
  761MOL0     H 4982   0.520   5.952  12.269  0.5244 -1.9669 -2.1454
  761MOL0     H 4983   0.398   5.891  12.149  1.1775  2.0259 -1.2956
  761MOL0     H 4984   0.267   5.831  12.364 -2.2468  2.6660  0.0803
  761MOL0     H 4985   0.369   5.929  12.460  1.0930 -1.9981 -0.0063
  761MOL0     H 4986   0.234   6.066  12.214 -0.7157  1.0663  0.1475
  761MOL0     H 4987   0.309   6.137  12.366  0.4048 -1.6938  2.4512
  761MOL0     H 4988   0.122   6.072  12.493  1.9302  1.8492  0.5758
  761MOL0     H 4989   0.065   5.987  12.335  0.3666  0.0793  0.8379
  761MOL0     H 4990   0.130   6.285  12.367 -1.7277  2.0604 -2.4125
  761MOL0     H 4991   0.045   6.193  12.236 -0.1174  1.5620 -0.3744
  761MOL0     H 4992  -0.068   6.232  12.523 -3.2437 -2.7275 -0.0262
  761MOL0     H 4993  -0.133   6.131  12.407 -4.9654  0.9357  3.2318
  761MOL0     H 4994  -0.125   6.346  12.245 -1.9881  1.2343 -0.3297
  761MOL0     H 4995  -0.078   6.420  12.402  2.8121 -2.6685  1.9434
  761MOL0     H 4996  -0.351   6.281  12.341  0.1197  1.2316 -1.5387
  761MOL0     H 4997  -0.323   6.454  12.340  0.0733  0.3976  1.5496
  761MOL0     H 4998   0.619   5.861  12.062  0.2252 -0.4424  1.6172
  761MOL0     H 4999   0.756   5.752  11.914 -2.6169 -0.1420 -1.5648
  761MOL0     H 5000   1.011   5.156  11.812 -0.2365  1.0663  0.4971
  761MOL0     H 5001   1.090   5.079  11.614  0.4204 -0.5374  2.2018
  761MOL0     H 5002   2.598   5.349  11.019 -0.7281 -1.7830  3.3591
  761MOL0     H 5003   2.810   5.305  11.071 -3.7251  0.1876  1.8303
  761MOL0     H 5004   3.043   4.851  11.103 -1.0494  1.9366 -0.5739
  761MOL0     H 5005   3.188   4.702  11.224  1.8204  1.6056 -0.4788
  761MOL0     H 5006   3.226   4.557  11.384  0.7287 -1.6073  0.5751
  761MOL0     H 5007   3.388   4.613  11.353  0.3017  0.0370  0.6265
  761MOL0     H 5008   3.402   4.428  11.505  2.4022  0.7002  0.1841
  761MOL0     H 5009   3.268   4.492  11.605  1.4551 -0.2577  1.9244
  761MOL0     H 5010   3.549   4.610  11.586 -1.3818  2.6668 -2.9227
  761MOL0     H 5011   3.422   4.679  11.690  1.9238 -0.0910  2.9970
  761MOL0     H 5012   3.592   4.418  11.716  0.7985  0.8506  1.3028
  761MOL0     H 5013   3.424   4.435  11.802  0.3435 -0.5797  1.1109
  761MOL0     H 5014   3.641   4.726  11.999  1.4852  0.1287 -0.7976
  761MOL0     H 5015   3.182   4.967  11.553 -1.8254 -0.7734  0.7422
  761MOL0     H 5016   2.947   5.189  11.415 -0.1178  1.8545 -0.2654
  761MOL0     H 5017   3.064   5.186  11.538 -1.4504  4.0384 -1.0665
  761MOL0     H 5018   3.100   5.271  11.391  0.3920  0.0596 -0.2727
  762MOL0     O 5019   1.953   4.361   8.558  0.0856 -0.0046  0.0448
  762MOL0     C 5020   1.889   4.453   8.604  0.3609  0.3098 -0.7595
  762MOL0     O 5021   1.750   4.446   8.610 -0.9654 -0.3635  0.2373
  762MOL0     C 5022   1.690   4.332   8.635 -0.0185  0.0449  0.1637
  762MOL0     C 5023   1.742   4.238   8.723 -0.0508  0.0555  0.4258
  762MOL0     C 5024   1.679   4.119   8.765  0.6093  0.5577 -0.1156
  762MOL0     C 5025   1.565   4.080   8.703  1.3163  1.7575 -0.7443
  762MOL0     O 5026   1.495   3.964   8.746 -0.7610 -1.0741  0.5304
  762MOL0     C 5027   1.577   3.849   8.786  0.3778 -0.8801  0.4615
  762MOL0     C 5028   1.493   3.721   8.779 -1.2903 -0.9077 -0.6499
  762MOL0     C 5029   1.406   3.706   8.659 -0.1763  0.1454  0.5435
  762MOL0     C 5030   1.270   3.780   8.663  0.8093  0.3994  1.0530
  762MOL0     C 5031   1.178   3.747   8.535  0.4567 -0.3616  0.9604
  762MOL0     C 5032   1.045   3.850   8.541 -1.2045 -0.0593 -0.9280
  762MOL0     C 5033   1.093   3.978   8.472  0.4261  0.2860 -0.5846
  762MOL0     C 5034   0.992   4.093   8.477  1.2777 -1.0083  0.5557
  762MOL0     N 5035   1.052   4.218   8.426 -0.4042  0.5494 -0.1114
  762MOL0     C 5036   1.002   4.334   8.457  1.4139 -0.8000  0.1473
  762MOL0     C 5037   1.077   4.425   8.387  0.0277 -0.0330 -0.1056
  762MOL0     C 5038   1.068   4.576   8.408 -0.4530  0.5430 -0.1801
  762MOL0     C 5039   1.190   4.653   8.355 -0.2701 -0.4762 -0.4571
  762MOL0     C 5040   1.231   4.728   8.478  0.0443 -0.7928  0.2525
  762MOL0     C 5041   1.374   4.785   8.471  0.7307 -0.5513  0.6228
  762MOL0     O 5042   1.416   4.800   8.337 -0.2357  0.5347  0.2351
  762MOL0     C 5043   1.550   4.834   8.311 -0.1565 -0.4141 -1.0329
  762MOL0     C 5044   1.571   4.922   8.198  0.3451  0.0699 -0.6479
  762MOL0     C 5045   1.700   4.980   8.180 -0.1483  0.3394 -0.3452
  762MOL0     C 5046   1.725   5.077   8.066  0.5462  0.4077  0.2230
  762MOL0     C 5047   1.808   4.936   8.270 -0.3942 -0.4848  1.3998
  762MOL0     C 5048   1.948   4.987   8.255  0.5684  0.5553  0.4605
  762MOL0     O 5049   1.994   5.027   8.130  0.2531 -0.1411 -0.3233
  762MOL0     C 5050   2.126   5.049   8.100  0.2929 -0.3379  0.0677
  762MOL0     C 5051   2.238   4.998   8.169  0.7039  0.3007 -0.3643
  762MOL0     C 5052   2.365   5.019   8.114  0.2660 -0.0644  0.6297
  762MOL0     C 5053   2.387   5.093   8.005 -0.4938 -0.3679 -0.5878
  762MOL0     O 5054   2.516   5.109   7.967 -0.4651 -0.1260 -0.1815
  762MOL0     C 5055   2.557   5.227   7.899  0.0019 -0.2389  0.1721
  762MOL0     C 5056   2.531   5.356   7.980 -0.4928  0.0496 -0.3964
  762MOL0     C 5057   2.617   5.366   8.108 -0.2103 -0.0153  0.2423
  762MOL0     C 5058   2.610   5.494   8.189  0.1318 -0.4125  0.2968
  762MOL0     C 5059   2.515   5.483   8.308 -0.4546  0.7915 -0.1165
  762MOL0     C 5060   2.502   5.613   8.383  0.3498  0.4070  0.0054
  762MOL0     C 5061   2.403   5.604   8.499  0.0829  0.1964 -0.1928
  762MOL0     C 5062   2.458   5.704   8.611 -0.6701  0.0096  0.3959
  762MOL0    Cl 5063   2.370   5.672   8.766  0.0450 -0.1236 -0.0169
  762MOL0     C 5064   2.271   5.144   7.936 -0.2121  0.1457 -0.1515
  762MOL0     C 5065   2.143   5.119   7.985 -0.0414 -0.3678  0.6940
  762MOL0     O 5066   2.019   4.974   8.356  0.7648 -0.0016  0.5787
  762MOL0     C 5067   1.781   4.847   8.371 -1.1962  0.3563 -0.4627
  762MOL0     C 5068   1.656   4.794   8.397  0.3989  0.3654 -0.2346
  762MOL0     N 5069   1.157   4.352   8.295  0.2728  0.9033 -0.5526
  762MOL0     N 5070   1.132   4.224   8.318  0.8084  0.3160 -0.3077
  762MOL0     C 5071   1.501   4.169   8.615  0.0284 -0.2582 -0.3503
  762MOL0     C 5072   1.565   4.293   8.586  0.4466 -0.6381 -0.7962
  762MOL0     C 5073   1.961   4.569   8.661 -0.6499 -0.7391 -0.6144
  762MOL0     C 5074   2.092   4.596   8.615 -0.7357 -0.7978  0.0370
  762MOL0     C 5075   2.165   4.710   8.668  0.3532 -0.3427  0.0293
  762MOL0     C 5076   2.109   4.789   8.762  0.5243 -0.8847  0.3652
  762MOL0     O 5077   2.179   4.894   8.812 -0.3112 -0.1796  0.0681
  762MOL0     C 5078   2.184   4.920   8.955 -0.6507  0.0595 -0.0798
  762MOL0     C 5079   2.243   5.064   8.974 -0.0614  0.1528  0.2685
  762MOL0     C 5080   2.393   5.069   8.943  0.1306 -0.1259 -0.2556
  762MOL0     C 5081   2.432   5.211   8.929  0.0681 -0.6266  0.5459
  762MOL0     C 5082   2.423   5.284   9.053 -0.3219  0.2175  0.0730
  762MOL0     C 5083   2.393   5.347   9.157 -0.6594  0.6056  0.3015
  762MOL0     C 5084   1.984   4.761   8.819 -0.4871  0.0621  0.2659
  762MOL0     C 5085   1.907   4.656   8.766  0.0477 -0.2942  0.1744
  762MOL0     C 5086   1.780   4.626   8.853 -0.5678 -0.1499  0.2599
  762MOL0     H 5087   1.842   4.258   8.762  0.8887 -0.7474 -1.4096
  762MOL0     H 5088   1.739   4.047   8.820  1.0873  1.4240  0.5165
  762MOL0     H 5089   1.621   3.859   8.886 -1.9932 -1.4052  1.6464
  762MOL0     H 5090   1.657   3.838   8.712 -1.0098 -0.2371 -1.2054
  762MOL0     H 5091   1.567   3.641   8.770 -0.5442 -0.3767  0.5333
  762MOL0     H 5092   1.433   3.717   8.870  0.9092 -1.3626  0.8515
  762MOL0     H 5093   1.455   3.751   8.573  1.1378 -0.3756  0.9947
  762MOL0     H 5094   1.387   3.600   8.636  2.1641 -0.9830  3.2099
  762MOL0     H 5095   1.211   3.741   8.746  0.1680 -1.8176 -0.3464
  762MOL0     H 5096   1.284   3.886   8.681 -1.6320  0.9604  0.0696
  762MOL0     H 5097   1.140   3.645   8.529  3.4434 -1.5451  0.2077
  762MOL0     H 5098   1.235   3.744   8.442  2.1732  4.0363  1.6381
  762MOL0     H 5099   0.963   3.796   8.494 -2.0548 -0.7387  1.2403
  762MOL0     H 5100   1.016   3.877   8.643 -0.3868 -2.2814 -0.0454
  762MOL0     H 5101   1.121   3.953   8.369  0.9689  1.1381 -0.6597
  762MOL0     H 5102   1.186   4.012   8.519  2.5020 -4.4723 -0.7684
  762MOL0     H 5103   0.904   4.064   8.418  0.4537 -0.5582  1.5251
  762MOL0     H 5104   0.945   4.110   8.574 -0.7915  0.5119 -0.6154
  762MOL0     H 5105   0.924   4.365   8.527 -1.7997 -0.2750 -3.3407
  762MOL0     H 5106   1.045   4.595   8.513 -0.9795  2.8687 -0.6667
  762MOL0     H 5107   0.977   4.597   8.351 -0.6578 -2.0527 -0.9822
  762MOL0     H 5108   1.263   4.581   8.316  1.0702 -0.7146  2.2361
  762MOL0     H 5109   1.152   4.715   8.274  0.4975 -0.4756 -0.8263
  762MOL0     H 5110   1.166   4.807   8.515  0.0762  0.0256 -1.3762
  762MOL0     H 5111   1.251   4.648   8.551  0.9377 -3.8423 -3.0364
  762MOL0     H 5112   1.382   4.881   8.522 -1.0607  2.2832 -3.7636
  762MOL0     H 5113   1.439   4.719   8.528  0.3245  0.1549  1.9371
  762MOL0     H 5114   1.494   4.948   8.127 -0.0766  2.7617  0.6678
  762MOL0     H 5115   1.767   5.174   8.095  1.3364  0.3130 -0.5561
  762MOL0     H 5116   1.630   5.086   8.013  0.3130 -1.4198  0.2832
  762MOL0     H 5117   1.795   5.046   7.988  1.4278  1.5596  0.5332
  762MOL0     H 5118   2.221   4.940   8.259 -1.3575 -0.7458 -1.3579
  762MOL0     H 5119   2.442   4.967   8.170 -1.2346 -1.3560  1.6116
  762MOL0     H 5120   2.662   5.222   7.868 -0.0132 -0.6185  0.1796
  762MOL0     H 5121   2.497   5.241   7.808 -1.3979 -0.0169  1.1086
  762MOL0     H 5122   2.562   5.440   7.916 -0.3159  0.0223 -0.3466
  762MOL0     H 5123   2.425   5.373   8.000 -0.1979  0.5064  0.8355
  762MOL0     H 5124   2.723   5.347   8.087  0.4973  3.5914 -0.1191
  762MOL0     H 5125   2.584   5.293   8.183  2.5937  0.3027  1.9572
  762MOL0     H 5126   2.574   5.569   8.118 -2.2875 -1.1837  0.6097
  762MOL0     H 5127   2.705   5.529   8.230 -0.5681  2.4810 -0.2946
  762MOL0     H 5128   2.415   5.455   8.274 -0.2359 -1.1257  0.6753
  762MOL0     H 5129   2.548   5.406   8.379 -1.4686 -0.4069 -0.9124
  762MOL0     H 5130   2.474   5.692   8.312 -2.1600 -2.5168 -2.5467
  762MOL0     H 5131   2.599   5.637   8.428  1.0576 -1.4175 -0.4727
  762MOL0     H 5132   2.397   5.502   8.538 -1.0765 -0.8390 -2.7638
  762MOL0     H 5133   2.307   5.633   8.453  2.1190  2.2952 -3.5342
  762MOL0     H 5134   2.456   5.809   8.581  1.1915 -0.4243 -1.4764
  762MOL0     H 5135   2.558   5.675   8.645 -1.4044 -2.1892  0.8820
  762MOL0     H 5136   2.278   5.208   7.849  3.2256  0.7909  0.4277
  762MOL0     H 5137   2.058   5.158   7.930 -0.5315  0.8769  2.2734
  762MOL0     H 5138   1.853   4.806   8.440 -3.4187 -0.2821  1.6078
  762MOL0     H 5139   1.636   4.716   8.470 -1.2206 -1.2970 -2.3217
  762MOL0     H 5140   1.400   4.155   8.576  0.5936  1.3591 -2.6154
  762MOL0     H 5141   1.515   4.352   8.510 -1.7690 -1.1894  0.1399
  762MOL0     H 5142   2.147   4.547   8.536 -2.5195  0.8018 -2.3606
  762MOL0     H 5143   2.270   4.712   8.641  0.8901 -1.1504  1.8574
  762MOL0     H 5144   2.079   4.933   8.981 -0.8622  4.7532 -2.1481
  762MOL0     H 5145   2.236   4.846   9.016 -0.2003 -2.1295 -2.9302
  762MOL0     H 5146   2.230   5.087   9.080 -0.9338  1.4971 -0.0960
  762MOL0     H 5147   2.199   5.141   8.910  0.4402  0.5049  0.3336
  762MOL0     H 5148   2.445   5.024   9.028 -0.6246 -2.8745 -1.1369
  762MOL0     H 5149   2.435   5.019   8.856  0.3441  1.4084 -1.0665
  762MOL0     H 5150   2.387   5.258   8.841  1.3856 -0.4336 -0.0434
  762MOL0     H 5151   2.540   5.208   8.916 -0.1788 -2.2171 -1.6722
  762MOL0     H 5152   2.379   5.397   9.250  3.5079 -0.8780  1.9792
  762MOL0     H 5153   1.944   4.813   8.905 -1.0806  1.0282 -0.5735
  762MOL0     H 5154   1.749   4.521   8.853 -1.0284 -0.0386  1.8429
  762MOL0     H 5155   1.805   4.643   8.958  1.7208 -2.9215  0.2638
  762MOL0     H 5156   1.700   4.689   8.812  0.2503  1.9314  1.6534
  763MOL0     O 5157   0.632   5.799   0.041  0.0403  1.0591 -0.2662
  763MOL0     C 5158   0.568   5.887  -0.007 -0.1449 -0.0449  0.1837
  763MOL0     O 5159   0.478   5.963   0.053  0.1237 -0.0554  0.1641
  763MOL0     C 5160   0.504   6.000   0.179 -0.2909 -0.6062 -1.2296
  763MOL0     C 5161   0.390   6.059   0.244 -0.1368  0.5424 -0.2406
  763MOL0     C 5162   0.408   6.117   0.373  0.8991  0.0487  0.0444
  763MOL0     C 5163   0.531   6.135   0.428  0.3578 -0.5141 -0.9005
  763MOL0     O 5164   0.532   6.184   0.553 -0.2038 -0.5037  0.2908
  763MOL0     C 5165   0.660   6.215   0.613  0.2097  0.0437 -0.6158
  763MOL0     C 5166   0.611   6.272   0.754  0.0157  0.0107  1.2322
  763MOL0     C 5167   0.730   6.341   0.830  0.8289  0.5111  0.1186
  763MOL0     C 5168   0.730   6.328   0.988 -0.5347  0.6955  0.1137
  763MOL0     C 5169   0.853   6.402   1.057  0.1572 -0.7088 -0.1698
  763MOL0     C 5170   0.810   6.530   1.129 -0.1855 -0.5079  0.3734
  763MOL0     C 5171   0.730   6.500   1.260  0.3408 -0.0614  0.4937
  763MOL0     C 5172   0.673   6.633   1.317  0.3184  0.5944  0.1324
  763MOL0     N 5173   0.646   6.626   1.463 -0.6864 -0.1821  0.0678
  763MOL0     C 5174   0.526   6.632   1.524 -1.0553  0.1361  0.1778
  763MOL0     C 5175   0.541   6.610   1.657  0.0727 -0.5049  0.7720
  763MOL0     C 5176   0.437   6.646   1.755  0.1821 -0.2513 -0.5520
  763MOL0     C 5177   0.365   6.525   1.819 -0.5217 -0.3596  1.4330
  763MOL0     C 5178   0.301   6.559   1.965 -0.2270  0.4555 -0.0256
  763MOL0     C 5179   0.169   6.636   1.968  1.0878  0.5078 -0.4140
  763MOL0     O 5180   0.169   6.764   1.898  0.0039 -0.0008  0.7056
  763MOL0     C 5181   0.067   6.850   1.887 -0.1159 -0.2115 -0.2788
  763MOL0     C 5182   0.078   6.949   1.795 -0.0359 -0.3661  0.4604
  763MOL0     C 5183  -0.025   7.037   1.750  0.5083  0.5205  0.0157
  763MOL0     C 5184  -0.003   7.124   1.634 -0.8897  0.6022  0.7126
  763MOL0     C 5185  -0.142   7.040   1.838  0.0223  0.6006  0.0149
  763MOL0     C 5186  -0.252   7.134   1.825  0.5581  0.0848 -0.3340
  763MOL0     O 5187  -0.345   7.122   1.923  0.1275  0.0186 -0.4981
  763MOL0     C 5188  -0.478   7.148   1.904  0.4802 -0.9536 -0.2192
  763MOL0     C 5189  -0.558   7.185   2.020 -0.2379 -0.5975 -0.9539
  763MOL0     C 5190  -0.693   7.218   2.013 -0.2456 -0.5560  0.9154
  763MOL0     C 5191  -0.764   7.220   1.890  0.1164 -0.6856 -0.0128
  763MOL0     O 5192  -0.898   7.238   1.878  0.5526 -0.4295 -0.5785
  763MOL0     C 5193  -0.970   7.209   2.005  0.7372  0.5659 -0.2634
  763MOL0     C 5194  -1.122   7.228   1.978 -0.1153 -0.0746  0.3829
  763MOL0     C 5195  -1.151   7.364   1.916  0.5241 -0.1458  0.1024
  763MOL0     C 5196  -1.297   7.384   1.889 -0.3822 -0.0527  0.0998
  763MOL0     C 5197  -1.319   7.518   1.810  0.1148  0.3571  0.2248
  763MOL0     C 5198  -1.339   7.634   1.899 -0.0864  0.0757 -0.0673
  763MOL0     C 5199  -1.366   7.756   1.810  1.0647 -1.1025  0.1023
  763MOL0     C 5200  -1.392   7.882   1.893  0.7081  0.6727 -1.0866
  763MOL0    Cl 5201  -1.442   8.008   1.769 -0.0943 -0.0726  0.1616
  763MOL0     C 5202  -0.694   7.176   1.784 -0.6118 -0.7511 -0.4386
  763MOL0     C 5203  -0.555   7.149   1.784  0.5147 -0.7719 -0.3310
  763MOL0     O 5204  -0.260   7.217   1.736 -0.2693  0.5771 -0.4449
  763MOL0     C 5205  -0.148   6.935   1.937  1.8123 -0.1806 -0.7750
  763MOL0     C 5206  -0.051   6.842   1.964  0.0965 -0.5580  0.5351
  763MOL0     N 5207   0.676   6.598   1.681 -0.4779 -0.0547 -0.4607
  763MOL0     N 5208   0.736   6.602   1.561  0.5282 -0.3327 -0.2326
  763MOL0     C 5209   0.646   6.082   0.363 -0.3153 -0.1882  0.0352
  763MOL0     C 5210   0.626   6.016   0.240 -0.5850 -0.4898 -1.3427
  763MOL0     C 5211   0.546   5.866  -0.150 -0.6415 -0.0616  0.3664
  763MOL0     C 5212   0.468   5.761  -0.205 -0.1019 -0.3251 -0.2688
  763MOL0     C 5213   0.446   5.753  -0.334  0.0500 -0.0815 -0.0911
  763MOL0     C 5214   0.529   5.817  -0.423 -0.7094 -0.9866  0.5822
  763MOL0     O 5215   0.547   5.782  -0.557 -0.0012 -0.1024 -0.1081
  763MOL0     C 5216   0.476   5.677  -0.621  1.7722  0.4655 -0.1165
  763MOL0     C 5217   0.472   5.718  -0.767  0.4524 -0.6398 -0.8891
  763MOL0     C 5218   0.403   5.855  -0.783  0.0693  0.7424  0.1230
  763MOL0     C 5219   0.369   5.883  -0.928 -0.3035 -0.9283  0.1033
  763MOL0     C 5220   0.484   5.899  -1.014  0.4206  0.3703 -0.1916
  763MOL0     C 5221   0.587   5.908  -1.071 -0.6501  0.0770  0.8113
  763MOL0     C 5222   0.616   5.923  -0.382 -0.2403 -0.1370 -0.0821
  763MOL0     C 5223   0.618   5.942  -0.240  0.0199 -0.0243  0.2449
  763MOL0     C 5224   0.708   6.047  -0.183 -0.3878 -0.7260  0.9436
  763MOL0     H 5225   0.288   6.078   0.213  0.1546 -0.9178 -2.2809
  763MOL0     H 5226   0.321   6.146   0.432  1.2359 -2.0490  1.6775
  763MOL0     H 5227   0.716   6.278   0.544  1.6678 -0.8182 -0.2765
  763MOL0     H 5228   0.717   6.124   0.637 -3.0572 -2.2982 -1.0849
  763MOL0     H 5229   0.538   6.352   0.740  0.4709  0.2507  0.2258
  763MOL0     H 5230   0.563   6.193   0.814 -0.7136 -1.0170 -0.6268
  763MOL0     H 5231   0.822   6.302   0.785  1.2629  2.1329 -0.4554
  763MOL0     H 5232   0.709   6.447   0.817  1.0390  0.7373  1.4956
  763MOL0     H 5233   0.635   6.357   1.033  0.1919  1.5342  1.1644
  763MOL0     H 5234   0.735   6.221   1.011 -3.4826  0.7101  1.1800
  763MOL0     H 5235   0.913   6.437   0.973 -0.3357  0.9913  0.1484
  763MOL0     H 5236   0.916   6.335   1.116  1.0573  0.5513  0.3413
  763MOL0     H 5237   0.898   6.587   1.161  0.9559 -1.6109 -0.6871
  763MOL0     H 5238   0.750   6.584   1.056  0.5103 -1.7971 -1.2171
  763MOL0     H 5239   0.791   6.451   1.336 -0.2221 -1.9339 -0.2015
  763MOL0     H 5240   0.652   6.430   1.228  0.0589  0.3278  0.3167
  763MOL0     H 5241   0.748   6.713   1.309 -0.8707  1.9439  1.8914
  763MOL0     H 5242   0.593   6.661   1.247  1.7278 -0.5018 -2.0599
  763MOL0     H 5243   0.430   6.670   1.490 -2.2058 -0.5277  2.5125
  763MOL0     H 5244   0.364   6.719   1.720 -1.2019 -0.2612  2.0358
  763MOL0     H 5245   0.492   6.692   1.838  0.6036 -1.8572  0.1055
  763MOL0     H 5246   0.282   6.497   1.753  0.4293  0.7038 -0.2943
  763MOL0     H 5247   0.434   6.443   1.842  1.0596  0.3896 -0.3368
  763MOL0     H 5248   0.269   6.462   2.004 -2.2043 -0.5861 -3.7589
  763MOL0     H 5249   0.378   6.602   2.030 -0.2949  0.2947  0.1624
  763MOL0     H 5250   0.094   6.569   1.926 -0.1118  0.8300  1.1129
  763MOL0     H 5251   0.146   6.653   2.074  1.8618  2.0426 -0.4737
  763MOL0     H 5252   0.169   6.949   1.736 -0.6951 -1.5240 -0.6044
  763MOL0     H 5253   0.076   7.087   1.568 -0.3320  0.7819  1.2683
  763MOL0     H 5254   0.021   7.225   1.669 -1.1514  0.5481  1.0584
  763MOL0     H 5255  -0.099   7.122   1.581  1.3064 -0.3721 -3.7297
  763MOL0     H 5256  -0.499   7.206   2.108 -0.2604 -2.2537 -0.5148
  763MOL0     H 5257  -0.732   7.262   2.104  1.1676 -1.2011  1.8785
  763MOL0     H 5258  -0.939   7.120   2.060 -1.1152  1.1706  1.9087
  763MOL0     H 5259  -0.948   7.288   2.077 -2.6423  1.3180  0.1346
  763MOL0     H 5260  -1.152   7.149   1.909 -0.7732  0.8403 -0.3951
  763MOL0     H 5261  -1.178   7.214   2.071  2.5203 -0.0047  2.1024
  763MOL0     H 5262  -1.092   7.355   1.824  0.4266  0.9511 -0.0766
  763MOL0     H 5263  -1.109   7.447   1.974  0.7524 -1.0024  1.2161
  763MOL0     H 5264  -1.346   7.387   1.986 -1.5196  0.0760 -0.4611
  763MOL0     H 5265  -1.336   7.297   1.836 -0.7366 -1.5750  2.7112
  763MOL0     H 5266  -1.249   7.549   1.732 -0.4337  1.5554  0.1904
  763MOL0     H 5267  -1.412   7.505   1.754 -0.8671 -1.6985  2.1454
  763MOL0     H 5268  -1.252   7.651   1.963 -0.2025  1.0481 -0.1546
  763MOL0     H 5269  -1.431   7.613   1.954  1.1787 -3.1083  1.0711
  763MOL0     H 5270  -1.455   7.734   1.751  0.7141 -0.9390  0.5696
  763MOL0     H 5271  -1.290   7.775   1.733  1.5163  2.2383  1.2115
  763MOL0     H 5272  -1.307   7.900   1.959 -1.4290  3.5283  1.1252
  763MOL0     H 5273  -1.475   7.862   1.962  0.8946  3.1859 -0.0434
  763MOL0     H 5274  -0.733   7.169   1.683  1.3362 -1.3873 -1.2026
  763MOL0     H 5275  -0.516   7.134   1.683  0.0665  1.7047 -0.9556
  763MOL0     H 5276  -0.233   6.922   2.004 -0.4337 -1.7240 -3.6481
  763MOL0     H 5277  -0.063   6.760   2.033  3.6205 -1.2569  0.5074
  763MOL0     H 5278   0.749   6.085   0.398 -1.1537  2.0206  2.6448
  763MOL0     H 5279   0.715   5.972   0.197 -0.9408 -1.9374 -0.6519
  763MOL0     H 5280   0.427   5.689  -0.135 -0.3610 -1.6481 -1.7286
  763MOL0     H 5281   0.377   5.678  -0.369 -0.0158  0.8284 -2.0073
  763MOL0     H 5282   0.524   5.580  -0.608 -1.8869 -1.5968 -0.7073
  763MOL0     H 5283   0.370   5.674  -0.596  1.1363 -2.7838 -2.6294
  763MOL0     H 5284   0.404   5.646  -0.813 -1.2677  1.2907 -1.5116
  763MOL0     H 5285   0.570   5.701  -0.813  0.8390  0.3372 -0.4595
  763MOL0     H 5286   0.319   5.856  -0.714 -1.9172  1.4797 -2.1841
  763MOL0     H 5287   0.471   5.933  -0.748 -2.1011  1.3036  3.5070
  763MOL0     H 5288   0.316   5.978  -0.929  1.3682  0.0333  0.1591
  763MOL0     H 5289   0.303   5.801  -0.960  0.8172 -1.9541  0.3745
  763MOL0     H 5290   0.676   5.942  -1.119 -0.7007 -0.8158  0.0641
  763MOL0     H 5291   0.678   5.986  -0.446  0.9296 -0.9282  0.2457
  763MOL0     H 5292   0.648   6.138  -0.173  2.4945  1.4529 -0.0357
  763MOL0     H 5293   0.750   6.020  -0.086 -1.0777 -1.0862  1.1525
  763MOL0     H 5294   0.789   6.058  -0.256 -1.7497 -2.7056 -0.9721
  764MOL0     O 5295   0.575   4.722   9.639  0.0205  0.1482  0.3608
  764MOL0     C 5296   0.472   4.788   9.627 -0.3636 -0.4308 -0.6347
  764MOL0     O 5297   0.441   4.891   9.696  0.9690  0.2801  0.3584
  764MOL0     C 5298   0.527   4.952   9.778 -0.2692  0.3900 -0.4529
  764MOL0     C 5299   0.663   4.953   9.765  0.8551 -0.3697 -1.0705
  764MOL0     C 5300   0.740   5.003   9.862  0.2807 -1.1952 -1.3175
  764MOL0     C 5301   0.687   5.058   9.976 -0.2685 -0.5497  0.1291
  764MOL0     O 5302   0.771   5.110  10.072 -0.0726  0.0332 -0.6790
  764MOL0     C 5303   0.722   5.170  10.195 -0.2138 -0.0919  0.1481
  764MOL0     C 5304   0.847   5.220  10.260 -0.4446  0.3297  0.4008
  764MOL0     C 5305   0.817   5.336  10.353 -1.7496  1.2549  0.0256
  764MOL0     C 5306   0.705   5.294  10.450  0.1008 -0.7648 -0.5628
  764MOL0     C 5307   0.680   5.406  10.557 -0.3434 -0.5667  0.1103
  764MOL0     C 5308   0.562   5.361  10.645  0.6078 -0.7115  0.1106
  764MOL0     C 5309   0.555   5.224  10.713  0.4754 -0.1310  0.1643
  764MOL0     C 5310   0.670   5.193  10.803  0.5111  0.5963 -0.4619
  764MOL0     N 5311   0.660   5.257  10.931  0.0863 -1.7223 -0.4085
  764MOL0     C 5312   0.548   5.241  11.008  0.2681  0.5084 -0.9298
  764MOL0     C 5313   0.570   5.315  11.115  0.9260  0.1140 -0.4698
  764MOL0     C 5314   0.487   5.366  11.237  0.2877  0.2551  0.0549
  764MOL0     C 5315   0.434   5.262  11.329  0.4884  0.0998 -0.2407
  764MOL0     C 5316   0.359   5.329  11.437  0.7999 -0.1562 -0.1678
  764MOL0     C 5317   0.290   5.227  11.534  0.3057 -0.9795  0.2389
  764MOL0     O 5318   0.384   5.193  11.636 -0.5909  0.0300  0.2827
  764MOL0     C 5319   0.342   5.168  11.760 -0.6287 -0.3506  0.0635
  764MOL0     C 5320   0.213   5.146  11.797 -0.6201 -0.6858 -0.1202
  764MOL0     C 5321   0.173   5.144  11.933  0.9227  0.5533 -0.9894
  764MOL0     C 5322   0.030   5.104  11.950  0.2681 -0.3893  0.0801
  764MOL0     C 5323   0.274   5.149  12.034 -0.3545 -0.9381 -0.0525
  764MOL0     C 5324   0.244   5.160  12.178 -0.7314  0.6320  0.0393
  764MOL0     O 5325   0.345   5.194  12.257 -0.0154 -0.3091 -0.5512
  764MOL0     C 5326   0.326   5.268  12.364  0.2880 -0.4506 -0.2796
  764MOL0     C 5327   0.206   5.333  12.406  0.2531 -0.2329 -0.3649
  764MOL0     C 5328   0.197   5.404  12.529  0.2996 -0.3322  0.3042
  764MOL0     C 5329   0.304   5.424  12.618  0.3032  0.3660 -1.5000
  764MOL0     O 5330   0.311   5.494  12.739  0.4398  0.7029  0.6603
  764MOL0     C 5331   0.191   5.484  12.824 -0.2988  0.4243  0.0348
  764MOL0     C 5332   0.236   5.528  12.966 -0.4234 -0.6324 -0.0173
  764MOL0     C 5333   0.370   5.479  13.011  0.3254  0.0970 -0.4198
  764MOL0     C 5334   0.372   5.344  13.079 -0.5405 -0.3037  0.3952
  764MOL0     C 5335   0.525   5.292  13.092  0.9110 -0.3727 -0.2800
  764MOL0     C 5336   0.533   5.144  13.094  0.5594  0.0113 -0.2201
  764MOL0     C 5337   0.454   5.080  13.215 -0.2613  0.3963  0.1991
  764MOL0     C 5338   0.533   5.080  13.340 -0.9106  0.4243 -0.5655
  764MOL0    Cl 5339   0.453   5.001  13.468 -0.5974  0.4640 -0.0907
  764MOL0     C 5340   0.424   5.363  12.586 -0.9169  1.7168  1.1057
  764MOL0     C 5341   0.441   5.292  12.456  0.2850  0.4456  0.0303
  764MOL0     O 5342   0.137   5.115  12.223  0.2212  0.0004 -0.0906
  764MOL0     C 5343   0.408   5.168  11.994 -0.0427  0.0493 -0.1682
  764MOL0     C 5344   0.436   5.168  11.860 -0.8517  0.1622  0.2483
  764MOL0     N 5345   0.687   5.382  11.098  0.4568 -0.3399  0.2090
  764MOL0     N 5346   0.733   5.363  10.982 -0.2576 -0.0402  0.3268
  764MOL0     C 5347   0.554   5.068   9.989 -0.2870 -0.2113 -0.2391
  764MOL0     C 5348   0.469   5.011   9.891  0.9009  0.6593  0.3193
  764MOL0     C 5349   0.383   4.749   9.520  0.1964  0.4898 -0.5427
  764MOL0     C 5350   0.318   4.850   9.447 -0.1919  0.8800  0.3254
  764MOL0     C 5351   0.245   4.831   9.334  0.0645 -0.4730 -0.6247
  764MOL0     C 5352   0.227   4.705   9.281  1.0171 -0.7863 -0.0181
  764MOL0     O 5353   0.140   4.705   9.171  0.8394 -0.2777 -1.0424
  764MOL0     C 5354   0.104   4.585   9.105 -0.5313  0.5696 -0.4069
  764MOL0     C 5355  -0.006   4.596   8.989 -0.7034 -0.3278  0.7515
  764MOL0     C 5356  -0.043   4.454   8.933 -0.1465 -0.0917 -0.3730
  764MOL0     C 5357  -0.165   4.450   8.848 -0.6189  0.7059  0.8672
  764MOL0     C 5358  -0.291   4.458   8.940 -0.3403  0.2535  0.2023
  764MOL0     C 5359  -0.388   4.453   9.020 -0.8770  0.1898  0.8024
  764MOL0     C 5360   0.277   4.589   9.348 -0.6163 -0.9748 -0.4105
  764MOL0     C 5361   0.355   4.615   9.468  0.7289  1.1226  0.0144
  764MOL0     C 5362   0.414   4.496   9.534 -0.6534 -0.6463 -0.2906
  764MOL0     H 5363   0.722   4.905   9.687  3.1111 -0.7818  0.7688
  764MOL0     H 5364   0.846   5.010   9.840  0.7037 -0.2194  0.7861
  764MOL0     H 5365   0.669   5.101  10.261  0.5571 -1.8288 -0.9911
  764MOL0     H 5366   0.661   5.257  10.169 -0.6347 -0.3854  0.1477
  764MOL0     H 5367   0.903   5.138  10.308  0.5329 -0.4434 -1.9022
  764MOL0     H 5368   0.924   5.249  10.188 -1.7186  1.0773 -0.7132
  764MOL0     H 5369   0.909   5.367  10.404  0.1520 -2.0915 -0.9822
  764MOL0     H 5370   0.791   5.419  10.287  0.1760 -1.6370 -4.9179
  764MOL0     H 5371   0.610   5.289  10.396 -1.2132  3.6651  0.8942
  764MOL0     H 5372   0.708   5.191  10.489 -2.4559 -1.3349 -1.6466
  764MOL0     H 5373   0.658   5.496  10.498 -0.3530  1.2422  2.7090
  764MOL0     H 5374   0.774   5.423  10.611  2.5487 -4.3027 -3.0984
  764MOL0     H 5375   0.560   5.436  10.724  0.5232  0.0609 -0.6059
  764MOL0     H 5376   0.473   5.373  10.583  0.8323 -1.7138 -0.4316
  764MOL0     H 5377   0.570   5.147  10.636 -0.2198 -1.9325  1.7495
  764MOL0     H 5378   0.460   5.200  10.762 -0.7324  2.4580 -0.7634
  764MOL0     H 5379   0.673   5.084  10.810 -2.5562  0.4554  0.1547
  764MOL0     H 5380   0.770   5.201  10.758  0.6422 -3.3101 -1.2122
  764MOL0     H 5381   0.458   5.183  10.995  0.6191 -0.1792 -0.3943
  764MOL0     H 5382   0.415   5.434  11.191 -0.1978  0.4386  1.0645
  764MOL0     H 5383   0.549   5.441  11.287  1.2835 -0.1182 -0.5758
  764MOL0     H 5384   0.355   5.201  11.284 -2.5874  0.7221  3.7277
  764MOL0     H 5385   0.507   5.194  11.375  0.6733  0.7903  0.5062
  764MOL0     H 5386   0.423   5.396  11.495 -0.4892  0.3658  0.7168
  764MOL0     H 5387   0.288   5.384  11.374  1.4080 -0.9048 -1.5587
  764MOL0     H 5388   0.195   5.267  11.571  1.8975  1.0838  2.4382
  764MOL0     H 5389   0.266   5.137  11.478  3.0584 -1.2295 -0.6812
  764MOL0     H 5390   0.142   5.131  11.716  1.5130 -4.3737 -1.5426
  764MOL0     H 5391  -0.027   5.118  11.858  1.8555  1.6261 -0.6740
  764MOL0     H 5392  -0.007   5.177  12.022 -2.9306  0.8571 -2.5602
  764MOL0     H 5393   0.014   5.006  11.995 -1.1336  1.1934  3.2714
  764MOL0     H 5394   0.120   5.318  12.342  2.4075 -2.7140 -2.9955
  764MOL0     H 5395   0.101   5.454  12.539  1.2735  2.0137 -1.1131
  764MOL0     H 5396   0.120   5.560  12.790  0.6649  2.2778  1.9506
  764MOL0     H 5397   0.150   5.382  12.832 -1.9050  0.8794 -1.6358
  764MOL0     H 5398   0.241   5.637  12.973  0.2128 -0.6178 -0.6006
  764MOL0     H 5399   0.159   5.486  13.032 -1.9887  0.1804 -1.2418
  764MOL0     H 5400   0.422   5.549  13.077 -2.0033  3.3256 -1.7389
  764MOL0     H 5401   0.439   5.473  12.926 -1.4601 -0.0741 -1.9363
  764MOL0     H 5402   0.316   5.267  13.025  2.1340 -1.9524 -0.2060
  764MOL0     H 5403   0.332   5.356  13.180  0.4209 -1.0729  0.8721
  764MOL0     H 5404   0.582   5.319  13.003  1.4402 -0.6618 -0.0378
  764MOL0     H 5405   0.573   5.335  13.181  0.5146 -1.4540  0.4912
  764MOL0     H 5406   0.638   5.114  13.100  0.2761 -0.7035  2.4835
  764MOL0     H 5407   0.485   5.107  13.004 -0.5769  0.2199  0.2795
  764MOL0     H 5408   0.427   4.980  13.180  0.1399 -0.4722  2.1923
  764MOL0     H 5409   0.365   5.137  13.241  0.5570  0.9538  1.9675
  764MOL0     H 5410   0.556   5.180  13.377 -1.4522 -0.2046  1.6095
  764MOL0     H 5411   0.633   5.045  13.311  1.3302  5.7862 -0.4684
  764MOL0     H 5412   0.505   5.371  12.658  0.1682 -0.6499  0.2670
  764MOL0     H 5413   0.542   5.258  12.439 -0.2537 -2.2767  1.6519
  764MOL0     H 5414   0.491   5.174  12.063  0.0356 -0.6731 -0.1884
  764MOL0     H 5415   0.536   5.185  11.821 -0.5945 -2.1091 -0.2512
  764MOL0     H 5416   0.512   5.104  10.083 -2.0211  2.1085 -1.7626
  764MOL0     H 5417   0.361   5.000   9.899  0.6333  3.4915  2.2877
  764MOL0     H 5418   0.311   4.954   9.476 -0.7665  0.8950  0.1331
  764MOL0     H 5419   0.201   4.918   9.287  1.9838  0.2235 -1.2424
  764MOL0     H 5420   0.188   4.524   9.068  0.9868  2.0376  0.4847
  764MOL0     H 5421   0.070   4.522   9.188 -0.6784  2.1382  0.7667
  764MOL0     H 5422   0.030   4.656   8.905 -1.0776 -2.4489 -1.0085
  764MOL0     H 5423  -0.094   4.650   9.026 -1.6252  0.6609 -2.5185
  764MOL0     H 5424   0.040   4.410   8.878  0.6877 -0.0720  0.8363
  764MOL0     H 5425  -0.057   4.382   9.015  1.6539 -1.9572 -1.5879
  764MOL0     H 5426  -0.170   4.361   8.785 -0.0190  0.8648  0.5937
  764MOL0     H 5427  -0.157   4.531   8.775  3.1603 -0.1472  0.1309
  764MOL0     H 5428  -0.470   4.452   9.088 -0.5392  1.0651  1.2286
  764MOL0     H 5429   0.268   4.488   9.309 -1.0780 -0.8823 -0.5515
  764MOL0     H 5430   0.373   4.494   9.636  1.8869  0.5516  0.8674
  764MOL0     H 5431   0.400   4.407   9.474  0.5719 -1.3496  0.4218
  764MOL0     H 5432   0.523   4.504   9.538 -0.6277 -0.7847 -0.6914
  765MOL0     O 5433   5.289   3.629   6.250 -0.0085  0.0769  0.4959
  765MOL0     C 5434   5.376   3.616   6.162  0.0309  0.7954  0.5149
  765MOL0     O 5435   5.442   3.501   6.138  0.3115 -0.3650 -0.0765
  765MOL0     C 5436   5.420   3.379   6.197  0.1413 -0.1327 -0.5017
  765MOL0     C 5437   5.419   3.366   6.340  0.3107  0.1658  0.7534
  765MOL0     C 5438   5.424   3.235   6.391 -0.6626 -0.4563  0.6155
  765MOL0     C 5439   5.417   3.120   6.308 -0.1919 -0.4064  0.8387
  765MOL0     O 5440   5.416   3.000   6.371  0.1095 -0.2867  0.0442
  765MOL0     C 5441   5.510   2.899   6.336 -1.4863  0.4630  0.7717
  765MOL0     C 5442   5.498   2.784   6.445  0.2848 -0.6182  0.0762
  765MOL0     C 5443   5.595   2.679   6.409  0.3082 -0.6625  0.4912
  765MOL0     C 5444   5.599   2.575   6.523 -0.1786 -0.0681  0.4099
  765MOL0     C 5445   5.668   2.440   6.484 -0.0700 -0.2827 -0.6348
  765MOL0     C 5446   5.740   2.376   6.604  0.4049  0.4037  0.2300
  765MOL0     C 5447   5.808   2.243   6.566 -0.2172  0.4945  0.2115
  765MOL0     C 5448   5.699   2.128   6.528  0.3198  0.3578  0.7287
  765MOL0     N 5449   5.782   2.009   6.481 -0.1780 -1.8307  0.1472
  765MOL0     C 5450   5.878   2.009   6.383 -0.3216  0.0750 -0.0100
  765MOL0     C 5451   5.939   1.892   6.401 -0.2182  0.1540  0.1085
  765MOL0     C 5452   6.055   1.850   6.307  0.0622  0.9173  0.5231
  765MOL0     C 5453   6.179   1.924   6.315  0.2614  0.1833 -0.6060
  765MOL0     C 5454   6.231   1.976   6.180  0.1062 -0.2788  0.7287
  765MOL0     C 5455   6.145   2.050   6.082  0.8714  0.2459 -1.0890
  765MOL0     O 5456   6.097   2.169   6.147  0.7001 -0.3343  0.1670
  765MOL0     C 5457   6.069   2.285   6.082 -0.5425  0.0371 -0.4324
  765MOL0     C 5458   6.008   2.392   6.148 -0.4085 -0.4549  0.3865
  765MOL0     C 5459   5.985   2.512   6.080 -0.3112 -0.1733 -0.3924
  765MOL0     C 5460   5.928   2.633   6.150 -1.0095 -0.3132  0.1416
  765MOL0     C 5461   6.029   2.521   5.945 -0.6872 -0.2835  0.5968
  765MOL0     C 5462   6.018   2.647   5.861  0.2333  0.0566 -0.1998
  765MOL0     O 5463   5.984   2.630   5.727 -0.2571 -0.2393  0.3171
  765MOL0     C 5464   5.979   2.743   5.645 -0.1224  0.0409  0.0736
  765MOL0     C 5465   6.086   2.776   5.558 -0.8589 -0.0619  0.1740
  765MOL0     C 5466   6.079   2.902   5.480 -0.0040  0.1353  0.0466
  765MOL0     C 5467   5.958   2.976   5.482 -0.3802 -0.5344  0.3272
  765MOL0     O 5468   5.934   3.088   5.396 -0.3941  1.2208 -0.2917
  765MOL0     C 5469   6.022   3.102   5.282  0.2767  0.1097 -0.1790
  765MOL0     C 5470   6.011   3.009   5.160  0.6368 -0.0604  0.2221
  765MOL0     C 5471   5.863   2.972   5.134 -0.4836  0.2811  0.1876
  765MOL0     C 5472   5.845   2.894   5.005 -0.0672 -0.2374  1.0691
  765MOL0     C 5473   5.705   2.820   5.002  0.5455  0.4646  0.3691
  765MOL0     C 5474   5.584   2.906   5.021 -0.5211  0.0753 -0.2122
  765MOL0     C 5475   5.441   2.831   5.026  0.5738  0.1725  0.7431
  765MOL0     C 5476   5.415   2.716   4.926  0.8047 -0.7320 -0.5441
  765MOL0    Cl 5477   5.252   2.639   4.966 -0.0744 -0.4219 -0.2647
  765MOL0     C 5478   5.844   2.931   5.555  0.1791  0.0194  0.8420
  765MOL0     C 5479   5.863   2.820   5.641  0.1204 -0.7645  0.4505
  765MOL0     O 5480   6.039   2.755   5.909 -0.6744 -0.8720  0.6390
  765MOL0     C 5481   6.086   2.412   5.886  0.6710 -0.1344  0.7591
  765MOL0     C 5482   6.107   2.292   5.951  1.1737 -0.1582 -0.0677
  765MOL0     N 5483   5.870   1.822   6.494  0.9275 -0.2715 -0.4605
  765MOL0     N 5484   5.778   1.892   6.550 -0.0405  0.2910 -0.1557
  765MOL0     C 5485   5.412   3.138   6.168  0.4091  1.3915 -0.1893
  765MOL0     C 5486   5.416   3.269   6.113  0.3912  0.6024 -0.0181
  765MOL0     C 5487   5.422   3.743   6.092 -1.2586 -0.7268 -1.1176
  765MOL0     C 5488   5.552   3.741   6.032  0.8624  0.3816  0.9609
  765MOL0     C 5489   5.611   3.851   5.968 -0.4853  0.0138  0.5251
  765MOL0     C 5490   5.540   3.974   5.967 -0.2723  0.7526  0.5616
  765MOL0     O 5491   5.570   4.087   5.898  0.2117 -0.6268  0.2917
  765MOL0     C 5492   5.688   4.093   5.810  0.0278 -0.9631  0.3326
  765MOL0     C 5493   5.661   4.026   5.675 -0.9197 -1.0403 -0.7710
  765MOL0     C 5494   5.536   4.092   5.608 -0.8688 -0.7469  0.7769
  765MOL0     C 5495   5.518   4.085   5.452 -0.2640 -0.3526 -0.4644
  765MOL0     C 5496   5.618   4.165   5.381  1.5337  0.7883 -0.2652
  765MOL0     C 5497   5.703   4.218   5.309 -0.1374 -0.0797 -0.2992
  765MOL0     C 5498   5.415   3.977   6.035 -0.3783 -0.0223  0.2357
  765MOL0     C 5499   5.357   3.863   6.096 -0.0654  0.1673 -0.7209
  765MOL0     C 5500   5.227   3.885   6.158  0.7851  0.3927  0.7986
  765MOL0     H 5501   5.422   3.452   6.405  2.4700 -0.3127  1.3828
  765MOL0     H 5502   5.435   3.227   6.499 -2.7102 -3.2604  0.7204
  765MOL0     H 5503   5.618   2.917   6.336 -1.3341 -0.2898 -0.9291
  765MOL0     H 5504   5.490   2.863   6.235 -1.0642  2.4507 -0.0538
  765MOL0     H 5505   5.522   2.819   6.546 -0.3749 -0.4908  0.1921
  765MOL0     H 5506   5.399   2.739   6.458  0.4625 -0.4037  2.8537
  765MOL0     H 5507   5.575   2.637   6.310  2.5909  0.6518 -0.5998
  765MOL0     H 5508   5.689   2.734   6.402  1.0370 -1.5430  2.5067
  765MOL0     H 5509   5.646   2.631   6.605  0.2886  0.7752 -0.4105
  765MOL0     H 5510   5.498   2.551   6.557 -0.5772 -0.8128 -1.2144
  765MOL0     H 5511   5.742   2.462   6.405  1.8977 -0.8070  0.9749
  765MOL0     H 5512   5.587   2.380   6.443  0.5447  0.4112 -3.0333
  765MOL0     H 5513   5.817   2.446   6.638  0.1446  1.2231 -0.8237
  765MOL0     H 5514   5.661   2.365   6.678  2.0788 -0.6568  1.9578
  765MOL0     H 5515   5.884   2.212   6.638 -0.9782  1.4318  1.4692
  765MOL0     H 5516   5.861   2.275   6.476  0.1014  0.0892  0.2560
  765MOL0     H 5517   5.632   2.103   6.611 -1.9304 -1.3868 -1.4572
  765MOL0     H 5518   5.627   2.157   6.451  2.0807 -0.7196 -1.4489
  765MOL0     H 5519   5.919   2.088   6.321  0.4679  1.1896  1.8358
  765MOL0     H 5520   6.018   1.846   6.204 -0.1794 -1.7628  0.6497
  765MOL0     H 5521   6.074   1.747   6.339 -0.7977  0.6238  0.1415
  765MOL0     H 5522   6.166   2.001   6.392  1.5011 -0.6176  0.4467
  765MOL0     H 5523   6.256   1.861   6.360  1.6144 -0.6119 -3.7327
  765MOL0     H 5524   6.304   2.051   6.210  1.2988  0.2123 -2.9510
  765MOL0     H 5525   6.275   1.890   6.130  0.0894 -0.9502  1.8428
  765MOL0     H 5526   6.211   2.061   5.995  1.0610  2.2542 -0.7426
  765MOL0     H 5527   6.055   1.992   6.059  0.8270 -0.5897  0.9817
  765MOL0     H 5528   5.987   2.397   6.255 -0.1659  2.9687  0.3875
  765MOL0     H 5529   5.888   2.714   6.087 -0.3731  1.2561  1.6677
  765MOL0     H 5530   6.012   2.671   6.209  1.2840 -1.3789 -2.2548
  765MOL0     H 5531   5.866   2.586   6.226  0.0578 -0.6867  0.8024
  765MOL0     H 5532   6.175   2.715   5.552 -1.3215 -0.6213 -2.0342
  765MOL0     H 5533   6.160   2.919   5.409  0.0036 -1.5540 -0.3807
  765MOL0     H 5534   5.980   3.194   5.241 -0.3102 -1.2094 -2.7321
  765MOL0     H 5535   6.126   3.129   5.305 -0.6203  1.6111  2.6002
  765MOL0     H 5536   6.056   3.066   5.078  2.0800  0.5052  1.3631
  765MOL0     H 5537   6.075   2.920   5.167 -1.0603 -1.4780 -1.2805
  765MOL0     H 5538   5.799   3.059   5.114 -1.1536 -0.4191 -0.8019
  765MOL0     H 5539   5.832   2.914   5.222  3.2841 -0.5285  1.1532
  765MOL0     H 5540   5.920   2.814   5.004 -0.9560 -1.0878  1.0748
  765MOL0     H 5541   5.865   2.959   4.919  1.3193 -0.8279  0.9139
  765MOL0     H 5542   5.699   2.761   4.910  1.1539  0.0529  0.5865
  765MOL0     H 5543   5.703   2.748   5.085 -0.4587  0.5485  0.4283
  765MOL0     H 5544   5.584   2.978   4.939  1.9591  1.1024  0.6031
  765MOL0     H 5545   5.593   2.962   5.114 -0.7784 -0.6900  0.2896
  765MOL0     H 5546   5.363   2.906   5.010 -1.6712 -2.1969 -0.1494
  765MOL0     H 5547   5.437   2.784   5.125  2.6049  0.4637  0.9981
  765MOL0     H 5548   5.501   2.649   4.939  0.3005 -1.7211 -1.9567
  765MOL0     H 5549   5.419   2.756   4.824  0.5507  4.1840  1.1452
  765MOL0     H 5550   5.745   2.974   5.567 -0.8531 -1.0799 -2.6264
  765MOL0     H 5551   5.779   2.775   5.694 -2.5708  2.5376 -0.6426
  765MOL0     H 5552   6.120   2.427   5.784  1.0774  1.6967  1.1284
  765MOL0     H 5553   6.143   2.206   5.895 -1.3927 -2.3116  1.3672
  765MOL0     H 5554   5.402   3.059   6.094 -0.4236  1.0583  0.2660
  765MOL0     H 5555   5.428   3.296   6.009  2.2006 -2.1846 -0.6784
  765MOL0     H 5556   5.611   3.650   6.027  0.6825  0.3248 -0.7571
  765MOL0     H 5557   5.709   3.830   5.928 -0.7302 -0.8267  0.3614
  765MOL0     H 5558   5.709   4.199   5.792  1.1455 -1.1197  0.6838
  765MOL0     H 5559   5.766   4.046   5.871  0.7359  0.8834  0.9140
  765MOL0     H 5560   5.660   3.919   5.696  0.5130 -1.0033 -0.4245
  765MOL0     H 5561   5.754   4.034   5.616  1.0802 -0.2809  2.2537
  765MOL0     H 5562   5.448   4.045   5.653 -0.4859 -1.8782  0.3596
  765MOL0     H 5563   5.529   4.199   5.634 -3.2928 -0.4457 -0.7492
  765MOL0     H 5564   5.419   4.124   5.429 -0.0766  1.1276  1.0102
  765MOL0     H 5565   5.524   3.978   5.430 -0.8430 -0.8726  1.7044
  765MOL0     H 5566   5.779   4.264   5.249 -0.5757  3.2955  1.5262
  765MOL0     H 5567   5.355   4.068   6.036  1.1112  1.0086  2.2594
  765MOL0     H 5568   5.222   3.891   6.267 -1.6475 -0.8737  0.8278
  765MOL0     H 5569   5.184   3.972   6.107  0.8057  0.1626  0.3781
  765MOL0     H 5570   5.163   3.799   6.134 -1.3178  1.3412  2.6598
  766MOL0     O 5571  10.344   4.149   5.868 -0.0249 -0.5051 -0.0446
  766MOL0     C 5572  10.351   4.032   5.846  0.4249  0.2524 -0.0009
  766MOL0     O 5573  10.445   3.954   5.899  0.3788 -0.5162  0.4038
  766MOL0     C 5574  10.542   3.998   5.992 -0.1349 -0.5331 -0.1009
  766MOL0     C 5575  10.669   4.041   5.939 -0.0117  1.0291  0.0902
  766MOL0     C 5576  10.764   4.098   6.021 -0.1686  0.4515  0.1413
  766MOL0     C 5577  10.726   4.130   6.148  0.0964 -0.2082 -1.3567
  766MOL0     O 5578  10.804   4.183   6.249  0.3635 -0.3005 -0.2470
  766MOL0     C 5579  10.948   4.175   6.254  0.7185 -1.1585  0.8793
  766MOL0     C 5580  11.017   4.152   6.390 -0.5640 -0.2747  0.7462
  766MOL0     C 5581  11.042   4.288   6.452  0.5150 -0.1771  0.4308
  766MOL0     C 5582  11.027   4.289   6.610  0.6514  0.3479  0.5377
  766MOL0     C 5583  11.094   4.413   6.668  0.7261 -0.2198 -0.9594
  766MOL0     C 5584  11.084   4.410   6.828 -0.1598 -0.6162  0.0434
  766MOL0     C 5585  11.198   4.500   6.891  0.7327  0.6749  0.6169
  766MOL0     C 5586  11.290   4.418   6.984  0.3597 -0.0175 -0.5869
  766MOL0     N 5587  11.259   4.395   7.123  0.6926  0.6092  0.0092
  766MOL0     C 5588  11.166   4.462   7.204  0.3927  0.5126  0.3292
  766MOL0     C 5589  11.179   4.418   7.334 -0.2348  0.5816  0.8897
  766MOL0     C 5590  11.118   4.463   7.462 -0.8346 -0.2962 -0.3907
  766MOL0     C 5591  11.209   4.572   7.532  0.5854 -0.6546  0.3724
  766MOL0     C 5592  11.129   4.637   7.639  0.3454  0.2231  0.4542
  766MOL0     C 5593  11.176   4.775   7.694 -0.2547 -0.3621  0.5619
  766MOL0     O 5594  11.120   4.805   7.815  0.2205 -0.4942 -0.1665
  766MOL0     C 5595  11.164   4.921   7.875 -0.7897 -0.7225 -0.0975
  766MOL0     C 5596  11.263   5.008   7.833 -0.2635 -0.6646 -0.7259
  766MOL0     C 5597  11.286   5.131   7.909 -0.3679  0.5811  1.7906
  766MOL0     C 5598  11.400   5.229   7.853  0.2525  0.0816  0.3418
  766MOL0     C 5599  11.193   5.161   8.009 -0.3052  0.1165  0.3034
  766MOL0     C 5600  11.197   5.284   8.093 -0.3278  0.2250 -0.5498
  766MOL0     O 5601  11.321   5.351   8.110  0.9814  0.0641  0.1196
  766MOL0     C 5602  11.338   5.479   8.151 -1.2647 -0.0185 -0.1008
  766MOL0     C 5603  11.264   5.539   8.257 -0.4566  0.8988  0.9097
  766MOL0     C 5604  11.290   5.676   8.297 -0.5638  0.7137 -0.1298
  766MOL0     C 5605  11.400   5.745   8.247 -0.7547  0.2071 -0.6658
  766MOL0     O 5606  11.437   5.870   8.286 -0.7664 -0.2317  0.3239
  766MOL0     C 5607  11.544   5.866   8.374  0.5141  0.2129 -0.1938
  766MOL0     C 5608  11.502   5.817   8.512  0.2476  0.3068 -0.4444
  766MOL0     C 5609  11.414   5.913   8.594  0.7575 -0.0062 -1.7232
  766MOL0     C 5610  11.379   5.857   8.734 -0.3740  0.0996 -1.0152
  766MOL0     C 5611  11.234   5.896   8.783  0.6195 -0.1542 -0.1688
  766MOL0     C 5612  11.131   5.783   8.740  0.3271 -0.4036 -0.1327
  766MOL0     C 5613  10.992   5.844   8.767 -0.1250 -0.6853  0.0714
  766MOL0     C 5614  10.890   5.769   8.690 -0.1887  0.1382 -0.2125
  766MOL0    Cl 5615  10.927   5.659   8.555 -0.0397  0.5049 -0.4580
  766MOL0     C 5616  11.487   5.670   8.166  0.3280 -0.3855  0.8819
  766MOL0     C 5617  11.455   5.546   8.114  0.0552 -0.1021  0.5845
  766MOL0     O 5618  11.093   5.330   8.132  0.0615  0.9472  0.2167
  766MOL0     C 5619  11.104   5.066   8.045 -0.7749  0.7710 -0.2602
  766MOL0     C 5620  11.089   4.951   7.982  0.8477 -0.5614  0.3716
  766MOL0     N 5621  11.271   4.318   7.330  0.0184  0.1313  0.6671
  766MOL0     N 5622  11.316   4.306   7.210 -0.2241  0.0932  0.0718
  766MOL0     C 5623  10.603   4.088   6.203 -0.8205  0.3555 -0.1974
  766MOL0     C 5624  10.505   4.033   6.120 -0.2377 -1.2708 -0.4983
  766MOL0     C 5625  10.237   3.964   5.783  0.0328  0.5177  0.1973
  766MOL0     C 5626  10.228   3.821   5.789 -1.1899  0.9164  0.0523
  766MOL0     C 5627  10.136   3.743   5.728 -0.3481 -0.2075  0.1151
  766MOL0     C 5628  10.023   3.805   5.668  0.6436  0.2330 -0.1431
  766MOL0     O 5629   9.916   3.745   5.617  0.5307  0.1770  0.6125
  766MOL0     C 5630   9.937   3.674   5.497 -0.3484 -0.7288  0.0632
  766MOL0     C 5631   9.807   3.631   5.432 -0.1594  0.8269 -0.3082
  766MOL0     C 5632   9.830   3.563   5.294  0.1933  0.2954 -1.0996
  766MOL0     C 5633   9.702   3.500   5.247 -0.4576  0.1353 -0.5489
  766MOL0     C 5634   9.605   3.602   5.221 -0.6588  0.1615  0.3441
  766MOL0     C 5635   9.524   3.690   5.203  0.5001 -0.3511  0.9947
  766MOL0     C 5636  10.024   3.944   5.652  0.2845  0.4775  0.2881
  766MOL0     C 5637  10.135   4.024   5.703  0.4832 -0.2226 -0.5114
  766MOL0     C 5638  10.119   4.174   5.672 -0.8087  0.8848  0.6421
  766MOL0     H 5639  10.689   4.007   5.838  0.4433  2.3034 -0.2685
  766MOL0     H 5640  10.865   4.116   5.988  0.1524  0.4495  1.1158
  766MOL0     H 5641  10.990   4.256   6.195  0.9105 -2.1722 -0.4294
  766MOL0     H 5642  10.972   4.090   6.190 -1.1291 -1.0056 -0.0792
  766MOL0     H 5643  10.956   4.092   6.459 -0.3963 -2.5652 -0.9806
  766MOL0     H 5644  11.109   4.095   6.375 -0.3603  0.9163 -3.8691
  766MOL0     H 5645  11.143   4.321   6.425  0.5698 -0.9857 -0.3776
  766MOL0     H 5646  10.973   4.359   6.405  1.8245 -0.0892 -1.4909
  766MOL0     H 5647  10.923   4.280   6.640  0.7522  0.9209  1.0889
  766MOL0     H 5648  11.079   4.199   6.645  1.6746  0.4461 -0.6788
  766MOL0     H 5649  11.043   4.501   6.627 -0.2736 -0.4855 -0.3344
  766MOL0     H 5650  11.197   4.402   6.632  1.6076 -0.3376  1.4269
  766MOL0     H 5651  10.994   4.464   6.858  1.2994  0.3995  2.8912
  766MOL0     H 5652  11.073   4.313   6.877 -4.2959  1.7157  4.5362
  766MOL0     H 5653  11.153   4.586   6.942  1.5682  1.3380  0.2603
  766MOL0     H 5654  11.249   4.544   6.805 -0.4404  2.4004  0.7491
  766MOL0     H 5655  11.300   4.313   6.953  1.0262 -0.2087  0.2415
  766MOL0     H 5656  11.385   4.467   6.962  0.7241  0.8013  2.3554
  766MOL0     H 5657  11.103   4.549   7.187 -0.5657 -0.0802  0.7525
  766MOL0     H 5658  11.112   4.378   7.530 -0.4017  0.6319  0.8575
  766MOL0     H 5659  11.021   4.497   7.424 -1.3232 -1.9335 -0.6809
  766MOL0     H 5660  11.302   4.534   7.574  0.0318 -3.2630 -0.5309
  766MOL0     H 5661  11.228   4.653   7.461 -0.8000 -0.3675  0.2824
  766MOL0     H 5662  11.022   4.647   7.618  0.1850 -1.3404  0.3620
  766MOL0     H 5663  11.135   4.566   7.723 -0.3623 -1.1085 -0.5722
  766MOL0     H 5664  11.284   4.778   7.710 -0.4215 -0.2352  1.7439
  766MOL0     H 5665  11.156   4.852   7.619  2.8857  1.5274  1.4706
  766MOL0     H 5666  11.326   4.984   7.748  0.5693  0.0673 -0.3304
  766MOL0     H 5667  11.379   5.334   7.877  0.8111  0.9261 -2.5552
  766MOL0     H 5668  11.418   5.222   7.746  0.9093  0.8279  0.3920
  766MOL0     H 5669  11.491   5.210   7.911  1.0495  0.0722 -0.8794
  766MOL0     H 5670  11.183   5.490   8.311 -0.6353  1.5918  1.2776
  766MOL0     H 5671  11.214   5.731   8.352 -0.5427 -1.4371  2.2377
  766MOL0     H 5672  11.628   5.801   8.349 -1.4328 -2.8529  0.5912
  766MOL0     H 5673  11.597   5.961   8.374 -0.9239  1.1346  2.6823
  766MOL0     H 5674  11.450   5.722   8.505  1.0982 -0.1280 -1.0642
  766MOL0     H 5675  11.596   5.806   8.568  0.4265 -0.3775 -0.8713
  766MOL0     H 5676  11.322   5.939   8.541 -1.8225 -0.5194  2.1021
  766MOL0     H 5677  11.475   6.002   8.616 -0.4909  0.3165  0.6901
  766MOL0     H 5678  11.444   5.885   8.817  0.2442  1.0240 -1.7969
  766MOL0     H 5679  11.373   5.748   8.734  2.3098 -0.1105 -1.6717
  766MOL0     H 5680  11.229   5.900   8.892  1.4200 -0.5426 -0.1148
  766MOL0     H 5681  11.202   5.994   8.745 -1.4790  1.6451  5.2134
  766MOL0     H 5682  11.137   5.686   8.790 -0.3078 -0.3109  0.1339
  766MOL0     H 5683  11.156   5.773   8.634  0.8042 -0.2940 -0.0323
  766MOL0     H 5684  10.985   5.950   8.742 -1.7114 -0.0543  2.7429
  766MOL0     H 5685  10.965   5.844   8.873 -0.0634 -0.5697  0.0877
  766MOL0     H 5686  10.808   5.834   8.659  0.8698  1.8395  0.3818
  766MOL0     H 5687  10.842   5.696   8.755 -0.5332  1.3916  0.9693
  766MOL0     H 5688  11.578   5.717   8.129 -0.3869 -0.2548 -0.7831
  766MOL0     H 5689  11.526   5.497   8.048 -0.1476  1.0124 -0.5130
  766MOL0     H 5690  11.040   5.087   8.131 -2.3790 -0.7410 -1.0346
  766MOL0     H 5691  11.012   4.884   8.017  0.6398 -1.6254 -1.8941
  766MOL0     H 5692  10.581   4.093   6.309 -1.4941 -0.8009 -0.2696
  766MOL0     H 5693  10.406   4.003   6.154  0.4079 -2.8930  0.0411
  766MOL0     H 5694  10.306   3.763   5.837  0.0764  0.7472 -2.0681
  766MOL0     H 5695  10.148   3.635   5.728  0.1806 -0.1813 -1.4235
  766MOL0     H 5696   9.995   3.735   5.427 -2.2125  1.8394  0.5798
  766MOL0     H 5697   9.996   3.587   5.528  0.1352  0.5274  3.0819
  766MOL0     H 5698   9.725   3.702   5.422 -2.3919 -1.2538  1.7319
  766MOL0     H 5699   9.758   3.559   5.499  0.1898 -1.3277 -2.2401
  766MOL0     H 5700   9.865   3.651   5.239  0.7125  0.5318 -0.4119
  766MOL0     H 5701   9.906   3.484   5.294 -1.1994 -1.1456  0.5412
  766MOL0     H 5702   9.668   3.432   5.325  1.7969  0.6313  0.9831
  766MOL0     H 5703   9.723   3.449   5.152  2.3742  1.7204 -0.8860
  766MOL0     H 5704   9.454   3.770   5.188  0.2851 -0.6279  0.5103
  766MOL0     H 5705   9.964   3.998   5.580  1.0993  0.1165 -0.6854
  766MOL0     H 5706  10.080   4.228   5.759 -1.8810  1.5512 -0.2185
  766MOL0     H 5707  10.212   4.226   5.647 -3.2384  4.6619 -1.5239
  766MOL0     H 5708  10.065   4.203   5.581 -0.0468  0.3590  0.0107
  767MOL0     O 5709   3.301  11.221   8.977  0.7248 -0.0203 -0.5399
  767MOL0     C 5710   3.346  11.118   9.020  0.1139  0.8871 -0.1689
  767MOL0     O 5711   3.272  10.999   9.032  0.7607  0.1511 -0.3040
  767MOL0     C 5712   3.146  10.991   8.992 -0.8645 -0.2505 -0.5847
  767MOL0     C 5713   3.039  10.984   9.079  0.2897  0.1580 -0.8914
  767MOL0     C 5714   2.911  11.006   9.035  0.4067  0.8771  0.3388
  767MOL0     C 5715   2.884  11.023   8.895 -0.4031  0.6070  0.3591
  767MOL0     O 5716   2.765  11.035   8.832  0.7482  0.0964  0.0950
  767MOL0     C 5717   2.655  10.957   8.893 -0.2749 -0.7403  0.1512
  767MOL0     C 5718   2.598  10.878   8.783 -0.7101  0.2145  0.7318
  767MOL0     C 5719   2.451  10.837   8.804  0.2824 -0.2225 -1.4294
  767MOL0     C 5720   2.438  10.753   8.935 -0.3755  0.7635 -0.0794
  767MOL0     C 5721   2.288  10.751   8.971  1.0378 -0.2930  1.3340
  767MOL0     C 5722   2.261  10.642   9.072 -0.2254 -1.1332 -0.2359
  767MOL0     C 5723   2.117  10.640   9.094 -0.0402 -0.0303  0.1195
  767MOL0     C 5724   2.086  10.553   9.210  0.0327 -0.7093  0.0403
  767MOL0     N 5725   1.946  10.559   9.261 -0.6390 -0.0639  0.8143
  767MOL0     C 5726   1.873  10.673   9.283  0.2947 -0.6465  1.0784
  767MOL0     C 5727   1.762  10.620   9.343  0.3063  0.6422  0.2583
  767MOL0     C 5728   1.652  10.720   9.388  0.1910  1.3631  0.3359
  767MOL0     C 5729   1.689  10.873   9.391  0.1786 -0.1287 -0.2902
  767MOL0     C 5730   1.793  10.907   9.508 -0.0328  0.7022  0.0032
  767MOL0     C 5731   1.749  10.850   9.643 -0.8424 -0.2348 -0.1038
  767MOL0     O 5732   1.794  10.935   9.750 -0.7340 -0.6155 -0.1691
  767MOL0     C 5733   1.753  10.913   9.877 -0.1147  0.4160  0.4576
  767MOL0     C 5734   1.803  11.001   9.976 -0.1024  0.2221  0.7252
  767MOL0     C 5735   1.753  10.994  10.107 -0.3150 -0.1692  0.6775
  767MOL0     C 5736   1.805  11.092  10.219  0.3363  0.4434 -0.4006
  767MOL0     C 5737   1.654  10.893  10.142  0.6447 -0.6002 -0.3237
  767MOL0     C 5738   1.598  10.877  10.283 -0.1913  0.1906  0.2336
  767MOL0     O 5739   1.547  10.754  10.316 -0.4872 -0.1182 -0.2033
  767MOL0     C 5740   1.512  10.734  10.450 -0.9710 -0.1145 -0.4573
  767MOL0     C 5741   1.596  10.757  10.558  0.6544 -0.3238 -1.1517
  767MOL0     C 5742   1.557  10.732  10.695  0.7010 -0.1101 -0.0995
  767MOL0     C 5743   1.420  10.712  10.721 -0.3085  1.3790  0.0425
  767MOL0     O 5744   1.364  10.707  10.844  0.0181 -0.4319 -0.1368
  767MOL0     C 5745   1.435  10.656  10.964 -0.4534 -0.0236 -0.0275
  767MOL0     C 5746   1.513  10.771  11.037  0.6386  1.3207  0.2300
  767MOL0     C 5747   1.416  10.894  11.055 -0.2038 -0.4889  0.5973
  767MOL0     C 5748   1.317  10.874  11.169 -0.1427 -0.4617 -0.1325
  767MOL0     C 5749   1.260  11.007  11.225  0.3661  0.4087 -0.7028
  767MOL0     C 5750   1.216  11.112  11.120  0.2686  0.6704 -0.4373
  767MOL0     C 5751   1.146  11.237  11.182  0.0729  0.1166  1.0957
  767MOL0     C 5752   1.148  11.355  11.085  0.2055 -1.2266  0.1988
  767MOL0    Cl 5753   1.067  11.309  10.931 -0.0350 -0.1122 -0.1830
  767MOL0     C 5754   1.332  10.698  10.618 -0.0419 -0.0482  0.6682
  767MOL0     C 5755   1.377  10.698  10.482 -1.1651 -0.1092 -0.3779
  767MOL0     O 5756   1.584  10.979  10.345 -0.2351  0.2300  0.9226
  767MOL0     C 5757   1.619  10.805  10.043 -0.5471  0.3397 -0.9005
  767MOL0     C 5758   1.661  10.812   9.920  0.1754  0.7042 -0.6266
  767MOL0     N 5759   1.757  10.480   9.354  0.6529 -0.6654 -0.7519
  767MOL0     N 5760   1.871  10.453   9.307  1.2771  0.4107  0.0392
  767MOL0     C 5761   2.986  11.032   8.809 -0.2111  0.2665 -0.1517
  767MOL0     C 5762   3.114  11.019   8.855 -0.0345  0.1068 -0.6355
  767MOL0     C 5763   3.480  11.122   9.088  0.4860  0.3210 -0.0184
  767MOL0     C 5764   3.534  10.992   9.115  0.0829  0.5894  0.5367
  767MOL0     C 5765   3.656  10.980   9.184 -0.1735  0.1094  0.7620
  767MOL0     C 5766   3.713  11.094   9.239 -0.0951  0.7357 -0.5000
  767MOL0     O 5767   3.821  11.086   9.320 -0.4718  0.7853 -0.4491
  767MOL0     C 5768   3.856  10.962   9.394  0.2243 -0.0274  0.4622
  767MOL0     C 5769   3.887  10.999   9.540 -0.0077 -0.1864 -0.1719
  767MOL0     C 5770   3.993  11.115   9.554  0.7328 -0.5361 -0.6251
  767MOL0     C 5771   4.123  11.087   9.493 -0.0774  0.2166  0.4019
  767MOL0     C 5772   4.230  11.179   9.550 -0.0329  0.1281 -0.3248
  767MOL0     C 5773   4.304  11.271   9.598  0.5878  1.3594  0.3930
  767MOL0     C 5774   3.658  11.216   9.212 -0.7410 -0.4140 -0.7020
  767MOL0     C 5775   3.549  11.238   9.126  0.0602  0.3198  0.0221
  767MOL0     C 5776   3.502  11.383   9.098  0.3852 -0.3985 -0.1685
  767MOL0     H 5777   3.043  10.962   9.185 -0.2365  0.9424 -0.7020
  767MOL0     H 5778   2.834  11.020   9.109 -0.9131 -3.0914 -0.0304
  767MOL0     H 5779   2.578  11.021   8.938 -0.7831 -0.1942 -1.4105
  767MOL0     H 5780   2.688  10.899   8.979 -1.3598 -1.4392  0.1144
  767MOL0     H 5781   2.602  10.945   8.696  0.4048 -0.6765  0.0628
  767MOL0     H 5782   2.671  10.798   8.768  2.3888  2.8969  0.2641
  767MOL0     H 5783   2.377  10.917   8.811 -1.7812 -2.1170  0.8440
  767MOL0     H 5784   2.412  10.781   8.718 -2.8889 -0.6512  0.1361
  767MOL0     H 5785   2.458  10.652   8.897  0.4182  2.2081 -3.9889
  767MOL0     H 5786   2.505  10.779   9.017 -0.4597 -0.1760  0.3031
  767MOL0     H 5787   2.221  10.741   8.885  3.3221  2.0362 -0.8908
  767MOL0     H 5788   2.265  10.852   9.007  2.8104  1.9139 -2.9774
  767MOL0     H 5789   2.285  10.541   9.039 -0.9111 -1.0817 -0.9220
  767MOL0     H 5790   2.305  10.672   9.168 -0.2831  0.5037 -0.6938
  767MOL0     H 5791   2.063  10.601   9.007 -1.5484  3.5254 -0.7285
  767MOL0     H 5792   2.086  10.744   9.108 -1.2574 -0.3548 -0.0249
  767MOL0     H 5793   2.114  10.451   9.184 -1.8946 -0.5188 -3.4326
  767MOL0     H 5794   2.158  10.588   9.285  1.7821  0.2434 -1.9571
  767MOL0     H 5795   1.909  10.770   9.248 -1.0014  1.0141  4.0465
  767MOL0     H 5796   1.632  10.696   9.493 -0.8437  0.6878  0.0041
  767MOL0     H 5797   1.566  10.693   9.325  2.2970 -3.1474 -1.0245
  767MOL0     H 5798   1.731  10.917   9.300  0.3474  0.2228 -0.0457
  767MOL0     H 5799   1.598  10.932   9.404  0.5108  0.8070 -2.0113
  767MOL0     H 5800   1.891  10.865   9.481 -0.7641 -0.6450 -0.6647
  767MOL0     H 5801   1.805  11.016   9.508  0.8407  0.6873 -2.7756
  767MOL0     H 5802   1.640  10.850   9.651 -1.1143  1.1487 -2.6006
  767MOL0     H 5803   1.783  10.748   9.660  0.7410  0.4409  0.9448
  767MOL0     H 5804   1.868  11.082   9.944 -0.5993  0.7493  1.0320
  767MOL0     H 5805   1.728  11.161  10.252  0.9618  1.0699 -0.2176
  767MOL0     H 5806   1.889  11.154  10.184 -0.8074  1.7829 -0.8587
  767MOL0     H 5807   1.841  11.022  10.295  1.9060 -1.0749 -2.3827
  767MOL0     H 5808   1.692  10.806  10.545 -1.5620  4.7764 -0.7476
  767MOL0     H 5809   1.630  10.762  10.770  2.9032  0.4189 -2.3221
  767MOL0     H 5810   1.360  10.622  11.036  1.5551 -1.8216  1.3288
  767MOL0     H 5811   1.487  10.563  10.938 -2.4656 -0.8277 -1.3841
  767MOL0     H 5812   1.557  10.735  11.130 -1.1687  1.2028  1.0807
  767MOL0     H 5813   1.597  10.802  10.974 -1.6392  0.6851 -3.4657
  767MOL0     H 5814   1.357  10.908  10.964 -1.4704  1.2132  1.6254
  767MOL0     H 5815   1.474  10.984  11.081 -2.5569  0.6841  2.0729
  767MOL0     H 5816   1.365  10.811  11.244  0.8749 -1.9962 -1.9640
  767MOL0     H 5817   1.235  10.818  11.124  1.1160 -1.3981 -1.3631
  767MOL0     H 5818   1.167  10.993  11.282 -0.4696 -2.3120 -2.5269
  767MOL0     H 5819   1.340  11.048  11.286  0.1758 -0.9129  0.4953
  767MOL0     H 5820   1.156  11.055  11.049 -1.1950 -0.4665  1.6059
  767MOL0     H 5821   1.309  11.146  11.073  2.0774  0.7097  2.8533
  767MOL0     H 5822   1.191  11.262  11.279 -0.4741  1.3996  1.0467
  767MOL0     H 5823   1.041  11.217  11.208  0.5432 -0.2952  2.8564
  767MOL0     H 5824   1.245  11.400  11.064 -0.8057  0.8212 -0.3243
  767MOL0     H 5825   1.087  11.432  11.133  3.2961  0.4120  1.8422
  767MOL0     H 5826   1.225  10.690  10.633 -0.6029  0.2510 -2.5365
  767MOL0     H 5827   1.307  10.676  10.403  1.2579  2.5081 -3.5147
  767MOL0     H 5828   1.548  10.728  10.073 -0.6495  0.7428 -0.0616
  767MOL0     H 5829   1.627  10.739   9.847  1.3513 -2.4962  1.7847
  767MOL0     H 5830   2.974  11.060   8.704  1.1116  0.5352 -0.2467
  767MOL0     H 5831   3.195  11.036   8.784  0.5969  1.7743  0.4286
  767MOL0     H 5832   3.497  10.898   9.076  0.2490  0.0262  1.7044
  767MOL0     H 5833   3.702  10.882   9.185  0.7706  0.5495  1.1785
  767MOL0     H 5834   3.780  10.883   9.391 -0.0892  0.2253  1.3548
  767MOL0     H 5835   3.943  10.916   9.346 -1.0538 -2.0869 -0.0031
  767MOL0     H 5836   3.927  10.913   9.595  0.0070 -0.4588 -0.5980
  767MOL0     H 5837   3.793  11.024   9.589  0.2090 -1.7101  1.0999
  767MOL0     H 5838   3.934  11.196   9.509  0.2271 -0.4241  0.2160
  767MOL0     H 5839   4.006  11.125   9.662  4.9336 -0.0033 -1.0079
  767MOL0     H 5840   4.115  11.111   9.386 -0.6898  1.4116  0.6951
  767MOL0     H 5841   4.159  10.989   9.523  2.5477  1.4139  1.5194
  767MOL0     H 5842   4.360  11.353   9.637  0.9931  0.2114  2.3364
  767MOL0     H 5843   3.703  11.294   9.273  0.7615 -1.6954 -0.0967
  767MOL0     H 5844   3.586  11.452   9.109  1.3842 -1.8609  2.2240
  767MOL0     H 5845   3.461  11.392   8.997 -1.0119  0.3036  0.4288
  767MOL0     H 5846   3.419  11.396   9.168 -1.0505 -4.3529 -0.8696
  768MOL0     O 5847   4.723   4.054   5.389 -0.5470 -0.2524 -0.3520
  768MOL0     C 5848   4.692   3.966   5.307 -0.6933 -0.3714  0.8097
  768MOL0     O 5849   4.576   3.984   5.222  0.2978 -0.5669 -0.1796
  768MOL0     C 5850   4.502   4.105   5.243 -0.1288  1.1761 -0.4269
  768MOL0     C 5851   4.492   4.197   5.138 -0.0531 -0.0370  0.1192
  768MOL0     C 5852   4.412   4.310   5.150 -0.1005 -0.0746  1.4141
  768MOL0     C 5853   4.327   4.321   5.256  0.1823  0.1323 -0.0297
  768MOL0     O 5854   4.253   4.425   5.280 -0.6944 -0.1866  0.2701
  768MOL0     C 5855   4.108   4.405   5.281  0.0468  0.4107  0.0239
  768MOL0     C 5856   4.055   4.427   5.145  0.1007 -0.1574 -0.0120
  768MOL0     C 5857   3.911   4.403   5.134  1.1037 -0.3759  0.3883
  768MOL0     C 5858   3.826   4.504   5.211  0.2197  0.2832 -0.4998
  768MOL0     C 5859   3.673   4.506   5.166 -0.3210 -0.2349  0.3355
  768MOL0     C 5860   3.642   4.613   5.063  0.1207 -0.9021  0.0697
  768MOL0     C 5861   3.495   4.642   5.073 -0.0208  0.3915 -0.5468
  768MOL0     C 5862   3.401   4.527   5.028 -0.9679  0.3598  0.1284
  768MOL0     N 5863   3.420   4.498   4.884  0.6334 -0.2773  0.1183
  768MOL0     C 5864   3.391   4.580   4.771  0.0321 -0.2420 -0.5845
  768MOL0     C 5865   3.413   4.499   4.668  0.1973 -0.2824  0.4980
  768MOL0     C 5866   3.400   4.527   4.522 -0.3774 -0.9149 -0.1790
  768MOL0     C 5867   3.537   4.554   4.454 -0.0594  0.2100  0.4095
  768MOL0     C 5868   3.525   4.614   4.312  0.3201 -0.1930  0.2770
  768MOL0     C 5869   3.443   4.742   4.302 -0.1362  0.4448 -0.6864
  768MOL0     O 5870   3.306   4.717   4.316 -0.1824  0.2067 -0.8068
  768MOL0     C 5871   3.225   4.829   4.298  1.4147  0.0762  0.3818
  768MOL0     C 5872   3.259   4.953   4.238 -0.7616  0.0006 -0.5260
  768MOL0     C 5873   3.164   5.053   4.234 -0.2033  0.2876 -0.5206
  768MOL0     C 5874   3.220   5.182   4.178  0.0844 -0.0010 -0.6275
  768MOL0     C 5875   3.031   5.028   4.275  0.5034  0.9757  0.4435
  768MOL0     C 5876   2.927   5.137   4.287 -1.2248  1.1560 -0.4258
  768MOL0     O 5877   2.911   5.225   4.177  0.5155 -0.3304 -0.3665
  768MOL0     C 5878   2.842   5.342   4.216 -0.6106 -0.1992 -0.2195
  768MOL0     C 5879   2.903   5.469   4.239 -0.4265 -0.8116  0.4224
  768MOL0     C 5880   2.830   5.587   4.253 -0.5700  0.7469  0.2632
  768MOL0     C 5881   2.689   5.582   4.262 -0.2044  0.0428 -0.2570
  768MOL0     O 5882   2.621   5.690   4.288 -0.2641 -1.1508 -0.4275
  768MOL0     C 5883   2.485   5.702   4.238 -0.1993 -0.4388  0.0755
  768MOL0     C 5884   2.409   5.812   4.313 -0.3034 -0.0159 -0.1547
  768MOL0     C 5885   2.492   5.951   4.314  0.7942  0.7198 -0.0833
  768MOL0     C 5886   2.412   6.076   4.359  0.4383  0.1050  0.2680
  768MOL0     C 5887   2.304   6.111   4.257  1.1297  0.2872 -0.8288
  768MOL0     C 5888   2.249   6.260   4.269 -0.4140  0.1706 -0.2748
  768MOL0     C 5889   2.300   6.360   4.160 -0.4584  0.0748  0.3557
  768MOL0     C 5890   2.201   6.478   4.136  0.5216  0.7106  0.2245
  768MOL0    Cl 5891   2.301   6.618   4.046 -0.5073  0.4502 -0.5605
  768MOL0     C 5892   2.627   5.452   4.249 -0.4820 -0.0747 -0.0605
  768MOL0     C 5893   2.701   5.336   4.222 -0.7283 -0.5461  0.3290
  768MOL0     O 5894   2.882   5.143   4.399 -0.2613  0.2807  0.4510
  768MOL0     C 5895   3.003   4.904   4.326 -0.0415 -0.3016 -0.6138
  768MOL0     C 5896   3.097   4.804   4.331 -0.2708 -0.2174  0.5733
  768MOL0     N 5897   3.457   4.377   4.710 -0.0095 -0.0731 -0.3459
  768MOL0     N 5898   3.454   4.375   4.839  0.4087 -0.4064 -0.1863
  768MOL0     C 5899   4.342   4.230   5.361  0.7116  1.0840 -0.8255
  768MOL0     C 5900   4.417   4.119   5.357 -0.8128 -0.9634 -0.6008
  768MOL0     C 5901   4.781   3.857   5.280  0.2664  0.4488  0.6312
  768MOL0     C 5902   4.799   3.817   5.147 -0.3013 -0.4069 -0.3964
  768MOL0     C 5903   4.893   3.711   5.122  0.4904 -0.7101 -0.1359
  768MOL0     C 5904   4.945   3.632   5.217 -0.6823 -0.3337 -0.4100
  768MOL0     O 5905   5.022   3.522   5.198  0.1571  0.6188 -0.2009
  768MOL0     C 5906   5.067   3.479   5.075  0.5646  0.3940  0.6353
  768MOL0     C 5907   5.191   3.397   5.103 -0.5764  0.6490  0.4889
  768MOL0     C 5908   5.255   3.338   4.977  0.2790  1.0412  0.3329
  768MOL0     C 5909   5.166   3.226   4.918 -0.3938  0.0839  0.4184
  768MOL0     C 5910   5.237   3.151   4.817  0.8999  1.0104  0.3606
  768MOL0     C 5911   5.311   3.102   4.733 -0.6247 -0.7181 -0.2672
  768MOL0     C 5912   4.919   3.674   5.353  0.4160 -0.0905  0.4926
  768MOL0     C 5913   4.846   3.790   5.388  0.1511 -0.2054  0.3759
  768MOL0     C 5914   4.827   3.810   5.540 -1.0800 -1.2772  0.8897
  768MOL0     H 5915   4.547   4.169   5.049 -2.1615 -1.7658 -0.7239
  768MOL0     H 5916   4.413   4.390   5.077 -1.7958 -1.8230 -0.6557
  768MOL0     H 5917   4.058   4.469   5.355 -2.3660 -0.5630 -0.6707
  768MOL0     H 5918   4.086   4.304   5.315  0.8043  0.3834  0.4455
  768MOL0     H 5919   4.086   4.525   5.107 -0.0058  0.4064  1.2955
  768MOL0     H 5920   4.104   4.359   5.076  1.0108  1.9381 -1.5576
  768MOL0     H 5921   3.887   4.405   5.028  2.5577 -1.1335  0.0265
  768MOL0     H 5922   3.897   4.298   5.161  3.1836 -1.8602 -3.6307
  768MOL0     H 5923   3.838   4.473   5.315  2.5334  0.2610 -0.7248
  768MOL0     H 5924   3.860   4.608   5.202 -3.1685  1.6159  0.5278
  768MOL0     H 5925   3.605   4.536   5.246 -0.7758 -0.1786 -0.0686
  768MOL0     H 5926   3.652   4.411   5.116  0.0417 -0.5449  0.7644
  768MOL0     H 5927   3.690   4.710   5.082  0.6594 -1.2235  0.3879
  768MOL0     H 5928   3.671   4.582   4.962  0.4803  1.1499 -0.5082
  768MOL0     H 5929   3.468   4.717   4.998  1.2461 -0.7689 -2.2450
  768MOL0     H 5930   3.466   4.669   5.175 -0.7464 -1.3560 -0.2589
  768MOL0     H 5931   3.420   4.435   5.083 -0.1438 -0.2335 -1.1109
  768MOL0     H 5932   3.299   4.565   5.040 -0.3820  2.1416 -0.2152
  768MOL0     H 5933   3.355   4.682   4.777 -3.4335 -1.4437  1.9385
  768MOL0     H 5934   3.339   4.617   4.511 -0.8004 -1.1056  0.5251
  768MOL0     H 5935   3.350   4.449   4.464  0.7637 -2.0544  0.3160
  768MOL0     H 5936   3.600   4.622   4.512 -1.9528  2.5881 -0.1572
  768MOL0     H 5937   3.588   4.457   4.447 -1.0948 -0.3096 -0.1559
  768MOL0     H 5938   3.621   4.628   4.262  0.1773 -1.6750 -0.4430
  768MOL0     H 5939   3.484   4.537   4.246  0.2722  1.0089 -1.1536
  768MOL0     H 5940   3.475   4.805   4.387 -0.6467 -0.1841 -0.0179
  768MOL0     H 5941   3.476   4.793   4.211  0.3198  2.7291  0.6664
  768MOL0     H 5942   3.360   4.971   4.204  0.1894 -1.6288  1.2312
  768MOL0     H 5943   3.209   5.180   4.070 -3.1005 -1.2807 -0.3696
  768MOL0     H 5944   3.323   5.196   4.213  0.3828 -0.2988 -1.3808
  768MOL0     H 5945   3.159   5.269   4.205  1.5227  0.4992  1.3127
  768MOL0     H 5946   3.011   5.478   4.241 -0.2887 -2.1186  2.4764
  768MOL0     H 5947   2.885   5.679   4.266  1.4125 -0.1148 -1.3953
  768MOL0     H 5948   2.490   5.732   4.133 -0.5494 -1.1556 -0.1557
  768MOL0     H 5949   2.418   5.616   4.247  0.3316 -0.6737  2.3935
  768MOL0     H 5950   2.304   5.825   4.288 -1.4882 -1.4356  3.3769
  768MOL0     H 5951   2.412   5.790   4.421  1.3071 -0.0632 -0.1795
  768MOL0     H 5952   2.534   5.969   4.215 -0.5773  0.1975 -0.7866
  768MOL0     H 5953   2.577   5.941   4.382  1.8393  1.1797 -1.3010
  768MOL0     H 5954   2.477   6.164   4.358  1.7041 -0.7346 -2.5729
  768MOL0     H 5955   2.370   6.045   4.455 -0.0235 -3.4000 -0.9449
  768MOL0     H 5956   2.327   6.093   4.152 -1.8205 -0.1994 -1.4839
  768MOL0     H 5957   2.221   6.042   4.273  2.1128 -0.7656 -0.1539
  768MOL0     H 5958   2.252   6.295   4.372  2.0017  1.0794 -0.6088
  768MOL0     H 5959   2.141   6.242   4.257 -0.2685 -0.9273 -0.0517
  768MOL0     H 5960   2.289   6.323   4.058  2.6352  2.0816 -0.8446
  768MOL0     H 5961   2.407   6.382   4.158 -0.4225 -0.1208  0.0280
  768MOL0     H 5962   2.154   6.519   4.226 -0.7213  2.5606 -1.2048
  768MOL0     H 5963   2.118   6.445   4.073 -1.4405  0.6675  2.6819
  768MOL0     H 5964   2.521   5.434   4.262  0.0017 -3.4532  0.1903
  768MOL0     H 5965   2.653   5.239   4.221 -4.3757  1.0666  1.5369
  768MOL0     H 5966   2.908   4.873   4.368 -1.5974  1.9231 -2.2660
  768MOL0     H 5967   3.071   4.701   4.353 -2.2105  0.5184  2.0555
  768MOL0     H 5968   4.286   4.237   5.454 -0.4219 -0.1450 -1.3851
  768MOL0     H 5969   4.426   4.046   5.436  1.6771  0.3929  0.4853
  768MOL0     H 5970   4.747   3.861   5.062 -2.0598  0.9488  1.3038
  768MOL0     H 5971   4.896   3.673   5.020 -1.0358 -1.6012  0.1242
  768MOL0     H 5972   4.988   3.418   5.030  0.4155  1.5751 -0.8177
  768MOL0     H 5973   5.089   3.561   5.004  0.6213 -1.7499 -1.9929
  768MOL0     H 5974   5.163   3.318   5.174 -0.1707  1.3910  1.4984
  768MOL0     H 5975   5.266   3.453   5.160 -2.6709  1.4706  2.6350
  768MOL0     H 5976   5.281   3.412   4.901 -2.0169  1.4692 -0.0974
  768MOL0     H 5977   5.346   3.289   5.013 -0.7889 -0.9224  0.4918
  768MOL0     H 5978   5.069   3.262   4.882  1.1274  2.7526 -1.3354
  768MOL0     H 5979   5.151   3.149   4.994  0.1186 -0.0746  0.3595
  768MOL0     H 5980   5.379   3.077   4.654  0.7346 -1.7376  1.1682
  768MOL0     H 5981   4.963   3.613   5.432  3.7819  0.5411 -0.7051
  768MOL0     H 5982   4.856   3.913   5.560 -0.6971 -0.3769 -3.3776
  768MOL0     H 5983   4.720   3.810   5.560 -1.8943  4.1259 -1.7656
  768MOL0     H 5984   4.884   3.746   5.608  2.6544 -0.1492 -0.8892
  769MOL0     O 5985   6.137  11.204   7.444  0.1052  0.2933 -0.8272
  769MOL0     C 5986   6.177  11.127   7.525 -0.0858  0.3202 -0.0262
  769MOL0     O 5987   6.216  10.996   7.501  0.3057  1.0042  0.2832
  769MOL0     C 5988   6.215  10.953   7.376  0.2987  0.6136  0.1556
  769MOL0     C 5989   6.108  10.883   7.316  0.4457 -0.1829 -0.5891
  769MOL0     C 5990   6.122  10.824   7.190 -0.3056 -0.0095  0.4952
  769MOL0     C 5991   6.246  10.830   7.127 -0.2150 -0.2975 -0.5116
  769MOL0     O 5992   6.268  10.774   7.007  0.3183  0.4143  0.0814
  769MOL0     C 5993   6.303  10.633   7.001 -0.1472  0.8410 -0.4636
  769MOL0     C 5994   6.365  10.583   6.877  0.0276  0.0735  0.4536
  769MOL0     C 5995   6.508  10.646   6.861 -1.1450 -0.2686 -0.3235
  769MOL0     C 5996   6.523  10.736   6.735 -0.3157  0.1168 -0.3016
  769MOL0     C 5997   6.649  10.822   6.743  0.8426 -0.4617 -1.1360
  769MOL0     C 5998   6.678  10.894   6.603 -0.1788  0.0508 -0.3239
  769MOL0     C 5999   6.758  10.786   6.519  0.7455  0.0364 -0.1436
  769MOL0     C 6000   6.815  10.859   6.400 -0.2423  0.1665 -0.4788
  769MOL0     N 6001   6.893  10.778   6.311  0.0464 -0.4232 -0.0089
  769MOL0     C 6002   6.992  10.685   6.345 -0.7671  0.1885  0.5961
  769MOL0     C 6003   7.013  10.599   6.237 -0.3331 -0.0967 -1.3022
  769MOL0     C 6004   7.117  10.503   6.230 -0.7903 -0.3922 -0.6770
  769MOL0     C 6005   7.204  10.502   6.100 -0.3448 -0.3372 -0.8086
  769MOL0     C 6006   7.319  10.400   6.119  0.8048  0.0565 -0.0901
  769MOL0     C 6007   7.405  10.381   5.995 -0.3608 -0.1427  0.4982
  769MOL0     O 6008   7.324  10.317   5.897 -0.2856 -0.0182 -0.2419
  769MOL0     C 6009   7.360  10.309   5.770  0.4561  0.0114  0.9236
  769MOL0     C 6010   7.495  10.309   5.735 -0.7115 -0.6276 -0.0884
  769MOL0     C 6011   7.532  10.276   5.602 -1.1214  0.1310  0.5960
  769MOL0     C 6012   7.676  10.280   5.563  0.5601 -0.4908 -0.1909
  769MOL0     C 6013   7.429  10.245   5.509 -0.8549  0.3380  0.3947
  769MOL0     C 6014   7.471  10.204   5.380 -1.7916 -0.1132  0.2670
  769MOL0     O 6015   7.439  10.290   5.274  0.0874 -0.2798 -0.5574
  769MOL0     C 6016   7.464  10.260   5.148 -1.0640 -1.0266 -1.1673
  769MOL0     C 6017   7.595  10.267   5.098 -0.7450  0.5248  0.3436
  769MOL0     C 6018   7.620  10.235   4.970 -0.6701 -0.3442 -0.4421
  769MOL0     C 6019   7.527  10.204   4.880  0.2753  0.0603 -0.0129
  769MOL0     O 6020   7.550  10.206   4.743  0.0024  0.2446 -0.0265
  769MOL0     C 6021   7.691  10.199   4.707  0.0891 -0.1214  0.5256
  769MOL0     C 6022   7.703  10.204   4.550  0.1545 -0.6271  0.1592
  769MOL0     C 6023   7.674  10.058   4.496 -0.0172 -0.0043 -0.1544
  769MOL0     C 6024   7.657  10.076   4.338 -0.3852  0.4761  0.2729
  769MOL0     C 6025   7.626   9.949   4.277  0.2146 -0.7284  0.8051
  769MOL0     C 6026   7.679   9.952   4.131 -0.0893 -0.0387 -0.0471
  769MOL0     C 6027   7.643   9.820   4.060 -0.5297  0.5371 -0.6188
  769MOL0     C 6028   7.709   9.797   3.924 -0.2026 -0.3936  1.0917
  769MOL0    Cl 6029   7.635   9.653   3.853  0.0912 -0.2291  1.0803
  769MOL0     C 6030   7.399  10.199   4.924 -0.0708  0.2333  0.1280
  769MOL0     C 6031   7.366  10.233   5.059 -0.1996  0.0963  0.2670
  769MOL0     O 6032   7.531  10.097   5.364  0.1037  0.1043  0.0850
  769MOL0     C 6033   7.290  10.241   5.543 -0.9155 -1.8598  0.6458
  769MOL0     C 6034   7.254  10.278   5.679 -0.3134  0.6409  0.5724
  769MOL0     N 6035   6.928  10.661   6.140 -0.7461 -0.0277  0.3013
  769MOL0     N 6036   6.862  10.754   6.185  0.2637  0.6478  0.8696
  769MOL0     C 6037   6.344  10.907   7.188  0.1027 -0.8385 -0.0948
  769MOL0     C 6038   6.328  10.968   7.311 -1.1580  0.1659 -0.2604
  769MOL0     C 6039   6.211  11.183   7.662  0.1876  0.2967  0.2990
  769MOL0     C 6040   6.275  11.099   7.753 -0.4815  0.0792  0.7572
  769MOL0     C 6041   6.284  11.134   7.891 -0.4095  0.0008 -0.3481
  769MOL0     C 6042   6.243  11.259   7.933  0.2656  1.1317  0.1559
  769MOL0     O 6043   6.258  11.297   8.068 -0.6736  0.4252  0.0275
  769MOL0     C 6044   6.281  11.196   8.179  0.3453  0.3013  0.4527
  769MOL0     C 6045   6.435  11.201   8.197 -0.1156  0.6269 -0.0542
  769MOL0     C 6046   6.479  11.345   8.221 -0.4033 -0.0852 -0.3015
  769MOL0     C 6047   6.626  11.372   8.257 -0.1979  0.7847  0.9010
  769MOL0     C 6048   6.661  11.318   8.380  0.1276  0.5727  0.2580
  769MOL0     C 6049   6.681  11.257   8.483  0.0087 -0.7312 -0.0795
  769MOL0     C 6050   6.190  11.350   7.844 -0.4793 -0.2026 -0.0918
  769MOL0     C 6051   6.167  11.308   7.707 -0.8840 -0.6502 -0.1448
  769MOL0     C 6052   6.103  11.427   7.626  0.3397  0.0314  0.3426
  769MOL0     H 6053   6.015  10.873   7.372  1.3937 -1.6350  0.8127
  769MOL0     H 6054   6.033  10.781   7.146 -0.0441 -1.5595  1.3762
  769MOL0     H 6055   6.218  10.565   7.014 -0.4578  1.5328  1.2715
  769MOL0     H 6056   6.371  10.620   7.085 -0.6914  0.1901 -0.1145
  769MOL0     H 6057   6.371  10.474   6.883 -0.8087  0.0407  0.7323
  769MOL0     H 6058   6.315  10.606   6.782  1.2697  0.5549 -0.1128
  769MOL0     H 6059   6.537  10.706   6.948 -2.1328  0.2239 -0.3166
  769MOL0     H 6060   6.588  10.572   6.858 -2.4140 -1.8260  1.4406
  769MOL0     H 6061   6.533  10.675   6.645 -0.9779 -1.6381  0.7639
  769MOL0     H 6062   6.431  10.795   6.734 -1.6990 -1.9358 -2.7161
  769MOL0     H 6063   6.731  10.756   6.774  1.5285  0.0902 -1.7423
  769MOL0     H 6064   6.634  10.905   6.813 -0.9326 -1.1740 -0.6166
  769MOL0     H 6065   6.575  10.913   6.573 -1.2444 -0.3462  2.7052
  769MOL0     H 6066   6.734  10.985   6.628  0.6614 -0.7170  0.7120
  769MOL0     H 6067   6.678  10.715   6.492 -0.6947  0.8200  1.8713
  769MOL0     H 6068   6.828  10.723   6.575  0.2756  1.1619  1.8005
  769MOL0     H 6069   6.731  10.908   6.350  1.0836  1.7070 -1.2779
  769MOL0     H 6070   6.882  10.933   6.444 -0.3836  1.0342 -1.6517
  769MOL0     H 6071   7.037  10.685   6.444 -0.0518  2.5121  0.3293
  769MOL0     H 6072   7.074  10.405   6.254 -0.2777 -0.4906 -0.1279
  769MOL0     H 6073   7.190  10.521   6.310 -1.9838  1.8486 -0.0076
  769MOL0     H 6074   7.146  10.475   6.011 -0.2564 -1.5523 -0.5087
  769MOL0     H 6075   7.231  10.605   6.075 -2.5013  1.1486  2.3527
  769MOL0     H 6076   7.376  10.427   6.209 -1.6970  1.5621  1.1437
  769MOL0     H 6077   7.276  10.301   6.131 -0.0946  0.1082 -2.4537
  769MOL0     H 6078   7.445  10.473   5.952 -2.6217  0.1041 -1.2659
  769MOL0     H 6079   7.484  10.308   6.014 -1.3165 -1.1535  0.6698
  769MOL0     H 6080   7.583  10.319   5.798 -1.4628  3.4959  0.6039
  769MOL0     H 6081   7.683  10.326   5.464 -2.0830 -0.3742 -0.3924
  769MOL0     H 6082   7.712  10.176   5.554 -0.5240 -1.4179  4.1024
  769MOL0     H 6083   7.735  10.337   5.635 -0.5217  0.6743 -0.1956
  769MOL0     H 6084   7.667  10.306   5.170 -0.6405  1.5058 -0.2715
  769MOL0     H 6085   7.719  10.270   4.942 -1.7554  3.5217  0.0585
  769MOL0     H 6086   7.745  10.285   4.748  0.3162  1.1022 -2.1417
  769MOL0     H 6087   7.743  10.111   4.745 -1.1304 -0.2341  2.0278
  769MOL0     H 6088   7.634  10.278   4.507  3.0015  0.0964 -3.7408
  769MOL0     H 6089   7.806  10.235   4.533 -0.1201 -0.3823 -1.1714
  769MOL0     H 6090   7.586  10.020   4.548  0.5954  0.3205  1.1624
  769MOL0     H 6091   7.760   9.993   4.516 -0.6087 -1.0528 -0.9104
  769MOL0     H 6092   7.747  10.120   4.295 -0.0458  2.2594  2.5754
  769MOL0     H 6093   7.581  10.148   4.304 -0.5254 -0.6046 -1.8362
  769MOL0     H 6094   7.683   9.875   4.333  2.4581  1.6102  1.8375
  769MOL0     H 6095   7.523   9.912   4.274 -0.3629  0.8443  0.1692
  769MOL0     H 6096   7.788   9.957   4.132  0.2526 -2.3029 -4.2457
  769MOL0     H 6097   7.636  10.038   4.078 -0.1961 -1.1775 -1.8782
  769MOL0     H 6098   7.536   9.816   4.037 -1.0439  1.7730  1.2538
  769MOL0     H 6099   7.667   9.737   4.127  0.9481  0.0919 -1.6573
  769MOL0     H 6100   7.813   9.783   3.954 -0.6174  1.3128  3.6594
  769MOL0     H 6101   7.690   9.880   3.856  1.2403  0.5711  1.8188
  769MOL0     H 6102   7.323  10.185   4.847 -0.7687  0.7899  0.7041
  769MOL0     H 6103   7.262  10.246   5.087 -0.1373 -0.4787  0.7759
  769MOL0     H 6104   7.212  10.228   5.469  1.3128 -4.7292 -1.4635
  769MOL0     H 6105   7.150  10.271   5.708 -0.1484 -0.9462  0.8517
  769MOL0     H 6106   6.430  10.927   7.124 -0.3329 -1.0140 -0.7373
  769MOL0     H 6107   6.404  11.033   7.353 -0.9184  0.4782 -1.1489
  769MOL0     H 6108   6.323  11.011   7.710 -1.4896  0.2703 -0.8307
  769MOL0     H 6109   6.318  11.063   7.966  3.3910  0.9722 -0.9444
  769MOL0     H 6110   6.238  11.214   8.277  0.8792 -1.5738  1.0751
  769MOL0     H 6111   6.250  11.094   8.156  2.1948 -0.0442 -0.7736
  769MOL0     H 6112   6.472  11.158   8.103  1.2813 -1.3708  1.3426
  769MOL0     H 6113   6.477  11.138   8.275  1.7016 -1.8485 -2.8012
  769MOL0     H 6114   6.465  11.404   8.130 -0.5451 -1.3585 -1.1396
  769MOL0     H 6115   6.418  11.393   8.299  0.4355 -0.1651  0.4220
  769MOL0     H 6116   6.657  11.477   8.253 -1.1245  1.0451 -2.6058
  769MOL0     H 6117   6.692  11.318   8.188 -1.0204  0.0256  0.6866
  769MOL0     H 6118   6.686  11.211   8.579  3.0263 -0.0842  0.1950
  769MOL0     H 6119   6.157  11.443   7.889 -0.1152  0.4860 -1.2101
  769MOL0     H 6120   6.152  11.523   7.646 -1.5278  1.1767 -0.2754
  769MOL0     H 6121   6.106  11.416   7.517 -1.4208  0.1860  0.2412
  769MOL0     H 6122   5.998  11.430   7.656  0.5788  0.0899  1.1984
  770MOL0     O 6123   6.274  11.383   5.274  0.0796  0.0559  0.1973
  770MOL0     C 6124   6.200  11.460   5.329  0.1131  0.3500 -0.4566
  770MOL0     O 6125   6.228  11.599   5.336  0.2226  0.0748 -0.3006
  770MOL0     C 6126   6.361  11.641   5.335 -0.8723 -0.1016  0.0754
  770MOL0     C 6127   6.465  11.570   5.392  0.2684 -0.7113 -0.6236
  770MOL0     C 6128   6.595  11.612   5.375  0.4019  0.0527  0.3553
  770MOL0     C 6129   6.627  11.720   5.282 -0.4096  1.0234  1.3175
  770MOL0     O 6130   6.763  11.734   5.243  0.5818  0.5285  0.0188
  770MOL0     C 6131   6.786  11.785   5.110 -0.2290 -0.7766  0.1961
  770MOL0     C 6132   6.916  11.733   5.047 -0.4170 -0.0112 -0.1222
  770MOL0     C 6133   7.034  11.754   5.149 -0.9024 -0.1052  0.6386
  770MOL0     C 6134   7.153  11.679   5.097 -0.2433 -0.4473 -0.3839
  770MOL0     C 6135   7.252  11.769   5.031 -1.2435 -0.0265 -0.1337
  770MOL0     C 6136   7.379  11.682   4.997 -0.0566 -0.3667  0.1018
  770MOL0     C 6137   7.459  11.637   5.124  0.2670 -0.2210  0.3632
  770MOL0     C 6138   7.597  11.596   5.088 -0.1641 -0.0362  0.4050
  770MOL0     N 6139   7.626  11.483   4.997 -0.1716 -0.8708  0.9281
  770MOL0     C 6140   7.570  11.359   5.001 -1.0286 -0.1230  1.0586
  770MOL0     C 6141   7.639  11.292   4.902  0.5191 -0.4790 -0.8046
  770MOL0     C 6142   7.616  11.151   4.834 -0.0562  0.2904 -0.3535
  770MOL0     C 6143   7.484  11.168   4.743  0.0182  0.8251 -1.0413
  770MOL0     C 6144   7.453  11.045   4.663  0.6221 -0.7595 -1.3540
  770MOL0     C 6145   7.547  11.003   4.548 -0.4284  0.2883 -0.2733
  770MOL0     O 6146   7.599  11.122   4.489 -1.1535 -0.8442 -0.1411
  770MOL0     C 6147   7.538  11.199   4.390 -0.0126 -0.9893 -0.7632
  770MOL0     C 6148   7.399  11.196   4.357 -0.6489  0.8704  0.7840
  770MOL0     C 6149   7.339  11.295   4.277  0.5947  0.5448  0.4647
  770MOL0     C 6150   7.192  11.277   4.236  0.1137  0.2815 -0.1491
  770MOL0     C 6151   7.428  11.400   4.221  0.5064 -0.1213  0.1840
  770MOL0     C 6152   7.374  11.506   4.131  0.7799  0.9773  0.3452
  770MOL0     O 6153   7.242  11.501   4.098 -0.5404  0.0580  0.3208
  770MOL0     C 6154   7.193  11.558   3.990 -1.0800 -0.0947 -0.2398
  770MOL0     C 6155   7.052  11.551   3.978  0.8231 -0.5283 -0.5083
  770MOL0     C 6156   6.979  11.594   3.864 -0.1352  0.6277  0.5032
  770MOL0     C 6157   7.045  11.671   3.772 -0.0898 -0.3214 -0.2385
  770MOL0     O 6158   6.992  11.733   3.662 -0.4398 -0.2034  0.2656
  770MOL0     C 6159   6.844  11.727   3.627 -0.4669 -0.1436 -0.1180
  770MOL0     C 6160   6.778  11.858   3.668 -0.7811 -1.0902  0.2163
  770MOL0     C 6161   6.816  11.921   3.798  0.5895 -0.2282 -0.4438
  770MOL0     C 6162   6.706  12.020   3.859 -0.4678  0.2335 -0.1697
  770MOL0     C 6163   6.757  12.081   3.997 -0.3074 -0.4005  0.8110
  770MOL0     C 6164   6.655  12.164   4.084 -0.5524 -0.5545  0.3453
  770MOL0     C 6165   6.743  12.211   4.210 -0.4718 -0.4358 -1.0841
  770MOL0     C 6166   6.658  12.295   4.307 -0.3833 -0.0634  0.3718
  770MOL0    Cl 6167   6.715  12.467   4.298  0.1198 -0.5610  0.9173
  770MOL0     C 6168   7.180  11.700   3.793  0.1541  0.0483 -0.4815
  770MOL0     C 6169   7.259  11.633   3.890  0.0077  0.2367  0.2518
  770MOL0     O 6170   7.451  11.596   4.108  0.4432  0.3386  0.2247
  770MOL0     C 6171   7.565  11.399   4.255  0.1698 -0.2574 -0.1382
  770MOL0     C 6172   7.616  11.297   4.339  0.0872  0.2851  0.0500
  770MOL0     N 6173   7.735  11.375   4.855  0.1044 -0.2334  0.2814
  770MOL0     N 6174   7.722  11.488   4.899 -0.6130 -0.0222 -0.7885
  770MOL0     C 6175   6.523  11.786   5.217  0.2331  0.5653 -0.3307
  770MOL0     C 6176   6.392  11.746   5.240  0.0216  0.1520 -0.5581
  770MOL0     C 6177   6.087  11.417   5.416  0.3566 -0.0081 -0.0485
  770MOL0     C 6178   6.080  11.484   5.539 -0.5421  0.1604 -0.0243
  770MOL0     C 6179   5.987  11.448   5.639 -0.0913 -0.4036 -0.0417
  770MOL0     C 6180   5.894  11.347   5.616 -0.8622 -0.2758  0.2681
  770MOL0     O 6181   5.796  11.311   5.710  0.1200  0.3754 -0.2256
  770MOL0     C 6182   5.851  11.288   5.839 -0.8797 -0.3067  0.5197
  770MOL0     C 6183   5.926  11.148   5.845  0.4031 -0.6761  0.4429
  770MOL0     C 6184   5.942  11.116   5.981 -0.1858 -0.4055  0.0899
  770MOL0     C 6185   5.987  10.978   6.006  0.3110  0.5571  1.3085
  770MOL0     C 6186   6.038  10.964   6.146  0.4665 -0.2010  1.7309
  770MOL0     C 6187   6.087  10.966   6.256  0.7776 -0.2273  0.0669
  770MOL0     C 6188   5.905  11.284   5.494 -0.4388 -0.1442 -0.9947
  770MOL0     C 6189   6.001  11.310   5.391 -1.2030  0.8119 -0.6331
  770MOL0     C 6190   6.006  11.222   5.266 -0.5359  0.3501  0.0625
  770MOL0     H 6191   6.449  11.486   5.459 -2.4338  0.4629  0.3354
  770MOL0     H 6192   6.673  11.560   5.430  1.2842  1.1970  0.2334
  770MOL0     H 6193   6.796  11.894   5.111 -1.8593 -0.6071  1.0467
  770MOL0     H 6194   6.707  11.762   5.039  1.6795  0.4483 -2.5149
  770MOL0     H 6195   6.911  11.629   5.013 -2.1144  0.3511 -1.1134
  770MOL0     H 6196   6.943  11.785   4.954  3.4527  0.2473  0.9701
  770MOL0     H 6197   7.049  11.860   5.173  0.2574 -0.7848  3.2225
  770MOL0     H 6198   7.022  11.694   5.240  3.9574 -0.7588  1.0956
  770MOL0     H 6199   7.201  11.636   5.185  1.6183  0.3672 -0.9544
  770MOL0     H 6200   7.120  11.601   5.027  0.5008 -1.5013  0.4105
  770MOL0     H 6201   7.280  11.859   5.087 -1.9272 -0.3672  0.7727
  770MOL0     H 6202   7.207  11.806   4.938 -0.6804  0.9126 -0.0465
  770MOL0     H 6203   7.340  11.595   4.943 -1.2459 -0.1508  0.5883
  770MOL0     H 6204   7.444  11.740   4.931 -2.1784 -1.1614 -2.9044
  770MOL0     H 6205   7.412  11.553   5.176  1.4774 -0.7298  0.6501
  770MOL0     H 6206   7.458  11.727   5.186  1.6939 -0.5098  0.8280
  770MOL0     H 6207   7.644  11.687   5.048 -2.3343  0.0675 -2.1704
  770MOL0     H 6208   7.647  11.578   5.183 -0.4372  0.6474  0.6862
  770MOL0     H 6209   7.499  11.311   5.068 -1.2464  0.0901  0.9816
  770MOL0     H 6210   7.592  11.078   4.912  4.2460 -0.9499  0.0373
  770MOL0     H 6211   7.704  11.121   4.777  1.6296 -0.4524  2.4721
  770MOL0     H 6212   7.402  11.195   4.811  1.0239 -0.2915  0.6946
  770MOL0     H 6213   7.493  11.256   4.679  0.7120  0.6200 -1.2256
  770MOL0     H 6214   7.439  10.955   4.724 -0.6160 -1.5428 -2.7013
  770MOL0     H 6215   7.354  11.059   4.619  0.5057 -1.1359 -1.2210
  770MOL0     H 6216   7.624  10.933   4.582 -0.1126  0.5605 -0.4183
  770MOL0     H 6217   7.488  10.943   4.478  2.9952 -1.2051 -2.1078
  770MOL0     H 6218   7.348  11.109   4.397  2.2591 -2.1362 -1.4970
  770MOL0     H 6219   7.169  11.267   4.129 -2.0504  1.4986  0.1378
  770MOL0     H 6220   7.122  11.356   4.265  0.9928  0.2767  2.2010
  770MOL0     H 6221   7.164  11.189   4.294  0.2869  1.8662  2.4831
  770MOL0     H 6222   7.002  11.496   4.057  0.8990  1.6802  1.1873
  770MOL0     H 6223   6.875  11.565   3.870  0.0824 -0.0999  0.7929
  770MOL0     H 6224   6.843  11.717   3.518  1.9919  0.3048 -0.2444
  770MOL0     H 6225   6.792  11.640   3.668  0.6728 -1.4682 -1.3410
  770MOL0     H 6226   6.799  11.925   3.584  1.3814 -0.3730  1.2778
  770MOL0     H 6227   6.669  11.847   3.659 -0.4276 -3.6879 -2.4305
  770MOL0     H 6228   6.902  11.982   3.769  1.2667 -2.0982 -2.6633
  770MOL0     H 6229   6.841  11.842   3.869 -3.5895 -4.0793 -2.7319
  770MOL0     H 6230   6.606  11.978   3.877  0.2053 -0.1599  3.3049
  770MOL0     H 6231   6.683  12.110   3.801  1.3379  1.2330  0.5763
  770MOL0     H 6232   6.800  12.001   4.057 -1.7965 -0.5763  1.6852
  770MOL0     H 6233   6.839  12.147   3.965 -2.3235  2.1669  0.5582
  770MOL0     H 6234   6.564  12.111   4.115 -1.2144 -0.6590 -1.6653
  770MOL0     H 6235   6.634  12.254   4.026  2.1642 -0.7736 -1.1174
  770MOL0     H 6236   6.840  12.251   4.180  1.9001 -4.9578 -0.2601
  770MOL0     H 6237   6.771  12.119   4.262  1.6457  1.7424  1.9567
  770MOL0     H 6238   6.669  12.256   4.408 -1.0337 -0.8082  0.1706
  770MOL0     H 6239   6.551  12.281   4.286 -0.6797  0.1626  1.6950
  770MOL0     H 6240   7.236  11.761   3.723  0.1673  1.7408  0.9287
  770MOL0     H 6241   7.363  11.663   3.898  0.2553 -0.1742 -1.1260
  770MOL0     H 6242   7.630  11.478   4.219  0.7391 -0.4407  0.4724
  770MOL0     H 6243   7.720  11.309   4.369 -0.5620  2.3152  1.7448
  770MOL0     H 6244   6.548  11.858   5.140  2.3912  0.0052 -0.2238
  770MOL0     H 6245   6.318  11.808   5.191  1.3493 -0.2056 -3.2142
  770MOL0     H 6246   6.136  11.577   5.547 -1.3272  0.9660 -2.8731
  770MOL0     H 6247   5.995  11.504   5.732  3.8192  1.8396 -1.4858
  770MOL0     H 6248   5.907  11.375   5.875 -0.5993  0.8417 -2.3752
  770MOL0     H 6249   5.766  11.271   5.905 -1.2118 -2.3333 -0.3533
  770MOL0     H 6250   6.013  11.145   5.780  0.0656 -0.6557 -0.0111
  770MOL0     H 6251   5.849  11.077   5.812 -2.8907 -0.0146  5.4787
  770MOL0     H 6252   6.021  11.182   6.017 -3.4857  1.6106  4.7103
  770MOL0     H 6253   5.852  11.143   6.038  0.4184  0.4301  0.6717
  770MOL0     H 6254   6.078  10.956   5.950  3.0766  2.5843  4.5868
  770MOL0     H 6255   5.907  10.906   5.987  0.5896  0.7307 -0.7130
  770MOL0     H 6256   6.127  10.965   6.355 -0.6077 -2.2347  0.6716
  770MOL0     H 6257   5.825  11.213   5.476 -1.8318  0.2878  2.6405
  770MOL0     H 6258   6.069  11.257   5.184  2.6393 -1.3985  1.5528
  770MOL0     H 6259   6.042  11.122   5.292 -1.4271  0.1462  0.5983
  770MOL0     H 6260   5.900  11.215   5.239 -1.3392  4.1453  1.5705
  771MOL0     O 6261   6.341   4.538   2.465  0.1118  0.0882  0.5100
  771MOL0     C 6262   6.427   4.517   2.384 -0.1495  0.2907 -0.1737
  771MOL0     O 6263   6.562   4.508   2.410 -0.9402 -0.1497  0.3289
  771MOL0     C 6264   6.592   4.546   2.534 -0.2281  0.6960 -0.4508
  771MOL0     C 6265   6.650   4.672   2.566  0.0187 -0.9662  0.2994
  771MOL0     C 6266   6.703   4.706   2.691 -0.0197  0.6980 -0.5376
  771MOL0     C 6267   6.690   4.619   2.793  0.0025 -0.8154  0.1573
  771MOL0     O 6268   6.723   4.668   2.917  0.4829  0.4120  0.3284
  771MOL0     C 6269   6.668   4.604   3.038  0.7950  0.3421  0.9804
  771MOL0     C 6270   6.654   4.713   3.145  0.4686  0.1648 -0.6017
  771MOL0     C 6271   6.555   4.820   3.110 -0.5227  0.2862 -0.1232
  771MOL0     C 6272   6.574   4.942   3.185 -0.2245 -0.1929 -0.4423
  771MOL0     C 6273   6.437   5.000   3.228 -0.1820  0.0928 -0.8182
  771MOL0     C 6274   6.443   5.117   3.336 -0.3046  0.5765 -0.2112
  771MOL0     C 6275   6.484   5.256   3.265  0.5626 -0.1195 -0.7126
  771MOL0     C 6276   6.493   5.381   3.352 -0.5504  0.1504  0.4876
  771MOL0     N 6277   6.371   5.431   3.391 -0.0395 -0.6251  0.6717
  771MOL0     C 6278   6.283   5.500   3.310 -0.0973  0.0851  0.0502
  771MOL0     C 6279   6.196   5.560   3.393  0.1499 -0.2741 -1.6497
  771MOL0     C 6280   6.077   5.649   3.348  0.7838 -1.0280  0.8457
  771MOL0     C 6281   6.009   5.604   3.220  0.2361 -0.0161  0.9476
  771MOL0     C 6282   5.913   5.717   3.160 -0.6499 -0.4322 -0.2297
  771MOL0     C 6283   5.820   5.655   3.068  1.0107  0.5035 -0.3573
  771MOL0     O 6284   5.710   5.749   3.034  0.2632  0.8641 -0.3885
  771MOL0     C 6285   5.604   5.698   2.967 -0.1355 -0.9797 -0.5064
  771MOL0     C 6286   5.574   5.559   2.956 -0.2468 -0.0468  0.0574
  771MOL0     C 6287   5.453   5.530   2.896  0.4711  0.6978 -0.6665
  771MOL0     C 6288   5.417   5.383   2.903 -0.8546 -0.1309  0.3815
  771MOL0     C 6289   5.365   5.635   2.848  0.3677  0.3112 -0.9094
  771MOL0     C 6290   5.241   5.601   2.778 -0.6714 -0.2062 -0.0752
  771MOL0     O 6291   5.135   5.684   2.798  0.3764 -0.0655  0.0935
  771MOL0     C 6292   5.014   5.675   2.728 -0.8873  0.2426 -0.6285
  771MOL0     C 6293   5.003   5.625   2.593  0.2832 -0.8481 -1.1149
  771MOL0     C 6294   4.871   5.613   2.536  1.0351 -0.6316 -0.4065
  771MOL0     C 6295   4.758   5.650   2.607 -0.0695  0.8507  1.0832
  771MOL0     O 6296   4.626   5.651   2.560 -0.7027 -0.6084  0.0227
  771MOL0     C 6297   4.553   5.529   2.573  1.1695  0.9058 -0.1628
  771MOL0     C 6298   4.399   5.566   2.610 -0.1067 -0.0134 -0.5574
  771MOL0     C 6299   4.305   5.441   2.635 -0.0696 -0.1155  0.6375
  771MOL0     C 6300   4.266   5.364   2.512 -0.8644  0.5299 -1.2108
  771MOL0     C 6301   4.138   5.279   2.533 -0.4636  0.1661 -0.1079
  771MOL0     C 6302   4.122   5.189   2.405  0.2375 -0.3292 -0.4858
  771MOL0     C 6303   3.983   5.142   2.378  1.2037 -0.2332  0.3118
  771MOL0     C 6304   3.933   5.042   2.484 -0.1184 -0.3313 -0.2739
  771MOL0    Cl 6305   3.812   4.939   2.409  0.0002 -0.4145 -0.0176
  771MOL0     C 6306   4.776   5.710   2.731 -0.3802 -1.0184 -0.1793
  771MOL0     C 6307   4.900   5.726   2.789 -0.9432  0.4343 -0.0141
  771MOL0     O 6308   5.244   5.501   2.700  0.1243 -0.3072  0.3603
  771MOL0     C 6309   5.397   5.762   2.877 -0.6667 -0.5584  1.2833
  771MOL0     C 6310   5.513   5.796   2.931  0.2840 -0.0651 -1.1471
  771MOL0     N 6311   6.225   5.524   3.528  0.3176  0.2954  0.6748
  771MOL0     N 6312   6.335   5.449   3.526  0.0835 -0.6282 -0.1725
  771MOL0     C 6313   6.637   4.496   2.764  0.9881  0.3286  0.5274
  771MOL0     C 6314   6.588   4.458   2.642  0.6229  0.0006 -0.4342
  771MOL0     C 6315   6.373   4.477   2.253  0.3660 -0.1318  0.1038
  771MOL0     C 6316   6.252   4.531   2.203 -0.3050 -1.2324  0.6289
  771MOL0     C 6317   6.201   4.499   2.074 -0.1201 -0.1622  1.0520
  771MOL0     C 6318   6.283   4.426   1.984 -0.5402  0.2233 -0.1174
  771MOL0     O 6319   6.260   4.408   1.854  0.1218  0.8536  1.1368
  771MOL0     C 6320   6.164   4.481   1.781 -0.5098  0.0265  0.1301
  771MOL0     C 6321   6.129   4.408   1.649 -0.7228 -0.4948 -0.4980
  771MOL0     C 6322   6.066   4.272   1.668  0.3108  0.2750 -0.0700
  771MOL0     C 6323   6.041   4.200   1.532  0.5949  0.2806  0.5498
  771MOL0     C 6324   5.986   4.067   1.558 -0.1372 -0.5632  0.4546
  771MOL0     C 6325   5.957   3.954   1.588 -0.7068  0.4723  0.7577
  771MOL0     C 6326   6.410   4.389   2.024 -0.0324 -0.7736 -0.9692
  771MOL0     C 6327   6.457   4.414   2.151  0.5078 -0.0386 -0.2258
  771MOL0     C 6328   6.603   4.381   2.169 -1.0899  0.0709  0.8910
  771MOL0     H 6329   6.666   4.751   2.493  0.9264  0.2801  1.7895
  771MOL0     H 6330   6.747   4.802   2.714 -0.1328 -0.1099  3.9101
  771MOL0     H 6331   6.744   4.533   3.072  1.0447  0.3737  0.5079
  771MOL0     H 6332   6.574   4.554   3.013 -0.7162  2.5840  1.9311
  771MOL0     H 6333   6.632   4.673   3.244 -1.3175  4.6586  1.0682
  771MOL0     H 6334   6.755   4.750   3.161  0.6901 -1.1997  1.5073
  771MOL0     H 6335   6.562   4.852   3.005 -0.6384  1.6859  0.2738
  771MOL0     H 6336   6.453   4.783   3.127 -0.0496 -1.7578 -1.4134
  771MOL0     H 6337   6.631   4.916   3.275  0.0290  0.5801 -0.3728
  771MOL0     H 6338   6.634   5.014   3.129  0.8899 -0.1838  0.7007
  771MOL0     H 6339   6.372   4.918   3.260 -0.2251  0.1827 -0.6752
  771MOL0     H 6340   6.395   5.057   3.144  0.1788  0.1624 -0.9561
  771MOL0     H 6341   6.351   5.128   3.394  1.0758  0.9970  1.9921
  771MOL0     H 6342   6.520   5.095   3.409 -0.0955 -0.5602 -0.7529
  771MOL0     H 6343   6.411   5.273   3.186  0.4064 -1.2880 -0.8417
  771MOL0     H 6344   6.576   5.254   3.207 -0.6880  3.7690 -3.1956
  771MOL0     H 6345   6.551   5.348   3.439 -0.0017  0.5976  0.3048
  771MOL0     H 6346   6.558   5.454   3.302 -0.2091  1.0309  2.1299
  771MOL0     H 6347   6.273   5.512   3.202 -2.5454  2.3010  0.4350
  771MOL0     H 6348   6.115   5.752   3.344 -0.1971 -0.5885  2.2256
  771MOL0     H 6349   5.989   5.654   3.413 -0.3251 -0.8307 -0.6241
  771MOL0     H 6350   6.090   5.591   3.148  0.2200 -1.0940  1.1196
  771MOL0     H 6351   5.949   5.515   3.236 -0.6715  0.4365  0.1831
  771MOL0     H 6352   5.853   5.771   3.234 -2.0998 -0.0258 -1.6437
  771MOL0     H 6353   5.982   5.788   3.114  0.1882 -0.2541  1.2404
  771MOL0     H 6354   5.884   5.636   2.981  0.2429  2.3289 -1.3821
  771MOL0     H 6355   5.785   5.563   3.116  1.9174 -0.2600 -1.1267
  771MOL0     H 6356   5.641   5.480   2.988 -0.4518 -0.0625  0.4480
  771MOL0     H 6357   5.312   5.362   2.927 -0.8979 -1.4863 -0.8703
  771MOL0     H 6358   5.482   5.331   2.974 -3.1718 -1.6739  1.5113
  771MOL0     H 6359   5.438   5.338   2.806  0.3956  0.9177  0.1364
  771MOL0     H 6360   5.088   5.599   2.531  1.8926 -1.5860  1.2443
  771MOL0     H 6361   4.864   5.580   2.433  1.9837  2.8336 -1.7228
  771MOL0     H 6362   4.558   5.463   2.486 -0.1668 -1.2246  1.3057
  771MOL0     H 6363   4.591   5.474   2.659 -0.3101 -2.7767 -1.6748
  771MOL0     H 6364   4.403   5.614   2.708  3.5288 -0.8788 -0.1421
  771MOL0     H 6365   4.351   5.634   2.539  0.0736  2.2033  1.3093
  771MOL0     H 6366   4.214   5.478   2.683 -1.4304 -1.8811 -0.5045
  771MOL0     H 6367   4.347   5.375   2.712  1.3899  1.2663  1.1014
  771MOL0     H 6368   4.356   5.308   2.484  0.1738  1.4445  0.1697
  771MOL0     H 6369   4.243   5.441   2.439  0.8664  2.3897  0.0814
  771MOL0     H 6370   4.152   5.224   2.626 -0.4113 -3.3719 -2.0329
  771MOL0     H 6371   4.052   5.346   2.530 -0.7355 -0.1791 -2.3790
  771MOL0     H 6372   4.196   5.110   2.417  1.3120  0.8132  0.7820
  771MOL0     H 6373   4.158   5.233   2.312  1.8382  1.0166  0.6995
  771MOL0     H 6374   3.979   5.084   2.285 -1.5343  3.0135 -1.8428
  771MOL0     H 6375   3.914   5.227   2.381 -0.5789 -1.5333 -1.5004
  771MOL0     H 6376   3.901   5.095   2.574  0.5031 -0.2803 -0.0811
  771MOL0     H 6377   4.008   4.967   2.509 -1.0236 -0.9901  0.5460
  771MOL0     H 6378   4.693   5.733   2.798  1.4146  0.5693  1.6222
  771MOL0     H 6379   4.919   5.769   2.886 -0.0286 -0.1042  0.0630
  771MOL0     H 6380   5.322   5.836   2.852  0.0733 -0.4759 -0.9066
  771MOL0     H 6381   5.534   5.902   2.941  2.1941 -0.3974 -1.2215
  771MOL0     H 6382   6.633   4.421   2.843 -0.4751  0.5411  0.6893
  771MOL0     H 6383   6.522   4.372   2.644  0.9767 -0.2624  0.2576
  771MOL0     H 6384   6.198   4.594   2.273 -3.0484 -1.6170 -0.9965
  771MOL0     H 6385   6.108   4.544   2.040 -1.1720 -0.2949  3.5124
  771MOL0     H 6386   6.072   4.492   1.839  0.4442 -1.6623  2.1042
  771MOL0     H 6387   6.203   4.579   1.752  1.1595 -0.4582  0.6199
  771MOL0     H 6388   6.222   4.392   1.593 -0.7846 -1.6970 -0.2718
  771MOL0     H 6389   6.066   4.468   1.583 -0.0158 -0.0599 -0.8003
  771MOL0     H 6390   6.122   4.208   1.738 -1.7531 -2.3535 -0.6347
  771MOL0     H 6391   5.972   4.285   1.723  0.3394 -0.7535  0.2444
  771MOL0     H 6392   6.128   4.200   1.465 -0.9080 -0.5930 -1.5119
  771MOL0     H 6393   5.963   4.238   1.465  1.6070 -1.1734 -1.5547
  771MOL0     H 6394   5.927   3.852   1.602 -1.6833  0.7909  1.0978
  771MOL0     H 6395   6.483   4.341   1.961  2.5524  2.2223 -0.4676
  771MOL0     H 6396   6.639   4.304   2.099 -0.9192  0.5184  0.4759
  771MOL0     H 6397   6.665   4.469   2.147  0.1398 -1.0667 -0.4192
  771MOL0     H 6398   6.617   4.333   2.266 -2.1522 -0.9842  0.5446
  772MOL0     O 6399  11.116   0.094   2.556  0.1592 -0.3885  0.8501
  772MOL0     C 6400  11.069   0.059   2.446 -0.4166 -0.1193  0.9742
  772MOL0     O 6401  11.143   0.021   2.341 -0.1144  0.0648  0.1559
  772MOL0     C 6402  11.283   0.010   2.361  0.1635 -0.3463  0.4741
  772MOL0     C 6403  11.378   0.084   2.291  0.6248  0.5879  0.1102
  772MOL0     C 6404  11.509   0.069   2.323 -0.2846  0.0215 -0.4917
  772MOL0     C 6405  11.555  -0.028   2.416  0.3873 -0.0025 -0.0985
  772MOL0     O 6406  11.688  -0.033   2.430 -0.1133 -0.4769 -0.9156
  772MOL0     C 6407  11.761  -0.166   2.442  0.4249 -0.2500 -0.2002
  772MOL0     C 6408  11.910  -0.146   2.441 -0.6514 -0.3766 -0.0305
  772MOL0     C 6409  11.989  -0.273   2.445  0.1812  0.8233  0.3011
  772MOL0     C 6410  12.125  -0.271   2.373  0.8524  0.0731 -0.4696
  772MOL0     C 6411  12.212  -0.395   2.367 -0.1004  0.3054  0.2043
  772MOL0     C 6412  12.331  -0.387   2.270  0.4464 -0.7897  0.1221
  772MOL0     C 6413  12.385  -0.529   2.249  0.9170  0.3104 -0.1858
  772MOL0     C 6414  12.482  -0.558   2.364  0.0708  0.1826  0.1026
  772MOL0     N 6415  12.501  -0.702   2.405 -0.3254 -0.0666  0.2344
  772MOL0     C 6416  12.548  -0.791   2.318  1.2605 -0.7281  0.0580
  772MOL0     C 6417  12.534  -0.912   2.385  0.1757  0.6168  0.8170
  772MOL0     C 6418  12.583  -1.039   2.317 -0.4672  0.2069 -0.2799
  772MOL0     C 6419  12.617  -1.143   2.434  0.2943 -0.5740  0.0430
  772MOL0     C 6420  12.672  -1.261   2.376 -1.7187  0.0064  0.8036
  772MOL0     C 6421  12.809  -1.243   2.300  1.0088  0.2235  0.3337
  772MOL0     O 6422  12.907  -1.216   2.397 -0.1497  0.4340 -0.9568
  772MOL0     C 6423  13.038  -1.223   2.368  0.9437 -0.6720  0.5451
  772MOL0     C 6424  13.103  -1.258   2.246 -0.6128 -0.2557 -0.1255
  772MOL0     C 6425  13.238  -1.300   2.244  1.0671 -0.3276  1.3944
  772MOL0     C 6426  13.290  -1.338   2.107 -0.0477  0.4179 -1.1483
  772MOL0     C 6427  13.318  -1.287   2.364 -0.3543 -0.7917 -0.6259
  772MOL0     C 6428  13.463  -1.327   2.371 -0.4246  0.4795  0.5991
  772MOL0     O 6429  13.531  -1.378   2.265 -0.4669  0.5044 -1.1473
  772MOL0     C 6430  13.658  -1.427   2.285  0.6476 -0.7583  0.2422
  772MOL0     C 6431  13.683  -1.530   2.376 -0.3849  0.4123 -0.5569
  772MOL0     C 6432  13.819  -1.575   2.398  0.3992 -0.9321 -0.6077
  772MOL0     C 6433  13.930  -1.504   2.339  0.6956 -0.2437  0.6743
  772MOL0     O 6434  14.058  -1.530   2.358 -1.4470  0.2108 -0.4822
  772MOL0     C 6435  14.098  -1.657   2.393 -0.1091  0.5038  0.4063
  772MOL0     C 6436  14.244  -1.659   2.408  0.2794  0.4096 -0.5433
  772MOL0     C 6437  14.305  -1.783   2.480 -0.3656 -1.0106 -0.1532
  772MOL0     C 6438  14.453  -1.767   2.509 -0.9744 -0.2852  0.2231
  772MOL0     C 6439  14.500  -1.901   2.583  0.0485  0.2522 -0.5700
  772MOL0     C 6440  14.622  -1.895   2.673  0.4012 -0.0220 -1.0465
  772MOL0     C 6441  14.749  -1.858   2.598 -0.0033 -0.1665 -0.2849
  772MOL0     C 6442  14.867  -1.817   2.684  1.1145  0.2150 -0.6658
  772MOL0    Cl 6443  14.902  -1.938   2.810 -0.1166  0.1212 -0.7702
  772MOL0     C 6444  13.906  -1.391   2.256  0.6027  0.1494  0.3010
  772MOL0     C 6445  13.768  -1.358   2.231 -0.3655 -0.9014  0.2025
  772MOL0     O 6446  13.520  -1.322   2.480  0.1783  0.3756  0.3652
  772MOL0     C 6447  13.259  -1.229   2.474  0.3150 -0.1381  0.2383
  772MOL0     C 6448  13.119  -1.194   2.476 -0.2965 -0.4162  0.5653
  772MOL0     N 6449  12.473  -0.895   2.506  0.1742  0.2500  0.0878
  772MOL0     N 6450  12.448  -0.770   2.514 -0.1827 -0.2085 -0.0944
  772MOL0     C 6451  11.463  -0.096   2.486  0.4583 -0.2790  0.4613
  772MOL0     C 6452  11.328  -0.078   2.459  0.4795 -0.2839 -0.5149
  772MOL0     C 6453  10.918   0.039   2.435 -0.0509 -0.7294 -0.0233
  772MOL0     C 6454  10.860  -0.027   2.322 -0.2971  0.5926 -0.2799
  772MOL0     C 6455  10.723  -0.038   2.301 -0.1834  1.0961  0.0891
  772MOL0     C 6456  10.633   0.019   2.382  0.5172  0.1918  0.4268
  772MOL0     O 6457  10.494   0.042   2.361  0.1314 -0.2503 -0.4250
  772MOL0     C 6458  10.431  -0.031   2.250 -0.8274  0.4142  0.2779
  772MOL0     C 6459  10.280  -0.004   2.264 -0.4526 -0.1901 -0.8229
  772MOL0     C 6460  10.197  -0.051   2.140 -0.2469  0.2369  0.2511
  772MOL0     C 6461  10.044  -0.050   2.175 -1.0671 -0.1640  0.7521
  772MOL0     C 6462   9.997   0.081   2.218  0.2145 -0.6450  0.9137
  772MOL0     C 6463   9.956   0.180   2.273  0.4851  0.3854  0.4819
  772MOL0     C 6464  10.676   0.059   2.504 -0.5694  0.2503  1.5919
  772MOL0     C 6465  10.814   0.076   2.522  0.0711 -0.7209 -0.2939
  772MOL0     C 6466  10.835   0.107   2.676 -0.2694 -0.5289  0.1384
  772MOL0     H 6467  11.331   0.146   2.215  0.3647  0.2528 -0.0054
  772MOL0     H 6468  11.577   0.130   2.265 -1.3788  3.2251  1.3620
  772MOL0     H 6469  11.730  -0.214   2.349 -1.4721  1.5755 -0.5752
  772MOL0     H 6470  11.723  -0.228   2.525 -2.7724  0.9740 -0.6159
  772MOL0     H 6471  11.938  -0.090   2.351 -0.5951 -0.7259 -0.2338
  772MOL0     H 6472  11.938  -0.086   2.528  0.5343 -1.9728  0.7456
  772MOL0     H 6473  12.003  -0.314   2.545 -1.0275 -3.3201 -1.0231
  772MOL0     H 6474  11.924  -0.355   2.414 -0.3479  1.5831 -0.6697
  772MOL0     H 6475  12.107  -0.238   2.271 -2.3379 -0.7599 -0.2663
  772MOL0     H 6476  12.188  -0.193   2.418  1.5802 -1.1830  0.7761
  772MOL0     H 6477  12.144  -0.470   2.326  0.1335  1.0673 -1.7069
  772MOL0     H 6478  12.257  -0.419   2.464 -0.5370  0.6714  0.4991
  772MOL0     H 6479  12.292  -0.342   2.178  0.5673 -0.0424  0.4324
  772MOL0     H 6480  12.403  -0.314   2.307 -2.6923 -0.1144  6.0434
  772MOL0     H 6481  12.426  -0.548   2.149  0.1335  0.6334 -0.5750
  772MOL0     H 6482  12.296  -0.591   2.257  1.9245 -1.0689  0.6715
  772MOL0     H 6483  12.583  -0.521   2.345  0.2162  0.9175  2.0743
  772MOL0     H 6484  12.460  -0.504   2.457  3.2678 -0.6234  1.4598
  772MOL0     H 6485  12.574  -0.773   2.214  0.1079  2.7889  0.2469
  772MOL0     H 6486  12.666  -1.013   2.250  0.8913 -1.9223  0.4675
  772MOL0     H 6487  12.505  -1.078   2.252 -0.4301 -0.8676  0.3007
  772MOL0     H 6488  12.684  -1.105   2.511  0.5603 -1.2560  0.1542
  772MOL0     H 6489  12.527  -1.174   2.488 -0.6368  0.2520 -0.9708
  772MOL0     H 6490  12.691  -1.338   2.452  1.6445  2.7973  3.1398
  772MOL0     H 6491  12.599  -1.299   2.304  1.0776 -2.2497 -1.0688
  772MOL0     H 6492  12.827  -1.329   2.235 -0.6428  0.7790 -0.9341
  772MOL0     H 6493  12.811  -1.158   2.232  0.0237  0.9514  1.1745
  772MOL0     H 6494  13.048  -1.258   2.152 -2.6678 -3.8707  0.8731
  772MOL0     H 6495  13.347  -1.256   2.064  1.5626 -0.9628 -1.7813
  772MOL0     H 6496  13.211  -1.360   2.035 -1.2563 -0.9087  0.4987
  772MOL0     H 6497  13.359  -1.422   2.122  2.3363  2.5698  0.7807
  772MOL0     H 6498  13.609  -1.577   2.440  2.3007  0.2490  2.6555
  772MOL0     H 6499  13.823  -1.670   2.450  1.0493  0.7301  2.6505
  772MOL0     H 6500  14.062  -1.681   2.493 -0.5778  0.0247  0.1275
  772MOL0     H 6501  14.070  -1.730   2.317  0.7347  1.2777 -0.6973
  772MOL0     H 6502  14.288  -1.643   2.309  2.3032 -1.4312 -0.0235
  772MOL0     H 6503  14.276  -1.573   2.467  1.3212 -0.4078  0.1232
  772MOL0     H 6504  14.287  -1.866   2.411 -4.2672 -0.0493 -0.5433
  772MOL0     H 6505  14.251  -1.803   2.573  2.3592  0.6458  1.9322
  772MOL0     H 6506  14.482  -1.688   2.579  3.2108  0.6817 -2.2089
  772MOL0     H 6507  14.511  -1.753   2.417 -1.0555  2.2890  0.4972
  772MOL0     H 6508  14.422  -1.935   2.652 -0.1023  0.1016 -0.8141
  772MOL0     H 6509  14.519  -1.984   2.514  0.5253 -0.7440  0.7129
  772MOL0     H 6510  14.646  -1.990   2.721  2.5237  0.0424 -1.8562
  772MOL0     H 6511  14.610  -1.819   2.750  4.6916 -0.0423 -0.1179
  772MOL0     H 6512  14.724  -1.765   2.546 -0.6911  0.4167  1.0351
  772MOL0     H 6513  14.780  -1.929   2.521 -1.5406  0.1281 -1.2052
  772MOL0     H 6514  14.845  -1.717   2.721 -1.8070 -0.4768 -0.2114
  772MOL0     H 6515  14.966  -1.814   2.638  1.6152 -1.7650  0.1561
  772MOL0     H 6516  13.995  -1.352   2.210  1.3849 -2.0708 -0.2058
  772MOL0     H 6517  13.752  -1.276   2.163  1.0660 -1.6257 -1.0806
  772MOL0     H 6518  13.315  -1.200   2.562 -0.4705  0.5843  0.5035
  772MOL0     H 6519  13.070  -1.154   2.564  1.9854  0.0890  1.6641
  772MOL0     H 6520  11.487  -0.164   2.567 -0.9004  1.1325  2.1203
  772MOL0     H 6521  11.261  -0.134   2.523  0.3589  1.1267  0.6477
  772MOL0     H 6522  10.920  -0.065   2.240 -0.8636  2.5944 -1.6887
  772MOL0     H 6523  10.692  -0.097   2.216  0.9014  0.6305  0.0018
  772MOL0     H 6524  10.473   0.005   2.155 -1.6577  0.1473 -0.2024
  772MOL0     H 6525  10.447  -0.139   2.253  0.9799  0.5233 -1.9261
  772MOL0     H 6526  10.271   0.105   2.273  3.0081  0.0499  1.9592
  772MOL0     H 6527  10.235  -0.057   2.349 -1.0705 -2.0753 -2.2554
  772MOL0     H 6528  10.214   0.011   2.052  0.5119 -2.5951 -1.7671
  772MOL0     H 6529  10.225  -0.154   2.116  0.3206  0.8961 -2.1844
  772MOL0     H 6530  10.024  -0.117   2.259  1.2920 -0.9161  0.7858
  772MOL0     H 6531   9.988  -0.084   2.087  3.8696 -0.8042 -2.5248
  772MOL0     H 6532   9.907   0.268   2.312  1.9234  0.8306  1.3519
  772MOL0     H 6533  10.601   0.078   2.580 -1.8217 -3.4594  1.4949
  772MOL0     H 6534  10.754   0.165   2.722 -0.7036  0.5647 -1.9061
  772MOL0     H 6535  10.858   0.023   2.742  1.5820 -0.2995 -0.1563
  772MOL0     H 6536  10.916   0.181   2.682 -0.7410 -0.0319  0.4466
  773MOL0     O 6537   9.263   4.494   5.664  0.2441 -0.3337 -0.1315
  773MOL0     C 6538   9.142   4.526   5.651 -0.3975 -0.0641  0.4122
  773MOL0     O 6539   9.054   4.455   5.572 -0.2155 -1.3715 -0.1980
  773MOL0     C 6540   9.096   4.341   5.514 -0.8985  0.2214 -0.4382
  773MOL0     C 6541   9.104   4.223   5.588  0.0492 -0.0305 -0.3415
  773MOL0     C 6542   9.127   4.100   5.535  0.4356 -0.2723 -0.0127
  773MOL0     C 6543   9.140   4.084   5.398  1.1343  0.2859 -1.0210
  773MOL0     O 6544   9.166   3.964   5.349 -0.4596  0.8741  0.2536
  773MOL0     C 6545   9.126   3.851   5.433  0.1012  0.1217  0.1411
  773MOL0     C 6546   9.136   3.712   5.351 -0.3827 -0.5312  0.1680
  773MOL0     C 6547   9.059   3.614   5.439  0.4700 -0.4850  0.3059
  773MOL0     C 6548   9.052   3.488   5.356  0.4343  1.4257 -0.2679
  773MOL0     C 6549   9.026   3.366   5.439 -0.9420  0.1362  0.0465
  773MOL0     C 6550   8.959   3.262   5.360 -0.1589 -0.0967  0.0843
  773MOL0     C 6551   8.930   3.134   5.442 -0.3516  0.5815  1.2548
  773MOL0     C 6552   8.877   3.023   5.348 -0.9524  0.3043 -0.0818
  773MOL0     N 6553   8.835   2.912   5.433 -0.2297  0.1251  0.5639
  773MOL0     C 6554   8.921   2.816   5.485 -0.3415 -0.6371 -0.1630
  773MOL0     C 6555   8.843   2.722   5.524 -0.4445 -0.9324  0.1026
  773MOL0     C 6556   8.900   2.590   5.560 -0.0186 -0.0456 -0.7771
  773MOL0     C 6557   8.974   2.587   5.697 -0.1119  0.8059  0.2125
  773MOL0     C 6558   9.058   2.464   5.710  0.1906  0.7609 -0.0781
  773MOL0     C 6559   9.104   2.446   5.847 -0.8808  0.3467  0.4081
  773MOL0     O 6560   8.997   2.380   5.920 -0.6336 -0.2311  0.2118
  773MOL0     C 6561   9.017   2.322   6.044  0.5990  1.0949 -0.3159
  773MOL0     C 6562   8.906   2.302   6.128 -0.1820 -0.9083 -0.3837
  773MOL0     C 6563   8.908   2.280   6.269  0.2573 -0.3359  0.0407
  773MOL0     C 6564   8.780   2.277   6.336  0.5883 -0.4088 -0.3535
  773MOL0     C 6565   9.045   2.261   6.318  0.8716 -0.6127 -0.8913
  773MOL0     C 6566   9.067   2.227   6.470 -0.2666  0.2880  0.4499
  773MOL0     O 6567   8.961   2.193   6.551 -0.0105 -0.2949 -0.0150
  773MOL0     C 6568   9.002   2.162   6.678 -0.4382 -0.1626 -0.7243
  773MOL0     C 6569   8.969   2.255   6.768  0.2319  0.8066 -0.1129
  773MOL0     C 6570   8.989   2.237   6.904  0.5136 -0.3655 -0.1254
  773MOL0     C 6571   9.051   2.123   6.949 -0.1820 -0.3981 -0.9231
  773MOL0     O 6572   9.081   2.094   7.079 -0.1360  0.0615 -0.2129
  773MOL0     C 6573   9.048   2.187   7.186 -0.9801 -0.0266  0.8090
  773MOL0     C 6574   9.040   2.100   7.312  0.1487  0.2394 -0.9204
  773MOL0     C 6575   8.908   2.013   7.313  0.1442 -0.0400 -0.5943
  773MOL0     C 6576   8.888   1.934   7.449  0.0339  0.4973 -0.0989
  773MOL0     C 6577   8.754   1.867   7.472  0.7614  0.7224  1.5043
  773MOL0     C 6578   8.733   1.846   7.625  0.2480  1.4734 -0.0030
  773MOL0     C 6579   8.607   1.752   7.645 -0.6960  0.0094  0.2538
  773MOL0     C 6580   8.575   1.737   7.795 -0.8277  0.1988  0.4185
  773MOL0    Cl 6581   8.545   1.881   7.886  0.0521  0.2327 -0.0715
  773MOL0     C 6582   9.086   2.020   6.858 -0.5161  0.8068  0.0754
  773MOL0     C 6583   9.055   2.037   6.718 -0.8218  0.0625 -0.6823
  773MOL0     O 6584   9.184   2.206   6.501  0.2724  0.5092 -0.5672
  773MOL0     C 6585   9.158   2.294   6.239  0.1821  0.1915 -0.8035
  773MOL0     C 6586   9.141   2.325   6.103 -0.7462  0.4921 -0.1929
  773MOL0     N 6587   8.709   2.764   5.511 -0.8143 -1.1724 -0.1484
  773MOL0     N 6588   8.701   2.878   5.446  0.3838  0.1333 -0.8868
  773MOL0     C 6589   9.125   4.193   5.322  0.4686 -0.7377  0.5581
  773MOL0     C 6590   9.101   4.322   5.376 -0.6271 -0.0235  0.0896
  773MOL0     C 6591   9.098   4.661   5.707 -0.1460 -0.2697  0.5723
  773MOL0     C 6592   8.977   4.702   5.644  0.2734  0.3537  0.6094
  773MOL0     C 6593   8.925   4.829   5.677 -0.1449  0.0933 -1.0567
  773MOL0     C 6594   8.983   4.918   5.768 -0.2611 -1.6753  0.8619
  773MOL0     O 6595   8.919   5.042   5.782 -0.5347  0.4372 -0.2566
  773MOL0     C 6596   8.936   5.106   5.912  0.9388 -0.2940 -0.4354
  773MOL0     C 6597   9.014   5.236   5.889  0.4416  0.2187 -0.0703
  773MOL0     C 6598   8.996   5.313   6.019  0.2720 -0.0346 -0.6241
  773MOL0     C 6599   9.117   5.413   6.026  0.6614  0.1875 -0.7240
  773MOL0     C 6600   9.240   5.340   6.055 -0.3017 -0.5023 -0.8168
  773MOL0     C 6601   9.339   5.279   6.088 -0.2779 -0.5506 -0.8230
  773MOL0     C 6602   9.093   4.870   5.833  0.3944  0.1958 -0.4632
  773MOL0     C 6603   9.160   4.749   5.791 -1.0156 -0.7224  0.3063
  773MOL0     C 6604   9.286   4.699   5.861 -0.2532  1.2375  0.1975
  773MOL0     H 6605   9.103   4.240   5.695  2.4143 -1.8636  0.0519
  773MOL0     H 6606   9.135   4.021   5.609 -0.5599  2.3582  3.0983
  773MOL0     H 6607   9.021   3.849   5.462  0.4144 -0.3161  1.3153
  773MOL0     H 6608   9.193   3.843   5.520 -0.1007 -0.4197  0.2523
  773MOL0     H 6609   9.098   3.728   5.249  0.1696 -3.0921 -0.5165
  773MOL0     H 6610   9.242   3.691   5.337  0.3394  3.6160 -2.7947
  773MOL0     H 6611   9.122   3.594   5.526  4.7461  0.9414 -2.1883
  773MOL0     H 6612   8.959   3.654   5.460 -0.1865 -1.5329 -0.7324
  773MOL0     H 6613   8.975   3.503   5.280 -0.8075 -2.8295 -0.1092
  773MOL0     H 6614   9.142   3.470   5.297  0.6227  0.2243  0.3693
  773MOL0     H 6615   8.975   3.399   5.530 -1.6235  0.7554 -0.5434
  773MOL0     H 6616   9.128   3.340   5.467 -0.3312  1.6527 -0.6680
  773MOL0     H 6617   8.859   3.293   5.328  0.4610 -0.2274 -2.2018
  773MOL0     H 6618   9.008   3.241   5.264 -0.6782  0.9557 -0.4319
  773MOL0     H 6619   8.860   3.142   5.525  0.5443 -1.8673  2.3173
  773MOL0     H 6620   9.028   3.096   5.471  0.1353  1.0279  0.2430
  773MOL0     H 6621   8.794   3.054   5.284  1.3720  0.8356 -3.0609
  773MOL0     H 6622   8.952   2.994   5.274  1.0245  2.8773  0.7892
  773MOL0     H 6623   9.029   2.807   5.489 -0.2006  0.3269 -1.1830
  773MOL0     H 6624   8.977   2.558   5.489  3.8152  3.0804  1.5389
  773MOL0     H 6625   8.821   2.515   5.567  0.1602 -0.2132 -0.5253
  773MOL0     H 6626   9.041   2.674   5.703 -1.6195  2.1951 -1.6838
  773MOL0     H 6627   8.894   2.594   5.770 -0.2375  1.7342 -0.0039
  773MOL0     H 6628   9.016   2.366   5.684  1.8384 -0.1622  0.5432
  773MOL0     H 6629   9.145   2.476   5.645  1.2085 -1.9528  0.6259
  773MOL0     H 6630   9.197   2.389   5.851 -1.4270 -0.4900  1.5547
  773MOL0     H 6631   9.132   2.545   5.885 -0.6905  0.6753 -0.5438
  773MOL0     H 6632   8.810   2.300   6.077  0.2156  0.9765 -1.3046
  773MOL0     H 6633   8.784   2.341   6.425 -0.9624 -0.3082 -0.3348
  773MOL0     H 6634   8.756   2.177   6.372 -1.9899 -0.1202 -1.0697
  773MOL0     H 6635   8.696   2.290   6.266 -1.4962 -3.9657  1.2541
  773MOL0     H 6636   8.940   2.353   6.730 -2.5716  0.2284  0.3296
  773MOL0     H 6637   8.958   2.317   6.969 -0.0444 -0.0931 -0.7196
  773MOL0     H 6638   9.136   2.248   7.209 -0.7463 -0.6455  1.5773
  773MOL0     H 6639   8.957   2.247   7.177 -1.3489 -0.7895 -1.0870
  773MOL0     H 6640   9.127   2.035   7.321 -0.2853 -0.9238 -3.9885
  773MOL0     H 6641   9.021   2.165   7.398 -0.3781  3.2498 -3.1163
  773MOL0     H 6642   8.915   1.927   7.246 -1.7443 -0.5172 -0.2335
  773MOL0     H 6643   8.824   2.081   7.296  1.2073  2.4056  2.7852
  773MOL0     H 6644   8.895   2.005   7.533  0.5062  1.1193 -0.6497
  773MOL0     H 6645   8.966   1.858   7.455  0.4501  0.9609  0.4631
  773MOL0     H 6646   8.672   1.934   7.445  1.0228  1.0261  1.4642
  773MOL0     H 6647   8.738   1.777   7.413  1.1395  0.9001  1.1325
  773MOL0     H 6648   8.711   1.936   7.683  0.8180  1.8054 -0.2905
  773MOL0     H 6649   8.813   1.788   7.674 -1.0834  0.5742  1.1929
  773MOL0     H 6650   8.628   1.648   7.620 -3.6414 -0.8863  1.1170
  773MOL0     H 6651   8.520   1.787   7.590  0.9176 -0.8894 -3.1829
  773MOL0     H 6652   8.663   1.686   7.833  1.5114  2.7032 -1.2880
  773MOL0     H 6653   8.489   1.670   7.808 -1.0407 -0.6546 -3.7758
  773MOL0     H 6654   9.125   1.920   6.876  1.7229  0.9356 -3.1835
  773MOL0     H 6655   9.052   1.947   6.659  0.9276 -0.4738 -0.0191
  773MOL0     H 6656   9.257   2.302   6.282 -0.8272  2.0509  1.4466
  773MOL0     H 6657   9.231   2.344   6.045 -0.2882 -1.8953 -0.3280
  773MOL0     H 6658   9.135   4.177   5.215 -1.9644 -1.7852  0.4243
  773MOL0     H 6659   9.089   4.400   5.300  2.2834 -0.1650 -0.6097
  773MOL0     H 6660   8.919   4.645   5.571 -3.3908  4.9293 -0.5672
  773MOL0     H 6661   8.835   4.868   5.631  0.1518  0.6921 -1.1501
  773MOL0     H 6662   8.842   5.124   5.965  2.4212  2.2717  1.5386
  773MOL0     H 6663   8.987   5.046   5.987  1.7916  0.1686 -0.6328
  773MOL0     H 6664   8.962   5.291   5.809  1.7567 -2.2424 -2.8220
  773MOL0     H 6665   9.119   5.215   5.864  0.6307  0.7570  0.2570
  773MOL0     H 6666   8.899   5.362   6.031 -0.9845 -1.8865 -2.4272
  773MOL0     H 6667   9.007   5.248   6.106  0.1762  1.9096  0.8935
  773MOL0     H 6668   9.085   5.488   6.099  1.1316  0.6629 -1.0007
  773MOL0     H 6669   9.130   5.471   5.934  0.3319  1.7306  0.1764
  773MOL0     H 6670   9.430   5.227   6.112  0.2544  1.2091  1.3705
  773MOL0     H 6671   9.144   4.933   5.905  0.3813  0.0652 -0.3385
  773MOL0     H 6672   9.290   4.740   5.962 -1.9187 -3.7810  2.6282
  773MOL0     H 6673   9.281   4.590   5.867  0.3233  1.0361 -2.0913
  773MOL0     H 6674   9.367   4.739   5.798 -0.1620 -1.9453 -1.9621
  774MOL0     O 6675   6.851   6.214  10.926 -0.0040 -0.8694  0.0149
  774MOL0     C 6676   6.892   6.136  10.838  0.6191  0.2247 -0.2490
  774MOL0     O 6677   6.953   6.015  10.861  0.2829 -0.4787  0.6111
  774MOL0     C 6678   6.981   5.979  10.987  0.5801 -0.1075 -0.2137
  774MOL0     C 6679   6.920   5.866  11.038 -0.0826  0.9204  0.3512
  774MOL0     C 6680   6.949   5.823  11.173  0.0879  0.5846  0.8391
  774MOL0     C 6681   7.041   5.886  11.252  0.0931  0.3189  0.2915
  774MOL0     O 6682   7.069   5.848  11.376  0.5158 -0.4480 -0.7653
  774MOL0     C 6683   6.989   5.742  11.438  0.1127 -0.4669  0.0043
  774MOL0     C 6684   7.055   5.603  11.400 -0.0029 -0.0505  0.4971
  774MOL0     C 6685   6.991   5.489  11.473  0.3470  0.5433 -1.1594
  774MOL0     C 6686   7.049   5.361  11.413 -0.3404  0.2431 -0.3639
  774MOL0     C 6687   6.999   5.234  11.484 -0.7971 -0.0883  0.2321
  774MOL0     C 6688   7.086   5.113  11.451 -0.3568  0.3007 -0.2611
  774MOL0     C 6689   7.035   4.973  11.487 -0.9389  0.0273 -0.7865
  774MOL0     C 6690   7.032   4.967  11.648 -0.2181  0.0461  0.0671
  774MOL0     N 6691   7.011   4.828  11.699 -0.3817  1.1806 -0.1367
  774MOL0     C 6692   7.109   4.730  11.690 -0.2290 -0.2114 -0.0682
  774MOL0     C 6693   7.041   4.621  11.717  0.8906 -0.2985 -1.3003
  774MOL0     C 6694   7.102   4.494  11.731 -0.2055 -0.1422 -0.2691
  774MOL0     C 6695   7.000   4.382  11.749  0.8340  0.1968 -0.5400
  774MOL0     C 6696   7.059   4.246  11.729 -0.4738 -0.1199 -0.1176
  774MOL0     C 6697   6.959   4.146  11.678  0.7158  0.7100  0.5989
  774MOL0     O 6698   7.017   4.012  11.669  0.8019  1.1961  0.0670
  774MOL0     C 6699   6.943   3.915  11.606  0.0378  0.6726 -0.5078
  774MOL0     C 6700   6.997   3.783  11.606  0.3902  0.0908  0.1747
  774MOL0     C 6701   6.925   3.672  11.558 -0.0247  0.1966 -0.4251
  774MOL0     C 6702   6.984   3.536  11.578 -0.9715 -0.3558  0.2246
  774MOL0     C 6703   6.795   3.692  11.509  0.2893  1.0632  0.1413
  774MOL0     C 6704   6.706   3.585  11.452 -0.3518  0.0268  0.2038
  774MOL0     O 6705   6.572   3.609  11.453 -0.1908 -0.6503  0.4707
  774MOL0     C 6706   6.492   3.520  11.392  0.6826 -1.0117  0.4215
  774MOL0     C 6707   6.461   3.395  11.447  0.1079  0.5153 -0.2493
  774MOL0     C 6708   6.359   3.320  11.394  0.2425  0.6980  1.2424
  774MOL0     C 6709   6.279   3.374  11.295  1.0887  0.0668 -0.5494
  774MOL0     O 6710   6.172   3.299  11.244  0.0457  0.5945  0.4620
  774MOL0     C 6711   6.068   3.375  11.172 -0.2910 -0.0577 -0.8852
  774MOL0     C 6712   5.927   3.300  11.178 -0.6533 -0.0841 -1.3779
  774MOL0     C 6713   5.830   3.386  11.110  0.2048 -0.0321  0.0509
  774MOL0     C 6714   5.711   3.305  11.065 -0.5049  0.7620 -0.4516
  774MOL0     C 6715   5.603   3.394  11.029  0.4117  0.2178 -0.4071
  774MOL0     C 6716   5.482   3.319  10.983 -0.2314  0.2774 -0.8751
  774MOL0     C 6717   5.490   3.274  10.836  0.5026  0.7059 -0.7664
  774MOL0     C 6718   5.389   3.161  10.815  0.5157 -0.0308  0.9447
  774MOL0    Cl 6719   5.406   3.097  10.643  0.2217  0.1320  0.3227
  774MOL0     C 6720   6.312   3.495  11.239 -0.9119  0.6850  0.0723
  774MOL0     C 6721   6.420   3.566  11.284  0.8741 -0.8830 -0.5026
  774MOL0     O 6722   6.756   3.473  11.424  0.7352 -0.1051  0.7245
  774MOL0     C 6723   6.741   3.823  11.505  0.3064  0.4325  0.4936
  774MOL0     C 6724   6.815   3.937  11.555  0.5006  0.3722  0.4185
  774MOL0     N 6725   6.908   4.653  11.731 -0.2224  0.3364 -0.6271
  774MOL0     N 6726   6.897   4.775  11.723  0.1992  0.4474 -0.3311
  774MOL0     C 6727   7.104   5.997  11.201 -0.1110  0.4879 -0.2878
  774MOL0     C 6728   7.072   6.044  11.069 -0.3756 -0.7297  0.2074
  774MOL0     C 6729   6.845   6.154  10.697  0.6654 -0.3915  0.0531
  774MOL0     C 6730   6.899   6.058  10.596  0.7281 -0.4591 -0.8962
  774MOL0     C 6731   6.861   6.067  10.466  0.4020  0.4588  1.5442
  774MOL0     C 6732   6.789   6.173  10.425  1.0302 -0.0065  1.4028
  774MOL0     O 6733   6.746   6.173  10.293 -0.0803  0.0516  0.3308
  774MOL0     C 6734   6.599   6.188  10.267 -0.1456  0.2628  0.2568
  774MOL0     C 6735   6.517   6.056  10.293  0.2999 -0.7704  0.4622
  774MOL0     C 6736   6.496   6.033  10.448 -0.6691 -0.5704 -0.0110
  774MOL0     C 6737   6.381   5.934  10.473  0.0890 -0.8828  0.4602
  774MOL0     C 6738   6.253   6.006  10.484 -1.1900 -0.2394 -0.9714
  774MOL0     C 6739   6.147   6.050  10.500  0.0827  0.4718  0.5361
  774MOL0     C 6740   6.741   6.271  10.505  1.1020  0.3875  0.9392
  774MOL0     C 6741   6.760   6.263  10.641 -0.3446  0.7673 -0.0221
  774MOL0     C 6742   6.684   6.363  10.712  0.1748 -0.1572 -0.7790
  774MOL0     H 6743   6.856   5.794  10.987  2.8829 -4.6353  3.4957
  774MOL0     H 6744   6.900   5.729  11.195 -1.3250  0.5107 -2.1230
  774MOL0     H 6745   6.882   5.742  11.415 -0.1888 -0.4870  1.3322
  774MOL0     H 6746   6.988   5.769  11.544 -0.7009  2.0407 -0.5659
  774MOL0     H 6747   7.031   5.589  11.295  0.6508  2.7204 -0.1188
  774MOL0     H 6748   7.162   5.611  11.422  0.1954  3.8163 -1.0560
  774MOL0     H 6749   7.007   5.490  11.581 -1.7115  0.0656 -0.8110
  774MOL0     H 6750   6.884   5.475  11.457  0.4030  0.7109 -1.7189
  774MOL0     H 6751   7.036   5.359  11.304  0.2415  1.0973 -0.4565
  774MOL0     H 6752   7.155   5.347  11.434 -0.3323 -0.7447 -0.9987
  774MOL0     H 6753   6.892   5.216  11.465 -0.3286 -1.1569 -1.5935
  774MOL0     H 6754   7.006   5.246  11.592  2.0774 -4.1474  0.7116
  774MOL0     H 6755   7.117   5.118  11.347 -1.7286  1.3143 -0.6515
  774MOL0     H 6756   7.184   5.114  11.499 -1.3179 -1.2365  1.9184
  774MOL0     H 6757   7.104   4.897  11.450 -1.4345  0.3538 -2.4577
  774MOL0     H 6758   6.934   4.950  11.452 -0.0498 -0.6629 -3.1145
  774MOL0     H 6759   7.121   5.008  11.695 -1.5255  3.5729 -0.2218
  774MOL0     H 6760   6.957   5.039  11.682  0.8108  0.1246  2.3205
  774MOL0     H 6761   7.215   4.748  11.681 -0.2763  1.4652  1.9750
  774MOL0     H 6762   7.185   4.495  11.801 -0.4863  3.7378  0.2288
  774MOL0     H 6763   7.155   4.465  11.640  0.2790 -1.2275  0.3443
  774MOL0     H 6764   6.957   4.404  11.847  1.4345  2.1101 -0.6719
  774MOL0     H 6765   6.931   4.403  11.666 -0.1618  0.8957  0.4397
  774MOL0     H 6766   7.144   4.258  11.661 -2.7619  1.6303 -2.9153
  774MOL0     H 6767   7.088   4.200  11.823  1.2326  1.0860 -0.0047
  774MOL0     H 6768   6.870   4.137  11.740 -0.9596 -0.2891 -1.7781
  774MOL0     H 6769   6.935   4.184  11.578  1.0939 -2.0349 -0.6194
  774MOL0     H 6770   7.089   3.758  11.658 -1.6701 -1.8353  3.3164
  774MOL0     H 6771   7.076   3.522  11.636 -0.2462  1.9105 -0.2332
  774MOL0     H 6772   7.001   3.484  11.483  2.0254  1.0802 -0.1665
  774MOL0     H 6773   6.911   3.481  11.637  1.6502  1.3999  5.7404
  774MOL0     H 6774   6.522   3.357  11.529  2.5228  1.7214 -1.3838
  774MOL0     H 6775   6.336   3.224  11.439 -4.7928  1.9621  1.9444
  774MOL0     H 6776   6.056   3.475  11.216 -6.1044 -0.8226  0.0491
  774MOL0     H 6777   6.092   3.387  11.066  1.3492  0.3265 -0.5001
  774MOL0     H 6778   5.947   3.204  11.130  2.7201 -0.5877  0.7107
  774MOL0     H 6779   5.893   3.274  11.279 -0.2548  1.5194 -0.8011
  774MOL0     H 6780   5.880   3.419  11.018 -3.1732  0.0761 -1.9393
  774MOL0     H 6781   5.799   3.470  11.172  1.1914 -0.0676  0.6102
  774MOL0     H 6782   5.670   3.236  11.139  1.1357  0.8843  0.6204
  774MOL0     H 6783   5.750   3.241  10.985  0.3670  1.2411 -0.4220
  774MOL0     H 6784   5.574   3.460  11.111  0.8814 -3.8352  3.3802
  774MOL0     H 6785   5.650   3.451  10.947  2.8820 -2.0785 -0.7234
  774MOL0     H 6786   5.398   3.388  10.994  2.0719  3.1710 -0.0206
  774MOL0     H 6787   5.456   3.232  11.043 -1.8716  1.3101 -0.0257
  774MOL0     H 6788   5.583   3.223  10.809 -1.9591 -4.1651 -1.2385
  774MOL0     H 6789   5.479   3.361  10.771 -1.9494  2.6264  1.9997
  774MOL0     H 6790   5.290   3.207  10.825  1.2430  2.6340 -2.2246
  774MOL0     H 6791   5.409   3.076  10.880  1.5930  0.6331  1.5015
  774MOL0     H 6792   6.255   3.521  11.151  1.1026 -0.7726 -1.7911
  774MOL0     H 6793   6.448   3.668  11.258  1.0466 -0.4247  1.3812
  774MOL0     H 6794   6.644   3.853  11.468 -0.7288 -0.7550  2.0882
  774MOL0     H 6795   6.766   4.034  11.559 -1.7348 -0.5855 -1.2007
  774MOL0     H 6796   7.189   6.045  11.248  1.4979 -2.1499 -0.2608
  774MOL0     H 6797   7.119   6.133  11.029 -1.3026 -0.1907  0.3102
  774MOL0     H 6798   6.971   5.980  10.618  1.4333  0.4871  0.3233
  774MOL0     H 6799   6.900   5.987  10.404 -0.2965  0.4599  1.0961
  774MOL0     H 6800   6.552   6.274  10.315  2.1421  1.9152 -0.2969
  774MOL0     H 6801   6.593   6.203  10.158  4.0558 -3.1340 -0.7176
  774MOL0     H 6802   6.584   5.977  10.257  1.3357  0.0958  0.4372
  774MOL0     H 6803   6.419   6.056  10.246  0.7146 -0.9064 -0.4283
  774MOL0     H 6804   6.588   5.988  10.485 -0.9113 -0.2352  1.0316
  774MOL0     H 6805   6.470   6.128  10.496  0.7130 -1.2010  2.0802
  774MOL0     H 6806   6.391   5.893  10.573  1.6349 -0.7632  0.3888
  774MOL0     H 6807   6.388   5.842  10.415 -0.0319  0.6852 -2.2248
  774MOL0     H 6808   6.050   6.094  10.487  1.1072  2.0893 -2.6182
  774MOL0     H 6809   6.679   6.344  10.453 -0.0483 -0.7618  0.6596
  774MOL0     H 6810   6.655   6.456  10.662 -3.4213  1.1944  3.1969
  774MOL0     H 6811   6.599   6.312  10.758  2.9267 -1.0803  3.9243
  774MOL0     H 6812   6.744   6.411  10.789  0.0239  2.0177 -1.9326
  775MOL0     O 6813   4.054   0.007   1.884 -0.0030 -0.1793  0.3152
  775MOL0     C 6814   4.132   0.055   1.801  0.2533  0.0190 -0.4596
  775MOL0     O 6815   4.181   0.182   1.804 -0.0262  0.5379  0.4721
  775MOL0     C 6816   4.129   0.259   1.905  0.6927  0.1893  0.6106
  775MOL0     C 6817   4.031   0.349   1.879  0.1002  0.5695  0.4734
  775MOL0     C 6818   3.973   0.429   1.982 -0.3472  0.1968  0.2825
  775MOL0     C 6819   4.030   0.434   2.108 -0.0866 -0.3759 -0.7214
  775MOL0     O 6820   3.980   0.507   2.212  0.0837  0.0333 -0.3693
  775MOL0     C 6821   3.840   0.541   2.200 -0.8003  0.8049 -0.2016
  775MOL0     C 6822   3.771   0.576   2.335  0.5667 -0.2516 -0.0365
  775MOL0     C 6823   3.818   0.726   2.355 -0.2630  0.0631 -0.2554
  775MOL0     C 6824   3.800   0.775   2.498  0.0769 -0.2854 -0.4311
  775MOL0     C 6825   3.862   0.917   2.498  0.5149  0.7265 -0.2849
  775MOL0     C 6826   3.836   0.983   2.639 -0.1278 -0.2783 -0.1379
  775MOL0     C 6827   3.890   1.128   2.642 -0.5880  0.3486 -0.2366
  775MOL0     C 6828   4.036   1.134   2.661 -1.0851  0.4379 -0.2367
  775MOL0     N 6829   4.091   1.269   2.659  0.8272  1.3102  0.1899
  775MOL0     C 6830   4.135   1.341   2.548 -0.7811  0.2219  0.1274
  775MOL0     C 6831   4.214   1.440   2.604 -0.4485  0.0141  0.4793
  775MOL0     C 6832   4.265   1.549   2.525 -0.5708  0.7949  0.1515
  775MOL0     C 6833   4.205   1.689   2.538  0.5933  0.0176  0.3545
  775MOL0     C 6834   4.197   1.744   2.676  1.0439 -0.7737 -0.6005
  775MOL0     C 6835   4.163   1.895   2.676 -0.0215 -0.3193  1.0034
  775MOL0     O 6836   4.277   1.974   2.625  0.5651 -0.3241 -0.8566
  775MOL0     C 6837   4.299   2.107   2.671 -0.1843 -0.1302 -0.4425
  775MOL0     C 6838   4.212   2.180   2.759 -0.1830 -0.0980  0.5068
  775MOL0     C 6839   4.250   2.307   2.802  0.6569 -0.3889  0.2051
  775MOL0     C 6840   4.149   2.390   2.866  0.1967  0.2200  0.1059
  775MOL0     C 6841   4.380   2.362   2.760  0.3111 -0.2836  0.3201
  775MOL0     C 6842   4.410   2.496   2.783  0.3779 -1.1764 -0.1841
  775MOL0     O 6843   4.482   2.560   2.687  0.2654  0.0616  1.0712
  775MOL0     C 6844   4.560   2.668   2.718 -0.1808  0.1519 -0.8918
  775MOL0     C 6845   4.678   2.644   2.793  0.4437 -1.3501  1.2058
  775MOL0     C 6846   4.744   2.756   2.847 -0.7371 -0.6228 -0.0696
  775MOL0     C 6847   4.689   2.889   2.831 -0.1205 -0.2302 -0.5801
  775MOL0     O 6848   4.725   3.005   2.906  0.5052 -0.2674 -0.1462
  775MOL0     C 6849   4.779   2.982   3.040  0.4536 -0.6552  0.3113
  775MOL0     C 6850   4.836   3.116   3.100 -0.1590 -0.2860 -0.4099
  775MOL0     C 6851   4.916   3.090   3.235  0.1275  0.2341 -0.2027
  775MOL0     C 6852   4.996   3.226   3.259  0.2514 -0.3149  0.0752
  775MOL0     C 6853   5.031   3.247   3.407 -0.4866  1.2856  1.4118
  775MOL0     C 6854   5.170   3.177   3.432 -0.0822  0.2255  0.5500
  775MOL0     C 6855   5.173   3.097   3.567 -0.0430 -0.5692 -0.4322
  775MOL0     C 6856   5.174   3.202   3.682 -0.6612 -0.1825  0.9962
  775MOL0    Cl 6857   5.113   3.120   3.820  0.7475 -0.3342  0.1045
  775MOL0     C 6858   4.576   2.904   2.755 -0.1994 -0.1611 -0.4152
  775MOL0     C 6859   4.506   2.796   2.708  0.4831  0.4934  0.6378
  775MOL0     O 6860   4.380   2.552   2.893  0.0569  0.3205 -0.6968
  775MOL0     C 6861   4.470   2.275   2.698  0.3359 -0.3654  0.7477
  775MOL0     C 6862   4.430   2.156   2.646  0.8307 -0.0962 -0.1083
  775MOL0     N 6863   4.226   1.427   2.738  0.3396 -0.6858  0.5220
  775MOL0     N 6864   4.143   1.333   2.773 -0.2740  1.6062 -0.1634
  775MOL0     C 6865   4.146   0.358   2.127 -0.3846 -0.5122 -0.1289
  775MOL0     C 6866   4.197   0.267   2.032 -0.7478  0.1796  0.5572
  775MOL0     C 6867   4.179  -0.032   1.692  0.6849 -0.3594 -0.8691
  775MOL0     C 6868   4.218  -0.161   1.710  0.1291  0.1012  0.3113
  775MOL0     C 6869   4.269  -0.240   1.605  0.2880  0.3274 -0.1658
  775MOL0     C 6870   4.277  -0.192   1.477 -0.2961 -0.4312 -0.7256
  775MOL0     O 6871   4.307  -0.284   1.379 -0.6643  0.1468 -0.0890
  775MOL0     C 6872   4.350  -0.252   1.241 -0.5275  0.5519  0.2409
  775MOL0     C 6873   4.324  -0.375   1.155  0.3372  0.1717  0.2574
  775MOL0     C 6874   4.415  -0.494   1.173 -0.1108 -0.2498  0.4701
  775MOL0     C 6875   4.423  -0.554   1.320 -0.0602 -0.3804  0.9264
  775MOL0     C 6876   4.504  -0.675   1.322  0.3297 -0.0107  0.2079
  775MOL0     C 6877   4.578  -0.774   1.341 -0.2465 -0.4500  0.3259
  775MOL0     C 6878   4.232  -0.059   1.450 -0.0944  0.5795  0.0558
  775MOL0     C 6879   4.177   0.017   1.553  0.7310  0.5540 -0.1700
  775MOL0     C 6880   4.128   0.147   1.510 -0.2418  0.4043  0.2768
  775MOL0     H 6881   3.984   0.350   1.781  3.6894 -2.2062 -1.5037
  775MOL0     H 6882   3.882   0.487   1.969 -0.4276  0.4071  1.7084
  775MOL0     H 6883   3.784   0.455   2.164 -1.6269  1.4805 -0.5766
  775MOL0     H 6884   3.836   0.623   2.127  0.9594  0.8326 -0.3045
  775MOL0     H 6885   3.662   0.566   2.329  0.3648 -0.1962  2.3870
  775MOL0     H 6886   3.804   0.504   2.411 -0.4641 -0.6578  0.0545
  775MOL0     H 6887   3.923   0.733   2.322  0.2965  0.4526  1.4984
  775MOL0     H 6888   3.754   0.794   2.298 -2.2550 -1.1502  0.4319
  775MOL0     H 6889   3.697   0.774   2.534  0.4733  1.8736  0.9183
  775MOL0     H 6890   3.853   0.712   2.570 -0.6531  0.9483  1.2547
  775MOL0     H 6891   3.819   0.980   2.421  0.5432  2.0954  0.7794
  775MOL0     H 6892   3.969   0.906   2.478  0.5407 -1.4669  0.6756
  775MOL0     H 6893   3.729   0.988   2.661 -0.1390  0.1784 -0.2861
  775MOL0     H 6894   3.876   0.925   2.722 -1.7167  3.6637  3.7808
  775MOL0     H 6895   3.852   1.188   2.725  1.4927  0.8002  0.4549
  775MOL0     H 6896   3.870   1.180   2.548  4.0843  1.2026 -1.0396
  775MOL0     H 6897   4.062   1.085   2.755 -0.3280  1.0680 -0.1112
  775MOL0     H 6898   4.084   1.082   2.578 -2.7657 -1.8979  0.1432
  775MOL0     H 6899   4.114   1.327   2.442 -0.3205 -3.4357  0.3865
  775MOL0     H 6900   4.257   1.514   2.422 -0.9810 -0.1535  0.4947
  775MOL0     H 6901   4.372   1.558   2.543 -0.6461  0.1127  1.0295
  775MOL0     H 6902   4.270   1.746   2.470  1.0262 -1.9134 -0.9245
  775MOL0     H 6903   4.103   1.682   2.499  0.7130  0.3864 -0.0308
  775MOL0     H 6904   4.114   1.693   2.726  1.5769  0.5200  1.8054
  775MOL0     H 6905   4.287   1.732   2.737 -0.6463 -0.1314  2.2495
  775MOL0     H 6906   4.073   1.915   2.617  2.0933  1.1300 -1.9946
  775MOL0     H 6907   4.131   1.936   2.772 -1.3114  3.4420 -0.8654
  775MOL0     H 6908   4.113   2.139   2.778  1.2784 -3.1073  2.5154
  775MOL0     H 6909   4.052   2.342   2.858  0.6167 -0.9872  1.6610
  775MOL0     H 6910   4.162   2.485   2.813  3.0100  0.5748  1.2188
  775MOL0     H 6911   4.189   2.407   2.967  1.4488 -0.8254 -0.1923
  775MOL0     H 6912   4.714   2.542   2.803 -1.3663 -1.9746  1.8442
  775MOL0     H 6913   4.833   2.735   2.906 -1.6852 -2.5078  0.7858
  775MOL0     H 6914   4.702   2.943   3.108  0.1248 -0.0704  0.2800
  775MOL0     H 6915   4.851   2.900   3.040 -0.1232 -1.2517 -2.3434
  775MOL0     H 6916   4.909   3.156   3.028 -0.6486 -0.4567 -1.0095
  775MOL0     H 6917   4.753   3.186   3.111  0.8982  0.5969  2.8091
  775MOL0     H 6918   4.987   3.009   3.221  1.3428  1.0071  1.1886
  775MOL0     H 6919   4.848   3.078   3.321 -0.8950 -0.9189 -1.1323
  775MOL0     H 6920   4.939   3.311   3.224 -2.1752 -0.7001  2.7150
  775MOL0     H 6921   5.090   3.230   3.204  0.5934  0.8620  0.7212
  775MOL0     H 6922   5.052   3.354   3.418 -0.0792  1.3110  0.4620
  775MOL0     H 6923   4.951   3.213   3.474 -2.2779  1.7403 -0.3797
  775MOL0     H 6924   5.248   3.253   3.427 -1.1713  1.3503  0.0957
  775MOL0     H 6925   5.196   3.106   3.352  1.6822  0.0356  1.2520
  775MOL0     H 6926   5.262   3.034   3.573  0.4539  0.1152 -0.3883
  775MOL0     H 6927   5.082   3.037   3.574  0.1985 -0.8965 -0.0790
  775MOL0     H 6928   5.113   3.291   3.664  0.4852  0.3580 -0.4812
  775MOL0     H 6929   5.276   3.236   3.703 -1.5157  3.1199  0.4540
  775MOL0     H 6930   4.533   3.002   2.741 -1.5064 -0.2951  2.2254
  775MOL0     H 6931   4.411   2.816   2.660  1.9458  0.6237 -2.4614
  775MOL0     H 6932   4.574   2.298   2.680  0.3421 -0.2782  0.9024
  775MOL0     H 6933   4.497   2.090   2.590  0.2175 -0.8917  0.0799
  775MOL0     H 6934   4.207   0.358   2.216 -0.4658 -0.6751 -0.0731
  775MOL0     H 6935   4.276   0.202   2.068 -2.4529 -1.1134  2.2307
  775MOL0     H 6936   4.197  -0.207   1.806 -1.0912 -0.6320 -0.2703
  775MOL0     H 6937   4.295  -0.344   1.615 -0.1972  0.3370  1.4155
  775MOL0     H 6938   4.290  -0.169   1.201  2.2076  2.9742  0.7963
  775MOL0     H 6939   4.455  -0.222   1.233 -0.3666 -0.2027 -0.5593
  775MOL0     H 6940   4.313  -0.335   1.054 -0.5688 -1.0942 -0.1678
  775MOL0     H 6941   4.219  -0.402   1.173 -0.3924 -0.4105 -3.8696
  775MOL0     H 6942   4.384  -0.570   1.101  0.0688 -1.9686  2.1200
  775MOL0     H 6943   4.518  -0.468   1.149 -0.1674  0.3119  0.7975
  775MOL0     H 6944   4.332  -0.582   1.373  0.0475  0.0182  1.3343
  775MOL0     H 6945   4.469  -0.475   1.380  1.5053 -1.3934  1.1242
  775MOL0     H 6946   4.644  -0.855   1.364 -0.3806 -0.5186  0.4686
  775MOL0     H 6947   4.232  -0.017   1.350  1.0621  2.8336  0.9327
  775MOL0     H 6948   4.048   0.173   1.580 -1.5948  2.8679 -1.9705
  775MOL0     H 6949   4.194   0.235   1.515 -0.8127  0.8269  0.4880
  775MOL0     H 6950   4.086   0.148   1.409  3.5028  1.4908 -1.4498
  776MOL0     O 6951   3.731   8.904   8.880  0.2528 -0.7011 -0.1238
  776MOL0     C 6952   3.757   8.805   8.810  0.4194 -0.9509  0.3842
  776MOL0     O 6953   3.741   8.677   8.864 -0.5717  0.0208  0.2769
  776MOL0     C 6954   3.720   8.665   8.997  0.0175 -0.3488 -1.0851
  776MOL0     C 6955   3.608   8.639   9.064  0.0992 -0.0748 -0.1282
  776MOL0     C 6956   3.605   8.627   9.199 -0.4306 -0.3221  0.0551
  776MOL0     C 6957   3.718   8.641   9.278 -0.0521  0.3608 -0.3281
  776MOL0     O 6958   3.719   8.638   9.414 -0.3303 -0.2206 -0.2682
  776MOL0     C 6959   3.594   8.593   9.486 -0.1972  0.7143  0.6297
  776MOL0     C 6960   3.609   8.558   9.630 -1.1002 -0.7830 -0.0625
  776MOL0     C 6961   3.717   8.453   9.641 -0.5195 -0.3591  0.4120
  776MOL0     C 6962   3.723   8.384   9.781  1.0197 -0.5113  0.2114
  776MOL0     C 6963   3.752   8.479   9.893 -0.2512 -0.2782  0.4715
  776MOL0     C 6964   3.901   8.535   9.888  0.4691 -0.1607  0.4804
  776MOL0     C 6965   3.916   8.631  10.001 -0.0100 -0.5203 -0.8698
  776MOL0     C 6966   4.059   8.672  10.012  0.6763  0.1951 -0.3028
  776MOL0     N 6967   4.072   8.753  10.122  0.2305 -0.1180  0.8627
  776MOL0     C 6968   4.034   8.889  10.124 -0.3716 -0.1195  1.2858
  776MOL0     C 6969   4.101   8.934  10.228  0.5486  0.2181 -0.1671
  776MOL0     C 6970   4.092   9.077  10.296 -0.1832 -0.0147 -0.5596
  776MOL0     C 6971   4.199   9.172  10.240 -0.2826  0.3064  0.5626
  776MOL0     C 6972   4.184   9.318  10.274 -0.2435 -0.5705 -0.1397
  776MOL0     C 6973   4.324   9.375  10.282  0.0574 -0.1534  0.1826
  776MOL0     O 6974   4.313   9.518  10.311 -0.0576  0.2122  0.1251
  776MOL0     C 6975   4.420   9.601  10.320 -0.4446  0.2839 -1.0640
  776MOL0     C 6976   4.550   9.559  10.358 -0.0077  0.6689  0.6191
  776MOL0     C 6977   4.656   9.655  10.372  0.7883  1.2661  0.0217
  776MOL0     C 6978   4.790   9.602  10.412  0.0944  0.6074 -0.4386
  776MOL0     C 6979   4.622   9.792  10.347 -0.7636  0.4277 -0.2022
  776MOL0     C 6980   4.729   9.909  10.368  0.3698  1.0217 -0.0151
  776MOL0     O 6981   4.683  10.029  10.409 -0.0486  0.0145 -0.1070
  776MOL0     C 6982   4.768  10.130  10.441 -0.0924  0.3254  0.6356
  776MOL0     C 6983   4.882  10.120  10.522  0.3950  0.8254 -0.2979
  776MOL0     C 6984   4.958  10.230  10.560 -0.4342  0.2769  0.4251
  776MOL0     C 6985   4.914  10.357  10.529 -0.8544  0.8830  0.5930
  776MOL0     O 6986   4.989  10.462  10.573 -0.0512 -0.5106 -0.1566
  776MOL0     C 6987   4.923  10.587  10.601 -0.5394 -0.7367 -0.9979
  776MOL0     C 6988   5.015  10.693  10.652 -0.5741 -0.0065  0.5654
  776MOL0     C 6989   5.109  10.645  10.764 -1.1496 -0.0945  0.7236
  776MOL0     C 6990   5.044  10.582  10.884  0.4769 -0.1106 -0.7833
  776MOL0     C 6991   5.152  10.494  10.950 -0.7673 -0.4840 -0.1525
  776MOL0     C 6992   5.101  10.435  11.079  0.7545  0.1848 -0.6068
  776MOL0     C 6993   5.127  10.536  11.185  0.6417 -0.9446  0.2087
  776MOL0     C 6994   5.048  10.525  11.315 -0.5115  1.0011  0.7132
  776MOL0    Cl 6995   4.870  10.527  11.276  0.3588  0.4098  0.2765
  776MOL0     C 6996   4.802  10.365  10.441  0.2233 -0.1567  0.0349
  776MOL0     C 6997   4.730  10.255  10.400  0.1417  0.6070 -0.0023
  776MOL0     O 6998   4.846   9.884  10.340 -0.7352 -0.2008 -0.0785
  776MOL0     C 6999   4.495   9.825  10.303  0.0704 -0.1010  1.0110
  776MOL0     C 7000   4.395   9.736  10.284 -0.3869  0.9610  0.7473
  776MOL0     N 7001   4.175   8.833  10.286  0.2569  0.6249  0.5949
  776MOL0     N 7002   4.168   8.729  10.215  0.0427  0.3934  0.4248
  776MOL0     C 7003   3.834   8.673   9.218  1.0052  0.6342  0.2720
  776MOL0     C 7004   3.835   8.677   9.080  0.2511 -0.1754  0.7414
  776MOL0     C 7005   3.798   8.820   8.663 -0.1965  0.1920  0.6345
  776MOL0     C 7006   3.840   8.704   8.591 -0.0556 -0.6492  0.5868
  776MOL0     C 7007   3.898   8.724   8.468  0.4065  0.2927  0.8897
  776MOL0     C 7008   3.930   8.848   8.412  0.0059  0.3738  0.1794
  776MOL0     O 7009   4.008   8.866   8.298  0.6271  0.2856 -0.4960
  776MOL0     C 7010   4.100   8.758   8.261 -0.5433 -0.2437 -0.1882
  776MOL0     C 7011   4.216   8.785   8.169 -0.2583 -0.0008 -0.3670
  776MOL0     C 7012   4.304   8.903   8.206  0.3199 -0.1729  0.3994
  776MOL0     C 7013   4.396   8.877   8.320 -0.3039  0.0002 -0.3432
  776MOL0     C 7014   4.450   9.003   8.374 -0.3800 -0.4836  0.1609
  776MOL0     C 7015   4.499   9.120   8.403  0.3091 -0.0965 -0.4069
  776MOL0     C 7016   3.869   8.959   8.474  0.2532  0.1779 -0.4226
  776MOL0     C 7017   3.792   8.947   8.596 -0.6749  0.5680  0.3731
  776MOL0     C 7018   3.726   9.072   8.648 -0.1800  0.4610  0.4855
  776MOL0     H 7019   3.530   8.627   8.990  1.3933 -0.6555 -1.4350
  776MOL0     H 7020   3.508   8.614   9.246 -0.0328  1.9178  1.6698
  776MOL0     H 7021   3.554   8.504   9.436 -2.5300  0.7427  2.2567
  776MOL0     H 7022   3.519   8.671   9.468 -2.6474 -1.6148  0.0636
  776MOL0     H 7023   3.643   8.650   9.679 -2.9966  0.0186 -0.1231
  776MOL0     H 7024   3.508   8.532   9.664 -1.0876 -0.9815 -0.1797
  776MOL0     H 7025   3.695   8.374   9.569 -0.7637  1.6641 -1.8550
  776MOL0     H 7026   3.813   8.496   9.611 -0.4133  0.1408  1.4374
  776MOL0     H 7027   3.627   8.343   9.814  0.2060  0.4846 -0.8285
  776MOL0     H 7028   3.792   8.301   9.768  0.7340 -0.5176 -1.4805
  776MOL0     H 7029   3.732   8.427   9.987  1.1351 -2.9514 -0.6199
  776MOL0     H 7030   3.691   8.569   9.881  0.3139  0.0866  0.2377
  776MOL0     H 7031   3.972   8.453   9.902 -0.1886 -0.3431  3.4004
  776MOL0     H 7032   3.915   8.592   9.795  1.2103  1.9626  1.8298
  776MOL0     H 7033   3.887   8.583  10.095 -1.3616  1.2539 -0.3297
  776MOL0     H 7034   3.864   8.726   9.989 -0.7899 -0.6613  1.0801
  776MOL0     H 7035   4.109   8.578  10.040 -3.4221 -1.8561  0.8490
  776MOL0     H 7036   4.102   8.710   9.918  1.8366 -1.4609 -0.4834
  776MOL0     H 7037   3.980   8.945  10.048 -0.8932 -1.3912  0.7034
  776MOL0     H 7038   4.100   9.073  10.405  1.6210 -0.3017 -0.6750
  776MOL0     H 7039   3.992   9.116  10.276  0.1635  1.0903 -0.1976
  776MOL0     H 7040   4.298   9.137  10.269  0.7365  0.5140 -2.3557
  776MOL0     H 7041   4.206   9.165  10.131  0.2391 -1.1582  0.6707
  776MOL0     H 7042   4.116   9.367  10.204  0.5889  1.4544  0.4082
  776MOL0     H 7043   4.131   9.329  10.370 -1.0113  0.3486 -0.6587
  776MOL0     H 7044   4.376   9.322  10.362 -0.0164 -0.8835 -0.2467
  776MOL0     H 7045   4.369   9.368  10.182 -0.8350  1.3421 -0.3505
  776MOL0     H 7046   4.573   9.455  10.380  2.9296  0.5158 -2.3554
  776MOL0     H 7047   4.861   9.607  10.329  1.3123  0.2415  0.5485
  776MOL0     H 7048   4.788   9.497  10.443 -1.9030  1.0332  1.0693
  776MOL0     H 7049   4.841   9.662  10.488 -1.2181 -0.4890  1.3733
  776MOL0     H 7050   4.913  10.021  10.554  0.5197  1.6689  2.4816
  776MOL0     H 7051   5.037  10.206  10.630 -0.1710  4.0435  1.6630
  776MOL0     H 7052   4.874  10.632  10.514 -2.7804  2.3514  1.6179
  776MOL0     H 7053   4.842  10.561  10.670  0.9538 -0.6492  0.8798
  776MOL0     H 7054   5.077  10.732  10.571 -0.8866 -0.0577  0.3015
  776MOL0     H 7055   4.958  10.777  10.692  0.0868 -0.5697  2.8575
  776MOL0     H 7056   5.170  10.731  10.792 -3.3694  1.5073  0.9422
  776MOL0     H 7057   5.183  10.577  10.721  2.6435  3.8292  0.3809
  776MOL0     H 7058   4.967  10.508  10.858 -1.1155  1.5072 -0.9098
  776MOL0     H 7059   5.004  10.653  10.957  0.6226 -1.9829  1.2377
  776MOL0     H 7060   5.208  10.427  10.883 -0.2184  0.9572 -1.1773
  776MOL0     H 7061   5.237  10.558  10.976 -2.6126  1.2278  1.9930
  776MOL0     H 7062   5.152  10.343  11.110  0.2085  0.5231  1.4620
  776MOL0     H 7063   4.993  10.418  11.075  0.7317  0.1364  0.1178
  776MOL0     H 7064   5.119  10.641  11.154  0.4726 -1.0301 -0.0326
  776MOL0     H 7065   5.230  10.523  11.222 -0.3852 -2.3773  2.8393
  776MOL0     H 7066   5.069  10.611  11.379  1.6867 -0.5848  2.2616
  776MOL0     H 7067   5.082  10.434  11.365  0.9833 -0.0774 -2.0567
  776MOL0     H 7068   4.773  10.466  10.413 -0.3969 -0.5644 -0.8288
  776MOL0     H 7069   4.646  10.265  10.332 -0.0874 -2.0678 -0.2211
  776MOL0     H 7070   4.476   9.931  10.288  1.0635  0.2307  1.9638
  776MOL0     H 7071   4.295   9.758  10.245 -0.4728 -1.8319 -0.8474
  776MOL0     H 7072   3.924   8.692   9.275  1.2600 -0.1052  0.1249
  776MOL0     H 7073   3.928   8.679   9.024  0.3446 -2.4697  0.6939
  776MOL0     H 7074   3.825   8.608   8.640 -1.1816  0.9751  3.7584
  776MOL0     H 7075   3.927   8.632   8.419 -1.0189 -1.3423  2.9021
  776MOL0     H 7076   4.134   8.713   8.355 -0.9686  1.0859  0.6320
  776MOL0     H 7077   4.041   8.681   8.210 -1.3172 -0.4863  1.0253
  776MOL0     H 7078   4.162   8.811   8.077 -0.5464  2.9282  0.5281
  776MOL0     H 7079   4.271   8.691   8.160 -1.0654 -0.6111  0.7574
  776MOL0     H 7080   4.350   8.939   8.114 -0.4695  1.6892  0.6861
  776MOL0     H 7081   4.242   8.988   8.236  2.5138  2.0855 -1.0571
  776MOL0     H 7082   4.473   8.805   8.293 -1.1756 -0.9270 -0.3839
  776MOL0     H 7083   4.336   8.832   8.400  2.2395  1.0440  2.3646
  776MOL0     H 7084   4.536   9.218   8.428 -2.0162  0.3507  1.6764
  776MOL0     H 7085   3.900   9.053   8.430 -0.1133  1.0387  1.1014
  776MOL0     H 7086   3.619   9.054   8.661 -0.0237 -1.3691 -0.4323
  776MOL0     H 7087   3.768   9.124   8.734  0.7367  2.5572 -1.1337
  776MOL0     H 7088   3.746   9.145   8.569  0.4017  1.9448  1.9589
  777MOL0     O 7089   2.109   8.151  10.537  0.1137  0.3814  0.1120
  777MOL0     C 7090   2.040   8.069  10.600  0.5656  0.0030 -0.0641
  777MOL0     O 7091   1.933   8.105  10.673  0.5728  0.3069  0.1529
  777MOL0     C 7092   1.907   8.238  10.699 -0.2903 -0.1601 -0.4261
  777MOL0     C 7093   1.785   8.294  10.665  0.7800  0.5216 -0.3113
  777MOL0     C 7094   1.744   8.424  10.705  0.0086  0.5095  0.6172
  777MOL0     C 7095   1.832   8.510  10.758 -0.2362 -1.0803  0.6661
  777MOL0     O 7096   1.791   8.641  10.774 -0.6141  0.2987  0.3127
  777MOL0     C 7097   1.892   8.738  10.779 -0.0269  0.2031  0.1338
  777MOL0     C 7098   1.842   8.874  10.759  1.0240  0.0483 -0.4673
  777MOL0     C 7099   1.859   8.936  10.616  0.1585 -0.3877 -0.0302
  777MOL0     C 7100   1.852   9.088  10.615 -0.9578 -0.6760 -0.1020
  777MOL0     C 7101   1.917   9.153  10.489 -0.1078 -0.2250  0.1303
  777MOL0     C 7102   1.846   9.138  10.356  0.7189 -0.0214 -0.2410
  777MOL0     C 7103   1.707   9.211  10.337 -0.1861  0.2783 -0.6649
  777MOL0     C 7104   1.692   9.334  10.251 -0.2681 -0.2232  0.1894
  777MOL0     N 7105   1.792   9.435  10.300  0.8668  0.1199  0.1017
  777MOL0     C 7106   1.916   9.443  10.249 -0.6348 -0.7412  0.5620
  777MOL0     C 7107   1.962   9.554  10.310  0.3418  0.3707  0.0280
  777MOL0     C 7108   2.107   9.602  10.304  0.0087 -0.0058  0.5632
  777MOL0     C 7109   2.201   9.540  10.400 -0.5980  0.3016 -0.0994
  777MOL0     C 7110   2.227   9.395  10.379 -0.9513 -0.4779 -0.2138
  777MOL0     C 7111   2.322   9.350  10.487  1.1101 -0.2258 -1.2621
  777MOL0     O 7112   2.331   9.206  10.462 -0.1164 -0.6067  0.9453
  777MOL0     C 7113   2.304   9.103  10.545 -0.8969  0.6916 -0.0092
  777MOL0     C 7114   2.263   9.106  10.675  1.3912 -0.3162 -1.2020
  777MOL0     C 7115   2.249   8.993  10.753  0.1619 -0.0646  0.1638
  777MOL0     C 7116   2.178   9.002  10.893  0.0421 -0.2512  0.3665
  777MOL0     C 7117   2.300   8.863  10.710  0.3801 -0.8204 -0.0639
  777MOL0     C 7118   2.308   8.727  10.779 -0.3265  0.8916  0.2968
  777MOL0     O 7119   2.333   8.610  10.699  0.8944  0.9667 -0.3999
  777MOL0     C 7120   2.378   8.495  10.757 -0.0258 -0.0247  0.4269
  777MOL0     C 7121   2.447   8.472  10.875  1.1772 -1.0364 -0.5531
  777MOL0     C 7122   2.488   8.350  10.917  0.0759  0.0373 -0.3028
  777MOL0     C 7123   2.458   8.233  10.844  0.7502  0.2701  0.1034
  777MOL0     O 7124   2.502   8.117  10.906  0.6995 -0.0134  0.1263
  777MOL0     C 7125   2.465   7.989  10.850 -0.6402 -0.6031  0.6751
  777MOL0     C 7126   2.543   7.889  10.935 -0.2391 -0.5297  0.3447
  777MOL0     C 7127   2.696   7.887  10.907 -0.7218  0.4817  0.0931
  777MOL0     C 7128   2.762   7.781  10.998 -0.2936 -1.1473  0.2644
  777MOL0     C 7129   2.910   7.797  10.993  0.3629  1.1469 -0.5239
  777MOL0     C 7130   2.982   7.755  11.123 -0.8315  0.6666  0.1802
  777MOL0     C 7131   2.957   7.601  11.136  0.4539  0.6764  0.4142
  777MOL0     C 7132   2.985   7.561  11.275 -0.9771 -0.0327 -0.0745
  777MOL0    Cl 7133   2.958   7.386  11.294 -0.3338  0.4117 -0.1397
  777MOL0     C 7134   2.377   8.248  10.728  0.7560  0.7628  0.4011
  777MOL0     C 7135   2.350   8.379  10.686  0.3812  0.1748 -0.5390
  777MOL0     O 7136   2.288   8.726  10.898 -0.3564 -0.0994 -0.0049
  777MOL0     C 7137   2.344   8.863  10.578 -0.4382  0.1037 -0.1893
  777MOL0     C 7138   2.347   8.980  10.501 -0.3425  0.2367  0.1193
  777MOL0     N 7139   1.872   9.601  10.395 -0.2409  0.1325 -0.3030
  777MOL0     N 7140   1.769   9.531  10.393  0.4335 -0.1125  0.0013
  777MOL0     C 7141   1.959   8.456  10.788  0.0565  0.1739 -0.2905
  777MOL0     C 7142   1.999   8.331  10.756 -0.5661  0.0680 -0.3915
  777MOL0     C 7143   2.091   7.934  10.633  1.0416  0.1190  0.0401
  777MOL0     C 7144   2.011   7.859  10.731  0.5136  0.0321  0.0396
  777MOL0     C 7145   2.050   7.732  10.775 -0.0459 -0.2032  0.6870
  777MOL0     C 7146   2.166   7.682  10.714  0.5772  0.4444  0.2899
  777MOL0     O 7147   2.197   7.549  10.745  0.3330  0.1316  0.1414
  777MOL0     C 7148   2.297   7.541  10.845 -0.3403  0.3968 -0.0138
  777MOL0     C 7149   2.416   7.463  10.802 -0.0042 -0.8412  0.4687
  777MOL0     C 7150   2.404   7.312  10.795 -0.5219  0.3210 -0.1558
  777MOL0     C 7151   2.520   7.242  10.725 -0.3195 -0.3777 -0.3859
  777MOL0     C 7152   2.652   7.254  10.798 -0.0398  0.1405 -0.0995
  777MOL0     C 7153   2.759   7.275  10.856  0.1879  0.0316 -0.0028
  777MOL0     C 7154   2.242   7.748  10.624  0.0845  1.1915 -0.1878
  777MOL0     C 7155   2.204   7.876  10.578  0.4367  0.4467 -0.0041
  777MOL0     C 7156   2.293   7.948  10.475  0.2428 -0.5542 -0.5230
  777MOL0     H 7157   1.703   8.231  10.632  0.7587 -0.4462  1.4814
  777MOL0     H 7158   1.640   8.447  10.687 -1.1157 -1.8592  3.2999
  777MOL0     H 7159   1.985   8.720  10.725 -0.5534 -3.0988  0.1500
  777MOL0     H 7160   1.924   8.738  10.884  0.8240 -0.2606 -0.1157
  777MOL0     H 7161   1.735   8.872  10.780  0.4486 -2.3799 -3.0560
  777MOL0     H 7162   1.902   8.931  10.831  1.3927 -0.3567 -0.4512
  777MOL0     H 7163   1.951   8.909  10.564  0.3128 -1.3930  0.7248
  777MOL0     H 7164   1.779   8.896  10.555  0.5082 -1.8193  0.4136
  777MOL0     H 7165   1.749   9.120  10.632 -1.8639 -3.0882 -0.6725
  777MOL0     H 7166   1.911   9.135  10.694 -0.6634  3.3164 -2.4357
  777MOL0     H 7167   2.018   9.114  10.473 -0.0152  0.9376 -2.6624
  777MOL0     H 7168   1.938   9.258  10.507 -1.9186  0.2356 -0.2011
  777MOL0     H 7169   1.915   9.182  10.284 -2.6787  3.0098 -1.9239
  777MOL0     H 7170   1.837   9.030  10.342  2.5150  0.1919 -4.3625
  777MOL0     H 7171   1.678   9.244  10.438 -1.0924 -4.0048  0.6865
  777MOL0     H 7172   1.635   9.144  10.290  2.1514 -1.0456 -2.5443
  777MOL0     H 7173   1.688   9.301  10.147 -1.8800  1.0846 -0.2263
  777MOL0     H 7174   1.594   9.379  10.272 -0.1840 -1.3012  3.3689
  777MOL0     H 7175   1.966   9.380  10.176 -0.2514  1.5944 -1.3607
  777MOL0     H 7176   2.103   9.710  10.319 -3.2635  0.0296  0.2874
  777MOL0     H 7177   2.128   9.568  10.202 -2.3778 -1.9569  0.6313
  777MOL0     H 7178   2.298   9.589  10.410  0.1486 -1.4806  2.5875
  777MOL0     H 7179   2.156   9.538  10.500  0.0662 -0.4435  0.1979
  777MOL0     H 7180   2.136   9.334  10.381 -0.3433 -1.3893  1.6786
  777MOL0     H 7181   2.264   9.377  10.278  0.9336  2.1606 -0.0976
  777MOL0     H 7182   2.422   9.390  10.471  1.6461 -0.6330  0.7186
  777MOL0     H 7183   2.296   9.381  10.589 -1.1724 -1.6304 -1.3503
  777MOL0     H 7184   2.255   9.196  10.735  0.6702 -2.3420  1.9851
  777MOL0     H 7185   2.112   8.917  10.913 -0.4917  0.4528  1.7006
  777MOL0     H 7186   2.118   9.093  10.892  1.1240  0.5288  2.4348
  777MOL0     H 7187   2.256   9.009  10.969  1.9862 -1.0915 -1.4430
  777MOL0     H 7188   2.472   8.557  10.938  0.1482 -0.2187 -1.2130
  777MOL0     H 7189   2.536   8.335  11.013  0.4653  3.0348  0.0542
  777MOL0     H 7190   2.358   7.969  10.860 -1.1249 -1.3191 -3.9666
  777MOL0     H 7191   2.485   7.990  10.743 -1.6781  2.0281  0.4351
  777MOL0     H 7192   2.535   7.918  11.040  1.5041  0.7390  0.1838
  777MOL0     H 7193   2.508   7.788  10.915 -2.8412  0.4352 -0.4204
  777MOL0     H 7194   2.733   7.989  10.922 -3.2038  1.3167  0.8897
  777MOL0     H 7195   2.712   7.859  10.802  2.5188 -3.2589  1.3295
  777MOL0     H 7196   2.728   7.682  10.968 -1.6673 -0.4699 -0.5445
  777MOL0     H 7197   2.732   7.796  11.102  1.4309 -0.6336  0.7245
  777MOL0     H 7198   2.943   7.737  10.908 -2.5206 -0.9387 -0.3219
  777MOL0     H 7199   2.930   7.902  10.972 -0.4920  1.4522  0.1407
  777MOL0     H 7200   2.956   7.828  11.200 -0.5841  1.9390 -0.9039
  777MOL0     H 7201   3.090   7.774  11.114 -0.6207 -0.7442 -0.5373
  777MOL0     H 7202   3.024   7.552  11.066 -1.7631  2.2226 -3.0625
  777MOL0     H 7203   2.855   7.568  11.114  1.2376 -0.4334 -1.7747
  777MOL0     H 7204   2.932   7.617  11.352  1.0137  1.2821  0.4314
  777MOL0     H 7205   3.094   7.574  11.286 -0.2102 -4.7466 -0.1739
  777MOL0     H 7206   2.356   8.159  10.669  0.6829  2.1571 -1.7985
  777MOL0     H 7207   2.306   8.384  10.587  0.0652 -0.8355 -0.4579
  777MOL0     H 7208   2.383   8.768  10.541 -1.7213 -2.6091  4.5841
  777MOL0     H 7209   2.386   8.972  10.400 -0.8052  2.7211 -0.3247
  777MOL0     H 7210   2.044   8.513  10.825 -0.3200 -0.3900  1.5542
  777MOL0     H 7211   2.101   8.294  10.766 -0.1732  0.5391 -2.2994
  777MOL0     H 7212   1.927   7.897  10.789  1.9518  1.3214  1.3640
  777MOL0     H 7213   1.997   7.676  10.852 -1.4386 -2.5637 -1.8108
  777MOL0     H 7214   2.346   7.634  10.875  1.7982 -1.1378  1.5435
  777MOL0     H 7215   2.251   7.495  10.932  0.3758 -0.4311 -0.0722
  777MOL0     H 7216   2.502   7.475  10.869  0.7720 -1.7552 -0.3416
  777MOL0     H 7217   2.446   7.503  10.705 -1.9829 -0.4664 -0.0293
  777MOL0     H 7218   2.394   7.269  10.895  2.3355 -3.1552 -1.1732
  777MOL0     H 7219   2.317   7.296  10.731 -0.5529 -1.2339  0.2277
  777MOL0     H 7220   2.539   7.283  10.626  1.6345 -1.4893 -0.5206
  777MOL0     H 7221   2.487   7.138  10.727  0.3333 -0.6084  2.0900
  777MOL0     H 7222   2.847   7.309  10.907  1.2049  1.7986 -2.7186
  777MOL0     H 7223   2.321   7.683  10.588 -2.0034 -1.9553  0.4851
  777MOL0     H 7224   2.390   7.970  10.521 -0.5387  2.1590 -0.0243
  777MOL0     H 7225   2.300   7.881  10.388  0.6221 -1.1775 -0.0237
  777MOL0     H 7226   2.268   8.036  10.415  1.4512  0.3823  0.3090
  778MOL0     O 7227   6.961   5.554   1.444 -0.6993  0.6336  0.0923
  778MOL0     C 7228   7.020   5.538   1.333 -0.4935 -0.2313  0.1911
  778MOL0     O 7229   6.993   5.618   1.227 -0.2485 -0.3284 -0.0338
  778MOL0     C 7230   6.910   5.729   1.237  0.2050 -0.3625 -0.3666
  778MOL0     C 7231   6.788   5.725   1.172 -0.5121 -0.2307 -0.4672
  778MOL0     C 7232   6.699   5.835   1.181  0.3811  0.9066 -1.8822
  778MOL0     C 7233   6.735   5.948   1.262  0.9689  0.5293  0.4620
  778MOL0     O 7234   6.642   6.051   1.290  0.5999  0.3087 -0.3264
  778MOL0     C 7235   6.525   6.069   1.204 -0.7612  0.1287 -0.7951
  778MOL0     C 7236   6.461   6.211   1.233  0.3172  0.4736  0.6653
  778MOL0     C 7237   6.362   6.206   1.347  0.3847  0.8264 -1.0254
  778MOL0     C 7238   6.341   6.359   1.396 -0.5535 -0.2791  0.4977
  778MOL0     C 7239   6.216   6.359   1.477 -0.2963  0.3418  0.1688
  778MOL0     C 7240   6.155   6.500   1.492 -0.1945 -1.3895  0.4837
  778MOL0     C 7241   6.017   6.509   1.558  0.7890  0.2492  0.6405
  778MOL0     C 7242   5.965   6.651   1.580  0.4400 -0.7004  0.1930
  778MOL0     N 7243   5.823   6.664   1.590 -0.1561  0.1007 -0.5961
  778MOL0     C 7244   5.762   6.665   1.706 -0.5470 -0.0025 -0.6606
  778MOL0     C 7245   5.636   6.682   1.676  0.7484  0.6735 -0.2288
  778MOL0     C 7246   5.532   6.696   1.779  0.3724  0.0405  0.2603
  778MOL0     C 7247   5.540   6.837   1.837  0.3772 -0.2119 -2.0006
  778MOL0     C 7248   5.475   6.952   1.759 -0.6541 -0.6601  0.7847
  778MOL0     C 7249   5.492   7.080   1.833  0.1843 -0.3407 -0.1535
  778MOL0     O 7250   5.454   7.183   1.742  0.1153  0.3413  0.5749
  778MOL0     C 7251   5.492   7.307   1.772  0.4776 -0.5460 -0.0320
  778MOL0     C 7252   5.563   7.348   1.889 -0.1970  0.1566  0.8209
  778MOL0     C 7253   5.563   7.483   1.923 -0.1846  0.0878  0.2008
  778MOL0     C 7254   5.626   7.522   2.058 -1.0974 -0.7707 -0.2038
  778MOL0     C 7255   5.508   7.582   1.841 -1.2704 -0.3625  0.2979
  778MOL0     C 7256   5.509   7.724   1.871 -1.0915 -0.2248  0.0008
  778MOL0     O 7257   5.638   7.773   1.886 -0.1009  0.5125 -0.3489
  778MOL0     C 7258   5.640   7.905   1.918  0.3915  1.0494 -0.3034
  778MOL0     C 7259   5.696   7.944   2.039 -0.8282  0.4375  0.4929
  778MOL0     C 7260   5.709   8.076   2.069  0.7443  0.1648 -1.1186
  778MOL0     C 7261   5.659   8.177   1.987 -0.3931  0.1035  0.2728
  778MOL0     O 7262   5.675   8.310   2.024 -0.4175  0.6357 -0.2737
  778MOL0     C 7263   5.573   8.395   2.020  0.4085 -0.9678 -0.9566
  778MOL0     C 7264   5.650   8.530   2.012  1.0542 -0.1417  0.9582
  778MOL0     C 7265   5.548   8.653   2.011  0.1202  0.0357 -0.4219
  778MOL0     C 7266   5.543   8.700   2.160 -0.0058  0.7712 -0.8126
  778MOL0     C 7267   5.428   8.808   2.195  1.0652  0.3282  1.0063
  778MOL0     C 7268   5.447   8.850   2.347 -0.7814 -0.2529  0.5412
  778MOL0     C 7269   5.352   8.966   2.379 -0.7851  0.1207  0.7475
  778MOL0     C 7270   5.379   9.024   2.516  1.4837 -0.2415 -0.4985
  778MOL0    Cl 7271   5.333   8.909   2.648 -0.5643  0.3661  0.4452
  778MOL0     C 7272   5.606   8.136   1.864  0.8686 -0.0038 -0.6780
  778MOL0     C 7273   5.600   8.000   1.827  0.2576  0.1291  0.8747
  778MOL0     O 7274   5.397   7.788   1.865 -0.4014 -0.2329  1.0403
  778MOL0     C 7275   5.451   7.549   1.714 -0.6336  0.8249 -0.5967
  778MOL0     C 7276   5.449   7.415   1.680 -0.3640  0.9835 -0.3977
  778MOL0     N 7277   5.636   6.692   1.535  0.1997 -0.1448  0.1534
  778MOL0     N 7278   5.748   6.673   1.483  0.1921  0.8668  0.6157
  778MOL0     C 7279   6.863   5.956   1.306  0.6091  0.3483 -0.5899
  778MOL0     C 7280   6.951   5.848   1.285 -1.1403  0.8738 -0.6558
  778MOL0     C 7281   7.102   5.418   1.295  0.3608 -0.0327  0.0106
  778MOL0     C 7282   7.080   5.365   1.162 -0.0335  1.4096 -0.6880
  778MOL0     C 7283   7.144   5.249   1.124 -0.5340 -0.0375  0.0148
  778MOL0     C 7284   7.247   5.191   1.196 -0.6949 -0.1344  0.4216
  778MOL0     O 7285   7.315   5.086   1.145 -0.7079 -0.1768 -0.4566
  778MOL0     C 7286   7.373   4.985   1.235  0.2684 -0.8660  0.3988
  778MOL0     C 7287   7.450   4.884   1.144 -0.6383  0.4201  0.5418
  778MOL0     C 7288   7.543   4.799   1.229  1.1864 -0.7651 -0.2095
  778MOL0     C 7289   7.647   4.730   1.142 -0.4543 -0.0198 -0.2726
  778MOL0     C 7290   7.579   4.620   1.066 -0.5282 -0.2188  0.3231
  778MOL0     C 7291   7.535   4.528   0.998 -0.1458 -0.0380 -0.0427
  778MOL0     C 7292   7.265   5.241   1.328 -0.7778  0.5465 -0.6163
  778MOL0     C 7293   7.193   5.355   1.376 -0.5107 -0.5756  0.1350
  778MOL0     C 7294   7.228   5.408   1.511 -0.0175  0.1337  0.0264
  778MOL0     H 7295   6.754   5.636   1.120 -1.1835  1.2082 -2.6236
  778MOL0     H 7296   6.608   5.822   1.122  0.8550  2.3478 -3.0010
  778MOL0     H 7297   6.448   5.994   1.227  0.9216 -1.1950  0.8083
  778MOL0     H 7298   6.562   6.065   1.101  2.2743 -0.8921  0.2244
  778MOL0     H 7299   6.536   6.287   1.256  0.4266  0.4110  0.5206
  778MOL0     H 7300   6.410   6.241   1.141 -1.6935  0.6960  1.7897
  778MOL0     H 7301   6.272   6.148   1.320  1.1442 -0.5656 -0.6637
  778MOL0     H 7302   6.407   6.161   1.436 -1.1753  1.9912  0.4308
  778MOL0     H 7303   6.427   6.395   1.453 -0.1506 -0.3026 -0.0863
  778MOL0     H 7304   6.331   6.423   1.307 -1.2190 -1.0057  0.0396
  778MOL0     H 7305   6.228   6.317   1.577 -0.0566  2.3454  1.0240
  778MOL0     H 7306   6.144   6.299   1.420  0.7807 -1.5299  0.6750
  778MOL0     H 7307   6.220   6.574   1.539 -1.6432  1.0163 -1.0633
  778MOL0     H 7308   6.131   6.522   1.387 -2.1377  2.9329  1.6136
  778MOL0     H 7309   6.034   6.447   1.647 -0.7992 -2.2272 -0.6694
  778MOL0     H 7310   5.945   6.457   1.495  1.2635 -0.3990  0.6262
  778MOL0     H 7311   6.014   6.689   1.670  0.3338 -1.5525  0.6157
  778MOL0     H 7312   5.986   6.723   1.500 -0.2457 -0.9639 -0.2281
  778MOL0     H 7313   5.808   6.673   1.804  0.9887 -0.6034 -1.3012
  778MOL0     H 7314   5.560   6.621   1.854  1.3582 -1.0426 -1.1454
  778MOL0     H 7315   5.430   6.675   1.744  0.3318 -2.5550  1.6852
  778MOL0     H 7316   5.505   6.831   1.940  1.2561 -1.0233 -1.7276
  778MOL0     H 7317   5.648   6.852   1.847  0.4469 -1.3062 -0.8277
  778MOL0     H 7318   5.535   6.938   1.669  0.8889 -3.1961  2.0894
  778MOL0     H 7319   5.371   6.927   1.735 -1.4788  0.4697  2.9141
  778MOL0     H 7320   5.431   7.092   1.922 -1.8438  1.9285 -1.7056
  778MOL0     H 7321   5.592   7.101   1.872  0.3826  0.7391 -1.1677
  778MOL0     H 7322   5.600   7.274   1.959 -0.5784 -0.0038  0.8548
  778MOL0     H 7323   5.578   7.612   2.097  1.2102  0.7403 -0.6662
  778MOL0     H 7324   5.729   7.550   2.035 -0.9175 -2.1565 -1.2317
  778MOL0     H 7325   5.618   7.434   2.122 -0.6855 -2.6086 -2.5182
  778MOL0     H 7326   5.738   7.874   2.110  0.7183  1.1639  0.3274
  778MOL0     H 7327   5.740   8.099   2.171 -2.2642 -1.5918  0.3440
  778MOL0     H 7328   5.504   8.389   1.935 -3.3274  0.2142  1.7310
  778MOL0     H 7329   5.504   8.387   2.105 -0.6654  2.9539 -1.2878
  778MOL0     H 7330   5.723   8.538   2.093  1.5221  2.0597  0.3909
  778MOL0     H 7331   5.706   8.520   1.919  1.7629 -4.8244  1.6498
  778MOL0     H 7332   5.457   8.616   1.962 -0.1643  2.0708 -1.5342
  778MOL0     H 7333   5.566   8.746   1.957 -0.0946  0.0406 -0.4886
  778MOL0     H 7334   5.642   8.741   2.184  1.1749 -2.1195 -0.2869
  778MOL0     H 7335   5.525   8.617   2.229 -0.4328  0.5385 -1.2038
  778MOL0     H 7336   5.442   8.895   2.131  2.1289  1.0976  2.2249
  778MOL0     H 7337   5.332   8.761   2.172  0.7294  1.3076  0.3346
  778MOL0     H 7338   5.552   8.881   2.349 -0.6799 -0.0217 -2.5337
  778MOL0     H 7339   5.439   8.775   2.426  0.3888 -0.2914  0.6356
  778MOL0     H 7340   5.251   8.925   2.366 -1.2572  1.4564  0.0396
  778MOL0     H 7341   5.354   9.045   2.304 -1.1900  0.5881  1.2281
  778MOL0     H 7342   5.317   9.110   2.543 -0.0864 -1.0812 -1.3028
  778MOL0     H 7343   5.484   9.055   2.519  1.1675  0.8234  2.2768
  778MOL0     H 7344   5.556   8.206   1.798 -0.3363 -0.0250  0.1714
  778MOL0     H 7345   5.568   7.973   1.727  1.4203 -1.3844  0.8719
  778MOL0     H 7346   5.405   7.619   1.644  0.2123 -0.0829 -2.1103
  778MOL0     H 7347   5.403   7.377   1.590  2.0782  0.0767 -1.3685
  778MOL0     H 7348   6.901   6.044   1.356  0.4208 -0.1301  0.4153
  778MOL0     H 7349   7.053   5.858   1.321  0.8591 -1.7104 -4.8480
  778MOL0     H 7350   7.001   5.413   1.104 -0.5009 -0.4140 -1.6434
  778MOL0     H 7351   7.135   5.207   1.024  0.2523 -2.5322  0.8992
  778MOL0     H 7352   7.445   5.039   1.297  0.0507 -0.0967 -0.0097
  778MOL0     H 7353   7.296   4.941   1.299 -0.1502  2.2248  2.2030
  778MOL0     H 7354   7.507   4.937   1.067  0.2950 -0.0720  0.8759
  778MOL0     H 7355   7.378   4.821   1.091 -0.6095  0.5995  0.2853
  778MOL0     H 7356   7.597   4.862   1.301  1.3931  1.0417 -1.8517
  778MOL0     H 7357   7.487   4.729   1.291  0.5949  1.3073  1.7574
  778MOL0     H 7358   7.735   4.691   1.195 -1.6160 -0.1700  1.6210
  778MOL0     H 7359   7.685   4.799   1.066 -1.4284 -2.7781 -3.5321
  778MOL0     H 7360   7.484   4.464   0.929  1.3317 -1.7553  0.3739
  778MOL0     H 7361   7.347   5.213   1.394  1.3093  2.7206 -2.1011
  778MOL0     H 7362   7.296   5.492   1.494  3.5133 -2.5548 -0.2394
  778MOL0     H 7363   7.147   5.446   1.574  0.1277  3.4098 -1.5104
  778MOL0     H 7364   7.287   5.334   1.564  0.5449  0.8174  0.3763
  779MOL0     O 7365   1.152   3.113  10.351 -0.7597 -0.6494  0.5240
  779MOL0     C 7366   1.058   3.036  10.321  0.1776 -0.0403 -0.4217
  779MOL0     O 7367   0.977   2.978  10.407  0.1249 -0.1492 -0.5584
  779MOL0     C 7368   0.969   3.009  10.539 -0.6212 -0.1580 -1.0095
  779MOL0     C 7369   1.089   2.998  10.627  0.3284  0.5589  0.1512
  779MOL0     C 7370   1.078   3.050  10.760 -0.3081 -0.1800 -0.9051
  779MOL0     C 7371   0.953   3.095  10.809 -0.1177  0.8726 -0.3669
  779MOL0     O 7372   0.947   3.131  10.939  0.1721 -0.8561 -0.5381
  779MOL0     C 7373   0.844   3.222  10.985 -2.0992 -0.1320  0.0352
  779MOL0     C 7374   0.898   3.299  11.105 -0.2529 -0.4436 -0.4872
  779MOL0     C 7375   0.999   3.412  11.057  0.6023 -0.2807 -0.1014
  779MOL0     C 7376   1.046   3.503  11.169 -0.3640 -0.0547 -0.8649
  779MOL0     C 7377   1.139   3.618  11.109 -0.0743  0.5915  0.1793
  779MOL0     C 7378   1.224   3.688  11.217  0.4294  0.7370  0.1056
  779MOL0     C 7379   1.142   3.766  11.324  0.2685 -0.4997  0.4383
  779MOL0     C 7380   1.032   3.866  11.277 -0.7057 -0.5724 -0.4783
  779MOL0     N 7381   1.106   3.978  11.210  0.3074 -0.3159 -0.5114
  779MOL0     C 7382   1.134   4.099  11.267  0.6865  0.3309  0.5736
  779MOL0     C 7383   1.200   4.167  11.167 -0.4845 -0.0828  0.0289
  779MOL0     C 7384   1.237   4.312  11.187  0.0187 -0.0601  0.0325
  779MOL0     C 7385   1.122   4.403  11.259 -0.6132  0.2090  0.2409
  779MOL0     C 7386   1.121   4.551  11.215  0.3826 -0.0127 -0.6728
  779MOL0     C 7387   1.057   4.631  11.331 -0.6642 -0.2031  0.5043
  779MOL0     O 7388   1.132   4.618  11.452 -0.5354  0.7316  0.2214
  779MOL0     C 7389   1.074   4.660  11.567  0.2269 -0.5767  0.6036
  779MOL0     C 7390   1.141   4.608  11.682 -0.1866 -0.6301  0.1414
  779MOL0     C 7391   1.090   4.630  11.814  0.2942  0.0946  0.0704
  779MOL0     C 7392   1.164   4.569  11.933 -0.5076 -0.5729  0.1473
  779MOL0     C 7393   0.958   4.691  11.828 -0.1225 -0.1927 -0.7703
  779MOL0     C 7394   0.893   4.704  11.964  0.3774  0.9341 -0.1925
  779MOL0     O 7395   0.785   4.784  11.963 -0.4578 -0.0588  0.2434
  779MOL0     C 7396   0.701   4.795  12.065 -0.3521  0.4574 -0.6086
  779MOL0     C 7397   0.622   4.684  12.102 -0.1509  0.0340  0.6414
  779MOL0     C 7398   0.538   4.696  12.218 -0.1412 -0.6367  0.0383
  779MOL0     C 7399   0.537   4.820  12.295 -1.1478  0.6376 -0.2431
  779MOL0     O 7400   0.451   4.830  12.402 -0.0494 -0.1800 -0.2182
  779MOL0     C 7401   0.525   4.839  12.527 -0.3624 -0.4188  0.1055
  779MOL0     C 7402   0.434   4.823  12.644 -0.5877 -0.6360 -0.1967
  779MOL0     C 7403   0.353   4.950  12.678  0.1076 -0.3722  1.1240
  779MOL0     C 7404   0.273   4.923  12.800 -0.3500 -0.3005  0.3384
  779MOL0     C 7405   0.170   5.023  12.829  0.6746 -1.0993 -0.2795
  779MOL0     C 7406   0.124   5.029  12.980  0.4886 -0.2082 -0.0815
  779MOL0     C 7407   0.045   5.155  13.003  0.6712 -0.0476 -0.7203
  779MOL0     C 7408  -0.017   5.151  13.141  0.7742 -0.9096  0.4822
  779MOL0    Cl 7409   0.089   5.191  13.275 -0.1633  0.4890 -0.3894
  779MOL0     C 7410   0.627   4.920  12.254 -0.5977  0.1034  0.2734
  779MOL0     C 7411   0.711   4.908  12.138 -0.3133 -0.2689  0.1969
  779MOL0     O 7412   0.924   4.630  12.059  0.0459  0.2636  0.4860
  779MOL0     C 7413   0.897   4.741  11.710  0.2739 -0.4414 -2.0085
  779MOL0     C 7414   0.950   4.729  11.588  0.3417 -0.1032  1.1120
  779MOL0     N 7415   1.207   4.088  11.050 -0.2486 -0.2218  0.1782
  779MOL0     N 7416   1.146   3.979  11.075  0.2214  0.2147  0.1572
  779MOL0     C 7417   0.837   3.093  10.732 -0.5363  0.2955  0.6933
  779MOL0     C 7418   0.853   3.056  10.592 -0.4928  0.3086 -0.5205
  779MOL0     C 7419   1.022   3.019  10.187  0.7694 -0.1165  0.0425
  779MOL0     C 7420   1.078   2.908  10.125  0.4714  0.0542 -0.2794
  779MOL0     C 7421   1.040   2.870   9.993 -1.5067 -0.3400 -0.3185
  779MOL0     C 7422   0.960   2.953   9.913  0.0354  0.0939  0.1867
  779MOL0     O 7423   0.908   2.927   9.780 -1.0887  1.7677  0.4500
  779MOL0     C 7424   1.000   2.888   9.665  0.4254 -0.6072 -0.7351
  779MOL0     C 7425   0.907   2.858   9.552  0.5689 -0.0971  0.0777
  779MOL0     C 7426   0.831   2.727   9.580 -0.1618  0.3251 -0.3462
  779MOL0     C 7427   0.742   2.663   9.460 -0.4652 -1.2556 -0.1919
  779MOL0     C 7428   0.614   2.736   9.467  0.2800 -0.7184  0.3132
  779MOL0     C 7429   0.512   2.808   9.481 -0.5201 -0.2660 -0.5295
  779MOL0     C 7430   0.913   3.066   9.971  0.1718  0.0303  0.6586
  779MOL0     C 7431   0.931   3.099  10.108 -0.5387  0.4538  0.3398
  779MOL0     C 7432   0.866   3.229  10.157 -0.3985 -0.1409 -0.0702
  779MOL0     H 7433   1.173   2.959  10.571 -1.0936  1.7164 -3.0520
  779MOL0     H 7434   1.162   3.039  10.827  1.7791  1.1943 -3.1099
  779MOL0     H 7435   0.752   3.170  11.012 -2.1732  0.4038  0.8406
  779MOL0     H 7436   0.819   3.299  10.912 -1.8222  1.8577  1.9540
  779MOL0     H 7437   0.812   3.353  11.145  0.3544  0.2781 -0.1440
  779MOL0     H 7438   0.936   3.235  11.186 -0.1777  3.4638  2.8665
  779MOL0     H 7439   1.087   3.361  11.016  0.5841 -0.4006  0.0096
  779MOL0     H 7440   0.972   3.467  10.966 -3.6769 -1.9712 -0.0812
  779MOL0     H 7441   0.961   3.550  11.221 -0.8343 -0.9316 -0.8152
  779MOL0     H 7442   1.090   3.443  11.249 -2.3096 -0.5334 -0.0959
  779MOL0     H 7443   1.071   3.685  11.056 -1.9696 -1.6082 -0.3168
  779MOL0     H 7444   1.217   3.569  11.050 -0.3153 -0.3393  0.6178
  779MOL0     H 7445   1.284   3.604  11.251  0.9381  0.6824 -0.8798
  779MOL0     H 7446   1.291   3.763  11.172 -0.5652  0.4772 -1.9416
  779MOL0     H 7447   1.207   3.824  11.390 -1.3843  0.5008  1.2629
  779MOL0     H 7448   1.106   3.692  11.396  2.0520 -0.9670  0.9005
  779MOL0     H 7449   0.967   3.805  11.214 -1.0314 -2.1411  1.2616
  779MOL0     H 7450   0.969   3.897  11.361 -0.8405  0.3948 -0.9298
  779MOL0     H 7451   1.105   4.140  11.363 -0.4771  0.8838 -0.0033
  779MOL0     H 7452   1.245   4.348  11.084  0.3231  0.2294  0.1545
  779MOL0     H 7453   1.331   4.313  11.243  0.4991  2.6856 -0.6500
  779MOL0     H 7454   1.027   4.353  11.235 -2.0984  2.3125  1.4147
  779MOL0     H 7455   1.134   4.389  11.367  1.8186  2.1106  0.2925
  779MOL0     H 7456   1.228   4.574  11.217  0.5536 -0.7974 -0.4662
  779MOL0     H 7457   1.071   4.570  11.120 -2.4035  1.5621  1.0033
  779MOL0     H 7458   1.065   4.734  11.298  0.0920 -0.7552 -1.1356
  779MOL0     H 7459   0.951   4.612  11.352 -0.5682  0.3626  1.5691
  779MOL0     H 7460   1.229   4.548  11.663 -1.8863 -3.2257  0.0136
  779MOL0     H 7461   1.116   4.483  11.979 -0.5401 -0.4132  0.4165
  779MOL0     H 7462   1.189   4.646  12.007 -0.8852 -1.8446  1.6462
  779MOL0     H 7463   1.259   4.538  11.889 -1.0791  0.7412 -2.1845
  779MOL0     H 7464   0.637   4.595  12.042  2.0045 -0.8712  2.3505
  779MOL0     H 7465   0.476   4.614  12.252  0.6390 -1.7902 -1.2212
  779MOL0     H 7466   0.613   4.775  12.524  1.2022  1.6464  0.0582
  779MOL0     H 7467   0.573   4.937  12.529 -0.5823 -0.3104  0.1332
  779MOL0     H 7468   0.374   4.734  12.623  0.7060 -1.3871 -0.8104
  779MOL0     H 7469   0.494   4.800  12.732 -3.9777 -3.0107  1.7227
  779MOL0     H 7470   0.286   4.983  12.598  0.2316 -2.7454 -0.0200
  779MOL0     H 7471   0.425   5.025  12.713  0.4054 -0.2103  0.1758
  779MOL0     H 7472   0.334   4.920  12.891  0.6832 -1.5166 -0.3531
  779MOL0     H 7473   0.221   4.831  12.775  1.4081 -0.8694 -1.4546
  779MOL0     H 7474   0.212   5.123  12.814 -0.6674 -0.3129  0.9732
  779MOL0     H 7475   0.080   5.004  12.769  1.7142 -0.5701 -2.0678
  779MOL0     H 7476   0.211   5.024  13.047  0.3650 -1.6799 -0.0113
  779MOL0     H 7477   0.053   4.950  13.003  0.9997 -1.0789 -1.4250
  779MOL0     H 7478  -0.039   5.162  12.933 -0.5021  2.1940  0.7743
  779MOL0     H 7479   0.108   5.245  12.997  1.7471 -0.7864 -0.8241
  779MOL0     H 7480  -0.060   5.052  13.159  1.5791 -1.1359  1.2637
  779MOL0     H 7481  -0.099   5.223  13.150  0.2334 -1.3623 -0.7092
  779MOL0     H 7482   0.630   5.007  12.319  1.4684 -0.0998  0.5113
  779MOL0     H 7483   0.776   4.990  12.110  0.5362 -0.5579  1.2630
  779MOL0     H 7484   0.806   4.799  11.720  1.1570  0.6328  0.9434
  779MOL0     H 7485   0.896   4.756  11.498  0.0704 -0.6744  1.0979
  779MOL0     H 7486   0.738   3.128  10.761 -0.6703  1.4595 -1.0385
  779MOL0     H 7487   0.774   3.065  10.519 -0.0452  0.7244 -0.9574
  779MOL0     H 7488   1.153   2.850  10.179  1.7489 -0.8800 -2.8536
  779MOL0     H 7489   1.080   2.783   9.942 -1.1045 -0.0783 -0.4560
  779MOL0     H 7490   1.057   2.977   9.640  1.3908 -0.8913  0.3375
  779MOL0     H 7491   1.060   2.801   9.692 -0.3748 -0.7172  0.8784
  779MOL0     H 7492   0.964   2.854   9.459 -1.5771  0.4812 -1.3572
  779MOL0     H 7493   0.836   2.942   9.544  3.0737  2.3974  1.8585
  779MOL0     H 7494   0.902   2.647   9.606 -0.3203 -0.3575 -1.9128
  779MOL0     H 7495   0.780   2.736   9.676  0.6789 -0.2778  0.1773
  779MOL0     H 7496   0.723   2.557   9.478 -0.9454 -1.2225 -0.4771
  779MOL0     H 7497   0.786   2.667   9.360 -3.8462 -1.2594 -1.8105
  779MOL0     H 7498   0.423   2.866   9.495 -0.8163  0.1268 -3.3932
  779MOL0     H 7499   0.853   3.139   9.917 -2.2177 -0.7031  2.1988
  779MOL0     H 7500   0.924   3.316  10.124 -1.0143  0.3051  0.0072
  779MOL0     H 7501   0.761   3.242  10.130 -0.3460  3.1572  0.8935
  779MOL0     H 7502   0.874   3.232  10.266 -1.8338 -3.2440  0.2214
  780MOL0     O 7503  11.469  10.108   5.697  0.2055 -0.1005 -0.2290
  780MOL0     C 7504  11.390  10.202   5.678 -0.8646 -0.5163  0.4880
  780MOL0     O 7505  11.422  10.317   5.607  0.5626 -0.0714 -0.2918
  780MOL0     C 7506  11.558  10.333   5.566 -0.4844 -0.2277 -0.1315
  780MOL0     C 7507  11.663  10.353   5.661 -0.7215  0.2902 -0.0584
  780MOL0     C 7508  11.794  10.371   5.614  0.4442 -0.6835  0.6439
  780MOL0     C 7509  11.822  10.375   5.473  0.0889 -0.7277  0.3361
  780MOL0     O 7510  11.941  10.388   5.411 -0.3525 -0.2628 -0.9680
  780MOL0     C 7511  12.048  10.340   5.492  0.0613 -0.5243 -0.3613
  780MOL0     C 7512  12.165  10.280   5.412 -0.0680  0.0637  0.9219
  780MOL0     C 7513  12.117  10.177   5.293 -0.8509  0.3902  0.2248
  780MOL0     C 7514  12.238  10.158   5.194 -0.5888 -0.1450  0.4879
  780MOL0     C 7515  12.221  10.042   5.097 -0.0779  0.3383  0.8963
  780MOL0     C 7516  12.141  10.069   4.973 -0.5877  0.7943 -0.5189
  780MOL0     C 7517  12.213  10.148   4.869 -1.8457 -0.0012  0.6227
  780MOL0     C 7518  12.129  10.171   4.743  0.1701 -0.3601  0.2710
  780MOL0     N 7519  12.049  10.296   4.754  0.0612  0.5548  0.6804
  780MOL0     C 7520  12.038  10.392   4.655 -0.8155 -0.3148 -0.1146
  780MOL0     C 7521  11.928  10.467   4.683 -0.5911  0.0507  0.5911
  780MOL0     C 7522  11.865  10.592   4.618  0.3701 -0.6524  0.6934
  780MOL0     C 7523  11.803  10.547   4.492 -0.6985 -0.1149  0.2857
  780MOL0     C 7524  11.739  10.663   4.416  0.4143 -0.6659 -0.5355
  780MOL0     C 7525  11.677  10.606   4.288 -0.1917 -1.2147 -0.7144
  780MOL0     O 7526  11.594  10.488   4.300 -0.1852 -0.6766 -0.5200
  780MOL0     C 7527  11.455  10.504   4.297  0.7299  0.1657 -0.8578
  780MOL0     C 7528  11.391  10.386   4.293  0.5299 -0.4719  0.6192
  780MOL0     C 7529  11.253  10.375   4.285  0.0114 -0.8094  0.2805
  780MOL0     C 7530  11.196  10.237   4.293  0.5064  0.4495 -0.3131
  780MOL0     C 7531  11.172  10.489   4.253 -0.5455 -0.6471 -0.2181
  780MOL0     C 7532  11.027  10.499   4.221  0.2904  0.0106  0.0118
  780MOL0     O 7533  10.964  10.615   4.214 -0.5325  0.0814  0.6918
  780MOL0     C 7534  10.831  10.607   4.177  0.0590  0.1854 -0.1236
  780MOL0     C 7535  10.747  10.678   4.262  1.0190  0.5662  0.4464
  780MOL0     C 7536  10.612  10.662   4.244 -0.0917 -0.3333  0.0543
  780MOL0     C 7537  10.561  10.607   4.132  0.5130 -0.7386  0.0863
  780MOL0     O 7538  10.424  10.591   4.101 -0.4963  0.3884  0.7117
  780MOL0     C 7539  10.342  10.709   4.084 -0.6241 -0.7920  0.0287
  780MOL0     C 7540  10.252  10.722   4.204  0.5111 -0.6968 -0.2572
  780MOL0     C 7541  10.152  10.601   4.198  0.0975 -0.0840  0.7373
  780MOL0     C 7542  10.055  10.619   4.312  0.2476  1.0408  0.8652
  780MOL0     C 7543   9.934  10.524   4.303 -0.7164 -0.5140 -0.1267
  780MOL0     C 7544   9.862  10.526   4.433 -0.1581 -0.0089  0.1808
  780MOL0     C 7545   9.742  10.433   4.427  0.6302  0.1951  0.5299
  780MOL0     C 7546   9.657  10.463   4.559 -0.8020  0.3783  1.0182
  780MOL0    Cl 7547   9.580  10.624   4.540  0.4009 -0.1557  0.7605
  780MOL0     C 7548  10.637  10.540   4.038 -0.6102 -0.4475  0.6070
  780MOL0     C 7549  10.776  10.537   4.064  0.2044 -0.3337  1.0696
  780MOL0     O 7550  10.982  10.387   4.187  0.3845 -0.0204  0.3357
  780MOL0     C 7551  11.237  10.612   4.252  0.0232  0.3223  1.1359
  780MOL0     C 7552  11.374  10.614   4.289 -0.2879 -0.2264 -0.5502
  780MOL0     N 7553  11.889  10.424   4.809  0.3549 -0.1411 -0.0566
  780MOL0     N 7554  11.960  10.321   4.847  0.2838 -0.1385  0.0935
  780MOL0     C 7555  11.717  10.345   5.382  0.2469 -0.8205  0.7478
  780MOL0     C 7556  11.586  10.321   5.436 -0.1158  0.3623 -0.1950
  780MOL0     C 7557  11.260  10.209   5.754 -0.5671 -0.2541 -0.1718
  780MOL0     C 7558  11.200  10.095   5.792 -0.0610 -0.1078 -0.6773
  780MOL0     C 7559  11.075  10.092   5.864 -0.3347  0.0060 -1.1060
  780MOL0     C 7560  11.013  10.216   5.911 -0.9431 -0.4319 -0.2903
  780MOL0     O 7561  10.896  10.218   5.991  0.1933 -0.3359  1.0112
  780MOL0     C 7562  10.820  10.096   6.011 -0.6335  0.7093 -0.2369
  780MOL0     C 7563  10.686  10.115   6.082  0.2474 -0.3460  0.1166
  780MOL0     C 7564  10.594   9.991   6.058 -0.6687  0.4649 -0.5268
  780MOL0     C 7565  10.544   9.988   5.912  0.0853 -0.5485 -1.5423
  780MOL0     C 7566  10.452   9.881   5.898 -0.5937 -0.6274  0.7298
  780MOL0     C 7567  10.375   9.799   5.857 -0.5190 -0.6030  0.5241
  780MOL0     C 7568  11.086  10.333   5.891  0.2879  0.0643  0.0600
  780MOL0     C 7569  11.209  10.334   5.810 -0.0208 -0.1567  0.5036
  780MOL0     C 7570  11.271  10.470   5.798 -0.5338 -0.7713  0.0911
  780MOL0     H 7571  11.655  10.360   5.769 -0.3590  0.9702 -0.0718
  780MOL0     H 7572  11.870  10.408   5.681  0.0337  0.1081  0.6875
  780MOL0     H 7573  12.011  10.258   5.555 -0.4245 -0.1113 -0.1061
  780MOL0     H 7574  12.083  10.421   5.557  2.5646 -0.1704 -2.0219
  780MOL0     H 7575  12.216  10.370   5.375  0.4203 -1.1555 -1.6268
  780MOL0     H 7576  12.229  10.222   5.478  0.0826 -2.2941 -1.1399
  780MOL0     H 7577  12.079  10.084   5.336  0.2566  0.8124  2.2427
  780MOL0     H 7578  12.035  10.211   5.229 -0.7327  2.7508  1.2339
  780MOL0     H 7579  12.251  10.250   5.136 -0.3966 -0.7505 -0.4292
  780MOL0     H 7580  12.329  10.137   5.251  0.7175 -3.2384 -2.4529
  780MOL0     H 7581  12.187   9.958   5.157  1.7635 -1.2545 -0.1735
  780MOL0     H 7582  12.318  10.011   5.056 -0.9089  0.3190 -1.1535
  780MOL0     H 7583  12.118   9.972   4.929  0.0558  1.2239 -1.8491
  780MOL0     H 7584  12.048  10.124   4.989 -0.0912  2.4879 -2.8950
  780MOL0     H 7585  12.307  10.099   4.841 -2.7116 -0.7804 -1.0787
  780MOL0     H 7586  12.238  10.246   4.911  0.5544  0.6355 -1.9641
  780MOL0     H 7587  12.195  10.188   4.657 -0.2570 -0.1138 -0.0133
  780MOL0     H 7588  12.071  10.081   4.719 -1.6431  0.4949  1.2947
  780MOL0     H 7589  12.097  10.410   4.566 -2.4030  5.7821 -0.3752
  780MOL0     H 7590  11.947  10.662   4.599 -1.3382  1.5988  1.1155
  780MOL0     H 7591  11.789  10.632   4.686  1.0060  0.6627  0.6634
  780MOL0     H 7592  11.884  10.495   4.440 -2.7529 -5.2661  1.6217
  780MOL0     H 7593  11.727  10.472   4.513  0.8161 -1.5600  0.8706
  780MOL0     H 7594  11.667  10.694   4.493  1.2970 -3.8180  1.7615
  780MOL0     H 7595  11.806  10.746   4.396 -0.3165  0.4564  1.4143
  780MOL0     H 7596  11.621  10.686   4.239 -1.9872 -1.7843  0.2923
  780MOL0     H 7597  11.753  10.584   4.213  0.2005 -0.1585 -0.6478
  780MOL0     H 7598  11.459  10.301   4.298  0.3013 -0.8307 -1.4084
  780MOL0     H 7599  11.126  10.228   4.376  0.3438  2.3821 -0.2034
  780MOL0     H 7600  11.279  10.167   4.313  0.8166  0.4164 -1.6656
  780MOL0     H 7601  11.155  10.194   4.202 -3.1554 -1.1465  1.8566
  780MOL0     H 7602  10.784  10.715   4.357 -4.0294 -0.9319  3.3202
  780MOL0     H 7603  10.541  10.718   4.304 -3.0231 -1.5769 -2.0246
  780MOL0     H 7604  10.396  10.803   4.073 -1.6223  0.1279  2.3009
  780MOL0     H 7605  10.277  10.695   3.998 -0.9142  0.7568 -0.0272
  780MOL0     H 7606  10.313  10.721   4.295 -0.9237 -0.9732  0.7445
  780MOL0     H 7607  10.200  10.817   4.190 -0.3707 -1.3843 -2.0002
  780MOL0     H 7608  10.201  10.504   4.188  1.5935  0.8527 -2.1139
  780MOL0     H 7609  10.089  10.608   4.108 -0.5580  0.9772  1.2592
  780MOL0     H 7610  10.011  10.718   4.303 -1.2879  0.3207  0.0959
  780MOL0     H 7611  10.099  10.614   4.412  1.6145 -2.1591  0.2548
  780MOL0     H 7612   9.864  10.566   4.230 -3.0976 -1.5425  1.4482
  780MOL0     H 7613   9.967  10.433   4.252 -0.3832  0.5599 -1.9063
  780MOL0     H 7614   9.839  10.630   4.457 -1.8272 -0.4511  0.6062
  780MOL0     H 7615   9.935  10.495   4.509  2.4420  1.2350 -1.6656
  780MOL0     H 7616   9.768  10.329   4.406  4.4892  1.1723 -0.2107
  780MOL0     H 7617   9.674  10.462   4.346  1.9880 -1.5478 -1.3100
  780MOL0     H 7618   9.724  10.446   4.645  1.6925  0.0854 -0.8650
  780MOL0     H 7619   9.577  10.390   4.574 -0.2666 -0.2185  1.0160
  780MOL0     H 7620  10.585  10.494   3.954  0.0667 -1.9651  0.9874
  780MOL0     H 7621  10.851  10.493   3.999  0.3306 -2.0889  2.3120
  780MOL0     H 7622  11.190  10.706   4.223  0.8950  0.3157 -0.4515
  780MOL0     H 7623  11.408  10.717   4.290 -1.2776  0.1179 -0.9792
  780MOL0     H 7624  11.739  10.349   5.276  1.7111  1.2897  1.0786
  780MOL0     H 7625  11.510  10.296   5.364 -0.9639  1.4623  0.2918
  780MOL0     H 7626  11.254  10.002   5.775  1.3523  0.6031 -0.2979
  780MOL0     H 7627  11.034   9.995   5.890  1.5667  0.1781  3.3863
  780MOL0     H 7628  10.797  10.044   5.917 -0.7562 -1.3839  0.8716
  780MOL0     H 7629  10.882  10.023   6.065  0.7976  1.8354 -0.3078
  780MOL0     H 7630  10.641  10.209   6.051  4.2164  2.4263  1.9779
  780MOL0     H 7631  10.713  10.130   6.187 -0.8446 -0.4170  0.4197
  780MOL0     H 7632  10.638   9.895   6.089  2.3205  1.2827 -1.9125
  780MOL0     H 7633  10.505   9.995   6.122  0.6316  1.5406  1.3198
  780MOL0     H 7634  10.625   9.973   5.841  0.2931  0.9782 -1.6616
  780MOL0     H 7635  10.500  10.086   5.890  1.4467  0.7675  1.1444
  780MOL0     H 7636  10.304   9.733   5.810 -3.2214  3.9023 -2.4469
  780MOL0     H 7637  11.053  10.420   5.947  0.1967  0.7438 -1.0249
  780MOL0     H 7638  11.292  10.492   5.693  1.2801 -1.4107  0.2857
  780MOL0     H 7639  11.215  10.556   5.833  1.1119  0.2768  0.2720
  780MOL0     H 7640  11.372  10.476   5.842 -1.0056  1.6571  0.9937
  781MOL0     O 7641   4.523  10.409  10.179 -0.2929  0.3477  0.2294
  781MOL0     C 7642   4.611  10.455  10.101 -0.2775  0.2070 -0.2413
  781MOL0     O 7643   4.627  10.440   9.965  0.0047  0.0391 -0.1593
  781MOL0     C 7644   4.585  10.320   9.911 -0.8582 -0.1246  0.3978
  781MOL0     C 7645   4.509  10.347   9.797  0.8851  0.8944 -1.1168
  781MOL0     C 7646   4.450  10.246   9.722  0.1440  0.4986  0.0044
  781MOL0     C 7647   4.459  10.121   9.766 -0.2489 -0.3829  0.0519
  781MOL0     O 7648   4.388  10.025   9.718  0.5750  0.3734  0.4114
  781MOL0     C 7649   4.337  10.015   9.591 -0.6164 -0.3083  0.1514
  781MOL0     C 7650   4.280   9.872   9.545  0.6824 -0.4708 -0.3051
  781MOL0     C 7651   4.176   9.836   9.645  0.1362 -0.3838  0.1267
  781MOL0     C 7652   4.112   9.702   9.606  0.6090 -0.2805 -0.1970
  781MOL0     C 7653   3.994   9.667   9.693  0.7338  0.1264  0.2640
  781MOL0     C 7654   3.892   9.577   9.635  0.6219  0.5287 -0.0903
  781MOL0     C 7655   3.787   9.544   9.732  0.7039 -0.5214 -0.2395
  781MOL0     C 7656   3.688   9.445   9.673 -0.5945 -0.1358 -1.0922
  781MOL0     N 7657   3.547   9.447   9.718  0.3128  0.1104  0.1366
  781MOL0     C 7658   3.499   9.400   9.833 -0.2336  0.2190 -0.8059
  781MOL0     C 7659   3.368   9.434   9.843  0.2103 -0.0558  0.2242
  781MOL0     C 7660   3.281   9.419   9.966  0.3622  0.6324 -0.3323
  781MOL0     C 7661   3.153   9.496   9.951  0.2552  0.7129 -0.1130
  781MOL0     C 7662   3.051   9.434   9.846 -0.6473 -0.3148  0.3160
  781MOL0     C 7663   2.918   9.509   9.858 -0.1867  0.3363  0.0679
  781MOL0     O 7664   2.928   9.647   9.837  0.3580  0.8658  0.2364
  781MOL0     C 7665   2.821   9.724   9.803  0.3740 -0.4259 -0.6338
  781MOL0     C 7666   2.856   9.844   9.745  0.4076  0.2154  0.2687
  781MOL0     C 7667   2.759   9.940   9.705 -0.0487 -0.1134 -0.1570
  781MOL0     C 7668   2.821  10.069   9.668 -0.0769  0.2650  0.2387
  781MOL0     C 7669   2.616   9.917   9.723 -0.4152  0.5090  0.0724
  781MOL0     C 7670   2.499   9.991   9.670  0.4440  0.7045 -0.0750
  781MOL0     O 7671   2.380   9.922   9.682  0.5268  0.0133 -0.6750
  781MOL0     C 7672   2.300   9.902   9.574  0.8391 -0.9255  0.5927
  781MOL0     C 7673   2.352   9.906   9.440 -0.3362  0.1423 -1.1400
  781MOL0     C 7674   2.259   9.861   9.337  0.4027  0.0258  0.2668
  781MOL0     C 7675   2.127   9.830   9.359 -0.3830  0.7448 -0.9989
  781MOL0     O 7676   2.051   9.769   9.261 -0.0812  0.0309 -0.7731
  781MOL0     C 7677   1.917   9.731   9.289  0.6170  0.2310  0.4170
  781MOL0     C 7678   1.868   9.633   9.177  1.0389 -0.0227 -0.0831
  781MOL0     C 7679   1.913   9.486   9.209 -0.0562 -0.6974  0.6136
  781MOL0     C 7680   1.878   9.390   9.098  1.0721 -0.5942  0.4281
  781MOL0     C 7681   1.958   9.260   9.089  0.6887 -0.3079 -0.2096
  781MOL0     C 7682   2.003   9.191   9.219  0.0278 -0.6198  0.2426
  781MOL0     C 7683   1.872   9.127   9.276  0.7452  0.1942  0.2107
  781MOL0     C 7684   1.910   9.066   9.406  0.1185  0.2885 -1.1317
  781MOL0    Cl 7685   2.037   8.949   9.399 -0.2244 -0.1575 -0.1763
  781MOL0     C 7686   2.066   9.862   9.485  0.2472  0.0417  0.1307
  781MOL0     C 7687   2.154   9.889   9.584 -0.8060 -0.1991 -0.4490
  781MOL0     O 7688   2.521  10.094   9.611 -0.0922 -0.2597  0.4491
  781MOL0     C 7689   2.589   9.792   9.783  0.4886  0.4502  1.2936
  781MOL0     C 7690   2.687   9.692   9.816 -0.2367 -0.8565  0.7919
  781MOL0     N 7691   3.331   9.486   9.722 -0.8248 -0.1409 -0.8871
  781MOL0     N 7692   3.441   9.493   9.643  0.3324  0.7313  0.3747
  781MOL0     C 7693   4.541  10.086   9.876 -0.6240  0.3629  0.2467
  781MOL0     C 7694   4.611  10.185   9.945  0.4967 -1.1200 -0.0206
  781MOL0     C 7695   4.688  10.569  10.163  0.4995 -0.3586 -0.9498
  781MOL0     C 7696   4.630  10.653  10.264  0.1840  0.0632  0.3597
  781MOL0     C 7697   4.703  10.754  10.314  0.1111 -0.2210  0.0325
  781MOL0     C 7698   4.838  10.779  10.281 -0.1980 -0.9787 -0.0917
  781MOL0     O 7699   4.895  10.880  10.346  0.0224  0.2969  0.3526
  781MOL0     C 7700   5.009  10.947  10.283 -0.1945  0.1460  0.0140
  781MOL0     C 7701   5.025  11.083  10.350  0.4824  0.3381  0.4675
  781MOL0     C 7702   4.898  11.167  10.358  0.6464  0.2796  0.2226
  781MOL0     C 7703   4.904  11.259  10.479 -0.4029 -0.4008  1.2903
  781MOL0     C 7704   4.774  11.325  10.514 -0.8089  0.5776  0.3080
  781MOL0     C 7705   4.673  11.355  10.567  0.3952  0.4343  0.6798
  781MOL0     C 7706   4.904  10.682  10.204  0.7525  1.4706  0.7716
  781MOL0     C 7707   4.831  10.589  10.134  0.3974  0.7252  0.2620
  781MOL0     C 7708   4.903  10.492  10.039 -0.3091  0.4939  0.3416
  781MOL0     H 7709   4.478  10.447   9.770 -3.3124  0.3093  0.7847
  781MOL0     H 7710   4.390  10.254   9.632 -3.3133  2.9484  2.2328
  781MOL0     H 7711   4.406  10.054   9.515 -1.6038  1.1437 -0.0417
  781MOL0     H 7712   4.253  10.083   9.575  0.3641  0.6372 -1.1589
  781MOL0     H 7713   4.242   9.886   9.444  2.6783  4.4428 -0.6477
  781MOL0     H 7714   4.355   9.791   9.542 -1.0890 -2.1573 -1.3945
  781MOL0     H 7715   4.213   9.832   9.748  0.5947  2.5650  0.1668
  781MOL0     H 7716   4.089   9.902   9.635  1.8993  1.7985 -2.2003
  781MOL0     H 7717   4.088   9.709   9.500  2.9709 -1.2591 -0.8790
  781MOL0     H 7718   4.189   9.624   9.603  2.0581  1.1321 -2.0513
  781MOL0     H 7719   3.935   9.752   9.729 -1.0295  0.3376 -2.7621
  781MOL0     H 7720   4.034   9.619   9.783  0.4683 -1.3970 -0.4021
  781MOL0     H 7721   3.859   9.636   9.550  1.8412  0.8210 -0.3743
  781MOL0     H 7722   3.951   9.490   9.603 -1.3318 -0.3552 -1.5093
  781MOL0     H 7723   3.739   9.642   9.740  1.3894 -0.0827 -1.2251
  781MOL0     H 7724   3.833   9.525   9.830  1.2110  1.8369  0.0460
  781MOL0     H 7725   3.676   9.471   9.567 -3.7573 -2.1784 -1.3657
  781MOL0     H 7726   3.727   9.345   9.690 -0.7383 -0.2704 -1.5264
  781MOL0     H 7727   3.549   9.342   9.910  0.9579  0.5146 -1.3302
  781MOL0     H 7728   3.324   9.462  10.057 -4.0708 -0.5831  2.6606
  781MOL0     H 7729   3.262   9.313   9.981 -0.7111  0.7896 -0.5077
  781MOL0     H 7730   3.105   9.515  10.048  4.1475  1.7158  1.8216
  781MOL0     H 7731   3.177   9.593   9.907  1.5621 -0.4510 -2.0934
  781MOL0     H 7732   3.088   9.436   9.743 -0.6451 -0.5691  0.3097
  781MOL0     H 7733   3.033   9.327   9.863  0.7287 -0.6137 -0.0441
  781MOL0     H 7734   2.848   9.481   9.779 -0.1204 -1.9693  0.7490
  781MOL0     H 7735   2.869   9.478   9.950 -3.9314  1.6754 -1.2711
  781MOL0     H 7736   2.958   9.868   9.719 -0.3851  0.8682 -2.6509
  781MOL0     H 7737   2.847  10.067   9.562 -0.1381 -0.4399  0.2298
  781MOL0     H 7738   2.914  10.090   9.721  0.3714 -0.2491 -0.3280
  781MOL0     H 7739   2.759  10.159   9.676  0.0654  0.4270 -0.4582
  781MOL0     H 7740   2.458   9.927   9.426 -0.9292  3.0382 -1.8995
  781MOL0     H 7741   2.297   9.846   9.236 -2.4393 -1.1343 -0.7245
  781MOL0     H 7742   1.915   9.665   9.377  3.1560  2.6052  2.4279
  781MOL0     H 7743   1.861   9.823   9.308 -3.0049 -1.7027  0.0451
  781MOL0     H 7744   1.759   9.628   9.183  0.9827  1.9769  4.0738
  781MOL0     H 7745   1.905   9.659   9.077 -0.5232  0.3806 -0.5865
  781MOL0     H 7746   1.867   9.461   9.305 -2.5221  1.9903  0.2892
  781MOL0     H 7747   2.022   9.481   9.214 -0.0504 -2.0626 -0.2287
  781MOL0     H 7748   1.891   9.443   9.003  2.0603 -1.0918  0.2661
  781MOL0     H 7749   1.773   9.363   9.114  0.7066  0.2948 -0.3761
  781MOL0     H 7750   1.929   9.197   9.004  0.7442  1.4028 -1.5554
  781MOL0     H 7751   2.052   9.307   9.059  2.8344 -2.7609  2.2556
  781MOL0     H 7752   2.051   9.261   9.288 -2.1291  0.4458  0.7510
  781MOL0     H 7753   2.081   9.125   9.181  0.7848  0.5172 -0.2554
  781MOL0     H 7754   1.830   9.058   9.203 -0.0017  0.2368  0.5925
  781MOL0     H 7755   1.797   9.205   9.293  1.8954  1.5240 -0.6141
  781MOL0     H 7756   1.828   9.020   9.462  3.4332 -2.2090  2.1431
  781MOL0     H 7757   1.935   9.148   9.474  3.0573 -1.0520 -0.4511
  781MOL0     H 7758   1.959   9.855   9.499  0.1450  1.8022  0.4370
  781MOL0     H 7759   2.117   9.901   9.685  1.1999  0.2473  0.2661
  781MOL0     H 7760   2.490   9.752   9.800  0.2491 -0.1536 -1.1761
  781MOL0     H 7761   2.658   9.592   9.848 -0.5360 -1.0107  0.0502
  781MOL0     H 7762   4.539   9.982   9.906 -0.6888  0.8204  1.8967
  781MOL0     H 7763   4.671  10.156  10.031  0.4463  1.0843  0.8114
  781MOL0     H 7764   4.524  10.645  10.286  0.2989 -2.5623  0.3179
  781MOL0     H 7765   4.655  10.819  10.387  0.5473  0.0790  0.0524
  781MOL0     H 7766   5.101  10.888  10.284 -0.1963  0.0514  2.9647
  781MOL0     H 7767   4.993  10.977  10.179  2.3646  1.0462 -0.1889
  781MOL0     H 7768   5.098  11.143  10.295  1.3773 -1.2354 -0.1315
  781MOL0     H 7769   5.076  11.058  10.444  3.7358  2.9886 -0.4058
  781MOL0     H 7770   4.872  11.222  10.267 -2.4149 -0.7048  0.3691
  781MOL0     H 7771   4.807  11.111  10.380  2.2175 -1.6001  2.3924
  781MOL0     H 7772   4.988  11.329  10.469  1.4213 -2.6449 -0.2866
  781MOL0     H 7773   4.933  11.188  10.556 -0.8316 -0.2033  1.6343
  781MOL0     H 7774   4.586  11.373  10.626  1.5351 -0.0204  2.5587
  781MOL0     H 7775   5.010  10.696  10.188  0.6908  0.7869 -0.3241
  781MOL0     H 7776   4.899  10.386  10.065 -1.9031  0.1508 -1.0947
  781MOL0     H 7777   4.886  10.511   9.933  0.8761  0.1204  0.0641
  781MOL0     H 7778   5.010  10.511  10.052 -0.5136  0.2063  2.8670
  782MOL0     O 7779   9.427   2.145   9.714 -0.0736  0.3464 -0.2041
  782MOL0     C 7780   9.526   2.150   9.785 -0.3576 -0.3902  0.3722
  782MOL0     O 7781   9.625   2.061   9.783  0.1753 -0.6186 -0.0408
  782MOL0     C 7782   9.613   1.937   9.720  0.1686 -0.9733 -0.3672
  782MOL0     C 7783   9.502   1.859   9.734  0.7115 -0.5331  0.1394
  782MOL0     C 7784   9.495   1.738   9.664  0.7261 -0.1368  0.7040
  782MOL0     C 7785   9.601   1.688   9.588 -0.3247 -0.1619  0.5901
  782MOL0     O 7786   9.600   1.569   9.522 -1.0315  0.4878 -0.2542
  782MOL0     C 7787   9.678   1.471   9.585 -0.7693  0.1262 -1.3618
  782MOL0     C 7788   9.612   1.339   9.579 -0.1641 -0.4556 -0.6133
  782MOL0     C 7789   9.616   1.295   9.433  0.2918  0.4170 -0.8427
  782MOL0     C 7790   9.567   1.157   9.404 -0.7423 -0.8652 -0.1910
  782MOL0     C 7791   9.578   1.126   9.259 -0.4333  0.5496  0.3251
  782MOL0     C 7792   9.704   1.061   9.222 -0.4131 -0.0354  0.6748
  782MOL0     C 7793   9.715   1.067   9.063 -0.0630  0.1219  0.9788
  782MOL0     C 7794   9.584   1.024   8.977  0.4493  0.4498 -0.7190
  782MOL0     N 7795   9.608   1.058   8.832 -0.5558 -0.6824  0.3391
  782MOL0     C 7796   9.549   1.162   8.766 -0.0191  0.3100 -1.2597
  782MOL0     C 7797   9.606   1.156   8.649 -0.7169  0.2430 -0.4126
  782MOL0     C 7798   9.588   1.265   8.544 -0.0574 -0.4998  0.2776
  782MOL0     C 7799   9.449   1.317   8.533 -0.2076 -0.5146 -0.0904
  782MOL0     C 7800   9.437   1.417   8.416  0.7684 -0.0769 -1.0924
  782MOL0     C 7801   9.523   1.544   8.431  0.7706 -0.2315  0.0484
  782MOL0     O 7802   9.504   1.611   8.550  0.0874 -0.2197 -0.1385
  782MOL0     C 7803   9.408   1.714   8.557 -0.0206 -0.6244 -0.5142
  782MOL0     C 7804   9.406   1.836   8.495 -0.2504 -0.2772 -0.7387
  782MOL0     C 7805   9.300   1.928   8.493 -0.4136  0.1570  0.7224
  782MOL0     C 7806   9.311   2.048   8.395  0.3811  0.8548 -0.6027
  782MOL0     C 7807   9.187   1.901   8.569 -0.5311  0.3299  0.8050
  782MOL0     C 7808   9.063   1.986   8.563 -0.1537  0.0306 -1.2590
  782MOL0     O 7809   8.971   1.969   8.671 -0.6372 -0.0423  0.0114
  782MOL0     C 7810   8.835   2.007   8.659  0.4388  0.8544  0.8713
  782MOL0     C 7811   8.732   1.910   8.676  0.5412 -0.5219  0.1303
  782MOL0     C 7812   8.599   1.945   8.642  0.0397 -0.3905  0.1533
  782MOL0     C 7813   8.572   2.068   8.588 -0.5485 -0.5813 -0.1922
  782MOL0     O 7814   8.445   2.078   8.540 -0.1715 -0.1734  0.2807
  782MOL0     C 7815   8.375   2.206   8.533 -0.2960  0.9449 -0.7320
  782MOL0     C 7816   8.276   2.218   8.645 -0.1386  0.3262 -0.1362
  782MOL0     C 7817   8.347   2.200   8.784 -0.3307  0.2987  0.9375
  782MOL0     C 7818   8.276   2.249   8.905 -0.6034 -0.3711  0.4935
  782MOL0     C 7819   8.342   2.192   9.023 -0.4772 -0.0080 -1.3028
  782MOL0     C 7820   8.263   2.240   9.153 -0.1344  0.6943 -0.2295
  782MOL0     C 7821   8.306   2.164   9.279 -0.0177 -0.2786 -0.7576
  782MOL0     C 7822   8.443   2.205   9.333 -0.1055 -1.4761 -0.4208
  782MOL0    Cl 7823   8.457   2.373   9.382 -0.1134  0.4370 -0.0298
  782MOL0     C 7824   8.671   2.160   8.572 -0.0162  0.3757 -0.0892
  782MOL0     C 7825   8.805   2.129   8.606  1.0644  0.0992 -0.2212
  782MOL0     O 7826   9.046   2.066   8.470  1.0349  0.2135  0.1078
  782MOL0     C 7827   9.177   1.777   8.632 -0.0234  1.3927  0.2225
  782MOL0     C 7828   9.291   1.682   8.628 -0.4985 -0.3308  0.0647
  782MOL0     N 7829   9.699   1.047   8.639  0.0621 -0.0166  0.1739
  782MOL0     N 7830   9.695   0.990   8.750  0.0105 -0.0493 -0.2345
  782MOL0     C 7831   9.716   1.772   9.587 -0.6286  0.6391 -0.4814
  782MOL0     C 7832   9.725   1.895   9.651  0.0702  0.2494 -0.6799
  782MOL0     C 7833   9.532   2.270   9.874  0.8314  0.2702  0.5073
  782MOL0     C 7834   9.637   2.274   9.970 -0.2541 -0.3888  0.3664
  782MOL0     C 7835   9.646   2.375  10.066  0.0161 -0.1708  0.0515
  782MOL0     C 7836   9.558   2.484  10.061 -1.1086 -0.2735  0.0183
  782MOL0     O 7837   9.589   2.609  10.119 -0.3496 -0.0120 -0.8552
  782MOL0     C 7838   9.721   2.628  10.179  0.7265 -0.3900 -0.2623
  782MOL0     C 7839   9.723   2.751  10.266  0.0155  0.0100 -0.6021
  782MOL0     C 7840   9.865   2.780  10.327  0.4128  0.0833 -0.3000
  782MOL0     C 7841   9.868   2.918  10.382 -0.2186 -0.5083  0.9014
  782MOL0     C 7842  10.012   2.931  10.418 -0.2654 -0.4563 -0.4669
  782MOL0     C 7843  10.131   2.958  10.428 -0.2525  0.3895  0.5794
  782MOL0     C 7844   9.449   2.478   9.978 -0.0985 -0.4810  0.0777
  782MOL0     C 7845   9.431   2.372   9.885 -0.0067 -0.3581 -0.2631
  782MOL0     C 7846   9.284   2.371   9.835  0.3359  0.9995  0.6035
  782MOL0     H 7847   9.422   1.894   9.798  1.1746 -1.3843  1.2255
  782MOL0     H 7848   9.406   1.678   9.682 -0.1864  0.6048 -1.0063
  782MOL0     H 7849   9.693   1.485   9.692  1.6309 -1.3206 -1.4229
  782MOL0     H 7850   9.780   1.472   9.545  0.9466  0.2704  2.5425
  782MOL0     H 7851   9.662   1.275   9.652  2.0499  0.5632 -1.1385
  782MOL0     H 7852   9.507   1.343   9.610 -0.2351 -1.0425 -0.7701
  782MOL0     H 7853   9.571   1.374   9.371 -0.6278  1.3272  0.8916
  782MOL0     H 7854   9.718   1.292   9.394 -0.2019 -2.1470 -2.1028
  782MOL0     H 7855   9.617   1.089   9.474  1.2275  2.1747  1.5683
  782MOL0     H 7856   9.460   1.170   9.423 -0.5768  2.2962 -0.8297
  782MOL0     H 7857   9.542   1.205   9.192 -4.0733 -0.8332  0.4060
  782MOL0     H 7858   9.502   1.050   9.236  1.5206 -1.0139 -1.2949
  782MOL0     H 7859   9.784   1.118   9.270 -0.4086  0.4464  0.1148
  782MOL0     H 7860   9.710   0.958   9.259 -0.2094  0.3182  1.6403
  782MOL0     H 7861   9.786   0.993   9.023 -1.5292 -1.3223  0.9488
  782MOL0     H 7862   9.742   1.168   9.031  2.2151 -0.0435  2.1730
  782MOL0     H 7863   9.563   0.917   8.982  1.9239 -0.0182 -3.1748
  782MOL0     H 7864   9.492   1.076   9.007  0.9760  0.5213  0.8683
  782MOL0     H 7865   9.485   1.238   8.808  0.0379 -0.0277 -0.5508
  782MOL0     H 7866   9.620   1.227   8.447  2.9408  0.7397  0.6832
  782MOL0     H 7867   9.655   1.344   8.579 -0.9830 -0.3215  1.7233
  782MOL0     H 7868   9.383   1.230   8.527  0.2820 -1.0297  1.4373
  782MOL0     H 7869   9.422   1.377   8.620 -0.6243 -1.8146  0.7178
  782MOL0     H 7870   9.464   1.369   8.321 -0.7524  0.3893 -1.8025
  782MOL0     H 7871   9.335   1.454   8.403  0.9777  1.3619  0.9967
  782MOL0     H 7872   9.628   1.517   8.420  0.9971  1.1112 -1.2753
  782MOL0     H 7873   9.489   1.614   8.355  0.0813  2.1219  2.3560
  782MOL0     H 7874   9.494   1.870   8.442  0.3851 -0.1152  0.3852
  782MOL0     H 7875   9.237   2.054   8.315  0.8488  0.0046 -1.1197
  782MOL0     H 7876   9.407   2.052   8.342  0.1783  1.3146 -0.9394
  782MOL0     H 7877   9.296   2.139   8.453 -1.2659  0.6114 -0.6074
  782MOL0     H 7878   8.749   1.821   8.735 -2.4013 -0.0996  1.7875
  782MOL0     H 7879   8.515   1.877   8.648 -0.1509 -0.0464  1.8817
  782MOL0     H 7880   8.448   2.287   8.544 -1.6166  2.0438  0.4880
  782MOL0     H 7881   8.318   2.209   8.439  1.4441 -0.4830 -1.9026
  782MOL0     H 7882   8.236   2.320   8.641 -1.9667 -0.3133  0.5304
  782MOL0     H 7883   8.195   2.146   8.629  1.3448 -2.2632  2.8327
  782MOL0     H 7884   8.451   2.234   8.788  0.1926 -1.0788 -0.0199
  782MOL0     H 7885   8.359   2.091   8.783 -1.7833 -0.0349 -4.0915
  782MOL0     H 7886   8.171   2.219   8.897 -0.5139 -0.2040 -2.0533
  782MOL0     H 7887   8.272   2.356   8.924  0.6991  0.1363 -1.7911
  782MOL0     H 7888   8.360   2.085   9.028  0.5169  0.1994 -0.0151
  782MOL0     H 7889   8.443   2.235   9.025  1.0373 -3.2964 -1.1383
  782MOL0     H 7890   8.157   2.223   9.132  0.0222  0.7515 -1.1068
  782MOL0     H 7891   8.268   2.348   9.168  0.2199  0.7932 -1.0095
  782MOL0     H 7892   8.297   2.055   9.271 -1.4055 -0.4502  1.9955
  782MOL0     H 7893   8.223   2.179   9.348  0.4024  0.1385 -0.3387
  782MOL0     H 7894   8.517   2.189   9.254  0.9326 -0.8439  0.3892
  782MOL0     H 7895   8.445   2.141   9.422 -3.7579 -3.0199 -1.2532
  782MOL0     H 7896   8.652   2.255   8.524  4.2566  2.3685  1.7050
  782MOL0     H 7897   8.888   2.196   8.583  1.9967 -1.3195 -1.1754
  782MOL0     H 7898   9.090   1.745   8.689  1.6139 -0.2682  1.9219
  782MOL0     H 7899   9.285   1.588   8.683 -4.1889  1.4596  3.1619
  782MOL0     H 7900   9.802   1.738   9.531 -2.1282 -0.3021 -2.3009
  782MOL0     H 7901   9.815   1.956   9.652  0.8024 -0.7434 -1.8632
  782MOL0     H 7902   9.705   2.190   9.979  1.1079  0.7753  1.2929
  782MOL0     H 7903   9.730   2.371  10.134 -0.6213  1.5548  0.9935
  782MOL0     H 7904   9.757   2.536  10.227  4.3391  0.5222 -0.8864
  782MOL0     H 7905   9.796   2.644  10.101  0.7965 -0.5512 -0.2302
  782MOL0     H 7906   9.649   2.744  10.347  0.5633  0.2985 -0.0688
  782MOL0     H 7907   9.702   2.839  10.205  1.6549  1.5079  0.9050
  782MOL0     H 7908   9.881   2.706  10.406  0.3803 -1.8216 -1.9875
  782MOL0     H 7909   9.941   2.756  10.252 -0.5629  2.7335 -2.2727
  782MOL0     H 7910   9.803   2.933  10.468  0.0219 -2.0344  1.3930
  782MOL0     H 7911   9.847   2.991  10.303  0.3985  1.0074  2.1060
  782MOL0     H 7912  10.238   2.956  10.430 -0.2463  0.2713  0.1537
  782MOL0     H 7913   9.379   2.559   9.966  0.5189  0.1701  0.7483
  782MOL0     H 7914   9.210   2.392   9.913  0.1300 -0.2602  0.7767
  782MOL0     H 7915   9.281   2.439   9.750  0.0192  1.4338  0.9567
  782MOL0     H 7916   9.241   2.275   9.806 -1.7422  2.0941 -0.1051
  783MOL0     O 7917   8.710   0.404   4.441  0.9800  0.2899  0.3008
  783MOL0     C 7918   8.743   0.460   4.550 -0.1260  0.9643  0.1348
  783MOL0     O 7919   8.780   0.593   4.558 -0.0577  0.1237 -0.0314
  783MOL0     C 7920   8.802   0.667   4.441 -0.0427 -0.0679  0.4770
  783MOL0     C 7921   8.696   0.737   4.388 -0.2616  0.7321  0.3162
  783MOL0     C 7922   8.714   0.812   4.265 -0.4895  0.9726 -0.0324
  783MOL0     C 7923   8.844   0.822   4.212  0.2091  0.4248 -0.9512
  783MOL0     O 7924   8.881   0.896   4.102 -1.0974  0.1772 -1.1838
  783MOL0     C 7925   8.791   0.987   4.049 -0.2870  0.6202 -0.9786
  783MOL0     C 7926   8.864   1.064   3.943 -0.0022  0.7296 -0.2011
  783MOL0     C 7927   8.903   0.980   3.817  0.0718 -0.3949  0.6341
  783MOL0     C 7928   8.932   1.063   3.689  0.7503 -0.4568 -0.2215
  783MOL0     C 7929   8.914   0.978   3.564  0.5406 -0.4335 -0.2019
  783MOL0     C 7930   8.923   1.042   3.425 -0.0239 -0.8796 -0.4875
  783MOL0     C 7931   9.059   1.080   3.392  0.0086 -0.5372  0.8508
  783MOL0     C 7932   9.156   0.959   3.372 -0.0110 -0.1979  1.3946
  783MOL0     N 7933   9.293   1.006   3.414 -0.5573 -0.1269 -0.6055
  783MOL0     C 7934   9.335   1.015   3.541 -0.1417  0.2489 -0.0268
  783MOL0     C 7935   9.464   1.064   3.523  0.8909  0.1499 -0.6076
  783MOL0     C 7936   9.552   1.083   3.644 -0.7326  0.2278 -0.1211
  783MOL0     C 7937   9.620   0.959   3.685  0.1476  0.4070 -0.0793
  783MOL0     C 7938   9.695   0.882   3.575 -0.6188 -0.4520  0.0825
  783MOL0     C 7939   9.822   0.950   3.530  0.7281 -0.4397 -0.4019
  783MOL0     O 7940   9.937   0.915   3.612 -0.2804  0.1945 -0.0833
  783MOL0     C 7941  10.011   0.817   3.550 -0.2366 -0.3860  0.0377
  783MOL0     C 7942  10.139   0.867   3.508 -0.1852 -0.0415  0.4995
  783MOL0     C 7943  10.229   0.778   3.445  0.7882 -0.0940 -0.1338
  783MOL0     C 7944  10.354   0.828   3.406 -0.6379  0.2514  0.1851
  783MOL0     C 7945  10.200   0.641   3.443 -0.2733  0.6983 -0.4206
  783MOL0     C 7946  10.298   0.546   3.407 -0.1341 -0.3439 -0.0133
  783MOL0     O 7947  10.342   0.464   3.503 -0.5099 -0.5286  0.1290
  783MOL0     C 7948  10.453   0.387   3.469 -0.0052  0.0294  0.4257
  783MOL0     C 7949  10.577   0.452   3.483 -0.2443  0.3453  0.7941
  783MOL0     C 7950  10.696   0.375   3.469  0.2951  0.4123  0.0356
  783MOL0     C 7951  10.689   0.244   3.426  0.6720  0.1804  0.0804
  783MOL0     O 7952  10.799   0.156   3.407 -0.5536  0.7415 -0.1963
  783MOL0     C 7953  10.931   0.210   3.407 -0.5608 -1.1989  0.1999
  783MOL0     C 7954  11.009   0.088   3.344 -0.9756 -0.7349 -0.6600
  783MOL0     C 7955  11.153   0.123   3.317  0.5972  1.0433 -0.4311
  783MOL0     C 7956  11.234   0.136   3.440  0.8528 -0.1753 -0.7884
  783MOL0     C 7957  11.388   0.173   3.414 -0.1372 -0.5152  0.8540
  783MOL0     C 7958  11.404   0.334   3.370  0.9737 -0.3843  0.3152
  783MOL0     C 7959  11.556   0.378   3.360  0.3419  0.4849 -0.1114
  783MOL0     C 7960  11.629   0.317   3.243  0.6094  0.1573  0.5673
  783MOL0    Cl 7961  11.663   0.138   3.257 -0.1282 -0.3629 -0.2614
  783MOL0     C 7962  10.566   0.190   3.418 -0.2593  1.4121 -0.2613
  783MOL0     C 7963  10.452   0.253   3.442 -0.2334 -0.1024 -0.6372
  783MOL0     O 7964  10.344   0.563   3.297 -1.2245  0.6475 -0.1421
  783MOL0     C 7965  10.076   0.597   3.472  1.0077  0.0660 -0.2515
  783MOL0     C 7966   9.974   0.684   3.527 -0.3984  0.7638 -0.4166
  783MOL0     N 7967   9.490   1.103   3.395 -0.1291  0.8670  0.7108
  783MOL0     N 7968   9.383   1.069   3.333  0.5244  0.0176 -0.1610
  783MOL0     C 7969   8.938   0.743   4.260 -0.3477  0.7908  0.4731
  783MOL0     C 7970   8.921   0.668   4.374 -0.2201 -0.0790  0.6419
  783MOL0     C 7971   8.710   0.392   4.678 -0.2042 -0.2072 -0.5796
  783MOL0     C 7972   8.608   0.295   4.679 -0.6497  1.0547  0.5243
  783MOL0     C 7973   8.559   0.254   4.801  0.6067 -0.1646 -0.3514
  783MOL0     C 7974   8.610   0.297   4.926  0.6116 -0.4532  0.4531
  783MOL0     O 7975   8.558   0.241   5.041  0.3256  0.2875 -0.0050
  783MOL0     C 7976   8.470   0.335   5.107  0.3823  1.2394 -0.3591
  783MOL0     C 7977   8.470   0.306   5.261 -0.2531  0.6122 -0.3271
  783MOL0     C 7978   8.488   0.158   5.283 -0.1922  0.2197 -0.4333
  783MOL0     C 7979   8.472   0.118   5.437 -0.0806  0.0058  0.1738
  783MOL0     C 7980   8.471  -0.024   5.449  0.4550  0.3321  0.0769
  783MOL0     C 7981   8.462  -0.147   5.456 -0.7282 -0.7302 -0.4365
  783MOL0     C 7982   8.720   0.374   4.928 -0.0989  0.8893 -0.8927
  783MOL0     C 7983   8.775   0.424   4.809  0.0674  0.4033  0.8824
  783MOL0     C 7984   8.907   0.494   4.816  0.0903 -0.5073 -1.3779
  783MOL0     H 7985   8.601   0.747   4.440 -1.7358 -0.6822 -1.9499
  783MOL0     H 7986   8.629   0.864   4.221 -0.4245 -0.3085 -1.8245
  783MOL0     H 7987   8.761   1.055   4.129  0.2262 -1.7868  1.3962
  783MOL0     H 7988   8.704   0.943   4.000  0.9069 -2.2999 -0.7010
  783MOL0     H 7989   8.794   1.145   3.924 -2.7314  0.0119  5.0492
  783MOL0     H 7990   8.950   1.117   3.985  1.7465  0.8445 -3.5798
  783MOL0     H 7991   8.987   0.916   3.846  1.0418  0.4775 -0.1475
  783MOL0     H 7992   8.809   0.933   3.789 -0.2636  0.7547 -0.2634
  783MOL0     H 7993   8.864   1.149   3.677  0.2182 -0.9762 -0.9866
  783MOL0     H 7994   9.037   1.091   3.702  0.7111 -0.3924 -0.0387
  783MOL0     H 7995   8.818   0.925   3.569  0.7247 -0.6517  1.7607
  783MOL0     H 7996   8.987   0.897   3.577  1.2814  0.7520  5.2805
  783MOL0     H 7997   8.898   0.976   3.340  2.1997 -2.8220  0.2703
  783MOL0     H 7998   8.859   1.130   3.417 -1.5674 -1.8628  0.4823
  783MOL0     H 7999   9.095   1.129   3.482  2.0590 -3.2238  1.6389
  783MOL0     H 8000   9.057   1.154   3.311  3.1420 -1.2966 -0.0649
  783MOL0     H 8001   9.124   0.868   3.424 -0.1314 -1.4755 -0.7700
  783MOL0     H 8002   9.169   0.920   3.270 -0.9649 -2.5443  2.0964
  783MOL0     H 8003   9.279   0.981   3.627 -2.1602 -0.9615 -1.7190
  783MOL0     H 8004   9.493   1.117   3.730 -0.5626  0.2470 -0.0122
  783MOL0     H 8005   9.625   1.161   3.621  0.5636 -0.3646  1.8088
  783MOL0     H 8006   9.685   0.978   3.771  0.3393  0.5421 -0.2524
  783MOL0     H 8007   9.554   0.878   3.718  0.3002 -0.2962 -1.4165
  783MOL0     H 8008   9.728   0.786   3.617 -1.6631  0.7679  4.0889
  783MOL0     H 8009   9.635   0.848   3.490 -0.9324 -0.4679  0.3114
  783MOL0     H 8010   9.855   0.936   3.427  1.5025  1.6737 -0.4874
  783MOL0     H 8011   9.794   1.056   3.536 -2.4368 -1.2466  0.9757
  783MOL0     H 8012  10.155   0.973   3.523  2.2162  0.0931 -2.1579
  783MOL0     H 8013  10.438   0.768   3.443  1.1384  1.5728 -1.5141
  783MOL0     H 8014  10.374   0.927   3.447  0.5749 -0.1143  0.5224
  783MOL0     H 8015  10.365   0.834   3.298 -2.6215 -2.0203 -0.2286
  783MOL0     H 8016  10.568   0.554   3.517 -1.5581  0.8804 -1.0124
  783MOL0     H 8017  10.784   0.437   3.478 -0.8219  2.4304 -1.8594
  783MOL0     H 8018  10.937   0.291   3.334  1.8050 -0.4271  1.1693
  783MOL0     H 8019  10.964   0.240   3.506 -1.1580  0.3229 -0.0397
  783MOL0     H 8020  10.999  -0.007   3.396  2.7844 -0.9996 -0.1773
  783MOL0     H 8021  10.963   0.070   3.246 -3.0161  1.0189 -0.1032
  783MOL0     H 8022  11.153   0.214   3.257  1.0770  1.1592 -0.2611
  783MOL0     H 8023  11.194   0.042   3.256  3.5682  0.1717  2.3817
  783MOL0     H 8024  11.220   0.043   3.496 -3.2252  0.7741  0.0903
  783MOL0     H 8025  11.188   0.203   3.514  0.7107 -2.7264  1.5894
  783MOL0     H 8026  11.451   0.150   3.501  3.0957  2.5631 -0.3940
  783MOL0     H 8027  11.421   0.103   3.337  1.2915 -0.0014  0.9619
  783MOL0     H 8028  11.365   0.395   3.451  0.1437 -0.6973  0.1575
  783MOL0     H 8029  11.353   0.363   3.278 -2.0553 -0.1528  1.9489
  783MOL0     H 8030  11.599   0.358   3.459  2.2247  2.2025 -0.5232
  783MOL0     H 8031  11.552   0.488   3.358  1.5887  0.5294 -0.7343
  783MOL0     H 8032  11.728   0.362   3.230  1.2185 -1.5272 -1.0180
  783MOL0     H 8033  11.566   0.332   3.154  2.3745 -1.9547 -1.1698
  783MOL0     H 8034  10.559   0.086   3.387 -1.2673  1.0289  1.1922
  783MOL0     H 8035  10.357   0.201   3.435  0.8036 -1.9445 -1.8964
  783MOL0     H 8036  10.046   0.495   3.449 -3.7438  0.4234  2.9531
  783MOL0     H 8037   9.878   0.640   3.551  0.4545 -0.0053  1.8376
  783MOL0     H 8038   9.032   0.735   4.206  1.2870  1.0432  3.0801
  783MOL0     H 8039   9.000   0.605   4.413 -0.6322 -1.2067 -0.3032
  783MOL0     H 8040   8.566   0.257   4.586 -1.8889  0.3099  1.3637
  783MOL0     H 8041   8.482   0.179   4.808 -0.5863  1.1329  1.4872
  783MOL0     H 8042   8.504   0.438   5.087  1.8029  0.8735  0.0476
  783MOL0     H 8043   8.367   0.320   5.074  0.4021  0.0501  0.0922
  783MOL0     H 8044   8.377   0.345   5.304 -0.7282 -4.3134  4.1123
  783MOL0     H 8045   8.556   0.362   5.299  4.2899 -4.4070 -1.9875
  783MOL0     H 8046   8.420   0.095   5.225  0.1798 -1.4513  0.8573
  783MOL0     H 8047   8.594   0.138   5.266 -0.3477  0.0484 -1.2393
  783MOL0     H 8048   8.378   0.155   5.478  0.6085  0.0804  1.7302
  783MOL0     H 8049   8.562   0.153   5.487  2.6672 -2.3931 -2.6428
  783MOL0     H 8050   8.450  -0.253   5.462  0.1015 -0.7778  0.9713
  783MOL0     H 8051   8.770   0.397   5.021  3.3985 -1.3101 -2.0644
  783MOL0     H 8052   8.968   0.418   4.866 -1.2835  0.0122  1.2796
  783MOL0     H 8053   8.942   0.524   4.717 -2.2380 -1.7978 -2.6642
  783MOL0     H 8054   8.914   0.585   4.877  0.3897  0.0517 -2.2226
  784MOL0     O 8055  10.588   3.858  11.230  0.2980 -0.2301  0.0250
  784MOL0     C 8056  10.567   3.979  11.222  0.2588  1.2198  0.1286
  784MOL0     O 8057  10.521   4.046  11.114  0.0320 -0.3272 -0.1168
  784MOL0     C 8058  10.542   3.983  10.998  0.2293 -0.5897  0.3312
  784MOL0     C 8059  10.465   3.872  10.963  0.2061  0.4191 -0.1647
  784MOL0     C 8060  10.479   3.808  10.835 -0.6171 -0.9005  0.2468
  784MOL0     C 8061  10.567   3.851  10.737  0.1703 -0.2552 -0.6636
  784MOL0     O 8062  10.591   3.783  10.625 -0.2771  0.2029  0.2845
  784MOL0     C 8063  10.478   3.735  10.547 -0.5056  0.4059 -0.0787
  784MOL0     C 8064  10.364   3.841  10.516  0.9689  0.4778  0.1192
  784MOL0     C 8065  10.257   3.764  10.426  0.0680 -0.3777  0.4012
  784MOL0     C 8066  10.313   3.765  10.278 -0.2159 -0.4695  0.0238
  784MOL0     C 8067  10.206   3.715  10.179  0.5286  0.0814 -1.2085
  784MOL0     C 8068  10.251   3.685  10.042  0.4666 -0.7842  0.2955
  784MOL0     C 8069  10.327   3.796   9.958  0.4164 -0.0286 -0.4693
  784MOL0     C 8070  10.412   3.722   9.854  0.0413 -0.1911  0.4068
  784MOL0     N 8071  10.315   3.645   9.776 -0.5906  0.9142  0.3571
  784MOL0     C 8072  10.362   3.518   9.734 -0.1250  0.5061 -0.6603
  784MOL0     C 8073  10.284   3.486   9.623 -0.2719  0.0625 -0.4915
  784MOL0     C 8074  10.279   3.357   9.541 -0.0468  0.8978 -0.1505
  784MOL0     C 8075  10.143   3.309   9.496  0.3053 -0.8591 -0.2388
  784MOL0     C 8076  10.144   3.156   9.482  0.3924  0.6521 -0.2915
  784MOL0     C 8077  10.019   3.107   9.415  0.6909 -0.5713  0.1407
  784MOL0     O 8078  10.025   2.967   9.404 -0.2013  1.0278 -0.5556
  784MOL0     C 8079   9.946   2.907   9.314 -0.0893 -0.4511 -0.0567
  784MOL0     C 8080   9.980   2.775   9.275  0.6392  0.4061  0.3871
  784MOL0     C 8081   9.894   2.697   9.199 -0.1540 -0.3100 -0.2514
  784MOL0     C 8082   9.938   2.562   9.159 -0.3103 -0.0441  0.0433
  784MOL0     C 8083   9.766   2.748   9.158 -0.7305 -0.3420  0.1832
  784MOL0     C 8084   9.679   2.668   9.063 -0.5135  0.4656 -0.4210
  784MOL0     O 8085   9.589   2.744   8.985 -0.3003 -0.5080 -0.0479
  784MOL0     C 8086   9.488   2.690   8.913 -0.4519  0.6994  0.2926
  784MOL0     C 8087   9.356   2.736   8.943 -0.6579  0.1525 -0.1089
  784MOL0     C 8088   9.247   2.686   8.874 -0.7083 -0.1535 -0.2568
  784MOL0     C 8089   9.266   2.587   8.771 -1.8500 -0.0790  0.1466
  784MOL0     O 8090   9.163   2.535   8.697 -0.4782 -0.0463 -0.2629
  784MOL0     C 8091   9.044   2.604   8.689  0.7139 -0.2575  0.8829
  784MOL0     C 8092   8.950   2.527   8.605  0.4791  1.0901 -0.1923
  784MOL0     C 8093   8.802   2.576   8.584 -0.1150  0.1802  0.0785
  784MOL0     C 8094   8.804   2.732   8.566 -0.8450 -0.5521 -0.5133
  784MOL0     C 8095   8.663   2.781   8.521 -1.4167 -0.2652  0.9963
  784MOL0     C 8096   8.673   2.930   8.475  0.4374 -0.2074  0.1794
  784MOL0     C 8097   8.535   2.971   8.443  0.6255  0.8752  0.6494
  784MOL0     C 8098   8.515   3.114   8.395  0.2883 -0.0976  0.7358
  784MOL0    Cl 8099   8.614   3.179   8.252  0.8184  0.1531 -0.0755
  784MOL0     C 8100   9.401   2.545   8.735  0.2173 -0.2168 -0.9371
  784MOL0     C 8101   9.508   2.595   8.807  0.1597  0.6028 -0.0249
  784MOL0     O 8102   9.662   2.550   9.086  0.2648  0.2012 -0.1361
  784MOL0     C 8103   9.739   2.886   9.187 -1.0938  0.2748 -0.0387
  784MOL0     C 8104   9.830   2.962   9.261 -0.0130  0.0929  0.6209
  784MOL0     N 8105  10.202   3.599   9.602  0.3340  0.5168  0.0933
  784MOL0     N 8106  10.216   3.686   9.696 -1.0162  0.1604  0.3250
  784MOL0     C 8107  10.643   3.962  10.774 -0.0761  0.2750  0.1273
  784MOL0     C 8108  10.628   4.027  10.895 -0.5521  0.2978 -0.7118
  784MOL0     C 8109  10.580   4.058  11.342 -0.7701  0.3675 -0.6221
  784MOL0     C 8110  10.672   4.165  11.346 -0.5775 -0.8667  0.2367
  784MOL0     C 8111  10.689   4.239  11.468 -0.5737 -0.3179  0.7434
  784MOL0     C 8112  10.628   4.209  11.578 -0.7256  0.2406 -0.0508
  784MOL0     O 8113  10.652   4.266  11.697 -0.1545 -0.3242 -1.2920
  784MOL0     C 8114  10.785   4.316  11.723 -0.5984 -0.2413 -0.6868
  784MOL0     C 8115  10.770   4.426  11.832  0.1031 -0.4682 -0.7049
  784MOL0     C 8116  10.837   4.559  11.820  0.1794  0.5042 -0.3136
  784MOL0     C 8117  10.797   4.634  11.701 -0.2418 -0.1349  0.6210
  784MOL0     C 8118  10.676   4.718  11.694  0.2508 -0.4078  0.1570
  784MOL0     C 8119  10.571   4.781  11.687  0.6217  0.2760 -0.0335
  784MOL0     C 8120  10.532   4.102  11.575 -0.1065  0.4832 -0.0423
  784MOL0     C 8121  10.506   4.033  11.456  0.2210 -0.0688  0.4519
  784MOL0     C 8122  10.402   3.931  11.454  1.1884 -0.7673  0.0101
  784MOL0     H 8123  10.406   3.811  11.030  0.6436 -1.7118 -1.6217
  784MOL0     H 8124  10.414   3.724  10.812 -2.3168  0.3251  0.4043
  784MOL0     H 8125  10.433   3.651  10.601  0.0154  0.2436  0.1065
  784MOL0     H 8126  10.520   3.683  10.461 -2.3370 -3.0427  0.9237
  784MOL0     H 8127  10.318   3.869  10.611 -1.5340 -1.7746 -0.3215
  784MOL0     H 8128  10.398   3.926  10.456  0.5979 -0.0711 -0.8918
  784MOL0     H 8129  10.234   3.663  10.461 -1.6978  1.0880  3.9719
  784MOL0     H 8130  10.160   3.812  10.442  0.0546  0.0970 -0.9588
  784MOL0     H 8131  10.346   3.865  10.249  2.7243 -0.2674  3.3989
  784MOL0     H 8132  10.400   3.699  10.288  0.1829 -0.1009 -0.9501
  784MOL0     H 8133  10.139   3.801  10.171 -0.0373 -0.3754 -1.4518
  784MOL0     H 8134  10.148   3.637  10.230 -1.8180  0.7809 -2.6645
  784MOL0     H 8135  10.317   3.598  10.043  1.0817 -0.4836 -3.1733
  784MOL0     H 8136  10.160   3.656   9.989 -0.0148 -0.3905  0.8937
  784MOL0     H 8137  10.380   3.864  10.026 -0.3473 -0.5820  0.7000
  784MOL0     H 8138  10.249   3.857   9.912  0.6452  2.9255  2.6559
  784MOL0     H 8139  10.465   3.797   9.794 -2.6808  1.4564 -0.1214
  784MOL0     H 8140  10.477   3.657   9.914 -0.7101 -1.1257  0.2448
  784MOL0     H 8141  10.429   3.453   9.789  1.8373  1.4625 -1.7780
  784MOL0     H 8142  10.332   3.290   9.609  0.4758  0.5969 -0.8474
  784MOL0     H 8143  10.341   3.379   9.454  0.9206 -1.4400 -0.1263
  784MOL0     H 8144  10.074   3.335   9.578  1.0440  0.1010  0.0967
  784MOL0     H 8145  10.114   3.353   9.400 -1.9103  0.2010  0.8437
  784MOL0     H 8146  10.227   3.118   9.422 -1.0672 -1.8356 -0.8934
  784MOL0     H 8147  10.145   3.098   9.575 -0.4472 -1.6791 -1.6568
  784MOL0     H 8148   9.933   3.149   9.467  1.2194  1.5757 -0.6072
  784MOL0     H 8149  10.015   3.155   9.316 -1.3565 -1.3746 -0.2093
  784MOL0     H 8150  10.078   2.744   9.310 -0.3034 -1.7196  1.2763
  784MOL0     H 8151  10.043   2.549   9.187 -0.0592  2.1863  0.3178
  784MOL0     H 8152   9.936   2.542   9.052  2.1535 -1.0888  0.1246
  784MOL0     H 8153   9.870   2.485   9.195  0.4309 -0.4565  0.5856
  784MOL0     H 8154   9.358   2.805   9.026  1.0411  0.3473 -0.2712
  784MOL0     H 8155   9.148   2.718   8.906 -0.4388 -1.9858  2.8416
  784MOL0     H 8156   9.002   2.618   8.789 -1.4694  0.0886 -0.0366
  784MOL0     H 8157   9.059   2.700   8.638  1.1749  1.0590  3.3301
  784MOL0     H 8158   8.998   2.523   8.507 -0.1973  1.1771 -0.5333
  784MOL0     H 8159   8.946   2.425   8.645 -0.5865  0.6130 -1.4309
  784MOL0     H 8160   8.749   2.557   8.678 -0.8130 -1.3058 -0.5971
  784MOL0     H 8161   8.749   2.524   8.504 -0.2089 -1.3917  1.1225
  784MOL0     H 8162   8.877   2.772   8.496 -2.7340  0.1966 -2.1726
  784MOL0     H 8163   8.836   2.793   8.651 -2.9669  2.6484 -1.7836
  784MOL0     H 8164   8.634   2.721   8.435  2.5255 -1.1198  0.0912
  784MOL0     H 8165   8.585   2.770   8.598 -0.5704 -0.0099  1.9178
  784MOL0     H 8166   8.746   2.949   8.396 -0.6831 -2.2187 -1.4217
  784MOL0     H 8167   8.708   2.996   8.555  2.3612  1.3297 -1.8042
  784MOL0     H 8168   8.468   2.955   8.528 -0.3076 -1.8407 -0.4926
  784MOL0     H 8169   8.509   2.900   8.364  3.5122 -0.7120  1.0021
  784MOL0     H 8170   8.544   3.178   8.480  0.0224  3.4330 -1.6040
  784MOL0     H 8171   8.414   3.146   8.369  0.7421  0.5889 -0.2791
  784MOL0     H 8172   9.412   2.478   8.650  0.7625  0.0928 -1.1201
  784MOL0     H 8173   9.602   2.545   8.787 -1.2581 -3.5438  2.4686
  784MOL0     H 8174   9.642   2.922   9.153 -1.8019 -0.2595  1.3104
  784MOL0     H 8175   9.800   3.066   9.270  1.9162  0.8176 -0.6260
  784MOL0     H 8176  10.726   3.989  10.709  1.6275 -2.9483  0.7435
  784MOL0     H 8177  10.679   4.122  10.910  0.4994  0.5559 -4.6182
  784MOL0     H 8178  10.737   4.186  11.262  0.9832 -0.4947  1.4910
  784MOL0     H 8179  10.750   4.328  11.461 -1.0635 -0.0378 -0.1784
  784MOL0     H 8180  10.846   4.239  11.771 -2.1620 -0.1496  1.6444
  784MOL0     H 8181  10.845   4.356  11.641 -0.4267 -0.3754 -0.6268
  784MOL0     H 8182  10.791   4.378  11.928 -1.3177  0.5492  0.1595
  784MOL0     H 8183  10.665   4.456  11.844  0.6344  0.5249  2.3483
  784MOL0     H 8184  10.820   4.613  11.914 -1.6323  2.0011 -1.4289
  784MOL0     H 8185  10.946   4.549  11.825  0.1828  1.0146  3.3170
  784MOL0     H 8186  10.791   4.580  11.606  3.1991  3.0179 -1.6901
  784MOL0     H 8187  10.877   4.706  11.680 -2.1357  1.9227  0.0458
  784MOL0     H 8188  10.472   4.816  11.668  1.0067  0.9377 -0.8786
  784MOL0     H 8189  10.475   4.081  11.665 -5.6233  1.5643 -2.8541
  784MOL0     H 8190  10.440   3.830  11.474 -0.5639 -2.1470 -2.8280
  784MOL0     H 8191  10.324   3.952  11.527  1.0633  4.3661 -1.2401
  784MOL0     H 8192  10.351   3.927  11.357  0.5139  0.5013  0.3013
  785MOL0     O 8193   7.706   2.295   0.289  0.1250  0.0069  0.9466
  785MOL0     C 8194   7.723   2.393   0.367  0.4314 -0.0924 -0.2556
  785MOL0     O 8195   7.649   2.507   0.376  0.1158  0.1550 -0.5240
  785MOL0     C 8196   7.553   2.536   0.278  0.9205  0.2718 -1.1404
  785MOL0     C 8197   7.599   2.594   0.162  0.7607 -0.7017 -0.5623
  785MOL0     C 8198   7.512   2.638   0.062 -0.1577 -0.0141 -0.4616
  785MOL0     C 8199   7.378   2.629   0.084 -0.6649 -0.8776 -0.4057
  785MOL0     O 8200   7.301   2.665  -0.023  0.3988 -0.3585 -0.1979
  785MOL0     C 8201   7.158   2.627  -0.049 -1.2122 -0.0771 -0.3743
  785MOL0     C 8202   7.080   2.761  -0.071  0.8909  0.9415 -0.1029
  785MOL0     C 8203   6.938   2.748  -0.032 -0.3178 -0.5135 -0.2753
  785MOL0     C 8204   6.883   2.886  -0.003 -0.3244  0.0406 -0.0202
  785MOL0     C 8205   6.740   2.874   0.034  0.5601  0.2932  0.3287
  785MOL0     C 8206   6.700   2.765   0.147 -0.1195  0.1370 -0.5605
  785MOL0     C 8207   6.784   2.771   0.273 -0.0684  0.3309 -0.7035
  785MOL0     C 8208   6.698   2.691   0.376 -0.1280 -0.4760 -0.2345
  785MOL0     N 8209   6.763   2.723   0.503 -1.0233  0.6303 -0.6489
  785MOL0     C 8210   6.747   2.848   0.555 -0.4876 -0.0259 -0.2829
  785MOL0     C 8211   6.787   2.841   0.685  0.3450 -0.5527  1.0521
  785MOL0     C 8212   6.788   2.947   0.786 -0.1245  0.3979 -0.3311
  785MOL0     C 8213   6.652   2.942   0.860  0.8333 -0.9699 -0.8164
  785MOL0     C 8214   6.529   2.961   0.781 -0.0601 -0.3425  0.2346
  785MOL0     C 8215   6.400   2.892   0.820  0.2373 -0.6528 -0.4173
  785MOL0     O 8216   6.300   2.938   0.727  0.1046  0.0042 -0.2576
  785MOL0     C 8217   6.291   2.850   0.623  0.1930 -0.1800 -0.1867
  785MOL0     C 8218   6.253   2.713   0.634  0.4136 -0.3014 -0.4287
  785MOL0     C 8219   6.243   2.622   0.527 -0.4274 -0.2426  0.2196
  785MOL0     C 8220   6.185   2.488   0.554  0.2827 -0.8304  0.9122
  785MOL0     C 8221   6.285   2.661   0.395  0.8036  0.0248 -0.1478
  785MOL0     C 8222   6.308   2.581   0.280  1.0260  0.5411 -0.5498
  785MOL0     O 8223   6.276   2.444   0.288  0.2261 -0.9491  0.0047
  785MOL0     C 8224   6.356   2.357   0.215 -0.0193 -0.6151 -0.5828
  785MOL0     C 8225   6.296   2.251   0.144 -0.0514  0.2949 -0.9528
  785MOL0     C 8226   6.363   2.149   0.070  0.2616 -0.0269 -0.2184
  785MOL0     C 8227   6.499   2.159   0.054 -0.0384 -0.5148  0.1442
  785MOL0     O 8228   6.585   2.083  -0.019  0.5547  0.8496  0.4723
  785MOL0     C 8229   6.520   1.985  -0.108 -0.1161  0.5206  0.5183
  785MOL0     C 8230   6.630   1.923  -0.182 -0.6325  0.7660  0.7118
  785MOL0     C 8231   6.712   1.816  -0.101  0.0803 -0.0228 -0.0565
  785MOL0     C 8232   6.854   1.791  -0.153 -0.0983 -0.3082  0.2556
  785MOL0     C 8233   6.932   1.675  -0.090 -0.5701  0.8499 -1.0706
  785MOL0     C 8234   7.075   1.648  -0.157 -0.6798  0.8125  0.5495
  785MOL0     C 8235   7.187   1.578  -0.071  0.4038  0.2318 -0.1660
  785MOL0     C 8236   7.146   1.429  -0.041 -0.5890  0.9544 -0.6529
  785MOL0    Cl 8237   7.286   1.305  -0.015  0.1246 -0.0925  0.4950
  785MOL0     C 8238   6.565   2.258   0.129  0.5032  0.6566 -0.6626
  785MOL0     C 8239   6.495   2.357   0.202  0.8175  0.3159 -0.5988
  785MOL0     O 8240   6.380   2.636   0.200 -0.1288  0.6373  0.5713
  785MOL0     C 8241   6.311   2.805   0.391 -0.2086  0.3447 -0.2371
  785MOL0     C 8242   6.310   2.895   0.496 -0.7329 -1.3869  0.3986
  785MOL0     N 8243   6.820   2.712   0.700 -0.2837 -0.4890 -0.1622
  785MOL0     N 8244   6.808   2.641   0.599 -0.0137 -0.1562 -0.6663
  785MOL0     C 8245   7.317   2.561   0.193  0.6523 -0.2343 -0.3485
  785MOL0     C 8246   7.410   2.519   0.295 -0.2411  0.9364  0.5179
  785MOL0     C 8247   7.811   2.365   0.482 -0.6652 -0.5032  0.2709
  785MOL0     C 8248   7.809   2.238   0.545 -0.9927 -0.3224 -0.2610
  785MOL0     C 8249   7.881   2.212   0.657 -0.0188  0.8146 -0.0252
  785MOL0     C 8250   7.954   2.309   0.721 -0.1175 -0.3581 -0.4120
  785MOL0     O 8251   8.010   2.270   0.847  0.6907  0.3428  0.2816
  785MOL0     C 8252   8.059   2.376   0.930 -0.1853  0.3016  0.2218
  785MOL0     C 8253   7.945   2.457   1.009 -0.4940 -0.0985 -0.2200
  785MOL0     C 8254   8.012   2.569   1.073 -0.5018 -0.1503 -0.3332
  785MOL0     C 8255   8.066   2.519   1.209 -0.3778 -0.0052  0.2026
  785MOL0     C 8256   8.148   2.628   1.280 -0.8128  0.5082 -0.3715
  785MOL0     C 8257   8.229   2.716   1.305 -0.3797 -0.2591  0.2498
  785MOL0     C 8258   7.956   2.435   0.671 -0.3081  0.1216  0.7313
  785MOL0     C 8259   7.889   2.466   0.551  0.8997  0.0033 -1.1014
  785MOL0     C 8260   7.906   2.605   0.495 -0.5822 -0.7851  0.5416
  785MOL0     H 8261   7.707   2.594   0.160  0.7949 -2.6349 -2.1157
  785MOL0     H 8262   7.544   2.665  -0.039  2.0757 -0.3821  0.0901
  785MOL0     H 8263   7.112   2.577   0.037 -1.6782  2.5872  1.0328
  785MOL0     H 8264   7.144   2.562  -0.135 -2.2359  3.6856 -3.3126
  785MOL0     H 8265   7.126   2.841  -0.012 -2.1351  2.2834  0.6217
  785MOL0     H 8266   7.089   2.788  -0.176  1.8588  0.4277 -0.1672
  785MOL0     H 8267   6.885   2.697  -0.112  1.6076 -1.9743 -0.6834
  785MOL0     H 8268   6.932   2.688   0.060  0.8582  1.2695  1.0576
  785MOL0     H 8269   6.937   2.936   0.078 -3.4431  1.0566  1.6242
  785MOL0     H 8270   6.887   2.958  -0.086  0.7527 -1.4963 -1.3550
  785MOL0     H 8271   6.685   2.825  -0.047 -0.0347 -0.0082  0.8959
  785MOL0     H 8272   6.694   2.968   0.067  0.2277  0.1891  0.1718
  785MOL0     H 8273   6.593   2.780   0.167 -0.8471 -1.8553 -2.6207
  785MOL0     H 8274   6.712   2.667   0.101 -0.3248  0.0441 -0.4184
  785MOL0     H 8275   6.812   2.871   0.308  0.7024 -0.5952  1.4992
  785MOL0     H 8276   6.879   2.718   0.259 -0.7641 -1.5111  1.1121
  785MOL0     H 8277   6.593   2.720   0.387 -0.0968 -0.0583 -0.9835
  785MOL0     H 8278   6.708   2.587   0.342  1.3470  0.6017 -3.4632
  785MOL0     H 8279   6.704   2.936   0.510 -1.1592  0.1434  0.6770
  785MOL0     H 8280   6.789   3.047   0.741 -2.6761  1.4424  1.6849
  785MOL0     H 8281   6.872   2.929   0.854 -0.0109 -3.8334 -1.3405
  785MOL0     H 8282   6.649   2.857   0.929  0.6947 -2.7265 -2.8955
  785MOL0     H 8283   6.669   3.030   0.923  1.3859 -0.4059 -1.7249
  785MOL0     H 8284   6.500   3.065   0.767 -0.9405 -0.2580  2.4237
  785MOL0     H 8285   6.546   2.927   0.678  0.7243 -0.7606  0.4902
  785MOL0     H 8286   6.413   2.783   0.812  0.7628 -0.4565 -2.7692
  785MOL0     H 8287   6.386   2.922   0.925 -0.2495 -2.4089  0.0550
  785MOL0     H 8288   6.227   2.674   0.732  2.5908  1.7245  1.0701
  785MOL0     H 8289   6.262   2.410   0.554 -0.4644 -1.5850  0.9418
  785MOL0     H 8290   6.125   2.457   0.469  3.6708  1.5811 -2.6825
  785MOL0     H 8291   6.126   2.487   0.646 -3.1041 -0.6467 -1.1171
  785MOL0     H 8292   6.190   2.234   0.157  0.3804 -2.0956 -0.1390
  785MOL0     H 8293   6.312   2.067   0.021  1.7872 -1.9100  1.2048
  785MOL0     H 8294   6.469   1.907  -0.051  1.6161 -2.4089 -1.6599
  785MOL0     H 8295   6.446   2.023  -0.180  0.8032 -2.6493 -2.3690
  785MOL0     H 8296   6.589   1.876  -0.271 -2.2631  3.2167  0.0465
  785MOL0     H 8297   6.692   1.998  -0.232  2.2676 -0.8196  1.7139
  785MOL0     H 8298   6.654   1.724  -0.085  1.4508 -0.8529  0.2480
  785MOL0     H 8299   6.722   1.859  -0.001  0.4171  2.8241 -1.2257
  785MOL0     H 8300   6.916   1.876  -0.123  0.5729 -1.2619  1.7461
  785MOL0     H 8301   6.877   1.798  -0.259  1.2870 -1.5651  0.4389
  785MOL0     H 8302   6.962   1.693   0.014  0.5597 -1.4069 -0.9429
  785MOL0     H 8303   6.874   1.583  -0.078  0.4087  0.2683 -0.6288
  785MOL0     H 8304   7.109   1.740  -0.205 -3.3895  3.6065  3.5126
  785MOL0     H 8305   7.066   1.577  -0.240 -1.0786  0.1298  1.1620
  785MOL0     H 8306   7.205   1.638   0.019  4.1969  0.1191 -0.6852
  785MOL0     H 8307   7.279   1.573  -0.130 -0.5116 -1.1727 -1.5495
  785MOL0     H 8308   7.072   1.393  -0.113 -2.5408 -0.0877  1.7241
  785MOL0     H 8309   7.094   1.433   0.055 -3.1473 -0.3009 -1.8865
  785MOL0     H 8310   6.673   2.265   0.128  0.7651 -1.8701  1.3302
  785MOL0     H 8311   6.561   2.423   0.258  1.9555 -1.3663  0.1409
  785MOL0     H 8312   6.321   2.844   0.290  1.4679  3.2642  0.9499
  785MOL0     H 8313   6.330   2.999   0.471 -1.4686 -1.7724 -2.1522
  785MOL0     H 8314   7.210   2.548   0.198  0.2050  2.2450 -1.7214
  785MOL0     H 8315   7.380   2.469   0.387 -1.0270 -1.1130 -0.7759
  785MOL0     H 8316   7.758   2.154   0.498  1.0731 -1.3058 -0.8956
  785MOL0     H 8317   7.873   2.110   0.693 -0.8772 -1.1645 -5.0367
  785MOL0     H 8318   8.118   2.328   1.009 -0.0362  1.3659  0.7808
  785MOL0     H 8319   8.126   2.443   0.874  0.4001 -0.6683 -0.2646
  785MOL0     H 8320   7.895   2.398   1.086 -3.6987  1.8699 -0.5757
  785MOL0     H 8321   7.881   2.507   0.935 -0.3523  3.7578  1.9790
  785MOL0     H 8322   8.090   2.617   1.014  0.7387 -1.2389  0.3487
  785MOL0     H 8323   7.933   2.641   1.098 -2.4263 -2.3384  0.3074
  785MOL0     H 8324   8.138   2.438   1.195 -2.6421 -1.8504 -1.4748
  785MOL0     H 8325   7.992   2.497   1.285  0.6011  4.3699  2.8087
  785MOL0     H 8326   8.297   2.789   1.344 -0.9373  0.4833 -0.1520
  785MOL0     H 8327   8.015   2.510   0.722  1.5866 -1.5602  1.1330
  785MOL0     H 8328   7.891   2.612   0.387  2.4006  5.1354  0.0868
  785MOL0     H 8329   7.837   2.680   0.535 -0.1680 -0.5265  0.7809
  785MOL0     H 8330   8.012   2.623   0.511 -1.0768 -0.4130  4.1448
  786MOL0     O 8331   8.309   3.168   2.734  0.2407  0.3395 -0.2151
  786MOL0     C 8332   8.321   3.242   2.832  0.3677 -0.3515  0.8068
  786MOL0     O 8333   8.280   3.210   2.950  0.3353  0.4025  0.4066
  786MOL0     C 8334   8.217   3.088   2.984 -0.9727  0.8834 -0.0092
  786MOL0     C 8335   8.253   2.961   2.939 -0.3809 -0.5806 -0.1158
  786MOL0     C 8336   8.198   2.842   3.001 -1.0109  0.6867 -0.2566
  786MOL0     C 8337   8.093   2.853   3.091  0.2796  0.3539 -0.4246
  786MOL0     O 8338   8.021   2.745   3.135 -1.2896 -0.4602 -0.1886
  786MOL0     C 8339   7.879   2.772   3.155  0.2886  0.1726 -0.1437
  786MOL0     C 8340   7.794   2.643   3.174 -0.0488 -0.0874  0.2601
  786MOL0     C 8341   7.649   2.681   3.207 -0.6382  0.7189 -0.0575
  786MOL0     C 8342   7.559   2.551   3.192  0.1037  0.3449  0.1574
  786MOL0     C 8343   7.423   2.564   3.265 -0.0150 -0.2422 -0.4694
  786MOL0     C 8344   7.352   2.420   3.260  0.8394 -0.2465  0.2707
  786MOL0     C 8345   7.223   2.421   3.356 -0.4266 -0.7533 -0.5145
  786MOL0     C 8346   7.143   2.283   3.373  0.4899 -0.5341  0.1957
  786MOL0     N 8347   7.093   2.220   3.250  0.4559  0.7594  0.0449
  786MOL0     C 8348   7.139   2.100   3.205  0.1380  0.0906  0.4450
  786MOL0     C 8349   7.082   2.100   3.082 -0.5212  0.3333  0.8467
  786MOL0     C 8350   7.063   1.989   2.999 -0.8542  1.2434 -0.1439
  786MOL0     C 8351   7.166   1.869   3.045 -0.7183  1.4232  0.9591
  786MOL0     C 8352   7.312   1.893   3.009  0.1890 -0.5561 -0.4818
  786MOL0     C 8353   7.400   1.764   3.027  0.8418 -1.1474 -0.0428
  786MOL0     O 8354   7.353   1.662   2.947  0.8525  0.5077  0.0595
  786MOL0     C 8355   7.372   1.668   2.810  0.0368  0.0373  0.0929
  786MOL0     C 8356   7.277   1.602   2.733  0.6086  0.4687 -0.2699
  786MOL0     C 8357   7.269   1.606   2.589  0.4701  0.5152 -0.1931
  786MOL0     C 8358   7.147   1.530   2.519 -0.0712 -0.2127  0.1042
  786MOL0     C 8359   7.365   1.689   2.522 -0.0767  0.3632 -0.2447
  786MOL0     C 8360   7.377   1.691   2.377 -0.0589  1.1548 -0.2853
  786MOL0     O 8361   7.262   1.686   2.302  0.5772 -0.1086 -0.3230
  786MOL0     C 8362   7.266   1.730   2.171 -0.1260  0.8211 -0.7664
  786MOL0     C 8363   7.263   1.628   2.078  0.4834  0.9291 -0.9097
  786MOL0     C 8364   7.285   1.663   1.944 -0.0666 -0.3899 -0.1719
  786MOL0     C 8365   7.306   1.801   1.909  0.1786  0.4400 -1.3228
  786MOL0     O 8366   7.329   1.850   1.786 -0.8605 -0.3600 -0.8912
  786MOL0     C 8367   7.339   1.755   1.685 -0.0801  0.0608 -0.0460
  786MOL0     C 8368   7.385   1.828   1.561  0.4180 -0.0285  0.4350
  786MOL0     C 8369   7.276   1.912   1.494 -0.5046 -0.1799 -0.1902
  786MOL0     C 8370   7.135   1.845   1.469  1.3111 -0.5168 -0.6398
  786MOL0     C 8371   7.034   1.958   1.436  0.5663 -0.0735  0.4219
  786MOL0     C 8372   6.888   1.910   1.422  1.0088  0.3148 -0.5684
  786MOL0     C 8373   6.778   2.004   1.356  0.3784 -0.3091  0.0637
  786MOL0     C 8374   6.772   2.143   1.419 -0.1880 -0.3688  0.4769
  786MOL0    Cl 8375   6.725   2.152   1.597 -0.3316  0.1742 -0.2059
  786MOL0     C 8376   7.305   1.894   2.010  0.3717  0.4286  0.2651
  786MOL0     C 8377   7.295   1.866   2.139 -1.1053  0.7259 -0.8485
  786MOL0     O 8378   7.494   1.702   2.323 -0.3980  0.0862  0.0192
  786MOL0     C 8379   7.472   1.740   2.596 -0.4473  0.3290 -0.3270
  786MOL0     C 8380   7.470   1.744   2.739  0.0523 -0.1194  0.7835
  786MOL0     N 8381   7.025   2.221   3.062  0.8344 -0.4081  0.3735
  786MOL0     N 8382   7.021   2.289   3.171 -0.1636 -0.7460  0.4706
  786MOL0     C 8383   8.063   2.984   3.136 -0.2889 -0.0456 -1.4362
  786MOL0     C 8384   8.125   3.094   3.087 -0.3242 -0.0827 -0.2871
  786MOL0     C 8385   8.400   3.373   2.829  0.0487  0.4707  0.4017
  786MOL0     C 8386   8.400   3.464   2.934 -0.4806 -0.2940 -0.4041
  786MOL0     C 8387   8.462   3.598   2.925 -0.1009  1.1984 -0.5621
  786MOL0     C 8388   8.545   3.626   2.815  0.7129 -0.0218  0.1243
  786MOL0     O 8389   8.599   3.749   2.814 -0.3463  0.6312  0.2102
  786MOL0     C 8390   8.675   3.795   2.701 -0.9330 -0.3296 -0.2047
  786MOL0     C 8391   8.783   3.901   2.737 -0.0052 -0.7535  0.2675
  786MOL0     C 8392   8.914   3.840   2.816  0.2421 -0.2100 -0.7851
  786MOL0     C 8393   9.041   3.921   2.778  1.0760 -0.3302  0.4743
  786MOL0     C 8394   9.156   3.838   2.821 -0.1991 -0.6159 -0.7045
  786MOL0     C 8395   9.261   3.784   2.842 -0.3791 -0.1603  0.4069
  786MOL0     C 8396   8.562   3.529   2.714  0.3019 -0.0219 -0.1784
  786MOL0     C 8397   8.485   3.406   2.717  0.1059 -0.8549 -0.0690
  786MOL0     C 8398   8.512   3.322   2.593  0.0129 -0.6846 -0.0589
  786MOL0     H 8399   8.339   2.955   2.873  0.7030  1.2026  1.0405
  786MOL0     H 8400   8.225   2.745   2.960  0.0138  0.6926  0.3529
  786MOL0     H 8401   7.835   2.821   3.068 -1.7182  0.7613  1.1163
  786MOL0     H 8402   7.863   2.837   3.242 -1.5355  1.1228 -1.1263
  786MOL0     H 8403   7.783   2.599   3.075  0.3615  3.3304 -1.4837
  786MOL0     H 8404   7.839   2.578   3.249  2.7702  2.3964  0.8928
  786MOL0     H 8405   7.638   2.720   3.309  0.6692 -1.1073  0.8466
  786MOL0     H 8406   7.622   2.755   3.131  3.7373  0.4199 -2.1890
  786MOL0     H 8407   7.550   2.527   3.086  4.2728  1.2484 -0.5455
  786MOL0     H 8408   7.598   2.462   3.241  0.5259  0.5776  0.2463
  786MOL0     H 8409   7.366   2.649   3.228 -0.7765  0.7712  2.6725
  786MOL0     H 8410   7.445   2.593   3.368  2.4341 -1.1175 -0.6939
  786MOL0     H 8411   7.308   2.415   3.160 -3.0605  1.5255  1.6890
  786MOL0     H 8412   7.420   2.341   3.291  2.7923  1.2895  0.0914
  786MOL0     H 8413   7.153   2.495   3.316  1.3164  2.3802  1.7082
  786MOL0     H 8414   7.244   2.455   3.458 -1.3953  1.2553 -0.9217
  786MOL0     H 8415   7.199   2.220   3.443 -0.4037 -0.2742  1.1651
  786MOL0     H 8416   7.047   2.311   3.418  2.3730  1.7955  3.1702
  786MOL0     H 8417   7.190   2.019   3.256 -1.1564 -0.9290  0.1890
  786MOL0     H 8418   7.083   2.015   2.894 -1.0046  1.5203 -0.1053
  786MOL0     H 8419   6.960   1.953   3.005 -0.1467 -1.0162 -0.5137
  786MOL0     H 8420   7.160   1.859   3.154 -0.5505  0.4866  0.8961
  786MOL0     H 8421   7.132   1.775   3.001 -2.2222  1.9770  0.8741
  786MOL0     H 8422   7.315   1.918   2.903  0.1370 -0.6327 -0.5012
  786MOL0     H 8423   7.354   1.981   3.059 -1.7823 -0.0982  0.4758
  786MOL0     H 8424   7.506   1.783   3.008  1.2055 -1.7025  1.2716
  786MOL0     H 8425   7.389   1.731   3.131 -3.3975 -3.6407 -1.0972
  786MOL0     H 8426   7.215   1.536   2.792  0.4081  2.6503  2.1465
  786MOL0     H 8427   7.078   1.600   2.472 -0.2283 -0.2132  0.3344
  786MOL0     H 8428   7.101   1.488   2.609  1.7427  1.9331  2.1715
  786MOL0     H 8429   7.185   1.449   2.456  0.5900 -2.3276  3.0026
  786MOL0     H 8430   7.230   1.529   2.109 -0.0833  1.1708 -0.7262
  786MOL0     H 8431   7.266   1.589   1.868 -0.2203 -0.8521  0.3070
  786MOL0     H 8432   7.409   1.677   1.718 -1.5597 -1.9431 -1.3921
  786MOL0     H 8433   7.239   1.715   1.665 -1.3296  2.5453  0.9301
  786MOL0     H 8434   7.469   1.896   1.577 -0.2857  0.9220  0.1815
  786MOL0     H 8435   7.420   1.757   1.485 -1.1699 -1.7937  1.2764
  786MOL0     H 8436   7.322   1.935   1.398 -0.5787 -1.1836 -0.4737
  786MOL0     H 8437   7.270   2.010   1.544 -0.7205  0.7818 -2.0260
  786MOL0     H 8438   7.086   1.798   1.555  2.0033  1.1540  0.7184
  786MOL0     H 8439   7.157   1.778   1.385  3.2317 -1.2264  0.3801
  786MOL0     H 8440   7.042   2.031   1.517  2.6063  1.1062 -0.7587
  786MOL0     H 8441   7.068   2.011   1.346 -1.9475  1.7505  0.4223
  786MOL0     H 8442   6.851   1.880   1.521 -0.4073  2.3321 -0.4234
  786MOL0     H 8443   6.904   1.824   1.356  2.3964 -0.2515  0.4625
  786MOL0     H 8444   6.681   1.963   1.384  0.6296 -2.4287 -1.8900
  786MOL0     H 8445   6.790   2.019   1.249  0.1217  3.6781  0.4461
  786MOL0     H 8446   6.702   2.195   1.353  0.0824  1.0384  1.2572
  786MOL0     H 8447   6.873   2.181   1.402  0.0803 -1.5856 -0.8991
  786MOL0     H 8448   7.330   1.998   1.993  0.6010  0.7809  2.5236
  786MOL0     H 8449   7.302   1.947   2.212  1.4767 -1.0262  1.0255
  786MOL0     H 8450   7.559   1.786   2.551 -0.6337 -2.0348 -3.3949
  786MOL0     H 8451   7.559   1.785   2.785  0.5724 -0.6344  0.2565
  786MOL0     H 8452   8.006   3.015   3.223  1.6857  0.0344 -0.1054
  786MOL0     H 8453   8.102   3.180   3.149 -2.7618 -0.9230  0.1090
  786MOL0     H 8454   8.338   3.434   3.018 -2.7995 -0.6990 -2.1871
  786MOL0     H 8455   8.445   3.683   2.990  3.2259  3.9902 -2.9820
  786MOL0     H 8456   8.724   3.716   2.642 -0.2941 -1.5415  1.8324
  786MOL0     H 8457   8.610   3.853   2.635 -1.2986 -0.5446 -0.0332
  786MOL0     H 8458   8.731   3.976   2.797 -0.8715 -0.6644 -0.5808
  786MOL0     H 8459   8.814   3.954   2.647 -0.6197  0.9521  1.0107
  786MOL0     H 8460   8.917   3.842   2.925 -0.4868  2.3957 -0.7477
  786MOL0     H 8461   8.924   3.733   2.793 -1.4050 -0.6225  0.2571
  786MOL0     H 8462   9.043   4.014   2.836  0.6615  1.0832 -1.6450
  786MOL0     H 8463   9.042   3.941   2.670  0.4277 -2.8209 -0.0362
  786MOL0     H 8464   9.348   3.734   2.878 -1.2850 -3.8001 -1.8576
  786MOL0     H 8465   8.639   3.534   2.637  0.2399 -3.7073 -0.6554
  786MOL0     H 8466   8.617   3.316   2.563  0.6212  1.7453  1.3070
  786MOL0     H 8467   8.468   3.223   2.609 -1.1889  0.1019  1.9639
  786MOL0     H 8468   8.464   3.367   2.506  4.3474  0.6402 -2.0074
  787MOL0     O 8469  11.332   2.134   8.806 -0.6152  0.3987 -0.1135
  787MOL0     C 8470  11.224   2.095   8.852  0.8531  0.0885  0.4449
  787MOL0     O 8471  11.119   2.050   8.781  0.0900 -0.5068  0.0996
  787MOL0     C 8472  11.154   2.025   8.647 -0.1749  0.6359  0.8576
  787MOL0     C 8473  11.148   1.891   8.607 -0.7873  0.4750  0.1273
  787MOL0     C 8474  11.193   1.850   8.489  0.2951 -0.2410  0.7220
  787MOL0     C 8475  11.253   1.940   8.398  0.4947 -0.4556  0.2327
  787MOL0     O 8476  11.278   1.913   8.264 -0.5695  0.1151 -0.0061
  787MOL0     C 8477  11.255   1.777   8.223 -0.2885 -0.0850 -0.0850
  787MOL0     C 8478  11.290   1.757   8.070 -0.2713  0.8242  0.2640
  787MOL0     C 8479  11.306   1.610   8.039  0.4503  1.2766  0.0764
  787MOL0     C 8480  11.366   1.599   7.902 -0.1428  0.0494  0.7957
  787MOL0     C 8481  11.411   1.454   7.872  0.7555 -0.5839 -0.3514
  787MOL0     C 8482  11.542   1.447   7.793  0.5125  0.1144 -1.0173
  787MOL0     C 8483  11.526   1.496   7.653 -0.5561  0.4423  0.3645
  787MOL0     C 8484  11.438   1.413   7.554 -0.1522 -0.6572 -1.3715
  787MOL0     N 8485  11.487   1.269   7.549  0.3043 -0.5740 -0.0504
  787MOL0     C 8486  11.608   1.230   7.508  0.3989 -0.2576 -0.2317
  787MOL0     C 8487  11.630   1.101   7.541  0.1916 -0.1989  0.8135
  787MOL0     C 8488  11.763   1.030   7.528  0.3708 -0.1444 -0.7261
  787MOL0     C 8489  11.816   0.961   7.654 -0.2922  0.5703  0.9347
  787MOL0     C 8490  11.935   0.862   7.631  0.1992  0.1957 -0.4079
  787MOL0     C 8491  11.915   0.734   7.718 -0.2738  0.6146  0.4210
  787MOL0     O 8492  11.893   0.777   7.852 -0.7735 -0.0227  0.2673
  787MOL0     C 8493  11.994   0.777   7.942 -0.0280  0.1418 -0.1355
  787MOL0     C 8494  11.952   0.767   8.076  0.7331 -0.6586  0.3146
  787MOL0     C 8495  12.042   0.768   8.182 -0.3997  0.2251 -0.7454
  787MOL0     C 8496  12.004   0.779   8.327  0.8625  0.1936 -0.6028
  787MOL0     C 8497  12.179   0.761   8.154  0.2091 -0.4758  0.5795
  787MOL0     C 8498  12.283   0.769   8.257  0.2865  0.6207 -0.6051
  787MOL0     O 8499  12.320   0.650   8.311 -0.0203  0.8367 -0.3900
  787MOL0     C 8500  12.426   0.666   8.405  0.2808  0.2532  0.1395
  787MOL0     C 8501  12.557   0.714   8.383 -0.1957 -0.6155  0.2113
  787MOL0     C 8502  12.649   0.718   8.490 -0.4019  0.6278 -0.1337
  787MOL0     C 8503  12.607   0.670   8.616  0.3297 -0.1721 -0.4235
  787MOL0     O 8504  12.686   0.669   8.727 -0.8902  0.8973  0.8347
  787MOL0     C 8505  12.803   0.755   8.716 -0.0650 -0.0178  0.7763
  787MOL0     C 8506  12.930   0.685   8.678 -1.1334  0.2155  0.4103
  787MOL0     C 8507  13.030   0.675   8.802 -0.4216  0.4107 -0.5245
  787MOL0     C 8508  12.985   0.542   8.873 -0.2467 -0.3693  0.2583
  787MOL0     C 8509  13.104   0.498   8.960 -0.9561 -0.7922 -0.2134
  787MOL0     C 8510  13.084   0.354   9.016 -0.1015 -0.0727 -1.4880
  787MOL0     C 8511  12.955   0.352   9.108  0.1871  0.5127 -0.1262
  787MOL0     C 8512  12.955   0.206   9.162 -0.3413  0.5253  0.6373
  787MOL0    Cl 8513  12.796   0.143   9.229  0.2572 -0.2448 -0.4331
  787MOL0     C 8514  12.478   0.627   8.634 -0.5083  0.3542  0.9517
  787MOL0     C 8515  12.395   0.616   8.533 -0.4207 -0.0926  1.2217
  787MOL0     O 8516  12.323   0.886   8.291 -0.6042  0.4102  0.3664
  787MOL0     C 8517  12.225   0.763   8.020 -0.7361 -0.5557 -0.5623
  787MOL0     C 8518  12.134   0.779   7.916  0.1107  0.1708 -0.3741
  787MOL0     N 8519  11.517   1.066   7.602 -0.9124 -0.5132 -0.7683
  787MOL0     N 8520  11.431   1.160   7.611  0.0643 -0.5872 -0.2399
  787MOL0     C 8521  11.258   2.073   8.434 -0.0215 -0.1054  0.5929
  787MOL0     C 8522  11.197   2.116   8.551 -0.3649  0.3831 -0.1011
  787MOL0     C 8523  11.203   2.153   8.990 -1.2659  0.5804 -0.4991
  787MOL0     C 8524  11.316   2.174   9.077  0.5519 -0.2149 -0.2106
  787MOL0     C 8525  11.289   2.227   9.203 -0.6898  0.1512  0.1757
  787MOL0     C 8526  11.156   2.244   9.255  0.1777 -0.9692  0.2417
  787MOL0     O 8527  11.149   2.294   9.380  0.8468  0.0831  0.2526
  787MOL0     C 8528  11.098   2.427   9.390 -0.1517 -0.5740 -0.0035
  787MOL0     C 8529  10.963   2.432   9.461  0.1935 -0.1271 -0.4476
  787MOL0     C 8530  10.849   2.348   9.407 -0.4829  0.6009  0.7356
  787MOL0     C 8531  10.716   2.410   9.447  0.6086 -0.7241 -0.2167
  787MOL0     C 8532  10.699   2.417   9.589  0.0823 -0.1413  0.0946
  787MOL0     C 8533  10.670   2.460   9.703  0.0076  0.3959 -0.3226
  787MOL0     C 8534  11.047   2.210   9.179  0.2772 -0.0606 -0.6266
  787MOL0     C 8535  11.072   2.163   9.050 -0.4362  0.0137 -0.2708
  787MOL0     C 8536  10.943   2.131   8.983  0.0846 -0.0077 -0.3911
  787MOL0     H 8537  11.106   1.809   8.664 -1.6949 -0.4970 -1.8251
  787MOL0     H 8538  11.178   1.743   8.487  0.1445 -0.2627  2.1283
  787MOL0     H 8539  11.150   1.751   8.242 -0.8442  2.1706  0.1781
  787MOL0     H 8540  11.328   1.730   8.290  0.0712  1.7669  0.8834
  787MOL0     H 8541  11.215   1.802   8.004 -0.0003 -2.6533 -2.6986
  787MOL0     H 8542  11.387   1.802   8.043 -0.6533  0.4800 -1.8955
  787MOL0     H 8543  11.362   1.560   8.118  0.5415  2.2244  0.6337
  787MOL0     H 8544  11.207   1.564   8.036  0.2148  1.7506  0.3879
  787MOL0     H 8545  11.288   1.617   7.828 -0.2588  0.0170  0.9086
  787MOL0     H 8546  11.454   1.662   7.887 -0.7118  0.4834 -1.0256
  787MOL0     H 8547  11.328   1.404   7.822  2.1168 -2.6453 -0.6693
  787MOL0     H 8548  11.437   1.394   7.960  0.0301 -1.0023 -0.4214
  787MOL0     H 8549  11.605   1.522   7.841 -0.1695  1.7768 -2.5815
  787MOL0     H 8550  11.605   1.358   7.798  0.3971 -0.3607 -4.9632
  787MOL0     H 8551  11.626   1.494   7.608 -0.3786 -1.8116  0.7279
  787MOL0     H 8552  11.506   1.603   7.655  0.2415  0.8096 -3.3900
  787MOL0     H 8553  11.333   1.427   7.582  0.4513 -1.8153  1.9578
  787MOL0     H 8554  11.444   1.460   7.456  0.3298  0.8397 -0.6595
  787MOL0     H 8555  11.677   1.292   7.452  0.5231 -1.1744 -1.1213
  787MOL0     H 8556  11.841   1.100   7.495  0.3260 -0.7715 -2.2648
  787MOL0     H 8557  11.763   0.963   7.441  1.1693 -0.6547 -0.3504
  787MOL0     H 8558  11.848   1.022   7.740 -0.0659 -1.0704  2.0702
  787MOL0     H 8559  11.733   0.894   7.674  1.6974 -2.6644 -0.8152
  787MOL0     H 8560  11.938   0.840   7.523 -0.9291 -1.0068 -0.2198
  787MOL0     H 8561  12.033   0.903   7.655  0.3368 -0.8502  0.9372
  787MOL0     H 8562  11.824   0.687   7.679 -1.2316  1.3895  1.6396
  787MOL0     H 8563  11.996   0.661   7.711  1.0389  2.0788 -0.3761
  787MOL0     H 8564  11.845   0.774   8.092  0.5983  0.2812 -0.8724
  787MOL0     H 8565  11.898   0.801   8.339  1.1514  2.0615 -1.1993
  787MOL0     H 8566  12.058   0.865   8.368 -2.4838  1.8611  0.6508
  787MOL0     H 8567  12.034   0.691   8.386  0.3786  0.8408  0.6490
  787MOL0     H 8568  12.594   0.748   8.288 -0.4635  0.2931  0.4245
  787MOL0     H 8569  12.753   0.745   8.478  0.7750 -2.7389  1.3896
  787MOL0     H 8570  12.792   0.849   8.662  0.2453 -0.3877  0.0650
  787MOL0     H 8571  12.815   0.803   8.814  2.0874 -0.2405  0.6657
  787MOL0     H 8572  12.911   0.598   8.615  0.3485 -0.4506  0.8384
  787MOL0     H 8573  12.982   0.759   8.616  0.8044  0.9955  2.7851
  787MOL0     H 8574  13.017   0.769   8.856 -1.7415  1.2352 -2.1757
  787MOL0     H 8575  13.136   0.664   8.776 -0.6249  0.3039 -1.3620
  787MOL0     H 8576  12.972   0.461   8.801 -1.7433 -1.5331  1.7934
  787MOL0     H 8577  12.889   0.547   8.925 -0.0302  1.8734  0.5566
  787MOL0     H 8578  13.195   0.500   8.899 -1.0893  0.6736 -0.3952
  787MOL0     H 8579  13.115   0.566   9.045  1.6995  0.4227 -1.4305
  787MOL0     H 8580  13.167   0.313   9.074 -2.6514 -4.3068 -0.4147
  787MOL0     H 8581  13.066   0.294   8.927 -2.2132 -2.2530  0.2567
  787MOL0     H 8582  12.862   0.373   9.055 -0.4578 -3.5255 -0.8544
  787MOL0     H 8583  12.957   0.430   9.185 -2.1425 -3.1731  4.1405
  787MOL0     H 8584  13.045   0.190   9.222  0.1477  2.7331  0.5519
  787MOL0     H 8585  12.977   0.146   9.073 -3.0866  1.6346 -0.9190
  787MOL0     H 8586  12.445   0.578   8.725  3.2018 -2.4287  1.0631
  787MOL0     H 8587  12.305   0.562   8.562  0.8978 -1.3824  3.1217
  787MOL0     H 8588  12.333   0.769   8.014 -0.7507  0.5867  0.0702
  787MOL0     H 8589  12.163   0.779   7.812  2.6369  0.8499  0.2568
  787MOL0     H 8590  11.271   2.149   8.358 -0.7436 -1.8368 -1.3657
  787MOL0     H 8591  11.189   2.221   8.577  1.5943  0.1266  1.8340
  787MOL0     H 8592  11.419   2.153   9.051  0.0131 -0.1000 -2.6265
  787MOL0     H 8593  11.380   2.251   9.257  0.2325  1.8253 -1.9867
  787MOL0     H 8594  11.164   2.502   9.435 -3.7380  2.1020  1.2343
  787MOL0     H 8595  11.081   2.472   9.291 -2.0459 -4.3696 -1.5952
  787MOL0     H 8596  10.930   2.535   9.470 -1.6144 -0.7290  0.3395
  787MOL0     H 8597  10.996   2.396   9.560 -1.4639  0.6279  0.4117
  787MOL0     H 8598  10.846   2.373   9.300 -0.1008 -2.1072  0.0237
  787MOL0     H 8599  10.857   2.241   9.428  1.2760  0.5687  0.1392
  787MOL0     H 8600  10.637   2.348   9.403  0.0624 -1.3687  1.5851
  787MOL0     H 8601  10.706   2.508   9.399  0.2841  0.4343  2.0937
  787MOL0     H 8602  10.641   2.494   9.800  0.8627  0.5500 -0.1104
  787MOL0     H 8603  10.952   2.210   9.232 -0.3707  3.3153 -1.5272
  787MOL0     H 8604  10.865   2.137   9.060 -0.2229 -0.8512 -0.6311
  787MOL0     H 8605  10.932   2.196   8.896  1.7570  2.3834  1.0885
  787MOL0     H 8606  10.938   2.023   8.967  1.8311 -0.3049  0.8382
  788MOL0     O 8607   5.674   5.692   9.897 -0.0819  0.2186 -1.2585
  788MOL0     C 8608   5.689   5.671   9.783 -0.2809 -0.3143  0.2683
  788MOL0     O 8609   5.763   5.741   9.692  0.3979 -0.3477 -0.2587
  788MOL0     C 8610   5.758   5.876   9.715  0.0770 -0.1057  0.1714
  788MOL0     C 8611   5.632   5.934   9.737  0.2843  0.4511 -0.1350
  788MOL0     C 8612   5.630   6.075   9.736  0.7252  1.1570 -0.5385
  788MOL0     C 8613   5.744   6.153   9.726  0.9209 -0.0412  1.1107
  788MOL0     O 8614   5.729   6.293   9.724 -0.0211  0.0752  0.0484
  788MOL0     C 8615   5.762   6.368   9.840  0.4399 -0.2718  0.3978
  788MOL0     C 8616   5.680   6.494   9.855  0.1366  0.6826 -0.5461
  788MOL0     C 8617   5.737   6.596   9.957 -0.0314 -0.1096 -0.0863
  788MOL0     C 8618   5.659   6.727   9.955 -0.1243 -0.0747  0.5498
  788MOL0     C 8619   5.681   6.803  10.082 -0.3141 -0.0087  0.1215
  788MOL0     C 8620   5.642   6.952  10.075  0.1018 -0.1493  0.2103
  788MOL0     C 8621   5.579   7.024  10.199 -0.4003  0.2611  0.0753
  788MOL0     C 8622   5.612   7.170  10.206 -0.2324  0.1305 -0.3693
  788MOL0     N 8623   5.753   7.191  10.251  1.2648  0.4552 -0.7360
  788MOL0     C 8624   5.856   7.207  10.162 -0.2545  0.1858 -0.2180
  788MOL0     C 8625   5.978   7.189  10.230  0.4648 -0.1877 -0.9546
  788MOL0     C 8626   6.114   7.209  10.180 -0.3466 -0.3685  0.5802
  788MOL0     C 8627   6.198   7.323  10.241  0.1474  0.0254  0.3769
  788MOL0     C 8628   6.231   7.306  10.388 -0.2688 -0.1658  0.5892
  788MOL0     C 8629   6.304   7.183  10.440 -0.6203 -0.6207  1.2216
  788MOL0     O 8630   6.407   7.145  10.337 -0.0277 -0.0791 -0.5371
  788MOL0     C 8631   6.532   7.212  10.348 -0.7253  0.2069 -0.2783
  788MOL0     C 8632   6.639   7.168  10.268 -0.3195  0.7456 -0.9769
  788MOL0     C 8633   6.768   7.233  10.256  0.0884 -0.5944  0.8526
  788MOL0     C 8634   6.866   7.162  10.159 -0.1181 -0.1752  0.6024
  788MOL0     C 8635   6.790   7.353  10.331  0.2561 -0.4982  0.1000
  788MOL0     C 8636   6.902   7.441  10.302  0.1807  0.4349  1.1324
  788MOL0     O 8637   6.902   7.571  10.351 -0.8221 -0.4110 -0.0805
  788MOL0     C 8638   7.020   7.652  10.351  0.9939  0.2058 -0.2802
  788MOL0     C 8639   7.147   7.604  10.350 -1.9361 -0.9594 -0.2807
  788MOL0     C 8640   7.259   7.699  10.346 -0.0632  0.7338  0.0560
  788MOL0     C 8641   7.229   7.844  10.320 -0.4115  1.0273 -0.9911
  788MOL0     O 8642   7.336   7.927  10.307 -0.0531  0.1173 -0.9163
  788MOL0     C 8643   7.322   8.069  10.324  0.1416 -0.4242  0.0244
  788MOL0     C 8644   7.451   8.137  10.320 -1.1515  0.2419  0.2167
  788MOL0     C 8645   7.440   8.286  10.335 -0.3043 -0.4867  0.5317
  788MOL0     C 8646   7.377   8.354  10.208  0.6365  0.2894 -1.4949
  788MOL0     C 8647   7.451   8.325  10.076 -0.0398  0.1413  0.1991
  788MOL0     C 8648   7.369   8.384   9.960  0.1632  0.5147 -0.2358
  788MOL0     C 8649   7.391   8.536   9.971  0.4844  0.1731  0.2390
  788MOL0     C 8650   7.347   8.592   9.833  0.6985  0.5484 -0.3071
  788MOL0    Cl 8651   7.174   8.555   9.778  0.4001 -0.2225  0.1726
  788MOL0     C 8652   7.096   7.884  10.343 -1.0370  0.1145 -0.8377
  788MOL0     C 8653   6.993   7.794  10.344  0.4204  0.5719 -0.0668
  788MOL0     O 8654   6.985   7.396  10.227  0.1557  0.2468 -0.5101
  788MOL0     C 8655   6.683   7.392  10.409  0.0909  0.6576 -0.2303
  788MOL0     C 8656   6.563   7.320  10.424 -0.2766  0.8886 -0.6742
  788MOL0     N 8657   5.934   7.156  10.362 -0.3858 -0.1264  0.7893
  788MOL0     N 8658   5.802   7.167  10.378 -0.7235 -0.2789 -0.3157
  788MOL0     C 8659   5.876   6.092   9.706  0.0934  0.4356 -0.5125
  788MOL0     C 8660   5.880   5.953   9.716  0.0126 -0.8087  0.0904
  788MOL0     C 8661   5.652   5.529   9.742  0.2633  0.0390  0.3213
  788MOL0     C 8662   5.745   5.449   9.682  0.1308  0.4740  0.4891
  788MOL0     C 8663   5.724   5.318   9.655 -0.3889 -0.3348 -0.2001
  788MOL0     C 8664   5.612   5.253   9.706  0.2731  0.0163 -0.4187
  788MOL0     O 8665   5.573   5.120   9.686  0.3491 -0.5697 -0.1277
  788MOL0     C 8666   5.675   5.017   9.701 -0.2761  0.6123 -0.2312
  788MOL0     C 8667   5.716   4.983   9.840  0.0849  0.2675  1.1439
  788MOL0     C 8668   5.862   4.931   9.844  0.3450  0.4438 -0.0615
  788MOL0     C 8669   5.894   4.894   9.989  0.9880 -1.1675 -0.3524
  788MOL0     C 8670   5.811   4.792  10.056  0.4371  0.3101  0.5064
  788MOL0     C 8671   5.739   4.730  10.127 -0.0101  0.4947  0.8612
  788MOL0     C 8672   5.514   5.335   9.758 -0.1922 -0.1738 -0.1859
  788MOL0     C 8673   5.530   5.474   9.780  0.6343 -1.0189 -0.6542
  788MOL0     C 8674   5.423   5.549   9.862 -0.4861 -0.2986  0.5182
  788MOL0     H 8675   5.540   5.879   9.755  0.7673 -0.0520  0.9181
  788MOL0     H 8676   5.531   6.121   9.732 -0.9797 -2.0246 -6.1417
  788MOL0     H 8677   5.867   6.400   9.836  0.4286 -0.3200 -0.5192
  788MOL0     H 8678   5.754   6.299   9.925  6.3214 -4.5010 -1.8211
  788MOL0     H 8679   5.670   6.540   9.756  0.4265  0.7885 -0.5269
  788MOL0     H 8680   5.578   6.468   9.884  1.5254 -2.9019  1.8528
  788MOL0     H 8681   5.736   6.549  10.056  3.6711  0.1961  0.2216
  788MOL0     H 8682   5.841   6.626   9.946  0.2567 -0.5333  1.2597
  788MOL0     H 8683   5.698   6.778   9.867  0.2488 -0.2456  0.6126
  788MOL0     H 8684   5.556   6.718   9.920  0.9246 -0.4861 -2.8330
  788MOL0     H 8685   5.785   6.801  10.113 -0.0633  0.6506 -0.6550
  788MOL0     H 8686   5.635   6.754  10.169 -1.3453 -0.2679 -0.5537
  788MOL0     H 8687   5.727   7.004  10.030  2.2678 -1.5228  2.4539
  788MOL0     H 8688   5.576   6.961   9.988  2.3817  2.9658 -1.4140
  788MOL0     H 8689   5.631   6.977  10.283 -0.3756 -2.4377 -1.3257
  788MOL0     H 8690   5.473   7.004  10.219 -0.4089 -0.6969 -0.7825
  788MOL0     H 8691   5.590   7.217  10.110 -0.5310  2.6045  0.8238
  788MOL0     H 8692   5.550   7.213  10.285  0.7984  1.0133 -0.0138
  788MOL0     H 8693   5.852   7.222  10.054  3.3414  0.5894 -0.3928
  788MOL0     H 8694   6.105   7.227  10.073  0.1409 -0.9681  0.4386
  788MOL0     H 8695   6.175   7.119  10.193 -1.1703 -1.7119 -3.5204
  788MOL0     H 8696   6.295   7.335  10.191  1.5900 -1.3939  2.6748
  788MOL0     H 8697   6.140   7.413  10.221 -0.3343  0.0422  1.7605
  788MOL0     H 8698   6.300   7.390  10.399 -0.6459  0.2819 -0.3510
  788MOL0     H 8699   6.145   7.334  10.450 -1.1338  0.0438 -0.6643
  788MOL0     H 8700   6.339   7.190  10.543  2.8182 -2.5851  0.3412
  788MOL0     H 8701   6.234   7.098  10.440 -0.5490 -0.7017  2.4248
  788MOL0     H 8702   6.626   7.077  10.210  3.0583 -1.4524  1.3465
  788MOL0     H 8703   6.969   7.162  10.196  0.1723 -1.6873 -0.0981
  788MOL0     H 8704   6.870   7.191  10.054 -0.0075 -1.1163  0.3387
  788MOL0     H 8705   6.850   7.054  10.151 -2.3801  0.1684 -0.2945
  788MOL0     H 8706   7.162   7.496  10.351 -1.8641 -0.9472 -0.0413
  788MOL0     H 8707   7.362   7.670  10.330 -0.3710  0.0159 -0.7825
  788MOL0     H 8708   7.258   8.109  10.245 -3.8623 -1.8268  2.2702
  788MOL0     H 8709   7.275   8.099  10.418 -1.5842  1.1552 -1.2749
  788MOL0     H 8710   7.513   8.098  10.401  0.4739  0.7271 -0.7544
  788MOL0     H 8711   7.510   8.095  10.239 -0.1542  0.5455  0.7624
  788MOL0     H 8712   7.546   8.315  10.339 -0.4890  0.0714  1.7280
  788MOL0     H 8713   7.385   8.324  10.421 -1.8551  1.3766 -1.1961
  788MOL0     H 8714   7.376   8.462  10.225  2.3560  0.2853 -1.1309
  788MOL0     H 8715   7.274   8.319  10.197  0.8486 -1.8713  1.8516
  788MOL0     H 8716   7.551   8.369  10.080 -0.4584  1.4732 -2.0624
  788MOL0     H 8717   7.455   8.218  10.052 -1.1295  0.0145  0.5486
  788MOL0     H 8718   7.263   8.361   9.970  0.0927  0.2707 -1.3868
  788MOL0     H 8719   7.401   8.356   9.859 -0.0120 -0.4096 -0.0342
  788MOL0     H 8720   7.491   8.572   9.994 -0.6677  0.9205  5.0642
  788MOL0     H 8721   7.321   8.566  10.049 -0.5293 -2.6551  0.5373
  788MOL0     H 8722   7.412   8.553   9.754  1.5030  1.3552 -0.0560
  788MOL0     H 8723   7.355   8.700   9.821  2.3968  0.5598  0.6187
  788MOL0     H 8724   7.076   7.991  10.340  1.1463  0.5546 -3.1556
  788MOL0     H 8725   6.887   7.817  10.335 -0.4405 -2.5308  1.0262
  788MOL0     H 8726   6.693   7.489  10.458 -1.1671 -0.3563  2.2095
  788MOL0     H 8727   6.493   7.362  10.496  1.2636  1.6783  0.4114
  788MOL0     H 8728   5.966   6.142   9.673 -0.4012  0.3007 -2.1402
  788MOL0     H 8729   5.977   5.906   9.708  2.0038  2.3679  2.6774
  788MOL0     H 8730   5.837   5.492   9.643 -1.2125  1.1028 -2.2747
  788MOL0     H 8731   5.809   5.270   9.608 -1.2238 -3.9201  1.5823
  788MOL0     H 8732   5.640   4.925   9.655 -1.2968  0.5141  0.6898
  788MOL0     H 8733   5.762   5.034   9.638  0.5321  0.8962  0.9283
  788MOL0     H 8734   5.644   4.920   9.894 -0.4754  2.1161  2.6252
  788MOL0     H 8735   5.713   5.070   9.905  2.0161  0.4528  1.0344
  788MOL0     H 8736   5.873   4.848   9.773 -1.9369 -1.3865  1.5779
  788MOL0     H 8737   5.938   5.010   9.834  1.5150  0.0498  3.8742
  788MOL0     H 8738   5.876   4.982  10.050  1.3964 -1.8066  0.7175
  788MOL0     H 8739   5.998   4.864  10.002  1.6506  1.5817  1.3226
  788MOL0     H 8740   5.679   4.672  10.193  0.6930  0.3275  1.3659
  788MOL0     H 8741   5.419   5.289   9.783  1.1606 -2.3909  1.2628
  788MOL0     H 8742   5.404   5.637   9.800  0.8658 -1.4905 -1.7113
  788MOL0     H 8743   5.338   5.480   9.865  0.9624 -2.1562  0.3188
  788MOL0     H 8744   5.445   5.565   9.968 -0.7747 -0.1100  0.5524
  789MOL0     O 8745   2.903   8.225   2.275 -0.4274 -0.6313 -0.6197
  789MOL0     C 8746   2.804   8.157   2.251 -0.0395 -1.3840  0.1563
  789MOL0     O 8747   2.801   8.016   2.250 -0.4887 -1.0813 -0.3017
  789MOL0     C 8748   2.919   7.950   2.250  0.1443 -0.2843  0.8551
  789MOL0     C 8749   2.976   7.920   2.372  0.3080  0.1034 -1.0039
  789MOL0     C 8750   3.078   7.829   2.375 -0.2796  0.3552 -0.1257
  789MOL0     C 8751   3.127   7.766   2.259 -0.7348 -0.1425 -0.6910
  789MOL0     O 8752   3.243   7.685   2.274  0.4418  0.1427  0.1176
  789MOL0     C 8753   3.246   7.569   2.197 -0.7971  0.0250  0.6963
  789MOL0     C 8754   3.356   7.472   2.240  1.0411 -0.2235 -0.3230
  789MOL0     C 8755   3.496   7.548   2.236  1.3182  0.5623 -0.0441
  789MOL0     C 8756   3.542   7.559   2.085 -0.0531  0.5328  0.2996
  789MOL0     C 8757   3.681   7.626   2.078 -1.2572 -0.2950  0.9047
  789MOL0     C 8758   3.709   7.759   2.151  0.4260  0.1837 -0.2484
  789MOL0     C 8759   3.846   7.822   2.123 -0.5518 -0.1412  0.1383
  789MOL0     C 8760   3.880   7.927   2.232 -0.5233 -0.4017 -0.0820
  789MOL0     N 8761   4.024   7.970   2.240 -0.4326  0.2055 -0.0757
  789MOL0     C 8762   4.108   7.920   2.337  0.1866 -1.1927  0.6389
  789MOL0     C 8763   4.233   7.949   2.286 -0.3302  0.6629 -0.7446
  789MOL0     C 8764   4.369   7.911   2.353  0.0828  0.4375  0.6331
  789MOL0     C 8765   4.368   7.769   2.389 -0.1431  0.3433 -0.8890
  789MOL0     C 8766   4.384   7.645   2.290 -0.5004 -0.8750 -0.6973
  789MOL0     C 8767   4.289   7.651   2.176  0.4396 -0.9704 -0.7691
  789MOL0     O 8768   4.297   7.541   2.087  0.0703  0.4734  0.7972
  789MOL0     C 8769   4.220   7.537   1.969 -0.3105 -0.7366  0.2746
  789MOL0     C 8770   4.127   7.635   1.933 -0.8834 -0.5269 -0.7412
  789MOL0     C 8771   4.045   7.626   1.817  0.2853  0.4420 -0.2496
  789MOL0     C 8772   3.945   7.734   1.782  0.9998  0.1139 -0.2145
  789MOL0     C 8773   4.067   7.510   1.736  0.0457 -1.3610 -0.6027
  789MOL0     C 8774   3.976   7.484   1.615  0.2128  0.2942 -0.1501
  789MOL0     O 8775   4.000   7.368   1.548 -0.4234  0.4699 -0.3422
  789MOL0     C 8776   3.985   7.373   1.412 -0.6657  0.2274  0.1476
  789MOL0     C 8777   4.006   7.489   1.327  0.7023  0.2505  0.2720
  789MOL0     C 8778   3.964   7.476   1.196 -1.0010 -0.1835  0.1699
  789MOL0     C 8779   3.900   7.371   1.140  0.7406  0.7795  0.9324
  789MOL0     O 8780   3.855   7.385   1.007 -0.3464  0.4340  0.7250
  789MOL0     C 8781   3.959   7.363   0.912 -0.0882 -0.1476 -0.9024
  789MOL0     C 8782   3.996   7.216   0.892 -0.2187  0.7462 -0.2136
  789MOL0     C 8783   3.890   7.134   0.816 -0.1504 -0.2408 -1.0592
  789MOL0     C 8784   3.947   7.005   0.755 -0.4072 -0.5862 -1.0687
  789MOL0     C 8785   3.845   6.908   0.680  0.3866  0.3468  0.3159
  789MOL0     C 8786   3.766   6.968   0.560 -0.5595 -0.3892 -1.2631
  789MOL0     C 8787   3.850   6.984   0.437 -0.4768 -0.2717  0.2994
  789MOL0     C 8788   3.761   7.040   0.328 -1.8680  0.4275 -0.3831
  789MOL0    Cl 8789   3.687   7.201   0.371 -0.0255 -0.2349 -0.3520
  789MOL0     C 8790   3.871   7.266   1.225  0.2301 -0.2175  0.4441
  789MOL0     C 8791   3.933   7.261   1.354  0.5683  0.6458  0.0508
  789MOL0     O 8792   3.879   7.557   1.588  0.0918 -0.4135  0.2991
  789MOL0     C 8793   4.168   7.417   1.772  0.2943 -0.4926  0.5501
  789MOL0     C 8794   4.240   7.433   1.884  0.8494  0.6369 -0.1431
  789MOL0     N 8795   4.221   8.030   2.178  0.1390 -0.8457  0.2131
  789MOL0     N 8796   4.094   8.032   2.142  0.9208 -0.5832 -0.5030
  789MOL0     C 8797   3.074   7.795   2.135  1.7436  0.0240  0.8170
  789MOL0     C 8798   2.963   7.887   2.129 -0.3637  0.4128  0.3356
  789MOL0     C 8799   2.684   8.220   2.205 -0.3558  0.3192 -0.1135
  789MOL0     C 8800   2.592   8.127   2.136  0.5972  0.0467 -0.0922
  789MOL0     C 8801   2.464   8.163   2.088 -0.2663 -0.2373  0.0658
  789MOL0     C 8802   2.441   8.301   2.093  0.0194 -0.0629  0.8184
  789MOL0     O 8803   2.321   8.339   2.045 -0.0088  0.5704 -0.4422
  789MOL0     C 8804   2.256   8.465   2.070  0.6376 -0.1758 -0.3965
  789MOL0     C 8805   2.154   8.457   2.192 -0.0490 -0.3419 -0.4697
  789MOL0     C 8806   2.080   8.587   2.219 -0.2497  0.0371 -0.0279
  789MOL0     C 8807   2.164   8.694   2.285  0.5330 -0.2080 -0.3748
  789MOL0     C 8808   2.249   8.765   2.191  0.5658 -0.9997 -0.2400
  789MOL0     C 8809   2.311   8.837   2.113  1.2496  0.1525  0.7034
  789MOL0     C 8810   2.522   8.395   2.162  0.1123 -0.6793  0.5334
  789MOL0     C 8811   2.643   8.357   2.225 -0.4007  0.1373  0.4473
  789MOL0     C 8812   2.729   8.448   2.316  0.2892 -0.1108 -0.1404
  789MOL0     H 8813   2.928   7.960   2.462  0.7777  0.0913 -0.7446
  789MOL0     H 8814   3.140   7.816   2.463 -0.5682  1.9383  0.3500
  789MOL0     H 8815   3.280   7.592   2.096 -0.3588  2.4064  1.3276
  789MOL0     H 8816   3.153   7.511   2.208 -0.3344 -1.0981 -0.9629
  789MOL0     H 8817   3.333   7.447   2.344  2.9366  1.2968  0.5328
  789MOL0     H 8818   3.354   7.384   2.174  2.5589 -1.0358  0.6542
  789MOL0     H 8819   3.480   7.649   2.274 -2.2270  0.0724  0.0715
  789MOL0     H 8820   3.563   7.497   2.306 -2.7362 -1.9452  2.3790
  789MOL0     H 8821   3.552   7.458   2.044 -0.2260  0.5079  0.3192
  789MOL0     H 8822   3.476   7.631   2.036  1.2773  1.5212 -0.0938
  789MOL0     H 8823   3.701   7.647   1.972  4.0407 -0.4677  1.6259
  789MOL0     H 8824   3.760   7.559   2.111  0.5718  1.3520  0.0943
  789MOL0     H 8825   3.629   7.833   2.142 -0.4812 -0.0087  3.9244
  789MOL0     H 8826   3.700   7.725   2.255 -0.6037 -0.7668 -0.6321
  789MOL0     H 8827   3.869   7.863   2.024  1.9364  0.8267  1.0498
  789MOL0     H 8828   3.914   7.737   2.136 -0.1046 -0.0059 -1.1274
  789MOL0     H 8829   3.812   8.012   2.223  0.8163  0.9433  1.6258
  789MOL0     H 8830   3.852   7.890   2.331  0.1731 -3.9427 -1.0836
  789MOL0     H 8831   4.086   7.856   2.423  0.9139 -0.7987  1.1320
  789MOL0     H 8832   4.372   7.972   2.444 -0.4405  1.4379  0.0056
  789MOL0     H 8833   4.452   7.941   2.288 -0.2835  2.1661  0.9055
  789MOL0     H 8834   4.445   7.763   2.467  0.1992  0.5750 -1.2081
  789MOL0     H 8835   4.275   7.745   2.441 -1.1784  0.6313 -2.5649
  789MOL0     H 8836   4.489   7.649   2.259  0.3439 -1.3133  1.8460
  789MOL0     H 8837   4.362   7.557   2.351 -0.8091  1.4283  2.8149
  789MOL0     H 8838   4.189   7.643   2.220  1.0837 -0.7371  0.7725
  789MOL0     H 8839   4.304   7.743   2.117 -1.4099 -0.8510 -1.1077
  789MOL0     H 8840   4.107   7.714   2.005  0.2473 -2.0216  1.3012
  789MOL0     H 8841   3.842   7.708   1.806  1.0709  1.6334  2.0855
  789MOL0     H 8842   3.956   7.767   1.678 -2.2150  0.8306 -0.4461
  789MOL0     H 8843   3.955   7.833   1.828 -2.4636  1.4990 -2.0871
  789MOL0     H 8844   4.052   7.584   1.354  1.1912 -0.5970  2.6741
  789MOL0     H 8845   3.996   7.560   1.135  2.1539  0.0731  1.9903
  789MOL0     H 8846   3.940   7.414   0.818 -0.5531  2.8801  0.7003
  789MOL0     H 8847   4.050   7.407   0.954  0.2118 -1.5279 -0.0242
  789MOL0     H 8848   4.085   7.217   0.828 -0.1507  2.0322 -0.1136
  789MOL0     H 8849   4.028   7.172   0.987  0.3277 -0.3720 -0.8907
  789MOL0     H 8850   3.857   7.193   0.729  0.0491 -1.7650 -2.2184
  789MOL0     H 8851   3.812   7.113   0.889  1.9704 -0.1623  1.3417
  789MOL0     H 8852   3.998   6.948   0.834  1.9627 -0.3511 -2.3318
  789MOL0     H 8853   4.031   7.040   0.694 -0.2255 -0.0555 -0.5297
  789MOL0     H 8854   3.904   6.823   0.647  3.3924  1.7261  1.7354
  789MOL0     H 8855   3.775   6.865   0.753 -0.3094  0.7563 -0.0899
  789MOL0     H 8856   3.722   7.064   0.590 -0.0023 -0.0593 -1.4779
  789MOL0     H 8857   3.686   6.896   0.541  0.1549 -1.0347 -1.8370
  789MOL0     H 8858   3.888   6.893   0.390  0.1963  0.0184  0.2673
  789MOL0     H 8859   3.933   7.049   0.467  0.1331 -0.6862 -0.4316
  789MOL0     H 8860   3.689   6.963   0.303  0.4309 -2.1467  0.4501
  789MOL0     H 8861   3.822   7.056   0.239  0.5778 -2.7120  0.5500
  789MOL0     H 8862   3.823   7.180   1.180  3.0386 -1.1380 -1.0807
  789MOL0     H 8863   3.928   7.173   1.418 -1.3605  2.2001  2.1565
  789MOL0     H 8864   4.166   7.320   1.722 -5.8311  0.0654 -1.0378
  789MOL0     H 8865   4.310   7.356   1.914 -1.1475 -1.7663 -1.3324
  789MOL0     H 8866   3.094   7.754   2.037 -3.7595  0.9463 -1.0586
  789MOL0     H 8867   2.903   7.916   2.043 -0.3341  2.2906  0.9197
  789MOL0     H 8868   2.602   8.020   2.122 -1.3881 -0.2077  0.1224
  789MOL0     H 8869   2.396   8.082   2.066  2.4353 -2.0448 -2.3603
  789MOL0     H 8870   2.326   8.548   2.087  0.3266 -0.0340  0.2383
  789MOL0     H 8871   2.200   8.482   1.978 -3.2606  0.5109  1.8670
  789MOL0     H 8872   2.210   8.413   2.275  0.2476 -0.1013 -0.5390
  789MOL0     H 8873   2.074   8.391   2.158  0.3597 -0.3261 -1.4759
  789MOL0     H 8874   2.041   8.635   2.128 -3.4369 -2.1799  0.0158
  789MOL0     H 8875   1.993   8.563   2.281 -1.4178 -0.5703 -1.8315
  789MOL0     H 8876   2.221   8.648   2.366 -0.8671  0.0944  0.8258
  789MOL0     H 8877   2.103   8.769   2.336  1.5847  1.0326 -0.8783
  789MOL0     H 8878   2.361   8.901   2.042  1.6835 -0.9510 -0.0292
  789MOL0     H 8879   2.480   8.489   2.197 -0.0908 -0.3058 -0.6677
  789MOL0     H 8880   2.796   8.503   2.249  0.8520  1.1379  1.4045
  789MOL0     H 8881   2.656   8.524   2.346 -1.0384 -1.7361  0.9978
  789MOL0     H 8882   2.788   8.396   2.392  5.4016  1.3785 -2.6370
  790MOL0     O 8883   8.275   9.566   9.595 -0.5344 -0.0310  1.7056
  790MOL0     C 8884   8.356   9.564   9.503 -0.3974 -0.2595 -0.3387
  790MOL0     O 8885   8.369   9.456   9.417 -0.0325 -0.9012 -0.2317
  790MOL0     C 8886   8.295   9.342   9.442  0.1046  0.2771 -0.3733
  790MOL0     C 8887   8.162   9.339   9.473  0.7356 -0.1769 -0.2317
  790MOL0     C 8888   8.101   9.219   9.487 -0.1343  0.4945  0.7543
  790MOL0     C 8889   8.175   9.100   9.479  0.5549  0.4952 -1.0420
  790MOL0     O 8890   8.136   8.964   9.485 -0.2274 -0.4557  0.1041
  790MOL0     C 8891   8.010   8.933   9.555  0.2208 -1.1783 -0.0738
  790MOL0     C 8892   8.027   8.950   9.705 -0.2474 -0.1823 -0.1639
  790MOL0     C 8893   8.143   8.861   9.755  0.3379 -0.0938  0.4535
  790MOL0     C 8894   8.150   8.870   9.905 -0.0762 -0.4722  0.2932
  790MOL0     C 8895   8.269   8.788   9.959 -0.9617 -0.7760 -0.0077
  790MOL0     C 8896   8.293   8.754  10.111  0.9680  0.1227 -0.4361
  790MOL0     C 8897   8.263   8.877  10.197  0.0615  0.6254 -0.2048
  790MOL0     C 8898   8.361   8.991  10.214  0.4077  0.1417 -0.8681
  790MOL0     N 8899   8.316   9.106  10.290 -0.0017  0.1492  0.3662
  790MOL0     C 8900   8.246   9.220  10.250 -0.1843  0.5286  1.0833
  790MOL0     C 8901   8.224   9.288  10.358 -0.5261  0.0084 -0.6548
  790MOL0     C 8902   8.131   9.401  10.364 -0.7958 -0.4925  0.8173
  790MOL0     C 8903   8.126   9.492  10.478 -0.6745 -0.4458  0.1908
  790MOL0     C 8904   8.013   9.601  10.460 -0.4532  0.1580  0.0598
  790MOL0     C 8905   7.989   9.670  10.594 -0.8038 -0.3936 -1.0184
  790MOL0     O 8906   7.947   9.805  10.593 -0.4275 -0.1434  0.3027
  790MOL0     C 8907   8.043   9.908  10.582 -0.3232  0.1563 -0.3456
  790MOL0     C 8908   8.179   9.884  10.560 -0.1129  0.2403 -1.0104
  790MOL0     C 8909   8.275   9.975  10.549 -0.0554 -0.5108 -0.4962
  790MOL0     C 8910   8.414   9.909  10.539  0.3387  0.1736  0.4449
  790MOL0     C 8911   8.241  10.113  10.526  0.5311 -0.4809 -0.5564
  790MOL0     C 8912   8.339  10.218  10.519  0.7142  0.4533 -0.5210
  790MOL0     O 8913   8.292  10.341  10.463  0.2599  0.0250 -0.3766
  790MOL0     C 8914   8.357  10.459  10.493 -0.0406 -0.2288  0.5886
  790MOL0     C 8915   8.480  10.503  10.427 -0.3235  0.3757 -0.2897
  790MOL0     C 8916   8.540  10.624  10.455 -0.5357  0.1147  1.0686
  790MOL0     C 8917   8.485  10.712  10.541 -0.1442 -0.5450  0.7719
  790MOL0     O 8918   8.549  10.830  10.568  0.7859  0.9335  0.0310
  790MOL0     C 8919   8.685  10.811  10.621  0.0951  0.5344 -0.0314
  790MOL0     C 8920   8.779  10.904  10.548  0.0700  0.5260  0.1164
  790MOL0     C 8921   8.904  10.941  10.621 -0.8655  0.0148  0.2954
  790MOL0     C 8922   9.001  10.818  10.624 -0.1548 -0.4219 -0.4202
  790MOL0     C 8923   9.140  10.869  10.675 -0.2499  1.0512  0.6293
  790MOL0     C 8924   9.217  10.727  10.698  0.1306  0.1801 -0.4453
  790MOL0     C 8925   9.370  10.745  10.719 -0.7420 -0.7863 -0.1415
  790MOL0     C 8926   9.453  10.615  10.734  1.1470 -0.4048 -0.1871
  790MOL0    Cl 8927   9.620  10.674  10.802 -0.3448  0.6315 -0.1935
  790MOL0     C 8928   8.364  10.674  10.602  0.7205 -0.2799 -0.2569
  790MOL0     C 8929   8.297  10.550  10.581  0.2342  0.1277 -0.0421
  790MOL0     O 8930   8.443  10.198  10.577 -0.7301 -0.1770  0.5537
  790MOL0     C 8931   8.102  10.144  10.539  1.3409 -0.2162 -0.2412
  790MOL0     C 8932   8.012  10.042  10.564 -0.0940  0.8944  0.6242
  790MOL0     N 8933   8.275   9.222  10.468  0.2812  0.2156  0.1503
  790MOL0     N 8934   8.331   9.112  10.419  0.4949 -0.4687  0.6260
  790MOL0     C 8935   8.313   9.107   9.456  0.7164 -0.0463  0.7947
  790MOL0     C 8936   8.370   9.226   9.431 -0.8901 -0.1367  0.6648
  790MOL0     C 8937   8.421   9.700   9.467 -0.3641  0.3288  0.1530
  790MOL0     C 8938   8.506   9.702   9.351  0.4205  0.7210 -0.6552
  790MOL0     C 8939   8.567   9.814   9.308  0.0204 -0.7361  0.0723
  790MOL0     C 8940   8.555   9.934   9.380 -0.0422 -1.0446  1.1544
  790MOL0     O 8941   8.605  10.056   9.349  0.7469  0.2028 -1.0338
  790MOL0     C 8942   8.697  10.058   9.236 -0.2091 -0.5186  0.2453
  790MOL0     C 8943   8.762  10.196   9.253 -0.2562  0.2853 -0.4568
  790MOL0     C 8944   8.691  10.316   9.177 -0.1348 -0.0732 -0.2283
  790MOL0     C 8945   8.696  10.301   9.027 -0.0572  0.2133  0.6885
  790MOL0     C 8946   8.619  10.420   8.964 -0.0672  0.8898 -0.8619
  790MOL0     C 8947   8.528  10.567   8.875  0.7150 -0.6862  0.3694
  790MOL0     C 8948   8.474   9.944   9.488 -0.3767  0.7854 -0.0481
  790MOL0     C 8949   8.418   9.822   9.543 -0.7733  0.0998  0.4295
  790MOL0     C 8950   8.348   9.834   9.677  1.0435 -0.5361  0.0854
  790MOL0     H 8951   8.106   9.432   9.475 -2.2394 -1.7224 -2.8491
  790MOL0     H 8952   7.994   9.213   9.508 -0.0263  3.8409  2.9683
  790MOL0     H 8953   7.987   8.832   9.520 -2.6563 -0.7752  0.3263
  790MOL0     H 8954   7.931   9.003   9.524  0.0621 -0.9460  0.8197
  790MOL0     H 8955   8.040   9.055   9.734 -1.7720  0.9510 -3.1958
  790MOL0     H 8956   7.935   8.924   9.759  1.6298 -3.1443  1.9247
  790MOL0     H 8957   8.124   8.757   9.729 -0.6498  0.2890 -0.4106
  790MOL0     H 8958   8.227   8.900   9.697 -2.5439  2.2993 -2.4732
  790MOL0     H 8959   8.154   8.972   9.945  1.4555  0.1653 -1.3484
  790MOL0     H 8960   8.056   8.830   9.944  1.1208 -1.2288  2.6179
  790MOL0     H 8961   8.355   8.845   9.923  0.1880 -2.2849  0.2398
  790MOL0     H 8962   8.275   8.696   9.901 -0.7409 -2.0845  1.9801
  790MOL0     H 8963   8.216   8.677  10.128  0.0938  1.1132  0.2355
  790MOL0     H 8964   8.390   8.705  10.122  0.5353 -0.4018  1.5090
  790MOL0     H 8965   8.240   8.842  10.298  4.2602  1.6657  1.2981
  790MOL0     H 8966   8.168   8.921  10.166 -1.1586 -1.6050  0.1816
  790MOL0     H 8967   8.447   8.947  10.264  1.1774 -0.4805 -2.6557
  790MOL0     H 8968   8.405   9.026  10.120 -0.2218  1.6984 -0.6234
  790MOL0     H 8969   8.199   9.241  10.154 -0.6390 -0.8656  0.9896
  790MOL0     H 8970   8.036   9.358  10.332 -0.2169 -0.0993 -1.6506
  790MOL0     H 8971   8.179   9.463  10.287  2.4997 -4.6590 -0.8806
  790MOL0     H 8972   8.109   9.435  10.570  2.2951  0.0302  1.1397
  790MOL0     H 8973   8.228   9.531  10.489 -1.0675  0.5535  0.3269
  790MOL0     H 8974   8.045   9.662  10.375  1.9293  0.5027  1.1207
  790MOL0     H 8975   7.921   9.554  10.424 -0.3581  1.7706 -2.6271
  790MOL0     H 8976   7.914   9.621  10.656 -2.2706  2.6526 -0.1688
  790MOL0     H 8977   8.076   9.666  10.659 -3.3577 -3.3950  2.6336
  790MOL0     H 8978   8.220   9.784  10.559  1.9039  0.9836 -3.0973
  790MOL0     H 8979   8.502   9.973  10.533  0.4529 -0.0894 -1.1889
  790MOL0     H 8980   8.409   9.849  10.447 -0.4078 -1.5960  1.5826
  790MOL0     H 8981   8.444   9.841  10.619  0.1945  0.4357  0.7240
  790MOL0     H 8982   8.526  10.438  10.352  0.2356 -0.0313  0.3960
  790MOL0     H 8983   8.631  10.651  10.401  0.1632 -1.4453  1.4058
  790MOL0     H 8984   8.677  10.843  10.725  0.4372 -3.5814  1.4391
  790MOL0     H 8985   8.722  10.708  10.612  0.0636  0.6455 -1.9368
  790MOL0     H 8986   8.819  10.861  10.456  3.0109  0.1228  1.4450
  790MOL0     H 8987   8.719  10.994  10.530 -3.7749 -1.7390  0.7167
  790MOL0     H 8988   8.890  10.980  10.722  2.9100 -0.6593  1.2264
  790MOL0     H 8989   8.953  11.012  10.553  1.6282 -0.8930  1.0098
  790MOL0     H 8990   9.011  10.781  10.522 -0.2354 -0.1564 -0.5250
  790MOL0     H 8991   8.962  10.733  10.681  1.5964 -0.7505  0.3681
  790MOL0     H 8992   9.184  10.937  10.601  0.4494 -1.1247 -1.0621
  790MOL0     H 8993   9.130  10.930  10.765 -1.9958  1.8729 -0.0553
  790MOL0     H 8994   9.207  10.663  10.610  0.2077  1.2684 -1.2652
  790MOL0     H 8995   9.179  10.676  10.787  0.0010 -3.0618 -2.2330
  790MOL0     H 8996   9.374  10.797  10.815  0.6865 -3.9916  1.6871
  790MOL0     H 8997   9.414  10.800  10.635  2.4012 -0.1449  1.7949
  790MOL0     H 8998   9.472  10.576  10.633  1.2519 -1.9735  0.4229
  790MOL0     H 8999   9.415  10.543  10.806  1.9596  0.1175  0.7928
  790MOL0     H 9000   8.306  10.734  10.671  0.3893  0.3992 -1.0949
  790MOL0     H 9001   8.200  10.526  10.624  0.1793  1.1897  0.4729
  790MOL0     H 9002   8.069  10.247  10.531 -3.1300 -1.3240  0.9102
  790MOL0     H 9003   7.905  10.059  10.568 -0.7221 -2.1296 -0.5114
  790MOL0     H 9004   8.360   9.010   9.464 -1.5143 -1.0734  2.5412
  790MOL0     H 9005   8.472   9.243   9.401 -1.4235 -0.9326 -1.8698
  790MOL0     H 9006   8.510   9.610   9.293 -0.9648 -0.4397  0.9790
  790MOL0     H 9007   8.628   9.808   9.218 -0.0469  4.0458 -0.5550
  790MOL0     H 9008   8.771   9.978   9.232  0.1688 -0.1307 -2.0656
  790MOL0     H 9009   8.628  10.058   9.151 -1.0967  0.5779  0.9355
  790MOL0     H 9010   8.866  10.184   9.223  0.0361 -0.9094  0.9614
  790MOL0     H 9011   8.777  10.222   9.358 -0.1148 -0.9987 -0.1479
  790MOL0     H 9012   8.588  10.331   9.212 -1.3468 -1.5392 -2.8139
  790MOL0     H 9013   8.750  10.407   9.191  1.5048 -0.3633 -3.9774
  790MOL0     H 9014   8.655  10.204   8.997  1.5699  0.1043 -1.5316
  790MOL0     H 9015   8.800  10.301   8.991 -0.7132 -0.6952 -1.3957
  790MOL0     H 9016   8.465  10.632   8.817 -3.1078 -4.8376 -0.6467
  790MOL0     H 9017   8.450  10.043   9.526 -3.9400 -0.6955  2.0655
  790MOL0     H 9018   8.248   9.876   9.668  1.7802  1.1645 -0.5188
  790MOL0     H 9019   8.343   9.737   9.728 -1.3868 -1.3322 -1.4949
  790MOL0     H 9020   8.413   9.905   9.729  0.0781  1.0580 -0.8068
  791MOL0     O 9021   8.068   7.350   4.364  0.9276 -0.5912 -0.3163
  791MOL0     C 9022   7.986   7.337   4.458 -0.7526 -1.4667 -0.7994
  791MOL0     O 9023   8.024   7.366   4.594  0.5919 -0.6248  0.1627
  791MOL0     C 9024   8.117   7.464   4.627  0.5143  0.0709 -0.9264
  791MOL0     C 9025   8.195   7.431   4.735 -0.6220 -0.6855  0.5520
  791MOL0     C 9026   8.288   7.525   4.781 -0.4680  0.7096 -0.2245
  791MOL0     C 9027   8.308   7.647   4.729  0.3672 -0.7341 -1.0369
  791MOL0     O 9028   8.403   7.715   4.801 -0.2261 -0.4267 -0.2703
  791MOL0     C 9029   8.425   7.855   4.772 -0.9558  0.2134  0.6484
  791MOL0     C 9030   8.563   7.893   4.834  0.8756  0.0388  0.7668
  791MOL0     C 9031   8.563   7.883   4.983 -0.3314  0.0160 -0.4788
  791MOL0     C 9032   8.688   7.964   5.045 -0.4768  0.4442  0.5667
  791MOL0     C 9033   8.680   7.977   5.192 -0.3080  1.1937  0.1839
  791MOL0     C 9034   8.584   8.080   5.247  0.3119  0.1821  0.1284
  791MOL0     C 9035   8.658   8.142   5.368  0.0808  0.0415 -0.9728
  791MOL0     C 9036   8.557   8.212   5.465 -0.1755  0.4595 -0.3126
  791MOL0     N 9037   8.627   8.259   5.583  0.2322  0.5749  0.5173
  791MOL0     C 9038   8.697   8.381   5.602  0.8901 -0.5900  0.1870
  791MOL0     C 9039   8.718   8.390   5.733 -0.7067  0.1989  0.2520
  791MOL0     C 9040   8.781   8.496   5.817 -0.9269 -0.1599 -0.0095
  791MOL0     C 9041   8.721   8.628   5.782  0.7676 -0.0416  0.9626
  791MOL0     C 9042   8.749   8.744   5.882  0.3598 -0.5683 -0.4572
  791MOL0     C 9043   8.735   8.883   5.819  0.4901 -0.3746 -0.4503
  791MOL0     O 9044   8.607   8.873   5.747  0.6378 -0.2933  0.6192
  791MOL0     C 9045   8.488   8.903   5.806 -0.2542 -0.9928 -0.0702
  791MOL0     C 9046   8.378   8.906   5.728  0.8143 -0.8480 -0.0042
  791MOL0     C 9047   8.251   8.945   5.780 -0.1830 -0.2189  0.2116
  791MOL0     C 9048   8.129   8.919   5.692 -1.0116 -0.0727  1.2480
  791MOL0     C 9049   8.238   9.007   5.908 -0.1969  0.0132  0.1145
  791MOL0     C 9050   8.129   9.075   5.970  0.0168  0.6931 -0.0198
  791MOL0     O 9051   8.137   9.122   6.097 -0.9282 -0.7745 -0.2823
  791MOL0     C 9052   8.023   9.194   6.147 -0.7544  0.0269  0.1701
  791MOL0     C 9053   7.988   9.310   6.083 -0.4364  0.4165  0.0762
  791MOL0     C 9054   7.875   9.379   6.120 -0.7859 -0.2162  1.1432
  791MOL0     C 9055   7.799   9.339   6.231  0.5216  0.0890  0.8713
  791MOL0     O 9056   7.676   9.395   6.272 -0.2605  1.2003  0.1933
  791MOL0     C 9057   7.578   9.455   6.183 -0.3996  0.5534  0.9449
  791MOL0     C 9058   7.448   9.482   6.275 -0.3870 -0.0175  0.0626
  791MOL0     C 9059   7.317   9.512   6.194  0.1682  0.4057 -1.2236
  791MOL0     C 9060   7.344   9.580   6.066 -0.5824  1.0034 -0.0869
  791MOL0     C 9061   7.232   9.621   5.982  0.7518 -0.2665  0.3846
  791MOL0     C 9062   7.265   9.714   5.858  0.8450  0.1318 -0.9518
  791MOL0     C 9063   7.137   9.779   5.813  0.0988 -0.3868  0.1291
  791MOL0     C 9064   7.166   9.911   5.737  0.1351 -0.2904 -0.2027
  791MOL0    Cl 9065   7.005   9.984   5.680  0.2963  0.0898  0.5083
  791MOL0     C 9066   7.847   9.224   6.302  0.6013  0.3948  0.1009
  791MOL0     C 9067   7.951   9.150   6.260 -0.3393  0.0769  0.3361
  791MOL0     O 9068   8.029   9.077   5.904  0.5921 -0.1480 -0.3249
  791MOL0     C 9069   8.356   9.002   5.983 -0.6466  0.2069  0.2360
  791MOL0     C 9070   8.479   8.948   5.935 -0.7044 -0.9546 -0.3800
  791MOL0     N 9071   8.665   8.276   5.784 -0.2577 -0.1306 -0.4216
  791MOL0     N 9072   8.597   8.211   5.699 -0.0166 -0.6362 -0.1040
  791MOL0     C 9073   8.219   7.688   4.631 -0.0621 -0.5269  0.7634
  791MOL0     C 9074   8.125   7.589   4.577 -0.1014 -1.1737 -0.1352
  791MOL0     C 9075   7.845   7.287   4.427 -0.1625 -0.4111  0.0394
  791MOL0     C 9076   7.752   7.252   4.526  0.1998 -0.7148  0.1639
  791MOL0     C 9077   7.615   7.231   4.503  0.0999  0.1280 -0.1212
  791MOL0     C 9078   7.567   7.241   4.375 -0.5601  0.3382  0.6453
  791MOL0     O 9079   7.439   7.223   4.340  0.7976 -0.0027 -0.1230
  791MOL0     C 9080   7.344   7.204   4.449  0.1248 -0.3755  1.0041
  791MOL0     C 9081   7.201   7.239   4.418 -0.1223 -0.5345  1.2050
  791MOL0     C 9082   7.169   7.381   4.370 -0.1272 -1.1802 -0.6225
  791MOL0     C 9083   7.233   7.436   4.247 -0.2241 -0.2207  0.1415
  791MOL0     C 9084   7.366   7.488   4.268 -0.1439  0.0325 -0.2792
  791MOL0     C 9085   7.477   7.532   4.275  0.7627 -0.1639  0.0782
  791MOL0     C 9086   7.660   7.256   4.268 -0.4613  0.6795 -1.0597
  791MOL0     C 9087   7.788   7.287   4.294 -0.2741  0.7105 -1.2083
  791MOL0     C 9088   7.871   7.317   4.170 -0.0739  0.5331 -0.1214
  791MOL0     H 9089   8.191   7.331   4.778 -1.3426 -0.6231  0.6462
  791MOL0     H 9090   8.346   7.497   4.869  4.1466  2.5648 -2.3295
  791MOL0     H 9091   8.353   7.920   4.822  1.2435  1.7379  2.0463
  791MOL0     H 9092   8.424   7.866   4.664 -0.1194 -0.6168  0.5420
  791MOL0     H 9093   8.633   7.821   4.789 -0.0734 -0.1741 -0.4468
  791MOL0     H 9094   8.588   7.994   4.800  1.3264  0.2361  1.6658
  791MOL0     H 9095   8.473   7.933   5.018  0.4853 -0.0035  1.7921
  791MOL0     H 9096   8.561   7.780   5.018  2.4487 -0.1599 -0.6276
  791MOL0     H 9097   8.779   7.907   5.026 -1.3520 -0.2512 -2.0414
  791MOL0     H 9098   8.687   8.062   4.995 -0.4895  2.1292  3.6674
  791MOL0     H 9099   8.781   8.006   5.224  0.3322  1.2348 -1.7434
  791MOL0     H 9100   8.672   7.875   5.232 -0.0484 -0.4446 -3.4714
  791MOL0     H 9101   8.572   8.157   5.170  0.1759  0.0128 -0.0196
  791MOL0     H 9102   8.486   8.043   5.278 -0.3523  1.6417 -0.1281
  791MOL0     H 9103   8.735   8.210   5.329 -0.4783  0.7713 -0.8283
  791MOL0     H 9104   8.705   8.068   5.434 -0.5968 -1.1937 -1.8537
  791MOL0     H 9105   8.522   8.300   5.408 -1.7904 -1.5467 -2.6249
  791MOL0     H 9106   8.482   8.134   5.478 -1.6919  2.1861  2.2679
  791MOL0     H 9107   8.720   8.468   5.542 -0.2212 -0.8601 -0.6601
  791MOL0     H 9108   8.890   8.505   5.803 -0.9136  2.3085  1.1302
  791MOL0     H 9109   8.755   8.469   5.919 -1.0610 -2.0604 -0.5158
  791MOL0     H 9110   8.762   8.654   5.684  0.2576 -0.2811  0.6800
  791MOL0     H 9111   8.612   8.629   5.775  0.7919  1.1792  0.4150
  791MOL0     H 9112   8.682   8.736   5.968  0.1578  1.5818 -0.3461
  791MOL0     H 9113   8.850   8.730   5.920  0.4662  0.7563 -0.2061
  791MOL0     H 9114   8.743   8.963   5.893  1.1789  0.0193 -0.9424
  791MOL0     H 9115   8.812   8.893   5.742  0.9038 -0.3923 -0.0417
  791MOL0     H 9116   8.377   8.872   5.624  1.1573 -0.8446 -0.0113
  791MOL0     H 9117   8.106   9.002   5.625 -1.7845 -0.6358  0.8070
  791MOL0     H 9118   8.032   8.898   5.737 -1.4705  0.4649  0.5311
  791MOL0     H 9119   8.153   8.844   5.617  0.3340  3.5034 -2.2734
  791MOL0     H 9120   8.050   9.337   5.997 -1.4789  1.2644 -0.4354
  791MOL0     H 9121   7.840   9.459   6.055 -1.1534 -1.1328  0.1724
  791MOL0     H 9122   7.595   9.544   6.122 -2.0700 -0.8803 -1.8093
  791MOL0     H 9123   7.548   9.375   6.115  0.0615  2.1879 -1.2776
  791MOL0     H 9124   7.435   9.400   6.347 -0.0886  1.1448  1.4954
  791MOL0     H 9125   7.469   9.569   6.338  0.3369  0.0369 -0.2506
  791MOL0     H 9126   7.241   9.560   6.257 -0.7475 -1.0280 -1.1794
  791MOL0     H 9127   7.261   9.419   6.180  1.5799 -1.1759  2.2421
  791MOL0     H 9128   7.402   9.508   6.008 -1.6979 -0.3438  0.4073
  791MOL0     H 9129   7.394   9.674   6.090 -2.9969  2.0625  1.2660
  791MOL0     H 9130   7.182   9.533   5.940 -0.0692 -0.1335  1.0576
  791MOL0     H 9131   7.167   9.659   6.061 -1.1903  0.4388 -1.4581
  791MOL0     H 9132   7.299   9.650   5.776 -2.6544 -2.4774 -0.5791
  791MOL0     H 9133   7.341   9.786   5.888  3.2528 -2.5785 -0.0103
  791MOL0     H 9134   7.071   9.818   5.891  2.1240  0.9193  1.2893
  791MOL0     H 9135   7.091   9.711   5.741  1.7595  0.6729 -2.0313
  791MOL0     H 9136   7.234   9.891   5.654  0.3887 -0.4437  0.0399
  791MOL0     H 9137   7.219   9.985   5.797  0.7029 -0.6527 -0.2581
  791MOL0     H 9138   7.797   9.188   6.392  0.5447  1.3142  0.4480
  791MOL0     H 9139   7.995   9.063   6.308  0.3056 -0.2779 -0.8595
  791MOL0     H 9140   8.361   9.042   6.084 -0.9301 -0.6696  0.6046
  791MOL0     H 9141   8.568   8.948   5.998  0.4546  1.4465 -1.8790
  791MOL0     H 9142   8.214   7.790   4.592 -0.7893 -0.7542  0.2469
  791MOL0     H 9143   8.055   7.631   4.505 -1.9967 -1.2527  1.5510
  791MOL0     H 9144   7.787   7.261   4.628  1.6755  1.5278 -0.4654
  791MOL0     H 9145   7.552   7.214   4.589 -0.9941  1.5401 -0.6201
  791MOL0     H 9146   7.336   7.097   4.468 -2.3676 -0.3371  0.5481
  791MOL0     H 9147   7.376   7.264   4.535  2.8722  0.7970 -0.6883
  791MOL0     H 9148   7.142   7.236   4.510 -1.5905 -2.1251  0.2808
  791MOL0     H 9149   7.160   7.175   4.339  1.1671 -0.8199  0.7438
  791MOL0     H 9150   7.062   7.380   4.349  0.0160 -2.5627 -1.4012
  791MOL0     H 9151   7.188   7.455   4.449 -1.8051  0.6261 -1.8101
  791MOL0     H 9152   7.167   7.516   4.213 -0.4583  1.3077  3.6986
  791MOL0     H 9153   7.236   7.361   4.167  1.9372 -2.0657  1.7991
  791MOL0     H 9154   7.577   7.570   4.283  1.0591 -1.2227  2.2652
  791MOL0     H 9155   7.633   7.261   4.163 -1.6646 -0.4432 -0.8168
  791MOL0     H 9156   7.970   7.271   4.175  0.5527  1.9217  2.9451
  791MOL0     H 9157   7.821   7.281   4.080 -1.1177 -1.1045  1.0733
  791MOL0     H 9158   7.874   7.426   4.157  2.0035  0.2700 -2.4659
  792MOL0     O 9159   8.605   8.054   1.091 -0.1225  0.0291 -0.6567
  792MOL0     C 9160   8.489   8.105   1.076 -0.9009  0.6469 -0.4710
  792MOL0     O 9161   8.460   8.243   1.071  0.7214  0.1014 -0.1857
  792MOL0     C 9162   8.564   8.320   1.107 -0.3702 -1.0628  0.4229
  792MOL0     C 9163   8.672   8.329   1.016 -0.9239 -0.4544  0.0701
  792MOL0     C 9164   8.787   8.407   1.045 -0.4995  0.3830 -0.3806
  792MOL0     C 9165   8.800   8.465   1.174 -0.1742 -0.1712  0.8616
  792MOL0     O 9166   8.907   8.537   1.202 -0.3063 -0.8234  0.0475
  792MOL0     C 9167   8.891   8.659   1.282  0.1773 -0.0130  0.5288
  792MOL0     C 9168   9.024   8.717   1.272  0.3225  0.1904  0.6306
  792MOL0     C 9169   9.047   8.834   1.361 -0.5849  0.0137 -0.4441
  792MOL0     C 9170   9.197   8.853   1.409  0.1798  1.0963 -1.1305
  792MOL0     C 9171   9.226   8.969   1.507 -0.2732  0.4241 -0.0959
  792MOL0     C 9172   9.169   8.956   1.650 -0.2361 -0.3874 -0.1921
  792MOL0     C 9173   9.158   9.082   1.727  0.9448  0.5347 -0.6370
  792MOL0     C 9174   9.283   9.171   1.719 -0.5879  0.4085  0.1291
  792MOL0     N 9175   9.266   9.291   1.810 -0.4786  0.4408  0.7924
  792MOL0     C 9176   9.334   9.277   1.930  0.3159  0.9671  0.0689
  792MOL0     C 9177   9.285   9.380   2.001  0.5989 -1.0729 -0.4088
  792MOL0     C 9178   9.324   9.418   2.144  0.8161  0.4510  0.0946
  792MOL0     C 9179   9.465   9.476   2.156  0.2055 -0.3346  0.6994
  792MOL0     C 9180   9.510   9.502   2.299 -0.0724  0.2980  0.2674
  792MOL0     C 9181   9.507   9.391   2.410 -0.8510 -1.2305 -0.7671
  792MOL0     O 9182   9.617   9.304   2.375  0.3500  0.7581  0.8210
  792MOL0     C 9183   9.592   9.213   2.271 -0.0194 -0.2437 -0.0638
  792MOL0     C 9184   9.499   9.117   2.294 -0.0285  0.1458 -0.6160
  792MOL0     C 9185   9.482   9.018   2.202 -0.3269  0.6781 -0.8150
  792MOL0     C 9186   9.376   8.919   2.240  1.1748  0.1802 -0.0391
  792MOL0     C 9187   9.565   9.015   2.087  0.5130 -0.3297 -0.0873
  792MOL0     C 9188   9.544   8.924   1.971 -0.5985  0.1074 -0.6058
  792MOL0     O 9189   9.652   8.881   1.902  0.2487 -0.4028 -0.8422
  792MOL0     C 9190   9.648   8.788   1.798  0.5247  0.3266  0.2019
  792MOL0     C 9191   9.743   8.682   1.807  0.2546  0.1218  0.5211
  792MOL0     C 9192   9.754   8.590   1.708  0.1730 -0.4508 -0.3141
  792MOL0     C 9193   9.663   8.592   1.606  0.2379  0.9584 -0.4651
  792MOL0     O 9194   9.643   8.494   1.511 -0.0287 -0.0623  0.0159
  792MOL0     C 9195   9.724   8.375   1.508  0.5009 -0.0707  0.6535
  792MOL0     C 9196   9.677   8.266   1.409  0.3335  0.6686  0.6419
  792MOL0     C 9197   9.696   8.322   1.266  0.2884 -0.1062 -0.3692
  792MOL0     C 9198   9.662   8.201   1.166 -1.4351  0.3592  0.8789
  792MOL0     C 9199   9.688   8.228   1.017 -0.4921  0.1014 -0.4831
  792MOL0     C 9200   9.832   8.174   0.980  0.7398  0.2799 -0.3245
  792MOL0     C 9201   9.864   8.213   0.831 -0.1015 -0.4480 -0.5650
  792MOL0     C 9202  10.011   8.181   0.804  0.4008 -0.6850 -0.7504
  792MOL0    Cl 9203  10.126   8.319   0.858 -0.4263  0.3088  0.0672
  792MOL0     C 9204   9.574   8.704   1.597  0.3966  0.9763 -0.2164
  792MOL0     C 9205   9.569   8.805   1.693 -0.4926 -0.5594  1.0387
  792MOL0     O 9206   9.431   8.914   1.930  0.4228 -0.4310  0.2635
  792MOL0     C 9207   9.676   9.094   2.077 -0.2157 -0.6778  0.3499
  792MOL0     C 9208   9.689   9.195   2.175  0.1429  0.2248  0.1427
  792MOL0     N 9209   9.192   9.458   1.922 -0.2667  0.1666  0.4241
  792MOL0     N 9210   9.172   9.392   1.814  1.0369  0.4188  0.4014
  792MOL0     C 9211   8.689   8.464   1.259 -0.2630  0.6031 -0.1287
  792MOL0     C 9212   8.571   8.396   1.223  0.0276  0.7730  0.4640
  792MOL0     C 9213   8.374   8.007   1.061 -0.5033  0.3176  0.5406
  792MOL0     C 9214   8.399   7.867   1.072 -0.6108 -0.2337 -0.5770
  792MOL0     C 9215   8.304   7.772   1.034 -0.5242  0.3015  0.2815
  792MOL0     C 9216   8.190   7.813   0.972 -0.2548  0.4778  0.3129
  792MOL0     O 9217   8.113   7.698   0.934 -0.3078  0.3771 -1.1742
  792MOL0     C 9218   7.978   7.702   0.982  0.8386  0.0957  0.3907
  792MOL0     C 9219   7.956   7.563   1.038  0.3634  0.1047 -0.5650
  792MOL0     C 9220   7.801   7.535   1.035  0.2076 -0.1142  0.3578
  792MOL0     C 9221   7.760   7.397   1.068 -0.0018  0.0815  0.4195
  792MOL0     C 9222   7.614   7.384   1.092 -0.2769  0.5503  0.9217
  792MOL0     C 9223   7.500   7.355   1.116  1.0031  0.6054  0.2613
  792MOL0     C 9224   8.160   7.949   0.946 -0.0824 -0.5786  0.2015
  792MOL0     C 9225   8.251   8.046   0.990 -0.5539  0.2969 -0.7700
  792MOL0     C 9226   8.206   8.182   0.974  0.2833 -0.0648  0.0725
  792MOL0     H 9227   8.673   8.265   0.928 -2.4770 -0.0587 -0.2583
  792MOL0     H 9228   8.867   8.413   0.971 -1.5819 -0.6757 -1.6919
  792MOL0     H 9229   8.880   8.638   1.389 -3.3948  1.4104  0.5862
  792MOL0     H 9230   8.813   8.723   1.241  0.5933  1.1927  1.5576
  792MOL0     H 9231   9.098   8.641   1.299 -4.2066 -3.9867  2.9442
  792MOL0     H 9232   9.040   8.750   1.169 -3.1958 -3.1625 -1.2514
  792MOL0     H 9233   9.009   8.926   1.317 -0.5477  0.4736  0.4706
  792MOL0     H 9234   8.988   8.817   1.451  0.3930 -0.1296  0.1753
  792MOL0     H 9235   9.234   8.758   1.450  1.5140  2.2321  0.3845
  792MOL0     H 9236   9.261   8.860   1.321  0.2715 -1.2324 -1.3293
  792MOL0     H 9237   9.176   9.053   1.458  0.8625  1.6292  0.7614
  792MOL0     H 9238   9.332   8.991   1.518 -0.8301  2.3835  2.1650
  792MOL0     H 9239   9.069   8.913   1.644 -1.2556  1.5602  1.6174
  792MOL0     H 9240   9.227   8.881   1.704 -2.1025 -2.1204 -0.4674
  792MOL0     H 9241   9.135   9.053   1.830  1.5270  0.8834 -0.4031
  792MOL0     H 9242   9.073   9.138   1.686 -1.4201 -2.4008 -0.1252
  792MOL0     H 9243   9.370   9.109   1.740 -0.7363  0.2867  0.3761
  792MOL0     H 9244   9.293   9.217   1.620 -3.2571  2.9610  0.8824
  792MOL0     H 9245   9.401   9.197   1.957  0.4732  1.3486  0.8388
  792MOL0     H 9246   9.319   9.324   2.199  1.7837  0.4876  0.2633
  792MOL0     H 9247   9.254   9.485   2.195  1.9636  0.9418  1.0619
  792MOL0     H 9248   9.538   9.419   2.098  1.1449  0.5407  0.9959
  792MOL0     H 9249   9.461   9.574   2.108  4.2040  0.2245  1.1824
  792MOL0     H 9250   9.607   9.553   2.296 -1.4079  3.0056 -1.8200
  792MOL0     H 9251   9.439   9.578   2.333 -1.8065 -1.2752  0.3865
  792MOL0     H 9252   9.514   9.438   2.508 -4.4148 -1.3791 -0.3053
  792MOL0     H 9253   9.411   9.338   2.413 -2.3204  1.3132  0.2776
  792MOL0     H 9254   9.427   9.116   2.376  0.2599  0.9950 -0.3515
  792MOL0     H 9255   9.351   8.847   2.161 -0.8240  3.5737 -2.7404
  792MOL0     H 9256   9.286   8.975   2.267  1.4006 -1.2648  4.5631
  792MOL0     H 9257   9.407   8.868   2.332  0.0379 -1.6744 -0.6356
  792MOL0     H 9258   9.809   8.676   1.893  0.5517  3.4309  0.6737
  792MOL0     H 9259   9.819   8.504   1.719  2.8619  1.1558 -2.2940
  792MOL0     H 9260   9.827   8.399   1.480  0.0287 -1.2173 -2.4318
  792MOL0     H 9261   9.727   8.344   1.613 -0.1527  1.9090  1.3005
  792MOL0     H 9262   9.744   8.182   1.431 -0.2125 -0.0708 -0.4386
  792MOL0     H 9263   9.577   8.230   1.432  1.0454 -0.2341  2.4995
  792MOL0     H 9264   9.794   8.362   1.239  0.3759 -0.8539 -1.1943
  792MOL0     H 9265   9.634   8.411   1.254  2.9957  1.6465 -2.7152
  792MOL0     H 9266   9.556   8.176   1.177 -1.2271 -2.2195 -1.8200
  792MOL0     H 9267   9.719   8.111   1.190  0.1753  1.0030 -0.3849
  792MOL0     H 9268   9.619   8.171   0.954  0.9931  0.2562 -2.3124
  792MOL0     H 9269   9.675   8.336   1.003  0.8407  0.3698  0.1920
  792MOL0     H 9270   9.837   8.065   0.990  1.5778  0.4586  1.4661
  792MOL0     H 9271   9.907   8.216   1.048  3.5200  0.6628 -3.3808
  792MOL0     H 9272   9.830   8.309   0.792 -4.0777 -2.2722 -2.1710
  792MOL0     H 9273   9.798   8.153   0.768  0.2042  0.6177 -1.9525
  792MOL0     H 9274  10.027   8.159   0.698  0.6433  1.5571 -1.2434
  792MOL0     H 9275  10.040   8.087   0.850 -0.4843 -0.1722  0.9111
  792MOL0     H 9276   9.512   8.704   1.507 -1.9184 -0.0295  1.2785
  792MOL0     H 9277   9.510   8.895   1.674  1.0230  0.0078 -1.4391
  792MOL0     H 9278   9.738   9.082   1.989  1.0277 -4.1472  1.5530
  792MOL0     H 9279   9.768   9.268   2.161  0.7587 -0.5609 -0.6408
  792MOL0     H 9280   8.687   8.527   1.347 -0.3089  2.8364 -1.6286
  792MOL0     H 9281   8.484   8.391   1.289  0.5821  0.1679  1.1718
  792MOL0     H 9282   8.488   7.839   1.127 -1.0411  1.6387  1.2140
  792MOL0     H 9283   8.325   7.666   1.048  2.2243  0.0858 -3.8856
  792MOL0     H 9284   7.952   7.774   1.059 -2.6056 -1.3748  0.7756
  792MOL0     H 9285   7.917   7.719   0.893  0.5179  0.4462  0.6723
  792MOL0     H 9286   7.987   7.552   1.143  0.3828 -2.4884 -0.7702
  792MOL0     H 9287   8.012   7.487   0.983 -0.1932 -0.1289 -0.8253
  792MOL0     H 9288   7.750   7.601   1.105  0.5173  1.0867 -0.5103
  792MOL0     H 9289   7.768   7.554   0.932  0.6706 -0.5023  0.1360
  792MOL0     H 9290   7.815   7.353   1.152  2.6710  1.0266 -0.7171
  792MOL0     H 9291   7.776   7.329   0.984  0.0592 -2.3718  2.3165
  792MOL0     H 9292   7.397   7.328   1.128  0.7234  1.3934 -0.2371
  792MOL0     H 9293   8.086   7.989   0.878  1.3509  2.1695  0.1143
  792MOL0     H 9294   8.266   8.238   0.901 -0.1033  1.7443  1.0764
  792MOL0     H 9295   8.109   8.166   0.927  0.8098 -1.6889 -0.5195
  792MOL0     H 9296   8.202   8.238   1.068 -2.4186  2.2714 -1.2758
  793MOL0     O 9297   2.779   8.398   9.946 -0.4373  0.1622  0.4188
  793MOL0     C 9298   2.851   8.493   9.985  0.1532 -0.1115  1.0693
  793MOL0     O 9299   2.852   8.618   9.932 -0.3289  0.3270  0.1006
  793MOL0     C 9300   2.758   8.638   9.836  0.4269 -0.1792  0.5726
  793MOL0     C 9301   2.619   8.657   9.866  0.8653  0.7463  0.2854
  793MOL0     C 9302   2.523   8.669   9.771  0.0357 -0.4174 -0.0161
  793MOL0     C 9303   2.552   8.675   9.630 -0.6753  0.4634  0.0743
  793MOL0     O 9304   2.449   8.693   9.542  0.0262 -0.1230  0.5110
  793MOL0     C 9305   2.487   8.707   9.403 -0.0858  0.0722 -0.5488
  793MOL0     C 9306   2.375   8.720   9.301 -0.5270 -0.7318 -0.0381
  793MOL0     C 9307   2.255   8.612   9.305 -1.3461 -0.1299  0.3107
  793MOL0     C 9308   2.296   8.473   9.251  0.8475  0.3770  0.0440
  793MOL0     C 9309   2.176   8.373   9.232 -0.5872  0.5562 -0.4901
  793MOL0     C 9310   2.223   8.246   9.145  1.2361  0.0044  0.4324
  793MOL0     C 9311   2.105   8.153   9.103 -0.0265  0.7747 -0.6204
  793MOL0     C 9312   2.135   8.032   9.024 -0.6583  0.1699 -0.0405
  793MOL0     N 9313   2.014   7.971   8.978 -0.8026 -0.6741  0.6411
  793MOL0     C 9314   1.924   8.021   8.894  0.6786  0.0860  0.3619
  793MOL0     C 9315   1.834   7.925   8.871 -0.4013 -0.5664 -0.0458
  793MOL0     C 9316   1.706   7.941   8.789 -0.8510  0.4162  0.2285
  793MOL0     C 9317   1.618   8.045   8.856 -0.1383  0.9379 -0.3990
  793MOL0     C 9318   1.476   8.031   8.782 -0.2979 -0.2948 -0.6438
  793MOL0     C 9319   1.468   8.067   8.643 -0.4792  0.5577  0.5573
  793MOL0     O 9320   1.331   8.088   8.597  0.0684  0.7672  0.0249
  793MOL0     C 9321   1.287   8.214   8.559  0.0920 -0.0258  0.7421
  793MOL0     C 9322   1.235   8.230   8.432 -0.3513  0.1297  0.2147
  793MOL0     C 9323   1.214   8.358   8.376  0.2812  1.2200 -1.8524
  793MOL0     C 9324   1.165   8.363   8.232 -0.0791  0.9934 -0.2649
  793MOL0     C 9325   1.247   8.470   8.462  0.3281 -0.7397 -0.1866
  793MOL0     C 9326   1.218   8.617   8.424 -1.1242  0.4687  0.2197
  793MOL0     O 9327   1.283   8.714   8.499  0.3485 -0.3922 -0.5970
  793MOL0     C 9328   1.281   8.857   8.461  0.3354  0.5993 -0.6671
  793MOL0     C 9329   1.275   8.957   8.560 -0.2218  0.6464 -0.2537
  793MOL0     C 9330   1.258   9.091   8.524  0.5495 -0.2646  0.3417
  793MOL0     C 9331   1.248   9.137   8.392 -0.4112 -0.4709  0.2340
  793MOL0     O 9332   1.240   9.270   8.352  0.5262  0.3324 -0.2254
  793MOL0     C 9333   1.287   9.378   8.429  0.3847 -0.4622  0.4256
  793MOL0     C 9334   1.370   9.476   8.352  0.1840 -0.0116  0.4067
  793MOL0     C 9335   1.405   9.589   8.442 -0.1104 -0.1058 -0.0732
  793MOL0     C 9336   1.505   9.672   8.366 -1.1582  0.7336 -0.1499
  793MOL0     C 9337   1.545   9.791   8.458 -0.0635 -0.3112 -0.1840
  793MOL0     C 9338   1.666   9.863   8.401 -0.1761  0.0533  0.0986
  793MOL0     C 9339   1.718   9.980   8.466 -0.0047 -0.4204 -0.4978
  793MOL0     C 9340   1.600  10.076   8.493 -0.2620 -0.2535 -0.6230
  793MOL0    Cl 9341   1.539  10.066   8.660 -0.0470  0.0848  0.2003
  793MOL0     C 9342   1.244   9.027   8.295 -0.5281 -0.8073 -0.4251
  793MOL0     C 9343   1.251   8.891   8.325 -0.1253 -1.1377  1.0588
  793MOL0     O 9344   1.133   8.638   8.335  0.5444 -0.0559  0.0703
  793MOL0     C 9345   1.312   8.452   8.583  0.3951  0.2136 -0.4053
  793MOL0     C 9346   1.316   8.322   8.641  0.7083 -0.2388  0.8122
  793MOL0     N 9347   1.865   7.818   8.957 -0.1706  1.2349  0.8966
  793MOL0     N 9348   1.972   7.848   9.011 -0.8688 -0.1654  0.6413
  793MOL0     C 9349   2.687   8.662   9.605  0.8405 -0.0189  0.6688
  793MOL0     C 9350   2.785   8.641   9.700  0.2239 -0.5226 -0.0837
  793MOL0     C 9351   2.959   8.469  10.083 -0.1361  0.8642 -0.6131
  793MOL0     C 9352   3.007   8.573  10.161 -0.7728  0.3446 -1.1697
  793MOL0     C 9353   3.126   8.562  10.232  1.0268 -0.6119 -0.1549
  793MOL0     C 9354   3.189   8.440  10.248 -0.4266  0.4009 -0.5336
  793MOL0     O 9355   3.307   8.435  10.320  0.3381 -0.0342 -1.1333
  793MOL0     C 9356   3.327   8.329  10.410 -0.6068  1.4052  0.4617
  793MOL0     C 9357   3.310   8.374  10.547 -0.3568 -0.0423  0.6313
  793MOL0     C 9358   3.388   8.506  10.574  0.1525 -0.1123  1.1693
  793MOL0     C 9359   3.388   8.550  10.724 -0.4782 -0.8769  0.4112
  793MOL0     C 9360   3.245   8.574  10.778  0.6188 -0.4017  0.2510
  793MOL0     C 9361   3.129   8.605  10.792  0.0135 -0.6750  0.0869
  793MOL0     C 9362   3.132   8.324  10.190  0.0622  0.1358 -0.2638
  793MOL0     C 9363   3.021   8.340  10.103 -0.0121  0.1671 -0.8365
  793MOL0     C 9364   2.970   8.227  10.014 -0.7621 -0.6453 -0.6661
  793MOL0     H 9365   2.577   8.656   9.967  1.9880 -0.0172  0.7630
  793MOL0     H 9366   2.429   8.672   9.826  0.9571  0.1927  1.6125
  793MOL0     H 9367   2.549   8.620   9.378  2.7597  1.6257  0.6282
  793MOL0     H 9368   2.552   8.794   9.389  2.0897 -1.4241 -0.3160
  793MOL0     H 9369   2.325   8.815   9.322 -0.8794  0.1252 -3.8742
  793MOL0     H 9370   2.407   8.736   9.197  0.6648  1.9901  0.6588
  793MOL0     H 9371   2.219   8.610   9.409  0.3777  2.2433  1.0301
  793MOL0     H 9372   2.166   8.653   9.256  0.8370  4.2959 -0.4019
  793MOL0     H 9373   2.357   8.489   9.162  1.3925 -0.3961  0.2666
  793MOL0     H 9374   2.369   8.438   9.325  0.3136  0.9637  0.8656
  793MOL0     H 9375   2.097   8.432   9.186 -1.4352  0.9216  1.3676
  793MOL0     H 9376   2.136   8.355   9.332  1.1348  4.0401  0.9721
  793MOL0     H 9377   2.280   8.279   9.058  0.5916  0.6075  0.2297
  793MOL0     H 9378   2.290   8.178   9.199  0.2298 -0.3731  1.2406
  793MOL0     H 9379   2.035   8.212   9.044 -1.3216  0.5279  0.5940
  793MOL0     H 9380   2.051   8.125   9.194  0.6922 -1.9250 -0.9163
  793MOL0     H 9381   2.193   8.043   8.932 -0.5962  1.2546  0.1089
  793MOL0     H 9382   2.196   7.969   9.090 -0.0627  0.0256 -0.7170
  793MOL0     H 9383   1.921   8.119   8.849 -2.6549  0.4090  1.0329
  793MOL0     H 9384   1.651   7.847   8.780 -1.0814  0.7264 -2.2349
  793MOL0     H 9385   1.717   7.972   8.685 -0.4611  0.1085  0.1742
  793MOL0     H 9386   1.617   8.029   8.965 -0.4054  4.2643  0.1871
  793MOL0     H 9387   1.657   8.145   8.840 -0.4838  0.7453 -2.7958
  793MOL0     H 9388   1.440   7.928   8.787  1.6499 -1.1881 -2.8996
  793MOL0     H 9389   1.410   8.091   8.845 -0.9076 -0.1701 -1.3988
  793MOL0     H 9390   1.533   8.151   8.618 -0.4504  0.4919  0.4143
  793MOL0     H 9391   1.508   7.985   8.583  2.2086  3.1421 -1.4271
  793MOL0     H 9392   1.205   8.142   8.375  0.6396 -0.0268 -0.0810
  793MOL0     H 9393   1.188   8.272   8.176 -1.1145 -0.4269  1.5217
  793MOL0     H 9394   1.205   8.453   8.183  1.7724  2.2335  3.1883
  793MOL0     H 9395   1.056   8.373   8.238 -0.1087 -0.0216  1.4788
  793MOL0     H 9396   1.272   8.926   8.664 -3.0272 -1.3606 -0.8204
  793MOL0     H 9397   1.243   9.167   8.599  0.4231  0.7045 -0.6440
  793MOL0     H 9398   1.195   9.428   8.462 -1.5189 -0.0962 -4.6343
  793MOL0     H 9399   1.350   9.353   8.515  2.7642  0.1833 -1.0370
  793MOL0     H 9400   1.460   9.426   8.315 -0.3345 -0.6550 -0.0120
  793MOL0     H 9401   1.328   9.506   8.256  0.3551 -3.8496 -1.0621
  793MOL0     H 9402   1.457   9.546   8.529 -0.2196 -1.2236 -0.5425
  793MOL0     H 9403   1.311   9.639   8.467 -1.3436 -1.7840 -1.1086
  793MOL0     H 9404   1.471   9.707   8.268  0.4194 -1.6008 -1.6216
  793MOL0     H 9405   1.603   9.623   8.357  0.1077  2.4982  2.6726
  793MOL0     H 9406   1.459   9.856   8.479  2.2866  2.4975  1.5666
  793MOL0     H 9407   1.562   9.752   8.559 -2.1052  1.6191  1.0193
  793MOL0     H 9408   1.639   9.897   8.300  3.3731  0.5315 -0.8102
  793MOL0     H 9409   1.743   9.789   8.377  0.6141  1.5191 -2.2443
  793MOL0     H 9410   1.780  10.033   8.393 -3.5618 -0.7085 -4.0863
  793MOL0     H 9411   1.773   9.955   8.557  1.2558  1.7003 -0.6153
  793MOL0     H 9412   1.516  10.077   8.423 -1.7830  0.1387  1.1369
  793MOL0     H 9413   1.631  10.180   8.483 -0.4031 -0.0691  0.6273
  793MOL0     H 9414   1.236   9.065   8.194 -1.6855 -2.0355 -0.8262
  793MOL0     H 9415   1.255   8.832   8.234 -1.7640  1.6932 -0.9856
  793MOL0     H 9416   1.340   8.537   8.644  0.8745 -0.5532  0.4836
  793MOL0     H 9417   1.359   8.300   8.738  3.2283  0.4210 -0.0753
  793MOL0     H 9418   2.732   8.679   9.507  0.7754  3.3105  1.0870
  793MOL0     H 9419   2.890   8.640   9.672  0.2939 -1.0100  0.1724
  793MOL0     H 9420   2.968   8.674  10.158  2.5520  1.8249  0.2351
  793MOL0     H 9421   3.178   8.642  10.284  2.9193 -1.1381 -1.1332
  793MOL0     H 9422   3.251   8.251  10.400 -0.4545  1.0042  2.2491
  793MOL0     H 9423   3.416   8.276  10.375 -1.0373  0.9719 -0.0000
  793MOL0     H 9424   3.345   8.291  10.610 -5.5541 -1.2345  2.4678
  793MOL0     H 9425   3.205   8.395  10.571 -0.3028  1.8523 -0.6635
  793MOL0     H 9426   3.490   8.500  10.534 -0.3314  2.4041 -0.6388
  793MOL0     H 9427   3.328   8.583  10.526 -2.3964 -2.1776  0.8438
  793MOL0     H 9428   3.435   8.648  10.724 -0.1509 -1.0328  0.5919
  793MOL0     H 9429   3.449   8.475  10.776 -0.3571 -1.4340 -0.5052
  793MOL0     H 9430   3.029   8.637  10.815  1.5053  3.3874  1.7265
  793MOL0     H 9431   3.183   8.229  10.200  1.2421  0.8859  1.4677
  793MOL0     H 9432   3.007   8.249   9.914  5.1343  0.4538  1.3476
  793MOL0     H 9433   3.039   8.146  10.039  2.0706  2.1833  1.4988
  793MOL0     H 9434   2.868   8.191  10.030 -0.3906 -2.0108 -1.2167
  794MOL0     O 9435   9.645   9.672  11.129 -1.0058  0.4152  0.2854
  794MOL0     C 9436   9.733   9.608  11.182 -0.0579 -0.8119 -0.4251
  794MOL0     O 9437   9.864   9.645  11.201 -0.6580 -0.5617  0.2178
  794MOL0     C 9438   9.933   9.749  11.128 -0.2712 -0.4652  0.0665
  794MOL0     C 9439  10.068   9.725  11.120  0.9228 -1.3178 -0.1957
  794MOL0     C 9440  10.149   9.825  11.067  0.2503 -0.5026 -0.2829
  794MOL0     C 9441  10.095   9.945  11.019 -0.0366 -0.3817 -0.0184
  794MOL0     O 9442  10.182  10.031  10.952 -0.2385  0.0912 -0.2369
  794MOL0     C 9443  10.239  10.129  11.032  0.2602  1.0098  1.2978
  794MOL0     C 9444  10.383  10.150  10.999  0.3603 -0.5636  0.3787
  794MOL0     C 9445  10.406  10.176  10.855  0.2899 -1.0118  0.3553
  794MOL0     C 9446  10.437  10.051  10.779 -0.3170  0.3602 -0.1805
  794MOL0     C 9447  10.452  10.078  10.631  0.0814 -0.7925 -0.2457
  794MOL0     C 9448  10.468   9.961  10.534 -0.4274 -0.8581 -0.3437
  794MOL0     C 9449  10.441  10.006  10.390 -0.7625 -0.5635 -0.2928
  794MOL0     C 9450  10.558  10.061  10.302  0.0616  0.4116  0.4873
  794MOL0     N 9451  10.531  10.063  10.155 -0.4952  0.2160  0.9495
  794MOL0     C 9452  10.410  10.039  10.093 -0.6349  0.5264  0.4849
  794MOL0     C 9453  10.447  10.018   9.959  0.3809 -0.7453 -0.1976
  794MOL0     C 9454  10.375   9.983   9.829  0.1007  0.2766  0.2209
  794MOL0     C 9455  10.389  10.101   9.732 -0.7338  0.4660 -0.2606
  794MOL0     C 9456  10.253  10.122   9.659  0.1233  0.7126 -1.2080
  794MOL0     C 9457  10.150  10.215   9.724 -0.3104  0.0926  0.0421
  794MOL0     O 9458  10.031  10.201   9.639  0.1450 -0.2372 -0.4393
  794MOL0     C 9459   9.942  10.303   9.627  0.2444  0.3417  0.4767
  794MOL0     C 9460   9.836  10.280   9.540  1.3172 -0.2535 -0.0215
  794MOL0     C 9461   9.741  10.380   9.523 -0.5617 -0.1879  0.4646
  794MOL0     C 9462   9.633  10.343   9.418  0.3250  0.6883 -0.3369
  794MOL0     C 9463   9.732  10.492   9.602  0.7351 -1.0478  0.8324
  794MOL0     C 9464   9.636  10.601   9.589 -0.6065 -0.0638 -0.3158
  794MOL0     O 9465   9.643  10.694   9.684  0.1775  0.0507 -0.5633
  794MOL0     C 9466   9.551  10.801   9.678 -0.5018  0.9436  0.2133
  794MOL0     C 9467   9.599  10.929   9.677 -0.3751 -0.0543 -0.0249
  794MOL0     C 9468   9.509  11.034   9.686 -0.0924 -0.0178  0.6502
  794MOL0     C 9469   9.374  11.017   9.684 -0.2187  0.6632  0.5107
  794MOL0     O 9470   9.297  11.127   9.671  0.3853  0.8229  0.1545
  794MOL0     C 9471   9.190  11.121   9.577  0.9287  0.4281 -0.1880
  794MOL0     C 9472   9.230  11.180   9.434 -0.3962  0.3732  0.4047
  794MOL0     C 9473   9.241  11.333   9.435 -0.6774 -0.8389  0.0556
  794MOL0     C 9474   9.110  11.410   9.406  0.2849 -0.4795  0.3897
  794MOL0     C 9475   8.988  11.390   9.494 -0.1578 -0.5766  1.2148
  794MOL0     C 9476   8.872  11.476   9.443 -0.6683 -0.0667 -0.3957
  794MOL0     C 9477   8.741  11.432   9.513  0.3825 -0.5569 -0.7787
  794MOL0     C 9478   8.621  11.510   9.454 -0.5308 -1.0752 -0.2063
  794MOL0    Cl 9479   8.474  11.417   9.483  0.3285 -0.4913  0.0977
  794MOL0     C 9480   9.332  10.886   9.692 -0.1604 -0.1858 -0.1688
  794MOL0     C 9481   9.417  10.773   9.678 -0.7700  0.1977 -1.1875
  794MOL0     O 9482   9.563  10.613   9.490 -0.0014  0.4124  0.4448
  794MOL0     C 9483   9.845  10.514   9.683 -0.7448 -0.5826 -0.6221
  794MOL0     C 9484   9.947  10.421   9.700  0.1170  0.6220  0.3695
  794MOL0     N 9485  10.584  10.026   9.953 -0.1243 -0.0685 -0.8161
  794MOL0     N 9486  10.632  10.062  10.064 -0.5274  0.0743 -0.3420
  794MOL0     C 9487   9.958   9.973  11.031 -0.5093  0.5168  0.5512
  794MOL0     C 9488   9.878   9.869  11.080  0.4551  0.1435 -0.6174
  794MOL0     C 9489   9.701   9.486  11.254  0.0683 -0.9178 -1.4691
  794MOL0     C 9490   9.800   9.421  11.335 -0.1428 -0.4359  1.0668
  794MOL0     C 9491   9.773   9.299  11.415 -0.3868 -0.4819 -0.3144
  794MOL0     C 9492   9.656   9.236  11.392  1.0625  0.1861  0.1594
  794MOL0     O 9493   9.607   9.122  11.447 -0.4184 -0.0280  0.4888
  794MOL0     C 9494   9.712   9.020  11.447  0.2334 -0.2504  0.6715
  794MOL0     C 9495   9.663   8.890  11.518 -0.8750 -0.6136  0.7837
  794MOL0     C 9496   9.776   8.779  11.510  0.5252  0.1284 -0.7934
  794MOL0     C 9497   9.737   8.648  11.596  0.5774  1.2838 -0.3603
  794MOL0     C 9498   9.597   8.605  11.560 -0.5482 -0.1775  0.3080
  794MOL0     C 9499   9.481   8.576  11.536  0.8505 -0.9041  0.7763
  794MOL0     C 9500   9.561   9.304  11.315  0.2394  1.2798  0.0411
  794MOL0     C 9501   9.581   9.413  11.238 -0.1067  0.6415 -0.2779
  794MOL0     C 9502   9.478   9.444  11.135  0.1217 -0.1064 -0.1450
  794MOL0     H 9503  10.126   9.651  11.175  0.5102 -0.1118  1.9565
  794MOL0     H 9504  10.251   9.791  11.048  0.1789 -1.8449  1.4592
  794MOL0     H 9505  10.219  10.101  11.136 -2.9256  1.9811  1.0600
  794MOL0     H 9506  10.190  10.225  11.013 -0.6590  0.2745 -0.3511
  794MOL0     H 9507  10.418  10.241  11.049 -0.6089  0.6578 -1.1018
  794MOL0     H 9508  10.442  10.063  11.031 -0.3868 -1.0739  0.3917
  794MOL0     H 9509  10.324  10.231  10.810  1.3090 -0.5279 -0.9666
  794MOL0     H 9510  10.494  10.241  10.847  0.1867 -0.8582  0.4581
  794MOL0     H 9511  10.533  10.018  10.820 -0.5358  2.3335  2.0941
  794MOL0     H 9512  10.356   9.979  10.795  2.7960 -3.4793 -0.0974
  794MOL0     H 9513  10.524  10.159  10.618  0.7953 -1.5890 -1.5715
  794MOL0     H 9514  10.355  10.122  10.607  1.1794  1.9260  0.0489
  794MOL0     H 9515  10.553   9.896  10.559 -0.9447 -0.7031  2.1066
  794MOL0     H 9516  10.380   9.897  10.550 -0.1153 -1.2431 -0.1528
  794MOL0     H 9517  10.359  10.078  10.395 -0.9405 -0.6630 -1.4733
  794MOL0     H 9518  10.407   9.914  10.341 -0.0797  0.0625 -2.0272
  794MOL0     H 9519  10.567  10.167  10.326  0.7574  1.0979 -2.4784
  794MOL0     H 9520  10.650  10.003  10.317 -1.1315 -1.3616  1.4738
  794MOL0     H 9521  10.319  10.022  10.150  0.8412 -5.5305  1.7356
  794MOL0     H 9522  10.271   9.955   9.851  0.2903 -0.7522 -0.1389
  794MOL0     H 9523  10.418   9.892   9.787  3.0634  1.3396  0.7597
  794MOL0     H 9524  10.406  10.200   9.775  0.4241 -0.6839  2.0725
  794MOL0     H 9525  10.465  10.077   9.657  2.2382 -3.4602  3.5369
  794MOL0     H 9526  10.282  10.164   9.563  2.3300 -1.7842 -1.7468
  794MOL0     H 9527  10.203  10.025   9.652  1.1731  0.0204  0.3309
  794MOL0     H 9528  10.131  10.178   9.825 -0.0354 -1.5702 -0.4870
  794MOL0     H 9529  10.194  10.315   9.731  1.5143 -0.5531 -1.3275
  794MOL0     H 9530   9.804  10.186   9.495 -0.4341  1.2449 -2.1286
  794MOL0     H 9531   9.632  10.237   9.390  0.1275  0.7330 -0.5003
  794MOL0     H 9532   9.661  10.399   9.328  3.1392  0.7356  0.4703
  794MOL0     H 9533   9.531  10.364   9.451  0.0426  1.3976 -1.5748
  794MOL0     H 9534   9.707  10.930   9.689 -0.3985 -2.4909  1.1171
  794MOL0     H 9535   9.550  11.133   9.703  1.6892 -0.3828 -1.0774
  794MOL0     H 9536   9.139  11.024   9.575  1.2280  0.2746 -0.3852
  794MOL0     H 9537   9.115  11.192   9.613  1.1111 -0.9816  3.3333
  794MOL0     H 9538   9.327  11.136   9.409 -1.8237 -1.6471 -2.0705
  794MOL0     H 9539   9.159  11.161   9.353 -2.8124 -1.2266  2.6973
  794MOL0     H 9540   9.308  11.370   9.357  0.5339  0.6519  1.7167
  794MOL0     H 9541   9.301  11.369   9.519 -0.6904  3.5097 -1.5346
  794MOL0     H 9542   9.082  11.391   9.302 -0.8811 -0.9447  0.7677
  794MOL0     H 9543   9.124  11.516   9.428  1.4722 -0.2826 -1.1580
  794MOL0     H 9544   8.957  11.285   9.486  5.9737 -2.7329  0.6693
  794MOL0     H 9545   9.011  11.400   9.600  3.6058 -1.2200  0.6011
  794MOL0     H 9546   8.854  11.484   9.336 -2.7721  2.8611  0.0539
  794MOL0     H 9547   8.889  11.578   9.478 -0.2194 -0.3738  0.3007
  794MOL0     H 9548   8.732  11.441   9.622 -2.3551 -2.5709 -0.7325
  794MOL0     H 9549   8.722  11.327   9.488 -2.1407 -0.1279 -0.9732
  794MOL0     H 9550   8.630  11.516   9.345  0.6786 -2.4728 -0.2226
  794MOL0     H 9551   8.626  11.611   9.497  1.2731 -1.4019  0.4604
  794MOL0     H 9552   9.225  10.871   9.682 -0.9493  0.8771  4.2969
  794MOL0     H 9553   9.368  10.676   9.682 -2.9019  1.2371  1.1025
  794MOL0     H 9554   9.850  10.605   9.740  0.2498 -0.9675 -0.0717
  794MOL0     H 9555  10.023  10.450   9.771  2.1349  1.6510 -2.0653
  794MOL0     H 9556   9.923  10.075  11.020 -0.5128  0.4377 -0.2328
  794MOL0     H 9557   9.774   9.897  11.094  0.2942 -1.6956  3.5268
  794MOL0     H 9558   9.896   9.469  11.347  0.9815 -2.6276  1.4204
  794MOL0     H 9559   9.834   9.270  11.500 -0.1596 -2.2031 -1.0287
  794MOL0     H 9560   9.753   9.011  11.345 -0.9438 -1.3401  0.2687
  794MOL0     H 9561   9.796   9.040  11.514 -0.8955 -1.5285  2.5355
  794MOL0     H 9562   9.577   8.863  11.456 -0.8709  3.7063 -1.4662
  794MOL0     H 9563   9.640   8.903  11.624 -1.6224 -2.7988  0.9467
  794MOL0     H 9564   9.792   8.740  11.408 -0.4368 -1.1051 -0.4957
  794MOL0     H 9565   9.866   8.832  11.542  0.5196  1.1225 -2.2978
  794MOL0     H 9566   9.758   8.657  11.703 -2.8070 -0.8863  0.6590
  794MOL0     H 9567   9.795   8.559  11.570  1.2782  1.8077 -0.6109
  794MOL0     H 9568   9.379   8.553  11.512 -0.0915  2.8184  0.5957
  794MOL0     H 9569   9.471   9.245  11.301  0.2709  0.3254  3.0466
  794MOL0     H 9570   9.531   9.462  11.041  2.1258  0.4541  1.0347
  794MOL0     H 9571   9.401   9.370  11.109 -0.8135  1.3017 -1.5501
  794MOL0     H 9572   9.428   9.536  11.164  0.8493 -0.4350  2.3606
  795MOL0     O 9573   6.638   4.670   1.172 -0.5589 -0.2391 -0.1002
  795MOL0     C 9574   6.594   4.783   1.182  0.3144 -0.5166 -0.2058
  795MOL0     O 9575   6.657   4.889   1.257  0.3072 -0.5434 -0.6125
  795MOL0     C 9576   6.773   4.867   1.324 -0.7328  0.0152  0.1454
  795MOL0     C 9577   6.784   4.774   1.430  0.8763  0.5893 -1.0796
  795MOL0     C 9578   6.908   4.743   1.487 -0.3220 -0.1015 -0.3715
  795MOL0     C 9579   7.023   4.832   1.466  0.2222  0.4095 -1.2695
  795MOL0     O 9580   7.136   4.821   1.533 -0.7070 -0.3316 -1.0103
  795MOL0     C 9581   7.181   4.686   1.560 -0.6581  0.3499  0.7678
  795MOL0     C 9582   7.332   4.687   1.601  0.2471 -0.5141 -0.0269
  795MOL0     C 9583   7.344   4.802   1.705 -0.7717  0.0935 -0.1654
  795MOL0     C 9584   7.496   4.822   1.740  0.1906  0.6518 -0.1837
  795MOL0     C 9585   7.520   4.906   1.862 -0.3032 -1.0010 -0.6004
  795MOL0     C 9586   7.466   5.047   1.848  0.0297 -0.4999 -0.3746
  795MOL0     C 9587   7.476   5.120   1.980  0.5875 -0.0194 -1.1250
  795MOL0     C 9588   7.418   5.261   1.986 -0.1198 -0.9309  0.1276
  795MOL0     N 9589   7.490   5.339   1.886  0.1704 -0.4142  0.2038
  795MOL0     C 9590   7.615   5.401   1.884 -0.4635  0.0482  0.4481
  795MOL0     C 9591   7.630   5.468   1.764 -0.1770 -0.1991 -0.5682
  795MOL0     C 9592   7.762   5.540   1.734 -0.1032  0.3844 -1.1660
  795MOL0     C 9593   7.833   5.514   1.601  0.0411 -0.3606  0.1707
  795MOL0     C 9594   7.928   5.623   1.565 -0.0929  0.1166 -0.8376
  795MOL0     C 9595   7.987   5.594   1.434 -0.0897 -0.9358 -0.0708
  795MOL0     O 9596   8.052   5.712   1.385  0.8881 -0.2700  0.5632
  795MOL0     C 9597   8.134   5.700   1.279 -0.9739 -0.1940  0.3302
  795MOL0     C 9598   8.191   5.814   1.238  0.1863  0.1381  0.5395
  795MOL0     C 9599   8.295   5.809   1.136 -0.6731 -0.1985  0.0359
  795MOL0     C 9600   8.349   5.946   1.086  0.6931  0.6442 -0.8049
  795MOL0     C 9601   8.336   5.689   1.077 -0.7705 -0.3046 -0.8149
  795MOL0     C 9602   8.427   5.667   0.971  1.5001 -0.7909 -0.0029
  795MOL0     O 9603   8.436   5.537   0.916  0.5595  0.0620  0.3016
  795MOL0     C 9604   8.514   5.519   0.803 -0.3526  0.2688 -0.1341
  795MOL0     C 9605   8.589   5.399   0.801 -0.6922  0.4313  0.1886
  795MOL0     C 9606   8.671   5.367   0.698 -1.0492 -0.0130  0.5770
  795MOL0     C 9607   8.672   5.450   0.584  0.1465  0.2182  0.2245
  795MOL0     O 9608   8.735   5.420   0.471 -0.4335 -0.4679 -0.7375
  795MOL0     C 9609   8.808   5.298   0.466 -0.3609  0.1462  0.4168
  795MOL0     C 9610   8.876   5.290   0.333 -0.4767 -0.8408  0.7526
  795MOL0     C 9611   8.768   5.253   0.221  0.1632  1.1320 -0.6568
  795MOL0     C 9612   8.731   5.105   0.223 -0.1026 -0.7518 -0.4415
  795MOL0     C 9613   8.667   5.057   0.094  0.8371  0.3085  0.1111
  795MOL0     C 9614   8.517   5.080   0.080 -0.1006 -0.1404 -0.0000
  795MOL0     C 9615   8.457   5.019  -0.046 -0.7708  0.0241  0.7234
  795MOL0     C 9616   8.369   5.114  -0.123  0.4099  0.9775 -0.1375
  795MOL0    Cl 9617   8.458   5.257  -0.169  0.3393 -0.3975 -0.0019
  795MOL0     C 9618   8.598   5.569   0.583  0.1358 -0.7917 -0.5723
  795MOL0     C 9619   8.518   5.599   0.692 -0.2110 -0.5569 -0.4830
  795MOL0     O 9620   8.492   5.764   0.931 -0.2711  0.0037 -0.4242
  795MOL0     C 9621   8.274   5.575   1.139  0.0742 -0.4315  0.8439
  795MOL0     C 9622   8.171   5.573   1.223 -0.5597 -0.4595  0.0441
  795MOL0     N 9623   7.500   5.468   1.705  0.1237  0.3195  0.7532
  795MOL0     N 9624   7.426   5.379   1.770  0.4655 -0.3128 -0.2594
  795MOL0     C 9625   7.010   4.934   1.375  0.3194 -0.0427 -0.1752
  795MOL0     C 9626   6.887   4.952   1.303 -0.8688 -0.6106 -1.2332
  795MOL0     C 9627   6.474   4.802   1.092 -0.0838 -0.0490  0.7032
  795MOL0     C 9628   6.388   4.695   1.068  0.2836 -0.4283  0.2995
  795MOL0     C 9629   6.272   4.704   0.988  0.2279 -0.0571 -0.4042
  795MOL0     C 9630   6.237   4.825   0.925  0.8348  0.0086 -0.7324
  795MOL0     O 9631   6.138   4.821   0.833 -0.0386 -0.0385  0.3976
  795MOL0     C 9632   6.094   4.942   0.761 -0.3758 -0.0054  0.2727
  795MOL0     C 9633   6.035   4.913   0.624  0.2250 -0.6652  0.4601
  795MOL0     C 9634   5.943   5.029   0.576 -0.2243 -0.7481  0.5508
  795MOL0     C 9635   5.869   5.010   0.447  0.3345 -0.1087  0.1082
  795MOL0     C 9636   5.793   5.125   0.413  0.5914  0.1006  0.4027
  795MOL0     C 9637   5.723   5.220   0.386  1.1021 -0.9514  0.0468
  795MOL0     C 9638   6.322   4.937   0.950  0.0815  0.1209  0.4898
  795MOL0     C 9639   6.441   4.923   1.025 -0.0024  0.1312  0.9071
  795MOL0     C 9640   6.538   5.041   1.022 -0.1711  0.5061 -0.0313
  795MOL0     H 9641   6.705   4.704   1.453  3.0461 -0.9806  2.3504
  795MOL0     H 9642   6.914   4.655   1.551  0.2082  1.0413  1.2209
  795MOL0     H 9643   7.181   4.645   1.459  0.9841  0.7479  0.5715
  795MOL0     H 9644   7.122   4.636   1.637  3.2878 -3.4141  1.7033
  795MOL0     H 9645   7.358   4.587   1.637 -2.1415 -1.7154 -1.3873
  795MOL0     H 9646   7.398   4.711   1.517  1.8076 -1.0542  1.0028
  795MOL0     H 9647   7.309   4.900   1.670 -0.0518  0.4797  0.1616
  795MOL0     H 9648   7.286   4.788   1.797 -0.5901  0.4544  0.0101
  795MOL0     H 9649   7.541   4.723   1.749 -0.7334  0.3019  0.8989
  795MOL0     H 9650   7.545   4.848   1.646  1.4736 -4.0924 -1.0820
  795MOL0     H 9651   7.623   4.912   1.900 -1.1826  0.2514  1.8159
  795MOL0     H 9652   7.467   4.853   1.942 -0.0384  0.3609  0.5203
  795MOL0     H 9653   7.528   5.108   1.782 -1.7762  1.9691  0.0506
  795MOL0     H 9654   7.361   5.054   1.817 -0.3547 -1.5787  0.6237
  795MOL0     H 9655   7.581   5.137   2.006  0.0385  0.1228  1.1791
  795MOL0     H 9656   7.429   5.059   2.057  0.6761  0.7572 -0.4460
  795MOL0     H 9657   7.313   5.274   1.958  0.1132  1.3751  0.0676
  795MOL0     H 9658   7.441   5.320   2.075 -0.2295 -2.0584  0.9262
  795MOL0     H 9659   7.688   5.385   1.962 -1.1144 -1.9284  0.7047
  795MOL0     H 9660   7.833   5.522   1.816  0.1380  0.4583 -1.3595
  795MOL0     H 9661   7.737   5.646   1.749  0.0910  0.1987  0.8293
  795MOL0     H 9662   7.889   5.420   1.608 -0.1128 -0.3509  1.8737
  795MOL0     H 9663   7.753   5.524   1.527  0.1874  1.4083  0.2082
  795MOL0     H 9664   7.873   5.717   1.561 -0.6047 -0.0545  0.9922
  795MOL0     H 9665   8.005   5.637   1.641 -0.5540  0.2537 -0.3904
  795MOL0     H 9666   8.054   5.509   1.452  0.3379 -0.2627  1.6365
  795MOL0     H 9667   7.911   5.558   1.364 -0.9739  3.3459 -1.6433
  795MOL0     H 9668   8.167   5.913   1.274 -1.3830  0.4432 -1.1686
  795MOL0     H 9669   8.313   5.953   0.983 -1.3498  1.5879 -0.0885
  795MOL0     H 9670   8.458   5.949   1.089  0.6552  1.3540  0.1845
  795MOL0     H 9671   8.311   6.029   1.147 -0.8404 -0.3895 -0.2964
  795MOL0     H 9672   8.576   5.330   0.884 -1.6960  1.3900  0.8554
  795MOL0     H 9673   8.737   5.281   0.712  1.4497  1.9469  1.6335
  795MOL0     H 9674   8.887   5.291   0.541 -0.9724  0.6044  1.1159
  795MOL0     H 9675   8.736   5.217   0.482 -0.7311  0.7698  2.0573
  795MOL0     H 9676   8.932   5.381   0.311  1.7277 -1.6856  2.4798
  795MOL0     H 9677   8.953   5.214   0.350  1.6352 -0.5101 -4.9948
  795MOL0     H 9678   8.817   5.273   0.125 -1.9219  4.9764 -1.1125
  795MOL0     H 9679   8.676   5.311   0.225 -1.5976 -1.5243 -0.2700
  795MOL0     H 9680   8.673   5.076   0.311  0.0284 -1.5016 -0.5941
  795MOL0     H 9681   8.828   5.055   0.237  2.7236  3.2501 -3.2827
  795MOL0     H 9682   8.703   5.103   0.001 -1.5293  0.1557 -0.9759
  795MOL0     H 9683   8.696   4.953   0.075  0.6701  0.2509  0.1644
  795MOL0     H 9684   8.498   5.187   0.081  0.0993 -0.0797 -1.3894
  795MOL0     H 9685   8.455   5.044   0.162 -1.6981  0.8462 -0.7241
  795MOL0     H 9686   8.393   4.940  -0.004 -2.7130  1.5989  0.9059
  795MOL0     H 9687   8.524   4.980  -0.122 -0.3221 -1.7410  1.9627
  795MOL0     H 9688   8.285   5.134  -0.056  0.5807 -0.4208  0.5428
  795MOL0     H 9689   8.321   5.058  -0.204 -1.8049  3.2928 -0.5525
  795MOL0     H 9690   8.608   5.640   0.502  1.6065 -0.9327 -0.5435
  795MOL0     H 9691   8.454   5.687   0.687  0.4595 -0.1228 -2.1450
  795MOL0     H 9692   8.308   5.475   1.114  3.9644  1.2071 -1.3412
  795MOL0     H 9693   8.130   5.478   1.256  0.4911 -1.8777 -2.4491
  795MOL0     H 9694   7.086   5.010   1.361 -1.8784  3.2793  3.7446
  795MOL0     H 9695   6.879   5.032   1.231 -3.2308 -0.2935 -0.6974
  795MOL0     H 9696   6.406   4.599   1.115  0.7730 -0.8720 -0.7595
  795MOL0     H 9697   6.208   4.619   0.963 -1.0680  1.2260 -1.6065
  795MOL0     H 9698   6.027   4.993   0.831  2.0661  2.7193  0.8250
  795MOL0     H 9699   6.179   5.010   0.754 -0.4240  0.2414  1.7506
  795MOL0     H 9700   5.983   4.818   0.639  2.3042 -1.7747  0.9941
  795MOL0     H 9701   6.119   4.893   0.556 -1.4431 -2.2546 -1.2602
  795MOL0     H 9702   5.883   5.058   0.662 -1.0301 -0.0591 -0.2304
  795MOL0     H 9703   6.020   5.102   0.551 -0.9072 -0.6719 -1.5660
  795MOL0     H 9704   5.810   4.919   0.453 -0.3177  0.2593 -0.5185
  795MOL0     H 9705   5.948   4.983   0.376 -0.6091 -2.1496 -0.2456
  795MOL0     H 9706   5.670   5.313   0.388 -0.7475 -1.9478  2.0845
  795MOL0     H 9707   6.312   5.036   0.906  0.5148  0.9273  2.1482
  795MOL0     H 9708   6.637   5.006   1.054  0.6937  3.7864  1.2769
  795MOL0     H 9709   6.540   5.076   0.918 -2.1915  0.4946 -0.0992
  795MOL0     H 9710   6.507   5.125   1.084  0.7295  2.6334 -2.2754
  796MOL0     O 9711   1.622  11.010   0.845  0.0471  0.3058  0.6202
  796MOL0     C 9712   1.579  10.903   0.885 -0.2564  0.0008 -0.5228
  796MOL0     O 9713   1.518  10.805   0.813  0.1925 -0.5650 -0.2613
  796MOL0     C 9714   1.496  10.809   0.675 -1.1063 -0.1990 -0.2906
  796MOL0     C 9715   1.548  10.900   0.586 -0.2850 -0.8048  0.4046
  796MOL0     C 9716   1.501  10.893   0.448 -0.0644 -0.1699  0.7623
  796MOL0     C 9717   1.407  10.799   0.409 -0.5219 -0.3535  0.6884
  796MOL0     O 9718   1.347  10.820   0.286 -0.8223  0.4280 -0.6335
  796MOL0     C 9719   1.205  10.814   0.263  0.7157 -0.2566  1.1845
  796MOL0     C 9720   1.170  10.879   0.132  0.2158  0.0541  0.6809
  796MOL0     C 9721   1.017  10.893   0.124 -0.2155 -0.4047  0.0667
  796MOL0     C 9722   0.994  10.963  -0.013 -0.1559  0.0121  0.2124
  796MOL0     C 9723   0.845  10.955  -0.063  0.2797 -0.2942  1.0899
  796MOL0     C 9724   0.768  11.061   0.021  0.4077  0.2331  0.8303
  796MOL0     C 9725   0.642  11.100  -0.054  0.7848  1.0646 -0.2681
  796MOL0     C 9726   0.526  11.155   0.028 -0.0627 -0.9467 -0.4741
  796MOL0     N 9727   0.428  11.045   0.058 -0.0357  0.2185  0.1703
  796MOL0     C 9728   0.293  11.063   0.033  0.4978  0.7910  1.1438
  796MOL0     C 9729   0.222  10.972   0.097 -0.0829 -0.3127  0.3051
  796MOL0     C 9730   0.080  10.936   0.088  0.0941 -0.3905  1.4961
  796MOL0     C 9731   0.029  10.866   0.214  0.3610 -0.2707  0.1019
  796MOL0     C 9732  -0.125  10.846   0.197  0.4259  0.0880  0.7066
  796MOL0     C 9733  -0.179  10.751   0.307 -0.1801 -0.1440 -0.0023
  796MOL0     O 9734  -0.151  10.812   0.437  0.0308 -0.1593 -0.6397
  796MOL0     C 9735  -0.245  10.908   0.479 -0.7503  0.3604  0.3552
  796MOL0     C 9736  -0.221  10.959   0.602 -0.2824  1.0085 -0.1354
  796MOL0     C 9737  -0.294  11.063   0.653  0.1418  0.0497  0.1624
  796MOL0     C 9738  -0.232  11.120   0.780 -0.6858 -0.2782  0.2622
  796MOL0     C 9739  -0.403  11.109   0.580 -0.6036 -0.0099  0.7813
  796MOL0     C 9740  -0.482  11.227   0.620 -0.1963  0.0246 -0.5868
  796MOL0     O 9741  -0.586  11.270   0.531  0.0592  0.2312 -0.3561
  796MOL0     C 9742  -0.663  11.378   0.562  0.2172 -0.0154 -1.0340
  796MOL0     C 9743  -0.622  11.513   0.547 -0.5012  0.0454 -0.4614
  796MOL0     C 9744  -0.711  11.617   0.579 -0.4639  0.4401 -0.1033
  796MOL0     C 9745  -0.838  11.591   0.639 -0.7129 -0.8301 -0.5767
  796MOL0     O 9746  -0.911  11.699   0.675  0.1326 -0.0040 -0.2189
  796MOL0     C 9747  -1.051  11.691   0.676 -0.2356 -0.6862  0.6800
  796MOL0     C 9748  -1.100  11.830   0.691 -0.1845 -0.5529  0.2299
  796MOL0     C 9749  -1.253  11.822   0.685  0.5643 -0.1293  0.5706
  796MOL0     C 9750  -1.315  11.970   0.693 -0.0299  0.0763  0.1659
  796MOL0     C 9751  -1.464  11.988   0.706 -1.2724  0.7060 -0.2805
  796MOL0     C 9752  -1.546  11.920   0.588  0.1385  0.5807 -0.7454
  796MOL0     C 9753  -1.692  11.949   0.598  0.7967  1.2620 -1.0511
  796MOL0     C 9754  -1.768  11.944   0.476  0.7175  0.3269 -0.2363
  796MOL0    Cl 9755  -1.735  11.812   0.364 -0.0315 -0.4845 -0.1462
  796MOL0     C 9756  -0.866  11.459   0.660  0.1786  0.1904 -0.6373
  796MOL0     C 9757  -0.787  11.353   0.621  0.9961 -0.4095 -0.2899
  796MOL0     O 9758  -0.458  11.279   0.731 -1.2927  0.1277  0.0329
  796MOL0     C 9759  -0.435  11.053   0.455  0.7204  0.1048 -0.3637
  796MOL0     C 9760  -0.352  10.956   0.403  0.0991  0.1472 -0.1018
  796MOL0     N 9761   0.314  10.902   0.167  0.5869  0.3125  0.0969
  796MOL0     N 9762   0.438  10.939   0.138 -0.2267 -0.5359 -0.7066
  796MOL0     C 9763   1.372  10.692   0.496  0.2098 -0.4867 -0.0715
  796MOL0     C 9764   1.411  10.702   0.632 -0.4226  0.4731  0.1203
  796MOL0     C 9765   1.590  10.885   1.036 -0.1730  0.2142  1.0322
  796MOL0     C 9766   1.475  10.827   1.104 -0.0519 -0.3944  1.0255
  796MOL0     C 9767   1.492  10.796   1.237 -0.3534 -0.4010 -0.1685
  796MOL0     C 9768   1.596  10.843   1.318  0.2378  0.2956  0.1560
  796MOL0     O 9769   1.581  10.833   1.448 -0.9150 -0.0279  0.4748
  796MOL0     C 9770   1.655  10.713   1.499 -0.0917  0.2475  0.3682
  796MOL0     C 9771   1.665  10.716   1.654 -0.3195  0.0934 -0.3111
  796MOL0     C 9772   1.535  10.672   1.722  0.4838 -0.3611 -0.0896
  796MOL0     C 9773   1.550  10.658   1.878  0.3143  0.5715 -0.0607
  796MOL0     C 9774   1.571  10.786   1.943 -0.3061  0.9436 -0.5060
  796MOL0     C 9775   1.586  10.895   2.001 -0.2148  0.8385  0.7958
  796MOL0     C 9776   1.703  10.899   1.254 -0.2965  0.3114  0.1528
  796MOL0     C 9777   1.699  10.921   1.114 -0.8535 -1.2614 -0.0923
  796MOL0     C 9778   1.823  10.980   1.047 -0.4067 -0.2317 -0.0022
  796MOL0     H 9779   1.606  10.989   0.612  0.6341 -0.8814 -1.2317
  796MOL0     H 9780   1.522  10.963   0.368 -0.0125 -2.7768 -1.6762
  796MOL0     H 9781   1.157  10.876   0.339 -0.0734 -0.3160  0.7476
  796MOL0     H 9782   1.174  10.709   0.256  2.2906 -0.8137  1.9116
  796MOL0     H 9783   1.209  10.982   0.127  0.8265 -0.1450  1.2702
  796MOL0     H 9784   1.206  10.824   0.044 -2.6932  0.8219 -1.1371
  796MOL0     H 9785   0.981  10.790   0.128  0.7165 -0.9519 -2.9122
  796MOL0     H 9786   0.985  10.955   0.208  0.3267  1.3346 -0.9514
  796MOL0     H 9787   1.030  11.066  -0.011  0.3488 -0.1217 -1.0206
  796MOL0     H 9788   1.057  10.916  -0.089 -1.9299 -4.3587  1.1028
  796MOL0     H 9789   0.816  10.852  -0.046  1.0462 -1.2719 -2.5742
  796MOL0     H 9790   0.855  10.978  -0.170  0.9559 -0.7733  1.0404
  796MOL0     H 9791   0.725  11.023   0.114 -0.6098  2.6877  1.4475
  796MOL0     H 9792   0.826  11.154   0.023 -0.0137  0.6805 -2.1994
  796MOL0     H 9793   0.610  11.008  -0.105  1.4991  1.0691 -0.7311
  796MOL0     H 9794   0.664  11.173  -0.133  0.7781 -1.2989 -2.5952
  796MOL0     H 9795   0.573  11.189   0.120 -0.2639 -1.2599 -0.2545
  796MOL0     H 9796   0.465  11.228  -0.027 -2.0362 -0.8976  1.6493
  796MOL0     H 9797   0.245  11.123  -0.044 -0.8837 -3.2332 -1.5054
  796MOL0     H 9798   0.068  10.867   0.004 -1.4311 -1.4696  2.5384
  796MOL0     H 9799   0.014  11.021   0.069  1.8195  1.1420  2.0508
  796MOL0     H 9800   0.082  10.773   0.232  0.5180  0.1391  1.9694
  796MOL0     H 9801   0.043  10.927   0.304 -3.5405 -0.5430  1.0860
  796MOL0     H 9802  -0.174  10.943   0.204  0.1364  0.2699 -2.4676
  796MOL0     H 9803  -0.149  10.802   0.099 -1.7116  0.9502  0.8008
  796MOL0     H 9804  -0.284  10.731   0.285  0.1962 -0.1123 -2.0293
  796MOL0     H 9805  -0.127  10.655   0.307 -0.9423 -0.5623  0.3365
  796MOL0     H 9806  -0.137  10.922   0.660  0.7535  0.3527 -1.9827
  796MOL0     H 9807  -0.129  11.083   0.790 -0.9740 -1.2359 -0.2210
  796MOL0     H 9808  -0.285  11.091   0.871  0.1829  1.7570  1.4924
  796MOL0     H 9809  -0.236  11.229   0.782 -3.0203 -0.3096  2.0093
  796MOL0     H 9810  -0.521  11.527   0.510  0.0067 -1.3558  0.3641
  796MOL0     H 9811  -0.668  11.715   0.562  3.0546 -1.3127 -2.3974
  796MOL0     H 9812  -1.084  11.672   0.574  0.7275 -3.4741  0.7882
  796MOL0     H 9813  -1.095  11.631   0.757  0.1494  0.3815  1.7146
  796MOL0     H 9814  -1.066  11.867   0.788  0.2197  1.4248 -0.6325
  796MOL0     H 9815  -1.070  11.894   0.608 -3.9687  1.4822  0.2458
  796MOL0     H 9816  -1.282  11.766   0.774 -1.2730  0.3620  0.3288
  796MOL0     H 9817  -1.292  11.775   0.594  4.0251  0.2878 -1.3010
  796MOL0     H 9818  -1.270  12.020   0.607  1.1068  0.4921  0.9821
  796MOL0     H 9819  -1.271  12.023   0.777  2.4798  0.5178 -1.3281
  796MOL0     H 9820  -1.501  11.937   0.795 -0.6819 -1.6184 -1.2947
  796MOL0     H 9821  -1.486  12.095   0.714 -0.7463  0.8128 -0.2351
  796MOL0     H 9822  -1.528  11.812   0.590  0.5594  0.6173 -1.8643
  796MOL0     H 9823  -1.504  11.954   0.493  1.8470  1.4896  0.2822
  796MOL0     H 9824  -1.713  12.046   0.646 -0.6649  2.1947 -3.3976
  796MOL0     H 9825  -1.729  11.874   0.669  2.6111  0.8188 -0.5251
  796MOL0     H 9826  -1.750  12.038   0.423  0.8721 -0.0797 -0.9196
  796MOL0     H 9827  -1.875  11.960   0.492  0.6390 -1.2102  0.9616
  796MOL0     H 9828  -0.952  11.440   0.723 -0.1679  4.5760  0.5625
  796MOL0     H 9829  -0.816  11.250   0.637  2.3653 -0.6388  0.9002
  796MOL0     H 9830  -0.526  11.079   0.403 -0.7546 -1.9412  1.0242
  796MOL0     H 9831  -0.389  10.915   0.310  0.3445  0.6685 -0.4282
  796MOL0     H 9832   1.303  10.614   0.467  0.9332 -1.1134 -0.1152
  796MOL0     H 9833   1.368  10.632   0.702 -0.4964 -0.0040 -0.3926
  796MOL0     H 9834   1.391  10.803   1.039  1.1784  1.1614 -1.2588
  796MOL0     H 9835   1.418  10.744   1.297  0.8359 -0.4310  1.3283
  796MOL0     H 9836   1.591  10.628   1.473  0.8237 -0.6510  0.9824
  796MOL0     H 9837   1.752  10.691   1.454 -0.8073 -1.9792 -0.2540
  796MOL0     H 9838   1.706  10.809   1.696  1.1467  1.1848 -3.7749
  796MOL0     H 9839   1.739  10.643   1.687 -1.0943 -1.0236 -0.9767
  796MOL0     H 9840   1.448  10.734   1.700 -0.3439 -1.4559  0.0093
  796MOL0     H 9841   1.505  10.570   1.698  2.1537 -1.2796  1.4639
  796MOL0     H 9842   1.635  10.590   1.889 -1.5987 -1.7456  1.6199
  796MOL0     H 9843   1.463  10.613   1.926 -0.4758  1.9470 -0.1547
  796MOL0     H 9844   1.618  10.989   2.040  1.7499  0.6967 -0.3414
  796MOL0     H 9845   1.793  10.930   1.305 -2.3433  1.7975  3.1264
  796MOL0     H 9846   1.905  10.970   1.119 -2.0241 -1.2150  1.7890
  796MOL0     H 9847   1.853  10.936   0.951 -1.7824  1.3332 -1.2009
  796MOL0     H 9848   1.819  11.088   1.029  1.4483 -0.3533 -1.5076
  797MOL0     O 9849   7.634   1.863   5.636  0.2519 -0.7008  0.1743
  797MOL0     C 9850   7.523   1.909   5.644 -0.3101 -0.2423  0.0882
  797MOL0     O 9851   7.427   1.856   5.716  0.3190 -0.6152  0.1204
  797MOL0     C 9852   7.446   1.771   5.824  0.6268 -0.5535  0.5869
  797MOL0     C 9853   7.331   1.743   5.892 -0.2354  0.4506  0.1485
  797MOL0     C 9854   7.330   1.665   6.009 -0.6250 -0.5005 -0.4552
  797MOL0     C 9855   7.443   1.594   6.043 -0.0047 -0.3626 -0.0243
  797MOL0     O 9856   7.452   1.521   6.155 -0.7091 -0.4536 -0.1084
  797MOL0     C 9857   7.371   1.556   6.268 -0.2497  0.4469  0.8121
  797MOL0     C 9858   7.403   1.693   6.331  0.3736  0.6807  0.4062
  797MOL0     C 9859   7.555   1.704   6.365 -0.2219  0.0606 -0.3006
  797MOL0     C 9860   7.588   1.840   6.430  0.2638  0.2217 -1.7224
  797MOL0     C 9861   7.734   1.819   6.498 -0.2073  0.3888 -1.0264
  797MOL0     C 9862   7.772   1.947   6.565  0.4642 -0.0583  0.1333
  797MOL0     C 9863   7.762   2.086   6.482  0.7553 -0.1099 -0.4884
  797MOL0     C 9864   7.834   2.095   6.346 -0.6361 -0.8314  0.0179
  797MOL0     N 9865   7.837   2.230   6.287 -0.5875 -0.0734 -0.2213
  797MOL0     C 9866   7.738   2.320   6.282 -0.5250 -0.7637 -0.0763
  797MOL0     C 9867   7.799   2.428   6.228  0.2186 -0.3150 -0.8443
  797MOL0     C 9868   7.744   2.565   6.206 -0.0228  0.1248 -0.4006
  797MOL0     C 9869   7.776   2.666   6.321  0.6455 -0.6002 -0.6095
  797MOL0     C 9870   7.708   2.807   6.277  0.0423  0.1589 -0.4125
  797MOL0     C 9871   7.709   2.909   6.388 -0.6205  1.2304 -0.0138
  797MOL0     O 9872   7.839   2.907   6.450  0.0004 -0.2041  0.1934
  797MOL0     C 9873   7.849   3.004   6.545 -0.3770 -0.2648  0.6682
  797MOL0     C 9874   7.735   3.075   6.608 -0.2272 -0.3157 -1.4197
  797MOL0     C 9875   7.765   3.177   6.704 -0.5277  0.5246  0.2387
  797MOL0     C 9876   7.644   3.259   6.762  1.2233  0.1708 -0.9520
  797MOL0     C 9877   7.901   3.204   6.754 -0.7612  0.0999  0.8789
  797MOL0     C 9878   7.950   3.298   6.852  0.0753  0.4532 -0.5238
  797MOL0     O 9879   8.073   3.279   6.902  0.5582 -0.1617 -0.0330
  797MOL0     C 9880   8.109   3.350   7.016  0.0403  0.3094 -0.1332
  797MOL0     C 9881   8.198   3.458   7.007 -1.1613  0.1632  0.5698
  797MOL0     C 9882   8.227   3.537   7.115 -0.6948 -0.9468  1.0741
  797MOL0     C 9883   8.188   3.499   7.240 -0.4550 -0.7815  0.6080
  797MOL0     O 9884   8.200   3.591   7.343  0.3964 -0.5130  0.0074
  797MOL0     C 9885   8.317   3.554   7.425  0.4058  1.0323  0.0491
  797MOL0     C 9886   8.348   3.664   7.523 -0.0425  0.6429 -1.0609
  797MOL0     C 9887   8.240   3.670   7.646  0.3409 -0.4595 -0.0714
  797MOL0     C 9888   8.289   3.734   7.772 -0.4310  0.8149 -0.7197
  797MOL0     C 9889   8.169   3.729   7.866  0.1875 -0.2267 -0.1225
  797MOL0     C 9890   8.219   3.725   8.009  0.2205  0.4217 -0.6819
  797MOL0     C 9891   8.109   3.704   8.113 -0.1988 -0.3177  0.1598
  797MOL0     C 9892   8.160   3.667   8.252  0.7936  0.2067  0.2937
  797MOL0    Cl 9893   8.044   3.672   8.383 -0.0394  0.4329 -0.2602
  797MOL0     C 9894   8.106   3.382   7.261  1.0787 -0.5870  0.4060
  797MOL0     C 9895   8.074   3.302   7.146 -0.8084  0.1406  0.4669
  797MOL0     O 9896   7.875   3.393   6.874 -0.0690 -0.3999  1.2724
  797MOL0     C 9897   8.007   3.129   6.684  0.1914 -0.0269 -0.4621
  797MOL0     C 9898   7.974   3.039   6.584 -1.1600 -0.1151  0.5788
  797MOL0     N 9899   7.939   2.397   6.201  0.3977 -0.1789  0.1184
  797MOL0     N 9900   7.951   2.278   6.244 -0.0820 -0.3190  0.0849
  797MOL0     C 9901   7.556   1.610   5.973  0.1166  0.4658 -0.2111
  797MOL0     C 9902   7.560   1.703   5.866 -0.3722 -0.8341 -0.0901
  797MOL0     C 9903   7.475   2.036   5.569 -1.3257  0.1050 -0.0705
  797MOL0     C 9904   7.345   2.077   5.580  0.5316  0.3253 -0.3935
  797MOL0     C 9905   7.291   2.181   5.500  0.4609  0.4969  0.3427
  797MOL0     C 9906   7.375   2.249   5.407  0.7361  0.0943  0.2715
  797MOL0     O 9907   7.316   2.345   5.330  0.1752 -0.5574 -0.2128
  797MOL0     C 9908   7.402   2.452   5.281  0.5380  0.6066  0.6108
  797MOL0     C 9909   7.490   2.522   5.386 -0.1307  0.4688 -0.5032
  797MOL0     C 9910   7.575   2.633   5.325  0.3905  0.1731 -0.4202
  797MOL0     C 9911   7.506   2.762   5.282  0.2722 -0.1611 -0.2598
  797MOL0     C 9912   7.432   2.794   5.402 -0.8759  0.1156  0.4174
  797MOL0     C 9913   7.375   2.810   5.508 -0.3251 -0.2907  0.1965
  797MOL0     C 9914   7.505   2.202   5.398 -0.9645 -0.4773 -0.3476
  797MOL0     C 9915   7.565   2.099   5.472  0.6031  0.0886 -0.1318
  797MOL0     C 9916   7.710   2.070   5.454  0.2791 -0.0674  0.2811
  797MOL0     H 9917   7.238   1.794   5.864 -0.1875 -0.1400 -1.1568
  797MOL0     H 9918   7.236   1.640   6.057  0.2489  0.2512  1.8013
  797MOL0     H 9919   7.386   1.480   6.346 -0.5153 -0.8587 -0.3616
  797MOL0     H 9920   7.264   1.543   6.249 -0.1740 -2.1753  1.7172
  797MOL0     H 9921   7.365   1.770   6.263  0.1210  0.7181  0.5882
  797MOL0     H 9922   7.341   1.691   6.421 -0.7730 -2.4096 -0.3136
  797MOL0     H 9923   7.579   1.615   6.425  2.2691 -1.1141 -2.8329
  797MOL0     H 9924   7.621   1.695   6.279  0.3595  3.6218 -0.3787
  797MOL0     H 9925   7.579   1.921   6.357 -2.9240  2.8382  1.2026
  797MOL0     H 9926   7.511   1.865   6.503  0.6114  2.4303 -2.0173
  797MOL0     H 9927   7.807   1.789   6.422 -0.7586 -1.2994 -0.9278
  797MOL0     H 9928   7.726   1.741   6.574 -0.9161  2.2322  0.8763
  797MOL0     H 9929   7.693   1.960   6.640  1.0223 -0.5369  0.8239
  797MOL0     H 9930   7.868   1.925   6.614 -0.5348  1.1118  2.7843
  797MOL0     H 9931   7.788   2.164   6.554 -3.8586 -1.8050  3.5624
  797MOL0     H 9932   7.653   2.094   6.480  0.5505 -2.2507 -0.0398
  797MOL0     H 9933   7.937   2.060   6.356 -0.9070 -1.6474 -0.0154
  797MOL0     H 9934   7.786   2.018   6.287 -2.1356  0.3324 -0.3361
  797MOL0     H 9935   7.643   2.326   6.333  0.5644  1.3937  1.9057
  797MOL0     H 9936   7.636   2.550   6.199 -0.0978 -2.3408  3.2748
  797MOL0     H 9937   7.775   2.606   6.109 -0.3199  0.2842 -0.4322
  797MOL0     H 9938   7.722   2.630   6.409 -0.7450  0.9855 -0.7439
  797MOL0     H 9939   7.881   2.692   6.339  0.1675  0.6338  0.6737
  797MOL0     H 9940   7.763   2.848   6.192 -2.2230  1.3374 -1.3736
  797MOL0     H 9941   7.608   2.797   6.236  0.0606 -0.6210 -0.2926
  797MOL0     H 9942   7.698   3.009   6.344  1.1352  1.1052 -0.8220
  797MOL0     H 9943   7.623   2.889   6.452  0.5297 -1.8266  0.7541
  797MOL0     H 9944   7.631   3.072   6.579 -0.7095  2.5695 -0.2920
  797MOL0     H 9945   7.551   3.218   6.723 -0.0967  1.8254  0.3375
  797MOL0     H 9946   7.654   3.361   6.724 -1.4599  1.6860  1.9154
  797MOL0     H 9947   7.640   3.260   6.872 -0.7541 -0.5719 -0.9828
  797MOL0     H 9948   8.226   3.492   6.908  1.0745 -2.8357  0.0569
  797MOL0     H 9949   8.291   3.621   7.091  1.2933 -3.4003 -3.4871
  797MOL0     H 9950   8.305   3.457   7.474 -0.1898  0.2317 -1.6175
  797MOL0     H 9951   8.395   3.544   7.349 -0.2865 -1.1936 -0.4388
  797MOL0     H 9952   8.443   3.647   7.576 -2.0296 -2.2808  1.9473
  797MOL0     H 9953   8.348   3.760   7.471  0.7486  1.2622  0.0485
  797MOL0     H 9954   8.198   3.570   7.665 -0.0659 -0.7232 -2.0853
  797MOL0     H 9955   8.157   3.729   7.606  1.0027  1.8827  1.7859
  797MOL0     H 9956   8.318   3.839   7.761 -0.2816  0.8468 -0.0836
  797MOL0     H 9957   8.370   3.668   7.803 -1.5829 -0.9634 -1.3203
  797MOL0     H 9958   8.107   3.819   7.861  0.7302  0.1202 -0.7924
  797MOL0     H 9959   8.103   3.644   7.844  0.4567 -0.5721  0.3777
  797MOL0     H 9960   8.266   3.822   8.028 -0.6479  0.6476  0.4149
  797MOL0     H 9961   8.291   3.643   8.018  0.8651  0.7530 -2.4451
  797MOL0     H 9962   8.047   3.624   8.071 -1.9084 -0.7360  3.1300
  797MOL0     H 9963   8.055   3.799   8.117  1.5810  0.8497 -1.8554
  797MOL0     H 9964   8.242   3.729   8.290 -1.7997  1.9439  3.4743
  797MOL0     H 9965   8.203   3.568   8.233  0.7204  0.3819 -0.8587
  797MOL0     H 9966   8.055   3.366   7.356 -0.9997  3.6296  0.2494
  797MOL0     H 9967   8.020   3.208   7.136 -0.7193  0.2056 -0.7306
  797MOL0     H 9968   8.113   3.144   6.701  1.0363 -1.1137 -3.8924
  797MOL0     H 9969   8.047   2.981   6.528 -2.7215  1.1414 -3.0666
  797MOL0     H 9970   7.638   1.547   6.004 -0.7414 -0.9987 -0.7756
  797MOL0     H 9971   7.663   1.721   5.837  0.6889 -0.1795  3.5940
  797MOL0     H 9972   7.283   2.042   5.662  1.0163  3.3598  1.4292
  797MOL0     H 9973   7.185   2.203   5.510 -0.7693 -4.1846 -0.0895
  797MOL0     H 9974   7.463   2.405   5.203 -0.6372 -1.0630  0.6318
  797MOL0     H 9975   7.340   2.523   5.226  0.6830 -1.5359 -2.6086
  797MOL0     H 9976   7.554   2.453   5.441 -0.2908  2.4707  2.4495
  797MOL0     H 9977   7.416   2.563   5.456 -2.1090  4.3838 -4.3996
  797MOL0     H 9978   7.645   2.673   5.400 -2.3929  1.4426  1.6821
  797MOL0     H 9979   7.639   2.589   5.248  1.4219 -0.0608  0.5347
  797MOL0     H 9980   7.439   2.744   5.198  1.5187  1.7497 -1.7367
  797MOL0     H 9981   7.567   2.846   5.247  0.4602  1.3304  3.2506
  797MOL0     H 9982   7.322   2.831   5.598 -1.5025 -1.6849 -0.1368
  797MOL0     H 9983   7.569   2.234   5.316 -0.3035  0.2902  0.4427
  797MOL0     H 9984   7.766   2.136   5.388  1.0825  3.6341  4.2300
  797MOL0     H 9985   7.765   2.077   5.548  2.2416 -3.6757 -0.4137
  797MOL0     H 9986   7.724   1.972   5.408  4.1757  0.5405 -0.0965
  798MOL0     O 9987  10.131  10.326   4.979 -0.6091  0.6549  0.7034
  798MOL0     C 9988  10.247  10.337   4.945  0.5321  0.1625  0.0189
  798MOL0     O 9989  10.295  10.442   4.869 -0.8535  0.6741  0.1191
  798MOL0     C 9990  10.223  10.554   4.833 -0.9008 -0.5790 -0.4563
  798MOL0     C 9991  10.109  10.554   4.756  1.0452  0.3672  0.4655
  798MOL0     C 9992  10.030  10.677   4.742  0.1388  0.5584  1.1034
  798MOL0     C 9993  10.085  10.789   4.802  0.6152  0.4974  0.4436
  798MOL0     O 9994  10.024  10.917   4.799 -1.1068  1.0010 -0.3965
  798MOL0     C 9995   9.910  10.942   4.719  0.0852  1.0134 -0.0277
  798MOL0     C 9996   9.777  10.897   4.782 -0.0015  0.3829 -0.4151
  798MOL0     C 9997   9.766  10.871   4.936  0.3132 -0.3872  1.3126
  798MOL0     C 9998   9.800  10.995   5.020 -0.8973 -0.7215  0.4034
  798MOL0     C 9999   9.744  10.993   5.163 -0.2879 -0.3915 -0.4914
  798MOL0     C10000   9.830  10.901   5.249  1.0941  0.3222  0.1934
  798MOL0     C10001   9.790  10.912   5.399 -1.1062  0.1466  0.2829
  798MOL0     C10002   9.880  10.832   5.479  0.0350  0.2643 -0.1190
  798MOL0     N10003   9.998  10.904   5.526 -0.5675 -0.0964  0.8067
  798MOL0     C10004  10.109  10.906   5.444  0.4574 -0.2278  0.1847
  798MOL0     C10005  10.184  10.995   5.505  0.0326 -0.1119 -0.1187
  798MOL0     C10006  10.324  11.040   5.457 -0.0586  0.4091  0.6589
  798MOL0     C10007  10.444  10.950   5.497 -0.4316 -0.3621  0.5609
  798MOL0     C10008  10.570  11.000   5.429  0.5285  0.4775 -0.2409
  798MOL0     C10009  10.696  10.941   5.497 -0.2119 -0.2419  1.0270
  798MOL0     O10010  10.717  10.807   5.453  0.0741 -0.3368 -0.3757
  798MOL0     C10011  10.845  10.793   5.423  0.1693  0.9406 -0.0139
  798MOL0     C10012  10.880  10.763   5.293  0.0222  0.3121 -0.1825
  798MOL0     C10013  11.013  10.757   5.246 -0.8532  0.7080  0.3607
  798MOL0     C10014  11.032  10.734   5.096  0.0976  0.3328  0.5933
  798MOL0     C10015  11.127  10.774   5.341  0.0080  0.0178  0.4479
  798MOL0     C10016  11.276  10.777   5.297 -0.4405 -0.1520 -0.1253
  798MOL0     O10017  11.367  10.782   5.404 -0.4069  0.2152 -0.7199
  798MOL0     C10018  11.499  10.780   5.389  0.1232  1.0983  0.4897
  798MOL0     C10019  11.569  10.711   5.488 -0.4068  1.2561 -0.2997
  798MOL0     C10020  11.710  10.707   5.478  0.1928  0.3381  0.3083
  798MOL0     C10021  11.784  10.777   5.386 -0.3451  0.8689 -0.5686
  798MOL0     O10022  11.919  10.764   5.407  0.6625  0.4289  0.8066
  798MOL0     C10023  12.002  10.773   5.286  0.1521 -0.2039 -0.2575
  798MOL0     C10024  12.026  10.640   5.215 -0.1193 -0.5079 -0.0883
  798MOL0     C10025  12.119  10.669   5.098 -0.1863  0.3326  0.3275
  798MOL0     C10026  12.185  10.543   5.034  0.0254  0.6805  0.0440
  798MOL0     C10027  12.220  10.577   4.886 -0.2216 -0.5822 -0.3923
  798MOL0     C10028  12.321  10.694   4.876  0.1892 -0.8537  0.2432
  798MOL0     C10029  12.352  10.726   4.733 -0.2330  0.9668  0.4596
  798MOL0     C10030  12.460  10.831   4.697 -0.0349  0.4113 -0.2107
  798MOL0    Cl10031  12.373  10.996   4.699 -0.1555 -0.0742  1.0178
  798MOL0     C10032  11.716  10.836   5.279  0.6296 -0.2524  0.6581
  798MOL0     C10033  11.574  10.837   5.281  0.1977  0.3496 -0.1824
  798MOL0     O10034  11.311  10.767   5.179 -0.1886 -0.3121 -0.1946
  798MOL0     C10035  11.084  10.778   5.480  0.3000 -0.0727  1.3214
  798MOL0     C10036  10.950  10.779   5.516 -0.1652  0.2643 -0.6896
  798MOL0     N10037  10.121  11.034   5.625  0.5120  0.4859  0.2157
  798MOL0     N10038  10.007  10.976   5.646 -0.4619 -0.0441  0.1257
  798MOL0     C10039  10.202  10.787   4.873 -0.2358  0.5372  0.9272
  798MOL0     C10040  10.274  10.674   4.879 -0.8362  0.0128  0.0412
  798MOL0     C10041  10.355  10.232   4.978  0.6593  0.2982 -0.0670
  798MOL0     C10042  10.459  10.213   4.884 -0.3378  0.6080 -0.8654
  798MOL0     C10043  10.542  10.101   4.905 -0.3789  0.0593  0.1746
  798MOL0     C10044  10.535  10.016   5.018 -0.1201  0.3950 -0.1497
  798MOL0     O10045  10.630   9.923   5.042  0.2290  0.2571 -0.5726
  798MOL0     C10046  10.614   9.807   5.131 -0.3644 -0.4117 -0.3483
  798MOL0     C10047  10.519   9.708   5.064 -0.5769  0.2583  0.1083
  798MOL0     C10048  10.577   9.635   4.942 -0.1642 -0.6849 -0.0775
  798MOL0     C10049  10.491   9.529   4.877  0.3560  0.4021  0.2543
  798MOL0     C10050  10.486   9.416   4.969 -0.0141 -0.1720 -0.0562
  798MOL0     C10051  10.498   9.336   5.070 -0.7301  0.1594  0.8862
  798MOL0     C10052  10.429  10.042   5.108  0.3969 -0.1359 -0.1219
  798MOL0     C10053  10.337  10.144   5.088 -0.7087  0.1217 -0.1780
  798MOL0     C10054  10.239  10.172   5.197  0.5043  0.5782 -0.5146
  798MOL0     H10055  10.070  10.465   4.706  1.5071 -0.3157  1.3002
  798MOL0     H10056   9.937  10.674   4.686  1.7359  0.2188 -1.7563
  798MOL0     H10057   9.932  10.901   4.619  1.6394  0.2494  0.5939
  798MOL0     H10058   9.906  11.051   4.712  0.8616  0.9708 -2.1569
  798MOL0     H10059   9.710  10.976   4.747  1.6102  1.8871 -0.2498
  798MOL0     H10060   9.745  10.804   4.734  4.4703 -1.6203  0.0339
  798MOL0     H10061   9.664  10.838   4.957  0.0590  0.6825  1.8256
  798MOL0     H10062   9.819  10.779   4.964  1.4096 -0.5526 -1.0847
  798MOL0     H10063   9.899  11.042   5.022 -1.4375  0.6071 -1.5322
  798MOL0     H10064   9.742  11.073   4.971 -1.7981  0.2993  2.9251
  798MOL0     H10065   9.638  10.969   5.156 -0.0391 -1.5464 -0.4891
  798MOL0     H10066   9.749  11.092   5.211 -4.0579  0.4788 -1.5622
  798MOL0     H10067   9.828  10.799   5.212  3.6031  0.4906 -0.5827
  798MOL0     H10068   9.937  10.925   5.240  0.7532  2.9042  1.8101
  798MOL0     H10069   9.685  10.883   5.407 -1.0497 -0.7093 -1.5402
  798MOL0     H10070   9.797  11.016   5.432  0.9901  0.1644 -0.0931
  798MOL0     H10071   9.837  10.804   5.576  1.2514  0.3442  0.4606
  798MOL0     H10072   9.895  10.740   5.422 -3.0583 -1.5758  1.7424
  798MOL0     H10073  10.121  10.858   5.347  2.6860 -0.0448  0.3101
  798MOL0     H10074  10.349  11.142   5.486 -0.7128  1.0233 -0.7926
  798MOL0     H10075  10.322  11.052   5.348 -1.2308  4.7293  0.9544
  798MOL0     H10076  10.458  10.929   5.603  4.1072  1.7376  0.6236
  798MOL0     H10077  10.427  10.854   5.448 -0.1111 -1.8285  3.1423
  798MOL0     H10078  10.562  10.981   5.321  1.1028  4.3632 -1.1144
  798MOL0     H10079  10.578  11.108   5.442  1.4806  0.1794  2.2262
  798MOL0     H10080  10.784  11.005   5.483 -0.1715 -0.8036 -1.8129
  798MOL0     H10081  10.673  10.938   5.604  0.1587  2.6695  1.2605
  798MOL0     H10082  10.800  10.744   5.221  2.8080 -2.6744 -2.8505
  798MOL0     H10083  11.102  10.651   5.085  0.5060 -0.1117  4.7411
  798MOL0     H10084  11.067  10.831   5.060  0.4883  0.0757  0.2682
  798MOL0     H10085  10.933  10.708   5.056  0.8463 -1.0220 -0.4545
  798MOL0     H10086  11.523  10.663   5.574 -2.6620 -0.4019 -2.3020
  798MOL0     H10087  11.763  10.656   5.558 -1.8823  0.3400  1.7645
  798MOL0     H10088  11.965  10.852   5.220  2.2016 -0.8929 -2.3624
  798MOL0     H10089  12.102  10.802   5.320  0.3852 -0.1061 -1.0095
  798MOL0     H10090  12.067  10.562   5.279  0.8666  0.5959  0.6832
  798MOL0     H10091  11.931  10.606   5.172 -0.7654 -0.0843  0.9410
  798MOL0     H10092  12.203  10.734   5.126  0.8658 -1.5585  1.8219
  798MOL0     H10093  12.063  10.730   5.026  2.3468 -0.3665 -2.4134
  798MOL0     H10094  12.113  10.461   5.040 -1.7645  2.2543  3.0140
  798MOL0     H10095  12.275  10.513   5.088 -1.0893 -1.0432  1.0538
  798MOL0     H10096  12.258  10.488   4.836 -1.0625 -1.2257  0.0913
  798MOL0     H10097  12.127  10.610   4.839 -1.6097  0.5067  2.8139
  798MOL0     H10098  12.406  10.656   4.932  0.0864 -3.3137 -1.1289
  798MOL0     H10099  12.287  10.785   4.927 -0.0987 -0.9529  0.2313
  798MOL0     H10100  12.263  10.751   4.675 -0.2605  0.9120  0.4776
  798MOL0     H10101  12.399  10.639   4.686  1.1320  2.1229 -0.3959
  798MOL0     H10102  12.506  10.808   4.600 -2.5516  1.7547 -1.8267
  798MOL0     H10103  12.540  10.827   4.772  2.0176 -1.7211 -2.3256
  798MOL0     H10104  11.767  10.874   5.191 -1.0132  0.4275 -0.0389
  798MOL0     H10105  11.536  10.886   5.192  0.4968 -1.5382 -1.4208
  798MOL0     H10106  11.153  10.801   5.560  0.4678  0.1740  1.1098
  798MOL0     H10107  10.922  10.792   5.620  0.3879  0.3992 -0.5563
  798MOL0     H10108  10.232  10.877   4.927 -1.0039  1.8451 -0.7188
  798MOL0     H10109  10.352  10.688   4.954 -2.5803 -1.5580  2.3161
  798MOL0     H10110  10.469  10.275   4.796 -2.6358  0.6084 -1.1725
  798MOL0     H10111  10.629  10.099   4.840  0.5994  3.7785  1.1219
  798MOL0     H10112  10.704   9.749   5.154 -0.4057 -0.9743 -1.5148
  798MOL0     H10113  10.581   9.834   5.232  1.8917  0.4762  0.2054
  798MOL0     H10114  10.437   9.777   5.041 -0.0016  1.5392  1.7103
  798MOL0     H10115  10.469   9.647   5.141 -1.6491  0.1357 -0.6631
  798MOL0     H10116  10.610   9.712   4.871  0.1171  0.8519  1.6170
  798MOL0     H10117  10.669   9.584   4.974 -0.6690 -1.9031 -0.5361
  798MOL0     H10118  10.523   9.510   4.775 -3.0915  2.5305 -1.4137
  798MOL0     H10119  10.386   9.559   4.870  0.6423  1.2539 -0.6241
  798MOL0     H10120  10.487   9.269   5.153 -2.7291 -0.0965  0.4800
  798MOL0     H10121  10.417   9.984   5.199  2.0359 -0.1739  0.0918
  798MOL0     H10122  10.256  10.114   5.288 -0.0113 -1.1838 -1.4859
  798MOL0     H10123  10.229  10.277   5.226 -0.3604  0.0733  1.1180
  798MOL0     H10124  10.146  10.129   5.160  0.0463 -1.8612  2.9581
  799MOL0     O10125   3.971   3.112   7.890 -0.5671 -0.7129 -0.1023
  799MOL0     C10126   3.991   3.145   8.005  0.4846  0.9397 -1.7002
  799MOL0     O10127   3.999   3.055   8.106  0.6437 -0.8175  0.4568
  799MOL0     C10128   3.975   2.920   8.081  0.5493 -0.0696  0.1000
  799MOL0     C10129   3.844   2.875   8.057 -0.2922  0.5784  0.6092
  799MOL0     C10130   3.826   2.738   8.032 -0.3970 -0.0788 -0.2880
  799MOL0     C10131   3.925   2.650   8.056 -0.4954  1.2793 -0.2199
  799MOL0     O10132   3.893   2.518   8.035  0.2107 -0.0435 -0.3820
  799MOL0     C10133   3.982   2.409   8.046 -0.6252  0.3356  0.6021
  799MOL0     C10134   3.935   2.297   7.970  1.0116 -0.3098 -0.3397
  799MOL0     C10135   4.022   2.171   7.983  0.9821 -0.7291  0.3390
  799MOL0     C10136   4.029   2.120   8.123 -0.2412  0.9260  0.3612
  799MOL0     C10137   3.888   2.082   8.193 -1.1281 -0.1788  0.4887
  799MOL0     C10138   3.934   2.026   8.326  0.7610 -0.0775 -0.3159
  799MOL0     C10139   3.821   1.976   8.417  0.4346 -1.5569 -0.6918
  799MOL0     C10140   3.756   1.839   8.372 -0.1926  0.5053 -0.2865
  799MOL0     N10141   3.628   1.813   8.443 -0.0507  0.0566  0.2769
  799MOL0     C10142   3.512   1.880   8.417  0.5756  0.5704  0.6461
  799MOL0     C10143   3.434   1.835   8.521  0.2149 -0.0736  0.2608
  799MOL0     C10144   3.295   1.875   8.554 -0.1117 -0.5799 -0.1630
  799MOL0     C10145   3.277   1.905   8.704 -0.2938  0.7785 -0.3257
  799MOL0     C10146   3.133   1.951   8.758 -0.9801 -0.6084  0.7264
  799MOL0     C10147   3.097   2.085   8.704  0.6769 -0.3167  0.0453
  799MOL0     O10148   2.959   2.111   8.749 -0.0513 -0.6343 -0.1463
  799MOL0     C10149   2.938   2.171   8.876 -0.1379  0.3827  0.6423
  799MOL0     C10150   2.807   2.168   8.918  0.1723 -0.1078 -0.1532
  799MOL0     C10151   2.765   2.210   9.046 -0.5454 -0.4251  0.1709
  799MOL0     C10152   2.613   2.203   9.075  0.0826 -0.1635 -0.6933
  799MOL0     C10153   2.863   2.258   9.140  0.1379  0.0162 -0.6625
  799MOL0     C10154   2.829   2.287   9.280  0.2217  0.0492 -0.0746
  799MOL0     O10155   2.717   2.234   9.342  0.8042 -0.2513  0.7784
  799MOL0     C10156   2.704   2.264   9.470 -0.1437  1.0803 -0.3241
  799MOL0     C10157   2.606   2.356   9.502  0.0962 -0.1567  0.6066
  799MOL0     C10158   2.573   2.399   9.635 -0.1897  0.6758  0.6499
  799MOL0     C10159   2.654   2.340   9.738 -0.1037 -1.0604 -0.5160
  799MOL0     O10160   2.622   2.358   9.868 -0.5882  0.6196  0.0522
  799MOL0     C10161   2.492   2.373   9.919  0.9948 -0.4082  0.4161
  799MOL0     C10162   2.485   2.467  10.040  0.5894 -0.5522  0.3631
  799MOL0     C10163   2.575   2.408  10.154  0.1194 -0.0272 -0.3713
  799MOL0     C10164   2.535   2.490  10.282 -0.5192  0.0058 -0.1387
  799MOL0     C10165   2.575   2.640  10.287  0.4800 -0.5705  0.5288
  799MOL0     C10166   2.543   2.724  10.415 -0.3719  0.1861  0.0840
  799MOL0     C10167   2.581   2.876  10.420 -0.7333 -0.8161 -0.3722
  799MOL0     C10168   2.574   2.947  10.555  0.0913  0.3199 -0.2518
  799MOL0    Cl10169   2.573   3.122  10.520 -0.5118  0.8550  0.1306
  799MOL0     C10170   2.758   2.253   9.708 -0.4584  0.5594  0.5031
  799MOL0     C10171   2.787   2.216   9.578  0.0981 -0.1037  1.1418
  799MOL0     O10172   2.915   2.352   9.340  0.1934 -0.8066  0.5508
  799MOL0     C10173   2.991   2.276   9.088  0.2304 -0.2550 -0.5809
  799MOL0     C10174   3.028   2.231   8.963  0.0466 -0.8620  0.0669
  799MOL0     N10175   3.502   1.752   8.601 -0.1252  0.7264  0.3330
  799MOL0     N10176   3.622   1.747   8.561  0.2902 -0.6703 -0.6104
  799MOL0     C10177   4.059   2.694   8.087  0.8373 -0.2898 -0.3102
  799MOL0     C10178   4.084   2.833   8.090  0.5191 -0.7210 -0.8249
  799MOL0     C10179   4.000   3.282   8.040 -0.1841  0.2430  0.0566
  799MOL0     C10180   4.020   3.376   7.928 -0.6853  0.2355  0.2072
  799MOL0     C10181   4.030   3.512   7.949  0.2353 -0.5988 -0.2860
  799MOL0     C10182   4.048   3.569   8.076 -0.5000  0.2712  1.3451
  799MOL0     O10183   4.072   3.701   8.084 -0.1195 -0.6192 -0.4721
  799MOL0     C10184   4.183   3.741   8.174 -0.0486  0.5123 -0.2037
  799MOL0     C10185   4.319   3.662   8.161 -0.1517  0.9397 -0.3134
  799MOL0     C10186   4.385   3.650   8.025 -0.3592 -0.0997  0.4367
  799MOL0     C10187   4.437   3.785   7.981  0.4529 -0.7947 -0.2265
  799MOL0     C10188   4.404   3.813   7.838 -0.3859  0.4566  0.0758
  799MOL0     C10189   4.365   3.845   7.729  0.0613  0.2937 -0.9523
  799MOL0     C10190   4.032   3.476   8.185 -0.4878 -0.3555 -0.4140
  799MOL0     C10191   4.001   3.335   8.168 -0.6001 -0.2188 -0.2895
  799MOL0     C10192   4.000   3.261   8.297  0.1234  0.6916  0.2557
  799MOL0     H10193   3.763   2.948   8.051  0.5752  1.4638 -3.0588
  799MOL0     H10194   3.728   2.697   8.009 -0.6616  0.4940 -0.1840
  799MOL0     H10195   3.997   2.377   8.149  3.1763  0.0045  0.0847
  799MOL0     H10196   4.079   2.436   8.003 -1.0183 -0.7587 -1.0858
  799MOL0     H10197   3.832   2.268   7.994  0.8813  2.0897  2.5279
  799MOL0     H10198   3.928   2.326   7.865 -1.2822 -1.1079 -0.4703
  799MOL0     H10199   3.963   2.103   7.921  1.3615  0.9841 -2.0288
  799MOL0     H10200   4.112   2.183   7.922 -0.5753  1.5767 -1.6800
  799MOL0     H10201   4.095   2.034   8.112 -0.6117  0.6266  0.4433
  799MOL0     H10202   4.080   2.191   8.189  1.5914  1.3766 -1.4205
  799MOL0     H10203   3.827   2.015   8.133 -2.6435  1.6279 -0.0805
  799MOL0     H10204   3.830   2.174   8.199 -0.0059  1.0780 -4.1118
  799MOL0     H10205   3.994   1.939   8.295 -0.6793 -0.7597 -1.3178
  799MOL0     H10206   3.999   2.091   8.385  0.3633 -0.3057  0.3810
  799MOL0     H10207   3.739   2.048   8.413  1.3208 -0.5621 -1.5347
  799MOL0     H10208   3.848   1.964   8.522 -2.8143 -1.3903  0.2661
  799MOL0     H10209   3.753   1.840   8.263 -0.0789  2.4303 -0.3085
  799MOL0     H10210   3.821   1.755   8.401 -1.2470  0.0402  0.8433
  799MOL0     H10211   3.477   1.952   8.344  3.6840  0.7481 -0.8641
  799MOL0     H10212   3.219   1.799   8.534  0.0361 -0.3888 -1.5295
  799MOL0     H10213   3.261   1.957   8.490  0.5796 -1.1468 -1.2884
  799MOL0     H10214   3.301   1.806   8.745  0.4562  0.2478 -1.9618
  799MOL0     H10215   3.353   1.979   8.731 -1.3546  2.2294 -1.1881
  799MOL0     H10216   3.053   1.892   8.712 -0.7622 -0.4959  0.1966
  799MOL0     H10217   3.136   1.952   8.867  1.1007 -1.7366  0.7466
  799MOL0     H10218   3.164   2.158   8.750 -1.3942  2.0693 -0.5082
  799MOL0     H10219   3.101   2.093   8.595 -0.5520  0.5190  0.0341
  799MOL0     H10220   2.723   2.134   8.858  1.2006  2.0915 -3.0809
  799MOL0     H10221   2.581   2.138   9.157 -3.0439  1.3528 -0.5307
  799MOL0     H10222   2.555   2.172   8.987  0.9619  2.5283 -2.3419
  799MOL0     H10223   2.570   2.303   9.088 -0.7784 -0.5804 -0.2228
  799MOL0     H10224   2.548   2.393   9.418 -1.7741 -1.6287  1.1807
  799MOL0     H10225   2.499   2.477   9.648 -0.8734 -0.4595  5.7696
  799MOL0     H10226   2.417   2.419   9.855 -1.4448 -2.1570  1.8257
  799MOL0     H10227   2.452   2.273   9.941  0.8281 -0.3197  0.5159
  799MOL0     H10228   2.524   2.567  10.023 -0.4568  0.4013  3.0249
  799MOL0     H10229   2.388   2.477  10.090  1.8643 -0.0540  2.9313
  799MOL0     H10230   2.682   2.427  10.137  0.0596  0.1671 -0.5233
  799MOL0     H10231   2.551   2.301  10.156  1.1506 -0.3004 -1.4264
  799MOL0     H10232   2.604   2.439  10.350 -0.8953 -1.1187 -0.5862
  799MOL0     H10233   2.435   2.474  10.323  0.0648 -2.1098  0.6257
  799MOL0     H10234   2.680   2.640  10.254  0.2924 -1.7901 -0.1143
  799MOL0     H10235   2.524   2.697  10.208 -0.2592 -1.4305  0.3719
  799MOL0     H10236   2.580   2.683  10.509  2.1618  4.7528  1.3873
  799MOL0     H10237   2.434   2.721  10.423 -0.3302  1.1073  1.2875
  799MOL0     H10238   2.514   2.930  10.352 -0.9042  0.5548  0.8183
  799MOL0     H10239   2.684   2.878  10.384 -0.1213 -2.7025  1.1131
  799MOL0     H10240   2.660   2.921  10.617 -1.2417  0.2326  1.6381
  799MOL0     H10241   2.480   2.917  10.601  0.2440  0.8426  0.4048
  799MOL0     H10242   2.797   2.197   9.792  0.7489  1.7758  0.7874
  799MOL0     H10243   2.868   2.147   9.555 -1.6178 -1.7285 -0.3791
  799MOL0     H10244   3.075   2.305   9.150  1.2317  1.1404 -2.4839
  799MOL0     H10245   3.135   2.229   8.944  0.3792  2.4777  0.8786
  799MOL0     H10246   4.143   2.628   8.103 -1.5049 -3.9651 -1.8780
  799MOL0     H10247   4.186   2.864   8.112 -0.4690  2.3913 -0.1323
  799MOL0     H10248   4.000   3.341   7.828 -2.1074  0.8946  0.2475
  799MOL0     H10249   4.045   3.566   7.856  2.0143 -1.1566 -0.3600
  799MOL0     H10250   4.206   3.845   8.148  0.3982 -0.1205 -2.6360
  799MOL0     H10251   4.149   3.743   8.278 -0.7227 -2.9074 -0.2484
  799MOL0     H10252   4.310   3.558   8.193 -1.2918  1.5868  1.6272
  799MOL0     H10253   4.391   3.703   8.232  0.7945 -1.7046  0.4029
  799MOL0     H10254   4.469   3.579   8.024  1.3465  1.8245  0.1580
  799MOL0     H10255   4.325   3.614   7.941  0.2835  0.8201 -0.4360
  799MOL0     H10256   4.546   3.783   7.976  0.5511  2.3092 -1.8264
  799MOL0     H10257   4.411   3.873   8.041  3.9231  0.8822 -0.9454
  799MOL0     H10258   4.315   3.875   7.639 -1.7097  2.8543  0.7429
  799MOL0     H10259   4.034   3.518   8.285 -2.1534 -1.6250  0.2075
  799MOL0     H10260   4.086   3.194   8.308 -1.2837 -1.9393 -2.8904
  799MOL0     H10261   3.998   3.326   8.384 -2.0730  0.6014  0.3141
  799MOL0     H10262   3.922   3.185   8.298  0.1422  0.6768  1.7775
  800MOL0     O10263   8.906   5.790   1.714 -0.5931 -0.4283  0.1916
  800MOL0     C10264   8.992   5.817   1.637  0.6498 -0.9744  0.0425
  800MOL0     O10265   9.064   5.928   1.643  1.1089  0.1222 -0.4041
  800MOL0     C10266   9.012   6.043   1.703  0.2758 -0.1715  0.4706
  800MOL0     C10267   8.932   6.059   1.813  1.2169 -0.0780  0.5817
  800MOL0     C10268   8.896   6.181   1.866 -0.4831 -0.4997  0.7712
  800MOL0     C10269   8.938   6.291   1.793 -0.1149 -0.7328 -0.2584
  800MOL0     O10270   8.897   6.421   1.831  0.1798  0.4733 -0.0561
  800MOL0     C10271   9.000   6.475   1.922 -0.5959 -0.5149 -0.1654
  800MOL0     C10272   8.974   6.437   2.071 -0.5554  0.8877  0.6669
  800MOL0     C10273   9.081   6.498   2.159 -0.3923  0.2284  0.1467
  800MOL0     C10274   9.070   6.454   2.307 -0.2436 -0.1304 -0.3945
  800MOL0     C10275   9.204   6.459   2.373 -0.3943  0.2175  0.4355
  800MOL0     C10276   9.287   6.322   2.361  0.7998  0.1392  0.4726
  800MOL0     C10277   9.415   6.326   2.449  0.2281  0.6788  0.4003
  800MOL0     C10278   9.480   6.190   2.485 -0.0307  0.1331  0.4048
  800MOL0     N10279   9.568   6.146   2.376  0.3941  0.0054  0.7344
  800MOL0     C10280   9.703   6.129   2.392  0.5963  0.4752  0.0874
  800MOL0     C10281   9.753   6.111   2.268 -0.0304 -0.4781 -0.3956
  800MOL0     C10282   9.904   6.108   2.242  0.4072  0.3981 -1.0203
  800MOL0     C10283   9.951   6.244   2.189 -0.3957 -0.2052 -1.1322
  800MOL0     C10284  10.097   6.251   2.157  0.7312 -0.0880 -0.6233
  800MOL0     C10285  10.152   6.399   2.141 -0.6035  0.7364  0.8021
  800MOL0     O10286  10.103   6.481   2.248  0.4902 -0.0939  0.1773
  800MOL0     C10287  10.072   6.609   2.225 -0.1546  0.5429  0.3544
  800MOL0     C10288  10.150   6.691   2.139  0.1093 -0.2067 -0.4899
  800MOL0     C10289  10.128   6.832   2.135  0.8575 -0.4865  0.1029
  800MOL0     C10290  10.218   6.916   2.049  0.4274  0.6585  0.2726
  800MOL0     C10291  10.020   6.886   2.210  0.3361 -0.3163  0.0217
  800MOL0     C10292   9.992   7.036   2.201  0.5995  0.5621  1.0901
  800MOL0     O10293   9.874   7.069   2.247 -0.3159  0.0172  0.0841
  800MOL0     C10294   9.844   7.203   2.282  0.4368  0.2010  0.7741
  800MOL0     C10295   9.712   7.236   2.272  0.6667 -0.9747 -0.1449
  800MOL0     C10296   9.672   7.364   2.308  0.1505 -0.1656  0.6059
  800MOL0     C10297   9.766   7.468   2.334 -0.1645 -0.0473  0.6244
  800MOL0     O10298   9.722   7.599   2.340 -0.7126  0.2316  0.8455
  800MOL0     C10299   9.733   7.666   2.471 -0.0035  1.1086  0.5339
  800MOL0     C10300   9.727   7.815   2.455 -0.5458 -0.0453 -0.6190
  800MOL0     C10301   9.646   7.886   2.569 -0.4931  0.4362  0.8222
  800MOL0     C10302   9.494   7.850   2.561 -0.9349  0.2201  0.1078
  800MOL0     C10303   9.405   7.964   2.589 -1.0562 -0.7829 -0.4358
  800MOL0     C10304   9.397   8.001   2.738  0.3791 -0.4451 -0.9628
  800MOL0     C10305   9.314   8.128   2.767 -0.4741  0.0635  0.3410
  800MOL0     C10306   9.325   8.155   2.910 -0.4480  0.2070  0.0190
  800MOL0    Cl10307   9.263   8.322   2.941 -0.1317  0.1184  0.0110
  800MOL0     C10308   9.902   7.431   2.342  0.0583  0.5003 -0.6465
  800MOL0     C10309   9.941   7.296   2.325  1.0602 -0.2865 -0.2120
  800MOL0     O10310  10.069   7.114   2.151  0.4837 -0.1577 -0.1800
  800MOL0     C10311   9.943   6.806   2.291  0.3627  0.0726 -0.7855
  800MOL0     C10312   9.969   6.665   2.295 -0.5366  0.2403 -1.2781
  800MOL0     N10313   9.641   6.112   2.183  0.6598 -0.2322  0.4659
  800MOL0     N10314   9.537   6.125   2.248 -0.7902  0.4442  0.4633
  800MOL0     C10315   9.016   6.276   1.679 -0.0350 -0.3449 -0.0446
  800MOL0     C10316   9.045   6.155   1.637 -0.3923  0.4586  0.3101
  800MOL0     C10317   9.029   5.708   1.533  1.4730 -0.1187 -0.2183
  800MOL0     C10318   9.013   5.564   1.558 -0.6469  1.0589 -1.5644
  800MOL0     C10319   9.074   5.475   1.480  0.5756  1.1292  0.3894
  800MOL0     C10320   9.141   5.506   1.363  0.4587 -0.8491 -0.4949
  800MOL0     O10321   9.186   5.406   1.286 -0.6569 -0.0476 -0.0296
  800MOL0     C10322   9.241   5.439   1.156 -0.5864 -0.9955 -0.3818
  800MOL0     C10323   9.307   5.319   1.099 -0.8700 -0.3492 -0.5747
  800MOL0     C10324   9.191   5.224   1.067  0.5200  0.0929 -0.3061
  800MOL0     C10325   9.248   5.084   1.101  0.4179  0.2278 -0.8336
  800MOL0     C10326   9.351   5.034   1.009 -0.6846  0.1528  0.0319
  800MOL0     C10327   9.435   4.981   0.939  0.2804  0.4708  0.3643
  800MOL0     C10328   9.131   5.639   1.317 -0.1601 -0.0312 -0.2360
  800MOL0     C10329   9.084   5.744   1.406 -0.0259 -0.0382 -0.0231
  800MOL0     C10330   9.083   5.882   1.361  1.0472  0.1738  0.6217
  800MOL0     H10331   8.903   5.974   1.874  0.3839 -0.2525 -0.0416
  800MOL0     H10332   8.844   6.198   1.960 -1.1580  1.4156  0.0890
  800MOL0     H10333   9.017   6.583   1.917 -1.9049 -0.2101  1.1423
  800MOL0     H10334   9.099   6.450   1.884 -1.3955  1.1250 -3.7110
  800MOL0     H10335   8.869   6.457   2.094 -0.7423  3.6506 -2.0770
  800MOL0     H10336   8.992   6.330   2.090 -3.4050 -0.1070 -1.5705
  800MOL0     H10337   9.182   6.467   2.132  0.1461 -0.3086  2.5359
  800MOL0     H10338   9.084   6.607   2.160  1.1071  0.2175  1.3673
  800MOL0     H10339   8.993   6.520   2.348  0.0361  0.0504 -0.1566
  800MOL0     H10340   9.052   6.346   2.303  0.7394 -0.3059 -0.2845
  800MOL0     H10341   9.183   6.468   2.480 -0.8559 -0.3697  0.4000
  800MOL0     H10342   9.272   6.539   2.344  2.1409 -1.1675  2.1948
  800MOL0     H10343   9.225   6.235   2.383 -2.7273  2.1901 -0.5415
  800MOL0     H10344   9.313   6.317   2.255  1.6562  1.1063  0.6120
  800MOL0     H10345   9.394   6.379   2.542  2.6221  0.5363  1.0875
  800MOL0     H10346   9.475   6.394   2.389 -1.3291  2.5966  0.9309
  800MOL0     H10347   9.529   6.195   2.582 -0.3649  0.7033  0.5460
  800MOL0     H10348   9.395   6.121   2.488 -1.0268  1.2602 -0.6948
  800MOL0     H10349   9.761   6.148   2.482 -1.4140 -2.2794  2.1230
  800MOL0     H10350   9.930   6.032   2.168  1.3277  1.4566 -1.8132
  800MOL0     H10351   9.968   6.084   2.328 -2.1604  1.8885  1.4981
  800MOL0     H10352   9.901   6.283   2.099 -1.1537 -0.0152 -0.6382
  800MOL0     H10353   9.924   6.314   2.268 -0.1550 -0.9054 -0.4202
  800MOL0     H10354  10.143   6.194   2.238 -0.1189 -2.1097 -1.5036
  800MOL0     H10355  10.124   6.198   2.065  2.0723  1.3620 -1.1119
  800MOL0     H10356  10.260   6.387   2.140 -0.7598 -1.9699  3.3489
  800MOL0     H10357  10.120   6.443   2.045 -3.4692  0.2561  1.4290
  800MOL0     H10358  10.226   6.647   2.076  1.2677  2.9105 -1.4504
  800MOL0     H10359  10.269   6.987   2.116  0.7351 -0.4710  1.2729
  800MOL0     H10360  10.166   6.981   1.978 -1.7325  1.7804  2.7260
  800MOL0     H10361  10.283   6.844   1.999  1.2403  1.3969  0.2368
  800MOL0     H10362   9.637   7.167   2.234  2.7030 -2.9926 -0.7271
  800MOL0     H10363   9.567   7.385   2.326 -0.1941 -2.9729  2.5520
  800MOL0     H10364   9.656   7.633   2.541  0.7293  2.0045  1.8097
  800MOL0     H10365   9.827   7.645   2.524  0.8927 -0.0907 -1.4249
  800MOL0     H10366   9.829   7.855   2.459 -0.6138  0.0576  1.8456
  800MOL0     H10367   9.681   7.828   2.357 -0.3546 -1.2471 -0.8726
  800MOL0     H10368   9.666   7.990   2.544  0.9743 -0.1993 -0.9436
  800MOL0     H10369   9.680   7.862   2.670  0.7721 -0.5314  0.2009
  800MOL0     H10370   9.463   7.759   2.614  0.0440  1.4797  3.0439
  800MOL0     H10371   9.477   7.837   2.454  1.1068 -0.4229 -0.1886
  800MOL0     H10372   9.435   8.046   2.523  0.4063 -0.6650  0.3537
  800MOL0     H10373   9.303   7.937   2.557 -2.1987  0.0173  2.2598
  800MOL0     H10374   9.497   8.013   2.779  1.1444 -2.4739 -2.1096
  800MOL0     H10375   9.343   7.916   2.781 -1.6301  1.0871 -0.2278
  800MOL0     H10376   9.209   8.104   2.745 -1.2265  2.0548  1.5071
  800MOL0     H10377   9.354   8.207   2.704  2.1933  0.7730  2.7379
  800MOL0     H10378   9.432   8.151   2.928  0.1866  2.4420 -2.6036
  800MOL0     H10379   9.262   8.086   2.967 -0.0081  0.0276  0.2895
  800MOL0     H10380   9.982   7.502   2.363  0.4061  0.1100 -0.6245
  800MOL0     H10381  10.045   7.264   2.325  1.2006  0.0064  2.3517
  800MOL0     H10382   9.846   6.846   2.321 -0.3402  0.0642 -2.8964
  800MOL0     H10383   9.909   6.598   2.356 -1.6171  1.4421 -0.9843
  800MOL0     H10384   9.050   6.372   1.642  1.0466 -0.6625  0.1030
  800MOL0     H10385   9.112   6.131   1.555  2.1486 -0.7212  2.5785
  800MOL0     H10386   8.960   5.530   1.647 -0.9182 -1.0193 -2.4817
  800MOL0     H10387   9.069   5.368   1.502  0.3421  1.4347  1.9161
  800MOL0     H10388   9.170   5.469   1.079  3.5332 -2.6403 -5.3426
  800MOL0     H10389   9.318   5.516   1.165  1.0647 -2.6575  0.2023
  800MOL0     H10390   9.379   5.273   1.167  0.3198  1.4711 -0.5336
  800MOL0     H10391   9.366   5.342   1.010 -0.3388  1.9641  0.2956
  800MOL0     H10392   9.102   5.235   1.129  0.9125 -1.0899  0.4930
  800MOL0     H10393   9.166   5.229   0.961  1.4025  0.9872 -0.4955
  800MOL0     H10394   9.171   5.006   1.101  0.2097  0.3825  1.1725
  800MOL0     H10395   9.292   5.095   1.200  1.3443  1.4183 -1.3424
  800MOL0     H10396   9.512   4.919   0.897 -0.6967  0.3932 -1.4360
  800MOL0     H10397   9.162   5.669   1.217  1.0196  0.9437  0.3898
  800MOL0     H10398   9.180   5.927   1.385  1.6407 -0.6819 -0.0813
  800MOL0     H10399   9.066   5.884   1.253 -0.9258 -1.0732  0.8673
  800MOL0     H10400   9.002   5.938   1.408  0.8733 -0.2568  0.8438
  801MOL0     O10401   9.510   9.520   2.804  0.0572  0.0957 -0.3372
  801MOL0     C10402   9.590   9.423   2.837 -0.3602 -0.8461 -0.0170
  801MOL0     O10403   9.728   9.429   2.820 -1.0513  0.0262 -0.6855
  801MOL0     C10404   9.781   9.545   2.772  1.2120  0.4095  0.0117
  801MOL0     C10405   9.791   9.563   2.629  0.9703  0.6398 -0.2886
  801MOL0     C10406   9.840   9.681   2.581  0.7307  0.1232  1.0006
  801MOL0     C10407   9.870   9.786   2.662 -0.0405 -0.0722 -0.6717
  801MOL0     O10408   9.921   9.903   2.617 -0.7341 -1.0305  0.7128
  801MOL0     C10409  10.008   9.901   2.499  0.4516 -0.3384  0.4259
  801MOL0     C10410  10.043  10.048   2.465 -0.6384 -0.1698  0.3074
  801MOL0     C10411  10.153  10.039   2.354 -0.0971  0.3476 -0.2769
  801MOL0     C10412  10.199  10.164   2.281 -0.0555 -0.0417  0.5049
  801MOL0     C10413  10.256  10.280   2.365 -0.1593  1.4799 -0.3517
  801MOL0     C10414  10.373  10.247   2.459  0.7256 -0.0396  0.6446
  801MOL0     C10415  10.429  10.368   2.541 -0.1554  1.3098 -0.6888
  801MOL0     C10416  10.317  10.428   2.619 -0.2338  0.2741 -0.0883
  801MOL0     N10417  10.366  10.525   2.710  0.0421  0.0920 -0.2786
  801MOL0     C10418  10.373  10.506   2.848 -0.7494  0.3601 -0.3699
  801MOL0     C10419  10.432  10.614   2.900 -0.3947 -0.0064  0.9100
  801MOL0     C10420  10.476  10.635   3.044 -0.2977  0.3403  0.0138
  801MOL0     C10421  10.380  10.728   3.102 -0.9144 -0.2771 -0.5308
  801MOL0     C10422  10.452  10.819   3.194  0.8776  0.0722 -0.4673
  801MOL0     C10423  10.343  10.911   3.256  0.1096 -0.2690 -0.8780
  801MOL0     O10424  10.416  11.000   3.345  0.3289  0.2162 -0.2277
  801MOL0     C10425  10.357  11.121   3.352 -0.4291 -0.6697  1.2605
  801MOL0     C10426  10.296  11.164   3.472 -0.6098  0.1473 -0.3948
  801MOL0     C10427  10.248  11.293   3.486 -0.3224 -0.4288  0.4492
  801MOL0     C10428  10.201  11.332   3.627  0.0884  0.2471 -0.1499
  801MOL0     C10429  10.259  11.383   3.377  0.2497 -0.4975  0.2930
  801MOL0     C10430  10.197  11.521   3.381 -0.3571 -0.1817  0.5507
  801MOL0     O10431  10.196  11.591   3.258  0.4406  0.2642 -0.3948
  801MOL0     C10432  10.119  11.708   3.252 -0.9847  0.5885  0.5066
  801MOL0     C10433   9.979  11.706   3.274  0.7651  0.0374 -0.3416
  801MOL0     C10434   9.899  11.820   3.241 -0.3696 -0.5024 -0.3738
  801MOL0     C10435   9.960  11.940   3.191  0.0898  0.4939  0.2998
  801MOL0     O10436   9.870  12.043   3.168  0.1085 -0.0622 -0.0576
  801MOL0     C10437   9.917  12.175   3.173 -0.1699  0.0023  1.9423
  801MOL0     C10438   9.795  12.258   3.208  0.9309 -0.1069 -0.2805
  801MOL0     C10439   9.683  12.250   3.097 -0.6474 -0.0583  0.2298
  801MOL0     C10440   9.593  12.376   3.093  0.2477 -0.6771 -0.2914
  801MOL0     C10441   9.473  12.355   2.998 -0.8226  0.6576 -0.0996
  801MOL0     C10442   9.335  12.394   3.054  0.7172  0.6445 -0.4453
  801MOL0     C10443   9.221  12.354   2.964  0.0504  0.7139  0.1088
  801MOL0     C10444   9.172  12.209   2.991 -0.7045 -0.1147 -0.6728
  801MOL0    Cl10445   9.071  12.151   2.855  0.4579 -0.3415  0.3039
  801MOL0     C10446  10.100  11.937   3.166 -1.2021  0.0097 -0.0486
  801MOL0     C10447  10.176  11.824   3.205 -0.0315 -0.1664 -0.2853
  801MOL0     O10448  10.171  11.576   3.489 -1.6568  0.6569 -0.6517
  801MOL0     C10449  10.307  11.337   3.251  0.8836 -0.7801  0.0743
  801MOL0     C10450  10.359  11.210   3.239  0.1629  0.3759 -0.4731
  801MOL0     N10451  10.440  10.705   2.791  0.8092 -0.6364  0.7001
  801MOL0     N10452  10.396  10.657   2.684  1.0391  0.1813 -0.1344
  801MOL0     C10453   9.832   9.778   2.799  0.5849 -0.7464 -0.1566
  801MOL0     C10454   9.813   9.658   2.855  0.0401  0.2788  0.8140
  801MOL0     C10455   9.533   9.299   2.903 -0.2870  0.1795 -0.0616
  801MOL0     C10456   9.621   9.205   2.957  0.3032  0.5687 -0.0257
  801MOL0     C10457   9.576   9.090   3.021 -0.0717 -0.6999 -0.4189
  801MOL0     C10458   9.440   9.059   3.027  0.5743 -0.2379 -0.4471
  801MOL0     O10459   9.403   8.936   3.078  0.4485  0.2373  0.4728
  801MOL0     C10460   9.452   8.890   3.204 -0.2351 -0.7957 -0.7228
  801MOL0     C10461   9.447   8.739   3.229 -0.5057  0.9170  0.3786
  801MOL0     C10462   9.551   8.663   3.138 -0.0124  0.1634  0.3981
  801MOL0     C10463   9.540   8.506   3.134  0.4963 -0.1303  0.1018
  801MOL0     C10464   9.594   8.438   3.246 -0.0592 -0.0667 -0.8721
  801MOL0     C10465   9.648   8.382   3.348 -0.6089 -0.1850 -0.0923
  801MOL0     C10466   9.353   9.152   2.968 -0.3057  0.5155 -1.4024
  801MOL0     C10467   9.395   9.271   2.913  1.6820 -1.3613 -0.4257
  801MOL0     C10468   9.283   9.365   2.881  0.0469 -0.7064 -0.7468
  801MOL0     H10469   9.770   9.480   2.562 -1.9778  0.1003  1.1280
  801MOL0     H10470   9.855   9.676   2.473  0.0858 -2.7000  0.9737
  801MOL0     H10471   9.952   9.856   2.417  0.3465  1.0340 -0.2858
  801MOL0     H10472  10.101   9.844   2.507 -0.1750 -2.4737 -4.1413
  801MOL0     H10473   9.954  10.096   2.423  0.2227  0.5817 -0.6934
  801MOL0     H10474  10.077  10.109   2.549  1.4987  1.2993 -1.4979
  801MOL0     H10475  10.242  10.009   2.409 -0.9794 -0.6941  0.6262
  801MOL0     H10476  10.125   9.970   2.274 -0.0042  0.5651 -0.4975
  801MOL0     H10477  10.288  10.139   2.222 -0.3183  3.7423 -1.8975
  801MOL0     H10478  10.113  10.206   2.227 -0.5889  0.6070  1.8171
  801MOL0     H10479  10.172  10.320   2.423 -0.8023  0.5864 -0.6413
  801MOL0     H10480  10.288  10.362   2.300  1.9085  0.9694 -0.0319
  801MOL0     H10481  10.339  10.172   2.531 -1.6363  0.7210  0.3904
  801MOL0     H10482  10.453  10.195   2.405 -0.3897 -1.8061  0.6403
  801MOL0     H10483  10.475  10.444   2.477 -2.6470  0.0846 -4.2581
  801MOL0     H10484  10.507  10.330   2.608 -0.5795  1.5935 -0.0294
  801MOL0     H10485  10.246  10.479   2.553  0.8475 -0.1185 -1.6320
  801MOL0     H10486  10.257  10.352   2.669 -1.0678  1.4073  0.6616
  801MOL0     H10487  10.340  10.413   2.894 -3.1275  0.3286 -1.9844
  801MOL0     H10488  10.581  10.665   3.038  0.2029 -1.4489 -1.1587
  801MOL0     H10489  10.468  10.531   3.077  3.3094 -0.6417 -1.7128
  801MOL0     H10490  10.332  10.787   3.024 -0.6216  1.3730  0.4920
  801MOL0     H10491  10.299  10.672   3.150  1.6541 -0.8106  3.7086
  801MOL0     H10492  10.500  10.766   3.277  3.1016  0.4550 -1.4289
  801MOL0     H10493  10.541  10.873   3.159  0.3991  2.5014  1.7685
  801MOL0     H10494  10.290  10.968   3.179  0.2154  1.5565  0.3251
  801MOL0     H10495  10.278  10.862   3.328 -2.1543  2.3272 -0.9965
  801MOL0     H10496  10.303  11.087   3.548  2.2032 -0.5209 -1.1994
  801MOL0     H10497  10.278  11.390   3.678 -1.1435  1.7296  0.0953
  801MOL0     H10498  10.184  11.240   3.684  1.0905 -1.4133 -2.3802
  801MOL0     H10499  10.105  11.384   3.628 -0.7585 -1.2466  0.0194
  801MOL0     H10500   9.927  11.617   3.308  0.5560  0.2334 -0.1423
  801MOL0     H10501   9.791  11.809   3.240 -0.6239  1.0926  1.5743
  801MOL0     H10502  10.007  12.188   3.234  1.7097  0.5369 -0.7473
  801MOL0     H10503   9.949  12.227   3.082 -0.9518 -0.1215  1.5937
  801MOL0     H10504   9.751  12.224   3.302  0.6588  0.7852 -0.0720
  801MOL0     H10505   9.824  12.363   3.226 -1.2109  0.2992  1.2567
  801MOL0     H10506   9.624  12.158   3.106 -2.1877  1.0267  1.7166
  801MOL0     H10507   9.725  12.252   2.996 -4.6357 -0.5883 -1.6469
  801MOL0     H10508   9.644  12.469   3.063  1.0643 -1.3929 -1.1924
  801MOL0     H10509   9.547  12.393   3.190 -2.0777  1.0772 -1.6029
  801MOL0     H10510   9.489  12.411   2.906  0.4736 -0.3381 -0.5082
  801MOL0     H10511   9.478  12.252   2.962  0.9852  1.0331 -1.0550
  801MOL0     H10512   9.317  12.502   3.059 -0.4817  0.5238 -1.4102
  801MOL0     H10513   9.321  12.348   3.152 -0.4460 -1.0651 -1.3503
  801MOL0     H10514   9.253  12.353   2.859 -0.1904  1.7124  0.0123
  801MOL0     H10515   9.131  12.416   2.965  0.2084  1.1891 -3.0675
  801MOL0     H10516   9.110  12.206   3.081  1.2152 -0.3158  0.7238
  801MOL0     H10517   9.257  12.140   3.004  1.0867  1.3129 -3.8189
  801MOL0     H10518  10.150  12.026   3.130 -0.6576  0.2628  1.2799
  801MOL0     H10519  10.282  11.820   3.181  0.2833 -2.9913  1.1496
  801MOL0     H10520  10.329  11.408   3.172  1.3168 -1.8271 -0.7714
  801MOL0     H10521  10.405  11.160   3.154 -0.4771  0.0966 -0.6558
  801MOL0     H10522   9.845   9.868   2.858  2.9977 -1.7561  0.9790
  801MOL0     H10523   9.803   9.638   2.961 -0.5863 -0.9793  0.5429
  801MOL0     H10524   9.727   9.226   2.959  0.5557 -0.6936  1.5580
  801MOL0     H10525   9.657   9.028   3.056  1.7969  2.7394  2.0459
  801MOL0     H10526   9.558   8.917   3.208 -0.2776 -0.7243  0.1699
  801MOL0     H10527   9.410   8.939   3.293 -0.8781  0.6535 -1.7739
  801MOL0     H10528   9.349   8.698   3.207 -0.2793  0.5509  0.0502
  801MOL0     H10529   9.467   8.724   3.336  0.5788  0.1378  0.0803
  801MOL0     H10530   9.538   8.702   3.036  1.6828  1.1102  0.5136
  801MOL0     H10531   9.653   8.689   3.168  0.1522  0.0181 -0.0182
  801MOL0     H10532   9.593   8.480   3.042 -0.7311 -0.9419 -0.3980
  801MOL0     H10533   9.437   8.472   3.123  1.6549 -5.2459  1.8826
  801MOL0     H10534   9.696   8.336   3.432 -1.2475 -2.6470 -0.9757
  801MOL0     H10535   9.249   9.121   2.972  0.2304 -1.4438 -1.2487
  801MOL0     H10536   9.265   9.336   2.777 -1.6963 -0.0468 -0.6561
  801MOL0     H10537   9.199   9.345   2.947  0.5096  2.6013  1.0447
  801MOL0     H10538   9.289   9.474   2.878 -2.2994 -0.5068  0.0674
  802MOL0     O10539   6.886   4.059  10.718 -0.3079  0.3438  0.7581
  802MOL0     C10540   6.787   4.119  10.676 -0.0607  0.4851  1.0698
  802MOL0     O10541   6.680   4.057  10.611 -0.2693 -0.1580  0.9022
  802MOL0     C10542   6.714   3.932  10.579  0.1605  0.3749 -0.6096
  802MOL0     C10543   6.671   3.823  10.660  0.2938  0.5479 -0.0649
  802MOL0     C10544   6.704   3.692  10.621 -0.6280  0.1728  0.1460
  802MOL0     C10545   6.754   3.672  10.485 -0.6322 -0.4281  0.6835
  802MOL0     O10546   6.784   3.550  10.435  0.4095 -0.2887 -0.0798
  802MOL0     C10547   6.740   3.429  10.503 -0.8967 -0.2882  0.0066
  802MOL0     C10548   6.734   3.315  10.403 -0.6440  0.9565 -0.1769
  802MOL0     C10549   6.755   3.180  10.474 -0.0845 -1.2585 -1.7275
  802MOL0     C10550   6.732   3.061  10.383 -0.6252 -0.3758  0.3275
  802MOL0     C10551   6.720   2.937  10.478 -0.6847  0.3438 -0.0899
  802MOL0     C10552   6.730   2.803  10.401  0.0013  0.3184  0.4762
  802MOL0     C10553   6.694   2.685  10.495  0.6421  0.5695  0.1230
  802MOL0     C10554   6.707   2.545  10.431 -0.3996  0.3107 -0.5636
  802MOL0     N10555   6.841   2.497  10.395 -0.4588 -0.6052  0.0787
  802MOL0     C10556   6.947   2.500  10.478  0.3093  0.1008  0.3851
  802MOL0     C10557   7.049   2.457  10.400 -0.2313 -0.3337  0.1749
  802MOL0     C10558   7.191   2.421  10.426 -0.9378 -0.4282  0.0994
  802MOL0     C10559   7.232   2.493  10.550  0.8500 -0.2828 -0.0174
  802MOL0     C10560   7.379   2.462  10.566 -0.6960 -0.5472  0.0981
  802MOL0     C10561   7.456   2.585  10.602 -1.0637 -0.9313  0.2536
  802MOL0     O10562   7.602   2.557  10.613  0.2755 -0.6996 -0.0975
  802MOL0     C10563   7.667   2.532  10.729 -0.2583  0.2624  0.0821
  802MOL0     C10564   7.803   2.505  10.716  0.1400 -0.2339  0.5485
  802MOL0     C10565   7.884   2.464  10.821 -0.3055  0.4371 -0.3794
  802MOL0     C10566   8.031   2.446  10.790 -0.3886 -0.0355  0.3653
  802MOL0     C10567   7.825   2.434  10.946  1.2802  1.0823 -0.0479
  802MOL0     C10568   7.902   2.390  11.077 -0.0298 -0.6016  0.4396
  802MOL0     O10569   7.817   2.369  11.177 -0.1922 -0.5706  0.7140
  802MOL0     C10570   7.863   2.293  11.281  0.5613  0.3674  0.9446
  802MOL0     C10571   7.852   2.153  11.266  0.0153 -0.0161 -0.1400
  802MOL0     C10572   7.898   2.069  11.373 -0.5370 -0.0370  0.3772
  802MOL0     C10573   7.943   2.131  11.486  0.5106  0.8388  0.5544
  802MOL0     O10574   7.959   2.046  11.591 -0.2910  1.0534  0.2420
  802MOL0     C10575   7.832   2.006  11.636 -0.4843 -0.9457 -0.2496
  802MOL0     C10576   7.841   1.890  11.726  0.3212 -0.4560 -0.6052
  802MOL0     C10577   7.930   1.903  11.860 -0.3176  0.4849  0.5691
  802MOL0     C10578   7.949   1.777  11.947 -0.2862  1.0732 -0.2276
  802MOL0     C10579   8.075   1.794  12.037 -0.1125 -0.9000  0.2267
  802MOL0     C10580   8.095   1.675  12.145 -0.5244 -1.0717 -0.5931
  802MOL0     C10581   8.223   1.696  12.237  0.2914  0.3656  1.0244
  802MOL0     C10582   8.231   1.835  12.303 -0.1368 -0.0206 -0.9122
  802MOL0    Cl10583   8.101   1.848  12.422  0.3975  0.2686 -0.0924
  802MOL0     C10584   7.953   2.269  11.501 -0.7375  1.0368  0.3377
  802MOL0     C10585   7.918   2.354  11.399 -0.7438  0.0681 -0.5608
  802MOL0     O10586   8.026   2.383  11.081 -0.4711 -0.3932  0.1612
  802MOL0     C10587   7.690   2.468  10.958 -0.1924 -0.2435  0.0439
  802MOL0     C10588   7.606   2.512  10.853 -0.2724 -0.5742 -0.0896
  802MOL0     N10589   6.995   2.425  10.269 -0.0501 -0.0524  0.5719
  802MOL0     N10590   6.871   2.461  10.271 -0.2746  0.8111  0.3443
  802MOL0     C10591   6.768   3.777  10.398 -0.3198  0.1490 -0.0605
  802MOL0     C10592   6.761   3.909  10.451 -0.0649 -0.5165  0.1903
  802MOL0     C10593   6.753   4.265  10.719 -0.2716  0.4903 -0.4275
  802MOL0     C10594   6.630   4.317  10.688 -0.3102  0.7508  0.1680
  802MOL0     C10595   6.598   4.454  10.715 -0.4722  0.5862  0.1874
  802MOL0     C10596   6.698   4.549  10.752 -0.8145  0.3380  0.8126
  802MOL0     O10597   6.660   4.681  10.764  0.3458  1.0265 -1.0288
  802MOL0     C10598   6.757   4.775  10.804 -0.3551  0.1787 -0.5161
  802MOL0     C10599   6.714   4.917  10.801 -0.3021 -0.3610  0.6690
  802MOL0     C10600   6.573   4.926  10.875  0.2017  0.3655  0.3532
  802MOL0     C10601   6.526   5.069  10.898 -0.1353 -0.3194  0.1018
  802MOL0     C10602   6.380   5.069  10.922  0.5246 -0.6893 -0.0893
  802MOL0     C10603   6.268   5.077  10.968 -0.0955 -0.7038  0.5044
  802MOL0     C10604   6.825   4.490  10.794  0.0765 -0.1151  1.2932
  802MOL0     C10605   6.857   4.361  10.756 -0.0749  0.7684 -0.1373
  802MOL0     C10606   7.005   4.320  10.771  1.2080  0.3510  0.0210
  802MOL0     H10607   6.622   3.860  10.749  2.2615 -1.2504  1.8935
  802MOL0     H10608   6.699   3.612  10.694  0.1333  0.0013  0.0140
  802MOL0     H10609   6.636   3.446  10.533 -0.2652 -0.0951  2.2592
  802MOL0     H10610   6.811   3.406  10.583 -1.7027 -1.3586  0.4443
  802MOL0     H10611   6.635   3.321  10.357 -1.2761 -0.4538  0.9277
  802MOL0     H10612   6.815   3.328  10.331 -0.9275  3.1794 -0.1371
  802MOL0     H10613   6.860   3.173  10.504 -0.5431  0.5881  0.6995
  802MOL0     H10614   6.694   3.181  10.565 -1.1279 -0.8401 -2.4132
  802MOL0     H10615   6.643   3.085  10.324  1.5971 -1.8159 -4.0859
  802MOL0     H10616   6.810   3.056  10.306 -1.2776  1.2729 -0.4896
  802MOL0     H10617   6.622   2.928  10.526  0.7249 -0.9267  2.7827
  802MOL0     H10618   6.802   2.938  10.550 -1.4870 -2.1464  0.9846
  802MOL0     H10619   6.667   2.808  10.312 -0.7317  0.3102  0.9893
  802MOL0     H10620   6.834   2.783  10.373 -0.7590 -2.0722 -0.9514
  802MOL0     H10621   6.586   2.684  10.510  0.0322 -2.0991 -3.1689
  802MOL0     H10622   6.745   2.693  10.591  0.6542 -1.3709  0.3055
  802MOL0     H10623   6.670   2.479  10.510 -0.4633 -2.7303 -2.9842
  802MOL0     H10624   6.641   2.527  10.346 -0.4541 -1.0229 -0.2547
  802MOL0     H10625   6.950   2.527  10.584  3.2685  0.5212  0.2882
  802MOL0     H10626   7.247   2.457  10.339 -0.5533  0.8716  0.8558
  802MOL0     H10627   7.199   2.315  10.451 -0.8059 -0.4729 -0.1301
  802MOL0     H10628   7.223   2.601  10.534 -1.7008 -0.2800  0.8392
  802MOL0     H10629   7.171   2.456  10.634 -1.4864  0.6973 -1.1975
  802MOL0     H10630   7.390   2.392  10.649 -1.4279  0.5940  1.1815
  802MOL0     H10631   7.418   2.423  10.471 -1.8335 -0.2513 -0.4967
  802MOL0     H10632   7.437   2.661  10.526 -3.2915 -2.0748 -0.4255
  802MOL0     H10633   7.432   2.626  10.701  0.5340 -1.2491  0.8009
  802MOL0     H10634   7.854   2.526  10.622  0.6349 -0.9515  0.6486
  802MOL0     H10635   8.038   2.450  10.681 -1.4771 -1.1851  0.2454
  802MOL0     H10636   8.074   2.352  10.824  1.3985  0.1921 -1.0808
  802MOL0     H10637   8.086   2.526  10.841  0.4570  0.2660 -0.9433
  802MOL0     H10638   7.811   2.113  11.173  1.8550 -3.3601  0.3173
  802MOL0     H10639   7.876   1.963  11.367  1.4604 -0.4293 -0.8866
  802MOL0     H10640   7.794   2.085  11.701 -0.7003 -0.1646 -1.3020
  802MOL0     H10641   7.762   1.997  11.553 -1.9499  2.2618  0.4869
  802MOL0     H10642   7.744   1.852  11.758 -0.0636  0.9814  0.0275
  802MOL0     H10643   7.892   1.819  11.660  1.0844  0.4028 -0.9677
  802MOL0     H10644   7.883   1.980  11.921 -4.1214  1.0277 -2.6328
  802MOL0     H10645   8.028   1.934  11.824 -0.4358  0.6208  0.3596
  802MOL0     H10646   7.952   1.694  11.876 -1.3451  1.4416 -0.7148
  802MOL0     H10647   7.860   1.748  12.004 -3.1418  1.4529 -4.0960
  802MOL0     H10648   8.172   1.811  11.990  2.2850 -3.5803  3.6456
  802MOL0     H10649   8.057   1.893  12.082 -0.4439 -0.4501 -0.8808
  802MOL0     H10650   8.095   1.583  12.085 -5.6660 -2.7073  1.3780
  802MOL0     H10651   8.000   1.665  12.199 -1.3551  0.6686 -1.6168
  802MOL0     H10652   8.318   1.668  12.190 -0.3235 -0.3219  0.1314
  802MOL0     H10653   8.212   1.625  12.320 -3.0810 -0.1736  0.2655
  802MOL0     H10654   8.213   1.924  12.242  0.8542  1.5342  0.9763
  802MOL0     H10655   8.325   1.847  12.356 -0.1301  0.8033 -1.1022
  802MOL0     H10656   7.993   2.302  11.597 -0.6400  2.3607 -0.1326
  802MOL0     H10657   7.915   2.461  11.416 -0.8736 -0.2852  2.0981
  802MOL0     H10658   7.633   2.465  11.051  0.0925  1.1247  0.2909
  802MOL0     H10659   7.501   2.534  10.866 -0.4283 -1.9472  1.1955
  802MOL0     H10660   6.809   3.761  10.299  0.1666 -1.7313  0.4005
  802MOL0     H10661   6.780   3.991  10.381  3.3659 -1.0802  0.2891
  802MOL0     H10662   6.545   4.265  10.646 -0.2071  0.7244 -0.0067
  802MOL0     H10663   6.498   4.486  10.687 -1.7972 -1.0932  2.5934
  802MOL0     H10664   6.772   4.749  10.909 -2.4507  0.2663 -0.1654
  802MOL0     H10665   6.850   4.748  10.752 -0.0594 -1.9302  0.9814
  802MOL0     H10666   6.709   4.960  10.701 -0.8908  2.5781  1.8477
  802MOL0     H10667   6.787   4.982  10.850 -0.6467  1.2252 -0.8247
  802MOL0     H10668   6.507   4.863  10.816 -0.5633  1.8072 -0.3635
  802MOL0     H10669   6.584   4.886  10.977  2.2079  0.2447  0.1413
  802MOL0     H10670   6.556   5.114  10.803  0.3888  0.7681  0.7694
  802MOL0     H10671   6.589   5.115  10.975 -0.9423  1.4816 -0.2713
  802MOL0     H10672   6.180   5.069  11.028  1.2402 -0.9538  2.5183
  802MOL0     H10673   6.894   4.553  10.850  0.9185  1.2626 -1.1544
  802MOL0     H10674   7.065   4.390  10.830  0.9139  2.2772 -1.8284
  802MOL0     H10675   7.005   4.219  10.814 -1.5508  0.6000  0.7657
  802MOL0     H10676   7.046   4.307  10.670 -0.7543 -0.1008 -0.7597
  803MOL0     O10677   9.977   1.294   2.213 -0.3470  0.4063 -0.9553
  803MOL0     C10678   9.881   1.353   2.162  0.5290  0.1261 -0.6545
  803MOL0     O10679   9.778   1.301   2.084  0.4936  0.1349 -0.7688
  803MOL0     C10680   9.760   1.166   2.094 -0.1496  0.2587 -0.7467
  803MOL0     C10681   9.681   1.118   2.209 -0.0752  0.1923 -0.2046
  803MOL0     C10682   9.651   0.988   2.223 -0.4771 -0.5856 -0.2517
  803MOL0     C10683   9.688   0.892   2.126  0.1850  0.3818  0.1176
  803MOL0     O10684   9.667   0.758   2.132 -0.4195 -0.3088 -0.4232
  803MOL0     C10685   9.672   0.708   2.267 -0.1438 -0.2039  0.6823
  803MOL0     C10686   9.683   0.552   2.250  0.1346  0.0142  0.5968
  803MOL0     C10687   9.552   0.476   2.291  0.1736  0.4647 -0.6146
  803MOL0     C10688   9.447   0.482   2.185  0.5187 -0.3761  0.1800
  803MOL0     C10689   9.310   0.422   2.228 -0.4991 -1.0654  0.2900
  803MOL0     C10690   9.319   0.270   2.259 -0.2073 -0.2368 -0.0322
  803MOL0     C10691   9.193   0.207   2.325 -0.4648 -0.0711  0.9025
  803MOL0     C10692   9.060   0.247   2.260  0.0278  0.0133 -0.1263
  803MOL0     N10693   9.051   0.208   2.123  0.1502 -0.3263 -0.3712
  803MOL0     C10694   9.013   0.088   2.090  0.4000  0.0058  1.2777
  803MOL0     C10695   9.012   0.106   1.959 -0.5275  0.1831 -0.4292
  803MOL0     C10696   8.961   0.017   1.857 -0.0772  0.6555  0.6628
  803MOL0     C10697   8.808  -0.019   1.859 -1.0177 -0.4250  1.0276
  803MOL0     C10698   8.776  -0.126   1.955  0.8185 -0.9421  0.2592
  803MOL0     C10699   8.826  -0.259   1.909  0.3116  0.0525 -0.7943
  803MOL0     O10700   8.788  -0.349   2.014  0.0890 -0.3169  0.4392
  803MOL0     C10701   8.765  -0.482   1.979  0.7153 -0.4511  0.3237
  803MOL0     C10702   8.647  -0.548   2.005 -0.0018 -0.8193  0.5073
  803MOL0     C10703   8.632  -0.683   1.985  1.1163  0.3485  1.0516
  803MOL0     C10704   8.497  -0.753   2.020 -0.4888 -1.0904  0.3774
  803MOL0     C10705   8.749  -0.756   1.922  1.6019  0.6078  0.1788
  803MOL0     C10706   8.746  -0.901   1.908 -0.8425 -0.0328  0.0857
  803MOL0     O10707   8.857  -0.951   1.851  0.5351 -0.1262  0.1401
  803MOL0     C10708   8.865  -1.086   1.839 -0.7927  0.0059 -0.0437
  803MOL0     C10709   8.959  -1.160   1.912  0.0580 -0.6708  0.0124
  803MOL0     C10710   8.980  -1.303   1.878  0.2758 -0.1306 -0.0088
  803MOL0     C10711   8.912  -1.368   1.767 -0.0304  0.2211  0.0212
  803MOL0     O10712   8.923  -1.498   1.721 -0.1059 -0.1084  0.0675
  803MOL0     C10713   9.040  -1.571   1.768 -0.2792  0.3091  0.2410
  803MOL0     C10714   9.026  -1.714   1.768  0.1948 -0.0417 -0.2913
  803MOL0     C10715   8.929  -1.770   1.876  0.2840  0.0117  0.1655
  803MOL0     C10716   8.792  -1.789   1.814  0.7983 -0.2306  0.0471
  803MOL0     C10717   8.674  -1.791   1.917  0.1318  0.6802 -0.5155
  803MOL0     C10718   8.533  -1.823   1.861  0.6345 -0.0459  0.2404
  803MOL0     C10719   8.433  -1.857   1.969  0.2909 -0.2669  0.5278
  803MOL0     C10720   8.336  -1.963   1.914 -0.3322  0.4953 -0.2174
  803MOL0    Cl10721   8.415  -2.131   1.919 -0.3049 -0.2504  0.0355
  803MOL0     C10722   8.832  -1.279   1.702  0.4702  0.1004 -0.8951
  803MOL0     C10723   8.809  -1.144   1.731 -0.2265  0.7182 -0.1216
  803MOL0     O10724   8.659  -0.969   1.964 -0.2423  0.1695  0.0656
  803MOL0     C10725   8.859  -0.681   1.883 -0.3029 -0.0091 -0.2334
  803MOL0     C10726   8.868  -0.550   1.917  0.2240 -0.5072 -0.0133
  803MOL0     N10727   9.075   0.218   1.922 -0.2793 -0.0762  0.1812
  803MOL0     N10728   9.110   0.278   2.020 -0.0013 -0.2698  0.3271
  803MOL0     C10729   9.782   0.941   2.028 -0.5408  0.2281 -0.1868
  803MOL0     C10730   9.819   1.077   2.004 -0.3865 -0.0048 -0.5056
  803MOL0     C10731   9.888   1.500   2.172  0.9948 -1.0046  0.0913
  803MOL0     C10732   9.806   1.569   2.077 -0.2145  0.0835  0.5304
  803MOL0     C10733   9.793   1.704   2.082 -0.7374  0.5533 -0.5348
  803MOL0     C10734   9.874   1.788   2.165  0.5691 -0.2308 -0.1466
  803MOL0     O10735   9.874   1.926   2.162 -0.7941 -0.0305 -0.1851
  803MOL0     C10736   9.742   1.981   2.170 -0.2994  0.2122 -0.8649
  803MOL0     C10737   9.723   2.061   2.044 -0.1096 -0.3569  0.0835
  803MOL0     C10738   9.791   2.200   2.061 -0.3689  0.1342 -0.5173
  803MOL0     C10739   9.949   2.194   2.069  0.7073  0.7278 -0.1224
  803MOL0     C10740   9.999   2.324   2.043 -0.5895 -0.0824  0.2315
  803MOL0     C10741  10.051   2.430   2.012  0.0173  0.8779 -1.1797
  803MOL0     C10742   9.974   1.719   2.243  0.7393  0.4292 -0.0242
  803MOL0     C10743   9.972   1.577   2.259  0.0690  0.4950  0.4550
  803MOL0     C10744  10.063   1.515   2.359 -0.1370 -1.1129  1.2819
  803MOL0     H10745   9.626   1.182   2.276 -2.1352 -1.4734 -0.2257
  803MOL0     H10746   9.590   0.965   2.310  1.3335  1.3956  1.6988
  803MOL0     H10747   9.580   0.734   2.320  0.1425 -0.1690  1.1636
  803MOL0     H10748   9.758   0.752   2.319  0.5203 -0.7934  0.1026
  803MOL0     H10749   9.705   0.521   2.148  2.4316  0.1478  0.9899
  803MOL0     H10750   9.766   0.528   2.317  0.5259  0.0849  0.1362
  803MOL0     H10751   9.568   0.372   2.322  1.7515  0.4074 -1.5098
  803MOL0     H10752   9.496   0.518   2.375 -1.3238 -1.2148 -0.7207
  803MOL0     H10753   9.415   0.583   2.156  0.8893 -0.7879 -1.7885
  803MOL0     H10754   9.484   0.426   2.099  0.0576 -1.3080  0.5750
  803MOL0     H10755   9.240   0.443   2.147  0.7801  0.1160 -0.5642
  803MOL0     H10756   9.275   0.476   2.316  3.9154 -0.1168  1.7021
  803MOL0     H10757   9.348   0.218   2.167  1.3853  0.2314  0.1717
  803MOL0     H10758   9.390   0.257   2.342  1.7327  2.2374 -1.1743
  803MOL0     H10759   9.195   0.252   2.425 -1.0732 -1.2596  1.4663
  803MOL0     H10760   9.202   0.098   2.323 -1.3830 -0.1533 -0.2007
  803MOL0     H10761   8.970   0.208   2.307 -1.2220  0.6509 -1.9069
  803MOL0     H10762   9.061   0.357   2.260  1.7326  0.0595  1.9068
  803MOL0     H10763   8.986   0.002   2.150  3.0598 -2.7530 -1.1799
  803MOL0     H10764   9.025  -0.070   1.840 -3.5733 -2.1616  0.9026
  803MOL0     H10765   8.967   0.079   1.766 -1.0621 -0.2010 -0.0104
  803MOL0     H10766   8.754   0.073   1.883  1.3299  1.5310 -0.6757
  803MOL0     H10767   8.771  -0.056   1.762 -3.7469 -2.0230  2.5514
  803MOL0     H10768   8.827  -0.104   2.049  0.9884  4.1024 -0.7540
  803MOL0     H10769   8.670  -0.138   1.979  0.9417 -2.0648  0.2944
  803MOL0     H10770   8.787  -0.280   1.810  0.1146  0.2534 -0.7598
  803MOL0     H10771   8.934  -0.274   1.895 -0.2135 -2.7013 -2.5997
  803MOL0     H10772   8.571  -0.479   2.041 -0.9193 -1.8833  0.6734
  803MOL0     H10773   8.427  -0.673   2.044 -0.1106 -0.5043 -0.3974
  803MOL0     H10774   8.518  -0.816   2.107  1.8567  1.5074  1.8927
  803MOL0     H10775   8.451  -0.802   1.934  0.5359 -1.1238 -0.1691
  803MOL0     H10776   9.013  -1.130   2.001  0.8624  0.7436 -0.9084
  803MOL0     H10777   9.042  -1.366   1.941 -0.7762 -1.5447 -0.3357
  803MOL0     H10778   9.123  -1.556   1.698 -0.9344  1.9789 -0.2262
  803MOL0     H10779   9.076  -1.538   1.866  1.0124 -0.5638  0.0921
  803MOL0     H10780   8.992  -1.735   1.666 -1.5170  3.2994 -0.5437
  803MOL0     H10781   9.118  -1.767   1.796 -0.6621 -0.2226  2.4991
  803MOL0     H10782   8.934  -1.692   1.952  1.6988  1.3774 -1.2647
  803MOL0     H10783   8.966  -1.867   1.910 -2.7251 -2.0582 -1.8390
  803MOL0     H10784   8.816  -1.876   1.753  5.1634 -0.5722  1.9147
  803MOL0     H10785   8.767  -1.704   1.749  0.1170  0.7121  1.4816
  803MOL0     H10786   8.698  -1.859   2.000  1.7877  3.2624  1.2502
  803MOL0     H10787   8.669  -1.694   1.967 -0.8313 -0.5873  2.0274
  803MOL0     H10788   8.540  -1.906   1.790  0.9425  0.2067 -0.0267
  803MOL0     H10789   8.486  -1.739   1.809 -0.1740 -1.5031 -1.4623
  803MOL0     H10790   8.394  -1.761   2.003 -0.2022 -0.5775  0.8500
  803MOL0     H10791   8.486  -1.904   2.053  1.3986 -2.5912 -1.3296
  803MOL0     H10792   8.304  -1.926   1.816  0.8312  3.4467  0.4092
  803MOL0     H10793   8.250  -1.971   1.981 -0.3995  2.1934 -0.0596
  803MOL0     H10794   8.783  -1.311   1.611  0.0768  1.4998 -1.1959
  803MOL0     H10795   8.753  -1.083   1.660 -1.7314  0.3164  0.6728
  803MOL0     H10796   8.948  -0.723   1.837 -0.0196  2.2971 -1.9652
  803MOL0     H10797   8.965  -0.501   1.921 -0.0317 -0.0434  1.1910
  803MOL0     H10798   9.824   0.883   1.946 -1.9636  0.4412 -1.1120
  803MOL0     H10799   9.901   1.106   1.941  1.0622 -2.2620  0.2212
  803MOL0     H10800   9.733   1.529   2.007  0.7538  1.0267 -1.0873
  803MOL0     H10801   9.726   1.755   2.014 -2.3138  2.2977  2.1510
  803MOL0     H10802   9.663   1.907   2.155  1.0179 -1.4398 -0.0225
  803MOL0     H10803   9.731   2.047   2.256  2.4728 -1.0364  0.5744
  803MOL0     H10804   9.615   2.076   2.034 -0.1953  0.5190  1.8719
  803MOL0     H10805   9.750   2.010   1.952  0.1740  2.4754 -1.5140
  803MOL0     H10806   9.750   2.270   1.988 -1.7893  0.7900  0.8572
  803MOL0     H10807   9.766   2.244   2.157 -1.0220  3.4800 -2.0897
  803MOL0     H10808   9.987   2.123   1.995  0.3941  1.5186 -1.0542
  803MOL0     H10809   9.979   2.163   2.169  3.3326  1.6491 -0.5398
  803MOL0     H10810  10.098   2.521   1.983 -0.0530  0.7292 -1.7904
  803MOL0     H10811  10.041   1.782   2.302 -0.5141  0.4854  1.4203
  803MOL0     H10812  10.148   1.480   2.300 -1.4326 -0.4153 -1.1246
  803MOL0     H10813  10.086   1.599   2.426 -3.7428  0.7843  0.4031
  803MOL0     H10814  10.043   1.431   2.426  1.9854  0.4042  4.0437
  804MOL0     O10815   6.559   6.825   7.683  1.0618 -0.1252  0.7794
  804MOL0     C10816   6.559   6.881   7.789 -1.0847  0.5763 -1.0947
  804MOL0     O10817   6.467   6.971   7.840  0.3182  1.0515 -0.3691
  804MOL0     C10818   6.354   6.983   7.765  0.6257 -0.9069  0.1364
  804MOL0     C10819   6.323   7.105   7.702  0.3780  0.8762  0.5102
  804MOL0     C10820   6.205   7.134   7.637 -0.1491 -0.8303  0.8231
  804MOL0     C10821   6.111   7.033   7.620  0.5719  0.7301 -0.4878
  804MOL0     O10822   5.985   7.056   7.563 -0.6357  0.4356 -0.5838
  804MOL0     C10823   5.922   6.966   7.474  1.1968  0.5986  0.1433
  804MOL0     C10824   5.810   7.046   7.407  0.8119 -0.5217 -1.1310
  804MOL0     C10825   5.867   7.140   7.293 -0.4010 -0.4281  0.4419
  804MOL0     C10826   5.761   7.176   7.186  0.0752 -0.5464 -0.7997
  804MOL0     C10827   5.821   7.263   7.081 -0.0743 -1.0466 -0.0207
  804MOL0     C10828   5.718   7.265   6.964  0.2805  0.8487 -0.8485
  804MOL0     C10829   5.761   7.363   6.854  0.3281  0.1850 -0.2366
  804MOL0     C10830   5.892   7.329   6.778 -0.6199  0.6464 -0.2876
  804MOL0     N10831   5.965   7.456   6.740 -0.2180  0.1372  0.0133
  804MOL0     C10832   5.928   7.557   6.656 -0.0529 -0.1389 -0.6073
  804MOL0     C10833   6.014   7.658   6.674  0.2552 -0.7992 -0.1730
  804MOL0     C10834   6.012   7.791   6.601 -0.1659  0.1948  0.8936
  804MOL0     C10835   5.974   7.898   6.705 -0.1521  0.0482 -0.5704
  804MOL0     C10836   5.952   8.031   6.637 -0.3291 -0.7449  0.6112
  804MOL0     C10837   5.914   8.131   6.748  0.0101  0.2771  0.3252
  804MOL0     O10838   5.911   8.269   6.704  0.0226 -0.2751  0.4674
  804MOL0     C10839   5.919   8.358   6.806  1.2274  0.3041  0.3650
  804MOL0     C10840   5.808   8.371   6.883 -0.4397 -0.7286 -0.3878
  804MOL0     C10841   5.803   8.464   6.983 -0.5021  0.0215  0.3340
  804MOL0     C10842   5.665   8.477   7.052 -0.7250  0.3541  0.2881
  804MOL0     C10843   5.907   8.551   7.006  0.3189 -0.3646 -0.2288
  804MOL0     C10844   5.903   8.656   7.106  0.0242 -0.5666 -0.4468
  804MOL0     O10845   6.012   8.752   7.111  0.2616 -0.5004  0.4010
  804MOL0     C10846   6.017   8.845   7.213  0.5380  0.0476  0.7525
  804MOL0     C10847   5.996   8.814   7.357 -0.8662  0.4437  0.0562
  804MOL0     C10848   6.040   8.905   7.451 -0.0235  1.1801 -0.3936
  804MOL0     C10849   6.078   9.032   7.414  0.3404  0.6318  0.1516
  804MOL0     O10850   6.107   9.133   7.501 -0.8002 -0.2057 -0.4039
  804MOL0     C10851   6.132   9.102   7.644  1.0801  0.2272 -0.3567
  804MOL0     C10852   6.157   9.233   7.719 -0.7417  0.1243 -0.4660
  804MOL0     C10853   6.311   9.273   7.726  0.4941  0.2643  0.0676
  804MOL0     C10854   6.403   9.169   7.789 -0.0448 -0.0627 -0.1694
  804MOL0     C10855   6.547   9.187   7.750  0.4242  0.3588 -0.9195
  804MOL0     C10856   6.617   9.326   7.768 -0.3995  0.3095 -0.1109
  804MOL0     C10857   6.610   9.380   7.914  0.8019  0.2714  0.2728
  804MOL0     C10858   6.689   9.508   7.936  0.1946  0.3022 -0.1410
  804MOL0    Cl10859   6.863   9.471   7.970 -0.3368 -0.0329 -0.0469
  804MOL0     C10860   6.091   9.067   7.280  0.7683 -0.8747  0.5150
  804MOL0     C10861   6.058   8.976   7.183  0.3349  0.3251  0.2676
  804MOL0     O10862   5.820   8.644   7.187 -0.7445 -0.0624 -0.0194
  804MOL0     C10863   6.025   8.539   6.929 -1.0477  0.4370  0.1023
  804MOL0     C10864   6.027   8.447   6.819 -0.0265  0.3519  0.8016
  804MOL0     N10865   6.114   7.618   6.762 -0.5677  0.1346  0.2557
  804MOL0     N10866   6.072   7.505   6.809 -0.6212  0.0707 -0.3261
  804MOL0     C10867   6.135   6.913   7.681  0.6011 -0.4517  0.4222
  804MOL0     C10868   6.255   6.888   7.748 -0.1972  0.9730  0.7362
  804MOL0     C10869   6.680   6.880   7.873 -0.4226 -0.0578 -0.0020
  804MOL0     C10870   6.658   6.874   8.014  0.8729 -0.4343  0.8182
  804MOL0     C10871   6.764   6.876   8.100 -0.4184 -0.4166  0.0413
  804MOL0     C10872   6.896   6.893   8.059 -0.2043  1.2519 -0.1150
  804MOL0     O10873   6.986   6.890   8.165  0.6971  0.0138  0.7563
  804MOL0     C10874   7.123   6.891   8.140  0.0839 -0.8426 -0.1329
  804MOL0     C10875   7.171   7.025   8.090  0.2873 -1.0955  0.1050
  804MOL0     C10876   7.185   7.135   8.201 -0.1411 -0.2718  0.3245
  804MOL0     C10877   7.310   7.114   8.291 -0.3444  0.4092 -0.7713
  804MOL0     C10878   7.294   7.181   8.419 -0.1387 -0.0163  0.5269
  804MOL0     C10879   7.302   7.245   8.522 -0.1723  0.4507 -0.9354
  804MOL0     C10880   6.920   6.895   7.920 -0.1529  0.0355 -0.6041
  804MOL0     C10881   6.819   6.865   7.830  0.1145  0.1224  0.0104
  804MOL0     C10882   6.865   6.856   7.679  1.3285  0.0526 -0.6136
  804MOL0     H10883   6.395   7.186   7.711  1.9668 -0.2964 -0.8380
  804MOL0     H10884   6.169   7.228   7.595  1.9002  0.1689  1.1839
  804MOL0     H10885   5.881   6.880   7.528  2.5547  1.1014  2.0846
  804MOL0     H10886   5.995   6.928   7.403  0.6484 -1.3649  0.5715
  804MOL0     H10887   5.752   6.967   7.358 -1.1249  1.4793 -2.2314
  804MOL0     H10888   5.744   7.095   7.480  3.8545 -0.8283  2.0929
  804MOL0     H10889   5.902   7.235   7.334  0.6916 -0.6068 -0.0605
  804MOL0     H10890   5.947   7.083   7.246  1.0706 -0.3164  2.6736
  804MOL0     H10891   5.728   7.081   7.143  0.4337 -1.1417  0.2075
  804MOL0     H10892   5.680   7.231   7.234  1.0877 -0.2032  0.5705
  804MOL0     H10893   5.915   7.220   7.046  0.1942  0.3453 -1.1128
  804MOL0     H10894   5.842   7.367   7.106 -2.3231 -0.1602 -1.4619
  804MOL0     H10895   5.710   7.165   6.920 -2.6350  1.7057 -2.5399
  804MOL0     H10896   5.628   7.302   7.015  0.0591  0.0640 -0.6604
  804MOL0     H10897   5.773   7.459   6.905  0.8819  0.0753 -0.1573
  804MOL0     H10898   5.683   7.351   6.777  2.0657 -1.1920 -1.8721
  804MOL0     H10899   5.966   7.273   6.836  0.0204  0.6550 -1.0793
  804MOL0     H10900   5.875   7.262   6.693 -2.2785  0.9030 -0.1865
  804MOL0     H10901   5.844   7.549   6.587 -0.2221  5.0669 -1.4026
  804MOL0     H10902   5.947   7.800   6.513  1.6218  2.0804 -0.3260
  804MOL0     H10903   6.113   7.804   6.564 -0.3582  2.4777  1.0368
  804MOL0     H10904   5.885   7.859   6.756  0.5917 -1.2906 -0.2322
  804MOL0     H10905   6.046   7.907   6.787  1.5246 -2.8870 -1.5409
  804MOL0     H10906   6.044   8.075   6.598  0.4085 -1.0177  1.9856
  804MOL0     H10907   5.873   8.020   6.562  0.9765 -0.2992 -0.8777
  804MOL0     H10908   5.812   8.103   6.776 -0.1708  2.0137  1.6183
  804MOL0     H10909   5.971   8.123   6.841 -0.8163 -0.0402  0.8141
  804MOL0     H10910   5.716   8.318   6.859 -0.3996 -0.8875 -0.1939
  804MOL0     H10911   5.593   8.426   6.987 -2.5232  4.6616 -1.4944
  804MOL0     H10912   5.632   8.581   7.062  0.8637  0.9830 -0.7908
  804MOL0     H10913   5.663   8.420   7.146 -1.6361 -0.7865 -0.3976
  804MOL0     H10914   5.942   8.723   7.382 -1.8654  2.0107  4.3683
  804MOL0     H10915   6.026   8.878   7.555 -1.9703 -0.0728 -0.9316
  804MOL0     H10916   6.041   9.057   7.685  0.8407  1.6186  0.7216
  804MOL0     H10917   6.218   9.038   7.665  0.2282  0.4171  5.0487
  804MOL0     H10918   6.108   9.323   7.680  2.0320  1.4346 -1.1995
  804MOL0     H10919   6.123   9.214   7.821 -0.4720  0.7776 -0.2469
  804MOL0     H10920   6.319   9.373   7.770 -1.4020  0.6741 -0.4160
  804MOL0     H10921   6.334   9.297   7.622  1.4549  3.0391  0.8496
  804MOL0     H10922   6.376   9.065   7.767  0.2854  0.2263 -2.1180
  804MOL0     H10923   6.395   9.178   7.898  0.7299  3.4313 -0.3110
  804MOL0     H10924   6.602   9.117   7.813 -1.9140  0.8622  1.8923
  804MOL0     H10925   6.552   9.167   7.642  1.3622 -0.3699 -0.7525
  804MOL0     H10926   6.573   9.401   7.702 -2.7292  0.3273  1.3499
  804MOL0     H10927   6.722   9.322   7.738 -0.4129 -1.8665 -0.0108
  804MOL0     H10928   6.637   9.301   7.985 -0.7422 -1.1420 -0.6550
  804MOL0     H10929   6.505   9.405   7.928  0.7245  2.1947 -2.8219
  804MOL0     H10930   6.645   9.562   8.021 -0.7370 -0.4259 -0.1403
  804MOL0     H10931   6.670   9.571   7.849  1.8231  0.4758 -0.3922
  804MOL0     H10932   6.141   9.153   7.235  0.4305 -0.5637  0.7273
  804MOL0     H10933   6.067   8.984   7.075 -0.9903  0.4243  0.1509
  804MOL0     H10934   6.111   8.605   6.943  1.0624 -2.3460  1.1267
  804MOL0     H10935   6.109   8.454   6.748 -2.2190  0.5958 -1.8773
  804MOL0     H10936   6.059   6.836   7.683 -2.6554  2.4719  0.0249
  804MOL0     H10937   6.266   6.789   7.790 -1.9405  1.2740  2.0551
  804MOL0     H10938   6.556   6.854   8.041 -0.1849  1.7246 -1.1843
  804MOL0     H10939   6.750   6.876   8.207  2.6893  1.6614  0.5999
  804MOL0     H10940   7.183   6.858   8.225  0.3624 -4.0940 -1.4701
  804MOL0     H10941   7.148   6.816   8.064 -0.1744  0.4647 -1.5636
  804MOL0     H10942   7.092   7.063   8.025  0.6027  1.0806  0.8990
  804MOL0     H10943   7.264   7.019   8.033 -1.0605 -4.1795 -2.0685
  804MOL0     H10944   7.194   7.227   8.144 -0.8875 -1.0296 -1.0495
  804MOL0     H10945   7.087   7.143   8.249 -0.3901 -0.2655 -0.1795
  804MOL0     H10946   7.404   7.151   8.249 -1.0701  0.8431 -2.0899
  804MOL0     H10947   7.333   7.011   8.320 -1.0233  0.9341  1.8590
  804MOL0     H10948   7.301   7.305   8.612 -0.3567 -2.0277  0.8027
  804MOL0     H10949   7.025   6.888   7.892 -0.8214 -1.4507 -3.0446
  804MOL0     H10950   6.906   6.952   7.646  0.7438  0.1987 -0.9315
  804MOL0     H10951   6.936   6.777   7.654  0.6709 -2.0132  3.2125
  804MOL0     H10952   6.781   6.835   7.612 -0.6522  1.5480  1.2615
  805MOL0     O10953   0.947   9.810   0.006  0.0924  0.7532  0.2268
  805MOL0     C10954   1.047   9.739   0.024 -0.0080  0.2302  0.5908
  805MOL0     O10955   1.079   9.617  -0.031 -0.4731  0.8981 -0.2006
  805MOL0     C10956   0.987   9.566  -0.121 -0.0200 -0.1366  0.1654
  805MOL0     C10957   1.027   9.567  -0.256 -0.0221  0.9051 -0.1939
  805MOL0     C10958   0.935   9.501  -0.355  0.2134 -0.1874 -0.9651
  805MOL0     C10959   0.809   9.455  -0.312  0.0929 -1.2568  0.0709
  805MOL0     O10960   0.718   9.420  -0.414 -0.9838  0.1372  0.1571
  805MOL0     C10961   0.584   9.383  -0.383  0.3550 -0.0076 -0.2130
  805MOL0     C10962   0.508   9.339  -0.505  0.3713  0.4154 -1.1492
  805MOL0     C10963   0.574   9.204  -0.562  0.1863  0.8471  0.3162
  805MOL0     C10964   0.491   9.144  -0.681 -0.1235  0.1252 -0.9187
  805MOL0     C10965   0.582   9.085  -0.787 -0.0525  0.3860 -0.0991
  805MOL0     C10966   0.494   9.012  -0.885  0.3842 -0.3217 -0.5502
  805MOL0     C10967   0.561   8.903  -0.955 -0.2763  0.0916 -0.4017
  805MOL0     C10968   0.473   8.846  -1.069  0.5309  0.4985 -0.6178
  805MOL0     N10969   0.472   8.933  -1.191  0.2570 -0.2823  0.6284
  805MOL0     C10970   0.382   8.910  -1.284  0.5102 -0.5398 -0.0354
  805MOL0     C10971   0.400   9.008  -1.380 -1.1915 -0.0713 -0.8967
  805MOL0     C10972   0.304   9.052  -1.501 -0.3815  1.3842  0.5555
  805MOL0     C10973   0.195   9.149  -1.453  0.2606  0.9533 -1.1352
  805MOL0     C10974   0.144   9.137  -1.310 -0.7480  0.4485 -0.9613
  805MOL0     C10975   0.218   9.240  -1.209 -0.2595  0.8978  0.5171
  805MOL0     O10976   0.138   9.282  -1.102 -0.0165 -0.4279 -0.0545
  805MOL0     C10977   0.187   9.391  -1.033  0.2437  0.2287 -0.2535
  805MOL0     C10978   0.099   9.482  -0.960  0.7390  0.1459  0.9400
  805MOL0     C10979   0.142   9.593  -0.884  0.0847  1.9466  0.8758
  805MOL0     C10980   0.039   9.664  -0.818  0.5318  0.2502  0.6549
  805MOL0     C10981   0.280   9.618  -0.858 -0.6236  0.5343  0.1263
  805MOL0     C10982   0.338   9.710  -0.767  0.3000  0.3107  0.2461
  805MOL0     O10983   0.281   9.711  -0.640 -0.0003 -0.6408 -0.0749
  805MOL0     C10984   0.333   9.790  -0.539  0.0221 -0.4616  0.5384
  805MOL0     C10985   0.451   9.743  -0.480  0.1543 -0.3150  0.2039
  805MOL0     C10986   0.509   9.814  -0.371 -1.0343  0.6781 -0.8417
  805MOL0     C10987   0.444   9.915  -0.314 -0.4745 -0.4856 -0.0309
  805MOL0     O10988   0.503   9.988  -0.215  0.3219  0.3356 -1.2743
  805MOL0     C10989   0.637  10.024  -0.230  0.8752  0.5707 -0.9467
  805MOL0     C10990   0.676  10.118  -0.124  0.2245  0.3617 -0.6791
  805MOL0     C10991   0.822  10.155  -0.124 -0.3203 -0.5904  0.8098
  805MOL0     C10992   0.850  10.242  -0.247  0.1386 -0.0232 -0.4664
  805MOL0     C10993   0.984  10.317  -0.233  0.2573  0.9569  0.9675
  805MOL0     C10994   1.015  10.432  -0.329 -0.1151  0.5517 -0.2202
  805MOL0     C10995   0.920  10.549  -0.298  0.4044 -0.3595  0.5987
  805MOL0     C10996   0.970  10.693  -0.334  0.1767  0.0896 -1.2776
  805MOL0    Cl10997   1.016  10.711  -0.509  0.2177 -0.0893 -0.0551
  805MOL0     C10998   0.323   9.956  -0.370  0.1282 -0.0297 -0.1307
  805MOL0     C10999   0.263   9.900  -0.485 -0.9663 -0.1740 -0.1609
  805MOL0     O11000   0.422   9.792  -0.809  0.3662  0.0288 -0.3871
  805MOL0     C11001   0.366   9.525  -0.923 -0.3268  0.1086  0.1161
  805MOL0     C11002   0.329   9.416  -1.002  0.3690 -0.9443  0.7371
  805MOL0     N11003   0.512   9.079  -1.332 -0.0384  0.4839 -0.2526
  805MOL0     N11004   0.563   9.030  -1.218 -0.7621  0.8848 -0.3373
  805MOL0     C11005   0.777   9.466  -0.176  0.4593 -0.2004  1.1960
  805MOL0     C11006   0.860   9.512  -0.085  0.0168  0.6434  0.4939
  805MOL0     C11007   1.149   9.799   0.093 -0.1196  0.3673  0.2961
  805MOL0     C11008   1.181   9.736   0.213  0.6664  0.1973  1.0145
  805MOL0     C11009   1.271   9.783   0.303  0.1762 -0.8799  0.5302
  805MOL0     C11010   1.320   9.912   0.279  0.9839 -0.6486  0.0147
  805MOL0     O11011   1.422   9.955   0.363  0.2059 -0.1261 -0.3916
  805MOL0     C11012   1.521   9.858   0.412  0.9733  0.7081  0.1147
  805MOL0     C11013   1.502   9.865   0.565 -0.0137  0.7520  0.5344
  805MOL0     C11014   1.633   9.825   0.641  0.3697 -0.0186 -0.1886
  805MOL0     C11015   1.616   9.847   0.787 -0.6357 -0.3399 -0.0365
  805MOL0     C11016   1.726   9.787   0.857 -0.4829 -0.5684  0.0188
  805MOL0     C11017   1.822   9.734   0.913 -1.0479 -0.0808 -0.4668
  805MOL0     C11018   1.294   9.984   0.161 -0.2622  0.1860  0.9971
  805MOL0     C11019   1.201   9.928   0.071 -0.4007 -0.4680  0.6766
  805MOL0     C11020   1.158  10.002  -0.057  0.1478  0.6435  0.4735
  805MOL0     H11021   1.123   9.606  -0.286 -0.6189  1.1909 -1.9075
  805MOL0     H11022   0.954   9.486  -0.461  1.6720  1.3001 -0.9518
  805MOL0     H11023   0.537   9.472  -0.340  1.1276 -0.0615  0.7838
  805MOL0     H11024   0.591   9.303  -0.308 -0.2214  0.9766  0.9254
  805MOL0     H11025   0.409   9.313  -0.468  1.2391 -1.2706  0.1337
  805MOL0     H11026   0.526   9.416  -0.581 -0.2346 -1.9732 -3.8762
  805MOL0     H11027   0.676   9.217  -0.601 -0.1273 -1.1790 -1.3333
  805MOL0     H11028   0.581   9.139  -0.475 -2.7237  1.3040  0.9745
  805MOL0     H11029   0.435   9.063  -0.632  0.6303  1.4305  2.3656
  805MOL0     H11030   0.429   9.225  -0.720 -0.7013  0.1798  0.0685
  805MOL0     H11031   0.658   9.025  -0.737 -0.5830  1.5763  2.2562
  805MOL0     H11032   0.625   9.168  -0.844  2.8911 -3.0689 -3.4041
  805MOL0     H11033   0.407   8.964  -0.840  0.5233 -0.1324 -0.0745
  805MOL0     H11034   0.442   9.075  -0.957 -4.9803 -0.7174  2.4794
  805MOL0     H11035   0.583   8.820  -0.886 -1.3606 -1.3416 -1.7205
  805MOL0     H11036   0.662   8.929  -0.986  1.1146 -1.7959  2.1545
  805MOL0     H11037   0.510   8.748  -1.100 -0.5394  0.3942 -1.6278
  805MOL0     H11038   0.367   8.837  -1.043  0.3867 -2.1160 -1.7879
  805MOL0     H11039   0.301   8.841  -1.263  0.5755 -0.1031  1.7868
  805MOL0     H11040   0.256   8.957  -1.526  0.4673  1.0680  0.0675
  805MOL0     H11041   0.368   9.088  -1.583 -0.1894 -1.4100 -0.6218
  805MOL0     H11042   0.240   9.248  -1.467  0.0507  1.3540  0.7728
  805MOL0     H11043   0.110   9.126  -1.518  1.0533 -0.2621 -1.7832
  805MOL0     H11044   0.035   9.151  -1.305 -0.7201  0.3976  3.2419
  805MOL0     H11045   0.171   9.034  -1.286  2.8645  1.6181  0.7007
  805MOL0     H11046   0.318   9.207  -1.179 -0.1980  1.6714  1.1805
  805MOL0     H11047   0.241   9.328  -1.269 -0.6218  0.1849 -0.6994
  805MOL0     H11048  -0.009   9.470  -0.961  0.2166  3.1022  3.5281
  805MOL0     H11049   0.066   9.755  -0.764  0.1464  0.2648  0.8249
  805MOL0     H11050  -0.016   9.603  -0.746 -3.0737  1.5311 -0.8047
  805MOL0     H11051  -0.036   9.689  -0.893 -1.7607  1.0719  3.0920
  805MOL0     H11052   0.499   9.654  -0.520 -1.7847 -0.9777 -0.7474
  805MOL0     H11053   0.596   9.764  -0.331 -1.2439 -1.3788 -2.7199
  805MOL0     H11054   0.697   9.932  -0.238  0.8234  0.6987 -4.2161
  805MOL0     H11055   0.663  10.076  -0.323  3.3657  3.2978  1.0849
  805MOL0     H11056   0.609  10.204  -0.135 -0.7849  0.4635  3.8736
  805MOL0     H11057   0.662  10.075  -0.024  0.8598  1.4984 -0.0901
  805MOL0     H11058   0.896  10.075  -0.131  0.4371  0.2322 -2.3454
  805MOL0     H11059   0.842  10.207  -0.029  0.0544  0.2809  0.2683
  805MOL0     H11060   0.770  10.316  -0.260 -2.3587 -2.2753  0.9610
  805MOL0     H11061   0.842  10.186  -0.340  1.5735  0.6155 -0.9995
  805MOL0     H11062   0.997  10.359  -0.133 -1.7000 -0.9911  2.1500
  805MOL0     H11063   1.059  10.238  -0.246 -0.6886 -0.1998  2.1812
  805MOL0     H11064   0.997  10.403  -0.433  0.6476 -2.3482  0.3638
  805MOL0     H11065   1.122  10.455  -0.317  0.7312 -1.7184 -2.4291
  805MOL0     H11066   0.893  10.562  -0.193  0.0482  0.7757  0.3806
  805MOL0     H11067   0.828  10.530  -0.354 -0.9163  0.8124  2.2689
  805MOL0     H11068   1.055  10.731  -0.277 -1.8709  3.8529 -0.4384
  805MOL0     H11069   0.894  10.768  -0.309 -1.0982 -0.9675 -1.8603
  805MOL0     H11070   0.276  10.040  -0.322  1.3515  0.6832 -0.1483
  805MOL0     H11071   0.168   9.915  -0.535 -0.4144 -1.4565 -1.6752
  805MOL0     H11072   0.471   9.532  -0.897 -0.1839 -0.8121 -0.1928
  805MOL0     H11073   0.405   9.346  -1.036  1.2241  0.3475 -0.1450
  805MOL0     H11074   0.685   9.427  -0.135  1.2356 -3.7090 -0.1017
  805MOL0     H11075   0.819   9.503   0.016 -2.1968  0.2154 -0.3970
  805MOL0     H11076   1.140   9.638   0.238  1.6835  0.1669  2.7073
  805MOL0     H11077   1.266   9.729   0.397  0.3309 -2.4355 -0.3196
  805MOL0     H11078   1.520   9.755   0.376  0.2803 -0.4307  3.0643
  805MOL0     H11079   1.616   9.890   0.369  0.2871 -0.2754 -2.2976
  805MOL0     H11080   1.417   9.800   0.589  0.5900 -0.4016 -0.3368
  805MOL0     H11081   1.476   9.969   0.585 -2.4899  0.6806 -1.8201
  805MOL0     H11082   1.657   9.719   0.624 -0.3244  0.1760 -2.6967
  805MOL0     H11083   1.720   9.872   0.595 -1.3473 -1.0996 -5.1991
  805MOL0     H11084   1.535   9.785   0.827 -1.2667 -2.2889 -3.9565
  805MOL0     H11085   1.609   9.953   0.813 -5.3623  0.1086 -2.1113
  805MOL0     H11086   1.918   9.704   0.951 -0.7663  0.2445 -0.9206
  805MOL0     H11087   1.335  10.082   0.138 -1.7870  0.5981 -0.1144
  805MOL0     H11088   1.094   9.941  -0.123 -1.3384 -0.0640  2.4847
  805MOL0     H11089   1.091  10.085  -0.035 -0.7674 -0.0275  0.2988
  805MOL0     H11090   1.247  10.034  -0.111  0.7104 -0.8220  0.4646
  806MOL0     O11091   7.486   6.353   6.148 -0.3036  0.4885  0.1321
  806MOL0     C11092   7.601   6.359   6.101 -0.7991  1.0658 -0.0008
  806MOL0     O11093   7.672   6.248   6.058 -0.3014  0.1160  0.1902
  806MOL0     C11094   7.615   6.127   6.022 -0.5061 -1.0613 -0.5884
  806MOL0     C11095   7.489   6.111   5.980  0.6295  0.2554  0.5249
  806MOL0     C11096   7.447   5.983   5.932  0.2684 -0.6183  0.0479
  806MOL0     C11097   7.526   5.867   5.938 -0.2697  0.1243  1.6828
  806MOL0     O11098   7.496   5.737   5.902  0.2714 -0.8511 -0.0265
  806MOL0     C11099   7.377   5.713   5.827 -0.8866  0.3029 -0.7223
  806MOL0     C11100   7.337   5.561   5.816  0.2103  0.2500 -0.1123
  806MOL0     C11101   7.345   5.476   5.942 -0.0532 -0.3271  1.0573
  806MOL0     C11102   7.353   5.322   5.914  0.5589  0.3415  0.8961
  806MOL0     C11103   7.360   5.250   6.049  0.2704  1.0005 -0.5902
  806MOL0     C11104   7.372   5.097   6.032  0.7068  0.0847 -0.6603
  806MOL0     C11105   7.379   5.024   6.166 -0.4528 -0.6496  0.4804
  806MOL0     C11106   7.476   5.070   6.273  0.1973 -0.6003  0.4914
  806MOL0     N11107   7.504   4.968   6.376  0.5952 -0.0741 -0.0958
  806MOL0     C11108   7.427   4.950   6.485 -0.7662 -0.5686  0.3883
  806MOL0     C11109   7.504   4.878   6.570 -0.6387  0.0507  0.1218
  806MOL0     C11110   7.476   4.844   6.715  0.3620 -0.9133  0.6082
  806MOL0     C11111   7.342   4.762   6.730 -0.2191  0.2902 -0.1978
  806MOL0     C11112   7.335   4.713   6.878  0.2032 -0.3905  0.9546
  806MOL0     C11113   7.208   4.776   6.945  0.2750  0.4008  0.4720
  806MOL0     O11114   7.175   4.727   7.073  0.1912 -0.1610  0.7323
  806MOL0     C11115   7.082   4.782   7.152  0.6452 -0.3271  0.0924
  806MOL0     C11116   7.016   4.893   7.120 -0.3492  0.1947  1.1111
  806MOL0     C11117   6.904   4.945   7.200 -0.5436  0.0837 -0.2937
  806MOL0     C11118   6.830   5.074   7.150  0.2675 -0.3978 -1.1706
  806MOL0     C11119   6.863   4.875   7.318  0.6570  1.4574 -0.0504
  806MOL0     C11120   6.756   4.920   7.407 -0.8960  0.0742  0.5911
  806MOL0     O11121   6.714   5.053   7.414 -0.8077 -0.0707 -0.2849
  806MOL0     C11122   6.617   5.078   7.510  0.1174  0.6204 -0.5586
  806MOL0     C11123   6.641   5.068   7.654  0.5430 -0.3988  0.4609
  806MOL0     C11124   6.538   5.104   7.744 -0.5945  0.7362  0.3108
  806MOL0     C11125   6.411   5.136   7.708 -0.2437  0.1139  0.6313
  806MOL0     O11126   6.330   5.190   7.797 -0.1216 -0.3427 -0.3288
  806MOL0     C11127   6.199   5.121   7.815 -0.6873 -0.3958 -0.7532
  806MOL0     C11128   6.221   5.015   7.920 -0.3057  0.3846 -0.1865
  806MOL0     C11129   6.226   5.069   8.067 -0.4114  0.3637 -0.3445
  806MOL0     C11130   6.095   5.054   8.144  0.3398  1.6835 -0.0627
  806MOL0     C11131   6.092   5.132   8.280  0.3158 -0.3715 -0.9044
  806MOL0     C11132   5.959   5.126   8.353  0.1091 -0.2091 -0.2010
  806MOL0     C11133   5.918   4.988   8.403  0.0917 -0.6444 -0.7918
  806MOL0     C11134   5.821   4.980   8.518  0.0089 -0.5189 -0.6937
  806MOL0    Cl11135   5.893   5.058   8.658 -0.4434 -0.0534  0.1881
  806MOL0     C11136   6.388   5.140   7.562 -0.1576 -0.4967  0.4370
  806MOL0     C11137   6.488   5.102   7.469 -0.5906  0.1488 -0.3886
  806MOL0     O11138   6.695   4.827   7.460 -0.0253  0.6874 -0.1529
  806MOL0     C11139   6.923   4.744   7.344  0.2802  0.3792  0.1716
  806MOL0     C11140   7.026   4.708   7.258 -0.1357  0.0676 -1.6158
  806MOL0     N11141   7.620   4.859   6.501 -0.7538 -0.3384 -0.8944
  806MOL0     N11142   7.619   4.909   6.387 -0.0110 -0.0189 -0.8049
  806MOL0     C11143   7.661   5.883   5.980  0.0513  0.0061 -0.6894
  806MOL0     C11144   7.703   6.010   6.020 -0.7616  0.5871 -0.3107
  806MOL0     C11145   7.675   6.488   6.094  0.9770 -0.2379  0.0424
  806MOL0     C11146   7.714   6.550   5.971 -1.0501 -0.3805  0.2857
  806MOL0     C11147   7.762   6.687   5.971  0.0668  1.0787 -0.4211
  806MOL0     C11148   7.792   6.748   6.096 -0.6727  0.1878  0.0413
  806MOL0     O11149   7.840   6.878   6.090  0.2733  0.2895 -0.0533
  806MOL0     C11150   7.903   6.934   6.205  0.4287 -0.3811 -0.6443
  806MOL0     C11151   7.902   7.081   6.191  0.3061 -0.4172 -1.1390
  806MOL0     C11152   7.757   7.139   6.198  0.4324  0.4668  0.5055
  806MOL0     C11153   7.770   7.301   6.200 -0.1532  0.5434  1.4524
  806MOL0     C11154   7.805   7.335   6.334  0.0832 -0.6232 -0.3388
  806MOL0     C11155   7.842   7.370   6.443  0.0510  0.2996  0.5360
  806MOL0     C11156   7.791   6.670   6.212 -0.1085  0.1095 -0.6353
  806MOL0     C11157   7.732   6.543   6.215  0.8640  0.2397  0.4704
  806MOL0     C11158   7.713   6.471   6.351 -0.2830  1.2034 -0.4884
  806MOL0     H11159   7.419   6.193   5.981 -0.3350 -0.5610  1.0046
  806MOL0     H11160   7.345   5.979   5.892 -0.2706 -1.3007  1.4394
  806MOL0     H11161   7.394   5.757   5.728 -3.4777 -1.2271 -1.9233
  806MOL0     H11162   7.291   5.765   5.870 -0.3927  3.3431 -3.0406
  806MOL0     H11163   7.232   5.559   5.784 -0.5610 -2.6247  2.1635
  806MOL0     H11164   7.398   5.513   5.739 -1.6175 -1.7279 -0.4410
  806MOL0     H11165   7.441   5.496   5.990 -0.2899 -1.9691  2.3453
  806MOL0     H11166   7.270   5.497   6.020 -1.2092 -1.7391  0.3624
  806MOL0     H11167   7.273   5.289   5.848 -0.0158  3.4825 -0.1453
  806MOL0     H11168   7.447   5.309   5.858  0.2793 -1.4036  0.7828
  806MOL0     H11169   7.271   5.270   6.108 -1.5702 -3.1724 -1.5970
  806MOL0     H11170   7.449   5.282   6.105 -0.6220  2.1152  0.2413
  806MOL0     H11171   7.282   5.059   5.982  0.9268 -2.9390  1.0079
  806MOL0     H11172   7.453   5.080   5.961  0.8698  2.7800 -1.2354
  806MOL0     H11173   7.409   4.919   6.159 -0.6929 -0.7058  0.2684
  806MOL0     H11174   7.282   5.028   6.216  0.2141  1.1305  1.7327
  806MOL0     H11175   7.573   5.107   6.237 -0.7841  2.0284  0.2927
  806MOL0     H11176   7.423   5.160   6.305 -2.0192 -1.5883 -0.2162
  806MOL0     H11177   7.334   5.003   6.502  0.8633  1.6569  3.2558
  806MOL0     H11178   7.474   4.933   6.779 -1.8377  0.8989 -1.7659
  806MOL0     H11179   7.556   4.783   6.756  0.6825 -0.8769  0.0531
  806MOL0     H11180   7.258   4.826   6.706 -0.2809  0.6239  0.8329
  806MOL0     H11181   7.350   4.681   6.657 -0.1090  2.3729 -2.6362
  806MOL0     H11182   7.341   4.604   6.879  4.0546 -0.3620 -0.9336
  806MOL0     H11183   7.421   4.752   6.934 -0.4133  3.7451 -0.6169
  806MOL0     H11184   7.233   4.880   6.964 -0.1819  0.5951  0.0272
  806MOL0     H11185   7.121   4.764   6.880  1.2667  3.2822 -1.5900
  806MOL0     H11186   7.054   4.942   7.031 -3.1025 -0.8842 -0.7902
  806MOL0     H11187   6.857   5.157   7.215 -2.2279 -0.6897  0.3546
  806MOL0     H11188   6.721   5.070   7.152  0.1075 -3.5043 -4.4856
  806MOL0     H11189   6.858   5.091   7.045 -3.7100  2.6801 -1.9846
  806MOL0     H11190   6.737   5.046   7.700  0.3348  0.5016  1.3562
  806MOL0     H11191   6.570   5.128   7.844  0.2192  1.6482 -0.1518
  806MOL0     H11192   6.125   5.190   7.856 -1.3425  0.3624 -3.0843
  806MOL0     H11193   6.166   5.081   7.719 -1.7644 -2.1859  0.3049
  806MOL0     H11194   6.157   4.928   7.901  2.0895 -0.8855 -3.5703
  806MOL0     H11195   6.322   4.978   7.901 -0.5105  0.2773 -1.1278
  806MOL0     H11196   6.244   5.176   8.050 -2.1211  0.8225  0.5101
  806MOL0     H11197   6.308   5.046   8.136  0.2911  2.6811 -0.3060
  806MOL0     H11198   6.077   4.946   8.152  0.4762  1.6686  0.0317
  806MOL0     H11199   6.010   5.084   8.082 -0.5672  0.1148  0.3666
  806MOL0     H11200   6.168   5.090   8.346  1.9634  1.5380 -1.4771
  806MOL0     H11201   6.120   5.236   8.262 -1.7937  0.5740  0.7905
  806MOL0     H11202   5.876   5.161   8.291 -3.9407 -1.1969  4.0512
  806MOL0     H11203   5.978   5.201   8.431  1.9000 -0.1864 -0.6105
  806MOL0     H11204   6.006   4.929   8.431  1.0589  1.3826  0.7304
  806MOL0     H11205   5.872   4.935   8.319  0.0894 -1.9590  0.0060
  806MOL0     H11206   5.793   4.880   8.553 -3.0950  1.5660  3.6398
  806MOL0     H11207   5.726   5.030   8.497 -2.3036 -3.5571  1.5536
  806MOL0     H11208   6.296   5.175   7.517  2.2633  3.7581 -1.7865
  806MOL0     H11209   6.488   5.105   7.361  5.6896 -0.0681 -0.7542
  806MOL0     H11210   6.897   4.687   7.433 -0.6179  0.3627 -0.0968
  806MOL0     H11211   7.088   4.620   7.274  0.1713  1.0239  6.7273
  806MOL0     H11212   7.738   5.807   5.972  0.8806  0.8845 -1.5140
  806MOL0     H11213   7.807   6.026   6.046 -0.8770  0.3005  0.3512
  806MOL0     H11214   7.702   6.495   5.878 -1.4217 -2.0307  1.2687
  806MOL0     H11215   7.769   6.744   5.879 -0.7879  0.7844 -0.6778
  806MOL0     H11216   7.848   6.916   6.298  0.0500  0.6020 -0.6686
  806MOL0     H11217   8.008   6.903   6.214  0.9215  1.3158 -0.2118
  806MOL0     H11218   7.951   7.116   6.100  1.2245  0.6789 -0.2572
  806MOL0     H11219   7.953   7.116   6.281  0.5891 -0.3058 -1.3407
  806MOL0     H11220   7.715   7.120   6.099  1.2468  0.1368  0.2087
  806MOL0     H11221   7.704   7.094   6.282  1.5045 -1.6893  0.1074
  806MOL0     H11222   7.669   7.340   6.181 -0.4046 -0.8137 -0.3352
  806MOL0     H11223   7.832   7.332   6.116 -0.7778 -2.3030 -0.2195
  806MOL0     H11224   7.882   7.378   6.542  0.9540 -2.0602  0.4408
  806MOL0     H11225   7.839   6.705   6.303 -0.9712  1.9489 -0.8559
  806MOL0     H11226   7.609   6.444   6.368 -0.8755  2.4852 -1.9143
  806MOL0     H11227   7.774   6.380   6.356  0.0516  1.3814 -1.1836
  806MOL0     H11228   7.750   6.520   6.442 -1.3377  1.2677 -0.0865
  807MOL0     O11229   9.301   3.016   1.300 -0.4586  0.0925  0.1842
  807MOL0     C11230   9.408   2.984   1.253 -0.1188  0.2572  0.3050
  807MOL0     O11231   9.515   2.949   1.326  0.0254 -0.8290 -0.4045
  807MOL0     C11232   9.496   2.932   1.463 -0.7454  0.0801 -0.5650
  807MOL0     C11233   9.486   3.034   1.561 -0.4695  0.0641  0.2465
  807MOL0     C11234   9.448   2.997   1.684 -0.3516 -0.4392 -0.6910
  807MOL0     C11235   9.425   2.865   1.731 -0.1492 -0.8329 -0.0842
  807MOL0     O11236   9.372   2.835   1.860 -0.2383 -0.0097  0.2049
  807MOL0     C11237   9.268   2.922   1.906 -0.5448  0.5747  0.3830
  807MOL0     C11238   9.168   2.840   1.989 -0.0825 -0.8934 -0.1065
  807MOL0     C11239   9.039   2.915   2.026 -0.4634  0.8032  0.1261
  807MOL0     C11240   9.042   2.982   2.170 -0.3733  0.0875  0.0560
  807MOL0     C11241   8.911   3.052   2.200  0.6853  0.2300  0.8667
  807MOL0     C11242   8.907   3.181   2.116  0.0329  0.2223  0.4564
  807MOL0     C11243   8.807   3.276   2.185 -0.3685 -1.0097  0.6976
  807MOL0     C11244   8.828   3.410   2.111 -0.1759  0.3437 -0.5245
  807MOL0     N11245   8.743   3.515   2.164  0.2529 -0.0366 -0.1358
  807MOL0     C11246   8.615   3.543   2.107 -0.6657 -0.8412  0.1154
  807MOL0     C11247   8.558   3.622   2.206  0.4648 -0.6716  0.7767
  807MOL0     C11248   8.411   3.676   2.217 -0.1204  0.3110 -0.2029
  807MOL0     C11249   8.378   3.762   2.104 -0.0891  1.0270  0.9744
  807MOL0     C11250   8.248   3.830   2.135 -0.2502 -0.4088 -0.3314
  807MOL0     C11251   8.217   3.927   2.018 -0.1779  0.3832 -0.2442
  807MOL0     O11252   8.092   3.985   2.040 -0.0210 -0.4856 -0.2651
  807MOL0     C11253   8.086   4.073   2.150  0.7372  0.0497  0.7185
  807MOL0     C11254   7.952   4.093   2.201 -0.0318 -0.0876 -0.1956
  807MOL0     C11255   7.938   4.167   2.320  0.9981 -0.3471  0.1842
  807MOL0     C11256   7.797   4.191   2.359  0.6259 -0.1488 -0.5998
  807MOL0     C11257   8.043   4.238   2.385 -0.7235  0.6225 -0.2794
  807MOL0     C11258   8.031   4.337   2.506 -0.4798 -0.0079  0.3793
  807MOL0     O11259   8.140   4.382   2.566 -0.0483 -0.8647  0.1219
  807MOL0     C11260   8.141   4.472   2.671  0.0818  0.5112  0.2259
  807MOL0     C11261   8.052   4.451   2.778 -0.4171  0.7975  0.4661
  807MOL0     C11262   8.037   4.541   2.882 -0.7292  0.6906  0.4687
  807MOL0     C11263   8.102   4.656   2.888  0.4722 -0.6663 -0.4954
  807MOL0     O11264   8.098   4.746   3.003 -0.2505  0.0900  0.2090
  807MOL0     C11265   8.022   4.704   3.114 -0.8617 -0.0248 -0.2696
  807MOL0     C11266   8.103   4.596   3.184  0.2107 -0.3198 -0.9567
  807MOL0     C11267   8.222   4.667   3.265  0.4756  0.0562  0.2249
  807MOL0     C11268   8.357   4.628   3.202  0.1775 -1.0457  0.4038
  807MOL0     C11269   8.489   4.691   3.265  0.7429  0.9606  0.3139
  807MOL0     C11270   8.511   4.842   3.226 -0.2522  1.0298 -0.0563
  807MOL0     C11271   8.598   4.854   3.104  0.3998 -0.7051  0.0083
  807MOL0     C11272   8.593   4.994   3.041 -0.1344 -0.5825 -0.2819
  807MOL0    Cl11273   8.721   4.992   2.914 -0.3075 -0.4095  0.2468
  807MOL0     C11274   8.200   4.677   2.788  0.0511 -0.0789  0.3818
  807MOL0     C11275   8.215   4.592   2.675  0.7232 -0.2460  0.2684
  807MOL0     O11276   7.915   4.372   2.533  0.0815  0.7946  0.1816
  807MOL0     C11277   8.174   4.210   2.337  0.2735 -0.0380  0.5304
  807MOL0     C11278   8.196   4.131   2.218  0.6256 -0.3075  0.1282
  807MOL0     N11279   8.646   3.641   2.310 -1.3159 -0.9069  0.2925
  807MOL0     N11280   8.753   3.578   2.282  0.4809  0.4234 -0.3457
  807MOL0     C11281   9.444   2.758   1.640  0.7682  0.0429  0.2729
  807MOL0     C11282   9.478   2.797   1.506  0.2931  0.8396  0.4083
  807MOL0     C11283   9.410   2.986   1.103  0.1775 -0.7044 -1.1003
  807MOL0     C11284   9.498   3.082   1.042 -0.1848  0.2956  0.2086
  807MOL0     C11285   9.498   3.104   0.908  0.5334  0.2319  0.1875
  807MOL0     C11286   9.412   3.043   0.830  0.5551  0.0498  0.3664
  807MOL0     O11287   9.419   3.061   0.697  0.5424  0.0943  0.2346
  807MOL0     C11288   9.328   3.165   0.664 -0.7301 -1.4767 -0.2870
  807MOL0     C11289   9.264   3.159   0.529  0.3167 -0.4780  0.0209
  807MOL0     C11290   9.380   3.138   0.414 -0.0849  1.4454  0.1943
  807MOL0     C11291   9.324   3.091   0.279 -0.1515  0.1858 -0.0093
  807MOL0     C11292   9.447   3.056   0.213  0.5273  0.7430  0.4746
  807MOL0     C11293   9.555   3.058   0.157 -0.2701  0.6494  0.4490
  807MOL0     C11294   9.326   2.945   0.885  0.3602  0.2961 -0.0882
  807MOL0     C11295   9.320   2.920   1.020  0.5017 -0.6548  0.5033
  807MOL0     C11296   9.218   2.820   1.077 -0.2019  0.1331 -0.2200
  807MOL0     H11297   9.510   3.140   1.548  1.1115 -0.3712 -0.6819
  807MOL0     H11298   9.439   3.070   1.764  0.7603  0.0252 -0.9786
  807MOL0     H11299   9.222   2.946   1.810  0.2711  1.0447  0.1026
  807MOL0     H11300   9.315   3.008   1.955 -0.5734  0.6275  0.3172
  807MOL0     H11301   9.130   2.757   1.929 -0.5717 -2.0993  1.7901
  807MOL0     H11302   9.217   2.800   2.078  2.4780  2.5725  0.2541
  807MOL0     H11303   9.021   2.996   1.955  0.6874  1.2977  0.3668
  807MOL0     H11304   8.956   2.845   2.015  1.2689 -1.3941  0.3888
  807MOL0     H11305   9.050   2.909   2.252  2.1937 -0.2495 -0.4242
  807MOL0     H11306   9.122   3.056   2.172 -0.5788  0.3211 -0.2686
  807MOL0     H11307   8.920   3.075   2.307  0.1859  2.4296  0.4823
  807MOL0     H11308   8.826   2.992   2.167  1.0087  1.7622 -3.3867
  807MOL0     H11309   9.004   3.232   2.102 -0.4669  0.7100 -1.5229
  807MOL0     H11310   8.870   3.171   2.013 -1.2909  1.7914  0.7379
  807MOL0     H11311   8.844   3.286   2.288  0.0180  0.3251  0.4603
  807MOL0     H11312   8.705   3.238   2.192  0.1284 -2.4339  0.5588
  807MOL0     H11313   8.933   3.438   2.101  0.1023 -0.0511  1.0296
  807MOL0     H11314   8.795   3.387   2.009  1.6398  2.2881 -1.6182
  807MOL0     H11315   8.560   3.496   2.026 -1.8455 -0.8628  0.8965
  807MOL0     H11316   8.402   3.737   2.308 -1.0986  0.2426 -0.2382
  807MOL0     H11317   8.347   3.588   2.228  1.3402 -0.5799  1.5718
  807MOL0     H11318   8.469   3.821   2.090  1.5138 -1.2953  1.0695
  807MOL0     H11319   8.365   3.695   2.019  3.5537  0.9446  0.3239
  807MOL0     H11320   8.165   3.763   2.158 -1.0767  1.6478  3.7265
  807MOL0     H11321   8.272   3.880   2.229 -1.1046  0.1372 -0.3951
  807MOL0     H11322   8.299   3.999   2.019  0.4803 -0.1180 -4.2637
  807MOL0     H11323   8.210   3.873   1.923 -2.5362 -0.0118  0.0944
  807MOL0     H11324   7.865   4.045   2.157  1.1794 -0.2394 -2.6347
  807MOL0     H11325   7.762   4.293   2.336 -0.9257 -0.5664 -0.2123
  807MOL0     H11326   7.781   4.181   2.467  1.6342  0.3101 -0.3915
  807MOL0     H11327   7.732   4.126   2.301  1.3810 -1.2050 -0.2949
  807MOL0     H11328   7.996   4.361   2.801  0.9653  0.8379  5.0315
  807MOL0     H11329   7.970   4.512   2.962 -1.1860 -3.0532 -1.0827
  807MOL0     H11330   8.009   4.796   3.172 -0.0790  0.6181 -1.0800
  807MOL0     H11331   7.922   4.670   3.085  0.9666 -4.1282 -2.6719
  807MOL0     H11332   8.043   4.543   3.259 -1.6486  0.5454 -1.7583
  807MOL0     H11333   8.146   4.522   3.116 -1.1046 -1.8230 -0.2166
  807MOL0     H11334   8.227   4.628   3.367 -1.2271  2.0792  1.1439
  807MOL0     H11335   8.199   4.773   3.256 -1.7219 -0.4528 -0.9712
  807MOL0     H11336   8.341   4.666   3.101 -0.0705  0.3379  0.9510
  807MOL0     H11337   8.368   4.519   3.190 -0.9543 -1.2809  1.3374
  807MOL0     H11338   8.475   4.677   3.373 -0.4522  1.1198  0.1897
  807MOL0     H11339   8.566   4.627   3.221 -1.3542  0.5487 -3.1282
  807MOL0     H11340   8.553   4.893   3.313 -0.1019 -1.9407  1.7549
  807MOL0     H11341   8.414   4.883   3.197 -0.6997  0.1768  0.1864
  807MOL0     H11342   8.567   4.775   3.036 -1.7690 -2.0101  2.3505
  807MOL0     H11343   8.702   4.839   3.135  2.9197  4.2736 -4.3641
  807MOL0     H11344   8.624   5.075   3.108  2.0538 -1.5650 -0.0331
  807MOL0     H11345   8.495   5.009   2.995  0.0190 -0.2223 -0.4945
  807MOL0     H11346   8.266   4.762   2.806 -0.5051 -0.2274  3.9101
  807MOL0     H11347   8.283   4.630   2.600 -2.4103  2.4472 -1.4445
  807MOL0     H11348   8.259   4.260   2.381  0.5954 -2.9592  3.7056
  807MOL0     H11349   8.301   4.146   2.195  0.5416  4.5961  1.7355
  807MOL0     H11350   9.427   2.652   1.656 -0.6777  0.5177  2.2064
  807MOL0     H11351   9.469   2.718   1.432 -0.3435  0.4924  0.8439
  807MOL0     H11352   9.563   3.125   1.117  0.3440  0.3072 -0.2488
  807MOL0     H11353   9.572   3.170   0.865 -1.3782  2.5679  0.2228
  807MOL0     H11354   9.249   3.170   0.739  0.3181 -2.2961  0.9299
  807MOL0     H11355   9.385   3.258   0.671 -1.8373 -0.9054  2.0039
  807MOL0     H11356   9.212   3.255   0.518  1.0798 -0.1265 -0.6299
  807MOL0     H11357   9.192   3.077   0.532 -0.2342 -0.2316 -3.1115
  807MOL0     H11358   9.423   3.238   0.401  1.6689  0.6010 -0.8198
  807MOL0     H11359   9.463   3.075   0.447 -0.5938 -0.2436 -1.6164
  807MOL0     H11360   9.273   3.164   0.216 -0.6532 -2.4098 -2.8804
  807MOL0     H11361   9.244   3.017   0.282 -0.7919  0.7754 -1.5559
  807MOL0     H11362   9.647   3.070   0.104 -0.4402  0.7553  0.1692
  807MOL0     H11363   9.262   2.887   0.819 -2.8099  2.4846  0.8149
  807MOL0     H11364   9.216   2.812   1.186 -0.3276  2.3750 -0.0202
  807MOL0     H11365   9.115   2.837   1.046 -0.6627 -2.0195 -0.0476
  807MOL0     H11366   9.269   2.725   1.057 -1.5861 -0.4827 -0.9303
  808MOL0     O11367   1.031   6.552  10.373 -0.3196  0.1726  0.0507
  808MOL0     C11368   1.126   6.607  10.316  0.5479 -1.1815 -0.8289
  808MOL0     O11369   1.116   6.721  10.256  0.0227 -0.2056  0.7260
  808MOL0     C11370   1.011   6.807  10.268  1.1412 -0.4454 -0.5115
  808MOL0     C11371   0.930   6.828  10.380 -0.2121 -0.0489 -0.3724
  808MOL0     C11372   0.839   6.934  10.383  0.1849  0.3928 -0.3576
  808MOL0     C11373   0.823   7.031  10.274 -0.1079  0.2571 -0.8667
  808MOL0     O11374   0.743   7.145  10.274 -0.1544 -0.0091  0.3200
  808MOL0     C11375   0.657   7.157  10.397  0.3105  0.9057 -0.2628
  808MOL0     C11376   0.559   7.269  10.369 -0.5401  0.3874  0.6963
  808MOL0     C11377   0.470   7.300  10.482 -1.0657  0.5654 -0.0902
  808MOL0     C11378   0.371   7.410  10.440 -0.4525 -1.1525  0.5912
  808MOL0     C11379   0.292   7.474  10.555 -0.3716  1.0028 -0.1864
  808MOL0     C11380   0.203   7.581  10.504  0.2943 -0.5178 -0.7421
  808MOL0     C11381   0.126   7.642  10.611  0.0707  0.5861 -0.5434
  808MOL0     C11382   0.012   7.734  10.563 -0.9252  0.6161 -0.1718
  808MOL0     N11383  -0.075   7.777  10.671  0.5589 -1.4355 -0.7222
  808MOL0     C11384  -0.035   7.853  10.782  0.8394  0.0149 -0.2125
  808MOL0     C11385  -0.149   7.865  10.854 -0.4851  0.4521 -1.3083
  808MOL0     C11386  -0.173   7.931  10.994 -0.2172 -0.0558  0.4309
  808MOL0     C11387  -0.314   7.999  10.999  0.4523  0.6203 -0.0922
  808MOL0     C11388  -0.348   8.024  11.143 -0.5118  0.1934  0.3569
  808MOL0     C11389  -0.476   8.110  11.146 -0.0494 -0.1803 -0.7600
  808MOL0     O11390  -0.580   8.018  11.088  0.5143 -0.2874 -0.3842
  808MOL0     C11391  -0.717   8.047  11.119  0.4434  1.1562 -1.0310
  808MOL0     C11392  -0.768   8.177  11.145 -0.8666 -0.4863  0.8522
  808MOL0     C11393  -0.902   8.198  11.186 -0.0710 -0.0701  0.8162
  808MOL0     C11394  -0.963   8.338  11.209 -0.4002 -0.1244  0.3712
  808MOL0     C11395  -0.990   8.081  11.190  0.5642 -0.1322  0.3044
  808MOL0     C11396  -1.138   8.088  11.225  0.1491  0.7813 -0.4513
  808MOL0     O11397  -1.208   7.981  11.182  0.2636  0.4543  0.3644
  808MOL0     C11398  -1.350   7.983  11.168 -0.1430 -0.3616  0.0735
  808MOL0     C11399  -1.438   7.954  11.275  0.5955  0.0840  0.1080
  808MOL0     C11400  -1.572   7.940  11.254 -0.1224  0.5083  0.0336
  808MOL0     C11401  -1.628   7.951  11.127 -0.5199 -0.2099  0.2287
  808MOL0     O11402  -1.763   7.937  11.121  0.7193 -0.0924 -0.5809
  808MOL0     C11403  -1.832   8.026  11.028 -0.3909  0.0666  0.4828
  808MOL0     C11404  -1.962   7.948  10.985 -1.2914  0.0083 -0.0046
  808MOL0     C11405  -2.054   8.040  10.902 -0.0322  0.3149 -0.5546
  808MOL0     C11406  -2.120   8.149  10.996 -0.0156  0.2522  1.0652
  808MOL0     C11407  -2.204   8.242  10.915  0.3642  0.0059  0.3993
  808MOL0     C11408  -2.128   8.324  10.811 -0.3892  0.2644 -0.0847
  808MOL0     C11409  -2.000   8.384  10.857 -0.0301 -0.4475 -0.5261
  808MOL0     C11410  -1.928   8.458  10.742 -0.0379  0.3441 -0.6131
  808MOL0    Cl11411  -1.908   8.338  10.608 -0.1273 -0.5803  0.8041
  808MOL0     C11412  -1.549   7.976  11.020  0.2013  0.6079 -0.7612
  808MOL0     C11413  -1.409   7.990  11.036  0.1252 -0.7008 -0.0125
  808MOL0     O11414  -1.182   8.178  11.293 -0.0149 -0.6631  0.0473
  808MOL0     C11415  -0.940   7.954  11.164 -0.0383 -0.2103  0.0882
  808MOL0     C11416  -0.804   7.939  11.134  0.3474  0.7106 -0.1538
  808MOL0     N11417  -0.248   7.803  10.786  0.2866  0.0362 -0.2060
  808MOL0     N11418  -0.207   7.744  10.677 -0.4211 -0.1347 -0.6936
  808MOL0     C11419   0.911   7.015  10.172 -0.1905  0.4101 -0.8041
  808MOL0     C11420   1.002   6.909  10.165  0.0239 -1.2088 -0.8856
  808MOL0     C11421   1.254   6.541  10.321 -0.0659  1.1730  0.0332
  808MOL0     C11422   1.275   6.446  10.424 -0.3357 -0.2278 -0.4301
  808MOL0     C11423   1.398   6.386  10.443  0.3000 -0.4456 -0.5175
  808MOL0     C11424   1.509   6.408  10.359  0.2025 -0.1198 -0.0614
  808MOL0     O11425   1.634   6.350  10.371  0.2870  1.4790  0.0974
  808MOL0     C11426   1.625   6.228  10.446 -0.0407 -0.5401  0.0304
  808MOL0     C11427   1.761   6.169  10.458 -0.0703 -0.2379 -0.2687
  808MOL0     C11428   1.744   6.032  10.517  0.3637  0.2348 -0.4629
  808MOL0     C11429   1.682   5.924  10.415 -1.1480  0.3852  0.7000
  808MOL0     C11430   1.783   5.911  10.304 -0.3078  0.5929  0.4605
  808MOL0     C11431   1.854   5.909  10.208 -0.6370 -0.2792 -0.0578
  808MOL0     C11432   1.495   6.507  10.265  0.3835  0.2718  0.4756
  808MOL0     C11433   1.368   6.565  10.242 -0.1837 -0.5994  0.4633
  808MOL0     C11434   1.364   6.643  10.106 -0.6240  0.2758 -0.7947
  808MOL0     H11435   0.945   6.766  10.468  1.4265 -2.1288 -2.0208
  808MOL0     H11436   0.768   6.933  10.465 -1.9541  0.4326 -2.1076
  808MOL0     H11437   0.708   7.160  10.493 -1.8311  0.1670  0.9525
  808MOL0     H11438   0.590   7.071  10.404  1.2586  0.0744 -1.1445
  808MOL0     H11439   0.619   7.358  10.346  1.8832 -1.8451 -2.8744
  808MOL0     H11440   0.495   7.241  10.284  0.6269  3.4585 -1.3667
  808MOL0     H11441   0.424   7.208  10.519  0.2538  0.1512  0.5954
  808MOL0     H11442   0.537   7.345  10.556 -1.1996  2.5226 -1.0906
  808MOL0     H11443   0.428   7.491  10.392  0.8543 -1.1624  2.0380
  808MOL0     H11444   0.294   7.368  10.374 -1.2706  1.1975 -0.0808
  808MOL0     H11445   0.373   7.514  10.618  0.2437 -0.1578 -0.2232
  808MOL0     H11446   0.239   7.393  10.606 -3.0937  1.2136 -2.4734
  808MOL0     H11447   0.275   7.652  10.461  1.3679 -0.5589  0.8836
  808MOL0     H11448   0.138   7.534  10.431 -1.5692  0.5322  0.1737
  808MOL0     H11449   0.201   7.695  10.672  0.6226  0.9376 -1.5067
  808MOL0     H11450   0.089   7.565  10.680  1.1320 -0.8569 -1.5293
  808MOL0     H11451   0.060   7.820  10.516  1.6274  0.9257  2.7076
  808MOL0     H11452  -0.039   7.676  10.485 -0.9244 -1.3835  1.2500
  808MOL0     H11453   0.062   7.899  10.796 -1.0538  5.1700 -1.7801
  808MOL0     H11454  -0.101   8.013  10.995 -0.6258  0.4172 -2.0636
  808MOL0     H11455  -0.158   7.861  11.077 -3.4828 -1.9201 -0.3548
  808MOL0     H11456  -0.318   8.092  10.941 -4.3558  1.1245  0.6593
  808MOL0     H11457  -0.383   7.926  10.956  2.3213 -1.1997 -0.1890
  808MOL0     H11458  -0.366   7.930  11.197  0.3281  0.2316  0.7254
  808MOL0     H11459  -0.270   8.079  11.196  1.9115  0.3109 -3.0755
  808MOL0     H11460  -0.508   8.146  11.244  0.2363  0.8634 -1.0316
  808MOL0     H11461  -0.456   8.195  11.080  0.1217 -0.4085 -1.0071
  808MOL0     H11462  -0.699   8.260  11.134 -1.9645  0.2637 -0.8897
  808MOL0     H11463  -0.900   8.421  11.177 -1.1328  0.3801  0.2098
  808MOL0     H11464  -0.980   8.348  11.317 -0.5741  0.4676  0.2887
  808MOL0     H11465  -1.054   8.351  11.149 -0.5424  0.7505  0.7579
  808MOL0     H11466  -1.404   7.945  11.377 -1.0899  1.1957  0.8127
  808MOL0     H11467  -1.644   7.924  11.334 -1.3673  1.8517 -0.7657
  808MOL0     H11468  -1.859   8.110  11.092  1.5763  1.1748 -0.0564
  808MOL0     H11469  -1.768   8.072  10.952  1.7287  1.7434  3.1192
  808MOL0     H11470  -1.923   7.870  10.918 -0.1704 -0.4611  1.1518
  808MOL0     H11471  -2.009   7.892  11.066  0.6024  2.1368  2.7281
  808MOL0     H11472  -2.129   7.979  10.850 -0.2569 -0.5071  0.6985
  808MOL0     H11473  -1.997   8.079  10.817 -0.8725  1.6515 -0.5438
  808MOL0     H11474  -2.053   8.212  11.055  0.9593 -0.6920  0.9914
  808MOL0     H11475  -2.182   8.103  11.073 -0.8973  0.2165  0.3500
  808MOL0     H11476  -2.281   8.185  10.861 -0.3753  1.5787 -0.2620
  808MOL0     H11477  -2.245   8.314  10.986 -2.6772 -1.9365  0.8390
  808MOL0     H11478  -2.194   8.403  10.776 -2.0529  0.3910  2.9572
  808MOL0     H11479  -2.103   8.267  10.721  0.8937 -0.7051  0.8534
  808MOL0     H11480  -1.930   8.309  10.894  1.8765  1.7275  0.4848
  808MOL0     H11481  -2.029   8.458  10.932 -3.4828 -0.3735 -1.7498
  808MOL0     H11482  -1.837   8.504  10.783 -0.2313 -2.3040  3.3874
  808MOL0     H11483  -1.993   8.537  10.704  1.2007  2.0674  0.6475
  808MOL0     H11484  -1.591   7.984  10.920 -2.8269 -2.0150  0.1339
  808MOL0     H11485  -1.347   8.005  10.948 -2.7523 -0.8910 -2.2004
  808MOL0     H11486  -1.003   7.865  11.166 -1.0043  0.4057 -1.6003
  808MOL0     H11487  -0.759   7.841  11.119 -2.7311 -0.9728  0.6728
  808MOL0     H11488   0.912   7.085  10.090  1.5977  2.2564  0.6924
  808MOL0     H11489   1.059   6.886  10.076  1.2550 -3.6282  0.4190
  808MOL0     H11490   1.187   6.412  10.478 -1.6048  1.9075 -1.0152
  808MOL0     H11491   1.393   6.320  10.528 -4.7833  0.7233  0.4300
  808MOL0     H11492   1.591   6.248  10.548  0.7980  1.1812  0.0029
  808MOL0     H11493   1.547   6.161  10.408 -3.2295  0.3880  4.1702
  808MOL0     H11494   1.822   6.237  10.518 -1.5584 -0.6588  1.8362
  808MOL0     H11495   1.806   6.162  10.358 -1.5270  1.0891 -1.0750
  808MOL0     H11496   1.845   6.018  10.557  1.6208  2.3913 -2.6493
  808MOL0     H11497   1.665   6.035  10.592  0.1230  2.8152 -0.7399
  808MOL0     H11498   1.586   5.951  10.371  0.5448  3.8739 -1.2718
  808MOL0     H11499   1.678   5.826  10.465 -0.9891  0.0994  0.1561
  808MOL0     H11500   1.904   5.909  10.114  2.4641 -1.8848  1.4182
  808MOL0     H11501   1.581   6.537  10.205  0.8569 -1.2203  0.3743
  808MOL0     H11502   1.466   6.651  10.068  0.7446 -1.7543  2.0636
  808MOL0     H11503   1.312   6.581  10.032 -1.0304 -0.8954  0.4237
  808MOL0     H11504   1.321   6.744  10.105  3.0458  2.0341  0.7432
  809MOL0     O11505   0.456   9.363   4.514  0.1926  0.3963 -0.5691
  809MOL0     C11506   0.546   9.442   4.544 -1.1653  0.8483 -0.3289
  809MOL0     O11507   0.671   9.413   4.600  0.3432 -0.4176 -0.0265
  809MOL0     C11508   0.721   9.279   4.603 -1.1087  0.2202 -0.0027
  809MOL0     C11509   0.826   9.274   4.693 -0.1468  0.5165  0.5010
  809MOL0     C11510   0.888   9.157   4.728 -0.2876  0.1318 -0.1142
  809MOL0     C11511   0.849   9.034   4.668 -0.7589 -0.4329  0.6032
  809MOL0     O11512   0.927   8.921   4.688  0.8365  0.5605  0.2193
  809MOL0     C11513   0.871   8.808   4.753 -0.5143  0.4358 -0.6364
  809MOL0     C11514   0.869   8.811   4.905  1.1599 -0.6167  0.6232
  809MOL0     C11515   0.819   8.682   4.970  0.0471 -0.0862  0.6258
  809MOL0     C11516   0.841   8.705   5.118  0.7736  0.1166 -1.1232
  809MOL0     C11517   0.755   8.609   5.195  0.4955  0.0222 -0.1900
  809MOL0     C11518   0.751   8.643   5.351 -0.2951  0.0801  0.7899
  809MOL0     C11519   0.675   8.541   5.431 -0.1036 -0.0564  1.0267
  809MOL0     C11520   0.532   8.565   5.412 -0.0879  0.3729  0.0982
  809MOL0     N11521   0.459   8.503   5.526 -0.4953 -0.5500 -0.2144
  809MOL0     C11522   0.427   8.369   5.555 -0.7127 -0.1335 -1.0326
  809MOL0     C11523   0.366   8.385   5.672 -0.1912  0.3654  1.4021
  809MOL0     C11524   0.295   8.260   5.727  0.6313 -0.2130  0.4328
  809MOL0     C11525   0.387   8.144   5.764 -0.1903 -0.2479  0.5340
  809MOL0     C11526   0.294   8.025   5.795  0.4850  0.4812 -0.6841
  809MOL0     C11527   0.360   7.881   5.811  0.1078 -0.3343  0.1531
  809MOL0     O11528   0.263   7.796   5.862 -0.3320 -0.3913 -0.2707
  809MOL0     C11529   0.321   7.684   5.921  0.7728  0.2606  0.7902
  809MOL0     C11530   0.300   7.661   6.060 -0.7487  0.4900  0.9150
  809MOL0     C11531   0.365   7.557   6.130 -0.0816  0.4968  0.1914
  809MOL0     C11532   0.327   7.538   6.272  0.1606  0.1387  0.8385
  809MOL0     C11533   0.450   7.466   6.059  0.5304  0.1778 -0.0966
  809MOL0     C11534   0.522   7.350   6.110  0.0503  0.1475  0.7377
  809MOL0     O11535   0.585   7.270   6.023  0.3430 -0.5734 -0.7291
  809MOL0     C11536   0.576   7.129   6.026 -0.1441  0.6285  0.0819
  809MOL0     C11537   0.661   7.063   5.941 -0.1371  0.4747 -0.3883
  809MOL0     C11538   0.647   6.924   5.924 -0.7407  0.1544  0.6789
  809MOL0     C11539   0.545   6.850   5.988 -0.6352 -0.3607  0.0473
  809MOL0     O11540   0.550   6.722   5.990  0.2166  0.5867 -0.4170
  809MOL0     C11541   0.676   6.639   5.987  1.0739 -0.9735  0.5492
  809MOL0     C11542   0.770   6.663   6.106 -0.1263 -0.2203 -0.6046
  809MOL0     C11543   0.702   6.599   6.225  0.3054  0.0115 -0.5533
  809MOL0     C11544   0.698   6.441   6.225  0.2509  0.8752  0.3430
  809MOL0     C11545   0.684   6.392   6.362 -0.3297  0.3243  0.1073
  809MOL0     C11546   0.657   6.236   6.376 -0.5283  0.0659  0.3303
  809MOL0     C11547   0.610   6.191   6.516  1.0070  0.4380  0.4977
  809MOL0     C11548   0.730   6.194   6.614  0.3193 -0.2503 -0.3617
  809MOL0    Cl11549   0.718   6.073   6.745 -0.3135 -0.5365  0.1438
  809MOL0     C11550   0.451   6.925   6.073  0.2651 -0.4202 -0.7559
  809MOL0     C11551   0.470   7.059   6.099 -0.7379 -0.0906 -0.4992
  809MOL0     O11552   0.525   7.337   6.228 -0.5559  0.2998 -0.2804
  809MOL0     C11553   0.461   7.483   5.912  0.8763 -0.4505  0.5365
  809MOL0     C11554   0.392   7.588   5.843  0.0062 -0.2288 -0.3107
  809MOL0     N11555   0.365   8.515   5.723 -0.0165 -0.3648 -0.3323
  809MOL0     N11556   0.428   8.585   5.632 -0.1322  0.4861  0.4618
  809MOL0     C11557   0.733   9.043   4.590 -0.0252 -0.1679 -0.2864
  809MOL0     C11558   0.674   9.163   4.553  0.2379 -0.4781 -0.0371
  809MOL0     C11559   0.538   9.583   4.507  0.7539  0.2693  0.4384
  809MOL0     C11560   0.635   9.639   4.417 -0.4005  0.0608 -0.1905
  809MOL0     C11561   0.619   9.775   4.393  0.4576  0.6971  0.4731
  809MOL0     C11562   0.519   9.859   4.443 -0.0327 -0.4027  0.9257
  809MOL0     O11563   0.519   9.995   4.408 -0.2499 -0.1680  0.2262
  809MOL0     C11564   0.457  10.028   4.282  0.7537  0.5654  1.5404
  809MOL0     C11565   0.313  10.084   4.322 -0.8206 -0.2189  0.3577
  809MOL0     C11566   0.232  10.150   4.205 -0.1331 -0.0208 -0.2105
  809MOL0     C11567   0.165  10.035   4.125  0.2609 -0.0027  0.2248
  809MOL0     C11568   0.074  10.091   4.029  0.5792 -0.7471 -0.4432
  809MOL0     C11569   0.004  10.144   3.944 -0.4488 -0.5781 -0.2087
  809MOL0     C11570   0.424   9.792   4.527 -0.3684 -0.3748  0.7264
  809MOL0     C11571   0.433   9.658   4.562  0.3637  0.3984  0.6994
  809MOL0     C11572   0.323   9.608   4.659 -0.2939 -0.2264  0.1975
  809MOL0     H11573   0.853   9.369   4.738 -4.0643  2.5487 -0.9734
  809MOL0     H11574   0.973   9.161   4.796  0.1836  1.6051 -0.7334
  809MOL0     H11575   0.925   8.723   4.711 -0.0775  0.6099 -0.4325
  809MOL0     H11576   0.767   8.804   4.718  0.0993 -1.0547 -2.4294
  809MOL0     H11577   0.968   8.843   4.938  1.2529  2.0398 -1.7685
  809MOL0     H11578   0.791   8.881   4.934  1.0196 -1.6479  2.8950
  809MOL0     H11579   0.712   8.672   4.953 -0.1436  2.7684 -0.3315
  809MOL0     H11580   0.866   8.586   4.947 -1.0369 -1.2564  2.9787
  809MOL0     H11581   0.942   8.697   5.160  1.0847 -1.8195 -2.1364
  809MOL0     H11582   0.818   8.808   5.147  0.0627  0.1124 -1.6351
  809MOL0     H11583   0.807   8.514   5.180  2.4550  1.1361 -0.8864
  809MOL0     H11584   0.659   8.606   5.142  1.6636 -1.0634 -2.4083
  809MOL0     H11585   0.857   8.638   5.378  1.2959 -0.5041 -4.4009
  809MOL0     H11586   0.710   8.741   5.377  1.2234  0.6720  1.1067
  809MOL0     H11587   0.690   8.550   5.539 -2.1096  1.4804  1.2301
  809MOL0     H11588   0.704   8.439   5.402  1.8698  1.1733 -1.7010
  809MOL0     H11589   0.511   8.672   5.410  0.8621  0.5694 -2.7830
  809MOL0     H11590   0.491   8.518   5.322  2.3367 -1.3893 -0.1960
  809MOL0     H11591   0.446   8.279   5.497  0.7261 -0.0904 -0.6895
  809MOL0     H11592   0.227   8.228   5.647  5.2975 -3.9925 -2.5893
  809MOL0     H11593   0.237   8.282   5.817  0.2130 -1.1956  0.4241
  809MOL0     H11594   0.455   8.136   5.679  0.2334  4.4322  0.1941
  809MOL0     H11595   0.444   8.175   5.851 -0.0081 -0.2198  0.4043
  809MOL0     H11596   0.265   8.051   5.897  3.8354  3.5224 -0.3076
  809MOL0     H11597   0.205   8.034   5.732  0.1126  2.7250  0.0797
  809MOL0     H11598   0.393   7.853   5.711 -0.1395  0.2868 -0.1115
  809MOL0     H11599   0.450   7.893   5.871 -2.1709 -0.2696  3.9219
  809MOL0     H11600   0.242   7.729   6.121  2.2441  1.6044  2.7645
  809MOL0     H11601   0.277   7.628   6.309 -0.2800 -0.3101  1.3513
  809MOL0     H11602   0.416   7.528   6.335  0.0612 -3.5060  0.6114
  809MOL0     H11603   0.253   7.458   6.276 -0.2286  0.4426  0.0341
  809MOL0     H11604   0.736   7.104   5.875 -2.1941  1.5709 -2.1892
  809MOL0     H11605   0.721   6.869   5.865 -2.2123 -0.3187 -0.7918
  809MOL0     H11606   0.636   6.538   5.975 -2.8352  0.5227 -0.6353
  809MOL0     H11607   0.730   6.659   5.894  0.2849  0.3027  0.3402
  809MOL0     H11608   0.870   6.621   6.086  0.2378 -1.1041  2.5888
  809MOL0     H11609   0.785   6.770   6.119 -0.5298 -0.4174  2.0290
  809MOL0     H11610   0.601   6.639   6.239  0.5209 -0.1644  1.9347
  809MOL0     H11611   0.744   6.622   6.323  1.2888 -0.5721 -0.8254
  809MOL0     H11612   0.795   6.410   6.187  1.4334  1.0385  3.0207
  809MOL0     H11613   0.615   6.403   6.165  0.6190  2.2080 -1.0739
  809MOL0     H11614   0.781   6.409   6.409  0.3228 -3.0626  0.2741
  809MOL0     H11615   0.606   6.451   6.410 -2.9516 -3.6186  1.2305
  809MOL0     H11616   0.748   6.179   6.355 -1.4430 -0.5217 -2.6093
  809MOL0     H11617   0.575   6.206   6.310  0.1360 -1.2105  0.0440
  809MOL0     H11618   0.566   6.091   6.522 -1.9142  1.6560  5.2105
  809MOL0     H11619   0.528   6.258   6.543 -1.9416 -2.0743 -1.5623
  809MOL0     H11620   0.723   6.296   6.654  0.9154  0.0120 -0.9138
  809MOL0     H11621   0.828   6.179   6.566  2.5471 -2.8957  4.3207
  809MOL0     H11622   0.364   6.875   6.114  0.6794 -1.0094 -0.5858
  809MOL0     H11623   0.393   7.110   6.156  0.9505  1.9386  0.0932
  809MOL0     H11624   0.531   7.427   5.851  0.7871 -1.5870  1.4297
  809MOL0     H11625   0.413   7.599   5.737 -1.0750 -1.9998 -0.7451
  809MOL0     H11626   0.696   8.951   4.545 -1.5083  0.3953 -0.2885
  809MOL0     H11627   0.599   9.162   4.474  0.9286  3.3475 -0.9243
  809MOL0     H11628   0.721   9.579   4.388 -1.3358 -0.8349 -1.2425
  809MOL0     H11629   0.688   9.808   4.315 -0.6144 -0.3363 -0.9685
  809MOL0     H11630   0.511  10.101   4.221 -0.1939 -0.3210 -0.4345
  809MOL0     H11631   0.444   9.937   4.223  0.9584  0.7674  1.1803
  809MOL0     H11632   0.339  10.164   4.392  2.4935  2.2568 -3.2644
  809MOL0     H11633   0.251  10.001   4.356 -2.2448  0.5185 -0.3897
  809MOL0     H11634   0.174  10.229   4.253  3.2307  0.1865  4.1307
  809MOL0     H11635   0.304  10.201   4.141 -1.9184 -2.2458 -4.4015
  809MOL0     H11636   0.115   9.971   4.198  0.6539  1.4957  1.8696
  809MOL0     H11637   0.235   9.975   4.067  0.5158  0.8064 -0.3153
  809MOL0     H11638  -0.049  10.193   3.865  2.4727  3.3277 -0.0212
  809MOL0     H11639   0.341   9.849   4.566 -0.4630 -0.8075  1.1653
  809MOL0     H11640   0.231   9.651   4.618 -1.2252 -3.3607 -1.3000
  809MOL0     H11641   0.319   9.499   4.670  2.6374 -0.5783 -1.2691
  809MOL0     H11642   0.338   9.663   4.752  1.3302 -0.7399  0.2825
  810MOL0     O11643   3.042   3.588   5.048 -0.5649  0.5537 -0.0251
  810MOL0     C11644   2.983   3.478   5.026 -1.4350  0.3210  0.0151
  810MOL0     O11645   2.942   3.393   5.132  0.0129  0.4423  0.0356
  810MOL0     C11646   2.955   3.428   5.263  0.3296 -0.1398 -0.4335
  810MOL0     C11647   2.958   3.564   5.320 -0.3242  0.6774  0.6669
  810MOL0     C11648   2.959   3.586   5.462 -0.0111  0.2850  0.4974
  810MOL0     C11649   2.975   3.473   5.546 -0.3855  0.4671  0.1820
  810MOL0     O11650   3.011   3.489   5.679 -0.4144  0.7269  0.0540
  810MOL0     C11651   3.100   3.590   5.717 -0.4657  0.0218 -0.5714
  810MOL0     C11652   3.219   3.534   5.805  0.5106 -0.4334  0.7825
  810MOL0     C11653   3.350   3.616   5.761 -0.9470  0.0489 -0.0728
  810MOL0     C11654   3.476   3.521   5.767 -0.1932  0.0224  0.6096
  810MOL0     C11655   3.502   3.444   5.891  0.8345  0.5322  0.4382
  810MOL0     C11656   3.621   3.336   5.895  0.5592 -0.0696 -0.5149
  810MOL0     C11657   3.761   3.407   5.897  1.3198 -0.2198  0.1833
  810MOL0     C11658   3.873   3.294   5.887 -0.4961  0.3282 -0.7507
  810MOL0     N11659   4.007   3.347   5.896 -0.2359 -0.0644 -0.2838
  810MOL0     C11660   4.100   3.344   6.002 -0.2422  0.0411 -1.5605
  810MOL0     C11661   4.202   3.405   5.946  0.7195  0.0584  0.1608
  810MOL0     C11662   4.314   3.437   6.032 -0.4509 -0.3171  0.0595
  810MOL0     C11663   4.447   3.378   5.987  0.4510 -0.0790  0.8455
  810MOL0     C11664   4.520   3.454   5.866 -1.3440  0.4986 -0.5523
  810MOL0     C11665   4.619   3.359   5.793  0.9091  0.0404 -0.0037
  810MOL0     O11666   4.722   3.423   5.717  0.0868 -0.1291  0.4994
  810MOL0     C11667   4.806   3.345   5.639  0.1115  0.6066  0.7021
  810MOL0     C11668   4.802   3.349   5.501  0.4846  0.2568 -0.5914
  810MOL0     C11669   4.871   3.258   5.423 -0.1679 -0.5194  0.7390
  810MOL0     C11670   4.846   3.236   5.279  0.5163 -0.8748  0.7817
  810MOL0     C11671   4.979   3.180   5.490  0.6565  0.0150  0.6746
  810MOL0     C11672   5.068   3.079   5.437  0.1077 -0.3961 -0.3275
  810MOL0     O11673   5.150   3.012   5.525  0.4137 -0.4343  1.0196
  810MOL0     C11674   5.257   2.950   5.466 -1.4281  0.1922 -0.3079
  810MOL0     C11675   5.368   3.027   5.426  0.6304  0.3681 -0.5224
  810MOL0     C11676   5.482   2.961   5.376  0.7049 -0.0603  0.4421
  810MOL0     C11677   5.506   2.823   5.388  0.5061 -0.4888  0.3225
  810MOL0     O11678   5.629   2.770   5.343  0.3355 -0.0438  0.7907
  810MOL0     C11679   5.658   2.637   5.345  1.0860  0.5914 -0.4593
  810MOL0     C11680   5.808   2.618   5.328  0.1298 -0.5883  0.3880
  810MOL0     C11681   5.857   2.502   5.414  0.7046 -1.9220  0.8953
  810MOL0     C11682   5.808   2.371   5.353 -0.3462  0.3567 -0.4891
  810MOL0     C11683   5.850   2.242   5.441 -0.1423 -0.3755  0.4684
  810MOL0     C11684   5.806   2.110   5.373 -0.0895  0.4289  0.4124
  810MOL0     C11685   5.892   2.078   5.248  0.0745  0.4409  0.1949
  810MOL0     C11686   5.866   1.939   5.180 -0.4420 -0.1797  0.1200
  810MOL0    Cl11687   5.695   1.946   5.097 -0.4559 -0.1501 -0.3571
  810MOL0     C11688   5.391   2.753   5.429 -0.7019  0.4311  0.2017
  810MOL0     C11689   5.267   2.815   5.462  0.3598  0.5391  0.5581
  810MOL0     O11690   5.054   3.046   5.322 -0.5545 -0.6917  0.7590
  810MOL0     C11691   4.978   3.185   5.629 -0.3072 -0.0712 -1.0960
  810MOL0     C11692   4.902   3.264   5.705  0.2769  0.0381 -0.1749
  810MOL0     N11693   4.189   3.431   5.810  0.2836 -0.0263  0.2841
  810MOL0     N11694   4.064   3.405   5.786 -0.9386  0.4556  0.6522
  810MOL0     C11695   2.960   3.345   5.495 -0.8082 -0.1325  0.6326
  810MOL0     C11696   2.951   3.328   5.359 -1.0668  0.1777  0.0677
  810MOL0     C11697   2.950   3.443   4.894  0.4595 -0.9428 -0.1865
  810MOL0     C11698   2.888   3.324   4.868 -0.2195  1.3067 -0.1280
  810MOL0     C11699   2.864   3.265   4.739  0.2438  0.9519  0.0557
  810MOL0     C11700   2.894   3.344   4.626 -0.2439 -0.1807  0.2271
  810MOL0     O11701   2.890   3.303   4.485 -0.6708 -0.8067 -0.5572
  810MOL0     C11702   2.862   3.170   4.462 -0.6478  0.2328  0.0630
  810MOL0     C11703   2.709   3.141   4.457 -0.2412 -0.2950 -0.4093
  810MOL0     C11704   2.636   3.220   4.340 -0.0938  0.9017 -0.1965
  810MOL0     C11705   2.486   3.240   4.360  0.1589 -0.9249 -0.0148
  810MOL0     C11706   2.449   3.372   4.297  0.7077  0.8425  0.4790
  810MOL0     C11707   2.407   3.472   4.228  1.2708  0.0965 -0.0154
  810MOL0     C11708   2.955   3.465   4.651  0.2118  0.2108  0.2986
  810MOL0     C11709   2.985   3.524   4.775 -0.2679  0.6026 -0.0799
  810MOL0     C11710   3.049   3.664   4.781  0.2948 -0.4166  0.0866
  810MOL0     H11711   2.942   3.648   5.253  2.1345 -0.9807 -2.2308
  810MOL0     H11712   2.944   3.678   5.516 -1.6014 -0.6314  1.6950
  810MOL0     H11713   3.049   3.663   5.780  0.0885  0.1784 -0.3028
  810MOL0     H11714   3.135   3.641   5.626 -0.6369 -0.3553 -0.8517
  810MOL0     H11715   3.190   3.564   5.907 -1.5737  0.7030 -0.0934
  810MOL0     H11716   3.232   3.426   5.803  1.0536 -0.3980 -2.9050
  810MOL0     H11717   3.338   3.642   5.656 -1.5231  0.7434  0.1554
  810MOL0     H11718   3.387   3.704   5.815 -0.8977  1.3054 -2.0739
  810MOL0     H11719   3.461   3.457   5.680 -1.2116  1.0174  0.0282
  810MOL0     H11720   3.565   3.584   5.762  0.6454 -0.8844  2.8024
  810MOL0     H11721   3.413   3.381   5.904  1.4986 -0.5582 -0.1048
  810MOL0     H11722   3.521   3.512   5.973  0.5589  4.5599 -2.5483
  810MOL0     H11723   3.596   3.291   5.992 -1.1020  4.7292  1.6519
  810MOL0     H11724   3.616   3.266   5.812  0.9904 -1.6587  0.7563
  810MOL0     H11725   3.769   3.465   5.990 -0.7215 -1.9808  1.5507
  810MOL0     H11726   3.766   3.477   5.814 -3.3241 -0.5368 -0.6285
  810MOL0     H11727   3.856   3.210   5.955  1.3236  1.1568  0.8443
  810MOL0     H11728   3.868   3.263   5.782  0.3125  1.0031 -0.9975
  810MOL0     H11729   4.098   3.313   6.106  0.1877  4.3632 -0.0775
  810MOL0     H11730   4.290   3.390   6.128  0.5000 -0.1120  0.4030
  810MOL0     H11731   4.323   3.546   6.036  5.0044 -0.4768 -0.3516
  810MOL0     H11732   4.520   3.367   6.067  1.1191 -1.2004  0.1290
  810MOL0     H11733   4.428   3.272   5.965 -0.6953  0.0009  1.3943
  810MOL0     H11734   4.441   3.485   5.798 -0.0264 -0.0266 -2.4292
  810MOL0     H11735   4.572   3.529   5.926 -0.7862 -0.9351  0.8530
  810MOL0     H11736   4.655   3.287   5.867 -2.1339 -0.8220  0.7953
  810MOL0     H11737   4.563   3.296   5.723  1.7480 -0.1009 -0.5707
  810MOL0     H11738   4.717   3.406   5.463 -0.9567  1.9972  4.3488
  810MOL0     H11739   4.928   3.258   5.211 -1.1086 -0.3204 -1.0935
  810MOL0     H11740   4.774   3.312   5.248  2.2012  1.0267  1.4072
  810MOL0     H11741   4.813   3.132   5.263 -0.0943 -0.6103  0.2910
  810MOL0     H11742   5.371   3.133   5.446  0.7542  0.4358 -0.8884
  810MOL0     H11743   5.571   3.015   5.345 -0.9294  3.9191  2.0477
  810MOL0     H11744   5.615   2.593   5.436  1.0883  0.0013 -0.7423
  810MOL0     H11745   5.603   2.585   5.266  0.8686 -0.1414  0.1650
  810MOL0     H11746   5.833   2.590   5.225  1.3784 -1.5711  0.9372
  810MOL0     H11747   5.858   2.711   5.353  0.2643 -0.6066  0.1961
  810MOL0     H11748   5.826   2.517   5.517  1.8439  1.3131  0.8684
  810MOL0     H11749   5.965   2.515   5.404  0.4595  0.2447  0.6861
  810MOL0     H11750   5.859   2.349   5.258 -0.7200  0.3282 -0.6849
  810MOL0     H11751   5.700   2.365   5.339 -0.3526 -1.7062  0.0069
  810MOL0     H11752   5.958   2.252   5.455 -0.0836 -1.3995  0.8492
  810MOL0     H11753   5.804   2.252   5.540 -3.1942  0.7848 -0.9440
  810MOL0     H11754   5.703   2.106   5.336  0.1067 -0.8645 -0.0596
  810MOL0     H11755   5.811   2.032   5.451 -2.0155  0.7060  0.8707
  810MOL0     H11756   5.993   2.076   5.290 -0.9439 -1.8504  2.9586
  810MOL0     H11757   5.872   2.157   5.175 -0.2973  0.5587  0.4217
  810MOL0     H11758   5.866   1.860   5.255  2.2876  1.2462  1.8293
  810MOL0     H11759   5.946   1.926   5.107  0.6888  0.2537  1.2319
  810MOL0     H11760   5.397   2.646   5.412 -3.0186 -0.1996  2.7555
  810MOL0     H11761   5.174   2.760   5.477  1.2761 -0.8700  1.2150
  810MOL0     H11762   5.032   3.116   5.694 -0.4035 -0.2017 -1.1542
  810MOL0     H11763   4.902   3.248   5.812 -2.3010  0.7770  0.0250
  810MOL0     H11764   2.977   3.260   5.560 -4.3414  0.0688  2.0509
  810MOL0     H11765   2.957   3.232   5.310  3.6394  1.6729 -2.9120
  810MOL0     H11766   2.866   3.265   4.957 -1.1213  3.3525  1.0709
  810MOL0     H11767   2.825   3.165   4.727  1.3214  0.3885  1.1205
  810MOL0     H11768   2.899   3.146   4.362 -0.3796  0.4860  0.0989
  810MOL0     H11769   2.904   3.100   4.536 -1.1305 -0.1743 -0.0475
  810MOL0     H11770   2.659   3.169   4.551  0.3587 -2.4629  0.6303
  810MOL0     H11771   2.694   3.033   4.444 -0.6811 -0.1522 -1.1054
  810MOL0     H11772   2.680   3.319   4.332  0.6757  0.8505  2.3256
  810MOL0     H11773   2.658   3.154   4.256  1.5757  2.1204 -0.7556
  810MOL0     H11774   2.467   3.238   4.468  3.7336  0.2386  0.7356
  810MOL0     H11775   2.425   3.161   4.315 -2.6891  1.4677 -0.6663
  810MOL0     H11776   2.361   3.551   4.172  1.8266  1.6133  1.5691
  810MOL0     H11777   2.980   3.524   4.563 -1.4326 -1.5921 -1.4685
  810MOL0     H11778   3.055   3.699   4.677 -0.8637  2.6616  0.9447
  810MOL0     H11779   2.981   3.737   4.826  1.3016  2.5041 -2.7381
  810MOL0     H11780   3.149   3.654   4.825  0.7207 -0.9779 -0.9631
  811MOL0     O11781   1.078   1.023  11.381  0.3917 -0.1161 -0.9210
  811MOL0     C11782   1.043   1.139  11.414  0.0883 -0.5460 -0.3276
  811MOL0     O11783   0.919   1.183  11.461  0.1174 -0.4356  0.1213
  811MOL0     C11784   0.822   1.093  11.458  0.3779  1.1389  0.6376
  811MOL0     C11785   0.698   1.146  11.439 -0.4651 -0.1708 -0.6029
  811MOL0     C11786   0.585   1.076  11.444  0.8791  0.0348 -0.0591
  811MOL0     C11787   0.589   0.934  11.486 -0.7496 -0.6168  0.0988
  811MOL0     O11788   0.479   0.857  11.518  0.1965 -0.8978  0.7291
  811MOL0     C11789   0.409   0.903  11.632  0.2636  0.2452 -0.3762
  811MOL0     C11790   0.321   0.792  11.681 -0.2103  0.0814  0.6041
  811MOL0     C11791   0.213   0.764  11.584  0.0604 -0.5878 -0.1521
  811MOL0     C11792   0.099   0.868  11.606 -0.7615 -0.1979  0.2869
  811MOL0     C11793   0.013   0.839  11.730 -0.9515  1.4510  0.4908
  811MOL0     C11794  -0.057   0.696  11.737  0.7704  0.6816  0.7382
  811MOL0     C11795  -0.151   0.659  11.850 -0.2667  0.0924 -0.2151
  811MOL0     C11796  -0.290   0.609  11.796 -0.0780 -0.7598 -0.4170
  811MOL0     N11797  -0.373   0.719  11.761  0.2058  0.3738  0.4325
  811MOL0     C11798  -0.439   0.804  11.845 -0.2794 -0.8751  0.2189
  811MOL0     C11799  -0.486   0.895  11.765  0.1756  0.9704  0.1620
  811MOL0     C11800  -0.531   1.030  11.802  0.7421 -0.0551 -0.4407
  811MOL0     C11801  -0.677   1.043  11.762 -0.2298 -0.0712 -0.6291
  811MOL0     C11802  -0.753   1.174  11.782 -0.0708  0.3591 -0.4330
  811MOL0     C11803  -0.779   1.206  11.931 -0.1719 -0.1927  0.3920
  811MOL0     O11804  -0.804   1.345  11.949  0.4334 -0.5403  0.0258
  811MOL0     C11805  -0.872   1.378  12.066 -0.1851  0.6909  0.4258
  811MOL0     C11806  -0.961   1.485  12.065  0.0783 -0.1784  0.5336
  811MOL0     C11807  -1.018   1.544  12.173  0.9823 -0.3261  0.7063
  811MOL0     C11808  -1.106   1.664  12.168 -0.4197 -0.1519 -0.2295
  811MOL0     C11809  -0.994   1.477  12.301 -0.6019  0.0475 -0.0022
  811MOL0     C11810  -1.040   1.532  12.425  0.3862  0.2109 -0.0413
  811MOL0     O11811  -0.946   1.573  12.515 -0.1274 -0.0098 -0.6259
  811MOL0     C11812  -0.978   1.608  12.644  0.3465 -0.2485 -0.3682
  811MOL0     C11813  -0.909   1.557  12.758 -1.2377 -0.3851  0.0015
  811MOL0     C11814  -0.933   1.586  12.893 -0.7068  0.3087  0.6239
  811MOL0     C11815  -1.049   1.665  12.913 -0.8532 -0.2116  0.9382
  811MOL0     O11816  -1.061   1.714  13.038 -0.3141 -0.5888  0.0892
  811MOL0     C11817  -1.189   1.704  13.091  0.3661 -1.0537 -0.3860
  811MOL0     C11818  -1.183   1.723  13.245 -0.5550  0.6927  0.0361
  811MOL0     C11819  -1.140   1.606  13.335 -0.1411 -0.0924 -0.0960
  811MOL0     C11820  -1.021   1.522  13.285 -0.0951 -0.6809 -0.6906
  811MOL0     C11821  -0.972   1.425  13.394  0.3000  0.1168 -0.7513
  811MOL0     C11822  -0.841   1.364  13.354 -0.2357  0.0081 -0.2271
  811MOL0     C11823  -0.795   1.267  13.466 -0.9047  0.3218  0.4512
  811MOL0     C11824  -0.676   1.177  13.428  0.9518 -0.7024  0.8676
  811MOL0    Cl11825  -0.722   1.043  13.320 -0.0665 -0.0565  0.4208
  811MOL0     C11826  -1.125   1.719  12.807  0.7019  0.1416 -0.4953
  811MOL0     C11827  -1.084   1.689  12.672  0.7998  0.4954  0.7294
  811MOL0     O11828  -1.159   1.526  12.450  0.1660 -0.4696 -0.0368
  811MOL0     C11829  -0.900   1.368  12.299 -1.0391  1.2587 -0.3458
  811MOL0     C11830  -0.842   1.312  12.180  0.2376  0.0717  0.3237
  811MOL0     N11831  -0.456   0.868  11.636  0.5384 -0.4495 -0.1081
  811MOL0     N11832  -0.399   0.761  11.636  0.4904  0.2745  0.0035
  811MOL0     C11833   0.714   0.875  11.510  0.3499 -1.1404 -0.6103
  811MOL0     C11834   0.823   0.954  11.497 -0.1221 -0.4495 -0.8406
  811MOL0     C11835   1.161   1.232  11.415 -0.1681  0.7423  0.3816
  811MOL0     C11836   1.144   1.325  11.508 -0.5868  0.4330  0.0002
  811MOL0     C11837   1.238   1.424  11.527  0.3557 -0.3833 -0.0952
  811MOL0     C11838   1.347   1.439  11.444  0.6620  0.0503  0.8523
  811MOL0     O11839   1.428   1.552  11.476 -0.3968  0.2097  0.0503
  811MOL0     C11840   1.557   1.564  11.400 -0.4200  0.3462 -0.6075
  811MOL0     C11841   1.633   1.692  11.447 -1.0724  0.3954  0.0480
  811MOL0     C11842   1.654   1.680  11.593 -0.3962  0.4020  0.4785
  811MOL0     C11843   1.762   1.771  11.635 -0.1132 -0.0128 -0.5299
  811MOL0     C11844   1.775   1.791  11.779 -0.7018  0.3373 -0.3043
  811MOL0     C11845   1.785   1.803  11.904  0.6165 -0.6524  0.1937
  811MOL0     C11846   1.365   1.343  11.335  0.2797 -0.6381  1.0499
  811MOL0     C11847   1.272   1.234  11.320 -0.2386 -0.3277 -0.2056
  811MOL0     C11848   1.292   1.125  11.219 -0.5893 -0.7151 -0.1873
  811MOL0     H11849   0.697   1.253  11.422 -1.3854 -0.0988 -0.1519
  811MOL0     H11850   0.489   1.126  11.446  0.9379  0.2967 -2.2106
  811MOL0     H11851   0.348   0.990  11.606 -1.8554 -1.5646 -1.8871
  811MOL0     H11852   0.481   0.942  11.703  0.7553 -1.0977 -0.1197
  811MOL0     H11853   0.379   0.705  11.713 -2.3584 -0.9020  2.0289
  811MOL0     H11854   0.284   0.829  11.777  0.8500  4.0799 -0.3319
  811MOL0     H11855   0.241   0.786  11.480 -4.7940  1.9103 -1.2419
  811MOL0     H11856   0.171   0.663  11.580  0.4028 -0.7027 -1.0194
  811MOL0     H11857   0.130   0.972  11.614  1.0572 -0.3858 -2.5715
  811MOL0     H11858   0.034   0.861  11.518  0.6726  2.5225 -1.1018
  811MOL0     H11859  -0.066   0.913  11.743 -0.6772  2.0186 -0.9002
  811MOL0     H11860   0.070   0.850  11.822 -0.9036  2.6165  0.3336
  811MOL0     H11861  -0.123   0.701  11.649 -0.8721 -0.8162  1.8319
  811MOL0     H11862   0.015   0.616  11.720 -0.7722 -0.8161  1.0357
  811MOL0     H11863  -0.168   0.731  11.931 -1.2190 -0.7322  0.3340
  811MOL0     H11864  -0.104   0.581  11.911  2.2519  2.0428  0.5258
  811MOL0     H11865  -0.265   0.542  11.713  1.6953 -1.2403  0.4475
  811MOL0     H11866  -0.321   0.537  11.872  1.3228 -1.1678 -0.2043
  811MOL0     H11867  -0.441   0.809  11.954 -1.2780  0.5651  0.1673
  811MOL0     H11868  -0.480   1.104  11.740  1.6988 -0.5407 -0.2451
  811MOL0     H11869  -0.508   1.048  11.907  1.8115  0.7005 -0.7882
  811MOL0     H11870  -0.673   1.018  11.655  0.4273  1.1886 -0.9064
  811MOL0     H11871  -0.735   0.962  11.808  2.0071 -0.6981  1.2368
  811MOL0     H11872  -0.692   1.245  11.726 -2.9569 -0.5700 -5.3866
  811MOL0     H11873  -0.845   1.173  11.722  1.8364  0.5753 -3.6002
  811MOL0     H11874  -0.867   1.149  11.963 -1.7116  0.8766 -1.6593
  811MOL0     H11875  -0.693   1.180  11.992 -1.1840  0.9308  2.4053
  811MOL0     H11876  -0.997   1.523  11.970  3.5162 -2.6537 -1.9887
  811MOL0     H11877  -1.195   1.629  12.113  0.8556 -1.1649 -1.7463
  811MOL0     H11878  -1.064   1.745  12.107  2.7337 -0.8618  0.8634
  811MOL0     H11879  -1.125   1.703  12.268 -4.0057 -5.1221  1.3986
  811MOL0     H11880  -0.837   1.478  12.739 -0.7103  0.4665 -1.7475
  811MOL0     H11881  -0.878   1.545  12.977 -2.1376  1.4193  2.1722
  811MOL0     H11882  -1.262   1.775  13.051 -1.3265 -1.4133  1.8799
  811MOL0     H11883  -1.248   1.614  13.070 -2.1058  0.1315  1.0293
  811MOL0     H11884  -1.109   1.803  13.262  1.4897 -0.7375 -1.5501
  811MOL0     H11885  -1.285   1.747  13.276  0.0218  0.2016  2.5236
  811MOL0     H11886  -1.229   1.544  13.348  1.2739 -1.4503  5.3251
  811MOL0     H11887  -1.109   1.638  13.434  5.0944 -2.6861 -0.5643
  811MOL0     H11888  -0.954   1.608  13.274 -0.7674  0.2275  1.6417
  811MOL0     H11889  -1.059   1.473  13.195 -2.7818 -0.4022  0.2087
  811MOL0     H11890  -0.957   1.484  13.485  1.7844 -1.9094  0.4265
  811MOL0     H11891  -1.045   1.346  13.416  0.8943  0.1533  1.6073
  811MOL0     H11892  -0.769   1.441  13.326 -1.2900  1.1022 -0.0258
  811MOL0     H11893  -0.854   1.296  13.269  4.3977 -1.9637  0.3500
  811MOL0     H11894  -0.878   1.205  13.500 -4.0740  3.7152 -0.4293
  811MOL0     H11895  -0.763   1.322  13.555  0.7752  4.5128 -2.4117
  811MOL0     H11896  -0.632   1.134  13.518  0.0218 -0.2219  1.5653
  811MOL0     H11897  -0.601   1.237  13.375 -0.4227 -1.0209 -1.5680
  811MOL0     H11898  -1.211   1.781  12.829  1.1583  0.1553  1.3623
  811MOL0     H11899  -1.133   1.750  12.598 -2.8909 -2.8671  0.0301
  811MOL0     H11900  -0.868   1.329  12.395  1.4285  0.7848 -1.2933
  811MOL0     H11901  -0.779   1.223  12.176  1.9958  1.2885  0.0388
  811MOL0     H11902   0.724   0.771  11.538  0.6919 -0.8510  0.3566
  811MOL0     H11903   0.915   0.903  11.524 -1.7195 -2.6490  0.8249
  811MOL0     H11904   1.054   1.334  11.569 -1.3628  0.2772 -1.1006
  811MOL0     H11905   1.214   1.493  11.607  3.6405  0.6564  0.1251
  811MOL0     H11906   1.609   1.473  11.427 -4.9876 -2.3644  0.1846
  811MOL0     H11907   1.531   1.577  11.295 -0.4519  2.4405 -0.3833
  811MOL0     H11908   1.576   1.782  11.424 -2.6030 -0.3502  0.7858
  811MOL0     H11909   1.731   1.688  11.399 -1.0969 -0.5341  0.0560
  811MOL0     H11910   1.560   1.704  11.644 -0.7744  2.4279 -1.0441
  811MOL0     H11911   1.683   1.577  11.616  0.3118  0.1347 -1.4566
  811MOL0     H11912   1.748   1.873  11.596 -2.0388 -1.1534 -3.0605
  811MOL0     H11913   1.857   1.735  11.594  0.4259  1.5684 -0.7483
  811MOL0     H11914   1.826   1.819  12.001  3.7695  0.9084 -1.2459
  811MOL0     H11915   1.455   1.343  11.275  0.1516 -0.3574  0.8574
  811MOL0     H11916   1.199   1.080  11.184 -1.5285  1.6375 -0.9325
  811MOL0     H11917   1.342   1.174  11.135 -0.3782  2.0226  1.4068
  811MOL0     H11918   1.360   1.053  11.265 -0.9154 -0.8461  0.0966
  812MOL0     O11919   0.135   4.553   6.214  0.0565 -0.1887 -0.8182
  812MOL0     C11920   0.153   4.668   6.175 -1.9223  0.4373  1.0675
  812MOL0     O11921   0.239   4.755   6.232  0.7139 -1.0112 -0.7088
  812MOL0     C11922   0.339   4.698   6.304  0.4683  0.5073 -0.3666
  812MOL0     C11923   0.448   4.645   6.238 -0.2592  0.1575  0.2022
  812MOL0     C11924   0.545   4.573   6.316 -0.1898 -0.5159  0.7420
  812MOL0     C11925   0.537   4.575   6.457  0.2060  0.3268 -0.2688
  812MOL0     O11926   0.645   4.511   6.517 -0.3075 -0.3869 -0.3394
  812MOL0     C11927   0.659   4.502   6.649 -0.2462 -0.1020  0.5539
  812MOL0     C11928   0.788   4.438   6.688 -0.3208  0.4245  0.0041
  812MOL0     C11929   0.798   4.405   6.839  0.4935  0.5833 -0.4001
  812MOL0     C11930   0.916   4.314   6.874 -0.2857  0.0267  0.2802
  812MOL0     C11931   1.054   4.378   6.822  0.4611  0.8000  0.0003
  812MOL0     C11932   1.078   4.528   6.868 -0.3744  1.1306  0.2284
  812MOL0     C11933   1.127   4.536   7.016  0.0970  0.5090  0.3550
  812MOL0     C11934   1.264   4.490   7.056  0.4915 -0.6023 -0.2592
  812MOL0     N11935   1.378   4.583   7.031 -0.8322  0.0398  0.0953
  812MOL0     C11936   1.377   4.695   6.948 -0.4886 -0.1867  1.0287
  812MOL0     C11937   1.488   4.753   6.979  0.2045  0.6789  0.0766
  812MOL0     C11938   1.547   4.872   6.913 -0.2154  0.3058  0.3326
  812MOL0     C11939   1.677   4.843   6.836  0.3159 -0.1675  0.1827
  812MOL0     C11940   1.678   4.736   6.736 -0.3781 -0.2567 -0.0685
  812MOL0     C11941   1.801   4.736   6.646  0.5556 -0.3187  0.9763
  812MOL0     O11942   1.827   4.598   6.612  1.0375 -0.5841 -0.6765
  812MOL0     C11943   1.898   4.530   6.707 -1.1589  0.4599  1.0695
  812MOL0     C11944   1.949   4.570   6.833  0.3999  0.7745  0.2471
  812MOL0     C11945   2.011   4.487   6.922  0.6412  0.4384 -0.8539
  812MOL0     C11946   2.044   4.538   7.055  0.9636  0.4935 -0.7138
  812MOL0     C11947   2.026   4.355   6.879 -0.0320  0.9726  0.4554
  812MOL0     C11948   2.106   4.262   6.959  0.1290  0.1970  1.0222
  812MOL0     O11949   2.243   4.266   6.942 -1.0162  0.2717  0.0947
  812MOL0     C11950   2.340   4.195   7.008  0.5834  0.1290  1.0731
  812MOL0     C11951   2.326   4.103   7.119 -0.2651 -0.1278 -0.1301
  812MOL0     C11952   2.436   4.045   7.169 -0.1415  0.4067 -0.2597
  812MOL0     C11953   2.570   4.060   7.117  0.4631  0.2163 -0.1016
  812MOL0     O11954   2.672   4.004   7.192 -0.2425 -0.5436  0.6928
  812MOL0     C11955   2.809   4.051   7.185  0.1281 -0.0063 -0.7867
  812MOL0     C11956   2.891   3.997   7.305  0.1097 -0.6811  0.2436
  812MOL0     C11957   2.846   4.055   7.439  0.4334  0.3556 -0.4618
  812MOL0     C11958   2.905   3.980   7.557  0.1204  0.9150 -0.2048
  812MOL0     C11959   2.847   4.026   7.693 -1.1340  0.3300 -0.1394
  812MOL0     C11960   2.893   3.915   7.797 -0.3070  0.5944  0.7409
  812MOL0     C11961   3.046   3.906   7.822 -0.1682 -0.0338  0.4021
  812MOL0     C11962   3.120   4.036   7.865 -0.0343  0.3493  0.5829
  812MOL0    Cl11963   3.277   3.993   7.926  0.2502 -0.3538 -0.0245
  812MOL0     C11964   2.587   4.140   7.002  0.9266  1.6360  0.5060
  812MOL0     C11965   2.473   4.203   6.947 -0.3529 -0.1646  0.5175
  812MOL0     O11966   2.057   4.180   7.036 -0.3249 -0.4697  0.7379
  812MOL0     C11967   1.996   4.308   6.752  0.3048 -0.4598  0.5484
  812MOL0     C11968   1.936   4.397   6.673  0.5494  0.5012  0.1096
  812MOL0     N11969   1.554   4.677   7.082  0.8311  0.3118 -0.3149
  812MOL0     N11970   1.493   4.573   7.097  0.4264  0.3305 -0.8528
  812MOL0     C11971   0.433   4.643   6.521  0.2822  0.2834  0.0460
  812MOL0     C11972   0.332   4.684   6.441  0.3749 -0.7018  0.8344
  812MOL0     C11973   0.084   4.724   6.057 -0.1356  0.3696 -1.6389
  812MOL0     C11974   0.103   4.866   6.042 -0.3768  0.5346  1.3657
  812MOL0     C11975   0.035   4.942   5.954  0.6206 -0.3284 -0.1053
  812MOL0     C11976  -0.052   4.873   5.872 -0.3405  0.3905 -0.3445
  812MOL0     O11977  -0.121   4.941   5.773  0.1987 -0.0174  0.4415
  812MOL0     C11978  -0.143   5.087   5.786  0.0376  0.0707 -0.3562
  812MOL0     C11979  -0.266   5.133   5.703 -0.0787  0.7382 -0.1283
  812MOL0     C11980  -0.388   5.047   5.744 -0.5930  0.1984  0.3726
  812MOL0     C11981  -0.522   5.099   5.681 -0.2244  0.6898  1.0891
  812MOL0     C11982  -0.636   5.021   5.722 -0.6205  0.3719  1.1860
  812MOL0     C11983  -0.736   4.960   5.753 -0.7551  0.0423  0.3471
  812MOL0     C11984  -0.061   4.732   5.871  0.1573 -0.3790 -0.3151
  812MOL0     C11985   0.007   4.655   5.959 -1.0747 -0.1231 -0.1079
  812MOL0     C11986  -0.020   4.506   5.961  0.7326  0.9540  0.1093
  812MOL0     H11987   0.453   4.640   6.130 -1.9556 -4.0207  0.1437
  812MOL0     H11988   0.636   4.532   6.273  0.0200 -0.2248  0.8963
  812MOL0     H11989   0.575   4.442   6.687  0.2534  1.6847  5.0546
  812MOL0     H11990   0.643   4.600   6.696 -6.7691 -1.3656  2.0334
  812MOL0     H11991   0.795   4.341   6.638 -0.7858 -0.1387  1.0026
  812MOL0     H11992   0.873   4.504   6.670 -0.3824  0.9436  1.4651
  812MOL0     H11993   0.793   4.488   6.909 -0.6533 -1.6268  2.3237
  812MOL0     H11994   0.707   4.349   6.860  1.2096  0.2395  2.1526
  812MOL0     H11995   0.916   4.291   6.981  0.0010 -0.1664  0.2387
  812MOL0     H11996   0.898   4.215   6.832 -1.4237  0.7667 -1.1012
  812MOL0     H11997   1.034   4.382   6.714  0.9583  1.6899 -0.0666
  812MOL0     H11998   1.140   4.318   6.852  0.0663  1.1102  1.8484
  812MOL0     H11999   1.156   4.558   6.797  0.0558 -2.1575 -0.8270
  812MOL0     H12000   0.986   4.584   6.851 -0.8932  0.4258  0.6645
  812MOL0     H12001   1.055   4.488   7.083 -1.3874  1.5639 -0.4271
  812MOL0     H12002   1.123   4.643   7.036  0.4389  0.2962  1.6036
  812MOL0     H12003   1.266   4.463   7.162  1.9854  1.3103  0.2494
  812MOL0     H12004   1.279   4.392   7.010  0.6748 -0.7788  0.1699
  812MOL0     H12005   1.300   4.729   6.879 -1.7316  0.2524  2.5837
  812MOL0     H12006   1.565   4.941   6.996 -0.4408  1.1393 -0.3007
  812MOL0     H12007   1.483   4.911   6.834  0.8736 -0.3864 -0.9152
  812MOL0     H12008   1.702   4.939   6.790 -2.0664 -0.0853 -1.0552
  812MOL0     H12009   1.753   4.827   6.914  1.2811  0.8421 -0.5162
  812MOL0     H12010   1.678   4.645   6.796 -3.3569  0.8920  1.8971
  812MOL0     H12011   1.585   4.751   6.681 -1.4395 -0.1177  1.7069
  812MOL0     H12012   1.783   4.790   6.552  1.6713 -1.4020  0.1021
  812MOL0     H12013   1.883   4.790   6.693  0.1329  1.0909  0.1602
  812MOL0     H12014   1.923   4.670   6.866  0.1895  1.3184 -1.4613
  812MOL0     H12015   2.152   4.558   7.057  1.1593 -0.4152 -1.5364
  812MOL0     H12016   2.009   4.466   7.130  0.6805  1.9506  0.6276
  812MOL0     H12017   2.001   4.634   7.084  3.9187  2.0284 -0.9786
  812MOL0     H12018   2.230   4.081   7.163 -0.9722 -0.0932 -1.5813
  812MOL0     H12019   2.431   3.994   7.265  0.0107  1.4307  0.3032
  812MOL0     H12020   2.854   4.013   7.093  1.6881 -2.6819  0.9590
  812MOL0     H12021   2.813   4.160   7.195  0.8548 -0.2606  4.2325
  812MOL0     H12022   2.883   3.888   7.298  2.1100 -0.8761  0.3623
  812MOL0     H12023   2.998   4.015   7.289 -0.0865  0.0627 -0.2535
  812MOL0     H12024   2.736   4.055   7.443  0.3958  3.0566  0.4004
  812MOL0     H12025   2.876   4.159   7.455 -3.1524  1.0307  3.7387
  812MOL0     H12026   3.013   3.998   7.551  0.2547  0.2795  0.1562
  812MOL0     H12027   2.879   3.873   7.555 -1.7226  1.2410  2.3059
  812MOL0     H12028   2.890   4.120   7.728 -1.1891 -0.0235  0.8896
  812MOL0     H12029   2.737   4.023   7.688 -1.0862  0.1964 -1.4333
  812MOL0     H12030   2.863   3.820   7.753  2.7761 -1.7266  3.1724
  812MOL0     H12031   2.837   3.933   7.889  0.0456  1.7722  0.7477
  812MOL0     H12032   3.087   3.849   7.739 -0.7494  0.7516 -0.4393
  812MOL0     H12033   3.054   3.844   7.912 -2.6423 -0.4518  0.4009
  812MOL0     H12034   3.061   4.081   7.945 -2.0419  0.8069 -1.0762
  812MOL0     H12035   3.132   4.110   7.784 -0.0401  2.0134  2.0413
  812MOL0     H12036   2.685   4.157   6.957  0.2856 -0.0783 -1.7442
  812MOL0     H12037   2.496   4.257   6.855 -0.0488  1.6116  1.5898
  812MOL0     H12038   2.018   4.207   6.718 -2.7394 -0.7130 -0.9729
  812MOL0     H12039   1.903   4.362   6.575  1.3024  0.8986 -0.2966
  812MOL0     H12040   0.405   4.649   6.626  2.0762  0.0990  0.5668
  812MOL0     H12041   0.246   4.720   6.496  0.1376 -1.5489  1.0269
  812MOL0     H12042   0.172   4.926   6.100 -1.1805 -0.7341  3.7797
  812MOL0     H12043   0.051   5.049   5.947  2.5151 -0.6624 -2.0078
  812MOL0     H12044  -0.158   5.115   5.890 -1.5231 -0.1729 -0.5002
  812MOL0     H12045  -0.051   5.136   5.753  0.3536 -0.4346 -0.2391
  812MOL0     H12046  -0.240   5.126   5.597 -1.7583  0.8036 -0.5721
  812MOL0     H12047  -0.281   5.241   5.709  1.8886  0.9794  1.5392
  812MOL0     H12048  -0.378   4.943   5.712 -3.0927 -1.1602  3.4248
  812MOL0     H12049  -0.403   5.043   5.852 -3.1927  2.0060  0.1732
  812MOL0     H12050  -0.499   5.092   5.574  4.2214 -1.5559  1.9350
  812MOL0     H12051  -0.532   5.205   5.709  1.0059  0.4658  2.5452
  812MOL0     H12052  -0.827   4.906   5.765 -0.9916  0.7080  1.8024
  812MOL0     H12053  -0.137   4.698   5.802 -0.8608 -0.5761  0.8804
  812MOL0     H12054  -0.028   4.460   6.060 -0.2892  0.1322 -0.3368
  812MOL0     H12055  -0.109   4.486   5.901  0.3153 -0.1841  1.0722
  812MOL0     H12056   0.055   4.445   5.912 -1.4690 -0.5425 -1.5924
  813MOL0     O12057   1.215   3.391   1.791  0.4281  0.2355 -0.4853
  813MOL0     C12058   1.298   3.472   1.824  0.2902 -0.7027  0.2161
  813MOL0     O12059   1.429   3.476   1.795  0.2900 -0.6179 -0.0251
  813MOL0     C12060   1.467   3.434   1.666  0.0732  0.1688  0.3816
  813MOL0     C12061   1.601   3.399   1.664 -0.0726 -0.4077 -0.0957
  813MOL0     C12062   1.661   3.365   1.545 -0.3349  0.2358  0.1178
  813MOL0     C12063   1.584   3.347   1.432  0.1397 -0.4697 -0.1635
  813MOL0     O12064   1.642   3.288   1.319 -0.5213  0.4190  0.3545
  813MOL0     C12065   1.558   3.246   1.213 -0.0435  0.1059  0.6552
  813MOL0     C12066   1.647   3.166   1.111  0.4343 -0.5065  0.5889
  813MOL0     C12067   1.697   3.032   1.170  0.4766  0.4353 -0.0168
  813MOL0     C12068   1.625   2.918   1.112 -0.3257 -0.6147  0.4700
  813MOL0     C12069   1.670   2.778   1.182  1.2269 -0.7627 -0.0617
  813MOL0     C12070   1.618   2.767   1.320  0.5602  0.4548 -0.0551
  813MOL0     C12071   1.613   2.630   1.378 -0.4843  0.5180  1.2091
  813MOL0     C12072   1.585   2.631   1.524  0.2036  0.9665 -0.4041
  813MOL0     N12073   1.588   2.486   1.574  0.4990 -0.0519  0.2616
  813MOL0     C12074   1.700   2.409   1.586 -0.1950 -0.4335  0.4106
  813MOL0     C12075   1.670   2.298   1.654  0.0827 -0.2536 -0.1703
  813MOL0     C12076   1.768   2.188   1.677 -0.3620  0.1511 -0.0182
  813MOL0     C12077   1.709   2.068   1.741  0.5705  0.6738  0.2523
  813MOL0     C12078   1.814   1.963   1.768  0.2509  0.1340 -1.6061
  813MOL0     C12079   1.836   1.933   1.914  0.7248 -0.0898 -0.4519
  813MOL0     O12080   1.867   2.051   1.989 -0.5397 -0.6988  0.1963
  813MOL0     C12081   1.886   2.032   2.123 -0.4981 -0.0819  0.0838
  813MOL0     C12082   1.875   1.906   2.189  0.5409 -0.8758  1.2345
  813MOL0     C12083   1.882   1.901   2.331  0.1622 -0.5500 -0.1381
  813MOL0     C12084   1.840   1.781   2.399 -0.4808 -0.7746  0.3911
  813MOL0     C12085   1.902   2.023   2.406 -0.1086  0.0046  0.3898
  813MOL0     C12086   1.913   2.022   2.554 -0.4634 -0.5490  0.1796
  813MOL0     O12087   1.878   2.142   2.615  0.3940 -0.0513  0.9029
  813MOL0     C12088   1.874   2.149   2.751 -0.2102  0.1436  0.1119
  813MOL0     C12089   1.947   2.248   2.809  0.5970  0.4479 -0.3763
  813MOL0     C12090   1.973   2.242   2.952  0.6313 -0.1778 -0.1097
  813MOL0     C12091   1.899   2.160   3.035  0.2703 -0.6883 -0.0968
  813MOL0     O12092   1.935   2.160   3.173  0.4470 -0.3584 -0.1747
  813MOL0     C12093   1.868   2.067   3.255  0.2679 -1.0320 -0.1662
  813MOL0     C12094   1.883   2.112   3.407 -0.0721  0.1720  0.1590
  813MOL0     C12095   2.018   2.094   3.472 -0.9934  0.1131 -0.6792
  813MOL0     C12096   2.039   2.157   3.612 -0.4538 -0.2386  0.0843
  813MOL0     C12097   2.177   2.142   3.668  0.3665 -0.3936 -1.2457
  813MOL0     C12098   2.179   2.001   3.726 -0.2790 -0.4993  0.6062
  813MOL0     C12099   2.315   1.962   3.773 -0.5257  0.3887 -0.8225
  813MOL0     C12100   2.314   1.817   3.813 -0.5833 -0.3010  0.1504
  813MOL0    Cl12101   2.265   1.797   3.989  0.1560 -0.3117 -0.1339
  813MOL0     C12102   1.818   2.065   2.975  0.0794 -1.2853 -0.0476
  813MOL0     C12103   1.818   2.051   2.834  0.7340 -0.0381 -0.7334
  813MOL0     O12104   1.974   1.936   2.609  1.3146  0.7531  0.0112
  813MOL0     C12105   1.892   2.140   2.342 -0.8048 -1.0992 -0.3988
  813MOL0     C12106   1.888   2.142   2.201  0.0682 -1.3964 -0.4622
  813MOL0     N12107   1.539   2.320   1.707 -0.5896  0.6017  0.5776
  813MOL0     N12108   1.498   2.436   1.660 -0.3197  0.2053 -0.5152
  813MOL0     C12109   1.444   3.382   1.439  0.1803  0.8903 -0.0140
  813MOL0     C12110   1.388   3.421   1.559 -0.2605  0.3568 -0.2905
  813MOL0     C12111   1.251   3.575   1.923 -0.2919  0.1485  0.9721
  813MOL0     C12112   1.299   3.553   2.049  1.4011 -1.1832 -0.4830
  813MOL0     C12113   1.268   3.642   2.149 -0.7207  0.1216  0.1474
  813MOL0     C12114   1.177   3.742   2.119 -0.2388 -0.8297 -0.1751
  813MOL0     O12115   1.150   3.819   2.235 -0.1620 -0.8522 -0.3348
  813MOL0     C12116   1.128   3.958   2.215 -0.4980  0.1732 -0.0067
  813MOL0     C12117   1.267   4.024   2.210 -0.1401 -0.6097 -0.5192
  813MOL0     C12118   1.362   3.965   2.315  0.3957  0.1666  0.3633
  813MOL0     C12119   1.329   3.980   2.467  0.1004  0.1179 -0.2566
  813MOL0     C12120   1.440   3.943   2.552  0.2880  0.1317 -0.9134
  813MOL0     C12121   1.538   3.910   2.626 -0.0234  0.5739 -0.2010
  813MOL0     C12122   1.133   3.762   1.987 -0.2165  0.6414 -0.7252
  813MOL0     C12123   1.162   3.676   1.888  0.0362  0.4368  1.0105
  813MOL0     C12124   1.085   3.693   1.751 -1.0446  0.7737 -0.3104
  813MOL0     H12125   1.651   3.411   1.759  0.2701 -1.1189 -0.1758
  813MOL0     H12126   1.768   3.357   1.531 -0.2384  1.9973 -0.4026
  813MOL0     H12127   1.529   3.336   1.157  1.8743  0.8935  0.8472
  813MOL0     H12128   1.462   3.199   1.236 -0.1286 -1.6078 -2.5836
  813MOL0     H12129   1.595   3.142   1.018 -1.6265 -0.6067  1.7151
  813MOL0     H12130   1.739   3.219   1.084  1.6058 -1.7881  1.8893
  813MOL0     H12131   1.803   3.023   1.145  0.7190  0.3061  1.0210
  813MOL0     H12132   1.688   3.038   1.279  1.4575 -0.8372  0.1590
  813MOL0     H12133   1.516   2.929   1.120 -0.2041  0.9911  0.2396
  813MOL0     H12134   1.646   2.913   1.004  2.9655  0.5203  0.9513
  813MOL0     H12135   1.778   2.781   1.198  0.6830  2.2056  6.6086
  813MOL0     H12136   1.639   2.692   1.123 -0.2440 -0.0569 -0.3590
  813MOL0     H12137   1.683   2.834   1.377  0.5245 -1.1346  1.9632
  813MOL0     H12138   1.512   2.796   1.321 -0.1564 -1.9475  0.7467
  813MOL0     H12139   1.696   2.575   1.334 -0.1096  1.7292  0.3335
  813MOL0     H12140   1.522   2.594   1.328 -0.6951 -2.3183  3.4156
  813MOL0     H12141   1.665   2.692   1.568  0.6323 -0.3419  0.7117
  813MOL0     H12142   1.491   2.682   1.546 -1.4175 -2.4736  1.4077
  813MOL0     H12143   1.788   2.439   1.530 -0.3822  1.3837  1.0161
  813MOL0     H12144   1.846   2.226   1.743  0.6265 -0.4725 -0.7965
  813MOL0     H12145   1.824   2.165   1.586  0.0491  1.2698 -0.0684
  813MOL0     H12146   1.648   2.090   1.829  1.7598  1.6304  0.8779
  813MOL0     H12147   1.629   2.027   1.679  2.2876  1.2358 -2.4972
  813MOL0     H12148   1.776   1.873   1.720 -3.4786  0.0299  1.1592
  813MOL0     H12149   1.913   1.981   1.724 -0.7191  1.9040 -3.1735
  813MOL0     H12150   1.749   1.892   1.967  0.3931  0.0724 -0.8664
  813MOL0     H12151   1.910   1.852   1.917 -0.7881 -1.5989 -1.7950
  813MOL0     H12152   1.848   1.811   2.144  4.7779 -1.9414  0.4971
  813MOL0     H12153   1.778   1.809   2.485 -1.6726 -2.2839  0.0574
  813MOL0     H12154   1.921   1.715   2.432 -0.5068 -0.4994  1.0293
  813MOL0     H12155   1.784   1.723   2.326  1.6215  0.2816 -2.2181
  813MOL0     H12156   1.995   2.326   2.751  3.0760 -0.2947  0.5515
  813MOL0     H12157   2.032   2.317   3.004  0.7572 -0.5072  0.2228
  813MOL0     H12158   1.764   2.041   3.231  0.0940  0.0050 -0.5768
  813MOL0     H12159   1.920   1.971   3.252 -0.4695 -1.4153 -0.9325
  813MOL0     H12160   1.859   2.218   3.406  0.8809  0.4104  0.8275
  813MOL0     H12161   1.808   2.052   3.460 -0.6181 -2.4125 -3.1753
  813MOL0     H12162   2.090   2.152   3.414  0.8201 -2.0521 -0.7036
  813MOL0     H12163   2.043   1.988   3.460  0.9143  0.6272 -1.7092
  813MOL0     H12164   1.959   2.122   3.677 -0.1075  0.4912  0.9257
  813MOL0     H12165   2.015   2.263   3.599 -1.9537 -0.3509  1.6532
  813MOL0     H12166   2.257   2.157   3.595  0.8337  0.6658 -0.5389
  813MOL0     H12167   2.195   2.208   3.754 -2.4512 -1.7300  0.5059
  813MOL0     H12168   2.156   1.928   3.648 -1.5857  0.8530 -0.3348
  813MOL0     H12169   2.098   1.993   3.800  0.0057 -0.1969  0.9474
  813MOL0     H12170   2.350   2.020   3.858  4.7946 -2.6113 -0.5782
  813MOL0     H12171   2.382   1.975   3.687  1.3246  3.6513  0.9165
  813MOL0     H12172   2.419   1.789   3.823 -1.3649 -3.6693  0.2333
  813MOL0     H12173   2.276   1.753   3.732  1.3556 -1.0852 -0.2001
  813MOL0     H12174   1.775   1.980   3.028 -0.0084 -1.2746 -0.1012
  813MOL0     H12175   1.773   1.968   2.780  1.5270 -0.1757 -1.2160
  813MOL0     H12176   1.887   2.233   2.398 -2.3434 -0.7577 -1.0590
  813MOL0     H12177   1.875   2.232   2.141 -1.3890  0.2207  2.0694
  813MOL0     H12178   1.385   3.365   1.350 -0.9141 -2.1081  1.1462
  813MOL0     H12179   1.282   3.437   1.574 -0.2122  1.1707 -0.8133
  813MOL0     H12180   1.365   3.472   2.075  0.3486 -2.0200 -0.3502
  813MOL0     H12181   1.309   3.635   2.249 -1.0153 -1.8586  0.1662
  813MOL0     H12182   1.074   3.973   2.121 -1.4730 -2.4076  0.0646
  813MOL0     H12183   1.071   3.999   2.299 -1.8870  0.0655 -0.8693
  813MOL0     H12184   1.262   4.129   2.239 -0.6912 -1.1984  1.6984
  813MOL0     H12185   1.307   4.023   2.108 -0.5726  0.7833 -0.7195
  813MOL0     H12186   1.385   3.862   2.289  3.6963 -0.0678  3.3680
  813MOL0     H12187   1.454   4.017   2.289 -0.0876  0.6544 -0.4324
  813MOL0     H12188   1.237   3.923   2.481  0.2927 -0.6613 -1.8672
  813MOL0     H12189   1.306   4.086   2.480  1.6329  0.7039 -1.8237
  813MOL0     H12190   1.617   3.855   2.674 -0.2241 -0.2393 -0.7792
  813MOL0     H12191   1.065   3.841   1.956  2.2807  2.2000 -2.5871
  813MOL0     H12192   0.990   3.743   1.765 -2.3429 -1.4146 -0.8269
  813MOL0     H12193   1.150   3.745   1.680  3.3746  0.4267  3.0438
  813MOL0     H12194   1.067   3.593   1.709  2.3721 -0.7204  1.3397
  814MOL0     O12195   0.510   5.524   8.800  0.0363 -0.3914  0.0468
  814MOL0     C12196   0.442   5.469   8.702 -0.6412 -0.4997 -0.3408
  814MOL0     O12197   0.308   5.442   8.694  0.1636  0.0542  0.2790
  814MOL0     C12198   0.238   5.466   8.808  0.2861  0.1221  0.1570
  814MOL0     C12199   0.180   5.359   8.870 -0.6185  0.3083  0.9728
  814MOL0     C12200   0.074   5.380   8.966 -0.3040  0.3518  1.2936
  814MOL0     C12201   0.037   5.509   9.015  0.2464 -0.1732  0.5637
  814MOL0     O12202  -0.065   5.530   9.103 -0.1521  0.0585 -0.2883
  814MOL0     C12203  -0.194   5.470   9.074 -0.3892  0.0143 -0.4865
  814MOL0     C12204  -0.273   5.503   9.203  1.2075 -0.4761 -0.0791
  814MOL0     C12205  -0.425   5.461   9.223 -0.0440 -0.9192  0.0376
  814MOL0     C12206  -0.491   5.515   9.349  0.9320 -0.0910  0.3698
  814MOL0     C12207  -0.542   5.668   9.341  0.3948  0.7503 -0.2772
  814MOL0     C12208  -0.606   5.724   9.466 -0.4030 -0.3199 -0.1747
  814MOL0     C12209  -0.725   5.636   9.530 -0.8643 -0.3704  0.6524
  814MOL0     C12210  -0.827   5.723   9.598  0.1264 -0.2278 -0.0486
  814MOL0     N12211  -0.929   5.638   9.668 -0.2985 -0.5097  0.5610
  814MOL0     C12212  -0.961   5.657   9.802  0.1330  0.3162 -0.0167
  814MOL0     C12213  -1.047   5.549   9.831 -0.8541  0.0341  1.1574
  814MOL0     C12214  -1.136   5.552   9.945  1.3469 -0.6277 -0.0027
  814MOL0     C12215  -1.159   5.404   9.981  0.4067  0.1043  0.2101
  814MOL0     C12216  -1.241   5.395  10.110 -0.4322  0.8845 -0.2944
  814MOL0     C12217  -1.200   5.261  10.177 -0.0254 -0.5296 -0.2647
  814MOL0     O12218  -1.076   5.266  10.249 -0.2627 -0.0001 -0.4434
  814MOL0     C12219  -1.068   5.233  10.385 -0.4227  0.0851 -0.3060
  814MOL0     C12220  -0.948   5.192  10.427  0.3560 -0.1216 -0.1718
  814MOL0     C12221  -0.921   5.152  10.560  0.0394 -0.1703 -0.0552
  814MOL0     C12222  -0.777   5.109  10.572 -0.1007  0.1906  0.8206
  814MOL0     C12223  -1.029   5.164  10.656 -1.0940 -0.5485 -0.0245
  814MOL0     C12224  -1.007   5.141  10.811  0.1401  0.0364 -0.2300
  814MOL0     O12225  -1.116   5.168  10.892 -0.5419 -0.4238 -0.3183
  814MOL0     C12226  -1.112   5.129  11.014  1.1591  0.3862 -0.3508
  814MOL0     C12227  -1.102   5.209  11.129 -0.9257  0.0132 -0.2539
  814MOL0     C12228  -1.085   5.161  11.253  0.6272  0.1527  0.3245
  814MOL0     C12229  -1.073   5.022  11.272  1.2272  0.1956 -0.2953
  814MOL0     O12230  -1.036   4.956  11.378  0.3186  0.8057 -0.7329
  814MOL0     C12231  -0.904   4.991  11.438 -0.0191  0.6281 -0.1402
  814MOL0     C12232  -0.928   5.094  11.547 -0.0305 -0.3302 -0.1888
  814MOL0     C12233  -0.802   5.090  11.649  0.5628 -0.2227  0.6397
  814MOL0     C12234  -0.829   5.198  11.756  0.2398 -0.0340 -0.2731
  814MOL0     C12235  -0.731   5.182  11.867  0.1652 -0.1997  0.9451
  814MOL0     C12236  -0.733   5.306  11.952  0.8255 -0.6895 -0.3551
  814MOL0     C12237  -0.615   5.320  12.041 -0.8403 -0.4181 -0.0216
  814MOL0     C12238  -0.495   5.381  11.962 -0.3463  0.5266 -0.1113
  814MOL0    Cl12239  -0.354   5.374  12.072  0.2414  0.2757  0.0837
  814MOL0     C12240  -1.113   4.937  11.165  0.2385 -0.3227  0.3456
  814MOL0     C12241  -1.133   4.986  11.037 -0.0699  0.0104 -0.7277
  814MOL0     O12242  -0.892   5.110  10.847 -0.7115  0.0751 -0.0689
  814MOL0     C12243  -1.152   5.216  10.610  0.3410  0.2886 -0.2980
  814MOL0     C12244  -1.170   5.250  10.474  1.0481  0.4157  0.2620
  814MOL0     N12245  -1.054   5.471   9.724 -0.5469  0.1835  0.6273
  814MOL0     N12246  -0.981   5.520   9.625 -0.3679  0.3426 -0.2610
  814MOL0     C12247   0.113   5.613   8.959  0.7782  0.6097 -0.7833
  814MOL0     C12248   0.204   5.589   8.852 -0.3207  0.5909  0.2102
  814MOL0     C12249   0.518   5.426   8.592 -1.2096  1.2106  0.0783
  814MOL0     C12250   0.601   5.315   8.595 -0.1055  1.3505  0.1315
  814MOL0     C12251   0.679   5.274   8.493 -0.2759 -0.0824  0.3106
  814MOL0     C12252   0.675   5.341   8.368  1.1824 -0.1849 -0.5342
  814MOL0     O12253   0.744   5.308   8.264  0.2729 -0.0854  0.0897
  814MOL0     C12254   0.815   5.181   8.273 -0.1949 -0.4615 -0.0506
  814MOL0     C12255   0.952   5.223   8.326  0.5941 -0.8112  0.3545
  814MOL0     C12256   1.040   5.100   8.361  0.6213 -0.1526 -0.3298
  814MOL0     C12257   1.109   5.027   8.238  0.8821  0.1744 -0.3214
  814MOL0     C12258   1.014   4.941   8.174 -0.4755  0.3444 -0.4077
  814MOL0     C12259   0.944   4.871   8.101 -0.2727 -0.3172 -0.0539
  814MOL0     C12260   0.584   5.450   8.355 -0.5349  0.2379  0.3177
  814MOL0     C12261   0.500   5.487   8.460 -0.6676  0.5942 -0.7833
  814MOL0     C12262   0.412   5.598   8.425  0.4098 -0.5105 -0.0617
  814MOL0     H12263   0.217   5.260   8.846  0.0987  0.3365  1.8850
  814MOL0     H12264   0.027   5.290   9.004 -2.8995  0.3181 -1.5384
  814MOL0     H12265  -0.187   5.362   9.062 -1.0369 -0.0475 -0.3655
  814MOL0     H12266  -0.247   5.517   8.991  0.3059 -0.8395 -1.4252
  814MOL0     H12267  -0.217   5.468   9.290  2.4755 -0.5098 -0.8730
  814MOL0     H12268  -0.268   5.610   9.221  1.0211 -0.9134  3.1049
  814MOL0     H12269  -0.482   5.495   9.135 -1.6385  0.6430  1.6025
  814MOL0     H12270  -0.436   5.352   9.228 -1.0796 -0.8353 -0.1735
  814MOL0     H12271  -0.577   5.447   9.359 -1.9496  3.1081 -0.7884
  814MOL0     H12272  -0.429   5.499   9.437 -0.7051 -1.1057  1.4013
  814MOL0     H12273  -0.617   5.679   9.262  0.4411 -2.7595 -1.0076
  814MOL0     H12274  -0.453   5.730   9.323  0.1571  0.8433 -1.2204
  814MOL0     H12275  -0.531   5.747   9.542  0.3786 -0.8758 -0.7557
  814MOL0     H12276  -0.646   5.822   9.438  0.1258 -0.3316 -1.0154
  814MOL0     H12277  -0.685   5.560   9.598 -0.1321 -0.0139  0.6325
  814MOL0     H12278  -0.758   5.583   9.439 -2.1041 -0.6520  1.2465
  814MOL0     H12279  -0.782   5.799   9.662 -1.6964  2.8484 -2.1589
  814MOL0     H12280  -0.870   5.769   9.509 -0.8608 -1.6637 -0.3529
  814MOL0     H12281  -0.928   5.742   9.862  0.5651 -0.3518  0.7054
  814MOL0     H12282  -1.230   5.600   9.918  0.4904 -0.5809  2.7397
  814MOL0     H12283  -1.102   5.609  10.032  0.6849  1.1966 -0.8861
  814MOL0     H12284  -1.213   5.344   9.907 -0.3726 -0.7298  1.4221
  814MOL0     H12285  -1.063   5.354   9.999  0.6606  0.2686 -0.6635
  814MOL0     H12286  -1.225   5.472  10.186 -2.8375 -0.2104  1.4687
  814MOL0     H12287  -1.347   5.383  10.086 -0.0038 -1.2534 -1.3536
  814MOL0     H12288  -1.280   5.245  10.250  1.9039  0.0045  2.0909
  814MOL0     H12289  -1.205   5.182  10.102 -0.7490 -0.9522  0.2092
  814MOL0     H12290  -0.868   5.191  10.353 -1.7158 -1.0533 -2.5105
  814MOL0     H12291  -0.776   5.016  10.631 -0.7141  0.9553  2.0833
  814MOL0     H12292  -0.722   5.184  10.629  0.1825  0.3194  0.3832
  814MOL0     H12293  -0.729   5.097  10.474 -2.0192 -0.8507 -0.0572
  814MOL0     H12294  -1.105   5.316  11.115 -0.2114  0.0572 -0.1485
  814MOL0     H12295  -1.059   5.208  11.348  1.7374 -2.5853  1.4878
  814MOL0     H12296  -0.861   4.894  11.465  0.6587  1.7317  3.2906
  814MOL0     H12297  -0.825   5.033  11.375 -0.3037  1.0679 -0.2097
  814MOL0     H12298  -0.930   5.195  11.507 -2.4837 -1.0888 -2.2738
  814MOL0     H12299  -1.015   5.070  11.610  1.2088  0.8108  2.0527
  814MOL0     H12300  -0.716   5.119  11.589  1.1824 -1.7161  0.7599
  814MOL0     H12301  -0.778   4.995  11.698 -1.5858 -1.1374  0.0367
  814MOL0     H12302  -0.923   5.189  11.810  1.2346  1.5179  1.8625
  814MOL0     H12303  -0.817   5.292  11.701  2.1461  0.8540  1.5149
  814MOL0     H12304  -0.752   5.099  11.936  1.9580  0.9384  2.9827
  814MOL0     H12305  -0.634   5.151  11.827 -1.0276 -1.7129 -0.9667
  814MOL0     H12306  -0.821   5.284  12.013  1.5751 -0.9670  0.6491
  814MOL0     H12307  -0.742   5.392  11.884  2.8162  0.3242  0.6037
  814MOL0     H12308  -0.596   5.218  12.075  0.5764 -0.2006 -0.0995
  814MOL0     H12309  -0.650   5.376  12.128 -4.4461 -0.9284 -0.9699
  814MOL0     H12310  -0.501   5.487  11.935  3.2478  0.7408 -0.5723
  814MOL0     H12311  -0.482   5.325  11.870  0.3593 -0.9103  0.8231
  814MOL0     H12312  -1.132   4.831  11.181 -0.2084 -0.4902 -1.1142
  814MOL0     H12313  -1.164   4.921  10.956 -3.3318 -0.9232  1.0694
  814MOL0     H12314  -1.240   5.220  10.674 -0.0099  1.3702 -0.8214
  814MOL0     H12315  -1.261   5.292  10.434  1.3888 -0.7571 -1.9238
  814MOL0     H12316   0.082   5.714   8.983 -2.0123 -0.2375 -0.4976
  814MOL0     H12317   0.255   5.668   8.798  0.2092 -0.3190 -0.6414
  814MOL0     H12318   0.602   5.247   8.680 -1.2788 -3.0843 -3.0658
  814MOL0     H12319   0.746   5.189   8.497 -0.3108 -0.2141 -1.3704
  814MOL0     H12320   0.765   5.107   8.337 -2.0189  0.4759 -0.3310
  814MOL0     H12321   0.821   5.132   8.176  1.0412 -1.7245  0.6229
  814MOL0     H12322   0.948   5.291   8.411 -1.5726  2.0381 -1.8352
  814MOL0     H12323   1.010   5.276   8.250  0.2428  1.4752  1.5908
  814MOL0     H12324   1.116   5.134   8.432 -0.9460 -3.1721  3.1573
  814MOL0     H12325   0.984   5.026   8.420  0.5640 -0.0762 -0.2875
  814MOL0     H12326   1.191   4.972   8.285  0.7951 -0.1271 -0.5218
  814MOL0     H12327   1.149   5.098   8.166 -1.8563  1.6489 -0.5397
  814MOL0     H12328   0.867   4.824   8.043  1.0752 -3.0115  0.1614
  814MOL0     H12329   0.585   5.506   8.262  0.1646  0.3492  0.3821
  814MOL0     H12330   0.345   5.628   8.506 -0.6187 -1.1399 -0.6552
  814MOL0     H12331   0.456   5.696   8.402  3.2088 -1.4297  0.9050
  814MOL0     H12332   0.349   5.568   8.341  1.2862  0.9955 -1.2968
  815MOL0     O12333   4.351   4.490   8.826  0.4757  0.4683 -0.1934
  815MOL0     C12334   4.226   4.462   8.804 -0.5280 -0.0113  0.5116
  815MOL0     O12335   4.156   4.519   8.699 -0.5825 -0.6092 -0.3174
  815MOL0     C12336   4.224   4.614   8.628  0.8455  0.2581 -0.3464
  815MOL0     C12337   4.210   4.751   8.648  0.5409  0.1489  0.4066
  815MOL0     C12338   4.272   4.844   8.575  0.4268 -0.5416  0.0055
  815MOL0     C12339   4.352   4.805   8.468 -0.1777  0.0960  0.6365
  815MOL0     O12340   4.414   4.913   8.397  0.1049 -0.2090 -0.3900
  815MOL0     C12341   4.532   4.886   8.314  0.0736 -0.5883  0.1594
  815MOL0     C12342   4.581   5.023   8.254  0.7306 -0.3104 -0.7980
  815MOL0     C12343   4.491   5.099   8.156  0.3554 -0.5278 -0.8717
  815MOL0     C12344   4.554   5.127   8.015  0.0044 -1.1105  0.3609
  815MOL0     C12345   4.467   5.234   7.946 -0.1109  0.3593 -0.2762
  815MOL0     C12346   4.533   5.271   7.820 -1.5689 -0.9697 -0.6479
  815MOL0     C12347   4.619   5.171   7.743 -0.1679  0.4195  0.0005
  815MOL0     C12348   4.709   5.227   7.625  0.2146 -0.7877  0.4498
  815MOL0     N12349   4.810   5.316   7.684 -0.2029 -0.1639 -0.7615
  815MOL0     C12350   4.903   5.266   7.768  0.1111  0.2817  0.5495
  815MOL0     C12351   4.984   5.371   7.797 -0.1283 -0.3743 -1.1290
  815MOL0     C12352   5.109   5.375   7.888 -0.4052 -0.5414 -0.1657
  815MOL0     C12353   5.231   5.322   7.827 -0.5128 -0.6469 -0.3645
  815MOL0     C12354   5.273   5.387   7.694 -0.0549  0.0390 -0.4168
  815MOL0     C12355   5.424   5.368   7.644  1.1960  0.1341 -0.5092
  815MOL0     O12356   5.450   5.239   7.594  0.6231 -0.6152  0.4568
  815MOL0     C12357   5.577   5.200   7.561 -1.2066 -0.7174 -0.2032
  815MOL0     C12358   5.692   5.283   7.568  0.0412 -0.4871 -0.5571
  815MOL0     C12359   5.818   5.241   7.522  0.5372  0.8031  0.4257
  815MOL0     C12360   5.928   5.346   7.526 -0.3416 -0.6136 -0.8207
  815MOL0     C12361   5.831   5.111   7.468  0.5835 -0.4007  0.9492
  815MOL0     C12362   5.959   5.059   7.425  0.1257  0.4007  0.2956
  815MOL0     O12363   5.953   4.957   7.341  0.0262 -0.6405 -0.4339
  815MOL0     C12364   6.073   4.908   7.297 -0.5007  0.6124  0.5460
  815MOL0     C12365   6.091   4.891   7.160 -0.1824 -0.0721  0.9838
  815MOL0     C12366   6.204   4.837   7.102  0.5162 -0.1364  1.4490
  815MOL0     C12367   6.310   4.794   7.181  0.6013 -0.4175 -0.6261
  815MOL0     O12368   6.420   4.750   7.113 -0.4060  0.1255  0.2284
  815MOL0     C12369   6.555   4.767   7.176  0.2811 -0.8004 -0.3167
  815MOL0     C12370   6.639   4.679   7.080 -0.6477 -1.0869  0.0651
  815MOL0     C12371   6.663   4.764   6.952  0.2687 -0.0130 -0.1278
  815MOL0     C12372   6.715   4.695   6.826 -0.2704  1.1251  0.5219
  815MOL0     C12373   6.863   4.639   6.826 -1.0493 -0.0320 -0.1707
  815MOL0     C12374   6.875   4.494   6.771 -0.1162  0.5720 -1.3019
  815MOL0     C12375   7.016   4.430   6.812 -0.0276  0.0105  0.5051
  815MOL0     C12376   7.027   4.390   6.964 -0.2826  0.1963  1.3040
  815MOL0    Cl12377   6.870   4.309   7.005 -0.1969 -0.1968  0.0467
  815MOL0     C12378   6.287   4.806   7.321  0.8211 -0.6492  1.0118
  815MOL0     C12379   6.172   4.868   7.378  1.3557  0.0134  0.3746
  815MOL0     O12380   6.058   5.105   7.473 -0.7098  0.3685 -0.0304
  815MOL0     C12381   5.718   5.031   7.460 -0.2302 -0.6416  0.5624
  815MOL0     C12382   5.596   5.073   7.520 -1.2028 -0.6507  0.4196
  815MOL0     N12383   4.927   5.485   7.740  0.5126  0.8618 -0.1336
  815MOL0     N12384   4.832   5.450   7.658 -0.4171  0.3096 -0.2910
  815MOL0     C12385   4.384   4.671   8.450  0.0172 -0.3172 -0.8689
  815MOL0     C12386   4.311   4.575   8.526 -0.2413  0.7842  0.5205
  815MOL0     C12387   4.148   4.393   8.902  1.1919 -0.1014 -0.2164
  815MOL0     C12388   4.010   4.406   8.896  1.1339  0.1056 -0.7058
  815MOL0     C12389   3.918   4.350   8.982 -0.0513 -0.5586 -1.0333
  815MOL0     C12390   3.966   4.253   9.074  0.1794  0.2642 -0.1237
  815MOL0     O12391   3.885   4.179   9.167 -0.1961  0.1635  0.0904
  815MOL0     C12392   3.742   4.195   9.158 -0.0659  0.7673  0.4052
  815MOL0     C12393   3.667   4.114   9.268  0.0647  1.0468  0.0823
  815MOL0     C12394   3.523   4.106   9.226  1.1420  0.3277  0.3366
  815MOL0     C12395   3.436   4.026   9.325  0.2713 -0.0379 -0.2269
  815MOL0     C12396   3.405   4.101   9.448  0.9378 -1.3567  0.1192
  815MOL0     C12397   3.366   4.167   9.542  0.3675 -1.4342  0.2639
  815MOL0     C12398   4.097   4.242   9.090 -0.5128 -0.3599 -0.2497
  815MOL0     C12399   4.195   4.309   9.009 -0.1131  0.3389  0.0932
  815MOL0     C12400   4.348   4.286   9.041 -0.5730  0.7902 -0.1872
  815MOL0     H12401   4.149   4.793   8.727  2.0618  0.7675  1.2934
  815MOL0     H12402   4.255   4.950   8.591 -3.7081 -1.0780  0.1053
  815MOL0     H12403   4.526   4.820   8.227  3.9743 -2.1443  0.8616
  815MOL0     H12404   4.613   4.847   8.376  0.2290 -0.6500 -0.0800
  815MOL0     H12405   4.571   5.096   8.335 -0.1540  0.9322 -1.9760
  815MOL0     H12406   4.683   5.009   8.219  1.2981  0.8849  0.2930
  815MOL0     H12407   4.388   5.064   8.148  0.4503 -1.2963  0.8725
  815MOL0     H12408   4.470   5.199   8.195  1.9836  0.4963 -2.4488
  815MOL0     H12409   4.659   5.153   8.033 -0.0037 -1.0915  0.3822
  815MOL0     H12410   4.556   5.034   7.956 -0.4813 -2.6917  2.6862
  815MOL0     H12411   4.448   5.318   8.013  0.4603  0.1071  0.2126
  815MOL0     H12412   4.372   5.188   7.919  3.1593 -4.6177 -5.5584
  815MOL0     H12413   4.464   5.323   7.753 -0.9358 -1.3298 -1.5928
  815MOL0     H12414   4.603   5.350   7.851  2.0606 -3.9747 -0.4617
  815MOL0     H12415   4.550   5.100   7.696 -3.9403  0.8577  4.2125
  815MOL0     H12416   4.687   5.116   7.808 -2.7033 -0.9779  1.6160
  815MOL0     H12417   4.760   5.149   7.568  1.8085  0.9206 -0.5672
  815MOL0     H12418   4.638   5.276   7.558  0.2267  1.7933  2.1882
  815MOL0     H12419   4.934   5.166   7.797 -0.3157 -0.3102 -0.9378
  815MOL0     H12420   5.095   5.314   7.977 -1.0335 -2.3567 -1.4492
  815MOL0     H12421   5.119   5.482   7.910  1.2556 -0.9004  1.0184
  815MOL0     H12422   5.310   5.332   7.902  0.7624 -2.4020 -1.3823
  815MOL0     H12423   5.227   5.216   7.799 -1.9805 -0.8167  0.3879
  815MOL0     H12424   5.208   5.339   7.621 -0.5304 -1.9887  1.2585
  815MOL0     H12425   5.260   5.496   7.699 -1.3127 -0.1689  2.9276
  815MOL0     H12426   5.434   5.428   7.553  1.4979  0.9506  0.0468
  815MOL0     H12427   5.499   5.403   7.716  2.0228  0.8642 -1.6928
  815MOL0     H12428   5.688   5.381   7.615 -0.0401 -1.3320  1.2702
  815MOL0     H12429   5.983   5.337   7.432  0.1915 -0.4937 -0.5264
  815MOL0     H12430   6.003   5.347   7.606  1.3709  5.1093 -2.0047
  815MOL0     H12431   5.885   5.445   7.542  2.5471  0.3602  1.9787
  815MOL0     H12432   5.998   4.909   7.108  0.2127  2.0782  0.8938
  815MOL0     H12433   6.197   4.819   6.996 -0.2604 -0.8222  1.6002
  815MOL0     H12434   6.579   4.874   7.173 -4.2517  0.4086 -0.4697
  815MOL0     H12435   6.559   4.734   7.280  1.3226 -1.5001 -0.5568
  815MOL0     H12436   6.738   4.653   7.117  2.6523  2.6194 -4.8639
  815MOL0     H12437   6.602   4.576   7.072  1.3265 -2.0202  1.9016
  815MOL0     H12438   6.733   4.844   6.977 -1.3864  1.9021 -1.3225
  815MOL0     H12439   6.575   4.822   6.924  1.3423  1.6745 -0.1301
  815MOL0     H12440   6.722   4.775   6.752 -0.3871  0.5956 -0.0730
  815MOL0     H12441   6.639   4.626   6.787 -1.2635  3.4737 -1.9892
  815MOL0     H12442   6.931   4.708   6.775 -1.2417  1.4646  1.5130
  815MOL0     H12443   6.900   4.636   6.928  0.4743 -1.0399 -0.7126
  815MOL0     H12444   6.879   4.508   6.663 -0.1958  0.1762 -1.3571
  815MOL0     H12445   6.789   4.429   6.792  0.2374  1.0027  2.1308
  815MOL0     H12446   7.097   4.499   6.786 -0.1501  0.3355  0.9775
  815MOL0     H12447   7.026   4.336   6.756 -0.9468 -0.1357  0.5771
  815MOL0     H12448   7.025   4.481   7.025  1.7955  0.0364  1.6942
  815MOL0     H12449   7.115   4.329   6.985  1.5394  1.9292 -0.6720
  815MOL0     H12450   6.368   4.761   7.377  1.5292  0.0334  0.5725
  815MOL0     H12451   6.168   4.881   7.485 -0.5288  0.5235  0.2852
  815MOL0     H12452   5.717   4.935   7.410 -0.3756  0.0680 -0.8792
  815MOL0     H12453   5.505   5.016   7.502 -2.7136  1.6834  0.0910
  815MOL0     H12454   4.457   4.644   8.375  0.6069 -0.1996 -0.3449
  815MOL0     H12455   4.346   4.473   8.516  0.9038  0.9384  2.5035
  815MOL0     H12456   3.962   4.469   8.822  0.3465 -1.1064 -1.2640
  815MOL0     H12457   3.814   4.358   8.952  0.2554 -4.1195 -3.6827
  815MOL0     H12458   3.707   4.298   9.164  0.6506  1.0810 -0.5493
  815MOL0     H12459   3.720   4.170   9.054 -1.6663  2.5912  0.2463
  815MOL0     H12460   3.682   4.173   9.359  0.1441 -2.8313  2.8637
  815MOL0     H12461   3.722   4.019   9.275 -0.5571  0.6690 -0.1035
  815MOL0     H12462   3.483   4.206   9.211 -3.4354 -0.9788  2.0909
  815MOL0     H12463   3.516   4.052   9.130  1.7303  2.1381 -0.7591
  815MOL0     H12464   3.481   3.930   9.352 -1.6985 -2.3612 -4.2354
  815MOL0     H12465   3.342   3.994   9.278 -0.4442 -2.6826  2.6137
  815MOL0     H12466   3.313   4.212   9.623 -0.2730 -4.1236  1.4446
  815MOL0     H12467   4.133   4.175   9.168 -0.4803 -0.2209 -0.1450
  815MOL0     H12468   4.403   4.376   9.072 -0.5948  0.3443  1.2149
  815MOL0     H12469   4.368   4.208   9.115  0.4769  0.9396 -0.2901
  815MOL0     H12470   4.385   4.259   8.942 -1.4031  2.3180 -0.9538
  816MOL0     O12471   5.114   9.739  11.428 -0.2753 -0.0921 -1.0655
  816MOL0     C12472   5.139   9.845  11.365 -1.0992  0.3225 -0.0092
  816MOL0     O12473   5.266   9.883  11.325  0.0128  0.0059 -0.5569
  816MOL0     C12474   5.377   9.867  11.406 -0.5585 -0.3361 -0.4241
  816MOL0     C12475   5.374   9.894  11.543 -0.2199  0.7187 -0.7881
  816MOL0     C12476   5.494   9.900  11.611  0.4011 -0.0184  0.0006
  816MOL0     C12477   5.619   9.884  11.554 -0.0715 -0.5261  0.5759
  816MOL0     O12478   5.745   9.878  11.624 -0.1246 -0.3772  0.6459
  816MOL0     C12479   5.751   9.926  11.766 -0.3040  0.1521 -0.4663
  816MOL0     C12480   5.734  10.080  11.785  0.2284 -0.1483 -0.4559
  816MOL0     C12481   5.862  10.161  11.767  0.2768 -0.3968  1.2052
  816MOL0     C12482   5.836  10.310  11.806  0.7252  0.7430  0.6384
  816MOL0     C12483   5.974  10.381  11.779  0.6661  0.6426 -0.0850
  816MOL0     C12484   5.984  10.516  11.858  0.5279  0.6113 -0.3504
  816MOL0     C12485   6.116  10.575  11.848 -0.0224  0.3856  0.0921
  816MOL0     C12486   6.125  10.711  11.926 -0.4459  0.4716 -0.1832
  816MOL0     N12487   6.266  10.722  11.968  0.5365 -0.4030  1.2783
  816MOL0     C12488   6.307  10.711  12.096  1.0308  0.1633  0.4719
  816MOL0     C12489   6.439  10.707  12.084 -0.1932  0.2597 -0.5330
  816MOL0     C12490   6.534  10.686  12.193 -0.5524  0.3092  0.0612
  816MOL0     C12491   6.620  10.806  12.229 -0.3675 -0.3945 -0.0221
  816MOL0     C12492   6.543  10.885  12.323 -0.1896 -0.7939  0.6012
  816MOL0     C12493   6.596  10.869  12.473  0.0254  1.0559  0.0930
  816MOL0     O12494   6.530  10.957  12.561  0.2995  0.2738 -0.1832
  816MOL0     C12495   6.565  11.088  12.546  1.0287 -0.5417  0.2970
  816MOL0     C12496   6.468  11.160  12.613  0.0117  0.1447  0.1653
  816MOL0     C12497   6.473  11.299  12.609 -0.2286 -0.4183 -0.3387
  816MOL0     C12498   6.363  11.366  12.691  0.3095 -0.0598  1.6913
  816MOL0     C12499   6.576  11.372  12.551 -0.0206 -0.7708  0.1944
  816MOL0     C12500   6.576  11.526  12.544  0.5135  0.5853 -0.6635
  816MOL0     O12501   6.706  11.570  12.536  0.7994  0.5163 -0.0163
  816MOL0     C12502   6.741  11.693  12.493 -0.3169 -0.3760  0.6020
  816MOL0     C12503   6.710  11.731  12.365  0.5546 -0.1036 -0.3753
  816MOL0     C12504   6.749  11.861  12.320 -0.0476 -0.5640 -0.5673
  816MOL0     C12505   6.831  11.943  12.399  0.2889 -0.1588 -0.0377
  816MOL0     O12506   6.885  12.065  12.359 -0.5202  0.6831  0.5538
  816MOL0     C12507   6.910  12.085  12.213 -0.1828 -0.6649 -0.3641
  816MOL0     C12508   6.981  12.216  12.197 -0.7433  0.7583  1.0155
  816MOL0     C12509   7.015  12.231  12.043  0.2255 -0.3223  1.3767
  816MOL0     C12510   7.102  12.351  12.010 -0.0032 -0.2895 -0.2999
  816MOL0     C12511   7.048  12.486  12.056  0.3853 -0.3037  0.6464
  816MOL0     C12512   6.913  12.522  11.990 -0.6538 -0.1840 -0.4027
  816MOL0     C12513   6.867  12.666  12.023 -1.2148  0.7933 -0.0322
  816MOL0     C12514   6.941  12.768  11.948  0.1797 -0.0654  0.6337
  816MOL0    Cl12515   6.919  12.734  11.772 -0.0096  0.1193  0.6577
  816MOL0     C12516   6.860  11.908  12.529 -0.6887  0.4765 -0.7424
  816MOL0     C12517   6.811  11.783  12.579 -0.0506 -0.9834  0.1760
  816MOL0     O12518   6.474  11.598  12.525 -0.0273  0.7006  0.9826
  816MOL0     C12519   6.681  11.298  12.493  1.1383 -0.5706  1.1097
  816MOL0     C12520   6.667  11.152  12.477  0.1654 -0.2018 -0.0415
  816MOL0     N12521   6.475  10.727  11.953  0.1330  0.2108 -0.5249
  816MOL0     N12522   6.365  10.720  11.880  0.3801  0.3758  0.3434
  816MOL0     C12523   5.621   9.854  11.413 -0.2072  0.7259  0.2297
  816MOL0     C12524   5.503   9.859  11.340 -0.1079  0.0209  1.0088
  816MOL0     C12525   5.028   9.937  11.335  0.5119 -0.4918  0.0557
  816MOL0     C12526   5.057  10.072  11.301  0.2896  0.8062 -0.8117
  816MOL0     C12527   4.963  10.164  11.274  0.5552 -0.1090  0.4802
  816MOL0     C12528   4.829  10.136  11.279  0.8426  1.0184  0.0255
  816MOL0     O12529   4.742  10.233  11.229  0.0067 -0.2338 -0.7638
  816MOL0     C12530   4.597  10.206  11.211 -0.5197  0.4912  0.1014
  816MOL0     C12531   4.519  10.294  11.110 -1.3836 -0.4339  0.1724
  816MOL0     C12532   4.493  10.438  11.165 -0.1558  0.0863  0.6356
  816MOL0     C12533   4.511  10.547  11.072 -0.6856  0.7020  1.0543
  816MOL0     C12534   4.475  10.662  11.151 -0.0702  0.1269 -0.4660
  816MOL0     C12535   4.455  10.778  11.197  0.0599 -0.3204  0.2032
  816MOL0     C12536   4.791  10.002  11.313  0.5905 -0.5556 -0.2373
  816MOL0     C12537   4.888   9.895  11.335  0.5531 -1.2199  0.3619
  816MOL0     C12538   4.833   9.755  11.347 -0.1853  1.0814  0.7457
  816MOL0     H12539   5.275   9.913  11.582 -0.4590 -1.0362 -0.4533
  816MOL0     H12540   5.479   9.915  11.718 -1.7737 -1.3147 -0.0641
  816MOL0     H12541   5.851   9.911  11.808 -0.4354  0.9415  0.1493
  816MOL0     H12542   5.695   9.859  11.832  0.3400  0.4485  0.3893
  816MOL0     H12543   5.655  10.127  11.726 -1.7086  0.0623  2.1432
  816MOL0     H12544   5.702  10.100  11.888  0.4287 -0.5194 -0.3204
  816MOL0     H12545   5.947  10.118  11.821  0.3302 -2.8835 -0.6690
  816MOL0     H12546   5.888  10.155  11.661 -0.0556 -2.8683  1.1857
  816MOL0     H12547   5.750  10.358  11.759  0.8898  0.4027 -0.0150
  816MOL0     H12548   5.804  10.311  11.911  0.8355  3.5247  0.7287
  816MOL0     H12549   5.974  10.400  11.671 -2.3478  0.5341 -0.1670
  816MOL0     H12550   6.056  10.313  11.806 -1.3265 -0.9127  2.4909
  816MOL0     H12551   5.908  10.591  11.834 -2.2565 -1.1072  2.3679
  816MOL0     H12552   5.971  10.487  11.962  2.6340 -1.2750 -0.5435
  816MOL0     H12553   6.151  10.594  11.746 -1.4747  1.1918 -0.2865
  816MOL0     H12554   6.195  10.512  11.891  0.3262  2.3760  2.6192
  816MOL0     H12555   6.087  10.789  11.860 -2.4407 -0.6879 -0.4748
  816MOL0     H12556   6.068  10.712  12.019  0.4562  2.6840  0.4082
  816MOL0     H12557   6.238  10.690  12.177  0.1604  0.7785 -0.0951
  816MOL0     H12558   6.603  10.605  12.164  0.8552  1.7915 -0.9297
  816MOL0     H12559   6.482  10.649  12.282  0.6594 -0.6274  0.4068
  816MOL0     H12560   6.715  10.779  12.277  0.2920 -1.3782 -1.7738
  816MOL0     H12561   6.639  10.866  12.140  1.8490  0.5465  0.9979
  816MOL0     H12562   6.555  10.989  12.293  3.2104 -1.7123 -2.0179
  816MOL0     H12563   6.437  10.859  12.329 -0.5123  0.4227  0.3452
  816MOL0     H12564   6.575  10.767  12.506  3.3942 -1.5659 -4.6849
  816MOL0     H12565   6.705  10.873  12.479  0.2697  2.0265 -2.9831
  816MOL0     H12566   6.384  11.110  12.657 -1.0103  0.3404 -1.4644
  816MOL0     H12567   6.309  11.286  12.742  1.4554 -2.1700 -0.2185
  816MOL0     H12568   6.292  11.417  12.625 -0.2274 -2.0837  0.6323
  816MOL0     H12569   6.395  11.442  12.763 -0.1537  1.0283  0.7747
  816MOL0     H12570   6.650  11.656  12.315 -0.1258 -0.8603  1.4610
  816MOL0     H12571   6.708  11.892  12.224 -1.2737 -2.6763 -0.7896
  816MOL0     H12572   6.971  12.007  12.167 -1.6461 -1.4310 -1.0713
  816MOL0     H12573   6.813  12.091  12.163 -0.7405 -0.0091  0.7383
  816MOL0     H12574   6.915  12.297  12.228 -3.5099 -0.6044 -0.8488
  816MOL0     H12575   7.071  12.214  12.258  1.1298 -6.2322 -0.9691
  816MOL0     H12576   6.924  12.225  11.982  0.5848  0.7470  0.7119
  816MOL0     H12577   7.066  12.142  12.005  0.7870  1.1216 -1.4341
  816MOL0     H12578   7.131  12.360  11.905  2.4454  1.7991  0.4641
  816MOL0     H12579   7.189  12.347  12.076  1.7979  1.5300 -2.4043
  816MOL0     H12580   7.031  12.493  12.164 -2.9381  2.8366  0.1174
  816MOL0     H12581   7.127  12.558  12.034  2.9063 -2.3779  2.2959
  816MOL0     H12582   6.843  12.449  12.031  1.8358 -1.2692  2.2209
  816MOL0     H12583   6.902  12.511  11.881 -4.3068 -1.0732 -0.0561
  816MOL0     H12584   6.867  12.683  12.131 -0.9053 -0.9110  0.2576
  816MOL0     H12585   6.763  12.665  11.988 -0.4660 -0.9677 -2.4736
  816MOL0     H12586   7.048  12.773  11.970  1.1519 -3.8653 -2.3028
  816MOL0     H12587   6.883  12.860  11.958  1.3821  0.8389 -0.3653
  816MOL0     H12588   6.913  11.982  12.588  2.1580  0.1727 -2.6673
  816MOL0     H12589   6.833  11.750  12.680  0.6761  0.2747  0.4543
  816MOL0     H12590   6.758  11.351  12.438  0.3575 -0.9834 -0.4312
  816MOL0     H12591   6.741  11.102  12.415  0.6402  0.4315 -0.0052
  816MOL0     H12592   5.714   9.836  11.360 -1.5561 -0.2258 -1.9779
  816MOL0     H12593   5.510   9.848  11.232 -2.1906 -2.1343  1.0182
  816MOL0     H12594   5.159  10.105  11.310  1.1894 -2.1787  2.4075
  816MOL0     H12595   5.001  10.264  11.256  0.0561  0.3505  1.8791
  816MOL0     H12596   4.592  10.106  11.167 -1.2271  0.9407 -0.8987
  816MOL0     H12597   4.539  10.204  11.304  2.6966  3.9327  2.4671
  816MOL0     H12598   4.426  10.244  11.083 -1.6470  0.4672 -0.6655
  816MOL0     H12599   4.578  10.291  11.017 -0.3833  3.0800  0.5434
  816MOL0     H12600   4.388  10.446  11.196 -0.2763 -1.1553  0.5856
  816MOL0     H12601   4.563  10.458  11.247 -1.1001  0.9317  1.2633
  816MOL0     H12602   4.459  10.532  10.977  1.5728  1.0412 -0.3209
  816MOL0     H12603   4.618  10.546  11.047 -0.8344 -0.1228  0.4029
  816MOL0     H12604   4.472  10.878  11.234  1.6192 -0.2763 -0.5633
  816MOL0     H12605   4.685   9.979  11.306  0.1481  1.5763 -1.2405
  816MOL0     H12606   4.791   9.716  11.254  2.1735  0.6678 -0.2240
  816MOL0     H12607   4.896   9.672  11.383 -1.3286 -0.6970 -1.1367
  816MOL0     H12608   4.752   9.752  11.421 -0.9720 -3.2353 -0.0126
  817MOL0     O12609   7.448   8.094   1.322 -0.8258  0.1949 -0.6743
  817MOL0     C12610   7.432   8.137   1.440  1.1117 -0.2493 -0.6048
  817MOL0     O12611   7.452   8.266   1.484 -0.4952  0.2645 -0.2338
  817MOL0     C12612   7.485   8.369   1.401  0.2928 -0.8105  0.8932
  817MOL0     C12613   7.604   8.399   1.342 -0.0044  0.5582 -0.1299
  817MOL0     C12614   7.618   8.500   1.246  0.5331 -0.5826  0.6169
  817MOL0     C12615   7.503   8.562   1.194 -0.6778  0.0086 -0.4584
  817MOL0     O12616   7.521   8.653   1.088  0.5259  0.1392 -0.2158
  817MOL0     C12617   7.615   8.763   1.088 -0.4887 -0.4476  0.2893
  817MOL0     C12618   7.728   8.758   0.979  0.2885  0.2812 -0.6889
  817MOL0     C12619   7.802   8.891   0.974 -0.5923 -0.1027 -0.3849
  817MOL0     C12620   7.915   8.869   0.873 -0.4953  0.0857  0.8384
  817MOL0     C12621   7.966   9.007   0.818  0.0522 -0.5330 -0.4932
  817MOL0     C12622   7.865   9.117   0.769 -0.0321  0.1866 -0.0290
  817MOL0     C12623   7.812   9.104   0.623 -0.3727 -0.4565 -0.4857
  817MOL0     C12624   7.745   8.969   0.599 -1.1568 -0.7521 -0.5401
  817MOL0     N12625   7.684   8.959   0.469 -0.1810  0.2058  0.3597
  817MOL0     C12626   7.667   9.064   0.385 -0.1291  0.8640  0.7610
  817MOL0     C12627   7.571   9.027   0.288 -0.0799 -0.6734 -0.1287
  817MOL0     C12628   7.511   9.120   0.182 -0.7274 -0.3183  0.6399
  817MOL0     C12629   7.360   9.117   0.177  0.6577  0.4982 -0.5701
  817MOL0     C12630   7.301   9.224   0.092  0.0478 -0.2235  0.6817
  817MOL0     C12631   7.146   9.216   0.094 -0.0472 -0.6960 -0.1053
  817MOL0     O12632   7.106   9.341   0.039  0.5656  0.1240 -0.1228
  817MOL0     C12633   7.041   9.445   0.118  0.4366  0.0165  0.1714
  817MOL0     C12634   6.935   9.510   0.054  0.7096  0.8693 -0.2831
  817MOL0     C12635   6.850   9.606   0.121 -0.8424 -0.5141 -0.0108
  817MOL0     C12636   6.731   9.656   0.049 -0.5903  0.1145  0.0099
  817MOL0     C12637   6.879   9.637   0.256  1.1481 -0.0548  0.6836
  817MOL0     C12638   6.795   9.720   0.340  0.4012 -0.0700  0.5019
  817MOL0     O12639   6.823   9.723   0.478  0.2756 -0.2913 -0.3124
  817MOL0     C12640   6.736   9.788   0.566 -0.6249  0.2044 -0.6550
  817MOL0     C12641   6.793   9.834   0.683  0.4690  0.3433  0.7343
  817MOL0     C12642   6.714   9.871   0.790 -0.0859  0.4521  0.3733
  817MOL0     C12643   6.580   9.871   0.774 -0.3012  0.8505  0.5512
  817MOL0     O12644   6.517   9.918   0.884  0.2801 -1.0904  0.1943
  817MOL0     C12645   6.384   9.874   0.929  0.3713  0.1141  0.3737
  817MOL0     C12646   6.337   9.949   1.054 -0.4978  0.4740 -0.3533
  817MOL0     C12647   6.213   9.885   1.099 -0.1241 -0.9557 -0.3397
  817MOL0     C12648   6.156   9.972   1.215  0.9234 -0.3613 -0.2138
  817MOL0     C12649   6.032   9.902   1.290 -0.7584  0.3069 -0.1861
  817MOL0     C12650   6.052   9.760   1.336  0.8047  0.0600 -0.2853
  817MOL0     C12651   5.940   9.708   1.430 -0.8597 -0.5879  0.5772
  817MOL0     C12652   5.796   9.746   1.389  0.0584  1.2209  0.5306
  817MOL0    Cl12653   5.762   9.709   1.220  0.1200  0.3766  0.2227
  817MOL0     C12654   6.515   9.818   0.664  0.8240  0.1975  1.1949
  817MOL0     C12655   6.599   9.772   0.566  0.8823 -0.4917  1.3492
  817MOL0     O12656   6.714   9.801   0.285 -0.0635  1.0810  0.2287
  817MOL0     C12657   6.996   9.582   0.308 -0.3520  0.6535 -0.2500
  817MOL0     C12658   7.067   9.482   0.251 -0.0900 -0.2442 -0.6641
  817MOL0     N12659   7.543   8.895   0.320 -0.3015 -0.5833  0.6184
  817MOL0     N12660   7.601   8.856   0.432 -0.4722  0.0136 -0.3531
  817MOL0     C12661   7.389   8.542   1.262  0.2160 -0.7112 -0.6329
  817MOL0     C12662   7.376   8.450   1.363 -0.1460  0.5876 -0.3010
  817MOL0     C12663   7.417   8.025   1.542  0.6263 -0.0311  0.3527
  817MOL0     C12664   7.488   8.051   1.658  0.8568 -1.1127 -0.2649
  817MOL0     C12665   7.470   7.965   1.769 -0.4565 -0.1943  0.2730
  817MOL0     C12666   7.410   7.840   1.764  0.1569 -0.9862 -0.4986
  817MOL0     O12667   7.418   7.748   1.867  1.2871 -0.0847  0.1827
  817MOL0     C12668   7.543   7.746   1.935  0.0946 -1.0044  0.7079
  817MOL0     C12669   7.594   7.604   1.956  1.2147  0.9137  0.5733
  817MOL0     C12670   7.745   7.592   1.976 -0.2573  0.3963 -0.8802
  817MOL0     C12671   7.802   7.624   2.116  0.3382  0.2215  0.1889
  817MOL0     C12672   7.766   7.758   2.163 -0.8613  1.1955 -0.9107
  817MOL0     C12673   7.738   7.864   2.218 -0.4454 -0.6633  0.0935
  817MOL0     C12674   7.355   7.807   1.633 -0.4964 -0.0653 -0.4410
  817MOL0     C12675   7.344   7.902   1.528  0.2816 -0.5915 -0.4426
  817MOL0     C12676   7.266   7.864   1.405 -0.0083  0.1527 -0.4554
  817MOL0     H12677   7.690   8.334   1.357  0.5916  0.4834 -3.3123
  817MOL0     H12678   7.712   8.513   1.194  0.0222  0.4419 -0.0903
  817MOL0     H12679   7.671   8.768   1.182 -1.5816 -0.9792  0.9851
  817MOL0     H12680   7.564   8.857   1.069  2.2781  1.9026  3.3491
  817MOL0     H12681   7.799   8.675   0.993 -0.5177 -1.1839 -4.2039
  817MOL0     H12682   7.683   8.747   0.881 -0.3679  2.1761 -0.6286
  817MOL0     H12683   7.740   8.952   0.908 -0.4724 -0.5946 -0.9703
  817MOL0     H12684   7.846   8.944   1.059 -0.9108  1.1196 -0.9598
  817MOL0     H12685   8.002   8.823   0.921  0.1903  0.1747 -0.2967
  817MOL0     H12686   7.887   8.808   0.787 -1.2212 -1.3258  2.0185
  817MOL0     H12687   8.028   8.992   0.730 -0.2504  3.2344 -1.4848
  817MOL0     H12688   8.034   9.063   0.883 -2.0102  2.1691 -0.4926
  817MOL0     H12689   7.798   9.146   0.851  1.2609 -1.9122  1.8902
  817MOL0     H12690   7.933   9.201   0.759 -0.7634  1.0828  1.8997
  817MOL0     H12691   7.892   9.120   0.550 -1.3292  1.6075 -1.1731
  817MOL0     H12692   7.747   9.192   0.617  2.5472  1.9113  0.3137
  817MOL0     H12693   7.822   8.893   0.616  0.8426  1.1735 -0.5045
  817MOL0     H12694   7.666   8.957   0.674 -0.9311 -0.8879 -0.3256
  817MOL0     H12695   7.715   9.161   0.392  0.1157  0.8038  0.0564
  817MOL0     H12696   7.549   9.099   0.081  1.5788 -2.6402  1.8613
  817MOL0     H12697   7.536   9.220   0.219 -3.3037 -0.0588  1.9485
  817MOL0     H12698   7.337   9.025   0.123  1.8893 -0.1454 -0.0254
  817MOL0     H12699   7.323   9.121   0.280  1.0619  1.0048 -0.4392
  817MOL0     H12700   7.324   9.317   0.143 -3.3944  0.4286  1.2918
  817MOL0     H12701   7.346   9.230  -0.008  2.8545  0.9343  1.9121
  817MOL0     H12702   7.102   9.140   0.029 -1.4774  2.8205 -3.6590
  817MOL0     H12703   7.110   9.193   0.195  0.8756 -3.5902 -0.3514
  817MOL0     H12704   6.937   9.495  -0.053 -0.1996 -3.1828  0.1259
  817MOL0     H12705   6.705   9.583  -0.028  1.8807 -1.3737  0.4833
  817MOL0     H12706   6.751   9.755   0.006  0.4391  0.0619  0.3463
  817MOL0     H12707   6.645   9.659   0.116 -0.2012  0.5410  0.4959
  817MOL0     H12708   6.901   9.825   0.688  0.5527  1.1310  0.5121
  817MOL0     H12709   6.761   9.907   0.881 -1.5077  0.7257  1.0158
  817MOL0     H12710   6.318   9.891   0.843 -1.0398 -1.1854  1.1704
  817MOL0     H12711   6.393   9.769   0.956  0.0720  0.4220  1.7145
  817MOL0     H12712   6.416   9.933   1.128  1.1046  0.5772 -1.9520
  817MOL0     H12713   6.331  10.057   1.041 -0.7364  0.9629  3.1104
  817MOL0     H12714   6.237   9.785   1.137  2.9130 -1.3215 -2.7365
  817MOL0     H12715   6.146   9.880   1.012  0.2067 -2.2116 -0.5494
  817MOL0     H12716   6.129  10.078   1.202  0.4914 -0.3651  0.5818
  817MOL0     H12717   6.238   9.971   1.287 -1.2122 -1.6290  2.3791
  817MOL0     H12718   6.009   9.969   1.373 -3.6943 -2.6617  1.6415
  817MOL0     H12719   5.946   9.893   1.223 -2.1446  2.8133  1.1032
  817MOL0     H12720   6.144   9.758   1.396 -0.6577 -0.3200  2.0624
  817MOL0     H12721   6.056   9.687   1.255 -0.7409 -0.0120 -0.3141
  817MOL0     H12722   5.964   9.736   1.533  0.5939  1.1262 -0.1670
  817MOL0     H12723   5.933   9.599   1.419 -0.6678 -0.4284 -1.3723
  817MOL0     H12724   5.781   9.854   1.390 -2.4104  1.2325 -4.6132
  817MOL0     H12725   5.726   9.691   1.453  0.8384 -0.3183  0.1009
  817MOL0     H12726   6.407   9.827   0.659  0.4100 -3.6890 -1.1523
  817MOL0     H12727   6.550   9.716   0.487  2.8390 -0.7183  0.2473
  817MOL0     H12728   7.023   9.590   0.413  1.7536 -1.2627 -0.5528
  817MOL0     H12729   7.151   9.444   0.309  1.0710  3.3793  0.3211
  817MOL0     H12730   7.300   8.584   1.217 -1.0188  0.7208  2.8320
  817MOL0     H12731   7.286   8.435   1.422  0.0475  1.2464  0.1639
  817MOL0     H12732   7.555   8.135   1.675  0.8041 -1.4917  2.1867
  817MOL0     H12733   7.508   7.999   1.865 -2.2206 -0.6314  1.1887
  817MOL0     H12734   7.613   7.808   1.878  0.2804 -0.6203  1.3478
  817MOL0     H12735   7.534   7.790   2.035  1.4356  0.9144  0.0383
  817MOL0     H12736   7.562   7.545   1.870  2.3340  0.8540  0.1794
  817MOL0     H12737   7.530   7.557   2.031  0.5331 -1.1741 -1.1924
  817MOL0     H12738   7.786   7.496   1.944  1.3986  1.3447 -1.7593
  817MOL0     H12739   7.795   7.665   1.912 -1.5318  2.4540  0.3493
  817MOL0     H12740   7.911   7.627   2.123  0.3778  0.2515 -0.3745
  817MOL0     H12741   7.764   7.550   2.187  6.6515 -0.8903  3.0948
  817MOL0     H12742   7.748   7.960   2.264  3.4967  0.1550 -2.0312
  817MOL0     H12743   7.308   7.710   1.620 -2.5986  1.0089 -1.3722
  817MOL0     H12744   7.259   7.755   1.408  0.1152  0.1577  0.9201
  817MOL0     H12745   7.166   7.908   1.400 -0.5226 -1.0779 -1.3976
  817MOL0     H12746   7.314   7.890   1.310 -1.0819  0.3503 -0.9585
  818MOL0     O12747   6.958   8.883   0.755 -0.4866 -0.1610  0.7426
  818MOL0     C12748   6.935   8.770   0.720 -0.6693  1.1429 -0.4379
  818MOL0     O12749   6.817   8.723   0.674  0.2618  0.5452 -0.3102
  818MOL0     C12750   6.698   8.801   0.686 -0.8559 -0.4902 -0.9629
  818MOL0     C12751   6.578   8.742   0.703  0.9895  0.2061 -0.2822
  818MOL0     C12752   6.449   8.800   0.688 -1.0464 -1.0011 -0.4260
  818MOL0     C12753   6.440   8.924   0.638 -0.5158  0.3596 -0.7126
  818MOL0     O12754   6.320   8.973   0.613 -0.0927 -0.0207 -0.4651
  818MOL0     C12755   6.282   9.110   0.659 -0.5699  0.1929  0.0296
  818MOL0     C12756   6.126   9.115   0.648 -0.4498  0.5185  0.0862
  818MOL0     C12757   6.060   9.075   0.786  0.1716 -0.3210  0.4447
  818MOL0     C12758   5.910   9.063   0.761 -0.2344  0.0817  0.6344
  818MOL0     C12759   5.845   8.959   0.843  0.6368 -0.4190 -0.3208
  818MOL0     C12760   5.691   8.974   0.838  0.0556  0.9121 -0.0168
  818MOL0     C12761   5.628   8.975   0.690 -0.4930 -0.0641 -1.3940
  818MOL0     C12762   5.490   8.916   0.686  0.6344 -0.5861  0.2367
  818MOL0     N12763   5.442   8.915   0.545 -0.3464  0.9720  0.0358
  818MOL0     C12764   5.391   9.018   0.474 -0.1735 -1.2001  0.1357
  818MOL0     C12765   5.329   8.962   0.363  0.9775  0.9236 -0.9108
  818MOL0     C12766   5.249   9.026   0.243 -0.3606 -0.0723 -0.7463
  818MOL0     C12767   5.154   9.139   0.290 -0.0808 -0.0257  0.5180
  818MOL0     C12768   5.092   9.234   0.188 -0.0863 -1.0853  0.9264
  818MOL0     C12769   5.035   9.157   0.067  0.3707 -0.3870 -0.1025
  818MOL0     O12770   4.973   9.246  -0.028  0.2757 -0.4522 -0.5133
  818MOL0     C12771   5.015   9.237  -0.157 -0.2046 -0.5092 -1.0819
  818MOL0     C12772   5.047   9.357  -0.222  0.3600  0.8179 -0.1412
  818MOL0     C12773   5.094   9.363  -0.354 -0.3577 -0.4814  0.7644
  818MOL0     C12774   5.142   9.489  -0.411  0.2028 -0.2865 -0.1746
  818MOL0     C12775   5.106   9.236  -0.426 -0.0334  0.1974 -0.4577
  818MOL0     C12776   5.138   9.216  -0.577  0.6577 -0.0386 -0.0638
  818MOL0     O12777   5.125   9.090  -0.633  0.6616  0.0903  0.2587
  818MOL0     C12778   5.098   9.074  -0.765 -0.3395  0.1384  0.2724
  818MOL0     C12779   5.163   9.155  -0.868  0.9553  0.1236 -0.4641
  818MOL0     C12780   5.114   9.130  -1.003 -0.3372  1.0114  0.5394
  818MOL0     C12781   5.013   9.034  -1.031 -0.4882 -0.1280 -0.3476
  818MOL0     O12782   4.970   9.009  -1.161  0.3363  0.0864  0.1125
  818MOL0     C12783   4.830   8.974  -1.178  0.6808  0.8774 -0.0725
  818MOL0     C12784   4.731   9.082  -1.135  0.4257 -0.5660 -0.1398
  818MOL0     C12785   4.585   9.035  -1.085  0.4781 -0.2959  0.2182
  818MOL0     C12786   4.608   8.962  -0.941 -0.1471  0.5022  0.2230
  818MOL0     C12787   4.467   8.961  -0.865  0.9166  0.3614  0.2105
  818MOL0     C12788   4.358   8.852  -0.905  1.1293  0.2139  0.1812
  818MOL0     C12789   4.246   8.869  -0.803  0.7152  0.8622 -0.1963
  818MOL0     C12790   4.103   8.832  -0.844  0.0129  0.0115  0.4067
  818MOL0    Cl12791   4.108   8.652  -0.853  0.0414  0.4144  0.3011
  818MOL0     C12792   4.954   8.967  -0.917 -0.0533 -0.2681 -1.5815
  818MOL0     C12793   4.993   8.987  -0.785 -0.7212 -0.1057 -0.0881
  818MOL0     O12794   5.160   9.317  -0.642 -0.1057 -0.9138  0.4707
  818MOL0     C12795   5.063   9.119  -0.363 -0.6986 -0.2512 -0.3342
  818MOL0     C12796   5.011   9.116  -0.233 -0.9480 -0.9390 -0.0100
  818MOL0     N12797   5.343   8.823   0.372 -0.2604 -0.3375 -0.0351
  818MOL0     N12798   5.416   8.803   0.472  0.3501  1.1197 -0.0750
  818MOL0     C12799   6.566   8.994   0.624 -0.0417 -0.2822  0.3545
  818MOL0     C12800   6.689   8.941   0.650 -0.9943  0.6001  0.4414
  818MOL0     C12801   7.046   8.670   0.732 -0.8594 -0.2730  0.7509
  818MOL0     C12802   7.028   8.555   0.659 -0.6963  0.3915 -0.3344
  818MOL0     C12803   7.113   8.449   0.674  0.2571 -0.4479 -0.1208
  818MOL0     C12804   7.235   8.478   0.729 -0.9793  0.0222  0.0345
  818MOL0     O12805   7.338   8.383   0.735 -0.5085  0.0390 -0.2157
  818MOL0     C12806   7.331   8.299   0.849 -0.1104 -0.4418 -0.1005
  818MOL0     C12807   7.478   8.272   0.881 -0.9782  0.0678  0.4196
  818MOL0     C12808   7.485   8.201   1.019 -1.1779  0.2161  1.3843
  818MOL0     C12809   7.635   8.154   1.027 -0.8050 -0.3552  0.3670
  818MOL0     C12810   7.736   8.261   1.019 -0.3250 -0.2240  0.6078
  818MOL0     C12811   7.816   8.349   1.004 -0.5183  0.7602 -0.2570
  818MOL0     C12812   7.273   8.596   0.772 -0.2555 -0.5894  0.0694
  818MOL0     C12813   7.182   8.704   0.782  0.2027 -0.3427 -1.7638
  818MOL0     C12814   7.219   8.839   0.832  0.1063 -0.4468 -0.1816
  818MOL0     H12815   6.584   8.635   0.719 -2.4360 -0.2454 -1.2799
  818MOL0     H12816   6.359   8.746   0.716 -2.1122  1.8702  2.2724
  818MOL0     H12817   6.324   9.197   0.607 -0.9313  0.7568  0.6630
  818MOL0     H12818   6.320   9.120   0.761  0.7836  0.9469 -0.5198
  818MOL0     H12819   6.104   9.220   0.629  0.9934  0.8176 -0.0319
  818MOL0     H12820   6.095   9.059   0.560 -0.1582  1.0287 -0.3443
  818MOL0     H12821   6.094   8.980   0.829 -3.0478 -0.0701  4.0814
  818MOL0     H12822   6.062   9.151   0.865 -0.3549 -2.9092  3.1376
  818MOL0     H12823   5.864   9.160   0.784 -2.0092 -1.0269  1.9048
  818MOL0     H12824   5.892   9.044   0.655 -0.3321  0.1915  0.6300
  818MOL0     H12825   5.870   8.967   0.949  0.5588 -2.6080 -0.1030
  818MOL0     H12826   5.880   8.861   0.811  0.2837 -0.5477 -0.3244
  818MOL0     H12827   5.657   8.880   0.884 -2.1710  0.8548 -1.5891
  818MOL0     H12828   5.657   9.058   0.899  1.2679  1.9601 -0.7534
  818MOL0     H12829   5.689   8.924   0.615 -0.1999 -0.6532 -0.7700
  818MOL0     H12830   5.605   9.080   0.670 -1.8934  0.0769  0.6850
  818MOL0     H12831   5.490   8.814   0.727 -3.4458 -1.6322 -1.7844
  818MOL0     H12832   5.423   8.982   0.742  0.2261 -1.5865  0.9760
  818MOL0     H12833   5.403   9.119   0.512  3.1911  0.0888 -3.6864
  818MOL0     H12834   5.201   8.943   0.189 -0.2215  0.5912 -1.9133
  818MOL0     H12835   5.332   9.057   0.180  2.1567  2.3419  3.2673
  818MOL0     H12836   5.075   9.087   0.345  0.4275 -2.0056 -0.5660
  818MOL0     H12837   5.207   9.205   0.360 -0.9776  1.6894 -0.3536
  818MOL0     H12838   5.012   9.292   0.237  0.8692 -1.1314  2.6456
  818MOL0     H12839   5.168   9.303   0.149 -1.4616 -0.8518 -1.5216
  818MOL0     H12840   5.119   9.105   0.019  0.8198  1.0319 -0.9181
  818MOL0     H12841   4.965   9.084   0.108  0.9242 -1.5100 -1.0758
  818MOL0     H12842   5.027   9.436  -0.151 -0.9220 -0.1059  0.5731
  818MOL0     H12843   5.148   9.580  -0.351  3.0034  0.5046 -1.4994
  818MOL0     H12844   5.073   9.511  -0.493  0.2509 -1.9160 -0.6953
  818MOL0     H12845   5.244   9.475  -0.449  1.0694 -2.2529  2.5695
  818MOL0     H12846   5.246   9.222  -0.849  1.4295 -0.1240 -1.5852
  818MOL0     H12847   5.153   9.192  -1.083  1.9849  0.1679  0.9523
  818MOL0     H12848   4.815   8.961  -1.285 -1.1373 -1.9636  0.4213
  818MOL0     H12849   4.810   8.877  -1.133 -2.5875  0.2894 -2.4056
  818MOL0     H12850   4.771   9.147  -1.056  0.0964  0.3737 -0.7357
  818MOL0     H12851   4.715   9.140  -1.226  1.6490 -1.5521 -1.0149
  818MOL0     H12852   4.546   8.966  -1.160 -0.7467  0.8999 -0.2933
  818MOL0     H12853   4.513   9.118  -1.084  1.4145  0.5859 -1.3113
  818MOL0     H12854   4.685   9.014  -0.884  1.4363 -1.6515  0.1491
  818MOL0     H12855   4.645   8.861  -0.962 -0.1611  0.3319  0.9936
  818MOL0     H12856   4.486   8.936  -0.760 -0.5911 -0.0184  0.4103
  818MOL0     H12857   4.425   9.061  -0.861 -0.4951 -0.1514 -0.9221
  818MOL0     H12858   4.404   8.753  -0.905 -0.5758 -0.6665 -1.7399
  818MOL0     H12859   4.326   8.878  -1.007 -1.6098  1.9580  1.3598
  818MOL0     H12860   4.237   8.977  -0.786 -1.9368  0.7996 -0.6677
  818MOL0     H12861   4.267   8.817  -0.709  1.6894  2.7488  0.6771
  818MOL0     H12862   4.079   8.869  -0.944 -0.9768 -2.2284 -0.2658
  818MOL0     H12863   4.025   8.863  -0.773 -0.8339 -3.2370  1.0736
  818MOL0     H12864   4.875   8.894  -0.930 -0.4328 -0.0722 -0.5003
  818MOL0     H12865   4.964   8.921  -0.704 -2.2273  1.0860  0.3956
  818MOL0     H12866   5.066   9.025  -0.418 -0.8341  0.4896 -1.6251
  818MOL0     H12867   4.979   9.021  -0.192  0.3527 -0.8198  1.3724
  818MOL0     H12868   6.581   9.095   0.586  1.8223 -1.2724 -1.7550
  818MOL0     H12869   6.782   8.991   0.623  0.5489 -2.0090  0.5573
  818MOL0     H12870   6.942   8.552   0.593 -1.1364 -0.5610  0.2560
  818MOL0     H12871   7.104   8.354   0.624 -2.7890 -0.0292 -0.5666
  818MOL0     H12872   7.274   8.346   0.930 -1.3673  2.1109 -2.3057
  818MOL0     H12873   7.284   8.207   0.814  0.6039  0.1006 -2.6718
  818MOL0     H12874   7.533   8.366   0.891 -0.1724  0.0941 -3.0469
  818MOL0     H12875   7.534   8.227   0.799  1.4938  1.5909  1.1577
  818MOL0     H12876   7.468   8.276   1.097 -3.4469  4.6565 -2.8795
  818MOL0     H12877   7.419   8.113   1.016 -1.7882  0.6554 -2.5457
  818MOL0     H12878   7.646   8.095   0.935  2.4625 -0.7289  0.8848
  818MOL0     H12879   7.668   8.091   1.110  0.5342  0.2703  0.3329
  818MOL0     H12880   7.871   8.440   0.991  1.2342 -0.1815  0.1533
  818MOL0     H12881   7.376   8.589   0.806 -0.9135  0.1662  2.3946
  818MOL0     H12882   7.158   8.883   0.911  2.1259 -2.4140  2.6347
  818MOL0     H12883   7.315   8.844   0.884 -1.6513  0.8110  3.2041
  818MOL0     H12884   7.221   8.906   0.745  1.7300 -0.5279 -0.2320
  819MOL0     O12885   3.569  10.929  10.283  0.1743 -0.9163  0.1321
  819MOL0     C12886   3.562  10.856  10.380 -0.3337 -0.5875  0.3298
  819MOL0     O12887   3.649  10.762  10.410  0.8247  0.7787 -0.5153
  819MOL0     C12888   3.730  10.716  10.304 -0.7216 -0.3285 -0.4060
  819MOL0     C12889   3.735  10.574  10.293  0.3483  0.7528 -0.0122
  819MOL0     C12890   3.824  10.519  10.201 -0.2493  0.9384  0.8721
  819MOL0     C12891   3.910  10.594  10.127 -0.0189 -0.1579  0.1563
  819MOL0     O12892   3.998  10.525  10.054 -0.3227 -0.3073  0.5653
  819MOL0     C12893   4.128  10.586  10.044  0.3428 -1.1173 -0.0437
  819MOL0     C12894   4.214  10.495   9.956 -0.0271 -0.6077  0.0061
  819MOL0     C12895   4.211  10.351   9.985 -0.5503  0.2238 -0.7892
  819MOL0     C12896   4.123  10.276   9.874  0.0498  1.1704 -0.0873
  819MOL0     C12897   4.071  10.132   9.921 -0.1779 -0.3945  0.5235
  819MOL0     C12898   4.001  10.121  10.061 -0.0826  0.1837  0.1207
  819MOL0     C12899   3.936   9.993  10.093 -0.0886  0.7059 -0.4318
  819MOL0     C12900   4.038   9.875  10.060  0.4618  0.0214  0.1012
  819MOL0     N12901   3.976   9.740  10.083 -0.2508 -0.0141  0.7849
  819MOL0     C12902   3.995   9.659  10.181  0.9700  0.5295  0.6172
  819MOL0     C12903   3.895   9.569  10.184 -0.8019 -0.6878 -0.1233
  819MOL0     C12904   3.848   9.495  10.302 -0.9391 -0.0792 -0.1107
  819MOL0     C12905   3.804   9.359  10.266  0.9813  0.1673  0.1524
  819MOL0     C12906   3.758   9.284  10.388  0.9767 -0.5122  0.8218
  819MOL0     C12907   3.654   9.185  10.348 -0.1060  0.7325  0.4576
  819MOL0     O12908   3.538   9.257  10.304  0.3001 -0.5363 -0.4571
  819MOL0     C12909   3.417   9.214  10.360 -0.1089 -0.1060  0.2001
  819MOL0     C12910   3.386   9.072  10.409  0.0064 -0.9923  1.0908
  819MOL0     C12911   3.258   9.048  10.469  0.6397  0.3160 -0.4157
  819MOL0     C12912   3.220   8.908  10.514  0.0005 -0.7658  1.1887
  819MOL0     C12913   3.162   9.153  10.489 -0.4798 -0.1970  0.1316
  819MOL0     C12914   3.016   9.133  10.539 -1.1428  0.3006 -0.5922
  819MOL0     O12915   2.958   9.255  10.572  0.0193 -0.3617 -0.1127
  819MOL0     C12916   2.874   9.226  10.676 -1.0084 -0.9733  0.1465
  819MOL0     C12917   2.912   9.234  10.810  0.3854 -0.6535 -0.0093
  819MOL0     C12918   2.821   9.218  10.908  0.2137 -0.4703 -0.2646
  819MOL0     C12919   2.690   9.185  10.879  0.2124  0.5633 -0.2116
  819MOL0     O12920   2.613   9.160  10.988  0.1431 -0.1601  0.3076
  819MOL0     C12921   2.465   9.191  10.986  0.0006 -0.3604  0.2615
  819MOL0     C12922   2.445   9.339  10.957 -0.9247 -0.1193  1.0415
  819MOL0     C12923   2.478   9.430  11.076 -0.7575 -0.0971  0.4362
  819MOL0     C12924   2.398   9.400  11.196 -0.3581 -0.1526  0.1833
  819MOL0     C12925   2.425   9.517  11.300 -0.8854 -0.0041 -0.1169
  819MOL0     C12926   2.560   9.501  11.369 -0.4795 -0.4132 -0.3216
  819MOL0     C12927   2.571   9.592  11.498  0.3711  0.5048 -0.3465
  819MOL0     C12928   2.494   9.545  11.618  1.0174  0.7499 -0.0374
  819MOL0    Cl12929   2.540   9.391  11.667 -0.1741  0.3313  0.0606
  819MOL0     C12930   2.649   9.164  10.749  0.6209 -0.2676 -0.3282
  819MOL0     C12931   2.740   9.187  10.645  0.0622  0.5326 -0.8642
  819MOL0     O12932   2.957   9.022  10.511 -0.2874  0.0437  0.0829
  819MOL0     C12933   3.201   9.286  10.455 -0.3338 -0.0090  0.9822
  819MOL0     C12934   3.329   9.316  10.401 -0.4232  1.2259  0.2822
  819MOL0     N12935   3.822   9.594  10.072  0.2475 -0.0263 -0.5439
  819MOL0     N12936   3.867   9.700  10.014  0.6207 -0.0595  0.6058
  819MOL0     C12937   3.910  10.735  10.144  0.6378  0.3564  0.1040
  819MOL0     C12938   3.818  10.796  10.226  0.3902 -0.7116 -0.3035
  819MOL0     C12939   3.448  10.872  10.467  0.4435 -0.7202  0.6365
  819MOL0     C12940   3.395  11.005  10.464  1.1881  0.8177  0.4001
  819MOL0     C12941   3.281  11.033  10.539  0.8222  0.7445 -0.1771
  819MOL0     C12942   3.229  10.930  10.628  0.2605  0.2410 -0.0865
  819MOL0     O12943   3.110  10.960  10.696  0.0061  0.6915 -0.0879
  819MOL0     C12944   3.125  11.011  10.831 -0.2431 -1.3403  0.8866
  819MOL0     C12945   3.141  10.909  10.940  0.1842 -0.0344  0.2190
  819MOL0     C12946   3.120  10.946  11.100  0.0121 -0.1478 -0.2775
  819MOL0     C12947   3.245  11.005  11.172  0.2150 -0.0730  0.0052
  819MOL0     C12948   3.325  11.098  11.087  0.5253  0.0929  0.1811
  819MOL0     C12949   3.393  11.172  11.024  0.3689 -0.1314  0.5870
  819MOL0     C12950   3.286  10.805  10.629  0.2418  0.3417 -0.1636
  819MOL0     C12951   3.397  10.774  10.552 -0.0173 -0.0537  0.3545
  819MOL0     C12952   3.445  10.629  10.537  0.0848  0.7380 -0.0617
  819MOL0     H12953   3.669  10.518  10.359  1.1967 -2.1163 -1.4148
  819MOL0     H12954   3.824  10.411  10.189 -0.3765  0.8936  1.2802
  819MOL0     H12955   4.166  10.593  10.147 -1.3154  0.6855  0.5031
  819MOL0     H12956   4.124  10.674   9.980 -0.8969 -0.3248  1.0773
  819MOL0     H12957   4.189  10.517   9.852  1.6867  1.4270 -0.0426
  819MOL0     H12958   4.320  10.521   9.962 -0.4072  0.7001  3.9204
  819MOL0     H12959   4.312  10.316  10.005  0.4970  2.2513 -2.1962
  819MOL0     H12960   4.156  10.338  10.079 -0.7893  1.6040 -0.7255
  819MOL0     H12961   4.030  10.328   9.851 -1.5340 -1.1206  0.8308
  819MOL0     H12962   4.183  10.251   9.786 -2.4072 -2.1654 -1.0332
  819MOL0     H12963   4.157  10.065   9.928 -1.2439 -2.0475 -1.1788
  819MOL0     H12964   4.007  10.102   9.838 -1.7088  5.5021 -0.8557
  819MOL0     H12965   4.084  10.132  10.131 -0.2355 -0.2189  0.3700
  819MOL0     H12966   3.936  10.208  10.077 -0.6058 -0.1166 -0.3264
  819MOL0     H12967   3.839   9.973  10.045 -0.7618  1.3215  0.6172
  819MOL0     H12968   3.908   9.979  10.198 -1.0607 -0.5407 -0.8258
  819MOL0     H12969   4.070   9.877   9.956 -0.7286 -1.8834 -0.3522
  819MOL0     H12970   4.122   9.877  10.131 -0.0383  0.6324  0.6884
  819MOL0     H12971   4.073   9.677  10.255 -0.9172  1.5421  2.4471
  819MOL0     H12972   3.765   9.551  10.347 -0.4106 -0.5795  1.5607
  819MOL0     H12973   3.924   9.482  10.379 -0.0107  3.4417 -0.2575
  819MOL0     H12974   3.721   9.366  10.196 -0.0434  0.3647  1.3465
  819MOL0     H12975   3.879   9.310  10.203  1.6760 -0.6205  1.5392
  819MOL0     H12976   3.844   9.229  10.428  2.1948  0.1597 -0.7322
  819MOL0     H12977   3.723   9.347  10.471  3.8339  1.3711  0.7516
  819MOL0     H12978   3.683   9.119  10.266 -1.9313 -2.2644  2.0538
  819MOL0     H12979   3.638   9.123  10.437  0.0994  1.1869  0.8174
  819MOL0     H12980   3.461   8.999  10.383 -0.9141 -1.5387 -0.1337
  819MOL0     H12981   3.303   8.838  10.521  0.1082 -0.5339  2.4229
  819MOL0     H12982   3.148   8.863  10.446  1.1922 -1.0774  0.0956
  819MOL0     H12983   3.193   8.913  10.620 -0.1418 -0.8913  1.1589
  819MOL0     H12984   3.007   9.264  10.854  1.8629 -3.2560 -1.2194
  819MOL0     H12985   2.849   9.247  11.009 -1.0786 -1.1672  0.3123
  819MOL0     H12986   2.418   9.139  10.902  1.4262  0.0946 -0.8624
  819MOL0     H12987   2.416   9.171  11.082  3.7142 -1.4554  2.1118
  819MOL0     H12988   2.502   9.366  10.868  3.1818  0.6408  3.6530
  819MOL0     H12989   2.339   9.366  10.948 -1.1464  0.1730  3.8264
  819MOL0     H12990   2.471   9.531  11.033  0.3689 -1.2843 -2.7959
  819MOL0     H12991   2.587   9.420  11.087 -0.8911 -1.5026  0.6324
  819MOL0     H12992   2.427   9.305  11.243  1.7390  1.0874  1.5395
  819MOL0     H12993   2.292   9.403  11.171 -0.4599  2.4093  0.7474
  819MOL0     H12994   2.416   9.615  11.252 -3.0738 -0.7100 -1.2952
  819MOL0     H12995   2.348   9.522  11.378 -1.7988  2.3734 -1.0883
  819MOL0     H12996   2.641   9.532  11.303 -0.1891  0.0458  0.2361
  819MOL0     H12997   2.577   9.397  11.398 -0.8242 -0.1297  0.9783
  819MOL0     H12998   2.553   9.698  11.482 -0.2931  0.5042  0.3523
  819MOL0     H12999   2.678   9.586  11.521 -0.1820  0.6011  2.7152
  819MOL0     H13000   2.389   9.544  11.588  0.7406  1.9201  0.8658
  819MOL0     H13001   2.512   9.612  11.702  1.2036 -0.9639  1.3378
  819MOL0     H13002   2.551   9.134  10.714  0.9062  0.1552 -1.5733
  819MOL0     H13003   2.706   9.159  10.546 -3.9853  0.1883  0.4427
  819MOL0     H13004   3.129   9.366  10.467  0.3792  1.0216 -1.1286
  819MOL0     H13005   3.346   9.421  10.381  2.2855  0.8401  0.1068
  819MOL0     H13006   3.987  10.805  10.111  0.5945 -0.8197 -2.8217
  819MOL0     H13007   3.809  10.904  10.227  0.9939 -0.6447 -1.0021
  819MOL0     H13008   3.437  11.081  10.398  2.0144  1.3597  1.5238
  819MOL0     H13009   3.235  11.130  10.559  0.5890  0.4216  0.9086
  819MOL0     H13010   3.206  11.084  10.827  1.6569 -3.4005 -2.6390
  819MOL0     H13011   3.034  11.067  10.853 -0.9344 -2.6148  1.4000
  819MOL0     H13012   3.238  10.859  10.942 -0.9432 -2.3288  0.0829
  819MOL0     H13013   3.063  10.841  10.906 -2.0907  3.0738 -1.2376
  819MOL0     H13014   3.031  11.010  11.103 -1.2373 -1.8267  0.1576
  819MOL0     H13015   3.096  10.849  11.144  0.6901 -0.0698  0.2638
  819MOL0     H13016   3.304  10.915  11.189  1.4174  0.9922  1.8982
  819MOL0     H13017   3.226  11.047  11.271 -3.9858 -0.1311 -0.6092
  819MOL0     H13018   3.448  11.243  10.964 -2.3450  1.2048 -0.4842
  819MOL0     H13019   3.252  10.733  10.703  1.5534  1.7597  1.9272
  819MOL0     H13020   3.467  10.607  10.432  1.3226 -0.0783  0.3397
  819MOL0     H13021   3.523  10.606  10.611 -0.6871 -1.4421  0.1558
  819MOL0     H13022   3.359  10.570  10.568 -1.4823  3.0367  0.1859
  820MOL0     O13023   3.591  10.222   8.465 -0.3917 -1.1458 -0.2288
  820MOL0     C13024   3.633  10.212   8.583 -0.2626  1.2420  0.6632
  820MOL0     O13025   3.732  10.289   8.633 -0.1645 -0.3024 -0.2387
  820MOL0     C13026   3.761  10.415   8.584 -0.5728  0.6985 -0.5342
  820MOL0     C13027   3.659  10.490   8.541  0.0443 -0.2225 -0.8918
  820MOL0     C13028   3.670  10.626   8.495  0.3305 -0.0563 -1.5080
  820MOL0     C13029   3.794  10.680   8.500  0.7528 -1.8582 -0.3674
  820MOL0     O13030   3.823  10.799   8.442 -0.5166 -0.0914  1.0776
  820MOL0     C13031   3.735  10.855   8.339  0.3569 -0.3544  0.1259
  820MOL0     C13032   3.767  10.976   8.265  0.0398 -0.8752 -1.0001
  820MOL0     C13033   3.751  11.104   8.347 -0.3203 -0.3073  0.8170
  820MOL0     C13034   3.794  11.220   8.261  0.5643  0.2339 -0.2822
  820MOL0     C13035   3.776  11.348   8.336  0.2700  0.1450  0.2047
  820MOL0     C13036   3.861  11.466   8.277 -0.1306 -0.7647 -0.5339
  820MOL0     C13037   3.834  11.610   8.323  0.2870  0.5614  0.0953
  820MOL0     C13038   3.883  11.635   8.462 -0.0185  0.2305  0.1999
  820MOL0     N13039   3.854  11.769   8.511 -0.2787 -0.4584 -0.4309
  820MOL0     C13040   3.759  11.804   8.599 -0.3656 -0.2483 -0.2737
  820MOL0     C13041   3.791  11.935   8.634 -0.4501 -0.0278  0.4416
  820MOL0     C13042   3.701  12.008   8.730 -0.4093  0.4015 -0.1324
  820MOL0     C13043   3.780  12.054   8.855  0.4641 -0.6055  0.5391
  820MOL0     C13044   3.914  12.143   8.834  0.4195  0.0477 -0.7305
  820MOL0     C13045   3.987  12.188   8.967  0.5220  0.1194  1.1480
  820MOL0     O13046   4.025  12.071   9.029 -0.6326  0.5404  0.0934
  820MOL0     C13047   4.118  12.084   9.139  0.2402  0.0004 -0.2875
  820MOL0     C13048   4.135  12.205   9.209 -0.4524 -0.0057  0.4663
  820MOL0     C13049   4.223  12.218   9.310  0.0132  0.0331  0.1980
  820MOL0     C13050   4.256  12.351   9.371  1.6119 -0.3098  0.6810
  820MOL0     C13051   4.286  12.095   9.367  1.2353 -0.2028  0.1887
  820MOL0     C13052   4.379  12.084   9.481  0.4554  0.7967 -0.0062
  820MOL0     O13053   4.361  12.165   9.588  0.4248 -0.4868  0.7483
  820MOL0     C13054   4.457  12.222   9.668 -0.9651  0.5438  0.5435
  820MOL0     C13055   4.407  12.321   9.763  0.2035  0.0012  0.3534
  820MOL0     C13056   4.502  12.382   9.843 -0.5097  0.3552 -0.4123
  820MOL0     C13057   4.641  12.349   9.839  0.7501  0.3564 -0.1392
  820MOL0     O13058   4.726  12.416   9.915 -0.4983  0.3654 -0.8889
  820MOL0     C13059   4.864  12.388   9.929 -0.7612 -0.2920 -0.0639
  820MOL0     C13060   4.927  12.487  10.036  0.4286  0.5452  0.6031
  820MOL0     C13061   5.077  12.496  10.021 -1.5569  1.0594  0.0572
  820MOL0     C13062   5.151  12.552  10.147  0.7284  1.0692 -0.3352
  820MOL0     C13063   5.126  12.700  10.164  0.1196  0.7678 -0.7966
  820MOL0     C13064   5.182  12.771  10.288 -0.6052 -0.3012  0.3276
  820MOL0     C13065   5.128  12.718  10.427  0.5898  1.0428 -0.2971
  820MOL0     C13066   5.233  12.628  10.496 -0.5706  0.3517  0.1407
  820MOL0    Cl13067   5.166  12.559  10.648 -0.1037 -0.3190  0.2353
  820MOL0     C13068   4.686  12.250   9.750 -0.3373  0.8592 -0.2099
  820MOL0     C13069   4.593  12.188   9.661 -0.3833 -0.5251  0.2021
  820MOL0     O13070   4.468  11.999   9.465 -0.5897  0.2248 -0.5605
  820MOL0     C13071   4.260  11.968   9.306  0.4487  1.1142  0.1213
  820MOL0     C13072   4.183  11.971   9.193  0.5628 -0.2371 -0.4766
  820MOL0     N13073   3.891  11.984   8.551  0.4072  0.0358  0.1755
  820MOL0     N13074   3.929  11.881   8.480 -1.3140  0.1894 -0.2608
  820MOL0     C13075   3.908  10.600   8.530  0.6569 -0.5360  0.0002
  820MOL0     C13076   3.887  10.465   8.586 -0.1989  0.8184 -0.4262
  820MOL0     C13077   3.587  10.097   8.669 -0.3261 -1.0469 -0.2793
  820MOL0     C13078   3.608  10.092   8.799 -0.0592 -0.4387  0.1903
  820MOL0     C13079   3.577   9.982   8.879 -0.6041 -0.1943  0.8116
  820MOL0     C13080   3.498   9.877   8.825 -0.1987 -0.2499  0.5472
  820MOL0     O13081   3.433   9.789   8.901  0.0597 -0.3951 -0.7090
  820MOL0     C13082   3.350   9.845   9.009  0.3923  0.0101 -1.6791
  820MOL0     C13083   3.362   9.745   9.124 -0.6860  0.6128  0.5661
  820MOL0     C13084   3.303   9.607   9.085 -0.9496 -0.0395  0.2180
  820MOL0     C13085   3.284   9.516   9.202 -0.7135 -0.4609  0.4447
  820MOL0     C13086   3.171   9.562   9.282 -0.9633  0.6295 -0.6223
  820MOL0     C13087   3.082   9.581   9.360 -0.3978 -0.4323  0.4576
  820MOL0     C13088   3.469   9.885   8.691  0.8418  0.4591 -1.4231
  820MOL0     C13089   3.527   9.982   8.612  0.7750  0.2677 -0.2387
  820MOL0     C13090   3.505   9.948   8.466 -0.0775  0.0248  0.6604
  820MOL0     H13091   3.561  10.443   8.536 -0.2738  0.1699  1.0814
  820MOL0     H13092   3.581  10.676   8.458 -0.5902 -1.7746 -1.7501
  820MOL0     H13093   3.636  10.876   8.379  0.1600  0.5127 -0.7836
  820MOL0     H13094   3.711  10.778   8.265  1.4104 -1.6865  1.1082
  820MOL0     H13095   3.874  10.969   8.241  0.1685 -0.4346 -0.5866
  820MOL0     H13096   3.702  11.001   8.181 -3.9136  0.7499  2.2246
  820MOL0     H13097   3.648  11.134   8.364 -0.6012 -2.6731  4.4683
  820MOL0     H13098   3.810  11.100   8.439  0.4977  0.8136  0.3584
  820MOL0     H13099   3.901  11.212   8.238  0.4127  1.5928 -1.6123
  820MOL0     H13100   3.743  11.212   8.164  1.7214  0.7611 -0.9568
  820MOL0     H13101   3.811  11.328   8.438 -2.5857 -2.6773  0.7799
  820MOL0     H13102   3.672  11.377   8.349 -0.3450 -1.4942 -0.8135
  820MOL0     H13103   3.965  11.443   8.304 -0.6176 -3.0020 -0.3661
  820MOL0     H13104   3.854  11.469   8.168  2.2566  1.4279 -0.7160
  820MOL0     H13105   3.729  11.637   8.307 -0.8916 -3.3289  0.2715
  820MOL0     H13106   3.883  11.681   8.256  1.5527 -0.3723  0.0023
  820MOL0     H13107   3.828  11.561   8.521 -0.9700  0.5305 -0.2919
  820MOL0     H13108   3.991  11.615   8.467 -0.3236 -1.5542  0.1610
  820MOL0     H13109   3.677  11.749   8.644  0.2203  0.0163  1.1636
  820MOL0     H13110   3.627  11.939   8.770 -1.3203  0.0608 -2.2779
  820MOL0     H13111   3.640  12.088   8.687 -1.3110 -0.1818  0.0371
  820MOL0     H13112   3.717  12.121   8.913  2.2791  0.1869  1.6645
  820MOL0     H13113   3.820  11.972   8.916 -1.5339 -1.2623  1.0607
  820MOL0     H13114   3.975  12.094   8.758 -0.4873  0.4903 -1.7816
  820MOL0     H13115   3.870  12.238   8.800 -1.2177 -0.1995  0.5395
  820MOL0     H13116   4.072  12.253   8.943 -0.8416  1.3965 -0.3982
  820MOL0     H13117   3.927  12.245   9.039  0.4797  0.1636  1.0784
  820MOL0     H13118   4.090  12.296   9.171 -0.3374 -0.5538 -1.0281
  820MOL0     H13119   4.200  12.355   9.465  1.0473  0.2476  0.3367
  820MOL0     H13120   4.220  12.427   9.300  1.0122  0.1218  1.4342
  820MOL0     H13121   4.363  12.367   9.386  2.5583  0.8465 -5.0147
  820MOL0     H13122   4.301  12.338   9.776  0.3492  0.6450  0.7304
  820MOL0     H13123   4.461  12.450   9.918 -1.8695  2.3703 -2.8239
  820MOL0     H13124   4.886  12.285   9.958 -2.8062 -0.8788 -0.4553
  820MOL0     H13125   4.913  12.410   9.834 -1.7224 -1.3375 -0.8254
  820MOL0     H13126   4.875  12.582  10.021 -3.1685 -1.6735 -3.4189
  820MOL0     H13127   4.900  12.453  10.136 -3.2715 -1.1937 -0.7892
  820MOL0     H13128   5.105  12.546   9.927 -3.8582  0.4636 -1.0102
  820MOL0     H13129   5.123  12.398  10.004 -0.4795  1.3667  1.0897
  820MOL0     H13130   5.258  12.544  10.124  0.4025  0.9388 -1.9235
  820MOL0     H13131   5.118  12.502  10.238  0.1299 -0.8683 -1.5365
  820MOL0     H13132   5.155  12.764  10.080 -1.5637  1.3744 -0.9464
  820MOL0     H13133   5.018  12.715  10.169  0.2856  1.8088  0.0857
  820MOL0     H13134   5.144  12.874  10.288 -1.9328 -0.7569  1.4955
  820MOL0     H13135   5.290  12.763  10.279 -0.6642 -0.3090 -0.4310
  820MOL0     H13136   5.033  12.670  10.401  2.1541 -1.5415 -1.6388
  820MOL0     H13137   5.088  12.799  10.490 -0.6708  0.0811  0.1755
  820MOL0     H13138   5.324  12.686  10.516  1.9382 -3.4035  0.6685
  820MOL0     H13139   5.269  12.542  10.438 -1.6135 -1.4553  2.0443
  820MOL0     H13140   4.789  12.215   9.740 -1.4525 -2.7778 -0.5936
  820MOL0     H13141   4.622  12.127   9.576 -1.2379 -1.4540  0.5493
  820MOL0     H13142   4.294  11.877   9.354 -3.4255 -0.9899 -0.7426
  820MOL0     H13143   4.170  11.876   9.143 -2.0795  0.5198 -1.4031
  820MOL0     H13144   4.010  10.635   8.521  0.3661  1.1573  2.3414
  820MOL0     H13145   3.971  10.406   8.619 -0.9787 -0.7698 -1.1949
  820MOL0     H13146   3.651  10.184   8.837 -0.9092 -0.1302  0.4439
  820MOL0     H13147   3.602   9.975   8.984  1.6206 -1.5551  0.2538
  820MOL0     H13148   3.374   9.944   9.050  0.0957 -0.9242  0.9865
  820MOL0     H13149   3.247   9.842   8.972 -1.1238  1.2202  2.0003
  820MOL0     H13150   3.324   9.782   9.219 -2.0967 -1.5674  0.9175
  820MOL0     H13151   3.465   9.720   9.150  0.2373  1.1490 -2.2029
  820MOL0     H13152   3.207   9.617   9.033 -1.6270  2.3672  1.7911
  820MOL0     H13153   3.371   9.567   9.009  1.0431  0.3183  1.7567
  820MOL0     H13154   3.374   9.509   9.264  0.4164  1.7346 -0.8270
  820MOL0     H13155   3.261   9.415   9.166 -1.6357  0.9180 -3.2068
  820MOL0     H13156   2.998   9.581   9.426 -1.6044  4.5804 -0.6788
  820MOL0     H13157   3.396   9.810   8.660  0.3107 -0.2947  1.3319
  820MOL0     H13158   3.593   9.979   8.408 -0.7038  1.2790  0.3413
  820MOL0     H13159   3.500   9.839   8.460 -0.3530  0.0739 -0.1186
  820MOL0     H13160   3.417   9.996   8.422  0.1900  0.9650  1.1247
  821MOL0     O13161   4.833   7.216   4.312 -0.4363  0.2868  0.1169
  821MOL0     C13162   4.733   7.259   4.379  0.4551  0.8961  0.5096
  821MOL0     O13163   4.725   7.228   4.508 -0.1557 -0.9312  0.4629
  821MOL0     C13164   4.622   7.271   4.580 -0.1204 -0.7050 -0.4633
  821MOL0     C13165   4.497   7.227   4.562  0.2692 -0.1568  0.1571
  821MOL0     C13166   4.398   7.258   4.652 -0.5117  0.4688  0.2153
  821MOL0     C13167   4.414   7.342   4.756  0.4432  0.3213 -1.2523
  821MOL0     O13168   4.313   7.384   4.841  0.1703 -0.6002 -0.2793
  821MOL0     C13169   4.312   7.527   4.869  0.7681  0.0475 -0.0856
  821MOL0     C13170   4.176   7.580   4.819  0.2663 -0.1652  0.4834
  821MOL0     C13171   4.148   7.545   4.667 -0.1975  0.3464 -0.9002
  821MOL0     C13172   4.037   7.443   4.647 -0.0165  0.0940  1.0634
  821MOL0     C13173   4.024   7.423   4.493 -0.2629 -0.0071  0.3887
  821MOL0     C13174   3.921   7.312   4.456 -0.1988 -1.1163  0.0478
  821MOL0     C13175   3.981   7.202   4.370 -0.0737 -0.3622 -0.1909
  821MOL0     C13176   4.068   7.119   4.464 -0.0472 -0.3218 -0.6443
  821MOL0     N13177   4.103   6.989   4.412 -0.0171  0.1396  0.4406
  821MOL0     C13178   4.011   6.891   4.434  0.6013  0.5130 -0.2223
  821MOL0     C13179   4.082   6.781   4.397  0.4165  0.1113 -0.6127
  821MOL0     C13180   4.010   6.648   4.391 -0.2897 -0.8663  0.3078
  821MOL0     C13181   4.043   6.567   4.511  0.0329  0.8868  0.1159
  821MOL0     C13182   4.173   6.476   4.493  0.7234 -0.6783 -0.2836
  821MOL0     C13183   4.205   6.396   4.612  0.3037 -0.3959  0.4689
  821MOL0     O13184   4.204   6.476   4.736  0.8611  0.6081 -0.6465
  821MOL0     C13185   4.333   6.513   4.757  1.0039  0.0108  0.2533
  821MOL0     C13186   4.415   6.426   4.837  0.1505 -0.2571  0.0663
  821MOL0     C13187   4.544   6.465   4.863  0.5390  0.3468  0.9550
  821MOL0     C13188   4.610   6.378   4.960 -0.0022 -0.0143 -0.2134
  821MOL0     C13189   4.612   6.583   4.815  0.2398  0.0422 -0.1145
  821MOL0     C13190   4.755   6.609   4.820 -0.2941 -0.3609 -0.0699
  821MOL0     O13191   4.824   6.542   4.914 -0.5901  0.4164  0.4116
  821MOL0     C13192   4.963   6.505   4.900  0.2449 -0.7560 -0.1795
  821MOL0     C13193   5.011   6.446   5.012  0.1223 -0.9901  0.3925
  821MOL0     C13194   5.139   6.418   5.023 -0.8510  0.0069 -0.1440
  821MOL0     C13195   5.237   6.440   4.928 -0.0999 -1.1610  2.0851
  821MOL0     O13196   5.370   6.407   4.948 -0.0854 -0.3660 -0.5820
  821MOL0     C13197   5.403   6.269   4.933 -0.1308  0.6651 -0.2464
  821MOL0     C13198   5.556   6.264   4.913 -0.5670  0.4552  0.2634
  821MOL0     C13199   5.626   6.322   4.779 -0.0061  0.1605 -0.9476
  821MOL0     C13200   5.779   6.339   4.776  0.2213  0.2310 -0.1665
  821MOL0     C13201   5.810   6.384   4.622 -0.2252  1.0838  0.5122
  821MOL0     C13202   5.732   6.502   4.562 -1.0398 -1.1323 -1.6379
  821MOL0     C13203   5.774   6.624   4.652  0.0839 -0.4123 -0.5232
  821MOL0     C13204   5.763   6.755   4.576 -0.5114  0.6819 -0.1883
  821MOL0    Cl13205   5.901   6.779   4.477 -0.0268  0.1339  0.1148
  821MOL0     C13206   5.189   6.481   4.802  0.0637 -1.3563 -0.0361
  821MOL0     C13207   5.051   6.523   4.793  0.5591  0.2285 -0.3147
  821MOL0     O13208   4.807   6.698   4.757 -0.2934 -0.0253  0.9879
  821MOL0     C13209   4.528   6.657   4.727 -0.0730  0.0858  0.1466
  821MOL0     C13210   4.396   6.624   4.696 -0.4551  0.5990 -0.9372
  821MOL0     N13211   4.209   6.814   4.386 -0.6105 -0.5280 -0.0524
  821MOL0     N13212   4.226   6.944   4.388 -0.4087  0.9091 -0.3019
  821MOL0     C13213   4.550   7.380   4.787  0.4650 -0.5839  0.0666
  821MOL0     C13214   4.651   7.343   4.697 -0.3949 -0.5755 -0.2259
  821MOL0     C13215   4.654   7.340   4.300 -0.3520 -0.2619  1.2048
  821MOL0     C13216   4.645   7.469   4.340  0.5865 -0.3566 -0.5869
  821MOL0     C13217   4.567   7.560   4.277  0.8280 -0.2834  1.2290
  821MOL0     C13218   4.488   7.518   4.169  0.6694 -0.4354 -0.3032
  821MOL0     O13219   4.432   7.612   4.088  0.1438 -0.0479 -0.2952
  821MOL0     C13220   4.354   7.601   3.966  0.1593 -0.0378  0.3567
  821MOL0     C13221   4.218   7.563   4.011  1.3552 -0.1042 -0.7054
  821MOL0     C13222   4.155   7.662   4.114 -0.4994 -0.4643 -0.4616
  821MOL0     C13223   4.164   7.808   4.083 -0.3589  0.4846  0.0140
  821MOL0     C13224   4.077   7.873   4.177  0.1116  0.4480 -0.2531
  821MOL0     C13225   4.000   7.943   4.236  0.3983 -0.0611  0.7122
  821MOL0     C13226   4.480   7.379   4.141  0.2237 -0.5042  0.5725
  821MOL0     C13227   4.561   7.293   4.206 -0.2332  0.5609  0.8290
  821MOL0     C13228   4.567   7.156   4.149 -0.4039  0.7986 -0.8585
  821MOL0     H13229   4.474   7.170   4.473 -0.4668 -0.0048  0.2470
  821MOL0     H13230   4.299   7.224   4.624  0.0864  0.9972 -2.8392
  821MOL0     H13231   4.387   7.580   4.810 -1.1443  2.1761 -0.7208
  821MOL0     H13232   4.329   7.556   4.973 -1.0653  0.7989  0.0351
  821MOL0     H13233   4.099   7.533   4.881  2.0201 -0.8777  2.2189
  821MOL0     H13234   4.174   7.689   4.829 -0.8426  0.1681 -2.2990
  821MOL0     H13235   4.130   7.639   4.614  2.7030  0.8984 -1.0907
  821MOL0     H13236   4.247   7.519   4.627  1.2331 -0.8744  3.0080
  821MOL0     H13237   4.052   7.347   4.697  2.1210 -0.5589 -0.7035
  821MOL0     H13238   3.942   7.483   4.684 -0.3768 -0.6502  0.9601
  821MOL0     H13239   4.116   7.403   4.439 -0.2204  0.9859  0.0647
  821MOL0     H13240   3.994   7.521   4.454  1.4654  0.0684 -0.8682
  821MOL0     H13241   3.894   7.271   4.553  2.6861 -2.2974  0.4342
  821MOL0     H13242   3.828   7.348   4.410 -0.2952 -2.7818 -1.1442
  821MOL0     H13243   4.040   7.234   4.284 -0.9975  2.0851 -0.0001
  821MOL0     H13244   3.904   7.131   4.338 -1.0489 -1.1374  3.3588
  821MOL0     H13245   4.163   7.173   4.467  0.8102 -1.7814 -0.6744
  821MOL0     H13246   4.025   7.109   4.564 -0.4609 -0.8846 -0.8734
  821MOL0     H13247   3.905   6.894   4.458 -0.1405  4.0724 -3.1073
  821MOL0     H13248   4.045   6.606   4.296 -0.6646  0.5286 -0.4709
  821MOL0     H13249   3.903   6.667   4.387 -0.2221 -0.2306  1.3287
  821MOL0     H13250   4.065   6.632   4.597  0.7841 -1.5664  1.8714
  821MOL0     H13251   3.957   6.509   4.545 -0.3896  1.3223 -0.1909
  821MOL0     H13252   4.174   6.415   4.403  1.6567  0.1853 -0.8841
  821MOL0     H13253   4.256   6.547   4.484 -0.2938  1.1155  2.8239
  821MOL0     H13254   4.136   6.311   4.616 -1.1125  0.7405  3.4800
  821MOL0     H13255   4.297   6.345   4.583  0.6907  0.3992  0.2727
  821MOL0     H13256   4.381   6.337   4.889  4.7951 -0.5286  3.1960
  821MOL0     H13257   4.644   6.429   5.050  2.3846 -0.3173 -0.8739
  821MOL0     H13258   4.704   6.338   4.919 -1.0253 -3.6022  0.5263
  821MOL0     H13259   4.538   6.302   4.993 -1.8725  3.1147  3.7770
  821MOL0     H13260   4.952   6.425   5.100  1.9957 -0.2075  1.8933
  821MOL0     H13261   5.181   6.373   5.112  4.1331  3.0987 -0.5927
  821MOL0     H13262   5.368   6.203   5.013  0.0191  0.1200 -0.6205
  821MOL0     H13263   5.351   6.227   4.846  0.2551  0.4512 -0.3766
  821MOL0     H13264   5.604   6.309   5.001 -2.0075  0.5162  1.0495
  821MOL0     H13265   5.577   6.157   4.918  2.1594  0.9060  0.4385
  821MOL0     H13266   5.581   6.419   4.761 -2.1409 -0.7992 -1.1148
  821MOL0     H13267   5.597   6.252   4.700 -3.4175 -0.1900  0.4610
  821MOL0     H13268   5.829   6.243   4.790 -2.1645 -1.2988 -1.4297
  821MOL0     H13269   5.811   6.410   4.852 -1.1605 -0.2048  0.8769
  821MOL0     H13270   5.919   6.399   4.615 -0.0154 -0.7861 -1.1481
  821MOL0     H13271   5.772   6.297   4.567 -2.0637  3.8232 -2.9181
  821MOL0     H13272   5.623   6.494   4.567 -1.0263 -1.4370 -1.8317
  821MOL0     H13273   5.775   6.503   4.461 -0.7859 -0.3688 -1.5271
  821MOL0     H13274   5.881   6.614   4.671  0.7038 -1.4271 -3.9662
  821MOL0     H13275   5.716   6.619   4.745  2.5993 -2.8397  1.0564
  821MOL0     H13276   5.750   6.836   4.648 -0.1215  0.4610  0.1321
  821MOL0     H13277   5.674   6.756   4.512 -2.0857  0.0540  1.8912
  821MOL0     H13278   5.265   6.477   4.725 -0.3489 -1.5371 -0.4378
  821MOL0     H13279   5.008   6.566   4.704  0.1299 -2.8138 -1.7002
  821MOL0     H13280   4.576   6.740   4.676 -0.0322 -1.1576 -1.9091
  821MOL0     H13281   4.332   6.688   4.636 -0.2019  2.2167  0.4609
  821MOL0     H13282   4.578   7.434   4.876  0.8042 -0.1648 -0.2936
  821MOL0     H13283   4.754   7.369   4.717 -0.0454  0.6688 -3.0915
  821MOL0     H13284   4.706   7.504   4.423  0.5126  0.6525 -0.9404
  821MOL0     H13285   4.563   7.665   4.306 -0.2161 -0.1955  0.8062
  821MOL0     H13286   4.355   7.708   3.943 -0.1967 -0.6174 -2.7893
  821MOL0     H13287   4.408   7.544   3.890 -0.9359  2.0299 -2.1432
  821MOL0     H13288   4.220   7.469   4.067 -2.2397  1.4581  2.4563
  821MOL0     H13289   4.151   7.546   3.926 -0.7107 -0.5402  0.9370
  821MOL0     H13290   4.049   7.634   4.117 -1.0084  1.4566  1.1873
  821MOL0     H13291   4.193   7.655   4.216 -2.2600  2.3357  0.4951
  821MOL0     H13292   4.131   7.837   3.982 -1.8316 -3.0636 -0.6504
  821MOL0     H13293   4.266   7.841   4.105  0.1649 -0.8625 -0.3381
  821MOL0     H13294   3.937   8.014   4.286  0.4709 -0.4598  1.3840
  821MOL0     H13295   4.413   7.338   4.066 -3.1027  3.7726  0.8048
  821MOL0     H13296   4.554   7.154   4.041 -3.0262  1.3662 -0.6126
  821MOL0     H13297   4.670   7.122   4.167 -0.6268  0.8932  0.8361
  821MOL0     H13298   4.494   7.089   4.197 -0.3913  2.2831  1.4039
  822MOL0     O13299  10.681   9.959   9.289 -0.2688 -0.1660 -0.5467
  822MOL0     C13300  10.735   9.944   9.180  0.0235 -0.3114  0.4483
  822MOL0     O13301  10.873   9.937   9.157 -0.4639 -0.9305 -0.2282
  822MOL0     C13302  10.951  10.017   9.238 -0.5397 -0.6665 -0.0303
  822MOL0     C13303  11.081   9.972   9.287  0.0671 -0.6181  0.0204
  822MOL0     C13304  11.158  10.056   9.369 -0.0159 -0.7231  0.1147
  822MOL0     C13305  11.115  10.185   9.415 -0.2669  1.4294  0.3032
  822MOL0     O13306  11.185  10.257   9.502 -0.1858 -0.1952 -1.1009
  822MOL0     C13307  11.123  10.275   9.633 -1.3117  0.1802  0.3139
  822MOL0     C13308  11.145  10.155   9.723  0.0046 -0.1426  0.1606
  822MOL0     C13309  11.065  10.164   9.849  0.2626  0.3794 -0.4336
  822MOL0     C13310  11.046  10.033   9.929  0.0424 -0.2732 -0.6182
  822MOL0     C13311  10.990   9.928   9.839  0.0925  0.8036  0.6863
  822MOL0     C13312  10.874   9.971   9.748 -0.0883 -0.4071  0.4574
  822MOL0     C13313  10.812   9.858   9.663  0.5881  0.3239  0.0218
  822MOL0     C13314  10.896   9.800   9.559 -0.5396 -0.2391 -0.0129
  822MOL0     N13315  10.837   9.676   9.504  0.2696 -0.1064  0.1002
  822MOL0     C13316  10.737   9.668   9.409  0.1223  0.8709  0.5198
  822MOL0     C13317  10.715   9.538   9.383  0.0565 -0.5304  0.6930
  822MOL0     C13318  10.626   9.470   9.285 -0.3294 -0.7852 -0.0070
  822MOL0     C13319  10.643   9.503   9.135 -1.1023  0.0680 -1.1540
  822MOL0     C13320  10.782   9.497   9.069 -0.5626 -0.7657  0.8671
  822MOL0     C13321  10.874   9.370   9.098  0.8108 -0.0733  0.2342
  822MOL0     O13322  10.777   9.256   9.085 -0.6067  0.9175  0.4279
  822MOL0     C13323  10.779   9.170   8.978 -0.8261 -0.1464  0.9023
  822MOL0     C13324  10.659   9.108   8.942  0.7657 -0.3827 -0.1600
  822MOL0     C13325  10.652   9.021   8.836 -0.1468 -0.4855 -0.5928
  822MOL0     C13326  10.524   8.948   8.824  0.0941 -1.0165  0.3271
  822MOL0     C13327  10.767   8.987   8.760 -0.3270  0.8842 -0.8094
  822MOL0     C13328  10.769   8.880   8.651 -0.4982 -0.6954 -0.3257
  822MOL0     O13329  10.886   8.827   8.615 -1.5391 -0.4544  0.0198
  822MOL0     C13330  10.875   8.709   8.549  0.0819 -0.0169 -0.2611
  822MOL0     C13331  10.807   8.602   8.606 -0.4537  0.1638  0.1120
  822MOL0     C13332  10.816   8.481   8.529  0.5096 -0.4290  0.8478
  822MOL0     C13333  10.876   8.465   8.409 -1.0354 -0.2272  0.6745
  822MOL0     O13334  10.857   8.348   8.343  0.3037 -0.3911  0.6199
  822MOL0     C13335  10.846   8.345   8.194  0.9124 -0.5749  0.9361
  822MOL0     C13336  10.976   8.370   8.111 -0.1353 -0.7391 -0.3425
  822MOL0     C13337  11.034   8.232   8.082 -0.6114  0.3462  0.3679
  822MOL0     C13338  11.171   8.259   8.012  0.2253  0.1336  0.2251
  822MOL0     C13339  11.248   8.135   8.003 -0.1083  0.1801 -0.3886
  822MOL0     C13340  11.186   8.024   7.912  0.0430  0.1061  0.4828
  822MOL0     C13341  11.287   7.921   7.872 -0.9719  0.8451 -0.6534
  822MOL0     C13342  11.236   7.790   7.815  0.3683 -0.0755 -1.0944
  822MOL0    Cl13343  11.371   7.678   7.796  0.1609  0.1657  0.4387
  822MOL0     C13344  10.942   8.574   8.350  1.1339 -0.0725 -0.1094
  822MOL0     C13345  10.938   8.692   8.419 -0.1539  0.1300 -0.5732
  822MOL0     O13346  10.668   8.879   8.579 -0.1065  0.1401  0.4419
  822MOL0     C13347  10.888   9.051   8.795  0.0563 -0.3093  0.3580
  822MOL0     C13348  10.892   9.143   8.894  0.7434  0.0683  0.2779
  822MOL0     N13349  10.797   9.468   9.473 -0.4411 -0.1484 -0.0940
  822MOL0     N13350  10.874   9.548   9.539  0.7479  0.6409 -0.6394
  822MOL0     C13351  10.995  10.227   9.363  0.7761  0.0437 -0.9371
  822MOL0     C13352  10.912  10.147   9.280  0.3567  0.2862 -0.8406
  822MOL0     C13353  10.643   9.925   9.052 -0.9374  1.4199 -0.6926
  822MOL0     C13354  10.663   9.808   8.967  0.3448 -0.2012 -0.5848
  822MOL0     C13355  10.560   9.750   8.901  0.2583 -0.6672  0.5081
  822MOL0     C13356  10.436   9.807   8.908 -1.1241 -0.9302 -0.0284
  822MOL0     O13357  10.323   9.765   8.843 -0.6622  0.0672 -0.1487
  822MOL0     C13358  10.334   9.673   8.736 -0.0511  0.7269 -0.8090
  822MOL0     C13359  10.422   9.724   8.616 -0.4466 -0.4136 -0.5993
  822MOL0     C13360  10.393   9.866   8.574 -0.0355 -0.3902  0.1837
  822MOL0     C13361  10.506   9.924   8.484 -0.2469  0.0968  0.0834
  822MOL0     C13362  10.640   9.936   8.547 -0.4212  0.2844 -0.2590
  822MOL0     C13363  10.751   9.914   8.595 -0.2812 -0.2084  0.9607
  822MOL0     C13364  10.414   9.927   8.973  0.5037  0.7049  0.0601
  822MOL0     C13365  10.518   9.986   9.055  0.5460  0.3962  0.0643
  822MOL0     C13366  10.490  10.112   9.142  0.3518  0.1795 -0.9825
  822MOL0     H13367  11.128   9.875   9.273  1.6047 -0.2584  2.1472
  822MOL0     H13368  11.249  10.016   9.413 -0.1742  1.3128  2.5438
  822MOL0     H13369  11.015  10.290   9.620 -1.1475  0.1198 -1.4701
  822MOL0     H13370  11.173  10.360   9.680 -1.0114  0.2748 -0.1645
  822MOL0     H13371  11.141  10.059   9.670 -2.8061  2.2361 -4.7032
  822MOL0     H13372  11.248  10.168   9.758  0.2424 -0.9900 -0.1880
  822MOL0     H13373  11.120  10.229   9.919 -0.5411  1.1080 -0.4613
  822MOL0     H13374  10.973  10.218   9.827  0.9438  1.0417 -1.7948
  822MOL0     H13375  11.135   9.998   9.982  0.3371  1.2169 -0.0876
  822MOL0     H13376  10.973  10.055  10.008  0.1765 -1.5903 -0.1020
  822MOL0     H13377  10.959   9.845   9.903  4.9907 -1.1127  1.0284
  822MOL0     H13378  11.071   9.893   9.773 -2.2013 -0.5801 -1.5997
  822MOL0     H13379  10.789  10.006   9.809 -1.1575 -1.4261 -0.3945
  822MOL0     H13380  10.903  10.049   9.678 -2.1338 -1.3705 -1.6205
  822MOL0     H13381  10.730   9.886   9.596  1.5199  0.8424 -0.9221
  822MOL0     H13382  10.768   9.783   9.730 -0.3060 -0.6212 -1.5529
  822MOL0     H13383  10.902   9.867   9.474 -1.9560 -1.2483 -0.9446
  822MOL0     H13384  10.992   9.783   9.609 -0.8823 -0.6426  0.5207
  822MOL0     H13385  10.681   9.746   9.357  0.3161  0.3209 -0.5321
  822MOL0     H13386  10.520   9.479   9.311 -1.1707 -3.0896 -2.3126
  822MOL0     H13387  10.641   9.363   9.302  1.5561 -0.2928  1.8971
  822MOL0     H13388  10.587   9.429   9.076 -1.6821 -1.2992  0.9904
  822MOL0     H13389  10.608   9.604   9.115  0.9437  1.4778  1.7186
  822MOL0     H13390  10.776   9.506   8.960  2.5460 -0.8675  0.5961
  822MOL0     H13391  10.848   9.577   9.106 -0.5416 -1.0980  1.5656
  822MOL0     H13392  10.971   9.361   9.049  2.1388 -4.8050  3.0826
  822MOL0     H13393  10.883   9.374   9.207 -0.5618 -2.7932  0.5386
  822MOL0     H13394  10.576   9.136   9.005  1.5034  2.0169 -0.1687
  822MOL0     H13395  10.463   8.955   8.914  1.8876 -1.4506  1.6449
  822MOL0     H13396  10.527   8.841   8.802 -2.0186 -1.3856  1.5709
  822MOL0     H13397  10.469   8.985   8.738 -1.3141 -0.5731  1.3905
  822MOL0     H13398  10.743   8.607   8.693 -1.4750 -0.4982 -0.5782
  822MOL0     H13399  10.764   8.396   8.572  1.3865 -0.5657  1.6877
  822MOL0     H13400  10.794   8.254   8.163  0.4189  0.7056 -2.5235
  822MOL0     H13401  10.773   8.426   8.182 -0.8485 -2.2608 -0.2642
  822MOL0     H13402  10.938   8.417   8.020 -1.8421 -0.0393  0.6928
  822MOL0     H13403  11.058   8.423   8.161 -1.0370 -0.9832  1.4403
  822MOL0     H13404  10.970   8.173   8.015 -0.1336  1.5001 -1.1593
  822MOL0     H13405  11.059   8.178   8.174 -1.1520 -1.9292 -0.7398
  822MOL0     H13406  11.235   8.329   8.067 -0.3892  0.3695  0.6633
  822MOL0     H13407  11.141   8.296   7.913  2.4437 -2.2345 -1.4534
  822MOL0     H13408  11.345   8.157   7.958  0.1320  1.8298  0.8367
  822MOL0     H13409  11.260   8.096   8.104  3.4444 -2.3846 -1.6095
  822MOL0     H13410  11.141   8.076   7.826  3.8783  1.0368 -1.1726
  822MOL0     H13411  11.102   7.970   7.957  0.6396  0.5184  2.1466
  822MOL0     H13412  11.350   7.889   7.956 -1.8110  0.2091 -0.2609
  822MOL0     H13413  11.351   7.970   7.798 -1.1472 -3.0435 -3.6622
  822MOL0     H13414  11.188   7.795   7.717 -0.5066 -0.2431 -0.6858
  822MOL0     H13415  11.168   7.746   7.888 -0.1090  1.3650 -0.6256
  822MOL0     H13416  11.009   8.588   8.266  1.4078  0.3497  0.1734
  822MOL0     H13417  10.990   8.776   8.375  1.9688 -0.9801 -0.3610
  822MOL0     H13418  10.981   9.050   8.739  1.1689  3.0985  1.8747
  822MOL0     H13419  10.983   9.203   8.894  2.0720 -1.7534  2.7141
  822MOL0     H13420  10.968  10.324   9.404  2.7782 -0.9139  3.1640
  822MOL0     H13421  10.815  10.184   9.248 -1.4052 -3.2679 -0.1121
  822MOL0     H13422  10.763   9.766   8.958  0.5819  0.5860 -2.0369
  822MOL0     H13423  10.581   9.653   8.856  0.6309 -0.8130  0.9963
  822MOL0     H13424  10.373   9.579   8.777 -4.4678  0.3844  3.5135
  822MOL0     H13425  10.235   9.639   8.705 -0.4879  2.7463 -1.7703
  822MOL0     H13426  10.403   9.657   8.532 -2.4564 -0.4422 -0.1775
  822MOL0     H13427  10.527   9.714   8.642 -0.0304  1.3258 -1.4770
  822MOL0     H13428  10.299   9.877   8.518  0.8809  2.5539 -0.9790
  822MOL0     H13429  10.383   9.930   8.662  0.2834  1.3775 -1.0239
  822MOL0     H13430  10.473  10.018   8.441 -0.9255  0.0692  0.5365
  822MOL0     H13431  10.524   9.850   8.406  3.8227  0.4003  0.4908
  822MOL0     H13432  10.852   9.912   8.632 -0.5314 -0.1592  1.6615
  822MOL0     H13433  10.314   9.966   8.961  0.8515  1.9154  1.0039
  822MOL0     H13434  10.571  10.180   9.115 -1.2298  1.9321 -1.5226
  822MOL0     H13435  10.394  10.152   9.110 -0.0487  0.1695  0.1639
  822MOL0     H13436  10.479  10.080   9.246  2.8055 -1.6028 -1.1663
  823MOL0     O13437   4.137  10.256  10.856  0.3276 -0.0384 -0.0247
  823MOL0     C13438   4.039  10.320  10.832  0.5326  0.4333  0.8042
  823MOL0     O13439   3.908  10.273  10.822 -0.1807 -0.1994  0.2061
  823MOL0     C13440   3.876  10.153  10.757  0.2654  0.1925 -0.7684
  823MOL0     C13441   3.853  10.039  10.837 -0.2591  0.3274  0.6248
  823MOL0     C13442   3.800   9.919  10.778 -0.3159  0.3149  0.3346
  823MOL0     C13443   3.783   9.918  10.638  0.0494  0.4235  0.3417
  823MOL0     O13444   3.721   9.802  10.598 -0.7953 -0.2013 -0.1806
  823MOL0     C13445   3.683   9.796  10.456  0.5016  0.2868  0.2890
  823MOL0     C13446   3.575   9.889  10.420  0.6012 -0.2908 -0.0435
  823MOL0     C13447   3.488   9.859  10.304  0.0282  0.4478  1.5994
  823MOL0     C13448   3.563   9.856  10.163  0.1145  0.8254  0.9323
  823MOL0     C13449   3.479   9.769  10.076 -0.2809 -0.0902  0.4651
  823MOL0     C13450   3.534   9.765   9.925 -0.4687 -0.6162 -0.3161
  823MOL0     C13451   3.450   9.853   9.823  0.6818 -0.3285 -0.5684
  823MOL0     C13452   3.512   9.864   9.692  0.3367 -0.0645 -0.8284
  823MOL0     N13453   3.411   9.933   9.613 -0.7413 -0.3656  1.4052
  823MOL0     C13454   3.293   9.893   9.568  0.5111  0.5299  0.2826
  823MOL0     C13455   3.230  10.002   9.516  0.5178  0.3727  0.4512
  823MOL0     C13456   3.100  10.004   9.444 -1.1346  0.4421 -0.1177
  823MOL0     C13457   3.120   9.993   9.294 -1.1401  0.7277  0.6443
  823MOL0     C13458   3.004  10.064   9.220 -0.1716  0.6938 -0.3683
  823MOL0     C13459   3.023  10.214   9.200  0.0924  0.6265  0.9559
  823MOL0     O13460   2.968  10.265   9.077 -0.4548 -0.0780 -0.6411
  823MOL0     C13461   2.835  10.258   9.053  1.2957  0.1678  0.6579
  823MOL0     C13462   2.796  10.288   8.924  0.5500 -0.1735  0.0538
  823MOL0     C13463   2.658  10.292   8.899 -0.3046  0.8537 -0.6397
  823MOL0     C13464   2.617  10.301   8.754  0.8477 -0.4833 -0.1512
  823MOL0     C13465   2.559  10.249   8.990 -0.1428 -0.4536  0.5520
  823MOL0     C13466   2.407  10.240   8.975 -1.3161 -0.0089  0.4855
  823MOL0     O13467   2.355  10.149   9.062 -1.0711  0.3344  0.0306
  823MOL0     C13468   2.221  10.126   9.059  0.4867 -0.4230 -0.3753
  823MOL0     C13469   2.142  10.170   9.166  0.2401 -0.4811 -0.1126
  823MOL0     C13470   2.002  10.148   9.170 -0.0261 -0.1062  0.3464
  823MOL0     C13471   1.941  10.095   9.048  0.1441 -0.0868 -0.5093
  823MOL0     O13472   1.805  10.079   9.022  0.5424 -0.6851 -0.3654
  823MOL0     C13473   1.709  10.127   9.118  0.5499  0.6501 -0.1871
  823MOL0     C13474   1.577  10.117   9.042  0.2426  0.9270  0.5290
  823MOL0     C13475   1.466  10.161   9.131 -1.1958  0.2825  0.0169
  823MOL0     C13476   1.338  10.116   9.062 -1.0383  0.2011 -0.1133
  823MOL0     C13477   1.211  10.170   9.131  0.6574 -0.2742  0.9449
  823MOL0     C13478   1.076  10.114   9.067 -0.2350 -0.8655 -0.2712
  823MOL0     C13479   1.051   9.966   9.080 -0.0677 -0.0315 -0.5629
  823MOL0     C13480   0.909   9.925   9.089  0.7971  0.3082 -0.4693
  823MOL0    Cl13481   0.882   9.750   9.069 -0.0295  0.3086  0.8955
  823MOL0     C13482   2.012  10.056   8.943 -0.4338  0.2358  0.8324
  823MOL0     C13483   2.155  10.064   8.950  0.9525 -0.3358  0.3306
  823MOL0     O13484   2.346  10.302   8.888  0.7404 -0.1116 -0.3546
  823MOL0     C13485   2.608  10.212   9.117  0.7838 -1.0580  0.1452
  823MOL0     C13486   2.739  10.218   9.153  0.0496 -0.6777 -0.1596
  823MOL0     N13487   3.318  10.108   9.537  0.8086  0.9605 -0.1083
  823MOL0     N13488   3.422  10.064   9.596  0.4309 -0.2000  0.5629
  823MOL0     C13489   3.826  10.024  10.559 -0.2077 -0.2883 -0.0890
  823MOL0     C13490   3.876  10.137  10.624  0.3181 -0.0578  0.6511
  823MOL0     C13491   4.053  10.464  10.809 -0.5096 -0.2850  0.5565
  823MOL0     C13492   4.150  10.522  10.887  0.2892 -0.3454 -0.2208
  823MOL0     C13493   4.172  10.660  10.881  0.1928  0.0815 -0.5769
  823MOL0     C13494   4.089  10.738  10.799  0.4138 -0.4592  0.1842
  823MOL0     O13495   4.085  10.877  10.787 -0.0573 -0.4476  0.2518
  823MOL0     C13496   4.202  10.941  10.833 -0.5621  0.1546 -0.1161
  823MOL0     C13497   4.187  10.988  10.976  0.7058 -0.2139  0.0359
  823MOL0     C13498   4.065  11.075  10.997  0.2935 -0.0866  0.0786
  823MOL0     C13499   4.093  11.230  11.023 -0.4702  0.0676  0.6389
  823MOL0     C13500   3.959  11.282  11.002  0.6764  0.2459 -0.0127
  823MOL0     C13501   3.837  11.319  10.998 -0.2500  0.2037  0.0113
  823MOL0     C13502   3.983  10.680  10.732 -0.1848  0.0459 -0.1790
  823MOL0     C13503   3.962  10.541  10.733 -0.4700 -0.2928 -0.7972
  823MOL0     C13504   3.834  10.489  10.665 -1.0864  0.6463 -0.4178
  823MOL0     H13505   3.865  10.055  10.944 -0.1851 -2.9722  1.2162
  823MOL0     H13506   3.781   9.831  10.838  2.1822 -1.4162 -1.1851
  823MOL0     H13507   3.651   9.692  10.445  2.3007 -0.1739 -1.0650
  823MOL0     H13508   3.772   9.807  10.393 -0.7448  0.8235 -1.4271
  823MOL0     H13509   3.515   9.904  10.509  1.1540  6.7735 -0.3342
  823MOL0     H13510   3.612   9.991  10.405  0.8153 -0.0755  1.8066
  823MOL0     H13511   3.435   9.764  10.312 -0.0729  0.1257 -1.5930
  823MOL0     H13512   3.401   9.924  10.291  1.2330  1.6622 -1.2522
  823MOL0     H13513   3.566   9.959  10.126  0.0594 -0.4289 -3.0363
  823MOL0     H13514   3.665   9.815  10.169  0.1818  0.6029 -1.0558
  823MOL0     H13515   3.380   9.814  10.071  0.9243  2.8857  1.0758
  823MOL0     H13516   3.475   9.669  10.121 -0.9014  0.2320  1.1398
  823MOL0     H13517   3.631   9.815   9.931 -0.9035  0.1022  1.2908
  823MOL0     H13518   3.548   9.665   9.883  0.2138 -0.4433 -0.5099
  823MOL0     H13519   3.437   9.952   9.868 -1.2207 -0.1200 -1.4607
  823MOL0     H13520   3.350   9.808   9.816 -0.1331  1.1988  0.4739
  823MOL0     H13521   3.606   9.920   9.697  1.1505 -1.4991  0.4418
  823MOL0     H13522   3.538   9.767   9.649  1.1876  0.7757 -2.3010
  823MOL0     H13523   3.253   9.792   9.561  0.6758  0.5605 -1.6402
  823MOL0     H13524   3.042  10.094   9.464 -0.1363  0.7086  1.8774
  823MOL0     H13525   3.031   9.923   9.467 -0.9532  0.2269 -0.3201
  823MOL0     H13526   3.216  10.033   9.262 -0.8000 -1.6469 -1.7214
  823MOL0     H13527   3.131   9.890   9.258 -2.2996  1.8906 -3.6422
  823MOL0     H13528   3.014  10.025   9.118  2.5444 -1.8380  0.7318
  823MOL0     H13529   2.911  10.040   9.272  0.2104 -0.3231 -0.1212
  823MOL0     H13530   3.011  10.274   9.291 -0.0521  2.3930 -0.1642
  823MOL0     H13531   3.131  10.204   9.190 -0.1135 -1.3522  0.3583
  823MOL0     H13532   2.870  10.313   8.849  1.1697  1.9716  1.2964
  823MOL0     H13533   2.692  10.358   8.698  2.5630 -2.1670  0.3014
  823MOL0     H13534   2.520  10.346   8.731  0.0068 -1.9984  0.2881
  823MOL0     H13535   2.614  10.203   8.705  1.0922  0.5911 -2.4115
  823MOL0     H13536   2.191  10.224   9.246 -1.3804 -1.0930  1.3450
  823MOL0     H13537   1.946  10.184   9.255 -0.3111  1.9038 -0.6439
  823MOL0     H13538   1.705  10.058   9.202 -0.4227  3.3102  2.1189
  823MOL0     H13539   1.722  10.231   9.150 -1.8228  1.0859 -0.4299
  823MOL0     H13540   1.582  10.184   8.955  1.0357 -1.2920 -1.2250
  823MOL0     H13541   1.568  10.011   9.019  1.7826  0.1566  3.0149
  823MOL0     H13542   1.485  10.268   9.140  1.6723 -0.0755 -0.7501
  823MOL0     H13543   1.485  10.108   9.225  0.3244  0.3469 -0.2294
  823MOL0     H13544   1.324  10.007   9.065 -2.1894  0.2996 -1.0531
  823MOL0     H13545   1.340  10.159   8.961  0.5914  2.2067  0.7094
  823MOL0     H13546   1.208  10.136   9.235  2.7461 -0.8207  0.8769
  823MOL0     H13547   1.214  10.279   9.139  2.6272 -0.0213 -1.6271
  823MOL0     H13548   1.073  10.138   8.960 -1.2772  1.2129  0.1747
  823MOL0     H13549   0.993  10.172   9.109  1.4835  1.1379  0.5463
  823MOL0     H13550   1.101   9.932   9.171 -3.8826 -1.5122  1.1701
  823MOL0     H13551   1.091   9.930   8.985 -0.2601  1.5125 -1.2600
  823MOL0     H13552   0.857   9.978   9.007  1.9889 -1.7784 -2.7122
  823MOL0     H13553   0.863   9.953   9.184  0.5119  1.8556 -1.0161
  823MOL0     H13554   1.969  10.016   8.852  0.6107  0.2007  0.3321
  823MOL0     H13555   2.209  10.027   8.863  2.4593 -0.0490  1.1024
  823MOL0     H13556   2.533  10.186   9.191 -1.0238 -1.8918 -1.8896
  823MOL0     H13557   2.766  10.199   9.256  2.0417  2.0163 -0.0757
  823MOL0     H13558   3.806  10.033  10.453 -3.5452  0.6032  0.5019
  823MOL0     H13559   3.908  10.213  10.553  0.7325 -0.7336  0.0972
  823MOL0     H13560   4.209  10.462  10.956 -2.4384 -2.2407  0.6700
  823MOL0     H13561   4.251  10.699  10.944 -0.7188 -1.9310  1.9764
  823MOL0     H13562   4.294  10.884  10.818 -0.2302  0.0721  1.9655
  823MOL0     H13563   4.223  11.027  10.769  1.4277 -0.9558 -1.0443
  823MOL0     H13564   4.277  11.032  11.019  1.4331 -2.5211  1.0213
  823MOL0     H13565   4.184  10.890  11.025  2.2974  0.1040  0.8455
  823MOL0     H13566   4.000  11.057  10.910  1.3168 -2.0943 -0.3216
  823MOL0     H13567   4.014  11.044  11.088  0.9329  0.1722  0.5309
  823MOL0     H13568   4.163  11.267  10.947 -1.8441  0.9694 -0.2373
  823MOL0     H13569   4.140  11.237  11.121  4.1594  0.0960 -1.3378
  823MOL0     H13570   3.733  11.344  11.001 -0.3543 -0.3443  1.3850
  823MOL0     H13571   3.908  10.747  10.689 -1.1965 -1.5424 -0.9724
  823MOL0     H13572   3.798  10.566  10.596 -0.8940  0.2017 -1.0183
  823MOL0     H13573   3.842  10.398  10.605  1.9357  0.9234 -0.5865
  823MOL0     H13574   3.757  10.481  10.742 -1.1093  1.5017 -0.3392
  824MOL0     O13575   4.783   8.159   8.219  0.2145  0.9557 -0.2373
  824MOL0     C13576   4.753   8.099   8.326  0.3131  0.4036  0.6588
  824MOL0     O13577   4.624   8.090   8.364 -0.6213 -0.3690 -0.4985
  824MOL0     C13578   4.525   8.158   8.302 -0.0695  0.0043  0.3949
  824MOL0     C13579   4.513   8.290   8.321  0.0810 -0.5611 -0.3634
  824MOL0     C13580   4.402   8.359   8.273  0.2243  0.5538  0.4877
  824MOL0     C13581   4.320   8.299   8.173  1.1208 -0.0958 -0.0798
  824MOL0     O13582   4.222   8.378   8.129  0.6545  0.3020 -0.8393
  824MOL0     C13583   4.171   8.358   7.997 -0.2009  0.2523 -0.8588
  824MOL0     C13584   4.099   8.483   7.939 -0.3893  0.9271  0.2552
  824MOL0     C13585   4.037   8.445   7.813  0.4140 -0.5295  0.5772
  824MOL0     C13586   3.962   8.562   7.746  0.0708 -0.0923  0.0275
  824MOL0     C13587   3.940   8.530   7.601 -0.1502  0.4113  0.1250
  824MOL0     C13588   3.835   8.419   7.568 -0.9086  0.3817 -0.2722
  824MOL0     C13589   3.896   8.279   7.568 -0.6423  0.3817  0.7847
  824MOL0     C13590   3.809   8.176   7.490 -0.2116  0.5703 -0.4830
  824MOL0     N13591   3.706   8.128   7.585  0.2736  0.3098  0.7288
  824MOL0     C13592   3.686   7.997   7.632 -0.0453 -0.2923 -0.5842
  824MOL0     C13593   3.563   8.000   7.685  0.7938 -0.5432  0.5681
  824MOL0     C13594   3.504   7.882   7.757 -0.0104  0.1943  0.5968
  824MOL0     C13595   3.343   7.901   7.755 -0.3955  0.7858 -0.3692
  824MOL0     C13596   3.281   7.777   7.815  0.6691 -0.2178 -0.5886
  824MOL0     C13597   3.132   7.788   7.824 -0.6087  0.1625 -0.9746
  824MOL0     O13598   3.093   7.805   7.692  0.4392  0.8694 -0.3248
  824MOL0     C13599   2.973   7.759   7.656 -1.3591 -0.1065  0.2698
  824MOL0     C13600   2.879   7.694   7.729 -0.1027  0.4099 -0.6331
  824MOL0     C13601   2.763   7.646   7.677 -0.1539  0.2279 -0.2122
  824MOL0     C13602   2.652   7.589   7.775  0.2810 -0.4301  0.4802
  824MOL0     C13603   2.741   7.657   7.541 -0.6874 -1.5061 -0.7930
  824MOL0     C13604   2.623   7.607   7.465  1.1185 -0.2989 -0.5073
  824MOL0     O13605   2.650   7.586   7.335  0.8726 -0.4221  0.1834
  824MOL0     C13606   2.542   7.563   7.247  0.2982 -0.7725 -0.1991
  824MOL0     C13607   2.514   7.447   7.183 -0.0589 -0.1789  0.1184
  824MOL0     C13608   2.403   7.436   7.097  0.6205 -0.9608  0.1478
  824MOL0     C13609   2.316   7.537   7.076  0.9354 -0.4198  1.2232
  824MOL0     O13610   2.207   7.499   7.009  0.4127 -0.4539  0.2806
  824MOL0     C13611   2.134   7.608   6.943 -0.5474 -0.3622  0.2618
  824MOL0     C13612   2.069   7.553   6.810 -0.3851 -0.0896 -0.3807
  824MOL0     C13613   2.170   7.516   6.699 -0.2378 -0.5284  0.2318
  824MOL0     C13614   2.163   7.624   6.591 -0.3923  0.6050  0.6943
  824MOL0     C13615   2.242   7.568   6.464 -0.1564  0.8424  0.4871
  824MOL0     C13616   2.235   7.663   6.354  0.5665  0.1243  0.4543
  824MOL0     C13617   2.198   7.607   6.219 -0.4014 -0.2928  0.3017
  824MOL0     C13618   2.166   7.713   6.118  0.6499 -0.1433 -0.6942
  824MOL0    Cl13619   2.061   7.651   5.991 -0.2654  0.4273 -0.7159
  824MOL0     C13620   2.339   7.659   7.142 -0.1771  0.3483 -0.5247
  824MOL0     C13621   2.452   7.672   7.225 -0.0834  0.3205 -0.8078
  824MOL0     O13622   2.512   7.619   7.514 -0.2052 -0.4678 -0.1172
  824MOL0     C13623   2.841   7.722   7.463 -0.1194 -0.0048 -0.8857
  824MOL0     C13624   2.959   7.760   7.514  0.2564  0.7894 -0.7336
  824MOL0     N13625   3.518   8.136   7.680  0.1286 -0.1650  0.6086
  824MOL0     N13626   3.603   8.214   7.619  0.0645 -0.2819 -1.4718
  824MOL0     C13627   4.335   8.159   8.144 -0.4711  1.0361  0.0467
  824MOL0     C13628   4.435   8.089   8.209 -0.0582 -0.4130  0.0978
  824MOL0     C13629   4.856   8.034   8.411  0.3386  0.3191  0.1205
  824MOL0     C13630   4.986   8.005   8.355 -0.1023 -0.3074 -0.1932
  824MOL0     C13631   5.097   7.967   8.427  1.0009 -0.2895  0.1732
  824MOL0     C13632   5.093   7.946   8.564  0.7256 -0.7058 -0.2512
  824MOL0     O13633   5.199   7.892   8.640 -0.2569 -0.3662 -0.1711
  824MOL0     C13634   5.324   7.853   8.584  0.4881  0.5372  0.1220
  824MOL0     C13635   5.403   7.801   8.705  0.2531  0.0550 -0.0320
  824MOL0     C13636   5.424   7.900   8.839  0.2543  0.6217 -0.4926
  824MOL0     C13637   5.476   8.043   8.822  0.1757 -0.3419 -0.3549
  824MOL0     C13638   5.527   8.098   8.944 -0.6399  0.3350 -0.0038
  824MOL0     C13639   5.584   8.154   9.031  0.5007 -0.1821 -0.8157
  824MOL0     C13640   4.961   7.956   8.618  0.1012 -0.9661 -0.6168
  824MOL0     C13641   4.845   7.998   8.550  0.6084  0.0339  0.4390
  824MOL0     C13642   4.722   8.023   8.630  0.2523  0.9080  0.3369
  824MOL0     H13643   4.575   8.351   8.387 -1.0017  0.8269 -0.5782
  824MOL0     H13644   4.401   8.464   8.301  2.5544  0.7928 -0.0475
  824MOL0     H13645   4.092   8.283   8.010  1.3657 -1.6383 -1.6215
  824MOL0     H13646   4.250   8.319   7.932  0.5728  2.7628 -1.5297
  824MOL0     H13647   4.031   8.528   8.012 -1.4619 -0.9173  0.4470
  824MOL0     H13648   4.175   8.558   7.914 -0.1484  0.7511  0.4572
  824MOL0     H13649   4.116   8.408   7.747 -2.1159 -3.1975 -1.1868
  824MOL0     H13650   3.966   8.364   7.828  0.7979 -0.9600  0.1227
  824MOL0     H13651   3.865   8.569   7.797  0.3190  4.7453  0.2751
  824MOL0     H13652   4.005   8.662   7.748  3.6305 -1.4803  1.3824
  824MOL0     H13653   4.030   8.500   7.548 -0.1178  2.1761 -0.8811
  824MOL0     H13654   3.900   8.615   7.545 -1.5611 -0.2616  0.0651
  824MOL0     H13655   3.764   8.412   7.651  0.6740  0.5183  1.1555
  824MOL0     H13656   3.782   8.431   7.473  0.0493  0.3567 -0.8240
  824MOL0     H13657   3.897   8.252   7.674  0.1587 -1.2096  0.4151
  824MOL0     H13658   3.992   8.283   7.516  0.6094  2.4482  3.0936
  824MOL0     H13659   3.764   8.212   7.398  0.8291  0.2925 -1.1138
  824MOL0     H13660   3.886   8.103   7.462  0.5568  0.7193  1.1183
  824MOL0     H13661   3.762   7.922   7.614  0.9300  0.5665 -0.1383
  824MOL0     H13662   3.529   7.865   7.862  0.6635 -1.9584  0.1252
  824MOL0     H13663   3.518   7.786   7.708  0.9897  1.6185 -2.0902
  824MOL0     H13664   3.316   7.987   7.817 -1.8195 -0.4570  0.8087
  824MOL0     H13665   3.309   7.903   7.651  3.5817  0.9144 -1.8487
  824MOL0     H13666   3.309   7.690   7.755 -1.5616 -0.9287 -0.6774
  824MOL0     H13667   3.314   7.762   7.918 -1.5071  0.8759  0.3348
  824MOL0     H13668   3.078   7.707   7.875 -1.2392  0.2805 -1.4411
  824MOL0     H13669   3.102   7.881   7.872  1.8123  0.5418 -0.0435
  824MOL0     H13670   2.889   7.704   7.837 -0.2541 -1.7966 -0.3755
  824MOL0     H13671   2.600   7.511   7.719 -1.2995  2.2092 -1.9808
  824MOL0     H13672   2.566   7.655   7.788  1.0365  0.5227  0.7512
  824MOL0     H13673   2.693   7.560   7.872 -1.4414  1.1975  1.7858
  824MOL0     H13674   2.577   7.363   7.210 -0.1234 -0.3384 -0.2199
  824MOL0     H13675   2.386   7.339   7.051  0.4960 -1.3290  0.9499
  824MOL0     H13676   2.062   7.655   7.011 -0.5957  3.0964 -1.8745
  824MOL0     H13677   2.194   7.693   6.908 -0.4651 -0.8385 -0.8179
  824MOL0     H13678   2.012   7.464   6.840 -2.0419  1.0109 -0.1229
  824MOL0     H13679   1.995   7.630   6.785  0.3888  0.4003 -1.1959
  824MOL0     H13680   2.136   7.422   6.654  1.2918 -0.9732 -0.0264
  824MOL0     H13681   2.273   7.512   6.733  1.6109  1.7570 -4.3072
  824MOL0     H13682   2.215   7.716   6.621 -1.2061  1.6889 -1.0778
  824MOL0     H13683   2.058   7.641   6.569 -0.3781  0.7972  0.7669
  824MOL0     H13684   2.344   7.559   6.502  0.2754  1.8440 -0.3836
  824MOL0     H13685   2.213   7.466   6.437  2.6325 -0.1063  0.7104
  824MOL0     H13686   2.336   7.701   6.339  0.9666 -1.4820 -1.2446
  824MOL0     H13687   2.181   7.754   6.379  0.2776  0.3439 -0.9024
  824MOL0     H13688   2.120   7.532   6.232 -0.7449 -0.2576 -1.3235
  824MOL0     H13689   2.288   7.553   6.189 -2.0719 -2.8694 -0.4358
  824MOL0     H13690   2.260   7.743   6.071 -0.0285  0.3895 -1.7542
  824MOL0     H13691   2.130   7.803   6.169  3.8478 -0.0059  1.6042
  824MOL0     H13692   2.270   7.741   7.129 -0.8997 -0.2230 -0.4007
  824MOL0     H13693   2.463   7.773   7.265 -1.5488  0.4437 -0.6704
  824MOL0     H13694   2.834   7.728   7.355  0.0038 -1.9330 -1.0316
  824MOL0     H13695   3.038   7.803   7.453  0.4458  1.5742  0.0431
  824MOL0     H13696   4.268   8.109   8.075  1.5784  0.0461 -1.3604
  824MOL0     H13697   4.456   7.983   8.199  1.0302 -0.1027 -1.2543
  824MOL0     H13698   5.018   8.037   8.257  1.8224  1.5574  0.9330
  824MOL0     H13699   5.185   7.934   8.371  2.2616  0.4615  1.6341
  824MOL0     H13700   5.303   7.768   8.519 -4.1590  1.3427  0.2692
  824MOL0     H13701   5.376   7.923   8.517 -0.4293  0.5033 -0.6320
  824MOL0     H13702   5.505   7.777   8.675  0.6084  2.7433 -1.2620
  824MOL0     H13703   5.350   7.711   8.737 -3.4707  0.7041 -3.6101
  824MOL0     H13704   5.331   7.902   8.897  1.3840 -3.1104  1.8054
  824MOL0     H13705   5.501   7.850   8.898  2.0958  2.8743 -0.8818
  824MOL0     H13706   5.409   8.110   8.766 -1.5870 -2.2854 -0.6856
  824MOL0     H13707   5.565   8.034   8.758  0.2532 -2.3435 -0.0302
  824MOL0     H13708   5.629   8.202   9.115 -0.5524  3.5785 -2.1600
  824MOL0     H13709   4.953   7.927   8.723 -3.6452 -0.5397 -0.6623
  824MOL0     H13710   4.731   7.980   8.730 -0.9597  0.4334  0.2622
  824MOL0     H13711   4.694   8.129   8.631  0.9935  1.1591 -1.4360
  824MOL0     H13712   4.641   7.960   8.591  0.3324  0.3286  1.0767
  825MOL0     O13713   9.029   7.971   4.034 -0.3093  0.2748 -0.3865
  825MOL0     C13714   9.112   7.878   4.039  0.0862  0.2462  0.0267
  825MOL0     O13715   9.207   7.866   4.142  0.5135  0.1414 -0.2216
  825MOL0     C13716   9.242   7.973   4.218 -0.5664 -0.2447 -0.5064
  825MOL0     C13717   9.379   7.988   4.244  0.5103  0.3968  0.1634
  825MOL0     C13718   9.426   8.093   4.327 -0.5569 -0.0722 -0.2381
  825MOL0     C13719   9.351   8.204   4.368 -0.2933  0.6062 -0.4160
  825MOL0     O13720   9.396   8.311   4.441  0.3054 -0.8173  0.2289
  825MOL0     C13721   9.535   8.343   4.456 -0.2569 -0.1034  0.3794
  825MOL0     C13722   9.555   8.426   4.578  0.0467  0.4067 -1.0494
  825MOL0     C13723   9.493   8.563   4.581 -0.1625  0.6542  0.7916
  825MOL0     C13724   9.370   8.591   4.668 -0.2950  0.0564  0.1071
  825MOL0     C13725   9.328   8.737   4.666  1.3141  0.1320 -1.0199
  825MOL0     C13726   9.257   8.773   4.538  0.7936  0.5705  0.3848
  825MOL0     C13727   9.112   8.800   4.556 -0.2343 -0.1193 -0.3546
  825MOL0     C13728   9.073   8.927   4.634  0.4296  0.1130 -0.0695
  825MOL0     N13729   9.129   9.055   4.595  0.5030  0.5363 -0.6044
  825MOL0     C13730   9.095   9.123   4.483 -0.5357 -0.4437  0.6218
  825MOL0     C13731   9.112   9.251   4.516 -0.0137 -0.0119 -0.3281
  825MOL0     C13732   9.096   9.363   4.420 -1.4628  0.2892  0.1799
  825MOL0     C13733   9.235   9.412   4.362 -0.2127 -0.3829 -0.6793
  825MOL0     C13734   9.240   9.538   4.283  0.0193  0.5653 -0.1183
  825MOL0     C13735   9.384   9.584   4.276  0.1722  0.0602  0.2156
  825MOL0     O13736   9.493   9.494   4.245  0.7436  0.5611  0.1684
  825MOL0     C13737   9.511   9.432   4.128 -0.1758  0.3443  0.7827
  825MOL0     C13738   9.451   9.460   4.002 -0.3104  0.4006 -1.1994
  825MOL0     C13739   9.493   9.401   3.884  0.6462  0.1207  0.4496
  825MOL0     C13740   9.407   9.429   3.760  0.1233 -0.4081 -0.2023
  825MOL0     C13741   9.588   9.296   3.881 -0.1298 -0.1207  0.2086
  825MOL0     C13742   9.632   9.216   3.761 -0.9593  0.2214  0.0212
  825MOL0     O13743   9.691   9.102   3.794 -0.8830 -0.4954  0.2073
  825MOL0     C13744   9.760   9.043   3.689 -0.8203 -0.2000  1.4657
  825MOL0     C13745   9.704   8.959   3.590 -0.0923 -0.5896  1.4293
  825MOL0     C13746   9.791   8.895   3.494  0.0868 -0.1983 -0.3419
  825MOL0     C13747   9.930   8.910   3.498 -0.8856 -0.0333 -0.7544
  825MOL0     O13748  10.008   8.836   3.409 -0.2038 -0.0376 -0.7271
  825MOL0     C13749  10.142   8.854   3.398  0.6385  0.4392  1.0796
  825MOL0     C13750  10.216   8.760   3.494  1.1418  0.1320 -0.3096
  825MOL0     C13751  10.166   8.612   3.490  0.7750 -0.3009  0.1635
  825MOL0     C13752  10.125   8.574   3.347 -0.3044 -0.4331  0.4462
  825MOL0     C13753  10.149   8.424   3.326 -0.3999 -0.1093  0.0092
  825MOL0     C13754  10.080   8.324   3.426  0.1755  0.2328  0.3159
  825MOL0     C13755  10.093   8.181   3.372  0.4839  0.1464  0.4262
  825MOL0     C13756  10.012   8.086   3.454  0.6659  0.3581  1.3660
  825MOL0    Cl13757   9.996   7.937   3.363 -0.4947  0.0268  0.3360
  825MOL0     C13758   9.979   9.003   3.596 -0.7395  0.0272  0.0430
  825MOL0     C13759   9.895   9.068   3.683 -0.0364  0.1789 -0.1360
  825MOL0     O13760   9.596   9.258   3.643  0.0272 -0.4521  0.0288
  825MOL0     C13761   9.658   9.275   4.007  0.1862  0.0996 -0.3343
  825MOL0     C13762   9.616   9.340   4.127 -2.2632 -0.8733 -0.2939
  825MOL0     N13763   9.156   9.266   4.647 -0.0133  0.7728  0.3956
  825MOL0     N13764   9.164   9.139   4.691  0.4061 -0.8464  0.0655
  825MOL0     C13765   9.220   8.188   4.347  0.6899  1.2016  0.5248
  825MOL0     C13766   9.162   8.075   4.272  0.2142  1.1055  0.0801
  825MOL0     C13767   9.100   7.758   3.947  0.3534 -0.1808 -0.1872
  825MOL0     C13768   9.219   7.672   3.929 -0.7582 -0.4132 -0.3980
  825MOL0     C13769   9.229   7.570   3.838 -1.1195 -1.2717 -1.0385
  825MOL0     C13770   9.132   7.542   3.746  0.2545 -0.2861  1.1198
  825MOL0     O13771   9.140   7.435   3.656 -0.3015 -0.6226  0.4968
  825MOL0     C13772   9.116   7.304   3.704 -0.1144 -0.1595  0.2549
  825MOL0     C13773   8.966   7.280   3.720 -0.5857 -0.8220 -0.0223
  825MOL0     C13774   8.889   7.299   3.584  0.0302  1.6314 -0.5525
  825MOL0     C13775   8.749   7.230   3.594 -0.5650  0.5686 -0.0509
  825MOL0     C13776   8.684   7.222   3.462  0.1337  0.1322  0.0099
  825MOL0     C13777   8.618   7.213   3.354 -0.1286 -0.0726 -0.5940
  825MOL0     C13778   9.019   7.626   3.756 -0.2886  0.1972  0.7245
  825MOL0     C13779   8.999   7.726   3.851 -0.0330  0.7386 -0.0133
  825MOL0     C13780   8.861   7.784   3.858 -0.5852  0.0069  0.8075
  825MOL0     H13781   9.441   7.913   4.198  0.0239 -0.6111  1.1060
  825MOL0     H13782   9.534   8.096   4.334 -0.4992 -2.7872  1.2874
  825MOL0     H13783   9.549   8.396   4.362 -0.8794 -0.8928 -0.1751
  825MOL0     H13784   9.610   8.265   4.441  0.6137  1.4539 -6.6730
  825MOL0     H13785   9.526   8.375   4.670  0.1016 -0.2659 -1.3997
  825MOL0     H13786   9.664   8.424   4.580  0.0637 -2.7775 -1.0780
  825MOL0     H13787   9.570   8.635   4.608  3.8956 -2.4298 -1.4591
  825MOL0     H13788   9.474   8.582   4.475  0.4972 -0.6056  0.4248
  825MOL0     H13789   9.277   8.542   4.636 -1.4273 -0.3483  3.5251
  825MOL0     H13790   9.399   8.566   4.771 -1.4978 -0.0854  0.4229
  825MOL0     H13791   9.418   8.796   4.683  1.1488 -0.0468  0.6230
  825MOL0     H13792   9.259   8.756   4.748  0.3161  0.2747 -1.8704
  825MOL0     H13793   9.293   8.872   4.509  3.9102 -1.4173 -3.4768
  825MOL0     H13794   9.277   8.703   4.456  0.5785  0.2932  0.5682
  825MOL0     H13795   9.062   8.713   4.599 -2.1052  0.8742 -0.3872
  825MOL0     H13796   9.063   8.809   4.459 -0.7771  0.3484 -0.0522
  825MOL0     H13797   8.965   8.936   4.622  0.2634 -1.4350 -0.0308
  825MOL0     H13798   9.089   8.915   4.742 -0.8332 -0.1886  0.1001
  825MOL0     H13799   9.071   9.073   4.390  2.4984  0.1450 -0.5769
  825MOL0     H13800   9.039   9.438   4.476 -5.0334 -1.1893 -1.1731
  825MOL0     H13801   9.041   9.334   4.331  0.6020 -1.1562 -0.7015
  825MOL0     H13802   9.306   9.420   4.445  3.7887 -3.3361 -3.4220
  825MOL0     H13803   9.275   9.321   4.316  1.2535 -0.8132  1.3039
  825MOL0     H13804   9.208   9.515   4.181  1.4737 -3.3689  0.1542
  825MOL0     H13805   9.176   9.615   4.328 -3.3952 -1.8027 -0.4632
  825MOL0     H13806   9.389   9.666   4.204 -0.0549 -1.4838 -1.6153
  825MOL0     H13807   9.406   9.642   4.367 -3.0493  1.8817 -0.0218
  825MOL0     H13808   9.371   9.533   4.012 -1.5321 -1.1894  2.8451
  825MOL0     H13809   9.377   9.340   3.705 -0.7332 -2.9340  3.9404
  825MOL0     H13810   9.480   9.496   3.712  1.2199 -0.3268  1.4827
  825MOL0     H13811   9.311   9.476   3.782 -0.2599 -0.5355 -1.5510
  825MOL0     H13812   9.597   8.940   3.601  0.1776 -2.1952  1.5352
  825MOL0     H13813   9.749   8.816   3.432 -1.4976  0.3258  0.0336
  825MOL0     H13814  10.182   8.829   3.300  2.2570 -0.1729  1.8615
  825MOL0     H13815  10.169   8.959   3.416 -0.8316  1.0615 -0.1072
  825MOL0     H13816  10.325   8.771   3.488  1.5804 -3.0953 -0.0842
  825MOL0     H13817  10.192   8.796   3.594  3.1565  2.2424 -0.5209
  825MOL0     H13818  10.082   8.604   3.560  2.0842 -2.6575  1.5796
  825MOL0     H13819  10.254   8.552   3.517  0.4741 -0.8351 -0.0241
  825MOL0     H13820  10.178   8.628   3.268 -0.6524 -3.0367 -1.6990
  825MOL0     H13821  10.016   8.580   3.346 -0.4364 -0.7565  3.3624
  825MOL0     H13822  10.099   8.409   3.230 -2.0804  0.2907  0.7873
  825MOL0     H13823  10.254   8.393   3.335 -0.6652 -0.8244  0.7836
  825MOL0     H13824   9.975   8.355   3.427 -0.7382 -2.5496  0.6098
  825MOL0     H13825  10.116   8.349   3.526  1.4375  2.6981 -0.6652
  825MOL0     H13826  10.196   8.144   3.365  0.9376  1.1750  1.3198
  825MOL0     H13827  10.046   8.177   3.274 -1.0809  3.1413  0.9564
  825MOL0     H13828   9.912   8.129   3.466 -0.7217 -3.2523  5.4411
  825MOL0     H13829  10.048   8.069   3.556  0.9238  0.7043  1.3334
  825MOL0     H13830  10.085   9.027   3.599 -0.2270 -2.1518  0.6979
  825MOL0     H13831   9.939   9.139   3.752  2.6644 -0.8760 -0.6435
  825MOL0     H13832   9.742   9.207   4.012  2.7939  3.1508  0.7681
  825MOL0     H13833   9.671   9.334   4.221 -1.2853  2.0315 -0.6075
  825MOL0     H13834   9.146   8.259   4.382  1.6871  2.7896 -0.4525
  825MOL0     H13835   9.056   8.066   4.252  0.3522  0.1824 -0.3028
  825MOL0     H13836   9.309   7.693   3.986 -1.0320  1.7211 -0.6581
  825MOL0     H13837   9.323   7.516   3.834  1.0458  2.2696 -1.5633
  825MOL0     H13838   9.153   7.235   3.627 -0.0278  2.3936 -2.1472
  825MOL0     H13839   9.175   7.287   3.795  3.2296  0.5399 -1.6013
  825MOL0     H13840   8.918   7.340   3.797  0.4224 -1.6202  1.2688
  825MOL0     H13841   8.969   7.179   3.763  1.1152 -1.0850 -0.6828
  825MOL0     H13842   8.880   7.407   3.566  1.0975  1.7413 -0.5250
  825MOL0     H13843   8.959   7.261   3.509  1.6426  3.0399  0.1703
  825MOL0     H13844   8.687   7.287   3.665  0.1528 -0.1311  1.1729
  825MOL0     H13845   8.764   7.129   3.632  1.1119  0.2247 -1.5402
  825MOL0     H13846   8.568   7.193   3.261 -0.4771 -0.9715 -0.2144
  825MOL0     H13847   8.935   7.611   3.688  0.2192  0.4366  0.0367
  825MOL0     H13848   8.783   7.721   3.814  2.4146 -2.4897 -1.4776
  825MOL0     H13849   8.841   7.788   3.965 -3.3811 -2.1048  0.4663
  825MOL0     H13850   8.870   7.888   3.824  2.7436 -0.0124  1.3042
  826MOL0     O13851  10.319   8.664  10.547 -0.4595 -0.2790 -0.3218
  826MOL0     C13852  10.302   8.697  10.669 -0.1732 -0.3977 -0.5829
  826MOL0     O13853  10.219   8.645  10.757 -0.3395  0.2330 -0.0629
  826MOL0     C13854  10.166   8.527  10.721 -0.0653  1.1140  0.3046
  826MOL0     C13855  10.089   8.509  10.602 -0.5341 -0.3225 -0.0575
  826MOL0     C13856  10.023   8.385  10.579  0.0100 -0.7298  0.2517
  826MOL0     C13857  10.043   8.274  10.651 -0.0126  0.4644 -0.7068
  826MOL0     O13858  10.002   8.146  10.626  0.3236  0.0053  0.0021
  826MOL0     C13859   9.995   8.115  10.487 -0.6317 -0.4276 -0.5113
  826MOL0     C13860   9.916   7.989  10.464 -0.6973  0.4491  0.1214
  826MOL0     C13861   9.770   7.987  10.511  0.1909 -0.4742  1.0306
  826MOL0     C13862   9.707   7.849  10.473 -0.3021 -0.2327  0.1403
  826MOL0     C13863   9.577   7.837  10.565 -0.2615  1.4768 -0.1724
  826MOL0     C13864   9.459   7.914  10.517  1.1125 -0.2053  0.6866
  826MOL0     C13865   9.327   7.872  10.587 -0.0090  0.2627 -0.4701
  826MOL0     C13866   9.214   7.980  10.590 -0.3041  0.1307 -0.7500
  826MOL0     N13867   9.189   8.035  10.460  0.5940 -0.4535 -0.6234
  826MOL0     C13868   9.268   8.148  10.420  0.8084  0.7183  0.5644
  826MOL0     C13869   9.241   8.153  10.287  0.4742  1.6317  0.4188
  826MOL0     C13870   9.312   8.223  10.173 -0.5198  0.1981 -0.3253
  826MOL0     C13871   9.292   8.382  10.194 -0.1163 -0.3736 -0.1052
  826MOL0     C13872   9.362   8.445  10.314  1.0140 -0.2366  0.1775
  826MOL0     C13873   9.505   8.463  10.283  0.8217  0.3991 -0.2931
  826MOL0     O13874   9.570   8.339  10.282 -0.1831  0.2650  0.2909
  826MOL0     C13875   9.700   8.323  10.240 -0.0497  0.4068  0.1897
  826MOL0     C13876   9.795   8.427  10.253 -0.9880  0.2497 -0.4124
  826MOL0     C13877   9.926   8.417  10.207 -0.5444 -0.7434  0.6415
  826MOL0     C13878  10.019   8.538  10.214  0.4245 -0.3241 -0.1511
  826MOL0     C13879   9.980   8.298  10.165  0.0919 -0.0432  0.0089
  826MOL0     C13880  10.111   8.277  10.103  0.0803 -0.2243 -0.4368
  826MOL0     O13881  10.141   8.328   9.986 -0.3345 -0.5607  1.0816
  826MOL0     C13882  10.268   8.291   9.923  0.4919 -0.4082  0.6173
  826MOL0     C13883  10.394   8.346   9.974  1.0417  0.4776 -0.2016
  826MOL0     C13884  10.512   8.302   9.907  0.5327 -0.6693 -0.4704
  826MOL0     C13885  10.506   8.234   9.790  0.0442  0.2280  0.1209
  826MOL0     O13886  10.625   8.196   9.725 -0.3563 -0.4129 -0.8939
  826MOL0     C13887  10.735   8.275   9.727 -0.4275  0.6701 -0.6451
  826MOL0     C13888  10.857   8.212   9.656  0.8868 -0.2579 -0.1780
  826MOL0     C13889  10.848   8.237   9.503 -0.5457  0.7226  0.1506
  826MOL0     C13890  10.958   8.172   9.420  0.0774  0.0404  0.3725
  826MOL0     C13891  11.073   8.282   9.405  0.0537  0.6892  1.0287
  826MOL0     C13892  11.186   8.234   9.318  0.6068 -0.5522  0.1224
  826MOL0     C13893  11.309   8.309   9.361 -0.5211 -0.2837 -0.4040
  826MOL0     C13894  11.423   8.243   9.296  0.8187 -0.2497  0.0444
  826MOL0    Cl13895  11.395   8.210   9.122 -0.3457 -0.3510 -0.0552
  826MOL0     C13896  10.388   8.178   9.744  1.1332 -0.3755 -0.9543
  826MOL0     C13897  10.266   8.199   9.818 -1.0860  0.8248  0.1635
  826MOL0     O13898  10.193   8.214  10.168  0.5026 -0.2006 -0.4125
  826MOL0     C13899   9.881   8.196  10.154 -0.8920 -0.0093  0.1457
  826MOL0     C13900   9.750   8.199  10.190  0.2104 -0.5347  1.0651
  826MOL0     N13901   9.142   8.062  10.262 -0.0805  0.1323 -0.1450
  826MOL0     N13902   9.107   7.997  10.367 -1.0723 -0.7919 -0.1723
  826MOL0     C13903  10.127   8.290  10.766 -0.3365  0.1960  1.4901
  826MOL0     C13904  10.180   8.417  10.805 -0.3041 -0.0126 -0.1994
  826MOL0     C13905  10.358   8.832  10.711 -0.3546  0.1401 -0.6617
  826MOL0     C13906  10.347   8.858  10.848 -0.6876  0.3056  0.0779
  826MOL0     C13907  10.396   8.977  10.902 -0.0227  0.1040 -0.7149
  826MOL0     C13908  10.454   9.073  10.824  0.0735  0.0750 -0.3441
  826MOL0     O13909  10.508   9.183  10.890  0.4012  0.2552 -0.8555
  826MOL0     C13910  10.566   9.285  10.811 -0.2751 -0.1166 -0.4925
  826MOL0     C13911  10.667   9.359  10.899 -0.5102 -0.2667  0.0205
  826MOL0     C13912  10.734   9.477  10.833  0.1980 -0.2388  0.7239
  826MOL0     C13913  10.647   9.609  10.822  0.8312 -0.0329 -0.1613
  826MOL0     C13914  10.598   9.675  10.948 -0.5404  0.2973  0.1970
  826MOL0     C13915  10.553   9.739  11.039 -0.0136 -0.3580 -0.1418
  826MOL0     C13916  10.441   9.063  10.687 -0.3912  0.2009  0.8132
  826MOL0     C13917  10.395   8.943  10.626 -0.0571 -0.7686  0.7195
  826MOL0     C13918  10.387   8.929  10.479  0.4221  0.5468  0.3246
  826MOL0     H13919  10.095   8.589  10.530 -2.9225 -0.8648 -0.9387
  826MOL0     H13920   9.961   8.384  10.490 -2.1370  0.5810  1.6565
  826MOL0     H13921  10.093   8.083  10.452 -0.2898  0.8866 -0.8201
  826MOL0     H13922   9.956   8.199  10.427  2.4487  1.0274 -0.6588
  826MOL0     H13923   9.933   7.965  10.359  4.0420  0.8048  0.6047
  826MOL0     H13924   9.969   7.913  10.521 -4.3728 -0.5830  2.5441
  826MOL0     H13925   9.771   8.015  10.617  0.1732  4.6297 -0.0364
  826MOL0     H13926   9.717   8.067  10.458 -1.4879 -2.5714 -0.6299
  826MOL0     H13927   9.692   7.841  10.365  0.4991  0.6866 -0.0478
  826MOL0     H13928   9.764   7.769  10.521  1.3449  0.5373 -0.4877
  826MOL0     H13929   9.607   7.855  10.669 -1.3268  0.9624  0.2435
  826MOL0     H13930   9.548   7.733  10.587  0.0716  1.7547  1.8009
  826MOL0     H13931   9.467   8.019  10.544 -0.1489  0.1118 -0.0779
  826MOL0     H13932   9.451   7.909  10.408 -1.8641 -0.5653  0.8577
  826MOL0     H13933   9.354   7.831  10.685  4.0063 -3.1100 -2.6790
  826MOL0     H13934   9.302   7.777  10.538 -0.7910 -0.1219  0.6273
  826MOL0     H13935   9.122   7.926  10.613  1.5539 -1.4756  4.2523
  826MOL0     H13936   9.227   8.066  10.656  0.2887 -0.3681 -0.1991
  826MOL0     H13937   9.354   8.194  10.468  1.2161  0.5025  0.0557
  826MOL0     H13938   9.266   8.201  10.076  1.6618  0.4053 -1.4802
  826MOL0     H13939   9.417   8.195  10.161 -1.0520 -1.3861 -1.6277
  826MOL0     H13940   9.315   8.441  10.104 -0.1874 -2.0054 -1.2283
  826MOL0     H13941   9.184   8.404  10.197  0.0510  0.3685  1.0726
  826MOL0     H13942   9.322   8.546  10.324 -0.0902 -0.7582  1.2284
  826MOL0     H13943   9.351   8.389  10.407  1.3235  0.2807  0.5321
  826MOL0     H13944   9.519   8.512  10.186  0.9762 -1.6788 -1.3680
  826MOL0     H13945   9.543   8.517  10.370  0.0620 -2.9949  2.3419
  826MOL0     H13946   9.772   8.524  10.295 -1.8051  0.6993 -1.8430
  826MOL0     H13947  10.047   8.562  10.317  1.9365  1.7103 -0.9692
  826MOL0     H13948   9.968   8.629  10.181 -2.0850 -1.2851  0.8569
  826MOL0     H13949  10.103   8.544  10.144 -1.0559  0.1603 -1.9564
  826MOL0     H13950  10.402   8.396  10.069  2.3450  0.7627 -0.4436
  826MOL0     H13951  10.615   8.319   9.936  0.6120 -2.9188  0.8278
  826MOL0     H13952  10.703   8.370   9.683 -2.1792  0.4885  0.1221
  826MOL0     H13953  10.776   8.294   9.827  1.5308 -0.2557 -1.2415
  826MOL0     H13954  10.950   8.261   9.686  0.7634  0.3877 -0.8075
  826MOL0     H13955  10.866   8.106   9.681  0.6355 -0.8480 -2.3246
  826MOL0     H13956  10.847   8.344   9.482 -3.6623  0.7862  0.1219
  826MOL0     H13957  10.749   8.207   9.466  0.8143  1.1469 -4.5134
  826MOL0     H13958  10.930   8.140   9.319  2.4128 -0.9246 -0.0288
  826MOL0     H13959  11.001   8.085   9.470  1.9958  0.4949 -0.3937
  826MOL0     H13960  11.038   8.373   9.355  0.8182  0.7468  0.5887
  826MOL0     H13961  11.099   8.312   9.506  0.1522  0.6025  1.0285
  826MOL0     H13962  11.171   8.262   9.214 -0.1979 -2.0761 -0.2024
  826MOL0     H13963  11.200   8.125   9.324  0.5307 -0.5422  0.5285
  826MOL0     H13964  11.312   8.319   9.469 -2.9253 -0.1155 -0.3022
  826MOL0     H13965  11.296   8.410   9.321  0.4208  0.1651  0.3735
  826MOL0     H13966  11.440   8.149   9.349 -1.0508 -0.0694  1.0727
  826MOL0     H13967  11.514   8.301   9.311  0.6395  0.1732 -0.4825
  826MOL0     H13968  10.400   8.113   9.658 -5.1170  0.8406 -3.3017
  826MOL0     H13969  10.173   8.153   9.785  0.5469 -2.5488 -0.1930
  826MOL0     H13970   9.917   8.097  10.127  1.2450  0.5130  0.8269
  826MOL0     H13971   9.694   8.106  10.185 -2.7655  1.0230  2.5858
  826MOL0     H13972  10.136   8.207  10.835  0.0545 -0.9102  0.1602
  826MOL0     H13973  10.251   8.427  10.887 -0.1442 -1.7349 -0.0957
  826MOL0     H13974  10.323   8.774  10.912  1.0751  0.1733  0.6232
  826MOL0     H13975  10.388   8.983  11.010 -2.4533  2.0154 -0.8936
  826MOL0     H13976  10.632   9.241  10.735 -0.4930 -0.5346 -0.4418
  826MOL0     H13977  10.488   9.349  10.768 -1.0609 -2.1410 -2.2702
  826MOL0     H13978  10.747   9.285  10.910  0.9935  1.5617  2.2990
  826MOL0     H13979  10.619   9.377  10.995 -0.3633 -0.7954  0.1978
  826MOL0     H13980  10.825   9.504  10.887  0.0607  0.7075  0.4996
  826MOL0     H13981  10.773   9.452  10.734  1.9026 -0.0504  1.3105
  826MOL0     H13982  10.567   9.583  10.751  0.9869 -0.8992 -0.0371
  826MOL0     H13983  10.710   9.689  10.783 -1.6793  2.4248  0.5340
  826MOL0     H13984  10.518   9.792  11.125 -0.5086 -0.3203 -0.3637
  826MOL0     H13985  10.489   9.142  10.630  0.7862  0.8428  2.6211
  826MOL0     H13986  10.401   9.025  10.429 -2.2994  2.1877  2.4284
  826MOL0     H13987  10.451   8.849  10.440 -0.1263  0.7915 -1.1321
  826MOL0     H13988  10.285   8.900  10.450 -0.1284  3.4696 -0.9835
  827MOL0     O13989   6.807   0.052   9.057  0.6034 -0.5413 -0.4936
  827MOL0     C13990   6.712   0.103   9.115 -0.1115  0.2631 -0.4915
  827MOL0     O13991   6.703   0.117   9.260  0.1748  0.9140 -0.6505
  827MOL0     C13992   6.799   0.052   9.326  0.4805 -0.8870  0.7618
  827MOL0     C13993   6.905   0.131   9.380  0.0700 -0.0004  0.5325
  827MOL0     C13994   7.008   0.064   9.455  1.1007  0.5439 -0.4568
  827MOL0     C13995   7.013  -0.078   9.456 -0.8392  0.6855 -0.2778
  827MOL0     O13996   7.120  -0.131   9.520 -0.4720 -0.0048 -0.2915
  827MOL0     C13997   7.230  -0.142   9.420 -0.8021 -1.1147 -0.5953
  827MOL0     C13998   7.362  -0.143   9.500 -0.6674 -0.3786  1.0568
  827MOL0     C13999   7.497  -0.138   9.417  0.0981 -1.0523 -0.4291
  827MOL0     C14000   7.541  -0.001   9.373 -1.2153  0.3902  0.4486
  827MOL0     C14001   7.683   0.002   9.316  0.2542  0.5126  0.0056
  827MOL0     C14002   7.706   0.127   9.224  0.0688  0.6536 -0.6739
  827MOL0     C14003   7.848   0.126   9.157  0.6019  0.0881 -0.2265
  827MOL0     C14004   7.954   0.116   9.258  0.2002 -0.1883 -1.2122
  827MOL0     N14005   8.093   0.130   9.198 -0.3920 -0.6134 -0.2806
  827MOL0     C14006   8.134   0.075   9.082  0.5065  0.7980  0.1760
  827MOL0     C14007   8.266   0.094   9.077  0.5546 -0.3671 -0.6173
  827MOL0     C14008   8.368   0.057   8.974 -0.3104 -0.1946  0.5226
  827MOL0     C14009   8.474  -0.042   9.032 -1.0991 -0.4753 -0.4383
  827MOL0     C14010   8.557  -0.101   8.923 -0.7649 -0.0542 -0.0191
  827MOL0     C14011   8.646  -0.223   8.974 -0.0762  0.0674 -0.6229
  827MOL0     O14012   8.649  -0.246   9.124  0.0838  0.6747 -0.4798
  827MOL0     C14013   8.742  -0.335   9.169  1.7904  0.3980 -0.0203
  827MOL0     C14014   8.695  -0.435   9.254 -0.0645 -0.3116 -0.2908
  827MOL0     C14015   8.770  -0.547   9.288  0.0963 -0.1634 -0.5591
  827MOL0     C14016   8.721  -0.654   9.393 -0.1668  0.1584  0.0825
  827MOL0     C14017   8.886  -0.567   9.219 -0.2134  0.3758  0.7044
  827MOL0     C14018   8.964  -0.688   9.225 -0.2436 -0.5886  1.3423
  827MOL0     O14019   9.039  -0.707   9.339 -0.0349 -0.1995  0.0693
  827MOL0     C14020   9.058  -0.840   9.367  0.1977 -0.3671  0.0603
  827MOL0     C14021   9.186  -0.874   9.397 -0.2684  0.4755  0.0527
  827MOL0     C14022   9.229  -1.008   9.433  0.1319  0.7465  0.1059
  827MOL0     C14023   9.138  -1.108   9.434 -0.5245  1.0429 -0.5064
  827MOL0     O14024   9.175  -1.233   9.471 -0.1307  0.0178  0.7241
  827MOL0     C14025   9.130  -1.351   9.401  0.6230 -0.9433 -0.4388
  827MOL0     C14026   9.198  -1.479   9.440 -0.1916  0.1115 -0.3021
  827MOL0     C14027   9.336  -1.469   9.372 -0.9784  0.5866  0.4100
  827MOL0     C14028   9.389  -1.614   9.351 -0.1293  0.2359 -0.2240
  827MOL0     C14029   9.535  -1.623   9.320  0.4497  0.1641  0.5124
  827MOL0     C14030   9.555  -1.536   9.192 -0.1620 -0.3948  0.2011
  827MOL0     C14031   9.694  -1.554   9.123 -0.2675  0.0654  0.2121
  827MOL0     C14032   9.808  -1.490   9.197 -0.5104 -0.7289  0.3812
  827MOL0    Cl14033   9.834  -1.323   9.165 -0.2785 -0.2253 -0.7220
  827MOL0     C14034   9.006  -1.084   9.397 -0.9925  0.0164 -0.0254
  827MOL0     C14035   8.963  -0.945   9.380 -0.4101 -0.0391  0.8808
  827MOL0     O14036   8.961  -0.755   9.121 -0.7939  0.6340 -0.6027
  827MOL0     C14037   8.931  -0.483   9.122  0.2238  0.2544 -0.0219
  827MOL0     C14038   8.862  -0.364   9.100  0.2849  0.6241  0.0444
  827MOL0     N14039   8.306   0.172   9.178 -0.0697  0.9061 -0.3204
  827MOL0     N14040   8.200   0.186   9.264 -0.2405 -0.2651 -0.6816
  827MOL0     C14041   6.907  -0.154   9.402 -0.3382 -0.5317 -0.1249
  827MOL0     C14042   6.796  -0.082   9.347  0.3426  0.4662 -0.1279
  827MOL0     C14043   6.608   0.160   9.031 -0.2146  0.0254 -0.4186
  827MOL0     C14044   6.528   0.263   9.090 -0.0090 -0.2535 -0.3755
  827MOL0     C14045   6.418   0.319   9.020 -0.2262  1.1407 -0.5113
  827MOL0     C14046   6.395   0.289   8.881  0.2412  0.5019 -0.2036
  827MOL0     O14047   6.297   0.334   8.803  0.1581 -0.5518  0.8365
  827MOL0     C14048   6.208   0.435   8.850  0.5214 -0.2147  0.7915
  827MOL0     C14049   6.119   0.492   8.738 -0.8006 -0.7248 -1.2102
  827MOL0     C14050   6.186   0.518   8.599 -0.3521  0.1984 -0.6940
  827MOL0     C14051   6.099   0.564   8.484  0.3667 -0.0061 -0.2541
  827MOL0     C14052   5.985   0.472   8.452 -0.3576  0.0258  0.2686
  827MOL0     C14053   5.904   0.378   8.440 -0.1525  0.1121  0.5293
  827MOL0     C14054   6.478   0.195   8.823 -0.2296  0.4596 -0.1412
  827MOL0     C14055   6.582   0.119   8.899 -1.0344 -1.2372  1.1315
  827MOL0     C14056   6.631  -0.018   8.841 -0.0688 -1.3143  0.1469
  827MOL0     H14057   6.902   0.239   9.394 -1.2299  0.0462  0.0248
  827MOL0     H14058   7.069   0.128   9.518  1.0830 -0.4041  0.5544
  827MOL0     H14059   7.226  -0.047   9.367 -3.0167 -0.1258  1.1670
  827MOL0     H14060   7.215  -0.232   9.359 -0.2915 -3.5570  2.5813
  827MOL0     H14061   7.363  -0.054   9.564 -0.7203  0.4024  0.0023
  827MOL0     H14062   7.366  -0.237   9.556  0.6079 -1.7282 -1.1531
  827MOL0     H14063   7.572  -0.178   9.485  1.5577 -3.7816 -3.3838
  827MOL0     H14064   7.486  -0.211   9.336 -3.1986 -2.0970  0.7881
  827MOL0     H14065   7.475   0.031   9.292 -2.9268  0.4282  1.8310
  827MOL0     H14066   7.534   0.079   9.447 -0.4763  0.6933  0.2060
  827MOL0     H14067   7.707  -0.087   9.256  2.3775  1.8408 -1.2452
  827MOL0     H14068   7.743  -0.010   9.406 -2.5866 -0.9632  1.8240
  827MOL0     H14069   7.635   0.125   9.140  2.0569 -2.6931 -2.5071
  827MOL0     H14070   7.696   0.211   9.293 -2.0408 -0.4171  0.4056
  827MOL0     H14071   7.850   0.219   9.100 -1.8801 -1.0872 -2.4629
  827MOL0     H14072   7.850   0.038   9.092 -2.2536  0.3238 -0.7679
  827MOL0     H14073   7.946   0.199   9.329  2.9791 -0.8244 -0.0221
  827MOL0     H14074   7.955   0.022   9.313  0.4510  0.1623 -0.6060
  827MOL0     H14075   8.068   0.015   9.020 -1.8032  2.3314  0.9777
  827MOL0     H14076   8.414   0.145   8.929 -0.7430 -0.5939 -0.7528
  827MOL0     H14077   8.312   0.013   8.891  1.2915 -2.2021  0.4406
  827MOL0     H14078   8.533   0.009   9.109 -1.0390 -0.3962 -0.5381
  827MOL0     H14079   8.429  -0.133   9.075 -1.8978 -0.2192 -0.7133
  827MOL0     H14080   8.489  -0.133   8.844 -1.2966  1.1736 -0.0830
  827MOL0     H14081   8.614  -0.022   8.873  0.0346  2.5546  4.4578
  827MOL0     H14082   8.608  -0.312   8.923 -4.0961  0.5925  1.0375
  827MOL0     H14083   8.747  -0.206   8.937  0.7083 -2.6002  0.0635
  827MOL0     H14084   8.594  -0.432   9.293  1.5052 -0.3039  4.2982
  827MOL0     H14085   8.668  -0.607   9.477 -0.3949 -0.9255  0.5671
  827MOL0     H14086   8.797  -0.718   9.440 -0.6636 -0.9395 -0.5723
  827MOL0     H14087   8.657  -0.729   9.347 -2.6531  3.7789 -2.9971
  827MOL0     H14088   9.251  -0.788   9.397  1.0392 -0.3920  3.1429
  827MOL0     H14089   9.334  -1.026   9.455  0.0712  2.3694  2.0420
  827MOL0     H14090   9.021  -1.360   9.406  0.1592 -1.0648 -5.4028
  827MOL0     H14091   9.146  -1.337   9.293  3.1155 -1.7621 -0.2494
  827MOL0     H14092   9.226  -1.487   9.545  1.3588 -1.6957 -0.8054
  827MOL0     H14093   9.140  -1.560   9.396  0.5147  0.0762 -1.1919
  827MOL0     H14094   9.410  -1.406   9.424  2.9706 -1.7176 -1.8705
  827MOL0     H14095   9.333  -1.430   9.270  2.0426 -1.0159 -0.4036
  827MOL0     H14096   9.324  -1.667   9.280  0.7256  0.1098 -0.9291
  827MOL0     H14097   9.388  -1.671   9.445  1.0395  2.8250  1.4579
  827MOL0     H14098   9.594  -1.576   9.399 -1.8245  2.0396  1.1994
  827MOL0     H14099   9.557  -1.728   9.299 -3.1551 -0.4872 -0.7763
  827MOL0     H14100   9.539  -1.429   9.213 -0.1814 -0.5461  0.9936
  827MOL0     H14101   9.483  -1.568   9.116  1.4074  2.7384 -2.9265
  827MOL0     H14102   9.694  -1.521   9.018 -1.0251 -2.4521 -0.6588
  827MOL0     H14103   9.724  -1.659   9.115 -1.3403 -0.1368 -2.0609
  827MOL0     H14104   9.903  -1.536   9.169 -0.8064  0.1999 -2.5161
  827MOL0     H14105   9.803  -1.496   9.306  2.4465  1.1236  0.7228
  827MOL0     H14106   8.924  -1.155   9.405 -0.1710 -1.2587 -2.1854
  827MOL0     H14107   8.863  -0.920   9.348 -0.1030  2.8565  1.8890
  827MOL0     H14108   9.031  -0.487   9.081  0.7372 -1.9374  1.2921
  827MOL0     H14109   8.914  -0.295   9.034 -1.2192  0.1084 -1.7630
  827MOL0     H14110   6.897  -0.262   9.409  0.8080 -0.6014  0.5874
  827MOL0     H14111   6.714  -0.128   9.292  0.3258 -0.6300  0.7810
  827MOL0     H14112   6.549   0.303   9.188 -3.3819  2.0883 -0.4233
  827MOL0     H14113   6.366   0.408   9.054  0.2627  0.7280  1.4439
  827MOL0     H14114   6.150   0.400   8.936  2.3149  0.3669  2.2970
  827MOL0     H14115   6.259   0.528   8.876  1.2284  0.9280 -3.7107
  827MOL0     H14116   6.082   0.590   8.769 -0.8819 -0.7178 -1.3298
  827MOL0     H14117   6.031   0.428   8.727  0.3904 -3.0633  1.5255
  827MOL0     H14118   6.270   0.586   8.611  0.4119 -0.6318 -1.1437
  827MOL0     H14119   6.237   0.425   8.572  1.9840  1.2665 -0.2070
  827MOL0     H14120   6.167   0.557   8.399  3.3314  1.4221  1.8301
  827MOL0     H14121   6.072   0.668   8.502 -1.9577 -0.6102  0.1709
  827MOL0     H14122   5.836   0.297   8.421  0.6074 -0.4202  0.0229
  827MOL0     H14123   6.457   0.167   8.721 -1.4406 -0.8987  0.4459
  827MOL0     H14124   6.564  -0.052   8.761 -3.4140  1.4192  1.5326
  827MOL0     H14125   6.734  -0.006   8.805 -1.0258  0.7012 -2.2254
  827MOL0     H14126   6.623  -0.093   8.920 -4.7940  0.1370  1.3592
  828MOL0     O14127   7.724   6.963   9.409  0.2817 -0.4253 -0.4549
  828MOL0     C14128   7.686   7.056   9.482  0.1689  0.5820  1.3529
  828MOL0     O14129   7.562   7.074   9.521 -0.3366 -0.3895  0.3009
  828MOL0     C14130   7.459   6.996   9.477 -0.1647  0.5322 -0.0030
  828MOL0     C14131   7.387   7.030   9.367  0.6627  0.3445 -0.0941
  828MOL0     C14132   7.279   6.952   9.311 -0.0626 -1.1384 -0.6563
  828MOL0     C14133   7.232   6.835   9.374  0.0624 -0.3068 -0.1320
  828MOL0     O14134   7.122   6.764   9.326 -0.0083  0.5588  0.4491
  828MOL0     C14135   7.059   6.804   9.206 -0.3352  0.8336 -0.4208
  828MOL0     C14136   6.930   6.711   9.190  0.2809 -0.4566  0.5536
  828MOL0     C14137   6.833   6.776   9.096  0.5949  0.3747 -0.1128
  828MOL0     C14138   6.689   6.733   9.107 -0.2018  0.7265  0.1427
  828MOL0     C14139   6.592   6.789   8.998 -0.7037  0.6792 -0.5144
  828MOL0     C14140   6.453   6.723   9.016 -0.3358 -0.5202  1.0414
  828MOL0     C14141   6.353   6.786   8.910 -0.6258  0.2836 -0.3394
  828MOL0     C14142   6.213   6.800   8.980 -0.5762 -0.2279  0.3013
  828MOL0     N14143   6.170   6.665   9.022  0.2618  0.1255  0.2878
  828MOL0     C14144   6.119   6.569   8.936  0.0741  0.3038  0.2486
  828MOL0     C14145   6.076   6.467   9.013 -0.0633 -0.7669 -1.0357
  828MOL0     C14146   6.028   6.345   8.940  0.9067  0.0580 -0.0384
  828MOL0     C14147   6.002   6.214   9.013  0.5944  0.7425  0.2981
  828MOL0     C14148   6.128   6.163   9.085  0.1120 -0.1525  0.0619
  828MOL0     C14149   6.242   6.119   8.994 -0.0922  0.4276  0.2641
  828MOL0     O14150   6.201   6.048   8.873 -0.0901  0.0820 -0.0944
  828MOL0     C14151   6.167   5.912   8.883  0.9219  0.1308  1.4694
  828MOL0     C14152   6.133   5.855   8.763  0.3474 -0.0285  0.3854
  828MOL0     C14153   6.128   5.713   8.755 -1.2865  0.7670  1.2212
  828MOL0     C14154   6.101   5.658   8.618  0.3641  1.0273  0.1906
  828MOL0     C14155   6.143   5.627   8.869  0.4654  0.1700  0.0768
  828MOL0     C14156   6.154   5.483   8.873  0.7361  0.4655 -0.4099
  828MOL0     O14157   6.156   5.432   9.004  0.0801  0.4162 -0.1046
  828MOL0     C14158   6.194   5.307   9.023 -0.2713  0.3550 -0.3912
  828MOL0     C14159   6.332   5.275   9.039  0.9875 -0.1565  0.4064
  828MOL0     C14160   6.380   5.143   9.050 -0.7457 -0.1787 -0.2519
  828MOL0     C14161   6.282   5.042   9.050  0.8567 -0.2246  0.1188
  828MOL0     O14162   6.316   4.914   9.039  0.0763  0.9473  0.2238
  828MOL0     C14163   6.430   4.876   8.963  1.2730  0.0662 -0.6486
  828MOL0     C14164   6.452   4.723   8.988  0.2188  0.0267  0.1764
  828MOL0     C14165   6.459   4.647   8.855  0.2028  0.8017  0.1713
  828MOL0     C14166   6.468   4.494   8.869 -0.0696  0.7012  0.2459
  828MOL0     C14167   6.425   4.433   8.739  0.3447 -0.0066  0.6160
  828MOL0     C14168   6.439   4.283   8.749 -0.2783  0.0831  0.5350
  828MOL0     C14169   6.356   4.213   8.637 -0.3703  1.1998 -0.6025
  828MOL0     C14170   6.375   4.057   8.625  0.1093  0.2068 -0.0004
  828MOL0    Cl14171   6.325   4.002   8.464  0.2874 -0.1780  0.3369
  828MOL0     C14172   6.152   5.074   9.039 -0.3562 -0.3542 -0.5472
  828MOL0     C14173   6.100   5.202   9.042 -0.3871 -1.3101  0.2615
  828MOL0     O14174   6.190   5.419   8.773  0.3611  0.5136 -0.3244
  828MOL0     C14175   6.163   5.699   8.995  0.0083 -0.4659 -0.2447
  828MOL0     C14176   6.178   5.839   9.005  1.9323 -0.7322 -1.1052
  828MOL0     N14177   6.083   6.510   9.143 -0.0441 -0.1305 -0.0307
  828MOL0     N14178   6.132   6.626   9.148 -0.3849 -0.8448  0.1134
  828MOL0     C14179   7.295   6.800   9.498  0.1408 -0.3267 -0.3240
  828MOL0     C14180   7.404   6.889   9.548 -0.0799  0.0688 -0.1761
  828MOL0     C14181   7.778   7.164   9.523  0.5492  0.4377  0.6860
  828MOL0     C14182   7.721   7.287   9.544 -0.2144 -0.1422  0.3677
  828MOL0     C14183   7.796   7.407   9.546 -0.5179  0.0968 -0.5883
  828MOL0     C14184   7.940   7.395   9.546 -0.9191 -0.5234  0.1408
  828MOL0     O14185   8.025   7.505   9.559 -0.6349  0.4341 -0.3553
  828MOL0     C14186   8.144   7.489   9.633 -0.0430 -0.0885  0.3791
  828MOL0     C14187   8.187   7.618   9.695  0.2423  0.7242  0.7877
  828MOL0     C14188   8.213   7.719   9.580  0.0602 -0.3530 -1.1531
  828MOL0     C14189   8.292   7.836   9.624  0.4754  0.0153  0.4300
  828MOL0     C14190   8.232   7.921   9.724  0.0292 -0.2636 -0.4671
  828MOL0     C14191   8.186   7.998   9.803  1.0188 -0.0066 -0.7492
  828MOL0     C14192   7.997   7.267   9.523 -0.7912 -0.3275 -0.1359
  828MOL0     C14193   7.914   7.153   9.521 -1.2763 -1.4812 -0.4626
  828MOL0     C14194   7.998   7.029   9.491 -0.6275  0.0646  0.6587
  828MOL0     H14195   7.424   7.120   9.317 -0.7229  0.8180 -0.3194
  828MOL0     H14196   7.245   6.985   9.213  0.3894  0.1593 -0.3994
  828MOL0     H14197   7.120   6.780   9.118  2.1060  1.3500  1.0454
  828MOL0     H14198   7.041   6.911   9.197  0.0534  0.7553 -2.9376
  828MOL0     H14199   6.954   6.607   9.163 -2.4096 -0.4572 -2.3550
  828MOL0     H14200   6.897   6.713   9.294  0.5601 -0.5146  0.6455
  828MOL0     H14201   6.839   6.882   9.125  0.1540  0.1404  0.8636
  828MOL0     H14202   6.867   6.761   8.993 -0.8998 -0.1406 -0.5541
  828MOL0     H14203   6.683   6.624   9.098 -1.8696  0.8799 -1.2850
  828MOL0     H14204   6.650   6.757   9.207 -1.0768  2.6607 -0.5987
  828MOL0     H14205   6.629   6.766   8.898 -1.0001 -0.9529 -0.2698
  828MOL0     H14206   6.598   6.898   8.988  0.1562  0.6260 -0.6550
  828MOL0     H14207   6.459   6.619   8.982  2.0499 -0.0784 -0.0990
  828MOL0     H14208   6.418   6.733   9.119 -2.6170 -1.4737  0.4180
  828MOL0     H14209   6.351   6.716   8.826 -1.4788 -1.9167  1.4061
  828MOL0     H14210   6.377   6.890   8.890  2.1616  0.2964  2.2932
  828MOL0     H14211   6.228   6.861   9.070  0.5688 -1.3399  0.8834
  828MOL0     H14212   6.143   6.857   8.917 -1.0454 -1.5279 -0.3921
  828MOL0     H14213   6.094   6.565   8.830 -0.7152 -0.7085  0.4517
  828MOL0     H14214   6.099   6.330   8.858 -1.6678  1.7180 -2.7924
  828MOL0     H14215   5.929   6.364   8.899  0.2435  2.3007  2.3241
  828MOL0     H14216   5.929   6.233   9.092 -0.1025  0.1444 -0.1842
  828MOL0     H14217   5.960   6.142   8.942 -0.2376 -1.0675  2.5149
  828MOL0     H14218   6.163   6.244   9.150  1.9849 -0.3766 -0.6142
  828MOL0     H14219   6.097   6.075   9.143  1.6786  0.3666  1.7626
  828MOL0     H14220   6.289   6.212   8.961  0.9889 -0.9419 -2.3687
  828MOL0     H14221   6.319   6.063   9.048  0.2244  0.5341 -0.0712
  828MOL0     H14222   6.118   5.901   8.666  1.3050 -1.4966 -0.4898
  828MOL0     H14223   6.186   5.606   8.573 -0.8391 -0.6386 -0.2099
  828MOL0     H14224   6.065   5.739   8.554 -2.3090 -1.0398 -1.0797
  828MOL0     H14225   6.019   5.587   8.621  0.1520  1.0588 -2.6028
  828MOL0     H14226   6.408   5.352   9.032  2.2252 -1.3963 -0.2897
  828MOL0     H14227   6.485   5.119   9.061 -1.4225 -3.1773  0.7943
  828MOL0     H14228   6.396   4.894   8.860 -0.2119 -0.8943 -0.3688
  828MOL0     H14229   6.519   4.931   8.992  0.3224 -0.4305  4.0287
  828MOL0     H14230   6.550   4.706   9.033  0.3618 -0.8402 -0.4368
  828MOL0     H14231   6.376   4.690   9.059  1.4041 -2.0271  0.5663
  828MOL0     H14232   6.546   4.679   8.798 -0.1257  2.1604  0.3908
  828MOL0     H14233   6.386   4.675   8.779  1.2733 -0.6168 -1.4460
  828MOL0     H14234   6.407   4.454   8.950 -0.7660 -0.7289 -0.9387
  828MOL0     H14235   6.575   4.479   8.888  0.4270  1.4502 -1.6722
  828MOL0     H14236   6.320   4.458   8.729 -0.7372 -4.3723 -1.8131
  828MOL0     H14237   6.483   4.481   8.660 -0.8801  0.8174  0.2040
  828MOL0     H14238   6.412   4.241   8.846  0.3753 -3.5114 -0.6835
  828MOL0     H14239   6.545   4.261   8.738 -0.3675 -1.5723  2.4586
  828MOL0     H14240   6.381   4.257   8.540  3.5408 -0.5035 -0.5477
  828MOL0     H14241   6.251   4.238   8.655 -0.5535 -0.0214  0.1482
  828MOL0     H14242   6.317   4.001   8.699 -1.6879  2.7033  0.6022
  828MOL0     H14243   6.482   4.044   8.644 -0.1497  1.0312  2.3585
  828MOL0     H14244   6.073   5.001   9.050  0.3146 -0.9048  0.9653
  828MOL0     H14245   5.993   5.219   9.039 -0.4917 -1.6480  1.6141
  828MOL0     H14246   6.174   5.647   9.089 -1.0746  2.7327  1.8032
  828MOL0     H14247   6.201   5.882   9.102  4.8360 -1.0095 -1.5800
  828MOL0     H14248   7.270   6.715   9.559  1.4063 -2.4496 -2.5753
  828MOL0     H14249   7.456   6.877   9.642 -1.8368 -1.9462  0.6278
  828MOL0     H14250   7.613   7.288   9.533 -0.1325 -0.1700 -0.5648
  828MOL0     H14251   7.751   7.503   9.572  0.7021 -0.4158  4.4618
  828MOL0     H14252   8.145   7.419   9.717 -1.5235 -1.1303 -0.4142
  828MOL0     H14253   8.222   7.455   9.565  1.5236  0.5822  1.7764
  828MOL0     H14254   8.276   7.599   9.756  1.4633 -2.5062 -1.6570
  828MOL0     H14255   8.113   7.661   9.762  0.4412  2.1845  0.1196
  828MOL0     H14256   8.273   7.666   9.505 -0.7366 -1.5153 -0.9937
  828MOL0     H14257   8.118   7.750   9.535  1.2335  1.1481 -2.7328
  828MOL0     H14258   8.310   7.889   9.530 -2.9911 -2.2772 -1.7777
  828MOL0     H14259   8.385   7.796   9.665  0.0717 -1.1802  0.2234
  828MOL0     H14260   8.132   8.057   9.874  1.7797 -2.9119  2.5494
  828MOL0     H14261   8.103   7.253   9.502 -0.8822 -3.3169  0.8661
  828MOL0     H14262   7.998   7.022   9.382 -1.1272 -1.4267  0.7377
  828MOL0     H14263   8.097   7.018   9.535 -1.1302 -1.6449  1.4301
  828MOL0     H14264   7.944   6.939   9.522  1.7107 -2.1784 -1.3276
  829MOL0     O14265   0.936   1.624  11.446 -0.8594  0.6147  0.0328
  829MOL0     C14266   0.954   1.739  11.399  0.2392 -0.2035 -0.9699
  829MOL0     O14267   0.934   1.854  11.469 -0.1443  0.3393 -0.2096
  829MOL0     C14268   0.941   1.854  11.607  0.4426  0.0999  1.0144
  829MOL0     C14269   1.036   1.783  11.680  0.1479 -0.3358  0.3840
  829MOL0     C14270   1.053   1.802  11.820  0.6862 -0.2793  1.0874
  829MOL0     C14271   0.975   1.899  11.893  0.2247  0.7798 -0.2542
  829MOL0     O14272   0.994   1.908  12.021 -0.5457  0.1297 -0.7984
  829MOL0     C14273   0.962   2.031  12.081 -0.2343 -0.9365 -0.2705
  829MOL0     C14274   1.020   2.050  12.220  0.1988  0.8084 -0.3764
  829MOL0     C14275   0.991   2.188  12.282 -0.3899  0.2158 -1.0645
  829MOL0     C14276   1.016   2.180  12.434  0.9470  0.7502  0.2869
  829MOL0     C14277   1.154   2.134  12.493  1.2795  0.5959 -1.0495
  829MOL0     C14278   1.265   2.231  12.448  0.2987  0.2436  0.6821
  829MOL0     C14279   1.395   2.204  12.517 -0.0051 -0.5838 -0.0453
  829MOL0     C14280   1.438   2.054  12.533  0.2926 -0.0564 -0.3196
  829MOL0     N14281   1.570   2.033  12.602  0.8307 -0.7936  0.9233
  829MOL0     C14282   1.604   1.922  12.672  0.0472  0.2561 -0.1717
  829MOL0     C14283   1.715   1.956  12.735 -0.1254 -1.0799  0.1580
  829MOL0     C14284   1.775   1.867  12.839 -0.1654  0.9603 -0.5635
  829MOL0     C14285   1.923   1.899  12.868  0.0936 -0.3257 -0.6237
  829MOL0     C14286   1.977   1.830  12.991 -0.0472  0.5260  0.2042
  829MOL0     C14287   1.993   1.676  12.963  0.7601 -0.2597  0.6415
  829MOL0     O14288   2.061   1.609  13.064  0.4328  0.4798 -0.5081
  829MOL0     C14289   2.002   1.589  13.186  0.8394 -0.1337  0.0463
  829MOL0     C14290   1.860   1.610  13.211 -0.9727 -0.2069 -0.1077
  829MOL0     C14291   1.790   1.580  13.326  0.4547  0.3975 -0.3869
  829MOL0     C14292   1.642   1.622  13.335 -0.5563  0.4710 -0.5062
  829MOL0     C14293   1.873   1.526  13.442 -0.5695 -0.3703 -0.1699
  829MOL0     C14294   1.818   1.522  13.584 -0.4657  1.1885 -0.0186
  829MOL0     O14295   1.896   1.451  13.674 -0.1039  0.3710 -0.1365
  829MOL0     C14296   1.866   1.446  13.811 -1.0022 -0.0880 -0.5589
  829MOL0     C14297   1.756   1.479  13.885  0.8806 -0.0323 -0.1384
  829MOL0     C14298   1.753   1.477  14.027  0.7420 -0.2461  0.7160
  829MOL0     C14299   1.868   1.451  14.095  0.3539  0.6762 -0.2137
  829MOL0     O14300   1.852   1.425  14.229  0.1002 -0.0840 -0.0490
  829MOL0     C14301   1.973   1.428  14.311  0.1888  1.2370  1.0747
  829MOL0     C14302   1.978   1.289  14.386 -1.4241  0.4431 -0.0627
  829MOL0     C14303   1.991   1.156  14.305 -0.4878  0.7445 -0.0280
  829MOL0     C14304   2.137   1.123  14.262 -0.5101 -0.4069  0.6085
  829MOL0     C14305   2.142   1.003  14.152 -0.1850 -0.1456  0.3056
  829MOL0     C14306   2.083   0.885  14.223  0.2289  0.7750  0.3246
  829MOL0     C14307   2.107   0.754  14.142  0.3157 -0.1495 -1.0925
  829MOL0     C14308   2.151   0.765  13.988 -0.6080  1.1127 -0.3694
  829MOL0    Cl14309   2.330   0.789  13.994 -0.1335 -0.3684  0.0996
  829MOL0     C14310   1.985   1.407  14.019 -0.1988 -0.6880 -0.0535
  829MOL0     C14311   1.979   1.418  13.880 -0.1417 -0.6089 -0.0627
  829MOL0     O14312   1.707   1.565  13.610  0.8837  0.2307 -0.3752
  829MOL0     C14313   2.018   1.502  13.416  0.4439  0.8781  0.5117
  829MOL0     C14314   2.076   1.528  13.285 -0.1117 -0.8458  1.2088
  829MOL0     N14315   1.756   2.078  12.691  0.4178  0.0794  0.5150
  829MOL0     N14316   1.672   2.129  12.616  0.3593  0.1097 -0.5705
  829MOL0     C14317   0.892   1.977  11.818  0.1879 -0.3951 -0.8038
  829MOL0     C14318   0.876   1.953  11.678  0.4839 -0.3907 -0.1181
  829MOL0     C14319   0.951   1.753  11.254 -0.5217  0.4487 -0.3760
  829MOL0     C14320   0.877   1.858  11.201  0.0725 -0.3957  0.5605
  829MOL0     C14321   0.865   1.873  11.057  0.6081  0.6498 -0.3222
  829MOL0     C14322   0.927   1.783  10.974 -0.4670  0.8628  0.2667
  829MOL0     O14323   0.918   1.809  10.843  0.3791  0.3881 -0.1538
  829MOL0     C14324   0.936   1.709  10.746 -0.2616 -0.3838 -0.4009
  829MOL0     C14325   0.915   1.766  10.607  0.2335  0.1448  0.8985
  829MOL0     C14326   0.885   1.664  10.492 -0.1440 -1.0103 -0.5073
  829MOL0     C14327   0.752   1.582  10.476  1.0898 -0.6754  1.0681
  829MOL0     C14328   0.631   1.658  10.462  0.9640  0.7184  0.8843
  829MOL0     C14329   0.519   1.722  10.446 -0.2714  0.6491 -0.5202
  829MOL0     C14330   1.009   1.680  11.036  0.1579  0.2780 -0.0629
  829MOL0     C14331   1.022   1.662  11.171 -0.6869 -0.3892  0.5336
  829MOL0     C14332   1.115   1.557  11.219  0.4891  0.3458 -0.3792
  829MOL0     H14333   1.093   1.703  11.633 -1.6447 -0.1882 -2.2967
  829MOL0     H14334   1.114   1.727  11.869  0.8082 -0.4713  0.6492
  829MOL0     H14335   0.855   2.049  12.099  0.2061  2.9316 -0.7164
  829MOL0     H14336   0.989   2.118  12.021 -2.7755 -0.8411 -1.3997
  829MOL0     H14337   0.990   1.958  12.271 -0.1519 -0.3109 -2.5136
  829MOL0     H14338   1.127   2.041  12.202 -0.3468 -0.5805 -3.4625
  829MOL0     H14339   1.060   2.267  12.250  0.3514  1.8337  3.6943
  829MOL0     H14340   0.884   2.205  12.270 -0.5770  1.2959  1.3772
  829MOL0     H14341   1.001   2.281  12.473  1.7186  0.8204  0.4116
  829MOL0     H14342   0.931   2.124  12.476  0.0091  2.3509  0.6106
  829MOL0     H14343   1.170   2.031  12.461  0.6811  0.0040  0.4899
  829MOL0     H14344   1.141   2.133  12.601 -4.5653 -0.5466 -1.4215
  829MOL0     H14345   1.278   2.230  12.339  3.1049 -2.4014  0.8916
  829MOL0     H14346   1.234   2.330  12.479 -0.8267 -0.2132  1.0479
  829MOL0     H14347   1.389   2.251  12.616 -0.9732  0.6300 -0.6480
  829MOL0     H14348   1.468   2.258  12.456  0.3011 -2.6295 -1.6007
  829MOL0     H14349   1.361   1.992  12.578  0.5646 -2.3247 -2.7151
  829MOL0     H14350   1.463   2.013  12.434  0.5213 -3.0101  0.8628
  829MOL0     H14351   1.546   1.830  12.677 -0.0166  0.3568  3.4588
  829MOL0     H14352   1.760   1.764  12.804  1.4675  0.5821 -0.2529
  829MOL0     H14353   1.729   1.871  12.938  1.2659 -1.6677  0.3176
  829MOL0     H14354   1.991   1.898  12.782 -0.4098 -2.8901 -1.0793
  829MOL0     H14355   1.922   2.005  12.895  0.4719 -0.7271  1.0622
  829MOL0     H14356   2.073   1.874  13.021  0.1729  0.2542 -0.1012
  829MOL0     H14357   1.901   1.835  13.070 -1.6428 -4.2893 -0.6942
  829MOL0     H14358   1.898   1.629  12.936  0.7217 -0.8221  1.6751
  829MOL0     H14359   2.058   1.655  12.877  0.8313 -7.4479  1.7861
  829MOL0     H14360   1.797   1.654  13.135  0.2782 -1.1493 -1.7661
  829MOL0     H14361   1.581   1.535  13.360  1.1443 -0.2206  1.5924
  829MOL0     H14362   1.606   1.667  13.243  0.7574  0.8491 -0.8544
  829MOL0     H14363   1.613   1.697  13.410 -0.3958 -1.3521  1.4897
  829MOL0     H14364   1.664   1.506  13.835 -0.0790  0.0764  1.5992
  829MOL0     H14365   1.664   1.498  14.085  0.0929 -1.6848  0.2947
  829MOL0     H14366   2.065   1.449  14.254 -0.4391  1.0241 -0.0500
  829MOL0     H14367   1.958   1.517  14.374  0.2003  1.0421  1.3533
  829MOL0     H14368   2.051   1.283  14.468 -0.0970  0.8343 -1.1663
  829MOL0     H14369   1.879   1.284  14.431 -2.3106 -4.1114 -2.0114
  829MOL0     H14370   1.922   1.154  14.220 -0.8317  2.8487  0.1541
  829MOL0     H14371   1.965   1.081  14.381  0.4983  1.3022  0.8753
  829MOL0     H14372   2.191   1.109  14.357 -1.6562 -0.2794  1.2929
  829MOL0     H14373   2.186   1.205  14.207 -0.6481 -0.4074  0.4853
  829MOL0     H14374   2.081   1.035  14.066  0.8458  3.9015  0.8691
  829MOL0     H14375   2.247   0.984  14.128 -1.2343 -4.3537 -2.0061
  829MOL0     H14376   1.974   0.895  14.221 -0.0825 -1.8093  1.2045
  829MOL0     H14377   2.120   0.887  14.325  2.2254 -0.3464 -0.3243
  829MOL0     H14378   2.010   0.704  14.140  0.5571 -0.6025 -2.7478
  829MOL0     H14379   2.180   0.691  14.195 -0.9064  0.1257  1.0303
  829MOL0     H14380   2.101   0.852  13.945  2.0005  2.8484 -0.1371
  829MOL0     H14381   2.139   0.670  13.936  0.9908  1.6133 -1.7514
  829MOL0     H14382   2.078   1.381  14.069 -1.8465  0.6374  4.1495
  829MOL0     H14383   2.067   1.394  13.822 -0.1369  0.0180 -0.3212
  829MOL0     H14384   2.074   1.455  13.496 -1.2428  0.4399  1.4960
  829MOL0     H14385   2.182   1.513  13.267 -0.0049  1.9023 -1.2102
  829MOL0     H14386   0.830   2.057  11.857  0.3052 -0.6080 -0.1733
  829MOL0     H14387   0.820   2.032  11.629  0.4751  2.7756  4.3788
  829MOL0     H14388   0.847   1.937  11.268 -0.9072 -0.9271  0.7780
  829MOL0     H14389   0.809   1.958  11.020 -1.3150  0.0527  1.0398
  829MOL0     H14390   1.029   1.652  10.750  0.5370  0.5624 -3.1444
  829MOL0     H14391   0.850   1.645  10.768 -1.4916  0.8183 -1.4401
  829MOL0     H14392   1.011   1.809  10.578  0.8429 -0.5796  1.7834
  829MOL0     H14393   0.842   1.847  10.613 -1.3377 -1.1084 -0.3081
  829MOL0     H14394   0.888   1.726  10.402 -1.1242  0.0857  0.1829
  829MOL0     H14395   0.977   1.606  10.490  0.6209  0.1186  0.5039
  829MOL0     H14396   0.734   1.519  10.564 -1.1697  1.3443  2.1845
  829MOL0     H14397   0.755   1.528  10.381 -1.6034  0.0133  0.4900
  829MOL0     H14398   0.430   1.777  10.422 -1.2207 -0.8654 -0.5762
  829MOL0     H14399   1.060   1.611  10.969 -2.5787 -2.2601  0.2430
  829MOL0     H14400   1.196   1.611  11.268  0.5806 -0.8668  0.8412
  829MOL0     H14401   1.070   1.496  11.298  0.6434  4.0038  2.8062
  829MOL0     H14402   1.162   1.494  11.143  0.0077  0.7701 -1.0440
  830MOL0     O14403   7.491   2.469   1.191 -0.4813  0.0903  0.9728
  830MOL0     C14404   7.561   2.454   1.284 -0.0035  0.9384 -0.5138
  830MOL0     O14405   7.611   2.550   1.356  0.1348  1.0519  0.2110
  830MOL0     C14406   7.574   2.683   1.345 -0.7316  1.3327  0.1740
  830MOL0     C14407   7.459   2.734   1.274 -0.1575 -0.7194 -0.5346
  830MOL0     C14408   7.433   2.874   1.282  0.4469  0.5327  0.0078
  830MOL0     C14409   7.514   2.970   1.347  1.0739 -1.1587  0.6414
  830MOL0     O14410   7.484   3.106   1.355 -0.3093 -0.4304  0.0332
  830MOL0     C14411   7.344   3.138   1.348  0.5602 -0.5232  0.4395
  830MOL0     C14412   7.311   3.267   1.435  0.0009 -0.0980 -0.3600
  830MOL0     C14413   7.387   3.276   1.562 -0.0472  0.0255 -0.2588
  830MOL0     C14414   7.333   3.402   1.653 -0.4718 -0.1000  0.2441
  830MOL0     C14415   7.341   3.548   1.595  0.5181  1.1728  0.7989
  830MOL0     C14416   7.221   3.633   1.631  0.6975  1.0955 -0.6579
  830MOL0     C14417   7.117   3.634   1.504  0.4303  0.0795  0.2584
  830MOL0     C14418   6.972   3.686   1.544 -0.3571  0.0112  0.8015
  830MOL0     N14419   6.892   3.683   1.421  0.3919  0.4284  0.1205
  830MOL0     C14420   6.805   3.778   1.376 -0.2257  0.2205 -0.8057
  830MOL0     C14421   6.758   3.740   1.260  0.1253  0.0400 -0.8113
  830MOL0     C14422   6.650   3.809   1.185  0.2447  0.0202 -0.0760
  830MOL0     C14423   6.686   3.955   1.141 -0.9748 -0.0989 -0.9235
  830MOL0     C14424   6.552   4.014   1.077 -0.4154  0.2046 -0.0468
  830MOL0     C14425   6.552   4.159   1.041  0.1740 -0.4073  0.4669
  830MOL0     O14426   6.629   4.174   0.924  1.2219  0.0108 -0.0029
  830MOL0     C14427   6.635   4.300   0.863 -0.0785 -0.8596 -0.3271
  830MOL0     C14428   6.702   4.315   0.746 -0.2848 -0.6263  0.3280
  830MOL0     C14429   6.711   4.439   0.673 -0.6505 -0.6006 -0.9989
  830MOL0     C14430   6.763   4.444   0.539  0.0758 -0.1520  0.7692
  830MOL0     C14431   6.658   4.551   0.740  0.0538  0.5096 -0.5031
  830MOL0     C14432   6.669   4.690   0.688  0.4550  0.2430  0.0725
  830MOL0     O14433   6.567   4.767   0.731  0.0724 -0.1632  0.4649
  830MOL0     C14434   6.515   4.863   0.653  0.8413 -0.5358  0.2986
  830MOL0     C14435   6.421   4.842   0.544  0.0292  0.2052 -0.7775
  830MOL0     C14436   6.369   4.948   0.466 -0.9539 -0.1513  0.2404
  830MOL0     C14437   6.418   5.079   0.482 -0.7388 -0.4581 -0.9509
  830MOL0     O14438   6.371   5.180   0.404  0.0866  0.0616  0.5331
  830MOL0     C14439   6.326   5.303   0.457  0.2692  0.5171 -0.3198
  830MOL0     C14440   6.260   5.377   0.344  0.0546  0.2289 -0.6061
  830MOL0     C14441   6.117   5.339   0.302 -0.1953 -0.2507 -0.1458
  830MOL0     C14442   6.074   5.420   0.183 -0.1830 -0.7307 -0.0707
  830MOL0     C14443   5.927   5.394   0.149  0.3926  0.2214  0.4097
  830MOL0     C14444   5.867   5.448   0.016 -0.1043 -0.9620 -0.1276
  830MOL0     C14445   5.725   5.408  -0.011  0.1649 -0.6642  0.8776
  830MOL0     C14446   5.712   5.263  -0.046 -0.5686 -0.3650 -0.3473
  830MOL0    Cl14447   5.535   5.221  -0.070 -0.0738 -0.1896  0.3344
  830MOL0     C14448   6.520   5.095   0.575 -0.3800  0.1493 -1.0575
  830MOL0     C14449   6.567   4.995   0.660 -0.3142  0.6037  0.6315
  830MOL0     O14450   6.771   4.732   0.632 -0.1435 -0.6071  0.2151
  830MOL0     C14451   6.597   4.535   0.864 -0.0929 -0.8138  0.2760
  830MOL0     C14452   6.591   4.412   0.932 -0.6380  0.0368 -0.7883
  830MOL0     N14453   6.793   3.606   1.253 -0.2922 -0.2902  0.5232
  830MOL0     N14454   6.876   3.567   1.346 -0.1996  0.1100  0.3619
  830MOL0     C14455   7.633   2.921   1.406  0.4184 -0.5287 -0.1886
  830MOL0     C14456   7.659   2.777   1.402 -0.5516  0.4128 -0.2364
  830MOL0     C14457   7.607   2.316   1.323  0.8876  0.4665  0.4000
  830MOL0     C14458   7.738   2.302   1.371  0.7390  0.3089  0.5615
  830MOL0     C14459   7.797   2.178   1.387 -1.2569  0.2137 -0.1516
  830MOL0     C14460   7.728   2.062   1.358  0.6893  0.4216  0.3807
  830MOL0     O14461   7.790   1.941   1.383 -0.5500 -0.3846  0.0066
  830MOL0     C14462   7.769   1.835   1.292 -0.0624 -0.5509  0.3809
  830MOL0     C14463   7.868   1.724   1.315  0.3987  0.1353 -0.1659
  830MOL0     C14464   7.883   1.684   1.468 -0.7808 -0.1304 -0.0968
  830MOL0     C14465   7.919   1.536   1.486  0.4048 -0.0411  0.7580
  830MOL0     C14466   8.051   1.505   1.429 -0.0843 -1.2696  0.5177
  830MOL0     C14467   8.161   1.480   1.379 -0.4755  0.8091 -0.0445
  830MOL0     C14468   7.593   2.069   1.326 -0.2485 -0.5668  0.6621
  830MOL0     C14469   7.535   2.193   1.292  0.5993  0.0176  0.4054
  830MOL0     C14470   7.403   2.183   1.231 -1.4290 -0.2585  0.5027
  830MOL0     H14471   7.382   2.678   1.222 -1.7163  1.7232 -1.0065
  830MOL0     H14472   7.347   2.910   1.227  1.2662 -0.3223 -1.9186
  830MOL0     H14473   7.287   3.057   1.395  0.7760  0.4111  2.4242
  830MOL0     H14474   7.309   3.146   1.245  0.9524 -3.3989 -0.0036
  830MOL0     H14475   7.331   3.355   1.373  4.8890 -0.9931 -0.4733
  830MOL0     H14476   7.203   3.272   1.452 -0.5407  0.1440 -3.3485
  830MOL0     H14477   7.386   3.184   1.620 -2.2677  0.3828  0.3614
  830MOL0     H14478   7.491   3.291   1.530 -0.2674  2.2232 -0.1158
  830MOL0     H14479   7.226   3.380   1.668 -0.7127  1.7145  1.5637
  830MOL0     H14480   7.376   3.400   1.753 -1.0305 -0.5487  0.4798
  830MOL0     H14481   7.361   3.547   1.487 -1.3893  2.1294  0.3856
  830MOL0     H14482   7.435   3.597   1.621  4.1443 -3.5474 -1.7944
  830MOL0     H14483   7.177   3.586   1.720  2.3718  1.4285  0.3864
  830MOL0     H14484   7.249   3.735   1.656 -0.0490  1.0110  0.6039
  830MOL0     H14485   7.114   3.532   1.464 -0.8767 -0.2029  1.0094
  830MOL0     H14486   7.151   3.718   1.442 -1.5715  1.0638  0.4287
  830MOL0     H14487   6.924   3.614   1.611 -1.3100  1.1478  1.3564
  830MOL0     H14488   6.967   3.786   1.587 -1.8138  1.0679 -1.5994
  830MOL0     H14489   6.789   3.879   1.413  1.5707 -0.4711  2.2671
  830MOL0     H14490   6.562   3.800   1.248  0.7268  0.2885  0.6482
  830MOL0     H14491   6.639   3.748   1.095  1.2869  0.5922 -0.6158
  830MOL0     H14492   6.733   4.016   1.218  1.8551 -2.7576 -0.3640
  830MOL0     H14493   6.767   3.941   1.069 -2.3580 -1.6177 -2.2822
  830MOL0     H14494   6.512   3.956   0.994  0.0090  2.3502 -1.8287
  830MOL0     H14495   6.481   4.003   1.160 -2.8707 -1.9617 -2.2787
  830MOL0     H14496   6.450   4.190   1.015 -0.3605 -3.4788 -1.6599
  830MOL0     H14497   6.593   4.220   1.122  0.1099  1.4869 -0.8511
  830MOL0     H14498   6.742   4.226   0.699  0.8870  1.1614 -2.2794
  830MOL0     H14499   6.677   4.496   0.494 -2.0133  0.3416  4.8373
  830MOL0     H14500   6.809   4.355   0.494 -1.4128 -0.2454 -0.6738
  830MOL0     H14501   6.839   4.523   0.543 -0.4151  0.4083 -0.4616
  830MOL0     H14502   6.392   4.740   0.520 -0.9733  0.2613  0.1381
  830MOL0     H14503   6.286   4.936   0.397 -1.7364  1.7743  0.7873
  830MOL0     H14504   6.252   5.292   0.537  0.8821  1.5403  0.4180
  830MOL0     H14505   6.408   5.357   0.506  0.4587 -0.1906  0.1642
  830MOL0     H14506   6.251   5.480   0.382  2.5793  0.1009  0.5877
  830MOL0     H14507   6.327   5.376   0.258 -1.1310 -2.1660 -1.5800
  830MOL0     H14508   6.050   5.339   0.388  2.3424  0.7954  1.9577
  830MOL0     H14509   6.123   5.237   0.264 -0.1594  0.1113 -1.1455
  830MOL0     H14510   6.144   5.403   0.100  0.1798  4.2860 -1.1530
  830MOL0     H14511   6.082   5.528   0.202 -1.1305 -0.7390  0.4446
  830MOL0     H14512   5.913   5.285   0.151  0.2143  0.2537  1.9542
  830MOL0     H14513   5.865   5.431   0.230 -1.8011  0.1679 -1.1538
  830MOL0     H14514   5.929   5.442  -0.074 -0.3105  0.4151 -0.3798
  830MOL0     H14515   5.847   5.553   0.038  0.4467 -1.4227  2.9692
  830MOL0     H14516   5.670   5.468  -0.084 -1.6248 -0.2887  2.4631
  830MOL0     H14517   5.668   5.419   0.081  0.9280 -1.1631  1.4169
  830MOL0     H14518   5.746   5.194   0.033  0.4005 -1.2303 -1.4782
  830MOL0     H14519   5.775   5.243  -0.133  2.0582  0.8798  1.1538
  830MOL0     H14520   6.553   5.197   0.594  0.3274  0.1522 -2.2109
  830MOL0     H14521   6.650   5.004   0.730 -1.1515  3.9414  1.4029
  830MOL0     H14522   6.546   4.622   0.905 -2.5354 -0.5402 -2.9124
  830MOL0     H14523   6.544   4.413   1.029 -1.2645  1.3719 -1.0886
  830MOL0     H14524   7.700   2.993   1.452  2.3565 -3.2157  1.5269
  830MOL0     H14525   7.754   2.735   1.434 -1.0280 -1.0244 -0.6162
  830MOL0     H14526   7.813   2.379   1.355  0.6752  0.6277  1.6942
  830MOL0     H14527   7.903   2.164   1.402 -1.0289 -1.4662 -2.6580
  830MOL0     H14528   7.666   1.800   1.293 -0.6031  0.9607  0.8315
  830MOL0     H14529   7.789   1.887   1.198 -1.6022  2.6569  1.6561
  830MOL0     H14530   7.965   1.755   1.273 -0.8062  0.6905 -2.7540
  830MOL0     H14531   7.830   1.646   1.249  0.9160  1.5570 -2.2643
  830MOL0     H14532   7.966   1.740   1.512 -0.3691 -2.4927  2.3764
  830MOL0     H14533   7.795   1.706   1.529  0.1880  0.2067  1.2161
  830MOL0     H14534   7.858   1.469   1.424  3.4282 -1.4487 -0.8987
  830MOL0     H14535   7.891   1.526   1.592  1.1246 -1.4273  0.8360
  830MOL0     H14536   8.251   1.455   1.327 -0.6033  0.5867 -0.1628
  830MOL0     H14537   7.542   1.974   1.314  1.0239 -1.3731  1.4982
  830MOL0     H14538   7.322   2.157   1.299 -1.2583 -0.3070  0.6879
  830MOL0     H14539   7.362   2.263   1.167 -2.5363 -1.3006 -0.1473
  830MOL0     H14540   7.405   2.100   1.159 -0.3144 -1.7902  2.2060
  831MOL0     O14541   1.265   7.288  10.922 -1.0124 -0.2409 -0.6624
  831MOL0     C14542   1.199   7.232  11.004  0.1946 -0.8234  0.2442
  831MOL0     O14543   1.095   7.289  11.072  0.1919 -0.2004 -0.3364
  831MOL0     C14544   1.057   7.411  11.027  1.2604 -0.5582  0.9596
  831MOL0     C14545   0.914   7.440  11.010  0.2858 -0.1911  0.7409
  831MOL0     C14546   0.865   7.561  10.973  0.6763  0.9946 -0.2202
  831MOL0     C14547   0.960   7.656  10.946 -0.3351  0.0692 -0.1244
  831MOL0     O14548   0.908   7.777  10.923 -0.0203  0.1759  0.8939
  831MOL0     C14549   0.981   7.898  10.905  0.0045  0.9632 -0.3091
  831MOL0     C14550   0.901   8.027  10.866  0.0970  1.0633  0.5672
  831MOL0     C14551   0.840   7.993  10.727 -0.8012  0.5750 -0.1354
  831MOL0     C14552   0.948   8.024  10.618 -0.0452  0.1091 -0.0684
  831MOL0     C14553   0.901   7.995  10.474  0.4945  0.2526 -0.0893
  831MOL0     C14554   0.914   7.847  10.445  1.0465  0.2059  0.3807
  831MOL0     C14555   0.853   7.807  10.305  0.0084 -0.3024  1.0203
  831MOL0     C14556   0.709   7.812  10.287  0.4729 -0.4779  0.1951
  831MOL0     N14557   0.657   7.724  10.184 -0.0466 -0.2463 -0.5299
  831MOL0     C14558   0.708   7.717  10.056 -0.2284 -0.4175 -0.9767
  831MOL0     C14559   0.631   7.624   9.998 -0.1199 -0.1268  0.4167
  831MOL0     C14560   0.651   7.582   9.853 -0.4490  0.1345  0.4493
  831MOL0     C14561   0.618   7.692   9.753  0.4168 -0.6560 -0.3766
  831MOL0     C14562   0.465   7.719   9.739  0.1266  0.6273 -0.3610
  831MOL0     C14563   0.431   7.862   9.719  0.7104 -1.0026 -0.2555
  831MOL0     O14564   0.485   7.959   9.821 -0.1817  1.0275 -0.3486
  831MOL0     C14565   0.437   7.961   9.950 -0.7530 -0.0608 -0.3498
  831MOL0     C14566   0.323   7.906   9.996  0.3107 -0.8903 -0.5385
  831MOL0     C14567   0.285   7.912  10.139 -0.4348  0.9282  0.5070
  831MOL0     C14568   0.156   7.840  10.184 -0.6791  1.1249  0.6174
  831MOL0     C14569   0.368   7.989  10.229  0.5314  0.2377  0.5483
  831MOL0     C14570   0.356   7.992  10.381  0.7625  0.6183  0.2345
  831MOL0     O14571   0.472   7.967  10.444  0.3962 -0.3642  0.3517
  831MOL0     C14572   0.472   7.923  10.576 -0.3910 -0.3999  0.1774
  831MOL0     C14573   0.514   7.794  10.608 -0.0799 -0.1992 -0.1158
  831MOL0     C14574   0.525   7.758  10.738  0.1980  0.2356  0.1637
  831MOL0     C14575   0.491   7.851  10.841  0.1526  0.2811  0.7913
  831MOL0     O14576   0.516   7.825  10.974  0.6027  0.0926 -0.2587
  831MOL0     C14577   0.402   7.791  11.046 -0.4506 -0.1476 -0.8412
  831MOL0     C14578   0.311   7.673  10.987 -0.1411  0.2540 -0.7462
  831MOL0     C14579   0.375   7.545  11.033  1.2971  0.0419 -0.0920
  831MOL0     C14580   0.283   7.427  10.974 -0.7017 -0.0503 -0.2517
  831MOL0     C14581   0.133   7.441  10.996  0.9967 -0.2840 -0.2104
  831MOL0     C14582   0.071   7.304  10.966 -0.4637  0.4215 -0.0109
  831MOL0     C14583  -0.073   7.313  10.979 -0.6968 -0.1861  0.0018
  831MOL0     C14584  -0.151   7.192  10.934 -0.2851  0.3923 -0.1440
  831MOL0    Cl14585  -0.171   7.171  10.757 -0.3794  0.4845  0.1960
  831MOL0     C14586   0.451   7.980  10.799  0.3030 -0.1854 -0.4713
  831MOL0     C14587   0.449   8.021  10.668  0.9102  0.4770 -0.6994
  831MOL0     O14588   0.248   8.000  10.436  0.1195 -0.9071 -0.7158
  831MOL0     C14589   0.462   8.070  10.165 -0.2699 -0.3996 -0.1000
  831MOL0     C14590   0.505   8.052  10.030 -0.3429  0.4060 -0.1694
  831MOL0     N14591   0.538   7.575  10.079 -0.1023  0.3977 -0.1733
  831MOL0     N14592   0.553   7.636  10.192 -0.4668 -0.5448 -0.1739
  831MOL0     C14593   1.096   7.630  10.954 -0.2759  0.1969  0.1904
  831MOL0     C14594   1.143   7.516  11.008 -0.1064 -0.1484 -0.0328
  831MOL0     C14595   1.255   7.095  11.039 -0.0182  0.0048 -0.3258
  831MOL0     C14596   1.352   7.039  10.960 -0.2178  0.7590  0.9028
  831MOL0     C14597   1.387   6.906  10.966 -0.0528  0.5776 -0.4270
  831MOL0     C14598   1.351   6.828  11.082 -0.0059  0.7349 -0.3801
  831MOL0     O14599   1.401   6.700  11.096 -0.0638 -0.3255 -0.6956
  831MOL0     C14600   1.375   6.623  11.210 -0.7656 -0.0115 -0.5881
  831MOL0     C14601   1.487   6.646  11.307 -0.6195 -0.5623  1.2889
  831MOL0     C14602   1.605   6.549  11.269  0.4288  0.1880 -0.0433
  831MOL0     C14603   1.734   6.595  11.324 -0.9356 -0.0623 -0.5336
  831MOL0     C14604   1.735   6.564  11.472  0.0567  0.1124  0.5863
  831MOL0     C14605   1.739   6.537  11.592 -0.3644 -0.9238 -1.0264
  831MOL0     C14606   1.252   6.885  11.164  0.4254 -0.1342 -0.0922
  831MOL0     C14607   1.206   7.022  11.148 -0.3455 -0.4387  0.6270
  831MOL0     C14608   1.106   7.068  11.258  0.1403  0.2798 -0.2477
  831MOL0     H14609   0.848   7.355  11.027  0.4051 -0.3022  0.6415
  831MOL0     H14610   0.763   7.584  10.945  1.0500  3.3869  0.0830
  831MOL0     H14611   1.057   7.883  10.828 -2.1571 -0.5595 -2.2868
  831MOL0     H14612   1.028   7.924  11.000 -1.1602 -0.7600  0.7983
  831MOL0     H14613   0.821   8.030  10.941 -3.5317  0.6553 -2.8962
  831MOL0     H14614   0.962   8.117  10.858  0.5589  0.5851 -2.6973
  831MOL0     H14615   0.809   7.888  10.724  3.1620 -0.7442 -0.9894
  831MOL0     H14616   0.756   8.053  10.692 -0.4698  1.5022  0.6237
  831MOL0     H14617   0.967   8.132  10.611 -0.5255  0.1531 -0.8468
  831MOL0     H14618   1.043   7.973  10.638 -1.3571 -1.6670  2.0275
  831MOL0     H14619   0.965   8.058  10.412  1.1584 -0.2384  0.0904
  831MOL0     H14620   0.798   8.028  10.459  0.1866 -0.5587  0.1838
  831MOL0     H14621   1.017   7.814  10.430  0.1827 -1.6368 -2.1903
  831MOL0     H14622   0.868   7.793  10.529 -1.5975  1.0398 -0.4076
  831MOL0     H14623   0.880   7.705  10.277  0.4384  0.3970 -1.3634
  831MOL0     H14624   0.898   7.869  10.227  0.7718 -2.1629 -0.0908
  831MOL0     H14625   0.672   7.783  10.386  1.9771 -2.6981  0.1806
  831MOL0     H14626   0.670   7.912  10.267 -2.1858 -1.1500  1.5374
  831MOL0     H14627   0.786   7.779  10.013 -1.0157  1.3544  0.0262
  831MOL0     H14628   0.599   7.490   9.825 -0.5576  1.0064 -2.6427
  831MOL0     H14629   0.754   7.554   9.829 -0.4828  0.9087 -0.6714
  831MOL0     H14630   0.663   7.784   9.790 -2.8675  0.4117  1.3216
  831MOL0     H14631   0.667   7.662   9.660  2.0461 -0.2420  0.3129
  831MOL0     H14632   0.442   7.659   9.650 -1.6044  0.4887  0.1316
  831MOL0     H14633   0.390   7.675   9.807  0.5748 -2.8746 -1.8974
  831MOL0     H14634   0.486   7.878   9.626 -0.2973 -0.7992 -0.8389
  831MOL0     H14635   0.325   7.879   9.697  0.3189 -1.7098  0.9452
  831MOL0     H14636   0.252   7.858   9.930 -1.9910  0.7511  0.5987
  831MOL0     H14637   0.099   7.919  10.234  1.6574  4.2741 -1.2577
  831MOL0     H14638   0.186   7.772  10.265  1.2625  2.7979  1.4091
  831MOL0     H14639   0.104   7.783  10.107 -1.7758  1.4030  1.1286
  831MOL0     H14640   0.549   7.723  10.534  0.1939  1.3976 -1.5800
  831MOL0     H14641   0.574   7.663  10.756  0.5095  0.5507  1.0792
  831MOL0     H14642   0.442   7.761  11.143  1.3068  2.7116 -0.5791
  831MOL0     H14643   0.335   7.874  11.070 -1.7714 -2.0128  2.6778
  831MOL0     H14644   0.224   7.693  11.050  0.7116 -0.5468  0.7452
  831MOL0     H14645   0.296   7.669  10.879 -0.5826 -2.2502 -0.6447
  831MOL0     H14646   0.375   7.541  11.143  0.6260 -0.3980 -0.1031
  831MOL0     H14647   0.475   7.534  10.989  2.4378  2.1885  1.7400
  831MOL0     H14648   0.324   7.336  11.019  0.7100  0.7515  0.1546
  831MOL0     H14649   0.305   7.421  10.867 -2.4566 -1.8709 -0.5822
  831MOL0     H14650   0.109   7.469  11.099  0.1781  1.2647 -0.7913
  831MOL0     H14651   0.081   7.513  10.933 -1.3047  0.4366  2.3039
  831MOL0     H14652   0.110   7.232  11.038  1.6380 -0.6813 -2.0961
  831MOL0     H14653   0.102   7.281  10.863  1.2922  0.9780  0.3668
  831MOL0     H14654  -0.101   7.406  10.927  2.4541  1.1276  0.4006
  831MOL0     H14655  -0.103   7.322  11.083 -1.2557  3.7065 -0.3352
  831MOL0     H14656  -0.242   7.202  10.993 -0.8925  2.4483 -1.3198
  831MOL0     H14657  -0.107   7.097  10.968  1.1168  1.6432  1.7576
  831MOL0     H14658   0.417   8.052  10.873 -1.8236 -1.5452 -0.0108
  831MOL0     H14659   0.410   8.121  10.654 -0.3574 -0.0087 -0.7480
  831MOL0     H14660   0.510   8.146  10.227 -1.9826  0.8595 -0.2560
  831MOL0     H14661   0.597   8.096   9.993 -1.3673  2.1434 -0.7682
  831MOL0     H14662   1.174   7.704  10.938 -2.6569  2.2486 -3.2888
  831MOL0     H14663   1.250   7.506  11.022 -0.2390 -0.8341  0.5851
  831MOL0     H14664   1.395   7.093  10.876 -0.7650 -0.2828 -0.0857
  831MOL0     H14665   1.444   6.866  10.883 -0.7151 -2.4927  0.4602
  831MOL0     H14666   1.278   6.645  11.257 -1.6233 -0.2213 -2.1705
  831MOL0     H14667   1.378   6.516  11.186 -1.5966 -0.7916  2.4178
  831MOL0     H14668   1.449   6.621  11.406 -0.4638  0.4110  1.6071
  831MOL0     H14669   1.522   6.749  11.293 -1.3959 -0.4094  0.4014
  831MOL0     H14670   1.582   6.449  11.306 -0.9736  0.0701 -1.1424
  831MOL0     H14671   1.622   6.551  11.161  0.1966  2.5587 -0.0832
  831MOL0     H14672   1.748   6.701  11.304  1.4918 -0.3230 -0.4872
  831MOL0     H14673   1.823   6.547  11.283  0.4116  1.5231  0.4040
  831MOL0     H14674   1.734   6.511  11.696  0.2843  2.3832 -0.0435
  831MOL0     H14675   1.217   6.828  11.249  1.6166  1.9280  1.8700
  831MOL0     H14676   1.157   7.129  11.333 -0.3293  0.6368 -0.2197
  831MOL0     H14677   1.020   7.127  11.226 -1.2549 -1.5239  0.0379
  831MOL0     H14678   1.067   6.981  11.313 -0.6064  1.2438  0.7891
  832MOL0     O14679   7.580   8.863   7.491 -0.2887  0.1951  0.3491
  832MOL0     C14680   7.655   8.850   7.584 -0.2719 -0.0223 -0.5643
  832MOL0     O14681   7.611   8.850   7.715  0.2808  0.0692 -0.2234
  832MOL0     C14682   7.479   8.850   7.744 -0.4242  0.4417  0.0376
  832MOL0     C14683   7.393   8.753   7.705  1.0053  0.0947  0.3183
  832MOL0     C14684   7.256   8.754   7.735  0.4566  0.1094 -0.5071
  832MOL0     C14685   7.213   8.858   7.809  0.4526  0.1607 -0.6312
  832MOL0     O14686   7.085   8.843   7.858  0.0517  0.1444 -0.0025
  832MOL0     C14687   7.025   8.949   7.925  0.5912 -0.3470  0.2804
  832MOL0     C14688   6.878   8.934   7.961 -0.0851 -0.1215 -0.2219
  832MOL0     C14689   6.858   9.002   8.097  0.6533 -0.0624  0.4811
  832MOL0     C14690   6.911   9.153   8.098  0.1582  0.0553 -0.5623
  832MOL0     C14691   6.933   9.207   8.240 -0.5148  0.3978 -0.7252
  832MOL0     C14692   7.071   9.179   8.296  0.4644  0.4905  0.1541
  832MOL0     C14693   7.085   9.119   8.433  0.2034 -1.2095 -0.0715
  832MOL0     C14694   7.231   9.124   8.465 -0.2759  0.2178  0.7111
  832MOL0     N14695   7.257   9.068   8.602  0.4655  0.5666 -0.8822
  832MOL0     C14696   7.217   9.118   8.723  0.2399 -0.1606  0.4364
  832MOL0     C14697   7.266   9.034   8.810  0.0261  0.1436  0.1235
  832MOL0     C14698   7.250   9.060   8.955 -0.6357 -0.1042  0.0731
  832MOL0     C14699   7.325   9.192   8.988  0.0789 -0.7131  0.6247
  832MOL0     C14700   7.472   9.191   8.951  0.2930  0.2168  0.6594
  832MOL0     C14701   7.523   9.307   8.853 -0.2959  0.1512 -0.6430
  832MOL0     O14702   7.455   9.309   8.728 -1.0457 -0.2778 -0.1541
  832MOL0     C14703   7.467   9.434   8.663 -0.1249  0.4409 -0.1602
  832MOL0     C14704   7.582   9.504   8.646 -0.4393  0.0633 -0.2417
  832MOL0     C14705   7.594   9.626   8.576  0.2206  0.8159  0.2473
  832MOL0     C14706   7.728   9.691   8.579 -1.0590 -0.5486  0.8402
  832MOL0     C14707   7.483   9.685   8.526  0.4086 -0.6096  0.8408
  832MOL0     C14708   7.485   9.801   8.431 -0.3338  0.1455 -0.4661
  832MOL0     O14709   7.358   9.840   8.378 -0.0588  0.2034  0.0774
  832MOL0     C14710   7.366   9.939   8.281 -0.5716  0.5292 -0.1201
  832MOL0     C14711   7.321   9.922   8.154 -0.8955 -0.5813 -0.3304
  832MOL0     C14712   7.341  10.027   8.066 -0.5055 -0.9206  0.3798
  832MOL0     C14713   7.378  10.161   8.107 -0.5990 -0.1907  0.2906
  832MOL0     O14714   7.368  10.255   8.001 -0.6520  0.4073 -0.6675
  832MOL0     C14715   7.403  10.389   8.029  0.7582 -0.5189 -0.5623
  832MOL0     C14716   7.270  10.473   8.012  0.0767  0.2812 -1.2851
  832MOL0     C14717   7.295  10.624   8.024 -0.0637  0.2301 -0.0955
  832MOL0     C14718   7.174  10.702   7.984 -0.3343  0.1335 -0.3241
  832MOL0     C14719   7.176  10.858   7.997  0.2275 -0.3670 -0.0786
  832MOL0     C14720   7.053  10.930   7.941  0.6318 -0.6989  0.3734
  832MOL0     C14721   7.045  11.087   7.958  0.5791  0.3571  0.1793
  832MOL0     C14722   7.023  11.123   8.106 -0.0853  0.3913  0.2040
  832MOL0    Cl14723   6.969  11.289   8.131 -0.5656  0.1743  0.0984
  832MOL0     C14724   7.430  10.172   8.234 -0.1558 -0.2657 -0.1409
  832MOL0     C14725   7.417  10.067   8.321  0.6262 -0.1722 -0.2097
  832MOL0     O14726   7.591   9.865   8.413 -0.3179  0.1532 -0.3100
  832MOL0     C14727   7.360   9.609   8.535  0.3920 -0.4391  0.2663
  832MOL0     C14728   7.346   9.489   8.600 -0.0800  0.6317  0.2945
  832MOL0     N14729   7.322   8.933   8.746 -0.0741  0.5737 -0.8119
  832MOL0     N14730   7.327   8.957   8.626 -0.7594  0.8306 -0.0970
  832MOL0     C14731   7.298   8.966   7.850 -1.3081 -0.0205 -0.8521
  832MOL0     C14732   7.433   8.955   7.822  0.6489 -0.0240  0.8588
  832MOL0     C14733   7.803   8.821   7.556  0.3017 -0.5074 -0.2433
  832MOL0     C14734   7.879   8.760   7.655  0.1387  0.3775 -0.5185
  832MOL0     C14735   8.010   8.719   7.645 -0.1418  0.1270 -0.3394
  832MOL0     C14736   8.078   8.738   7.524  1.2236 -0.2386  0.5318
  832MOL0     O14737   8.206   8.691   7.519 -0.5359  0.2513  1.2734
  832MOL0     C14738   8.284   8.735   7.406 -0.1103 -0.3715 -0.2248
  832MOL0     C14739   8.425   8.687   7.406 -0.6397  0.3577 -0.4155
  832MOL0     C14740   8.435   8.547   7.462  0.0974  0.2378 -0.4921
  832MOL0     C14741   8.572   8.475   7.444 -0.4339 -0.2716  0.4547
  832MOL0     C14742   8.553   8.336   7.477  0.4405 -0.7876 -0.1099
  832MOL0     C14743   8.548   8.222   7.520  0.1395  0.0647  0.3250
  832MOL0     C14744   7.999   8.792   7.413 -1.2158 -0.4007 -0.0505
  832MOL0     C14745   7.862   8.835   7.428 -0.7731  0.1408 -0.5706
  832MOL0     C14746   7.787   8.892   7.315  0.1333  0.4148 -0.1636
  832MOL0     H14747   7.441   8.678   7.642 -2.0496 -0.3551 -1.6481
  832MOL0     H14748   7.181   8.682   7.704  0.6567 -0.5821  0.5641
  832MOL0     H14749   7.033   9.038   7.862 -0.7455 -1.1755 -1.1148
  832MOL0     H14750   7.085   8.966   8.015 -2.1903  0.9158  2.0391
  832MOL0     H14751   6.821   8.983   7.881 -0.7916 -3.9603 -2.3058
  832MOL0     H14752   6.841   8.831   7.963 -3.5757  0.9954  0.6523
  832MOL0     H14753   6.752   9.007   8.124  0.4653 -1.7017  0.1214
  832MOL0     H14754   6.908   8.946   8.177 -0.7516  0.3950  1.7179
  832MOL0     H14755   7.003   9.177   8.044 -1.3944  1.1989 -2.8773
  832MOL0     H14756   6.830   9.213   8.055  1.6920  0.8725 -2.4938
  832MOL0     H14757   6.858   9.160   8.305 -0.2733  0.9949 -0.0169
  832MOL0     H14758   6.925   9.315   8.254 -3.5344  0.1980 -0.0840
  832MOL0     H14759   7.132   9.133   8.218 -0.8128 -0.3733 -0.3500
  832MOL0     H14760   7.112   9.281   8.301  0.1560  0.5843  0.8441
  832MOL0     H14761   7.030   9.025   8.445 -3.2079  0.9604  3.5604
  832MOL0     H14762   7.041   9.178   8.514  1.6270 -1.9601  1.2911
  832MOL0     H14763   7.292   9.075   8.388 -0.2304 -0.9379  1.4453
  832MOL0     H14764   7.274   9.224   8.463  0.5934 -0.1287  1.0921
  832MOL0     H14765   7.148   9.195   8.755 -2.8724 -3.4607  2.4644
  832MOL0     H14766   7.287   8.968   9.002  0.7462  1.4520  2.2503
  832MOL0     H14767   7.142   9.077   8.966 -0.6987  0.2341 -0.9624
  832MOL0     H14768   7.279   9.277   8.938  0.1297 -1.6658 -1.1093
  832MOL0     H14769   7.313   9.192   9.097 -1.1967 -2.6659  0.5328
  832MOL0     H14770   7.536   9.207   9.039  1.5543  0.7368 -0.3173
  832MOL0     H14771   7.487   9.102   8.890  0.9670 -0.0281  1.1649
  832MOL0     H14772   7.523   9.401   8.910  0.7100 -1.4399  2.1689
  832MOL0     H14773   7.626   9.294   8.820 -0.2224 -1.7557  0.2532
  832MOL0     H14774   7.675   9.458   8.679 -1.0877 -0.5652  0.7616
  832MOL0     H14775   7.774   9.682   8.480 -1.6128 -3.4767  0.7510
  832MOL0     H14776   7.797   9.627   8.636 -1.2933 -1.7721 -0.2025
  832MOL0     H14777   7.733   9.797   8.605  3.8272 -0.1087 -0.8695
  832MOL0     H14778   7.276   9.829   8.120  0.4781 -0.7982 -1.6378
  832MOL0     H14779   7.302  10.005   7.967 -1.3987 -1.7096  0.8994
  832MOL0     H14780   7.459  10.411   8.121 -1.2338 -1.1941  0.9068
  832MOL0     H14781   7.457  10.432   7.945  0.7120  1.3865  0.3031
  832MOL0     H14782   7.219  10.453   7.918 -1.2400  0.8333 -0.7173
  832MOL0     H14783   7.217  10.449   8.105  3.1624  0.4422  0.6387
  832MOL0     H14784   7.387  10.650   7.971 -0.8654 -4.1038 -4.3190
  832MOL0     H14785   7.309  10.654   8.129 -1.3403  1.1585 -0.1651
  832MOL0     H14786   7.098  10.656   8.049 -0.1962 -0.4747 -0.5830
  832MOL0     H14787   7.151  10.679   7.880 -1.1357 -0.3941 -0.0453
  832MOL0     H14788   7.198  10.877   8.103  1.0155  1.2488 -0.4963
  832MOL0     H14789   7.263  10.908   7.954 -0.7696 -0.1682 -1.9633
  832MOL0     H14790   6.965  10.880   7.984 -0.6664 -0.4805 -1.9100
  832MOL0     H14791   7.047  10.914   7.833 -1.9353  1.6953  0.0388
  832MOL0     H14792   6.953  11.116   7.906 -0.1610 -2.6774 -0.3879
  832MOL0     H14793   7.134  11.138   7.918  0.5372  0.5304  0.3096
  832MOL0     H14794   7.116  11.110   8.162  0.6059  0.6539 -0.8603
  832MOL0     H14795   6.939  11.062   8.143  0.9147 -2.1515 -1.4188
  832MOL0     H14796   7.468  10.271   8.256 -1.0468  0.9411 -3.4157
  832MOL0     H14797   7.464  10.093   8.415 -0.0331  3.1106 -0.6846
  832MOL0     H14798   7.268   9.657   8.500  1.9908  1.0287 -2.2394
  832MOL0     H14799   7.261   9.421   8.605  0.4812 -0.1820 -0.7916
  832MOL0     H14800   7.265   9.046   7.916  0.2154 -1.5998  2.0208
  832MOL0     H14801   7.506   9.019   7.868  1.9258 -0.6850 -0.1861
  832MOL0     H14802   7.824   8.737   7.745 -1.0002  1.1034 -1.0013
  832MOL0     H14803   8.069   8.671   7.722 -0.1608 -1.8613 -1.5056
  832MOL0     H14804   8.234   8.701   7.315 -1.5032 -0.6835  0.6186
  832MOL0     H14805   8.281   8.842   7.386  1.8271 -0.1255  0.6402
  832MOL0     H14806   8.485   8.752   7.471  0.3033 -0.9482  0.0595
  832MOL0     H14807   8.465   8.701   7.305 -0.2061  0.9447 -0.1714
  832MOL0     H14808   8.421   8.546   7.570 -0.7400  1.0873 -0.5763
  832MOL0     H14809   8.353   8.489   7.418  0.0277  1.0641 -1.5105
  832MOL0     H14810   8.646   8.518   7.512  0.5363  0.6354 -1.1081
  832MOL0     H14811   8.602   8.500   7.342 -0.8466  2.1255  0.8648
  832MOL0     H14812   8.549   8.119   7.549  1.6271 -0.6615 -2.0457
  832MOL0     H14813   8.039   8.799   7.312 -2.6058  1.8152 -0.5133
  832MOL0     H14814   7.854   8.916   7.232  0.7137 -0.2294  0.1101
  832MOL0     H14815   7.707   8.823   7.286 -0.9498  0.9666  1.3635
  832MOL0     H14816   7.738   8.985   7.344  0.4340  0.6186 -0.3089
  833MOL0     O14817   0.805   8.515   6.140 -0.6314  0.0327 -0.6509
  833MOL0     C14818   0.871   8.621   6.139  0.3315 -1.0444 -0.2682
  833MOL0     O14819   0.933   8.662   6.030  0.3181  0.5984 -0.0637
  833MOL0     C14820   0.846   8.702   5.923 -0.1425  0.1834 -0.8877
  833MOL0     C14821   0.712   8.720   5.942 -0.3031  0.0212  0.2292
  833MOL0     C14822   0.632   8.776   5.843  0.4613  0.6091 -0.1720
  833MOL0     C14823   0.689   8.808   5.717 -0.0163 -0.5072 -0.3207
  833MOL0     O14824   0.629   8.874   5.610  0.6254  0.2552  0.3034
  833MOL0     C14825   0.518   8.943   5.630  0.5014  0.3613 -0.3257
  833MOL0     C14826   0.449   8.967   5.493  0.7673 -0.4672  0.6899
  833MOL0     C14827   0.357   9.092   5.506  0.5280  0.0906  0.5491
  833MOL0     C14828   0.226   9.040   5.552 -0.3486 -0.1175  0.4172
  833MOL0     C14829   0.151   9.133   5.639 -0.3229 -0.1814 -0.3242
  833MOL0     C14830   0.224   9.148   5.773 -0.5256 -0.1122 -0.1355
  833MOL0     C14831   0.144   9.213   5.894  0.4338  0.7900 -0.9106
  833MOL0     C14832   0.241   9.262   5.999 -0.1843  0.7793 -0.7291
  833MOL0     N14833   0.320   9.157   6.065 -0.4252  0.1104  1.0482
  833MOL0     C14834   0.283   9.077   6.168  0.6354  0.0191 -0.5544
  833MOL0     C14835   0.396   9.003   6.198  0.2546  0.1663  0.0002
  833MOL0     C14836   0.419   8.912   6.325  0.0249 -0.7631  1.1953
  833MOL0     C14837   0.369   8.960   6.464 -0.0684  0.2788 -0.2570
  833MOL0     C14838   0.344   8.837   6.562  0.4334 -0.5680 -0.0461
  833MOL0     C14839   0.267   8.875   6.695 -0.6136 -0.1120  0.3361
  833MOL0     O14840   0.350   8.969   6.764 -0.0303 -0.7861 -0.5507
  833MOL0     C14841   0.287   9.024   6.880  0.3299  0.3168  0.5229
  833MOL0     C14842   0.170   8.995   6.939 -0.1695 -0.1086 -0.3407
  833MOL0     C14843   0.110   9.068   7.048  0.5165 -0.5059  0.3632
  833MOL0     C14844  -0.016   9.001   7.097 -0.8834  0.0525 -0.5220
  833MOL0     C14845   0.173   9.178   7.099 -0.2915 -0.3254  0.2238
  833MOL0     C14846   0.131   9.255   7.222 -0.8036 -0.8754 -0.1286
  833MOL0     O14847   0.008   9.248   7.264  0.5754 -0.0238  0.0607
  833MOL0     C14848  -0.032   9.327   7.369  0.6772 -0.3700 -0.1694
  833MOL0     C14849  -0.125   9.275   7.462 -0.6134 -0.3688 -0.0534
  833MOL0     C14850  -0.183   9.349   7.558  0.1193  0.1747  0.3168
  833MOL0     C14851  -0.164   9.488   7.575  0.6916 -1.0287  0.4920
  833MOL0     O14852  -0.224   9.543   7.686  0.0777 -0.2794  0.1485
  833MOL0     C14853  -0.169   9.665   7.731 -0.6099  0.6513  0.0337
  833MOL0     C14854  -0.222   9.718   7.866  0.0011  0.1770  0.6280
  833MOL0     C14855  -0.378   9.708   7.866  0.2879  0.5750  0.3828
  833MOL0     C14856  -0.424   9.709   8.016 -0.5827 -0.2384 -1.1755
  833MOL0     C14857  -0.566   9.741   8.032  0.0638 -0.5285  0.0891
  833MOL0     C14858  -0.632   9.714   8.164  0.4817  0.2853  0.2173
  833MOL0     C14859  -0.778   9.777   8.159 -0.8122  0.6516  0.1508
  833MOL0     C14860  -0.762   9.919   8.190  0.6084 -1.6010  0.0035
  833MOL0    Cl14861  -0.927  10.007   8.161 -0.1896  0.1273 -0.7280
  833MOL0     C14862  -0.070   9.551   7.485 -1.1552  0.1453 -1.6345
  833MOL0     C14863  -0.007   9.465   7.387 -0.9724  0.3567 -0.5258
  833MOL0     O14864   0.214   9.323   7.269 -0.4276 -0.0196  0.1963
  833MOL0     C14865   0.301   9.214   7.046 -0.5777  0.4344  0.1598
  833MOL0     C14866   0.358   9.138   6.939  0.4314 -0.7877 -0.1035
  833MOL0     N14867   0.495   9.044   6.120  0.3584  0.1643  1.0206
  833MOL0     N14868   0.456   9.145   6.038 -0.0680  0.1974  0.1000
  833MOL0     C14869   0.825   8.776   5.693  1.3233 -0.0014  0.4314
  833MOL0     C14870   0.893   8.716   5.801  1.1915  0.2492 -0.5479
  833MOL0     C14871   0.862   8.720   6.248 -0.0500 -0.1977 -0.1435
  833MOL0     C14872   0.774   8.683   6.354  0.4880  0.1378 -0.3424
  833MOL0     C14873   0.744   8.761   6.460  1.0506 -0.0238  0.1495
  833MOL0     C14874   0.795   8.890   6.467 -0.0715 -0.7091 -0.0123
  833MOL0     O14875   0.773   8.953   6.591 -0.0288 -0.4791  0.3528
  833MOL0     C14876   0.852   9.067   6.632 -0.5274 -0.7363  0.2299
  833MOL0     C14877   0.785   9.188   6.575  0.4078 -0.1416  0.3170
  833MOL0     C14878   0.635   9.187   6.604 -0.3811  0.1712 -0.4152
  833MOL0     C14879   0.573   9.330   6.619  0.5978 -0.0130 -0.0180
  833MOL0     C14880   0.427   9.318   6.622  0.6198  0.1490  0.5911
  833MOL0     C14881   0.302   9.329   6.632  0.2424 -0.5378 -0.1689
  833MOL0     C14882   0.890   8.928   6.368  0.4772  0.7558  1.2823
  833MOL0     C14883   0.913   8.850   6.255 -0.3163 -0.3464  0.9306
  833MOL0     C14884   1.011   8.913   6.159 -0.2559  0.8377 -0.4318
  833MOL0     H14885   0.651   8.697   6.029 -0.8467 -0.9485 -0.3842
  833MOL0     H14886   0.528   8.800   5.863  0.5264  0.4129  0.4123
  833MOL0     H14887   0.536   9.045   5.665  2.9032  1.3478 -3.9178
  833MOL0     H14888   0.452   8.887   5.697 -1.6126  5.0446  1.8996
  833MOL0     H14889   0.515   8.995   5.411  0.2828 -1.9329 -0.2298
  833MOL0     H14890   0.397   8.880   5.452 -0.2774  0.9882 -1.2214
  833MOL0     H14891   0.402   9.165   5.573  1.9812  0.6956 -1.0036
  833MOL0     H14892   0.350   9.140   5.408  2.7036  0.4790  0.5383
  833MOL0     H14893   0.172   9.008   5.462  0.3621 -0.8868  0.2514
  833MOL0     H14894   0.236   8.953   5.618 -2.6251  0.7524  2.0573
  833MOL0     H14895   0.047   9.103   5.654  0.2654 -1.7602  0.9137
  833MOL0     H14896   0.147   9.237   5.607  0.1359  0.4074  1.4156
  833MOL0     H14897   0.273   9.055   5.802 -0.2111  0.4996  1.3800
  833MOL0     H14898   0.302   9.220   5.745 -1.4621  0.3493 -1.6993
  833MOL0     H14899   0.081   9.142   5.948  1.0599  1.8863  1.3794
  833MOL0     H14900   0.080   9.297   5.866 -0.4065 -0.0355 -1.5088
  833MOL0     H14901   0.305   9.337   5.953  1.3175 -1.3737 -2.3502
  833MOL0     H14902   0.183   9.315   6.075 -2.7755  1.5508 -3.0876
  833MOL0     H14903   0.180   9.084   6.199 -0.0531 -0.7677 -2.5221
  833MOL0     H14904   0.525   8.886   6.332 -0.1554 -1.8220  0.2417
  833MOL0     H14905   0.358   8.824   6.304  0.3122 -0.7348  0.2067
  833MOL0     H14906   0.444   9.026   6.510  0.6015  0.1621 -1.1470
  833MOL0     H14907   0.273   9.012   6.452  1.3457  3.0167 -0.7333
  833MOL0     H14908   0.291   8.754   6.515 -2.9266  0.6771  1.2792
  833MOL0     H14909   0.445   8.801   6.586  0.0309 -2.7738 -1.4120
  833MOL0     H14910   0.170   8.921   6.670 -1.8019 -3.1495 -1.2482
  833MOL0     H14911   0.250   8.781   6.748 -0.2803  0.7117  1.9537
  833MOL0     H14912   0.111   8.914   6.896 -0.8189  0.3266 -0.2841
  833MOL0     H14913  -0.012   8.979   7.204  1.5232  2.2212 -0.0630
  833MOL0     H14914  -0.044   8.911   7.040  0.0623 -0.1894 -0.6232
  833MOL0     H14915  -0.102   9.069   7.094 -0.7002  0.4525  1.7038
  833MOL0     H14916  -0.156   9.171   7.458  0.8104 -1.1119  3.7125
  833MOL0     H14917  -0.264   9.319   7.624  0.2545  0.0335  0.4171
  833MOL0     H14918  -0.066   9.637   7.757 -1.0536 -1.4871 -0.3347
  833MOL0     H14919  -0.175   9.747   7.659  2.8105 -0.1046 -1.3381
  833MOL0     H14920  -0.184   9.648   7.941  0.1770 -0.5792 -0.1467
  833MOL0     H14921  -0.191   9.821   7.884 -0.3115  0.5620 -0.9072
  833MOL0     H14922  -0.416   9.615   7.822  2.7628 -0.6523  0.6785
  833MOL0     H14923  -0.422   9.791   7.810 -0.9682 -2.0840 -2.9087
  833MOL0     H14924  -0.356   9.771   8.077  0.3628 -2.6830  0.4017
  833MOL0     H14925  -0.403   9.606   8.046  2.3470  0.1497 -1.5595
  833MOL0     H14926  -0.573   9.846   8.001  0.7804 -0.8691 -1.3378
  833MOL0     H14927  -0.623   9.679   7.962  0.0424 -1.6079  1.0292
  833MOL0     H14928  -0.581   9.753   8.253  0.7456 -1.8612  1.0768
  833MOL0     H14929  -0.643   9.605   8.172  2.3421 -0.4366 -4.2273
  833MOL0     H14930  -0.840   9.727   8.233 -0.7778  1.0231  0.4353
  833MOL0     H14931  -0.822   9.759   8.061 -4.6238 -1.8213  2.0811
  833MOL0     H14932  -0.689   9.967   8.124 -1.2161  2.0398  0.3541
  833MOL0     H14933  -0.727   9.936   8.292  1.1873  0.9123 -0.5465
  833MOL0     H14934  -0.030   9.651   7.495  0.3005 -0.6573  3.3796
  833MOL0     H14935   0.063   9.515   7.321 -0.3219  1.6838  1.1032
  833MOL0     H14936   0.347   9.311   7.063 -0.1616  0.1586  0.5836
  833MOL0     H14937   0.447   9.181   6.896  0.0816  0.1564  0.0934
  833MOL0     H14938   0.873   8.796   5.598 -0.2229 -0.6437 -0.5147
  833MOL0     H14939   0.987   8.676   5.766  1.7014  0.3084  0.7233
  833MOL0     H14940   0.720   8.590   6.367  0.4642  0.2552  0.4756
  833MOL0     H14941   0.673   8.721   6.531  0.9081  2.0476  1.2713
  833MOL0     H14942   0.850   9.092   6.739 -1.1061  1.3555 -0.2348
  833MOL0     H14943   0.953   9.041   6.601  0.5089  0.8997  2.0463
  833MOL0     H14944   0.792   9.184   6.466 -2.9647 -3.4815  0.0024
  833MOL0     H14945   0.815   9.282   6.622 -1.2690 -0.6642  2.6346
  833MOL0     H14946   0.592   9.133   6.519  1.0251 -0.3624 -0.8037
  833MOL0     H14947   0.617   9.123   6.691  0.6498 -2.2046 -1.8592
  833MOL0     H14948   0.622   9.378   6.534  1.6192 -2.3267 -0.8184
  833MOL0     H14949   0.618   9.379   6.705 -0.1685  3.9530 -1.6604
  833MOL0     H14950   0.197   9.335   6.651  0.2810  0.2450 -0.1755
  833MOL0     H14951   0.933   9.027   6.371  3.2656 -0.2292 -1.3515
  833MOL0     H14952   1.074   8.839   6.107 -0.5171 -0.4516  1.0225
  833MOL0     H14953   0.953   8.970   6.086 -1.7732 -1.6015 -1.2756
  833MOL0     H14954   1.079   8.980   6.212 -2.5336  1.4465  1.9388
  834MOL0     O14955   8.727   0.215   1.076  0.1526 -0.5383 -0.1319
  834MOL0     C14956   8.853   0.224   1.059 -0.3897 -0.5950  0.0267
  834MOL0     O14957   8.915   0.221   0.940 -0.1718 -0.7894 -0.5472
  834MOL0     C14958   8.876   0.111   0.862  0.0065  0.4005  0.3263
  834MOL0     C14959   8.857  -0.021   0.902 -0.4460 -0.0316 -0.0508
  834MOL0     C14960   8.837  -0.124   0.811 -0.0837 -0.8868  0.4627
  834MOL0     C14961   8.841  -0.092   0.677 -0.6375  0.8261 -0.2880
  834MOL0     O14962   8.832  -0.209   0.613 -0.3208 -0.1104  0.4240
  834MOL0     C14963   8.810  -0.211   0.472  0.1347 -0.2674 -0.2375
  834MOL0     C14964   8.796  -0.361   0.433  0.4567  0.0427 -0.1573
  834MOL0     C14965   8.892  -0.471   0.495  0.3883  0.2784 -0.3098
  834MOL0     C14966   8.841  -0.606   0.445 -0.1585  0.7953 -0.5920
  834MOL0     C14967   8.929  -0.727   0.478 -0.3857 -0.0571 -0.8987
  834MOL0     C14968   9.051  -0.744   0.386  0.9607  0.5052 -0.5342
  834MOL0     C14969   9.123  -0.877   0.412  0.7146  0.8925 -0.2224
  834MOL0     C14970   9.237  -0.921   0.310  0.0717  0.7854  0.8645
  834MOL0     N14971   9.206  -0.918   0.161  0.0706  0.2246  0.2302
  834MOL0     C14972   9.111  -1.003   0.098  0.0751 -0.0693  0.8132
  834MOL0     C14973   9.156  -1.011  -0.028  0.1960  0.2933 -0.2519
  834MOL0     C14974   9.089  -1.078  -0.134  0.2126  0.2225  0.9301
  834MOL0     C14975   8.958  -1.015  -0.191  0.6734 -0.0918  0.0187
  834MOL0     C14976   8.833  -1.040  -0.107 -0.1806  0.5850 -0.4933
  834MOL0     C14977   8.709  -0.972  -0.170 -0.7351 -0.4534 -0.6961
  834MOL0     O14978   8.588  -1.017  -0.098 -0.0109  0.1529  0.9102
  834MOL0     C14979   8.482  -0.935  -0.101  0.7338  0.6671  0.0461
  834MOL0     C14980   8.384  -0.960  -0.005  0.1983 -0.1989  0.7854
  834MOL0     C14981   8.268  -0.881   0.002  0.2105 -0.0769 -0.2636
  834MOL0     C14982   8.162  -0.899   0.105  0.9197 -0.1249  0.1709
  834MOL0     C14983   8.250  -0.782  -0.088  0.6418 -0.6057  0.5312
  834MOL0     C14984   8.128  -0.704  -0.107  0.5671  0.1423 -0.1673
  834MOL0     O14985   8.113  -0.595  -0.021  1.3231  0.2357 -0.4966
  834MOL0     C14986   7.990  -0.533  -0.000  1.1783  0.4678 -0.3113
  834MOL0     C14987   7.907  -0.487  -0.107  0.2311  0.4574 -0.2943
  834MOL0     C14988   7.788  -0.418  -0.074 -0.9089 -0.0182 -0.3562
  834MOL0     C14989   7.740  -0.401   0.060  0.7023  0.4099  0.2821
  834MOL0     O14990   7.614  -0.352   0.090 -0.4499  0.1633  0.0303
  834MOL0     C14991   7.510  -0.372  -0.007  0.1000  0.0146 -0.0923
  834MOL0     C14992   7.475  -0.252  -0.101  0.0631  0.0619  0.6335
  834MOL0     C14993   7.321  -0.251  -0.125  0.5200  0.4648  0.0117
  834MOL0     C14994   7.268  -0.359  -0.216  0.8693  0.5529 -0.6549
  834MOL0     C14995   7.114  -0.389  -0.196 -0.2342 -0.0796  0.3079
  834MOL0     C14996   7.064  -0.452  -0.062  0.3729 -0.2553  0.8856
  834MOL0     C14997   7.086  -0.605  -0.066  0.3033 -0.3441 -0.2471
  834MOL0     C14998   7.010  -0.690  -0.156 -0.8151  0.4507  0.4449
  834MOL0    Cl14999   6.836  -0.705  -0.097  0.4459 -0.4518 -0.3816
  834MOL0     C15000   7.824  -0.449   0.164  0.8248  1.4001 -0.1134
  834MOL0     C15001   7.950  -0.506   0.129  1.2211  0.2286  0.2239
  834MOL0     O15002   8.041  -0.733  -0.195  0.0248 -1.3590 -0.6690
  834MOL0     C15003   8.342  -0.769  -0.196  1.3430  0.0809  0.2428
  834MOL0     C15004   8.456  -0.837  -0.198  0.3211  0.7906 -1.3404
  834MOL0     N15005   9.266  -0.934  -0.049  0.2035  0.0709 -0.1871
  834MOL0     N15006   9.293  -0.874   0.065 -0.1584  0.2389 -0.1810
  834MOL0     C15007   8.867   0.037   0.632  0.2787  0.6474 -0.8936
  834MOL0     C15008   8.887   0.139   0.728  0.5300  0.4058  0.2007
  834MOL0     C15009   8.923   0.299   1.167  0.2595  0.0486  1.2301
  834MOL0     C15010   8.882   0.273   1.296  0.3722 -0.3269 -0.1447
  834MOL0     C15011   8.947   0.349   1.402  0.3774  0.3314  0.1860
  834MOL0     C15012   9.039   0.446   1.378 -0.2664  0.1485 -0.3226
  834MOL0     O15013   9.105   0.513   1.475 -0.0592 -0.0154 -0.1799
  834MOL0     C15014   9.066   0.499   1.607 -1.1657  0.4767 -0.3716
  834MOL0     C15015   9.144   0.581   1.708 -0.1857 -0.2103 -0.8800
  834MOL0     C15016   9.304   0.551   1.702 -0.6423  0.0959  0.7242
  834MOL0     C15017   9.390   0.639   1.798 -0.9025  0.0732  0.6169
  834MOL0     C15018   9.537   0.628   1.786 -0.0092  0.0164  0.8588
  834MOL0     C15019   9.652   0.601   1.774  0.1139 -0.1915  0.6487
  834MOL0     C15020   9.067   0.476   1.249 -0.8019  0.0950  0.6898
  834MOL0     C15021   9.009   0.409   1.142  0.2293  0.2297  0.0082
  834MOL0     C15022   8.995   0.486   1.006 -0.7331  0.1187 -0.7501
  834MOL0     H15023   8.862  -0.047   1.007 -0.3364  1.4470  0.3273
  834MOL0     H15024   8.825  -0.226   0.846  1.2784 -0.1220  3.4395
  834MOL0     H15025   8.895  -0.168   0.419  3.2446 -3.1959  1.9946
  834MOL0     H15026   8.726  -0.143   0.451  2.4804  2.3709 -1.8214
  834MOL0     H15027   8.698  -0.392   0.468  1.5232 -2.0695  1.1570
  834MOL0     H15028   8.806  -0.369   0.324 -2.6131 -0.4063 -0.4852
  834MOL0     H15029   8.995  -0.468   0.458  1.3939 -1.3764  2.1017
  834MOL0     H15030   8.896  -0.482   0.604  0.9449 -0.0549 -0.3626
  834MOL0     H15031   8.750  -0.630   0.501  1.3233 -0.0758  1.6146
  834MOL0     H15032   8.822  -0.608   0.338 -1.7025  2.2790 -0.3876
  834MOL0     H15033   8.857  -0.804   0.451  0.4731 -0.2132 -2.9179
  834MOL0     H15034   8.962  -0.713   0.581 -7.5868  0.7351  1.8508
  834MOL0     H15035   9.008  -0.747   0.285 -0.0305 -1.0374 -0.0976
  834MOL0     H15036   9.118  -0.659   0.398 -1.1088  1.9186  2.3274
  834MOL0     H15037   9.045  -0.954   0.417  2.2749 -0.7268  0.2926
  834MOL0     H15038   9.171  -0.862   0.509  1.1123 -1.4731  0.0144
  834MOL0     H15039   9.322  -0.854   0.323  0.8020  0.0715 -0.0483
  834MOL0     H15040   9.275  -1.023   0.316  0.1120  0.3583 -3.5034
  834MOL0     H15041   9.025  -1.053   0.140 -0.3807  1.0678  1.2743
  834MOL0     H15042   9.062  -1.174  -0.090  0.0765 -0.4093 -0.4903
  834MOL0     H15043   9.163  -1.090  -0.213 -0.7509  2.1553 -0.3423
  834MOL0     H15044   8.973  -0.907  -0.201 -1.6698  0.2878  0.1137
  834MOL0     H15045   8.957  -1.072  -0.285  0.8344 -1.3079  0.7384
  834MOL0     H15046   8.827  -1.149  -0.114  0.6627  0.5296 -0.4737
  834MOL0     H15047   8.841  -1.014  -0.001 -0.0399  1.6382 -0.7590
  834MOL0     H15048   8.724  -0.864  -0.164  0.2213 -0.6354  0.8724
  834MOL0     H15049   8.702  -1.002  -0.275  2.1044 -0.9122 -0.8160
  834MOL0     H15050   8.391  -1.038   0.069  0.2691 -5.8203 -4.3720
  834MOL0     H15051   8.064  -0.888   0.057  1.6425 -0.5432 -1.4691
  834MOL0     H15052   8.169  -0.818   0.178  3.7838 -0.0273 -0.0958
  834MOL0     H15053   8.178  -0.991   0.161  1.0473  0.1120  0.5238
  834MOL0     H15054   7.939  -0.504  -0.209  2.5620  0.4378  0.3649
  834MOL0     H15055   7.738  -0.370  -0.157  2.2940  0.9156 -1.9121
  834MOL0     H15056   7.513  -0.467  -0.061  1.3431  0.8912 -1.6462
  834MOL0     H15057   7.419  -0.388   0.051  0.8537  0.2387  1.1708
  834MOL0     H15058   7.503  -0.160  -0.047 -0.2670 -0.6726  2.1221
  834MOL0     H15059   7.529  -0.258  -0.195  0.1205  0.3147  0.6486
  834MOL0     H15060   7.296  -0.157  -0.175 -2.1426  0.5616  1.3429
  834MOL0     H15061   7.275  -0.255  -0.025  0.3988 -1.9191 -0.0861
  834MOL0     H15062   7.322  -0.451  -0.190  0.3494  0.3589 -0.2625
  834MOL0     H15063   7.274  -0.332  -0.322 -2.5149  1.8547 -0.6248
  834MOL0     H15064   7.056  -0.297  -0.201 -0.4993 -0.1605  1.5459
  834MOL0     H15065   7.075  -0.452  -0.277  2.4300 -1.2621 -0.1499
  834MOL0     H15066   6.962  -0.423  -0.034 -0.1574  0.3315 -1.4274
  834MOL0     H15067   7.133  -0.412   0.013  0.2451  0.2263  0.7507
  834MOL0     H15068   7.057  -0.643   0.033 -1.9071 -2.1986 -1.5026
  834MOL0     H15069   7.192  -0.631  -0.068 -0.3668 -3.5133 -0.7626
  834MOL0     H15070   7.061  -0.786  -0.149 -0.9356  0.3356 -0.1515
  834MOL0     H15071   7.006  -0.655  -0.260  4.0777  5.0446  1.3769
  834MOL0     H15072   7.785  -0.452   0.265 -1.2419  0.9883 -0.8681
  834MOL0     H15073   8.014  -0.543   0.209 -0.4690  1.3478  2.2078
  834MOL0     H15074   8.317  -0.694  -0.270 -0.5084  1.7329  2.4114
  834MOL0     H15075   8.518  -0.793  -0.276 -1.3227  3.7023 -1.1815
  834MOL0     H15076   8.901   0.072   0.535  2.6962  2.7531  0.5760
  834MOL0     H15077   8.909   0.235   0.681 -0.5860  1.5820  1.9494
  834MOL0     H15078   8.815   0.192   1.321 -0.4961  0.3648 -0.1627
  834MOL0     H15079   8.926   0.322   1.505  1.0231 -0.8593  0.0207
  834MOL0     H15080   8.960   0.526   1.616 -0.5596  2.7295  0.7095
  834MOL0     H15081   9.088   0.398   1.642 -2.5713  0.9415  2.1524
  834MOL0     H15082   9.122   0.545   1.809  0.5730  2.7390  0.4191
  834MOL0     H15083   9.133   0.689   1.719  0.2205  0.0347 -2.6082
  834MOL0     H15084   9.331   0.448   1.728 -0.7957  0.5026  2.5763
  834MOL0     H15085   9.338   0.566   1.599 -0.0536 -2.7329  0.4145
  834MOL0     H15086   9.383   0.603   1.901 -3.2501 -2.4007 -0.2896
  834MOL0     H15087   9.347   0.738   1.781  2.8441  1.5666 -1.4397
  834MOL0     H15088   9.754   0.572   1.758  1.6127  3.9666  1.3494
  834MOL0     H15089   9.123   0.568   1.236 -2.6940  1.3639  1.1031
  834MOL0     H15090   8.896   0.475   0.962 -1.8120 -0.4126  1.6304
  834MOL0     H15091   9.018   0.593   1.008  0.1752 -0.0792 -0.1126
  834MOL0     H15092   9.071   0.454   0.934  0.9623 -0.5888  1.2450
  835MOL0     O15093   6.736   7.912   5.238 -0.2332  0.4188 -0.0965
  835MOL0     C15094   6.781   7.992   5.159  0.4668 -0.5377  0.9987
  835MOL0     O15095   6.862   8.102   5.184 -0.5587 -0.3280 -0.8602
  835MOL0     C15096   6.887   8.128   5.318 -0.4038  0.9358 -0.4740
  835MOL0     C15097   7.024   8.133   5.356 -0.4147  0.2623 -0.0493
  835MOL0     C15098   7.062   8.147   5.491 -0.2070  0.3433 -0.0057
  835MOL0     C15099   6.959   8.163   5.588  0.4396 -0.2955 -0.7472
  835MOL0     O15100   7.018   8.195   5.711  0.1661 -0.2340 -0.7838
  835MOL0     C15101   6.930   8.221   5.824 -0.1519 -0.4910 -0.1748
  835MOL0     C15102   6.870   8.092   5.877 -0.4560 -0.5524  0.3628
  835MOL0     C15103   6.916   8.040   6.016 -0.6706  0.5533  0.6287
  835MOL0     C15104   6.821   7.952   6.083  0.1357  0.4944 -0.1393
  835MOL0     C15105   6.849   7.934   6.230 -0.8850 -0.5786  0.1922
  835MOL0     C15106   6.855   8.061   6.322  0.9374  0.2695 -0.0795
  835MOL0     C15107   6.813   8.039   6.469  1.3613 -0.6066 -0.2283
  835MOL0     C15108   6.935   8.005   6.558  0.1330  0.0778 -0.1565
  835MOL0     N15109   6.902   7.949   6.691 -0.0049  0.3497 -0.4939
  835MOL0     C15110   6.819   8.016   6.778  0.6395 -0.1124  0.0020
  835MOL0     C15111   6.812   7.927   6.883 -0.3950  0.1727  0.0218
  835MOL0     C15112   6.734   7.948   7.005 -0.7892 -0.2645  0.8090
  835MOL0     C15113   6.804   8.026   7.122  0.8427  0.1121 -0.5304
  835MOL0     C15114   6.704   8.100   7.215 -0.1645 -0.2144 -0.7055
  835MOL0     C15115   6.775   8.143   7.346  0.2363  0.1973  0.8062
  835MOL0     O15116   6.884   8.239   7.328  0.4878 -0.3168  0.2383
  835MOL0     C15117   6.963   8.256   7.441 -0.0489 -0.2383  0.1950
  835MOL0     C15118   6.957   8.185   7.561 -0.8203  0.3787 -0.8226
  835MOL0     C15119   7.055   8.209   7.662  0.5657  0.0611  0.2577
  835MOL0     C15120   7.052   8.104   7.772 -0.7684 -0.1633  0.6858
  835MOL0     C15121   7.135   8.320   7.654  0.2632  0.1027 -0.5047
  835MOL0     C15122   7.229   8.367   7.759  0.2129 -1.3891 -1.2617
  835MOL0     O15123   7.207   8.326   7.885  0.0945  0.8838  0.1870
  835MOL0     C15124   7.247   8.401   7.989 -0.4915  0.1274  0.1304
  835MOL0     C15125   7.265   8.543   8.003 -0.9977 -0.4467  0.3066
  835MOL0     C15126   7.301   8.610   8.120 -0.8863  0.0713  0.1801
  835MOL0     C15127   7.350   8.538   8.225 -0.2883  0.6804 -0.3542
  835MOL0     O15128   7.407   8.609   8.329  0.4820  0.3103 -0.8439
  835MOL0     C15129   7.426   8.530   8.444 -0.1588  0.0666  0.3551
  835MOL0     C15130   7.454   8.615   8.563  0.3962 -0.0271 -0.3033
  835MOL0     C15131   7.442   8.545   8.695 -0.1227  0.5686  0.0850
  835MOL0     C15132   7.518   8.633   8.801 -0.9348  0.5318 -0.0860
  835MOL0     C15133   7.478   8.585   8.944  0.0139  0.5246  0.0405
  835MOL0     C15134   7.500   8.688   9.050 -0.7586 -0.9485 -0.7620
  835MOL0     C15135   7.656   8.702   9.070 -0.9674  0.2419 -0.4076
  835MOL0     C15136   7.688   8.817   9.165  0.0805  0.3243 -0.3252
  835MOL0    Cl15137   7.857   8.786   9.221  0.3659  0.1555  0.1219
  835MOL0     C15138   7.353   8.394   8.209 -0.1063  0.1634  0.7860
  835MOL0     C15139   7.307   8.331   8.090  0.0526  0.0523 -0.1527
  835MOL0     O15140   7.329   8.430   7.727 -0.1501  0.4036  1.0107
  835MOL0     C15141   7.126   8.403   7.543  0.1160 -0.6333 -0.1505
  835MOL0     C15142   7.046   8.364   7.433  0.5766  0.2333 -0.0706
  835MOL0     N15143   6.877   7.809   6.853  0.5525  0.2093  0.8068
  835MOL0     N15144   6.923   7.821   6.735 -0.4525  0.3757 -0.4095
  835MOL0     C15145   6.824   8.147   5.554  0.6193 -0.1312  0.0806
  835MOL0     C15146   6.782   8.138   5.423 -0.5375 -0.1183  0.6200
  835MOL0     C15147   6.746   7.961   5.015  0.2980 -1.5223  0.6221
  835MOL0     C15148   6.789   7.849   4.940  0.3989  0.1033 -0.1459
  835MOL0     C15149   6.753   7.827   4.805  0.0866  0.5110  0.4449
  835MOL0     C15150   6.680   7.921   4.732 -0.2347 -0.5064  0.0113
  835MOL0     O15151   6.654   7.895   4.600  0.1112  0.2914 -0.7367
  835MOL0     C15152   6.594   7.999   4.527  0.5850 -0.4523  0.5777
  835MOL0     C15153   6.440   8.001   4.547  0.2215  0.2321 -1.5439
  835MOL0     C15154   6.380   8.148   4.576  0.4611  0.1942  0.7160
  835MOL0     C15155   6.244   8.141   4.656 -0.0171  0.0803  0.3986
  835MOL0     C15156   6.274   8.109   4.800  0.5335  1.0391  0.1258
  835MOL0     C15157   6.306   8.100   4.914  0.0879  0.2790  0.4184
  835MOL0     C15158   6.657   8.043   4.792  0.5591  0.4751 -0.5385
  835MOL0     C15159   6.690   8.059   4.932 -0.8562 -0.5889 -0.0799
  835MOL0     C15160   6.653   8.189   4.990  0.7822 -0.4745 -0.0336
  835MOL0     H15161   7.094   8.114   5.276 -1.8746  0.2616 -1.3703
  835MOL0     H15162   7.165   8.130   5.519 -0.8047  0.4297  2.4515
  835MOL0     H15163   6.857   8.295   5.789  2.3294  3.4190  2.0681
  835MOL0     H15164   6.984   8.275   5.903  1.8663 -2.0790 -0.3967
  835MOL0     H15165   6.764   8.117   5.885 -0.9514 -1.9105 -1.4070
  835MOL0     H15166   6.882   8.009   5.806  0.6785  0.5568 -0.8056
  835MOL0     H15167   7.016   7.996   6.012 -0.8106  0.0988 -3.9305
  835MOL0     H15168   6.919   8.122   6.088  0.6273 -1.0723  2.5550
  835MOL0     H15169   6.729   8.010   6.082  1.1259  2.2964 -3.2216
  835MOL0     H15170   6.813   7.857   6.028  1.6715 -0.2946  0.9293
  835MOL0     H15171   6.945   7.884   6.247 -1.5316 -1.7777  0.4023
  835MOL0     H15172   6.779   7.855   6.257 -1.6061 -2.2261 -5.2388
  835MOL0     H15173   6.957   8.096   6.301  0.7672  0.4285 -0.6525
  835MOL0     H15174   6.799   8.144   6.277  3.1384  1.0765 -1.5189
  835MOL0     H15175   6.736   7.961   6.468  1.5442 -0.8258 -2.3725
  835MOL0     H15176   6.763   8.122   6.520  1.9008 -0.2472 -0.2707
  835MOL0     H15177   7.000   7.945   6.494  0.9211  1.2393 -0.4641
  835MOL0     H15178   6.987   8.096   6.589 -2.0062  0.6011  2.2364
  835MOL0     H15179   6.787   8.118   6.758 -3.0441 -0.6946  2.0455
  835MOL0     H15180   6.710   7.847   7.038 -1.4594 -1.0859 -1.9175
  835MOL0     H15181   6.641   7.997   6.974  0.1999 -0.1856 -2.4987
  835MOL0     H15182   6.852   7.945   7.178 -1.6004  0.0373  1.6005
  835MOL0     H15183   6.884   8.096   7.092  0.5393  0.0772 -1.4712
  835MOL0     H15184   6.682   8.199   7.174  3.3698  1.5695  1.2161
  835MOL0     H15185   6.623   8.032   7.242  0.5971 -1.2185 -0.8976
  835MOL0     H15186   6.699   8.194   7.405  1.4172  2.8522  0.2179
  835MOL0     H15187   6.801   8.052   7.400  0.9925 -0.8167 -1.1487
  835MOL0     H15188   6.880   8.108   7.563  2.3844 -3.2267 -3.1113
  835MOL0     H15189   7.001   8.012   7.740 -1.6536  0.1790  1.0839
  835MOL0     H15190   7.013   8.151   7.863  0.9038 -0.2002  1.4552
  835MOL0     H15191   7.156   8.077   7.790 -1.3462 -3.7094 -0.4300
  835MOL0     H15192   7.227   8.601   7.920 -0.8701  1.3915  1.4787
  835MOL0     H15193   7.273   8.712   8.144 -1.8535 -0.6237  2.2065
  835MOL0     H15194   7.336   8.474   8.469 -1.0997 -0.3620 -3.3536
  835MOL0     H15195   7.513   8.467   8.425 -0.6808 -0.8655  0.9415
  835MOL0     H15196   7.549   8.668   8.563  0.7320 -0.5929  1.0403
  835MOL0     H15197   7.375   8.690   8.567 -0.3934 -0.8738  0.4562
  835MOL0     H15198   7.488   8.446   8.686 -1.5119 -0.0952 -0.0707
  835MOL0     H15199   7.335   8.529   8.716 -0.6594 -0.3821 -2.9056
  835MOL0     H15200   7.500   8.741   8.798  0.9866  0.8807 -0.5585
  835MOL0     H15201   7.626   8.623   8.785 -0.7423  1.4982  0.5155
  835MOL0     H15202   7.370   8.565   8.949  0.4220 -2.9224 -1.8213
  835MOL0     H15203   7.519   8.488   8.973 -1.6379 -1.3868 -3.4101
  835MOL0     H15204   7.452   8.647   9.140 -1.7174 -1.0554 -1.3109
  835MOL0     H15205   7.444   8.774   9.012 -0.7268 -1.6694 -2.5036
  835MOL0     H15206   7.716   8.712   8.980  0.4484  0.6730  0.5517
  835MOL0     H15207   7.684   8.608   9.119 -0.3175  1.4386  1.6599
  835MOL0     H15208   7.624   8.808   9.254  0.7663 -1.7984  0.0099
  835MOL0     H15209   7.666   8.911   9.114  1.4172  0.6022 -0.4214
  835MOL0     H15210   7.400   8.331   8.284  0.8958 -2.0216 -1.5485
  835MOL0     H15211   7.306   8.223   8.091  0.7120 -0.1074  4.2141
  835MOL0     H15212   7.179   8.497   7.554 -1.5461  0.2576  0.5079
  835MOL0     H15213   7.049   8.411   7.336  2.0870 -2.7743 -1.6045
  835MOL0     H15214   6.742   8.152   5.625 -0.9871 -2.0013 -1.5003
  835MOL0     H15215   6.680   8.139   5.386 -1.0298  1.2920  1.9197
  835MOL0     H15216   6.851   7.783   4.999  0.1347  1.6840  1.9874
  835MOL0     H15217   6.789   7.739   4.753 -1.1242  1.1073 -1.5071
  835MOL0     H15218   6.630   8.102   4.535 -2.2764  0.9706 -2.3949
  835MOL0     H15219   6.614   7.965   4.425 -0.9303  0.4778 -0.0789
  835MOL0     H15220   6.399   7.929   4.618 -2.6729  0.5165 -2.7583
  835MOL0     H15221   6.388   7.976   4.453 -1.6575  0.1676 -0.5461
  835MOL0     H15222   6.448   8.213   4.632 -1.9519  1.8637  1.8597
  835MOL0     H15223   6.360   8.196   4.480 -0.2535 -1.4304  0.0032
  835MOL0     H15224   6.180   8.063   4.613 -0.2917  0.1656  0.6478
  835MOL0     H15225   6.187   8.234   4.654 -1.1600 -0.6010 -1.5853
  835MOL0     H15226   6.333   8.104   5.018  4.0924  0.1304 -0.4712
  835MOL0     H15227   6.611   8.130   4.746  0.5156  0.4120 -0.6147
  835MOL0     H15228   6.745   8.238   5.023  2.6739 -1.4619 -3.3497
  835MOL0     H15229   6.613   8.261   4.918  0.2920  2.5056  2.9751
  835MOL0     H15230   6.574   8.189   5.066  0.5543  4.6333  0.0691
  836MOL0     O15231  10.259   5.945   7.281  0.0043  0.3233 -0.2482
  836MOL0     C15232  10.215   5.877   7.373  0.6106 -0.4282 -0.5673
  836MOL0     O15233  10.088   5.889   7.429 -0.2356  0.0035  0.4912
  836MOL0     C15234   9.999   5.975   7.375  0.0850  0.0478 -0.3165
  836MOL0     C15235   9.923   5.929   7.265 -0.6563 -0.9956  0.2232
  836MOL0     C15236   9.809   6.004   7.231  0.7521 -0.4639  0.3887
  836MOL0     C15237   9.783   6.132   7.290  0.0735  1.0045  0.0636
  836MOL0     O15238   9.665   6.194   7.278 -0.5253 -0.1558  0.4613
  836MOL0     C15239   9.640   6.247   7.145 -0.7280 -0.2762 -0.3008
  836MOL0     C15240   9.499   6.293   7.137  0.8614 -0.0739  1.4213
  836MOL0     C15241   9.391   6.171   7.151  0.3409  0.3206 -1.0290
  836MOL0     C15242   9.249   6.227   7.191 -0.0798  0.4344 -0.2651
  836MOL0     C15243   9.190   6.301   7.069 -0.8472  0.0041 -0.2720
  836MOL0     C15244   9.077   6.397   7.109  0.3470  0.1347  0.0773
  836MOL0     C15245   9.044   6.483   6.990  0.2017 -0.4715  0.1578
  836MOL0     C15246   8.987   6.605   7.052  0.0462 -0.4081  1.1211
  836MOL0     N15247   8.943   6.704   6.957  0.2742 -0.0033  0.6905
  836MOL0     C15248   9.028   6.759   6.860  0.0221  0.7174  0.6608
  836MOL0     C15249   8.946   6.808   6.767 -0.7742  0.1491 -0.4683
  836MOL0     C15250   8.991   6.861   6.627  0.7154  0.0507  0.1924
  836MOL0     C15251   9.140   6.860   6.601  0.2414 -0.2207  0.3426
  836MOL0     C15252   9.196   6.953   6.489 -0.1725 -0.3395  1.2917
  836MOL0     C15253   9.117   6.911   6.358 -0.0387 -0.3722 -0.1233
  836MOL0     O15254   9.133   6.771   6.339  0.2236  0.4978  0.5311
  836MOL0     C15255   9.236   6.712   6.274 -0.2500 -0.3727 -0.1995
  836MOL0     C15256   9.248   6.578   6.277  0.1637  0.3126 -0.0427
  836MOL0     C15257   9.351   6.510   6.209 -0.6820  1.0630 -0.2409
  836MOL0     C15258   9.352   6.351   6.224  0.4932 -0.5295  0.2649
  836MOL0     C15259   9.449   6.590   6.143  0.7302  0.5323  0.6622
  836MOL0     C15260   9.558   6.547   6.051 -0.6863 -0.4815 -1.2723
  836MOL0     O15261   9.605   6.640   5.965 -0.1755 -0.2197  0.1603
  836MOL0     C15262   9.717   6.628   5.898 -0.4009 -0.4446 -0.9736
  836MOL0     C15263   9.833   6.574   5.951  0.5625  0.1585  0.0352
  836MOL0     C15264   9.942   6.563   5.869 -0.0836  0.1384  1.6846
  836MOL0     C15265   9.945   6.618   5.736  0.5433 -0.0285 -0.2405
  836MOL0     O15266  10.045   6.615   5.639  0.2394  0.3042 -0.0477
  836MOL0     C15267  10.173   6.587   5.694  0.7118  0.0380 -0.7485
  836MOL0     C15268  10.290   6.659   5.621 -0.3846  0.1983 -0.3774
  836MOL0     C15269  10.429   6.602   5.648 -0.1595 -0.5683 -0.2731
  836MOL0     C15270  10.527   6.709   5.642 -0.6799 -0.6255  1.0494
  836MOL0     C15271  10.665   6.643   5.660 -0.0595  0.6567  0.3687
  836MOL0     C15272  10.772   6.735   5.603 -0.4074 -0.7552  0.4811
  836MOL0     C15273  10.903   6.675   5.566  0.8518  0.1690 -0.4785
  836MOL0     C15274  10.986   6.634   5.691 -0.8228 -0.1493  1.2849
  836MOL0    Cl15275  11.086   6.788   5.730 -0.7272 -0.4617 -0.3816
  836MOL0     C15276   9.836   6.695   5.698  1.3049  0.0070  0.5098
  836MOL0     C15277   9.720   6.704   5.782  0.0866 -0.3024 -0.2190
  836MOL0     O15278   9.591   6.427   6.056  0.2622 -0.7596  0.1402
  836MOL0     C15279   9.421   6.722   6.142 -0.6103 -1.2178 -0.7896
  836MOL0     C15280   9.327   6.793   6.210  0.9870 -0.5643 -0.7389
  836MOL0     N15281   8.812   6.808   6.817 -0.0723 -0.1949  0.1680
  836MOL0     N15282   8.816   6.742   6.932  1.1277  0.0349  0.1196
  836MOL0     C15283   9.864   6.174   7.400 -0.3595  1.5055  1.2601
  836MOL0     C15284   9.970   6.097   7.440 -0.6235 -0.0289  0.7073
  836MOL0     C15285  10.305   5.786   7.443 -0.3446 -1.6994 -0.3520
  836MOL0     C15286  10.439   5.799   7.415  0.4771  0.0189 -0.7110
  836MOL0     C15287  10.537   5.722   7.478 -0.2510  0.0556 -1.0006
  836MOL0     C15288  10.500   5.638   7.586 -1.0884  0.2810 -0.3062
  836MOL0     O15289  10.599   5.570   7.647  0.5247  0.1387 -0.0913
  836MOL0     C15290  10.663   5.637   7.751  0.1937  0.0743  0.1791
  836MOL0     C15291  10.594   5.603   7.882 -0.2980  0.1583  0.2385
  836MOL0     C15292  10.575   5.722   7.970  0.2415  0.1731  0.2204
  836MOL0     C15293  10.509   5.689   8.102 -0.8357 -0.2397 -0.0228
  836MOL0     C15294  10.389   5.604   8.068  0.1453 -0.6524  0.3511
  836MOL0     C15295  10.283   5.550   8.047 -0.0651 -0.4255  0.3606
  836MOL0     C15296  10.372   5.626   7.616  0.8453 -0.2865  0.4565
  836MOL0     C15297  10.264   5.695   7.548  0.1991  1.0178  0.9118
  836MOL0     C15298  10.121   5.670   7.598  0.2634 -0.1596  0.3862
  836MOL0     H15299   9.946   5.843   7.204 -0.6644 -0.4431 -0.5702
  836MOL0     H15300   9.753   5.959   7.150 -0.2249 -0.3207  0.9719
  836MOL0     H15301   9.657   6.170   7.069  0.1338  0.2314 -0.6357
  836MOL0     H15302   9.705   6.331   7.116  0.5166 -0.7323  1.0588
  836MOL0     H15303   9.481   6.364   7.217  0.4718 -0.0705  1.3341
  836MOL0     H15304   9.472   6.351   7.048 -3.3320  0.9818  3.1427
  836MOL0     H15305   9.380   6.111   7.060 -0.0782  1.0559 -1.4759
  836MOL0     H15306   9.435   6.093   7.213 -2.7198 -4.3385 -4.1089
  836MOL0     H15307   9.186   6.142   7.220  1.3180 -0.6405 -0.2540
  836MOL0     H15308   9.268   6.294   7.276  1.4971  1.0204 -1.0372
  836MOL0     H15309   9.167   6.226   6.993  5.1671 -1.9075 -0.6681
  836MOL0     H15310   9.273   6.361   7.031  1.9224 -4.0200 -1.1923
  836MOL0     H15311   9.002   6.335   7.159  0.6526  0.5342  1.0451
  836MOL0     H15312   9.118   6.465   7.184 -2.8630  0.8615  1.3480
  836MOL0     H15313   8.976   6.419   6.933 -0.4428 -1.7544  2.2588
  836MOL0     H15314   9.131   6.505   6.928  0.5157 -0.2237  0.6774
  836MOL0     H15315   8.896   6.586   7.109 -3.3081  1.2536 -3.1836
  836MOL0     H15316   9.060   6.664   7.110 -1.8615  1.0084  2.2084
  836MOL0     H15317   9.127   6.722   6.833 -1.7579 -4.0062 -0.3542
  836MOL0     H15318   8.971   6.968   6.613  4.1321  0.3784 -4.7170
  836MOL0     H15319   8.933   6.805   6.552 -1.3392 -0.1841  1.8601
  836MOL0     H15320   9.197   6.879   6.693  2.3988 -1.9892 -0.5156
  836MOL0     H15321   9.172   6.759   6.570 -1.6483 -0.1449 -2.1731
  836MOL0     H15322   9.187   7.056   6.524  1.0208 -0.1797  1.1530
  836MOL0     H15323   9.303   6.937   6.477 -0.6015 -1.7181 -1.6015
  836MOL0     H15324   9.011   6.937   6.363  0.4423  1.9246 -0.9716
  836MOL0     H15325   9.148   6.971   6.273  1.0359 -0.8399 -0.0693
  836MOL0     H15326   9.175   6.518   6.332  0.4186  1.7191  1.9283
  836MOL0     H15327   9.454   6.311   6.233  1.2829  0.8103 -1.8099
  836MOL0     H15328   9.316   6.309   6.130 -2.0180  0.2936  0.7791
  836MOL0     H15329   9.289   6.328   6.310 -0.3053  1.0075  0.1173
  836MOL0     H15330   9.833   6.533   6.051  0.2823 -4.0303 -1.4969
  836MOL0     H15331  10.025   6.498   5.898  0.9204  1.2724  1.4507
  836MOL0     H15332  10.178   6.631   5.795 -0.0026  3.8002 -2.1898
  836MOL0     H15333  10.175   6.478   5.704 -0.7932 -0.0371 -1.0719
  836MOL0     H15334  10.268   6.667   5.514  2.3290 -1.9301 -1.2141
  836MOL0     H15335  10.280   6.763   5.653 -0.7530  0.0132  0.1260
  836MOL0     H15336  10.457   6.537   5.565  1.0865 -1.3809  0.7509
  836MOL0     H15337  10.432   6.552   5.745  2.2686  1.6841  0.9382
  836MOL0     H15338  10.502   6.788   5.713 -2.9377 -1.8804  1.7491
  836MOL0     H15339  10.513   6.747   5.540  3.0082 -1.6639  0.0313
  836MOL0     H15340  10.683   6.625   5.767  2.0910  3.3358  0.5736
  836MOL0     H15341  10.668   6.555   5.596  0.1882  1.1025 -0.2320
  836MOL0     H15342  10.775   6.822   5.669 -3.6923  1.2919 -1.8258
  836MOL0     H15343  10.738   6.772   5.506  2.0826 -0.1285 -0.2209
  836MOL0     H15344  10.948   6.759   5.513 -0.3490  0.3483 -1.2385
  836MOL0     H15345  10.892   6.588   5.501  1.4064 -1.6854  1.7737
  836MOL0     H15346  11.052   6.547   5.690  2.0812  1.5654  6.0288
  836MOL0     H15347  10.926   6.595   5.774 -4.2965 -0.4015 -1.1426
  836MOL0     H15348   9.835   6.753   5.606 -1.5089 -0.8386 -0.0842
  836MOL0     H15349   9.635   6.770   5.767 -0.7085 -1.0413  0.9524
  836MOL0     H15350   9.496   6.791   6.106  0.2846  0.8802  4.2940
  836MOL0     H15351   9.331   6.901   6.196  1.4655 -0.7046 -1.8623
  836MOL0     H15352   9.829   6.260   7.455  0.9020  0.9684  2.9546
  836MOL0     H15353  10.025   6.131   7.527 -0.3420 -0.5390  0.7302
  836MOL0     H15354  10.472   5.869   7.339 -1.6347  1.9359  0.0073
  836MOL0     H15355  10.635   5.731   7.432  0.7728 -0.1651  1.0312
  836MOL0     H15356  10.767   5.608   7.764  0.7399  0.6422 -2.3752
  836MOL0     H15357  10.665   5.743   7.724  1.4092  0.4755  1.7434
  836MOL0     H15358  10.643   5.527   7.944  0.3029  1.0631  0.8990
  836MOL0     H15359  10.497   5.563   7.852 -0.8457  2.4106 -1.1983
  836MOL0     H15360  10.671   5.772   7.985  0.5471 -0.4529  0.3667
  836MOL0     H15361  10.523   5.804   7.919  2.6116  0.3927 -2.0647
  836MOL0     H15362  10.477   5.779   8.155 -1.9099 -1.9858  2.4879
  836MOL0     H15363  10.582   5.639   8.167  0.5843  0.1224 -1.2854
  836MOL0     H15364  10.185   5.508   8.041  0.7591 -2.5225  0.6840
  836MOL0     H15365  10.352   5.559   7.699  1.6925 -3.3270 -1.6038
  836MOL0     H15366  10.093   5.597   7.674  0.0598 -0.6383 -0.1452
  836MOL0     H15367  10.076   5.763   7.635  0.8336 -0.6244  2.3398
  836MOL0     H15368  10.065   5.629   7.514  1.3883 -4.0486  1.3629
  837MOL0     O15369   5.001   6.647   2.140  1.1101 -0.7498 -0.2349
  837MOL0     C15370   5.091   6.571   2.109  0.2387 -0.2671 -1.4581
  837MOL0     O15371   5.226   6.593   2.124 -0.5276  0.0394 -0.5669
  837MOL0     C15372   5.271   6.714   2.174  0.3300 -0.4790  0.4087
  837MOL0     C15373   5.245   6.819   2.093 -0.7805 -0.2994  0.5356
  837MOL0     C15374   5.294   6.946   2.132 -0.7864 -0.2895  0.4322
  837MOL0     C15375   5.364   6.958   2.246  0.1111 -0.7451 -0.0678
  837MOL0     O15376   5.402   7.086   2.283  0.3863 -0.5095 -0.1755
  837MOL0     C15377   5.520   7.152   2.234 -0.7159  0.1197  0.2905
  837MOL0     C15378   5.646   7.103   2.314 -0.2010  0.8895  0.4861
  837MOL0     C15379   5.771   7.182   2.259  0.1542  0.0425 -1.1049
  837MOL0     C15380   5.838   7.097   2.148 -0.1444 -1.1149 -0.2459
  837MOL0     C15381   5.972   7.157   2.112 -0.5544  0.0241  0.5307
  837MOL0     C15382   6.042   7.091   1.985  0.3366  0.6860  0.0665
  837MOL0     C15383   6.191   7.128   1.965  1.1276 -0.5560  0.4528
  837MOL0     C15384   6.273   7.028   1.895  0.0620 -0.8577  0.0773
  837MOL0     N15385   6.226   7.018   1.753  0.1608  0.0980 -0.5817
  837MOL0     C15386   6.288   7.079   1.649  0.9129 -0.5364 -0.7047
  837MOL0     C15387   6.222   7.037   1.536 -0.0044 -0.8364 -0.1431
  837MOL0     C15388   6.262   7.069   1.392 -0.4119 -0.1949 -0.6611
  837MOL0     C15389   6.220   6.964   1.293 -0.1782 -0.1845  0.8905
  837MOL0     C15390   6.229   7.030   1.147 -0.9257 -0.4297  0.0472
  837MOL0     C15391   6.358   7.101   1.113  0.4062 -0.0003 -0.9315
  837MOL0     O15392   6.469   7.019   1.154  1.1208  0.8410  0.3876
  837MOL0     C15393   6.579   7.077   1.097  0.2936  0.5654  0.8310
  837MOL0     C15394   6.673   7.150   1.168 -0.1156 -0.9118 -0.2954
  837MOL0     C15395   6.784   7.214   1.112 -0.4416  0.1828 -0.8568
  837MOL0     C15396   6.858   7.304   1.208  0.0887  0.2333  0.6362
  837MOL0     C15397   6.808   7.188   0.980 -1.4656 -0.0024 -1.7343
  837MOL0     C15398   6.915   7.251   0.897 -0.6077  0.3683 -0.1669
  837MOL0     O15399   6.982   7.175   0.798  0.3832 -0.7077 -0.0727
  837MOL0     C15400   7.109   7.209   0.747  0.0274  0.0252  0.1070
  837MOL0     C15401   7.142   7.141   0.624  0.0740 -0.0550  0.3654
  837MOL0     C15402   7.265   7.168   0.558  0.6349  0.2348 -0.5609
  837MOL0     C15403   7.364   7.236   0.629  0.0562  0.3477  0.5854
  837MOL0     O15404   7.484   7.278   0.568  0.0965  0.4594 -0.2115
  837MOL0     C15405   7.574   7.170   0.574 -0.0951  1.0705  0.6750
  837MOL0     C15406   7.712   7.214   0.539 -0.1741  0.0878  0.2582
  837MOL0     C15407   7.777   7.283   0.652  0.0355  0.0618 -1.2164
  837MOL0     C15408   7.909   7.339   0.604 -0.1701  0.5143  0.3790
  837MOL0     C15409   7.982   7.402   0.724 -0.2142 -0.5791  0.2778
  837MOL0     C15410   8.110   7.470   0.659 -0.2620 -0.5817  1.1379
  837MOL0     C15411   8.231   7.442   0.744  0.0578 -0.1429  0.0386
  837MOL0     C15412   8.334   7.556   0.743  0.6287 -0.2485  0.7529
  837MOL0    Cl15413   8.477   7.497   0.815  0.3492  0.1947  0.2083
  837MOL0     C15414   7.337   7.293   0.754 -0.7753 -0.1786 -0.0530
  837MOL0     C15415   7.205   7.287   0.811  0.5223  0.3222 -0.4163
  837MOL0     O15416   6.947   7.360   0.931 -0.0077 -0.3657 -0.9221
  837MOL0     C15417   6.722   7.108   0.903 -0.4210 -0.2843 -0.9642
  837MOL0     C15418   6.607   7.054   0.962 -0.2045 -0.3733  0.8102
  837MOL0     N15419   6.132   6.939   1.577 -0.6227 -0.2371  0.2454
  837MOL0     N15420   6.132   6.923   1.704 -1.0197  1.3042  0.2905
  837MOL0     C15421   5.402   6.845   2.320  0.2199 -0.6838  0.5009
  837MOL0     C15422   5.352   6.719   2.285 -0.8375  0.5667 -0.4244
  837MOL0     C15423   5.063   6.426   2.068 -0.4135 -0.5827 -0.2464
  837MOL0     C15424   5.179   6.343   2.042 -1.0943 -0.3104 -0.7231
  837MOL0     C15425   5.170   6.212   2.004  1.0454  0.0323 -0.5637
  837MOL0     C15426   5.052   6.149   2.014 -0.1858  0.2693 -0.3762
  837MOL0     O15427   5.057   6.018   1.981 -0.6969  0.6673 -0.5231
  837MOL0     C15428   4.968   5.919   2.053  0.1510 -0.5297  0.6093
  837MOL0     C15429   5.017   5.874   2.195 -0.6098  0.2183  0.4872
  837MOL0     C15430   5.013   6.004   2.285  0.4442  0.0975 -0.6607
  837MOL0     C15431   5.008   5.970   2.436  0.8176  0.5874  0.2474
  837MOL0     C15432   5.141   5.918   2.477  0.1771 -0.4534 -0.0256
  837MOL0     C15433   5.239   5.852   2.502 -0.2365 -0.4034 -1.2128
  837MOL0     C15434   4.936   6.227   2.029 -0.4189 -0.3568  0.6257
  837MOL0     C15435   4.934   6.362   2.052  1.3135  0.2296  0.0377
  837MOL0     C15436   4.806   6.439   2.063  0.1161  0.3850  0.0652
  837MOL0     H15437   5.188   6.815   2.001  1.0437  2.8963 -0.9072
  837MOL0     H15438   5.265   7.039   2.084  0.3768 -0.5489 -0.8324
  837MOL0     H15439   5.503   7.259   2.248 -0.4480  0.7983 -3.4718
  837MOL0     H15440   5.541   7.149   2.126 -3.0066  1.3502 -0.2409
  837MOL0     H15441   5.639   7.139   2.417  0.5312 -1.2639  1.3623
  837MOL0     H15442   5.662   6.994   2.315 -1.9741  0.6082  0.9643
  837MOL0     H15443   5.753   7.287   2.235  3.0825  1.0012  0.4670
  837MOL0     H15444   5.838   7.193   2.344 -3.4606 -0.0203  2.0448
  837MOL0     H15445   5.857   6.991   2.169  0.2872 -1.3019 -1.4621
  837MOL0     H15446   5.782   7.097   2.054  4.3383 -1.4547 -3.2208
  837MOL0     H15447   6.046   7.155   2.193 -1.3710  0.7534  1.3198
  837MOL0     H15448   5.956   7.263   2.091 -1.8403 -0.6531 -2.4551
  837MOL0     H15449   6.019   6.984   1.991 -3.0346  1.2943  0.1780
  837MOL0     H15450   5.976   7.114   1.901 -1.6582  1.5825  1.7781
  837MOL0     H15451   6.234   7.138   2.065 -3.0732 -1.8175  2.6198
  837MOL0     H15452   6.201   7.225   1.916 -0.1189 -0.5761  0.1196
  837MOL0     H15453   6.377   7.063   1.896  0.6493 -2.5070 -0.7632
  837MOL0     H15454   6.268   6.927   1.935 -1.6192 -0.6419  0.4650
  837MOL0     H15455   6.363   7.157   1.646 -1.4745  1.8971 -2.2734
  837MOL0     H15456   6.370   7.083   1.401 -0.7067  1.8319  0.4489
  837MOL0     H15457   6.221   7.167   1.368 -1.5146 -0.0631  1.4936
  837MOL0     H15458   6.288   6.879   1.304 -2.6756 -2.1081  2.6830
  837MOL0     H15459   6.118   6.934   1.318  0.5026 -0.5367  3.4655
  837MOL0     H15460   6.250   6.948   1.077  1.3378  1.2496 -1.3956
  837MOL0     H15461   6.139   7.085   1.120 -1.7671 -3.0679 -3.2512
  837MOL0     H15462   6.358   7.116   1.005  2.2370  0.7236 -0.8620
  837MOL0     H15463   6.360   7.201   1.158 -2.1131 -0.1610 -0.2969
  837MOL0     H15464   6.661   7.172   1.274 -1.9835  1.0369 -0.8388
  837MOL0     H15465   6.863   7.254   1.305 -0.5700  0.3713  0.7452
  837MOL0     H15466   6.815   7.399   1.241  1.1673  1.4245 -1.2199
  837MOL0     H15467   6.963   7.321   1.181  0.3510  1.0525  2.0683
  837MOL0     H15468   7.065   7.078   0.580 -0.1433  0.5066 -0.0639
  837MOL0     H15469   7.281   7.125   0.459 -0.5520  2.7476 -1.9166
  837MOL0     H15470   7.577   7.117   0.670  1.6240 -0.8812 -0.3612
  837MOL0     H15471   7.541   7.092   0.505 -0.5378  0.3057  1.7285
  837MOL0     H15472   7.779   7.133   0.509 -0.5888  0.4261 -1.7004
  837MOL0     H15473   7.702   7.279   0.452  0.2802 -1.2306 -0.8051
  837MOL0     H15474   7.793   7.223   0.742  1.6964  0.1596 -1.4200
  837MOL0     H15475   7.721   7.373   0.682  1.8012  0.8388 -0.0790
  837MOL0     H15476   7.886   7.409   0.523 -1.8695 -0.5168 -0.0917
  837MOL0     H15477   7.972   7.260   0.564  0.0359 -0.8320  3.1160
  837MOL0     H15478   7.925   7.480   0.776 -1.5734 -0.2049 -1.6510
  837MOL0     H15479   8.014   7.327   0.797 -1.1362  0.6199  1.9776
  837MOL0     H15480   8.087   7.576   0.651 -2.0697 -1.0902 -3.7356
  837MOL0     H15481   8.127   7.443   0.554 -0.0405  2.1953  0.3756
  837MOL0     H15482   8.283   7.354   0.706  0.2031  0.1866 -0.5406
  837MOL0     H15483   8.208   7.413   0.847 -2.2867 -2.2393 -0.9836
  837MOL0     H15484   8.297   7.645   0.795 -0.6624  1.2727 -2.4745
  837MOL0     H15485   8.352   7.588   0.640 -2.5622 -2.4661 -0.6565
  837MOL0     H15486   7.411   7.349   0.809 -0.4345  2.0971 -2.5826
  837MOL0     H15487   7.175   7.310   0.913 -2.9115 -1.9407 -0.7297
  837MOL0     H15488   6.714   7.107   0.795 -0.9197 -3.3724 -0.9833
  837MOL0     H15489   6.547   7.003   0.887 -0.2327  0.6444  0.1240
  837MOL0     H15490   5.444   6.872   2.416 -1.1061  1.3849  0.5739
  837MOL0     H15491   5.369   6.628   2.341 -3.1469  1.1565  1.4334
  837MOL0     H15492   5.283   6.374   2.044 -0.5673 -2.0333 -0.2360
  837MOL0     H15493   5.262   6.169   1.965  0.7858 -1.5436  0.4916
  837MOL0     H15494   4.863   5.949   2.058  0.6136  1.8565 -1.8420
  837MOL0     H15495   4.957   5.838   1.980 -4.5346  0.8587 -0.5916
  837MOL0     H15496   5.113   5.825   2.172 -1.1998  0.2652 -2.5442
  837MOL0     H15497   4.958   5.800   2.250 -0.2943  1.5539  2.7614
  837MOL0     H15498   5.098   6.070   2.264 -2.3347  4.1432 -0.4231
  837MOL0     H15499   4.919   6.055   2.265  0.3626  0.4678  0.5605
  837MOL0     H15500   4.934   5.900   2.477  0.3034  1.6717  1.2326
  837MOL0     H15501   5.001   6.070   2.478  1.1406  1.2281 -1.1707
  837MOL0     H15502   5.335   5.805   2.504 -1.0805 -2.3440  1.9324
  837MOL0     H15503   4.847   6.164   2.032 -1.5732  1.2300  2.1055
  837MOL0     H15504   4.778   6.450   2.168 -0.5553  2.2935 -0.2803
  837MOL0     H15505   4.829   6.528   2.004  5.0994 -0.6510 -0.0308
  837MOL0     H15506   4.728   6.380   2.014 -0.4112  0.2422  1.0642
  838MOL0     O15507   6.881  10.133   1.357 -1.4817 -0.5355  0.2271
  838MOL0     C15508   6.880  10.150   1.238  1.2513 -0.7308 -1.1475
  838MOL0     O15509   6.797  10.243   1.180 -0.2114  0.0715 -0.7931
  838MOL0     C15510   6.753  10.354   1.251 -0.0261 -0.5108 -0.1478
  838MOL0     C15511   6.830  10.471   1.247  0.0852  0.0606  0.4049
  838MOL0     C15512   6.788  10.590   1.309 -0.0401 -0.2982  0.9865
  838MOL0     C15513   6.666  10.593   1.372  0.3103 -0.3441 -0.1992
  838MOL0     O15514   6.643  10.715   1.425  0.3029 -0.8515 -0.0422
  838MOL0     C15515   6.516  10.771   1.384 -1.4035  0.4798 -0.1146
  838MOL0     C15516   6.539  10.916   1.384  0.3585 -0.2300  0.8775
  838MOL0     C15517   6.422  11.001   1.425  0.4110 -1.2931  0.5884
  838MOL0     C15518   6.449  11.122   1.514  1.1278 -0.7054  0.3121
  838MOL0     C15519   6.310  11.180   1.566 -0.2144  0.6958 -0.1692
  838MOL0     C15520   6.351  11.284   1.678 -0.4262 -0.7808 -0.0200
  838MOL0     C15521   6.234  11.376   1.718  0.2470 -0.2760  0.0085
  838MOL0     C15522   6.168  11.333   1.845 -0.2834  1.2658  0.2287
  838MOL0     N15523   6.245  11.362   1.960  0.0394 -0.0926  1.0395
  838MOL0     C15524   6.299  11.263   2.039  0.3179  0.5820  1.0381
  838MOL0     C15525   6.358  11.324   2.139  0.2929  0.0692 -0.4084
  838MOL0     C15526   6.452  11.231   2.215  0.3047  0.3361 -1.6312
  838MOL0     C15527   6.520  11.310   2.337 -0.1390  0.8139 -0.0663
  838MOL0     C15528   6.645  11.372   2.289 -0.9937 -0.3838 -0.2283
  838MOL0     C15529   6.765  11.281   2.238 -0.2289  0.0973  0.2784
  838MOL0     O15530   6.827  11.212   2.346 -0.0778  0.6550  0.1632
  838MOL0     C15531   6.775  11.092   2.390  0.7892 -0.6233 -0.1064
  838MOL0     C15532   6.736  10.992   2.301  0.2669  0.1065 -1.0774
  838MOL0     C15533   6.706  10.862   2.342  0.3097 -0.2282  0.1351
  838MOL0     C15534   6.664  10.764   2.236 -0.4941 -0.0409 -0.4250
  838MOL0     C15535   6.736  10.828   2.479  0.3560 -0.8994 -0.8444
  838MOL0     C15536   6.717  10.685   2.537  0.3989 -1.3183 -1.6465
  838MOL0     O15537   6.746  10.668   2.679 -0.3477  0.2334  0.5387
  838MOL0     C15538   6.745  10.543   2.744 -0.2876  0.5621 -0.1947
  838MOL0     C15539   6.806  10.537   2.869 -0.4871 -0.0005 -0.8562
  838MOL0     C15540   6.811  10.423   2.947  0.3287  0.1145 -0.4987
  838MOL0     C15541   6.734  10.308   2.903 -0.2730  0.4091 -0.4380
  838MOL0     O15542   6.736  10.199   2.984  0.0118 -0.3543  0.3585
  838MOL0     C15543   6.727  10.229   3.130 -0.1715  0.3403  1.2544
  838MOL0     C15544   6.706  10.094   3.198 -0.4368 -0.4820  0.9438
  838MOL0     C15545   6.844  10.036   3.208 -0.1381  0.3650 -0.6589
  838MOL0     C15546   6.838   9.892   3.261  0.2765  0.7000 -0.1080
  838MOL0     C15547   6.974   9.852   3.325  0.3224 -0.3604 -0.1518
  838MOL0     C15548   6.960   9.714   3.397  0.2170  0.6557  0.1822
  838MOL0     C15549   7.092   9.685   3.478  0.0592  0.4069 -0.5492
  838MOL0     C15550   7.090   9.542   3.542 -0.9918  0.0636 -1.2713
  838MOL0    Cl15551   7.259   9.507   3.586  0.2075 -0.2421 -0.5733
  838MOL0     C15552   6.671  10.317   2.779 -0.4862 -0.5539 -0.2782
  838MOL0     C15553   6.678  10.428   2.702  0.1552 -0.2978  0.4884
  838MOL0     O15554   6.671  10.592   2.463  0.3205  0.1398 -0.6142
  838MOL0     C15555   6.779  10.929   2.560  0.6133  0.4485 -0.2959
  838MOL0     C15556   6.789  11.060   2.518 -0.0656  1.4900 -0.2019
  838MOL0     N15557   6.351  11.463   2.126  0.2953 -1.1057 -0.7001
  838MOL0     N15558   6.268  11.487   2.023  0.4484 -0.6436  0.3011
  838MOL0     C15559   6.580  10.483   1.376 -0.9513 -0.2096  0.5039
  838MOL0     C15560   6.628  10.364   1.317 -0.1633 -0.0030  0.2758
  838MOL0     C15561   6.974  10.071   1.152  0.5391 -1.2200 -0.2125
  838MOL0     C15562   6.978  10.112   1.024  0.0687  0.5928 -0.3956
  838MOL0     C15563   7.066  10.042   0.934 -0.1151  0.2370 -0.0348
  838MOL0     C15564   7.126   9.923   0.969 -1.0698  0.0069  0.4484
  838MOL0     O15565   7.193   9.839   0.885 -0.0064  0.4098 -0.0454
  838MOL0     C15566   7.239   9.897   0.766 -0.5542  0.4705 -0.5243
  838MOL0     C15567   7.343   9.807   0.706  1.0594 -0.0584  0.4437
  838MOL0     C15568   7.291   9.671   0.648 -0.2949  0.8690 -0.2300
  838MOL0     C15569   7.387   9.578   0.576 -0.2889  0.1736 -1.5058
  838MOL0     C15570   7.483   9.507   0.664 -0.7896 -0.2173  0.3034
  838MOL0     C15571   7.568   9.443   0.726 -0.8649 -1.1084  0.3365
  838MOL0     C15572   7.104   9.880   1.100 -0.5292  1.3180 -0.6357
  838MOL0     C15573   7.037   9.954   1.202  0.7507 -0.4124  1.2803
  838MOL0     C15574   7.048   9.909   1.344  0.1178 -0.3705  0.7584
  838MOL0     H15575   6.926  10.466   1.196  1.1835  1.7764  2.1408
  838MOL0     H15576   6.864  10.667   1.299 -0.1475 -0.3917 -1.0970
  838MOL0     H15577   6.427  10.734   1.437 -0.1326 -0.1175  1.7263
  838MOL0     H15578   6.499  10.732   1.283 -0.0368 -0.0483 -0.1603
  838MOL0     H15579   6.625  10.945   1.444  0.6621 -1.8751  1.2850
  838MOL0     H15580   6.562  10.942   1.280 -1.1934  0.4792  0.6802
  838MOL0     H15581   6.376  11.041   1.334 -1.0461  0.7883  2.1525
  838MOL0     H15582   6.351  10.934   1.474 -1.4716  0.0321 -0.2294
  838MOL0     H15583   6.516  11.087   1.594 -0.8469  0.2862  2.5133
  838MOL0     H15584   6.496  11.205   1.460 -0.7663  1.8340  2.3302
  838MOL0     H15585   6.256  11.104   1.622  1.2945 -1.2995 -1.3016
  838MOL0     H15586   6.261  11.219   1.476  0.3723  0.9209 -0.4015
  838MOL0     H15587   6.400  11.229   1.759  1.4263  1.0610  0.1884
  838MOL0     H15588   6.437  11.342   1.645  1.0014 -2.3532  0.7812
  838MOL0     H15589   6.157  11.377   1.641 -0.8335 -0.5456  1.0551
  838MOL0     H15590   6.257  11.482   1.733 -1.6949  0.5440 -2.2560
  838MOL0     H15591   6.078  11.394   1.861 -0.0265  1.2326  1.9873
  838MOL0     H15592   6.144  11.226   1.845  1.3028  0.8832  0.4198
  838MOL0     H15593   6.313  11.157   2.018  4.2196  0.7172  2.2125
  838MOL0     H15594   6.517  11.189   2.139  1.4943 -2.7145  0.8505
  838MOL0     H15595   6.399  11.143   2.251  1.4700 -0.9668 -2.9860
  838MOL0     H15596   6.455  11.386   2.382  2.0758  2.5683  0.3231
  838MOL0     H15597   6.547  11.241   2.417 -2.5522  1.7052  1.6185
  838MOL0     H15598   6.617  11.430   2.201  3.1078 -0.8099 -2.0343
  838MOL0     H15599   6.670  11.455   2.355  0.4005 -0.7811 -0.2140
  838MOL0     H15600   6.715  11.227   2.157 -1.6316 -0.0516  1.2083
  838MOL0     H15601   6.836  11.347   2.187  2.1935 -4.0906 -2.3530
  838MOL0     H15602   6.716  11.013   2.196 -1.3478 -0.6237 -0.9456
  838MOL0     H15603   6.753  10.708   2.206  0.3166  1.6303 -1.2991
  838MOL0     H15604   6.635  10.809   2.141 -0.3203 -1.0505 -0.9639
  838MOL0     H15605   6.583  10.699   2.270  0.1458 -1.2214 -1.1056
  838MOL0     H15606   6.867  10.624   2.889  1.5997 -0.7156 -3.5066
  838MOL0     H15607   6.867  10.427   3.040 -2.8990 -2.7198  1.8133
  838MOL0     H15608   6.822  10.275   3.160  1.7129 -1.8691 -0.9040
  838MOL0     H15609   6.646  10.298   3.156  0.7588  1.3727  1.4985
  838MOL0     H15610   6.661  10.103   3.298 -0.2492  0.5220  0.9493
  838MOL0     H15611   6.640  10.030   3.140  0.6223 -0.8455  0.1005
  838MOL0     H15612   6.913  10.092   3.273 -0.0066  2.1408 -2.2305
  838MOL0     H15613   6.898  10.040   3.112  1.1236  2.0609  0.0523
  838MOL0     H15614   6.814   9.832   3.172  2.0828  2.3605 -1.8430
  838MOL0     H15615   6.763   9.873   3.338 -0.8146  2.7945 -0.5823
  838MOL0     H15616   7.048   9.845   3.244  0.3000 -0.9036 -0.1257
  838MOL0     H15617   7.004   9.930   3.396 -1.0336 -1.1410  1.3179
  838MOL0     H15618   6.946   9.633   3.324 -0.8289 -0.9097  2.0261
  838MOL0     H15619   6.881   9.716   3.473 -2.3888 -0.2795 -2.3126
  838MOL0     H15620   7.119   9.763   3.550  0.7775  1.5955 -2.0539
  838MOL0     H15621   7.176   9.690   3.408 -0.1064 -0.1817 -0.7908
  838MOL0     H15622   7.050   9.464   3.475  0.7362 -1.2724 -0.8299
  838MOL0     H15623   7.027   9.535   3.631  0.9728  4.9303  0.8499
  838MOL0     H15624   6.614  10.229   2.752 -1.6351  0.0981 -0.0271
  838MOL0     H15625   6.622  10.433   2.609  2.2596  0.5205 -0.8153
  838MOL0     H15626   6.790  10.895   2.662 -0.1999  1.5464  0.1806
  838MOL0     H15627   6.827  11.139   2.582  4.3519  1.1996 -2.0976
  838MOL0     H15628   6.487  10.487   1.432 -0.8132  0.0315  0.7239
  838MOL0     H15629   6.566  10.277   1.295  0.7546 -0.7107  0.3953
  838MOL0     H15630   6.929  10.205   0.995 -0.4099  1.1995  2.1662
  838MOL0     H15631   7.092  10.082   0.836  1.6801 -0.1150  0.2729
  838MOL0     H15632   7.157   9.921   0.698 -1.4918  0.4551  0.5778
  838MOL0     H15633   7.297   9.989   0.779  0.3359  0.1359 -1.8943
  838MOL0     H15634   7.420   9.780   0.779  0.1996  2.7414  2.5599
  838MOL0     H15635   7.400   9.862   0.631 -1.9912  4.7813  1.2238
  838MOL0     H15636   7.241   9.605   0.719 -0.4328 -1.3484 -2.2540
  838MOL0     H15637   7.213   9.696   0.576 -2.5434 -3.1404  0.5556
  838MOL0     H15638   7.440   9.629   0.496 -1.2795  1.8282 -1.1707
  838MOL0     H15639   7.323   9.500   0.534 -1.4841  0.3623 -0.1464
  838MOL0     H15640   7.648   9.387   0.771  2.0940  1.3731 -1.4092
  838MOL0     H15641   7.157   9.792   1.134 -1.8478  0.7913  0.1454
  838MOL0     H15642   7.096   9.988   1.402  0.9341 -0.6075  0.4257
  838MOL0     H15643   6.948   9.887   1.382 -1.0783 -0.8765 -2.3176
  838MOL0     H15644   7.100   9.815   1.363 -1.3436 -1.3068  0.3139
  839MOL0     O15645  10.172   3.015   4.731  0.2441 -0.3447  0.4304
  839MOL0     C15646  10.285   3.021   4.685 -0.0326 -0.6538 -0.5449
  839MOL0     O15647  10.319   2.995   4.553 -0.9234  0.2127 -0.6804
  839MOL0     C15648  10.221   2.959   4.477 -1.0321 -0.0109  0.0218
  839MOL0     C15649  10.183   2.825   4.471 -0.4474  0.9637 -0.4590
  839MOL0     C15650  10.076   2.783   4.383  0.3402  0.7563 -0.5449
  839MOL0     C15651  10.004   2.881   4.310 -0.2330  0.5579  0.7831
  839MOL0     O15652   9.895   2.848   4.241 -0.0525  0.9157 -0.0299
  839MOL0     C15653   9.903   2.743   4.143  0.7970  0.0524 -0.5711
  839MOL0     C15654   9.800   2.776   4.037  0.0860 -0.6844 -1.3063
  839MOL0     C15655   9.810   2.698   3.902 -0.0039 -0.1548  0.0191
  839MOL0     C15656   9.682   2.613   3.865 -0.1039  0.0105  0.2323
  839MOL0     C15657   9.674   2.594   3.716  0.4889  0.1003  0.6055
  839MOL0     C15658   9.803   2.540   3.659 -0.0767  0.3882  0.0144
  839MOL0     C15659   9.789   2.519   3.508 -0.8787  1.0483  0.5289
  839MOL0     C15660   9.883   2.422   3.461  0.6120 -0.3316  0.8605
  839MOL0     N15661   9.895   2.426   3.309 -0.3161  0.2927  0.1425
  839MOL0     C15662  10.013   2.444   3.249 -0.6720 -0.3533  0.3341
  839MOL0     C15663   9.996   2.444   3.119  0.5937  0.3738 -0.3800
  839MOL0     C15664  10.100   2.471   3.013 -1.0709  0.1332  0.4557
  839MOL0     C15665  10.114   2.620   2.958  0.7674 -0.0273  0.4684
  839MOL0     C15666  10.249   2.639   2.892 -0.2346 -0.4540 -0.5635
  839MOL0     C15667  10.260   2.774   2.836  0.9723 -0.1354  0.5281
  839MOL0     O15668  10.389   2.787   2.755 -0.0576 -0.8514 -0.1471
  839MOL0     C15669  10.408   2.908   2.697  1.0900  0.0329  0.3164
  839MOL0     C15670  10.366   2.922   2.562 -0.3611 -0.5407  0.2737
  839MOL0     C15671  10.380   3.047   2.500  0.3619  1.4155 -0.0655
  839MOL0     C15672  10.336   3.051   2.354  0.2540  0.4050  0.2360
  839MOL0     C15673  10.402   3.166   2.574 -0.3214 -0.3230  0.0651
  839MOL0     C15674  10.398   3.301   2.514  0.8917 -0.2601 -0.9724
  839MOL0     O15675  10.467   3.391   2.584  1.1136 -0.6658 -1.1757
  839MOL0     C15676  10.449   3.521   2.549 -0.0559 -1.1003 -0.0082
  839MOL0     C15677  10.490   3.579   2.428  0.2765 -0.1845 -0.9070
  839MOL0     C15678  10.464   3.721   2.414 -0.0802  0.6470 -0.2016
  839MOL0     C15679  10.399   3.787   2.509  0.7923  0.4153 -0.2348
  839MOL0     O15680  10.368   3.921   2.494  0.9804  0.4448 -0.4356
  839MOL0     C15681  10.480   4.009   2.495 -0.6484 -0.2383 -0.5922
  839MOL0     C15682  10.572   3.997   2.626  0.2464  0.3948  0.5141
  839MOL0     C15683  10.515   4.092   2.726 -0.1938 -0.1773 -0.6713
  839MOL0     C15684  10.577   4.088   2.872  0.4183  0.6568 -0.5025
  839MOL0     C15685  10.491   4.178   2.961 -0.0882 -0.4587  0.3782
  839MOL0     C15686  10.544   4.177   3.107  0.0148  0.0407 -0.3272
  839MOL0     C15687  10.468   4.264   3.215  0.5794  0.7766  0.3901
  839MOL0     C15688  10.345   4.193   3.268 -0.5567  0.1185  0.1150
  839MOL0    Cl15689  10.186   4.213   3.173 -0.2826  0.4411  0.1807
  839MOL0     C15690  10.342   3.724   2.626  0.7517 -0.4761  0.4053
  839MOL0     C15691  10.380   3.590   2.647 -0.4457 -0.2770 -0.3857
  839MOL0     O15692  10.327   3.330   2.420  0.2071 -1.0758  0.0781
  839MOL0     C15693  10.433   3.150   2.704  0.5182  1.4171 -0.4283
  839MOL0     C15694  10.439   3.020   2.770  0.7727 -0.1854  0.2147
  839MOL0     N15695   9.861   2.439   3.095  0.4342 -0.2652 -0.2003
  839MOL0     N15696   9.805   2.440   3.212 -0.8448 -0.7748 -0.5913
  839MOL0     C15697  10.054   3.010   4.316  0.2639  1.0339 -0.4953
  839MOL0     C15698  10.155   3.054   4.399 -0.1216  0.8403  0.1834
  839MOL0     C15699  10.402   3.053   4.768 -0.0760 -0.0778  0.7061
  839MOL0     C15700  10.511   3.128   4.711 -0.0435  0.9782  0.5501
  839MOL0     C15701  10.621   3.172   4.789  0.6131 -0.4209  0.9320
  839MOL0     C15702  10.625   3.155   4.921  0.9547  0.1222 -0.1715
  839MOL0     O15703  10.716   3.217   5.001  0.5063  0.9083  0.2321
  839MOL0     C15704  10.856   3.210   4.965  1.1425  0.1733 -0.6972
  839MOL0     C15705  10.921   3.298   5.065  0.3906 -1.1538  0.2129
  839MOL0     C15706  11.073   3.286   5.050  0.3009 -0.8596  0.5855
  839MOL0     C15707  11.141   3.164   5.107 -0.0007  0.6543 -0.0627
  839MOL0     C15708  11.292   3.170   5.075 -0.4256  0.3553 -0.3289
  839MOL0     C15709  11.405   3.172   5.022  0.3810  0.0086 -0.0634
  839MOL0     C15710  10.530   3.069   4.979 -0.1765 -0.4549  0.6918
  839MOL0     C15711  10.416   3.022   4.905  0.3324 -0.1115 -0.4406
  839MOL0     C15712  10.330   2.924   4.984  0.7407  1.0207  0.2385
  839MOL0     H15713  10.231   2.752   4.536 -0.1725  2.0051  0.5462
  839MOL0     H15714  10.068   2.676   4.369  2.7915  0.4007  0.3985
  839MOL0     H15715   9.871   2.651   4.194 -3.3981  1.2692 -0.6585
  839MOL0     H15716   9.999   2.722   4.096  0.7972 -2.8503  0.5244
  839MOL0     H15717   9.700   2.759   4.079  1.3679  0.2158  2.4268
  839MOL0     H15718   9.813   2.882   4.013  0.8029 -0.7496 -1.2272
  839MOL0     H15719   9.828   2.774   3.825 -0.1493 -0.1927 -0.0538
  839MOL0     H15720   9.896   2.631   3.903  2.5000  2.8251  0.3875
  839MOL0     H15721   9.679   2.516   3.916  2.0317  0.5830  1.5920
  839MOL0     H15722   9.596   2.675   3.893 -1.2472  0.2417 -3.2761
  839MOL0     H15723   9.648   2.682   3.655  2.1608  1.2521  1.4778
  839MOL0     H15724   9.589   2.527   3.701 -0.1520  1.3455 -1.9063
  839MOL0     H15725   9.889   2.606   3.670  1.0499 -0.4315 -2.7927
  839MOL0     H15726   9.830   2.443   3.700  1.6197  1.4358  1.5012
  839MOL0     H15727   9.792   2.615   3.455 -1.9795  1.1526  0.6313
  839MOL0     H15728   9.684   2.493   3.493 -0.9944  0.4880  2.1528
  839MOL0     H15729   9.982   2.432   3.508  1.9035 -3.2261 -0.9110
  839MOL0     H15730   9.843   2.323   3.485 -3.1267  1.1282  1.2781
  839MOL0     H15731  10.108   2.443   3.301  0.0949 -0.7408 -1.0155
  839MOL0     H15732  10.091   2.398   2.932  0.1321 -0.1041  0.5226
  839MOL0     H15733  10.197   2.449   3.058 -0.3660 -1.1062 -1.5445
  839MOL0     H15734  10.035   2.632   2.884  0.9274 -0.5330  0.2147
  839MOL0     H15735  10.102   2.695   3.037 -1.4502  3.9162 -3.2089
  839MOL0     H15736  10.328   2.616   2.965 -1.2779 -4.1349 -0.3948
  839MOL0     H15737  10.270   2.582   2.801 -1.1061  1.2037 -1.8419
  839MOL0     H15738  10.179   2.783   2.763 -0.8279 -1.0989  2.3104
  839MOL0     H15739  10.244   2.859   2.903 -3.0815  0.2871 -0.7114
  839MOL0     H15740  10.335   2.832   2.510 -0.1767 -1.0929  1.0970
  839MOL0     H15741  10.416   3.068   2.281 -0.4000 -1.3008 -0.9663
  839MOL0     H15742  10.250   3.117   2.340  1.4330  2.3648  1.7822
  839MOL0     H15743  10.306   2.950   2.325 -1.0751  1.6507 -3.2990
  839MOL0     H15744  10.536   3.514   2.355 -0.6541  1.1309 -2.7280
  839MOL0     H15745  10.491   3.775   2.324 -0.9167  2.5810  0.6668
  839MOL0     H15746  10.542   3.999   2.405 -2.9812 -0.6614 -2.2451
  839MOL0     H15747  10.432   4.107   2.482 -0.6040  0.1414  1.7882
  839MOL0     H15748  10.556   3.902   2.678 -1.0358  0.4047  0.1782
  839MOL0     H15749  10.677   4.007   2.598  0.3887 -0.6736  0.6242
  839MOL0     H15750  10.408   4.071   2.736 -0.1529 -0.4907 -0.8684
  839MOL0     H15751  10.526   4.196   2.695  2.3524 -0.1169  0.2347
  839MOL0     H15752  10.684   4.108   2.880  0.9561 -2.1095  0.4698
  839MOL0     H15753  10.555   3.987   2.909 -2.2787  1.0692 -0.8366
  839MOL0     H15754  10.478   4.277   2.918 -0.0698 -0.2887  0.7544
  839MOL0     H15755  10.385   4.151   2.964 -0.0338 -0.6433  2.8675
  839MOL0     H15756  10.644   4.222   3.104 -0.7482  1.8907  0.2665
  839MOL0     H15757  10.562   4.077   3.146  2.0123 -0.8832 -3.2641
  839MOL0     H15758  10.452   4.371   3.202  2.7794  1.1842  0.6223
  839MOL0     H15759  10.554   4.268   3.283  2.6403 -0.8535 -1.9244
  839MOL0     H15760  10.324   4.230   3.368  1.8625 -0.3254  0.8519
  839MOL0     H15761  10.361   4.086   3.285  1.1492  0.7576  3.2298
  839MOL0     H15762  10.282   3.783   2.695  1.9546  3.6025 -1.7385
  839MOL0     H15763  10.343   3.526   2.726  2.0405  0.6189  1.6123
  839MOL0     H15764  10.459   3.232   2.770  2.7776 -0.2531  0.9230
  839MOL0     H15765  10.446   3.002   2.877 -0.7260 -3.5679 -0.1137
  839MOL0     H15766   9.995   3.071   4.249 -1.6575 -0.1645  0.0261
  839MOL0     H15767  10.179   3.160   4.395  2.7817  0.2792  0.5390
  839MOL0     H15768  10.521   3.142   4.603  1.5431  1.5220  0.7331
  839MOL0     H15769  10.707   3.214   4.736  1.2356 -0.0726  2.1816
  839MOL0     H15770  10.900   3.111   4.982 -1.4393 -0.6819  1.8389
  839MOL0     H15771  10.871   3.256   4.867 -0.3542  2.8577  0.2090
  839MOL0     H15772  10.903   3.269   5.169  1.2117  1.5798  1.1924
  839MOL0     H15773  10.896   3.403   5.053  0.1915 -1.2123  0.1054
  839MOL0     H15774  11.087   3.267   4.943  0.1379 -0.0586  0.4166
  839MOL0     H15775  11.121   3.383   5.068  0.4428 -0.3319 -2.1998
  839MOL0     H15776  11.100   3.070   5.069  0.2948  0.2748  0.5458
  839MOL0     H15777  11.138   3.168   5.216  0.9611  2.6726 -0.0595
  839MOL0     H15778  11.503   3.169   4.979  0.3624  2.1881 -0.3295
  839MOL0     H15779  10.539   3.051   5.085 -2.6299  0.5484  1.1464
  839MOL0     H15780  10.227   2.935   4.950  0.9904 -1.4952 -1.7234
  839MOL0     H15781  10.354   2.818   4.967  1.6734  1.2020  0.3779
  839MOL0     H15782  10.344   2.943   5.091  0.6939  1.5748  0.1482
  840MOL0     O15783   9.262   0.124  10.760  0.1369 -0.3441  0.4673
  840MOL0     C15784   9.294   0.212  10.682  0.1907 -0.6337 -0.1217
  840MOL0     O15785   9.241   0.330  10.664  0.0879 -0.4688  0.4794
  840MOL0     C15786   9.141   0.365  10.752 -0.0415  1.0220 -0.2189
  840MOL0     C15787   9.167   0.434  10.872 -0.5671 -0.3077  0.5510
  840MOL0     C15788   9.069   0.459  10.964  0.4444  0.4065  0.3329
  840MOL0     C15789   8.940   0.434  10.930  0.2064 -0.0292 -0.1128
  840MOL0     O15790   8.838   0.470  11.010 -0.2671  0.1201  0.0427
  840MOL0     C15791   8.853   0.580  11.098  0.2250 -0.6457  0.1252
  840MOL0     C15792   8.722   0.622  11.178 -0.6187  0.6725  0.1037
  840MOL0     C15793   8.664   0.503  11.264 -0.0147 -0.4315  1.4020
  840MOL0     C15794   8.544   0.557  11.344 -0.5379 -0.3050 -0.2582
  840MOL0     C15795   8.462   0.438  11.403 -0.5128 -0.1294  0.3437
  840MOL0     C15796   8.328   0.460  11.449 -0.1566  0.5748 -0.7406
  840MOL0     C15797   8.266   0.340  11.521  0.0378  0.5317 -0.1251
  840MOL0     C15798   8.234   0.375  11.668 -1.4762 -0.9673 -0.1449
  840MOL0     N15799   8.176   0.247  11.716 -0.0434  0.1280  0.1907
  840MOL0     C15800   8.048   0.221  11.747  0.2732  0.2080  0.1510
  840MOL0     C15801   8.044   0.086  11.766 -0.8607 -0.0267 -0.2468
  840MOL0     C15802   7.911   0.004  11.777  0.2389 -0.0912 -0.9078
  840MOL0     C15803   7.814   0.006  11.655  0.9439  0.3737  0.3710
  840MOL0     C15804   7.743   0.141  11.627 -0.1624  0.5425  0.0397
  840MOL0     C15805   7.639   0.126  11.502 -0.0620  0.0654  0.2098
  840MOL0     O15806   7.710   0.059  11.393 -0.4436  0.9365 -0.3847
  840MOL0     C15807   7.633   0.020  11.292 -0.0703  0.2780  0.0063
  840MOL0     C15808   7.668  -0.098  11.218 -0.9822  0.0939  0.5671
  840MOL0     C15809   7.601  -0.137  11.104 -0.4070 -0.1583 -0.7041
  840MOL0     C15810   7.643  -0.252  11.028  0.7750  0.9291 -0.1080
  840MOL0     C15811   7.475  -0.081  11.080 -0.5098 -0.5745 -0.1468
  840MOL0     C15812   7.363  -0.143  10.997  0.0336  0.7732  0.0869
  840MOL0     O15813   7.365  -0.277  10.983 -0.4105  0.2328  0.3911
  840MOL0     C15814   7.256  -0.340  10.918 -0.7645  0.0757  0.1391
  840MOL0     C15815   7.291  -0.450  10.833 -1.1370  0.4018 -1.2569
  840MOL0     C15816   7.187  -0.514  10.759  0.4115  0.2246  0.4605
  840MOL0     C15817   7.056  -0.468  10.760  0.1496  1.0357  0.1835
  840MOL0     O15818   6.955  -0.521  10.680  0.1172 -0.5899  0.3768
  840MOL0     C15819   6.989  -0.605  10.571  0.4214 -0.2494 -0.1184
  840MOL0     C15820   6.852  -0.637  10.495 -0.1628 -0.5283 -0.5483
  840MOL0     C15821   6.767  -0.708  10.597 -0.2901  0.7446  0.5903
  840MOL0     C15822   6.657  -0.807  10.542  0.2800 -0.3850 -0.0819
  840MOL0     C15823   6.561  -0.853  10.652 -0.1049 -0.9753  0.8415
  840MOL0     C15824   6.453  -0.946  10.606 -0.4266 -0.1123 -0.2096
  840MOL0     C15825   6.349  -0.863  10.516 -0.0868 -0.0063  0.5606
  840MOL0     C15826   6.233  -0.944  10.465 -0.1576 -0.7832 -0.2444
  840MOL0    Cl15827   6.151  -0.992  10.618  0.7392  0.0285  0.0104
  840MOL0     C15828   7.015  -0.367  10.849  0.0040  0.3528  0.9727
  840MOL0     C15829   7.116  -0.308  10.934  0.3435  0.1960  0.9910
  840MOL0     O15830   7.274  -0.070  10.948 -0.8818 -1.0421  0.4379
  840MOL0     C15831   7.442   0.036  11.148  0.1890 -0.2411  0.8540
  840MOL0     C15832   7.520   0.089  11.249 -0.4919  0.3662 -0.3038
  840MOL0     N15833   8.166   0.029  11.750 -0.0361  0.2193  0.4441
  840MOL0     N15834   8.254   0.131  11.729 -0.3123 -0.5690  0.0582
  840MOL0     C15835   8.908   0.376  10.811  0.0149  0.1703  0.6116
  840MOL0     C15836   9.017   0.338  10.723  0.7421  0.7993 -0.7661
  840MOL0     C15837   9.418   0.186  10.600  0.2158 -0.0578 -0.9023
  840MOL0     C15838   9.474   0.290  10.516  0.4250 -0.2809 -0.9435
  840MOL0     C15839   9.591   0.273  10.445  0.2994 -0.2365 -1.0993
  840MOL0     C15840   9.630   0.143  10.415  0.6850  0.1183  0.6192
  840MOL0     O15841   9.725   0.113  10.322 -0.9412  0.4139  0.2747
  840MOL0     C15842   9.692   0.027  10.210 -1.2784  1.2073 -0.6629
  840MOL0     C15843   9.638   0.110  10.099  0.4460  0.1966 -0.3978
  840MOL0     C15844   9.685   0.058   9.956  0.6679 -1.1450  1.3078
  840MOL0     C15845   9.645  -0.092   9.928 -0.8932  0.4434  0.6264
  840MOL0     C15846   9.631  -0.102   9.788 -0.5197 -0.0953 -0.0329
  840MOL0     C15847   9.604  -0.103   9.671 -0.1446 -0.5220  0.3181
  840MOL0     C15848   9.562   0.039  10.482  0.1991 -0.3499  0.4808
  840MOL0     C15849   9.461   0.059  10.573 -0.5194 -0.0170 -0.3535
  840MOL0     C15850   9.400  -0.068  10.634 -0.4158  0.0537 -0.3937
  840MOL0     H15851   9.262   0.479  10.899 -1.9466  1.6849  2.4320
  840MOL0     H15852   9.093   0.512  11.055 -1.7428 -0.0510  1.2253
  840MOL0     H15853   8.894   0.669  11.049 -0.4343  1.5305  3.2302
  840MOL0     H15854   8.926   0.553  11.175 -1.2101  2.2578  2.7211
  840MOL0     H15855   8.736   0.717  11.229 -0.9107  1.8986 -1.9795
  840MOL0     H15856   8.660   0.648  11.092 -0.9699 -2.3425 -0.6605
  840MOL0     H15857   8.626   0.422  11.202 -1.4618  0.8974  0.4734
  840MOL0     H15858   8.742   0.466  11.331  1.9993 -0.9346 -1.0807
  840MOL0     H15859   8.575   0.620  11.428 -0.7714  1.8560 -1.7336
  840MOL0     H15860   8.475   0.612  11.279 -1.4140  0.5488  1.3239
  840MOL0     H15861   8.525   0.412  11.489 -0.8592  2.1224  1.3486
  840MOL0     H15862   8.450   0.359  11.328 -1.1183  1.8407 -1.7619
  840MOL0     H15863   8.329   0.550  11.511 -3.3648  1.5188 -1.8500
  840MOL0     H15864   8.263   0.478  11.363  1.0298 -4.3265 -3.0259
  840MOL0     H15865   8.336   0.257  11.532 -0.7302  0.0586  1.3618
  840MOL0     H15866   8.179   0.305  11.465  1.1204  0.2995 -1.7670
  840MOL0     H15867   8.328   0.401  11.718 -0.6819  0.7664 -2.3698
  840MOL0     H15868   8.172   0.465  11.675  2.9671  2.4236  0.0566
  840MOL0     H15869   7.968   0.294  11.751  0.6860  0.7936 -1.4006
  840MOL0     H15870   7.851   0.054  11.854 -0.7653 -0.7884 -1.2094
  840MOL0     H15871   7.937  -0.094  11.816  0.9910 -0.9871 -3.4788
  840MOL0     H15872   7.873  -0.035  11.572  1.3007 -0.1620  0.8808
  840MOL0     H15873   7.725  -0.054  11.673  0.9315 -0.2818 -1.5730
  840MOL0     H15874   7.700   0.178  11.720  0.5821 -1.8657  1.4535
  840MOL0     H15875   7.821   0.213  11.600  0.5227 -0.0889  0.2631
  840MOL0     H15876   7.548   0.070  11.528 -0.2346  0.2920  0.0985
  840MOL0     H15877   7.605   0.226  11.474 -2.8078 -1.0372 -0.7680
  840MOL0     H15878   7.757  -0.149  11.252 -0.9839 -0.9995 -0.9593
  840MOL0     H15879   7.601  -0.341  11.076  3.6346 -1.2930 -1.4466
  840MOL0     H15880   7.749  -0.276  11.033  0.2202 -1.8403 -0.0792
  840MOL0     H15881   7.605  -0.253  10.925  2.4465 -2.0418 -0.7945
  840MOL0     H15882   7.398  -0.469  10.832 -0.6117  2.8283  0.1048
  840MOL0     H15883   7.226  -0.583  10.686  2.4264  1.1831  0.5401
  840MOL0     H15884   7.044  -0.535  10.508 -1.0717 -1.1365 -2.5271
  840MOL0     H15885   7.061  -0.687  10.582  0.0630 -1.3617 -4.2660
  840MOL0     H15886   6.803  -0.549  10.454 -1.0527 -1.2145 -0.9686
  840MOL0     H15887   6.871  -0.708  10.414 -0.9792 -0.6613 -0.6275
  840MOL0     H15888   6.715  -0.630  10.654 -2.4224  0.6569 -1.1028
  840MOL0     H15889   6.834  -0.760  10.666  2.0932  0.5442 -1.7438
  840MOL0     H15890   6.710  -0.886  10.487 -1.6186 -2.2553  0.6375
  840MOL0     H15891   6.602  -0.746  10.470  2.6241 -0.6415 -2.2267
  840MOL0     H15892   6.624  -0.911  10.721  2.7531  0.3827 -0.4347
  840MOL0     H15893   6.515  -0.774  10.712  1.4609 -1.0708  2.2565
  840MOL0     H15894   6.420  -0.975  10.707  4.3454  1.3131  2.0528
  840MOL0     H15895   6.497  -1.032  10.556 -1.0149  0.4741 -1.7939
  840MOL0     H15896   6.401  -0.814  10.432  0.4313  0.3142  1.0619
  840MOL0     H15897   6.313  -0.779  10.575  2.4091  0.2264  1.9095
  840MOL0     H15898   6.259  -1.031  10.404  1.8025 -1.0536  0.8910
  840MOL0     H15899   6.164  -0.877  10.412  1.6408  2.1412  0.8534
  840MOL0     H15900   6.919  -0.317  10.847  0.8873  2.1197 -1.2389
  840MOL0     H15901   7.089  -0.219  10.989  2.3581  0.8675  0.9758
  840MOL0     H15902   7.343   0.079  11.146 -0.5032 -1.7615  1.0185
  840MOL0     H15903   7.478   0.169  11.310 -0.1587 -1.1547  2.0160
  840MOL0     H15904   8.807   0.354  10.778 -0.2923  1.1308  0.8795
  840MOL0     H15905   8.999   0.288  10.628  1.1977 -0.6981 -0.0872
  840MOL0     H15906   9.414   0.380  10.521 -0.7993 -1.1413  2.9218
  840MOL0     H15907   9.640   0.356  10.394  0.2139 -0.5579 -1.7125
  840MOL0     H15908   9.780  -0.022  10.167 -1.0954  0.5345  0.4363
  840MOL0     H15909   9.618  -0.044  10.248 -1.7379  0.7813 -2.2662
  840MOL0     H15910   9.683   0.209  10.102  2.9887 -0.8073 -1.8705
  840MOL0     H15911   9.529   0.118  10.108  0.5684 -0.4957  3.4206
  840MOL0     H15912   9.631   0.119   9.883  1.7772 -1.2787  0.3438
  840MOL0     H15913   9.793   0.075   9.944  0.0943  2.8348  0.4581
  840MOL0     H15914   9.547  -0.115   9.972 -1.1007  1.5024  0.7480
  840MOL0     H15915   9.723  -0.158   9.968 -1.3548 -0.4361  0.1294
  840MOL0     H15916   9.585  -0.101   9.566 -0.5056  0.2473  0.3935
  840MOL0     H15917   9.604  -0.060  10.472 -1.1360 -1.4375  4.1428
  840MOL0     H15918   9.295  -0.082  10.606 -0.1864  1.0790 -1.8855
  840MOL0     H15919   9.445  -0.162  10.602 -2.4861 -1.7551  1.5993
  840MOL0     H15920   9.411  -0.073  10.742  0.6461  0.6037 -0.4717
  841MOL0     O15921  11.387   1.827   0.172 -0.0951  0.1434 -1.0321
  841MOL0     C15922  11.456   1.844   0.072  1.1686 -0.2403 -0.4369
  841MOL0     O15923  11.525   1.963   0.039 -0.5079 -0.3296  0.1677
  841MOL0     C15924  11.549   2.039   0.149  0.2764  0.7683  0.4569
  841MOL0     C15925  11.654   2.017   0.242 -0.8068 -0.9055 -0.2998
  841MOL0     C15926  11.685   2.101   0.344  0.2336 -0.9724  0.0945
  841MOL0     C15927  11.607   2.225   0.350  0.2381 -0.3540 -0.5787
  841MOL0     O15928  11.628   2.309   0.455  0.0052 -0.0257  0.8356
  841MOL0     C15929  11.572   2.280   0.586  0.2075 -0.0513 -1.5927
  841MOL0     C15930  11.422   2.315   0.616 -0.1255  0.1685 -0.0663
  841MOL0     C15931  11.344   2.186   0.666 -0.6389 -0.6115 -0.2682
  841MOL0     C15932  11.311   2.092   0.545 -0.0974  0.3084  0.3421
  841MOL0     C15933  11.225   1.965   0.576 -1.2286 -0.7490 -0.8652
  841MOL0     C15934  11.267   1.845   0.499 -0.1892  0.4895 -0.5133
  841MOL0     C15935  11.415   1.802   0.525  1.3247 -0.2424  1.0721
  841MOL0     C15936  11.448   1.666   0.463 -0.0789 -0.4920  0.8104
  841MOL0     N15937  11.590   1.649   0.450 -0.4129 -0.4378  0.6851
  841MOL0     C15938  11.687   1.735   0.492  0.6976 -0.5203 -0.4019
  841MOL0     C15939  11.803   1.705   0.423 -0.4313  0.3519 -0.5796
  841MOL0     C15940  11.943   1.767   0.425 -0.6483 -0.3371  0.4069
  841MOL0     C15941  12.035   1.679   0.508  1.3143 -0.0075 -0.1220
  841MOL0     C15942  12.190   1.707   0.487 -1.0421 -0.0374  0.5450
  841MOL0     C15943  12.237   1.676   0.341  0.1183 -0.7610  0.4529
  841MOL0     O15944  12.171   1.556   0.306 -0.3337  0.2846 -0.3963
  841MOL0     C15945  12.234   1.431   0.332  0.1093  0.6500 -0.7711
  841MOL0     C15946  12.245   1.375   0.458 -0.6580  0.6935 -0.0555
  841MOL0     C15947  12.303   1.246   0.483 -0.0615 -0.4970  0.3969
  841MOL0     C15948  12.311   1.196   0.624 -0.6804  0.5350  0.2987
  841MOL0     C15949  12.350   1.172   0.369 -0.1862  0.3871  0.4485
  841MOL0     C15950  12.419   1.036   0.381  0.8561  0.1716  0.6909
  841MOL0     O15951  12.393   0.946   0.283 -0.3676 -0.6391  0.4407
  841MOL0     C15952  12.418   0.811   0.303 -0.1607 -0.6244  0.1186
  841MOL0     C15953  12.550   0.766   0.314 -0.0785  0.4560  0.4831
  841MOL0     C15954  12.576   0.628   0.327 -0.1928  0.6657  0.3871
  841MOL0     C15955  12.475   0.535   0.316  0.0384  0.3578  0.5896
  841MOL0     O15956  12.512   0.402   0.331  0.1750 -0.2967 -0.0333
  841MOL0     C15957  12.526   0.314   0.214  0.3684  0.1307  0.6942
  841MOL0     C15958  12.456   0.171   0.242  0.3029 -0.3138 -0.0315
  841MOL0     C15959  12.304   0.199   0.267  0.0536  0.5617  1.0755
  841MOL0     C15960  12.225   0.071   0.254  0.3143 -0.2442  0.0039
  841MOL0     C15961  12.091   0.107   0.320 -0.8567  0.1149  1.3209
  841MOL0     C15962  11.995  -0.010   0.326  0.2653  0.6602  0.4487
  841MOL0     C15963  11.916  -0.044   0.200  0.6406  0.3137  1.4571
  841MOL0     C15964  11.833  -0.173   0.180 -0.1649 -0.0082 -0.9172
  841MOL0    Cl15965  11.710  -0.173   0.058 -0.3031  0.4540  0.2495
  841MOL0     C15966  12.340   0.573   0.308 -0.3409  0.0028 -0.5640
  841MOL0     C15967  12.306   0.714   0.290 -0.2305 -0.1271  0.2421
  841MOL0     O15968  12.497   1.018   0.472 -0.5901 -1.1193 -0.2196
  841MOL0     C15969  12.325   1.217   0.240 -0.5923 -0.1152 -0.0103
  841MOL0     C15970  12.274   1.352   0.226 -0.4808  0.8069  0.3873
  841MOL0     N15971  11.772   1.604   0.332 -0.0491  0.0091 -0.2780
  841MOL0     N15972  11.650   1.573   0.352  0.8425 -0.1966 -0.1086
  841MOL0     C15973  11.496   2.255   0.264  0.2993  0.7845  0.2147
  841MOL0     C15974  11.469   2.156   0.164  0.3199  0.1069  0.3710
  841MOL0     C15975  11.463   1.733  -0.020  0.6452  0.8890  0.3469
  841MOL0     C15976  11.378   1.629  -0.003 -1.0426  0.1985 -1.0578
  841MOL0     C15977  11.391   1.524  -0.088  0.4768 -0.0180  0.1619
  841MOL0     C15978  11.483   1.509  -0.189 -0.0321  0.5998 -0.3088
  841MOL0     O15979  11.459   1.418  -0.285  0.7171  0.3031 -0.3540
  841MOL0     C15980  11.535   1.427  -0.407  0.5940 -0.2302 -0.2606
  841MOL0     C15981  11.462   1.515  -0.501 -0.0374  0.3014  0.0017
  841MOL0     C15982  11.345   1.449  -0.578  0.2548  0.2364 -0.1141
  841MOL0     C15983  11.220   1.461  -0.484 -0.1439  0.0866  0.4326
  841MOL0     C15984  11.090   1.433  -0.547 -0.7347 -0.3011  0.8650
  841MOL0     C15985  10.976   1.415  -0.573  0.4538 -0.2715  0.7562
  841MOL0     C15986  11.578   1.611  -0.196 -0.3385 -0.2743  0.1706
  841MOL0     C15987  11.571   1.724  -0.118 -0.7178  0.0645  0.5417
  841MOL0     C15988  11.690   1.820  -0.131 -0.2087  0.2997 -0.6474
  841MOL0     H15989  11.708   1.923   0.236 -3.3072 -2.5830  1.7095
  841MOL0     H15990  11.762   2.088   0.420 -0.3487 -1.6827  0.5891
  841MOL0     H15991  11.624   2.349   0.653  1.5608 -0.9248 -1.7214
  841MOL0     H15992  11.603   2.183   0.627  1.1458  1.9905  3.2228
  841MOL0     H15993  11.420   2.395   0.691  1.1221  2.2270 -2.1294
  841MOL0     H15994  11.367   2.360   0.533 -0.9628  1.2915  1.0569
  841MOL0     H15995  11.411   2.137   0.736  0.2164  2.1824  1.0378
  841MOL0     H15996  11.258   2.216   0.727  1.0625  0.2237  1.8530
  841MOL0     H15997  11.249   2.146   0.472 -1.0457 -1.5803 -0.3307
  841MOL0     H15998  11.399   2.069   0.485 -1.5249 -4.1286 -0.4748
  841MOL0     H15999  11.120   1.994   0.570 -1.6015 -1.7455  0.3104
  841MOL0     H16000  11.241   1.943   0.682 -1.3976  0.6236 -0.5413
  841MOL0     H16001  11.197   1.765   0.525 -0.3546  1.0278  0.8242
  841MOL0     H16002  11.255   1.873   0.394  2.0545  2.7913 -0.2719
  841MOL0     H16003  11.440   1.792   0.631  0.6293 -1.3400  1.1556
  841MOL0     H16004  11.480   1.873   0.474  3.2354 -1.3354  1.8828
  841MOL0     H16005  11.401   1.587   0.523 -1.1017 -1.0319 -0.6443
  841MOL0     H16006  11.394   1.663   0.368  0.1775 -0.1038  0.6481
  841MOL0     H16007  11.678   1.814   0.566 -0.0863 -1.6512  0.7579
  841MOL0     H16008  11.942   1.866   0.472  1.0948 -1.2145  2.4764
  841MOL0     H16009  11.978   1.763   0.321  1.5105  0.0579  1.0645
  841MOL0     H16010  12.006   1.709   0.609 -1.9791 -3.4745  0.1973
  841MOL0     H16011  12.011   1.573   0.494 -0.3892  0.5749 -2.0308
  841MOL0     H16012  12.211   1.813   0.501 -0.6321 -0.2473  1.5896
  841MOL0     H16013  12.253   1.650   0.555  1.3482 -0.0816 -1.5222
  841MOL0     H16014  12.216   1.754   0.267  1.2744  2.1067  2.9331
  841MOL0     H16015  12.347   1.672   0.340  0.1806  0.5215 -0.2966
  841MOL0     H16016  12.201   1.433   0.539 -3.9585 -2.6495  0.8456
  841MOL0     H16017  12.208   1.167   0.646 -0.7909  0.0029 -0.8704
  841MOL0     H16018  12.331   1.278   0.693 -3.3887  1.7889 -0.2957
  841MOL0     H16019  12.383   1.116   0.643  0.9596  2.0799  0.9064
  841MOL0     H16020  12.632   0.834   0.335 -0.5227  1.8203 -1.8329
  841MOL0     H16021  12.669   0.577   0.348 -2.1406 -3.0128  1.0240
  841MOL0     H16022  12.492   0.359   0.120 -0.1444  1.1484  1.3555
  841MOL0     H16023  12.632   0.289   0.203 -0.1091 -1.5760 -0.5358
  841MOL0     H16024  12.479   0.111   0.153  0.1317 -2.1494  1.1131
  841MOL0     H16025  12.492   0.117   0.329 -0.5763  0.5035  0.8631
  841MOL0     H16026  12.263   0.286   0.216 -1.0198  0.9447  2.5446
  841MOL0     H16027  12.288   0.228   0.371 -0.5182  1.1149  0.8371
  841MOL0     H16028  12.286  -0.007   0.301  1.0749 -2.0798 -3.6077
  841MOL0     H16029  12.188   0.037   0.156 -2.4620 -1.1924  1.2548
  841MOL0     H16030  12.109   0.137   0.424  0.1404  0.9864  0.9202
  841MOL0     H16031  12.042   0.190   0.269  0.6934  1.3798  1.7926
  841MOL0     H16032  11.915   0.020   0.394  0.8307  4.0186 -0.2055
  841MOL0     H16033  12.036  -0.107   0.355 -0.0024  0.2671 -0.4673
  841MOL0     H16034  11.997  -0.058   0.127 -0.4663 -1.2124  0.4485
  841MOL0     H16035  11.849   0.036   0.169  0.7127  0.0172  0.4955
  841MOL0     H16036  11.775  -0.194   0.271 -1.3503 -0.0333 -1.6526
  841MOL0     H16037  11.894  -0.263   0.170 -3.2039 -2.4718  0.8110
  841MOL0     H16038  12.255   0.506   0.310  0.7762 -1.4488 -0.4338
  841MOL0     H16039  12.208   0.752   0.264 -0.1816 -0.3774 -0.3353
  841MOL0     H16040  12.350   1.161   0.151  1.7075  2.6044 -1.2312
  841MOL0     H16041  12.251   1.389   0.126 -2.1205 -2.1873 -0.4554
  841MOL0     H16042  11.434   2.343   0.271 -0.3514  0.4919 -1.4735
  841MOL0     H16043  11.383   2.186   0.105 -0.4049  5.0460  3.3726
  841MOL0     H16044  11.286   1.630   0.054  0.4236  0.4618  1.4221
  841MOL0     H16045  11.310   1.454  -0.097  0.1400  0.2650  0.8853
  841MOL0     H16046  11.642   1.445  -0.394  0.2216  0.7932  1.9143
  841MOL0     H16047  11.541   1.333  -0.463  2.8467  0.3162 -1.0419
  841MOL0     H16048  11.529   1.538  -0.584  0.1652  2.1007  0.6237
  841MOL0     H16049  11.441   1.612  -0.454 -2.7613 -0.1673 -0.0831
  841MOL0     H16050  11.324   1.498  -0.674 -0.5788 -1.9673 -1.1378
  841MOL0     H16051  11.360   1.344  -0.605 -0.0034  0.3253 -0.6245
  841MOL0     H16052  11.220   1.563  -0.442  2.0841  2.1277 -3.8375
  841MOL0     H16053  11.214   1.398  -0.395 -0.2631  0.1683  0.4846
  841MOL0     H16054  10.878   1.402  -0.612  0.5986  1.0549 -0.1133
  841MOL0     H16055  11.651   1.600  -0.275  0.6124 -0.9372  1.1180
  841MOL0     H16056  11.669   1.915  -0.182  2.2514  1.6859  0.7218
  841MOL0     H16057  11.729   1.844  -0.031  3.4424 -2.1265 -1.2952
  841MOL0     H16058  11.784   1.781  -0.171  0.7447  2.0870 -0.2867
  842MOL0     O16059   3.514  11.090   5.454 -0.4568 -0.0559  0.1266
  842MOL0     C16060   3.622  11.147   5.455  0.3703 -0.0408 -0.2405
  842MOL0     O16061   3.741  11.084   5.444  0.3525  0.2596  0.3071
  842MOL0     C16062   3.731  10.948   5.450  0.1198 -0.0937 -0.2388
  842MOL0     C16063   3.766  10.878   5.344 -0.4189  0.8119 -0.0035
  842MOL0     C16064   3.765  10.737   5.343  0.0414 -0.3619 -0.1883
  842MOL0     C16065   3.723  10.667   5.458 -0.4059 -1.3350  0.6321
  842MOL0     O16066   3.723  10.532   5.454 -0.1368 -0.5269 -0.8184
  842MOL0     C16067   3.639  10.478   5.355 -0.5575 -0.7967 -0.4433
  842MOL0     C16068   3.621  10.336   5.374 -0.4323  0.3645 -0.5104
  842MOL0     C16069   3.497  10.293   5.294  1.0294 -0.0407  0.9699
  842MOL0     C16070   3.492  10.327   5.147  0.3387  0.2409  0.2031
  842MOL0     C16071   3.374  10.261   5.071 -0.8519  0.8501  0.7890
  842MOL0     C16072   3.227  10.276   5.101  0.6176  0.4449  0.6309
  842MOL0     C16073   3.182  10.420   5.143  0.3949 -0.1495 -0.2872
  842MOL0     C16074   3.113  10.494   5.032  0.8667  0.0768 -0.6277
  842MOL0     N16075   3.213  10.523   4.918  0.1483 -0.2116 -0.2343
  842MOL0     C16076   3.324  10.602   4.925  0.5627  0.6408 -0.5909
  842MOL0     C16077   3.386  10.580   4.808 -1.0709  0.1905  0.1115
  842MOL0     C16078   3.511  10.660   4.761  0.6928 -0.4605  0.7897
  842MOL0     C16079   3.465  10.783   4.675 -0.2463  0.2084  0.4002
  842MOL0     C16080   3.594  10.842   4.616  0.4328  0.0610  0.7213
  842MOL0     C16081   3.589  10.911   4.485  0.1356  0.3739 -0.9569
  842MOL0     O16082   3.692  11.011   4.483  0.6622 -0.1799  0.0814
  842MOL0     C16083   3.818  10.969   4.460  0.5254  0.1087  0.2986
  842MOL0     C16084   3.916  11.061   4.496 -1.5385  0.1597 -0.7234
  842MOL0     C16085   4.051  11.039   4.464 -0.9331  0.0742  0.1997
  842MOL0     C16086   4.160  11.141   4.504  0.2480 -0.1558  0.0560
  842MOL0     C16087   4.082  10.913   4.412  0.4190  0.0589  0.5909
  842MOL0     C16088   4.225  10.871   4.384 -0.1722 -0.6828  1.2549
  842MOL0     O16089   4.256  10.745   4.395  0.2066  0.1850 -0.5604
  842MOL0     C16090   4.389  10.704   4.390  0.5878  0.3772 -0.5380
  842MOL0     C16091   4.407  10.582   4.326  1.0396 -0.4648  0.2661
  842MOL0     C16092   4.534  10.523   4.312 -0.7259  0.1717  0.5944
  842MOL0     C16093   4.649  10.578   4.375  1.3399  0.1187 -0.2891
  842MOL0     O16094   4.755  10.499   4.359  0.1780 -0.1855  0.2192
  842MOL0     C16095   4.887  10.557   4.385 -0.3177  0.2903 -0.4561
  842MOL0     C16096   4.981  10.435   4.385 -0.0821 -0.5502  0.4597
  842MOL0     C16097   5.121  10.471   4.336 -0.9752 -0.3975 -0.6424
  842MOL0     C16098   5.229  10.369   4.328 -0.5211 -0.0377 -0.1801
  842MOL0     C16099   5.366  10.429   4.278  0.0370  0.0132  0.8264
  842MOL0     C16100   5.473  10.320   4.313  0.4114 -1.8250  0.4625
  842MOL0     C16101   5.615  10.377   4.276 -0.5719 -0.1310 -0.6599
  842MOL0     C16102   5.663  10.346   4.132  0.6104 -0.2643  0.1009
  842MOL0    Cl16103   5.562  10.439   4.007  0.0383 -0.1090  0.4398
  842MOL0     C16104   4.634  10.699   4.447 -0.2414  0.7633  0.1585
  842MOL0     C16105   4.501  10.757   4.456  0.4440 -0.2425  0.5934
  842MOL0     O16106   4.305  10.957   4.339 -0.2744 -0.7160 -0.5755
  842MOL0     C16107   3.990  10.823   4.375  0.8737 -0.0866  1.0651
  842MOL0     C16108   3.851  10.845   4.397  0.1376 -0.0191  0.3765
  842MOL0     N16109   3.329  10.480   4.738  0.4288 -0.0937  0.4350
  842MOL0     N16110   3.217  10.461   4.796  0.6650  0.7690 -0.4693
  842MOL0     C16111   3.699  10.744   5.578 -1.0008 -0.5556  0.0129
  842MOL0     C16112   3.699  10.882   5.570 -1.5689 -0.4784  0.1227
  842MOL0     C16113   3.631  11.298   5.476 -0.6167  0.1607 -0.4966
  842MOL0     C16114   3.748  11.354   5.529 -0.3494 -0.0780 -0.8199
  842MOL0     C16115   3.758  11.490   5.551  0.0909  0.3351 -0.3649
  842MOL0     C16116   3.649  11.574   5.522  0.1766  0.4556  0.2203
  842MOL0     O16117   3.661  11.707   5.547  0.0603  0.6651 -0.4993
  842MOL0     C16118   3.544  11.768   5.612 -0.9118  0.1629 -0.9832
  842MOL0     C16119   3.575  11.775   5.763 -0.5889  0.0850  0.0827
  842MOL0     C16120   3.597  11.638   5.823  0.5149  0.0114 -0.0111
  842MOL0     C16121   3.630  11.668   5.975 -0.6249  0.5589 -0.6427
  842MOL0     C16122   3.518  11.720   6.047  0.1631 -0.2033 -0.2398
  842MOL0     C16123   3.426  11.775   6.100 -0.2414 -0.4479 -0.2957
  842MOL0     C16124   3.532  11.517   5.464 -0.8840 -0.6358 -0.2372
  842MOL0     C16125   3.524  11.385   5.435 -0.2368 -0.1886  0.3425
  842MOL0     C16126   3.417  11.343   5.346 -0.2145 -0.3721 -0.6065
  842MOL0     H16127   3.813  10.904   5.249  2.7334 -2.3710  0.4419
  842MOL0     H16128   3.811  10.683   5.261 -0.5799  1.0285 -1.5010
  842MOL0     H16129   3.689  10.486   5.258  1.0875  1.7227  0.4940
  842MOL0     H16130   3.546  10.535   5.361 -0.0197  0.4995 -3.0251
  842MOL0     H16131   3.707  10.274   5.344  1.8015  2.2456  1.5471
  842MOL0     H16132   3.614  10.324   5.482  1.2385 -0.7777 -0.4888
  842MOL0     H16133   3.493  10.184   5.304  1.2290 -0.0041  1.5415
  842MOL0     H16134   3.407  10.339   5.337  0.7385  0.7400 -0.4162
  842MOL0     H16135   3.481  10.434   5.131  1.2422 -0.0379 -3.2707
  842MOL0     H16136   3.591  10.298   5.109 -0.2987  0.6525 -1.8927
  842MOL0     H16137   3.385  10.153   5.087 -2.5643  0.8245  2.1151
  842MOL0     H16138   3.407  10.286   4.970  7.7649 -2.8165  1.8220
  842MOL0     H16139   3.168  10.239   5.016 -0.6305  2.6200  0.4748
  842MOL0     H16140   3.216  10.210   5.187 -0.9948 -0.6048 -0.3087
  842MOL0     H16141   3.261  10.471   5.198 -0.5146  0.4852  0.4760
  842MOL0     H16142   3.103  10.415   5.219 -0.8567  0.5238 -1.4858
  842MOL0     H16143   3.032  10.429   4.999  0.4078 -0.3136  1.1550
  842MOL0     H16144   3.081  10.595   5.058  2.9010  1.7126 -3.8232
  842MOL0     H16145   3.346  10.650   5.021 -3.8435  4.0157 -0.9478
  842MOL0     H16146   3.568  10.584   4.708 -3.5228 -1.2315 -3.3049
  842MOL0     H16147   3.569  10.701   4.845 -0.1367  0.1622  1.0738
  842MOL0     H16148   3.394  10.757   4.596  1.0398  1.5144 -1.2586
  842MOL0     H16149   3.426  10.867   4.733  1.1748  2.0069 -1.1209
  842MOL0     H16150   3.638  10.912   4.688  0.9629  0.2024  0.2693
  842MOL0     H16151   3.663  10.758   4.606 -2.3981 -2.2921 -0.6687
  842MOL0     H16152   3.587  10.832   4.410  0.6668 -0.4043 -0.1688
  842MOL0     H16153   3.497  10.970   4.478 -0.8471 -0.7732  1.1885
  842MOL0     H16154   3.900  11.158   4.542 -0.1999  0.1657 -0.2069
  842MOL0     H16155   4.209  11.178   4.413  2.0295 -2.2370  0.1064
  842MOL0     H16156   4.219  11.098   4.586  1.8409  0.4179 -0.7506
  842MOL0     H16157   4.113  11.223   4.560 -2.4719 -0.9936 -0.8051
  842MOL0     H16158   4.327  10.554   4.258  1.4752  2.7417 -1.8023
  842MOL0     H16159   4.544  10.434   4.252 -0.5287 -0.4184  1.4878
  842MOL0     H16160   4.915  10.604   4.290 -2.0893 -0.0646 -1.1891
  842MOL0     H16161   4.900  10.626   4.469  1.2763  1.2327 -1.4191
  842MOL0     H16162   4.990  10.412   4.491  0.4137  0.8098  0.7272
  842MOL0     H16163   4.934  10.360   4.320 -2.2544  1.1708 -0.0996
  842MOL0     H16164   5.147  10.543   4.413 -1.5364 -1.4808  0.5918
  842MOL0     H16165   5.114  10.532   4.245  2.0690  3.0663  1.1935
  842MOL0     H16166   5.188  10.291   4.264 -0.8825 -1.6801  1.9630
  842MOL0     H16167   5.254  10.329   4.426  3.8796  2.3079 -0.1050
  842MOL0     H16168   5.356  10.454   4.172 -0.0205 -0.6226  0.6790
  842MOL0     H16169   5.379  10.516   4.343  0.0252  0.1309  0.6724
  842MOL0     H16170   5.452  10.224   4.264  3.3257 -0.6986 -3.5766
  842MOL0     H16171   5.472  10.309   4.421  1.5841 -1.6914  0.5024
  842MOL0     H16172   5.688  10.331   4.343  0.6808  3.9091  1.0839
  842MOL0     H16173   5.616  10.483   4.301 -4.1623 -0.3589  1.1638
  842MOL0     H16174   5.650  10.240   4.108  3.1341 -0.3249 -1.2849
  842MOL0     H16175   5.763  10.384   4.110  0.0371  1.8562  0.9133
  842MOL0     H16176   4.722  10.744   4.492  0.7825 -1.8491  0.9442
  842MOL0     H16177   4.493  10.847   4.516  0.1446 -0.0378  0.2511
  842MOL0     H16178   4.014  10.725   4.333 -1.8319 -0.1348 -0.6296
  842MOL0     H16179   3.772  10.772   4.383 -1.6391  1.7997  0.4743
  842MOL0     H16180   3.697  10.688   5.671  1.4829 -0.0079  0.4772
  842MOL0     H16181   3.693  10.943   5.659  0.4414  2.5170 -1.6122
  842MOL0     H16182   3.830  11.292   5.563  1.3652  1.9957 -0.9767
  842MOL0     H16183   3.842  11.547   5.588  1.2286  0.3466 -2.7880
  842MOL0     H16184   3.533  11.871   5.578  2.8473  1.7239  1.8109
  842MOL0     H16185   3.450  11.714   5.598 -0.4908 -1.9214  2.8018
  842MOL0     H16186   3.498  11.833   5.815  2.5617  2.8020  2.1382
  842MOL0     H16187   3.657  11.847   5.768 -0.0038 -0.6443  1.4621
  842MOL0     H16188   3.511  11.571   5.824  0.9287 -0.7420 -3.5690
  842MOL0     H16189   3.687  11.592   5.781  0.1834  0.9919 -1.8955
  842MOL0     H16190   3.719  11.728   5.996 -2.3097  2.0877  3.1987
  842MOL0     H16191   3.666  11.574   6.019  3.2074  0.9772 -2.4808
  842MOL0     H16192   3.341  11.821   6.146  1.2170  1.3842  0.7249
  842MOL0     H16193   3.455  11.587   5.435 -0.3868  0.3528  0.7614
  842MOL0     H16194   3.456  11.260   5.287 -0.6163  0.6097 -2.3287
  842MOL0     H16195   3.332  11.315   5.409  0.5071  1.3010  1.2017
  842MOL0     H16196   3.383  11.420   5.276  0.7367  1.3054  0.7139
  843MOL0     O16197  10.736   9.113  11.175 -0.3984  0.2082  0.4199
  843MOL0     C16198  10.847   9.132  11.135 -0.2945  0.6113  0.0427
  843MOL0     O16199  10.931   9.031  11.079  0.2450 -0.3314  0.3738
  843MOL0     C16200  10.872   8.925  11.022  0.2874  0.0058 -0.5144
  843MOL0     C16201  10.917   8.804  11.058 -0.2446  0.0802  0.2618
  843MOL0     C16202  10.857   8.686  11.027  0.1452 -0.7619 -0.0468
  843MOL0     C16203  10.755   8.683  10.928  0.6286 -0.6628 -0.5092
  843MOL0     O16204  10.674   8.585  10.892 -0.7670  0.4423 -0.9344
  843MOL0     C16205  10.735   8.484  10.805 -0.6799  0.0013 -0.3572
  843MOL0     C16206  10.776   8.541  10.672  0.3371  0.0351 -0.3429
  843MOL0     C16207  10.893   8.469  10.598  0.2067 -0.2157 -0.0190
  843MOL0     C16208  10.922   8.325  10.655  0.2766 -0.1635 -1.0072
  843MOL0     C16209  11.026   8.240  10.594 -0.2800  0.0969 -0.0990
  843MOL0     C16210  11.024   8.090  10.649  0.7332 -0.2450  0.0743
  843MOL0     C16211  10.978   7.992  10.546 -0.2320  0.9259 -0.0824
  843MOL0     C16212  10.977   7.847  10.601  0.1102 -0.4268  0.0882
  843MOL0     N16213  10.851   7.808  10.671  0.7713  0.7406 -0.1710
  843MOL0     C16214  10.769   7.890  10.735  0.6266 -0.4509  0.2318
  843MOL0     C16215  10.647   7.832  10.731 -1.3662 -0.4304  0.4878
  843MOL0     C16216  10.533   7.896  10.780  0.3000 -0.2986 -0.7398
  843MOL0     C16217  10.416   7.857  10.691 -0.3220 -1.3280  0.4629
  843MOL0     C16218  10.439   7.895  10.536 -1.0965 -0.6884  1.0967
  843MOL0     C16219  10.411   8.040  10.496 -0.2757 -0.1508 -0.2806
  843MOL0     O16220  10.505   8.133  10.543 -0.9452  0.4434  0.5315
  843MOL0     C16221  10.516   8.242  10.463  0.9133  0.1654 -1.1422
  843MOL0     C16222  10.633   8.259  10.388  0.3699 -0.9386  0.1056
  843MOL0     C16223  10.630   8.370  10.302 -0.8066 -0.4223 -0.3721
  843MOL0     C16224  10.760   8.367  10.218 -0.0873  0.1092  0.1434
  843MOL0     C16225  10.530   8.468  10.307  0.2295 -0.4087  0.1603
  843MOL0     C16226  10.540   8.591  10.221  0.3290 -0.2474 -0.0923
  843MOL0     O16227  10.650   8.662  10.192  0.2112  0.2254  0.0513
  843MOL0     C16228  10.640   8.780  10.127 -0.9659 -0.7132 -0.2219
  843MOL0     C16229  10.567   8.894  10.165 -0.6875 -0.3203 -0.2949
  843MOL0     C16230  10.569   9.013  10.092 -0.1603 -0.3993  0.7703
  843MOL0     C16231  10.648   9.035   9.977 -0.3933  0.0961 -0.4425
  843MOL0     O16232  10.651   9.156   9.911 -0.5257 -0.9543 -0.6217
  843MOL0     C16233  10.523   9.199   9.860  0.4737  0.3931 -0.6000
  843MOL0     C16234  10.523   9.320   9.770  0.4194 -0.1620  0.1313
  843MOL0     C16235  10.606   9.434   9.819  0.0447 -0.3167  0.1193
  843MOL0     C16236  10.522   9.526   9.913 -0.4314 -0.2573  0.4302
  843MOL0     C16237  10.602   9.650   9.953  0.7094 -0.4446 -0.1899
  843MOL0     C16238  10.736   9.625  10.022  0.1742 -0.9592 -0.0298
  843MOL0     C16239  10.750   9.721  10.143  0.8091 -0.5711 -0.6648
  843MOL0     C16240  10.884   9.694  10.206 -0.8473 -1.2589  0.0316
  843MOL0    Cl16241  10.923   9.844  10.302 -0.1751 -0.1075 -0.0164
  843MOL0     C16242  10.730   8.924   9.937  0.3767 -0.1552  0.0201
  843MOL0     C16243  10.725   8.804  10.013  1.0080  0.1126 -0.2700
  843MOL0     O16244  10.424   8.623  10.185 -0.2073 -0.1939  0.5807
  843MOL0     C16245  10.412   8.432  10.371 -0.2625 -0.1368  0.4085
  843MOL0     C16246  10.406   8.329  10.456  0.4433  0.2636  0.1820
  843MOL0     N16247  10.662   7.701  10.686 -0.1260 -0.5642 -0.6202
  843MOL0     N16248  10.783   7.692  10.647  0.4347 -0.1314  0.1966
  843MOL0     C16249  10.710   8.806  10.883 -0.1742  0.2056 -0.0756
  843MOL0     C16250  10.765   8.927  10.935  0.3454 -0.2969 -0.3778
  843MOL0     C16251  10.897   9.275  11.147  0.8429  0.1057 -0.7791
  843MOL0     C16252  10.812   9.359  11.225  0.2338  0.2790  0.6669
  843MOL0     C16253  10.825   9.496  11.206 -0.1560 -0.0617 -0.4793
  843MOL0     C16254  10.937   9.553  11.156  0.1561  0.7743  0.5672
  843MOL0     O16255  10.953   9.689  11.165 -0.1102  0.1243 -0.3250
  843MOL0     C16256  11.082   9.732  11.189  0.1830  0.0423  0.3165
  843MOL0     C16257  11.067   9.841  11.299  0.5992 -0.2875 -1.9420
  843MOL0     C16258  11.056   9.812  11.450 -0.8776  0.4768  1.6650
  843MOL0     C16259  11.004   9.943  11.509  0.0396  0.1857 -0.3687
  843MOL0     C16260  10.974   9.936  11.653 -0.5297  0.1975  0.5093
  843MOL0     C16261  10.949   9.929  11.770  0.5487 -0.0738 -0.1952
  843MOL0     C16262  11.027   9.465  11.085  0.1008 -1.0492  0.9451
  843MOL0     C16263  11.006   9.327  11.072 -0.5004  0.4655 -0.8583
  843MOL0     C16264  11.112   9.247  10.994 -0.2679 -0.1632  0.1238
  843MOL0     H16265  10.990   8.803  11.139  0.2904 -3.2959 -0.1295
  843MOL0     H16266  10.887   8.594  11.076 -0.3354 -0.9615 -0.1170
  843MOL0     H16267  10.660   8.410  10.777 -1.0433  1.1730 -2.6861
  843MOL0     H16268  10.810   8.432  10.865 -2.5803 -2.1816  0.3088
  843MOL0     H16269  10.679   8.553  10.623 -0.3942 -1.7651  0.5827
  843MOL0     H16270  10.801   8.647  10.685 -1.8298  0.5841 -0.0866
  843MOL0     H16271  10.840   8.466  10.502 -4.3052  1.7516  2.1179
  843MOL0     H16272  10.985   8.528  10.594 -0.1961  0.7487  2.7532
  843MOL0     H16273  10.957   8.328  10.758  0.5653  0.8882 -1.1180
  843MOL0     H16274  10.824   8.278  10.652  0.3404 -0.6042  1.7577
  843MOL0     H16275  11.128   8.277  10.583 -0.6182  0.7082 -1.4087
  843MOL0     H16276  10.991   8.233  10.490 -3.8210  3.2693  0.6634
  843MOL0     H16277  11.128   8.065  10.673  1.6290  1.3834 -1.8438
  843MOL0     H16278  10.958   8.075  10.735 -1.0773 -2.1558 -1.5328
  843MOL0     H16279  11.064   7.993  10.478 -0.5774  0.1228 -0.5529
  843MOL0     H16280  10.887   8.011  10.489  0.9506  2.2687 -1.6292
  843MOL0     H16281  11.000   7.772  10.524  0.3032 -0.5649  0.2806
  843MOL0     H16282  11.060   7.853  10.672 -0.2788  2.8578  0.4121
  843MOL0     H16283  10.789   7.991  10.768 -0.1292 -0.6362  1.3072
  843MOL0     H16284  10.538   8.005  10.777  1.9365 -0.3491 -0.7013
  843MOL0     H16285  10.524   7.869  10.886  2.2919 -4.6371 -1.4146
  843MOL0     H16286  10.391   7.751  10.694  0.1758 -1.5150 -1.0341
  843MOL0     H16287  10.329   7.905  10.738 -0.7931 -2.6209  0.9511
  843MOL0     H16288  10.545   7.886  10.510 -0.9195  2.1653  0.5818
  843MOL0     H16289  10.386   7.836  10.460 -0.6108  1.1982 -0.8093
  843MOL0     H16290  10.404   8.042  10.387  0.9527 -1.7127 -0.4186
  843MOL0     H16291  10.315   8.064  10.544  0.0001 -1.6876  1.1244
  843MOL0     H16292  10.707   8.180  10.394 -0.2925 -1.5054  1.2711
  843MOL0     H16293  10.781   8.266  10.183 -1.0575  0.6241 -2.1262
  843MOL0     H16294  10.840   8.413  10.276  0.0207 -1.4798  1.3253
  843MOL0     H16295  10.746   8.428  10.128  0.6268  3.3912  2.0601
  843MOL0     H16296  10.521   8.892  10.263  0.7989 -1.6872  0.4195
  843MOL0     H16297  10.502   9.092  10.125 -0.4876  0.8950 -2.6162
  843MOL0     H16298  10.468   9.119   9.810  1.2334  0.6648 -1.8954
  843MOL0     H16299  10.469   9.243   9.945  0.1456  0.4481 -0.8364
  843MOL0     H16300  10.564   9.279   9.678  3.0739  1.7786  0.3323
  843MOL0     H16301  10.418   9.347   9.760  1.2531  3.8560  0.6086
  843MOL0     H16302  10.642   9.505   9.743 -0.3622  0.8396  0.9682
  843MOL0     H16303  10.686   9.391   9.878 -0.4937 -3.0345 -0.9873
  843MOL0     H16304  10.502   9.483  10.012 -1.2891 -1.2820 -0.1729
  843MOL0     H16305  10.428   9.556   9.868 -1.3225  0.2594  2.5082
  843MOL0     H16306  10.612   9.707   9.860 -1.5204 -1.0627 -0.8609
  843MOL0     H16307  10.541   9.716  10.016  1.3487 -0.2524  0.2407
  843MOL0     H16308  10.815   9.636   9.947 -1.3361 -1.2731 -1.7622
  843MOL0     H16309  10.740   9.521  10.056 -1.6441 -0.6834  1.1733
  843MOL0     H16310  10.666   9.702  10.209  0.7765 -0.1935 -0.5961
  843MOL0     H16311  10.741   9.827  10.116  1.7415 -0.0360  1.0241
  843MOL0     H16312  10.962   9.666  10.135  0.6595  2.2255  0.1232
  843MOL0     H16313  10.882   9.612  10.280  3.2924  0.1359  1.9746
  843MOL0     H16314  10.787   8.929   9.845  0.7511 -2.5299  0.0563
  843MOL0     H16315  10.794   8.727   9.980  2.3405  0.9423  0.5068
  843MOL0     H16316  10.324   8.496  10.379 -0.2432 -0.3026  2.4001
  843MOL0     H16317  10.316   8.296  10.507  1.1054 -0.7673  0.7042
  843MOL0     H16318  10.644   8.803  10.797  2.4025 -1.3981 -2.1680
  843MOL0     H16319  10.719   9.025  10.922  1.1354  1.0912  4.8179
  843MOL0     H16320  10.719   9.331  11.274 -0.4849 -1.0607 -1.3485
  843MOL0     H16321  10.756   9.572  11.242  1.6260  2.2519 -1.6476
  843MOL0     H16322  11.156   9.660  11.223 -0.3278  0.0313  1.4352
  843MOL0     H16323  11.120   9.762  11.091 -1.9234  1.0367 -0.2612
  843MOL0     H16324  10.980   9.899  11.266 -1.3623 -3.2222 -2.3043
  843MOL0     H16325  11.161   9.896  11.293 -0.7885  2.9626  1.8561
  843MOL0     H16326  10.995   9.722  11.458  1.4903 -1.7339 -2.1016
  843MOL0     H16327  11.157   9.781  11.479 -0.7029 -0.1669  0.4630
  843MOL0     H16328  10.912   9.963  11.454 -1.3118 -4.1353 -0.0964
  843MOL0     H16329  11.087  10.013  11.497  1.5441 -1.3019  0.7898
  843MOL0     H16330  10.929   9.936  11.875  3.3726  1.2474  0.3524
  843MOL0     H16331  11.099   9.523  11.028 -2.2271  1.9825  0.8328
  843MOL0     H16332  11.072   9.213  10.898  2.1814  1.9192 -1.8020
  843MOL0     H16333  11.205   9.303  10.977  0.5614 -1.6675 -0.4204
  843MOL0     H16334  11.145   9.160  11.051 -3.0687 -1.0363  0.5319
  844MOL0     O16335   5.751  11.320   7.748  0.2148 -0.0113  0.1836
  844MOL0     C16336   5.652  11.344   7.682 -0.0483  0.2042  0.4899
  844MOL0     O16337   5.526  11.378   7.730 -0.3291 -1.2741  0.0306
  844MOL0     C16338   5.501  11.361   7.862  0.3852  0.2722  0.0611
  844MOL0     C16339   5.407  11.265   7.894 -0.8446  0.7801 -1.0876
  844MOL0     C16340   5.375  11.246   8.027 -0.6067 -0.9804 -1.1956
  844MOL0     C16341   5.429  11.322   8.133  0.1335  0.8151  0.0231
  844MOL0     O16342   5.391  11.312   8.267  0.2664 -0.3273 -0.0467
  844MOL0     C16343   5.261  11.265   8.307 -0.2149 -0.8699 -0.6351
  844MOL0     C16344   5.289  11.146   8.394  0.2052 -0.2417 -0.3907
  844MOL0     C16345   5.180  11.153   8.507  0.2960 -0.0238 -1.5674
  844MOL0     C16346   5.183  11.014   8.590  0.7707 -0.4781 -0.1730
  844MOL0     C16347   5.070  10.991   8.690  0.3443  0.7843 -0.4864
  844MOL0     C16348   5.034  10.834   8.679 -0.1856 -0.7021 -0.4698
  844MOL0     C16349   4.946  10.790   8.791  0.1863 -0.5601  0.2935
  844MOL0     C16350   5.024  10.740   8.914 -0.0782  0.3692 -0.6650
  844MOL0     N16351   4.929  10.684   9.015 -0.0390 -0.2842 -0.3583
  844MOL0     C16352   4.804  10.732   9.046 -1.1905 -0.1165  0.5230
  844MOL0     C16353   4.745  10.632   9.121 -0.1905  0.1501  0.6752
  844MOL0     C16354   4.617  10.645   9.185  0.2831 -0.5275 -0.2499
  844MOL0     C16355   4.557  10.513   9.213 -0.9838  0.5545  0.8652
  844MOL0     C16356   4.403  10.513   9.228  0.2676 -0.0420 -0.5794
  844MOL0     C16357   4.333  10.380   9.221  0.0461  0.7152  0.5905
  844MOL0     O16358   4.302  10.317   9.342 -0.5292 -1.2464 -0.1195
  844MOL0     C16359   4.196  10.234   9.340  0.8855  0.8279 -1.0976
  844MOL0     C16360   4.093  10.241   9.428 -0.7706 -0.7370 -0.4511
  844MOL0     C16361   3.984  10.149   9.420 -0.4906 -0.3601 -0.3185
  844MOL0     C16362   3.867  10.177   9.511 -0.0577  0.2068 -0.9333
  844MOL0     C16363   3.985  10.046   9.327  0.1253 -0.0993 -0.1115
  844MOL0     C16364   3.878   9.947   9.307 -0.6688  0.1054  0.3436
  844MOL0     O16365   3.898   9.853   9.214  1.4656 -0.3500 -0.6414
  844MOL0     C16366   3.805   9.760   9.167  0.1573  0.8949  0.5556
  844MOL0     C16367   3.769   9.754   9.029  0.4918  0.6010  0.0259
  844MOL0     C16368   3.696   9.640   8.981 -0.1528 -0.2961 -0.4177
  844MOL0     C16369   3.653   9.538   9.075 -1.0696 -0.4823 -0.7540
  844MOL0     O16370   3.563   9.451   9.033 -0.5636  0.5232  0.4302
  844MOL0     C16371   3.596   9.320   9.082 -0.2097  0.4755  1.1009
  844MOL0     C16372   3.564   9.226   8.966 -0.5005  0.4264  0.4633
  844MOL0     C16373   3.416   9.205   8.938 -0.5225 -0.0994 -0.5854
  844MOL0     C16374   3.368   9.075   8.898  0.1354 -0.1907  0.2257
  844MOL0     C16375   3.213   9.081   8.893  0.2444 -0.0444 -0.0922
  844MOL0     C16376   3.143   9.225   8.856 -0.3839  0.8942  0.7757
  844MOL0     C16377   2.997   9.210   8.852 -0.4476 -0.5092 -0.6615
  844MOL0     C16378   2.918   9.333   8.819 -0.6735 -0.3528  0.7027
  844MOL0    Cl16379   2.950   9.437   8.959  0.3951  0.1875  0.1843
  844MOL0     C16380   3.681   9.557   9.209 -0.4654 -0.0046 -0.2193
  844MOL0     C16381   3.766   9.660   9.255  0.1557 -0.1217  0.5933
  844MOL0     O16382   3.776   9.967   9.358  0.1828 -0.3610  0.5415
  844MOL0     C16383   4.094  10.045   9.242 -0.8271 -0.2637 -0.0878
  844MOL0     C16384   4.201  10.134   9.245  0.4028 -0.2068 -0.4938
  844MOL0     N16385   4.832  10.529   9.127  0.6889 -0.6075  0.2596
  844MOL0     N16386   4.941  10.561   9.071  1.3605 -0.0285 -0.5481
  844MOL0     C16387   5.518  11.419   8.087 -0.4298  1.0009 -0.1723
  844MOL0     C16388   5.551  11.446   7.960  0.2586  0.3940  1.0226
  844MOL0     C16389   5.670  11.337   7.531  0.5946 -0.5508  0.0046
  844MOL0     C16390   5.739  11.223   7.497 -0.3646  0.5822 -0.1297
  844MOL0     C16391   5.752  11.183   7.360 -0.4586 -0.0248 -0.2777
  844MOL0     C16392   5.694  11.261   7.259  0.5442  0.4923 -0.8173
  844MOL0     O16393   5.705  11.208   7.132 -0.2239 -0.1696  0.8925
  844MOL0     C16394   5.640  11.271   7.033  0.7407 -0.5483 -1.1912
  844MOL0     C16395   5.679  11.209   6.894  0.0589 -0.8054 -0.4343
  844MOL0     C16396   5.581  11.266   6.789 -0.6018  0.2056 -0.2106
  844MOL0     C16397   5.584  11.186   6.663 -0.1720 -0.0970 -0.2703
  844MOL0     C16398   5.504  11.250   6.555  0.1921 -0.0878 -0.2311
  844MOL0     C16399   5.449  11.313   6.464 -0.6952 -0.3396 -0.6336
  844MOL0     C16400   5.612  11.373   7.297  0.2751  0.2487  0.6164
  844MOL0     C16401   5.602  11.410   7.432  0.5446 -0.0353 -0.0551
  844MOL0     C16402   5.525  11.530   7.460  0.2380  0.5395  0.4791
  844MOL0     H16403   5.369  11.198   7.817  1.5503  0.3390 -2.0002
  844MOL0     H16404   5.322  11.153   8.047 -3.1330  1.0629  3.0700
  844MOL0     H16405   5.195  11.235   8.225 -0.2407 -0.8412 -0.6251
  844MOL0     H16406   5.207  11.346   8.357  0.8496  0.4079 -1.4893
  844MOL0     H16407   5.274  11.054   8.338 -0.6770 -0.2075 -0.2183
  844MOL0     H16408   5.389  11.155   8.437  1.2142  0.3976 -2.6838
  844MOL0     H16409   5.192  11.239   8.573 -1.8313  2.7563 -4.4521
  844MOL0     H16410   5.080  11.153   8.463 -0.6884 -0.0768  0.5779
  844MOL0     H16411   5.181  10.931   8.519 -0.2700 -2.2024  1.7685
  844MOL0     H16412   5.281  11.003   8.638  0.0438  3.2520  2.6805
  844MOL0     H16413   4.987  11.053   8.656  0.4950  0.9356 -0.5813
  844MOL0     H16414   5.099  11.015   8.793  0.7364  0.3424 -0.4901
  844MOL0     H16415   4.995  10.811   8.579 -0.9068  2.3465 -1.0175
  844MOL0     H16416   5.134  10.791   8.689 -0.1691 -0.4174  0.7652
  844MOL0     H16417   4.885  10.704   8.760 -1.0811 -0.5399  2.5341
  844MOL0     H16418   4.882  10.873   8.821  0.5198  0.3833 -1.4974
  844MOL0     H16419   5.091  10.658   8.884 -4.1113 -2.4597 -2.8230
  844MOL0     H16420   5.083  10.821   8.958 -1.3416  0.3648  1.1520
  844MOL0     H16421   4.771  10.830   9.014  0.5911 -0.3535 -2.4523
  844MOL0     H16422   4.548  10.707   9.126 -0.8912  0.4013  1.9877
  844MOL0     H16423   4.638  10.694   9.280  1.8504  4.1440 -2.7147
  844MOL0     H16424   4.574  10.452   9.125  0.0861 -1.2670  2.2746
  844MOL0     H16425   4.605  10.463   9.298 -0.0516 -0.2789 -0.1278
  844MOL0     H16426   4.381  10.562   9.323 -1.2086  0.4703 -1.1532
  844MOL0     H16427   4.354  10.573   9.151 -3.9912 -3.5248 -0.9466
  844MOL0     H16428   4.236  10.400   9.175 -0.3629  0.3031  1.2611
  844MOL0     H16429   4.394  10.314   9.158  0.6360  1.3137  0.5262
  844MOL0     H16430   4.091  10.314   9.508  3.3138 -1.4085  0.4924
  844MOL0     H16431   3.780  10.214   9.455 -0.0317 -1.2862 -2.0289
  844MOL0     H16432   3.884  10.255   9.585 -0.6135 -0.7011  0.1925
  844MOL0     H16433   3.830  10.090   9.566  2.4884  1.1198  2.5047
  844MOL0     H16434   3.806   9.828   8.959 -0.7200 -2.0163 -3.7197
  844MOL0     H16435   3.682   9.636   8.874  1.7108  1.6953 -0.7984
  844MOL0     H16436   3.701   9.311   9.110  0.0822 -0.7197 -0.2423
  844MOL0     H16437   3.532   9.300   9.168 -3.7008  0.8824 -1.2012
  844MOL0     H16438   3.607   9.263   8.872 -1.6965  2.0844  0.5268
  844MOL0     H16439   3.612   9.132   8.995 -3.1617 -1.3833 -0.6049
  844MOL0     H16440   3.394   9.270   8.853  4.0789  0.1215 -1.8648
  844MOL0     H16441   3.377   9.224   9.039 -1.1038 -0.0097 -0.8243
  844MOL0     H16442   3.403   8.993   8.961  1.8853 -0.3326 -0.8643
  844MOL0     H16443   3.407   9.051   8.798 -1.3555  1.7373 -0.9025
  844MOL0     H16444   3.189   9.015   8.810 -1.2705  1.1057 -0.6156
  844MOL0     H16445   3.173   9.042   8.987 -0.3449  0.9806  0.0996
  844MOL0     H16446   3.169   9.258   8.755 -1.1079  0.5860  0.4852
  844MOL0     H16447   3.182   9.288   8.937  0.3934  2.8530 -1.0105
  844MOL0     H16448   2.965   9.168   8.948  1.0712  1.3603  0.7564
  844MOL0     H16449   2.976   9.129   8.782  1.7991  0.4365 -2.5640
  844MOL0     H16450   2.810   9.329   8.803 -0.6281  1.5113 -0.2442
  844MOL0     H16451   2.964   9.368   8.727  3.0610  0.7123  2.7603
  844MOL0     H16452   3.649   9.486   9.284 -0.5345  1.4912  1.2439
  844MOL0     H16453   3.781   9.680   9.360  0.6386  4.5894 -0.1570
  844MOL0     H16454   4.120   9.966   9.173  0.2393 -0.5291  0.5913
  844MOL0     H16455   4.286  10.135   9.178  1.8101  0.2660  1.2380
  844MOL0     H16456   5.553  11.480   8.170  0.3280 -0.1772  0.4117
  844MOL0     H16457   5.608  11.535   7.935 -1.3936  1.2328  0.0725
  844MOL0     H16458   5.793  11.157   7.565  1.8228  1.5777 -0.8011
  844MOL0     H16459   5.805  11.095   7.325  0.3748  1.5776 -3.3535
  844MOL0     H16460   5.535  11.253   7.055  1.6911 -1.2276  4.0497
  844MOL0     H16461   5.655  11.379   7.041 -0.0839 -0.5395  0.6818
  844MOL0     H16462   5.685  11.101   6.912  0.8979 -0.8717 -1.0587
  844MOL0     H16463   5.783  11.240   6.879 -0.4190  0.1104 -2.0850
  844MOL0     H16464   5.479  11.261   6.829 -0.7247 -1.2718 -0.6267
  844MOL0     H16465   5.596  11.373   6.774 -0.9174  0.5962  1.9017
  844MOL0     H16466   5.524  11.098   6.687  0.2752  0.1709  2.0637
  844MOL0     H16467   5.689  11.165   6.646 -0.1879  0.9477 -1.9544
  844MOL0     H16468   5.413  11.362   6.375  2.1654  4.4156  0.4869
  844MOL0     H16469   5.557  11.429   7.222 -0.3341 -2.2138 -0.8886
  844MOL0     H16470   5.559  11.577   7.553 -0.5066  2.9876 -0.4014
  844MOL0     H16471   5.543  11.609   7.386 -1.0656  0.9157  0.5348
  844MOL0     H16472   5.416  11.524   7.457 -0.1576  3.6661  2.8819
  845MOL0     O16473   7.080   9.092  10.635 -0.1322 -0.8822  0.9796
  845MOL0     C16474   7.077   8.980  10.577 -0.9904  0.1759  0.5643
  845MOL0     O16475   6.964   8.908  10.564 -0.0735  0.1438 -0.7097
  845MOL0     C16476   6.851   8.928  10.640 -0.7977  0.7772 -0.1308
  845MOL0     C16477   6.730   8.882  10.596  0.6170 -0.6365 -0.1218
  845MOL0     C16478   6.610   8.873  10.674 -0.3926  0.9817 -0.2068
  845MOL0     C16479   6.621   8.884  10.809 -0.9709 -0.4451  0.7906
  845MOL0     O16480   6.521   8.861  10.899  0.4664  0.5254 -0.4439
  845MOL0     C16481   6.396   8.810  10.860  0.6828 -0.2557 -0.7579
  845MOL0     C16482   6.335   8.762  10.993  0.0141  0.2310 -0.2633
  845MOL0     C16483   6.190   8.708  10.961  0.2537 -0.5600  0.6062
  845MOL0     C16484   6.141   8.609  11.070  0.5110 -0.0956 -0.5281
  845MOL0     C16485   5.990   8.570  11.037  0.7154 -0.2892  0.2323
  845MOL0     C16486   5.894   8.654  11.125  0.0922  0.2544  0.1103
  845MOL0     C16487   5.743   8.602  11.118 -0.3345  0.1271  0.2588
  845MOL0     C16488   5.696   8.511  11.226  0.3148 -0.0813 -0.2827
  845MOL0     N16489   5.609   8.396  11.186 -0.3107  0.7594  0.1955
  845MOL0     C16490   5.504   8.396  11.108  0.4881 -0.2102  0.4266
  845MOL0     C16491   5.463   8.268  11.129 -0.2536  0.0395  0.1268
  845MOL0     C16492   5.319   8.229  11.083  0.0207 -0.7817  0.5766
  845MOL0     C16493   5.215   8.186  11.189 -0.7580 -0.3525 -0.2125
  845MOL0     C16494   5.093   8.131  11.117 -0.7026  0.6419 -0.2882
  845MOL0     C16495   5.036   8.013  11.185  0.2387  0.1677  1.4539
  845MOL0     O16496   5.114   7.896  11.167 -0.7140  0.1919  0.0498
  845MOL0     C16497   5.072   7.771  11.174  0.6120 -0.1456 -0.8621
  845MOL0     C16498   5.149   7.657  11.138 -0.8333 -0.8238 -0.4872
  845MOL0     C16499   5.108   7.524  11.147 -1.0180 -0.6697  0.1227
  845MOL0     C16500   5.210   7.412  11.086  0.1988 -0.5522 -0.4934
  845MOL0     C16501   4.976   7.489  11.190 -1.0167  0.2900 -0.1897
  845MOL0     C16502   4.920   7.351  11.205  0.4889  0.0264 -0.5241
  845MOL0     O16503   4.997   7.236  11.182  0.5575 -0.3153 -0.0568
  845MOL0     C16504   4.938   7.117  11.156 -0.0969  0.1184 -0.1487
  845MOL0     C16505   4.921   7.077  11.027  1.8199  0.0265  0.8111
  845MOL0     C16506   4.859   6.953  11.001 -0.0602 -0.8282 -0.1067
  845MOL0     C16507   4.817   6.871  11.097 -0.2060  1.4075 -0.2133
  845MOL0     O16508   4.747   6.760  11.071  0.1691 -0.3471 -0.2169
  845MOL0     C16509   4.781   6.640  11.150  0.7032 -0.1413  0.2712
  845MOL0     C16510   4.763   6.517  11.054 -0.0913  0.1072 -0.5239
  845MOL0     C16511   4.848   6.523  10.926 -0.4747  0.7021  0.5390
  845MOL0     C16512   4.990   6.529  10.974  0.1010  0.6384 -0.1558
  845MOL0     C16513   5.088   6.499  10.865 -1.0132 -0.0830  0.6529
  845MOL0     C16514   5.094   6.621  10.756  1.0738  0.0917 -0.2086
  845MOL0     C16515   5.239   6.637  10.713 -0.3091  1.0973  0.9900
  845MOL0     C16516   5.309   6.511  10.647 -0.5372 -1.2043  0.1855
  845MOL0    Cl16517   5.238   6.481  10.483 -0.5569  0.2380 -0.1268
  845MOL0     C16518   4.862   6.902  11.234  0.0700 -0.1110  0.3044
  845MOL0     C16519   4.919   7.026  11.256 -0.8955  1.1692 -0.8353
  845MOL0     O16520   4.803   7.344  11.261 -0.4637 -0.3335  0.3687
  845MOL0     C16521   4.901   7.599  11.227  0.6510  0.6454  0.1278
  845MOL0     C16522   4.948   7.732  11.221 -1.0309  0.2136 -0.0075
  845MOL0     N16523   5.550   8.192  11.210  1.1519 -0.0471 -0.2089
  845MOL0     N16524   5.644   8.268  11.231  0.2003  0.2511  0.4527
  845MOL0     C16525   6.740   8.935  10.854  0.1224  0.1388  0.1062
  845MOL0     C16526   6.856   8.963  10.776  0.4572  0.1658  0.5873
  845MOL0     C16527   7.204   8.935  10.502 -0.1862 -0.7665  0.1062
  845MOL0     C16528   7.218   8.797  10.461 -0.1537  0.0131 -0.8368
  845MOL0     C16529   7.318   8.756  10.374  0.0263  0.8363 -0.0480
  845MOL0     C16530   7.413   8.852  10.345 -0.1260 -0.6894  0.5545
  845MOL0     O16531   7.519   8.806  10.264  0.9670 -0.8451  0.4878
  845MOL0     C16532   7.621   8.893  10.220  0.3930 -0.1403 -0.9797
  845MOL0     C16533   7.712   8.826  10.120  0.3257 -1.2988 -0.2853
  845MOL0     C16534   7.794   8.722  10.201  1.4077 -0.7884  0.2045
  845MOL0     C16535   7.903   8.653  10.117 -0.0858 -0.6008  0.4808
  845MOL0     C16536   7.876   8.591   9.989 -0.4500 -0.1294  0.5404
  845MOL0     C16537   7.843   8.542   9.885 -0.1345  0.2438 -0.2000
  845MOL0     C16538   7.414   8.986  10.400  0.3284 -0.4532  0.7279
  845MOL0     C16539   7.310   9.029  10.479 -0.7154 -0.4887  0.0695
  845MOL0     C16540   7.329   9.170  10.534 -0.3706 -0.5339 -0.1877
  845MOL0     H16541   6.713   8.868  10.490  4.6787  1.7521 -1.2901
  845MOL0     H16542   6.514   8.841  10.634 -0.3416 -0.2054  0.5395
  845MOL0     H16543   6.422   8.718  10.807  1.6109 -1.3146  1.4003
  845MOL0     H16544   6.331   8.879  10.804 -1.6651  0.3035  2.3358
  845MOL0     H16545   6.392   8.678  11.033 -1.5410 -0.5609  0.4223
  845MOL0     H16546   6.337   8.853  11.054 -0.8824  2.0260 -2.7583
  845MOL0     H16547   6.112   8.783  10.945  1.3725  0.3877 -0.6290
  845MOL0     H16548   6.194   8.658  10.864  1.5773 -1.9039  1.3243
  845MOL0     H16549   6.220   8.537  11.094 -1.0031 -2.1812 -1.4172
  845MOL0     H16550   6.140   8.668  11.162 -1.2251  0.6113 -0.9703
  845MOL0     H16551   5.986   8.468  11.074 -1.0646 -1.3045 -2.4666
  845MOL0     H16552   5.977   8.577  10.929  2.0333 -2.0683 -0.0684
  845MOL0     H16553   5.924   8.659  11.230 -0.0240  1.0651  0.1121
  845MOL0     H16554   5.888   8.758  11.091 -2.3675 -0.3329 -1.4890
  845MOL0     H16555   5.709   8.555  11.026  0.0233 -2.1267  1.2074
  845MOL0     H16556   5.688   8.696  11.131  2.1106  1.4697  1.7493
  845MOL0     H16557   5.788   8.468  11.266  0.5631  3.0118  3.0311
  845MOL0     H16558   5.645   8.574  11.300  2.1152 -0.0026  0.9573
  845MOL0     H16559   5.453   8.483  11.068  1.0766  0.2416  0.6510
  845MOL0     H16560   5.335   8.154  11.006  1.3431  1.3122 -1.3082
  845MOL0     H16561   5.274   8.315  11.033 -0.1280 -2.9504 -3.4840
  845MOL0     H16562   5.266   8.103  11.239  2.4178 -0.0254 -2.6079
  845MOL0     H16563   5.195   8.264  11.263 -0.5644  0.6799 -1.2316
  845MOL0     H16564   5.021   8.212  11.104 -0.5981  0.7753 -0.0314
  845MOL0     H16565   5.128   8.098  11.018 -2.5052  0.2733 -0.8439
  845MOL0     H16566   5.024   8.022  11.293  1.7130  1.8521  1.5276
  845MOL0     H16567   4.937   7.985  11.149  0.6663 -2.9076  2.3579
  845MOL0     H16568   5.239   7.685  11.084 -1.0075  0.5522 -0.1110
  845MOL0     H16569   5.249   7.341  11.159 -0.9413  0.8083  1.5374
  845MOL0     H16570   5.293   7.469  11.044  0.4425 -0.2897  0.3239
  845MOL0     H16571   5.166   7.358  11.002  2.7350 -0.8668 -1.7095
  845MOL0     H16572   4.959   7.144  10.951  1.5953  0.1605  0.8193
  845MOL0     H16573   4.837   6.943  10.895  0.5847  1.1670 -0.4679
  845MOL0     H16574   4.873   6.652  11.207  0.8130  1.9145 -0.2447
  845MOL0     H16575   4.713   6.619  11.232  0.4301 -1.2100 -0.2119
  845MOL0     H16576   4.768   6.426  11.114  0.8086 -0.0971 -0.9073
  845MOL0     H16577   4.661   6.529  11.015 -0.4104  1.4935  0.6461
  845MOL0     H16578   4.818   6.600  10.853  2.3100 -0.7945 -2.4661
  845MOL0     H16579   4.829   6.426  10.879 -2.0589  1.6223 -0.8243
  845MOL0     H16580   4.995   6.446  11.044  0.1805 -1.5444 -2.6182
  845MOL0     H16581   5.008   6.621  11.031 -0.8206 -1.3967  3.7892
  845MOL0     H16582   5.193   6.494  10.894 -0.7747  1.8663  0.2370
  845MOL0     H16583   5.060   6.408  10.809 -3.7401  0.1117  1.5440
  845MOL0     H16584   5.076   6.716  10.806  0.8794  0.5084 -1.0475
  845MOL0     H16585   5.022   6.616  10.674 -1.2889  0.8745  1.7163
  845MOL0     H16586   5.294   6.657  10.805 -1.7765  1.3297  1.8460
  845MOL0     H16587   5.251   6.727  10.651  0.5558  1.5313  1.7649
  845MOL0     H16588   5.297   6.424  10.712  0.1832  1.1003  3.6324
  845MOL0     H16589   5.418   6.519  10.638 -0.5230 -0.0476  1.1585
  845MOL0     H16590   4.848   6.837  11.319 -2.3996 -0.6515 -0.4300
  845MOL0     H16591   4.947   7.051  11.357 -0.8599  1.8303 -1.0000
  845MOL0     H16592   4.796   7.591  11.253  0.4738  1.5657 -0.2683
  845MOL0     H16593   4.876   7.808  11.250 -1.1177 -0.2023  0.9082
  845MOL0     H16594   6.744   8.967  10.957  0.0823  1.2760 -0.2297
  845MOL0     H16595   6.945   8.999  10.828  0.2419  3.1116 -0.8602
  845MOL0     H16596   7.132   8.735  10.485 -0.5313  0.9670  0.3538
  845MOL0     H16597   7.321   8.655  10.333  2.2230  1.0687 -0.5805
  845MOL0     H16598   7.577   8.984  10.179  2.3615  2.3749  2.0456
  845MOL0     H16599   7.677   8.921  10.310  0.6238 -1.5925 -0.6313
  845MOL0     H16600   7.777   8.894  10.065  0.0023 -2.2232 -1.8704
  845MOL0     H16601   7.650   8.774  10.046  0.1229 -1.4906  0.0144
  845MOL0     H16602   7.836   8.762  10.294  0.1359  0.1422  0.4141
  845MOL0     H16603   7.724   8.649  10.242  0.9718 -0.3449  0.2576
  845MOL0     H16604   7.945   8.573  10.178 -2.3713  1.1505  4.7379
  845MOL0     H16605   7.980   8.731  10.112  1.5220 -2.0606  1.4453
  845MOL0     H16606   7.836   8.491   9.792  0.9182 -1.4695  0.6046
  845MOL0     H16607   7.500   9.048  10.374 -0.1016 -0.7442 -1.6826
  845MOL0     H16608   7.344   9.169  10.643  1.9400 -0.0274 -0.4516
  845MOL0     H16609   7.416   9.214  10.487 -0.6285 -1.1857 -1.3022
  845MOL0     H16610   7.247   9.240  10.515  0.9670  0.5760 -2.1317
  846MOL0     O16611  11.434   9.377   1.558 -0.3939  0.2078  0.0305
  846MOL0     C16612  11.462   9.287   1.644 -0.1613 -0.3412  0.4015
  846MOL0     O16613  11.497   9.158   1.612 -0.2664 -0.0871 -0.8582
  846MOL0     C16614  11.497   9.109   1.490  0.0074  0.7072  0.5193
  846MOL0     C16615  11.557   8.985   1.483 -0.3651 -0.9212 -0.5387
  846MOL0     C16616  11.556   8.910   1.359 -0.7976  0.1192  0.1575
  846MOL0     C16617  11.487   8.971   1.242 -1.0380  0.0092  0.1229
  846MOL0     O16618  11.504   8.897   1.125  0.2728  0.1731  0.0752
  846MOL0     C16619  11.382   8.881   1.052  0.1223 -0.2506  0.0818
  846MOL0     C16620  11.373   8.766   0.958 -0.1114  0.7667  0.2402
  846MOL0     C16621  11.480   8.753   0.850  0.5657 -0.6095 -0.8928
  846MOL0     C16622  11.500   8.608   0.800  0.2371  0.3083 -0.1914
  846MOL0     C16623  11.371   8.553   0.730  0.5351  0.5289  0.3249
  846MOL0     C16624  11.390   8.406   0.686  0.3518 -0.1961  0.7640
  846MOL0     C16625  11.261   8.343   0.635  1.1020 -0.2083  1.2552
  846MOL0     C16626  11.269   8.180   0.640  0.0497  0.2075  0.3274
  846MOL0     N16627  11.141   8.120   0.607  0.2184 -0.3674 -1.0644
  846MOL0     C16628  11.073   8.148   0.502  0.2832 -0.1563  0.1366
  846MOL0     C16629  10.946   8.103   0.527  0.5100 -0.8289 -0.1852
  846MOL0     C16630  10.819   8.110   0.437  0.3608 -0.9804 -0.2142
  846MOL0     C16631  10.727   8.231   0.462  0.5439 -0.6175  0.1102
  846MOL0     C16632  10.692   8.255   0.609 -0.5212 -0.0619 -0.0463
  846MOL0     C16633  10.566   8.342   0.624 -0.2574  0.2328  0.5393
  846MOL0     O16634  10.450   8.306   0.540  0.2072  0.1021  0.0261
  846MOL0     C16635  10.385   8.188   0.568  1.1485 -0.3011  0.2857
  846MOL0     C16636  10.379   8.110   0.688 -0.1251 -0.7321 -0.4569
  846MOL0     C16637  10.318   7.991   0.704 -0.3696  0.1665  0.2086
  846MOL0     C16638  10.330   7.931   0.843  0.0541  0.9959  0.3375
  846MOL0     C16639  10.241   7.940   0.595  0.0903 -0.3944  1.2102
  846MOL0     C16640  10.165   7.810   0.610 -0.1100 -0.0231 -0.0115
  846MOL0     O16641  10.111   7.772   0.725  0.7809 -0.1401 -0.0085
  846MOL0     C16642  10.138   7.644   0.769 -0.1543 -0.3760  0.0481
  846MOL0     C16643  10.227   7.549   0.701 -0.0921  0.2732  0.3255
  846MOL0     C16644  10.247   7.421   0.751 -0.6445 -0.8012  0.1997
  846MOL0     C16645  10.182   7.375   0.865 -0.1931  0.3046  1.0288
  846MOL0     O16646  10.201   7.246   0.911  0.6670  0.4189  0.0107
  846MOL0     C16647  10.318   7.227   0.998 -0.4832  0.2631  0.5774
  846MOL0     C16648  10.293   7.107   1.098 -0.2709 -0.1021 -0.4470
  846MOL0     C16649  10.306   6.975   1.016 -0.9962  0.2959 -0.2091
  846MOL0     C16650  10.273   6.866   1.111  0.1841 -0.6020 -0.1236
  846MOL0     C16651  10.271   6.727   1.054 -0.9533 -0.8605 -0.5125
  846MOL0     C16652  10.415   6.691   0.995  0.1703  0.4950 -0.2650
  846MOL0     C16653  10.520   6.654   1.099  0.3679  0.5391 -0.3407
  846MOL0     C16654  10.631   6.566   1.040 -0.2059  0.2285 -0.2380
  846MOL0    Cl16655  10.726   6.667   0.930 -0.0898  0.4277 -0.1830
  846MOL0     C16656  10.085   7.449   0.917 -1.0864  0.3398 -0.5859
  846MOL0     C16657  10.073   7.581   0.876 -0.0275 -0.7593 -0.1814
  846MOL0     O16658  10.151   7.752   0.507  0.3386  0.4682  0.1142
  846MOL0     C16659  10.227   8.022   0.475  0.6022  0.0769 -0.2459
  846MOL0     C16660  10.305   8.144   0.470  0.6884  0.0961 -0.9994
  846MOL0     N16661  10.951   8.040   0.650 -0.1301 -0.2584  0.0660
  846MOL0     N16662  11.066   8.059   0.705 -0.2313 -0.6857 -0.1228
  846MOL0     C16663  11.422   9.087   1.250 -0.3583 -0.8966 -0.4616
  846MOL0     C16664  11.433   9.155   1.373  0.5010 -0.9839 -0.6640
  846MOL0     C16665  11.472   9.323   1.789 -0.2634  0.3255  0.3084
  846MOL0     C16666  11.374   9.420   1.825  0.6120  0.2374  0.4788
  846MOL0     C16667  11.372   9.471   1.955  0.4091  0.6492 -0.8501
  846MOL0     C16668  11.464   9.428   2.057 -0.2541 -0.4708  0.1357
  846MOL0     O16669  11.446   9.452   2.186  0.7748  0.0860 -0.4217
  846MOL0     C16670  11.497   9.377   2.293  0.2799  0.1446  0.4894
  846MOL0     C16671  11.500   9.455   2.420 -0.2637  0.1851  1.4732
  846MOL0     C16672  11.557   9.592   2.388  0.1562  0.6337  0.2999
  846MOL0     C16673  11.595   9.663   2.516 -0.5132 -0.0647  0.0773
  846MOL0     C16674  11.646   9.795   2.483 -0.3024 -1.0029 -0.1814
  846MOL0     C16675  11.663   9.919   2.472 -0.1254  0.0850 -0.1340
  846MOL0     C16676  11.564   9.335   2.006 -0.4409 -0.2285  0.7050
  846MOL0     C16677  11.565   9.275   1.877 -0.2473 -0.2402  0.9118
  846MOL0     C16678  11.675   9.177   1.837 -1.1614  0.6507 -0.7065
  846MOL0     H16679  11.590   8.946   1.579 -3.7276 -2.8487 -0.0310
  846MOL0     H16680  11.595   8.809   1.357 -1.9961 -0.3501 -0.8959
  846MOL0     H16681  11.373   8.967   0.986 -2.2079 -2.3322 -2.5634
  846MOL0     H16682  11.288   8.873   1.107 -0.3201  2.7129 -0.0766
  846MOL0     H16683  11.353   8.674   1.015 -3.0350 -0.0776 -1.9069
  846MOL0     H16684  11.278   8.779   0.907 -2.2040 -2.7871  2.7772
  846MOL0     H16685  11.457   8.825   0.770  0.6362  1.9063  1.2103
  846MOL0     H16686  11.579   8.785   0.885 -0.1845 -0.3531  1.1192
  846MOL0     H16687  11.574   8.611   0.719  0.0874 -3.2350 -0.5803
  846MOL0     H16688  11.525   8.545   0.886 -1.3395 -0.6944 -0.4446
  846MOL0     H16689  11.368   8.620   0.644  0.9652 -0.4073 -0.4479
  846MOL0     H16690  11.279   8.568   0.788  0.5185 -2.1366  1.1235
  846MOL0     H16691  11.469   8.388   0.613 -0.4055  1.7776 -0.6551
  846MOL0     H16692  11.425   8.353   0.775 -0.1415 -1.2898  0.3335
  846MOL0     H16693  11.251   8.366   0.529 -1.0625 -2.3402  0.9244
  846MOL0     H16694  11.180   8.391   0.691  2.0401  0.8762  1.7415
  846MOL0     H16695  11.352   8.143   0.579 -0.1138 -0.5793  0.5730
  846MOL0     H16696  11.291   8.168   0.747 -4.6207 -0.0812  1.4499
  846MOL0     H16697  11.101   8.198   0.410 -2.3080 -1.0203 -1.2318
  846MOL0     H16698  10.780   8.009   0.453  1.8970 -1.3714  1.5236
  846MOL0     H16699  10.854   8.105   0.334 -0.5101 -0.3221 -0.5490
  846MOL0     H16700  10.764   8.329   0.429  1.0477 -0.3987  1.2819
  846MOL0     H16701  10.639   8.209   0.402  0.6595  0.1988 -0.3724
  846MOL0     H16702  10.676   8.158   0.655  0.7947 -1.1368 -1.7544
  846MOL0     H16703  10.773   8.297   0.670 -0.5078  1.4652 -1.0307
  846MOL0     H16704  10.540   8.338   0.731  0.8452  0.5790  0.8305
  846MOL0     H16705  10.602   8.445   0.621  1.1448 -0.0367  3.8167
  846MOL0     H16706  10.414   8.151   0.782 -1.8062  0.2227 -0.2089
  846MOL0     H16707  10.231   7.907   0.883  1.0489  2.7317  4.3422
  846MOL0     H16708  10.366   8.009   0.911  3.3437  1.2036 -1.4461
  846MOL0     H16709  10.403   7.850   0.852 -0.1994  0.8743  1.4644
  846MOL0     H16710  10.277   7.578   0.609  1.6269  1.4528  1.5643
  846MOL0     H16711  10.325   7.360   0.704 -1.5214 -2.2626  0.5719
  846MOL0     H16712  10.412   7.200   0.949 -1.4384 -2.3531  0.0183
  846MOL0     H16713  10.329   7.318   1.057 -2.0426  1.2499 -0.5800
  846MOL0     H16714  10.368   7.107   1.177  1.0936 -1.7739 -1.6615
  846MOL0     H16715  10.199   7.117   1.153  1.5619 -0.2053  2.9808
  846MOL0     H16716  10.398   6.964   0.958 -1.6092 -0.0809 -1.1411
  846MOL0     H16717  10.232   6.964   0.936 -2.3533  3.9582  0.4048
  846MOL0     H16718  10.172   6.875   1.153  1.0368 -0.7626  2.0785
  846MOL0     H16719  10.337   6.872   1.199 -0.4232  1.8975  0.2398
  846MOL0     H16720  10.233   6.648   1.119  0.3210 -2.4046 -1.5531
  846MOL0     H16721  10.191   6.728   0.980 -2.6599 -0.9401  1.2444
  846MOL0     H16722  10.451   6.765   0.923 -0.2342  0.7043 -0.2515
  846MOL0     H16723  10.399   6.595   0.945 -3.3911  0.5677  0.4674
  846MOL0     H16724  10.467   6.590   1.170 -5.4034 -0.7622 -4.9618
  846MOL0     H16725  10.559   6.742   1.150 -1.0814  2.4337 -2.2753
  846MOL0     H16726  10.588   6.490   0.973  0.5536  0.5823 -1.1481
  846MOL0     H16727  10.685   6.515   1.121 -3.6959  1.3447  3.0902
  846MOL0     H16728  10.016   7.409   0.990 -1.2324 -0.1919 -1.0056
  846MOL0     H16729  10.018   7.654   0.934 -1.8524 -0.0270 -2.6904
  846MOL0     H16730  10.172   7.975   0.394 -1.7948  3.4827 -0.7851
  846MOL0     H16731  10.303   8.193   0.373 -0.0178 -0.0973 -1.0849
  846MOL0     H16732  11.374   9.128   1.162  1.0746 -0.2196 -0.9607
  846MOL0     H16733  11.385   9.252   1.373  1.0089 -0.7290 -0.9538
  846MOL0     H16734  11.292   9.450   1.761  0.3389  1.0199  1.1866
  846MOL0     H16735  11.305   9.555   1.972  0.1912  0.4704 -0.8145
  846MOL0     H16736  11.423   9.298   2.314  0.2738 -0.1449 -0.5320
  846MOL0     H16737  11.588   9.323   2.267 -1.4182 -3.1112  0.7532
  846MOL0     H16738  11.548   9.412   2.508  0.0462  0.4525  1.4371
  846MOL0     H16739  11.394   9.470   2.440 -0.8096 -0.1691 -0.8619
  846MOL0     H16740  11.637   9.590   2.314  1.8394  1.0425  2.0387
  846MOL0     H16741  11.472   9.639   2.335 -0.7428 -3.3330 -2.2235
  846MOL0     H16742  11.685   9.622   2.562  1.8573  0.6797 -3.5453
  846MOL0     H16743  11.511   9.661   2.587  0.3573 -2.9324  1.1636
  846MOL0     H16744  11.687  10.021   2.450 -1.6184  0.6940  0.8957
  846MOL0     H16745  11.648   9.312   2.071 -1.2796 -1.3325  1.4423
  846MOL0     H16746  11.727   9.216   1.749  4.8971 -0.4958  1.8293
  846MOL0     H16747  11.751   9.165   1.915 -2.4326  1.5390  0.7001
  846MOL0     H16748  11.633   9.079   1.814  0.2241 -0.6352  1.8270
  847MOL0     O16749  10.621   4.227   1.674 -0.4359 -0.5372 -0.0013
  847MOL0     C16750  10.744   4.234   1.653  1.0771  0.3914  0.4613
  847MOL0     O16751  10.818   4.332   1.700 -1.6528 -0.4942  0.1662
  847MOL0     C16752  10.787   4.442   1.782 -0.2270 -0.6862  0.2114
  847MOL0     C16753  10.657   4.482   1.806  0.5678 -0.1979 -0.5574
  847MOL0     C16754  10.630   4.589   1.890 -0.4323  0.1539  0.5439
  847MOL0     C16755  10.736   4.668   1.937 -0.2418  0.9764  0.1815
  847MOL0     O16756  10.699   4.762   2.024 -0.1154 -1.4797 -0.2739
  847MOL0     C16757  10.744   4.896   2.001 -0.4156  0.5081  0.0798
  847MOL0     C16758  10.675   4.966   1.883  0.2383  0.5548 -0.5696
  847MOL0     C16759  10.691   5.120   1.872  0.6672 -0.7287 -0.3278
  847MOL0     C16760  10.835   5.172   1.867 -0.1326  0.6009 -0.2226
  847MOL0     C16761  10.842   5.326   1.823 -0.0190  0.9474  1.2149
  847MOL0     C16762  10.986   5.378   1.822 -0.8490  0.0476  0.3608
  847MOL0     C16763  11.000   5.520   1.769  0.5383 -0.1858 -0.1023
  847MOL0     C16764  11.151   5.552   1.751 -1.0406 -0.1584  0.0119
  847MOL0     N16765  11.162   5.609   1.618 -0.3149 -1.2468  0.4486
  847MOL0     C16766  11.123   5.738   1.585  0.3398  0.4909  0.2520
  847MOL0     C16767  11.155   5.760   1.458 -0.4078  0.3535  0.5335
  847MOL0     C16768  11.104   5.878   1.370 -0.2796 -0.6260 -0.0806
  847MOL0     C16769  10.952   5.903   1.363 -0.3920 -0.6888 -0.9052
  847MOL0     C16770  10.879   5.806   1.267 -0.4319 -0.0981  0.2704
  847MOL0     C16771  10.872   5.660   1.308  0.1417  1.6747 -0.1368
  847MOL0     O16772  10.765   5.648   1.398 -0.4287 -0.3833  0.0426
  847MOL0     C16773  10.747   5.514   1.435  0.3915  0.6179 -0.0511
  847MOL0     C16774  10.834   5.406   1.414 -0.2596  0.9509 -0.3872
  847MOL0     C16775  10.792   5.272   1.436  0.4467  0.5021  0.7781
  847MOL0     C16776  10.886   5.167   1.394 -0.3012  0.7391 -0.0370
  847MOL0     C16777  10.664   5.242   1.494  0.0408  0.0190 -0.1489
  847MOL0     C16778  10.611   5.099   1.539  0.1627  0.2766  0.3938
  847MOL0     O16779  10.483   5.093   1.587  0.3287 -0.1928  0.0578
  847MOL0     C16780  10.426   4.971   1.602 -0.4057 -0.0336  0.1768
  847MOL0     C16781  10.433   4.873   1.502 -0.0239  0.1005 -0.0915
  847MOL0     C16782  10.366   4.752   1.501 -0.0924 -0.2223 -0.2255
  847MOL0     C16783  10.279   4.729   1.609  0.6226 -0.0065  0.3266
  847MOL0     O16784  10.195   4.620   1.595  0.1486 -0.6845  0.1927
  847MOL0     C16785  10.242   4.499   1.552 -1.1415  0.1011 -0.0641
  847MOL0     C16786  10.151   4.430   1.443 -0.3774 -0.5826 -0.0702
  847MOL0     C16787  10.122   4.511   1.318 -0.5036 -0.3324 -0.2980
  847MOL0     C16788  10.062   4.415   1.224  0.0564 -0.3688  0.3279
  847MOL0     C16789  10.042   4.494   1.093 -0.3064  0.1715  0.4627
  847MOL0     C16790   9.926   4.598   1.090  1.2420 -0.1719  0.6923
  847MOL0     C16791   9.791   4.529   1.109  0.5178  0.9837  0.0126
  847MOL0     C16792   9.698   4.616   1.188 -0.4281  0.1433 -0.2934
  847MOL0    Cl16793   9.667   4.769   1.102 -0.1395 -0.1403  0.2197
  847MOL0     C16794  10.270   4.826   1.713 -0.6418  0.6791  0.5194
  847MOL0     C16795  10.344   4.946   1.710  0.7308 -0.4118  0.9214
  847MOL0     O16796  10.690   5.011   1.548 -0.4516  0.2600 -0.0314
  847MOL0     C16797  10.580   5.352   1.505 -0.2411  0.4043 -0.2131
  847MOL0     C16798  10.617   5.482   1.481  0.0046 -0.3587  0.6004
  847MOL0     N16799  11.206   5.635   1.410  0.1882 -1.1780  0.7369
  847MOL0     N16800  11.212   5.548   1.507 -0.4963 -0.1487 -0.2451
  847MOL0     C16801  10.874   4.629   1.906  0.3005 -0.1512 -0.2812
  847MOL0     C16802  10.898   4.520   1.828 -0.3332 -0.5647 -0.0721
  847MOL0     C16803  10.815   4.134   1.567  0.1454  0.6415  0.8552
  847MOL0     C16804  10.950   4.153   1.532  0.7279  0.4552 -1.3449
  847MOL0     C16805  11.025   4.056   1.468 -0.5784  0.7579  0.3830
  847MOL0     C16806  10.974   3.936   1.429  0.3108  0.9270 -0.6189
  847MOL0     O16807  11.055   3.839   1.383  0.6695  0.0594 -0.3465
  847MOL0     C16808  11.003   3.704   1.353  0.3396 -1.1689  0.6820
  847MOL0     C16809  11.000   3.621   1.479  0.1522  0.2711 -0.2659
  847MOL0     C16810  10.978   3.480   1.432 -0.5493  0.7541 -0.4679
  847MOL0     C16811  10.921   3.390   1.544 -0.3017 -0.6443  0.7838
  847MOL0     C16812  11.026   3.364   1.644 -0.7294 -0.5378 -0.4912
  847MOL0     C16813  11.098   3.342   1.740 -1.2040 -0.6323  0.3153
  847MOL0     C16814  10.828   3.917   1.446  0.4068  0.2156 -1.2222
  847MOL0     C16815  10.749   4.005   1.519 -0.2009 -0.7504 -0.1500
  847MOL0     C16816  10.608   3.973   1.535 -0.2409  0.0380 -0.4340
  847MOL0     H16817  10.566   4.438   1.766 -0.1162 -1.8188  2.4846
  847MOL0     H16818  10.531   4.627   1.911 -1.5327 -2.1755 -0.1562
  847MOL0     H16819  10.853   4.896   1.998 -0.3039 -2.4190  0.9409
  847MOL0     H16820  10.708   4.947   2.091  0.9250 -1.1278  1.6394
  847MOL0     H16821  10.718   4.919   1.794  1.6882 -1.7555  1.2169
  847MOL0     H16822  10.572   4.931   1.889  0.0695  1.2006  3.6697
  847MOL0     H16823  10.634   5.155   1.786  1.1049 -0.7718 -0.6394
  847MOL0     H16824  10.648   5.167   1.961  2.4207  1.8196 -0.6913
  847MOL0     H16825  10.892   5.152   1.958 -1.0856 -0.6450  0.1206
  847MOL0     H16826  10.882   5.120   1.783 -0.4068  1.7102 -1.0884
  847MOL0     H16827  10.785   5.379   1.901 -1.3817  0.0168  0.8764
  847MOL0     H16828  10.794   5.341   1.727 -2.2656 -2.6073  1.6103
  847MOL0     H16829  11.027   5.366   1.922 -0.0675 -0.4324 -0.0105
  847MOL0     H16830  11.039   5.309   1.755 -0.9312  1.1085 -0.8490
  847MOL0     H16831  10.958   5.586   1.845  0.9167  2.6767 -2.2019
  847MOL0     H16832  10.950   5.535   1.673  0.4518 -1.1855 -0.2187
  847MOL0     H16833  11.182   5.618   1.832 -0.9272 -3.8749  3.2845
  847MOL0     H16834  11.222   5.469   1.750 -0.4121  0.3738 -0.2188
  847MOL0     H16835  11.070   5.815   1.641 -0.0873  0.6491 -0.3579
  847MOL0     H16836  11.152   5.862   1.272 -3.1094 -1.5989 -1.4250
  847MOL0     H16837  11.146   5.962   1.426 -1.9889  1.1424 -1.3042
  847MOL0     H16838  10.908   5.901   1.463 -0.5590  0.2009 -0.9486
  847MOL0     H16839  10.940   6.005   1.325  1.5540 -0.1503 -0.1867
  847MOL0     H16840  10.779   5.846   1.252 -0.1827  1.0384  1.4592
  847MOL0     H16841  10.922   5.807   1.167 -0.5930 -1.3498  0.1689
  847MOL0     H16842  10.839   5.610   1.217 -0.1165  3.7469 -1.2508
  847MOL0     H16843  10.968   5.628   1.351 -2.0558 -1.3992  3.0910
  847MOL0     H16844  10.937   5.422   1.382  1.7220 -0.7670  4.2201
  847MOL0     H16845  10.825   5.091   1.344  2.3161  0.7353 -3.6049
  847MOL0     H16846  10.926   5.117   1.483  2.3397  2.8669  0.0652
  847MOL0     H16847  10.967   5.193   1.325 -0.5083  0.3625 -0.4287
  847MOL0     H16848  10.491   4.892   1.412  1.3983 -1.9812  0.3254
  847MOL0     H16849  10.374   4.677   1.423  0.2310 -1.6724  1.1506
  847MOL0     H16850  10.345   4.502   1.516 -1.1815 -0.2140 -0.2149
  847MOL0     H16851  10.248   4.437   1.642  2.6344  4.5639  3.2561
  847MOL0     H16852  10.205   4.339   1.417  1.3631  0.1539  0.8014
  847MOL0     H16853  10.065   4.389   1.498  1.0464 -1.1126  1.8810
  847MOL0     H16854  10.221   4.544   1.285  1.1313 -1.4798  2.9511
  847MOL0     H16855  10.053   4.595   1.333  0.0583 -0.1636  1.5636
  847MOL0     H16856   9.967   4.389   1.271 -1.4621  0.3239 -2.1549
  847MOL0     H16857  10.119   4.327   1.195 -0.6892 -0.1872 -1.8971
  847MOL0     H16858  10.137   4.547   1.078 -0.3607  0.1241 -0.0570
  847MOL0     H16859  10.023   4.425   1.011 -0.5293 -0.4614  1.0411
  847MOL0     H16860   9.920   4.651   0.995  0.6284 -4.3592 -1.8682
  847MOL0     H16861   9.937   4.662   1.179  0.8621  0.7063  0.1226
  847MOL0     H16862   9.791   4.424   1.138 -1.6591 -0.4729 -4.3282
  847MOL0     H16863   9.746   4.528   1.009  0.1983  1.7040  0.1435
  847MOL0     H16864   9.739   4.648   1.284 -1.5293  2.6272 -0.5861
  847MOL0     H16865   9.606   4.559   1.206  1.8678 -3.2392  1.9136
  847MOL0     H16866  10.209   4.804   1.801 -1.5560  3.5385  0.6928
  847MOL0     H16867  10.333   5.018   1.790 -0.7435  1.2552 -0.6885
  847MOL0     H16868  10.488   5.340   1.561 -0.0326  0.2912  0.1084
  847MOL0     H16869  10.556   5.571   1.490  2.0603  0.9925  2.3304
  847MOL0     H16870  10.950   4.694   1.946 -0.3703  2.6457 -3.1698
  847MOL0     H16871  11.002   4.494   1.806 -0.2897 -0.0329 -0.5175
  847MOL0     H16872  11.003   4.246   1.551 -0.9501  1.3813 -1.0069
  847MOL0     H16873  11.132   4.051   1.452 -0.9626  1.3666 -3.3465
  847MOL0     H16874  10.903   3.702   1.310  0.9383 -1.2311 -0.7669
  847MOL0     H16875  11.079   3.660   1.288  0.6411  1.9136 -1.2665
  847MOL0     H16876  10.922   3.673   1.536  0.2413  0.3391 -0.2073
  847MOL0     H16877  11.087   3.634   1.543  0.5433  1.6756 -1.0479
  847MOL0     H16878  10.899   3.482   1.356  0.4275 -0.1809 -1.5491
  847MOL0     H16879  11.068   3.451   1.378  0.0136 -1.1289  1.3326
  847MOL0     H16880  10.872   3.299   1.509 -1.5553 -0.2666  1.4949
  847MOL0     H16881  10.843   3.446   1.597  0.9577  1.6271  0.3769
  847MOL0     H16882  11.171   3.330   1.817 -1.9777 -0.6226  1.0695
  847MOL0     H16883  10.782   3.823   1.417 -0.2463  0.4267 -0.9086
  847MOL0     H16884  10.587   3.934   1.635 -2.4793  0.2857 -0.7509
  847MOL0     H16885  10.547   4.062   1.514 -0.6647  0.0018  0.5509
  847MOL0     H16886  10.571   3.894   1.469  1.4907 -3.2369  2.2441
  848MOL0     O16887   4.304   0.852   1.098 -0.5006  0.3704  0.1908
  848MOL0     C16888   4.187   0.829   1.079  0.1841 -0.1992  0.0322
  848MOL0     O16889   4.086   0.903   1.137  1.1169  0.5862  0.2408
  848MOL0     C16890   4.105   0.966   1.253  0.2656  0.9428 -0.2508
  848MOL0     C16891   4.201   0.948   1.355  0.1433 -0.7411  1.4530
  848MOL0     C16892   4.188   1.027   1.473  0.2377  0.4753  0.9322
  848MOL0     C16893   4.097   1.133   1.473 -0.1519  1.3678  0.4020
  848MOL0     O16894   4.102   1.205   1.587 -0.2912 -0.1355 -0.5080
  848MOL0     C16895   3.983   1.265   1.640  1.1661 -0.8224 -0.0004
  848MOL0     C16896   4.013   1.304   1.785 -0.1254  0.0827  0.5325
  848MOL0     C16897   4.106   1.424   1.784  0.5211 -0.5423  0.4483
  848MOL0     C16898   4.023   1.550   1.779  0.9821 -0.5561  0.1503
  848MOL0     C16899   4.105   1.677   1.757  0.4035 -0.0517  0.6901
  848MOL0     C16900   4.006   1.792   1.748  0.3916 -1.0443 -0.3438
  848MOL0     C16901   4.090   1.927   1.751  0.3300  0.5368  1.0030
  848MOL0     C16902   4.111   1.965   1.900 -0.0864  0.1642  0.4259
  848MOL0     N16903   4.193   2.080   1.915  0.1936 -0.0636 -0.2778
  848MOL0     C16904   4.144   2.213   1.912 -0.6249  0.3946  0.0613
  848MOL0     C16905   4.249   2.286   1.856 -0.0723  0.1986 -0.0981
  848MOL0     C16906   4.256   2.432   1.836 -0.1229  0.8305  0.5857
  848MOL0     C16907   4.125   2.490   1.763 -1.5418 -0.0296 -0.0680
  848MOL0     C16908   4.068   2.389   1.663 -0.1814  0.1486 -0.9835
  848MOL0     C16909   4.166   2.343   1.553 -0.2062  0.2771  0.1766
  848MOL0     O16910   4.113   2.250   1.455 -0.2487 -0.5056 -0.0356
  848MOL0     C16911   4.012   2.291   1.379 -0.2646 -1.5739 -0.3082
  848MOL0     C16912   3.875   2.264   1.423 -0.7777  0.0586 -0.8054
  848MOL0     C16913   3.763   2.298   1.344  0.3929 -0.1257  0.4542
  848MOL0     C16914   3.622   2.268   1.402 -0.6303  0.2087 -1.0320
  848MOL0     C16915   3.785   2.371   1.219  0.7981  0.9939 -0.8145
  848MOL0     C16916   3.671   2.437   1.152 -0.1162  0.3533  0.1971
  848MOL0     O16917   3.569   2.347   1.115 -0.6578 -0.1032  0.3045
  848MOL0     C16918   3.439   2.376   1.098 -0.3632  0.4652 -0.1832
  848MOL0     C16919   3.376   2.487   1.139 -0.0297 -0.2768  0.0950
  848MOL0     C16920   3.238   2.500   1.133  0.1004  0.4602 -0.5160
  848MOL0     C16921   3.148   2.400   1.102 -0.1154 -0.4272  0.5090
  848MOL0     O16922   3.014   2.414   1.110  0.0070  0.6137 -0.1865
  848MOL0     C16923   2.963   2.407   1.242  0.4919 -0.6737 -0.6386
  848MOL0     C16924   2.810   2.385   1.234  0.2524 -0.4718  0.2999
  848MOL0     C16925   2.725   2.410   1.366  0.8315 -0.7621 -0.3651
  848MOL0     C16926   2.683   2.561   1.371  0.2132  0.1480 -0.1079
  848MOL0     C16927   2.601   2.594   1.490  0.3863  0.4210  0.0778
  848MOL0     C16928   2.548   2.737   1.480 -0.4719  0.4885  0.4107
  848MOL0     C16929   2.649   2.850   1.518  0.5637  1.0273 -0.3478
  848MOL0     C16930   2.667   2.850   1.668 -0.4346  0.2679 -0.5589
  848MOL0    Cl16931   2.530   2.909   1.763  0.6435 -0.4926 -0.1422
  848MOL0     C16932   3.208   2.281   1.060  0.2099  0.1645  0.0674
  848MOL0     C16933   3.350   2.275   1.053 -1.0343  0.2714 -0.4885
  848MOL0     O16934   3.657   2.555   1.148  0.3145  0.0618 -0.9535
  848MOL0     C16935   3.922   2.402   1.181  0.6215 -0.2213  0.6869
  848MOL0     C16936   4.028   2.355   1.256  0.1479 -0.2091 -0.0558
  848MOL0     N16937   4.357   2.206   1.851 -0.2343 -0.7949  0.1425
  848MOL0     N16938   4.324   2.088   1.887  0.5448  0.0627 -0.1646
  848MOL0     C16939   4.007   1.153   1.364  0.1117  0.4398 -0.6876
  848MOL0     C16940   4.006   1.068   1.257  0.1408  0.2344 -0.6211
  848MOL0     C16941   4.146   0.736   0.964 -0.8299 -0.3889 -0.2818
  848MOL0     C16942   4.014   0.697   0.971 -0.4694  0.0228  0.0488
  848MOL0     C16943   3.966   0.602   0.882 -0.7201  0.7901 -0.1802
  848MOL0     C16944   4.050   0.549   0.785  0.1787  0.1310  0.9408
  848MOL0     O16945   3.999   0.450   0.690  0.1345  0.3179  0.1295
  848MOL0     C16946   4.070   0.328   0.694  0.2211 -0.4863  0.8055
  848MOL0     C16947   3.976   0.209   0.643  0.8917 -0.5782  0.1242
  848MOL0     C16948   4.027   0.066   0.656 -0.4682 -0.4524  0.2221
  848MOL0     C16949   3.954  -0.042   0.564 -0.0758  0.1489 -0.0076
  848MOL0     C16950   3.808  -0.040   0.588 -0.5466 -0.4384 -1.0974
  848MOL0     C16951   3.692  -0.048   0.616 -0.0377  0.4484 -0.4764
  848MOL0     C16952   4.176   0.598   0.771 -0.5365  0.1235  0.3470
  848MOL0     C16953   4.233   0.683   0.865  1.1755  0.2731  1.0785
  848MOL0     C16954   4.370   0.724   0.844  0.2708  0.5069 -1.3641
  848MOL0     H16955   4.267   0.862   1.350 -0.3188 -1.3751  4.4358
  848MOL0     H16956   4.265   1.012   1.548  3.7117  3.7691 -1.5955
  848MOL0     H16957   3.901   1.193   1.646  0.3187 -0.1990 -2.7342
  848MOL0     H16958   3.945   1.352   1.585  2.9926  0.6679  0.9728
  848MOL0     H16959   3.928   1.349   1.839  3.0362  4.2207  2.7007
  848MOL0     H16960   4.063   1.221   1.836  1.8334  1.5776  1.1572
  848MOL0     H16961   4.173   1.420   1.870  1.2704  3.3820  0.2327
  848MOL0     H16962   4.176   1.433   1.700  1.8632  1.3245  1.6720
  848MOL0     H16963   3.958   1.549   1.691 -1.1038  0.6144  1.5799
  848MOL0     H16964   3.962   1.571   1.868  1.0494  2.6553 -0.4183
  848MOL0     H16965   4.163   1.675   1.664 -0.3206  1.1384  0.1902
  848MOL0     H16966   4.171   1.679   1.845  2.0662 -3.6007 -0.3195
  848MOL0     H16967   3.965   1.805   1.648  3.0791  3.3336 -1.1341
  848MOL0     H16968   3.919   1.792   1.815  0.4288  1.3079 -0.2105
  848MOL0     H16969   4.040   2.008   1.697 -0.3828 -0.5800 -0.0641
  848MOL0     H16970   4.184   1.901   1.702  0.0305  0.5254  0.4175
  848MOL0     H16971   4.011   1.988   1.940  0.1233  2.2429 -0.1280
  848MOL0     H16972   4.153   1.882   1.957 -1.9099 -0.2970  1.1813
  848MOL0     H16973   4.046   2.241   1.948 -0.1415  0.7871  1.1032
  848MOL0     H16974   4.339   2.436   1.765 -1.0414  0.1426 -0.5665
  848MOL0     H16975   4.276   2.489   1.927  0.9563  2.2628 -0.5020
  848MOL0     H16976   4.047   2.518   1.834 -1.5264  0.8791 -0.4003
  848MOL0     H16977   4.154   2.581   1.711  0.4796 -0.3909  0.3483
  848MOL0     H16978   4.025   2.307   1.720 -1.7967  1.9212  0.4956
  848MOL0     H16979   3.987   2.449   1.622 -0.3816  1.1224  0.7630
  848MOL0     H16980   4.204   2.437   1.511  0.4676 -0.1030 -0.0830
  848MOL0     H16981   4.260   2.297   1.586 -1.3846 -3.9788 -1.7132
  848MOL0     H16982   3.859   2.231   1.526  0.9126  2.0307  0.1630
  848MOL0     H16983   3.624   2.255   1.510 -0.1477  0.4879 -1.0035
  848MOL0     H16984   3.597   2.177   1.347 -0.3320 -1.2362  1.0941
  848MOL0     H16985   3.557   2.355   1.386 -0.7898  0.3388  0.2225
  848MOL0     H16986   3.420   2.571   1.191 -1.9566 -1.0440  3.2442
  848MOL0     H16987   3.201   2.596   1.168 -1.0945 -1.7153  5.2495
  848MOL0     H16988   3.011   2.327   1.298  0.5389 -0.6735 -0.6776
  848MOL0     H16989   2.988   2.497   1.299 -0.2003 -0.3925 -0.7705
  848MOL0     H16990   2.762   2.447   1.158 -1.7752 -0.7936  1.2353
  848MOL0     H16991   2.801   2.277   1.216  0.2093 -0.5294  0.6530
  848MOL0     H16992   2.784   2.380   1.452  2.1670  1.4465 -0.4195
  848MOL0     H16993   2.634   2.349   1.370  1.5864 -1.8747  0.5560
  848MOL0     H16994   2.626   2.581   1.280  0.5556  1.5671 -0.0314
  848MOL0     H16995   2.766   2.632   1.372 -1.1964  1.8995  1.2742
  848MOL0     H16996   2.516   2.525   1.478  0.3618  0.5042 -0.2429
  848MOL0     H16997   2.652   2.575   1.584  2.1491  0.7324 -0.7837
  848MOL0     H16998   2.451   2.746   1.529 -0.6867  0.7350 -0.0554
  848MOL0     H16999   2.521   2.749   1.374  1.3299  3.2737  0.1666
  848MOL0     H17000   2.612   2.944   1.476 -3.7758 -0.2434  0.1927
  848MOL0     H17001   2.749   2.833   1.477  0.7391  1.7438 -0.2286
  848MOL0     H17002   2.741   2.926   1.694 -1.3092  0.1982  2.5701
  848MOL0     H17003   2.712   2.753   1.694  0.3321  0.1333 -2.2729
  848MOL0     H17004   3.142   2.207   1.014 -1.2396  0.8724  0.9116
  848MOL0     H17005   3.390   2.178   1.025  3.1255  1.6506 -0.0969
  848MOL0     H17006   3.928   2.443   1.081 -2.0525 -2.9466 -0.7783
  848MOL0     H17007   4.130   2.362   1.223  0.1395 -1.9307 -0.5522
  848MOL0     H17008   3.942   1.241   1.367  0.6398  0.8131 -0.0168
  848MOL0     H17009   3.942   1.078   1.170 -1.5540 -1.9265  0.2883
  848MOL0     H17010   3.941   0.734   1.041 -0.4373 -2.0238  1.2304
  848MOL0     H17011   3.863   0.571   0.894 -0.3880 -0.8984 -1.3719
  848MOL0     H17012   4.161   0.333   0.632 -1.3040  4.1390 -1.5170
  848MOL0     H17013   4.108   0.306   0.795  0.6848 -2.3096  0.2778
  848MOL0     H17014   3.935   0.229   0.544 -1.3281  2.0711  1.4493
  848MOL0     H17015   3.885   0.219   0.702  1.3235  0.1610  0.6773
  848MOL0     H17016   4.130   0.069   0.618 -0.5618 -0.4695 -0.0369
  848MOL0     H17017   4.030   0.040   0.762  0.1386  0.9610  0.5676
  848MOL0     H17018   3.983  -0.147   0.567 -3.0607 -0.9733 -3.3001
  848MOL0     H17019   3.982  -0.007   0.464  1.6597  1.6482  0.9396
  848MOL0     H17020   3.591  -0.069   0.645  0.4438  0.8367  1.6631
  848MOL0     H17021   4.235   0.536   0.704  0.2853 -1.2730  2.2505
  848MOL0     H17022   4.366   0.833   0.835  2.5591  0.6489 -1.2182
  848MOL0     H17023   4.438   0.709   0.929 -0.7341  0.7074 -0.4987
  848MOL0     H17024   4.418   0.684   0.755  2.3621 -0.3577  0.0819
  849MOL0     O17025   8.607   2.391   0.088 -0.2446  0.2368  0.4408
  849MOL0     C17026   8.612   2.477  -0.004 -0.0313  0.6925 -0.1186
  849MOL0     O17027   8.591   2.446  -0.138 -0.0564 -0.2962 -0.1325
  849MOL0     C17028   8.532   2.325  -0.173  1.1667 -0.7893  0.2793
  849MOL0     C17029   8.412   2.279  -0.112 -0.3838  0.4424 -1.0131
  849MOL0     C17030   8.353   2.153  -0.142  0.4631 -0.0495  0.4082
  849MOL0     C17031   8.402   2.085  -0.255  0.2692  0.4050  0.2974
  849MOL0     O17032   8.344   1.974  -0.318 -0.0329 -0.2608 -0.0612
  849MOL0     C17033   8.205   1.989  -0.324  0.3591 -0.1850 -0.2131
  849MOL0     C17034   8.142   1.875  -0.409  0.0699 -0.3087 -0.1626
  849MOL0     C17035   8.204   1.867  -0.557  0.3215 -0.2352 -0.6332
  849MOL0     C17036   8.157   1.978  -0.654  0.8617 -0.5099 -0.3058
  849MOL0     C17037   8.217   1.934  -0.790 -1.1610 -0.9174 -0.5195
  849MOL0     C17038   8.202   2.039  -0.901  0.1908 -0.4736 -0.2790
  849MOL0     C17039   8.308   2.012  -1.011  0.4089  0.2115  0.6163
  849MOL0     C17040   8.271   1.902  -1.116  0.0954 -0.2988  0.2654
  849MOL0     N17041   8.138   1.915  -1.175  0.4627  0.7117 -0.4067
  849MOL0     C17042   8.109   2.015  -1.266 -0.7384  1.0932 -0.2061
  849MOL0     C17043   7.973   1.996  -1.299 -0.8249  0.0253  0.4779
  849MOL0     C17044   7.901   2.089  -1.396 -0.4486  0.9717 -0.2629
  849MOL0     C17045   7.888   2.035  -1.538 -0.1821 -0.2578  0.5930
  849MOL0     C17046   7.829   2.139  -1.636  0.0910 -0.2011 -0.3317
  849MOL0     C17047   7.798   2.089  -1.777 -0.7039  0.1642  0.1194
  849MOL0     O17048   7.908   2.041  -1.849 -0.0466  0.6284  0.0018
  849MOL0     C17049   7.887   1.926  -1.929 -0.6702 -1.2796  0.4388
  849MOL0     C17050   7.871   1.955  -2.065 -1.7110  0.4615 -0.7204
  849MOL0     C17051   7.816   1.855  -2.150 -0.9103 -0.1202  0.0278
  849MOL0     C17052   7.813   1.886  -2.301 -0.0303 -0.5268 -0.1579
  849MOL0     C17053   7.783   1.727  -2.100 -0.4925  0.4710 -0.1461
  849MOL0     C17054   7.749   1.617  -2.193 -0.2289 -0.2581 -0.3279
  849MOL0     O17055   7.662   1.636  -2.298  0.7545 -0.2352  0.3441
  849MOL0     C17056   7.645   1.542  -2.399 -0.1952 -0.2580 -0.8650
  849MOL0     C17057   7.710   1.558  -2.516  0.1790  0.3112 -0.0479
  849MOL0     C17058   7.683   1.471  -2.623  0.2601  0.6626 -0.4790
  849MOL0     C17059   7.605   1.357  -2.615  0.2113 -0.4844 -0.0406
  849MOL0     O17060   7.574   1.287  -2.735 -0.4455 -0.1514 -0.3877
  849MOL0     C17061   7.471   1.184  -2.718  0.3317 -1.0892  0.2214
  849MOL0     C17062   7.431   1.131  -2.854 -0.5590 -0.2732  0.0834
  849MOL0     C17063   7.544   1.052  -2.914  1.0708  0.5682 -0.1401
  849MOL0     C17064   7.499   0.994  -3.041 -0.3327  0.2046 -0.2274
  849MOL0     C17065   7.604   0.961  -3.149  0.3773  0.5455 -0.3380
  849MOL0     C17066   7.676   0.824  -3.117 -0.7837 -0.3028 -0.0466
  849MOL0     C17067   7.777   0.794  -3.237  0.6065  0.1517  0.4308
  849MOL0     C17068   7.868   0.679  -3.224 -0.5837 -0.7183 -0.1869
  849MOL0    Cl17069   7.779   0.527  -3.230 -0.1744 -0.2026  0.3427
  849MOL0     C17070   7.536   1.353  -2.499  0.4105  0.4647 -0.5060
  849MOL0     C17071   7.554   1.434  -2.389 -0.3539  0.4694  0.4050
  849MOL0     O17072   7.806   1.510  -2.168  0.0573  0.4406  0.3191
  849MOL0     C17073   7.813   1.707  -1.961  0.1865 -0.5454  0.0026
  849MOL0     C17074   7.869   1.805  -1.884  0.1006  0.3074  0.0351
  849MOL0     N17075   7.929   1.890  -1.235  0.7034 -0.3027 -0.1514
  849MOL0     N17076   8.020   1.845  -1.167 -0.2595  0.2754  0.7977
  849MOL0     C17077   8.507   2.144  -0.332 -0.0222  0.7255 -0.5521
  849MOL0     C17078   8.568   2.259  -0.290  0.2414 -1.4870 -0.1167
  849MOL0     C17079   8.661   2.609   0.028 -0.0520 -0.8780 -0.8343
  849MOL0     C17080   8.656   2.712  -0.076 -0.2722  0.5093  0.2554
  849MOL0     C17081   8.702   2.837  -0.047 -0.8301 -0.6153 -0.4203
  849MOL0     C17082   8.733   2.884   0.086 -0.6676  0.6398  0.7608
  849MOL0     O17083   8.789   3.012   0.101 -0.3416 -0.3581  0.4432
  849MOL0     C17084   8.931   3.020   0.068  0.4762 -0.1940  0.3542
  849MOL0     C17085   8.952   3.155  -0.011  0.1376 -0.4333  1.1747
  849MOL0     C17086   9.048   3.154  -0.130 -0.2203 -0.0088 -0.6069
  849MOL0     C17087   9.193   3.133  -0.077 -1.0427  1.1598 -0.3445
  849MOL0     C17088   9.284   3.111  -0.192 -0.0565  1.0441  0.0720
  849MOL0     C17089   9.353   3.087  -0.297  0.8828  0.4786 -0.6567
  849MOL0     C17090   8.732   2.796   0.184 -0.6173  0.4080  0.4281
  849MOL0     C17091   8.700   2.657   0.163  0.2653 -0.2226  0.3495
  849MOL0     C17092   8.696   2.564   0.288 -0.0764 -0.6003 -0.2554
  849MOL0     H17093   8.378   2.343  -0.031 -1.0896  0.8110 -1.5891
  849MOL0     H17094   8.272   2.110  -0.084  2.1241 -3.6150  0.3255
  849MOL0     H17095   8.169   2.086  -0.360  0.7270  0.5495  1.2924
  849MOL0     H17096   8.167   1.992  -0.221  3.4769  2.1199  1.0263
  849MOL0     H17097   8.165   1.782  -0.357 -2.1266  0.1284  1.7859
  849MOL0     H17098   8.034   1.890  -0.405  0.1810  0.2456  1.4574
  849MOL0     H17099   8.312   1.855  -0.569  0.0727 -2.6347 -0.9288
  849MOL0     H17100   8.165   1.768  -0.580 -0.2948 -0.0023 -0.6231
  849MOL0     H17101   8.052   1.979  -0.684  0.9284 -0.5640 -0.5355
  849MOL0     H17102   8.187   2.078  -0.619 -1.9158  0.1485  0.5143
  849MOL0     H17103   8.170   1.841  -0.825  0.0983 -0.5882 -3.3309
  849MOL0     H17104   8.322   1.912  -0.769 -0.9825  2.3837  2.8549
  849MOL0     H17105   8.103   2.036  -0.945 -1.0121 -0.8838  2.2480
  849MOL0     H17106   8.221   2.134  -0.850  1.6259 -1.4110  1.0504
  849MOL0     H17107   8.407   1.980  -0.978  1.4785  1.9600 -0.7118
  849MOL0     H17108   8.311   2.110  -1.061  1.7047  0.9921  2.1438
  849MOL0     H17109   8.339   1.895  -1.202  0.2658  0.3013  0.3507
  849MOL0     H17110   8.286   1.815  -1.051  2.7399  1.4207  2.1508
  849MOL0     H17111   8.187   2.083  -1.298  1.1440 -0.0067  1.7516
  849MOL0     H17112   7.953   2.186  -1.393  0.5331  0.4606 -0.3806
  849MOL0     H17113   7.798   2.099  -1.359 -0.4746 -1.9181  0.6796
  849MOL0     H17114   7.986   2.004  -1.575 -0.9666 -1.0073 -0.9733
  849MOL0     H17115   7.826   1.946  -1.528  0.0802 -0.5143 -0.0123
  849MOL0     H17116   7.734   2.169  -1.590  0.2197 -1.2615  0.6910
  849MOL0     H17117   7.901   2.221  -1.642  0.5536 -0.6849 -1.8954
  849MOL0     H17118   7.720   2.013  -1.774  0.9360 -1.5949 -0.0571
  849MOL0     H17119   7.762   2.176  -1.834 -2.7378 -1.4200 -1.1454
  849MOL0     H17120   7.900   2.049  -2.110 -1.2409  1.8198  2.1928
  849MOL0     H17121   7.856   1.819  -2.376 -0.4915 -1.0957  0.0789
  849MOL0     H17122   7.853   1.986  -2.315  1.0444 -0.5165  2.4215
  849MOL0     H17123   7.708   1.898  -2.331 -0.6293 -4.8874 -0.4590
  849MOL0     H17124   7.764   1.647  -2.546  1.6999 -0.9429 -1.1719
  849MOL0     H17125   7.731   1.504  -2.714  1.2546 -3.8156 -1.8255
  849MOL0     H17126   7.507   1.107  -2.650  0.3431  0.7994  2.4859
  849MOL0     H17127   7.381   1.227  -2.674 -1.4189 -1.6180 -2.5824
  849MOL0     H17128   7.344   1.066  -2.846 -1.2391  0.7872  2.0639
  849MOL0     H17129   7.401   1.213  -2.920  1.5065  2.3248  2.1053
  849MOL0     H17130   7.578   0.973  -2.846  3.4578 -3.2494 -5.1268
  849MOL0     H17131   7.629   1.116  -2.941 -1.3337  3.2019 -2.1464
  849MOL0     H17132   7.435   1.069  -3.088 -0.2878 -0.4993 -1.4590
  849MOL0     H17133   7.434   0.907  -3.028 -0.5571  0.3539 -0.3444
  849MOL0     H17134   7.543   0.933  -3.235 -1.1600 -0.7348  1.0963
  849MOL0     H17135   7.674   1.038  -3.182 -0.7455  1.2241 -1.2102
  849MOL0     H17136   7.597   0.748  -3.107 -1.9788 -0.0102 -5.0138
  849MOL0     H17137   7.729   0.830  -3.021 -2.6519 -1.3448  1.1016
  849MOL0     H17138   7.842   0.880  -3.253 -0.5019  0.5695 -2.4859
  849MOL0     H17139   7.717   0.792  -3.329 -0.9136  1.8551  1.3302
  849MOL0     H17140   7.931   0.696  -3.136  0.3798  0.1776 -1.0166
  849MOL0     H17141   7.941   0.687  -3.305 -1.6639 -1.9668 -1.3266
  849MOL0     H17142   7.473   1.266  -2.482 -0.5429  1.3235  0.5017
  849MOL0     H17143   7.493   1.409  -2.303 -2.3080 -2.6424 -1.6618
  849MOL0     H17144   7.803   1.605  -1.926 -0.7555 -0.2305  0.6864
  849MOL0     H17145   7.876   1.793  -1.776 -0.3316 -0.4044 -0.0070
  849MOL0     H17146   8.532   2.091  -0.423 -0.8290  2.1691 -1.6547
  849MOL0     H17147   8.664   2.295  -0.325  0.5779 -0.3052  1.8637
  849MOL0     H17148   8.611   2.693  -0.172 -0.8860  2.0044  0.2145
  849MOL0     H17149   8.695   2.914  -0.123  1.5410  1.7393  1.5314
  849MOL0     H17150   8.989   3.012   0.161 -0.6400  0.4462  1.1314
  849MOL0     H17151   8.967   2.947  -0.004  3.0000  2.7945 -1.6846
  849MOL0     H17152   8.968   3.222   0.075 -0.9249 -2.5232  3.1119
  849MOL0     H17153   8.855   3.194  -0.045  0.8085 -0.4604 -0.8690
  849MOL0     H17154   9.010   3.087  -0.207  3.6565 -0.4590 -2.3813
  849MOL0     H17155   9.050   3.253  -0.175 -1.1535  0.2998  0.0054
  849MOL0     H17156   9.214   3.061   0.002  1.2680  3.2920  1.1507
  849MOL0     H17157   9.236   3.221  -0.028 -0.5135  1.0021 -0.5293
  849MOL0     H17158   9.414   3.042  -0.373  0.1163 -4.4503  1.2215
  849MOL0     H17159   8.753   2.823   0.287  0.5562  0.2964  0.2288
  849MOL0     H17160   8.782   2.590   0.351  0.9988  0.5828 -2.1081
  849MOL0     H17161   8.610   2.600   0.345  0.3257 -1.7020  1.1138
  849MOL0     H17162   8.710   2.459   0.263  0.0949 -0.5572 -0.3434
  850MOL0     O17163  10.397   2.446   9.993 -0.1379 -0.4626 -0.5203
  850MOL0     C17164  10.280   2.478  10.006  0.0813  0.1735 -1.4728
  850MOL0     O17165  10.199   2.524   9.905  0.3175 -0.0069 -0.1650
  850MOL0     C17166  10.243   2.533   9.777  0.2825  0.0134  0.6456
  850MOL0     C17167  10.208   2.654   9.711 -0.4110  0.2393 -0.4777
  850MOL0     C17168  10.222   2.668   9.573 -0.2401  0.0483 -0.4792
  850MOL0     C17169  10.307   2.579   9.503 -0.7315  0.3299  0.3434
  850MOL0     O17170  10.349   2.593   9.370 -0.3558 -0.4784 -0.3995
  850MOL0     C17171  10.380   2.730   9.330 -0.2457 -0.7494 -0.4602
  850MOL0     C17172  10.435   2.721   9.183 -0.0600  0.2374  0.2213
  850MOL0     C17173  10.564   2.647   9.170 -1.0212  0.1311  0.1923
  850MOL0     C17174  10.668   2.727   9.090 -0.8576  0.3461  0.2887
  850MOL0     C17175  10.803   2.648   9.086 -0.0285 -0.2201  0.6268
  850MOL0     C17176  10.879   2.689   8.955  0.0168  0.0370  0.9173
  850MOL0     C17177  11.017   2.630   8.952 -0.3356  0.1711  0.6042
  850MOL0     C17178  11.016   2.481   8.920 -0.0086 -0.0919 -0.7001
  850MOL0     N17179  10.943   2.459   8.798  0.1766  0.2906  0.0564
  850MOL0     C17180  11.007   2.460   8.679  0.9081 -1.1605 -0.8406
  850MOL0     C17181  10.922   2.390   8.601  0.0801  0.4171  1.1744
  850MOL0     C17182  10.952   2.375   8.455  0.2513  0.2849 -0.0047
  850MOL0     C17183  10.891   2.490   8.370  0.2011 -0.7886 -0.0616
  850MOL0     C17184  10.740   2.507   8.394  1.1752 -0.9948 -0.9972
  850MOL0     C17185  10.663   2.378   8.361  0.4148  0.1231 -0.3232
  850MOL0     O17186  10.523   2.397   8.319  0.6673  0.1397 -0.5290
  850MOL0     C17187  10.429   2.399   8.420 -0.7653  0.4922  0.1558
  850MOL0     C17188  10.440   2.364   8.559  0.9750 -0.4149  0.7051
  850MOL0     C17189  10.323   2.353   8.635 -0.7408 -0.4091  0.7596
  850MOL0     C17190  10.337   2.306   8.771  0.3933  0.5434  0.6137
  850MOL0     C17191  10.193   2.365   8.573  0.1614  0.1268  0.0859
  850MOL0     C17192  10.069   2.358   8.650 -0.1543  0.2507  0.8754
  850MOL0     O17193   9.963   2.312   8.575  0.4158 -0.0644 -0.0976
  850MOL0     C17194   9.838   2.285   8.637  0.0181  0.4630 -0.3732
  850MOL0     C17195   9.799   2.290   8.779 -0.2650  0.4588 -0.2283
  850MOL0     C17196   9.664   2.255   8.814 -0.9348  0.5607 -0.0507
  850MOL0     C17197   9.576   2.224   8.720  0.5032  0.1032  0.1793
  850MOL0     O17198   9.450   2.188   8.753 -0.2162 -0.4243 -0.0705
  850MOL0     C17199   9.373   2.222   8.874  0.6487  0.3565 -0.1586
  850MOL0     C17200   9.234   2.164   8.854 -0.3556  0.6337  0.4319
  850MOL0     C17201   9.120   2.243   8.910 -0.7940 -1.0130  0.3740
  850MOL0     C17202   9.144   2.298   9.053 -0.0113  0.2013 -0.5052
  850MOL0     C17203   9.042   2.404   9.105 -0.0104  0.2965 -0.4956
  850MOL0     C17204   8.890   2.376   9.074 -0.1672  0.9806  0.0054
  850MOL0     C17205   8.802   2.496   9.112 -0.5312 -0.5977  0.3873
  850MOL0     C17206   8.649   2.462   9.098  0.5789 -0.3999  0.2316
  850MOL0    Cl17207   8.593   2.485   8.919  0.1155  0.3362  0.3525
  850MOL0     C17208   9.602   2.218   8.588  0.2553 -0.5220  0.1301
  850MOL0     C17209   9.729   2.243   8.544 -0.2532 -0.4732 -0.1856
  850MOL0     O17210  10.067   2.394   8.762 -0.4859  0.7959 -0.5201
  850MOL0     C17211  10.187   2.398   8.435  0.6749  0.3329  1.0436
  850MOL0     C17212  10.305   2.421   8.365  1.0918 -0.0095 -0.3382
  850MOL0     N17213  10.806   2.350   8.666 -0.2712 -0.3137 -0.4709
  850MOL0     N17214  10.822   2.394   8.789 -0.2803  0.7623  0.1458
  850MOL0     C17215  10.356   2.470   9.568 -0.2562  0.0583 -0.7308
  850MOL0     C17216  10.321   2.439   9.706 -0.1184 -0.1470 -0.0298
  850MOL0     C17217  10.220   2.469  10.145  0.6093  0.4029 -0.8889
  850MOL0     C17218  10.084   2.440  10.139 -0.8949 -0.3300 -0.0322
  850MOL0     C17219  10.011   2.431  10.259 -0.8096 -0.3666 -0.3301
  850MOL0     C17220  10.066   2.463  10.384 -0.0795  0.2273  0.6294
  850MOL0     O17221   9.980   2.476  10.484  0.4353 -0.5122 -0.1688
  850MOL0     C17222  10.025   2.531  10.611 -1.2452  0.0741 -0.2241
  850MOL0     C17223  10.093   2.422  10.705 -0.5589  0.6720  0.4551
  850MOL0     C17224  10.113   2.474  10.855  0.3188  0.6548  0.5002
  850MOL0     C17225  10.224   2.404  10.935 -0.6423  0.0208 -0.1574
  850MOL0     C17226  10.223   2.264  10.918  0.6283  0.0111 -1.0065
  850MOL0     C17227  10.207   2.148  10.897  0.4016 -0.2239  0.2492
  850MOL0     C17228  10.201   2.504  10.384  0.6114 -0.0552  0.7330
  850MOL0     C17229  10.283   2.502  10.267  0.5592  0.2482  0.0611
  850MOL0     C17230  10.426   2.529  10.278 -0.9954 -0.0191 -0.1206
  850MOL0     H17231  10.136   2.727   9.745 -2.1750 -1.9985  0.9500
  850MOL0     H17232  10.184   2.761   9.533 -2.8310 -1.3122 -1.3907
  850MOL0     H17233  10.456   2.774   9.395 -1.1924 -0.5102  0.4967
  850MOL0     H17234  10.292   2.793   9.321  0.2818 -0.0488 -0.8487
  850MOL0     H17235  10.361   2.666   9.125 -0.0456  2.4891 -2.1138
  850MOL0     H17236  10.452   2.817   9.133  2.0944  1.1305  2.4658
  850MOL0     H17237  10.614   2.621   9.264  1.9226  1.8949 -0.7463
  850MOL0     H17238  10.530   2.560   9.113  0.9258 -3.6280  4.1565
  850MOL0     H17239  10.637   2.756   8.989  4.0670  3.8096 -0.5910
  850MOL0     H17240  10.683   2.817   9.151  0.0828 -1.3763  2.7214
  850MOL0     H17241  10.779   2.542   9.073  2.0867 -0.6092 -0.7373
  850MOL0     H17242  10.870   2.662   9.171 -2.1033  1.1848  2.1128
  850MOL0     H17243  10.821   2.663   8.865  0.7365 -2.8497  1.1875
  850MOL0     H17244  10.887   2.798   8.950  1.7619 -0.1007 -1.6873
  850MOL0     H17245  11.077   2.668   9.035 -1.2255  2.2443  0.3593
  850MOL0     H17246  11.064   2.676   8.865 -1.6806  2.0961  0.8368
  850MOL0     H17247  11.116   2.437   8.911  0.4497  0.7292  0.1763
  850MOL0     H17248  10.969   2.421   8.999  0.0126  0.3032 -0.3829
  850MOL0     H17249  11.095   2.516   8.651  0.6846 -0.5560 -0.3572
  850MOL0     H17250  10.915   2.278   8.420 -1.9010  0.6372  1.1223
  850MOL0     H17251  11.060   2.360   8.441  0.5962  1.7664  0.7888
  850MOL0     H17252  10.944   2.584   8.390 -2.7553  1.7859 -3.0942
  850MOL0     H17253  10.913   2.464   8.266 -1.6862  1.6638 -1.1665
  850MOL0     H17254  10.714   2.522   8.499 -1.7066 -3.5621 -1.2201
  850MOL0     H17255  10.705   2.592   8.335 -3.8734 -0.7758  1.8530
  850MOL0     H17256  10.717   2.331   8.279 -0.6784  1.8895 -2.1707
  850MOL0     H17257  10.653   2.316   8.450  0.0268 -2.5064 -2.0847
  850MOL0     H17258  10.538   2.344   8.603  1.5102 -1.7384 -0.9696
  850MOL0     H17259  10.427   2.246   8.788 -1.7444 -2.7481  1.3650
  850MOL0     H17260  10.260   2.230   8.782  1.7721 -0.7611  1.6962
  850MOL0     H17261  10.339   2.383   8.848  5.6055  0.7043  0.6658
  850MOL0     H17262   9.853   2.334   8.862 -0.4861 -0.0631  0.1963
  850MOL0     H17263   9.634   2.248   8.918 -0.1730 -2.2535  0.0800
  850MOL0     H17264   9.410   2.192   8.972 -0.1367  1.2582  0.4347
  850MOL0     H17265   9.364   2.331   8.879 -1.2462  0.1749  1.3994
  850MOL0     H17266   9.218   2.156   8.746 -0.1003  2.8418  0.1701
  850MOL0     H17267   9.235   2.065   8.899 -0.1366  0.0831 -0.7550
  850MOL0     H17268   9.026   2.190   8.893  1.0788 -4.9307  1.2253
  850MOL0     H17269   9.120   2.335   8.850  0.9784 -1.7015 -0.7438
  850MOL0     H17270   9.244   2.342   9.061 -0.8530  1.9393  4.4221
  850MOL0     H17271   9.152   2.216   9.125 -1.6890  0.3576 -0.1001
  850MOL0     H17272   9.052   2.410   9.214 -0.4441  0.0512 -0.4385
  850MOL0     H17273   9.079   2.500   9.067  1.8504 -0.6174 -1.0751
  850MOL0     H17274   8.853   2.292   9.133  1.8843 -1.4588 -1.9381
  850MOL0     H17275   8.878   2.340   8.971  0.5132 -2.6040  1.0335
  850MOL0     H17276   8.824   2.591   9.061  0.1641 -1.1836 -0.4369
  850MOL0     H17277   8.828   2.509   9.218 -1.7309  2.9656  0.3773
  850MOL0     H17278   8.588   2.527   9.161 -0.1919 -0.3568 -0.5377
  850MOL0     H17279   8.622   2.359   9.123 -1.5453 -1.3572 -4.8839
  850MOL0     H17280   9.525   2.199   8.515  1.0621 -1.0819 -0.5906
  850MOL0     H17281   9.746   2.236   8.438 -0.7265  1.4552 -0.4369
  850MOL0     H17282  10.092   2.408   8.382  0.9697 -1.4792  0.0846
  850MOL0     H17283  10.292   2.451   8.261 -3.0733 -0.0965 -0.0407
  850MOL0     H17284  10.414   2.395   9.515  0.4106 -0.6269  0.9385
  850MOL0     H17285  10.376   2.353   9.743 -2.1836 -0.6205  2.1990
  850MOL0     H17286  10.020   2.422  10.054 -1.6471  3.6858 -0.5515
  850MOL0     H17287   9.912   2.389  10.249 -1.0951  0.4929 -1.3548
  850MOL0     H17288  10.078   2.624  10.589 -5.5258  2.7866 -0.3413
  850MOL0     H17289   9.940   2.558  10.674 -0.3591 -1.3014  1.6319
  850MOL0     H17290  10.191   2.396  10.665 -0.8173  0.1100  0.1692
  850MOL0     H17291  10.019   2.342  10.710 -0.6951  0.3657 -3.4520
  850MOL0     H17292  10.129   2.582  10.851  0.1957  0.6241 -1.7630
  850MOL0     H17293  10.019   2.459  10.909  1.1428  1.3200  2.2125
  850MOL0     H17294  10.215   2.426  11.042  1.4561  0.3657 -0.0202
  850MOL0     H17295  10.322   2.442  10.907 -0.2849 -1.5006 -1.0195
  850MOL0     H17296  10.182   2.045  10.878 -0.9314 -0.2563  1.9715
  850MOL0     H17297  10.254   2.550  10.466  1.6439  0.5369 -0.2452
  850MOL0     H17298  10.471   2.615  10.227 -0.3453 -1.1928 -1.5962
  850MOL0     H17299  10.460   2.534  10.382  1.9549  1.7950 -1.0582
  850MOL0     H17300  10.475   2.440  10.238  1.1581 -0.6980  3.5778
  851MOL0     O17301   4.286   8.795   9.746  0.2065 -0.3960  0.2591
  851MOL0     C17302   4.387   8.832   9.689 -0.3739  0.2941  0.1121
  851MOL0     O17303   4.440   8.784   9.575 -1.0140  0.1994  0.3211
  851MOL0     C17304   4.362   8.686   9.505 -0.5493 -0.8425  0.3624
  851MOL0     C17305   4.225   8.667   9.499 -0.2934 -0.5642 -0.7486
  851MOL0     C17306   4.168   8.578   9.405  0.0525  0.1319  0.3418
  851MOL0     C17307   4.252   8.510   9.320  0.0552 -0.5189  0.0389
  851MOL0     O17308   4.182   8.414   9.252  0.3798 -0.6291 -0.7808
  851MOL0     C17309   4.247   8.290   9.206 -0.0018  0.7619 -0.3559
  851MOL0     C17310   4.300   8.195   9.308  0.1398 -0.3044  0.2683
  851MOL0     C17311   4.395   8.082   9.262  0.7705 -0.6078  0.2345
  851MOL0     C17312   4.402   7.971   9.355 -0.7813  0.7418  0.3330
  851MOL0     C17313   4.496   7.858   9.319 -0.4365 -1.0896 -0.5796
  851MOL0     C17314   4.541   7.782   9.440  1.0477  0.1441 -0.1221
  851MOL0     C17315   4.597   7.866   9.550 -0.6331  0.1091 -0.0770
  851MOL0     C17316   4.685   7.971   9.514 -0.1647 -0.3391  0.3321
  851MOL0     N17317   4.754   8.033   9.625  0.0147  0.8080  0.1134
  851MOL0     C17318   4.687   8.096   9.723 -0.5628 -0.1700 -0.1412
  851MOL0     C17319   4.781   8.124   9.824  0.0100 -0.1385 -0.1877
  851MOL0     C17320   4.742   8.209   9.937  0.1519  0.2948 -0.7437
  851MOL0     C17321   4.848   8.202  10.051 -0.6570  0.6615 -0.3983
  851MOL0     C17322   4.838   8.079  10.150 -0.2527 -0.4190  0.1387
  851MOL0     C17323   4.712   8.082  10.250 -0.0000 -0.1030 -0.6214
  851MOL0     O17324   4.687   8.206  10.316 -0.5842 -0.4015 -0.5968
  851MOL0     C17325   4.792   8.263  10.406  0.7954 -0.3161  0.4990
  851MOL0     C17326   4.891   8.193  10.461 -0.0783  0.7210  0.0945
  851MOL0     C17327   4.968   8.249  10.562  0.3299  0.7514  0.7035
  851MOL0     C17328   5.069   8.154  10.625  1.3729  0.1061 -0.1410
  851MOL0     C17329   4.948   8.377  10.609 -0.4671 -0.1658 -1.1745
  851MOL0     C17330   5.017   8.436  10.726  0.1994  0.0155  0.2515
  851MOL0     O17331   4.969   8.562  10.773 -1.2382  0.1760 -0.4040
  851MOL0     C17332   5.027   8.606  10.894 -0.4688 -0.5851 -0.3945
  851MOL0     C17333   5.106   8.715  10.894  0.0503  0.0580 -0.4037
  851MOL0     C17334   5.157   8.764  11.010  0.2085 -0.1250 -0.2574
  851MOL0     C17335   5.113   8.724  11.134 -0.0395  0.0048 -0.3719
  851MOL0     O17336   5.163   8.790  11.240 -0.7977 -0.4053  0.0089
  851MOL0     C17337   5.269   8.712  11.309 -0.1318 -0.3802 -0.4920
  851MOL0     C17338   5.398   8.788  11.319  0.7090 -0.3383 -0.7589
  851MOL0     C17339   5.381   8.932  11.382 -0.4989  0.1894  0.2097
  851MOL0     C17340   5.520   8.989  11.437  0.5764 -0.4915  0.6428
  851MOL0     C17341   5.586   8.920  11.565  0.5043  0.0500  0.3191
  851MOL0     C17342   5.649   9.034  11.657 -0.2141 -0.0311  0.2727
  851MOL0     C17343   5.693   8.972  11.792  0.5598  0.1158 -0.1105
  851MOL0     C17344   5.795   9.054  11.875  0.5287  0.4343 -0.2422
  851MOL0    Cl17345   5.725   9.184  11.972 -0.4850 -0.4405  0.1058
  851MOL0     C17346   5.031   8.612  11.141  0.6276 -0.2610  0.1286
  851MOL0     C17347   4.984   8.558  11.025  0.1295  0.1889 -0.3063
  851MOL0     O17348   5.117   8.382  10.770 -0.3373 -0.5133  0.3835
  851MOL0     C17349   4.835   8.449  10.559 -0.1520 -0.1774  0.5231
  851MOL0     C17350   4.761   8.395  10.458 -0.4789 -0.4162 -0.0216
  851MOL0     N17351   4.901   8.069   9.787 -0.0889  0.5535  0.1656
  851MOL0     N17352   4.883   8.029   9.662 -0.1072 -0.2935  0.3823
  851MOL0     C17353   4.397   8.521   9.329  0.3254 -0.0201  0.0146
  851MOL0     C17354   4.447   8.619   9.412  0.6536 -0.3893 -0.4926
  851MOL0     C17355   4.471   8.928   9.768 -0.6378 -1.1433  0.1952
  851MOL0     C17356   4.538   9.031   9.693 -0.5393  0.9449 -0.3436
  851MOL0     C17357   4.601   9.134   9.757 -0.2563 -0.1654 -0.3608
  851MOL0     C17358   4.629   9.136   9.894  0.5194 -0.0416  0.6861
  851MOL0     O17359   4.705   9.235   9.947 -0.6062 -0.4138 -0.5479
  851MOL0     C17360   4.846   9.211   9.940  0.2901 -0.3524 -0.2069
  851MOL0     C17361   4.919   9.344   9.971 -0.3887 -0.4525  0.4671
  851MOL0     C17362   4.880   9.460   9.880  1.0512 -0.3923 -0.5950
  851MOL0     C17363   5.002   9.550   9.864 -0.7074  0.5690  0.6275
  851MOL0     C17364   5.091   9.498   9.759 -0.2639  0.3585  0.3970
  851MOL0     C17365   5.158   9.459   9.660  0.4610  0.6310 -0.4762
  851MOL0     C17366   4.569   9.036   9.973 -0.4859  0.0775  0.5467
  851MOL0     C17367   4.486   8.933   9.910 -0.5065 -0.2658 -0.8177
  851MOL0     C17368   4.433   8.833  10.012 -0.2683 -0.4298 -0.2754
  851MOL0     H17369   4.160   8.711   9.574  3.1620  2.0526  0.9978
  851MOL0     H17370   4.061   8.583   9.390  0.3753  3.3675 -2.1281
  851MOL0     H17371   4.328   8.311   9.135 -0.1814  1.7968 -0.2714
  851MOL0     H17372   4.173   8.231   9.152  1.4663 -0.9384 -0.6161
  851MOL0     H17373   4.361   8.251   9.379  0.4218  1.3847 -1.2228
  851MOL0     H17374   4.214   8.151   9.360  2.6880 -4.3686  1.4360
  851MOL0     H17375   4.356   8.042   9.168  1.4270  0.6400 -0.6061
  851MOL0     H17376   4.496   8.122   9.252  1.2157 -1.3736  1.4571
  851MOL0     H17377   4.427   8.020   9.450  0.0343 -2.0123  1.6731
  851MOL0     H17378   4.305   7.926   9.379  0.3861 -0.4159  3.4550
  851MOL0     H17379   4.590   7.892   9.275  0.6799  1.1212  3.1443
  851MOL0     H17380   4.433   7.803   9.248  0.6873 -0.2782 -2.2550
  851MOL0     H17381   4.452   7.733   9.481  2.6059 -1.2327  1.8019
  851MOL0     H17382   4.589   7.688   9.416 -1.5546 -0.7622 -2.2296
  851MOL0     H17383   4.650   7.796   9.615 -1.0987  0.9812  1.2832
  851MOL0     H17384   4.518   7.905   9.615 -1.0081 -1.6202  0.5707
  851MOL0     H17385   4.753   7.934   9.437  1.9378  1.7694  1.0464
  851MOL0     H17386   4.642   8.059   9.465  2.3456  1.3751  1.0160
  851MOL0     H17387   4.585   8.133   9.726 -1.0785 -1.2999  4.9055
  851MOL0     H17388   4.648   8.184   9.987 -0.4901  1.6471 -1.2176
  851MOL0     H17389   4.729   8.312   9.902 -3.1571 -0.1254 -1.0679
  851MOL0     H17390   4.948   8.180  10.014 -0.2732 -2.4988  2.0251
  851MOL0     H17391   4.844   8.288  10.119 -0.8109  0.4513 -0.1397
  851MOL0     H17392   4.827   7.989  10.089  0.6497 -2.2555  2.5342
  851MOL0     H17393   4.932   8.059  10.203  0.4867  1.7338 -0.2341
  851MOL0     H17394   4.620   8.060  10.195 -0.2040 -0.6895 -0.0447
  851MOL0     H17395   4.725   7.998  10.318 -2.0191  1.5025  1.9804
  851MOL0     H17396   4.903   8.087  10.442  2.3592  0.5683  1.9899
  851MOL0     H17397   5.050   8.051  10.595  1.5186 -0.8922  2.8782
  851MOL0     H17398   5.055   8.136  10.732 -3.0615 -1.6401 -0.7914
  851MOL0     H17399   5.176   8.172  10.613  1.5526 -1.1052 -0.5181
  851MOL0     H17400   5.133   8.756  10.798  2.1382  0.5833  0.3668
  851MOL0     H17401   5.229   8.844  11.003 -0.1754  0.4110  1.3578
  851MOL0     H17402   5.232   8.690  11.410 -0.3387  0.0082 -0.4842
  851MOL0     H17403   5.299   8.626  11.248 -1.4888 -0.9228 -0.4247
  851MOL0     H17404   5.463   8.722  11.376  0.1444 -0.3248 -0.0919
  851MOL0     H17405   5.436   8.790  11.216 -1.4131 -0.0689 -1.5957
  851MOL0     H17406   5.298   8.941  11.451 -3.1408  0.8955 -2.8115
  851MOL0     H17407   5.367   8.994  11.293  2.0483  0.8007  0.1361
  851MOL0     H17408   5.493   9.093  11.459 -3.1251 -1.1102 -0.2210
  851MOL0     H17409   5.589   9.000  11.353 -0.2158 -1.8672 -0.2273
  851MOL0     H17410   5.518   8.854  11.619  2.6361 -2.0740  0.5716
  851MOL0     H17411   5.666   8.855  11.528 -1.5259 -0.8443 -2.8709
  851MOL0     H17412   5.570   9.107  11.676  1.1963  0.8097  3.4908
  851MOL0     H17413   5.717   9.093  11.595 -0.9390  1.9283  1.2551
  851MOL0     H17414   5.737   8.876  11.765  1.4307  0.9071 -1.6624
  851MOL0     H17415   5.600   8.953  11.846  1.0954 -5.6977 -0.5808
  851MOL0     H17416   5.874   9.090  11.808 -0.3851  0.8774 -1.1038
  851MOL0     H17417   5.852   8.989  11.942 -0.1512  0.0260 -0.0558
  851MOL0     H17418   5.000   8.574  11.238  0.3027  0.0737  0.1569
  851MOL0     H17419   4.916   8.473  11.025  0.8538 -0.4142  1.2263
  851MOL0     H17420   4.814   8.551  10.591  0.8211  0.7784 -1.6891
  851MOL0     H17421   4.668   8.440  10.426 -0.6759 -1.4211 -0.9038
  851MOL0     H17422   4.459   8.454   9.270 -1.0825 -0.1721 -1.3554
  851MOL0     H17423   4.554   8.632   9.420  0.2737  2.3147  1.6772
  851MOL0     H17424   4.526   9.029   9.585 -0.2766  0.2834 -0.3654
  851MOL0     H17425   4.635   9.207   9.684 -0.8895 -2.3999 -3.0388
  851MOL0     H17426   4.865   9.133  10.014 -1.0639  0.2167  0.7841
  851MOL0     H17427   4.876   9.183   9.839 -0.2169  0.0199 -0.4627
  851MOL0     H17428   5.027   9.325   9.969 -0.7566 -2.8968 -1.6589
  851MOL0     H17429   4.879   9.368  10.070 -2.5400  1.6385 -0.7866
  851MOL0     H17430   4.835   9.433   9.784 -1.3025 -0.5215  0.4594
  851MOL0     H17431   4.802   9.522   9.927  0.4875  0.0228 -2.0210
  851MOL0     H17432   5.048   9.565   9.962 -2.1202  0.3175  1.3541
  851MOL0     H17433   4.971   9.648   9.827  0.7359 -0.0874 -2.6488
  851MOL0     H17434   5.221   9.437   9.576  0.9747 -0.4541  0.1697
  851MOL0     H17435   4.591   9.020  10.078  1.4152 -1.9484 -0.0817
  851MOL0     H17436   4.389   8.740   9.975 -1.0600 -0.5537  0.9283
  851MOL0     H17437   4.507   8.814  10.090  1.3476 -1.7272 -2.0281
  851MOL0     H17438   4.351   8.874  10.072 -0.9439 -1.2027 -0.6600
  852MOL0     O17439   5.515   5.658   0.491  0.2377  0.1854  0.0205
  852MOL0     C17440   5.464   5.770   0.500  0.3370  1.0861  0.1861
  852MOL0     O17441   5.427   5.833   0.611  0.0732  0.6678 -0.4960
  852MOL0     C17442   5.389   5.761   0.726  0.3685  0.7435 -0.3643
  852MOL0     C17443   5.328   5.627   0.728 -0.2992 -0.4916  0.1047
  852MOL0     C17444   5.262   5.578   0.847 -0.1183  0.1064 -0.0139
  852MOL0     C17445   5.265   5.655   0.972 -0.1328 -0.3571  1.0445
  852MOL0     O17446   5.214   5.591   1.078  0.2454 -0.0635 -0.0561
  852MOL0     C17447   5.215   5.657   1.208  0.3013  1.7078 -0.2124
  852MOL0     C17448   5.078   5.641   1.266  0.2228 -0.4099 -0.3283
  852MOL0     C17449   5.042   5.492   1.278  0.3340  0.0626 -0.8046
  852MOL0     C17450   4.969   5.453   1.407  0.5448 -0.5729 -0.1832
  852MOL0     C17451   5.053   5.450   1.538  1.0131 -0.2630  0.1569
  852MOL0     C17452   5.185   5.393   1.521 -0.9280  0.5172  0.9133
  852MOL0     C17453   5.258   5.356   1.644 -0.5832  0.7505 -0.0418
  852MOL0     C17454   5.399   5.325   1.598  0.0183 -0.0848  0.0430
  852MOL0     N17455   5.479   5.273   1.715 -0.0631  0.0079  1.0795
  852MOL0     C17456   5.609   5.279   1.743  0.6355 -0.5761  0.3899
  852MOL0     C17457   5.627   5.217   1.859  0.7049  0.5931 -0.1018
  852MOL0     C17458   5.745   5.229   1.955  0.0252  0.3378  0.5052
  852MOL0     C17459   5.781   5.090   2.014 -0.4250 -0.4313 -0.0699
  852MOL0     C17460   5.896   5.098   2.119  0.2974  1.5157 -0.5197
  852MOL0     C17461   5.928   4.961   2.186 -0.0260 -0.5103 -0.2696
  852MOL0     O17462   5.840   4.942   2.296 -0.0930 -0.0490 -0.4288
  852MOL0     C17463   5.798   4.815   2.316 -0.6631  0.1414 -0.0064
  852MOL0     C17464   5.665   4.807   2.356 -0.8979 -0.6808 -0.1912
  852MOL0     C17465   5.606   4.683   2.387 -0.4570 -0.1240  0.7513
  852MOL0     C17466   5.467   4.680   2.446 -0.0203 -0.0929 -0.6595
  852MOL0     C17467   5.683   4.564   2.369  0.0272 -0.0780 -0.1423
  852MOL0     C17468   5.633   4.434   2.418 -0.1976  0.3906 -0.6884
  852MOL0     O17469   5.685   4.328   2.341 -0.4147  0.1286 -0.8100
  852MOL0     C17470   5.653   4.198   2.363  0.3533 -0.8519 -0.2690
  852MOL0     C17471   5.539   4.146   2.302  0.6435  0.5811 -0.1022
  852MOL0     C17472   5.472   4.032   2.343 -0.1534 -0.0247  0.3246
  852MOL0     C17473   5.525   3.959   2.458  0.5826  0.1663 -0.1234
  852MOL0     O17474   5.447   3.856   2.495 -0.5122  0.3113  0.9907
  852MOL0     C17475   5.491   3.727   2.431  0.6757  0.3035  0.6970
  852MOL0     C17476   5.434   3.609   2.509 -0.3409 -0.0751 -0.2249
  852MOL0     C17477   5.520   3.582   2.632  0.5315  0.4887 -0.2707
  852MOL0     C17478   5.449   3.480   2.718 -0.3358  0.9513 -0.4953
  852MOL0     C17479   5.514   3.461   2.856  0.2246  0.8266  0.7652
  852MOL0     C17480   5.416   3.463   2.969 -0.4145 -0.1467  1.0366
  852MOL0     C17481   5.339   3.336   3.008  0.1971  0.1432 -0.4130
  852MOL0     C17482   5.420   3.204   3.006  0.5581 -0.4981 -0.5610
  852MOL0    Cl17483   5.298   3.076   3.045 -0.4664  0.0661  0.3718
  852MOL0     C17484   5.637   4.015   2.522 -0.1667 -0.7657 -0.3898
  852MOL0     C17485   5.708   4.130   2.473  0.8017 -0.3739  1.0575
  852MOL0     O17486   5.571   4.414   2.518 -0.5932  0.5884 -0.2255
  852MOL0     C17487   5.820   4.583   2.335 -0.2708  0.5280 -0.4983
  852MOL0     C17488   5.875   4.705   2.312 -0.2034 -0.2825 -1.1318
  852MOL0     N17489   5.506   5.161   1.890  0.5361  0.8959  0.5950
  852MOL0     N17490   5.425   5.194   1.806  0.3825  0.3840  0.6454
  852MOL0     C17491   5.341   5.783   0.974 -1.0022  0.0360  0.7359
  852MOL0     C17492   5.398   5.829   0.850  0.3830  0.1285 -0.0278
  852MOL0     C17493   5.437   5.850   0.377  0.8741 -0.5533  0.4902
  852MOL0     C17494   5.327   5.939   0.378  1.2958  0.0453 -0.4032
  852MOL0     C17495   5.290   6.028   0.272  0.2229 -0.1817  0.3454
  852MOL0     C17496   5.370   6.021   0.155 -0.1749  0.0187 -0.7717
  852MOL0     O17497   5.344   6.089   0.041 -0.4982 -0.1322 -0.3892
  852MOL0     C17498   5.299   6.231   0.057 -0.2123 -0.2512  0.2352
  852MOL0     C17499   5.327   6.303  -0.075  0.7780 -1.3334 -0.3190
  852MOL0     C17500   5.250   6.436  -0.079 -0.3037 -0.5972 -0.6791
  852MOL0     C17501   5.312   6.533  -0.189 -0.2785 -0.8529  0.5222
  852MOL0     C17502   5.236   6.659  -0.190 -0.8660  0.3915  0.8444
  852MOL0     C17503   5.185   6.763  -0.217 -0.0821 -0.5559 -0.8053
  852MOL0     C17504   5.466   5.929   0.149 -0.5230  0.4184  0.2261
  852MOL0     C17505   5.510   5.851   0.251  0.0614 -0.2721 -0.1350
  852MOL0     C17506   5.626   5.757   0.226  0.5963 -0.2014 -0.4225
  852MOL0     H17507   5.299   5.574   0.638 -1.7994  1.6391 -0.7430
  852MOL0     H17508   5.227   5.475   0.844  2.4187 -0.8541  0.1763
  852MOL0     H17509   5.241   5.763   1.199  1.7184  1.4039  0.2048
  852MOL0     H17510   5.283   5.602   1.274  0.0151  1.4834 -0.1022
  852MOL0     H17511   5.068   5.695   1.361 -3.0777 -1.9071  0.3239
  852MOL0     H17512   5.010   5.700   1.205 -1.1238 -0.2035  1.3085
  852MOL0     H17513   4.969   5.475   1.199  1.3660 -1.2448 -1.5031
  852MOL0     H17514   5.123   5.420   1.267 -1.0335 -1.9403  1.4352
  852MOL0     H17515   4.891   5.526   1.430  0.7025 -0.9773  1.8602
  852MOL0     H17516   4.928   5.352   1.393  3.0723 -2.1446  2.4819
  852MOL0     H17517   5.004   5.395   1.618  1.5633  0.1166  0.7629
  852MOL0     H17518   5.062   5.553   1.575 -0.7760  0.5760 -1.5813
  852MOL0     H17519   5.188   5.307   1.453 -0.7360  1.0526  0.2307
  852MOL0     H17520   5.242   5.469   1.466 -0.8626 -0.2685 -0.1355
  852MOL0     H17521   5.221   5.274   1.705  1.8089  0.0268  0.5338
  852MOL0     H17522   5.271   5.431   1.722 -2.5594  0.3849  0.6978
  852MOL0     H17523   5.393   5.247   1.521  3.0055 -0.1509 -0.2369
  852MOL0     H17524   5.437   5.413   1.547  0.7086 -0.9539 -0.9853
  852MOL0     H17525   5.693   5.328   1.695  0.7447 -2.2083 -1.2023
  852MOL0     H17526   5.720   5.300   2.034  1.4863 -0.2242  1.5113
  852MOL0     H17527   5.827   5.270   1.896  1.8491 -2.0053  1.2499
  852MOL0     H17528   5.696   5.043   2.064 -0.9146 -1.1531 -1.5158
  852MOL0     H17529   5.797   5.027   1.926 -2.3810  1.0303 -1.5643
  852MOL0     H17530   5.983   5.146   2.073  0.8752  1.1018  0.1303
  852MOL0     H17531   5.858   5.156   2.204  0.5420  0.8215  0.0750
  852MOL0     H17532   5.915   4.880   2.114 -1.9246 -0.7032  0.2315
  852MOL0     H17533   6.035   4.960   2.211  0.8059 -0.1848 -3.3946
  852MOL0     H17534   5.602   4.896   2.362  1.5107  1.1147 -0.0965
  852MOL0     H17535   5.408   4.589   2.428  0.4466 -0.1457 -2.1087
  852MOL0     H17536   5.419   4.776   2.427  1.9902  1.4351  1.4513
  852MOL0     H17537   5.478   4.689   2.554 -0.9123  0.3127 -0.5970
  852MOL0     H17538   5.491   4.221   2.240  1.3474  0.1128 -1.2340
  852MOL0     H17539   5.383   4.003   2.287 -1.0023 -0.2240  1.7310
  852MOL0     H17540   5.447   3.722   2.332  1.8236  2.4497  0.0052
  852MOL0     H17541   5.596   3.732   2.400 -0.5326  2.7820 -3.8981
  852MOL0     H17542   5.327   3.624   2.527 -0.8288  2.3937 -4.0305
  852MOL0     H17543   5.453   3.520   2.448 -0.4737 -0.6660  0.5793
  852MOL0     H17544   5.522   3.674   2.692 -5.0480  0.3500  0.6314
  852MOL0     H17545   5.615   3.536   2.600  1.2970  1.5980  0.3254
  852MOL0     H17546   5.446   3.390   2.656 -1.4260  0.2676  0.4972
  852MOL0     H17547   5.342   3.498   2.732 -1.0758 -2.4740 -0.7165
  852MOL0     H17548   5.570   3.367   2.853 -0.1271  0.6170  0.7030
  852MOL0     H17549   5.584   3.545   2.867  0.9131  0.4000 -0.2473
  852MOL0     H17550   5.338   3.537   2.947 -0.5436 -0.3185  0.9130
  852MOL0     H17551   5.461   3.491   3.065 -0.6686  4.0259  0.1059
  852MOL0     H17552   5.261   3.317   2.934  0.6093  1.1675 -1.1311
  852MOL0     H17553   5.291   3.356   3.104 -0.2158 -1.0764 -0.3492
  852MOL0     H17554   5.493   3.214   3.087 -1.7008 -0.2920  1.5624
  852MOL0     H17555   5.465   3.177   2.910 -1.8492  0.3326 -2.0098
  852MOL0     H17556   5.661   3.953   2.608 -0.4748 -4.6577 -2.8540
  852MOL0     H17557   5.777   4.192   2.529  0.1549  0.3387  1.0715
  852MOL0     H17558   5.879   4.492   2.330  0.7698  1.2347 -1.9550
  852MOL0     H17559   5.980   4.708   2.284 -0.2355 -2.4096 -1.6899
  852MOL0     H17560   5.374   5.837   1.063 -1.2396  2.1457 -0.3882
  852MOL0     H17561   5.460   5.918   0.858  0.9469 -0.2752  0.1412
  852MOL0     H17562   5.264   5.952   0.466  1.5446 -0.0683 -0.2094
  852MOL0     H17563   5.224   6.111   0.293  2.9353  2.1356  0.3262
  852MOL0     H17564   5.193   6.242   0.081 -0.5034 -0.1052 -1.0295
  852MOL0     H17565   5.362   6.286   0.127 -0.6589 -1.0506  1.2973
  852MOL0     H17566   5.291   6.252  -0.165 -1.1407 -0.7195  0.0635
  852MOL0     H17567   5.434   6.328  -0.074  0.2802  1.1808  1.7094
  852MOL0     H17568   5.143   6.427  -0.099 -0.0816 -2.1157 -1.3268
  852MOL0     H17569   5.262   6.487   0.017 -1.5905 -2.8990  0.8199
  852MOL0     H17570   5.281   6.496  -0.287 -1.5546  1.2682  0.0329
  852MOL0     H17571   5.418   6.548  -0.170  0.6892 -2.5234 -2.7400
  852MOL0     H17572   5.134   6.856  -0.226 -3.5216 -1.9986  1.5832
  852MOL0     H17573   5.520   5.924   0.055  0.9842 -0.4073  1.0889
  852MOL0     H17574   5.661   5.761   0.123 -0.7123 -0.9247 -0.9171
  852MOL0     H17575   5.711   5.784   0.291 -0.4174  0.3546  0.7261
  852MOL0     H17576   5.600   5.653   0.246 -1.3097  0.6690  2.1343
  853MOL0     O17577   0.437   6.586   9.196  0.1061  0.0664 -0.2676
  853MOL0     C17578   0.567   6.580   9.186  0.2377  0.0418 -0.8767
  853MOL0     O17579   0.663   6.611   9.279  0.4448  0.3447  0.3739
  853MOL0     C17580   0.635   6.683   9.392 -0.8300 -0.8118  0.0226
  853MOL0     C17581   0.525   6.761   9.428 -0.0252  0.5019 -0.3068
  853MOL0     C17582   0.520   6.827   9.547 -0.0479  1.2255  0.0872
  853MOL0     C17583   0.622   6.819   9.647  0.0468  0.6914 -0.0973
  853MOL0     O17584   0.607   6.892   9.764 -0.7695 -0.2967 -1.0053
  853MOL0     C17585   0.625   6.831   9.888 -0.1923 -0.0650 -0.1397
  853MOL0     C17586   0.497   6.765   9.933 -0.0209  0.2243  0.1690
  853MOL0     C17587   0.369   6.849   9.900  0.1006  0.6001 -0.0563
  853MOL0     C17588   0.375   6.989   9.972 -0.4167  0.2515  0.1538
  853MOL0     C17589   0.263   7.070   9.932  0.2683  0.9828  0.3594
  853MOL0     C17590   0.294   7.213   9.968  0.1635 -0.2093 -0.6268
  853MOL0     C17591   0.175   7.304   9.924  0.2413 -0.3178 -0.4458
  853MOL0     C17592   0.219   7.453   9.951  0.1277  0.6523 -0.2479
  853MOL0     N17593   0.098   7.543   9.962 -0.4854 -0.6371 -0.7014
  853MOL0     C17594   0.055   7.644   9.879 -0.0366  0.4934 -0.3572
  853MOL0     C17595  -0.063   7.678   9.934  0.3613 -0.2022  0.3903
  853MOL0     C17596  -0.154   7.776   9.876  0.8885  1.0025 -0.4488
  853MOL0     C17597  -0.237   7.710   9.764  0.3975  0.0563  0.2050
  853MOL0     C17598  -0.290   7.817   9.666 -0.1431 -0.3797  0.2254
  853MOL0     C17599  -0.425   7.787   9.595  0.7853  0.0677 -0.1476
  853MOL0     O17600  -0.520   7.790   9.698 -0.8842  0.4816  0.3171
  853MOL0     C17601  -0.653   7.800   9.651  0.6203 -0.3430 -0.1581
  853MOL0     C17602  -0.688   7.787   9.515  0.4369  0.0331  0.3756
  853MOL0     C17603  -0.817   7.808   9.463  0.0063 -0.7824 -0.8015
  853MOL0     C17604  -0.843   7.776   9.322  0.3637  0.4426  0.4498
  853MOL0     C17605  -0.918   7.848   9.553 -0.1789 -1.0078  0.6904
  853MOL0     C17606  -1.059   7.897   9.505 -0.5738  0.3775  0.2306
  853MOL0     O17607  -1.043   7.996   9.410 -0.2023  0.1067  0.6681
  853MOL0     C17608  -1.147   8.080   9.371 -0.8203  0.3794 -0.0975
  853MOL0     C17609  -1.267   8.025   9.337  0.7539 -0.0300 -0.3779
  853MOL0     C17610  -1.385   8.103   9.315 -0.0345 -0.6472  0.1658
  853MOL0     C17611  -1.378   8.240   9.308  0.3045  0.4797 -0.8451
  853MOL0     O17612  -1.495   8.307   9.276  0.6819  0.4617 -0.2045
  853MOL0     C17613  -1.500   8.447   9.303  0.5061 -1.3084  0.1082
  853MOL0     C17614  -1.647   8.488   9.325  0.9425 -0.0511 -1.3391
  853MOL0     C17615  -1.643   8.634   9.367  0.5891  0.2390 -0.5814
  853MOL0     C17616  -1.777   8.682   9.429  0.5580  0.3753  0.4993
  853MOL0     C17617  -1.756   8.805   9.504  0.0663 -0.7175  0.5597
  853MOL0     C17618  -1.888   8.888   9.539  0.3314  0.8726  0.3816
  853MOL0     C17619  -1.843   9.039   9.563 -0.4272  0.3817  1.1775
  853MOL0     C17620  -1.932   9.102   9.658  0.4720 -0.7880  0.4089
  853MOL0    Cl17621  -1.917   9.276   9.673 -0.3259 -0.0877  0.1604
  853MOL0     C17622  -1.250   8.290   9.341  0.6478  1.0096 -0.1783
  853MOL0     C17623  -1.136   8.218   9.379  0.4112  0.4531 -0.7234
  853MOL0     O17624  -1.163   7.858   9.554 -0.6994  0.0427  0.4232
  853MOL0     C17625  -0.882   7.850   9.692 -0.1054 -0.5971 -0.1038
  853MOL0     C17626  -0.757   7.827   9.746 -0.3738 -0.8916 -0.6151
  853MOL0     N17627  -0.094   7.602  10.047 -0.0476 -0.2980 -0.2418
  853MOL0     N17628   0.014   7.538  10.064 -0.5672 -0.0699  1.0014
  853MOL0     C17629   0.736   6.740   9.617 -0.1325 -0.7206 -0.0308
  853MOL0     C17630   0.737   6.678   9.487 -0.4676 -0.6563  0.0816
  853MOL0     C17631   0.606   6.530   9.051 -0.2041  0.1670 -0.7067
  853MOL0     C17632   0.682   6.415   9.053 -0.2427  0.5061 -0.3884
  853MOL0     C17633   0.708   6.346   8.938 -0.0533  0.7627 -0.2223
  853MOL0     C17634   0.663   6.387   8.817  0.0740 -0.2275  0.0965
  853MOL0     O17635   0.687   6.330   8.700 -0.0650 -0.2809  0.9620
  853MOL0     C17636   0.812   6.252   8.685  0.6616 -0.1470 -0.2409
  853MOL0     C17637   0.917   6.347   8.621 -0.9126  0.2951 -0.2765
  853MOL0     C17638   0.872   6.399   8.493 -0.4289  0.5713 -0.1831
  853MOL0     C17639   0.982   6.485   8.435 -0.9732  0.2507 -0.6461
  853MOL0     C17640   0.972   6.543   8.304 -0.0458 -0.4327  1.2004
  853MOL0     C17641   0.977   6.598   8.193  0.4698  0.8378  1.1006
  853MOL0     C17642   0.602   6.515   8.812  1.4646  0.0873 -0.1591
  853MOL0     C17643   0.559   6.581   8.929 -0.1655  0.1223 -0.4870
  853MOL0     C17644   0.485   6.709   8.915  0.6516  1.0226  0.1001
  853MOL0     H17645   0.441   6.775   9.360  0.3387 -0.7874 -1.0688
  853MOL0     H17646   0.426   6.879   9.557 -0.5860  0.3429 -0.3289
  853MOL0     H17647   0.645   6.908   9.963 -0.9197  0.4659 -0.4789
  853MOL0     H17648   0.711   6.764   9.896  1.2258  1.7360  0.3799
  853MOL0     H17649   0.485   6.672   9.878  0.1324  0.3557 -0.0867
  853MOL0     H17650   0.506   6.743  10.040  2.0142  3.0767  0.7229
  853MOL0     H17651   0.362   6.856   9.791 -1.9130 -2.7631 -0.2674
  853MOL0     H17652   0.273   6.804   9.925 -0.7196  2.2519 -0.0976
  853MOL0     H17653   0.396   6.984  10.080  0.2810 -1.2283 -0.0304
  853MOL0     H17654   0.460   7.040   9.928 -2.0874  2.5498 -0.6274
  853MOL0     H17655   0.160   7.045   9.960 -0.4448  0.9072 -2.1674
  853MOL0     H17656   0.244   7.050   9.827  1.9262 -2.9029  0.6340
  853MOL0     H17657   0.316   7.221  10.075 -2.4207 -1.7648  0.1020
  853MOL0     H17658   0.389   7.245   9.925  0.2012  0.5602  0.0089
  853MOL0     H17659   0.086   7.285   9.984 -0.5535  3.9456  0.0292
  853MOL0     H17660   0.151   7.290   9.818 -0.8034  0.1778 -0.2852
  853MOL0     H17661   0.283   7.470  10.038  0.3695  0.2774 -0.3481
  853MOL0     H17662   0.291   7.478   9.871  0.3842 -0.1664 -0.2824
  853MOL0     H17663   0.104   7.685   9.791  0.4739 -3.0074 -1.8536
  853MOL0     H17664  -0.095   7.852   9.824 -1.2813  1.5790 -2.1854
  853MOL0     H17665  -0.221   7.815   9.953  1.0890 -0.1547  0.3392
  853MOL0     H17666  -0.179   7.637   9.705  0.9933  2.3962 -2.3112
  853MOL0     H17667  -0.316   7.658   9.818  0.8317  1.8145  2.7035
  853MOL0     H17668  -0.317   7.915   9.706 -1.6719  0.2617 -2.1802
  853MOL0     H17669  -0.209   7.844   9.597 -3.2939  1.0587 -3.2042
  853MOL0     H17670  -0.440   7.858   9.513  3.7447  0.5438 -0.4006
  853MOL0     H17671  -0.422   7.684   9.558  0.0707  0.5194 -1.5648
  853MOL0     H17672  -0.612   7.751   9.446  2.1443 -0.8511  2.5716
  853MOL0     H17673  -0.827   7.864   9.260  5.0937  0.3374  1.1524
  853MOL0     H17674  -0.945   7.737   9.322 -0.3534  2.2212  1.5873
  853MOL0     H17675  -0.778   7.699   9.279  1.5899 -0.0693  2.9963
  853MOL0     H17676  -1.279   7.918   9.342 -1.1338  0.1822  0.5462
  853MOL0     H17677  -1.480   8.053   9.299  0.7657 -2.0249 -0.4956
  853MOL0     H17678  -1.434   8.453   9.391  1.1049  0.6681 -0.4238
  853MOL0     H17679  -1.466   8.506   9.218 -1.9652  0.1072  0.0381
  853MOL0     H17680  -1.720   8.475   9.245  0.5745  0.0155 -1.0182
  853MOL0     H17681  -1.680   8.419   9.404  2.5163  0.9701  0.2843
  853MOL0     H17682  -1.615   8.695   9.280  2.0452 -3.6543 -3.1505
  853MOL0     H17683  -1.555   8.656   9.428  1.8842  2.1862 -2.9450
  853MOL0     H17684  -1.845   8.611   9.477  1.9060 -0.7621  0.7983
  853MOL0     H17685  -1.829   8.719   9.340 -1.8757 -2.1145  0.7686
  853MOL0     H17686  -1.710   8.783   9.600 -0.4194 -1.3041  0.6714
  853MOL0     H17687  -1.683   8.868   9.453  1.8587 -2.2303  1.1623
  853MOL0     H17688  -1.928   8.839   9.628  0.9629 -0.9186 -0.2681
  853MOL0     H17689  -1.954   8.889   9.452  0.5614 -0.7377  0.1561
  853MOL0     H17690  -1.853   9.093   9.469 -0.9385 -1.4664  0.1105
  853MOL0     H17691  -1.741   9.035   9.603 -1.0931  1.5648  3.1091
  853MOL0     H17692  -1.934   9.064   9.760 -2.1245  0.7443  1.0128
  853MOL0     H17693  -2.030   9.090   9.610  2.4797  0.2776 -4.5955
  853MOL0     H17694  -1.239   8.397   9.352 -0.2536  0.9433  1.9494
  853MOL0     H17695  -1.043   8.266   9.408  0.6440 -1.3209  1.7306
  853MOL0     H17696  -0.966   7.877   9.756  2.2370  1.9351  2.1722
  853MOL0     H17697  -0.742   7.823   9.853  1.0174  0.9544 -0.7008
  853MOL0     H17698   0.815   6.727   9.690 -0.0815  1.7041  0.4218
  853MOL0     H17699   0.823   6.622   9.451 -1.9674 -2.2193 -1.2301
  853MOL0     H17700   0.694   6.368   9.150  1.9097 -1.1154 -1.3717
  853MOL0     H17701   0.782   6.268   8.956 -0.2706  0.4429 -0.7095
  853MOL0     H17702   0.845   6.202   8.777  0.3334 -1.3568 -0.7546
  853MOL0     H17703   0.791   6.178   8.607 -0.5337  1.1041 -1.1488
  853MOL0     H17704   1.016   6.306   8.603 -1.1328  0.9247 -3.4636
  853MOL0     H17705   0.940   6.437   8.679  0.8182 -0.5601  0.4076
  853MOL0     H17706   0.857   6.314   8.426  1.8421  0.3876 -0.5025
  853MOL0     H17707   0.782   6.461   8.509 -0.3938  0.6663 -0.3515
  853MOL0     H17708   1.075   6.428   8.433 -1.1200 -0.3980  3.2309
  853MOL0     H17709   0.984   6.565   8.510 -2.2086 -0.4394  0.1613
  853MOL0     H17710   0.992   6.661   8.108 -0.5389 -0.8457 -0.3910
  853MOL0     H17711   0.582   6.553   8.712  0.5851  0.1962  0.0457
  853MOL0     H17712   0.553   6.785   8.954  1.0976 -0.7201  3.0477
  853MOL0     H17713   0.452   6.734   8.814 -1.1701  2.7950  1.0495
  853MOL0     H17714   0.387   6.699   8.962 -0.5839 -5.4014 -2.7299
  854MOL0     O17715   1.180   3.341   9.882 -0.0514  0.2671 -0.4004
  854MOL0     C17716   1.114   3.419   9.947  0.2758 -0.6878 -0.5198
  854MOL0     O17717   0.991   3.460   9.910 -0.2614  0.6818  0.0367
  854MOL0     C17718   0.945   3.430   9.787  0.8155  0.2939  0.2034
  854MOL0     C17719   1.013   3.420   9.668  0.4508 -1.1197  0.2237
  854MOL0     C17720   0.948   3.387   9.547 -0.1478 -0.0931 -0.2199
  854MOL0     C17721   0.814   3.340   9.559 -0.4482 -0.9612 -0.6216
  854MOL0     O17722   0.754   3.304   9.442 -0.0651 -0.0038 -0.1512
  854MOL0     C17723   0.815   3.186   9.385  0.4038 -0.6147 -0.7745
  854MOL0     C17724   0.709   3.081   9.351 -1.4844  0.4360  0.4727
  854MOL0     C17725   0.623   3.140   9.235 -0.4103 -0.2915 -1.0385
  854MOL0     C17726   0.509   3.053   9.206  0.1831  0.0325  0.3534
  854MOL0     C17727   0.460   3.075   9.060 -0.1772  0.3572 -0.5255
  854MOL0     C17728   0.326   3.000   9.036 -0.4757 -0.3424  0.6643
  854MOL0     C17729   0.282   2.983   8.886 -0.0720  0.2211  0.2709
  854MOL0     C17730   0.371   2.894   8.820 -1.2767 -0.9281  1.0553
  854MOL0     N17731   0.322   2.847   8.690 -0.3395 -0.1364  0.3753
  854MOL0     C17732   0.227   2.751   8.674  0.3577 -0.7460 -0.0813
  854MOL0     C17733   0.225   2.751   8.543  0.4318  0.3294 -0.2426
  854MOL0     C17734   0.123   2.669   8.473 -0.8091 -0.1902  0.0965
  854MOL0     C17735   0.183   2.584   8.365 -0.8959  0.1483 -0.1492
  854MOL0     C17736   0.291   2.482   8.415 -0.3574 -0.3575 -0.2859
  854MOL0     C17737   0.226   2.376   8.506 -0.3666 -0.1372 -0.3795
  854MOL0     O17738   0.327   2.300   8.591  0.6058 -0.4327  0.3969
  854MOL0     C17739   0.303   2.179   8.654  0.1820 -0.2534  1.0529
  854MOL0     C17740   0.178   2.111   8.672 -0.9957  0.5482  0.0084
  854MOL0     C17741   0.168   1.985   8.744  0.5219  0.2850 -0.1174
  854MOL0     C17742   0.029   1.917   8.753  0.5346 -0.0085 -0.0747
  854MOL0     C17743   0.287   1.925   8.787 -0.8705 -0.2878 -1.0164
  854MOL0     C17744   0.297   1.796   8.869  0.1336  0.2661  0.3885
  854MOL0     O17745   0.413   1.748   8.903 -0.1485  0.4262 -0.3976
  854MOL0     C17746   0.437   1.623   8.954 -1.1115  0.0418 -0.4160
  854MOL0     C17747   0.361   1.511   8.925 -0.3726  0.0433  0.3523
  854MOL0     C17748   0.400   1.380   8.980  1.0828 -0.0299 -0.1731
  854MOL0     C17749   0.496   1.368   9.083  0.9896  0.8161 -0.1574
  854MOL0     O17750   0.504   1.239   9.138 -0.3839 -0.0102 -0.4254
  854MOL0     C17751   0.534   1.236   9.279  0.2663 -0.2123 -0.2795
  854MOL0     C17752   0.509   1.101   9.347  0.1161 -0.0312  0.2074
  854MOL0     C17753   0.487   1.115   9.496  0.2102  0.3251 -0.5980
  854MOL0     C17754   0.626   1.126   9.565  0.7702  0.4194  0.1250
  854MOL0     C17755   0.613   1.200   9.702  0.5863  0.5259 -0.6487
  854MOL0     C17756   0.749   1.229   9.768 -0.3955  0.1211  0.0191
  854MOL0     C17757   0.820   1.096   9.801  0.2265 -0.0404 -0.7043
  854MOL0     C17758   0.935   1.117   9.899  1.1103 -0.4778  0.1939
  854MOL0    Cl17759   1.064   1.202   9.812  0.1349  0.1978 -0.4962
  854MOL0     C17760   0.554   1.484   9.128  0.2621  0.9542  0.6876
  854MOL0     C17761   0.535   1.611   9.062 -0.9540 -0.2974  0.3371
  854MOL0     O17762   0.194   1.754   8.915  0.7683 -0.4205 -0.6312
  854MOL0     C17763   0.405   1.984   8.765  0.2058  0.0222 -0.3200
  854MOL0     C17764   0.414   2.103   8.695 -0.5779 -0.9878 -1.5485
  854MOL0     N17765   0.318   2.837   8.481 -0.0888  0.2244 -0.2585
  854MOL0     N17766   0.375   2.892   8.577  0.7790  0.5256  0.0591
  854MOL0     C17767   0.738   3.362   9.677  0.6125 -1.0444  1.1684
  854MOL0     C17768   0.807   3.411   9.786 -0.8318  0.6626 -0.8824
  854MOL0     C17769   1.165   3.480  10.066 -0.4230 -0.0129  0.1751
  854MOL0     C17770   1.272   3.415  10.129 -0.4359  0.4287  0.2804
  854MOL0     C17771   1.344   3.470  10.231 -0.5800 -1.5961 -0.8940
  854MOL0     C17772   1.298   3.595  10.280  0.4879 -0.0103 -0.5372
  854MOL0     O17773   1.352   3.638  10.405  0.1253  0.3569  0.6102
  854MOL0     C17774   1.371   3.779  10.423  0.5897  0.2341 -0.2143
  854MOL0     C17775   1.478   3.841  10.323 -0.0736  0.6240 -1.2727
  854MOL0     C17776   1.601   3.752  10.302  0.5239  0.1074 -0.5928
  854MOL0     C17777   1.623   3.683  10.160  0.4615  1.0182  0.3857
  854MOL0     C17778   1.591   3.766  10.049 -0.3080  0.7922  0.1065
  854MOL0     C17779   1.563   3.843   9.962  0.4230 -0.8395  0.7606
  854MOL0     C17780   1.190   3.658  10.220 -0.3068 -0.6704 -0.1556
  854MOL0     C17781   1.109   3.603  10.121 -0.1215 -0.4217  0.5961
  854MOL0     C17782   1.001   3.684  10.061  1.1070  0.0999  0.2263
  854MOL0     H17783   1.111   3.467   9.669 -0.3966  0.8817 -2.0683
  854MOL0     H17784   0.998   3.368   9.453  0.2331 -1.8322  0.2903
  854MOL0     H17785   0.899   3.149   9.445  1.4941  4.1726  1.1310
  854MOL0     H17786   0.858   3.234   9.297 -0.0160 -1.6079 -1.5400
  854MOL0     H17787   0.759   2.993   9.310  1.9211  2.9204 -1.2670
  854MOL0     H17788   0.656   3.046   9.439  1.1810 -0.6277  1.7542
  854MOL0     H17789   0.580   3.238   9.260 -1.9497 -0.9442 -1.0287
  854MOL0     H17790   0.678   3.164   9.143 -1.4041  1.0995 -1.3105
  854MOL0     H17791   0.537   2.948   9.214  0.5028  0.2274  2.3789
  854MOL0     H17792   0.423   3.083   9.266 -1.0512 -0.4663 -1.0962
  854MOL0     H17793   0.532   3.030   8.990 -0.6139 -2.2944  0.6118
  854MOL0     H17794   0.444   3.182   9.042  2.6207  0.6569 -1.8163
  854MOL0     H17795   0.334   2.896   9.070 -0.4831  0.5875  3.8744
  854MOL0     H17796   0.265   3.047   9.113 -0.3442  0.4394  0.3036
  854MOL0     H17797   0.284   3.083   8.842  0.3312 -0.3239 -0.9670
  854MOL0     H17798   0.179   2.951   8.873  0.5088 -0.6487 -3.2254
  854MOL0     H17799   0.465   2.948   8.809 -0.3464 -2.4145  1.3784
  854MOL0     H17800   0.399   2.809   8.883  3.1531 -0.4463  0.0644
  854MOL0     H17801   0.166   2.698   8.747 -2.1877  1.1527 -0.6859
  854MOL0     H17802   0.059   2.745   8.428 -0.7224 -0.9796 -1.4330
  854MOL0     H17803   0.077   2.606   8.549  0.2634 -1.3206 -0.1531
  854MOL0     H17804   0.105   2.522   8.320  1.6222 -2.3302 -1.4563
  854MOL0     H17805   0.233   2.631   8.281 -2.4189 -2.4075 -2.6494
  854MOL0     H17806   0.330   2.428   8.329 -0.1481 -0.1862 -0.2988
  854MOL0     H17807   0.379   2.536   8.451  0.1616 -1.3563 -0.0487
  854MOL0     H17808   0.142   2.404   8.570 -1.4565 -0.4879 -1.6022
  854MOL0     H17809   0.175   2.294   8.454  0.2771 -2.3155  2.2204
  854MOL0     H17810   0.085   2.157   8.640 -2.1016 -3.1861 -2.9774
  854MOL0     H17811  -0.043   1.958   8.682 -2.0371 -1.2559  1.6621
  854MOL0     H17812  -0.011   1.927   8.855 -0.1532 -4.6721  0.3522
  854MOL0     H17813   0.047   1.811   8.731  2.3029 -0.5639  3.3737
  854MOL0     H17814   0.289   1.522   8.844 -0.8866 -3.2714  0.1888
  854MOL0     H17815   0.363   1.286   8.941 -0.7384  0.2896  0.6831
  854MOL0     H17816   0.636   1.268   9.300 -0.4536  0.6723  2.3196
  854MOL0     H17817   0.473   1.318   9.317  0.0540  0.6066 -2.2601
  854MOL0     H17818   0.421   1.050   9.307 -0.2842  0.2667  0.6919
  854MOL0     H17819   0.593   1.033   9.329 -0.4864 -1.0234  1.0193
  854MOL0     H17820   0.440   1.028   9.543 -2.0387  1.5080 -0.4970
  854MOL0     H17821   0.419   1.195   9.528 -0.7924 -0.8011  0.1794
  854MOL0     H17822   0.700   1.171   9.499 -0.5667  0.6487 -1.2501
  854MOL0     H17823   0.657   1.021   9.577 -1.0522 -0.2150 -0.3752
  854MOL0     H17824   0.555   1.293   9.692 -0.8777 -0.0733  1.5324
  854MOL0     H17825   0.557   1.139   9.773  2.4099  0.9975  1.2853
  854MOL0     H17826   0.744   1.294   9.855  3.9088  0.7698 -0.0186
  854MOL0     H17827   0.802   1.294   9.697 -0.0259 -1.7609 -1.5165
  854MOL0     H17828   0.865   1.050   9.713  1.1572  2.4411 -1.6156
  854MOL0     H17829   0.747   1.027   9.844  1.2224 -0.7845 -0.1285
  854MOL0     H17830   0.969   1.016   9.922  0.7259 -0.4088  1.0956
  854MOL0     H17831   0.915   1.175   9.990  0.3705 -5.1567  3.3381
  854MOL0     H17832   0.625   1.468   9.208 -2.4841 -0.8986  2.9254
  854MOL0     H17833   0.599   1.692   9.094  0.2412 -0.6212 -1.1141
  854MOL0     H17834   0.494   1.948   8.816  0.0160  0.4656  0.3359
  854MOL0     H17835   0.508   2.155   8.696 -3.1010  4.1344 -0.5621
  854MOL0     H17836   0.632   3.342   9.675  0.2151  0.8698 -0.0788
  854MOL0     H17837   0.761   3.412   9.884 -0.0539  1.1194 -0.5123
  854MOL0     H17838   1.299   3.317  10.089 -1.7313  0.7610 -1.5233
  854MOL0     H17839   1.429   3.427  10.283  1.9836  1.4450 -2.2190
  854MOL0     H17840   1.275   3.831  10.415  0.2908 -0.4937 -1.8755
  854MOL0     H17841   1.404   3.801  10.525 -1.1447 -1.4075  0.7475
  854MOL0     H17842   1.502   3.938  10.367  1.5502 -0.8606  1.4290
  854MOL0     H17843   1.417   3.855  10.233 -1.3451  1.9952 -0.2524
  854MOL0     H17844   1.697   3.805  10.304  1.2566 -1.1559 -0.7659
  854MOL0     H17845   1.599   3.664  10.368 -0.3342 -0.3500 -1.2073
  854MOL0     H17846   1.563   3.592  10.154 -0.5035  1.7350 -2.0047
  854MOL0     H17847   1.729   3.661  10.151  0.9106  2.5552  1.4251
  854MOL0     H17848   1.546   3.923   9.892  1.1302  1.3836  2.9981
  854MOL0     H17849   1.157   3.755  10.254 -1.2446 -1.6256  1.8678
  854MOL0     H17850   0.990   3.789  10.089 -0.6518 -0.4960  1.9835
  854MOL0     H17851   1.006   3.674   9.952  1.1814 -4.3340  0.4639
  854MOL0     H17852   0.912   3.632  10.098 -0.3799  1.6085 -1.0587
  855MOL0     O17853   6.006   2.175   4.495  0.2129 -0.2942  0.3893
  855MOL0     C17854   6.014   2.289   4.543 -0.6044 -0.0549  0.6656
  855MOL0     O17855   6.104   2.384   4.491  0.5458  0.2163 -0.3749
  855MOL0     C17856   6.179   2.333   4.392 -0.5177 -0.3948  0.1240
  855MOL0     C17857   6.304   2.271   4.419  0.1977  0.0058  0.5639
  855MOL0     C17858   6.385   2.207   4.320 -0.1973  0.3294  0.9387
  855MOL0     C17859   6.338   2.201   4.185 -0.1826  0.3858  0.3665
  855MOL0     O17860   6.419   2.135   4.093 -0.2137  0.1023  0.3029
  855MOL0     C17861   6.354   2.097   3.971  0.6287  0.5641 -0.5666
  855MOL0     C17862   6.443   2.001   3.893  1.2265  0.6355  0.2112
  855MOL0     C17863   6.376   1.921   3.783  0.6814 -0.3982  0.1315
  855MOL0     C17864   6.297   1.800   3.843 -0.2966 -0.7836  0.5178
  855MOL0     C17865   6.381   1.684   3.844  1.2424  1.1263  0.1844
  855MOL0     C17866   6.301   1.574   3.911 -0.3615  0.7371 -0.2837
  855MOL0     C17867   6.372   1.439   3.889 -0.5018  0.7344 -0.3592
  855MOL0     C17868   6.300   1.315   3.948 -0.3548  0.2754 -0.3044
  855MOL0     N17869   6.173   1.290   3.859 -0.3789 -0.7236 -0.0311
  855MOL0     C17870   6.044   1.326   3.900  0.3953  0.0185 -0.3188
  855MOL0     C17871   5.964   1.280   3.803  0.4038  0.7192  0.6420
  855MOL0     C17872   5.815   1.292   3.797  0.5256 -0.6047  0.1768
  855MOL0     C17873   5.768   1.373   3.667 -1.6741  0.2357 -0.1582
  855MOL0     C17874   5.819   1.510   3.685  0.1298 -0.4628  0.4066
  855MOL0     C17875   5.768   1.597   3.573  0.6050 -0.2974 -0.0408
  855MOL0     O17876   5.843   1.718   3.595 -0.2411 -0.5474  0.7378
  855MOL0     C17877   5.819   1.806   3.493  0.5994  1.0641  0.5424
  855MOL0     C17878   5.705   1.819   3.408 -0.2087  0.6258  0.0132
  855MOL0     C17879   5.703   1.928   3.308 -0.6484 -0.5724 -0.6179
  855MOL0     C17880   5.576   1.958   3.234 -0.2886  0.2038 -0.0899
  855MOL0     C17881   5.822   2.016   3.296 -0.0881  0.0381  0.7877
  855MOL0     C17882   5.838   2.139   3.202 -0.1017 -0.8780  0.1354
  855MOL0     O17883   5.954   2.205   3.203 -0.2962  0.4261 -0.3323
  855MOL0     C17884   5.971   2.309   3.107  0.0758 -0.2735  0.1412
  855MOL0     C17885   6.088   2.313   3.035  0.7465  0.5075  0.9874
  855MOL0     C17886   6.125   2.408   2.936 -0.3108 -1.1115  0.0030
  855MOL0     C17887   6.031   2.510   2.906 -0.4785 -0.2207  1.0836
  855MOL0     O17888   6.050   2.615   2.812  0.4088  0.5732 -0.1154
  855MOL0     C17889   6.170   2.616   2.731  0.1932 -0.1766  0.0019
  855MOL0     C17890   6.277   2.709   2.805 -0.6004  1.4098  1.0217
  855MOL0     C17891   6.232   2.853   2.824 -1.0437  0.0875  0.0252
  855MOL0     C17892   6.347   2.953   2.873  0.3274 -0.4246  0.0420
  855MOL0     C17893   6.292   3.085   2.914  0.7159 -0.7233 -1.4330
  855MOL0     C17894   6.242   3.073   3.062  0.4544  0.8821  0.5238
  855MOL0     C17895   6.218   3.216   3.123  0.1280  0.0425 -0.4800
  855MOL0     C17896   6.173   3.204   3.273  0.1896 -0.7782 -0.1191
  855MOL0    Cl17897   6.149   3.364   3.372  0.4841 -0.2586 -0.2153
  855MOL0     C17898   5.913   2.523   2.975 -0.0274 -0.4412 -0.0886
  855MOL0     C17899   5.882   2.413   3.072  0.0396  0.1913 -0.4103
  855MOL0     O17900   5.749   2.169   3.126  0.3374 -0.2013  1.7191
  855MOL0     C17901   5.935   1.987   3.376  0.3615  0.6103  0.1533
  855MOL0     C17902   5.924   1.893   3.473  0.1788  0.5023 -0.2284
  855MOL0     N17903   6.041   1.199   3.714  0.2839 -0.1428  0.3804
  855MOL0     N17904   6.160   1.204   3.751  0.2275  0.0559 -0.1800
  855MOL0     C17905   6.212   2.262   4.165  1.0434  0.5443  0.3116
  855MOL0     C17906   6.136   2.325   4.257 -0.5856  0.0414  0.1450
  855MOL0     C17907   5.917   2.314   4.641  0.1634 -0.0929 -0.2088
  855MOL0     C17908   5.835   2.210   4.696 -1.2701 -0.0074  0.2011
  855MOL0     C17909   5.731   2.227   4.774  0.0778 -0.9410  0.5022
  855MOL0     C17910   5.700   2.357   4.829  0.1472 -0.3438  0.4468
  855MOL0     O17911   5.606   2.377   4.925 -0.1533  0.8065 -0.3260
  855MOL0     C17912   5.555   2.267   4.994 -0.5218  0.5191  0.1958
  855MOL0     C17913   5.437   2.332   5.068 -0.3911  0.1768 -0.5870
  855MOL0     C17914   5.354   2.226   5.142  0.5020  1.2327 -0.0992
  855MOL0     C17915   5.252   2.293   5.236  0.8245  0.4171 -0.1771
  855MOL0     C17916   5.154   2.197   5.282  0.6456  0.1259  0.3971
  855MOL0     C17917   5.063   2.125   5.328 -0.2854  1.2146  0.2648
  855MOL0     C17918   5.782   2.463   4.789  0.1767 -0.7694 -0.1985
  855MOL0     C17919   5.886   2.444   4.693 -1.0021 -0.9316  0.4616
  855MOL0     C17920   5.967   2.572   4.658 -0.5904 -0.1459 -0.3181
  855MOL0     H17921   6.344   2.263   4.520  1.2260  2.2865  0.3949
  855MOL0     H17922   6.476   2.149   4.337 -0.6671 -0.0483  2.2766
  855MOL0     H17923   6.332   2.190   3.916  2.7528  2.7547  2.0028
  855MOL0     H17924   6.259   2.051   3.999  1.1063  0.7547  1.4569
  855MOL0     H17925   6.507   2.070   3.837 -0.0407  1.1913 -0.5969
  855MOL0     H17926   6.505   1.933   3.951  0.5021 -7.0229 -6.2827
  855MOL0     H17927   6.307   1.980   3.722  0.6000  2.6295  2.8774
  855MOL0     H17928   6.456   1.885   3.717  0.9328 -2.0247  1.2648
  855MOL0     H17929   6.265   1.824   3.945 -2.3667 -0.2600 -0.2072
  855MOL0     H17930   6.209   1.786   3.780 -0.0165  0.1547 -0.1151
  855MOL0     H17931   6.472   1.682   3.905  1.6287 -1.0809 -0.3987
  855MOL0     H17932   6.412   1.666   3.741 -1.6925  1.3677 -0.8170
  855MOL0     H17933   6.293   1.595   4.018  2.3256 -0.0178  0.1491
  855MOL0     H17934   6.200   1.556   3.872 -1.0381 -0.6009  1.9348
  855MOL0     H17935   6.471   1.450   3.934 -0.7763 -0.0847  0.4729
  855MOL0     H17936   6.398   1.429   3.783 -0.4161  2.6521 -0.5495
  855MOL0     H17937   6.374   1.235   3.949 -1.0856 -0.4585  1.9094
  855MOL0     H17938   6.270   1.342   4.050  2.9640  2.6713  0.2544
  855MOL0     H17939   6.020   1.392   3.982  2.8915 -1.0959  1.4617
  855MOL0     H17940   5.795   1.337   3.895  2.1743 -2.3318  1.3857
  855MOL0     H17941   5.769   1.193   3.787 -1.6529  0.5801 -3.4067
  855MOL0     H17942   5.803   1.323   3.576 -1.1943  2.4659 -1.2654
  855MOL0     H17943   5.658   1.373   3.669 -1.9159 -4.3625 -1.4158
  855MOL0     H17944   5.798   1.554   3.783  0.9930 -1.3189  1.0002
  855MOL0     H17945   5.928   1.504   3.695  0.3695  3.5022  2.0614
  855MOL0     H17946   5.786   1.552   3.474 -3.3293  0.5443 -1.2978
  855MOL0     H17947   5.660   1.610   3.575  0.6494  0.0094  0.5216
  855MOL0     H17948   5.608   1.773   3.422  0.4935 -1.5099 -1.6671
  855MOL0     H17949   5.505   1.876   3.238 -0.8877  0.7323  0.3865
  855MOL0     H17950   5.595   1.991   3.131 -1.6958  1.7471  0.1000
  855MOL0     H17951   5.526   2.046   3.276  0.7811  1.4301 -1.3046
  855MOL0     H17952   6.160   2.234   3.052 -0.2223 -0.1851  2.0776
  855MOL0     H17953   6.215   2.393   2.877 -0.2366  0.9399 -0.4885
  855MOL0     H17954   6.200   2.513   2.709 -1.2081  0.1127 -4.0772
  855MOL0     H17955   6.156   2.669   2.637 -1.2650  1.7636  1.2303
  855MOL0     H17956   6.301   2.667   2.903 -3.6721 -4.2938 -0.2384
  855MOL0     H17957   6.374   2.714   2.754 -1.0371 -0.1821 -0.0377
  855MOL0     H17958   6.152   2.841   2.898 -0.7356 -0.0103  0.3454
  855MOL0     H17959   6.188   2.888   2.730 -2.0530  0.6827  0.7050
  855MOL0     H17960   6.407   2.969   2.782  1.1717 -0.3122  0.6021
  855MOL0     H17961   6.408   2.915   2.956  0.1427  0.4460  0.5897
  855MOL0     H17962   6.372   3.159   2.920  0.0714 -0.1507  1.4749
  855MOL0     H17963   6.211   3.112   2.846  0.0659 -1.6248 -1.0277
  855MOL0     H17964   6.311   3.019   3.129 -0.2146 -0.4791  0.1438
  855MOL0     H17965   6.152   3.012   3.068  2.3882 -2.1140  1.7241
  855MOL0     H17966   6.142   3.268   3.064 -0.9792  0.7288  1.4501
  855MOL0     H17967   6.314   3.268   3.119 -0.4197  1.0402 -1.5841
  855MOL0     H17968   6.250   3.149   3.327  0.9245  0.3047 -0.0413
  855MOL0     H17969   6.082   3.145   3.285 -0.3074  0.3143  2.0863
  855MOL0     H17970   5.845   2.601   2.944  2.3050  0.7652 -2.5092
  855MOL0     H17971   5.785   2.428   3.118  0.2130  1.4003 -0.3844
  855MOL0     H17972   6.030   2.039   3.376  1.6952 -1.6778  0.5733
  855MOL0     H17973   6.007   1.898   3.544  0.0083  0.4501 -0.0254
  855MOL0     H17974   6.162   2.237   4.073  1.0541  5.6918 -1.4313
  855MOL0     H17975   6.040   2.368   4.231  1.0808  3.1409 -1.5544
  855MOL0     H17976   5.848   2.110   4.655  2.4529  0.7239 -0.7422
  855MOL0     H17977   5.681   2.133   4.796 -0.3987 -0.2600  2.6230
  855MOL0     H17978   5.524   2.190   4.923  2.0111  0.1276 -0.6217
  855MOL0     H17979   5.629   2.230   5.066  1.7614  1.2069 -1.6423
  855MOL0     H17980   5.385   2.393   4.995  0.3756  1.7328  0.1218
  855MOL0     H17981   5.469   2.411   5.137  1.8814 -0.6927 -0.5412
  855MOL0     H17982   5.302   2.159   5.073  0.0188  3.1905 -1.7349
  855MOL0     H17983   5.420   2.163   5.201  1.3194  2.4867  0.3806
  855MOL0     H17984   5.179   2.360   5.191 -2.3527 -1.5757  1.6183
  855MOL0     H17985   5.303   2.334   5.325 -1.3392  2.2024  0.3362
  855MOL0     H17986   4.996   2.059   5.379  1.9264 -0.6870  0.8691
  855MOL0     H17987   5.762   2.558   4.837 -0.9316 -1.6168  1.0611
  855MOL0     H17988   6.069   2.560   4.697  0.2653 -4.7782 -3.2241
  855MOL0     H17989   5.972   2.599   4.552  5.0491  0.2182 -0.3049
  855MOL0     H17990   5.934   2.663   4.709  0.9747  1.0517 -1.3119
  856MOL0     O17991   5.411   7.397   5.439  0.6110  0.0515 -1.2815
  856MOL0     C17992   5.346   7.489   5.493 -0.8356  0.4335  0.5864
  856MOL0     O17993   5.397   7.615   5.521 -0.1407  0.1655  0.2593
  856MOL0     C17994   5.520   7.647   5.468 -0.5208 -0.4970 -1.2340
  856MOL0     C17995   5.543   7.638   5.332  0.0205  0.1546 -0.3814
  856MOL0     C17996   5.664   7.677   5.280  0.1416 -0.6752  0.8928
  856MOL0     C17997   5.769   7.725   5.351  0.6049  0.4423  0.4692
  856MOL0     O17998   5.896   7.753   5.315  0.4528  0.1587 -0.2288
  856MOL0     C17999   5.909   7.802   5.180  0.4063 -0.8279 -0.8514
  856MOL0     C18000   6.044   7.862   5.154 -0.7909  0.0551 -0.6746
  856MOL0     C18001   6.140   7.774   5.071 -0.0542  0.2045  0.5841
  856MOL0     C18002   6.081   7.742   4.931 -0.0088 -0.4021  0.1107
  856MOL0     C18003   6.170   7.645   4.854 -1.3613  0.2524 -0.5421
  856MOL0     C18004   6.110   7.575   4.725 -0.5733  0.0625  0.3436
  856MOL0     C18005   6.122   7.658   4.596 -0.1314  0.1846  0.9037
  856MOL0     C18006   6.122   7.575   4.469  0.4726  0.3642 -0.6948
  856MOL0     N18007   6.245   7.522   4.427 -1.0219  0.3949  0.2632
  856MOL0     C18008   6.355   7.596   4.392 -0.0014 -0.3550 -0.0538
  856MOL0     C18009   6.454   7.504   4.366 -0.6488 -0.0096 -0.8179
  856MOL0     C18010   6.593   7.530   4.316 -0.4018  0.3037  0.6161
  856MOL0     C18011   6.694   7.597   4.415 -0.0775 -0.0730  0.9654
  856MOL0     C18012   6.838   7.579   4.377 -0.4786 -0.7439  0.0347
  856MOL0     C18013   6.936   7.627   4.479  0.2960 -0.0369  0.4003
  856MOL0     O18014   6.919   7.537   4.592  1.4464  1.0331  0.1199
  856MOL0     C18015   7.023   7.537   4.682  0.8916 -0.2692 -0.0403
  856MOL0     C18016   7.067   7.417   4.728 -0.3505  0.3012 -0.0192
  856MOL0     C18017   7.183   7.398   4.803  0.4444  0.2747  0.5892
  856MOL0     C18018   7.219   7.256   4.845  0.7160 -0.3428  0.8192
  856MOL0     C18019   7.258   7.510   4.827 -0.1855 -0.0416 -0.6842
  856MOL0     C18020   7.389   7.503   4.889  0.3953  0.2212 -0.0146
  856MOL0     O18021   7.405   7.578   5.009 -0.4136 -0.4793  0.5983
  856MOL0     C18022   7.516   7.543   5.095  0.4043 -0.4411  1.4643
  856MOL0     C18023   7.586   7.657   5.141  0.3886  0.4179 -0.3097
  856MOL0     C18024   7.689   7.636   5.230  0.0395 -0.1473 -0.8414
  856MOL0     C18025   7.729   7.507   5.268 -0.8028  0.0071 -0.2579
  856MOL0     O18026   7.841   7.494   5.348  0.4232  0.1931 -0.9216
  856MOL0     C18027   7.813   7.437   5.477 -0.8485  0.9235 -0.5558
  856MOL0     C18028   7.920   7.490   5.576 -1.1284 -1.1159  0.0670
  856MOL0     C18029   7.998   7.618   5.532 -0.1901 -0.7087 -0.3089
  856MOL0     C18030   8.114   7.654   5.629 -0.6052  0.1669  0.0381
  856MOL0     C18031   8.189   7.779   5.596  0.4067 -0.5306  1.2452
  856MOL0     C18032   8.310   7.807   5.670  0.1802  0.6765  0.5964
  856MOL0     C18033   8.289   7.877   5.804 -0.2096  0.1577 -0.5405
  856MOL0     C18034   8.411   7.875   5.894 -0.4686  0.9600 -0.0051
  856MOL0    Cl18035   8.441   7.717   5.958  0.1023  0.3897 -0.6603
  856MOL0     C18036   7.659   7.395   5.217 -0.5151  0.4274  0.9136
  856MOL0     C18037   7.546   7.410   5.129  0.7418  0.0245 -0.6120
  856MOL0     O18038   7.474   7.446   4.819 -0.5706  0.0661  0.1445
  856MOL0     C18039   7.204   7.636   4.791 -0.1831  0.1220 -0.3287
  856MOL0     C18040   7.084   7.651   4.727  0.1435 -0.0646  0.0730
  856MOL0     N18041   6.409   7.383   4.400 -0.0667 -0.1460  1.4690
  856MOL0     N18042   6.286   7.385   4.423 -0.8552 -0.7039 -0.3339
  856MOL0     C18043   5.739   7.742   5.483  0.4674 -0.2681  0.1509
  856MOL0     C18044   5.618   7.709   5.551 -0.3481 -0.0922  0.5199
  856MOL0     C18045   5.209   7.451   5.517 -0.7859 -0.2472 -0.0682
  856MOL0     C18046   5.186   7.375   5.627 -0.2766  0.4336 -0.0711
  856MOL0     C18047   5.055   7.325   5.657 -1.3417  0.2313 -0.6321
  856MOL0     C18048   4.951   7.352   5.575 -0.2506 -0.1269  0.0767
  856MOL0     O18049   4.828   7.300   5.621 -0.2394 -0.9750  0.1530
  856MOL0     C18050   4.713   7.322   5.537  0.9726 -0.1293  0.2800
  856MOL0     C18051   4.662   7.464   5.566  0.3830  0.0499 -0.0658
  856MOL0     C18052   4.513   7.491   5.523 -0.2458 -0.2988  1.1611
  856MOL0     C18053   4.485   7.519   5.376 -0.2065  0.0560  0.1467
  856MOL0     C18054   4.355   7.576   5.343  0.1789  0.0744  0.4521
  856MOL0     C18055   4.260   7.638   5.307 -0.4875  0.0709 -0.4740
  856MOL0     C18056   4.975   7.418   5.452 -1.0923  1.2855 -0.5576
  856MOL0     C18057   5.103   7.471   5.431  0.2368 -0.2797  0.2774
  856MOL0     C18058   5.113   7.550   5.301  1.0443  0.9247 -0.4106
  856MOL0     H18059   5.460   7.595   5.276 -1.4369  0.3300  1.5242
  856MOL0     H18060   5.667   7.675   5.172 -2.7351  0.5536  0.6960
  856MOL0     H18061   5.834   7.881   5.168 -0.8537 -1.3650  2.6254
  856MOL0     H18062   5.886   7.722   5.109 -1.5424  0.8757 -2.2696
  856MOL0     H18063   6.035   7.959   5.105  1.7884  0.7938  0.1558
  856MOL0     H18064   6.099   7.895   5.243  0.6488 -2.8175 -0.3715
  856MOL0     H18065   6.232   7.834   5.062 -0.7873  1.0126 -4.1996
  856MOL0     H18066   6.158   7.679   5.121  0.0708 -0.0404  0.0803
  856MOL0     H18067   5.981   7.698   4.941  0.6801 -2.3356 -1.0274
  856MOL0     H18068   6.063   7.827   4.865  1.0753  0.7436  1.2345
  856MOL0     H18069   6.203   7.559   4.912  1.2039  1.1282 -0.6062
  856MOL0     H18070   6.262   7.696   4.825 -1.7172  0.7772 -0.7645
  856MOL0     H18071   6.165   7.482   4.703  0.9294  1.5505 -2.8671
  856MOL0     H18072   6.004   7.553   4.743 -1.0349  2.2615  0.5088
  856MOL0     H18073   6.212   7.720   4.593  0.1811 -0.2548 -1.7458
  856MOL0     H18074   6.038   7.728   4.601  1.0829  2.3018 -3.1382
  856MOL0     H18075   6.054   7.492   4.490 -1.3225  1.5051 -1.7603
  856MOL0     H18076   6.073   7.636   4.392  2.3863  4.2877  0.8999
  856MOL0     H18077   6.377   7.702   4.381  1.2876 -0.5246  0.6578
  856MOL0     H18078   6.589   7.593   4.227  1.7941 -0.4236 -0.0735
  856MOL0     H18079   6.631   7.433   4.282 -0.7161  0.5072 -0.3369
  856MOL0     H18080   6.674   7.703   4.434 -0.3327  0.2671 -0.9155
  856MOL0     H18081   6.664   7.552   4.510  0.0951 -0.2366  0.9424
  856MOL0     H18082   6.855   7.477   4.342 -0.3439 -0.0970 -1.9112
  856MOL0     H18083   6.846   7.653   4.296  1.4126 -0.9714 -0.0309
  856MOL0     H18084   7.030   7.620   4.423  0.2620  1.1259  0.1603
  856MOL0     H18085   6.907   7.730   4.503  2.0917  0.4905  0.4708
  856MOL0     H18086   7.016   7.333   4.683  2.4203  0.1702 -3.3500
  856MOL0     H18087   7.289   7.253   4.929  1.2832  0.6747  0.4057
  856MOL0     H18088   7.277   7.203   4.769  1.2737 -0.7043  1.4856
  856MOL0     H18089   7.132   7.197   4.873  0.9970 -0.4297  1.5376
  856MOL0     H18090   7.568   7.763   5.124  2.0953  0.7672 -0.0639
  856MOL0     H18091   7.735   7.723   5.275 -0.9954  0.3355 -0.6671
  856MOL0     H18092   7.710   7.450   5.512  0.1684  2.5841  2.1545
  856MOL0     H18093   7.835   7.330   5.474 -1.3062  0.7780  0.6760
  856MOL0     H18094   7.885   7.507   5.678 -0.4970  0.4145  0.0585
  856MOL0     H18095   8.001   7.416   5.574  0.9648  1.0412 -0.0708
  856MOL0     H18096   7.930   7.703   5.525 -0.2529 -0.4190  2.6915
  856MOL0     H18097   8.050   7.605   5.436  0.9063 -0.9843  0.2983
  856MOL0     H18098   8.186   7.572   5.623 -3.0408 -2.4248  2.7283
  856MOL0     H18099   8.066   7.656   5.728 -0.6519  0.0836  0.0173
  856MOL0     H18100   8.222   7.777   5.491 -0.8104 -2.0449  0.8628
  856MOL0     H18101   8.120   7.863   5.607 -2.6367 -2.8714  1.2411
  856MOL0     H18102   8.382   7.862   5.608 -2.6779  2.3642 -1.4634
  856MOL0     H18103   8.358   7.711   5.691  1.1733  1.3275  1.4303
  856MOL0     H18104   8.197   7.831   5.842  0.0403 -0.2990 -0.4811
  856MOL0     H18105   8.262   7.981   5.784 -0.5571 -0.3120 -2.7145
  856MOL0     H18106   8.416   7.946   5.977  1.4878  2.5973 -1.4330
  856MOL0     H18107   8.499   7.901   5.834 -1.9668  0.3004 -2.6689
  856MOL0     H18108   7.700   7.297   5.238 -0.6347  0.6291  2.1215
  856MOL0     H18109   7.496   7.324   5.085  3.6950 -2.4271  0.4917
  856MOL0     H18110   7.259   7.727   4.815 -2.9129  1.3629  1.8012
  856MOL0     H18111   7.046   7.747   4.695 -0.2959  0.0020  0.7635
  856MOL0     H18112   5.818   7.780   5.547 -1.9816  2.4786  1.8588
  856MOL0     H18113   5.608   7.743   5.654 -2.1269  1.8323 -0.2327
  856MOL0     H18114   5.273   7.352   5.688  0.8073 -0.2884 -1.8172
  856MOL0     H18115   5.031   7.281   5.753  2.2594  0.6242  0.6148
  856MOL0     H18116   4.732   7.302   5.431  3.5539  1.2684  0.3815
  856MOL0     H18117   4.632   7.256   5.567  1.4035 -0.9799 -0.3557
  856MOL0     H18118   4.738   7.538   5.541  2.1177 -0.3068  3.4386
  856MOL0     H18119   4.666   7.496   5.671 -1.7140  0.4761 -0.0668
  856MOL0     H18120   4.442   7.414   5.553  1.5273 -0.9423  4.1866
  856MOL0     H18121   4.489   7.578   5.585  1.2441  3.1285 -2.5587
  856MOL0     H18122   4.506   7.430   5.315  1.0477  0.9851 -0.8517
  856MOL0     H18123   4.555   7.594   5.339 -1.4721  1.0920 -0.2164
  856MOL0     H18124   4.172   7.689   5.273 -0.6704 -1.0218 -1.7224
  856MOL0     H18125   4.887   7.424   5.388 -1.2846  0.5548 -0.3705
  856MOL0     H18126   5.177   7.638   5.308  1.7627  0.6567 -2.7987
  856MOL0     H18127   5.143   7.477   5.226  1.2248 -0.2576  0.7720
  856MOL0     H18128   5.019   7.599   5.274 -1.1122 -0.2698  3.9887
  857MOL0     O18129   3.401   6.373   5.215  0.0969 -0.6447  0.3899
  857MOL0     C18130   3.343   6.398   5.109  0.2786  1.1041  0.0331
  857MOL0     O18131   3.391   6.392   4.987  0.2129  0.2795  1.1558
  857MOL0     C18132   3.510   6.328   4.970 -0.6729 -0.1763  0.3025
  857MOL0     C18133   3.620   6.396   4.915 -0.8396  0.2104 -0.8619
  857MOL0     C18134   3.737   6.327   4.876  0.6244 -0.2778 -0.7461
  857MOL0     C18135   3.755   6.190   4.907  0.7896  0.0721  0.6021
  857MOL0     O18136   3.881   6.135   4.879 -0.4637 -0.0092 -0.2493
  857MOL0     C18137   3.889   5.985   4.873  0.3400 -0.6537  0.4876
  857MOL0     C18138   3.821   5.932   4.745  0.0837  0.0382 -1.1971
  857MOL0     C18139   3.869   5.787   4.733  1.1812  0.3295  0.3032
  857MOL0     C18140   3.914   5.755   4.596  0.7196  0.1299 -0.1475
  857MOL0     C18141   4.049   5.815   4.557  0.0555  0.2936  0.0555
  857MOL0     C18142   4.080   5.795   4.405 -0.2006 -0.0945  0.0419
  857MOL0     C18143   4.182   5.891   4.347 -0.2492  0.4910  0.4158
  857MOL0     C18144   4.315   5.903   4.417 -0.0415  0.2713 -0.4195
  857MOL0     N18145   4.372   5.772   4.450 -0.1264 -0.1514 -0.1580
  857MOL0     C18146   4.394   5.672   4.350  1.2171 -0.5764  0.2349
  857MOL0     C18147   4.498   5.608   4.404 -0.0952  1.0147  0.8284
  857MOL0     C18148   4.594   5.510   4.335 -0.0687 -1.0616 -0.1681
  857MOL0     C18149   4.533   5.386   4.263  0.0249 -0.1923 -0.9030
  857MOL0     C18150   4.572   5.263   4.338  1.1107 -0.6103  0.6008
  857MOL0     C18151   4.491   5.145   4.270  0.0319  0.0104  0.5537
  857MOL0     O18152   4.351   5.167   4.277 -0.4300  0.2005  0.8177
  857MOL0     C18153   4.291   5.172   4.397 -0.2289 -0.1731 -0.0634
  857MOL0     C18154   4.211   5.279   4.420 -0.1869 -0.5008  0.3768
  857MOL0     C18155   4.158   5.301   4.547  1.1271  0.3097  0.0072
  857MOL0     C18156   4.088   5.426   4.574  0.3493 -0.2413  0.5080
  857MOL0     C18157   4.153   5.187   4.640 -0.6687 -0.5928  0.0890
  857MOL0     C18158   4.071   5.168   4.763 -0.6067 -0.2144  0.4982
  857MOL0     O18159   3.970   5.258   4.776  0.1189 -0.1501 -0.0914
  857MOL0     C18160   3.882   5.239   4.877 -1.1102  0.7266 -0.6382
  857MOL0     C18161   3.906   5.292   5.007  0.2248 -0.5456  0.1983
  857MOL0     C18162   3.821   5.264   5.112  0.4917  0.2259  0.7507
  857MOL0     C18163   3.715   5.183   5.101 -0.6547 -0.7857 -1.1710
  857MOL0     O18164   3.636   5.161   5.215 -0.6599 -0.5114  0.0214
  857MOL0     C18165   3.570   5.030   5.225  0.2413 -0.8578 -0.0301
  857MOL0     C18166   3.455   5.031   5.320  0.4123 -0.2624  0.2674
  857MOL0     C18167   3.342   5.135   5.272  1.2116  0.3013  0.2778
  857MOL0     C18168   3.257   5.068   5.167  0.3204  0.7499  0.5123
  857MOL0     C18169   3.135   5.153   5.126 -0.3378  0.6300 -0.6333
  857MOL0     C18170   3.051   5.064   5.034  0.0367  0.8977 -0.4436
  857MOL0     C18171   2.930   5.132   4.968 -0.6483 -0.1650  0.4685
  857MOL0     C18172   2.812   5.163   5.068 -0.4162  1.8793  0.2581
  857MOL0    Cl18173   2.653   5.130   4.984  0.4010  0.1372  0.1053
  857MOL0     C18174   3.693   5.140   4.971 -0.2230 -0.7521 -0.3831
  857MOL0     C18175   3.777   5.161   4.867 -0.4116 -0.1517  0.5011
  857MOL0     O18176   4.104   5.090   4.849  0.6360  0.4481  1.1852
  857MOL0     C18177   4.226   5.071   4.595 -0.2761  0.0358  0.0154
  857MOL0     C18178   4.304   5.062   4.481 -0.5632  0.2178  0.2157
  857MOL0     N18179   4.517   5.642   4.533  0.6006 -0.3272  0.1808
  857MOL0     N18180   4.441   5.746   4.563 -0.2825  0.0993  0.4818
  857MOL0     C18181   3.648   6.130   4.973 -0.2925  0.3744 -0.3390
  857MOL0     C18182   3.527   6.192   4.997  1.4057  0.5483 -0.1612
  857MOL0     C18183   3.195   6.448   5.122 -0.5874 -0.2514  1.6334
  857MOL0     C18184   3.147   6.537   5.029 -0.2788  0.0310 -0.2004
  857MOL0     C18185   3.014   6.594   5.027 -0.4626 -0.1343 -0.8813
  857MOL0     C18186   2.931   6.564   5.139  0.5592  0.0745 -0.2051
  857MOL0     O18187   2.806   6.612   5.156 -0.0284  0.0789 -0.6956
  857MOL0     C18188   2.770   6.728   5.078 -0.0666  0.1684 -0.0936
  857MOL0     C18189   2.652   6.770   5.160  0.4071 -0.3879  0.0797
  857MOL0     C18190   2.659   6.929   5.184 -0.6381  1.3322 -1.0116
  857MOL0     C18191   2.623   7.009   5.061 -0.0053 -0.5468  0.1529
  857MOL0     C18192   2.570   7.139   5.094  0.0356  0.2291 -0.7440
  857MOL0     C18193   2.536   7.257   5.120 -1.2239  0.1269  0.0816
  857MOL0     C18194   2.979   6.466   5.228  0.0374 -0.6512  0.8543
  857MOL0     C18195   3.103   6.402   5.214  0.1699  0.3219 -0.2780
  857MOL0     C18196   3.124   6.271   5.299  0.0963  0.7187 -0.1773
  857MOL0     H18197   3.607   6.500   4.885 -0.2098  0.5961  0.1071
  857MOL0     H18198   3.815   6.388   4.831  0.5193  0.5783  0.1891
  857MOL0     H18199   3.849   5.939   4.964 -0.2109 -0.2911  0.4261
  857MOL0     H18200   3.996   5.962   4.863  1.0372  2.7942 -1.7601
  857MOL0     H18201   3.712   5.942   4.754 -0.2676 -2.9279 -0.8813
  857MOL0     H18202   3.855   5.990   4.659 -0.7818 -1.7343 -2.8246
  857MOL0     H18203   3.951   5.762   4.801 -0.3512  0.2237  2.1926
  857MOL0     H18204   3.789   5.716   4.756  2.9051 -0.7016  3.8175
  857MOL0     H18205   3.921   5.646   4.594  0.5224  0.1227 -0.3768
  857MOL0     H18206   3.838   5.786   4.524  0.5406  2.0081  0.7740
  857MOL0     H18207   4.133   5.782   4.619 -2.2848 -1.1930  2.6615
  857MOL0     H18208   4.043   5.922   4.576 -0.7613  0.2897 -0.1712
  857MOL0     H18209   4.112   5.693   4.381  2.8015 -0.7448  5.2753
  857MOL0     H18210   3.980   5.815   4.366 -0.3656  0.4080  0.7135
  857MOL0     H18211   4.139   5.991   4.335  0.2165  0.4608 -2.1364
  857MOL0     H18212   4.197   5.858   4.244 -1.4675  1.6573 -0.1592
  857MOL0     H18213   4.385   5.959   4.355 -1.1674  1.5701 -0.5745
  857MOL0     H18214   4.311   5.952   4.515 -1.1663 -0.9319  0.1771
  857MOL0     H18215   4.355   5.682   4.250 -0.3253  0.8452  0.9199
  857MOL0     H18216   4.666   5.472   4.408  3.4163  0.1099 -2.7123
  857MOL0     H18217   4.657   5.567   4.266  1.6780 -0.8704  1.4807
  857MOL0     H18218   4.428   5.407   4.241 -0.5386  0.2613  1.8352
  857MOL0     H18219   4.575   5.355   4.166  0.9604 -3.8356  0.4948
  857MOL0     H18220   4.678   5.238   4.323  0.5612 -1.9153 -1.4187
  857MOL0     H18221   4.543   5.273   4.443 -2.1020  1.4887 -0.3360
  857MOL0     H18222   4.523   5.128   4.167  0.8867  1.1017  0.6173
  857MOL0     H18223   4.524   5.047   4.304  0.4165 -0.8862 -2.1445
  857MOL0     H18224   4.225   5.371   4.363  2.0329  0.2142  1.9307
  857MOL0     H18225   3.986   5.421   4.533  0.4213 -2.5254  0.5056
  857MOL0     H18226   4.140   5.513   4.531  0.2660  1.3279  3.3689
  857MOL0     H18227   4.075   5.444   4.681  3.9889 -0.9744  1.1998
  857MOL0     H18228   3.996   5.350   5.025 -1.4136  1.9710  0.7006
  857MOL0     H18229   3.842   5.299   5.212  3.3990  0.0246  0.2815
  857MOL0     H18230   3.528   5.010   5.127  0.4059  0.4461 -0.3946
  857MOL0     H18231   3.644   4.954   5.253  1.2574  0.8645  2.3606
  857MOL0     H18232   3.422   4.929   5.344  1.9306 -1.0016 -0.6217
  857MOL0     H18233   3.488   5.070   5.416  1.7237  0.1039 -0.3134
  857MOL0     H18234   3.384   5.225   5.227  0.0301  0.8577  0.2836
  857MOL0     H18235   3.275   5.173   5.349  2.0133  1.6213  0.3501
  857MOL0     H18236   3.216   4.977   5.212 -4.7822  1.3637 -2.0995
  857MOL0     H18237   3.325   5.050   5.084  3.5749 -0.6666  3.2454
  857MOL0     H18238   3.078   5.179   5.215  0.1271  0.6152 -0.3338
  857MOL0     H18239   3.169   5.246   5.079  0.5803 -0.2895 -1.8470
  857MOL0     H18240   3.014   4.968   5.072  0.4182  0.1241 -1.9196
  857MOL0     H18241   3.110   5.028   4.949 -0.2635 -0.5566 -0.0811
  857MOL0     H18242   2.882   5.065   4.896  0.0522 -0.8625  0.6461
  857MOL0     H18243   2.970   5.224   4.925  0.6949 -1.7285 -1.7781
  857MOL0     H18244   2.812   5.262   5.115 -4.3600  0.6558  3.3290
  857MOL0     H18245   2.821   5.101   5.157  1.5580  1.6866 -0.0185
  857MOL0     H18246   3.611   5.071   4.952  1.1819 -2.3219 -0.9644
  857MOL0     H18247   3.754   5.114   4.772  0.6814 -0.5078  0.3936
  857MOL0     H18248   4.230   4.985   4.660  0.0849  0.5213  0.6510
  857MOL0     H18249   4.367   4.978   4.457 -2.8830 -1.5223 -0.1882
  857MOL0     H18250   3.656   6.030   5.015  1.0153  0.0727 -1.2443
  857MOL0     H18251   3.461   6.123   5.049  0.6228  1.5395  0.2110
  857MOL0     H18252   3.201   6.557   4.937  0.5569  0.9107  0.4599
  857MOL0     H18253   2.985   6.672   4.958  1.8183  1.0343 -0.6168
  857MOL0     H18254   2.842   6.809   5.062 -0.5270  0.6309  0.1832
  857MOL0     H18255   2.739   6.689   4.980  2.1755  2.1123 -1.7001
  857MOL0     H18256   2.652   6.715   5.254  0.5260 -0.1326  0.2310
  857MOL0     H18257   2.563   6.744   5.101 -1.2647  1.3810  1.6962
  857MOL0     H18258   2.594   6.938   5.271  1.8855  1.8241  0.9689
  857MOL0     H18259   2.752   6.969   5.225  1.4057 -0.9758 -3.0413
  857MOL0     H18260   2.544   6.953   5.010 -2.0913  2.7606 -0.5494
  857MOL0     H18261   2.712   7.008   4.997 -0.8500 -3.4120 -1.1492
  857MOL0     H18262   2.519   7.356   5.159  0.0105  0.3025  0.2305
  857MOL0     H18263   2.917   6.436   5.313  2.0732  0.0984  2.7044
  857MOL0     H18264   3.025   6.225   5.308  0.6881 -0.5328  0.1645
  857MOL0     H18265   3.184   6.206   5.236 -0.3093  1.8454 -1.8066
  857MOL0     H18266   3.173   6.287   5.396  2.3183 -1.0824 -0.9386
  858MOL0     O18267   4.661   9.160  11.533  0.1288 -0.2510  0.3760
  858MOL0     C18268   4.579   9.259  11.546  0.5475 -0.8702  0.2210
  858MOL0     O18269   4.537   9.343  11.446  0.5259 -0.5263 -0.5095
  858MOL0     C18270   4.574   9.314  11.318 -0.2598  0.0252  0.1049
  858MOL0     C18271   4.508   9.209  11.252 -0.5401 -1.3592  0.5668
  858MOL0     C18272   4.560   9.165  11.134  0.1442  0.1346  0.9067
  858MOL0     C18273   4.671   9.222  11.070 -0.3139  0.5931 -0.5713
  858MOL0     O18274   4.714   9.176  10.949  0.0854 -0.1729 -0.1837
  858MOL0     C18275   4.774   9.265  10.846 -0.3503 -0.2918 -0.7850
  858MOL0     C18276   4.704   9.412  10.831  0.8919 -0.3562  0.0849
  858MOL0     C18277   4.561   9.383  10.770 -0.3312  0.3333  0.8182
  858MOL0     C18278   4.487   9.515  10.723 -0.5255  0.2700 -0.4163
  858MOL0     C18279   4.339   9.489  10.684 -0.2271  0.1114  0.3181
  858MOL0     C18280   4.277   9.628  10.634 -0.0228 -0.0196  0.6641
  858MOL0     C18281   4.251   9.716  10.749  0.2058  0.1555  0.1744
  858MOL0     C18282   4.138   9.820  10.715 -0.2555  0.3293  0.2568
  858MOL0     N18283   4.166   9.906  10.605  0.2158  0.4924 -0.2910
  858MOL0     C18284   4.226  10.032  10.608 -0.3842 -0.2559  0.9594
  858MOL0     C18285   4.232  10.073  10.479  0.6126  0.5065  0.3084
  858MOL0     C18286   4.288  10.202  10.431  0.7377 -0.5696 -0.8534
  858MOL0     C18287   4.171  10.304  10.411 -0.6477 -0.7010  0.5879
  858MOL0     C18288   4.241  10.443  10.383  0.3240 -0.3550  0.1079
  858MOL0     C18289   4.347  10.504  10.482  0.2657 -1.3507  1.0218
  858MOL0     O18290   4.365  10.652  10.478  0.3678 -0.4400 -0.8495
  858MOL0     C18291   4.464  10.707  10.556 -0.1611  0.6833 -0.3738
  858MOL0     C18292   4.475  10.844  10.570  2.3404 -0.1321  0.4798
  858MOL0     C18293   4.554  10.906  10.667  0.9751 -0.5211 -0.3043
  858MOL0     C18294   4.581  11.059  10.664 -0.2980  0.5417  0.2456
  858MOL0     C18295   4.611  10.825  10.757 -0.5784  0.2946 -0.4143
  858MOL0     C18296   4.686  10.869  10.876 -0.0187 -1.0936  0.0825
  858MOL0     O18297   4.806  10.824  10.905 -0.4858  0.5960  1.6135
  858MOL0     C18298   4.874  10.867  11.020 -0.3517 -0.0663  0.2570
  858MOL0     C18299   5.004  10.906  11.003  0.0835 -0.6445  0.5356
  858MOL0     C18300   5.078  10.936  11.119 -0.9311  0.3636  0.2032
  858MOL0     C18301   5.031  10.934  11.248 -0.2378  0.2921 -0.3062
  858MOL0     O18302   5.113  10.951  11.353 -0.4820 -0.4991 -0.6992
  858MOL0     C18303   5.060  10.943  11.490  0.1241 -0.5012  0.8315
  858MOL0     C18304   5.164  10.981  11.595  0.0726  0.4267  0.5516
  858MOL0     C18305   5.241  11.113  11.559 -0.2687  0.6546 -0.0259
  858MOL0     C18306   5.147  11.232  11.572  0.4161  0.6875 -0.4293
  858MOL0     C18307   5.206  11.370  11.525 -0.1318  0.5013  0.7982
  858MOL0     C18308   5.187  11.409  11.376  0.2795 -0.0867 -0.5944
  858MOL0     C18309   5.233  11.549  11.366 -0.3002  0.5355  0.1625
  858MOL0     C18310   5.149  11.624  11.260 -0.1989  0.3572 -0.4353
  858MOL0    Cl18311   5.174  11.546  11.102 -0.6055 -0.3824 -0.0704
  858MOL0     C18312   4.898  10.903  11.268  0.2783 -0.5951  0.1787
  858MOL0     C18313   4.823  10.861  11.152 -0.2454 -0.2569 -0.1015
  858MOL0     O18314   4.627  10.960  10.934  0.6188  0.1183 -0.3477
  858MOL0     C18315   4.598  10.688  10.756  0.1215  0.2654  0.6954
  858MOL0     C18316   4.527  10.628  10.658  0.0359 -0.7229 -0.0833
  858MOL0     N18317   4.174   9.974  10.401 -0.2805  0.1260  0.1474
  858MOL0     N18318   4.136   9.874  10.478 -0.2611  0.3888 -0.6038
  858MOL0     C18319   4.733   9.328  11.133 -0.1183  0.2440  0.2984
  858MOL0     C18320   4.689   9.375  11.257  0.2862 -0.1110 -0.6938
  858MOL0     C18321   4.520   9.295  11.681 -0.5481  0.4722  0.5704
  858MOL0     C18322   4.396   9.358  11.687  0.5841 -0.1908  0.1785
  858MOL0     C18323   4.314   9.372  11.795 -0.7322 -0.7590  0.2807
  858MOL0     C18324   4.368   9.331  11.922 -0.2787  0.2211 -0.3871
  858MOL0     O18325   4.293   9.338  12.042 -0.7290  0.3239  0.2547
  858MOL0     C18326   4.343   9.272  12.157 -0.2266  0.4471  0.6045
  858MOL0     C18327   4.255   9.329  12.275 -0.6543  0.5852  0.7861
  858MOL0     C18328   4.248   9.489  12.274  0.2484 -0.6759 -0.0546
  858MOL0     C18329   4.177   9.540  12.399 -0.5273  0.2271  0.7588
  858MOL0     C18330   4.040   9.489  12.409 -1.0120  0.0135 -0.3552
  858MOL0     C18331   3.921   9.473  12.416 -0.9149 -0.1063 -0.2366
  858MOL0     C18332   4.495   9.265  11.922 -0.0174 -0.7344 -0.3435
  858MOL0     C18333   4.577   9.254  11.807  0.6957  0.3802 -0.8201
  858MOL0     C18334   4.699   9.173  11.823 -0.7276  0.0429  0.0387
  858MOL0     H18335   4.426   9.160  11.303 -0.1614 -1.7810  0.7835
  858MOL0     H18336   4.513   9.086  11.076  0.1740  0.9668 -0.2907
  858MOL0     H18337   4.763   9.209  10.753 -3.2338 -0.4339 -0.4434
  858MOL0     H18338   4.876   9.288  10.878 -0.3497  0.0789 -1.0528
  858MOL0     H18339   4.693   9.465  10.926 -0.0594 -1.6376  0.7203
  858MOL0     H18340   4.758   9.475  10.760 -0.5531  0.4583 -0.3313
  858MOL0     H18341   4.578   9.321  10.681 -1.1186  0.4731  0.5622
  858MOL0     H18342   4.514   9.329  10.852  0.4009 -3.5706 -1.1054
  858MOL0     H18343   4.489   9.588  10.804 -0.4015 -1.0488  0.8140
  858MOL0     H18344   4.540   9.558  10.638 -0.7472  5.3584  1.6422
  858MOL0     H18345   4.275   9.446  10.762  0.7609 -0.8500  0.6104
  858MOL0     H18346   4.335   9.421  10.598  0.2924 -0.3179  0.6303
  858MOL0     H18347   4.340   9.673  10.556  0.3789  0.0370  1.0175
  858MOL0     H18348   4.181   9.605  10.587  0.2919  1.8001 -1.0529
  858MOL0     H18349   4.340   9.776  10.771  0.3674 -0.1954  0.5061
  858MOL0     H18350   4.233   9.676  10.849 -0.8601  2.8470  1.1536
  858MOL0     H18351   4.051   9.761  10.686  0.5684 -0.3843 -0.8769
  858MOL0     H18352   4.108   9.872  10.806 -2.0753  1.6992 -1.0548
  858MOL0     H18353   4.246  10.090  10.697 -0.7540  0.7388  0.4118
  858MOL0     H18354   4.320  10.171  10.331  2.2027 -2.6559  0.1805
  858MOL0     H18355   4.379  10.230  10.485  1.1278  1.2407 -2.3541
  858MOL0     H18356   4.107  10.255  10.337 -1.0880 -0.9150  1.1061
  858MOL0     H18357   4.113  10.318  10.502  0.7434  0.5167  1.3403
  858MOL0     H18358   4.283  10.442  10.282  1.0705 -2.5929  0.4016
  858MOL0     H18359   4.161  10.518  10.387  0.2538 -0.4737  1.4662
  858MOL0     H18360   4.308  10.480  10.581 -2.3902 -0.5349  0.2520
  858MOL0     H18361   4.442  10.450  10.473  0.2156 -1.3827  0.6770
  858MOL0     H18362   4.418  10.902  10.498  1.3952 -0.1657  1.1904
  858MOL0     H18363   4.673  11.059  10.605 -1.7007 -1.6992 -2.2177
  858MOL0     H18364   4.589  11.107  10.761  1.3174  1.2626 -0.2220
  858MOL0     H18365   4.506  11.110  10.602  0.8356 -1.1819 -2.7610
  858MOL0     H18366   5.040  10.915  10.901  0.8505 -0.4061  0.8130
  858MOL0     H18367   5.180  10.973  11.106 -0.4003 -1.3607 -0.7999
  858MOL0     H18368   4.974  11.001  11.524 -0.2919 -1.7303  1.9877
  858MOL0     H18369   5.029  10.838  11.496 -0.5676 -0.4133 -0.6766
  858MOL0     H18370   5.129  10.990  11.699 -1.5000  1.6354 -0.0372
  858MOL0     H18371   5.238  10.900  11.596  1.9188  1.8521 -2.8107
  858MOL0     H18372   5.276  11.105  11.456 -0.5631 -0.6786 -0.0355
  858MOL0     H18373   5.323  11.127  11.630  0.8925 -1.7754 -0.7936
  858MOL0     H18374   5.121  11.226  11.678 -0.4359 -1.9989 -0.7166
  858MOL0     H18375   5.053  11.216  11.519 -1.1030 -0.4865  2.4342
  858MOL0     H18376   5.151  11.442  11.587  1.3847  0.9052  1.7483
  858MOL0     H18377   5.315  11.376  11.538 -0.3740  1.5634  2.8342
  858MOL0     H18378   5.082  11.408  11.344 -0.0913 -0.8121  0.5447
  858MOL0     H18379   5.237  11.340  11.308 -1.6537 -0.0979 -2.0830
  858MOL0     H18380   5.337  11.546  11.329 -0.5532 -0.4124 -0.5054
  858MOL0     H18381   5.226  11.609  11.457  0.5285  3.3890 -1.4996
  858MOL0     H18382   5.186  11.726  11.254 -1.9209  0.9168 -5.0810
  858MOL0     H18383   5.047  11.630  11.298  0.1921  1.4901  0.5099
  858MOL0     H18384   4.841  10.906  11.360  1.2532 -0.5603  0.7919
  858MOL0     H18385   4.715  10.850  11.164 -0.6363  0.8965 -2.1945
  858MOL0     H18386   4.651  10.639  10.836  1.2021  1.5480  0.8010
  858MOL0     H18387   4.512  10.521  10.668 -1.6172 -0.4805  0.2499
  858MOL0     H18388   4.825   9.372  11.094 -2.4282  4.2159 -1.2766
  858MOL0     H18389   4.748   9.450  11.309  3.3894 -0.7412 -2.9732
  858MOL0     H18390   4.341   9.401  11.604 -2.0509 -2.1434  0.7760
  858MOL0     H18391   4.220   9.426  11.789 -1.7395 -2.4967  0.0117
  858MOL0     H18392   4.344   9.163  12.142  1.0716  0.4008  0.8971
  858MOL0     H18393   4.445   9.302  12.183  0.5814 -2.1209  0.6890
  858MOL0     H18394   4.304   9.290  12.365  2.5902 -1.1186 -1.4865
  858MOL0     H18395   4.152   9.294  12.261 -1.1353  2.3467 -0.3540
  858MOL0     H18396   4.346   9.533  12.251 -1.0213  1.3082 -2.0624
  858MOL0     H18397   4.190   9.531  12.192 -0.1740 -1.2172 -0.0381
  858MOL0     H18398   4.163   9.649  12.397 -3.1407 -0.0475 -0.1067
  858MOL0     H18399   4.233   9.512  12.489  0.1933 -1.8864 -0.2866
  858MOL0     H18400   3.821   9.448  12.444 -0.1209 -3.2454  0.2051
  858MOL0     H18401   4.541   9.221  12.010 -0.6814  2.7908  1.9659
  858MOL0     H18402   4.742   9.144  11.919  1.4863 -0.2356 -0.9790
  858MOL0     H18403   4.691   9.082  11.762 -1.0724 -2.2189  3.2042
  858MOL0     H18404   4.778   9.240  11.787  1.5728 -3.0451 -1.0668
  859MOL0     O18405   2.647   1.236   3.344  0.5607 -0.3609 -0.0301
  859MOL0     C18406   2.568   1.177   3.421  0.4258 -1.1211  1.0062
  859MOL0     O18407   2.436   1.215   3.434 -0.6104  0.4684  0.3102
  859MOL0     C18408   2.409   1.344   3.396  0.4897  0.6259 -0.0028
  859MOL0     C18409   2.480   1.458   3.427 -0.1427 -0.3060  0.8065
  859MOL0     C18410   2.436   1.587   3.400 -0.8576 -0.2421  0.7880
  859MOL0     C18411   2.310   1.603   3.330 -0.5511 -0.5935  0.2063
  859MOL0     O18412   2.261   1.729   3.308  0.5314 -0.1431  0.0508
  859MOL0     C18413   2.360   1.830   3.290 -0.2598  0.0184  0.2284
  859MOL0     C18414   2.291   1.954   3.232  0.0046 -0.2376 -1.0264
  859MOL0     C18415   2.212   1.936   3.102  0.5808  0.0157 -0.6302
  859MOL0     C18416   2.303   1.874   2.997 -0.0400 -0.2305  0.2895
  859MOL0     C18417   2.216   1.847   2.869 -1.3899 -0.1231 -0.3657
  859MOL0     C18418   2.293   1.781   2.760 -0.2776  0.0122  0.6782
  859MOL0     C18419   2.208   1.700   2.661 -0.3894 -0.4306 -0.2416
  859MOL0     C18420   2.298   1.623   2.560 -0.6595  0.2269 -0.1584
  859MOL0     N18421   2.373   1.712   2.457  0.0133  1.4762 -0.3500
  859MOL0     C18422   2.319   1.834   2.410 -0.7263 -0.4199  0.5387
  859MOL0     C18423   2.425   1.895   2.356 -0.2894 -0.7015 -0.0989
  859MOL0     C18424   2.431   2.041   2.310  0.8156  0.0150  1.3663
  859MOL0     C18425   2.287   2.101   2.279 -0.5817 -0.3157  0.1609
  859MOL0     C18426   2.290   2.253   2.256 -1.7937 -0.2890 -0.3241
  859MOL0     C18427   2.325   2.340   2.390 -0.0633 -0.2740 -0.0921
  859MOL0     O18428   2.209   2.316   2.474  0.3465  0.9659 -0.2248
  859MOL0     C18429   2.228   2.353   2.609 -0.2432  0.4754 -0.0173
  859MOL0     C18430   2.226   2.485   2.642 -0.0226 -1.0621 -0.6694
  859MOL0     C18431   2.256   2.527   2.778 -0.6561 -0.4643 -0.8102
  859MOL0     C18432   2.265   2.678   2.803 -0.3044 -0.7996  0.2903
  859MOL0     C18433   2.279   2.430   2.880  0.6031 -0.2842 -0.3379
  859MOL0     C18434   2.308   2.452   3.024 -0.0871 -0.7945 -0.3090
  859MOL0     O18435   2.272   2.358   3.121  0.3893 -0.0853  0.7787
  859MOL0     C18436   2.289   2.382   3.256 -0.2743 -0.3427 -0.0743
  859MOL0     C18437   2.416   2.385   3.322 -0.2006  0.0742  0.0719
  859MOL0     C18438   2.429   2.427   3.448 -0.4923 -0.0199 -0.1030
  859MOL0     C18439   2.314   2.435   3.526 -0.0022  0.0869 -0.3094
  859MOL0     O18440   2.319   2.453   3.661  0.0252 -0.5377  0.7893
  859MOL0     C18441   2.425   2.376   3.734 -0.4695 -0.0793  0.1814
  859MOL0     C18442   2.404   2.400   3.886  0.7545 -0.4390  0.8583
  859MOL0     C18443   2.510   2.313   3.961 -0.3643 -0.7033  0.3709
  859MOL0     C18444   2.480   2.354   4.106 -0.5702  0.2061  0.0466
  859MOL0     C18445   2.576   2.291   4.203  0.1560  0.6992  0.3227
  859MOL0     C18446   2.713   2.357   4.223  1.8847  0.4954  0.5534
  859MOL0     C18447   2.801   2.250   4.306  0.9358 -0.5904  0.2608
  859MOL0     C18448   2.941   2.312   4.326 -0.1631 -0.9519  1.0880
  859MOL0    Cl18449   3.030   2.376   4.183 -0.7531  0.3313  0.1816
  859MOL0     C18450   2.188   2.425   3.464  0.4390 -0.3381  0.6996
  859MOL0     C18451   2.173   2.399   3.331 -0.0641  0.2470 -0.3675
  859MOL0     O18452   2.362   2.560   3.057 -0.9047 -0.1358 -0.1473
  859MOL0     C18453   2.286   2.298   2.847  0.6570  0.2255 -0.1793
  859MOL0     C18454   2.258   2.255   2.714 -0.1852 -0.4844  0.0035
  859MOL0     N18455   2.528   1.808   2.356 -0.7385 -0.1749  0.2096
  859MOL0     N18456   2.497   1.694   2.407 -0.3858  0.1601 -0.2776
  859MOL0     C18457   2.238   1.493   3.287  0.3118 -0.5090  0.0276
  859MOL0     C18458   2.288   1.364   3.325 -0.2685 -0.1371  0.2723
  859MOL0     C18459   2.616   1.064   3.487 -0.3896  0.4750  0.6708
  859MOL0     C18460   2.527   0.998   3.570 -0.0240 -0.8860 -0.8217
  859MOL0     C18461   2.548   0.883   3.639 -0.4227 -0.2414 -0.3901
  859MOL0     C18462   2.679   0.845   3.653 -0.8796 -0.0119 -0.8626
  859MOL0     O18463   2.723   0.752   3.740  1.0295  0.3475  0.6599
  859MOL0     C18464   2.634   0.677   3.827  0.4486 -0.0999 -0.5243
  859MOL0     C18465   2.553   0.566   3.763  0.6142  0.2839  0.9344
  859MOL0     C18466   2.479   0.471   3.861  0.2474  0.2387  0.6654
  859MOL0     C18467   2.437   0.344   3.787  0.6380 -0.3582  1.2519
  859MOL0     C18468   2.327   0.280   3.870  0.6660  0.2008 -0.7602
  859MOL0     C18469   2.244   0.226   3.942 -0.0677 -0.0811  0.1767
  859MOL0     C18470   2.777   0.903   3.570  0.1789  0.2782 -0.7482
  859MOL0     C18471   2.747   1.012   3.493 -1.3576 -0.3245  0.6803
  859MOL0     C18472   2.849   1.078   3.400  0.0380 -0.3135  0.1387
  859MOL0     H18473   2.580   1.455   3.470 -0.7200 -0.4766  2.1785
  859MOL0     H18474   2.492   1.679   3.411  0.0647 -0.9636  2.3500
  859MOL0     H18475   2.422   1.793   3.207  0.6487  5.3393 -1.8694
  859MOL0     H18476   2.418   1.864   3.376 -1.2111 -1.1756  1.3680
  859MOL0     H18477   2.225   2.008   3.301  2.8475  3.2586 -0.7435
  859MOL0     H18478   2.363   2.036   3.228 -1.6676  1.7652  3.1698
  859MOL0     H18479   2.120   1.878   3.105  1.1099 -0.8544 -0.6624
  859MOL0     H18480   2.199   2.041   3.075  2.5489  1.1289  2.1906
  859MOL0     H18481   2.393   1.934   2.982  1.4012 -2.5769 -1.1703
  859MOL0     H18482   2.332   1.773   3.029 -1.0541 -1.2850 -1.8762
  859MOL0     H18483   2.152   1.928   2.832 -1.8672 -1.0280 -1.6085
  859MOL0     H18484   2.144   1.772   2.901  1.1922 -2.6280 -0.0341
  859MOL0     H18485   2.358   1.857   2.717 -2.2431  2.3118  1.5447
  859MOL0     H18486   2.369   1.713   2.801 -0.2534 -0.3163  0.0998
  859MOL0     H18487   2.134   1.761   2.608  0.5088  2.6109  1.7770
  859MOL0     H18488   2.151   1.636   2.729  0.1505 -1.8599 -1.0824
  859MOL0     H18489   2.366   1.569   2.627 -2.7057  0.6617  2.4455
  859MOL0     H18490   2.243   1.547   2.503  0.1375 -0.4168 -0.0899
  859MOL0     H18491   2.220   1.875   2.431 -2.3217 -3.1586 -0.9560
  859MOL0     H18492   2.489   2.037   2.217 -0.4818 -0.7197  0.5481
  859MOL0     H18493   2.484   2.097   2.387 -1.3327  1.6213  1.7938
  859MOL0     H18494   2.249   2.071   2.182  0.2876 -1.2412  0.0971
  859MOL0     H18495   2.218   2.079   2.361  1.4605  0.7063  2.2743
  859MOL0     H18496   2.367   2.272   2.180 -2.0617  0.8636 -0.3164
  859MOL0     H18497   2.204   2.300   2.208 -0.8263  2.4825  0.4787
  859MOL0     H18498   2.422   2.317   2.435  0.8854  1.7394 -0.9742
  859MOL0     H18499   2.355   2.441   2.362  0.9943 -1.4939 -4.0148
  859MOL0     H18500   2.222   2.562   2.565  3.5071  0.0870  0.0562
  859MOL0     H18501   2.228   2.731   2.715  2.8290  1.6933  0.3055
  859MOL0     H18502   2.362   2.714   2.840  0.6919  2.1957 -4.4477
  859MOL0     H18503   2.189   2.689   2.881 -1.0937 -2.2195 -0.2430
  859MOL0     H18504   2.507   2.371   3.265  0.1252  0.8359  0.3914
  859MOL0     H18505   2.523   2.438   3.501 -1.1934 -3.3080  2.1202
  859MOL0     H18506   2.411   2.268   3.724  2.7327 -0.5452 -0.5111
  859MOL0     H18507   2.527   2.400   3.702 -0.0494 -1.1439  0.6859
  859MOL0     H18508   2.419   2.505   3.915 -3.5771 -0.2996  3.4052
  859MOL0     H18509   2.304   2.371   3.917  0.3135 -0.1192 -0.2214
  859MOL0     H18510   2.614   2.328   3.931 -0.8995 -0.0290 -1.3258
  859MOL0     H18511   2.484   2.210   3.937 -0.6162 -0.0464 -2.6951
  859MOL0     H18512   2.375   2.332   4.126 -0.7975  2.0392  1.1013
  859MOL0     H18513   2.492   2.460   4.129  2.4440  0.5684 -2.4717
  859MOL0     H18514   2.521   2.285   4.297  1.0548 -1.9235  0.7735
  859MOL0     H18515   2.578   2.189   4.163  1.6352 -0.2587  2.6402
  859MOL0     H18516   2.709   2.460   4.260 -1.8949  0.0241  1.9966
  859MOL0     H18517   2.759   2.360   4.124 -1.1610  0.3662 -1.0051
  859MOL0     H18518   2.816   2.152   4.261 -1.5690 -0.1099 -1.8558
  859MOL0     H18519   2.746   2.248   4.401  1.1729  1.9836  0.5351
  859MOL0     H18520   2.998   2.238   4.383  1.7804 -0.0882  0.3854
  859MOL0     H18521   2.937   2.400   4.391 -2.4330  0.4703 -0.8171
  859MOL0     H18522   2.101   2.444   3.526  1.2358 -0.5797  1.9276
  859MOL0     H18523   2.084   2.391   3.268 -0.3643 -0.6864  0.1554
  859MOL0     H18524   2.288   2.227   2.929  1.4730  3.6988  3.0838
  859MOL0     H18525   2.239   2.151   2.692  2.8647 -0.6208 -2.7148
  859MOL0     H18526   2.137   1.492   3.246 -0.3259 -0.8052  1.5304
  859MOL0     H18527   2.229   1.283   3.286 -1.5270  1.3971 -1.1559
  859MOL0     H18528   2.429   1.042   3.587 -0.3893 -2.2861  0.9674
  859MOL0     H18529   2.467   0.841   3.697  1.2860  0.4836  2.7441
  859MOL0     H18530   2.689   0.636   3.912 -1.3977  0.1702  0.8512
  859MOL0     H18531   2.573   0.755   3.873  2.3599  0.0048  2.0423
  859MOL0     H18532   2.620   0.511   3.696  0.0867  2.0220 -1.1464
  859MOL0     H18533   2.480   0.615   3.698 -0.9606 -1.5397  1.2506
  859MOL0     H18534   2.549   0.444   3.940  2.6449 -0.0486 -1.4053
  859MOL0     H18535   2.396   0.527   3.903  0.9014  3.1404 -1.5676
  859MOL0     H18536   2.524   0.281   3.771 -0.7830 -2.0873 -0.2025
  859MOL0     H18537   2.411   0.363   3.682  2.6352 -0.3349  0.7315
  859MOL0     H18538   2.167   0.169   3.990 -0.4536  0.8235  0.6540
  859MOL0     H18539   2.878   0.870   3.592 -1.6375 -3.9276  3.0196
  859MOL0     H18540   2.945   1.026   3.398 -0.8096 -2.0309  1.0634
  859MOL0     H18541   2.817   1.075   3.296  1.6080 -1.3848 -0.3414
  859MOL0     H18542   2.863   1.180   3.437  0.8640 -0.0493 -0.8850
  860MOL0     O18543   9.360   7.458  11.223 -0.5071 -0.2283 -0.5179
  860MOL0     C18544   9.466   7.522  11.220 -1.0589 -0.0008 -0.9506
  860MOL0     O18545   9.512   7.600  11.316  0.0467  1.2508  0.2335
  860MOL0     C18546   9.445   7.623  11.434  0.2198 -1.2046  0.5017
  860MOL0     C18547   9.502   7.723  11.518  0.4376  0.5288  0.8366
  860MOL0     C18548   9.449   7.767  11.640  1.0881 -0.2973 -0.3749
  860MOL0     C18549   9.326   7.714  11.679  0.4859  0.5880 -0.5682
  860MOL0     O18550   9.269   7.772  11.787 -0.6531  0.2634  0.1074
  860MOL0     C18551   9.150   7.722  11.848  0.5931  1.2165  0.2820
  860MOL0     C18552   9.118   7.810  11.964 -0.9211  1.5251  0.1815
  860MOL0     C18553   8.995   7.761  12.048  0.0233  0.0183  0.0114
  860MOL0     C18554   8.855   7.818  12.010  0.3254  0.7682 -0.1661
  860MOL0     C18555   8.742   7.792  12.114  0.6522  0.4661 -0.5034
  860MOL0     C18556   8.733   7.897  12.221 -0.4493 -0.2444  0.2344
  860MOL0     C18557   8.602   7.878  12.304  0.3818 -0.1889 -0.9511
  860MOL0     C18558   8.482   7.916  12.223 -0.7821  0.2254 -0.8359
  860MOL0     N18559   8.482   8.057  12.176  0.2405  0.5129 -0.4670
  860MOL0     C18560   8.531   8.101  12.054  0.4488 -1.3206  0.6477
  860MOL0     C18561   8.496   8.227  12.048  0.2114  0.3018 -0.0532
  860MOL0     C18562   8.511   8.326  11.939 -0.3691 -0.2829  0.0955
  860MOL0     C18563   8.640   8.412  11.973  0.6339 -0.2138 -1.0548
  860MOL0     C18564   8.639   8.541  11.885 -0.7293  1.3383 -0.0433
  860MOL0     C18565   8.772   8.573  11.831 -0.6881  0.4693 -0.4322
  860MOL0     O18566   8.749   8.686  11.745  0.1568 -0.0653  0.5259
  860MOL0     C18567   8.723   8.656  11.608  0.7173  0.8633  0.2046
  860MOL0     C18568   8.722   8.528  11.550  0.8921 -0.4007 -0.4150
  860MOL0     C18569   8.673   8.496  11.427 -0.2228  1.2387 -0.5928
  860MOL0     C18570   8.664   8.348  11.400 -0.3190 -0.0723 -0.6172
  860MOL0     C18571   8.619   8.601  11.349 -0.2880 -0.1131 -0.0273
  860MOL0     C18572   8.568   8.580  11.215 -0.4312 -0.0367  0.4504
  860MOL0     O18573   8.468   8.487  11.188 -0.3901  0.1514 -0.4517
  860MOL0     C18574   8.458   8.451  11.055  0.1082  0.1132 -0.8302
  860MOL0     C18575   8.482   8.325  11.025  0.2521  0.4595  0.4561
  860MOL0     C18576   8.458   8.289  10.887  0.1762  0.5466 -0.3241
  860MOL0     C18577   8.420   8.383  10.789 -0.3825  0.2358 -0.3752
  860MOL0     O18578   8.396   8.329  10.664 -0.1100  0.1792  0.8121
  860MOL0     C18579   8.403   8.403  10.541 -1.0205  0.5095  0.2631
  860MOL0     C18580   8.427   8.304  10.421 -0.4773  0.0787 -0.7604
  860MOL0     C18581   8.312   8.201  10.391 -0.2091  0.5245  0.5200
  860MOL0     C18582   8.174   8.259  10.345 -0.8777  0.5441 -0.0402
  860MOL0     C18583   8.067   8.157  10.343  1.4502 -0.5243 -0.1104
  860MOL0     C18584   7.932   8.224  10.286  0.1646 -0.1339  0.0861
  860MOL0     C18585   7.815   8.118  10.277 -0.6272  0.0837 -0.2533
  860MOL0     C18586   7.825   8.016  10.160  0.0560 -0.3262  0.2455
  860MOL0    Cl18587   7.878   8.090  10.000  0.0466 -0.3855 -0.3051
  860MOL0     C18588   8.412   8.515  10.820 -0.4570 -0.3381 -0.8870
  860MOL0     C18589   8.429   8.549  10.961 -1.1301  0.2541  0.7352
  860MOL0     O18590   8.630   8.638  11.122 -0.6714  0.1889  0.2386
  860MOL0     C18591   8.634   8.734  11.396  0.3321 -0.9130  0.1533
  860MOL0     C18592   8.677   8.764  11.522  0.6797 -0.5402  0.1881
  860MOL0     N18593   8.437   8.267  12.171  0.4491 -0.3295  0.3677
  860MOL0     N18594   8.423   8.163  12.241 -0.2643  0.5853  0.1152
  860MOL0     C18595   9.267   7.606  11.606 -0.0009 -0.9959 -0.8373
  860MOL0     C18596   9.325   7.567  11.485 -0.2123  0.6132 -0.7302
  860MOL0     C18597   9.560   7.509  11.112 -0.0284  0.9356  0.2960
  860MOL0     C18598   9.661   7.606  11.100  0.3257 -0.2247  0.3877
  860MOL0     C18599   9.756   7.599  10.995  0.1091 -0.6012  0.9888
  860MOL0     C18600   9.745   7.504  10.898 -0.3203 -0.2651  0.8722
  860MOL0     O18601   9.829   7.478  10.790  0.0949 -0.5914 -0.6302
  860MOL0     C18602   9.932   7.577  10.769 -0.2476  1.2102 -0.4931
  860MOL0     C18603  10.044   7.529  10.670 -0.2152 -1.0987 -0.6380
  860MOL0     C18604  10.141   7.424  10.725 -0.4337 -1.0887  0.0111
  860MOL0     C18605  10.279   7.483  10.773  1.3358 -0.6441 -0.9368
  860MOL0     C18606  10.274   7.565  10.899  0.6434 -0.1610 -0.1809
  860MOL0     C18607  10.283   7.647  10.992 -0.4793 -0.3841  0.6529
  860MOL0     C18608   9.656   7.395  10.920  0.2005  0.3786 -0.0610
  860MOL0     C18609   9.555   7.399  11.027  0.4528 -0.1437  0.6159
  860MOL0     C18610   9.455   7.290  11.018 -0.4534  0.1296 -0.0794
  860MOL0     H18611   9.592   7.771  11.481 -0.6540  1.5727 -0.5946
  860MOL0     H18612   9.496   7.834  11.710  1.5545  0.0692 -1.0232
  860MOL0     H18613   9.170   7.626  11.897 -1.6174  0.1210 -0.7751
  860MOL0     H18614   9.069   7.717  11.775  0.3334  2.0467  0.5098
  860MOL0     H18615   9.211   7.825  12.021  0.6462 -0.0668 -1.8333
  860MOL0     H18616   9.101   7.910  11.924 -1.1027  1.6004  0.4449
  860MOL0     H18617   8.998   7.652  12.044 -2.2220 -0.1017  0.3088
  860MOL0     H18618   9.019   7.797  12.149  1.2960  0.0290 -0.2804
  860MOL0     H18619   8.873   7.926  12.011 -0.0863  0.8770  1.9124
  860MOL0     H18620   8.838   7.785  11.907 -1.4528 -0.4714  0.4657
  860MOL0     H18621   8.755   7.695  12.163  1.5721  2.3341  3.3084
  860MOL0     H18622   8.642   7.802  12.069  0.3576  0.7468  0.1917
  860MOL0     H18623   8.828   7.894  12.273  0.0078 -0.5112 -0.5931
  860MOL0     H18624   8.741   7.995  12.172  1.9587 -0.8973 -0.7867
  860MOL0     H18625   8.595   7.939  12.394 -0.4549  0.4942 -1.4676
  860MOL0     H18626   8.596   7.775  12.338  1.8161  0.2276  0.6995
  860MOL0     H18627   8.478   7.839  12.144 -0.4839 -2.0259  1.2272
  860MOL0     H18628   8.393   7.889  12.281 -0.8828  1.6309 -0.3112
  860MOL0     H18629   8.569   8.041  11.972 -1.1391  0.3933 -1.4600
  860MOL0     H18630   8.418   8.383  11.933 -0.3043 -0.1431  0.3664
  860MOL0     H18631   8.529   8.271  11.847  0.0930 -2.3181  1.3437
  860MOL0     H18632   8.639   8.438  12.079 -0.0141  0.6812 -1.2723
  860MOL0     H18633   8.726   8.347  11.955 -1.8389 -4.2800  0.4383
  860MOL0     H18634   8.568   8.524  11.803 -2.2425  1.5832  1.1780
  860MOL0     H18635   8.598   8.615  11.954 -1.7042  0.2280  0.6222
  860MOL0     H18636   8.841   8.607  11.908 -0.9244 -3.5219  1.7944
  860MOL0     H18637   8.819   8.485  11.787 -1.4802  0.0602 -0.4836
  860MOL0     H18638   8.762   8.451  11.615 -1.2400 -0.8858  0.4224
  860MOL0     H18639   8.704   8.294  11.486 -3.0142  2.3323  2.3615
  860MOL0     H18640   8.724   8.322  11.312  2.6609  0.7721  1.0364
  860MOL0     H18641   8.566   8.303  11.380 -1.1314  0.6182  1.5378
  860MOL0     H18642   8.502   8.246  11.096 -0.2512  0.0066  0.0935
  860MOL0     H18643   8.458   8.184  10.858  0.6010  0.6087 -0.5583
  860MOL0     H18644   8.315   8.465  10.521  0.4702  3.0501  1.1408
  860MOL0     H18645   8.489   8.470  10.545 -1.7661  1.6817 -1.7804
  860MOL0     H18646   8.452   8.366  10.334  1.6357 -1.0668 -1.0418
  860MOL0     H18647   8.519   8.251  10.448  0.7035  2.9232  1.2789
  860MOL0     H18648   8.295   8.146  10.484  1.0691 -1.2392 -0.2414
  860MOL0     H18649   8.348   8.131  10.316  3.3566  0.3668  2.1945
  860MOL0     H18650   8.194   8.309  10.250  3.0598 -1.0052 -0.2060
  860MOL0     H18651   8.140   8.338  10.413  1.4041  0.7691  0.9095
  860MOL0     H18652   8.105   8.086  10.268 -0.4292  1.4427 -3.1164
  860MOL0     H18653   8.040   8.114  10.441  0.1318  1.4425  0.4411
  860MOL0     H18654   7.965   8.274  10.194 -0.4312  2.7161  1.3110
  860MOL0     H18655   7.899   8.313  10.340  0.0595  1.9114 -3.0943
  860MOL0     H18656   7.719   8.171  10.274  0.0078  1.2525 -0.5359
  860MOL0     H18657   7.821   8.064  10.372 -0.6084  3.0251  1.5272
  860MOL0     H18658   7.727   7.967  10.153 -0.6155  0.7711  1.4227
  860MOL0     H18659   7.897   7.939  10.188  1.5910  1.2042  0.6926
  860MOL0     H18660   8.391   8.594  10.748  0.8566  0.2510 -0.6605
  860MOL0     H18661   8.438   8.655  10.985 -2.2934  0.7534 -0.8381
  860MOL0     H18662   8.610   8.823  11.338  2.1361 -0.4363  0.0601
  860MOL0     H18663   8.671   8.862  11.570  2.2082  0.1389 -0.9503
  860MOL0     H18664   9.166   7.570  11.624 -0.7162  1.3727  0.3904
  860MOL0     H18665   9.261   7.499  11.430 -0.5500 -0.4899  0.9615
  860MOL0     H18666   9.667   7.693  11.164  0.5488  1.0416 -1.3007
  860MOL0     H18667   9.823   7.685  10.990 -0.4198 -0.2414 -2.2482
  860MOL0     H18668   9.875   7.665  10.737 -1.8902  0.0736 -0.8562
  860MOL0     H18669   9.979   7.625  10.855 -0.0533  1.8879 -0.9602
  860MOL0     H18670  10.098   7.617  10.635 -1.5498 -0.1530 -0.4174
  860MOL0     H18671   9.998   7.476  10.586 -1.2910 -3.2560  1.2060
  860MOL0     H18672  10.077   7.370  10.796 -5.0691  3.3490 -0.2007
  860MOL0     H18673  10.161   7.362  10.637  1.5667  0.5266 -0.7432
  860MOL0     H18674  10.313   7.544  10.689 -3.3745  0.2880 -2.4949
  860MOL0     H18675  10.342   7.394  10.780 -2.4053 -3.5313 -0.3407
  860MOL0     H18676  10.291   7.705  11.082  0.9027  0.4964 -0.0067
  860MOL0     H18677   9.655   7.300  10.868  0.8632  0.1408  0.3433
  860MOL0     H18678   9.415   7.253  11.113 -1.8196  1.4690 -0.0876
  860MOL0     H18679   9.372   7.325  10.955 -1.8055 -0.5173  1.2711
  860MOL0     H18680   9.494   7.198  10.973 -2.8225 -1.8935  1.6497
  861MOL0     O18681   8.086   8.423   1.912  0.1884  0.7390  0.5638
  861MOL0     C18682   8.040   8.501   1.999  0.5061 -0.4933  0.1183
  861MOL0     O18683   8.024   8.472   2.130  0.6401  0.3494 -0.2800
  861MOL0     C18684   8.066   8.351   2.172 -0.7720 -0.1235 -1.1115
  861MOL0     C18685   8.185   8.363   2.249  0.4278 -0.0974  0.2001
  861MOL0     C18686   8.238   8.250   2.320  0.1947 -0.8963 -1.0609
  861MOL0     C18687   8.173   8.124   2.308  0.5484  0.6540 -0.2357
  861MOL0     O18688   8.217   8.004   2.361  0.0581  0.5504 -0.0779
  861MOL0     C18689   8.349   7.971   2.339 -0.5307 -0.1045  0.2230
  861MOL0     C18690   8.374   7.830   2.285 -1.2012  0.0054  0.2948
  861MOL0     C18691   8.520   7.794   2.288 -0.2590  1.3253 -0.5028
  861MOL0     C18692   8.542   7.651   2.233 -0.1126  0.2012  0.0541
  861MOL0     C18693   8.688   7.602   2.241  0.6776  0.7910 -0.2285
  861MOL0     C18694   8.696   7.451   2.204 -0.3855  0.7428 -0.4403
  861MOL0     C18695   8.845   7.401   2.231 -0.4554 -0.6895  0.3356
  861MOL0     C18696   8.944   7.486   2.156 -0.6687 -0.2541 -0.3842
  861MOL0     N18697   8.906   7.477   2.018  0.8963 -0.4545 -0.3171
  861MOL0     C18698   8.922   7.368   1.935  0.4339 -0.9844  0.3470
  861MOL0     C18699   8.888   7.412   1.804  0.6098  0.8315 -0.1975
  861MOL0     C18700   8.890   7.333   1.669  0.0383 -0.9788 -0.1057
  861MOL0     C18701   8.997   7.222   1.679 -0.1701  0.0543  0.6232
  861MOL0     C18702   9.034   7.169   1.537  0.2906 -1.2965 -0.0648
  861MOL0     C18703   9.073   7.020   1.554  0.4668  0.5044  0.0926
  861MOL0     O18704   8.952   6.930   1.574 -0.2329 -0.0609 -0.6308
  861MOL0     C18705   8.938   6.825   1.489 -0.1087  0.2498  0.8395
  861MOL0     C18706   8.910   6.827   1.355 -0.9281 -0.4037  0.4176
  861MOL0     C18707   8.883   6.711   1.282  0.4047 -0.4779  0.0923
  861MOL0     C18708   8.858   6.725   1.134 -0.6423  0.6513 -0.9188
  861MOL0     C18709   8.891   6.595   1.353  0.7391  0.6203 -0.5230
  861MOL0     C18710   8.868   6.457   1.291 -1.1167  0.4492 -0.3342
  861MOL0     O18711   8.880   6.354   1.379 -0.6845 -0.5181 -0.8631
  861MOL0     C18712   8.820   6.231   1.356 -0.3381 -0.8404  0.4465
  861MOL0     C18713   8.754   6.164   1.467 -0.3449 -0.3515 -0.8703
  861MOL0     C18714   8.697   6.038   1.452  0.1320  0.3615 -1.1337
  861MOL0     C18715   8.712   5.969   1.334  0.3921 -0.0799  1.1256
  861MOL0     O18716   8.670   5.841   1.315  0.2065 -0.5109 -0.3627
  861MOL0     C18717   8.749   5.759   1.240 -0.3570  0.6966  0.9465
  861MOL0     C18718   8.697   5.616   1.251 -0.4437 -0.4128 -0.4007
  861MOL0     C18719   8.793   5.508   1.199 -0.5551 -0.7930  0.3625
  861MOL0     C18720   8.736   5.368   1.203 -1.0182 -0.1105 -0.4536
  861MOL0     C18721   8.845   5.265   1.202 -0.3626 -0.3418 -0.4652
  861MOL0     C18722   8.794   5.125   1.248 -0.0482  0.4082 -0.8687
  861MOL0     C18723   8.905   5.017   1.242 -0.1035 -0.4223  0.0771
  861MOL0     C18724   8.833   4.877   1.239  0.2614  0.1923 -0.5907
  861MOL0    Cl18725   8.952   4.744   1.228  0.2753  0.3692  0.1655
  861MOL0     C18726   8.781   6.033   1.231  0.2115 -0.5258  0.3768
  861MOL0     C18727   8.832   6.157   1.242  0.5168 -0.2808  1.2628
  861MOL0     O18728   8.852   6.441   1.175 -0.8442  0.1124 -0.4120
  861MOL0     C18729   8.909   6.592   1.492 -0.1513  0.4184  1.3749
  861MOL0     C18730   8.940   6.703   1.562  0.4056  0.3519 -0.0564
  861MOL0     N18731   8.858   7.547   1.819  0.3002  0.2284 -0.4171
  861MOL0     N18732   8.868   7.585   1.948 -0.1128 -0.3637 -0.3408
  861MOL0     C18733   8.057   8.117   2.229  0.6882  0.0530 -1.1626
  861MOL0     C18734   8.005   8.229   2.172  0.0427 -0.7003 -0.3116
  861MOL0     C18735   7.979   8.630   1.947 -0.4167  0.0472  0.3994
  861MOL0     C18736   7.865   8.682   2.011 -0.8348  1.3242 -0.4958
  861MOL0     C18737   7.811   8.804   1.968 -0.1804  0.5349  0.2119
  861MOL0     C18738   7.865   8.878   1.865  0.5266  0.2796 -0.1164
  861MOL0     O18739   7.816   9.011   1.848 -0.1743  0.3719 -0.1989
  861MOL0     C18740   7.892   9.104   1.763  0.1488 -0.2693 -0.1317
  861MOL0     C18741   8.014   9.159   1.835  0.0569 -0.8478  0.3958
  861MOL0     C18742   8.071   9.279   1.763  0.3027  0.6949  0.6942
  861MOL0     C18743   8.187   9.262   1.668  0.0774  0.7231  0.0848
  861MOL0     C18744   8.281   9.163   1.725 -0.6141 -0.6687 -0.4155
  861MOL0     C18745   8.340   9.065   1.749  0.8633  0.2441  0.0563
  861MOL0     C18746   7.979   8.823   1.799  0.6423 -0.4858 -0.1171
  861MOL0     C18747   8.040   8.702   1.836  0.2961  1.0938 -0.0670
  861MOL0     C18748   8.170   8.655   1.765  0.0824  0.4388  0.0446
  861MOL0     H18749   8.231   8.460   2.262  1.6572 -0.4657 -1.2051
  861MOL0     H18750   8.328   8.268   2.378  0.0041 -0.5375 -0.8767
  861MOL0     H18751   8.400   7.999   2.432  3.1346 -0.2225 -1.5959
  861MOL0     H18752   8.402   8.040   2.273 -0.6212 -0.3540 -0.1157
  861MOL0     H18753   8.330   7.757   2.353 -1.0139 -0.9708 -0.6005
  861MOL0     H18754   8.340   7.820   2.182  2.9440  2.3698 -1.5379
  861MOL0     H18755   8.570   7.863   2.220 -1.1746 -0.8340 -3.5592
  861MOL0     H18756   8.553   7.805   2.392 -2.7095  0.1382  0.4641
  861MOL0     H18757   8.484   7.584   2.297  3.2060 -1.1227  1.9050
  861MOL0     H18758   8.498   7.644   2.133 -0.0392 -0.2268  0.0531
  861MOL0     H18759   8.733   7.617   2.340  2.1927  0.6484 -0.8712
  861MOL0     H18760   8.749   7.663   2.173  1.8471  1.1890  1.1132
  861MOL0     H18761   8.628   7.392   2.267  0.3976 -0.3747 -0.6166
  861MOL0     H18762   8.663   7.444   2.100 -1.6233  3.5328 -0.3028
  861MOL0     H18763   8.868   7.303   2.188 -0.8606 -1.1372  1.1145
  861MOL0     H18764   8.864   7.406   2.338  1.0714  0.5110  0.0396
  861MOL0     H18765   8.943   7.583   2.206 -1.8796 -0.8319  0.7611
  861MOL0     H18766   9.045   7.457   2.186 -0.9736 -1.0947 -0.1297
  861MOL0     H18767   8.963   7.272   1.962  0.9297 -0.7307  0.5090
  861MOL0     H18768   8.920   7.410   1.596 -1.4481 -0.3726 -0.1125
  861MOL0     H18769   8.791   7.293   1.648  0.4525 -3.9084  2.7801
  861MOL0     H18770   9.090   7.252   1.727  1.0972 -1.5950 -0.6817
  861MOL0     H18771   8.946   7.150   1.744 -1.8819  2.8015  2.5282
  861MOL0     H18772   8.951   7.206   1.475  0.8962  2.8212  1.2719
  861MOL0     H18773   9.114   7.224   1.486 -0.7732 -1.0263 -1.5141
  861MOL0     H18774   9.129   7.005   1.461  1.8939  1.8490  0.6929
  861MOL0     H18775   9.151   7.013   1.630  2.8203  2.0269 -2.0060
  861MOL0     H18776   8.917   6.921   1.300 -1.0437  1.5917  3.5964
  861MOL0     H18777   8.763   6.672   1.119 -0.5799  0.7452 -1.6724
  861MOL0     H18778   8.944   6.690   1.076 -1.4582 -0.4433 -1.5072
  861MOL0     H18779   8.837   6.826   1.100 -1.2043  1.5689  1.8978
  861MOL0     H18780   8.750   6.211   1.565  2.7628 -0.4154 -0.6086
  861MOL0     H18781   8.656   5.979   1.533  1.3213  0.6503 -0.2772
  861MOL0     H18782   8.720   5.791   1.140 -1.2809  1.1276  1.3482
  861MOL0     H18783   8.855   5.772   1.265 -0.8932  3.6602  1.9901
  861MOL0     H18784   8.673   5.597   1.356 -1.3514 -2.5474 -0.9447
  861MOL0     H18785   8.601   5.610   1.199 -1.5675  2.4080  1.1536
  861MOL0     H18786   8.889   5.525   1.248  0.4698 -0.0863 -1.7692
  861MOL0     H18787   8.804   5.544   1.096 -0.0464  0.7873  0.9380
  861MOL0     H18788   8.662   5.363   1.123 -1.6222  4.4532 -0.4544
  861MOL0     H18789   8.692   5.371   1.303  0.6266 -0.6521  0.3214
  861MOL0     H18790   8.876   5.247   1.099 -2.2069 -1.1611 -0.9225
  861MOL0     H18791   8.927   5.307   1.260  0.3695 -2.0864 -0.1579
  861MOL0     H18792   8.707   5.110   1.183 -1.5207  2.4350  0.5177
  861MOL0     H18793   8.752   5.135   1.349 -2.7945 -2.2392 -1.5901
  861MOL0     H18794   8.979   5.020   1.323  2.3773 -4.0531 -1.7650
  861MOL0     H18795   8.958   5.039   1.148 -1.7989  0.4911 -0.7015
  861MOL0     H18796   8.763   4.874   1.155 -0.0554  0.7252 -0.3505
  861MOL0     H18797   8.774   4.850   1.327 -0.9153  0.9390 -1.1347
  861MOL0     H18798   8.783   5.986   1.133 -1.1556 -1.1131  0.6057
  861MOL0     H18799   8.879   6.193   1.151  0.1436 -1.4382  0.5947
  861MOL0     H18800   8.881   6.501   1.544  0.8966 -1.9213 -1.7953
  861MOL0     H18801   8.947   6.705   1.671  2.0586 -0.6853 -0.1091
  861MOL0     H18802   8.004   8.025   2.207  0.6426 -1.4595  3.9682
  861MOL0     H18803   7.918   8.209   2.110 -1.2186  1.0079  0.8395
  861MOL0     H18804   7.824   8.628   2.096 -1.1702  1.3498 -0.6410
  861MOL0     H18805   7.728   8.832   2.032 -1.3030  0.4608 -1.1468
  861MOL0     H18806   7.915   9.060   1.666 -0.4626 -0.1724 -0.3249
  861MOL0     H18807   7.823   9.188   1.749 -1.1524 -0.4115  3.9966
  861MOL0     H18808   8.084   9.075   1.838 -1.3420 -2.2120 -1.9453
  861MOL0     H18809   7.981   9.181   1.937  2.6725  0.1937  1.0907
  861MOL0     H18810   7.984   9.321   1.710  1.5883  0.5364 -1.7090
  861MOL0     H18811   8.108   9.350   1.836  0.7965  2.8928 -1.5518
  861MOL0     H18812   8.250   9.347   1.642  0.9879  0.7137  2.0654
  861MOL0     H18813   8.143   9.233   1.572  0.1321  1.1844 -0.0790
  861MOL0     H18814   8.397   8.980   1.780 -0.6537 -0.5214  0.8589
  861MOL0     H18815   8.034   8.879   1.724 -2.3513  1.1928 -1.2242
  861MOL0     H18816   8.195   8.735   1.696 -0.9603  0.5306 -0.2477
  861MOL0     H18817   8.254   8.645   1.834 -0.6798  0.0736  0.9364
  861MOL0     H18818   8.156   8.563   1.707  0.7932  0.9297 -0.9251
  862MOL0     O18819   9.986   2.211   0.283 -0.1997 -0.2067 -0.0605
  862MOL0     C18820   9.931   2.117   0.229  0.4387 -0.0138 -0.1577
  862MOL0     O18821   9.994   2.008   0.175  0.3259 -0.2269  0.3542
  862MOL0     C18822  10.139   2.001   0.172  0.0756  0.3478 -0.3024
  862MOL0     C18823  10.206   1.928   0.269 -0.1256  0.6473 -0.7831
  862MOL0     C18824  10.348   1.919   0.266 -0.6051 -1.3387  0.3579
  862MOL0     C18825  10.419   1.993   0.174  0.2352 -0.1615 -1.5974
  862MOL0     O18826  10.555   1.985   0.154  0.2323  0.8870  0.5220
  862MOL0     C18827  10.619   1.856   0.167 -1.2054  0.7131  0.3991
  862MOL0     C18828  10.566   1.775   0.047 -1.3858  0.5154  0.5137
  862MOL0     C18829  10.652   1.651   0.033  0.4610  0.3166 -0.3993
  862MOL0     C18830  10.582   1.559  -0.071  0.1641  0.9497 -0.0282
  862MOL0     C18831  10.660   1.426  -0.094 -0.6045 -0.2953  0.3043
  862MOL0     C18832  10.589   1.339  -0.192  0.1109  0.0867 -0.4091
  862MOL0     C18833  10.643   1.192  -0.175  1.1319 -0.9180 -0.1609
  862MOL0     C18834  10.570   1.083  -0.264  1.3087 -0.3018  0.3073
  862MOL0     N18835  10.595   1.098  -0.407 -0.2056  0.5937 -0.6335
  862MOL0     C18836  10.719   1.089  -0.481  0.3590  0.4577 -0.0856
  862MOL0     C18837  10.682   1.055  -0.599  0.7371 -0.0613  0.2500
  862MOL0     C18838  10.790   1.028  -0.697  0.2428  0.4442  0.7223
  862MOL0     C18839  10.767   1.041  -0.849  0.1349  0.2210  0.5070
  862MOL0     C18840  10.804   1.175  -0.898  0.4200  0.5766 -0.2939
  862MOL0     C18841  10.746   1.193  -1.042 -0.0792  0.3676 -0.4377
  862MOL0     O18842  10.791   1.104  -1.139  0.7632 -0.1240  0.5854
  862MOL0     C18843  10.783   1.147  -1.269 -0.6626  1.3358 -0.1922
  862MOL0     C18844  10.872   1.103  -1.370  1.1479 -0.1398  0.4491
  862MOL0     C18845  10.840   1.125  -1.508 -0.0970 -0.3886  0.6376
  862MOL0     C18846  10.944   1.076  -1.601  0.0159 -0.2134 -0.4401
  862MOL0     C18847  10.728   1.205  -1.543  0.0429 -0.1772  0.4920
  862MOL0     C18848  10.695   1.241  -1.682 -0.2817 -0.7042 -0.6325
  862MOL0     O18849  10.592   1.167  -1.723  0.6638  0.6025 -0.3348
  862MOL0     C18850  10.542   1.199  -1.845  0.2281 -0.4759 -0.1205
  862MOL0     C18851  10.422   1.270  -1.853 -0.5269  0.4854  0.4592
  862MOL0     C18852  10.358   1.280  -1.981  0.4053 -0.6921 -0.3404
  862MOL0     C18853  10.412   1.230  -2.097  0.9965 -0.7388 -0.0313
  862MOL0     O18854  10.357   1.253  -2.225  0.2732 -0.3125 -0.2884
  862MOL0     C18855  10.211   1.270  -2.231 -0.0389  0.1070  0.6184
  862MOL0     C18856  10.179   1.421  -2.229  0.8518  0.0325  0.0202
  862MOL0     C18857  10.035   1.440  -2.263 -0.1308  0.5686  1.6921
  862MOL0     C18858   9.997   1.584  -2.281 -0.4024 -0.3156 -0.6041
  862MOL0     C18859   9.852   1.601  -2.340 -0.6153  0.8274 -0.2393
  862MOL0     C18860   9.832   1.531  -2.479 -0.1613  0.0768 -0.8283
  862MOL0     C18861   9.686   1.549  -2.527  0.1741  0.5152  0.3211
  862MOL0     C18862   9.642   1.477  -2.660  0.1718 -0.3578  0.2340
  862MOL0    Cl18863   9.458   1.469  -2.687  0.1649  0.5372 -0.5581
  862MOL0     C18864  10.534   1.161  -2.089  0.5228  0.3835 -0.1389
  862MOL0     C18865  10.585   1.134  -1.960 -0.1282  0.4644  1.3708
  862MOL0     O18866  10.775   1.298  -1.761  0.1508 -0.5028  0.2216
  862MOL0     C18867  10.649   1.248  -1.439 -1.2298  0.2975  0.2710
  862MOL0     C18868  10.672   1.210  -1.313  1.0548  0.1142  0.0101
  862MOL0     N18869  10.538   1.050  -0.605 -0.0182  0.0405 -0.5334
  862MOL0     N18870  10.487   1.074  -0.488  0.2266  0.6899 -0.5641
  862MOL0     C18871  10.354   2.071   0.078 -0.0384  0.4718 -0.5377
  862MOL0     C18872  10.216   2.085   0.082 -0.2910 -0.2190 -0.7234
  862MOL0     C18873   9.775   2.128   0.219 -0.7655  0.0339 -0.0970
  862MOL0     C18874   9.719   2.247   0.250  0.0949 -1.1710 -0.1409
  862MOL0     C18875   9.580   2.272   0.243  0.0755  0.1561  0.0549
  862MOL0     C18876   9.497   2.172   0.200 -0.1248  0.2821 -0.6557
  862MOL0     O18877   9.363   2.167   0.191  0.5107 -0.0468 -0.5669
  862MOL0     C18878   9.281   2.284   0.184 -1.0921  0.0129  0.3224
  862MOL0     C18879   9.136   2.253   0.213  0.6371  0.1346  0.5913
  862MOL0     C18880   9.083   2.301   0.347 -0.2262 -0.4402  0.0093
  862MOL0     C18881   8.934   2.276   0.355  0.0623 -0.9813 -1.0104
  862MOL0     C18882   8.886   2.328   0.490  0.2484  0.7419  0.6650
  862MOL0     C18883   8.837   2.367   0.591 -0.1684 -0.1062 -0.8391
  862MOL0     C18884   9.541   2.042   0.178 -0.5069 -0.2047 -0.0298
  862MOL0     C18885   9.685   2.017   0.184  0.1209  0.1521  0.3715
  862MOL0     C18886   9.730   1.872   0.178 -0.3165 -0.3253 -0.1436
  862MOL0     H18887  10.151   1.880   0.350  0.4475 -1.4531 -1.5786
  862MOL0     H18888  10.407   1.861   0.336 -1.7275 -0.8747  1.7217
  862MOL0     H18889  10.604   1.806   0.263  1.4198 -1.3276 -0.1561
  862MOL0     H18890  10.728   1.861   0.161 -1.1823  0.0594  0.2458
  862MOL0     H18891  10.458   1.757   0.060 -1.3097  0.4114  1.0378
  862MOL0     H18892  10.583   1.833  -0.044  2.6456 -1.5114 -0.2480
  862MOL0     H18893  10.759   1.669   0.016  0.4745  1.4775  0.7491
  862MOL0     H18894  10.632   1.596   0.125 -2.9658 -0.1841 -1.2839
  862MOL0     H18895  10.488   1.541  -0.019  1.0791  0.7939  1.6615
  862MOL0     H18896  10.566   1.617  -0.162  0.6990  1.4089  0.1621
  862MOL0     H18897  10.661   1.370   0.000 -2.4189 -0.6486  0.1579
  862MOL0     H18898  10.765   1.432  -0.122 -0.0248 -0.5093  2.2650
  862MOL0     H18899  10.483   1.325  -0.170 -0.0177  1.6144  0.0500
  862MOL0     H18900  10.590   1.384  -0.292 -2.5431  1.8190  0.2713
  862MOL0     H18901  10.615   1.163  -0.073 -4.8941  1.0976 -0.8111
  862MOL0     H18902  10.748   1.181  -0.202  1.0171  2.1208 -2.3783
  862MOL0     H18903  10.594   0.987  -0.217  1.0154 -1.4137 -1.6903
  862MOL0     H18904  10.466   1.109  -0.245  1.7485  0.8115  1.3597
  862MOL0     H18905  10.820   1.093  -0.442  0.0712  2.0785  0.6000
  862MOL0     H18906  10.830   0.926  -0.686  2.9561  1.0818 -1.7107
  862MOL0     H18907  10.879   1.087  -0.674 -0.1688  0.3387  2.7214
  862MOL0     H18908  10.828   0.970  -0.906 -0.4604 -0.3498  0.5639
  862MOL0     H18909  10.661   1.026  -0.871 -0.1457 -1.7695  2.7130
  862MOL0     H18910  10.759   1.247  -0.829  0.6854  1.7528 -1.3142
  862MOL0     H18911  10.913   1.174  -0.898  0.7733 -4.1779 -4.4891
  862MOL0     H18912  10.637   1.187  -1.035 -0.4091  3.5948 -1.2262
  862MOL0     H18913  10.778   1.295  -1.067 -1.5326  0.3887 -2.4323
  862MOL0     H18914  10.959   1.046  -1.339 -0.5290 -1.4838  3.1028
  862MOL0     H18915  11.017   1.152  -1.630  1.2046 -1.6487 -1.3196
  862MOL0     H18916  10.896   1.042  -1.694  0.8130 -3.1376  0.1288
  862MOL0     H18917  11.004   0.993  -1.563 -3.5761 -3.2597 -0.8271
  862MOL0     H18918  10.379   1.321  -1.767  1.2819  1.6491  0.7229
  862MOL0     H18919  10.261   1.329  -1.988  0.2145 -1.3153 -4.0627
  862MOL0     H18920  10.180   1.220  -2.323  2.2733 -0.7350  0.2190
  862MOL0     H18921  10.153   1.226  -2.150  0.4750  2.9200  2.6766
  862MOL0     H18922  10.200   1.470  -2.133  0.5641  0.3008 -0.0523
  862MOL0     H18923  10.240   1.471  -2.304 -0.9606 -3.3070 -4.1300
  862MOL0     H18924   9.969   1.399  -2.187 -0.3421  0.3511  1.3948
  862MOL0     H18925  10.015   1.384  -2.355 -1.0985  0.5569  1.8969
  862MOL0     H18926  10.072   1.625  -2.349  3.6960 -0.7532  3.1684
  862MOL0     H18927  10.008   1.642  -2.189 -1.0830 -1.4384  0.2220
  862MOL0     H18928   9.782   1.545  -2.276  0.3495 -2.1808 -1.6225
  862MOL0     H18929   9.821   1.706  -2.339 -2.4198  0.3748 -2.4545
  862MOL0     H18930   9.847   1.423  -2.479  5.7224  0.5545 -1.4180
  862MOL0     H18931   9.902   1.581  -2.548 -1.1667  0.9302 -1.2609
  862MOL0     H18932   9.645   1.650  -2.525 -3.5355 -0.8327  1.4786
  862MOL0     H18933   9.620   1.502  -2.453 -1.9193 -0.9780 -2.3102
  862MOL0     H18934   9.692   1.380  -2.662 -1.7575 -1.3890 -1.6643
  862MOL0     H18935   9.685   1.531  -2.745  2.9330 -1.8705  0.5508
  862MOL0     H18936  10.577   1.116  -2.178  0.3992 -0.4382  0.2064
  862MOL0     H18937  10.674   1.073  -1.951  1.2482  2.3952  1.6893
  862MOL0     H18938  10.563   1.306  -1.470 -1.6492 -1.3857 -1.9585
  862MOL0     H18939  10.600   1.234  -1.236  1.0112 -3.4123  1.2663
  862MOL0     H18940  10.417   2.124   0.007  2.1054  2.9787  2.8801
  862MOL0     H18941  10.161   2.160   0.026  0.1681 -0.4502 -1.4897
  862MOL0     H18942   9.786   2.330   0.271 -1.4474  0.4468 -1.3592
  862MOL0     H18943   9.540   2.368   0.274 -0.7652 -0.3063  0.4161
  862MOL0     H18944   9.315   2.363   0.252  0.8998 -0.0036 -0.5861
  862MOL0     H18945   9.295   2.321   0.082 -1.4475  1.4058  0.7558
  862MOL0     H18946   9.126   2.144   0.208  0.6602 -0.1125  4.0752
  862MOL0     H18947   9.080   2.296   0.129  0.0487 -1.8832 -0.1001
  862MOL0     H18948   9.138   2.253   0.427  2.5219  1.2070 -0.7761
  862MOL0     H18949   9.092   2.410   0.354 -0.0615 -0.3673 -1.1373
  862MOL0     H18950   8.904   2.171   0.356 -2.6586 -0.2786 -1.3136
  862MOL0     H18951   8.877   2.316   0.270 -0.6738  0.0790 -0.0452
  862MOL0     H18952   8.773   2.399   0.671 -0.7334 -1.6686 -0.6248
  862MOL0     H18953   9.464   1.967   0.167 -1.1904  0.1424  2.0290
  862MOL0     H18954   9.655   1.812   0.231 -1.7725 -0.6467 -2.4347
  862MOL0     H18955   9.740   1.827   0.079  0.9567  1.4781 -0.8879
  862MOL0     H18956   9.821   1.864   0.238 -0.4407  2.4955  0.5382
  863MOL0     O18957   2.994   6.210   7.013  0.4889  0.7708  0.0812
  863MOL0     C18958   3.063   6.106   6.993 -0.6254  0.2671  0.2003
  863MOL0     O18959   3.134   6.073   6.878 -0.2925 -0.5117  0.9224
  863MOL0     C18960   3.161   6.162   6.778 -0.2907 -0.6714 -0.6928
  863MOL0     C18961   3.104   6.147   6.651 -0.2843  0.9423  0.6507
  863MOL0     C18962   3.111   6.237   6.550  0.3414 -0.5759  1.3485
  863MOL0     C18963   3.147   6.368   6.575  0.8910 -0.1801  0.9730
  863MOL0     O18964   3.147   6.450   6.472  0.6438 -0.2113  0.5233
  863MOL0     C18965   3.206   6.578   6.490  0.6468  0.6138 -0.1035
  863MOL0     C18966   3.197   6.643   6.353  0.3197 -0.7791 -1.0389
  863MOL0     C18967   3.292   6.764   6.324  0.0294 -0.3095  0.3770
  863MOL0     C18968   3.422   6.705   6.264 -0.2346 -0.7551  0.5102
  863MOL0     C18969   3.520   6.825   6.232  0.3472  0.4542  0.2470
  863MOL0     C18970   3.650   6.787   6.167 -0.2218  0.5541  0.3560
  863MOL0     C18971   3.713   6.658   6.229 -0.1680 -0.0079 -0.0017
  863MOL0     C18972   3.844   6.617   6.152 -0.9443  0.4432  0.2591
  863MOL0     N18973   3.795   6.524   6.056 -0.2075 -0.1389  0.1030
  863MOL0     C18974   3.742   6.399   6.084  0.2424 -0.1310  0.2674
  863MOL0     C18975   3.703   6.349   5.961  0.8331  0.1971  0.2880
  863MOL0     C18976   3.643   6.214   5.933  0.3376  0.3369 -0.1633
  863MOL0     C18977   3.557   6.213   5.809  0.5321  0.2658  0.0649
  863MOL0     C18978   3.408   6.257   5.816 -0.5824  0.5307 -0.3084
  863MOL0     C18979   3.370   6.337   5.688 -0.0741 -0.8839 -0.0343
  863MOL0     O18980   3.436   6.464   5.681 -0.1494 -0.7403 -0.3954
  863MOL0     C18981   3.405   6.558   5.592 -0.1449  0.5143 -0.2101
  863MOL0     C18982   3.469   6.679   5.600 -0.7139  0.9757  0.4712
  863MOL0     C18983   3.449   6.781   5.505  0.1615 -0.8440 -0.1587
  863MOL0     C18984   3.536   6.905   5.524 -0.8804  1.0286  0.4245
  863MOL0     C18985   3.372   6.763   5.394 -0.2989  0.5378 -0.3372
  863MOL0     C18986   3.343   6.868   5.288  0.5929  0.5616  0.8939
  863MOL0     O18987   3.215   6.875   5.242  0.5539  0.1055  0.0770
  863MOL0     C18988   3.200   6.957   5.137  1.1900  0.5266 -1.0147
  863MOL0     C18989   3.125   7.065   5.154 -0.4188  0.1559  1.1831
  863MOL0     C18990   3.097   7.164   5.047  0.6224  0.6266  0.2710
  863MOL0     C18991   3.152   7.140   4.927  0.2594 -0.1515  0.9565
  863MOL0     O18992   3.136   7.231   4.832 -0.1985 -0.7856 -0.6981
  863MOL0     C18993   3.185   7.214   4.700 -0.1471  0.7975  0.9382
  863MOL0     C18994   3.087   7.133   4.616 -0.2811  0.6755 -0.5772
  863MOL0     C18995   2.991   7.237   4.558 -0.4323 -0.8429  0.1155
  863MOL0     C18996   2.900   7.163   4.456 -0.4592 -0.6660 -0.4693
  863MOL0     C18997   2.781   7.250   4.416  0.2406  0.2258 -0.2651
  863MOL0     C18998   2.810   7.388   4.351  0.8027 -0.1799 -0.2998
  863MOL0     C18999   2.679   7.465   4.298 -0.4850  0.4586 -0.5881
  863MOL0     C19000   2.707   7.611   4.304  0.7623  0.4480  0.3067
  863MOL0    Cl19001   2.720   7.674   4.462 -0.3043 -0.2648 -0.5841
  863MOL0     C19002   3.235   7.018   4.911 -0.2506  0.1664 -0.2612
  863MOL0     C19003   3.252   6.927   5.013  0.7135  0.1936 -0.5411
  863MOL0     O19004   3.442   6.934   5.248  0.1077  0.2608  0.1135
  863MOL0     C19005   3.302   6.639   5.385  0.3931  0.2157  0.2129
  863MOL0     C19006   3.308   6.542   5.487  0.1202  0.3161 -0.6485
  863MOL0     N19007   3.738   6.437   5.866  0.4325 -0.5707 -0.8526
  863MOL0     N19008   3.779   6.545   5.922  0.5652 -0.4316 -0.2870
  863MOL0     C19009   3.204   6.383   6.702  0.4536 -1.6487  0.4813
  863MOL0     C19010   3.224   6.285   6.794 -0.0472 -0.1131  0.3543
  863MOL0     C19011   3.069   6.011   7.097 -0.2744 -0.4667  0.7714
  863MOL0     C19012   3.185   5.927   7.117  0.0496  0.2077 -0.1263
  863MOL0     C19013   3.200   5.835   7.225  0.0473 -0.2567 -0.1464
  863MOL0     C19014   3.111   5.829   7.329 -0.0970  0.6342 -0.2132
  863MOL0     O19015   3.122   5.729   7.422 -0.4421  0.5932  0.2685
  863MOL0     C19016   3.170   5.776   7.547 -0.1756 -0.6563 -0.6827
  863MOL0     C19017   3.314   5.805   7.545  0.7244 -0.1858  0.0265
  863MOL0     C19018   3.389   5.797   7.673  0.6194  0.2406 -0.9849
  863MOL0     C19019   3.410   5.936   7.738 -0.5251  0.2342  0.4904
  863MOL0     C19020   3.492   6.022   7.649  0.9517  0.1868  0.8782
  863MOL0     C19021   3.544   6.096   7.567 -0.9795  0.3604  0.0147
  863MOL0     C19022   3.001   5.909   7.318 -0.1028 -0.2587  0.3253
  863MOL0     C19023   2.975   5.996   7.207 -0.2612  0.5205  0.2850
  863MOL0     C19024   2.833   6.057   7.189 -0.9116  0.1796  0.2980
  863MOL0     H19025   3.043   6.057   6.648  2.0592 -0.7068 -0.1921
  863MOL0     H19026   3.095   6.220   6.444 -3.4105  2.4870  1.2086
  863MOL0     H19027   3.308   6.548   6.516  0.4698 -2.4460 -2.4610
  863MOL0     H19028   3.162   6.644   6.566  1.4031  1.9986 -0.8208
  863MOL0     H19029   3.217   6.556   6.290  4.0810 -1.9808  1.4871
  863MOL0     H19030   3.095   6.673   6.328  0.9021 -1.0132 -4.0536
  863MOL0     H19031   3.252   6.838   6.254 -1.0281 -0.8802  0.3539
  863MOL0     H19032   3.316   6.820   6.415  1.3730  1.6168 -1.0941
  863MOL0     H19033   3.462   6.634   6.337  2.1746 -2.5806 -2.3300
  863MOL0     H19034   3.399   6.653   6.170 -0.1211  0.0665  0.0103
  863MOL0     H19035   3.539   6.874   6.328  2.1693  2.1045 -0.8618
  863MOL0     H19036   3.459   6.898   6.177 -1.5373 -2.1857 -1.4022
  863MOL0     H19037   3.626   6.768   6.062 -2.0063  0.2762  0.7829
  863MOL0     H19038   3.711   6.877   6.175 -4.1431  3.4130  1.1042
  863MOL0     H19039   3.652   6.567   6.229  0.9171 -0.8103 -2.1974
  863MOL0     H19040   3.730   6.682   6.334  0.3981  1.0264 -0.3155
  863MOL0     H19041   3.890   6.702   6.100  0.0311 -0.0931  0.2128
  863MOL0     H19042   3.913   6.566   6.220  0.4161  0.1041 -1.2955
  863MOL0     H19043   3.742   6.348   6.180  1.4527  1.2113  1.0107
  863MOL0     H19044   3.585   6.201   6.025  0.8785 -1.7918 -0.0807
  863MOL0     H19045   3.718   6.136   5.924 -0.1135  0.0348 -1.4629
  863MOL0     H19046   3.611   6.255   5.723  1.3029  0.1861  0.5008
  863MOL0     H19047   3.557   6.107   5.784 -1.4887  0.2472  0.0139
  863MOL0     H19048   3.355   6.162   5.815  1.1588 -0.4699 -1.1092
  863MOL0     H19049   3.391   6.300   5.915 -1.3527 -2.7351  1.1023
  863MOL0     H19050   3.393   6.275   5.601  1.9054 -1.3826  0.7990
  863MOL0     H19051   3.264   6.363   5.697 -0.1660 -1.8289  1.9625
  863MOL0     H19052   3.534   6.703   5.683  1.1277 -0.8597 -0.3704
  863MOL0     H19053   3.602   6.912   5.437 -0.8768  0.0818  0.3456
  863MOL0     H19054   3.606   6.902   5.608  1.9114 -2.6288 -1.6994
  863MOL0     H19055   3.480   6.998   5.537  2.8907  3.1780  3.6504
  863MOL0     H19056   3.087   7.090   5.252  0.2908  1.7613  1.0786
  863MOL0     H19057   3.024   7.243   5.058  1.1391  1.5734 -2.3531
  863MOL0     H19058   3.191   7.311   4.649  1.0387 -1.3639 -3.5674
  863MOL0     H19059   3.283   7.165   4.696 -1.3925 -1.7638 -0.9002
  863MOL0     H19060   3.142   7.093   4.530 -3.7713  0.4672 -2.9626
  863MOL0     H19061   3.032   7.051   4.663  0.2169  1.4480  1.4473
  863MOL0     H19062   3.040   7.319   4.504 -1.6545  0.1082  0.4278
  863MOL0     H19063   2.937   7.272   4.646  1.1991 -0.7340  1.1127
  863MOL0     H19064   2.857   7.071   4.498 -1.3017 -0.3167 -0.5538
  863MOL0     H19065   2.951   7.144   4.361 -4.1783  2.4251 -3.4113
  863MOL0     H19066   2.720   7.187   4.352 -0.0433  0.6139 -0.3791
  863MOL0     H19067   2.727   7.273   4.508  2.6145  0.9644  1.0341
  863MOL0     H19068   2.883   7.374   4.272  0.7962 -1.8968 -0.0342
  863MOL0     H19069   2.852   7.449   4.432  3.5116  0.0274 -1.7816
  863MOL0     H19070   2.598   7.434   4.365 -1.3640  3.5843 -0.0692
  863MOL0     H19071   2.673   7.439   4.191  6.3740  0.4081 -1.3894
  863MOL0     H19072   2.625   7.652   4.244  1.0062  0.2018 -0.1957
  863MOL0     H19073   2.801   7.634   4.253  1.5231  0.2794  1.5916
  863MOL0     H19074   3.284   7.006   4.815  0.8456  0.3552  0.2636
  863MOL0     H19075   3.300   6.831   5.000  0.8139 -0.2484  2.4674
  863MOL0     H19076   3.234   6.615   5.304  0.2468 -1.5481  0.8025
  863MOL0     H19077   3.248   6.453   5.470  0.2542 -0.4466  2.3811
  863MOL0     H19078   3.227   6.484   6.734 -0.9497 -0.7642 -1.1062
  863MOL0     H19079   3.286   6.289   6.883  3.2207 -4.3949 -1.3865
  863MOL0     H19080   3.254   5.927   7.034  0.0978 -0.4595 -0.0875
  863MOL0     H19081   3.288   5.771   7.224  1.6563  1.7695  1.4482
  863MOL0     H19082   3.118   5.867   7.579  2.4094 -0.0660  2.3881
  863MOL0     H19083   3.148   5.692   7.613 -3.2666  0.0893 -0.5966
  863MOL0     H19084   3.338   5.900   7.496 -1.1773  0.2157 -0.1979
  863MOL0     H19085   3.354   5.728   7.478  0.3759  0.0774 -0.4915
  863MOL0     H19086   3.319   5.748   7.741 -0.2183  2.4103 -0.1994
  863MOL0     H19087   3.486   5.746   7.662  0.6617 -0.1876  1.0543
  863MOL0     H19088   3.461   5.914   7.833 -0.3893  0.9334  0.5868
  863MOL0     H19089   3.313   5.985   7.748 -0.2521  0.6583  1.2206
  863MOL0     H19090   3.559   6.176   7.497 -1.2255 -0.4227 -0.9564
  863MOL0     H19091   2.919   5.905   7.390 -1.7426 -0.5215 -1.4836
  863MOL0     H19092   2.845   6.149   7.246  3.2114 -1.4234  2.4680
  863MOL0     H19093   2.803   6.075   7.085  0.8733 -2.2853 -0.7392
  863MOL0     H19094   2.753   6.004   7.242 -0.1351  1.3333  2.7918
  864MOL0     O19095   4.803  11.067   7.364  0.0741 -0.5959 -0.6159
  864MOL0     C19096   4.915  11.092   7.312  0.9191  0.2280  0.2808
  864MOL0     O19097   5.020  11.128   7.377  0.1568  0.0288  0.1028
  864MOL0     C19098   5.028  11.096   7.509 -1.1712  0.4470  0.4012
  864MOL0     C19099   5.006  10.968   7.571  0.6145 -0.4975 -0.5847
  864MOL0     C19100   5.030  10.959   7.717  1.2555 -0.7539  0.8166
  864MOL0     C19101   5.074  11.062   7.801  0.0840 -0.3746  1.7729
  864MOL0     O19102   5.108  11.039   7.933 -0.3557  0.1756  0.2658
  864MOL0     C19103   5.055  10.937   8.022 -0.6940  0.2306  0.2740
  864MOL0     C19104   5.141  10.805   8.026 -0.0659  1.0281  0.0292
  864MOL0     C19105   5.127  10.729   8.161 -0.2949 -0.2925 -0.1835
  864MOL0     C19106   5.101  10.579   8.137 -0.1423 -0.2711  0.7421
  864MOL0     C19107   5.220  10.509   8.065 -0.6421  0.2178  0.2480
  864MOL0     C19108   5.329  10.478   8.169 -0.3882  0.6538  0.1378
  864MOL0     C19109   5.456  10.438   8.087 -0.2069  0.3789  0.6024
  864MOL0     C19110   5.571  10.407   8.192  0.6226 -0.5418  0.8339
  864MOL0     N19111   5.714  10.408   8.140  0.0213 -0.3224 -0.6688
  864MOL0     C19112   5.835  10.413   8.217 -0.2066  0.4551  0.1210
  864MOL0     C19113   5.933  10.368   8.132  0.0782 -0.5068 -0.2963
  864MOL0     C19114   6.086  10.371   8.156  0.2508  0.6052  0.7382
  864MOL0     C19115   6.163  10.478   8.068 -0.7637  0.9600 -0.7330
  864MOL0     C19116   6.298  10.510   8.123  0.0559  0.0728 -0.9672
  864MOL0     C19117   6.394  10.587   8.038 -0.1454 -0.3697  0.0125
  864MOL0     O19118   6.536  10.569   8.067  0.6221  0.0192  0.9177
  864MOL0     C19119   6.609  10.651   8.156  0.2489  0.1316 -0.4728
  864MOL0     C19120   6.546  10.725   8.263 -0.1702 -0.7610  0.1390
  864MOL0     C19121   6.614  10.807   8.347  0.7080  0.1718  0.0736
  864MOL0     C19122   6.527  10.881   8.450  0.4272 -0.7232  0.3570
  864MOL0     C19123   6.753  10.818   8.341  0.2595 -0.9482 -1.5300
  864MOL0     C19124   6.832  10.901   8.442 -0.5465  1.3514  0.4689
  864MOL0     O19125   6.963  10.919   8.398  0.2128  0.8563  0.3525
  864MOL0     C19126   7.056  10.996   8.464  0.8663 -0.5190 -0.6668
  864MOL0     C19127   7.173  10.932   8.508 -0.1672 -0.2281 -0.4402
  864MOL0     C19128   7.272  11.008   8.578  0.2860  0.6961  0.2004
  864MOL0     C19129   7.264  11.144   8.595  0.3875 -0.3364  0.3154
  864MOL0     O19130   7.363  11.221   8.656  0.0345  0.1003 -0.1898
  864MOL0     C19131   7.459  11.152   8.741  0.0100  0.2228  0.0812
  864MOL0     C19132   7.561  11.243   8.794 -0.3399 -0.0459  0.1361
  864MOL0     C19133   7.514  11.342   8.902  0.0631 -1.3605  0.5990
  864MOL0     C19134   7.445  11.465   8.837 -0.4033 -0.2820 -0.0816
  864MOL0     C19135   7.387  11.557   8.940  0.2992 -0.4498 -0.1084
  864MOL0     C19136   7.279  11.504   9.033  0.6671 -0.1839 -0.2398
  864MOL0     C19137   7.163  11.442   8.964 -0.3546  0.2083  0.2105
  864MOL0     C19138   7.072  11.384   9.072  0.0286 -0.2505  0.4138
  864MOL0    Cl19139   6.947  11.284   8.992  0.0850  0.1783 -0.1531
  864MOL0     C19140   7.157  11.209   8.547 -0.8909  0.1171  0.1224
  864MOL0     C19141   7.054  11.134   8.499 -0.0722  0.0232  0.1228
  864MOL0     O19142   6.786  10.942   8.548 -0.2644 -0.1628  0.1854
  864MOL0     C19143   6.811  10.728   8.250  0.4532 -0.1205  0.6345
  864MOL0     C19144   6.746  10.649   8.157 -1.0385  1.5097  0.2334
  864MOL0     N19145   5.877  10.365   8.005 -0.3581 -0.3321  0.3780
  864MOL0     N19146   5.750  10.388   8.012 -0.0009  0.5124 -0.4564
  864MOL0     C19147   5.098  11.182   7.732 -0.0456 -0.0069 -1.3461
  864MOL0     C19148   5.076  11.195   7.598  0.0431 -0.6597  0.1286
  864MOL0     C19149   4.904  11.123   7.168  0.2946  0.2730  1.2277
  864MOL0     C19150   4.876  11.250   7.137  0.5485 -0.2895 -0.4984
  864MOL0     C19151   4.851  11.292   7.008  0.3372 -0.0489  0.0576
  864MOL0     C19152   4.864  11.198   6.902 -0.4480  0.6164  0.1756
  864MOL0     O19153   4.856  11.245   6.774 -0.6247  0.0058 -0.0676
  864MOL0     C19154   4.722  11.292   6.752 -0.9873  0.2332 -0.3699
  864MOL0     C19155   4.710  11.445   6.722 -0.8632  0.2804  0.0062
  864MOL0     C19156   4.584  11.476   6.647  0.3848 -0.6459  0.6589
  864MOL0     C19157   4.601  11.443   6.497  0.2940  0.9611 -0.1590
  864MOL0     C19158   4.481  11.478   6.413  0.4062 -0.2604 -1.2621
  864MOL0     C19159   4.382  11.514   6.345 -1.0759 -0.6608  0.1557
  864MOL0     C19160   4.915  11.067   6.921 -0.7585  0.6424  0.0939
  864MOL0     C19161   4.924  11.031   7.058 -0.0101  0.0206  0.0223
  864MOL0     C19162   4.950  10.889   7.093  0.1988  0.5435 -0.2426
  864MOL0     H19163   4.994  10.878   7.511  0.4004 -0.9534  0.1397
  864MOL0     H19164   5.015  10.857   7.750 -1.3579 -0.9463 -0.6847
  864MOL0     H19165   4.950  10.919   8.001 -0.4727  1.2730 -2.0812
  864MOL0     H19166   5.061  10.987   8.119 -0.6468  1.2019 -0.2212
  864MOL0     H19167   5.114  10.742   7.941 -1.6544  0.5856  0.8193
  864MOL0     H19168   5.244  10.840   8.022  0.7492 -0.8186  2.5673
  864MOL0     H19169   5.208  10.754   8.230 -0.9096 -2.6360  1.4976
  864MOL0     H19170   5.035  10.757   8.213  0.0085 -1.1294  0.8418
  864MOL0     H19171   5.087  10.534   8.236  2.5752  0.2397  1.4436
  864MOL0     H19172   5.004  10.565   8.088  0.1272  0.6862 -0.1199
  864MOL0     H19173   5.252  10.564   7.976 -1.5250  2.0132  1.0026
  864MOL0     H19174   5.179  10.412   8.033 -3.6107  1.4781 -0.0673
  864MOL0     H19175   5.357  10.560   8.236 -1.2590 -0.4902  1.9883
  864MOL0     H19176   5.305  10.394   8.235 -0.6897  1.1800  0.7092
  864MOL0     H19177   5.476  10.529   8.031 -2.8066  1.3229  1.0394
  864MOL0     H19178   5.444  10.358   8.014  2.1294  2.4069 -2.2104
  864MOL0     H19179   5.579  10.479   8.274  1.0156 -0.1525  0.4643
  864MOL0     H19180   5.557  10.308   8.237 -3.7648 -1.3127 -1.7050
  864MOL0     H19181   5.848  10.459   8.314 -0.6135  0.4339  0.1851
  864MOL0     H19182   6.125  10.270   8.137  0.3284  0.6881  0.4440
  864MOL0     H19183   6.131  10.403   8.250  2.6558  1.9387 -0.7528
  864MOL0     H19184   6.176  10.435   7.969 -2.8586  0.0609 -0.6608
  864MOL0     H19185   6.101  10.568   8.067 -2.3876 -0.0834  0.8317
  864MOL0     H19186   6.284  10.581   8.206 -0.5518 -0.5375 -0.5355
  864MOL0     H19187   6.347  10.422   8.164 -2.8581 -1.0793  0.2874
  864MOL0     H19188   6.389  10.562   7.931  3.5366  2.0527 -0.9370
  864MOL0     H19189   6.359  10.690   8.050 -2.5668 -1.3285  2.0211
  864MOL0     H19190   6.439  10.725   8.279 -0.1486  1.5035  0.6134
  864MOL0     H19191   6.539  10.849   8.554  0.2394 -0.7063  0.3844
  864MOL0     H19192   6.422  10.880   8.420  0.7775  1.6965 -1.1939
  864MOL0     H19193   6.561  10.985   8.440  0.4427 -0.7814 -0.2330
  864MOL0     H19194   7.194  10.827   8.489 -0.4684 -0.8291  2.1721
  864MOL0     H19195   7.343  10.952   8.637 -1.7101 -2.3985 -0.0846
  864MOL0     H19196   7.399  11.097   8.815 -1.9799  1.2559 -0.6952
  864MOL0     H19197   7.522  11.080   8.689  1.0306  1.3853 -0.3291
  864MOL0     H19198   7.635  11.182   8.847  2.3932  3.1964  0.3887
  864MOL0     H19199   7.629  11.287   8.720  0.1517 -0.6838  0.1957
  864MOL0     H19200   7.598  11.382   8.961 -2.9749  2.6114  2.7166
  864MOL0     H19201   7.453  11.287   8.975  1.3268  0.8931  3.5874
  864MOL0     H19202   7.373  11.430   8.763  1.3740  0.7192 -2.4052
  864MOL0     H19203   7.519  11.528   8.786 -1.0494 -0.4520 -1.2746
  864MOL0     H19204   7.457  11.607   9.008  0.6860  3.0074 -2.7516
  864MOL0     H19205   7.347  11.645   8.890  0.4211  1.0086  2.1894
  864MOL0     H19206   7.237  11.586   9.092 -0.0999  0.0887 -1.1478
  864MOL0     H19207   7.334  11.437   9.099 -0.7414  0.7732  2.0515
  864MOL0     H19208   7.191  11.364   8.893 -0.2908  2.2571 -2.1314
  864MOL0     H19209   7.104  11.515   8.908 -2.0241 -2.0909 -1.2014
  864MOL0     H19210   7.038  11.456   9.146 -0.0932  1.8224 -1.5429
  864MOL0     H19211   7.142  11.326   9.133  1.9718  0.7475 -0.7615
  864MOL0     H19212   7.144  11.316   8.559 -0.3911  0.2434 -0.4250
  864MOL0     H19213   6.960  11.184   8.480  0.9380  1.2211 -2.0914
  864MOL0     H19214   6.919  10.731   8.265  0.3752 -1.7356  1.7034
  864MOL0     H19215   6.804  10.589   8.089 -2.2925  0.4417  0.0742
  864MOL0     H19216   5.122  11.265   7.798  0.2095 -0.9078 -0.2629
  864MOL0     H19217   5.108  11.288   7.553 -1.1872 -1.9381 -3.7286
  864MOL0     H19218   4.865  11.326   7.214  0.0504  0.6973 -1.5248
  864MOL0     H19219   4.829  11.396   6.985 -2.9808 -0.6561 -0.0522
  864MOL0     H19220   4.678  11.235   6.670 -2.4858  0.1353  0.4481
  864MOL0     H19221   4.653  11.265   6.833 -0.0570 -0.0343  0.3505
  864MOL0     H19222   4.794  11.468   6.656  0.2673  1.1407  1.6936
  864MOL0     H19223   4.728  11.518   6.801  0.9511  0.0945 -0.1827
  864MOL0     H19224   4.508  11.411   6.691  1.1550 -2.4886 -0.6052
  864MOL0     H19225   4.556  11.578   6.673 -0.9886 -1.4447  2.5515
  864MOL0     H19226   4.620  11.337   6.481 -2.1858  0.4805 -0.1742
  864MOL0     H19227   4.688  11.502   6.462  3.4945 -2.8088  0.7393
  864MOL0     H19228   4.304  11.556   6.285  1.0668  3.2162 -0.1901
  864MOL0     H19229   4.930  10.988   6.848  1.3050  0.7960  0.2861
  864MOL0     H19230   5.059  10.887   7.104  0.0021 -0.7300  1.8832
  864MOL0     H19231   4.905  10.868   7.190 -0.2083  0.3602 -0.4649
  864MOL0     H19232   4.910  10.818   7.019 -1.0910  1.1142 -0.1206
  865MOL0     O19233   1.907   8.263   5.225  0.1210 -0.6713  0.9873
  865MOL0     C19234   1.855   8.357   5.167  0.2211  0.8510 -0.8947
  865MOL0     O19235   1.868   8.384   5.037  0.0341  0.4515  0.2170
  865MOL0     C19236   1.933   8.292   4.955 -0.5105  0.6239  0.2658
  865MOL0     C19237   2.067   8.246   4.984  0.3975 -0.7152  0.1039
  865MOL0     C19238   2.135   8.162   4.896  0.6207  0.5234 -0.6334
  865MOL0     C19239   2.058   8.119   4.780 -0.1508  0.1616 -1.9859
  865MOL0     O19240   2.103   8.016   4.703  0.4878 -0.1057  0.1481
  865MOL0     C19241   2.214   7.938   4.735 -0.8621 -0.5539 -0.4578
  865MOL0     C19242   2.247   7.824   4.633  0.0466 -0.7343 -0.4416
  865MOL0     C19243   2.393   7.760   4.676 -0.0726  0.4321 -0.2985
  865MOL0     C19244   2.349   7.663   4.789  0.3387  0.5020  0.1237
  865MOL0     C19245   2.465   7.591   4.854  0.1108 -0.5471 -0.6062
  865MOL0     C19246   2.536   7.500   4.752  0.2923 -0.3417  0.6909
  865MOL0     C19247   2.631   7.390   4.800  0.4690  0.3104 -0.3422
  865MOL0     C19248   2.734   7.441   4.898 -0.4910 -0.2257 -0.0233
  865MOL0     N19249   2.830   7.549   4.857 -0.8304  0.0929 -0.0119
  865MOL0     C19250   2.961   7.521   4.819  1.0174 -0.3974  0.4966
  865MOL0     C19251   3.015   7.639   4.803 -0.7054 -1.4709  0.7692
  865MOL0     C19252   3.164   7.664   4.798 -0.1577  0.3602 -0.2438
  865MOL0     C19253   3.222   7.722   4.931 -0.4104  0.3223  0.0381
  865MOL0     C19254   3.259   7.615   5.034  0.3210  0.2899 -1.0008
  865MOL0     C19255   3.282   7.679   5.172 -0.0061  0.3289  0.2038
  865MOL0     O19256   3.152   7.718   5.218  0.8608 -0.6966  0.8804
  865MOL0     C19257   3.150   7.754   5.348 -0.1525 -0.1027 -0.6222
  865MOL0     C19258   3.138   7.673   5.469  0.3797 -0.2496  0.3506
  865MOL0     C19259   3.163   7.716   5.601 -0.1262 -0.5328 -0.5305
  865MOL0     C19260   3.150   7.618   5.719 -0.3448  0.6136  0.1413
  865MOL0     C19261   3.182   7.852   5.616 -0.1310 -0.2047  0.0490
  865MOL0     C19262   3.215   7.916   5.751  0.4072 -0.0685  0.0589
  865MOL0     O19263   3.162   7.866   5.867  0.1377  0.4449  0.0194
  865MOL0     C19264   3.190   7.929   5.988 -0.6471 -0.8016  0.1463
  865MOL0     C19265   3.170   8.067   5.999  0.3419  0.3340  0.7325
  865MOL0     C19266   3.219   8.129   6.119  0.7156  0.0460 -0.4475
  865MOL0     C19267   3.266   8.054   6.233  0.3692 -0.8773  0.4008
  865MOL0     O19268   3.299   8.114   6.347  0.5414  0.2007  0.4054
  865MOL0     C19269   3.430   8.077   6.401  0.8149  0.0634 -0.6012
  865MOL0     C19270   3.503   8.207   6.444  0.7051  0.4522  0.0296
  865MOL0     C19271   3.585   8.270   6.329  0.2818  0.0956  0.3473
  865MOL0     C19272   3.718   8.195   6.286  0.1572  0.4786  0.6440
  865MOL0     C19273   3.809   8.274   6.198 -0.6610 -0.1917 -1.0995
  865MOL0     C19274   3.913   8.187   6.129  0.0962  0.2454  0.4351
  865MOL0     C19275   4.002   8.271   6.045 -0.0359 -0.5519  0.1911
  865MOL0     C19276   4.103   8.190   5.965 -0.7256 -0.6948  0.0675
  865MOL0    Cl19277   4.204   8.077   6.059  0.1244  0.0996  0.1424
  865MOL0     C19278   3.276   7.912   6.214 -0.1187  0.0953  0.9361
  865MOL0     C19279   3.236   7.847   6.095 -0.3727 -0.8705  0.2139
  865MOL0     O19280   3.301   8.006   5.743 -0.2507 -0.4083 -0.3472
  865MOL0     C19281   3.191   7.934   5.498 -0.3444  0.3427 -0.0992
  865MOL0     C19282   3.181   7.882   5.374 -0.6522  0.4582 -0.5579
  865MOL0     N19283   2.912   7.736   4.811  0.5837 -0.7327 -0.0576
  865MOL0     N19284   2.801   7.676   4.833  0.2612  0.1465 -0.3157
  865MOL0     C19285   1.935   8.177   4.745 -0.3478 -0.4887  0.1732
  865MOL0     C19286   1.874   8.256   4.838 -0.0354  0.8492 -0.2893
  865MOL0     C19287   1.795   8.470   5.239  0.1736  0.1367  0.7880
  865MOL0     C19288   1.756   8.581   5.161 -0.9838 -0.0703  0.4160
  865MOL0     C19289   1.688   8.691   5.218 -0.2706 -0.4656  0.3124
  865MOL0     C19290   1.673   8.698   5.360  0.8988  0.3341  0.0668
  865MOL0     O19291   1.606   8.790   5.427 -0.3694 -0.8788 -0.0249
  865MOL0     C19292   1.526   8.886   5.366 -0.3123 -0.2413 -0.6242
  865MOL0     C19293   1.398   8.832   5.301 -0.0199 -0.1445 -0.3016
  865MOL0     C19294   1.281   8.925   5.293 -0.2158 -0.2255 -1.2829
  865MOL0     C19295   1.147   8.850   5.285  0.6510  0.1927  0.0313
  865MOL0     C19296   1.049   8.939   5.221  0.6953 -0.5325 -0.1474
  865MOL0     C19297   0.951   9.014   5.182 -0.6474  0.5243 -0.2717
  865MOL0     C19298   1.726   8.593   5.438  0.1389  1.0860  0.3605
  865MOL0     C19299   1.790   8.480   5.378  0.4030 -0.9995 -0.6152
  865MOL0     C19300   1.826   8.373   5.480 -0.8677  0.1874 -0.8528
  865MOL0     H19301   2.101   8.277   5.082 -0.1025 -1.7127  0.6088
  865MOL0     H19302   2.232   8.131   4.933  2.2546  1.1009 -4.0023
  865MOL0     H19303   2.183   7.899   4.832 -0.4334 -2.2292 -0.9658
  865MOL0     H19304   2.302   8.001   4.752 -0.4587 -1.2553  0.0944
  865MOL0     H19305   2.166   7.752   4.644 -0.0877 -0.9403 -2.4142
  865MOL0     H19306   2.247   7.863   4.531 -0.0482 -1.6274 -0.7948
  865MOL0     H19307   2.444   7.701   4.599 -2.3800 -0.2076 -1.4218
  865MOL0     H19308   2.449   7.843   4.718 -3.2785  1.9577  1.3335
  865MOL0     H19309   2.297   7.716   4.870  0.7917  0.1310  0.6668
  865MOL0     H19310   2.285   7.588   4.742  1.5788  0.8284 -2.2565
  865MOL0     H19311   2.426   7.523   4.930 -2.6615  1.5663 -0.0019
  865MOL0     H19312   2.518   7.676   4.899 -0.6594  0.6224 -1.8372
  865MOL0     H19313   2.448   7.459   4.701  0.1505  2.7008 -1.8109
  865MOL0     H19314   2.593   7.558   4.679 -0.7083  0.1854  0.3138
  865MOL0     H19315   2.690   7.354   4.715  1.7424 -1.9970  1.4247
  865MOL0     H19316   2.574   7.307   4.843 -0.3351  1.6248  1.2402
  865MOL0     H19317   2.693   7.473   4.994  1.9782 -0.1594  1.0754
  865MOL0     H19318   2.788   7.350   4.926  0.4780  0.2907 -0.1603
  865MOL0     H19319   3.017   7.427   4.820  2.0895  0.1490 -1.6122
  865MOL0     H19320   3.180   7.748   4.729 -2.3406  1.4241  0.4661
  865MOL0     H19321   3.227   7.585   4.756  1.0564  0.8693  0.5766
  865MOL0     H19322   3.316   7.769   4.901 -0.2737 -0.9190 -1.6796
  865MOL0     H19323   3.150   7.795   4.968  1.4310  1.2851  1.9522
  865MOL0     H19324   3.182   7.537   5.036  2.2960 -1.7775  0.5120
  865MOL0     H19325   3.351   7.561   5.011  0.4547  0.4698 -0.8959
  865MOL0     H19326   3.333   7.610   5.240 -1.2390 -0.6693  0.1264
  865MOL0     H19327   3.349   7.766   5.169  1.8841 -1.0974 -1.1097
  865MOL0     H19328   3.116   7.568   5.459  0.7174 -0.5991  2.6329
  865MOL0     H19329   3.071   7.646   5.790  2.4631  1.3552  3.2275
  865MOL0     H19330   3.240   7.604   5.780 -1.0268 -1.9949  0.6660
  865MOL0     H19331   3.139   7.515   5.683  2.1945 -1.7898  5.2083
  865MOL0     H19332   3.140   8.133   5.918  1.5993 -0.3004 -0.2823
  865MOL0     H19333   3.225   8.237   6.118  1.2344  0.0179 -0.5993
  865MOL0     H19334   3.429   8.027   6.498  0.6536  1.7037  0.2954
  865MOL0     H19335   3.488   8.022   6.327  0.3384  0.5241 -1.3368
  865MOL0     H19336   3.419   8.267   6.479  0.2019 -0.2951  0.1177
  865MOL0     H19337   3.574   8.184   6.524  1.8045  0.6323 -0.8586
  865MOL0     H19338   3.615   8.374   6.345  0.8960 -0.3213  2.1448
  865MOL0     H19339   3.514   8.270   6.246 -0.2013 -0.9275  0.7529
  865MOL0     H19340   3.687   8.104   6.233 -1.5791  0.4446  1.6510
  865MOL0     H19341   3.758   8.151   6.378 -0.1659 -0.3885  0.3819
  865MOL0     H19342   3.757   8.325   6.117 -1.8221 -0.0060 -0.2650
  865MOL0     H19343   3.851   8.355   6.260 -0.5234 -1.7427  0.9440
  865MOL0     H19344   3.877   8.099   6.076 -0.1634  1.5920 -1.7524
  865MOL0     H19345   3.974   8.139   6.206  0.2381 -2.6302 -1.3580
  865MOL0     H19346   4.050   8.349   6.105 -1.8912  1.8398 -1.2502
  865MOL0     H19347   3.933   8.322   5.976 -0.1304  0.1649  0.7994
  865MOL0     H19348   4.163   8.261   5.907 -0.5861 -1.6133 -0.9284
  865MOL0     H19349   4.036   8.143   5.893  1.8621  0.2656 -3.2072
  865MOL0     H19350   3.295   7.845   6.298 -3.1763 -0.1124  1.5620
  865MOL0     H19351   3.246   7.740   6.076  2.0557 -0.4372 -1.4331
  865MOL0     H19352   3.213   8.038   5.517 -1.2378  0.9604 -2.1849
  865MOL0     H19353   3.213   7.958   5.303 -0.1249 -0.8698 -1.7686
  865MOL0     H19354   1.895   8.155   4.647 -0.7293 -0.5899  0.3512
  865MOL0     H19355   1.771   8.287   4.821  1.0107  4.8445 -0.3946
  865MOL0     H19356   1.777   8.585   5.054 -0.2856 -1.7811  0.4608
  865MOL0     H19357   1.679   8.783   5.160  2.3028  0.8663  1.8344
  865MOL0     H19358   1.493   8.965   5.434  1.6350  0.9956 -1.0445
  865MOL0     H19359   1.582   8.951   5.299 -1.3029  0.3922 -0.8667
  865MOL0     H19360   1.368   8.742   5.355  0.3401  0.2565  0.5887
  865MOL0     H19361   1.438   8.794   5.207  3.2897 -2.6986  1.8817
  865MOL0     H19362   1.283   9.004   5.369  0.5392  0.1955 -1.7387
  865MOL0     H19363   1.300   8.982   5.202  2.3152  0.9728 -0.1034
  865MOL0     H19364   1.114   8.820   5.385 -3.3589 -1.1009 -1.4790
  865MOL0     H19365   1.153   8.761   5.221 -0.3239  1.4866 -1.9528
  865MOL0     H19366   0.882   9.085   5.140  1.6500  1.9529 -1.8272
  865MOL0     H19367   1.719   8.612   5.545  0.3143 -2.5257  1.1395
  865MOL0     H19368   1.758   8.291   5.459  1.8514 -2.6497  0.5645
  865MOL0     H19369   1.927   8.333   5.468  0.1078  1.8801  1.0145
  865MOL0     H19370   1.804   8.413   5.580  2.3639 -0.7348  0.3628
  866MOL0     O19371   4.386   0.192   8.089  0.4446  0.1950  0.7578
  866MOL0     C19372   4.446   0.296   8.070 -0.0816  0.0324  0.0001
  866MOL0     O19373   4.526   0.326   7.959  0.7783  0.2810  0.3532
  866MOL0     C19374   4.553   0.221   7.877  0.7270  0.6975  0.1744
  866MOL0     C19375   4.506   0.238   7.743 -0.3740  0.6011  0.2279
  866MOL0     C19376   4.535   0.132   7.653 -0.1335 -0.2970 -0.6762
  866MOL0     C19377   4.588   0.012   7.688  1.3663 -0.0962  0.3954
  866MOL0     O19378   4.593  -0.091   7.588 -0.1544 -0.5049  0.6323
  866MOL0     C19379   4.663  -0.212   7.610  0.9161 -0.4472 -0.6375
  866MOL0     C19380   4.566  -0.320   7.662  0.0704  0.1016 -0.7509
  866MOL0     C19381   4.629  -0.455   7.689 -0.1465  0.1377 -0.1238
  866MOL0     C19382   4.529  -0.551   7.769 -0.4656 -0.7494  0.3070
  866MOL0     C19383   4.608  -0.618   7.884  0.1646 -0.1233 -0.0468
  866MOL0     C19384   4.520  -0.705   7.974  0.5789  0.3124  0.3157
  866MOL0     C19385   4.559  -0.852   7.981 -0.5482 -1.0334 -0.0331
  866MOL0     C19386   4.531  -0.933   7.851  0.9872 -0.5864  0.5579
  866MOL0     N19387   4.580  -1.069   7.858  0.1269 -0.6982  0.2676
  866MOL0     C19388   4.662  -1.125   7.763 -0.1235 -0.7462  0.5992
  866MOL0     C19389   4.693  -1.245   7.815 -0.1789 -0.0449  0.4162
  866MOL0     C19390   4.776  -1.348   7.760 -0.2113  0.1431  0.4573
  866MOL0     C19391   4.902  -1.366   7.844  0.4661  0.4004 -0.3398
  866MOL0     C19392   4.969  -1.500   7.804 -0.0627  0.2618  0.3448
  866MOL0     C19393   5.088  -1.546   7.900  0.0188 -1.0445 -0.0530
  866MOL0     O19394   5.186  -1.441   7.912 -0.5285 -0.2975 -0.1643
  866MOL0     C19395   5.268  -1.424   7.811  1.3785 -0.0407  0.1224
  866MOL0     C19396   5.303  -1.513   7.711 -0.1123 -0.2706  0.0744
  866MOL0     C19397   5.380  -1.478   7.599  0.8649  0.5198  0.2452
  866MOL0     C19398   5.406  -1.584   7.495 -0.9202  0.1633 -0.2100
  866MOL0     C19399   5.435  -1.347   7.584  0.2054  0.0509 -0.2126
  866MOL0     C19400   5.531  -1.309   7.475  0.9385  0.0929  0.4397
  866MOL0     O19401   5.520  -1.177   7.446 -0.8060  1.0618 -0.1017
  866MOL0     C19402   5.603  -1.122   7.347  0.7827  0.0836  0.1963
  866MOL0     C19403   5.618  -1.168   7.222  0.5672  1.3310  0.6812
  866MOL0     C19404   5.686  -1.107   7.118 -0.2069  0.3367  0.9129
  866MOL0     C19405   5.751  -0.994   7.145 -0.9578 -0.8428  0.4023
  866MOL0     O19406   5.802  -0.919   7.041 -0.1900 -0.4217  0.1539
  866MOL0     C19407   5.866  -0.977   6.925 -0.5275  0.4307 -0.7103
  866MOL0     C19408   5.916  -0.868   6.832 -0.6890 -0.4376  0.1191
  866MOL0     C19409   5.794  -0.792   6.767  0.0472  0.0675  0.0485
  866MOL0     C19410   5.831  -0.714   6.639 -0.6303  0.9989 -1.1532
  866MOL0     C19411   5.717  -0.696   6.552  0.1607  1.1293  0.3319
  866MOL0     C19412   5.747  -0.596   6.442 -0.3515 -0.5883  0.4387
  866MOL0     C19413   5.623  -0.585   6.358 -0.0935 -0.3170  0.0614
  866MOL0     C19414   5.646  -0.499   6.233 -0.1611  0.1859 -1.3267
  866MOL0    Cl19415   5.520  -0.532   6.114  0.2392 -1.2671  0.1860
  866MOL0     C19416   5.736  -0.942   7.270  0.0588 -0.2751  0.1548
  866MOL0     C19417   5.668  -0.998   7.376 -0.2934  1.0706  0.5848
  866MOL0     O19418   5.619  -1.387   7.441 -0.2932 -0.5463 -0.3817
  866MOL0     C19419   5.383  -1.256   7.678 -0.3321 -0.1563  0.5672
  866MOL0     C19420   5.307  -1.288   7.792 -0.4094  0.7995  1.4568
  866MOL0     N19421   4.617  -1.260   7.935  0.8482 -0.3082  0.0222
  866MOL0     N19422   4.548  -1.155   7.956  0.1010  0.0231 -0.1791
  866MOL0     C19423   4.624  -0.007   7.824 -0.5541 -0.4432 -0.3011
  866MOL0     C19424   4.614   0.102   7.916  0.1837 -0.1045 -0.3668
  866MOL0     C19425   4.416   0.413   8.161 -0.8404  0.1950 -0.2212
  866MOL0     C19426   4.523   0.478   8.231  0.8715 -0.2698 -0.0627
  866MOL0     C19427   4.493   0.567   8.339 -0.4877  0.2225 -0.9553
  866MOL0     C19428   4.366   0.592   8.377  0.4508 -0.5618 -0.6156
  866MOL0     O19429   4.318   0.672   8.481 -0.3606 -0.2629 -0.0034
  866MOL0     C19430   4.406   0.768   8.557 -0.1639  1.1242 -0.1668
  866MOL0     C19431   4.327   0.837   8.671  0.4959  0.4186  0.1852
  866MOL0     C19432   4.293   0.988   8.644  0.7914  0.5459 -0.7347
  866MOL0     C19433   4.409   1.087   8.656 -0.5964 -0.0209 -1.1360
  866MOL0     C19434   4.457   1.099   8.796 -0.1370  0.3834 -0.6345
  866MOL0     C19435   4.474   1.089   8.909  0.0115 -0.3952 -0.4302
  866MOL0     C19436   4.265   0.541   8.311 -0.4695  0.3502 -0.5196
  866MOL0     C19437   4.289   0.451   8.202 -0.3881 -0.1511 -0.5302
  866MOL0     C19438   4.169   0.407   8.124  0.3437 -0.0914 -0.2791
  866MOL0     H19439   4.449   0.326   7.714 -2.4614 -1.2320 -1.5758
  866MOL0     H19440   4.506   0.148   7.549 -2.9210 -0.1741  0.0420
  866MOL0     H19441   4.757  -0.202   7.666  1.8146  2.2499 -2.4533
  866MOL0     H19442   4.695  -0.259   7.517  0.1924  1.3657 -1.8433
  866MOL0     H19443   4.533  -0.285   7.761  0.1718 -3.9311  0.9114
  866MOL0     H19444   4.485  -0.336   7.592  1.5464  0.2567 -2.5685
  866MOL0     H19445   4.658  -0.497   7.592 -1.4668 -0.1158 -0.4236
  866MOL0     H19446   4.718  -0.431   7.748 -1.1217  4.3848 -0.0891
  866MOL0     H19447   4.446  -0.501   7.822  1.6842  0.8944  2.3516
  866MOL0     H19448   4.485  -0.622   7.698 -1.9155 -0.3267  0.7358
  866MOL0     H19449   4.646  -0.542   7.953  0.6392 -2.3909  2.3397
  866MOL0     H19450   4.686  -0.674   7.832  1.5544  1.6367  0.0467
  866MOL0     H19451   4.526  -0.665   8.076  1.5723 -0.4277  0.5639
  866MOL0     H19452   4.414  -0.702   7.950  0.8634 -1.9224 -1.5025
  866MOL0     H19453   4.508  -0.904   8.063 -0.8710 -2.4265 -1.0980
  866MOL0     H19454   4.668  -0.855   7.990 -0.4090  1.5595 -0.1198
  866MOL0     H19455   4.430  -0.923   7.812  0.7582 -1.6859  0.8301
  866MOL0     H19456   4.590  -0.878   7.777 -1.4509  1.7220  0.1617
  866MOL0     H19457   4.719  -1.088   7.678 -0.3604 -3.3323 -0.8071
  866MOL0     H19458   4.789  -1.321   7.655 -3.4978 -0.5917 -0.2401
  866MOL0     H19459   4.711  -1.435   7.773 -0.7630  0.5492  0.4235
  866MOL0     H19460   4.976  -1.289   7.822  1.7157 -1.6427 -4.0869
  866MOL0     H19461   4.882  -1.388   7.949  2.0138 -1.9914 -0.4621
  866MOL0     H19462   4.892  -1.578   7.799 -0.3373  0.2260  3.3351
  866MOL0     H19463   5.006  -1.490   7.702 -0.8279  2.3477  0.2378
  866MOL0     H19464   5.056  -1.557   8.004  1.8884  3.6988  1.3209
  866MOL0     H19465   5.123  -1.647   7.879 -0.2568 -1.9185  3.1364
  866MOL0     H19466   5.283  -1.619   7.722  0.7520 -0.1619  4.8829
  866MOL0     H19467   5.324  -1.656   7.502 -1.8518  1.3217  1.4499
  866MOL0     H19468   5.510  -1.615   7.503 -0.1017  2.7060 -0.0904
  866MOL0     H19469   5.398  -1.546   7.393  0.4826  2.7570  0.5524
  866MOL0     H19470   5.562  -1.259   7.200  1.2510  0.5721  1.9967
  866MOL0     H19471   5.685  -1.148   7.017 -2.3272  2.8903 -0.2558
  866MOL0     H19472   5.952  -1.039   6.951  1.2770  3.1104  0.0554
  866MOL0     H19473   5.791  -1.029   6.864 -0.2109  1.7797 -2.3121
  866MOL0     H19474   5.989  -0.800   6.878  0.4511 -0.3781 -1.6853
  866MOL0     H19475   5.986  -0.916   6.763  1.3157  2.0153  0.3095
  866MOL0     H19476   5.749  -0.718   6.834 -1.2215 -1.5046  1.0418
  866MOL0     H19477   5.713  -0.866   6.758  0.2192 -0.2797  1.1476
  866MOL0     H19478   5.904  -0.773   6.583 -0.9960 -1.4466  0.7593
  866MOL0     H19479   5.857  -0.613   6.672 -1.0537  1.1930 -1.4012
  866MOL0     H19480   5.695  -0.792   6.506 -1.1743  0.9591  1.2686
  866MOL0     H19481   5.627  -0.663   6.606 -1.3700 -0.7355 -0.9526
  866MOL0     H19482   5.825  -0.640   6.380 -1.3304 -1.2252 -0.3594
  866MOL0     H19483   5.780  -0.497   6.476 -2.4460 -0.9665  4.1240
  866MOL0     H19484   5.543  -0.538   6.417  0.0099  2.9025 -2.0905
  866MOL0     H19485   5.581  -0.678   6.319 -0.2783 -0.4706  0.6085
  866MOL0     H19486   5.742  -0.521   6.185  0.9063 -1.7641  1.4777
  866MOL0     H19487   5.638  -0.390   6.244 -1.4529  0.0860 -1.1376
  866MOL0     H19488   5.789  -0.851   7.296 -0.8325  1.0478 -2.3585
  866MOL0     H19489   5.654  -0.953   7.473 -4.2613  4.0838 -1.0523
  866MOL0     H19490   5.417  -1.155   7.658 -0.6968  0.1534  1.4385
  866MOL0     H19491   5.254  -1.204   7.837 -2.7276  1.5662 -2.3089
  866MOL0     H19492   4.675  -0.097   7.858  1.6354 -0.0786 -2.3468
  866MOL0     H19493   4.645   0.099   8.020 -2.2548 -1.3265  0.3990
  866MOL0     H19494   4.625   0.442   8.217  0.4812 -2.0228  1.2695
  866MOL0     H19495   4.580   0.606   8.392  1.3094 -3.2072 -1.0445
  866MOL0     H19496   4.502   0.724   8.586 -0.5626  0.0243 -0.4552
  866MOL0     H19497   4.427   0.842   8.479  2.7018 -0.6492 -1.2579
  866MOL0     H19498   4.375   0.825   8.768  0.9675 -0.6605 -0.1666
  866MOL0     H19499   4.227   0.795   8.682 -1.5441  3.5960 -3.5768
  866MOL0     H19500   4.248   0.991   8.544 -0.3608 -1.6590 -0.3375
  866MOL0     H19501   4.215   1.014   8.716  0.7710  1.2119 -0.9817
  866MOL0     H19502   4.380   1.190   8.631 -0.7536  0.4478  0.8131
  866MOL0     H19503   4.485   1.045   8.590 -0.6319  0.9941 -1.8519
  866MOL0     H19504   4.499   1.095   9.013 -1.3380  1.8895 -0.1770
  866MOL0     H19505   4.162   0.558   8.340  0.5160  3.9300  1.5263
  866MOL0     H19506   4.134   0.303   8.126 -3.0753  0.9094 -1.2106
  866MOL0     H19507   4.086   0.476   8.145  1.5295  1.5252 -0.6950
  866MOL0     H19508   4.204   0.410   8.021 -2.5132 -1.2127 -1.3916
  867MOL0     O19509   5.367   7.552   9.362  1.7089 -0.0496  0.6798
  867MOL0     C19510   5.484   7.557   9.327  0.3883  0.7529 -0.3703
  867MOL0     O19511   5.536   7.516   9.208  0.1731  0.3502 -0.3950
  867MOL0     C19512   5.459   7.435   9.131 -0.7428 -0.3960 -0.4791
  867MOL0     C19513   5.421   7.307   9.164  0.3580 -0.0188 -0.6482
  867MOL0     C19514   5.362   7.225   9.070 -0.2997  0.5110  1.0117
  867MOL0     C19515   5.328   7.265   8.941  0.8620 -0.3422 -0.1060
  867MOL0     O19516   5.254   7.180   8.863  0.0935 -0.0856 -0.3464
  867MOL0     C19517   5.151   7.226   8.775  0.2073  0.6420  0.0414
  867MOL0     C19518   5.106   7.118   8.696  0.1179 -0.0185 -0.4184
  867MOL0     C19519   5.034   7.002   8.767  0.4061 -0.0184 -0.6951
  867MOL0     C19520   4.894   7.045   8.821  0.6086 -0.1033  0.6161
  867MOL0     C19521   4.812   6.944   8.887 -0.2300 -0.5418  0.5125
  867MOL0     C19522   4.877   6.857   8.995  0.9376 -0.0603  0.4410
  867MOL0     C19523   4.782   6.754   9.060  0.5408 -0.3335 -1.5673
  867MOL0     C19524   4.769   6.808   9.205 -1.2060 -0.3139  0.2946
  867MOL0     N19525   4.644   6.769   9.260  0.7629 -0.2673 -0.5138
  867MOL0     C19526   4.592   6.640   9.276  0.0137  0.0665  0.2118
  867MOL0     C19527   4.455   6.658   9.299 -0.0336  0.4492 -0.6613
  867MOL0     C19528   4.383   6.534   9.325  0.0976 -0.0359  0.2675
  867MOL0     C19529   4.245   6.529   9.242 -0.0811 -0.4875  0.3428
  867MOL0     C19530   4.257   6.569   9.088 -0.0250  0.2575  0.6941
  867MOL0     C19531   4.121   6.558   9.023  0.1167  1.4400  0.0094
  867MOL0     O19532   4.127   6.589   8.891 -0.1059 -0.9057 -0.2436
  867MOL0     C19533   4.020   6.553   8.815 -0.0427 -0.1539  1.4496
  867MOL0     C19534   4.038   6.564   8.670 -0.3098 -0.0169  0.2942
  867MOL0     C19535   3.940   6.534   8.578  0.3333 -0.0967 -0.5446
  867MOL0     C19536   3.963   6.571   8.434  0.3774 -0.6398  0.5092
  867MOL0     C19537   3.820   6.475   8.619 -0.0324 -0.3792  0.5985
  867MOL0     C19538   3.724   6.404   8.539 -0.5342  1.2234 -0.1964
  867MOL0     O19539   3.592   6.403   8.589 -0.3018  0.2195 -0.5442
  867MOL0     C19540   3.496   6.349   8.519  1.0667  1.0613  1.0227
  867MOL0     C19541   3.510   6.234   8.437  0.0452 -0.4691  1.2307
  867MOL0     C19542   3.419   6.202   8.336 -0.6776 -0.6069 -0.0952
  867MOL0     C19543   3.304   6.284   8.323 -0.4069 -0.5057 -0.3760
  867MOL0     O19544   3.212   6.263   8.225 -0.2666  0.0944 -0.5483
  867MOL0     C19545   3.084   6.232   8.292  0.2225 -0.0259 -0.4282
  867MOL0     C19546   3.064   6.075   8.281 -0.3433  0.3228 -0.7090
  867MOL0     C19547   2.937   6.052   8.360 -0.0762 -0.9256 -0.1679
  867MOL0     C19548   2.913   5.900   8.391  0.7142 -0.4335 -0.8175
  867MOL0     C19549   2.947   5.862   8.543 -0.1422 -0.0945  0.8885
  867MOL0     C19550   2.933   5.712   8.572  0.4606  0.5181 -0.7897
  867MOL0     C19551   2.890   5.674   8.716 -0.1411 -0.5120  0.9121
  867MOL0     C19552   2.864   5.529   8.753  0.6323 -0.3953  0.0506
  867MOL0    Cl19553   2.732   5.463   8.657  0.1901  0.2034 -0.2941
  867MOL0     C19554   3.288   6.402   8.403  0.0795 -0.2609  0.6182
  867MOL0     C19555   3.387   6.443   8.497  0.4659  1.0968  0.4409
  867MOL0     O19556   3.762   6.354   8.432  0.3857  0.4251  0.6768
  867MOL0     C19557   3.804   6.464   8.766 -0.5395  0.7417  0.4459
  867MOL0     C19558   3.895   6.499   8.859 -0.8325 -0.7270 -0.1462
  867MOL0     N19559   4.426   6.790   9.289  0.0530  0.0718 -0.9667
  867MOL0     N19560   4.539   6.856   9.270  0.1546  0.2344 -0.2086
  867MOL0     C19561   5.364   7.398   8.907  0.3476  0.2829  0.1043
  867MOL0     C19562   5.420   7.479   8.999  0.0577 -0.1141 -0.9502
  867MOL0     C19563   5.585   7.611   9.423 -0.8289  0.4674 -0.2999
  867MOL0     C19564   5.723   7.589   9.395 -0.3825 -0.8130  0.2772
  867MOL0     C19565   5.824   7.630   9.475 -0.3552 -0.6174  0.6390
  867MOL0     C19566   5.799   7.692   9.595  0.5657  1.0754 -1.6011
  867MOL0     O19567   5.903   7.737   9.672  0.5811 -0.1092 -0.3756
  867MOL0     C19568   5.891   7.876   9.715 -0.2201  0.3128  0.5653
  867MOL0     C19569   5.879   7.870   9.869  1.0121  0.0397 -0.2061
  867MOL0     C19570   6.007   7.824   9.926 -1.0184  0.9806  0.1918
  867MOL0     C19571   5.999   7.794  10.079 -0.4907 -1.0039 -0.5752
  867MOL0     C19572   6.129   7.730  10.126  0.0740 -0.5370  0.5078
  867MOL0     C19573   6.241   7.688  10.145  0.2818 -0.9897 -0.0950
  867MOL0     C19574   5.667   7.706   9.636  0.7974 -0.3003  0.3875
  867MOL0     C19575   5.563   7.664   9.550  0.2122  0.6587  0.2977
  867MOL0     C19576   5.420   7.676   9.608 -0.4621 -0.6351  0.5067
  867MOL0     H19577   5.419   7.264   9.264 -0.7885  1.6920  0.1355
  867MOL0     H19578   5.329   7.128   9.105  0.1181  0.3218  0.8870
  867MOL0     H19579   5.186   7.316   8.722  0.3626  2.0079  2.3284
  867MOL0     H19580   5.066   7.259   8.834  0.4387 -1.2938  1.5510
  867MOL0     H19581   5.037   7.155   8.619 -1.2021 -1.8044 -0.1663
  867MOL0     H19582   5.192   7.069   8.649  0.6580 -2.7418  2.9770
  867MOL0     H19583   5.034   6.912   8.705  0.3428  0.6282 -1.6700
  867MOL0     H19584   5.099   6.972   8.849  3.6022  0.3810 -2.8976
  867MOL0     H19585   4.918   7.116   8.902 -0.9196 -1.2706  2.1769
  867MOL0     H19586   4.837   7.095   8.742 -1.3638 -2.8027  0.1983
  867MOL0     H19587   4.776   6.877   8.808  2.7573  0.3013 -1.7386
  867MOL0     H19588   4.728   6.991   8.940 -0.5660 -1.4504  0.7986
  867MOL0     H19589   4.944   6.796   8.934  0.9018 -0.4202  0.7604
  867MOL0     H19590   4.938   6.912   9.067  0.6287  0.8213  0.0487
  867MOL0     H19591   4.812   6.649   9.063 -0.1487 -0.5065  0.2010
  867MOL0     H19592   4.690   6.751   9.000  1.3357  2.2202 -3.0807
  867MOL0     H19593   4.854   6.793   9.272  0.4321  0.3559 -1.5291
  867MOL0     H19594   4.770   6.917   9.199 -2.8221 -0.2906  0.0204
  867MOL0     H19595   4.647   6.547   9.270  2.4886  1.2635  2.4410
  867MOL0     H19596   4.369   6.526   9.433  2.9750  1.0578  0.8184
  867MOL0     H19597   4.440   6.447   9.292 -0.4221  0.6330 -2.7703
  867MOL0     H19598   4.206   6.428   9.258 -1.2802  0.2272  2.2745
  867MOL0     H19599   4.179   6.602   9.289 -1.7643 -0.0661 -2.4726
  867MOL0     H19600   4.302   6.666   9.065  3.7546 -2.1479 -3.7045
  867MOL0     H19601   4.327   6.503   9.036  0.2666  1.9349 -1.2083
  867MOL0     H19602   4.088   6.454   9.018  2.9070  0.4256  0.8667
  867MOL0     H19603   4.049   6.627   9.069 -0.7044  1.6652 -1.5484
  867MOL0     H19604   4.119   6.620   8.623 -1.6191  0.8137 -1.1112
  867MOL0     H19605   3.986   6.675   8.410  3.0250 -1.2459  0.0638
  867MOL0     H19606   3.873   6.542   8.379 -0.7422 -1.1730  2.5118
  867MOL0     H19607   4.048   6.513   8.394 -0.5727 -2.6623  1.2770
  867MOL0     H19608   3.598   6.171   8.447  1.6831  1.2978 -1.0219
  867MOL0     H19609   3.438   6.111   8.281  1.0458  0.7778 -1.9502
  867MOL0     H19610   3.074   6.278   8.391  0.7164 -0.6795 -0.0715
  867MOL0     H19611   2.997   6.285   8.251  0.3809  2.4131  2.1503
  867MOL0     H19612   3.069   6.034   8.180  0.4328 -3.3858  0.6805
  867MOL0     H19613   3.145   6.032   8.341 -0.6084  2.2609  1.1532
  867MOL0     H19614   2.862   6.082   8.286  1.5351 -2.3477 -2.5483
  867MOL0     H19615   2.948   6.111   8.451  4.7892  1.0594 -1.6890
  867MOL0     H19616   2.959   5.841   8.311 -2.7050 -0.0782 -3.2342
  867MOL0     H19617   2.809   5.870   8.377  0.5985  0.8407 -3.2393
  867MOL0     H19618   3.045   5.899   8.573  0.7440  0.5845 -2.3839
  867MOL0     H19619   2.878   5.919   8.606 -0.8523 -1.8007  1.6896
  867MOL0     H19620   3.027   5.662   8.549 -1.4049 -1.6817 -4.6165
  867MOL0     H19621   2.859   5.664   8.508  1.7823 -0.7214 -1.4530
  867MOL0     H19622   2.795   5.726   8.735  0.5349  1.3878 -0.6914
  867MOL0     H19623   2.957   5.731   8.780  1.0222 -1.4522  0.5583
  867MOL0     H19624   2.841   5.530   8.860  3.8603 -0.0086  0.8696
  867MOL0     H19625   2.961   5.477   8.750  0.0019 -1.6346  0.3023
  867MOL0     H19626   3.202   6.464   8.378  1.4418  0.2091 -4.0124
  867MOL0     H19627   3.391   6.530   8.563 -2.1880  3.1976 -1.9040
  867MOL0     H19628   3.713   6.410   8.790 -0.2628 -2.6802 -4.5694
  867MOL0     H19629   3.878   6.492   8.966 -2.9216  1.8852 -0.2104
  867MOL0     H19630   5.320   7.445   8.820 -3.1931 -3.7101 -0.6082
  867MOL0     H19631   5.450   7.580   8.970  2.8081 -0.6040 -0.0732
  867MOL0     H19632   5.762   7.533   9.311  0.6644  3.2861 -2.2615
  867MOL0     H19633   5.926   7.614   9.440 -1.4594 -0.6120 -3.0110
  867MOL0     H19634   5.974   7.939   9.682  1.7706 -3.3439 -2.1286
  867MOL0     H19635   5.799   7.920   9.677 -1.1938 -1.5736  0.5989
  867MOL0     H19636   5.794   7.809   9.901  2.1890 -1.8433 -0.5094
  867MOL0     H19637   5.859   7.973   9.899  0.0602  0.1550 -1.1708
  867MOL0     H19638   6.043   7.734   9.876 -0.3661  0.0349  2.2869
  867MOL0     H19639   6.084   7.899   9.906 -0.2998  0.5278  1.2144
  867MOL0     H19640   5.909   7.739  10.108 -1.8856  0.7726 -1.3924
  867MOL0     H19641   5.990   7.895  10.120 -1.6670 -2.3529  2.9348
  867MOL0     H19642   6.343   7.667  10.169 -0.3457 -3.1297  0.8961
  867MOL0     H19643   5.638   7.761   9.725  0.0947 -0.9319  0.5585
  867MOL0     H19644   5.372   7.578   9.621  0.4664 -1.2712 -0.6700
  867MOL0     H19645   5.415   7.725   9.706 -0.1918  1.1991 -0.3477
  867MOL0     H19646   5.367   7.740   9.536  2.2873  2.6473  1.1193
  868MOL0     O19647   7.479   0.469   5.220 -0.1123  1.2540  0.8136
  868MOL0     C19648   7.398   0.563   5.200 -0.2987 -1.1352  0.0720
  868MOL0     O19649   7.373   0.664   5.294  0.4493 -0.4639  0.0458
  868MOL0     C19650   7.435   0.647   5.415  1.1129  0.3304  1.2227
  868MOL0     C19651   7.576   0.654   5.424  0.0032  0.1355 -0.2557
  868MOL0     C19652   7.635   0.616   5.554 -0.2503 -1.2920  1.3058
  868MOL0     C19653   7.548   0.586   5.656  0.1238 -0.3833 -0.1960
  868MOL0     O19654   7.612   0.538   5.771  0.3838  0.5032  0.5298
  868MOL0     C19655   7.571   0.575   5.907 -0.1878 -0.4278 -0.2870
  868MOL0     C19656   7.680   0.574   6.011 -0.0598 -0.2338 -0.0560
  868MOL0     C19657   7.800   0.670   5.963 -0.2731 -0.1493  0.3209
  868MOL0     C19658   7.939   0.608   5.998  0.2000 -0.2553 -0.0199
  868MOL0     C19659   8.049   0.716   5.983  0.4468 -0.1900 -0.1202
  868MOL0     C19660   8.190   0.648   5.995  0.5881  0.2238 -0.4318
  868MOL0     C19661   8.297   0.756   6.039 -1.0443 -0.5217  0.0691
  868MOL0     C19662   8.357   0.823   5.912  0.2796  0.4351 -0.6225
  868MOL0     N19663   8.432   0.939   5.973 -0.4636  0.9694 -0.4574
  868MOL0     C19664   8.562   0.911   6.017 -0.1696  0.3683 -0.0111
  868MOL0     C19665   8.584   1.023   6.096 -0.1076  1.4110 -0.2663
  868MOL0     C19666   8.720   1.049   6.156 -0.9766  0.2133  0.1055
  868MOL0     C19667   8.724   1.135   6.277 -0.1492 -0.9463 -0.0735
  868MOL0     C19668   8.692   1.290   6.268  0.3779  0.7475 -0.6901
  868MOL0     C19669   8.743   1.381   6.387 -0.5187  0.2721 -0.6739
  868MOL0     O19670   8.771   1.513   6.333 -0.1877  0.1169 -0.1731
  868MOL0     C19671   8.905   1.535   6.314 -0.1719  0.2349 -0.1539
  868MOL0     C19672   8.953   1.666   6.343  1.2610 -0.8421  0.6465
  868MOL0     C19673   9.085   1.707   6.337  0.7807  0.2227 -0.1445
  868MOL0     C19674   9.118   1.859   6.362  0.0754 -0.0313  0.1274
  868MOL0     C19675   9.173   1.619   6.270 -0.1055 -0.3925 -0.1504
  868MOL0     C19676   9.313   1.650   6.226  0.7620  0.7619 -0.3894
  868MOL0     O19677   9.374   1.766   6.279  0.4498 -0.4112 -0.3750
  868MOL0     C19678   9.501   1.809   6.262 -0.5889  0.4226  0.4655
  868MOL0     C19679   9.574   1.811   6.139  0.1536 -0.3494  0.5567
  868MOL0     C19680   9.699   1.866   6.134 -0.6788 -0.1772  0.4909
  868MOL0     C19681   9.767   1.894   6.243  0.5263 -0.4581 -0.8290
  868MOL0     O19682   9.900   1.934   6.227  0.2875  0.1357  0.2393
  868MOL0     C19683   9.988   1.832   6.267  0.2039  0.0784  0.4737
  868MOL0     C19684  10.003   1.728   6.154  0.0948 -0.5220 -1.0384
  868MOL0     C19685  10.040   1.775   6.008 -0.5817  0.1180 -0.6996
  868MOL0     C19686  10.100   1.652   5.940 -0.3744 -0.0066 -0.5261
  868MOL0     C19687  10.135   1.671   5.789  0.2666 -0.7973  0.1417
  868MOL0     C19688  10.030   1.720   5.690 -0.0667 -0.2698 -0.6821
  868MOL0     C19689  10.102   1.744   5.556 -0.3049 -0.4589  0.0694
  868MOL0     C19690  10.004   1.800   5.453 -0.0846  0.1484 -0.4277
  868MOL0    Cl19691   9.885   1.671   5.394 -0.0324  0.1463  0.2687
  868MOL0     C19692   9.704   1.897   6.371 -0.0416 -0.1545 -0.6302
  868MOL0     C19693   9.563   1.857   6.368  0.3411 -0.8357 -0.5044
  868MOL0     O19694   9.375   1.567   6.152  1.0745 -0.2215 -0.2246
  868MOL0     C19695   9.130   1.488   6.234  0.1996  0.3602  0.6061
  868MOL0     C19696   9.000   1.443   6.254 -0.9447  0.8205 -0.2017
  868MOL0     N19697   8.476   1.107   6.096  0.6744  0.6671 -0.4505
  868MOL0     N19698   8.380   1.058   6.024 -0.2588  0.2140 -0.1520
  868MOL0     C19699   7.411   0.608   5.639  0.2531  0.2268 -1.6012
  868MOL0     C19700   7.353   0.648   5.525  0.3221 -0.2741 -0.4471
  868MOL0     C19701   7.335   0.580   5.067  0.5363 -0.2784 -0.5884
  868MOL0     C19702   7.424   0.564   4.957  0.6186 -0.0426 -0.3050
  868MOL0     C19703   7.368   0.580   4.831 -0.1351  0.4632 -0.4394
  868MOL0     C19704   7.230   0.614   4.812 -0.6011 -0.2914 -0.1932
  868MOL0     O19705   7.167   0.647   4.697  0.1301  1.1243  0.0871
  868MOL0     C19706   7.234   0.620   4.578  0.8756  0.4475 -0.5145
  868MOL0     C19707   7.141   0.678   4.468  0.5560  0.5820 -0.4144
  868MOL0     C19708   7.096   0.821   4.491 -0.0034 -1.0685  0.2740
  868MOL0     C19709   7.038   0.899   4.369 -0.0562 -0.3020  0.9558
  868MOL0     C19710   7.148   0.963   4.287 -0.4173 -0.4332  0.6015
  868MOL0     C19711   7.247   1.020   4.236  0.5411 -0.8602  0.0442
  868MOL0     C19712   7.149   0.634   4.924  0.5479 -0.6312  0.2061
  868MOL0     C19713   7.199   0.627   5.047  0.4210 -0.5526  0.1437
  868MOL0     C19714   7.093   0.616   5.160 -1.4626 -0.3236  0.2410
  868MOL0     H19715   7.630   0.671   5.332  2.2986 -0.2080  0.9602
  868MOL0     H19716   7.737   0.579   5.546  0.0476 -0.8523  2.6971
  868MOL0     H19717   7.482   0.523   5.944 -0.5138 -0.4341 -1.0550
  868MOL0     H19718   7.531   0.677   5.904 -1.9493 -1.0659 -0.0296
  868MOL0     H19719   7.633   0.610   6.103  0.0054  1.0752 -0.5071
  868MOL0     H19720   7.720   0.474   6.029 -1.0957 -0.4469  1.1421
  868MOL0     H19721   7.802   0.672   5.854 -4.2486  0.2653  0.1241
  868MOL0     H19722   7.772   0.765   6.010  2.0439  0.8167 -0.0842
  868MOL0     H19723   7.945   0.576   6.102 -1.8090  2.8343  1.1934
  868MOL0     H19724   7.960   0.521   5.934 -0.3630  1.3407 -2.5524
  868MOL0     H19725   8.032   0.789   6.063  1.2521  1.2690 -1.2367
  868MOL0     H19726   8.047   0.771   5.889  4.1044  0.3192 -0.0765
  868MOL0     H19727   8.183   0.564   6.065  1.0085 -0.1577 -0.8447
  868MOL0     H19728   8.210   0.611   5.894 -2.5743  0.7634 -1.3533
  868MOL0     H19729   8.378   0.711   6.097 -2.6642 -0.0106  2.8802
  868MOL0     H19730   8.256   0.829   6.109  1.8996  1.3995 -0.0572
  868MOL0     H19731   8.417   0.757   5.849  2.0173  0.7629  0.6221
  868MOL0     H19732   8.276   0.859   5.849  1.2389  0.9713 -1.5705
  868MOL0     H19733   8.622   0.822   5.999 -1.3702 -0.9609  2.0188
  868MOL0     H19734   8.782   1.098   6.080 -0.0033  0.9954  1.3628
  868MOL0     H19735   8.771   0.953   6.172 -0.1388  0.7890  1.0345
  868MOL0     H19736   8.651   1.091   6.346  1.8105 -1.6549  1.6520
  868MOL0     H19737   8.822   1.127   6.324 -0.4155  1.6430  1.0905
  868MOL0     H19738   8.740   1.324   6.176  0.1399  1.5847 -0.5163
  868MOL0     H19739   8.586   1.310   6.253  0.7552  1.7358 -2.2757
  868MOL0     H19740   8.665   1.397   6.462  1.7698  1.8973  1.5066
  868MOL0     H19741   8.826   1.327   6.434 -3.2867 -2.5295  1.4725
  868MOL0     H19742   8.872   1.725   6.385  0.1134 -3.0726  1.7786
  868MOL0     H19743   9.208   1.871   6.423  0.3583  1.3025 -0.5273
  868MOL0     H19744   9.051   1.913   6.428  0.9754  1.4515 -0.1325
  868MOL0     H19745   9.113   1.921   6.272  1.0555  0.1648  0.1917
  868MOL0     H19746   9.524   1.779   6.049  1.2998 -0.2054 -0.1457
  868MOL0     H19747   9.742   1.878   6.035 -3.0662 -1.4139 -0.7757
  868MOL0     H19748  10.091   1.865   6.284  0.8306 -0.3111 -2.1338
  868MOL0     H19749   9.951   1.792   6.362 -4.0556  0.6520 -0.7339
  868MOL0     H19750  10.082   1.660   6.186  1.9670  1.3491 -1.4678
  868MOL0     H19751   9.908   1.676   6.140  0.3236 -1.3866  0.3918
  868MOL0     H19752  10.112   1.856   5.999  0.5178 -0.9702 -2.1660
  868MOL0     H19753   9.943   1.803   5.967 -0.4101  0.0591 -1.1462
  868MOL0     H19754  10.044   1.561   5.963 -2.3625  1.0839 -0.7694
  868MOL0     H19755  10.196   1.641   5.990  0.8728 -0.7773 -2.9464
  868MOL0     H19756  10.213   1.747   5.783  1.4435 -2.0508 -1.1903
  868MOL0     H19757  10.169   1.577   5.745 -1.8011 -1.9164  0.8051
  868MOL0     H19758  10.004   1.819   5.730  0.0261 -0.9173  1.0716
  868MOL0     H19759   9.945   1.652   5.689  0.1576 -0.6386 -3.3592
  868MOL0     H19760  10.146   1.651   5.518  2.5201  0.6383  0.3804
  868MOL0     H19761  10.183   1.817   5.568 -1.1645  0.3385  1.2425
  868MOL0     H19762  10.063   1.838   5.369  1.2162 -1.6062 -0.3791
  868MOL0     H19763   9.950   1.890   5.483  0.0052  0.6624 -1.7498
  868MOL0     H19764   9.754   1.920   6.465  4.8966  0.5022 -3.0715
  868MOL0     H19765   9.508   1.855   6.461 -2.8824 -0.3767 -2.2638
  868MOL0     H19766   9.196   1.421   6.182  1.3184 -0.7967  3.3105
  868MOL0     H19767   8.970   1.342   6.230  1.9261 -0.0108 -0.7112
  868MOL0     H19768   7.360   0.616   5.735  3.2743 -0.0415  0.1478
  868MOL0     H19769   7.246   0.647   5.506 -0.0167  2.3197  0.9129
  868MOL0     H19770   7.532   0.559   4.954  0.8126  1.4061 -5.4663
  868MOL0     H19771   7.429   0.552   4.747  1.0195 -2.1393  1.1624
  868MOL0     H19772   7.323   0.679   4.555 -0.9122  2.7879 -1.9342
  868MOL0     H19773   7.251   0.512   4.574 -0.1457  0.2418  0.2446
  868MOL0     H19774   7.051   0.615   4.467  0.4022  0.6992  1.3869
  868MOL0     H19775   7.201   0.666   4.377  0.0274  1.9285 -0.9592
  868MOL0     H19776   7.017   0.826   4.567 -0.5241 -0.8590 -0.2719
  868MOL0     H19777   7.177   0.882   4.532  1.2904 -1.1953 -1.9028
  868MOL0     H19778   6.967   0.973   4.409  0.7053 -0.0973  1.9661
  868MOL0     H19779   6.971   0.837   4.309 -0.0340  1.7121 -1.2658
  868MOL0     H19780   7.326   1.080   4.196 -1.4797  2.5721  0.8179
  868MOL0     H19781   7.048   0.657   4.891  0.9902 -0.4839 -1.0939
  868MOL0     H19782   7.128   0.600   5.262  1.8923  3.3753 -0.1149
  868MOL0     H19783   7.042   0.713   5.153  1.9970  1.8891  2.5020
  868MOL0     H19784   7.021   0.537   5.135 -0.3306 -1.4897  0.5654
  869MOL0     O19785   1.228  10.990   9.215 -0.0008 -0.1627  0.6859
  869MOL0     C19786   1.149  11.072   9.167 -0.6758 -0.8717  0.1490
  869MOL0     O19787   1.015  11.080   9.186  0.0690  0.1320 -0.7445
  869MOL0     C19788   0.954  10.960   9.217 -0.5415 -0.0029  0.4413
  869MOL0     C19789   0.924  10.926   9.347  0.4873 -0.2432 -0.0163
  869MOL0     C19790   0.865  10.802   9.369  0.0445  0.0404 -0.3273
  869MOL0     C19791   0.824  10.718   9.262 -0.6426 -0.0215  0.1543
  869MOL0     O19792   0.770  10.598   9.301 -0.2284  0.1344 -0.0494
  869MOL0     C19793   0.717  10.502   9.205 -0.3982  0.4973 -0.1902
  869MOL0     C19794   0.621  10.406   9.275 -0.3118 -0.1761  0.0355
  869MOL0     C19795   0.550  10.321   9.178  0.4472  0.0395 -0.7386
  869MOL0     C19796   0.528  10.177   9.220  0.2897  0.2619  0.1947
  869MOL0     C19797   0.505  10.082   9.096  0.2660 -0.0391 -1.1502
  869MOL0     C19798   0.429   9.959   9.160  0.4053  0.8256  0.1693
  869MOL0     C19799   0.399   9.854   9.055 -0.6080  0.3307  0.9307
  869MOL0     C19800   0.527   9.765   9.038 -0.5724  0.2958  0.8297
  869MOL0     N19801   0.510   9.689   8.910 -0.8036 -0.6389  0.3663
  869MOL0     C19802   0.426   9.584   8.872  0.3096 -0.5448  0.7499
  869MOL0     C19803   0.463   9.546   8.744  0.3097  0.8995  0.2223
  869MOL0     C19804   0.406   9.440   8.658  0.3014 -0.0369 -0.6515
  869MOL0     C19805   0.506   9.323   8.638 -0.6031 -0.3065  0.4775
  869MOL0     C19806   0.426   9.199   8.592  0.0688  0.3451  1.0446
  869MOL0     C19807   0.521   9.079   8.579  0.7501  0.0905 -0.3225
  869MOL0     O19808   0.592   9.061   8.710 -0.7555 -0.3371 -0.2177
  869MOL0     C19809   0.697   8.961   8.724  0.5433 -0.9655  0.2825
  869MOL0     C19810   0.723   8.865   8.640  0.3780 -0.0148  0.4193
  869MOL0     C19811   0.825   8.761   8.661  0.3174 -0.6788  0.3779
  869MOL0     C19812   0.827   8.647   8.561 -0.6714 -0.0812 -0.1095
  869MOL0     C19813   0.903   8.773   8.773  0.5172  0.7428  0.7785
  869MOL0     C19814   1.024   8.690   8.801  0.6704  0.3542 -0.3497
  869MOL0     O19815   1.090   8.726   8.909 -0.6547 -0.3361 -0.0672
  869MOL0     C19816   1.207   8.668   8.928 -0.1142 -0.7428 -0.0530
  869MOL0     C19817   1.200   8.552   9.008 -0.8329  0.4434 -0.6132
  869MOL0     C19818   1.311   8.487   9.051 -0.6536  0.7926 -0.4255
  869MOL0     C19819   1.437   8.510   8.992  0.3320 -0.6763  0.2951
  869MOL0     O19820   1.542   8.421   9.014 -0.4095  0.4527 -0.1003
  869MOL0     C19821   1.585   8.397   9.152  0.8619  0.7500  0.0261
  869MOL0     C19822   1.714   8.471   9.181  0.3411  0.2977  0.1600
  869MOL0     C19823   1.718   8.622   9.145 -0.1319  0.4576  0.1695
  869MOL0     C19824   1.850   8.680   9.182 -0.3465  0.2572 -0.1725
  869MOL0     C19825   1.940   8.739   9.075 -0.4547  0.4309 -0.0405
  869MOL0     C19826   1.949   8.667   8.943  0.0074  0.2599 -1.2585
  869MOL0     C19827   2.054   8.740   8.854 -0.3142 -0.2469 -0.4691
  869MOL0     C19828   2.204   8.736   8.894 -1.2468 -0.4972  0.1379
  869MOL0    Cl19829   2.260   8.576   8.889 -0.0669  0.4664  0.1832
  869MOL0     C19830   1.443   8.621   8.902  0.2229 -0.2577  0.3660
  869MOL0     C19831   1.327   8.698   8.872 -0.5101  0.1576  0.7639
  869MOL0     O19832   1.051   8.597   8.727 -0.0901 -0.0442 -0.2404
  869MOL0     C19833   0.873   8.875   8.866 -0.9008  0.4088  0.6214
  869MOL0     C19834   0.777   8.966   8.843  0.7030 -0.3856  0.3622
  869MOL0     N19835   0.574   9.617   8.718  0.4366  0.4514 -0.2001
  869MOL0     N19836   0.590   9.715   8.798 -1.0849  1.1896 -0.4591
  869MOL0     C19837   0.839  10.764   9.131 -0.1713  0.3892  0.4713
  869MOL0     C19838   0.918  10.881   9.105 -0.6038  0.3925 -0.6971
  869MOL0     C19839   1.221  11.176   9.082 -0.2563 -0.1662  0.0041
  869MOL0     C19840   1.310  11.138   8.984 -0.5905  0.4520 -0.0717
  869MOL0     C19841   1.383  11.226   8.905  0.9854  0.0603 -0.5171
  869MOL0     C19842   1.359  11.366   8.928 -0.4767  0.4949 -0.3830
  869MOL0     O19843   1.442  11.469   8.886 -1.3869 -0.6832 -0.2759
  869MOL0     C19844   1.529  11.422   8.777 -0.6500 -1.2160  0.1946
  869MOL0     C19845   1.586  11.544   8.701  0.3991 -0.8231 -0.6595
  869MOL0     C19846   1.686  11.613   8.794 -0.6664 -0.0155 -0.0531
  869MOL0     C19847   1.759  11.726   8.731 -0.0230 -0.9613 -0.3670
  869MOL0     C19848   1.672  11.830   8.666 -0.1633  0.2727 -0.5597
  869MOL0     C19849   1.618  11.924   8.607  0.6866 -0.3653  0.7010
  869MOL0     C19850   1.263  11.408   9.023  0.0262  0.1176 -0.8579
  869MOL0     C19851   1.192  11.318   9.100 -0.1393 -0.4303 -0.8985
  869MOL0     C19852   1.098  11.374   9.210 -0.1936 -0.4636  0.4986
  869MOL0     H19853   0.956  10.985   9.433  0.4908 -0.6677  0.2812
  869MOL0     H19854   0.858  10.773   9.473  0.8500 -3.5769 -1.1446
  869MOL0     H19855   0.793  10.431   9.170 -1.7642 -2.7429  2.7467
  869MOL0     H19856   0.663  10.547   9.122  1.2391 -0.5229 -1.8880
  869MOL0     H19857   0.675  10.346   9.349 -0.0562 -2.1540 -1.6435
  869MOL0     H19858   0.548  10.472   9.321  2.3618  1.5764  2.0329
  869MOL0     H19859   0.449  10.362   9.162  0.3995  1.5568  2.5786
  869MOL0     H19860   0.597  10.322   9.080  2.8117 -0.9364  0.3216
  869MOL0     H19861   0.604  10.134   9.286 -2.5506  0.2155  3.7538
  869MOL0     H19862   0.438  10.182   9.282 -0.8344  1.9096 -1.4728
  869MOL0     H19863   0.602  10.052   9.055  1.5721  3.1770 -0.7506
  869MOL0     H19864   0.444  10.133   9.022  1.0662 -2.4050 -3.5827
  869MOL0     H19865   0.487   9.925   9.247  1.9809  1.1642 -0.7051
  869MOL0     H19866   0.336   9.999   9.201 -1.3621 -1.4661 -1.3394
  869MOL0     H19867   0.380   9.912   8.964  2.6370  0.5354  0.2558
  869MOL0     H19868   0.306   9.800   9.076  0.0161 -0.9063  0.5923
  869MOL0     H19869   0.614   9.832   9.028 -0.3175 -0.2542 -0.9850
  869MOL0     H19870   0.532   9.693   9.120 -0.2877  2.3118  2.6696
  869MOL0     H19871   0.344   9.547   8.932 -0.6232  0.5584  0.2016
  869MOL0     H19872   0.389   9.482   8.559  0.0572 -1.3467 -1.1707
  869MOL0     H19873   0.311   9.408   8.700 -0.7925  2.5761 -0.9131
  869MOL0     H19874   0.568   9.355   8.554 -2.4843  2.3539 -0.0288
  869MOL0     H19875   0.574   9.314   8.723 -1.0008  4.1609  1.4951
  869MOL0     H19876   0.349   9.179   8.667  1.8858 -1.4751  2.5323
  869MOL0     H19877   0.382   9.227   8.496  1.9093  1.3144  0.4370
  869MOL0     H19878   0.466   8.993   8.540  1.8734 -0.7053 -0.2152
  869MOL0     H19879   0.586   9.117   8.500  0.4068  2.1948  0.3443
  869MOL0     H19880   0.658   8.870   8.554 -1.0088  2.4369  1.5242
  869MOL0     H19881   0.924   8.618   8.519 -0.2554 -0.4826  1.0820
  869MOL0     H19882   0.766   8.667   8.472  0.7594  1.5045 -0.7958
  869MOL0     H19883   0.773   8.571   8.618 -0.4715  1.6792  2.5951
  869MOL0     H19884   1.098   8.523   9.029 -0.7274  0.8189  0.4870
  869MOL0     H19885   1.300   8.408   9.126  2.9436 -0.3139 -0.8596
  869MOL0     H19886   1.509   8.442   9.217  0.2289  3.0406 -2.1321
  869MOL0     H19887   1.599   8.289   9.167  0.8519  0.9265  1.4495
  869MOL0     H19888   1.752   8.455   9.282  2.9921  2.0330 -0.4693
  869MOL0     H19889   1.792   8.421   9.123  0.3729  0.5347 -0.0057
  869MOL0     H19890   1.639   8.679   9.195  0.5584  3.4579 -1.8574
  869MOL0     H19891   1.697   8.626   9.038 -1.1068 -3.4497  0.0597
  869MOL0     H19892   1.910   8.603   9.231  0.7045  0.2194 -1.4675
  869MOL0     H19893   1.836   8.759   9.257  0.5667  0.9537 -0.7192
  869MOL0     H19894   1.918   8.846   9.066 -0.0386  0.4917 -0.3324
  869MOL0     H19895   2.038   8.736   9.125  0.3907  0.9207 -1.6100
  869MOL0     H19896   1.854   8.682   8.891 -1.6196 -0.3998  1.3033
  869MOL0     H19897   1.971   8.561   8.958 -2.3584 -0.0396  0.7246
  869MOL0     H19898   2.027   8.845   8.865  0.3523 -0.1889  0.8129
  869MOL0     H19899   2.049   8.714   8.748  2.9138 -3.0322 -0.0969
  869MOL0     H19900   2.211   8.777   8.995  1.1360  2.3861 -1.0636
  869MOL0     H19901   2.257   8.800   8.823  0.3702 -0.7578  1.0633
  869MOL0     H19902   1.543   8.647   8.867 -1.3587  5.3133 -1.0594
  869MOL0     H19903   1.339   8.785   8.809  0.9239 -0.6693 -0.1614
  869MOL0     H19904   0.931   8.889   8.957 -0.7990 -0.9267  0.7779
  869MOL0     H19905   0.764   9.037   8.923 -0.1591  0.1450 -0.2353
  869MOL0     H19906   0.804  10.696   9.055 -1.9064  3.4641 -1.6822
  869MOL0     H19907   0.951  10.891   9.002 -0.9775 -3.2594 -1.2954
  869MOL0     H19908   1.321  11.032   8.963  0.4221  0.9598 -2.5338
  869MOL0     H19909   1.461  11.189   8.839  2.7020  2.1326  0.2377
  869MOL0     H19910   1.605  11.356   8.819  0.8442  0.1986 -0.1870
  869MOL0     H19911   1.477  11.358   8.706  1.0515 -1.2714 -1.0783
  869MOL0     H19912   1.507  11.619   8.694  0.7917 -0.4469 -1.1193
  869MOL0     H19913   1.626  11.500   8.610  3.0135 -0.2215  0.1062
  869MOL0     H19914   1.638  11.658   8.882  2.0743  1.8426  0.5909
  869MOL0     H19915   1.757  11.542   8.836 -3.2991 -2.1943  1.0835
  869MOL0     H19916   1.826  11.689   8.653  2.0219  0.5575  0.5528
  869MOL0     H19917   1.826  11.769   8.807  1.6576 -2.8596 -0.6681
  869MOL0     H19918   1.565  12.001   8.555 -1.5408 -0.7481  2.2477
  869MOL0     H19919   1.265  11.516   9.033  0.3282 -0.0340  1.0627
  869MOL0     H19920   1.118  11.479   9.230  5.0007 -1.5193  2.2814
  869MOL0     H19921   0.995  11.353   9.180 -0.6273  0.0994  1.5623
  869MOL0     H19922   1.129  11.330   9.305  0.0140 -2.5433 -0.4644
  870MOL0     O19923  10.099   3.710   8.064 -0.2168  0.0843 -0.4749
  870MOL0     C19924  10.039   3.788   8.132  0.3073 -0.1150 -0.2439
  870MOL0     O19925   9.994   3.908   8.091  0.5520 -0.1981 -0.5439
  870MOL0     C19926  10.060   3.950   7.975 -0.7095 -0.0747  0.4047
  870MOL0     C19927  10.183   4.013   7.981 -0.4537  0.0080  0.3483
  870MOL0     C19928  10.247   4.065   7.870  0.1015 -0.1978 -0.0625
  870MOL0     C19929  10.188   4.036   7.746 -0.4564  0.5415  0.1716
  870MOL0     O19930  10.250   4.078   7.633 -0.2617 -1.0645  0.6242
  870MOL0     C19931  10.253   3.988   7.523 -0.0149  0.0137  0.8989
  870MOL0     C19932  10.341   4.041   7.414 -0.0556  0.1254 -0.1565
  870MOL0     C19933  10.345   3.950   7.295  0.5218 -0.2452  0.6162
  870MOL0     C19934  10.467   4.004   7.215  0.9202  0.5828  0.5168
  870MOL0     C19935  10.453   3.949   7.065  0.4139  0.4405  0.6043
  870MOL0     C19936  10.445   3.794   7.063 -0.2533  0.8263 -0.2863
  870MOL0     C19937  10.564   3.723   7.125 -0.2257  0.7116 -0.1388
  870MOL0     C19938  10.701   3.767   7.095  0.3519 -0.4854  0.1999
  870MOL0     N19939  10.794   3.653   7.116  0.7234  1.0210  0.3922
  870MOL0     C19940  10.924   3.682   7.127  0.6420  0.2914 -0.0266
  870MOL0     C19941  10.997   3.566   7.096  0.1468  0.3598  0.2894
  870MOL0     C19942  11.143   3.574   7.069  0.5480 -0.8872  0.4286
  870MOL0     C19943  11.233   3.537   7.187 -0.5105  0.0143  0.0962
  870MOL0     C19944  11.232   3.385   7.213 -0.0173  0.1927 -0.5028
  870MOL0     C19945  11.371   3.340   7.259  0.2127  0.0771  0.3391
  870MOL0     O19946  11.367   3.192   7.243 -0.0113 -1.0749  0.3390
  870MOL0     C19947  11.480   3.125   7.281  0.0673 -0.1179 -0.2552
  870MOL0     C19948  11.457   2.990   7.320 -0.7341  0.4191  0.5813
  870MOL0     C19949  11.568   2.915   7.374 -0.9214  0.6279  0.9793
  870MOL0     C19950  11.536   2.776   7.418 -0.4777 -0.0129 -0.3500
  870MOL0     C19951  11.696   2.973   7.391  0.0632  0.4197  0.0636
  870MOL0     C19952  11.815   2.896   7.438  0.4116  0.2260 -0.7320
  870MOL0     O19953  11.829   2.763   7.408 -0.8145 -0.9222  0.4694
  870MOL0     C19954  11.940   2.688   7.439  0.6869  0.4522  0.3569
  870MOL0     C19955  12.060   2.714   7.521  0.1087 -0.5381 -0.6883
  870MOL0     C19956  12.169   2.623   7.529 -0.4115 -1.0539  0.5785
  870MOL0     C19957  12.173   2.502   7.460 -0.4734 -1.1764  0.4012
  870MOL0     O19958  12.279   2.430   7.466 -0.0207  0.2196 -0.0157
  870MOL0     C19959  12.297   2.350   7.581  0.6112 -0.7715  0.3821
  870MOL0     C19960  12.420   2.259   7.557  0.8819  0.4303 -0.6742
  870MOL0     C19961  12.378   2.127   7.491  0.6106 -0.2804  0.7292
  870MOL0     C19962  12.497   2.047   7.439  0.1493  1.0200  0.4263
  870MOL0     C19963  12.551   1.962   7.564  0.2818 -1.1583  0.0542
  870MOL0     C19964  12.701   1.940   7.547 -0.4530  0.3172 -0.2514
  870MOL0     C19965  12.769   1.867   7.657  0.4577  0.6837 -0.3534
  870MOL0     C19966  12.909   1.909   7.696 -0.0235  0.5857  0.7063
  870MOL0    Cl19967  13.011   1.887   7.559  0.0379  0.0015  0.9909
  870MOL0     C19968  12.054   2.476   7.384 -0.1074 -0.2859  0.3177
  870MOL0     C19969  11.943   2.566   7.372 -0.1339  0.5320  0.8330
  870MOL0     O19970  11.901   2.965   7.491 -1.1919  0.0556  0.0924
  870MOL0     C19971  11.711   3.103   7.350 -0.6492 -0.4143 -1.0652
  870MOL0     C19972  11.611   3.174   7.289  0.3986 -0.3491  0.7857
  870MOL0     N19973  10.909   3.469   7.069  0.0850  0.1118 -0.1092
  870MOL0     N19974  10.791   3.521   7.077 -0.6291  0.5431  0.1599
  870MOL0     C19975  10.072   3.961   7.735  0.7415 -0.0189 -0.2537
  870MOL0     C19976  10.008   3.927   7.849 -0.3100 -0.7017  0.4203
  870MOL0     C19977   9.981   3.729   8.258 -0.6886 -0.2585 -0.1771
  870MOL0     C19978   9.968   3.595   8.281  0.4856  0.0649  0.3690
  870MOL0     C19979   9.886   3.545   8.386  0.2208 -0.0730 -0.6128
  870MOL0     C19980   9.833   3.631   8.485 -0.0614 -0.1177 -0.1309
  870MOL0     O19981   9.743   3.584   8.585 -0.1839 -0.0049  0.1595
  870MOL0     C19982   9.702   3.673   8.688 -0.5830  0.3940  0.3376
  870MOL0     C19983   9.624   3.580   8.786 -0.6879  0.1246 -0.2376
  870MOL0     C19984   9.579   3.671   8.899 -1.0480 -0.0448  0.2970
  870MOL0     C19985   9.485   3.581   8.983 -0.3627  0.4990  0.0966
  870MOL0     C19986   9.466   3.661   9.098 -0.8454  0.1511  0.5120
  870MOL0     C19987   9.438   3.703   9.209  0.6853 -0.1116  0.1863
  870MOL0     C19988   9.865   3.763   8.476  0.8697  0.6671 -0.1573
  870MOL0     C19989   9.933   3.813   8.362 -0.4655 -0.4146 -0.4012
  870MOL0     C19990   9.949   3.966   8.361  0.6201  0.4345  0.3806
  870MOL0     H19991  10.231   4.027   8.077 -1.5170  1.2868  0.7200
  870MOL0     H19992  10.337   4.123   7.890 -1.7599  2.3056  1.6122
  870MOL0     H19993  10.155   3.975   7.477  0.4072 -0.8040  0.2066
  870MOL0     H19994  10.308   3.897   7.551  0.6416  0.5881  1.5341
  870MOL0     H19995  10.320   4.144   7.383 -1.3280  0.2861  1.1515
  870MOL0     H19996  10.442   4.047   7.453  0.0104 -0.8449 -0.1621
  870MOL0     H19997  10.350   3.846   7.329 -0.4266 -0.7190 -0.6111
  870MOL0     H19998  10.248   3.958   7.245  1.5860  1.5288 -1.3760
  870MOL0     H19999  10.474   4.113   7.215  5.0806  0.5363 -2.1171
  870MOL0     H20000  10.559   3.963   7.258 -0.3291 -0.7930  2.0400
  870MOL0     H20001  10.541   3.988   7.013  1.4221 -2.6791 -0.2431
  870MOL0     H20002  10.366   3.981   7.006  2.5795  0.5832 -2.7909
  870MOL0     H20003  10.353   3.748   7.099 -0.0186  0.0004 -0.7078
  870MOL0     H20004  10.449   3.758   6.959  3.1346  2.4040 -0.8505
  870MOL0     H20005  10.535   3.620   7.100  0.0900  1.1839 -2.6013
  870MOL0     H20006  10.555   3.718   7.234  1.7150  2.3344  0.1500
  870MOL0     H20007  10.718   3.795   6.990  0.8055 -0.5467  0.2565
  870MOL0     H20008  10.722   3.866   7.137  2.5077 -0.1116 -1.5877
  870MOL0     H20009  10.949   3.785   7.147 -0.2129  0.5467 -0.2288
  870MOL0     H20010  11.180   3.670   7.032 -3.7391 -0.5806 -4.0194
  870MOL0     H20011  11.150   3.514   6.979  1.3764  3.3169 -2.6129
  870MOL0     H20012  11.337   3.557   7.158 -1.3727  2.0120 -1.9023
  870MOL0     H20013  11.224   3.604   7.273 -0.3291  1.2273 -0.8061
  870MOL0     H20014  11.147   3.356   7.276  0.3070 -0.5799 -0.4097
  870MOL0     H20015  11.211   3.325   7.124 -2.3046 -0.5558  0.4506
  870MOL0     H20016  11.459   3.379   7.207  0.6153 -1.6257 -0.3339
  870MOL0     H20017  11.392   3.372   7.361  0.5867 -2.2891  1.0656
  870MOL0     H20018  11.364   2.942   7.291  0.6307 -1.9497 -0.1673
  870MOL0     H20019  11.578   2.770   7.519  0.8625  0.5944 -0.8370
  870MOL0     H20020  11.579   2.701   7.351  2.2008 -2.5443  3.7349
  870MOL0     H20021  11.427   2.769   7.426 -0.6205  0.8802 -1.2906
  870MOL0     H20022  12.066   2.806   7.578 -1.1076 -0.6538 -0.3300
  870MOL0     H20023  12.254   2.661   7.585 -0.4989  2.4787 -1.3799
  870MOL0     H20024  12.323   2.414   7.666 -0.2744  1.4452 -0.9467
  870MOL0     H20025  12.216   2.284   7.614  0.9314 -0.3312  2.1477
  870MOL0     H20026  12.493   2.305   7.490  0.9666 -2.3403 -2.6798
  870MOL0     H20027  12.455   2.232   7.657 -1.7072  1.7206  0.6472
  870MOL0     H20028  12.298   2.143   7.418  1.7596 -0.9207 -0.7218
  870MOL0     H20029  12.327   2.055   7.556 -0.1228 -0.6101 -0.1869
  870MOL0     H20030  12.568   2.115   7.390 -1.1492  4.5828  3.0172
  870MOL0     H20031  12.459   1.983   7.359 -0.6499  1.0593  0.7636
  870MOL0     H20032  12.533   2.027   7.650  1.6704  0.0045 -0.4873
  870MOL0     H20033  12.501   1.865   7.571 -2.3108 -0.1320 -2.2898
  870MOL0     H20034  12.743   2.040   7.558 -0.1155 -0.0351  2.0460
  870MOL0     H20035  12.711   1.896   7.447  0.1214 -1.3242  0.4963
  870MOL0     H20036  12.773   1.764   7.621 -0.6996  1.3489 -2.5463
  870MOL0     H20037  12.713   1.877   7.750  0.8917  0.8237 -0.1030
  870MOL0     H20038  12.947   1.859   7.786 -0.9092  1.0939  1.3814
  870MOL0     H20039  12.913   2.013   7.729 -0.7001  0.6631  0.5612
  870MOL0     H20040  12.069   2.383   7.330  0.5032 -2.0167  3.2048
  870MOL0     H20041  11.866   2.548   7.298  1.1878  2.2013 -1.0883
  870MOL0     H20042  11.804   3.159   7.350  0.2818 -1.9144 -0.6175
  870MOL0     H20043  11.631   3.276   7.257  1.0501 -0.0223  2.1263
  870MOL0     H20044  10.031   3.926   7.640  0.2652 -0.7523  0.2066
  870MOL0     H20045   9.931   3.850   7.854  1.1709 -2.2637  0.2356
  870MOL0     H20046  10.009   3.533   8.202 -1.6006  1.8833 -2.2739
  870MOL0     H20047   9.855   3.441   8.387 -3.2561  0.8463  0.9494
  870MOL0     H20048   9.790   3.715   8.738  0.3626  0.7203 -1.5300
  870MOL0     H20049   9.632   3.751   8.656 -1.5267 -0.1537  1.0208
  870MOL0     H20050   9.683   3.500   8.831  1.5637  2.5270  1.3581
  870MOL0     H20051   9.535   3.550   8.730  1.0294 -0.9868 -2.5394
  870MOL0     H20052   9.662   3.712   8.956 -0.8724  2.0637 -1.3502
  870MOL0     H20053   9.524   3.760   8.866 -1.0306 -0.6801 -1.6173
  870MOL0     H20054   9.538   3.488   9.006 -0.0727 -0.6221 -4.1966
  870MOL0     H20055   9.387   3.558   8.940 -0.8394  1.5403  0.5945
  870MOL0     H20056   9.417   3.746   9.305  2.1980  0.2214  0.3991
  870MOL0     H20057   9.830   3.836   8.549  0.7091  0.1271  0.3106
  870MOL0     H20058   9.932   4.017   8.456 -1.4195  0.7181 -0.0974
  870MOL0     H20059  10.052   3.989   8.333  0.3708 -0.5285 -1.4501
  870MOL0     H20060   9.891   4.014   8.281  1.9753  4.2414  1.4347
  871MOL0     O20061   5.967   9.930   6.514  0.0147 -0.3914 -0.8640
  871MOL0     C20062   6.051   9.835   6.524 -1.5101 -0.4659  0.2472
  871MOL0     O20063   6.119   9.795   6.637 -0.3194  0.0600  0.5618
  871MOL0     C20064   6.088   9.840   6.760  0.5815 -0.4898 -0.2327
  871MOL0     C20065   6.197   9.856   6.853 -0.3746  0.7552 -0.7218
  871MOL0     C20066   6.164   9.879   6.994 -0.6948 -0.2946  0.4661
  871MOL0     C20067   6.027   9.884   7.036  0.3435  0.4054  0.1352
  871MOL0     O20068   6.011   9.905   7.170  0.1034  0.2905 -0.7403
  871MOL0     C20069   5.893   9.968   7.217  0.7211 -0.2595 -0.4452
  871MOL0     C20070   5.801   9.862   7.274 -0.0317 -0.1697  0.5019
  871MOL0     C20071   5.826   9.856   7.427 -0.4093 -0.4625  0.0551
  871MOL0     C20072   5.766   9.730   7.497 -0.2580 -0.3376  0.2721
  871MOL0     C20073   5.777   9.734   7.647  0.1808  0.8951 -0.6762
  871MOL0     C20074   5.908   9.683   7.709 -0.2315 -0.1997  0.7833
  871MOL0     C20075   5.910   9.690   7.862 -0.8285 -0.8931  0.5027
  871MOL0     C20076   6.039   9.609   7.912 -1.0851 -0.1923  0.0806
  871MOL0     N20077   6.154   9.689   7.874  0.1516  1.1588 -1.0202
  871MOL0     C20078   6.178   9.808   7.936  0.2039 -0.2002 -0.5432
  871MOL0     C20079   6.299   9.843   7.889  0.4598  0.5756 -0.3020
  871MOL0     C20080   6.384   9.957   7.938 -0.0870  0.0954  0.1430
  871MOL0     C20081   6.475   9.915   8.055  0.0247 -0.0358  0.3358
  871MOL0     C20082   6.583  10.016   8.092  0.2329 -0.2129  0.7348
  871MOL0     C20083   6.543  10.136   8.165  0.2255 -0.5912 -0.4032
  871MOL0     O20084   6.488  10.107   8.303  0.4824  0.6878 -1.3392
  871MOL0     C20085   6.421  10.208   8.369 -0.4899 -0.9288  0.0744
  871MOL0     C20086   6.308  10.178   8.444 -0.8685 -0.0566  0.6375
  871MOL0     C20087   6.235  10.275   8.512  0.1881 -0.3657  1.3034
  871MOL0     C20088   6.111  10.220   8.587  0.7454 -0.1256 -0.1005
  871MOL0     C20089   6.275  10.413   8.502  0.3365  0.3772  0.1280
  871MOL0     C20090   6.213  10.524   8.569 -0.2424  0.4635 -0.1559
  871MOL0     O20091   6.255  10.651   8.523 -0.0723 -0.3026  0.6176
  871MOL0     C20092   6.186  10.756   8.585  0.3905  0.1535  1.4073
  871MOL0     C20093   6.049  10.772   8.542 -0.7873  0.1806 -0.1312
  871MOL0     C20094   5.984  10.880   8.596  0.1351 -0.2021 -0.9089
  871MOL0     C20095   6.043  10.975   8.678 -0.4941  0.0648  0.6148
  871MOL0     O20096   5.968  11.077   8.711  0.6241 -0.4135  0.2636
  871MOL0     C20097   6.012  11.163   8.822 -0.2734 -0.3222  0.0580
  871MOL0     C20098   5.903  11.262   8.870 -0.7982 -0.5607  0.0060
  871MOL0     C20099   5.790  11.179   8.933  0.4563 -0.0156  0.1491
  871MOL0     C20100   5.656  11.232   8.892  0.4928 -0.1048 -0.7992
  871MOL0     C20101   5.529  11.163   8.953  0.6657 -0.5716 -1.0434
  871MOL0     C20102   5.387  11.201   8.907  0.3599  0.9199  1.2946
  871MOL0     C20103   5.362  11.347   8.905  0.0788 -0.0313  0.1655
  871MOL0     C20104   5.370  11.412   9.048 -0.7838 -0.9711  0.2870
  871MOL0    Cl20105   5.360  11.588   9.025  0.0493 -0.1622 -0.3067
  871MOL0     C20106   6.179  10.957   8.711  0.0662 -0.3457 -0.0360
  871MOL0     C20107   6.245  10.848   8.668  0.6715  0.1708 -0.3362
  871MOL0     O20108   6.135  10.505   8.661 -0.1098  0.1236  0.2140
  871MOL0     C20109   6.395  10.442   8.435 -0.3117  0.2794  1.0284
  871MOL0     C20110   6.470  10.342   8.373  0.4336  0.5725 -0.3578
  871MOL0     N20111   6.346   9.750   7.800  0.1370  0.1686 -0.3919
  871MOL0     N20112   6.255   9.660   7.785  0.7420 -0.5894 -0.2361
  871MOL0     C20113   5.929   9.863   6.942 -0.1011 -0.2039  0.5190
  871MOL0     C20114   5.955   9.853   6.803  0.2552 -0.4837 -0.0010
  871MOL0     C20115   6.092   9.757   6.404  0.1253 -0.1598  0.3680
  871MOL0     C20116   6.226   9.750   6.375  1.3503 -0.2982  0.6906
  871MOL0     C20117   6.269   9.694   6.256 -0.0683  0.8669 -0.2497
  871MOL0     C20118   6.174   9.665   6.158 -0.4869  0.8825  0.2670
  871MOL0     O20119   6.207   9.620   6.032 -0.4458 -0.5177 -0.7928
  871MOL0     C20120   6.342   9.596   6.001  0.0051  0.5559 -0.6343
  871MOL0     C20121   6.331   9.508   5.876  0.3720 -0.2421  0.3115
  871MOL0     C20122   6.255   9.572   5.762 -0.5794  0.1860  0.7559
  871MOL0     C20123   6.197   9.465   5.663  0.1773  0.5834 -0.7483
  871MOL0     C20124   6.298   9.362   5.631 -0.0171 -0.6348  0.2933
  871MOL0     C20125   6.363   9.267   5.584 -0.3820  0.5124 -0.3401
  871MOL0     C20126   6.040   9.671   6.183  0.1391 -0.0034 -0.5161
  871MOL0     C20127   5.997   9.708   6.312 -0.0125 -0.1383  0.4665
  871MOL0     C20128   5.846   9.726   6.322  0.3587  0.6150  0.8876
  871MOL0     H20129   6.301   9.840   6.826 -0.6314 -2.7338 -0.1028
  871MOL0     H20130   6.246   9.871   7.065  1.4688 -0.0349 -1.8569
  871MOL0     H20131   5.841  10.018   7.134  0.8654  0.7755  0.0705
  871MOL0     H20132   5.914  10.043   7.293  1.3361  1.6504 -2.3944
  871MOL0     H20133   5.695   9.887   7.265 -0.4686 -1.9814  0.2072
  871MOL0     H20134   5.818   9.764   7.229 -1.3727  0.1562 -0.7618
  871MOL0     H20135   5.934   9.860   7.442 -0.4332 -0.6990  0.2916
  871MOL0     H20136   5.781   9.945   7.471  0.3411  0.4679 -1.0093
  871MOL0     H20137   5.661   9.708   7.477 -0.4032 -0.1934  0.8361
  871MOL0     H20138   5.820   9.642   7.462  1.8961  1.4130 -1.0705
  871MOL0     H20139   5.706   9.660   7.683  0.6098  0.6023 -0.4169
  871MOL0     H20140   5.754   9.833   7.688  0.2085  0.6667 -0.0920
  871MOL0     H20141   5.926   9.577   7.693 -1.9804 -0.4934  0.6024
  871MOL0     H20142   5.995   9.734   7.667 -0.7563  2.0532  2.2576
  871MOL0     H20143   5.826   9.638   7.908 -1.1498  1.6659  3.1410
  871MOL0     H20144   5.900   9.788   7.911 -0.0825  0.0186 -1.0993
  871MOL0     H20145   6.026   9.602   8.020  0.9932 -2.0814  0.2844
  871MOL0     H20146   6.054   9.513   7.862  1.4710  1.0250 -1.7175
  871MOL0     H20147   6.127   9.868   8.011 -2.2878 -2.4194 -0.2878
  871MOL0     H20148   6.314  10.033   7.974 -1.2356  0.9015 -3.3772
  871MOL0     H20149   6.443  10.003   7.859  2.4877 -3.8303 -0.5180
  871MOL0     H20150   6.416   9.871   8.136  1.2122 -1.6949  0.3452
  871MOL0     H20151   6.528   9.830   8.010  2.9754  1.5525  0.5386
  871MOL0     H20152   6.655   9.957   8.150  0.0846  0.7496  1.9418
  871MOL0     H20153   6.628  10.063   8.005  0.4520  2.9489  2.4114
  871MOL0     H20154   6.630  10.199   8.185  1.4680 -2.6378  1.0690
  871MOL0     H20155   6.473  10.189   8.101 -1.3096 -2.0539 -0.0084
  871MOL0     H20156   6.270  10.077   8.453  1.2585 -0.9501  0.3014
  871MOL0     H20157   6.111  10.243   8.694  2.3508 -2.1158  0.3810
  871MOL0     H20158   6.113  10.111   8.588  0.4520 -0.1766 -1.8603
  871MOL0     H20159   6.019  10.262   8.544  0.4487 -1.0306 -0.3792
  871MOL0     H20160   5.994  10.696   8.487 -3.9569  2.0245  0.2104
  871MOL0     H20161   5.878  10.897   8.578 -0.9102 -2.3710  2.1696
  871MOL0     H20162   6.031  11.104   8.912  2.4537  2.3080  1.3712
  871MOL0     H20163   6.108  11.209   8.795  1.0763 -1.9918  1.7401
  871MOL0     H20164   5.949  11.329   8.944 -2.6737  0.1848  0.5650
  871MOL0     H20165   5.861  11.322   8.788 -4.2175 -1.1365  1.1634
  871MOL0     H20166   5.807  11.192   9.040 -1.1519  0.8784  0.3317
  871MOL0     H20167   5.784  11.073   8.909 -2.1055  0.0303  0.3327
  871MOL0     H20168   5.659  11.221   8.783  1.2554 -3.9042 -0.5444
  871MOL0     H20169   5.663  11.339   8.910  1.3440 -0.8089  4.4351
  871MOL0     H20170   5.521  11.056   8.929  0.4781 -0.5291 -1.1744
  871MOL0     H20171   5.528  11.176   9.062 -1.5019 -1.2172 -0.9468
  871MOL0     H20172   5.311  11.144   8.960  2.8710  0.1414  4.3336
  871MOL0     H20173   5.378  11.157   8.807  1.6775  0.6769  1.2651
  871MOL0     H20174   5.258  11.370   8.877 -0.5236 -0.5570  1.8874
  871MOL0     H20175   5.436  11.401   8.845 -1.7528  3.8470  1.0736
  871MOL0     H20176   5.466  11.383   9.091 -0.1602  0.8101  0.1946
  871MOL0     H20177   5.285  11.374   9.105 -1.0970 -0.0836  0.4311
  871MOL0     H20178   6.235  11.017   8.781  0.5130 -1.5152  0.6356
  871MOL0     H20179   6.350  10.832   8.691  1.2895  1.1982 -2.1928
  871MOL0     H20180   6.444  10.539   8.437 -1.1325  0.8167 -1.5689
  871MOL0     H20181   6.557  10.380   8.320  0.8333  0.8023  0.4477
  871MOL0     H20182   5.827   9.866   6.976  0.2625  0.5939  1.5726
  871MOL0     H20183   5.873   9.839   6.733  0.2339  1.2565 -0.3863
  871MOL0     H20184   6.303   9.789   6.441 -1.5401  2.9653  2.5015
  871MOL0     H20185   6.375   9.702   6.234 -0.0762  1.6888 -0.0388
  871MOL0     H20186   6.399   9.688   5.994 -0.4195  0.9507  0.8355
  871MOL0     H20187   6.390   9.526   6.071 -0.0624 -0.0081 -1.1379
  871MOL0     H20188   6.283   9.416   5.912 -2.7722  2.0638  2.6545
  871MOL0     H20189   6.432   9.489   5.841  0.5950  1.8037 -0.2664
  871MOL0     H20190   6.173   9.629   5.806  0.5984  0.2269  3.0130
  871MOL0     H20191   6.324   9.631   5.700 -0.5276 -1.3299 -0.7172
  871MOL0     H20192   6.170   9.525   5.576  2.9019 -0.5125 -2.4897
  871MOL0     H20193   6.113   9.408   5.702 -0.1642  0.7142 -1.2900
  871MOL0     H20194   6.419   9.179   5.562 -0.1066 -0.9400  4.8770
  871MOL0     H20195   5.965   9.646   6.108 -0.3211 -2.5866  0.6957
  871MOL0     H20196   5.833   9.833   6.305  0.6152  0.5917  0.5372
  871MOL0     H20197   5.784   9.669   6.252  0.0783  1.4789  0.4165
  871MOL0     H20198   5.813   9.707   6.425  0.5142 -2.3457  0.4599
  872MOL0     O20199   4.988   6.392   3.446  0.1888  0.2922 -0.2833
  872MOL0     C20200   4.955   6.396   3.561 -0.1644  0.0453 -0.5559
  872MOL0     O20201   4.829   6.401   3.609 -0.1179  0.4935 -0.4478
  872MOL0     C20202   4.717   6.411   3.535  0.1877 -0.3005  0.4355
  872MOL0     C20203   4.676   6.530   3.469  0.2132 -1.0962 -0.5882
  872MOL0     C20204   4.560   6.530   3.389 -0.6286  0.2721 -0.4712
  872MOL0     C20205   4.480   6.419   3.377 -0.1662  0.7058  0.0881
  872MOL0     O20206   4.370   6.424   3.299  0.6869  0.5929 -0.4344
  872MOL0     C20207   4.343   6.344   3.185  0.2793 -0.1920  0.3975
  872MOL0     C20208   4.275   6.436   3.083 -1.1817  0.5651 -0.5129
  872MOL0     C20209   4.240   6.362   2.954 -0.4537  0.1200 -0.2966
  872MOL0     C20210   4.359   6.307   2.872  0.4185 -0.6220  0.4014
  872MOL0     C20211   4.308   6.304   2.730 -0.2835 -1.4730  1.1017
  872MOL0     C20212   4.321   6.440   2.658  0.0203 -0.2110 -0.9368
  872MOL0     C20213   4.305   6.429   2.512 -0.1145  0.4451  0.1617
  872MOL0     C20214   4.316   6.571   2.443 -0.7419  0.8975 -0.0081
  872MOL0     N20215   4.447   6.633   2.448  0.8939 -0.0057  0.8174
  872MOL0     C20216   4.541   6.632   2.345  0.0499  0.0109  0.7310
  872MOL0     C20217   4.642   6.710   2.392 -0.3984  0.4210 -0.0075
  872MOL0     C20218   4.772   6.731   2.330 -0.3510  0.4857 -0.3903
  872MOL0     C20219   4.875   6.805   2.417  0.2382  0.7052  0.0648
  872MOL0     C20220   4.962   6.910   2.336  0.1789 -0.3907 -0.0448
  872MOL0     C20221   5.057   6.991   2.431 -0.2355  0.1331  0.1514
  872MOL0     O20222   5.015   7.008   2.566 -0.3336 -0.3899  0.7043
  872MOL0     C20223   5.111   6.975   2.661 -0.4291 -0.5436 -0.8691
  872MOL0     C20224   5.065   6.893   2.760 -0.1107 -0.5225  0.2092
  872MOL0     C20225   5.140   6.851   2.868 -0.2491 -0.8793 -0.6295
  872MOL0     C20226   5.071   6.773   2.978  0.0291 -0.7184 -0.0184
  872MOL0     C20227   5.280   6.892   2.878  0.2043  0.3666  0.4515
  872MOL0     C20228   5.377   6.829   2.974  0.4999 -0.1316 -0.0840
  872MOL0     O20229   5.344   6.724   3.052 -0.2509  0.7284 -0.1295
  872MOL0     C20230   5.423   6.668   3.144 -0.9056  0.0364 -0.8759
  872MOL0     C20231   5.397   6.537   3.176  0.3399 -0.1911 -0.3392
  872MOL0     C20232   5.464   6.473   3.277 -1.1154 -0.3197 -1.5018
  872MOL0     C20233   5.566   6.541   3.351 -0.1477  0.4223 -0.8617
  872MOL0     O20234   5.619   6.465   3.455 -0.0997  0.2839  0.2503
  872MOL0     C20235   5.664   6.533   3.568 -0.1876 -0.1512 -0.9344
  872MOL0     C20236   5.809   6.507   3.602 -0.8631  0.1946  0.1054
  872MOL0     C20237   5.905   6.459   3.491  1.1696 -0.0570  0.3980
  872MOL0     C20238   6.065   6.461   3.523  0.9587 -0.2318 -0.0489
  872MOL0     C20239   6.152   6.399   3.413  0.5600  0.4917  0.7297
  872MOL0     C20240   6.123   6.250   3.390  0.3277  0.7398  0.0998
  872MOL0     C20241   6.244   6.169   3.465  0.0614 -0.9194  0.8479
  872MOL0     C20242   6.210   6.021   3.452  0.3134 -0.1561 -0.4530
  872MOL0    Cl20243   6.113   5.955   3.587 -0.3575 -0.0980  0.2351
  872MOL0     C20244   5.596   6.672   3.325 -0.0307  0.2045 -0.0933
  872MOL0     C20245   5.530   6.740   3.218  0.7452 -0.2649  0.0991
  872MOL0     O20246   5.488   6.869   2.967  0.1539  0.0272 -0.5939
  872MOL0     C20247   5.335   6.959   2.762  0.4613 -0.6178  0.8106
  872MOL0     C20248   5.251   7.006   2.660 -0.3114 -0.7867  0.4687
  872MOL0     N20249   4.610   6.752   2.519  0.2150 -0.0176 -0.2214
  872MOL0     N20250   4.488   6.718   2.552 -0.4652 -0.5489 -0.0858
  872MOL0     C20251   4.524   6.296   3.435 -0.0225 -0.5436  0.4266
  872MOL0     C20252   4.637   6.296   3.517  0.2887  0.0136  0.0054
  872MOL0     C20253   5.053   6.364   3.661 -0.5900  0.6322 -0.4019
  872MOL0     C20254   5.001   6.315   3.783  0.0431 -0.1219  0.8455
  872MOL0     C20255   5.076   6.292   3.897 -0.6283  0.2689  0.5388
  872MOL0     C20256   5.210   6.328   3.901 -0.4670  0.1687 -0.3406
  872MOL0     O20257   5.270   6.327   4.027 -0.1279 -0.4133 -0.2500
  872MOL0     C20258   5.409   6.351   4.037  0.8752  0.4193 -0.0583
  872MOL0     C20259   5.416   6.505   4.042  0.1975 -0.2829  0.6508
  872MOL0     C20260   5.349   6.564   4.173 -0.1114  1.6900  0.0504
  872MOL0     C20261   5.411   6.692   4.213  0.4919 -0.2394 -0.2011
  872MOL0     C20262   5.552   6.677   4.237 -0.4275 -0.6214 -0.2151
  872MOL0     C20263   5.668   6.642   4.244 -0.2043  0.0671 -0.1443
  872MOL0     C20264   5.261   6.390   3.786 -0.0082 -0.7751  0.0723
  872MOL0     C20265   5.194   6.398   3.660  0.1741 -0.7620  0.3081
  872MOL0     C20266   5.269   6.463   3.554  0.0050 -0.1112  0.3173
  872MOL0     H20267   4.733   6.621   3.482  0.6488 -1.2332 -1.4955
  872MOL0     H20268   4.525   6.619   3.338  0.7109  2.2558  1.8750
  872MOL0     H20269   4.275   6.264   3.216  0.3725  0.6488  3.0133
  872MOL0     H20270   4.435   6.312   3.135  0.6379  1.9162 -0.4238
  872MOL0     H20271   4.176   6.465   3.121 -0.6579 -0.5888  1.9093
  872MOL0     H20272   4.348   6.514   3.061  2.4655 -2.4127  0.1478
  872MOL0     H20273   4.180   6.274   2.979  1.3771 -0.9643  0.4662
  872MOL0     H20274   4.174   6.422   2.890 -0.7181 -2.0065 -2.1577
  872MOL0     H20275   4.438   6.382   2.883  1.6690 -1.9091  0.4510
  872MOL0     H20276   4.406   6.212   2.898 -1.3628 -2.2005 -1.8014
  872MOL0     H20277   4.200   6.284   2.731 -1.3780  3.2200  0.6428
  872MOL0     H20278   4.362   6.228   2.672  0.3657  0.6604 -1.2424
  872MOL0     H20279   4.252   6.514   2.699  2.8092  0.2740  3.5837
  872MOL0     H20280   4.425   6.470   2.666 -0.2311  0.5139 -0.2449
  872MOL0     H20281   4.208   6.386   2.487  0.2554  1.1277 -2.8583
  872MOL0     H20282   4.384   6.365   2.470 -0.3193  1.2585 -1.5361
  872MOL0     H20283   4.286   6.546   2.340 -0.4356 -2.9351  0.6862
  872MOL0     H20284   4.243   6.640   2.485 -1.7942  1.1429 -2.0881
  872MOL0     H20285   4.541   6.580   2.249 -0.4407 -0.6653  1.0881
  872MOL0     H20286   4.735   6.779   2.239 -1.1135 -2.4067 -1.7222
  872MOL0     H20287   4.817   6.635   2.306 -0.3995  0.4726 -0.4272
  872MOL0     H20288   4.829   6.859   2.500 -1.2433 -2.6025  1.5899
  872MOL0     H20289   4.943   6.729   2.458  1.7337  1.2269 -1.3152
  872MOL0     H20290   5.024   6.859   2.262  0.7649  0.5467 -0.2205
  872MOL0     H20291   4.895   6.976   2.281 -1.0743 -0.8913  0.8339
  872MOL0     H20292   5.158   6.949   2.435  0.1071  1.0412  2.7652
  872MOL0     H20293   5.081   7.090   2.391  1.3629 -1.1263 -2.3269
  872MOL0     H20294   4.961   6.862   2.767 -0.6487  0.4607 -2.3047
  872MOL0     H20295   4.969   6.812   2.982  0.6034  0.9492 -0.6414
  872MOL0     H20296   5.117   6.788   3.076 -0.3038  1.0267 -0.0876
  872MOL0     H20297   5.065   6.666   2.957 -5.7426 -1.1645  2.0717
  872MOL0     H20298   5.313   6.497   3.120 -0.6911  2.9750 -1.2790
  872MOL0     H20299   5.445   6.373   3.314 -4.5505  0.9928  0.8414
  872MOL0     H20300   5.650   6.641   3.556 -2.2257 -0.5645 -3.2194
  872MOL0     H20301   5.592   6.512   3.648 -0.7078 -0.4539 -1.4735
  872MOL0     H20302   5.861   6.593   3.645  1.8936 -1.9484  1.3296
  872MOL0     H20303   5.795   6.437   3.685  0.4586 -0.3453 -0.1101
  872MOL0     H20304   5.892   6.530   3.409 -0.3563  0.1107  0.7495
  872MOL0     H20305   5.880   6.356   3.464  4.3942 -0.6855 -0.6056
  872MOL0     H20306   6.076   6.401   3.614 -0.5240  1.7419  1.5067
  872MOL0     H20307   6.086   6.567   3.536  1.5024  0.4279 -4.6013
  872MOL0     H20308   6.113   6.440   3.319 -2.3842 -1.7381  0.8131
  872MOL0     H20309   6.253   6.437   3.428  0.4585  1.1089 -0.0614
  872MOL0     H20310   6.126   6.230   3.283 -0.3704  2.6562 -0.3244
  872MOL0     H20311   6.027   6.210   3.423 -1.1087  2.7368 -1.4043
  872MOL0     H20312   6.246   6.193   3.572  3.6205 -4.2157  1.7414
  872MOL0     H20313   6.347   6.182   3.431 -0.0192 -1.7660  0.2566
  872MOL0     H20314   6.302   5.962   3.454 -0.0336 -0.6807  0.6632
  872MOL0     H20315   6.159   5.998   3.358  3.2914 -3.6837 -1.4345
  872MOL0     H20316   5.678   6.716   3.380  0.6448 -0.1610 -0.7835
  872MOL0     H20317   5.569   6.840   3.199  3.1924 -1.0533  0.6007
  872MOL0     H20318   5.443   6.962   2.755  0.3894 -0.4446 -0.5369
  872MOL0     H20319   5.274   7.061   2.570  0.4947 -0.2421  1.0040
  872MOL0     H20320   4.479   6.210   3.386 -2.1012  1.7444 -2.0231
  872MOL0     H20321   4.665   6.198   3.556 -0.5054 -0.3686 -0.3584
  872MOL0     H20322   4.902   6.277   3.807  0.4480 -1.0015  1.1816
  872MOL0     H20323   5.038   6.247   3.988  1.0091 -2.2296  0.0762
  872MOL0     H20324   5.451   6.306   4.128 -0.3408  1.1483  0.8987
  872MOL0     H20325   5.473   6.322   3.953  4.6269 -0.1601  2.7473
  872MOL0     H20326   5.363   6.550   3.959  1.0611 -0.7626 -0.1901
  872MOL0     H20327   5.520   6.540   4.035  0.1051  0.2014  1.5898
  872MOL0     H20328   5.243   6.574   4.150 -1.1172 -1.0940  2.7169
  872MOL0     H20329   5.360   6.502   4.263  0.6511  0.1263 -1.0570
  872MOL0     H20330   5.375   6.729   4.309 -1.2485  2.4232 -1.7432
  872MOL0     H20331   5.380   6.773   4.146  1.4711 -1.1766 -1.8477
  872MOL0     H20332   5.772   6.619   4.250  0.1650  1.2428 -1.4105
  872MOL0     H20333   5.362   6.430   3.796  0.5618 -1.6548 -1.6814
  872MOL0     H20334   5.350   6.526   3.592 -0.1350  1.4952 -1.8957
  872MOL0     H20335   5.325   6.378   3.512  1.3125  1.2247 -0.7572
  872MOL0     H20336   5.225   6.508   3.465  0.5122  0.9505  0.5950
  873MOL0     O20337   1.066   2.759   5.111  0.6952 -0.7010  0.6104
  873MOL0     C20338   1.058   2.867   5.175 -0.5444  0.2165  0.2859
  873MOL0     O20339   1.153   2.967   5.160  0.1636  0.1800 -0.2002
  873MOL0     C20340   1.279   2.933   5.119  0.5516  0.3598 -0.4508
  873MOL0     C20341   1.381   2.862   5.189  1.3113  0.8067 -0.7775
  873MOL0     C20342   1.500   2.818   5.128 -0.0218 -0.6393  0.5656
  873MOL0     C20343   1.543   2.876   5.005  0.7006 -0.4407 -0.4247
  873MOL0     O20344   1.669   2.865   4.942 -1.0165  0.0094 -0.4669
  873MOL0     C20345   1.776   2.829   5.033 -0.4708 -0.2065 -0.4208
  873MOL0     C20346   1.905   2.823   4.948 -0.2002  0.5779 -0.8238
  873MOL0     C20347   1.941   2.958   4.874  0.4279  0.3681 -0.0258
  873MOL0     C20348   2.040   3.040   4.953 -0.0506 -0.1983 -0.2215
  873MOL0     C20349   1.977   3.099   5.085  0.2296 -0.6407 -0.0479
  873MOL0     C20350   2.081   3.166   5.174  0.3044  0.6575  0.4744
  873MOL0     C20351   2.164   3.059   5.244 -0.8061  0.3884  0.0819
  873MOL0     C20352   2.242   3.117   5.366 -0.5712 -0.6780 -0.3003
  873MOL0     N20353   2.173   3.073   5.485  0.3552  0.3086 -0.2815
  873MOL0     C20354   2.047   3.113   5.532  0.7983 -0.3562  0.7573
  873MOL0     C20355   2.022   3.042   5.648 -0.5515  0.0696  0.5209
  873MOL0     C20356   1.899   3.015   5.731 -1.2109 -0.1563  0.5040
  873MOL0     C20357   1.814   3.135   5.758  0.4069 -0.7581 -0.5263
  873MOL0     C20358   1.871   3.240   5.856  0.0195  0.2905  0.5601
  873MOL0     C20359   1.779   3.364   5.875  0.6390 -0.1454  0.1011
  873MOL0     O20360   1.660   3.312   5.949  0.7161 -1.3603 -0.3622
  873MOL0     C20361   1.553   3.406   5.964  0.6063 -0.1740  0.9788
  873MOL0     C20362   1.436   3.357   6.032 -0.2483 -0.4707  0.5882
  873MOL0     C20363   1.329   3.445   6.049  1.0945  0.0493 -0.0391
  873MOL0     C20364   1.215   3.391   6.131  0.9336  0.1239  0.3430
  873MOL0     C20365   1.337   3.581   6.001  0.5026  0.6801  0.3094
  873MOL0     C20366   1.234   3.683   6.011 -0.2877 -0.7141  0.5400
  873MOL0     O20367   1.249   3.786   5.932 -0.0671 -0.0977 -0.7241
  873MOL0     C20368   1.167   3.897   5.940  0.8725 -0.7508  0.2166
  873MOL0     C20369   1.194   3.993   6.040 -1.1154  1.5723 -0.1000
  873MOL0     C20370   1.119   4.105   6.042 -0.3697  0.5971  0.5280
  873MOL0     C20371   1.027   4.130   5.942 -0.0282  0.1982  0.1227
  873MOL0     O20372   0.979   4.252   5.945  0.9627  0.2386  0.6730
  873MOL0     C20373   1.015   4.346   5.836 -0.4370 -0.0853  0.2372
  873MOL0     C20374   1.172   4.362   5.831  0.2909  0.0917 -1.1181
  873MOL0     C20375   1.227   4.451   5.710  0.1740 -0.0727  0.7178
  873MOL0     C20376   1.184   4.597   5.715  0.1796  0.3079 -0.1826
  873MOL0     C20377   1.195   4.667   5.857 -0.1210 -0.1170  1.6128
  873MOL0     C20378   1.349   4.677   5.888  0.7389 -0.5752 -0.7314
  873MOL0     C20379   1.368   4.732   6.037  0.7742 -0.0526 -0.4339
  873MOL0     C20380   1.500   4.735   6.094 -0.5267  0.0705 -0.9430
  873MOL0    Cl20381   1.491   4.800   6.265  0.2335  0.2083  0.0531
  873MOL0     C20382   1.009   4.040   5.839  0.1519 -0.0365 -0.1308
  873MOL0     C20383   1.075   3.921   5.835  0.5770 -0.4555  0.6229
  873MOL0     O20384   1.159   3.677   6.105  0.5529 -0.8928 -0.5617
  873MOL0     C20385   1.454   3.620   5.934  0.1358 -0.0667 -0.3254
  873MOL0     C20386   1.560   3.538   5.912  0.3030 -0.3289 -0.8234
  873MOL0     N20387   2.143   2.984   5.681 -0.3592 -0.2028  0.1254
  873MOL0     N20388   2.225   2.993   5.583 -0.0500  0.9158  0.1852
  873MOL0     C20389   1.450   2.954   4.942 -0.1065  0.3971 -0.3653
  873MOL0     C20390   1.320   2.984   4.999 -1.2206  0.1522 -0.0065
  873MOL0     C20391   0.925   2.900   5.224  0.3191 -0.9655  0.1938
  873MOL0     C20392   0.870   3.034   5.197 -0.9247 -0.2279 -0.6623
  873MOL0     C20393   0.740   3.064   5.228 -1.7755 -1.0109 -0.0785
  873MOL0     C20394   0.658   2.972   5.291  0.2466  0.1906  0.2697
  873MOL0     O20395   0.537   3.024   5.320  1.2694  0.3016 -0.2590
  873MOL0     C20396   0.461   2.941   5.414 -0.3126  0.0879  0.4185
  873MOL0     C20397   0.502   2.952   5.558 -0.1850 -0.9172 -0.4433
  873MOL0     C20398   0.480   3.095   5.613  0.6789  0.9856  0.4733
  873MOL0     C20399   0.539   3.116   5.756  0.9301 -0.6377 -0.0878
  873MOL0     C20400   0.486   3.027   5.864  0.2446 -0.6999  1.4832
  873MOL0     C20401   0.470   2.943   5.944  0.6685  0.5430 -0.3278
  873MOL0     C20402   0.703   2.842   5.316 -0.4310  0.1442 -0.6206
  873MOL0     C20403   0.833   2.808   5.294  0.3037 -1.0548  0.3911
  873MOL0     C20404   0.865   2.670   5.340 -0.5130 -0.0120  0.3934
  873MOL0     H20405   1.376   2.832   5.294 -0.2090  2.4852 -0.3228
  873MOL0     H20406   1.565   2.746   5.176 -0.7034 -1.4813  0.2747
  873MOL0     H20407   1.746   2.729   5.067  0.8989  0.2082  2.2379
  873MOL0     H20408   1.776   2.892   5.122  1.0693 -0.2811 -0.3411
  873MOL0     H20409   1.996   2.788   4.998 -0.5192 -1.5347 -1.5832
  873MOL0     H20410   1.893   2.742   4.875 -0.7018 -1.1136  1.0324
  873MOL0     H20411   1.978   2.945   4.771  1.5370  1.4346  0.2057
  873MOL0     H20412   1.853   3.022   4.861 -0.6117 -0.8566  0.7588
  873MOL0     H20413   2.122   2.971   4.977  1.2943  0.7936 -1.7480
  873MOL0     H20414   2.065   3.129   4.893  0.4060  1.9251  2.8531
  873MOL0     H20415   1.920   3.030   5.149 -0.3006  1.2172  1.5905
  873MOL0     H20416   1.899   3.169   5.053  0.6835  0.3284  0.8896
  873MOL0     H20417   2.139   3.242   5.121  0.6857 -0.0468 -0.1236
  873MOL0     H20418   2.025   3.223   5.249 -0.2114  0.2930  0.3760
  873MOL0     H20419   2.239   3.023   5.173 -0.9595  2.2557 -1.0784
  873MOL0     H20420   2.088   2.986   5.272 -1.8170  0.3943 -2.3798
  873MOL0     H20421   2.330   3.054   5.353 -1.2090 -1.4233 -1.1149
  873MOL0     H20422   2.284   3.219   5.366 -1.1278 -0.3824  2.5777
  873MOL0     H20423   1.969   3.166   5.479  1.8388  3.1594  2.4344
  873MOL0     H20424   1.924   2.976   5.830  1.0810  5.3522  2.4841
  873MOL0     H20425   1.838   2.943   5.677  0.7731 -0.7476 -1.0588
  873MOL0     H20426   1.804   3.190   5.664  0.3836  2.0674  1.0119
  873MOL0     H20427   1.714   3.115   5.797  0.1435  2.9535  1.1323
  873MOL0     H20428   1.884   3.200   5.957  1.6050 -1.2807 -0.2353
  873MOL0     H20429   1.969   3.272   5.821  0.1474 -0.6271  0.0556
  873MOL0     H20430   1.842   3.437   5.926 -0.8584 -0.9284  3.2984
  873MOL0     H20431   1.746   3.393   5.774  1.1618  1.3945  0.3398
  873MOL0     H20432   1.438   3.257   6.073  1.5328 -0.9770 -0.6199
  873MOL0     H20433   1.244   3.293   6.173  2.3474  0.1594 -0.4914
  873MOL0     H20434   1.125   3.368   6.073  0.2300  1.9069  0.6770
  873MOL0     H20435   1.191   3.460   6.213  0.0275  0.4037 -0.1539
  873MOL0     H20436   1.275   3.974   6.109 -0.6671  1.9399 -0.5189
  873MOL0     H20437   1.136   4.186   6.113  1.8985  0.9681 -0.3362
  873MOL0     H20438   0.980   4.315   5.737  0.0584  1.3244 -0.4012
  873MOL0     H20439   0.981   4.445   5.867  0.0672 -0.0899  0.8061
  873MOL0     H20440   1.194   4.407   5.928  0.0139 -2.6170  0.3086
  873MOL0     H20441   1.223   4.266   5.833 -1.2314 -0.7510 -0.1153
  873MOL0     H20442   1.187   4.415   5.615 -0.2298  1.3516  0.3141
  873MOL0     H20443   1.336   4.443   5.711  0.0205 -4.6654  0.3713
  873MOL0     H20444   1.080   4.595   5.679 -0.6703 -3.0363  1.9544
  873MOL0     H20445   1.240   4.657   5.644  1.0644  0.3174  0.5000
  873MOL0     H20446   1.160   4.771   5.850 -1.3601 -0.5995 -0.6964
  873MOL0     H20447   1.140   4.624   5.941 -1.6278  3.8609  2.8728
  873MOL0     H20448   1.387   4.752   5.818 -1.5592  2.5160  1.0923
  873MOL0     H20449   1.409   4.586   5.887 -0.5803 -1.5487  1.2381
  873MOL0     H20450   1.293   4.689   6.104 -1.0811 -1.0750 -2.9951
  873MOL0     H20451   1.344   4.839   6.033 -0.1960 -0.2721 -0.7629
  873MOL0     H20452   1.577   4.787   6.036  0.0414  0.8404  0.4613
  873MOL0     H20453   1.539   4.633   6.095 -0.3773  0.0901 -2.4856
  873MOL0     H20454   0.942   4.049   5.754  2.2387 -1.0624 -1.9810
  873MOL0     H20455   1.055   3.848   5.757  1.0154 -1.4996  1.4555
  873MOL0     H20456   1.459   3.721   5.895  0.1138 -0.2567 -0.8298
  873MOL0     H20457   1.639   3.571   5.846  1.2697 -1.2929 -0.1824
  873MOL0     H20458   1.490   2.982   4.845  0.9291  0.7613  0.1467
  873MOL0     H20459   1.258   3.052   4.942 -2.7318  0.4562  1.9054
  873MOL0     H20460   0.928   3.116   5.155 -2.6159  1.7814  0.6898
  873MOL0     H20461   0.696   3.163   5.213 -0.4927 -0.6925 -2.1888
  873MOL0     H20462   0.356   2.971   5.403 -0.0079  0.2039 -4.6355
  873MOL0     H20463   0.454   2.835   5.386 -0.2039  0.9969 -3.7426
  873MOL0     H20464   0.608   2.931   5.570 -0.0365  0.8703  2.0658
  873MOL0     H20465   0.443   2.887   5.623 -1.7552  2.1802  1.4816
  873MOL0     H20466   0.518   3.175   5.550 -1.2048  1.7122  0.1911
  873MOL0     H20467   0.371   3.104   5.619  0.5390 -0.8776  1.6090
  873MOL0     H20468   0.522   3.220   5.784  1.4253  0.2069 -2.6936
  873MOL0     H20469   0.647   3.101   5.757  1.2882  1.6975  0.8539
  873MOL0     H20470   0.448   2.858   6.006 -3.3638  1.0474 -0.8013
  873MOL0     H20471   0.642   2.758   5.346 -0.5383 -0.3053 -2.0300
  873MOL0     H20472   0.952   2.631   5.286 -0.3743  1.0347 -0.1508
  873MOL0     H20473   0.893   2.677   5.445  0.4143 -0.2459  0.1688
  873MOL0     H20474   0.790   2.590   5.336 -0.3592 -0.1421  0.0230
  874MOL0     O20475   1.176   5.082   4.144  0.1281 -0.2452  0.0946
  874MOL0     C20476   1.284   5.068   4.095 -1.1060 -0.6084 -0.3907
  874MOL0     O20477   1.370   5.167   4.055 -0.1772  0.0865  0.1081
  874MOL0     C20478   1.323   5.297   4.067  0.1262 -0.6438 -0.5011
  874MOL0     C20479   1.375   5.375   4.168  1.3892 -0.1913 -0.2313
  874MOL0     C20480   1.323   5.504   4.179  0.5223  0.8124  0.0576
  874MOL0     C20481   1.235   5.570   4.098  0.2698 -1.4127  0.4655
  874MOL0     O20482   1.208   5.699   4.129 -0.9168 -0.6029 -0.0725
  874MOL0     C20483   1.125   5.778   4.039 -0.4230  0.0317 -0.4453
  874MOL0     C20484   1.069   5.902   4.116 -0.4560 -0.5913  0.2121
  874MOL0     C20485   0.972   5.859   4.226  0.4909 -0.5946  0.2926
  874MOL0     C20486   0.952   5.980   4.331 -0.3527 -0.9046  0.6729
  874MOL0     C20487   0.843   5.962   4.434 -0.7525 -0.1659  0.4435
  874MOL0     C20488   0.835   6.083   4.529  0.2168 -0.2192  0.1867
  874MOL0     C20489   0.762   6.059   4.664 -0.3338  0.8215 -0.3692
  874MOL0     C20490   0.820   5.950   4.750 -1.4020 -0.0235 -0.7804
  874MOL0     N20491   0.806   5.969   4.899 -0.1217 -0.0656 -0.4743
  874MOL0     C20492   0.804   6.085   4.977 -0.1529  0.6473  0.5179
  874MOL0     C20493   0.782   6.049   5.106 -0.4017 -0.0859  0.4908
  874MOL0     C20494   0.746   6.138   5.221  0.2687 -0.9108  0.2649
  874MOL0     C20495   0.846   6.148   5.338  0.5705 -0.7898  0.1656
  874MOL0     C20496   0.967   6.235   5.292 -0.4589  0.1662  0.0423
  874MOL0     C20497   1.075   6.231   5.409  0.3287 -0.4683  0.3412
  874MOL0     O20498   1.176   6.329   5.385 -0.7209 -0.8842 -0.4119
  874MOL0     C20499   1.296   6.323   5.464 -0.3497 -0.4212  0.0300
  874MOL0     C20500   1.402   6.404   5.411 -0.1498  0.4578  0.7924
  874MOL0     C20501   1.527   6.414   5.472  0.6520  1.0320  0.3862
  874MOL0     C20502   1.630   6.502   5.403  0.1963  0.4263  0.8659
  874MOL0     C20503   1.549   6.347   5.592  0.1989  0.5071  0.0627
  874MOL0     C20504   1.673   6.371   5.674 -0.3053  0.2652  0.6833
  874MOL0     O20505   1.669   6.324   5.800  1.0402  0.7892 -0.7709
  874MOL0     C20506   1.779   6.339   5.882  1.0460 -0.1094  0.0468
  874MOL0     C20507   1.856   6.455   5.889  0.5344 -0.6816 -0.2761
  874MOL0     C20508   1.955   6.462   5.988 -0.2486  0.9915  0.3170
  874MOL0     C20509   1.993   6.358   6.070  0.6589  0.1194  0.4614
  874MOL0     O20510   2.105   6.376   6.148 -0.0197 -0.1912 -0.2592
  874MOL0     C20511   2.160   6.279   6.230 -0.7197  0.7807 -0.6046
  874MOL0     C20512   2.311   6.336   6.253  0.3479  0.8860 -0.2087
  874MOL0     C20513   2.358   6.293   6.387  0.1566  0.6887 -0.0012
  874MOL0     C20514   2.507   6.321   6.410  0.0593  0.0932  0.1283
  874MOL0     C20515   2.541   6.300   6.558 -0.1576  0.5878 -0.2721
  874MOL0     C20516   2.688   6.306   6.589  0.1439  0.1407  0.5606
  874MOL0     C20517   2.703   6.295   6.738 -0.0801  0.0501  0.5498
  874MOL0     C20518   2.804   6.398   6.789  0.6045 -0.1583 -0.7143
  874MOL0    Cl20519   2.747   6.565   6.735  0.1343 -0.3928 -0.1166
  874MOL0     C20520   1.929   6.236   6.046  1.3709  0.4299  0.1654
  874MOL0     C20521   1.829   6.224   5.956 -1.0324  0.2854 -0.1331
  874MOL0     O20522   1.771   6.431   5.625  0.1832  0.2062 -0.3801
  874MOL0     C20523   1.444   6.269   5.641 -0.1897  0.9166 -0.0406
  874MOL0     C20524   1.315   6.255   5.588 -0.2968 -0.6877 -0.3278
  874MOL0     N20525   0.761   5.910   5.104  0.1340 -0.9689 -0.0249
  874MOL0     N20526   0.776   5.866   4.981  0.0394 -0.2249 -0.6897
  874MOL0     C20527   1.196   5.500   3.981  0.7276  0.1367  0.2732
  874MOL0     C20528   1.230   5.363   3.979 -0.2018  0.1318 -0.1345
  874MOL0     C20529   1.332   4.925   4.070 -0.6188  0.6406 -0.7729
  874MOL0     C20530   1.276   4.828   4.160  0.6889  0.6114  0.0915
  874MOL0     C20531   1.309   4.690   4.156 -0.5932 -1.5019 -0.1648
  874MOL0     C20532   1.395   4.647   4.054  0.2551 -0.1169 -0.2711
  874MOL0     O20533   1.403   4.513   4.036 -0.7163  0.0057 -0.1236
  874MOL0     C20534   1.294   4.459   3.953 -0.4216  0.0037 -0.4019
  874MOL0     C20535   1.299   4.302   3.986 -0.1363 -0.3282  0.4361
  874MOL0     C20536   1.426   4.217   4.007 -1.2348  0.2958  0.6702
  874MOL0     C20537   1.549   4.255   3.923 -0.6918  0.0230 -0.7971
  874MOL0     C20538   1.659   4.153   3.956  0.2786  0.3258 -0.1134
  874MOL0     C20539   1.764   4.086   3.974  0.7727  0.0316  0.6697
  874MOL0     C20540   1.451   4.734   3.966  0.5665 -1.0719 -0.2313
  874MOL0     C20541   1.425   4.878   3.977  0.3494 -0.0416 -0.1522
  874MOL0     C20542   1.503   4.962   3.874 -0.8811 -0.5547  0.4127
  874MOL0     H20543   1.436   5.334   4.248  0.7503  3.2947  2.2469
  874MOL0     H20544   1.364   5.562   4.261  0.1726 -0.1752  0.9509
  874MOL0     H20545   1.033   5.724   4.016  0.4025 -2.2340  1.2331
  874MOL0     H20546   1.189   5.817   3.960  0.9657  0.2349  0.7330
  874MOL0     H20547   1.147   5.968   4.153 -2.2879  1.9879 -0.2201
  874MOL0     H20548   1.025   5.971   4.044 -2.4634  2.1994  3.7308
  874MOL0     H20549   0.880   5.826   4.177  1.4075 -3.5316  0.3990
  874MOL0     H20550   1.013   5.772   4.278  1.8036 -1.1187 -1.5176
  874MOL0     H20551   1.045   6.000   4.385  0.4824 -0.4349 -0.8939
  874MOL0     H20552   0.928   6.057   4.258 -1.7762 -2.4739 -0.6095
  874MOL0     H20553   0.881   5.880   4.496  2.7639  1.4505  0.7036
  874MOL0     H20554   0.749   5.950   4.379 -0.7895  3.4153 -0.5251
  874MOL0     H20555   0.929   6.134   4.548  0.0579  0.0990  0.1197
  874MOL0     H20556   0.783   6.161   4.472  2.6966  0.0843 -1.8587
  874MOL0     H20557   0.657   6.034   4.648 -0.0216  1.1288 -3.4708
  874MOL0     H20558   0.752   6.151   4.723 -0.7053  0.0027  0.8764
  874MOL0     H20559   0.781   5.853   4.719  0.3453 -0.8412 -0.5353
  874MOL0     H20560   0.926   5.940   4.727 -0.4763  2.8791  1.6253
  874MOL0     H20561   0.788   6.186   4.942  0.1482  0.2272 -0.8665
  874MOL0     H20562   0.650   6.108   5.264  0.3187  1.2023  2.0436
  874MOL0     H20563   0.728   6.241   5.190  1.2407 -1.0673 -0.8862
  874MOL0     H20564   0.797   6.200   5.421  2.6912 -0.6105  1.3744
  874MOL0     H20565   0.878   6.047   5.363  0.3032 -1.1094 -0.7474
  874MOL0     H20566   1.014   6.195   5.202  1.5499 -0.5126  1.3390
  874MOL0     H20567   0.944   6.342   5.281 -0.6366  0.1708  0.4403
  874MOL0     H20568   1.029   6.253   5.506  1.9203 -1.1972  1.2929
  874MOL0     H20569   1.126   6.134   5.419  2.8889  0.5716 -1.5194
  874MOL0     H20570   1.374   6.469   5.329 -1.5491  0.2596  1.0925
  874MOL0     H20571   1.656   6.580   5.475  1.2302  0.3812  0.5615
  874MOL0     H20572   1.588   6.548   5.314  1.0275 -0.8908 -0.2429
  874MOL0     H20573   1.721   6.445   5.383  1.6099  1.2995  4.1058
  874MOL0     H20574   1.836   6.551   5.842  2.5851  0.1971  0.5372
  874MOL0     H20575   2.006   6.558   5.985  1.0173  0.3373 -1.9277
  874MOL0     H20576   2.105   6.273   6.325  0.1410 -1.4356 -0.1945
  874MOL0     H20577   2.153   6.177   6.193  2.4954 -0.3690  1.5161
  874MOL0     H20578   2.370   6.301   6.168  0.8811  2.3596 -0.4787
  874MOL0     H20579   2.313   6.445   6.244 -0.5551  0.7670 -2.8567
  874MOL0     H20580   2.337   6.187   6.404  1.2939  0.5168  0.4095
  874MOL0     H20581   2.300   6.345   6.463  2.0392  2.3590  0.3828
  874MOL0     H20582   2.519   6.429   6.394  0.8257  0.0912  0.6350
  874MOL0     H20583   2.568   6.268   6.336  0.5169 -0.8828  1.1783
  874MOL0     H20584   2.491   6.371   6.623  0.8565  0.7857  0.3160
  874MOL0     H20585   2.496   6.203   6.585  0.5194 -0.1253 -1.5957
  874MOL0     H20586   2.730   6.398   6.548 -1.4793  2.0207  2.8644
  874MOL0     H20587   2.734   6.218   6.543 -1.4903 -1.8189  2.4286
  874MOL0     H20588   2.754   6.198   6.751  1.6841  1.0141  1.1776
  874MOL0     H20589   2.606   6.295   6.787 -0.9508 -0.3861 -1.0998
  874MOL0     H20590   2.898   6.379   6.738  2.5948 -1.1053  2.9386
  874MOL0     H20591   2.842   6.401   6.892  0.7965 -0.5152 -0.7765
  874MOL0     H20592   1.949   6.152   6.112  0.9292  0.5779  0.4896
  874MOL0     H20593   1.783   6.126   5.955  1.4783 -0.9502 -0.3539
  874MOL0     H20594   1.447   6.208   5.730 -3.1319  1.2386  0.3779
  874MOL0     H20595   1.244   6.189   5.638 -1.9998 -1.0488 -2.9899
  874MOL0     H20596   1.136   5.546   3.904  1.4003  0.5697 -0.0011
  874MOL0     H20597   1.194   5.297   3.901  3.2351 -1.5425 -0.5248
  874MOL0     H20598   1.192   4.856   4.222  1.1192  3.9455 -0.6291
  874MOL0     H20599   1.262   4.604   4.204 -0.1131 -1.4312  0.4555
  874MOL0     H20600   1.194   4.500   3.975 -1.8472 -2.1776 -2.3109
  874MOL0     H20601   1.316   4.483   3.848 -1.1827 -1.4421 -0.9218
  874MOL0     H20602   1.241   4.252   3.908 -0.2034  3.1146 -1.9611
  874MOL0     H20603   1.247   4.289   4.082 -0.3838  0.3274  0.3979
  874MOL0     H20604   1.462   4.239   4.108 -0.1302  0.3788  0.2739
  874MOL0     H20605   1.398   4.111   4.004 -1.8349  0.4690 -0.2144
  874MOL0     H20606   1.592   4.355   3.934  0.1243  0.1304 -4.0822
  874MOL0     H20607   1.515   4.261   3.819 -0.9925 -0.5334 -0.7352
  874MOL0     H20608   1.848   4.029   4.007  0.5512 -0.2807  0.7018
  874MOL0     H20609   1.521   4.693   3.894 -1.1637 -1.1963 -1.9484
  874MOL0     H20610   1.467   5.061   3.847  3.1666  0.1774 -3.5251
  874MOL0     H20611   1.603   4.978   3.915 -0.4604  1.8209 -1.3160
  874MOL0     H20612   1.511   4.901   3.783 -5.2785 -1.1676  0.2326
  875MOL0     O20613   7.294   6.740   5.725  0.2932 -0.7768 -0.3192
  875MOL0     C20614   7.202   6.783   5.796  0.0072 -0.2631  0.4315
  875MOL0     O20615   7.077   6.799   5.752  1.3030  0.0150  0.1863
  875MOL0     C20616   7.049   6.725   5.641  0.0801  0.7843  0.1486
  875MOL0     C20617   7.046   6.586   5.667  0.6565  0.3531  1.4934
  875MOL0     C20618   7.035   6.501   5.556  0.6123  0.3369  0.0878
  875MOL0     C20619   7.028   6.545   5.425 -0.5671  0.0017  0.2438
  875MOL0     O20620   7.042   6.460   5.315 -0.2516  0.1474  0.0131
  875MOL0     C20621   7.017   6.320   5.342 -0.2389  0.4352 -0.6868
  875MOL0     C20622   6.967   6.242   5.227  0.6250 -0.1606 -0.2392
  875MOL0     C20623   7.084   6.223   5.131  0.1347  0.0499  0.5273
  875MOL0     C20624   7.151   6.087   5.124 -0.1402  0.4871 -0.1490
  875MOL0     C20625   7.265   6.092   5.018 -0.1590 -0.3873  0.2379
  875MOL0     C20626   7.343   5.968   5.015  0.0701 -0.1370  0.0537
  875MOL0     C20627   7.464   5.963   4.918 -0.3805  0.2486  0.4397
  875MOL0     C20628   7.437   5.969   4.764 -0.0677  0.3406  0.1917
  875MOL0     N20629   7.539   5.915   4.675  0.2962  0.4015 -0.1900
  875MOL0     C20630   7.621   5.798   4.693  0.7936 -0.2979 -0.1048
  875MOL0     C20631   7.686   5.780   4.574  0.6396 -0.7097 -0.0654
  875MOL0     C20632   7.763   5.658   4.540  0.1615 -0.1412 -0.7828
  875MOL0     C20633   7.685   5.527   4.575 -0.0418  0.0408  0.1853
  875MOL0     C20634   7.732   5.413   4.488 -0.0882 -0.4400  1.4874
  875MOL0     C20635   7.675   5.262   4.519  0.0888 -0.6202  0.6452
  875MOL0     O20636   7.697   5.253   4.659 -0.4268  0.0467 -0.7272
  875MOL0     C20637   7.612   5.184   4.731 -0.4188 -0.4179 -0.6659
  875MOL0     C20638   7.659   5.147   4.857 -0.1582 -0.4793 -0.0102
  875MOL0     C20639   7.573   5.083   4.949 -0.1981 -0.3463  0.1299
  875MOL0     C20640   7.640   5.042   5.075  0.1278  0.2277 -0.1627
  875MOL0     C20641   7.442   5.055   4.910  0.4446 -0.5245  0.3142
  875MOL0     C20642   7.352   4.984   5.001  0.2921 -0.4845  0.7850
  875MOL0     O20643   7.391   4.875   5.074 -0.3853  0.5442 -0.2211
  875MOL0     C20644   7.320   4.830   5.179 -0.4741 -0.3404 -0.5042
  875MOL0     C20645   7.226   4.726   5.151  0.4084  0.4829 -0.1917
  875MOL0     C20646   7.149   4.684   5.254  0.2561 -0.6220 -0.7695
  875MOL0     C20647   7.160   4.741   5.389 -0.4929  0.6230  0.6707
  875MOL0     O20648   7.096   4.691   5.501  0.9516 -0.9782  0.2164
  875MOL0     C20649   6.980   4.607   5.473  0.0349 -0.1297 -0.1066
  875MOL0     C20650   6.889   4.588   5.602 -0.3399  0.4726 -0.6877
  875MOL0     C20651   6.980   4.569   5.727  0.9485  0.2068 -0.9390
  875MOL0     C20652   6.904   4.521   5.851  0.9932  0.1809 -0.7738
  875MOL0     C20653   7.006   4.464   5.955  0.4963 -0.1996 -0.3229
  875MOL0     C20654   6.942   4.372   6.062  0.6068  0.4784  0.6158
  875MOL0     C20655   7.027   4.306   6.166 -0.1285  0.0208  0.7141
  875MOL0     C20656   6.955   4.296   6.304 -0.1665  0.2053  0.5488
  875MOL0    Cl20657   7.059   4.191   6.414  0.1520  0.0905  0.0138
  875MOL0     C20658   7.253   4.841   5.409  0.6850 -0.2217 -0.0084
  875MOL0     C20659   7.343   4.883   5.309  0.4183  0.7690 -0.3846
  875MOL0     O20660   7.251   5.053   5.028 -0.4015  1.0123 -1.0889
  875MOL0     C20661   7.395   5.092   4.787  0.7189 -0.5934 -0.0848
  875MOL0     C20662   7.481   5.154   4.696 -0.2779  0.4194 -0.3079
  875MOL0     N20663   7.667   5.898   4.496 -0.1918  0.6519 -0.6187
  875MOL0     N20664   7.579   5.969   4.555  0.0615 -0.2997  0.0053
  875MOL0     C20665   7.033   6.686   5.404 -0.7399 -0.3742  0.1073
  875MOL0     C20666   7.043   6.776   5.509  0.4009 -0.6734  0.4368
  875MOL0     C20667   7.248   6.801   5.937  0.3858  1.1059 -0.2536
  875MOL0     C20668   7.345   6.709   5.991  0.4163 -1.1002 -0.5375
  875MOL0     C20669   7.385   6.735   6.127  0.3946 -0.2287  0.0773
  875MOL0     C20670   7.329   6.843   6.208 -0.6370  0.6092  0.5944
  875MOL0     O20671   7.373   6.858   6.335  0.9390  0.3844 -0.4979
  875MOL0     C20672   7.509   6.918   6.352 -0.4478 -0.0005 -1.1600
  875MOL0     C20673   7.522   6.981   6.494  0.2885  0.1396  0.7089
  875MOL0     C20674   7.543   6.893   6.611  0.4597 -0.4283  0.0957
  875MOL0     C20675   7.522   6.987   6.735 -0.3288  0.4234 -0.1694
  875MOL0     C20676   7.537   6.911   6.865  0.5346  0.1191  0.3124
  875MOL0     C20677   7.541   6.830   6.961 -1.1970  0.0805 -0.2710
  875MOL0     C20678   7.241   6.928   6.150  0.0184 -0.8108  0.7735
  875MOL0     C20679   7.202   6.905   6.020 -0.5274  0.7351 -0.7746
  875MOL0     C20680   7.105   7.013   5.968  0.8373  0.1316 -0.1222
  875MOL0     H20681   7.054   6.553   5.770  0.5883  0.9422  1.6962
  875MOL0     H20682   7.043   6.395   5.579  0.3112  0.5928  1.4509
  875MOL0     H20683   6.936   6.321   5.416  0.9712 -1.5960  0.7765
  875MOL0     H20684   7.104   6.277   5.392  0.6469  2.3969 -0.4405
  875MOL0     H20685   6.919   6.152   5.267 -1.0897  0.9668  0.3607
  875MOL0     H20686   6.883   6.295   5.181  1.0817  0.4074 -0.4286
  875MOL0     H20687   7.049   6.241   5.028  1.3117 -0.4026  0.0385
  875MOL0     H20688   7.156   6.303   5.150  2.1005 -1.8432  1.3999
  875MOL0     H20689   7.189   6.060   5.223 -1.4415  0.8470  0.4737
  875MOL0     H20690   7.078   6.012   5.090 -0.8279  2.1709 -2.6799
  875MOL0     H20691   7.334   6.173   5.041 -3.8281  2.5960  1.9783
  875MOL0     H20692   7.229   6.105   4.916 -2.1812 -1.5824  0.7284
  875MOL0     H20693   7.389   5.968   5.115 -2.5249  3.9162  1.4985
  875MOL0     H20694   7.282   5.878   5.003 -1.7940  1.1875 -0.8577
  875MOL0     H20695   7.523   5.876   4.946 -0.0736 -0.2261 -1.5253
  875MOL0     H20696   7.529   6.048   4.944 -1.6764  1.0619  1.1205
  875MOL0     H20697   7.335   5.934   4.746  0.1382 -0.5383  0.6822
  875MOL0     H20698   7.415   6.073   4.738 -0.5762  0.1421 -0.2032
  875MOL0     H20699   7.613   5.724   4.772  0.3276 -0.0133  0.1190
  875MOL0     H20700   7.860   5.653   4.591 -0.6783 -2.6968  0.7469
  875MOL0     H20701   7.794   5.666   4.436 -0.8911  1.6767 -0.9879
  875MOL0     H20702   7.695   5.502   4.681  3.5418  1.1334  0.2166
  875MOL0     H20703   7.578   5.544   4.557 -0.1678  2.1334  2.3422
  875MOL0     H20704   7.706   5.432   4.383  3.1650 -2.6307  0.1145
  875MOL0     H20705   7.841   5.419   4.486 -0.0463 -1.0787  1.4472
  875MOL0     H20706   7.570   5.267   4.488  1.0591  1.0072 -2.9412
  875MOL0     H20707   7.731   5.191   4.458  0.6839  1.9375 -2.0213
  875MOL0     H20708   7.762   5.164   4.886  0.2426  1.8697 -2.3907
  875MOL0     H20709   7.607   5.113   5.151 -0.4513 -1.6856  1.4641
  875MOL0     H20710   7.749   5.044   5.069  0.1586 -1.0941 -0.3331
  875MOL0     H20711   7.618   4.941   5.112  1.8815 -1.0643 -2.4193
  875MOL0     H20712   7.220   4.687   5.050  2.7348  0.3485 -0.3440
  875MOL0     H20713   7.086   4.597   5.235 -1.8526  0.5249  0.5936
  875MOL0     H20714   6.913   4.657   5.403  1.4006  0.0195 -1.3595
  875MOL0     H20715   7.010   4.509   5.434 -2.6474 -0.2498 -2.1502
  875MOL0     H20716   6.818   4.670   5.615  1.3188  1.8498  0.3057
  875MOL0     H20717   6.838   4.494   5.580  0.3799  0.0483 -0.5690
  875MOL0     H20718   7.024   4.665   5.757 -0.8299  0.6016  0.5428
  875MOL0     H20719   7.064   4.502   5.706  2.3851  0.1727  3.8723
  875MOL0     H20720   6.832   4.443   5.827 -0.4809  0.9821  0.8370
  875MOL0     H20721   6.854   4.607   5.896 -0.7611 -1.5322  0.7233
  875MOL0     H20722   7.087   4.412   5.903  2.1224 -0.3607  2.1872
  875MOL0     H20723   7.059   4.546   6.005  1.2525 -1.1647  0.5039
  875MOL0     H20724   6.888   4.293   6.009  1.6193 -0.5749  1.1000
  875MOL0     H20725   6.865   4.428   6.115  0.7998 -1.5790  3.3255
  875MOL0     H20726   7.114   4.368   6.191 -0.1356  0.0634  0.6334
  875MOL0     H20727   7.058   4.211   6.122  1.4962  1.7324 -2.1654
  875MOL0     H20728   6.856   4.256   6.281 -0.9774  1.9381  0.8992
  875MOL0     H20729   6.949   4.397   6.347 -3.1608  0.4450 -0.2642
  875MOL0     H20730   7.261   4.887   5.507  1.3280  0.9694 -0.5985
  875MOL0     H20731   7.424   4.949   5.340  0.3890  0.1588  1.0584
  875MOL0     H20732   7.290   5.098   4.758  1.1603  3.0052 -1.5273
  875MOL0     H20733   7.437   5.184   4.601  1.4491  2.2797 -0.5859
  875MOL0     H20734   7.028   6.726   5.303 -3.1589  1.9721  1.0410
  875MOL0     H20735   7.056   6.882   5.495  2.9075 -0.7356  1.7259
  875MOL0     H20736   7.378   6.634   5.920 -0.9934 -0.6917 -1.6846
  875MOL0     H20737   7.448   6.666   6.182  0.2347  0.9153  1.7678
  875MOL0     H20738   7.583   6.841   6.330 -0.3888 -2.1587  4.8637
  875MOL0     H20739   7.522   7.012   6.299 -1.1713  1.9396  1.8695
  875MOL0     H20740   7.432   7.042   6.508  0.5023  0.7401 -0.4509
  875MOL0     H20741   7.600   7.058   6.497 -1.0872  1.5849  2.2666
  875MOL0     H20742   7.475   6.808   6.618 -1.9802  1.4792  1.1366
  875MOL0     H20743   7.639   6.841   6.609 -0.3732 -2.0319 -2.5218
  875MOL0     H20744   7.424   7.035   6.730  0.3041  1.9696  1.3407
  875MOL0     H20745   7.593   7.070   6.729 -2.6240  2.6215  1.0963
  875MOL0     H20746   7.558   6.771   7.049  2.0522  1.6003  0.2983
  875MOL0     H20747   7.203   7.015   6.202  0.7645 -0.8027  1.3096
  875MOL0     H20748   7.013   6.955   5.983  0.4648  0.7740  0.1024
  875MOL0     H20749   7.107   7.111   6.017  0.6183  0.6083 -1.0564
  875MOL0     H20750   7.110   7.019   5.859 -1.9496  0.1060 -0.3084
  876MOL0     O20751   7.280   4.275   9.065 -0.8420 -0.2510  0.0462
  876MOL0     C20752   7.250   4.280   9.187 -0.4657  0.5415  0.0675
  876MOL0     O20753   7.174   4.189   9.249  0.2129 -0.8215  0.3411
  876MOL0     C20754   7.111   4.073   9.202 -0.3937 -0.2450  0.0691
  876MOL0     C20755   7.146   4.006   9.078  0.0596  0.8316 -0.2420
  876MOL0     C20756   7.079   3.890   9.038  0.0577  0.3436 -0.6591
  876MOL0     C20757   6.985   3.826   9.119  0.3857  0.1188  0.0480
  876MOL0     O20758   6.930   3.710   9.081  0.0279  0.0935 -0.4314
  876MOL0     C20759   6.943   3.649   8.954  0.6594  0.0066  0.2103
  876MOL0     C20760   6.872   3.515   8.956 -1.1086 -0.4187  0.0290
  876MOL0     C20761   6.722   3.531   8.964 -0.5706  0.8483  0.3295
  876MOL0     C20762   6.667   3.604   8.847 -0.3713 -0.0259 -0.6380
  876MOL0     C20763   6.516   3.591   8.838  0.1941 -0.1492 -0.0728
  876MOL0     C20764   6.448   3.651   8.718 -0.6191 -0.5790  0.2520
  876MOL0     C20765   6.492   3.582   8.588  0.2471 -0.8071 -0.3705
  876MOL0     C20766   6.394   3.595   8.469  0.3054  0.6558 -0.2914
  876MOL0     N20767   6.444   3.543   8.343  0.2935 -0.6861  0.5700
  876MOL0     C20768   6.426   3.412   8.297  0.8544  0.1971  0.2420
  876MOL0     C20769   6.479   3.410   8.170  0.0029 -1.0545 -0.9559
  876MOL0     C20770   6.464   3.297   8.074  0.5355 -0.5560 -0.5470
  876MOL0     C20771   6.564   3.305   7.953  0.1278  0.1510 -0.1443
  876MOL0     C20772   6.526   3.209   7.840 -0.0120 -1.1862  0.4505
  876MOL0     C20773   6.500   3.065   7.876 -0.8973 -0.4913  0.3978
  876MOL0     O20774   6.637   3.014   7.909  0.0041  0.4862 -1.2484
  876MOL0     C20775   6.660   2.880   7.898 -0.5604  1.0469 -0.1743
  876MOL0     C20776   6.786   2.839   7.938 -0.5457 -0.9829  0.7239
  876MOL0     C20777   6.817   2.703   7.948  0.3260 -0.0580 -0.0422
  876MOL0     C20778   6.947   2.665   8.017 -0.0304 -0.2341  0.0490
  876MOL0     C20779   6.710   2.604   7.913  0.1643  0.9061  0.7976
  876MOL0     C20780   6.733   2.456   7.895 -0.3262 -0.0233 -0.0698
  876MOL0     O20781   6.863   2.402   7.912  0.0557  0.0558  0.4964
  876MOL0     C20782   6.874   2.259   7.919 -0.2845  0.3806  0.2396
  876MOL0     C20783   6.826   2.198   8.038 -0.6563 -0.5260  0.4762
  876MOL0     C20784   6.835   2.063   8.052 -0.1202 -0.7028 -1.3974
  876MOL0     C20785   6.890   1.984   7.962  0.0849  0.4390  0.9937
  876MOL0     O20786   6.880   1.850   7.972  0.1728  0.0387 -0.2689
  876MOL0     C20787   6.855   1.770   7.853  0.0683 -0.5776  0.9067
  876MOL0     C20788   6.838   1.626   7.894  0.1603  0.1341  0.6965
  876MOL0     C20789   6.835   1.532   7.773  0.1882 -0.0219  0.9599
  876MOL0     C20790   6.749   1.574   7.650 -0.8202  0.5062  0.3378
  876MOL0     C20791   6.757   1.497   7.505  0.0134 -0.0954 -0.4834
  876MOL0     C20792   6.654   1.559   7.407  0.1687  0.7725 -0.6387
  876MOL0     C20793   6.673   1.494   7.273  0.4808 -0.3716  0.8283
  876MOL0     C20794   6.660   1.334   7.274 -0.6608  0.4342  0.4193
  876MOL0    Cl20795   6.493   1.287   7.330  0.1540  0.4084 -0.0667
  876MOL0     C20796   6.951   2.043   7.846 -0.8958 -0.7419 -0.4052
  876MOL0     C20797   6.937   2.181   7.818 -0.4387  0.4020 -0.7681
  876MOL0     O20798   6.635   2.384   7.891  0.3157  0.4453 -0.2871
  876MOL0     C20799   6.590   2.652   7.852 -0.2592  0.2356  0.4080
  876MOL0     C20800   6.564   2.786   7.855  0.6924 -0.3504 -1.0623
  876MOL0     N20801   6.511   3.539   8.133  0.4690 -1.2905  0.1225
  876MOL0     N20802   6.496   3.615   8.240 -0.7418  0.1234  0.4608
  876MOL0     C20803   6.950   3.896   9.233 -0.2975 -0.0143  0.6688
  876MOL0     C20804   7.004   4.021   9.271 -0.5188  0.5039 -0.7492
  876MOL0     C20805   7.307   4.388   9.262  0.3832 -0.3821 -0.1458
  876MOL0     C20806   7.297   4.379   9.407 -0.2785 -0.9673 -0.1247
  876MOL0     C20807   7.343   4.481   9.488  0.1743 -0.1549  0.0565
  876MOL0     C20808   7.409   4.588   9.439 -0.3035 -0.5541  0.0201
  876MOL0     O20809   7.457   4.686   9.517 -0.2376  0.4792  0.8049
  876MOL0     C20810   7.364   4.774   9.585  0.1171 -0.4737  0.6698
  876MOL0     C20811   7.404   4.843   9.712 -0.1125  1.0230 -0.8239
  876MOL0     C20812   7.430   4.742   9.835 -0.5344 -0.1989  0.5867
  876MOL0     C20813   7.473   4.824   9.959  0.3334  0.3452 -0.3356
  876MOL0     C20814   7.623   4.850   9.955  0.2334  0.9599 -0.6868
  876MOL0     C20815   7.738   4.881   9.968  0.7915 -0.3133  0.0921
  876MOL0     C20816   7.419   4.599   9.302 -0.0894 -0.3710 -0.0041
  876MOL0     C20817   7.375   4.507   9.206 -0.1638  0.5771  0.4662
  876MOL0     C20818   7.414   4.520   9.069  0.2113 -0.0200  0.2291
  876MOL0     H20819   7.240   4.034   9.031  0.6565 -0.6708  0.0212
  876MOL0     H20820   7.109   3.837   8.947 -3.6257  0.3260 -2.0432
  876MOL0     H20821   7.049   3.625   8.946  0.4038 -2.5237  2.6004
  876MOL0     H20822   6.915   3.720   8.876  3.3598  1.7832  0.7366
  876MOL0     H20823   6.905   3.461   8.867 -0.3951 -1.9996  1.2230
  876MOL0     H20824   6.916   3.451   9.033  0.8874 -0.3801 -1.0208
  876MOL0     H20825   6.683   3.429   8.974  0.3309  0.5810  1.3928
  876MOL0     H20826   6.694   3.584   9.056  2.0205  1.8667  0.6171
  876MOL0     H20827   6.693   3.711   8.853  3.8416 -0.9357  0.8690
  876MOL0     H20828   6.712   3.569   8.753 -2.0688  1.9552 -2.2858
  876MOL0     H20829   6.469   3.639   8.924 -1.4010  1.9879 -2.0069
  876MOL0     H20830   6.481   3.488   8.839  2.1424 -0.8595  1.6555
  876MOL0     H20831   6.339   3.661   8.725 -0.7810  1.3378 -2.9296
  876MOL0     H20832   6.491   3.752   8.717  1.5980 -1.4627 -0.1458
  876MOL0     H20833   6.485   3.474   8.601 -1.9896 -0.6557 -0.0158
  876MOL0     H20834   6.593   3.612   8.557 -0.6071  1.0415 -1.5426
  876MOL0     H20835   6.294   3.551   8.477  1.0845 -2.5693 -4.7522
  876MOL0     H20836   6.372   3.702   8.462  1.1475  0.7396 -2.2162
  876MOL0     H20837   6.369   3.334   8.346  0.1839 -0.6743 -1.8278
  876MOL0     H20838   6.360   3.309   8.040  1.0162  3.1125 -1.1295
  876MOL0     H20839   6.467   3.200   8.126 -1.7636  0.3554  1.5102
  876MOL0     H20840   6.584   3.407   7.920  0.6473  1.0544  2.6689
  876MOL0     H20841   6.658   3.257   7.985  0.0790 -1.3496 -2.0854
  876MOL0     H20842   6.432   3.251   7.802  0.6413 -0.1740 -0.0858
  876MOL0     H20843   6.616   3.224   7.778 -1.0264 -0.1401 -0.8533
  876MOL0     H20844   6.437   3.050   7.964  0.1070  1.2160  1.4655
  876MOL0     H20845   6.454   3.015   7.790  0.7880 -0.8379 -0.3454
  876MOL0     H20846   6.844   2.928   7.957 -1.3832 -0.2964  0.1586
  876MOL0     H20847   6.986   2.749   8.075  3.5877 -0.1284 -2.2640
  876MOL0     H20848   7.024   2.644   7.942  0.9619 -0.9751  1.2358
  876MOL0     H20849   6.939   2.582   8.088  0.9429  1.6800  2.5871
  876MOL0     H20850   6.787   2.264   8.115 -1.5450  0.2698 -0.6283
  876MOL0     H20851   6.781   2.027   8.139 -0.0343  1.7970 -0.1926
  876MOL0     H20852   6.770   1.804   7.793  2.3025  1.5237 -1.3063
  876MOL0     H20853   6.945   1.772   7.790  0.9239 -0.4741  2.1030
  876MOL0     H20854   6.925   1.608   7.958  0.8566  0.9880 -0.0005
  876MOL0     H20855   6.744   1.624   7.950 -0.1606 -0.7284  0.1340
  876MOL0     H20856   6.804   1.430   7.798 -0.5431 -0.3820 -1.2614
  876MOL0     H20857   6.938   1.521   7.738  0.5383 -2.7333  2.5691
  876MOL0     H20858   6.787   1.671   7.617  1.2578 -0.7349 -1.1875
  876MOL0     H20859   6.646   1.568   7.686  0.1808 -1.5332  3.2502
  876MOL0     H20860   6.856   1.503   7.460  0.5479  0.6160  0.7634
  876MOL0     H20861   6.728   1.392   7.511  1.6820 -0.5080  0.8584
  876MOL0     H20862   6.657   1.668   7.404 -2.6507  0.8941 -2.9354
  876MOL0     H20863   6.558   1.532   7.451  1.4733  0.8015  2.4902
  876MOL0     H20864   6.772   1.522   7.234 -0.5737  2.7040  0.0939
  876MOL0     H20865   6.602   1.545   7.208  1.2737  1.4152  1.2878
  876MOL0     H20866   6.743   1.286   7.327 -0.3078 -2.2741 -2.3090
  876MOL0     H20867   6.674   1.288   7.176  0.0995  0.0135  0.7104
  876MOL0     H20868   6.990   1.985   7.763 -2.3417  0.0802 -1.7184
  876MOL0     H20869   6.946   2.215   7.716 -1.8738  0.9479 -0.7256
  876MOL0     H20870   6.522   2.581   7.806 -1.3793 -0.5372  3.0162
  876MOL0     H20871   6.470   2.826   7.818  0.3984 -0.1393 -0.1190
  876MOL0     H20872   6.868   3.848   9.285  0.3353 -2.3219 -0.3639
  876MOL0     H20873   6.973   4.074   9.361  2.4534  0.3520  0.4649
  876MOL0     H20874   7.236   4.300   9.451 -1.9399  0.6060  0.5293
  876MOL0     H20875   7.326   4.481   9.596 -0.0538 -0.7978  0.0263
  876MOL0     H20876   7.352   4.856   9.515 -0.9679  1.6247  3.1591
  876MOL0     H20877   7.262   4.734   9.583 -0.7946  1.7122  0.6956
  876MOL0     H20878   7.313   4.900   9.731 -3.2908 -3.2529 -1.8216
  876MOL0     H20879   7.495   4.902   9.697 -1.6094  3.9538  0.7350
  876MOL0     H20880   7.336   4.693   9.864 -0.2819 -0.5538  0.8073
  876MOL0     H20881   7.504   4.665   9.812  1.6573  0.5042  4.4136
  876MOL0     H20882   7.443   4.772  10.050 -0.5568 -0.6372 -1.1608
  876MOL0     H20883   7.431   4.925   9.949  2.5323  1.2724 -0.7733
  876MOL0     H20884   7.838   4.915   9.987 -0.4477  3.5547  0.5992
  876MOL0     H20885   7.479   4.682   9.265 -0.4273 -0.1952 -0.1656
  876MOL0     H20886   7.321   4.510   9.012  1.2419  1.0097 -1.7292
  876MOL0     H20887   7.453   4.621   9.049 -0.6894  0.0675 -1.2242
  876MOL0     H20888   7.486   4.447   9.032 -2.8070 -2.7162 -0.8167
  877MOL0     O20889   9.395   9.758   6.276  1.4495  0.4167  0.3239
  877MOL0     C20890   9.277   9.781   6.241 -0.2423  0.5695  0.9814
  877MOL0     O20891   9.211   9.897   6.266  0.8293  0.0184 -0.4084
  877MOL0     C20892   9.283   9.993   6.334 -0.1915  0.1795 -0.2407
  877MOL0     C20893   9.389  10.055   6.272  0.8093 -0.6443  0.4947
  877MOL0     C20894   9.459  10.150   6.341  0.0538  0.2204 -0.2495
  877MOL0     C20895   9.427  10.176   6.482 -0.3890 -0.1359  0.9832
  877MOL0     O20896   9.505  10.266   6.555 -0.9445  0.0025 -0.1130
  877MOL0     C20897   9.559  10.387   6.490  0.0605  0.7276 -0.8794
  877MOL0     C20898   9.553  10.498   6.599 -0.5567  0.0597 -0.2272
  877MOL0     C20899   9.583  10.635   6.540  0.0788 -0.1606 -0.3903
  877MOL0     C20900   9.538  10.744   6.634  0.1242 -0.5871 -0.4920
  877MOL0     C20901   9.625  10.872   6.632  0.6899 -0.2696 -0.3219
  877MOL0     C20902   9.588  10.976   6.525 -0.3330  0.5487 -0.1179
  877MOL0     C20903   9.484  11.076   6.587 -0.1639 -0.4463  0.2290
  877MOL0     C20904   9.430  11.162   6.476  0.5550 -0.0228 -0.0977
  877MOL0     N20905   9.344  11.261   6.546  0.1998  0.0348  0.6438
  877MOL0     C20906   9.206  11.255   6.549 -0.4206 -0.1516  0.0138
  877MOL0     C20907   9.165  11.379   6.579 -1.0305 -0.6095 -0.8580
  877MOL0     C20908   9.031  11.440   6.582 -1.1378  0.2896 -0.4050
  877MOL0     C20909   8.967  11.408   6.446  1.0820  0.6507  0.3510
  877MOL0     C20910   8.807  11.424   6.460  0.8589 -0.8087 -0.0698
  877MOL0     C20911   8.741  11.444   6.320 -0.1109  0.6793 -0.5190
  877MOL0     O20912   8.738  11.317   6.264 -0.2928  0.0107 -0.3654
  877MOL0     C20913   8.650  11.287   6.168  0.0391  0.8249 -0.3220
  877MOL0     C20914   8.690  11.199   6.074 -0.8993 -0.1028 -0.6393
  877MOL0     C20915   8.616  11.169   5.952  0.3964 -1.1599 -0.4160
  877MOL0     C20916   8.662  11.065   5.861  0.0472  0.5689  0.4233
  877MOL0     C20917   8.499  11.244   5.933  0.0625 -0.6862 -0.3040
  877MOL0     C20918   8.409  11.231   5.819  0.1852  0.0952  0.3700
  877MOL0     O20919   8.275  11.262   5.845  0.0087  0.4678 -0.0880
  877MOL0     C20920   8.194  11.278   5.733  0.5876  0.6075  0.4224
  877MOL0     C20921   8.213  11.379   5.641  0.7658 -0.4374  0.0472
  877MOL0     C20922   8.133  11.373   5.522  0.0703  0.0848 -0.3496
  877MOL0     C20923   8.033  11.268   5.496  0.2941 -0.1033 -0.4549
  877MOL0     O20924   7.970  11.277   5.369  0.1491  0.4162 -0.3319
  877MOL0     C20925   7.897  11.163   5.324  0.0594  0.0559  0.5840
  877MOL0     C20926   7.874  11.154   5.167  0.6606 -0.7060 -0.4625
  877MOL0     C20927   7.807  11.032   5.128 -0.3860 -0.8498 -0.8613
  877MOL0     C20928   7.884  10.899   5.147  0.2165  0.7366 -0.0557
  877MOL0     C20929   7.835  10.787   5.056  0.0850 -0.1940  0.4679
  877MOL0     C20930   7.915  10.663   5.055  0.5195  0.3549  0.5066
  877MOL0     C20931   7.995  10.638   5.191 -0.5376  0.1978 -0.3534
  877MOL0     C20932   8.070  10.512   5.190 -1.0815 -0.2058  0.4913
  877MOL0    Cl20933   7.969  10.372   5.178  0.4497 -0.7169 -0.1871
  877MOL0     C20934   8.011  11.172   5.598  0.0694  0.4357 -0.2785
  877MOL0     C20935   8.082  11.188   5.720  1.5186 -0.1702 -0.3605
  877MOL0     O20936   8.457  11.216   5.703 -0.4789  0.1301  0.1987
  877MOL0     C20937   8.457  11.338   6.027 -0.3691 -0.4529  0.3510
  877MOL0     C20938   8.527  11.354   6.151  0.6455  0.0853 -0.5477
  877MOL0     N20939   9.279  11.457   6.600  0.4938  0.3504  0.3862
  877MOL0     N20940   9.385  11.391   6.561 -0.1968 -0.3938 -0.0248
  877MOL0     C20941   9.334  10.093   6.554 -0.7343  0.0950 -0.4470
  877MOL0     C20942   9.260  10.005   6.472 -0.0488 -0.1934 -0.2298
  877MOL0     C20943   9.186   9.677   6.185  0.1231  0.1731  0.1505
  877MOL0     C20944   9.044   9.690   6.210  0.0581 -0.0962 -0.2835
  877MOL0     C20945   8.962   9.583   6.169  0.2421 -0.7215  0.0501
  877MOL0     C20946   9.016   9.471   6.112  0.0037  0.6694 -0.2059
  877MOL0     O20947   8.927   9.368   6.079  0.9232 -0.2961 -0.4968
  877MOL0     C20948   8.914   9.269   6.186  0.5885 -0.5825 -0.1290
  877MOL0     C20949   8.806   9.315   6.296  0.0302  0.4875  0.7865
  877MOL0     C20950   8.817   9.237   6.413 -0.0972 -0.2441 -0.7354
  877MOL0     C20951   8.693   9.257   6.496 -0.7476  0.0085 -0.4545
  877MOL0     C20952   8.675   9.161   6.610  0.8881 -0.4432 -0.7670
  877MOL0     C20953   8.656   9.094   6.709 -0.4640 -0.4767 -0.0278
  877MOL0     C20954   9.155   9.468   6.064  1.0986 -0.1228 -0.6404
  877MOL0     C20955   9.236   9.563   6.119  0.3682 -0.5892 -0.2790
  877MOL0     C20956   9.381   9.549   6.087 -0.2613 -1.2108  0.3350
  877MOL0     H20957   9.412  10.026   6.170 -2.3781  2.4986 -1.3674
  877MOL0     H20958   9.537  10.203   6.288  2.9375 -2.1976  1.2232
  877MOL0     H20959   9.501  10.435   6.410 -0.1708  0.8325 -0.6527
  877MOL0     H20960   9.664  10.383   6.460 -0.4455  0.4051 -2.7032
  877MOL0     H20961   9.455  10.495   6.647 -1.6603 -2.5947 -2.4195
  877MOL0     H20962   9.636  10.478   6.667  2.8926  3.3781 -3.0277
  877MOL0     H20963   9.690  10.643   6.522  0.5939 -2.2374  1.2864
  877MOL0     H20964   9.527  10.647   6.447  0.3214  0.3225 -0.4768
  877MOL0     H20965   9.438  10.766   6.596  0.8637  1.4356 -1.4019
  877MOL0     H20966   9.531  10.715   6.739 -0.9758  3.6563  0.8104
  877MOL0     H20967   9.729  10.841   6.614  1.2914  2.0982 -1.3297
  877MOL0     H20968   9.620  10.923   6.728 -1.5593 -0.3978 -0.3305
  877MOL0     H20969   9.677  11.038   6.507  1.1083 -1.0857  1.0884
  877MOL0     H20970   9.550  10.920   6.440  2.4699  0.2414 -1.2895
  877MOL0     H20971   9.545  11.137   6.654  0.9007  1.3624 -2.2243
  877MOL0     H20972   9.402  11.022   6.635 -0.6878 -0.5822 -0.8001
  877MOL0     H20973   9.510  11.212   6.421  2.7464 -1.2117  1.7863
  877MOL0     H20974   9.383  11.086   6.413 -0.7187 -1.2050  2.1422
  877MOL0     H20975   9.145  11.168   6.528 -2.0230  0.2854  2.4761
  877MOL0     H20976   9.045  11.547   6.601 -1.6613  0.1602  0.8001
  877MOL0     H20977   8.969  11.401   6.662  0.1213 -2.1998 -0.5582
  877MOL0     H20978   9.008  11.483   6.377  1.4885  0.0218 -0.1046
  877MOL0     H20979   8.991  11.310   6.405 -1.0024  0.6420 -1.0125
  877MOL0     H20980   8.768  11.330   6.500  2.7039 -0.7878  1.9866
  877MOL0     H20981   8.780  11.513   6.519 -0.1913 -1.9219  1.2035
  877MOL0     H20982   8.642  11.487   6.335 -0.2051  0.7309 -1.2761
  877MOL0     H20983   8.800  11.520   6.269  2.4036  1.7567  3.4955
  877MOL0     H20984   8.787  11.159   6.102 -1.5807 -0.0679  2.0153
  877MOL0     H20985   8.656  11.089   5.754  0.7132 -0.8129  0.0440
  877MOL0     H20986   8.614  10.968   5.878  1.9147 -0.3603  0.7145
  877MOL0     H20987   8.766  11.052   5.894 -0.1281 -3.4412 -0.1247
  877MOL0     H20988   8.300  11.443   5.639  1.2356 -1.0759 -0.7744
  877MOL0     H20989   8.152  11.458   5.457  0.9209 -0.4700 -0.8485
  877MOL0     H20990   7.941  11.067   5.353 -1.2063 -0.4226  1.0114
  877MOL0     H20991   7.794  11.178   5.359  0.2881 -1.0628  1.8033
  877MOL0     H20992   7.818  11.237   5.123  3.3731  1.4411 -0.1122
  877MOL0     H20993   7.965  11.159   5.107  0.0049  2.2215 -1.3672
  877MOL0     H20994   7.774  11.047   5.025 -0.4671  0.1744 -0.6972
  877MOL0     H20995   7.711  11.014   5.178 -0.8791  0.0886 -1.4416
  877MOL0     H20996   7.882  10.869   5.252 -0.0041  1.7310  0.2240
  877MOL0     H20997   7.982  10.921   5.105 -0.1833 -2.6689 -3.3358
  877MOL0     H20998   7.734  10.755   5.084 -0.1487 -0.7869 -0.9618
  877MOL0     H20999   7.819  10.824   4.954 -4.3522 -3.3797 -0.3072
  877MOL0     H21000   7.987  10.672   4.972  1.5568  0.9515  1.4376
  877MOL0     H21001   7.844  10.580   5.044 -1.1429  1.6300  1.2246
  877MOL0     H21002   7.929  10.643   5.278 -0.1253 -0.7513  0.0245
  877MOL0     H21003   8.074  10.712   5.209  0.5099 -1.4961  2.6719
  877MOL0     H21004   8.154  10.509   5.260 -1.7605 -0.9823  1.2935
  877MOL0     H21005   8.118  10.510   5.092 -1.0261 -0.5796  0.5259
  877MOL0     H21006   7.942  11.090   5.585  0.9025 -0.2730 -0.3295
  877MOL0     H21007   8.088  11.113   5.797  1.1313  0.9388  0.7802
  877MOL0     H21008   8.378  11.412   6.020  0.4762  1.1368  4.7030
  877MOL0     H21009   8.486  11.422   6.224 -1.0146 -1.4574  0.0482
  877MOL0     H21010   9.312  10.100   6.660  1.0215 -2.3339  0.1747
  877MOL0     H21011   9.191   9.932   6.513  0.0622 -2.0066 -2.9603
  877MOL0     H21012   8.992   9.774   6.254  0.8996  0.4817 -0.3572
  877MOL0     H21013   8.854   9.592   6.182  0.3523 -0.7803  1.1490
  877MOL0     H21014   8.862   9.182   6.146 -1.0382  0.4373 -0.3483
  877MOL0     H21015   9.005   9.229   6.231  1.7901 -1.3634 -3.0230
  877MOL0     H21016   8.710   9.290   6.249  0.6706 -0.0745 -0.2774
  877MOL0     H21017   8.821   9.421   6.314  1.5292  0.9549 -2.3813
  877MOL0     H21018   8.827   9.129   6.393 -0.2809 -0.2698 -0.6943
  877MOL0     H21019   8.896   9.271   6.480  0.4883 -1.1332 -0.9522
  877MOL0     H21020   8.603   9.253   6.434 -1.5341  1.0810  0.5689
  877MOL0     H21021   8.693   9.364   6.518  0.6038  0.3167 -1.8063
  877MOL0     H21022   8.638   9.026   6.790 -2.8283 -0.3178 -0.3328
  877MOL0     H21023   9.191   9.387   6.002  2.0419  1.6141 -2.4922
  877MOL0     H21024   9.420   9.637   6.034 -1.1096 -2.1545 -2.0230
  877MOL0     H21025   9.427   9.523   6.182 -1.0319 -1.6004  0.6068
  877MOL0     H21026   9.406   9.478   6.007  1.6476  2.0008 -2.1709
  878MOL0     O21027  10.540   2.209   9.037 -0.8343  0.3347  0.0942
  878MOL0     C21028  10.521   2.088   9.034 -0.3668  0.3695  0.1998
  878MOL0     O21029  10.423   2.022   9.098 -0.1300  0.5778  0.0038
  878MOL0     C21030  10.323   2.079   9.176  0.4835 -0.2100 -0.4469
  878MOL0     C21031  10.309   2.215   9.216 -1.1333 -1.2958  0.5307
  878MOL0     C21032  10.199   2.250   9.299 -0.1937 -0.4805  1.1813
  878MOL0     C21033  10.106   2.154   9.345  0.9824  1.2319 -0.8052
  878MOL0     O21034  10.002   2.154   9.441  0.4178 -0.5248  0.4321
  878MOL0     C21035   9.977   2.283   9.489  0.0922  0.6375  0.0707
  878MOL0     C21036   9.869   2.282   9.598 -0.1302 -0.2156  0.5474
  878MOL0     C21037   9.851   2.417   9.678 -0.5782  0.0896  0.7950
  878MOL0     C21038   9.790   2.515   9.574  0.0612 -0.1724 -0.0804
  878MOL0     C21039   9.665   2.584   9.642  0.1698 -0.5027 -0.4231
  878MOL0     C21040   9.581   2.677   9.563  0.1321  0.0754  0.2478
  878MOL0     C21041   9.524   2.587   9.455 -0.2321 -0.5357  0.0991
  878MOL0     C21042   9.442   2.682   9.371  0.1785  0.4027 -0.3952
  878MOL0     N21043   9.316   2.709   9.438 -1.0526  0.7201 -0.2983
  878MOL0     C21044   9.210   2.622   9.441  0.2487 -0.5815 -0.7797
  878MOL0     C21045   9.115   2.675   9.520  0.1987 -0.0457  0.0079
  878MOL0     C21046   8.986   2.600   9.544  0.3784  0.1333 -0.2313
  878MOL0     C21047   8.916   2.654   9.678 -0.3188 -0.0576  0.1183
  878MOL0     C21048   8.819   2.546   9.743 -0.0181  0.3945 -0.2947
  878MOL0     C21049   8.742   2.606   9.872  0.7920  0.1984  0.4627
  878MOL0     O21050   8.708   2.749   9.852 -0.0822 -0.2000 -0.1272
  878MOL0     C21051   8.637   2.809   9.953  0.6021  0.5921 -0.2997
  878MOL0     C21052   8.610   2.939   9.929 -0.0202  0.8060 -0.0846
  878MOL0     C21053   8.517   3.009  10.011  0.7179  0.4168  1.0496
  878MOL0     C21054   8.475   3.139   9.954 -0.2257 -1.4322 -0.4721
  878MOL0     C21055   8.473   2.948  10.137 -0.6787 -0.3106 -0.0547
  878MOL0     C21056   8.380   3.009  10.238 -0.3293  0.7526 -0.0693
  878MOL0     O21057   8.342   2.920  10.337  0.2682  0.5067 -0.3417
  878MOL0     C21058   8.257   2.947  10.436 -0.5790  0.3751  0.4154
  878MOL0     C21059   8.233   3.070  10.502  0.3250  1.9954  0.4430
  878MOL0     C21060   8.154   3.082  10.616 -0.4201 -0.4797  0.0057
  878MOL0     C21061   8.099   2.968  10.670 -0.0842  0.4419 -0.2449
  878MOL0     O21062   8.030   2.988  10.791 -0.3675  0.2139  0.1231
  878MOL0     C21063   7.982   2.872  10.858 -0.2811  0.5931  0.0826
  878MOL0     C21064   7.896   2.916  10.976 -0.5997 -0.5813  0.6638
  878MOL0     C21065   7.838   2.796  11.039 -0.3558  0.0901 -0.7319
  878MOL0     C21066   7.791   2.827  11.180 -1.1384 -0.7787 -0.0405
  878MOL0     C21067   7.693   2.938  11.199  0.2391 -0.2909 -0.2874
  878MOL0     C21068   7.644   2.934  11.343 -0.3070  0.1306 -0.2411
  878MOL0     C21069   7.523   3.014  11.370  0.1842  0.3710  1.1221
  878MOL0     C21070   7.413   3.015  11.261  0.1519 -0.5166  0.7225
  878MOL0    Cl21071   7.353   2.843  11.243 -0.4155 -0.0278 -0.2747
  878MOL0     C21072   8.120   2.839  10.606  0.5951 -0.3989  0.8715
  878MOL0     C21073   8.185   2.832  10.483  0.0937  0.8520  0.4050
  878MOL0     O21074   8.340   3.130  10.229  0.0960 -0.2036 -0.3431
  878MOL0     C21075   8.506   2.816  10.156  0.2261  0.6948  0.5662
  878MOL0     C21076   8.587   2.750  10.066  0.5351  0.3985 -1.0870
  878MOL0     N21077   9.161   2.794   9.569 -0.5257 -0.1746 -0.0958
  878MOL0     N21078   9.283   2.811   9.527 -1.0050  0.6714 -0.3133
  878MOL0     C21079  10.120   2.027   9.290  0.5936  0.0316 -0.2575
  878MOL0     C21080  10.219   1.990   9.212 -0.2411  0.5699 -0.4846
  878MOL0     C21081  10.600   2.004   8.935 -0.3924 -0.3590 -0.4754
  878MOL0     C21082  10.696   2.067   8.850  0.6856  0.5318  0.0532
  878MOL0     C21083  10.759   2.004   8.748 -0.2288  0.8090  0.8070
  878MOL0     C21084  10.747   1.869   8.730  0.2866  0.7224 -0.3623
  878MOL0     O21085  10.830   1.810   8.638 -0.4774  0.1422  0.0364
  878MOL0     C21086  10.774   1.798   8.507  0.5679 -0.8405  0.0313
  878MOL0     C21087  10.708   1.933   8.446  0.8536  0.3423 -0.7023
  878MOL0     C21088  10.649   1.911   8.301 -0.2970 -1.2213  0.7072
  878MOL0     C21089  10.649   2.043   8.223  0.1371 -0.5713 -0.4121
  878MOL0     C21090  10.784   2.062   8.173  0.5910 -1.4817 -0.5773
  878MOL0     C21091  10.886   2.080   8.120 -0.6405 -0.3200 -0.2747
  878MOL0     C21092  10.666   1.792   8.820 -0.3271  0.1447  0.7231
  878MOL0     C21093  10.599   1.865   8.927 -0.0885  0.5073  0.1425
  878MOL0     C21094  10.539   1.773   9.041  0.8638 -0.0983 -0.8089
  878MOL0     H21095  10.376   2.298   9.196 -1.1063 -0.9305  1.9981
  878MOL0     H21096  10.195   2.354   9.330  0.0554 -0.1699  0.1983
  878MOL0     H21097   9.937   2.351   9.413 -2.3957 -2.1540 -1.3306
  878MOL0     H21098  10.064   2.337   9.527  0.8692  0.8787 -1.9498
  878MOL0     H21099   9.773   2.254   9.555 -0.5013  1.2288  0.3696
  878MOL0     H21100   9.899   2.212   9.677  0.3128 -1.7499 -0.9440
  878MOL0     H21101   9.791   2.394   9.766  0.1193 -4.2439  0.3169
  878MOL0     H21102   9.945   2.451   9.724  0.2038 -3.6522  2.2670
  878MOL0     H21103   9.857   2.595   9.541 -3.0511  2.0981 -1.4306
  878MOL0     H21104   9.758   2.467   9.481  1.3908 -2.4591  0.5755
  878MOL0     H21105   9.712   2.642   9.723 -2.8015  1.6290 -0.0372
  878MOL0     H21106   9.602   2.514   9.697  0.1429 -2.4536 -2.7802
  878MOL0     H21107   9.503   2.706   9.634 -1.7853 -0.8171 -1.3943
  878MOL0     H21108   9.645   2.755   9.522 -1.3653 -0.3158 -3.1856
  878MOL0     H21109   9.467   2.505   9.500 -2.1220  0.0147 -1.1308
  878MOL0     H21110   9.600   2.545   9.389 -0.4694 -4.5717  2.0963
  878MOL0     H21111   9.501   2.769   9.342  0.0793  0.4461 -0.4662
  878MOL0     H21112   9.418   2.641   9.273  2.6898  1.3443 -1.4843
  878MOL0     H21113   9.180   2.530   9.393  0.6548 -1.4588  0.6064
  878MOL0     H21114   9.002   2.492   9.550 -3.7556 -0.8657 -3.0908
  878MOL0     H21115   8.913   2.608   9.464 -0.2250  2.1359  0.4491
  878MOL0     H21116   8.992   2.655   9.757 -2.0478  0.0560  1.8341
  878MOL0     H21117   8.878   2.756   9.663 -0.2509  0.0299  0.5291
  878MOL0     H21118   8.740   2.522   9.671 -0.8168 -0.0924  0.7232
  878MOL0     H21119   8.859   2.446   9.761  0.2406  0.5455 -0.0172
  878MOL0     H21120   8.643   2.559   9.871  1.9409 -2.4206 -0.6563
  878MOL0     H21121   8.793   2.580   9.965 -0.6781 -3.5898  0.3825
  878MOL0     H21122   8.645   2.971   9.832 -1.9115 -2.4013 -1.9845
  878MOL0     H21123   8.534   3.226   9.986 -1.3599 -1.2944  1.3836
  878MOL0     H21124   8.373   3.163   9.986 -0.5019 -0.4867 -1.9646
  878MOL0     H21125   8.462   3.138   9.845 -2.7981 -2.0196 -0.2352
  878MOL0     H21126   8.280   3.161  10.466  0.1527  1.4904 -1.0962
  878MOL0     H21127   8.142   3.180  10.660  2.8388  1.7153 -3.3617
  878MOL0     H21128   7.914   2.815  10.793  1.1403  0.9554 -1.7887
  878MOL0     H21129   8.072   2.816  10.882 -0.7158 -0.5908 -0.9264
  878MOL0     H21130   7.958   2.975  11.044 -1.1265  0.8021  0.0035
  878MOL0     H21131   7.810   2.975  10.940 -0.3203 -1.3805 -1.4522
  878MOL0     H21132   7.928   2.735  11.042 -1.7219 -2.0682 -1.5210
  878MOL0     H21133   7.773   2.736  10.975  0.6631 -1.8241 -0.0239
  878MOL0     H21134   7.880   2.854  11.238 -1.6955  1.4986 -0.1861
  878MOL0     H21135   7.764   2.733  11.230  0.0874 -1.1440 -0.0142
  878MOL0     H21136   7.724   3.033  11.154  0.4419  1.6323  3.5328
  878MOL0     H21137   7.606   2.903  11.143 -1.1001  2.5739 -0.1910
  878MOL0     H21138   7.722   2.979  11.405  0.5832 -2.0558  0.3270
  878MOL0     H21139   7.643   2.834  11.388  1.9284 -0.2322 -0.8743
  878MOL0     H21140   7.546   3.118  11.396  2.4313  0.2041  0.0016
  878MOL0     H21141   7.476   2.965  11.456 -1.2731 -1.3200 -0.5556
  878MOL0     H21142   7.433   3.057  11.162 -2.6232 -1.6285 -0.4434
  878MOL0     H21143   7.322   3.070  11.288 -1.7593 -1.4045 -3.0979
  878MOL0     H21144   8.075   2.751  10.649  0.4170  1.1127  4.1118
  878MOL0     H21145   8.212   2.735  10.443 -0.5432  0.6255  0.5163
  878MOL0     H21146   8.464   2.751  10.233 -0.3637 -0.0129 -0.3270
  878MOL0     H21147   8.622   2.650  10.089 -1.7262 -0.0867  0.5991
  878MOL0     H21148  10.044   1.954   9.313  0.9845 -0.3808 -0.2654
  878MOL0     H21149  10.205   1.894   9.163  0.9234 -0.9027  1.9086
  878MOL0     H21150  10.707   2.175   8.852  0.4276  0.5964 -1.2178
  878MOL0     H21151  10.809   2.071   8.679 -2.1536 -0.3079 -1.8860
  878MOL0     H21152  10.855   1.775   8.437  1.7979  1.7246  0.5130
  878MOL0     H21153  10.705   1.713   8.507  1.0332 -1.2503 -1.7370
  878MOL0     H21154  10.789   2.006   8.459  0.3493  0.4358  2.8308
  878MOL0     H21155  10.628   1.982   8.503  0.3572  1.6666 -2.4211
  878MOL0     H21156  10.709   1.829   8.260 -0.1329 -0.6572 -0.2098
  878MOL0     H21157  10.542   1.893   8.307 -0.7470  0.9811 -0.0339
  878MOL0     H21158  10.604   2.125   8.280  0.6189  0.9614 -2.1298
  878MOL0     H21159  10.593   2.034   8.130  0.8875  2.7232 -1.3299
  878MOL0     H21160  10.982   2.115   8.088  0.0113 -3.1222 -1.7301
  878MOL0     H21161  10.662   1.684   8.824 -2.8526  0.1990  1.9749
  878MOL0     H21162  10.431   1.759   9.031  0.9541  0.3396 -2.8950
  878MOL0     H21163  10.570   1.669   9.037 -0.6673 -0.7932  2.2180
  878MOL0     H21164  10.560   1.813   9.140 -0.9171 -2.1223  0.4696
  879MOL0     O21165   1.430  10.313   8.265  0.8282 -0.8546 -0.2838
  879MOL0     C21166   1.341  10.388   8.239 -0.1231  0.0603 -0.7252
  879MOL0     O21167   1.287  10.481   8.323  0.3022  0.4524  0.4598
  879MOL0     C21168   1.320  10.486   8.463  0.3587 -0.0135  0.9884
  879MOL0     C21169   1.384  10.381   8.535  0.2506  0.6121 -0.6768
  879MOL0     C21170   1.422  10.405   8.676 -0.7165  0.8009  0.6260
  879MOL0     C21171   1.402  10.527   8.734 -0.5407 -0.6598  0.0139
  879MOL0     O21172   1.443  10.542   8.862  0.0287 -0.9559 -0.1041
  879MOL0     C21173   1.431  10.664   8.927 -0.4678  0.9338  1.1722
  879MOL0     C21174   1.286  10.687   8.961 -0.5488  0.1383  0.0474
  879MOL0     C21175   1.221  10.594   9.071 -1.0003  0.5428  0.3682
  879MOL0     C21176   1.302  10.606   9.211  0.9230 -1.3202  0.2445
  879MOL0     C21177   1.209  10.559   9.321  0.3009 -0.1743  0.0372
  879MOL0     C21178   1.267  10.598   9.450 -0.2483  0.2816 -0.4180
  879MOL0     C21179   1.383  10.502   9.500  0.3025  0.4027  0.3833
  879MOL0     C21180   1.419  10.515   9.654  1.0916  0.1627 -0.0467
  879MOL0     N21181   1.552  10.461   9.691  0.0991  0.5401  0.5056
  879MOL0     C21182   1.612  10.360   9.631 -0.3892 -0.1721 -0.5492
  879MOL0     C21183   1.715  10.329   9.704 -0.4877 -1.0399  0.1474
  879MOL0     C21184   1.824  10.232   9.668  0.2973 -0.7063 -0.5414
  879MOL0     C21185   1.951  10.309   9.651  0.4166 -0.7342  0.1570
  879MOL0     C21186   2.074  10.224   9.644  0.3654  0.6963  0.8943
  879MOL0     C21187   2.207  10.295   9.615  0.5965 -1.1685 -0.3897
  879MOL0     O21188   2.207  10.353   9.488 -0.3800 -0.4313 -0.2753
  879MOL0     C21189   2.311  10.441   9.463 -0.2683  0.1661 -0.0773
  879MOL0     C21190   2.324  10.568   9.546 -0.5335  0.5456  0.3306
  879MOL0     C21191   2.424  10.655   9.503  0.8410  1.1215 -0.7192
  879MOL0     C21192   2.446  10.776   9.590 -0.5785 -0.2853  0.3698
  879MOL0     C21193   2.511  10.624   9.394  0.2964 -0.2645 -0.3076
  879MOL0     C21194   2.610  10.723   9.348  0.2902  0.2193  0.8696
  879MOL0     O21195   2.735  10.721   9.406 -0.1337  0.4930  0.2448
  879MOL0     C21196   2.781  10.613   9.491  0.2709 -0.6337 -1.0086
  879MOL0     C21197   2.816  10.650   9.622 -1.0893  0.0567  0.1045
  879MOL0     C21198   2.884  10.554   9.701  0.3233  0.7082 -0.1970
  879MOL0     C21199   2.909  10.421   9.663 -0.2156  0.1537  0.2808
  879MOL0     O21200   2.971  10.324   9.734 -0.4682 -0.7453  0.0112
  879MOL0     C21201   3.051  10.366   9.849 -0.1808  0.0822 -0.2002
  879MOL0     C21202   3.149  10.257   9.897 -0.2365 -0.1447 -0.9069
  879MOL0     C21203   3.081  10.140   9.979  0.2465 -0.2857  0.5661
  879MOL0     C21204   3.175  10.020   9.997  0.3187  0.2839 -0.5403
  879MOL0     C21205   3.104   9.890  10.052 -0.4751  0.5794  0.7012
  879MOL0     C21206   3.088   9.880  10.202  0.1451 -0.4518 -0.8846
  879MOL0     C21207   3.059   9.735  10.256 -0.6443  0.2365 -0.6268
  879MOL0     C21208   2.923   9.681  10.240 -0.6174 -1.7503  0.7214
  879MOL0    Cl21209   2.906   9.544  10.352 -0.6303 -1.0060  0.2180
  879MOL0     C21210   2.867  10.384   9.532  0.9481  1.0899  0.5664
  879MOL0     C21211   2.809  10.480   9.449  0.3898 -0.3807  0.6208
  879MOL0     O21212   2.570  10.811   9.270  0.9881  0.9894  0.7788
  879MOL0     C21213   2.488  10.514   9.316  0.4602 -0.8163 -0.7979
  879MOL0     C21214   2.396  10.423   9.349  0.2597  0.0085  0.0375
  879MOL0     N21215   1.719  10.408   9.821  0.2471 -0.1917  0.8914
  879MOL0     N21216   1.614  10.489   9.808 -0.3836  0.5319 -0.5894
  879MOL0     C21217   1.358  10.632   8.656 -0.0787  0.3162  0.3583
  879MOL0     C21218   1.310  10.609   8.526 -0.3415  0.5851 -0.0697
  879MOL0     C21219   1.278  10.375   8.111 -0.2899 -0.5671  0.0738
  879MOL0     C21220   1.179  10.476   8.078 -0.5473 -0.1391  0.2728
  879MOL0     C21221   1.119  10.472   7.945  0.3671 -0.3526 -0.9971
  879MOL0     C21222   1.159  10.381   7.848  0.1960  0.0018 -1.4713
  879MOL0     O21223   1.110  10.369   7.720  1.0050 -0.7455 -0.4212
  879MOL0     C21224   0.977  10.416   7.695  0.7710  0.6034 -0.1099
  879MOL0     C21225   0.874  10.299   7.715 -0.2410 -0.2124  0.7900
  879MOL0     C21226   0.740  10.330   7.661 -0.2638  0.0295 -0.7997
  879MOL0     C21227   0.642  10.224   7.718 -0.4520  0.4196  0.0762
  879MOL0     C21228   0.588  10.142   7.604 -0.2824 -0.0703  0.1644
  879MOL0     C21229   0.555  10.074   7.506 -0.3553 -0.5615  1.2401
  879MOL0     C21230   1.259  10.292   7.885 -0.5588  0.4420 -0.0613
  879MOL0     C21231   1.326  10.287   8.002 -0.4370  0.2780 -0.8415
  879MOL0     C21232   1.435  10.180   8.015  0.0506  0.4929  0.1369
  879MOL0     H21233   1.417  10.287   8.493  0.1173 -0.6815  1.9195
  879MOL0     H21234   1.481  10.334   8.733  1.4668  0.9950 -1.2185
  879MOL0     H21235   1.465  10.747   8.864  2.7697  0.6185  2.3432
  879MOL0     H21236   1.494  10.667   9.016 -0.8032 -1.7636  1.5663
  879MOL0     H21237   1.271  10.791   8.990  2.4057  0.7161 -0.1189
  879MOL0     H21238   1.217  10.677   8.877 -0.2662  2.5481 -0.5287
  879MOL0     H21239   1.115  10.618   9.075 -0.9294  1.1778 -0.9685
  879MOL0     H21240   1.226  10.490   9.037 -0.0031  1.3014 -2.0222
  879MOL0     H21241   1.395  10.548   9.218  2.5817  0.6043 -3.2365
  879MOL0     H21242   1.327  10.710   9.231 -1.5705 -0.7453  0.6718
  879MOL0     H21243   1.187  10.453   9.310 -0.3551  0.0218 -0.6898
  879MOL0     H21244   1.117  10.618   9.309  0.8832  0.6273 -0.6557
  879MOL0     H21245   1.298  10.703   9.443 -2.2207  1.0578  1.5890
  879MOL0     H21246   1.181  10.595   9.517 -1.3005 -0.6640 -1.7586
  879MOL0     H21247   1.476  10.524   9.449 -1.9805  0.9974 -4.0044
  879MOL0     H21248   1.342  10.402   9.483  3.6591 -0.7742 -1.7393
  879MOL0     H21249   1.409  10.622   9.674 -1.9916  0.1741 -1.0697
  879MOL0     H21250   1.332  10.470   9.704 -0.2751  0.5959 -1.9215
  879MOL0     H21251   1.593  10.332   9.528 -1.2547 -1.9292  0.0520
  879MOL0     H21252   1.802  10.190   9.569  1.3473  1.3630 -1.7208
  879MOL0     H21253   1.824  10.148   9.738  0.9997 -0.9336 -0.8103
  879MOL0     H21254   1.945  10.370   9.561 -1.5683  0.4956  1.0537
  879MOL0     H21255   1.950  10.381   9.734  1.1987  2.6107 -2.4805
  879MOL0     H21256   2.078  10.166   9.737  0.8457 -0.5277  0.1344
  879MOL0     H21257   2.052  10.155   9.562 -1.3487  1.3454  0.7807
  879MOL0     H21258   2.202  10.374   9.690  1.6997 -0.6634 -0.8245
  879MOL0     H21259   2.281  10.216   9.634  0.9979 -0.6348  0.2976
  879MOL0     H21260   2.271  10.578   9.640  1.1983  3.5365  1.1055
  879MOL0     H21261   2.541  10.759   9.643 -0.2277 -0.9863 -0.4502
  879MOL0     H21262   2.362  10.784   9.659 -0.7783 -0.0600  0.1010
  879MOL0     H21263   2.446  10.872   9.537  1.8493 -0.6018 -0.3449
  879MOL0     H21264   2.783  10.748   9.652  1.4568  1.1925 -0.4706
  879MOL0     H21265   2.904  10.592   9.801  1.4351  0.9037 -0.4815
  879MOL0     H21266   3.112  10.447   9.808 -1.4935  1.3547  0.2815
  879MOL0     H21267   2.979  10.393   9.926  1.2484  0.2522  1.1351
  879MOL0     H21268   3.209  10.209   9.819  3.7057  1.8269  0.6469
  879MOL0     H21269   3.229  10.304   9.955 -0.1445 -1.7550  0.3504
  879MOL0     H21270   2.990  10.114   9.924  1.7238 -2.4211 -1.0041
  879MOL0     H21271   3.032  10.178  10.069 -3.5910 -0.9920 -1.0293
  879MOL0     H21272   3.260  10.036  10.063  0.0608  2.6158 -0.6983
  879MOL0     H21273   3.208  10.003   9.894  2.6288  2.3396 -0.2146
  879MOL0     H21274   3.011   9.867   9.999  0.4569  1.9895 -1.6603
  879MOL0     H21275   3.173   9.810  10.027  0.6870  0.8400  2.7897
  879MOL0     H21276   3.002   9.940  10.233 -2.5687 -3.7868 -1.3247
  879MOL0     H21277   3.179   9.919  10.248  0.2396 -2.2639  0.5849
  879MOL0     H21278   3.067   9.739  10.365 -2.7002  1.7629 -0.4674
  879MOL0     H21279   3.137   9.670  10.216  0.0702  0.0924  0.9334
  879MOL0     H21280   2.895   9.648  10.140  0.4554  0.2640 -0.3040
  879MOL0     H21281   2.852   9.758  10.274 -0.8755 -1.7479  0.1864
  879MOL0     H21282   2.887  10.283   9.498  0.7692  0.6332  1.7820
  879MOL0     H21283   2.784  10.474   9.343 -3.1479 -0.7589  1.3475
  879MOL0     H21284   2.554  10.501   9.231  2.5273  0.8593  0.4432
  879MOL0     H21285   2.389  10.334   9.286 -1.8019 -0.5482  0.9440
  879MOL0     H21286   1.346  10.732   8.697  0.1091 -1.7695  6.5806
  879MOL0     H21287   1.259  10.684   8.466  1.6315  2.0887  0.0099
  879MOL0     H21288   1.139  10.551   8.146  3.5183  0.6011  2.1284
  879MOL0     H21289   1.046  10.550   7.928  1.1139  1.5517  3.1570
  879MOL0     H21290   0.941  10.504   7.749 -2.1955 -0.4887 -0.1672
  879MOL0     H21291   0.972  10.453   7.593  1.4451 -0.6282 -0.6072
  879MOL0     H21292   0.872  10.272   7.821  0.4212 -0.8357  0.6527
  879MOL0     H21293   0.909  10.212   7.659  0.5370 -0.3897  1.5296
  879MOL0     H21294   0.712  10.425   7.708  1.3750 -0.9186  2.3554
  879MOL0     H21295   0.741  10.341   7.552  3.6976 -2.2006 -1.1794
  879MOL0     H21296   0.560  10.287   7.756  1.3104  2.6278  0.3933
  879MOL0     H21297   0.682  10.168   7.803 -2.7300 -0.4274  0.6664
  879MOL0     H21298   0.528  10.024   7.415 -1.9361  0.0526  1.3314
  879MOL0     H21299   1.291  10.225   7.805  1.5000  1.6385 -0.3190
  879MOL0     H21300   1.515  10.199   8.087  1.4122 -2.4319 -0.4235
  879MOL0     H21301   1.391  10.081   8.033  3.3840 -1.4507 -1.3901
  879MOL0     H21302   1.492  10.175   7.922 -0.2891 -0.0346 -0.0490
  880MOL0     O21303   0.767   0.119   6.175 -0.0704  1.1729  0.7129
  880MOL0     C21304   0.662   0.175   6.201 -0.5910 -0.0514 -0.2591
  880MOL0     O21305   0.541   0.154   6.136  0.1477  0.4298 -0.6797
  880MOL0     C21306   0.526   0.056   6.030  0.4370  0.5707  0.2404
  880MOL0     C21307   0.629   0.016   5.947  0.2377  0.1545 -0.2849
  880MOL0     C21308   0.599  -0.082   5.848 -0.0588 -0.0699 -0.1633
  880MOL0     C21309   0.471  -0.126   5.826  1.0357  0.2039  0.2033
  880MOL0     O21310   0.453  -0.229   5.743 -0.6093  0.0446  0.4718
  880MOL0     C21311   0.487  -0.203   5.604 -0.7893  0.1427 -0.3366
  880MOL0     C21312   0.419  -0.291   5.509 -0.2574 -0.3252 -0.3464
  880MOL0     C21313   0.265  -0.293   5.528 -0.4798 -0.4214 -0.2048
  880MOL0     C21314   0.211  -0.418   5.458 -0.1043  0.3893  0.0269
  880MOL0     C21315   0.066  -0.433   5.505 -0.6404  0.8284 -0.0523
  880MOL0     C21316   0.058  -0.511   5.635 -0.0785  0.1128 -0.0506
  880MOL0     C21317  -0.083  -0.545   5.666  0.4394 -0.3601  0.0608
  880MOL0     C21318  -0.103  -0.648   5.778 -0.0716  0.8415 -0.7227
  880MOL0     N21319  -0.225  -0.605   5.848 -0.2295  0.2097  1.1420
  880MOL0     C21320  -0.224  -0.526   5.956  0.0400 -0.3143 -0.1972
  880MOL0     C21321  -0.359  -0.515   5.982 -0.7386  0.5612 -0.2717
  880MOL0     C21322  -0.434  -0.437   6.092 -0.3543  0.2784  0.2512
  880MOL0     C21323  -0.422  -0.533   6.212 -0.5438 -0.2238  0.8039
  880MOL0     C21324  -0.498  -0.474   6.329 -0.3077  0.4699 -0.1445
  880MOL0     C21325  -0.534  -0.578   6.436  0.2720 -0.2373  0.2782
  880MOL0     O21326  -0.417  -0.615   6.517  0.3858 -0.0136 -0.5138
  880MOL0     C21327  -0.451  -0.650   6.646  0.0020  0.1936 -0.7352
  880MOL0     C21328  -0.570  -0.716   6.690  0.0444  0.0196  0.6280
  880MOL0     C21329  -0.597  -0.756   6.825  0.2940  0.2845  0.0754
  880MOL0     C21330  -0.721  -0.833   6.852 -0.2342 -0.7129  0.2187
  880MOL0     C21331  -0.497  -0.723   6.921  0.1562  0.4562  0.2474
  880MOL0     C21332  -0.514  -0.756   7.066  0.3231 -0.4470 -0.7429
  880MOL0     O21333  -0.402  -0.748   7.139 -0.1437  0.7924  0.2867
  880MOL0     C21334  -0.390  -0.843   7.233 -0.8718  0.6608 -0.5676
  880MOL0     C21335  -0.342  -0.806   7.364  0.4953 -0.8803  0.4628
  880MOL0     C21336  -0.350  -0.900   7.464  0.6771 -0.3944 -0.4373
  880MOL0     C21337  -0.391  -1.036   7.436 -0.1834 -0.6680 -0.4706
  880MOL0     O21338  -0.388  -1.138   7.532  0.2338 -0.5549 -0.4275
  880MOL0     C21339  -0.333  -1.110   7.662  0.1787 -0.4326 -0.7026
  880MOL0     C21340  -0.183  -1.101   7.664 -0.4114  0.0104 -0.7208
  880MOL0     C21341  -0.132  -0.991   7.766 -0.4154  0.4707  0.6843
  880MOL0     C21342  -0.177  -1.001   7.912  0.6145  0.1030 -0.3079
  880MOL0     C21343  -0.160  -0.875   7.996 -0.3389 -0.3367 -0.9145
  880MOL0     C21344  -0.205  -0.907   8.147  0.5292 -0.3506  0.4697
  880MOL0     C21345  -0.179  -0.788   8.234 -0.3879 -0.5457 -1.6413
  880MOL0     C21346  -0.216  -0.819   8.375 -0.1791  0.1494 -0.1531
  880MOL0    Cl21347  -0.397  -0.810   8.395  0.3142  0.2023  0.1905
  880MOL0     C21348  -0.420  -1.069   7.305  0.3281  0.8274  0.3998
  880MOL0     C21349  -0.416  -0.978   7.204 -0.5984  0.7574 -0.7276
  880MOL0     O21350  -0.619  -0.786   7.104  0.2272  0.5878 -0.3374
  880MOL0     C21351  -0.381  -0.654   6.873  0.0243 -0.3159 -0.0824
  880MOL0     C21352  -0.353  -0.624   6.743  0.4782  1.2321 -0.0638
  880MOL0     N21353  -0.436  -0.581   5.892 -0.0653  0.2949 -0.4098
  880MOL0     N21354  -0.351  -0.641   5.820  0.0944 -0.2647  0.4020
  880MOL0     C21355   0.368  -0.082   5.915 -0.0338 -0.4795  0.1128
  880MOL0     C21356   0.401   0.001   6.016 -0.6326  0.4557 -1.2056
  880MOL0     C21357   0.658   0.260   6.321  0.1411  0.0700  0.9468
  880MOL0     C21358   0.542   0.271   6.401  0.1154  0.4092  0.2211
  880MOL0     C21359   0.532   0.352   6.513 -0.4689 -0.5013  0.6517
  880MOL0     C21360   0.639   0.424   6.545 -0.1481 -1.0751  0.2179
  880MOL0     O21361   0.636   0.513   6.651  0.2537 -0.3856  0.3042
  880MOL0     C21362   0.581   0.469   6.779  0.7837 -0.4027  0.3792
  880MOL0     C21363   0.490   0.586   6.825 -0.4531 -0.5229  0.1411
  880MOL0     C21364   0.401   0.535   6.928  0.7332  0.6532 -0.5650
  880MOL0     C21365   0.312   0.633   7.003  0.1284 -0.2120  0.1112
  880MOL0     C21366   0.194   0.667   6.930  0.7346 -0.3162  0.2892
  880MOL0     C21367   0.078   0.685   6.879 -0.4513  0.2417 -0.4312
  880MOL0     C21368   0.760   0.411   6.476 -0.7441  1.2158  1.1807
  880MOL0     C21369   0.777   0.331   6.361  0.0629 -0.1888 -0.1721
  880MOL0     C21370   0.916   0.337   6.298 -0.0352 -0.4392 -0.3945
  880MOL0     H21371   0.731   0.050   5.962  0.6860 -0.7393 -1.2127
  880MOL0     H21372   0.683  -0.132   5.799 -0.0316  1.6119 -1.9793
  880MOL0     H21373   0.591  -0.231   5.588  0.3363  2.6184  1.9303
  880MOL0     H21374   0.480  -0.097   5.580  1.1018  0.0109 -1.6397
  880MOL0     H21375   0.437  -0.267   5.404 -0.8099  1.2666 -0.1021
  880MOL0     H21376   0.460  -0.391   5.526  0.4037  0.4817  3.9500
  880MOL0     H21377   0.238  -0.290   5.634 -0.8210  0.5272 -0.3055
  880MOL0     H21378   0.206  -0.212   5.483  0.1656  1.6367  2.3498
  880MOL0     H21379   0.215  -0.412   5.349 -1.2817  1.8772  0.0330
  880MOL0     H21380   0.256  -0.512   5.491 -0.4031  0.3830  0.4331
  880MOL0     H21381   0.003  -0.481   5.430 -0.4471  0.9857 -0.3147
  880MOL0     H21382   0.020  -0.335   5.524  1.3762  1.5051  1.7580
  880MOL0     H21383   0.105  -0.610   5.627 -1.7191 -0.9855  2.5035
  880MOL0     H21384   0.094  -0.454   5.721 -0.1870  1.1053 -0.6495
  880MOL0     H21385  -0.135  -0.582   5.577  0.6687 -0.3747 -0.0661
  880MOL0     H21386  -0.123  -0.448   5.696 -2.4553  0.2635 -4.7469
  880MOL0     H21387  -0.123  -0.746   5.736 -1.0232  2.4116 -4.2659
  880MOL0     H21388  -0.018  -0.649   5.847 -0.8987 -1.8231  0.3544
  880MOL0     H21389  -0.152  -0.463   6.006 -1.2066  0.6714  0.4230
  880MOL0     H21390  -0.540  -0.426   6.067 -0.6359 -0.0902  1.2365
  880MOL0     H21391  -0.397  -0.337   6.115 -1.0683  0.4223  0.8257
  880MOL0     H21392  -0.470  -0.626   6.181 -3.0532  0.6755  1.7636
  880MOL0     H21393  -0.317  -0.545   6.240  0.9609  4.4024 -1.7228
  880MOL0     H21394  -0.443  -0.390   6.373 -2.5385  1.4501  0.9586
  880MOL0     H21395  -0.596  -0.434   6.300 -0.5424  0.7090  0.9314
  880MOL0     H21396  -0.612  -0.538   6.501  1.2409 -0.2372  1.4693
  880MOL0     H21397  -0.564  -0.672   6.388  0.6887 -1.4747  2.3204
  880MOL0     H21398  -0.640  -0.745   6.613  2.8798  0.1665 -2.2164
  880MOL0     H21399  -0.716  -0.904   6.934 -0.9873  2.6892  3.5159
  880MOL0     H21400  -0.753  -0.890   6.765  0.7069 -2.0320  0.7190
  880MOL0     H21401  -0.801  -0.765   6.883 -0.1302  0.1223 -1.2138
  880MOL0     H21402  -0.298  -0.707   7.374  0.5858  0.0047 -5.1252
  880MOL0     H21403  -0.319  -0.867   7.563  3.0762 -0.5917 -1.0722
  880MOL0     H21404  -0.377  -1.024   7.713 -3.1908 -1.7856 -1.0472
  880MOL0     H21405  -0.363  -1.189   7.732 -1.7090  0.4417 -0.4647
  880MOL0     H21406  -0.143  -1.193   7.709  1.3833 -0.0513 -2.2846
  880MOL0     H21407  -0.128  -1.081   7.571  0.7844 -0.4875 -0.1515
  880MOL0     H21408  -0.163  -0.898   7.719  1.4349  0.1052 -1.4017
  880MOL0     H21409  -0.023  -0.987   7.767 -0.2198 -1.8869 -1.3907
  880MOL0     H21410  -0.127  -1.084   7.962 -1.0905 -0.0226  1.2868
  880MOL0     H21411  -0.286  -1.008   7.913  0.5660  0.8262 -0.0164
  880MOL0     H21412  -0.054  -0.852   8.012 -0.0198 -2.0480 -0.3305
  880MOL0     H21413  -0.204  -0.784   7.954  0.3928 -0.6845 -2.5189
  880MOL0     H21414  -0.155  -0.996   8.183  1.5874 -0.4978 -1.2253
  880MOL0     H21415  -0.314  -0.918   8.151  0.5983 -0.7900  1.3537
  880MOL0     H21416  -0.230  -0.694   8.209  2.6001  1.4112 -0.8212
  880MOL0     H21417  -0.071  -0.773   8.235 -0.6471  1.5882 -1.6548
  880MOL0     H21418  -0.172  -0.744   8.441 -0.3444  0.4704 -0.3995
  880MOL0     H21419  -0.182  -0.919   8.403 -0.5232  0.5393  1.8337
  880MOL0     H21420  -0.449  -1.169   7.274  1.2373  0.5370  0.4458
  880MOL0     H21421  -0.446  -1.016   7.107  0.7261  3.9933 -2.5712
  880MOL0     H21422  -0.297  -0.646   6.942  0.8799  0.4228 -1.1770
  880MOL0     H21423  -0.262  -0.587   6.697  2.2813 -2.2257  0.4754
  880MOL0     H21424   0.263  -0.107   5.904  0.2413 -0.9577 -1.9339
  880MOL0     H21425   0.330   0.032   6.092 -0.0955  1.5996 -1.1418
  880MOL0     H21426   0.451   0.224   6.366  0.1494  1.2594 -1.0774
  880MOL0     H21427   0.440   0.357   6.570 -2.3670 -2.8168 -1.9593
  880MOL0     H21428   0.519   0.380   6.763  1.9571 -0.6705 -3.5912
  880MOL0     H21429   0.650   0.447   6.862  0.0594 -1.2468  0.7763
  880MOL0     H21430   0.444   0.625   6.734  0.5766  1.4185  0.4027
  880MOL0     H21431   0.557   0.660   6.870 -1.0702  0.5439 -0.6326
  880MOL0     H21432   0.338   0.452   6.897  0.7375  1.0839 -1.7730
  880MOL0     H21433   0.475   0.496   6.999  0.2126 -1.3289 -1.0685
  880MOL0     H21434   0.370   0.718   7.040  2.3194 -2.7719  3.1512
  880MOL0     H21435   0.277   0.581   7.093 -0.8485 -0.4520 -0.3957
  880MOL0     H21436  -0.022   0.688   6.842 -1.0729 -0.4186  1.1497
  880MOL0     H21437   0.853   0.458   6.507 -0.5248  1.7794 -0.2435
  880MOL0     H21438   0.898   0.327   6.191 -2.0953 -0.4072 -0.1095
  880MOL0     H21439   0.952   0.440   6.307 -0.5419 -0.3089  0.2324
  880MOL0     H21440   0.981   0.259   6.339 -0.3285 -0.5518 -0.1335
  881MOL0     O21441  10.873   3.383   4.612  1.2528  0.3076 -0.2161
  881MOL0     C21442  10.902   3.485   4.665 -0.6759  0.0382  0.5609
  881MOL0     O21443  10.824   3.590   4.689  0.0296  0.1175  0.4961
  881MOL0     C21444  10.696   3.578   4.652 -0.3154 -0.2277  1.0863
  881MOL0     C21445  10.610   3.492   4.728 -0.5884 -0.9563  0.4079
  881MOL0     C21446  10.479   3.472   4.691 -0.0650  0.4063  0.2487
  881MOL0     C21447  10.425   3.545   4.583  0.8908  0.2198  0.4068
  881MOL0     O21448  10.295   3.531   4.533  0.0151 -0.0399  0.3252
  881MOL0     C21449  10.206   3.428   4.581 -0.5394  0.0323  0.5620
  881MOL0     C21450  10.074   3.441   4.526 -0.4200 -0.7825 -0.1931
  881MOL0     C21451   9.971   3.351   4.598  0.5719  0.0565  0.1431
  881MOL0     C21452   9.847   3.332   4.517 -1.1580 -0.0778  0.3085
  881MOL0     C21453   9.728   3.257   4.583 -0.5861 -0.4642 -0.0156
  881MOL0     C21454   9.736   3.096   4.564 -0.9130 -0.1612  0.2129
  881MOL0     C21455   9.615   3.026   4.622 -0.3352  0.5924 -0.1002
  881MOL0     C21456   9.609   2.881   4.576 -0.1924 -0.4793  0.2193
  881MOL0     N21457   9.485   2.821   4.630 -0.8566  0.4723 -0.2810
  881MOL0     C21458   9.483   2.736   4.738  0.3364 -0.0075  0.4849
  881MOL0     C21459   9.364   2.668   4.736  0.0735  1.0090  0.0004
  881MOL0     C21460   9.317   2.574   4.838 -0.3516  0.7782 -0.3486
  881MOL0     C21461   9.269   2.650   4.962 -0.6259 -0.4287 -0.2637
  881MOL0     C21462   9.224   2.553   5.071 -0.4058  0.7524 -1.0230
  881MOL0     C21463   9.097   2.482   5.023 -0.0147  0.3970 -0.5747
  881MOL0     O21464   9.024   2.425   5.135 -0.3710 -0.2097  0.1341
  881MOL0     C21465   9.084   2.310   5.180  0.8469 -0.3303  0.3390
  881MOL0     C21466   9.035   2.268   5.300  0.2858 -0.1312  0.0375
  881MOL0     C21467   9.089   2.147   5.364 -1.0469  1.2249  1.0654
  881MOL0     C21468   9.001   2.100   5.477 -0.0438 -0.3654 -0.3804
  881MOL0     C21469   9.175   2.067   5.293  0.2218  1.3667  1.0709
  881MOL0     C21470   9.230   1.934   5.337 -0.5218 -0.1319 -1.0997
  881MOL0     O21471   9.355   1.900   5.282  0.3988 -0.0097  0.0574
  881MOL0     C21472   9.404   1.773   5.263 -0.3769  0.1107  0.4042
  881MOL0     C21473   9.533   1.772   5.208 -0.8557  0.4457  0.0788
  881MOL0     C21474   9.603   1.653   5.170 -0.0525 -0.2387 -0.3142
  881MOL0     C21475   9.532   1.528   5.177 -0.4234 -0.1855  0.1093
  881MOL0     O21476   9.584   1.408   5.139  0.1746  0.0076  0.0030
  881MOL0     C21477   9.716   1.405   5.082 -0.1971  0.1917 -0.0679
  881MOL0     C21478   9.748   1.265   5.011  0.3906  0.2672  0.6148
  881MOL0     C21479   9.774   1.155   5.108 -1.1940 -1.1194 -0.2899
  881MOL0     C21480   9.900   1.179   5.188 -0.1385 -0.3916 -0.1280
  881MOL0     C21481   9.969   1.044   5.193 -1.2785  0.1974  1.1041
  881MOL0     C21482   9.910   0.951   5.296 -0.5468  0.2129  0.1343
  881MOL0     C21483   9.980   0.821   5.311 -0.0065  0.2193 -0.6257
  881MOL0     C21484   9.936   0.753   5.434 -0.7286  0.2891 -0.4610
  881MOL0    Cl21485  10.035   0.612   5.481  0.6100 -0.1371 -0.1026
  881MOL0     C21486   9.398   1.533   5.209  1.0504 -0.6017  0.5433
  881MOL0     C21487   9.332   1.648   5.254 -0.4502  0.0238  0.2091
  881MOL0     O21488   9.172   1.869   5.428  0.0326  0.3907  0.5996
  881MOL0     C21489   9.224   2.113   5.170 -0.2205 -0.2608  0.3623
  881MOL0     C21490   9.182   2.234   5.116 -0.5424  0.9777  0.3752
  881MOL0     N21491   9.290   2.724   4.631  0.3709 -0.2323  0.5950
  881MOL0     N21492   9.365   2.810   4.566 -0.5687 -0.3430  0.6357
  881MOL0     C21493  10.504   3.631   4.512  0.1840  0.9362 -0.4499
  881MOL0     C21494  10.639   3.653   4.546 -0.0380  0.8195 -1.0557
  881MOL0     C21495  11.039   3.505   4.723 -0.1014  0.1930  0.7180
  881MOL0     C21496  11.065   3.599   4.832 -1.0399 -0.3422  0.6788
  881MOL0     C21497  11.197   3.612   4.896  1.1957  0.5276 -0.0222
  881MOL0     C21498  11.293   3.520   4.878  0.0411  0.1356 -1.0871
  881MOL0     O21499  11.418   3.512   4.941  0.2560  0.2107  0.1875
  881MOL0     C21500  11.453   3.619   5.026 -0.2469  0.1181  0.2165
  881MOL0     C21501  11.586   3.572   5.080 -0.1240 -0.0126  0.2346
  881MOL0     C21502  11.574   3.447   5.172  0.2605 -0.4588 -0.0689
  881MOL0     C21503  11.671   3.446   5.293  0.0011 -0.6914 -0.2313
  881MOL0     C21504  11.736   3.319   5.318 -0.8488  0.4844  0.8252
  881MOL0     C21505  11.799   3.218   5.343  0.6969 -0.7132  0.3592
  881MOL0     C21506  11.269   3.426   4.778  0.4394 -0.8056  0.4886
  881MOL0     C21507  11.151   3.424   4.698 -0.3435 -0.2528  0.8321
  881MOL0     C21508  11.150   3.326   4.583  0.6594 -0.3265 -0.0513
  881MOL0     H21509  10.655   3.460   4.822  2.4271  2.3284  0.3292
  881MOL0     H21510  10.411   3.432   4.765 -1.6248 -0.2836 -1.4618
  881MOL0     H21511  10.195   3.442   4.689  1.4606 -0.4828  0.8892
  881MOL0     H21512  10.245   3.328   4.555  1.8062  0.9076  0.4626
  881MOL0     H21513  10.041   3.544   4.545 -0.6552 -0.7775 -0.6148
  881MOL0     H21514  10.074   3.422   4.419  0.4432  0.8137 -0.4952
  881MOL0     H21515  10.015   3.257   4.630 -0.2734 -0.4347 -0.1090
  881MOL0     H21516   9.919   3.393   4.684 -0.3382 -2.9420  1.1769
  881MOL0     H21517   9.817   3.435   4.493  1.1195  0.6588  0.3304
  881MOL0     H21518   9.876   3.277   4.427 -0.1883 -1.6236  1.5054
  881MOL0     H21519   9.631   3.297   4.554  1.2131  3.7847 -0.9173
  881MOL0     H21520   9.729   3.279   4.690  0.4263 -0.0352 -0.1028
  881MOL0     H21521   9.755   3.080   4.457  0.7166 -2.1782  0.7475
  881MOL0     H21522   9.830   3.055   4.604 -1.7010 -0.3216  1.9948
  881MOL0     H21523   9.525   3.081   4.593  1.2970  2.2898 -2.2380
  881MOL0     H21524   9.619   3.020   4.731  0.1307  2.9806  0.0528
  881MOL0     H21525   9.609   2.879   4.466  2.7960  2.5926  0.0050
  881MOL0     H21526   9.696   2.821   4.605 -0.0242  0.2439  1.2848
  881MOL0     H21527   9.563   2.708   4.805  0.5787 -1.4774 -0.3558
  881MOL0     H21528   9.405   2.516   4.866 -1.4753 -0.6629  0.3258
  881MOL0     H21529   9.242   2.501   4.806  0.3694  0.9745 -2.5923
  881MOL0     H21530   9.360   2.696   5.001  0.1405 -0.7643 -1.5840
  881MOL0     H21531   9.201   2.730   4.933  0.1984  0.9120  1.3384
  881MOL0     H21532   9.308   2.488   5.096 -0.4469  0.9426 -0.3477
  881MOL0     H21533   9.219   2.605   5.167  1.0270 -2.1479  0.7439
  881MOL0     H21534   9.033   2.553   4.970  0.7943 -1.0961 -3.7965
  881MOL0     H21535   9.106   2.402   4.948 -0.4363 -2.2262  1.9970
  881MOL0     H21536   8.948   2.319   5.338 -1.9719 -1.7692 -2.5458
  881MOL0     H21537   8.956   2.189   5.521 -0.3618 -1.2267  1.1335
  881MOL0     H21538   9.059   2.073   5.565 -1.2774  0.3551  0.7007
  881MOL0     H21539   8.924   2.023   5.461 -1.8441  0.3116  3.6938
  881MOL0     H21540   9.586   1.866   5.214 -1.0727  0.4759  2.7360
  881MOL0     H21541   9.707   1.648   5.138  0.1971 -0.4903  0.4957
  881MOL0     H21542   9.742   1.483   5.010 -0.8491 -0.1217 -0.6635
  881MOL0     H21543   9.774   1.411   5.175 -2.6756  1.6108  1.5087
  881MOL0     H21544   9.661   1.248   4.947  1.5142 -1.5033 -0.5322
  881MOL0     H21545   9.822   1.272   4.931  0.3934  0.5915  0.6435
  881MOL0     H21546   9.771   1.059   5.055 -1.8090 -1.7150  0.7801
  881MOL0     H21547   9.698   1.159   5.187 -0.9160  2.7738 -0.0316
  881MOL0     H21548   9.887   1.217   5.290 -0.7753  0.7987 -0.6341
  881MOL0     H21549   9.971   1.244   5.136  2.1608 -2.7155 -0.1157
  881MOL0     H21550   9.960   0.988   5.100 -0.2253 -1.0660  1.7137
  881MOL0     H21551  10.076   1.046   5.216 -1.1489  1.4691  0.4281
  881MOL0     H21552   9.804   0.928   5.277 -0.1149 -1.0813 -0.7942
  881MOL0     H21553   9.910   0.997   5.396  1.1040 -0.0576  0.2865
  881MOL0     H21554  10.087   0.846   5.320 -0.2971  0.7335  1.9864
  881MOL0     H21555   9.957   0.749   5.232  2.0727  0.7608 -1.8175
  881MOL0     H21556   9.831   0.721   5.427 -0.5696 -0.3941  0.1694
  881MOL0     H21557   9.937   0.821   5.520 -2.2428 -1.4312  1.0121
  881MOL0     H21558   9.345   1.442   5.180 -0.2181  1.3307 -4.1455
  881MOL0     H21559   9.232   1.645   5.294 -1.2825 -1.5680 -1.7493
  881MOL0     H21560   9.302   2.053   5.125  0.4464  1.5256 -1.0049
  881MOL0     H21561   9.223   2.249   5.016 -1.2082 -3.0742 -0.6747
  881MOL0     H21562  10.456   3.685   4.431 -2.3938  0.6137  0.7569
  881MOL0     H21563  10.694   3.726   4.487  3.5118 -2.0825 -1.6966
  881MOL0     H21564  10.991   3.661   4.882  0.3077  1.4384  0.5423
  881MOL0     H21565  11.207   3.698   4.962  3.3078  0.7806 -0.6145
  881MOL0     H21566  11.455   3.698   4.950  1.1094 -1.1050 -1.0844
  881MOL0     H21567  11.377   3.638   5.102  0.5599  0.7392  0.8834
  881MOL0     H21568  11.625   3.660   5.132  0.5940  0.3824 -0.9306
  881MOL0     H21569  11.663   3.556   5.003 -1.2267 -0.9702 -0.7099
  881MOL0     H21570  11.470   3.437   5.206  0.5839 -1.9431  0.5802
  881MOL0     H21571  11.602   3.365   5.105 -1.3985 -0.6819 -0.5575
  881MOL0     H21572  11.602   3.485   5.368 -0.0889 -0.1080 -0.6068
  881MOL0     H21573  11.742   3.529   5.288  0.0327 -0.6295  0.9567
  881MOL0     H21574  11.857   3.144   5.393  3.1495  1.6922  1.2969
  881MOL0     H21575  11.355   3.364   4.754  0.4586  0.0880 -2.0349
  881MOL0     H21576  11.252   3.298   4.557  1.0434  0.2920  0.7365
  881MOL0     H21577  11.094   3.234   4.606  1.5697 -0.7264  0.6277
  881MOL0     H21578  11.113   3.369   4.490 -2.0069 -0.8329  0.6813
  882MOL0     O21579   7.557   2.850   2.193  0.9673 -0.0891  0.4737
  882MOL0     C21580   7.642   2.809   2.275  0.5777  0.6814  0.0621
  882MOL0     O21581   7.618   2.735   2.385 -0.8476  0.0150 -0.0345
  882MOL0     C21582   7.489   2.724   2.441  1.1112 -0.3011 -0.7471
  882MOL0     C21583   7.378   2.807   2.414 -0.2112 -0.4311 -0.3526
  882MOL0     C21584   7.249   2.778   2.468  0.1466  0.0772 -0.2565
  882MOL0     C21585   7.228   2.665   2.550  0.8115 -0.4588 -1.4067
  882MOL0     O21586   7.105   2.631   2.595  0.1737  0.5873  0.2265
  882MOL0     C21587   7.048   2.524   2.518 -0.0521  0.0700  0.0203
  882MOL0     C21588   6.903   2.569   2.505 -0.2122  0.3788  0.8760
  882MOL0     C21589   6.809   2.479   2.417  0.0660 -0.3055  0.1010
  882MOL0     C21590   6.805   2.326   2.460 -0.0377 -0.3592  0.0788
  882MOL0     C21591   6.805   2.297   2.618 -0.5364 -0.4788  0.2066
  882MOL0     C21592   6.692   2.352   2.697 -0.2748  0.3955 -0.2957
  882MOL0     C21593   6.700   2.306   2.851  0.8882  0.9342  0.2010
  882MOL0     C21594   6.584   2.374   2.933 -0.2178 -1.2137  0.9024
  882MOL0     N21595   6.619   2.511   2.978 -0.1894 -0.2701  0.4352
  882MOL0     C21596   6.740   2.546   3.039  0.3333  0.0826 -0.6204
  882MOL0     C21597   6.756   2.680   3.054  0.2510  0.4303 -0.8693
  882MOL0     C21598   6.861   2.762   3.114 -0.4027  0.5748  0.0692
  882MOL0     C21599   6.957   2.828   3.004 -0.7514  0.7725 -0.3021
  882MOL0     C21600   7.009   2.725   2.904 -0.4699  0.0165  0.2451
  882MOL0     C21601   7.088   2.615   2.980 -0.3443 -0.8321 -0.2682
  882MOL0     O21602   7.181   2.684   3.073  1.0176 -0.1181  0.0674
  882MOL0     C21603   7.281   2.757   3.015 -0.6781 -0.5814  1.0310
  882MOL0     C21604   7.310   2.895   3.064  0.5028  0.4351  0.0133
  882MOL0     C21605   7.403   2.980   3.010  0.4415  0.2461  0.0328
  882MOL0     C21606   7.404   3.120   3.064  0.0611 -0.1614 -0.2618
  882MOL0     C21607   7.468   2.942   2.893 -0.8119  0.5192 -0.0777
  882MOL0     C21608   7.575   3.013   2.809  1.5922 -0.2749 -0.2183
  882MOL0     O21609   7.640   3.114   2.868 -0.6678  0.1270 -0.2191
  882MOL0     C21610   7.725   3.186   2.786  0.5650 -0.4565  0.2714
  882MOL0     C21611   7.857   3.152   2.762 -0.7792  0.2904  0.2734
  882MOL0     C21612   7.934   3.226   2.670 -0.6068 -0.7144  0.4855
  882MOL0     C21613   7.878   3.345   2.614  0.1982 -0.8644  0.1725
  882MOL0     O21614   7.943   3.421   2.518  0.8191 -1.1815  0.6015
  882MOL0     C21615   8.065   3.482   2.545 -0.3183 -0.6812  0.3590
  882MOL0     C21616   8.036   3.623   2.604  0.1958  0.7372 -0.7784
  882MOL0     C21617   8.166   3.693   2.630  0.5283 -0.3199  0.6959
  882MOL0     C21618   8.168   3.851   2.627 -0.5478 -1.1072 -0.5949
  882MOL0     C21619   8.312   3.907   2.643  0.4170 -0.6437  0.1748
  882MOL0     C21620   8.327   4.054   2.625 -0.5683 -0.3819 -0.4411
  882MOL0     C21621   8.472   4.103   2.640  1.1864  0.9667 -0.2677
  882MOL0     C21622   8.468   4.244   2.574  0.5460  0.4575 -0.9201
  882MOL0    Cl21623   8.543   4.243   2.416 -0.1873  0.2693  0.4046
  882MOL0     C21624   7.744   3.368   2.630  0.2401  0.1944  0.6848
  882MOL0     C21625   7.665   3.284   2.708 -0.5463 -0.7047 -0.2528
  882MOL0     O21626   7.559   2.996   2.681  0.3012 -0.0249 -0.0465
  882MOL0     C21627   7.440   2.805   2.845  0.2260 -0.1647 -0.5825
  882MOL0     C21628   7.348   2.716   2.896 -0.3371 -0.5499 -0.3531
  882MOL0     N21629   6.632   2.725   3.005  0.2665  0.0333 -1.0949
  882MOL0     N21630   6.552   2.626   2.977  0.9408 -0.4951 -0.0855
  882MOL0     C21631   7.340   2.583   2.584  0.4303 -0.5606  1.0969
  882MOL0     C21632   7.471   2.624   2.539 -0.2729 -0.5935  0.4142
  882MOL0     C21633   7.783   2.835   2.228  0.3649  0.6336  0.5266
  882MOL0     C21634   7.834   2.754   2.125 -0.1999  0.5716 -0.7889
  882MOL0     C21635   7.973   2.766   2.093 -0.1525 -0.4479 -0.4569
  882MOL0     C21636   8.060   2.848   2.161  0.2561  0.0927  0.1004
  882MOL0     O21637   8.192   2.852   2.147  0.2004  0.8026  0.3085
  882MOL0     C21638   8.263   2.730   2.132 -1.0156 -1.0175 -0.0448
  882MOL0     C21639   8.416   2.744   2.123 -0.5184  0.2744 -0.0298
  882MOL0     C21640   8.458   2.847   2.012  0.1051  0.6429  0.8392
  882MOL0     C21641   8.613   2.866   2.023  0.3021  0.7190 -0.1505
  882MOL0     C21642   8.660   2.936   1.902 -1.5519  0.2133 -0.5153
  882MOL0     C21643   8.709   2.979   1.802  0.3216  0.0165  0.0594
  882MOL0     C21644   8.004   2.939   2.256  0.2563  0.2787  0.4842
  882MOL0     C21645   7.861   2.932   2.284  0.1910  0.2933  0.4084
  882MOL0     C21646   7.809   3.023   2.389 -0.0917 -0.4098 -0.6494
  882MOL0     H21647   7.383   2.887   2.342 -1.0899  0.2163  0.2841
  882MOL0     H21648   7.166   2.847   2.454  0.4657  0.3316 -0.9110
  882MOL0     H21649   7.040   2.426   2.564 -3.4561 -0.4762 -1.4193
  882MOL0     H21650   7.093   2.516   2.419 -1.3899 -2.7131 -0.4531
  882MOL0     H21651   6.871   2.572   2.609 -1.5996 -2.1120  0.6027
  882MOL0     H21652   6.900   2.674   2.475  0.6594  0.3715  0.7377
  882MOL0     H21653   6.709   2.522   2.430  0.9255  1.2831  2.0767
  882MOL0     H21654   6.835   2.493   2.312  3.5225 -1.6431  0.6207
  882MOL0     H21655   6.710   2.291   2.418 -0.0540 -1.3721  0.9441
  882MOL0     H21656   6.892   2.273   2.420  2.1519 -1.0569  5.0366
  882MOL0     H21657   6.890   2.353   2.657  0.0506 -1.6425  0.6394
  882MOL0     H21658   6.819   2.190   2.638  2.2003 -0.4873 -1.2577
  882MOL0     H21659   6.694   2.462   2.695 -0.8241  0.4872  1.8671
  882MOL0     H21660   6.595   2.328   2.653 -0.7220  1.0209  0.3152
  882MOL0     H21661   6.797   2.307   2.903  0.4748  0.8597  0.9916
  882MOL0     H21662   6.670   2.201   2.856 -0.0803  1.2353  1.0659
  882MOL0     H21663   6.489   2.367   2.879 -1.4204 -1.1990  2.9371
  882MOL0     H21664   6.561   2.313   3.021 -1.5209 -1.8510  0.1501
  882MOL0     H21665   6.815   2.480   3.081  2.6387  1.6295 -2.0632
  882MOL0     H21666   6.917   2.710   3.192  3.3048 -0.4830 -2.9895
  882MOL0     H21667   6.804   2.839   3.168 -0.5102  0.5421  0.0037
  882MOL0     H21668   6.899   2.906   2.955 -0.6785 -0.0992 -1.8158
  882MOL0     H21669   7.035   2.889   3.051  0.2461  0.4472 -1.5059
  882MOL0     H21670   6.924   2.677   2.854 -1.0185  1.5956 -0.3958
  882MOL0     H21671   7.068   2.774   2.825 -1.1658 -1.9988 -1.6430
  882MOL0     H21672   7.028   2.543   3.037  1.7005 -1.4250  1.2783
  882MOL0     H21673   7.138   2.557   2.901 -1.2995 -1.8874 -0.1301
  882MOL0     H21674   7.260   2.912   3.159 -1.6653 -6.1619  0.6292
  882MOL0     H21675   7.324   3.132   3.138  1.5201  0.8089  1.2072
  882MOL0     H21676   7.384   3.190   2.983  2.5386  3.0014  1.6502
  882MOL0     H21677   7.495   3.149   3.116  0.2277 -0.0160 -0.6358
  882MOL0     H21678   7.913   3.073   2.811  0.3098  0.5525 -0.5003
  882MOL0     H21679   8.036   3.199   2.649 -0.2326 -0.5330  1.9606
  882MOL0     H21680   8.123   3.424   2.617 -1.2162  0.6000  2.2066
  882MOL0     H21681   8.126   3.487   2.454 -1.7246  2.3322 -0.5711
  882MOL0     H21682   7.975   3.682   2.535 -1.5220  0.7070  0.6232
  882MOL0     H21683   7.984   3.625   2.700 -0.7529  2.2380 -1.2967
  882MOL0     H21684   8.240   3.662   2.554 -0.4765 -0.3157 -0.3066
  882MOL0     H21685   8.206   3.670   2.729 -2.2058 -2.6869  1.3800
  882MOL0     H21686   8.107   3.887   2.710 -1.4197  0.2192 -1.7765
  882MOL0     H21687   8.133   3.891   2.532 -0.0044 -0.6585 -0.6101
  882MOL0     H21688   8.331   3.869   2.744 -1.3891  0.4574  0.9821
  882MOL0     H21689   8.377   3.858   2.570  0.5655 -0.6437  0.3042
  882MOL0     H21690   8.253   4.109   2.685  1.4754  2.2691 -0.1127
  882MOL0     H21691   8.284   4.074   2.527 -4.7288  0.0779  1.2657
  882MOL0     H21692   8.543   4.037   2.590 -0.3120 -1.0279  0.1263
  882MOL0     H21693   8.500   4.116   2.745 -1.0513  0.6376  0.4391
  882MOL0     H21694   8.524   4.305   2.646 -1.0924  0.3358  0.5106
  882MOL0     H21695   8.365   4.281   2.568 -0.4323 -2.2437 -2.5641
  882MOL0     H21696   7.688   3.446   2.578 -1.3147 -2.1866 -1.4122
  882MOL0     H21697   7.558   3.295   2.717 -0.4624  0.4582 -0.5430
  882MOL0     H21698   7.492   2.760   2.761 -0.3085  1.2131 -1.7072
  882MOL0     H21699   7.332   2.615   2.858  0.5062 -1.2764  1.1410
  882MOL0     H21700   7.316   2.494   2.641  3.5066 -1.4718  1.1177
  882MOL0     H21701   7.553   2.557   2.559  0.1763 -0.7338 -1.7145
  882MOL0     H21702   7.769   2.677   2.083 -0.8126  0.5814  0.1122
  882MOL0     H21703   8.014   2.696   2.021 -0.4255 -1.3612  0.2556
  882MOL0     H21704   8.240   2.674   2.223  0.9972 -1.5092  0.2055
  882MOL0     H21705   8.227   2.661   2.055 -0.3536 -1.8333  0.3620
  882MOL0     H21706   8.451   2.645   2.090  0.6847  0.6717  0.0043
  882MOL0     H21707   8.460   2.767   2.220  1.3368 -3.3340  0.1801
  882MOL0     H21708   8.433   2.816   1.910 -1.9628 -1.0558  1.7890
  882MOL0     H21709   8.403   2.940   2.029  0.4156  1.0211 -0.1290
  882MOL0     H21710   8.667   2.771   2.020  1.9787  1.6375 -1.0888
  882MOL0     H21711   8.632   2.912   2.120 -1.8899 -0.2173  0.7717
  882MOL0     H21712   8.740   3.017   1.707  0.2641 -1.3600 -0.5383
  882MOL0     H21713   8.061   3.016   2.307 -1.4602  1.5737  0.5272
  882MOL0     H21714   7.885   3.064   2.457 -1.7327  1.6098  0.0511
  882MOL0     H21715   7.759   3.098   2.327  1.7215  0.0033 -1.6859
  882MOL0     H21716   7.728   2.992   2.456  2.0534 -2.8064  1.0750
  883MOL0     O21717   3.889   4.189   4.915  0.1681 -0.0517  0.0540
  883MOL0     C21718   3.870   4.078   4.865 -0.0269  0.5081  0.2047
  883MOL0     O21719   3.885   3.956   4.926  0.3247 -0.8906  0.2566
  883MOL0     C21720   3.930   3.941   5.057  0.2608 -0.4043  0.9216
  883MOL0     C21721   4.045   4.009   5.100 -0.2375  1.1064 -0.1320
  883MOL0     C21722   4.084   4.007   5.238  0.2542  0.2376  0.0979
  883MOL0     C21723   3.991   3.949   5.334 -0.8757  0.2090  0.9901
  883MOL0     O21724   4.017   3.941   5.472 -0.0141 -0.1615 -0.7676
  883MOL0     C21725   4.153   3.947   5.505 -1.0078 -1.1077 -0.6291
  883MOL0     C21726   4.172   3.917   5.653 -1.2666  0.0918 -0.3781
  883MOL0     C21727   4.323   3.910   5.696  0.2359 -1.2555  0.1803
  883MOL0     C21728   4.356   3.849   5.839 -0.2027  0.1039 -0.4976
  883MOL0     C21729   4.498   3.858   5.880 -1.8011 -0.3905  0.5790
  883MOL0     C21730   4.518   3.982   5.970 -0.4891 -0.0028  0.0227
  883MOL0     C21731   4.659   4.043   5.970 -0.2858 -0.1702 -0.2641
  883MOL0     C21732   4.716   4.090   5.834 -0.5647 -0.1660 -0.6115
  883MOL0     N21733   4.862   4.080   5.825 -0.3822  0.0538 -0.2522
  883MOL0     C21734   4.938   4.165   5.761  0.1064 -0.4037 -0.0104
  883MOL0     C21735   5.066   4.135   5.794  0.1336 -0.0757  0.5022
  883MOL0     C21736   5.199   4.212   5.766 -0.3080  1.4517  0.6379
  883MOL0     C21737   5.188   4.362   5.780  0.3756  0.4001  0.1732
  883MOL0     C21738   5.148   4.416   5.916 -0.8592 -0.4329  0.2172
  883MOL0     C21739   5.257   4.401   6.025  0.5320  0.1472  0.4036
  883MOL0     O21740   5.254   4.536   6.081 -0.3800  0.2536 -0.1429
  883MOL0     C21741   5.295   4.535   6.214  0.3327  0.1045  0.8190
  883MOL0     C21742   5.207   4.593   6.303  0.7107  0.3669 -0.2637
  883MOL0     C21743   5.234   4.606   6.434 -0.9806  0.0428 -0.8003
  883MOL0     C21744   5.134   4.683   6.515  0.1509  0.9273  0.1864
  883MOL0     C21745   5.356   4.556   6.481 -0.0719  0.2307  0.3239
  883MOL0     C21746   5.401   4.578   6.625 -1.6993  1.2611  0.6570
  883MOL0     O21747   5.530   4.527   6.648  0.7385 -0.6809  0.0756
  883MOL0     C21748   5.591   4.575   6.758 -0.1161 -0.6754 -0.3117
  883MOL0     C21749   5.652   4.696   6.760  0.4965 -0.9031  0.0962
  883MOL0     C21750   5.722   4.735   6.879 -0.2528  0.3995  0.0166
  883MOL0     C21751   5.751   4.646   6.981 -0.3846 -0.1744 -0.7069
  883MOL0     O21752   5.838   4.695   7.073 -0.6807 -0.4397 -0.2672
  883MOL0     C21753   5.884   4.606   7.183  1.0696 -0.5461  0.0592
  883MOL0     C21754   5.986   4.503   7.139  0.1475  0.2959  1.0276
  883MOL0     C21755   6.026   4.397   7.238  0.5623 -0.7620 -0.3162
  883MOL0     C21756   6.163   4.324   7.216  0.2285  0.4019 -0.1717
  883MOL0     C21757   6.200   4.248   7.343 -0.4219  0.0662 -0.2960
  883MOL0     C21758   6.133   4.118   7.386  0.8408 -0.3345  0.0591
  883MOL0     C21759   6.133   4.015   7.273 -0.2187 -0.1120 -1.1125
  883MOL0     C21760   6.112   3.876   7.324  0.6578  0.4450 -0.3421
  883MOL0    Cl21761   6.079   3.774   7.168  0.0179 -0.7158 -0.3616
  883MOL0     C21762   5.688   4.519   6.981 -0.2219 -0.1254  0.3624
  883MOL0     C21763   5.613   4.488   6.866  0.7789 -0.3889  1.1129
  883MOL0     O21764   5.326   4.628   6.704  0.0636  0.4948 -0.1393
  883MOL0     C21765   5.445   4.493   6.388  0.9152 -0.1431 -0.1354
  883MOL0     C21766   5.416   4.478   6.258  0.7717 -0.2603 -0.3462
  883MOL0     N21767   5.058   4.024   5.879  0.1942 -0.6176  0.8675
  883MOL0     N21768   4.935   3.990   5.895 -0.1668  0.3419 -0.4932
  883MOL0     C21769   3.881   3.877   5.294 -0.2652  0.8291 -0.6246
  883MOL0     C21770   3.850   3.875   5.152 -0.2765  0.6238 -0.9863
  883MOL0     C21771   3.838   4.074   4.723 -0.2627  0.5437  1.0341
  883MOL0     C21772   3.763   4.183   4.673  0.0841  0.6603  0.6474
  883MOL0     C21773   3.727   4.181   4.537  0.4836  0.4316 -0.5467
  883MOL0     C21774   3.779   4.086   4.450 -0.2781 -0.5849 -0.3684
  883MOL0     O21775   3.737   4.064   4.315 -0.5641  0.1948  0.4617
  883MOL0     C21776   3.732   4.177   4.222  0.1747  0.7321  0.0281
  883MOL0     C21777   3.587   4.227   4.207 -0.6348  0.3029  0.4911
  883MOL0     C21778   3.517   4.135   4.105 -0.1237  0.2159 -0.2818
  883MOL0     C21779   3.363   4.166   4.083 -0.4911  0.3320 -0.0443
  883MOL0     C21780   3.316   4.300   4.111 -0.1166 -0.0401 -0.4788
  883MOL0     C21781   3.277   4.408   4.154  0.0369 -0.2726  0.8010
  883MOL0     C21782   3.868   3.996   4.503 -0.2056  0.0498 -0.0022
  883MOL0     C21783   3.891   3.983   4.636 -0.0850  0.3702 -0.0361
  883MOL0     C21784   3.966   3.859   4.683  0.2297 -0.0991  1.4094
  883MOL0     H21785   4.096   4.082   5.038 -1.9370  2.0392 -0.4818
  883MOL0     H21786   4.178   4.053   5.267  1.4802 -2.0342 -0.0151
  883MOL0     H21787   4.190   4.048   5.485  2.4604 -2.8942 -5.0955
  883MOL0     H21788   4.216   3.872   5.455  0.5140 -0.6849  0.5799
  883MOL0     H21789   4.140   3.994   5.723 -2.0279 -1.4734  1.0518
  883MOL0     H21790   4.125   3.823   5.682 -0.3932 -0.7682 -1.6059
  883MOL0     H21791   4.368   3.845   5.621  0.5242  1.4185 -2.1246
  883MOL0     H21792   4.362   4.011   5.689  1.0522 -1.6239 -0.6894
  883MOL0     H21793   4.294   3.910   5.906 -0.7201 -1.3831  0.4126
  883MOL0     H21794   4.329   3.744   5.849  1.9045 -0.5378 -1.0475
  883MOL0     H21795   4.557   3.852   5.788 -1.6830 -2.9825  0.7461
  883MOL0     H21796   4.531   3.768   5.933  0.6685  0.2785  0.3249
  883MOL0     H21797   4.465   4.062   5.917  1.4970  0.6174 -1.1506
  883MOL0     H21798   4.471   3.972   6.068  1.7320  0.6973  1.2250
  883MOL0     H21799   4.723   3.970   6.019  1.7295  1.0435 -0.9764
  883MOL0     H21800   4.645   4.133   6.029 -0.4800 -0.3560 -0.0254
  883MOL0     H21801   4.683   4.028   5.751  1.5972  0.8398 -2.3108
  883MOL0     H21802   4.680   4.191   5.811  1.5591  1.2139  1.5756
  883MOL0     H21803   4.894   4.253   5.715  0.9382 -1.0455 -2.1412
  883MOL0     H21804   5.241   4.188   5.668  0.9896 -0.7174  1.6461
  883MOL0     H21805   5.267   4.171   5.842 -0.5967  0.1403  0.2136
  883MOL0     H21806   5.281   4.414   5.753 -0.3060  1.5970  0.0476
  883MOL0     H21807   5.109   4.378   5.707  1.0488 -5.1883 -2.2781
  883MOL0     H21808   5.133   4.522   5.892 -0.2078 -1.2931 -5.4080
  883MOL0     H21809   5.051   4.374   5.943 -0.9560 -1.1750 -1.2328
  883MOL0     H21810   5.214   4.320   6.084 -0.7278  0.3462 -0.1834
  883MOL0     H21811   5.358   4.383   5.987 -0.5307 -2.1528 -1.5965
  883MOL0     H21812   5.114   4.634   6.265 -1.8348 -2.6548  2.1402
  883MOL0     H21813   5.170   4.769   6.572 -0.2175  0.5297  1.0484
  883MOL0     H21814   5.074   4.616   6.578 -4.3529  0.5139 -3.9588
  883MOL0     H21815   5.056   4.718   6.447 -2.3739  0.1162  2.4665
  883MOL0     H21816   5.631   4.759   6.674 -2.9518 -0.7819  0.8664
  883MOL0     H21817   5.767   4.832   6.860 -1.2797  0.5813 -1.6784
  883MOL0     H21818   5.914   4.676   7.262 -1.4034  1.2449 -0.4640
  883MOL0     H21819   5.795   4.554   7.219 -2.6689  3.6908 -2.0495
  883MOL0     H21820   5.958   4.456   7.045 -2.1206 -1.2167  2.3512
  883MOL0     H21821   6.079   4.559   7.129  2.0183 -2.4624  1.8351
  883MOL0     H21822   5.950   4.319   7.243 -0.2402  0.0530  0.8788
  883MOL0     H21823   6.025   4.443   7.338 -1.8591 -2.5047  0.5718
  883MOL0     H21824   6.244   4.394   7.193 -0.9606  0.8841 -3.2525
  883MOL0     H21825   6.155   4.261   7.128 -1.2976 -0.2411  0.3947
  883MOL0     H21826   6.303   4.214   7.328 -0.3969 -0.2471  0.5395
  883MOL0     H21827   6.220   4.314   7.428 -0.8294  0.7059 -0.6973
  883MOL0     H21828   6.030   4.144   7.413  1.1715  2.3662 -1.0086
  883MOL0     H21829   6.183   4.086   7.478  0.8086  1.4797  0.7557
  883MOL0     H21830   6.227   4.021   7.218  1.2606  1.1124  1.3598
  883MOL0     H21831   6.046   4.045   7.213 -1.1234 -0.1354  0.1412
  883MOL0     H21832   6.028   3.861   7.394  1.0487 -2.2640 -0.3322
  883MOL0     H21833   6.209   3.845   7.363  1.1788  1.1808 -1.0425
  883MOL0     H21834   5.704   4.440   7.053 -1.7044 -0.8712 -0.0876
  883MOL0     H21835   5.569   4.391   6.846 -1.2319  0.8483 -0.9771
  883MOL0     H21836   5.540   4.445   6.413  0.6809 -1.2269 -1.2665
  883MOL0     H21837   5.490   4.438   6.189  0.4983 -0.1486 -0.7024
  883MOL0     H21838   3.826   3.836   5.378  2.8542 -1.3784  0.5515
  883MOL0     H21839   3.760   3.822   5.125  1.0486 -1.1854 -2.1205
  883MOL0     H21840   3.724   4.250   4.749  1.5292  1.9422  0.3166
  883MOL0     H21841   3.650   4.254   4.513  2.0622  2.7978  1.1337
  883MOL0     H21842   3.802   4.254   4.254 -0.8202  2.2412 -1.2760
  883MOL0     H21843   3.755   4.142   4.122  0.0829 -2.1267  0.9239
  883MOL0     H21844   3.586   4.328   4.165 -2.2281  0.5859  1.1159
  883MOL0     H21845   3.544   4.211   4.306  0.4689  0.2020  0.9703
  883MOL0     H21846   3.576   4.132   4.012  0.6455  2.7900  0.0298
  883MOL0     H21847   3.526   4.034   4.145 -2.6311  0.2906  0.6396
  883MOL0     H21848   3.300   4.108   4.152 -2.1907  1.1661 -0.8566
  883MOL0     H21849   3.330   4.145   3.981  0.8427  2.2592 -0.9193
  883MOL0     H21850   3.251   4.499   4.204  1.3850  0.3452  0.4451
  883MOL0     H21851   3.906   3.928   4.427 -1.6860 -1.7506  0.8037
  883MOL0     H21852   4.042   3.888   4.756  1.7135 -2.3011  0.8435
  883MOL0     H21853   3.897   3.789   4.729  1.0672 -1.1839  1.0541
  883MOL0     H21854   4.017   3.800   4.607  0.0225 -0.8534  1.8518
  884MOL0     O21855   7.308   1.270   2.112  0.7147 -0.0451  0.2380
  884MOL0     C21856   7.377   1.171   2.127 -0.1197  0.1398 -0.4685
  884MOL0     O21857   7.418   1.131   2.250 -0.1808 -0.3549 -0.0232
  884MOL0     C21858   7.463   1.219   2.343 -0.9428 -0.4777 -0.5259
  884MOL0     C21859   7.507   1.355   2.324 -0.0631 -0.4054  0.1556
  884MOL0     C21860   7.573   1.418   2.425 -0.0694 -0.1629 -0.2732
  884MOL0     C21861   7.619   1.356   2.543  0.1052 -1.0689  0.5571
  884MOL0     O21862   7.702   1.408   2.635 -1.1334  0.0679 -0.3243
  884MOL0     C21863   7.757   1.539   2.607  0.6015 -0.0368 -0.1266
  884MOL0     C21864   7.873   1.530   2.502 -0.1497 -0.4557  0.2163
  884MOL0     C21865   7.990   1.439   2.548 -0.0647 -0.2425  0.4097
  884MOL0     C21866   7.958   1.292   2.591  0.4272 -1.3016 -0.6410
  884MOL0     C21867   8.080   1.205   2.591 -0.9648 -0.3367  0.1905
  884MOL0     C21868   8.022   1.055   2.573 -0.2331 -0.0712 -0.3501
  884MOL0     C21869   8.130   0.954   2.561  0.4277  0.4619  0.1003
  884MOL0     C21870   8.077   0.816   2.557  0.4420  1.1566 -0.1756
  884MOL0     N21871   8.051   0.763   2.420  1.5105  0.3921 -0.2313
  884MOL0     C21872   7.933   0.769   2.356 -0.2942  0.3110 -0.0486
  884MOL0     C21873   7.968   0.721   2.232 -0.0352  0.4278  0.8702
  884MOL0     C21874   7.865   0.670   2.133 -1.3160  0.1199 -0.1317
  884MOL0     C21875   7.849   0.748   2.001 -0.6131  0.7766  0.2507
  884MOL0     C21876   7.818   0.890   2.048  0.3898 -0.0412 -0.1085
  884MOL0     C21877   7.742   0.974   1.943 -0.3290 -0.2225 -0.1187
  884MOL0     O21878   7.827   1.053   1.862  0.2235 -0.0383 -0.3243
  884MOL0     C21879   7.757   1.131   1.774 -0.6340 -0.1985 -0.4637
  884MOL0     C21880   7.732   1.255   1.823  0.1296 -0.6796  0.3696
  884MOL0     C21881   7.666   1.361   1.752 -0.4982 -0.5010 -0.0766
  884MOL0     C21882   7.660   1.508   1.810 -0.5254  0.0110 -0.1529
  884MOL0     C21883   7.618   1.319   1.616  0.1960 -0.5690 -1.3971
  884MOL0     C21884   7.520   1.397   1.535 -0.2661  0.3727  0.4579
  884MOL0     O21885   7.510   1.373   1.404 -0.8998 -0.0739  0.4134
  884MOL0     C21886   7.438   1.463   1.325  0.0309  0.2412 -0.0511
  884MOL0     C21887   7.499   1.537   1.224  0.6434 -0.3290  0.2187
  884MOL0     C21888   7.434   1.630   1.155  0.0538  0.8751 -0.5120
  884MOL0     C21889   7.290   1.639   1.170 -0.0419 -0.0970  0.4095
  884MOL0     O21890   7.210   1.729   1.105  0.4712 -1.1448 -0.6662
  884MOL0     C21891   7.272   1.843   1.042  0.0531  0.9132  1.2192
  884MOL0     C21892   7.153   1.924   0.985 -0.1380  0.7151 -0.5721
  884MOL0     C21893   7.201   2.023   0.892  0.2692 -0.3356 -0.9072
  884MOL0     C21894   7.087   2.095   0.815 -0.0783 -0.1706  0.2739
  884MOL0     C21895   7.150   2.198   0.717  0.7029  0.2486 -0.0869
  884MOL0     C21896   7.037   2.283   0.655 -0.8610  0.1253  0.1303
  884MOL0     C21897   6.922   2.203   0.599  0.3275 -0.3064  0.7002
  884MOL0     C21898   6.820   2.283   0.527 -0.4523  0.2979  0.7474
  884MOL0    Cl21899   6.688   2.172   0.480  0.2287 -0.2749  0.1497
  884MOL0     C21900   7.228   1.556   1.261 -0.2486 -0.9528 -0.2184
  884MOL0     C21901   7.294   1.456   1.333 -0.6053 -0.9806  0.0164
  884MOL0     O21902   7.448   1.477   1.590  0.1735 -0.0831 -0.5679
  884MOL0     C21903   7.619   1.182   1.580 -0.5565 -0.1424 -0.6013
  884MOL0     C21904   7.708   1.089   1.652 -0.3200 -0.1436  0.6715
  884MOL0     N21905   8.103   0.707   2.215  0.3947  0.9749 -0.1918
  884MOL0     N21906   8.147   0.722   2.337 -0.2483  0.2783 -0.5204
  884MOL0     C21907   7.584   1.220   2.559 -0.6735 -0.2096 -0.3491
  884MOL0     C21908   7.505   1.147   2.465 -0.7909 -0.0702  0.3171
  884MOL0     C21909   7.389   1.073   2.014  0.9327 -0.0980  0.2862
  884MOL0     C21910   7.378   1.129   1.885  1.2018  0.2830  0.1761
  884MOL0     C21911   7.394   1.045   1.771  0.3405 -0.1027 -0.3604
  884MOL0     C21912   7.411   0.912   1.783 -0.6677 -0.3505  0.4271
  884MOL0     O21913   7.428   0.833   1.678 -0.6777  0.1134  0.9418
  884MOL0     C21914   7.329   0.728   1.655  0.0724 -0.5602 -0.1093
  884MOL0     C21915   7.387   0.635   1.548 -0.0811 -0.4543 -0.1436
  884MOL0     C21916   7.522   0.586   1.620 -0.4617  0.1297  0.0601
  884MOL0     C21917   7.576   0.451   1.563 -0.3012 -0.0066 -0.4737
  884MOL0     C21918   7.654   0.385   1.664  0.0384 -0.4316  0.0000
  884MOL0     C21919   7.721   0.337   1.752 -1.1886  0.3236  0.8665
  884MOL0     C21920   7.424   0.860   1.917 -1.1216 -0.6712  0.8865
  884MOL0     C21921   7.406   0.938   2.028 -0.2388  0.6181 -0.8363
  884MOL0     C21922   7.424   0.865   2.157  0.3649  0.2110 -0.1603
  884MOL0     H21923   7.487   1.421   2.240  0.1025  0.4346  0.7618
  884MOL0     H21924   7.612   1.517   2.405  1.6274 -0.3733  1.7236
  884MOL0     H21925   7.797   1.568   2.705 -1.7138 -0.7064  1.0956
  884MOL0     H21926   7.681   1.615   2.586  0.5088 -0.2338 -0.4985
  884MOL0     H21927   7.836   1.505   2.402  1.5861 -1.3749 -0.2464
  884MOL0     H21928   7.912   1.632   2.490 -1.8195  0.0726 -1.0480
  884MOL0     H21929   8.061   1.419   2.467 -0.6491  0.9849 -0.4205
  884MOL0     H21930   8.039   1.483   2.635 -1.5470 -1.0940  1.7417
  884MOL0     H21931   7.915   1.290   2.691  2.3702 -1.5414  0.2335
  884MOL0     H21932   7.883   1.264   2.516  1.2568  0.1070 -2.0587
  884MOL0     H21933   8.141   1.212   2.682  2.4682 -2.0718 -1.8015
  884MOL0     H21934   8.142   1.219   2.503  1.6911  1.5884  2.2033
  884MOL0     H21935   7.960   1.043   2.663  0.5268 -0.3627  0.1393
  884MOL0     H21936   7.948   1.057   2.492 -0.3739  0.3092 -0.2171
  884MOL0     H21937   8.188   0.942   2.652  1.1408 -3.9484 -0.7210
  884MOL0     H21938   8.200   0.975   2.479  1.6102 -2.0568  0.3615
  884MOL0     H21939   8.141   0.738   2.598 -1.1151 -0.0200  0.1268
  884MOL0     H21940   7.987   0.816   2.620  1.2508 -0.6856  1.0758
  884MOL0     H21941   7.840   0.789   2.408 -0.1001  1.5906 -0.1619
  884MOL0     H21942   7.774   0.675   2.195 -0.5050  1.1221  1.0528
  884MOL0     H21943   7.892   0.566   2.113  2.7243  1.0472 -0.2571
  884MOL0     H21944   7.938   0.732   1.939 -1.9784 -1.4711 -1.2868
  884MOL0     H21945   7.775   0.707   1.931  3.0939 -1.7467 -2.5546
  884MOL0     H21946   7.753   0.882   2.135 -2.3089 -1.3141 -2.0847
  884MOL0     H21947   7.918   0.927   2.072  0.4775 -0.4730  0.2194
  884MOL0     H21948   7.680   0.918   1.873  0.5982  2.4260 -3.3321
  884MOL0     H21949   7.676   1.040   1.999  1.5912  1.7116  0.0205
  884MOL0     H21950   7.775   1.274   1.921 -0.7189 -3.4551  1.3716
  884MOL0     H21951   7.749   1.535   1.867 -0.2393  0.9245 -0.9979
  884MOL0     H21952   7.573   1.520   1.875  1.9465  1.3419  3.1749
  884MOL0     H21953   7.652   1.571   1.721  0.2759  0.6846  0.2415
  884MOL0     H21954   7.607   1.529   1.220  0.7080 -1.7309  2.7209
  884MOL0     H21955   7.494   1.696   1.092 -0.8022  0.1907 -2.1036
  884MOL0     H21956   7.332   1.908   1.107  3.9265  1.1574 -2.2219
  884MOL0     H21957   7.339   1.795   0.970  0.5490  2.6941  0.4318
  884MOL0     H21958   7.078   1.861   0.936  0.8442 -0.1081 -1.0716
  884MOL0     H21959   7.086   1.976   1.054  1.4404  2.5674 -0.3549
  884MOL0     H21960   7.261   1.989   0.807  1.3927  1.4240 -0.8667
  884MOL0     H21961   7.258   2.100   0.945 -1.3484  1.0359 -1.0581
  884MOL0     H21962   7.003   2.140   0.868 -1.1268 -0.4479 -1.0901
  884MOL0     H21963   7.048   2.022   0.743 -0.4543  0.4604 -0.1805
  884MOL0     H21964   7.202   2.272   0.779 -1.3788  2.4369 -0.7940
  884MOL0     H21965   7.212   2.145   0.644 -0.4037 -0.8570 -0.2543
  884MOL0     H21966   7.080   2.333   0.568  3.5762 -0.0276  1.9899
  884MOL0     H21967   6.989   2.353   0.723 -0.7586  0.7915 -0.4711
  884MOL0     H21968   6.875   2.153   0.684  1.6636  0.2438  1.8015
  884MOL0     H21969   6.953   2.128   0.526 -1.1878  0.2600 -0.5724
  884MOL0     H21970   6.867   2.334   0.443  0.8093  0.1932  1.3733
  884MOL0     H21971   6.772   2.353   0.595 -1.6495 -0.8625  1.1587
  884MOL0     H21972   7.120   1.568   1.263 -0.0154  2.6426 -1.7001
  884MOL0     H21973   7.233   1.407   1.408 -2.6585  2.5573  0.8553
  884MOL0     H21974   7.574   1.145   1.488  1.4634  1.9922 -2.5805
  884MOL0     H21975   7.722   0.985   1.624 -2.9261 -0.1788 -0.8235
  884MOL0     H21976   7.610   1.171   2.652 -1.3839 -0.1458 -0.1145
  884MOL0     H21977   7.471   1.045   2.478  2.5412 -1.0985  2.4422
  884MOL0     H21978   7.350   1.231   1.858 -2.8275 -0.4818  0.8611
  884MOL0     H21979   7.384   1.091   1.673  1.0002  3.0473  0.9257
  884MOL0     H21980   7.315   0.679   1.752  0.1816  0.8609  0.6570
  884MOL0     H21981   7.235   0.775   1.627  1.1714  3.1109  1.6658
  884MOL0     H21982   7.412   0.693   1.459 -1.9274 -0.0587 -0.4520
  884MOL0     H21983   7.310   0.559   1.531 -0.5400  0.1646 -0.8872
  884MOL0     H21984   7.605   0.656   1.607  1.1732 -1.6137  0.7035
  884MOL0     H21985   7.500   0.571   1.727  1.9677  1.9677  0.9111
  884MOL0     H21986   7.648   0.470   1.483 -0.0944  1.5807  0.0512
  884MOL0     H21987   7.505   0.381   1.517  0.7876 -1.0166 -0.6751
  884MOL0     H21988   7.792   0.293   1.819 -2.2208  1.5286  2.8491
  884MOL0     H21989   7.442   0.753   1.920 -2.3346 -0.9745 -1.0473
  884MOL0     H21990   7.407   0.758   2.140 -2.2082  0.3700  1.0325
  884MOL0     H21991   7.522   0.884   2.203  0.7080 -0.4098 -0.6106
  884MOL0     H21992   7.345   0.888   2.229 -1.9496 -3.3119 -1.3132
  885MOL0     O21993   8.397   7.374   7.616  0.8917  0.0907 -0.5168
  885MOL0     C21994   8.468   7.298   7.685 -0.1608 -0.1922  0.5402
  885MOL0     O21995   8.531   7.337   7.799  0.5979  0.1177  0.1909
  885MOL0     C21996   8.512   7.471   7.837  0.0038 -0.6260  0.2349
  885MOL0     C21997   8.440   7.506   7.949 -0.0672  0.2161  0.5482
  885MOL0     C21998   8.422   7.637   7.998  0.3102 -0.7857 -0.1863
  885MOL0     C21999   8.487   7.741   7.923  0.6881 -0.9535  0.3829
  885MOL0     O22000   8.478   7.871   7.973  0.4367 -0.2170  0.1645
  885MOL0     C22001   8.448   7.970   7.876  0.2654 -0.4644 -0.3182
  885MOL0     C22002   8.524   8.103   7.914 -0.2735 -0.1133  0.0226
  885MOL0     C22003   8.673   8.083   7.859 -0.1466 -0.2736  0.1257
  885MOL0     C22004   8.758   8.209   7.870 -0.3709  0.6952 -0.8920
  885MOL0     C22005   8.793   8.252   8.014 -0.5561  0.4197  0.4363
  885MOL0     C22006   8.838   8.397   8.008  0.5733  0.4371  0.5899
  885MOL0     C22007   8.852   8.451   8.149  0.0901  0.3710 -0.3919
  885MOL0     C22008   8.877   8.596   8.160 -0.2982 -0.1254  0.5820
  885MOL0     N22009   8.914   8.622   8.304 -0.6167 -0.1404  0.6843
  885MOL0     C22010   9.015   8.555   8.381 -0.3182 -0.3505  0.9019
  885MOL0     C22011   9.000   8.606   8.502  0.1807  0.5868  0.5349
  885MOL0     C22012   9.087   8.582   8.620 -0.0472  0.0115 -0.1374
  885MOL0     C22013   9.221   8.668   8.598  0.6470  0.1477  0.3452
  885MOL0     C22014   9.316   8.645   8.712  0.5604 -0.2154  0.2499
  885MOL0     C22015   9.425   8.743   8.732 -1.3433  0.0382  0.6620
  885MOL0     O22016   9.408   8.884   8.732  0.2103 -0.5871  0.6522
  885MOL0     C22017   9.378   8.946   8.854 -0.2629  0.1576 -0.1113
  885MOL0     C22018   9.380   8.884   8.985 -0.7286  0.5809  0.1367
  885MOL0     C22019   9.331   8.945   9.097  0.0417  0.2898  0.9077
  885MOL0     C22020   9.323   8.877   9.226  1.2227  0.3339 -0.3461
  885MOL0     C22021   9.293   9.085   9.084  0.8298  0.2845 -1.2025
  885MOL0     C22022   9.240   9.161   9.198  1.5957  0.1283 -0.3419
  885MOL0     O22023   9.320   9.265   9.242  0.3502 -0.4330 -0.0231
  885MOL0     C22024   9.269   9.352   9.338  0.0263  0.4537  0.2802
  885MOL0     C22025   9.352   9.396   9.440 -0.1837  0.7406  0.1509
  885MOL0     C22026   9.319   9.492   9.533  0.9377 -0.0186  0.3633
  885MOL0     C22027   9.187   9.558   9.521 -0.1613 -0.8755  0.4089
  885MOL0     O22028   9.136   9.657   9.599  0.0761  0.0227  0.1985
  885MOL0     C22029   9.216   9.722   9.693  0.8448  0.4706  0.7775
  885MOL0     C22030   9.117   9.771   9.801 -0.2726  0.6394  0.0081
  885MOL0     C22031   9.182   9.831   9.926  0.0715  0.3351 -0.3174
  885MOL0     C22032   9.109   9.815  10.059 -1.0418  1.0596  0.4526
  885MOL0     C22033   9.172   9.911  10.170  0.6152  0.2400 -1.1504
  885MOL0     C22034   9.311   9.889  10.212 -0.5755  0.7609  0.3885
  885MOL0     C22035   9.346   9.944  10.351 -0.1070 -0.6869  0.5505
  885MOL0     C22036   9.490   9.911  10.394 -1.0043  0.5447  0.1203
  885MOL0    Cl22037   9.607   9.945  10.249 -0.0276  0.2596  0.0495
  885MOL0     C22038   9.109   9.510   9.413  0.5382 -0.5212 -0.5602
  885MOL0     C22039   9.145   9.411   9.329 -0.5752 -0.2800  0.0737
  885MOL0     O22040   9.118   9.147   9.216  0.2988  0.2870  0.4263
  885MOL0     C22041   9.305   9.142   8.955 -0.4752 -0.6686 -0.0874
  885MOL0     C22042   9.336   9.071   8.846  0.7031  0.1751 -0.4444
  885MOL0     N22043   8.896   8.700   8.503  0.3530  0.1861 -0.1270
  885MOL0     N22044   8.842   8.708   8.381  0.1060  0.9614  0.4591
  885MOL0     C22045   8.569   7.704   7.814  1.0722 -0.0694  0.1442
  885MOL0     C22046   8.583   7.573   7.772  0.5573  0.0055 -0.8553
  885MOL0     C22047   8.500   7.167   7.622 -0.2222 -0.1879  0.2218
  885MOL0     C22048   8.625   7.146   7.548 -1.3650 -0.0450 -0.2555
  885MOL0     C22049   8.661   7.024   7.510 -0.4557  0.0439  0.5573
  885MOL0     C22050   8.570   6.921   7.519  0.5443  0.3364  0.4824
  885MOL0     O22051   8.616   6.802   7.477  0.2924  0.5422  0.2316
  885MOL0     C22052   8.526   6.725   7.377 -0.0185  1.3547 -0.1784
  885MOL0     C22053   8.604   6.609   7.317 -0.3472  0.4819  0.5483
  885MOL0     C22054   8.514   6.502   7.243  0.5788  0.7728 -0.5396
  885MOL0     C22055   8.585   6.433   7.128  0.3337 -0.9325  0.0529
  885MOL0     C22056   8.492   6.338   7.060 -0.1240 -1.0877  0.1465
  885MOL0     C22057   8.412   6.267   7.007  0.3280  0.2030  0.7835
  885MOL0     C22058   8.441   6.940   7.575  0.3113  0.3428  0.4326
  885MOL0     C22059   8.402   7.064   7.626  0.2167  0.0065  0.7101
  885MOL0     C22060   8.278   7.082   7.714  0.8790  0.2685  0.8956
  885MOL0     H22061   8.392   7.425   8.002  1.0891 -0.7731  0.1433
  885MOL0     H22062   8.363   7.663   8.085 -0.5597 -1.4998 -0.5564
  885MOL0     H22063   8.341   7.993   7.883  0.3931 -0.3505  1.6432
  885MOL0     H22064   8.473   7.938   7.774 -0.1048  1.3041 -0.9918
  885MOL0     H22065   8.480   8.192   7.868 -1.7515  0.4221  2.3240
  885MOL0     H22066   8.519   8.118   8.022 -1.2716  1.5329 -0.2181
  885MOL0     H22067   8.718   8.002   7.917 -0.5064 -0.8986 -0.4521
  885MOL0     H22068   8.670   8.061   7.752  1.1837 -0.2544  0.0688
  885MOL0     H22069   8.856   8.197   7.824 -0.5637 -0.0941 -1.1123
  885MOL0     H22070   8.712   8.293   7.818  3.9045  1.1746 -4.5017
  885MOL0     H22071   8.866   8.182   8.056 -1.1350 -1.7348 -1.9125
  885MOL0     H22072   8.696   8.242   8.065 -1.0562  1.3588 -0.2888
  885MOL0     H22073   8.937   8.404   7.962  0.7762  0.8283  1.0627
  885MOL0     H22074   8.773   8.467   7.954 -0.3487 -0.4934  0.4737
  885MOL0     H22075   8.929   8.391   8.200  0.4668  1.9292  0.9620
  885MOL0     H22076   8.775   8.416   8.218  0.3542 -0.2601 -0.4018
  885MOL0     H22077   8.956   8.627   8.092 -1.2113 -0.3036 -0.5926
  885MOL0     H22078   8.788   8.653   8.134  0.0109  0.3886  0.6357
  885MOL0     H22079   9.098   8.494   8.347 -0.7527 -0.9618  0.9119
  885MOL0     H22080   9.120   8.478   8.627 -1.2185 -0.4148 -0.5787
  885MOL0     H22081   9.039   8.615   8.713 -1.1968  1.7386 -1.3001
  885MOL0     H22082   9.282   8.659   8.508  1.0973  1.1721  0.5252
  885MOL0     H22083   9.178   8.769   8.599 -1.2302 -0.5858 -1.1011
  885MOL0     H22084   9.255   8.631   8.802  0.5230 -0.2888  0.2140
  885MOL0     H22085   9.358   8.544   8.710  1.4389  0.1353  0.3584
  885MOL0     H22086   9.490   8.712   8.814  2.4150 -1.2987 -2.4936
  885MOL0     H22087   9.485   8.727   8.642 -0.4964  1.9020  0.8475
  885MOL0     H22088   9.425   8.787   9.001  0.6031  1.1441 -0.0973
  885MOL0     H22089   9.234   8.910   9.280  0.4937 -2.1700  0.1073
  885MOL0     H22090   9.406   8.913   9.288 -0.5477  0.8313  1.8339
  885MOL0     H22091   9.328   8.768   9.225  1.0793  0.3211  0.0534
  885MOL0     H22092   9.453   9.355   9.433 -1.0230 -1.5775  0.5264
  885MOL0     H22093   9.383   9.525   9.615  0.4942  3.0066 -0.4022
  885MOL0     H22094   9.283   9.648   9.737  2.7333  2.6441  1.7475
  885MOL0     H22095   9.274   9.810   9.661  1.6902 -0.0856  0.7506
  885MOL0     H22096   9.061   9.857   9.764 -0.8051  0.2127 -0.1817
  885MOL0     H22097   9.036   9.701   9.824  1.0144 -1.2533 -0.9514
  885MOL0     H22098   9.197   9.936   9.897 -1.5437  0.0786 -2.2913
  885MOL0     H22099   9.289   9.807   9.935  0.7017  3.1496  0.7304
  885MOL0     H22100   9.102   9.711  10.091 -3.0362  0.2054 -2.3303
  885MOL0     H22101   9.006   9.850  10.048 -1.5771 -0.5537  0.0029
  885MOL0     H22102   9.160  10.017  10.147  2.5628  1.2775  2.0341
  885MOL0     H22103   9.105   9.884  10.252 -1.0029 -1.1320 -2.8294
  885MOL0     H22104   9.379   9.930  10.136 -1.5972 -1.6069 -1.9508
  885MOL0     H22105   9.339   9.784  10.208 -0.7445  0.7137  0.4430
  885MOL0     H22106   9.268   9.910  10.420 -4.0799  0.6097 -2.8760
  885MOL0     H22107   9.338  10.053  10.345 -0.2722 -0.5054  2.9675
  885MOL0     H22108   9.494   9.812  10.440 -4.1206  1.7333  3.4193
  885MOL0     H22109   9.510   9.975  10.480  0.2898 -3.3041  2.9502
  885MOL0     H22110   9.011   9.554   9.394  2.2154  3.2190 -1.3918
  885MOL0     H22111   9.077   9.387   9.248  1.7220 -2.0414 -1.5020
  885MOL0     H22112   9.285   9.248   8.945 -1.7709 -0.9879 -1.1440
  885MOL0     H22113   9.335   9.129   8.755 -2.1593 -0.0750 -0.6778
  885MOL0     H22114   8.596   7.775   7.737 -3.3211  1.2208 -0.4627
  885MOL0     H22115   8.634   7.556   7.677 -0.2275 -2.0687 -0.9491
  885MOL0     H22116   8.697   7.226   7.531 -0.3802 -1.3135 -2.3917
  885MOL0     H22117   8.754   7.001   7.458 -0.0716  1.5742  0.5210
  885MOL0     H22118   8.435   6.686   7.423 -0.1831 -1.0726 -2.3326
  885MOL0     H22119   8.505   6.800   7.301  1.3523  0.0493 -1.9481
  885MOL0     H22120   8.670   6.561   7.390 -0.5708 -1.3236 -0.3917
  885MOL0     H22121   8.678   6.651   7.248 -0.4317 -0.2103  0.0257
  885MOL0     H22122   8.489   6.431   7.323  2.1174 -1.6236 -2.0587
  885MOL0     H22123   8.422   6.550   7.207 -0.3666  0.6401  1.5403
  885MOL0     H22124   8.664   6.373   7.175 -2.9145 -3.4775  2.7147
  885MOL0     H22125   8.626   6.507   7.058 -2.1450 -1.4801 -2.1234
  885MOL0     H22126   8.342   6.208   6.951  2.5028 -0.7123 -1.1509
  885MOL0     H22127   8.370   6.858   7.568 -3.0475  2.9621  1.1502
  885MOL0     H22128   8.212   6.994   7.713  1.4210 -0.3260 -3.6448
  885MOL0     H22129   8.306   7.110   7.816  3.1908  1.7707 -0.0933
  885MOL0     H22130   8.222   7.168   7.675  0.7729 -0.8128 -1.5233
  886MOL0     O22131  10.793   0.951   5.876  0.7001  0.2476  0.3181
  886MOL0     C22132  10.721   0.900   5.961  0.5482  0.3379  0.0642
  886MOL0     O22133  10.745   0.918   6.093 -0.8203 -0.0181 -0.1232
  886MOL0     C22134  10.865   0.963   6.143 -0.3859  0.6492  0.4414
  886MOL0     C22135  10.851   1.059   6.235 -0.1176  0.9649  0.4824
  886MOL0     C22136  10.957   1.103   6.308  1.4047 -0.1999  0.2802
  886MOL0     C22137  11.088   1.058   6.281 -0.4351  0.6894 -0.4272
  886MOL0     O22138  11.183   1.109   6.367 -0.6363  0.1707  0.5687
  886MOL0     C22139  11.298   1.019   6.400  0.6429  0.1278  1.2225
  886MOL0     C22140  11.380   1.076   6.527 -0.4621 -0.4101  0.3333
  886MOL0     C22141  11.486   1.176   6.475 -0.1524 -0.7525 -0.6158
  886MOL0     C22142  11.428   1.289   6.388  0.1556 -0.4145 -0.7059
  886MOL0     C22143  11.532   1.366   6.307  0.2773  0.0750 -0.7561
  886MOL0     C22144  11.444   1.492   6.264 -0.5452  0.6475 -1.0849
  886MOL0     C22145  11.537   1.604   6.232  0.5026 -0.6393  0.5204
  886MOL0     C22146  11.648   1.586   6.135 -1.0855 -0.6444 -0.9072
  886MOL0     N22147  11.605   1.573   5.992 -0.0745  0.0497  0.2901
  886MOL0     C22148  11.599   1.450   5.934  0.9641  0.0460  0.4293
  886MOL0     C22149  11.505   1.458   5.837  0.1979  0.0500  0.1905
  886MOL0     C22150  11.468   1.348   5.739  0.2400  0.1268 -0.5014
  886MOL0     C22151  11.440   1.214   5.798  1.1174  0.0573  0.3015
  886MOL0     C22152  11.291   1.201   5.842 -0.3618 -0.3797  1.0204
  886MOL0     C22153  11.254   1.091   5.932  0.1854 -0.7033  0.8001
  886MOL0     O22154  11.296   0.966   5.876  0.5326  0.7551  0.2360
  886MOL0     C22155  11.237   0.913   5.765 -0.0305  0.5705  0.4580
  886MOL0     C22156  11.123   0.957   5.703 -0.3475 -0.0039 -0.3988
  886MOL0     C22157  11.065   0.896   5.590  0.4014  0.5999  0.6680
  886MOL0     C22158  10.927   0.923   5.549 -0.7630  0.1328 -0.4398
  886MOL0     C22159  11.124   0.788   5.530 -0.7246  0.0030 -0.0487
  886MOL0     C22160  11.092   0.706   5.417  0.6681  0.5683  0.2061
  886MOL0     O22161  11.160   0.589   5.404 -0.4313  0.4998  0.4718
  886MOL0     C22162  11.113   0.497   5.322 -0.2563  0.1277 -0.0071
  886MOL0     C22163  10.992   0.436   5.358 -0.7707 -0.8593 -0.4740
  886MOL0     C22164  10.940   0.338   5.277  0.2870 -0.6297  0.2996
  886MOL0     C22165  11.022   0.285   5.175  0.3238 -0.6028  0.4868
  886MOL0     O22166  10.982   0.170   5.100 -0.7681 -0.3077 -0.4426
  886MOL0     C22167  11.004   0.184   4.958  0.5589  1.3473  0.4573
  886MOL0     C22168  10.896   0.113   4.876  0.3554 -0.1925 -0.0104
  886MOL0     C22169  10.769   0.178   4.906  0.6910 -0.2635 -0.5733
  886MOL0     C22170  10.664   0.136   4.807  0.9362 -0.4494  0.4220
  886MOL0     C22171  10.538   0.231   4.798  1.2656  1.0340 -0.0660
  886MOL0     C22172  10.408   0.163   4.729 -0.1098  0.1075  0.6816
  886MOL0     C22173  10.306   0.277   4.731 -0.1002  0.0414 -0.2633
  886MOL0     C22174  10.175   0.240   4.661  0.7113  0.2374 -0.3743
  886MOL0    Cl22175  10.078   0.122   4.758 -0.1184 -0.0982 -0.1798
  886MOL0     C22176  11.142   0.341   5.150  0.0354 -0.4975  0.5080
  886MOL0     C22177  11.190   0.444   5.221 -0.5507 -0.4395 -0.1969
  886MOL0     O22178  10.998   0.741   5.346  1.0758  0.3315  0.5215
  886MOL0     C22179  11.233   0.743   5.597 -0.3878 -0.3155 -0.6720
  886MOL0     C22180  11.289   0.808   5.709 -0.8841  0.6559  0.7969
  886MOL0     N22181  11.453   1.587   5.834  0.6880 -0.2448 -0.7906
  886MOL0     N22182  11.512   1.651   5.926  0.3289 -0.2045 -0.0481
  886MOL0     C22183  11.109   0.961   6.176 -0.0941 -0.2774 -0.2388
  886MOL0     C22184  10.996   0.909   6.109  0.1416 -0.4113 -0.9024
  886MOL0     C22185  10.596   0.838   5.910 -0.8738  0.0608 -1.0901
  886MOL0     C22186  10.551   0.725   5.983 -0.1415  0.1722 -0.0031
  886MOL0     C22187  10.450   0.648   5.938  0.3754 -0.0662  0.0033
  886MOL0     C22188  10.379   0.682   5.820  0.6851 -0.3363  0.0743
  886MOL0     O22189  10.265   0.620   5.773  0.2826 -0.0540 -0.2116
  886MOL0     C22190  10.201   0.516   5.842  0.3999 -0.4187 -0.2411
  886MOL0     C22191  10.242   0.377   5.813  0.2311 -0.5831  0.3817
  886MOL0     C22192  10.159   0.268   5.880  0.4427  0.8439 -0.2013
  886MOL0     C22193  10.205   0.129   5.842 -0.7989 -0.0707 -0.1702
  886MOL0     C22194  10.354   0.113   5.867 -0.6142  0.1133  0.5333
  886MOL0     C22195  10.472   0.095   5.879 -0.5582 -0.1178  0.0830
  886MOL0     C22196  10.429   0.792   5.751  0.5706  0.0047 -0.1882
  886MOL0     C22197  10.534   0.877   5.789  0.7612 -0.3912 -0.7962
  886MOL0     C22198  10.560   0.994   5.689 -0.0389 -0.1905 -0.8281
  886MOL0     H22199  10.753   1.103   6.248 -0.4902  0.1526  0.5047
  886MOL0     H22200  10.949   1.192   6.371  2.4721 -1.1904  1.9016
  886MOL0     H22201  11.371   1.007   6.319 -2.8893  3.5669 -3.0424
  886MOL0     H22202  11.261   0.918   6.423  0.3195 -0.2638 -0.7985
  886MOL0     H22203  11.311   1.123   6.597  0.0943 -0.0424  0.6462
  886MOL0     H22204  11.429   1.003   6.592  1.5529 -0.4861 -1.1489
  886MOL0     H22205  11.542   1.214   6.562  0.1534 -2.3785 -0.0781
  886MOL0     H22206  11.552   1.113   6.414 -1.3917 -2.5278 -0.1767
  886MOL0     H22207  11.360   1.242   6.317  3.2707 -2.8640 -2.3076
  886MOL0     H22208  11.375   1.354   6.459  0.6103 -0.5005 -0.2820
  886MOL0     H22209  11.566   1.317   6.215 -0.9882 -1.9219 -0.2267
  886MOL0     H22210  11.612   1.393   6.376 -1.5096  2.3879  0.5296
  886MOL0     H22211  11.393   1.465   6.172 -2.3482  3.6067 -1.0862
  886MOL0     H22212  11.379   1.513   6.350 -1.1235 -0.7094 -1.1773
  886MOL0     H22213  11.571   1.640   6.329  0.0732  0.7773  0.1751
  886MOL0     H22214  11.481   1.683   6.181  0.3964 -0.6573  0.6091
  886MOL0     H22215  11.712   1.674   6.142 -1.7976 -0.0124 -2.1082
  886MOL0     H22216  11.709   1.501   6.168  0.6900  0.3148 -1.5932
  886MOL0     H22217  11.652   1.360   5.963 -1.2923 -1.0350  1.5380
  886MOL0     H22218  11.558   1.347   5.677 -0.1427  0.8040 -1.0823
  886MOL0     H22219  11.389   1.390   5.676 -1.1374  0.7452  1.5240
  886MOL0     H22220  11.453   1.134   5.725  0.0401  1.1835 -1.1923
  886MOL0     H22221  11.511   1.189   5.878  2.3600  1.3125 -0.3518
  886MOL0     H22222  11.266   1.290   5.900 -1.3971 -0.7631  1.1831
  886MOL0     H22223  11.226   1.202   5.754 -2.5215  1.5352  2.5198
  886MOL0     H22224  11.297   1.103   6.032 -0.3297  2.4804  0.7417
  886MOL0     H22225  11.147   1.099   5.952  0.5570 -0.2886  2.8653
  886MOL0     H22226  11.075   1.042   5.749  2.8177 -0.9610  5.6061
  886MOL0     H22227  10.915   0.965   5.449  0.5010  1.8998  0.1110
  886MOL0     H22228  10.895   0.999   5.622  4.0999  0.1518  2.0853
  886MOL0     H22229  10.857   0.841   5.567 -1.4531  0.7286 -0.3459
  886MOL0     H22230  10.934   0.468   5.444 -0.5153  0.5991 -0.8209
  886MOL0     H22231  10.843   0.295   5.301  0.5224 -0.3159  2.0018
  886MOL0     H22232  10.998   0.289   4.928 -0.3367  1.3157  0.4806
  886MOL0     H22233  11.104   0.147   4.936  0.0980  1.5713 -2.3230
  886MOL0     H22234  10.918   0.131   4.771 -2.3787 -3.9568 -1.4392
  886MOL0     H22235  10.895   0.007   4.902  2.1871 -0.0161  0.9256
  886MOL0     H22236  10.771   0.287   4.910  3.5438 -0.2448  3.2098
  886MOL0     H22237  10.738   0.141   5.004  0.4397 -1.2739 -1.0188
  886MOL0     H22238  10.628   0.039   4.843 -0.7375 -1.2839 -3.0694
  886MOL0     H22239  10.713   0.122   4.709  0.8546  1.3936  0.0941
  886MOL0     H22240  10.506   0.247   4.902 -0.3186  1.9883 -0.6563
  886MOL0     H22241  10.569   0.322   4.747  1.3826  0.4233 -1.1233
  886MOL0     H22242  10.375   0.071   4.777  2.7743 -1.9438 -0.9238
  886MOL0     H22243  10.428   0.147   4.622 -0.4992  1.6433  0.3603
  886MOL0     H22244  10.347   0.359   4.671  1.2080 -0.6576 -0.3661
  886MOL0     H22245  10.291   0.316   4.832  0.4027  0.0031 -0.1679
  886MOL0     H22246  10.191   0.191   4.564 -0.8844  0.8870 -0.9960
  886MOL0     H22247  10.109   0.322   4.632 -0.1861 -1.5273 -3.9303
  886MOL0     H22248  11.199   0.291   5.072  0.0844  1.3665 -0.7279
  886MOL0     H22249  11.284   0.490   5.194 -0.9583  0.5914  0.0769
  886MOL0     H22250  11.291   0.655   5.567 -1.0957 -0.8789 -0.4197
  886MOL0     H22251  11.389   0.782   5.742 -0.8864 -0.6756 -0.1644
  886MOL0     H22252  11.207   0.923   6.148  0.6763  2.6155 -1.8673
  886MOL0     H22253  10.993   0.828   6.036 -1.0530 -2.7682  1.5633
  886MOL0     H22254  10.611   0.680   6.061  2.4895  1.7910 -0.9686
  886MOL0     H22255  10.415   0.560   5.992 -1.2757  1.4379  1.5319
  886MOL0     H22256  10.202   0.542   5.948 -1.3295  0.7924 -0.4848
  886MOL0     H22257  10.097   0.528   5.810 -0.9480 -1.0945  3.4261
  886MOL0     H22258  10.347   0.383   5.845 -0.4284  0.3743  2.5837
  886MOL0     H22259  10.233   0.366   5.705  0.8674 -1.0580  0.3704
  886MOL0     H22260  10.160   0.277   5.989 -2.1328 -1.3945  0.0910
  886MOL0     H22261  10.054   0.273   5.849  0.4862 -2.9031 -1.3893
  886MOL0     H22262  10.196   0.116   5.733 -2.2791 -1.8089  0.0949
  886MOL0     H22263  10.153   0.053   5.903  0.4668 -0.9882 -0.2007
  886MOL0     H22264  10.579   0.089   5.888 -0.6443 -0.6929  0.8472
  886MOL0     H22265  10.375   0.819   5.661  0.1044 -1.6524 -0.4235
  886MOL0     H22266  10.588   1.084   5.745 -0.0511 -1.5254  1.4417
  886MOL0     H22267  10.641   0.981   5.617  1.5970  3.3250  0.1485
  886MOL0     H22268  10.464   1.013   5.639 -0.8471  0.2160  0.8162
  887MOL0     O22269   2.047   1.733   7.823  0.2482 -0.2244  0.2490
  887MOL0     C22270   1.994   1.847   7.813 -0.4431  0.5516 -0.3025
  887MOL0     O22271   1.931   1.909   7.910 -0.1731  0.4111  0.1989
  887MOL0     C22272   1.907   1.846   8.031 -0.0824 -0.0051 -0.4337
  887MOL0     C22273   1.917   1.932   8.135 -0.3789 -0.9240 -0.2186
  887MOL0     C22274   1.883   1.889   8.261 -1.1391  0.7133 -0.5499
  887MOL0     C22275   1.848   1.752   8.278  0.3959 -0.2577 -0.0858
  887MOL0     O22276   1.825   1.720   8.411 -0.3694 -0.6947 -0.5554
  887MOL0     C22277   1.755   1.600   8.451  0.5825 -0.5514 -0.2295
  887MOL0     C22278   1.787   1.585   8.598 -0.8241 -0.3266 -0.1626
  887MOL0     C22279   1.692   1.482   8.660  0.6693 -0.2239 -0.5341
  887MOL0     C22280   1.755   1.383   8.753  0.1921  0.0248  0.1334
  887MOL0     C22281   1.850   1.285   8.679  0.0376 -0.9219 -0.9298
  887MOL0     C22282   1.928   1.194   8.777  0.3316 -0.2443  1.8194
  887MOL0     C22283   2.061   1.259   8.833 -0.3566  0.5270  0.4331
  887MOL0     C22284   2.151   1.174   8.931 -0.3486 -0.1851  0.1352
  887MOL0     N22285   2.224   1.052   8.890  0.2107 -0.0464  0.7591
  887MOL0     C22286   2.185   0.961   8.797  0.2806 -0.7181 -0.9573
  887MOL0     C22287   2.287   0.871   8.792 -0.5587 -0.6471  0.4260
  887MOL0     C22288   2.291   0.755   8.697 -1.0650  0.1982  0.4767
  887MOL0     C22289   2.278   0.800   8.550  0.0683  0.1521 -0.6710
  887MOL0     C22290   2.397   0.891   8.512  0.8625  0.8210  0.2488
  887MOL0     C22291   2.375   0.925   8.363  0.6491  0.4579  0.2844
  887MOL0     O22292   2.265   1.019   8.354  0.7998 -0.3108  0.6948
  887MOL0     C22293   2.316   1.152   8.334  0.3603  0.4298  0.9630
  887MOL0     C22294   2.304   1.258   8.428 -1.2007 -0.2086  0.7936
  887MOL0     C22295   2.367   1.380   8.409 -0.0878 -1.0264 -0.0821
  887MOL0     C22296   2.332   1.490   8.511  0.0610 -0.1223  0.0635
  887MOL0     C22297   2.449   1.398   8.297  0.1728 -0.0632  0.3190
  887MOL0     C22298   2.521   1.526   8.299 -0.8998 -0.3719  1.0878
  887MOL0     O22299   2.490   1.606   8.190 -0.5172  0.2635  0.1460
  887MOL0     C22300   2.522   1.742   8.191 -0.1270  0.6314 -0.0797
  887MOL0     C22301   2.597   1.779   8.083  0.3739 -0.6247 -0.3264
  887MOL0     C22302   2.640   1.914   8.071  0.4926  0.2185 -0.0881
  887MOL0     C22303   2.624   2.001   8.180 -0.2402 -0.8103 -0.2419
  887MOL0     O22304   2.663   2.132   8.170 -0.5008 -0.0711 -0.3484
  887MOL0     C22305   2.652   2.182   8.035 -0.1931 -0.9604 -0.8133
  887MOL0     C22306   2.623   2.333   8.028  0.3619 -0.1057 -0.2425
  887MOL0     C22307   2.746   2.390   7.959 -0.2730  1.0135  0.0023
  887MOL0     C22308   2.737   2.536   7.977  0.3246 -0.0074  1.3183
  887MOL0     C22309   2.875   2.585   8.013 -0.7630  1.1976  0.0392
  887MOL0     C22310   2.882   2.735   8.062  0.2821  1.1019  0.2440
  887MOL0     C22311   2.895   2.831   7.943  0.0161  0.2152 -0.4995
  887MOL0     C22312   2.856   2.972   7.971 -0.4318  0.3652  0.3023
  887MOL0    Cl22313   2.701   2.998   8.056 -0.1461  0.4318 -0.2515
  887MOL0     C22314   2.545   1.967   8.287  0.6718 -0.7705 -0.4640
  887MOL0     C22315   2.502   1.836   8.298 -0.3564 -0.5357  0.0532
  887MOL0     O22316   2.594   1.559   8.388 -0.0040 -0.2407  0.8432
  887MOL0     C22317   2.462   1.301   8.196 -0.1037 -0.0336 -0.9988
  887MOL0     C22318   2.388   1.181   8.215 -0.2730 -0.0824 -0.1022
  887MOL0     N22319   2.393   0.916   8.869 -0.7955 -0.4208  0.1426
  887MOL0     N22320   2.351   1.027   8.926 -0.2802 -0.1973  0.0347
  887MOL0     C22321   1.844   1.662   8.168 -0.9731 -0.2167 -0.5125
  887MOL0     C22322   1.883   1.711   8.044  0.6910 -0.3318 -0.2099
  887MOL0     C22323   1.985   1.911   7.677 -0.5389  0.2922  0.0727
  887MOL0     C22324   1.944   2.043   7.673 -0.4808  0.0441  0.2812
  887MOL0     C22325   1.925   2.109   7.552 -0.0922  0.0284  0.0611
  887MOL0     C22326   1.963   2.040   7.431 -1.2988  0.5712 -0.5734
  887MOL0     O22327   1.957   2.092   7.300  0.2708 -0.5595  0.3476
  887MOL0     C22328   2.011   2.228   7.278  0.3675  0.5844 -0.1194
  887MOL0     C22329   1.900   2.315   7.202 -0.3947  0.5352 -0.1818
  887MOL0     C22330   1.794   2.359   7.308 -0.0277 -0.4732  0.0184
  887MOL0     C22331   1.820   2.484   7.385  0.7995  0.1399 -0.3927
  887MOL0     C22332   1.940   2.496   7.469  0.3132  0.4943 -0.3721
  887MOL0     C22333   2.048   2.513   7.526  0.0952  1.1218  0.2395
  887MOL0     C22334   2.016   1.912   7.435  0.2522 -0.0625  0.2200
  887MOL0     C22335   2.029   1.843   7.553  0.1346 -0.2930  0.5265
  887MOL0     C22336   2.083   1.710   7.535 -0.2501  0.7686 -0.6755
  887MOL0     H22337   1.957   2.033   8.129  0.8987 -1.2200  1.9356
  887MOL0     H22338   1.894   1.949   8.351 -2.1193 -2.2970  1.7587
  887MOL0     H22339   1.800   1.517   8.395  0.1587  1.0535 -3.1052
  887MOL0     H22340   1.651   1.621   8.429  0.7311  0.0046 -0.4067
  887MOL0     H22341   1.891   1.556   8.612 -0.1610  0.6573 -2.6838
  887MOL0     H22342   1.774   1.668   8.669 -0.6960 -2.7605  2.9149
  887MOL0     H22343   1.623   1.540   8.722 -0.0894 -0.6586 -0.9458
  887MOL0     H22344   1.617   1.436   8.593 -0.7541 -0.7341  1.3305
  887MOL0     H22345   1.797   1.448   8.830 -1.1115 -0.9939  1.7769
  887MOL0     H22346   1.683   1.324   8.811 -2.5640  2.7353 -0.2333
  887MOL0     H22347   1.919   1.343   8.618 -0.9256 -2.2633 -3.4517
  887MOL0     H22348   1.776   1.228   8.623 -1.0210  0.8752 -1.4353
  887MOL0     H22349   1.866   1.159   8.861 -3.0007 -1.0552 -0.7347
  887MOL0     H22350   1.949   1.102   8.722  2.5926 -0.7191  3.3443
  887MOL0     H22351   2.039   1.353   8.885 -2.0198  1.4148 -1.7126
  887MOL0     H22352   2.123   1.281   8.745  0.2655 -4.5717 -0.6983
  887MOL0     H22353   2.222   1.244   8.977 -0.7337  0.1222  0.2688
  887MOL0     H22354   2.084   1.137   9.010  0.3623  0.3012  0.9853
  887MOL0     H22355   2.089   0.974   8.748  0.6535  0.9985 -1.3050
  887MOL0     H22356   2.209   0.690   8.728 -0.7015  0.0407  1.1259
  887MOL0     H22357   2.386   0.700   8.697 -0.6431  0.6526 -3.2810
  887MOL0     H22358   2.261   0.710   8.489  2.0489 -0.6830 -0.0772
  887MOL0     H22359   2.180   0.847   8.538 -1.1951 -2.1088  0.2869
  887MOL0     H22360   2.402   0.988   8.561  1.7523  2.3990 -2.7549
  887MOL0     H22361   2.498   0.849   8.525  2.2558  4.4146  2.3888
  887MOL0     H22362   2.469   0.974   8.337  0.5776  0.7589  0.5920
  887MOL0     H22363   2.362   0.835   8.302  1.2955  0.1369  0.6156
  887MOL0     H22364   2.242   1.238   8.515 -2.2940  2.5687  0.7794
  887MOL0     H22365   2.422   1.530   8.557  0.3736  0.7857 -1.2996
  887MOL0     H22366   2.281   1.448   8.599 -0.1565  1.2492  0.6165
  887MOL0     H22367   2.271   1.568   8.465 -0.7334 -0.7936 -0.0559
  887MOL0     H22368   2.612   1.706   8.004  1.7447 -0.1436 -0.5343
  887MOL0     H22369   2.683   1.940   7.975  0.5214 -0.0188 -0.1401
  887MOL0     H22370   2.738   2.148   7.977  0.2877 -1.3660  0.1148
  887MOL0     H22371   2.563   2.135   7.992 -0.2845 -1.3781 -0.1940
  887MOL0     H22372   2.542   2.351   7.956  3.1474 -0.8568 -3.8753
  887MOL0     H22373   2.598   2.372   8.127 -0.6178 -0.1490 -0.4550
  887MOL0     H22374   2.746   2.366   7.852  0.7811 -1.9596  0.5477
  887MOL0     H22375   2.840   2.349   7.998  0.2081  1.0915 -1.0503
  887MOL0     H22376   2.671   2.564   8.059 -1.3596  0.3792 -0.1165
  887MOL0     H22377   2.694   2.587   7.890 -1.6983 -2.7304  0.5820
  887MOL0     H22378   2.916   2.528   8.097 -0.4113  0.8870 -0.3371
  887MOL0     H22379   2.943   2.573   7.928 -1.3273 -2.3148 -0.0824
  887MOL0     H22380   2.981   2.735   8.110  1.1623  0.9174 -1.4878
  887MOL0     H22381   2.802   2.758   8.133 -1.7022 -2.2952 -0.6884
  887MOL0     H22382   2.844   2.785   7.858 -2.4467  1.6274  0.1157
  887MOL0     H22383   3.000   2.838   7.910 -0.0327 -0.7080 -0.8696
  887MOL0     H22384   2.848   3.026   7.877  0.2358 -1.0611 -0.5958
  887MOL0     H22385   2.935   3.008   8.038  1.6621 -0.1943 -1.7442
  887MOL0     H22386   2.537   2.026   8.378  0.6634 -0.5257 -0.6223
  887MOL0     H22387   2.453   1.814   8.392 -0.6013 -2.4846 -0.4830
  887MOL0     H22388   2.513   1.318   8.102  2.0011 -0.7560 -0.0505
  887MOL0     H22389   2.394   1.099   8.144  1.8646  0.3849 -0.5378
  887MOL0     H22390   1.823   1.560   8.198  1.3940 -0.6318 -0.1098
  887MOL0     H22391   1.891   1.648   7.956 -0.5078 -1.0322  0.1675
  887MOL0     H22392   1.932   2.094   7.768 -3.4451 -4.2943  2.5931
  887MOL0     H22393   1.894   2.213   7.550 -1.2198 -0.2744  0.7232
  887MOL0     H22394   2.052   2.266   7.372 -1.8435 -1.7728  1.9792
  887MOL0     H22395   2.098   2.215   7.214  1.4167  1.7608  1.0134
  887MOL0     H22396   1.854   2.254   7.123 -0.3230 -0.2314  0.3552
  887MOL0     H22397   1.956   2.400   7.162  0.2506  1.1094  1.8111
  887MOL0     H22398   1.703   2.369   7.247 -1.0994  1.6900  1.8628
  887MOL0     H22399   1.768   2.273   7.371 -0.8746 -1.2898 -1.3751
  887MOL0     H22400   1.746   2.491   7.466  0.2042 -1.2718 -0.7807
  887MOL0     H22401   1.811   2.573   7.322  1.5053  0.6466  0.2037
  887MOL0     H22402   2.145   2.525   7.568  0.7790 -1.0142 -0.5806
  887MOL0     H22403   2.054   1.869   7.343  0.8268 -1.7724  1.2128
  887MOL0     H22404   2.163   1.689   7.607  1.3134  1.3465 -2.1817
  887MOL0     H22405   2.003   1.637   7.545  0.3344  0.3617  1.6692
  887MOL0     H22406   2.122   1.697   7.434 -3.3532 -0.3785 -1.8476
  888MOL0     O22407   2.664  10.750  11.187  0.9762 -0.1907 -0.0912
  888MOL0     C22408   2.701  10.837  11.113 -1.3371  0.0743 -0.0667
  888MOL0     O22409   2.683  10.968  11.134 -0.1630  0.0108 -0.1856
  888MOL0     C22410   2.604  11.008  11.233 -0.4049 -0.2977 -0.2723
  888MOL0     C22411   2.469  10.971  11.245  0.6584  0.6121  0.0591
  888MOL0     C22412   2.399  11.037  11.340 -0.5664 -0.3794 -0.5654
  888MOL0     C22413   2.454  11.124  11.435 -0.4484  0.6166  0.3186
  888MOL0     O22414   2.353  11.174  11.520 -0.7753 -0.4049  0.8578
  888MOL0     C22415   2.396  11.233  11.649 -0.0385  0.0619  0.1618
  888MOL0     C22416   2.283  11.260  11.747  0.3678  0.3822  0.0353
  888MOL0     C22417   2.189  11.145  11.757  0.3200 -0.2803 -0.0447
  888MOL0     C22418   2.080  11.171  11.863 -0.1026  0.2206 -0.7752
  888MOL0     C22419   1.963  11.078  11.839 -0.0111  1.2301 -0.6064
  888MOL0     C22420   1.987  10.938  11.882 -0.3049 -0.4651 -0.2303
  888MOL0     C22421   1.848  10.870  11.891 -0.1454 -0.2217 -1.3697
  888MOL0     C22422   1.874  10.729  11.933  0.0518  0.6305 -0.3018
  888MOL0     N22423   1.906  10.700  12.076 -0.4290 -0.5303 -0.4189
  888MOL0     C22424   1.815  10.666  12.176  0.2630  0.6137 -0.0577
  888MOL0     C22425   1.890  10.656  12.283 -0.1025 -0.0090  0.0873
  888MOL0     C22426   1.825  10.642  12.420 -0.1777 -0.3029 -0.2799
  888MOL0     C22427   1.871  10.524  12.494  0.1057 -0.7695 -1.2836
  888MOL0     C22428   1.819  10.555  12.633 -0.1391  0.3528 -0.7813
  888MOL0     C22429   1.844  10.422  12.717 -0.5587 -0.2910  0.1628
  888MOL0     O22430   1.812  10.443  12.848 -0.2632  0.4679 -0.0562
  888MOL0     C22431   1.857  10.359  12.949 -0.9237 -0.7647 -0.3666
  888MOL0     C22432   1.773  10.362  13.060  0.8785 -0.1505  0.2339
  888MOL0     C22433   1.808  10.306  13.182  0.0070 -0.4498  0.6314
  888MOL0     C22434   1.729  10.325  13.304  0.2089  0.2665  0.3632
  888MOL0     C22435   1.927  10.225  13.183 -0.3901 -0.7831  0.6207
  888MOL0     C22436   1.964  10.152  13.299 -0.7759 -0.5221 -0.2218
  888MOL0     O22437   1.889  10.049  13.351 -0.0290  0.6703  0.0151
  888MOL0     C22438   1.963   9.950  13.409 -0.1109 -1.1031 -0.0290
  888MOL0     C22439   2.006   9.956  13.541  0.7316  0.7625 -0.5724
  888MOL0     C22440   2.074   9.843  13.593 -0.7848 -0.2077 -0.3645
  888MOL0     C22441   2.102   9.727  13.520  0.5268 -0.4485 -0.4024
  888MOL0     O22442   2.164   9.619  13.578 -0.5525 -0.5006 -0.4025
  888MOL0     C22443   2.297   9.648  13.631  0.5267 -0.1061  0.8220
  888MOL0     C22444   2.380   9.593  13.514  0.1314  0.8693  0.1088
  888MOL0     C22445   2.531   9.623  13.545  1.3127 -0.0159 -0.4301
  888MOL0     C22446   2.586   9.531  13.656 -0.8508  0.0509 -0.6119
  888MOL0     C22447   2.725   9.582  13.702 -0.4416 -0.2478  0.5199
  888MOL0     C22448   2.797   9.468  13.796 -0.1855 -0.5758 -0.4353
  888MOL0     C22449   2.947   9.500  13.785  0.4394 -0.8452  0.1161
  888MOL0     C22450   3.008   9.443  13.652  1.0920 -0.5968 -1.7233
  888MOL0    Cl22451   3.180   9.468  13.656  0.1976 -0.2512 -0.1690
  888MOL0     C22452   2.057   9.719  13.392 -0.0113 -0.3269 -0.3565
  888MOL0     C22453   1.993   9.835  13.330  0.4548  0.0389  0.3660
  888MOL0     O22454   2.080  10.174  13.335 -0.1949  0.4786  0.6293
  888MOL0     C22455   1.997  10.209  13.067 -0.9392 -0.4326  0.0606
  888MOL0     C22456   1.963  10.275  12.947  0.3162 -0.6392 -0.4951
  888MOL0     N22457   2.024  10.689  12.255 -0.5917  0.1097 -0.2502
  888MOL0     N22458   2.037  10.704  12.130 -0.0583  0.1160 -0.2978
  888MOL0     C22459   2.582  11.170  11.415  0.2513 -0.2224  0.2503
  888MOL0     C22460   2.668  11.103  11.319 -0.2375  0.3380 -0.9600
  888MOL0     C22461   2.751  10.787  10.978 -0.2290  0.7737  0.1428
  888MOL0     C22462   2.721  10.855  10.862 -1.0763 -0.3834  0.1444
  888MOL0     C22463   2.773  10.817  10.737 -0.2444  0.2066 -0.4468
  888MOL0     C22464   2.851  10.699  10.724 -0.4322 -0.0459 -0.5998
  888MOL0     O22465   2.898  10.660  10.595 -0.0385 -0.6610 -0.3395
  888MOL0     C22466   2.914  10.759  10.489  0.3698  0.4133  0.1637
  888MOL0     C22467   3.012  10.717  10.378 -0.5265 -0.0200 -0.4383
  888MOL0     C22468   2.959  10.586  10.313 -0.7038  1.0084 -0.2891
  888MOL0     C22469   2.994  10.582  10.157  0.1300  0.4687 -0.7144
  888MOL0     C22470   3.139  10.577  10.137  0.3793  0.2155  0.4242
  888MOL0     C22471   3.252  10.571  10.103 -0.0818  0.3926 -0.0705
  888MOL0     C22472   2.873  10.619  10.843 -0.8549 -0.2105 -1.1181
  888MOL0     C22473   2.828  10.673  10.970  0.1327 -0.1882  0.4407
  888MOL0     C22474   2.895  10.615  11.089  0.2873  0.7112  0.9662
  888MOL0     H22475   2.429  10.898  11.175 -0.7700 -0.9784  2.3646
  888MOL0     H22476   2.294  11.010  11.352  0.3780 -4.0287  0.9364
  888MOL0     H22477   2.455  11.325  11.650 -0.2240  0.2130 -1.1441
  888MOL0     H22478   2.458  11.160  11.702  1.9667  3.2211  2.5125
  888MOL0     H22479   2.322  11.271  11.849 -3.0742  0.2903  1.4893
  888MOL0     H22480   2.221  11.346  11.723  0.1724 -0.4277 -2.6751
  888MOL0     H22481   2.139  11.132  11.661 -1.3474  2.3018  0.3865
  888MOL0     H22482   2.240  11.051  11.783 -2.0352 -0.6425  4.2424
  888MOL0     H22483   2.122  11.145  11.961 -0.1895  1.2217 -0.4608
  888MOL0     H22484   2.052  11.276  11.859 -0.3031  0.2060  0.1131
  888MOL0     H22485   1.933  11.075  11.734 -0.2695 -0.4127 -0.5103
  888MOL0     H22486   1.885  11.128  11.898 -1.1785 -1.3084  0.1707
  888MOL0     H22487   2.049  10.885  11.809 -0.7922 -2.3209  0.6475
  888MOL0     H22488   2.046  10.935  11.974  0.8695  0.2696 -0.9288
  888MOL0     H22489   1.798  10.869  11.793  1.9216  2.2646 -2.5726
  888MOL0     H22490   1.783  10.919  11.965  1.1531 -0.2420 -0.1807
  888MOL0     H22491   1.780  10.681  11.904 -1.0574  3.7864 -2.5624
  888MOL0     H22492   1.953  10.692  11.867  0.3974  1.6919 -0.5116
  888MOL0     H22493   1.706  10.662  12.175  0.1000  3.3509 -1.5945
  888MOL0     H22494   1.719  10.638  12.395 -0.7036  0.7144  1.5885
  888MOL0     H22495   1.854  10.727  12.482  1.0128 -0.7618 -0.1647
  888MOL0     H22496   1.818  10.441  12.448 -0.2667  0.7460 -3.7819
  888MOL0     H22497   1.979  10.508  12.500  0.2462  0.3624  3.8673
  888MOL0     H22498   1.877  10.636  12.679  2.4797 -0.9216 -1.6432
  888MOL0     H22499   1.710  10.560  12.631 -0.2360 -1.3505 -2.1250
  888MOL0     H22500   1.781  10.348  12.668 -2.8374  1.9357 -0.4989
  888MOL0     H22501   1.951  10.397  12.712  0.1552  2.3207  0.8643
  888MOL0     H22502   1.694  10.435  13.047  0.9741 -0.1021 -0.0879
  888MOL0     H22503   1.649  10.398  13.288  1.0144  0.6641 -2.5612
  888MOL0     H22504   1.793  10.345  13.390  0.9193  2.2156 -0.5602
  888MOL0     H22505   1.692  10.225  13.327 -0.5558  0.3350 -0.5084
  888MOL0     H22506   1.990  10.048  13.597 -0.3092  0.9527 -1.1567
  888MOL0     H22507   2.105   9.856  13.696  1.3192  0.8223 -1.0733
  888MOL0     H22508   2.309   9.757  13.638 -1.4299  0.4688 -2.3767
  888MOL0     H22509   2.310   9.599  13.727 -0.0547 -2.1944 -0.1189
  888MOL0     H22510   2.361   9.486  13.505  1.6518  0.5433  0.6141
  888MOL0     H22511   2.349   9.636  13.418 -4.4526 -0.8529  0.5829
  888MOL0     H22512   2.542   9.730  13.567  2.4624 -0.4006  1.0087
  888MOL0     H22513   2.601   9.603  13.464  1.7576  0.1753 -0.0985
  888MOL0     H22514   2.585   9.425  13.628  2.5530 -0.4449  0.6706
  888MOL0     H22515   2.514   9.521  13.737 -0.6630  0.0821 -0.4417
  888MOL0     H22516   2.777   9.594  13.607 -1.5287  1.0005  0.0503
  888MOL0     H22517   2.720   9.680  13.750 -2.4289 -1.4810  3.0924
  888MOL0     H22518   2.787   9.365  13.762  0.2553 -1.0747  0.8808
  888MOL0     H22519   2.763   9.485  13.898 -2.9192 -0.4565 -1.2867
  888MOL0     H22520   2.994   9.451  13.871 -0.0094 -3.3703 -0.9778
  888MOL0     H22521   2.973   9.606  13.779 -1.3406 -0.1881  2.4107
  888MOL0     H22522   2.966   9.505  13.573 -1.5472  0.8962  0.6370
  888MOL0     H22523   2.996   9.335  13.634  0.8793 -0.5017 -2.1503
  888MOL0     H22524   2.085   9.637  13.327  0.0504 -0.9537  0.4500
  888MOL0     H22525   1.960   9.812  13.229 -1.7060 -0.8041  1.2224
  888MOL0     H22526   2.082  10.142  13.053  0.3706  1.5224 -2.0270
  888MOL0     H22527   2.012  10.265  12.851  0.8107 -1.8777 -0.1392
  888MOL0     H22528   2.625  11.249  11.477  1.7574 -2.2467  1.9311
  888MOL0     H22529   2.774  11.126  11.316  0.5178 -2.3405  1.2449
  888MOL0     H22530   2.642  10.929  10.858 -1.7680 -1.1603 -1.7209
  888MOL0     H22531   2.734  10.881  10.659  1.4114  2.5413  0.5179
  888MOL0     H22532   2.815  10.782  10.450 -0.5169 -3.8153 -0.5257
  888MOL0     H22533   2.948  10.845  10.549 -1.7469  0.6204  1.1523
  888MOL0     H22534   3.111  10.711  10.423 -1.1645 -1.3893  0.8592
  888MOL0     H22535   3.001  10.802  10.310 -0.6182  0.3409  0.0251
  888MOL0     H22536   3.006  10.496  10.353  3.4089  0.5856 -5.0796
  888MOL0     H22537   2.850  10.584  10.324 -0.4778 -1.3668  3.0831
  888MOL0     H22538   2.945  10.670  10.114 -2.1791 -0.2081  0.4043
  888MOL0     H22539   2.952  10.496  10.106  3.0212 -0.2270 -2.1181
  888MOL0     H22540   3.357  10.586  10.085  0.5010 -0.6146  2.0875
  888MOL0     H22541   2.927  10.525  10.834 -1.4514 -1.3461  4.0372
  888MOL0     H22542   2.963  10.534  11.060 -2.1444 -1.3066  0.6128
  888MOL0     H22543   2.945  10.694  11.147  1.4356 -0.3838  1.5212
  888MOL0     H22544   2.825  10.563  11.155  1.4244 -2.7252 -0.3146
  889MOL0     O22545   6.555   6.122   7.558 -0.0618  0.0311 -0.1179
  889MOL0     C22546   6.555   6.015   7.510 -0.5117  0.3544 -0.2650
  889MOL0     O22547   6.476   5.969   7.409  0.1767 -0.5362  0.4546
  889MOL0     C22548   6.383   6.059   7.371  1.0182  0.4432 -0.1113
  889MOL0     C22549   6.256   6.058   7.440  0.2200 -0.3202  0.1018
  889MOL0     C22550   6.151   6.139   7.398 -0.2906  0.2225  0.7713
  889MOL0     C22551   6.173   6.218   7.281 -0.0441  0.0880 -1.0829
  889MOL0     O22552   6.083   6.317   7.249  0.5213 -1.0020  0.2707
  889MOL0     C22553   5.941   6.290   7.252 -0.0030  0.2649 -0.6530
  889MOL0     C22554   5.904   6.154   7.183  0.7072  0.0245  1.1787
  889MOL0     C22555   5.901   6.173   7.033 -0.1540 -0.1941  0.7348
  889MOL0     C22556   5.853   6.041   6.958  1.3363  0.2758  0.8581
  889MOL0     C22557   5.970   5.947   6.928  0.5891 -0.0307  0.5132
  889MOL0     C22558   6.045   6.006   6.804 -0.4115  0.4215 -0.5844
  889MOL0     C22559   6.196   5.952   6.805  0.0414  0.3592 -0.3657
  889MOL0     C22560   6.285   6.036   6.901 -0.5751 -0.2113  0.8092
  889MOL0     N22561   6.420   5.972   6.891 -0.1739 -0.5995 -0.0575
  889MOL0     C22562   6.505   5.981   6.783  0.8587 -0.3575 -0.4849
  889MOL0     C22563   6.610   5.924   6.836 -0.9785  0.3487 -0.1362
  889MOL0     C22564   6.743   5.912   6.758 -0.0292  0.2478  0.1319
  889MOL0     C22565   6.807   6.050   6.733  0.9418  0.5565  0.5350
  889MOL0     C22566   6.766   6.087   6.587 -1.1261 -0.9077  0.2346
  889MOL0     C22567   6.842   6.211   6.540  0.0079  1.1633  0.2757
  889MOL0     O22568   6.780   6.335   6.587 -0.5154  0.1101 -0.2751
  889MOL0     C22569   6.662   6.368   6.517 -1.1064 -0.0585 -0.6989
  889MOL0     C22570   6.544   6.336   6.584 -0.3102  0.6561  0.8723
  889MOL0     C22571   6.413   6.357   6.528  0.3560 -0.3359 -0.4612
  889MOL0     C22572   6.292   6.324   6.618  0.1261 -0.0221 -0.1262
  889MOL0     C22573   6.407   6.416   6.407  0.5289 -0.9678 -0.0983
  889MOL0     C22574   6.280   6.442   6.342  0.3013 -0.4025 -1.6797
  889MOL0     O22575   6.276   6.565   6.276 -0.4212  0.5932 -0.5651
  889MOL0     C22576   6.165   6.606   6.207 -0.4259 -0.2806  0.1890
  889MOL0     C22577   6.186   6.644   6.073  1.2470 -0.7326  0.8028
  889MOL0     C22578   6.078   6.686   5.996 -0.6802 -0.1708 -0.6723
  889MOL0     C22579   5.943   6.686   6.042  0.0483 -0.3621 -0.4273
  889MOL0     O22580   5.857   6.756   5.953 -0.3683 -0.2287 -0.1873
  889MOL0     C22581   5.711   6.741   5.982 -0.6615 -0.3216 -0.0628
  889MOL0     C22582   5.645   6.626   5.918  0.2897 -0.0111  0.4787
  889MOL0     C22583   5.662   6.491   5.995 -0.0526 -0.5621 -0.0404
  889MOL0     C22584   5.554   6.397   5.971 -1.3422  0.3085  0.0934
  889MOL0     C22585   5.542   6.297   6.079 -0.2215 -1.0829  0.2012
  889MOL0     C22586   5.410   6.218   6.057  0.2025  0.3515 -0.3195
  889MOL0     C22587   5.419   6.103   5.961 -0.1501  0.1793  0.5188
  889MOL0     C22588   5.410   6.123   5.806 -0.0241 -0.9267 -0.2291
  889MOL0    Cl22589   5.529   6.044   5.706 -0.0278 -0.0323 -0.0860
  889MOL0     C22590   5.922   6.632   6.169 -0.5826  0.2002  0.1468
  889MOL0     C22591   6.034   6.601   6.258 -0.0770 -0.8898  0.9011
  889MOL0     O22592   6.191   6.360   6.351  0.3437  0.2578  0.0625
  889MOL0     C22593   6.525   6.455   6.337  0.6280 -0.1455 -1.1112
  889MOL0     C22594   6.657   6.426   6.391  0.4407  0.1569 -0.1340
  889MOL0     N22595   6.589   5.887   6.972  0.0125  0.3411  0.3970
  889MOL0     N22596   6.475   5.919   7.003 -0.7943 -0.1165 -0.4818
  889MOL0     C22597   6.293   6.226   7.214 -0.8107  0.1653 -0.0364
  889MOL0     C22598   6.395   6.138   7.255  0.4928 -0.3813  0.7977
  889MOL0     C22599   6.658   5.908   7.558  0.5050 -0.2852  1.2387
  889MOL0     C22600   6.633   5.772   7.520 -0.6366 -0.1566  0.9621
  889MOL0     C22601   6.726   5.673   7.568  0.8216  0.7801 -0.0817
  889MOL0     C22602   6.833   5.701   7.654 -1.0222 -0.0295 -0.5823
  889MOL0     O22603   6.920   5.606   7.709 -0.3464 -1.3741  0.6123
  889MOL0     C22604   6.911   5.466   7.670  0.6561 -0.1473 -0.0188
  889MOL0     C22605   7.043   5.405   7.706  0.7124 -1.4019 -0.4558
  889MOL0     C22606   7.060   5.271   7.637  0.4295 -0.5114  0.5500
  889MOL0     C22607   7.033   5.166   7.744  0.6068 -0.3889 -0.3130
  889MOL0     C22608   7.020   5.035   7.690 -0.4417 -0.3067 -0.3087
  889MOL0     C22609   7.026   4.926   7.641  0.0919 -0.1540 -0.7777
  889MOL0     C22610   6.859   5.836   7.671 -0.7775  0.1384 -0.3642
  889MOL0     C22611   6.780   5.937   7.625  0.0660 -0.1560 -0.3528
  889MOL0     C22612   6.824   6.075   7.663  0.5876 -0.6834 -0.6271
  889MOL0     H22613   6.242   5.985   7.520  0.7734  0.9876  1.4497
  889MOL0     H22614   6.055   6.142   7.450 -1.4462  0.6284 -1.3044
  889MOL0     H22615   5.878   6.361   7.199  1.2824  0.7535 -1.5874
  889MOL0     H22616   5.907   6.290   7.356  1.0952 -0.1659 -0.2692
  889MOL0     H22617   5.973   6.074   7.212  1.2901 -0.5391 -1.4650
  889MOL0     H22618   5.804   6.125   7.217  0.3968  0.6584  0.8268
  889MOL0     H22619   5.831   6.255   7.013  0.4403  0.0400 -0.4702
  889MOL0     H22620   6.003   6.199   7.002 -0.6552 -0.0934 -0.9070
  889MOL0     H22621   5.772   5.985   7.006  1.3361 -0.4734  0.0109
  889MOL0     H22622   5.804   6.069   6.864  0.2078 -1.0385  1.0170
  889MOL0     H22623   5.923   5.853   6.899 -1.6122  1.5590 -1.4073
  889MOL0     H22624   6.039   5.928   7.011  1.4705  1.1092  0.0780
  889MOL0     H22625   5.989   5.969   6.717  1.4272 -1.4061 -1.0520
  889MOL0     H22626   6.049   6.112   6.779 -0.9852 -0.0038 -2.6345
  889MOL0     H22627   6.234   5.960   6.702  0.0065 -2.9100 -0.7393
  889MOL0     H22628   6.197   5.851   6.848 -2.0926  0.3530 -0.2154
  889MOL0     H22629   6.288   6.144   6.880  1.3730 -0.1173  1.3805
  889MOL0     H22630   6.234   6.036   6.998 -2.1864  2.4113  0.0816
  889MOL0     H22631   6.485   6.020   6.684 -1.2888  5.3453  1.7335
  889MOL0     H22632   6.716   5.864   6.664  1.6127  0.6882 -0.6048
  889MOL0     H22633   6.808   5.847   6.817 -0.5963 -2.0869 -1.6923
  889MOL0     H22634   6.759   6.118   6.805 -2.6506  0.8314 -1.8709
  889MOL0     H22635   6.916   6.047   6.739  0.9483 -1.3113 -0.0130
  889MOL0     H22636   6.800   6.006   6.522 -0.8467 -1.1940  0.7308
  889MOL0     H22637   6.659   6.105   6.577 -1.3946 -1.7907  1.3495
  889MOL0     H22638   6.946   6.199   6.574  0.2844 -0.6166 -1.0021
  889MOL0     H22639   6.855   6.209   6.432  0.0941 -1.9368  0.2384
  889MOL0     H22640   6.568   6.287   6.678 -0.3458  2.7892  2.0442
  889MOL0     H22641   6.231   6.414   6.622  1.8950  1.4531 -2.9227
  889MOL0     H22642   6.320   6.302   6.722 -0.4669  3.2936  0.8661
  889MOL0     H22643   6.242   6.241   6.568 -0.8034  0.7536 -0.5127
  889MOL0     H22644   6.286   6.656   6.033  0.0097  2.2169 -1.7765
  889MOL0     H22645   6.081   6.720   5.893  0.5958  1.0550 -0.2662
  889MOL0     H22646   5.693   6.756   6.088 -1.6196  0.8106 -0.3739
  889MOL0     H22647   5.660   6.827   5.939  0.6215  0.8974  0.7611
  889MOL0     H22648   5.540   6.658   5.915  1.0655  2.7792 -2.1259
  889MOL0     H22649   5.679   6.608   5.816 -1.7262  2.9753 -0.8602
  889MOL0     H22650   5.671   6.515   6.101 -4.0636  2.2831 -0.1311
  889MOL0     H22651   5.756   6.445   5.961  0.2914 -0.7448  1.1279
  889MOL0     H22652   5.572   6.351   5.873  1.0032 -0.6095  0.8903
  889MOL0     H22653   5.466   6.462   5.979 -0.4192  2.0581 -2.6728
  889MOL0     H22654   5.632   6.235   6.076 -0.7776 -1.8879 -0.1622
  889MOL0     H22655   5.543   6.350   6.175  2.5460  1.0411 -0.8427
  889MOL0     H22656   5.330   6.285   6.024 -1.0621 -0.8164  0.2713
  889MOL0     H22657   5.381   6.170   6.151  1.5735  0.7272  0.3219
  889MOL0     H22658   5.338   6.033   5.983  2.1912 -3.4202 -1.3720
  889MOL0     H22659   5.514   6.049   5.960  1.1311  2.3167 -0.1121
  889MOL0     H22660   5.422   6.230   5.786  1.5811 -1.2275 -0.9953
  889MOL0     H22661   5.311   6.102   5.767 -1.1032  0.5585  1.5394
  889MOL0     H22662   5.826   6.624   6.219 -0.5236  1.4192  0.4842
  889MOL0     H22663   6.014   6.574   6.361 -0.5071 -0.5481  0.9117
  889MOL0     H22664   6.519   6.513   6.246 -1.4846  2.1763  0.3656
  889MOL0     H22665   6.754   6.450   6.349  0.8497 -0.3261  0.5183
  889MOL0     H22666   6.324   6.294   7.135  0.1270 -0.3786 -0.1551
  889MOL0     H22667   6.493   6.158   7.212  1.4910 -1.2659  2.5592
  889MOL0     H22668   6.543   5.738   7.470 -1.2466  0.4656  1.6049
  889MOL0     H22669   6.705   5.569   7.543 -0.3317  0.3512  2.4175
  889MOL0     H22670   6.825   5.417   7.717 -0.4096 -1.7782 -3.3683
  889MOL0     H22671   6.889   5.450   7.564  3.6827  0.6843 -0.8617
  889MOL0     H22672   7.055   5.385   7.813 -0.3526  2.8164  0.6542
  889MOL0     H22673   7.123   5.470   7.669  1.9032 -2.4793  0.1489
  889MOL0     H22674   7.014   5.259   7.538  0.4996 -1.1474  0.5865
  889MOL0     H22675   7.166   5.256   7.619  0.2027 -1.4796 -0.0571
  889MOL0     H22676   6.942   5.173   7.804  1.0079 -3.9147  0.9405
  889MOL0     H22677   7.123   5.156   7.806  0.4579 -1.0276 -0.1934
  889MOL0     H22678   7.002   4.830   7.602 -2.2996  0.2750 -0.5337
  889MOL0     H22679   6.950   5.858   7.727 -0.3065  1.1680 -1.4953
  889MOL0     H22680   6.853   6.128   7.572  0.0648 -3.0987 -2.2961
  889MOL0     H22681   6.748   6.118   7.729  2.0509 -2.4623  2.4379
  889MOL0     H22682   6.912   6.072   7.728 -0.5406  0.7677  1.0681
  890MOL0     O22683   8.454  11.412  10.543  0.6436  0.2384  1.1144
  890MOL0     C22684   8.501  11.461  10.647 -0.5321  1.1696  1.0038
  890MOL0     O22685   8.529  11.587  10.677 -0.0771  0.7024  0.0348
  890MOL0     C22686   8.452  11.697  10.635 -0.2244  1.1153  0.2198
  890MOL0     C22687   8.326  11.692  10.574 -0.3731 -0.0441  0.9062
  890MOL0     C22688   8.282  11.808  10.518 -0.4006 -0.1606  1.6137
  890MOL0     C22689   8.353  11.933  10.528 -0.0231  0.7109 -1.2349
  890MOL0     O22690   8.317  12.053  10.475  0.2009 -0.1916 -0.1943
  890MOL0     C22691   8.227  12.058  10.363 -0.3877  0.8499  0.8803
  890MOL0     C22692   8.301  11.983  10.250 -0.2904  0.5945  0.8390
  890MOL0     C22693   8.225  11.990  10.113 -0.4076 -0.6096 -0.7080
  890MOL0     C22694   8.208  12.129  10.053 -0.3094 -0.2971 -1.4376
  890MOL0     C22695   8.141  12.104   9.911 -0.1031 -0.3915  0.6337
  890MOL0     C22696   8.153  12.215   9.811 -0.1207 -1.0277 -0.2358
  890MOL0     C22697   8.063  12.334   9.839  0.4617  0.4079 -0.0447
  890MOL0     C22698   7.918  12.299   9.825  0.2946  0.0669 -0.2971
  890MOL0     N22699   7.842  12.417   9.777  0.3640 -0.3979  0.0641
  890MOL0     C22700   7.873  12.557   9.765 -0.0179 -0.3556  0.9655
  890MOL0     C22701   7.781  12.609   9.683 -0.6992 -0.7211  0.0917
  890MOL0     C22702   7.791  12.743   9.626 -0.7427 -0.2183 -0.7258
  890MOL0     C22703   7.748  12.858   9.717  0.2451  0.0655  0.0956
  890MOL0     C22704   7.600  12.855   9.762 -0.2280 -0.6019 -0.4693
  890MOL0     C22705   7.543  12.989   9.812 -0.0061 -0.6368 -0.5094
  890MOL0     O22706   7.532  13.069   9.686  0.1465  0.5016 -0.0500
  890MOL0     C22707   7.463  13.191   9.692  0.0681  0.3689  0.5534
  890MOL0     C22708   7.472  13.263   9.572 -0.7005 -0.6711 -0.3623
  890MOL0     C22709   7.414  13.384   9.557 -0.7309  0.0244 -0.2389
  890MOL0     C22710   7.425  13.446   9.421  0.1176 -0.4283 -0.2166
  890MOL0     C22711   7.355  13.444   9.669  0.2199  0.1451 -0.3261
  890MOL0     C22712   7.278  13.566   9.670  0.9613 -0.3113 -0.0096
  890MOL0     O22713   7.182  13.569   9.771  0.2588 -0.4763  0.5142
  890MOL0     C22714   7.089  13.668   9.779 -0.3546  0.0025  0.0611
  890MOL0     C22715   7.068  13.707   9.914 -0.5210 -0.2938 -0.9102
  890MOL0     C22716   6.984  13.809   9.943 -0.7114  0.6181 -0.1048
  890MOL0     C22717   6.905  13.876   9.845 -0.6530 -0.0351  0.6346
  890MOL0     O22718   6.827  13.980   9.891 -0.4558  0.6680  0.4732
  890MOL0     C22719   6.704  13.988   9.824  0.5243 -0.3776  0.6461
  890MOL0     C22720   6.621  14.101   9.883  0.4193 -0.2582  1.0337
  890MOL0     C22721   6.541  14.049  10.009 -0.4826 -0.4713 -0.2267
  890MOL0     C22722   6.449  14.146  10.073 -0.4843  0.6855  0.4194
  890MOL0     C22723   6.376  14.106  10.197  0.1324  1.0602  0.1675
  890MOL0     C22724   6.325  14.217  10.281 -0.4178  0.3659  0.7448
  890MOL0     C22725   6.242  14.312  10.193 -0.3256 -0.7592 -0.6277
  890MOL0     C22726   6.180  14.441  10.259  0.3120 -0.3888 -0.8209
  890MOL0    Cl22727   6.291  14.516  10.378 -0.4195  0.5308 -0.8397
  890MOL0     C22728   6.943  13.850   9.707  0.2614 -0.0138 -0.4964
  890MOL0     C22729   7.037  13.752   9.680 -0.0496  0.7723  0.1938
  890MOL0     O22730   7.290  13.646   9.582 -0.6260  0.0815  0.1447
  890MOL0     C22731   7.357  13.374   9.791  0.7215 -0.4028 -0.1575
  890MOL0     C22732   7.403  13.242   9.805 -0.4140  0.4035 -0.0662
  890MOL0     N22733   7.675  12.520   9.670 -0.4524 -0.0865  0.2513
  890MOL0     N22734   7.718  12.409   9.716 -0.5913  0.5667  0.6275
  890MOL0     C22735   8.468  11.934  10.607  0.6575  0.6513 -0.2302
  890MOL0     C22736   8.512  11.816  10.667 -0.6246  0.2823  0.5832
  890MOL0     C22737   8.544  11.356  10.748  0.0411 -0.9253 -0.8663
  890MOL0     C22738   8.600  11.406  10.871 -0.6139  0.0584 -0.4980
  890MOL0     C22739   8.631  11.321  10.975 -0.5637 -0.1575  0.7293
  890MOL0     C22740   8.607  11.187  10.952  0.8874  0.2652 -0.4287
  890MOL0     O22741   8.626  11.089  11.049 -0.5018 -0.4685 -0.7385
  890MOL0     C22742   8.585  11.122  11.179  0.4016 -0.7795 -1.5519
  890MOL0     C22743   8.689  11.188  11.263 -0.6367  0.0799  0.1343
  890MOL0     C22744   8.784  11.082  11.316  0.7107  0.8061 -0.2397
  890MOL0     C22745   8.882  11.124  11.418 -0.4808  0.6791  0.2569
  890MOL0     C22746   8.972  11.019  11.475 -0.0181 -0.3737 -0.1809
  890MOL0     C22747   9.054  10.939  11.517 -0.2376  0.0100  0.0400
  890MOL0     C22748   8.552  11.137  10.837 -0.2123  0.4513 -0.3532
  890MOL0     C22749   8.511  11.222  10.730 -0.7193 -0.3791 -0.7163
  890MOL0     C22750   8.432  11.144  10.630 -0.2738  0.4108 -0.4030
  890MOL0     H22751   8.276  11.597  10.556  4.4277 -3.1119  1.7852
  890MOL0     H22752   8.184  11.793  10.473 -0.1695 -2.0132  1.6441
  890MOL0     H22753   8.214  12.162  10.333 -0.7813  0.7441  0.6813
  890MOL0     H22754   8.133  12.006  10.387 -0.0112 -0.4890 -0.3776
  890MOL0     H22755   8.394  12.031  10.220 -0.5826 -0.4788 -2.2293
  890MOL0     H22756   8.318  11.877  10.272  2.0266  1.2926  2.7294
  890MOL0     H22757   8.284  11.932  10.041  2.1951  0.3040  0.5892
  890MOL0     H22758   8.127  11.941  10.122 -1.8667  2.2101 -0.1580
  890MOL0     H22759   8.138  12.181  10.120 -1.6736 -1.2813 -2.0539
  890MOL0     H22760   8.300  12.186  10.036 -0.8698 -0.0277 -3.8197
  890MOL0     H22761   8.038  12.069   9.925  0.8068 -4.3395 -1.0953
  890MOL0     H22762   8.199  12.023   9.866 -0.2542 -1.5274  2.3574
  890MOL0     H22763   8.253  12.258   9.811 -0.2904 -0.5710 -2.0356
  890MOL0     H22764   8.121  12.175   9.714  0.2379 -1.8930 -0.0044
  890MOL0     H22765   8.080  12.410   9.763 -1.3142  0.7304 -0.1584
  890MOL0     H22766   8.089  12.373   9.938 -0.1069 -0.5854  0.5144
  890MOL0     H22767   7.901  12.219   9.752 -0.4090  0.2047 -0.2909
  890MOL0     H22768   7.888  12.266   9.925  3.6091 -1.7654  0.2384
  890MOL0     H22769   7.961  12.607   9.805  0.7890 -1.5465  0.7244
  890MOL0     H22770   7.722  12.739   9.541 -2.6091  0.9937  0.6476
  890MOL0     H22771   7.893  12.756   9.589 -0.8608 -2.6767 -2.1435
  890MOL0     H22772   7.809  12.856   9.808  1.4100 -3.2975 -0.6368
  890MOL0     H22773   7.776  12.944   9.655 -1.0353 -0.4029 -1.1942
  890MOL0     H22774   7.535  12.811   9.686 -0.6008 -1.8445  0.5201
  890MOL0     H22775   7.586  12.788   9.847 -1.7387  0.9508  0.5957
  890MOL0     H22776   7.451  12.966   9.865  0.5650 -1.9741 -0.0435
  890MOL0     H22777   7.613  13.041   9.879  1.3415  0.4798 -2.6771
  890MOL0     H22778   7.513  13.208   9.488 -1.6839 -1.6257 -0.2499
  890MOL0     H22779   7.472  13.545   9.419 -0.2810 -0.1495  1.6443
  890MOL0     H22780   7.321  13.459   9.390 -0.0915 -1.1226  0.1648
  890MOL0     H22781   7.468  13.378   9.347  2.0400  3.3142 -2.8286
  890MOL0     H22782   7.121  13.674  10.003 -1.7440  2.4008  0.9401
  890MOL0     H22783   6.956  13.851  10.038 -0.3307 -1.5210  1.0254
  890MOL0     H22784   6.733  14.024   9.725  1.3032 -3.4887 -0.3767
  890MOL0     H22785   6.647  13.896   9.806  0.3524 -0.1550  0.0251
  890MOL0     H22786   6.685  14.188   9.902 -1.8106  1.8574 -0.5552
  890MOL0     H22787   6.549  14.131   9.807 -0.1233 -2.2267  0.7257
  890MOL0     H22788   6.629  14.020  10.068  0.6953  0.8186 -1.2657
  890MOL0     H22789   6.478  13.962   9.989  0.2451 -1.1350  0.2914
  890MOL0     H22790   6.364  14.168  10.007 -0.9950 -1.8467  0.1620
  890MOL0     H22791   6.504  14.237  10.100  3.4215 -2.0880  2.8199
  890MOL0     H22792   6.295  14.042  10.163  0.1552  1.2748 -0.3026
  890MOL0     H22793   6.443  14.044  10.257 -0.6263 -0.6793 -0.7075
  890MOL0     H22794   6.416  14.261  10.322 -0.3142 -0.0628  0.9798
  890MOL0     H22795   6.268  14.186  10.369  1.6952 -0.4977  1.8615
  890MOL0     H22796   6.164  14.251  10.147 -1.8224 -0.7248  1.7086
  890MOL0     H22797   6.303  14.347  10.109 -0.6809  0.1218 -0.5334
  890MOL0     H22798   6.089  14.421  10.315  2.2899  1.1112  3.3822
  890MOL0     H22799   6.157  14.508  10.176 -2.9346 -2.0840 -1.4380
  890MOL0     H22800   6.897  13.902   9.623  0.3896  0.0377 -0.5348
  890MOL0     H22801   7.065  13.718   9.580  4.3276 -2.2849  2.1277
  890MOL0     H22802   7.306  13.411   9.880 -0.3282 -0.2582 -0.8074
  890MOL0     H22803   7.392  13.200   9.905 -0.8996 -0.8221 -0.6150
  890MOL0     H22804   8.510  12.031  10.630 -0.2212  1.0360 -0.1850
  890MOL0     H22805   8.608  11.819  10.718  0.5941  0.2249 -1.5554
  890MOL0     H22806   8.621  11.512  10.882 -0.1380 -0.1493  0.7522
  890MOL0     H22807   8.686  11.373  11.053 -2.4414  1.1322  1.2403
  890MOL0     H22808   8.500  11.189  11.191  1.6992  1.2143 -2.9123
  890MOL0     H22809   8.559  11.024  11.220  1.0284 -0.0522  0.7368
  890MOL0     H22810   8.657  11.237  11.355  0.6043 -1.7607  1.6251
  890MOL0     H22811   8.753  11.261  11.212  1.2072 -0.3367  1.7448
  890MOL0     H22812   8.716  11.011  11.363  2.0010 -1.3156 -1.4611
  890MOL0     H22813   8.836  11.037  11.231  0.9344 -0.4995  0.5685
  890MOL0     H22814   8.835  11.185  11.495 -1.3335  1.6556 -0.9976
  890MOL0     H22815   8.952  11.199  11.380 -0.4364 -0.0639 -1.1932
  890MOL0     H22816   9.145  10.897  11.554  0.0066 -0.5686 -1.1760
  890MOL0     H22817   8.532  11.031  10.841 -1.6197  0.7276  0.6391
  890MOL0     H22818   8.330  11.182  10.639 -0.3663 -0.0497  0.7138
  890MOL0     H22819   8.460  11.157  10.525  1.1189  1.7972  0.0958
  890MOL0     H22820   8.445  11.037  10.644 -0.5389  0.4230 -0.0682
  891MOL0     O22821   3.490   5.896   3.941 -0.0525  1.2682 -0.2786
  891MOL0     C22822   3.538   5.933   3.833  0.8040  0.0177  0.1570
  891MOL0     O22823   3.668   5.908   3.795  0.3501 -0.0182  0.0169
  891MOL0     C22824   3.767   5.841   3.868  0.4411  0.2838  0.4728
  891MOL0     C22825   3.749   5.708   3.912 -0.8454 -0.4940 -0.0447
  891MOL0     C22826   3.849   5.659   3.999  0.8320  0.0830  0.2738
  891MOL0     C22827   3.967   5.735   4.023 -0.7639  0.6173 -0.9383
  891MOL0     O22828   4.066   5.690   4.107 -0.2803 -0.4992 -0.2578
  891MOL0     C22829   4.089   5.548   4.110  0.2304  0.8825 -0.3093
  891MOL0     C22830   4.093   5.451   3.983  0.3972 -0.6045 -0.3382
  891MOL0     C22831   4.159   5.320   4.031  0.3148  0.1405 -0.3574
  891MOL0     C22832   4.202   5.231   3.913 -0.0758  0.3602 -0.0193
  891MOL0     C22833   4.305   5.305   3.826  0.5782 -0.0409 -1.1307
  891MOL0     C22834   4.414   5.207   3.777 -0.3638  0.3117  0.5162
  891MOL0     C22835   4.535   5.284   3.725 -0.2915  0.2645  0.0764
  891MOL0     C22836   4.582   5.259   3.580 -0.7751  0.5578 -0.9019
  891MOL0     N22837   4.711   5.314   3.548  0.6668  0.3137 -0.1244
  891MOL0     C22838   4.830   5.259   3.587  0.2025  0.1332  0.0878
  891MOL0     C22839   4.916   5.358   3.562 -0.0820  0.0091  0.2410
  891MOL0     C22840   5.058   5.368   3.614  0.6004 -0.8307  0.8607
  891MOL0     C22841   5.150   5.251   3.549 -0.1689  0.0847  0.7776
  891MOL0     C22842   5.293   5.263   3.604 -0.0833  0.6501 -0.0975
  891MOL0     C22843   5.317   5.220   3.753  0.0899 -0.6259  0.2602
  891MOL0     O22844   5.307   5.083   3.778  0.0107  0.6369  0.5777
  891MOL0     C22845   5.182   5.034   3.816 -0.1252 -0.0540 -0.0386
  891MOL0     C22846   5.117   5.094   3.923  0.0582  0.2084 -0.2686
  891MOL0     C22847   4.984   5.057   3.955  0.0696 -0.6210 -0.0263
  891MOL0     C22848   4.921   5.142   4.060 -0.1305 -0.5056  0.3451
  891MOL0     C22849   4.923   4.945   3.883 -0.7392  0.7118  0.6414
  891MOL0     C22850   4.792   4.891   3.911 -1.1455  1.3084  0.0366
  891MOL0     O22851   4.733   4.809   3.824 -0.5718 -0.1951 -0.0466
  891MOL0     C22852   4.602   4.793   3.828  1.0327  0.2942  0.2206
  891MOL0     C22853   4.543   4.714   3.930  0.4887  0.1089  0.6823
  891MOL0     C22854   4.407   4.675   3.912 -0.0760 -0.0923 -0.3906
  891MOL0     C22855   4.326   4.744   3.826  0.7505 -0.1011  0.1634
  891MOL0     O22856   4.189   4.739   3.808 -0.0910 -1.2205  0.5233
  891MOL0     C22857   4.116   4.630   3.873 -0.5861  0.5056  0.4718
  891MOL0     C22858   3.994   4.576   3.794 -0.1193 -0.7625  0.3593
  891MOL0     C22859   4.026   4.537   3.645 -0.7179  0.3555  0.0868
  891MOL0     C22860   3.892   4.522   3.578  0.4435  0.2523  0.3311
  891MOL0     C22861   3.903   4.538   3.422 -0.4819  0.2418  0.3183
  891MOL0     C22862   3.966   4.423   3.345 -0.2408 -0.4454 -0.9928
  891MOL0     C22863   4.004   4.465   3.200  0.1377 -0.0701  1.0539
  891MOL0     C22864   4.074   4.358   3.124  0.3213  0.1090  0.1379
  891MOL0    Cl22865   3.977   4.211   3.109 -0.5427  0.7003  0.0016
  891MOL0     C22866   4.381   4.833   3.738 -0.1451  0.2086 -0.1625
  891MOL0     C22867   4.523   4.851   3.725  0.3291 -0.2261 -0.9679
  891MOL0     O22868   4.743   4.911   4.025 -0.2877  1.1670 -0.2942
  891MOL0     C22869   4.995   4.884   3.783 -0.7723  1.4876  0.2161
  891MOL0     C22870   5.124   4.928   3.748  0.1595  0.3626 -0.1812
  891MOL0     N22871   4.856   5.460   3.491 -0.2915  0.4055  0.5869
  891MOL0     N22872   4.730   5.434   3.488 -0.5222  0.0154  0.1599
  891MOL0     C22873   3.986   5.855   3.963  0.0529 -0.6594  0.4684
  891MOL0     C22874   3.887   5.918   3.886  0.0461  1.0264  0.7062
  891MOL0     C22875   3.463   6.016   3.734  0.9999  0.4582 -0.2227
  891MOL0     C22876   3.543   6.070   3.629 -0.1587 -0.6978 -0.2228
  891MOL0     C22877   3.479   6.130   3.529  0.6644  0.2535  0.0400
  891MOL0     C22878   3.340   6.160   3.528  0.2947  0.1045 -0.2048
  891MOL0     O22879   3.292   6.226   3.428  0.4248  0.0170  0.7683
  891MOL0     C22880   3.152   6.270   3.410  0.5858  0.8080 -0.5521
  891MOL0     C22881   3.155   6.404   3.475  0.0053  0.1112  0.0747
  891MOL0     C22882   3.005   6.446   3.475  0.0381 -1.0841  0.8119
  891MOL0     C22883   2.933   6.418   3.607  0.0638  0.6167 -1.2835
  891MOL0     C22884   2.848   6.303   3.601  0.2993  0.2070  0.9433
  891MOL0     C22885   2.772   6.218   3.567 -0.4903 -0.3699 -0.2760
  891MOL0     C22886   3.267   6.125   3.647  0.2281  0.8516 -0.0794
  891MOL0     C22887   3.324   6.056   3.752  0.1193  1.3683 -0.0163
  891MOL0     C22888   3.232   6.015   3.874 -0.5751 -1.0437 -0.4023
  891MOL0     H22889   3.659   5.652   3.886 -0.5326  0.1205 -2.7349
  891MOL0     H22890   3.828   5.569   4.055 -0.5688  1.6293  2.4009
  891MOL0     H22891   4.009   5.505   4.170  0.3619 -0.9970 -1.3944
  891MOL0     H22892   4.184   5.542   4.165  0.7106  0.1758 -1.1814
  891MOL0     H22893   3.989   5.425   3.962  0.8025 -1.0187 -1.9456
  891MOL0     H22894   4.142   5.508   3.904  0.0376  2.3141  1.3922
  891MOL0     H22895   4.240   5.335   4.103 -0.4950 -0.1084  0.6153
  891MOL0     H22896   4.083   5.261   4.083 -2.0731  3.0099 -0.2677
  891MOL0     H22897   4.219   5.130   3.952 -0.1368 -0.7289 -2.6171
  891MOL0     H22898   4.115   5.210   3.850  1.3979 -2.5010 -1.3270
  891MOL0     H22899   4.341   5.393   3.879 -0.7644  1.5545 -2.7544
  891MOL0     H22900   4.248   5.344   3.741  0.3300  1.0282 -0.4883
  891MOL0     H22901   4.450   5.135   3.851  0.0226 -1.5287 -1.3603
  891MOL0     H22902   4.371   5.145   3.697  0.9380 -0.8855  0.7074
  891MOL0     H22903   4.614   5.255   3.795 -0.1251 -0.9815 -0.6069
  891MOL0     H22904   4.514   5.392   3.729 -0.8854  0.4941 -4.2582
  891MOL0     H22905   4.586   5.150   3.574 -0.4819  0.3757  1.4633
  891MOL0     H22906   4.508   5.294   3.507 -0.7145  1.0176 -0.7491
  891MOL0     H22907   4.845   5.167   3.642  1.5481  1.7697  2.6068
  891MOL0     H22908   5.050   5.355   3.723  0.4089 -0.2458  0.9208
  891MOL0     H22909   5.092   5.468   3.586 -2.0197 -0.1793 -0.2932
  891MOL0     H22910   5.104   5.155   3.573 -1.9907  1.2847  2.4138
  891MOL0     H22911   5.142   5.273   3.442  0.6683  0.9562  0.8763
  891MOL0     H22912   5.359   5.207   3.537 -2.7289 -0.6512 -1.7777
  891MOL0     H22913   5.329   5.364   3.582  2.6116 -0.1768  0.1294
  891MOL0     H22914   5.420   5.237   3.788 -0.5600 -0.0825  1.9883
  891MOL0     H22915   5.252   5.281   3.817  0.9254 -3.0145  3.6371
  891MOL0     H22916   5.172   5.175   3.969 -1.1932  2.4234 -2.4271
  891MOL0     H22917   4.864   5.225   4.017 -0.3743  0.4927  2.4590
  891MOL0     H22918   4.999   5.190   4.121 -0.5848  1.4481 -0.5251
  891MOL0     H22919   4.862   5.077   4.124 -1.4576  0.1459 -0.1877
  891MOL0     H22920   4.600   4.681   4.016 -2.6342  1.6124  3.5350
  891MOL0     H22921   4.363   4.606   3.984  1.0784 -4.2013 -3.2902
  891MOL0     H22922   4.184   4.545   3.875 -1.7890 -0.5112  0.0182
  891MOL0     H22923   4.080   4.661   3.972 -1.5069 -0.7330  0.5542
  891MOL0     H22924   3.954   4.495   3.856 -0.7238  0.4166  1.5298
  891MOL0     H22925   3.922   4.657   3.800  0.4821 -0.3365  2.8172
  891MOL0     H22926   4.085   4.444   3.637 -1.5696 -0.5439  3.0040
  891MOL0     H22927   4.089   4.614   3.600  0.9443  0.7672  2.8729
  891MOL0     H22928   3.822   4.598   3.614  0.0844 -0.1300  0.4518
  891MOL0     H22929   3.842   4.433   3.618 -0.8507  1.4979  1.5935
  891MOL0     H22930   3.804   4.567   3.385  0.7909  2.6204 -1.4793
  891MOL0     H22931   3.979   4.613   3.402  0.5173 -0.8519 -0.0932
  891MOL0     H22932   3.900   4.336   3.333  2.1280 -2.4590 -0.1396
  891MOL0     H22933   4.059   4.388   3.390 -1.2164 -2.4423 -0.4135
  891MOL0     H22934   4.070   4.553   3.202 -1.0145  1.0294 -2.6015
  891MOL0     H22935   3.914   4.502   3.150  1.0107 -0.7038 -1.0727
  891MOL0     H22936   4.167   4.348   3.180  2.0017 -1.7930 -2.7278
  891MOL0     H22937   4.097   4.398   3.025 -2.3132  3.6216  0.7375
  891MOL0     H22938   4.320   4.888   3.668  0.4131  2.3269  0.9170
  891MOL0     H22939   4.570   4.914   3.651  0.1648  0.6583 -0.3258
  891MOL0     H22940   4.950   4.797   3.737 -0.1180  1.2560  0.0031
  891MOL0     H22941   5.183   4.864   3.683 -0.0729 -1.7063  1.5261
  891MOL0     H22942   4.077   5.910   3.985 -0.2792  1.2989 -2.5181
  891MOL0     H22943   3.911   6.017   3.849  2.1721 -0.7760 -3.3084
  891MOL0     H22944   3.651   6.064   3.618 -0.1717  1.0413 -1.5668
  891MOL0     H22945   3.530   6.166   3.440  1.4907 -2.0912 -0.4901
  891MOL0     H22946   3.120   6.286   3.307  0.6224 -2.7403 -1.2436
  891MOL0     H22947   3.087   6.201   3.465  2.6396 -1.3279 -0.6561
  891MOL0     H22948   3.212   6.472   3.411  2.4620  1.4267  3.3450
  891MOL0     H22949   3.192   6.394   3.578 -2.5536 -0.5632  1.0081
  891MOL0     H22950   3.005   6.555   3.476 -0.8231 -1.0485 -0.5938
  891MOL0     H22951   2.958   6.411   3.383  3.5973 -0.5153 -1.4086
  891MOL0     H22952   2.866   6.502   3.629 -1.3328  0.5414 -4.6567
  891MOL0     H22953   2.994   6.415   3.698 -4.9843 -1.3609  2.4738
  891MOL0     H22954   2.710   6.133   3.544  0.5426 -1.5780  1.1531
  891MOL0     H22955   3.162   6.150   3.652  0.4551  1.6120  1.2857
  891MOL0     H22956   3.132   6.056   3.859  0.0520  1.5036  1.5734
  891MOL0     H22957   3.226   5.906   3.869  1.0281 -1.4902  3.6378
  891MOL0     H22958   3.280   6.045   3.968  1.5749  0.7843 -1.9930
  892MOL0     O22959   4.941  11.019   9.624  0.0022  0.3261 -0.1897
  892MOL0     C22960   4.861  10.995   9.707  0.7694 -0.4753  0.3384
  892MOL0     O22961   4.798  10.875   9.730 -0.7850 -0.3947 -0.5944
  892MOL0     C22962   4.825  10.755   9.655 -0.2872  0.1346 -0.2521
  892MOL0     C22963   4.915  10.739   9.546  1.2858  0.5363 -0.3640
  892MOL0     C22964   4.922  10.621   9.483  0.3027 -0.5784  0.6510
  892MOL0     C22965   4.860  10.508   9.526 -0.3201  0.2612 -1.0263
  892MOL0     O22966   4.873  10.391   9.452 -0.1390  0.0369 -0.5633
  892MOL0     C22967   4.828  10.266   9.509 -0.5834 -0.7419 -0.2253
  892MOL0     C22968   4.931  10.221   9.605  0.0725 -0.6211 -0.2396
  892MOL0     C22969   4.891  10.086   9.669 -0.3795  0.2230  0.7035
  892MOL0     C22970   4.957   9.967   9.580 -0.8778  1.3283 -0.7201
  892MOL0     C22971   4.876   9.843   9.556  0.0194  0.0400 -0.2686
  892MOL0     C22972   4.975   9.750   9.488  0.3007  0.1160 -0.1394
  892MOL0     C22973   4.914   9.614   9.465 -0.0873 -0.5422  0.1871
  892MOL0     C22974   4.768   9.610   9.408 -0.0399  0.0490 -0.5073
  892MOL0     N22975   4.744   9.475   9.355  0.4748  0.2136 -0.6939
  892MOL0     C22976   4.797   9.428   9.247 -0.1707 -0.5794  0.0027
  892MOL0     C22977   4.732   9.315   9.224  0.7391 -0.3078  0.3198
  892MOL0     C22978   4.757   9.224   9.112 -0.0926  0.2713 -0.5738
  892MOL0     C22979   4.704   9.271   8.972 -0.5131  1.7085 -0.2127
  892MOL0     C22980   4.753   9.179   8.860 -0.2428  0.1543 -0.5005
  892MOL0     C22981   4.696   9.227   8.718  0.2175 -0.8409  0.0368
  892MOL0     O22982   4.555   9.206   8.711  0.1339  0.8455 -0.0697
  892MOL0     C22983   4.503   9.075   8.704  0.2975  0.5315 -0.4772
  892MOL0     C22984   4.366   9.062   8.729 -0.5865  0.0558 -0.2912
  892MOL0     C22985   4.304   8.944   8.716 -0.5411  1.1330  1.4556
  892MOL0     C22986   4.154   8.953   8.734 -0.4965  0.2612 -0.4807
  892MOL0     C22987   4.372   8.829   8.673  0.2259 -0.2544 -0.2548
  892MOL0     C22988   4.307   8.694   8.687 -0.6985  0.2635  0.9609
  892MOL0     O22989   4.254   8.652   8.808  0.1198  0.6138  0.8287
  892MOL0     C22990   4.172   8.536   8.817  0.1306  1.0564 -0.3904
  892MOL0     C22991   4.119   8.505   8.942 -0.5749  0.4404 -0.3101
  892MOL0     C22992   4.025   8.405   8.959 -0.2081  0.1553 -0.4401
  892MOL0     C22993   3.984   8.323   8.864  0.0854 -0.6287  0.5110
  892MOL0     O22994   3.899   8.216   8.899 -0.0966 -0.4293  0.4029
  892MOL0     C22995   3.956   8.082   8.874 -0.8519  0.3806 -0.9842
  892MOL0     C22996   3.979   8.005   8.999  0.5449  0.6848  0.6238
  892MOL0     C22997   4.028   7.863   8.978  0.3304 -0.4063  0.2142
  892MOL0     C22998   4.096   7.826   9.116  0.7409  0.1832 -0.1296
  892MOL0     C22999   4.123   7.675   9.152  0.1301  0.1643 -0.7526
  892MOL0     C23000   4.103   7.664   9.308 -0.1778  0.2065 -0.6140
  892MOL0     C23001   4.179   7.539   9.357 -0.3411  0.6542  0.5505
  892MOL0     C23002   4.154   7.507   9.504  0.5793  0.6807  0.1510
  892MOL0    Cl23003   4.195   7.646   9.604  0.1925  0.5682 -0.3993
  892MOL0     C23004   4.028   8.346   8.736  0.4751  1.0991 -0.4946
  892MOL0     C23005   4.125   8.443   8.710  0.5933  0.4684 -0.5293
  892MOL0     O23006   4.331   8.624   8.590 -0.0846  1.2884  0.2652
  892MOL0     C23007   4.503   8.830   8.668  0.1940  0.4187 -0.8366
  892MOL0     C23008   4.570   8.952   8.670 -0.1440 -1.0709  0.4043
  892MOL0     N23009   4.635   9.289   9.320 -0.3544  0.1452  0.7030
  892MOL0     N23010   4.645   9.382   9.403 -1.2590  0.3911 -0.3121
  892MOL0     C23011   4.789  10.515   9.654 -0.6485  0.2633 -0.4181
  892MOL0     C23012   4.762  10.642   9.704 -0.2809 -0.1088 -0.0924
  892MOL0     C23013   4.808  11.111   9.790  0.2001 -0.0947  0.3424
  892MOL0     C23014   4.733  11.092   9.903  0.0920 -0.7275  0.4291
  892MOL0     C23015   4.682  11.192   9.984  0.3095 -0.2867 -0.3283
  892MOL0     C23016   4.701  11.326   9.948 -0.3700  0.5595  0.1989
  892MOL0     O23017   4.655  11.437  10.011 -0.2240 -0.8879  0.1123
  892MOL0     C23018   4.613  11.438  10.155 -0.0593  0.3520  0.0526
  892MOL0     C23019   4.675  11.562  10.230  0.0065 -0.2242  0.9428
  892MOL0     C23020   4.827  11.554  10.237  1.0688  0.9188  0.0591
  892MOL0     C23021   4.895  11.661  10.333 -0.0046  0.3025 -0.0757
  892MOL0     C23022   4.854  11.801  10.302 -0.0027 -0.9022  1.1458
  892MOL0     C23023   4.814  11.910  10.266  0.2730 -0.3377 -0.4308
  892MOL0     C23024   4.777  11.348   9.836  1.5090  0.6549  0.6306
  892MOL0     C23025   4.833  11.245   9.761  0.5660  0.0155 -0.0705
  892MOL0     C23026   4.916  11.291   9.638 -0.7796 -0.7998  1.2351
  892MOL0     H23027   4.958  10.825   9.496 -0.3535 -0.5249 -3.9474
  892MOL0     H23028   4.957  10.614   9.381  1.8062  1.0989  0.9995
  892MOL0     H23029   4.813  10.206   9.419 -4.5925  1.8406 -1.5321
  892MOL0     H23030   4.729  10.296   9.543  0.7923  2.9097  1.0293
  892MOL0     H23031   5.029  10.216   9.557 -1.0622  0.6687 -2.9206
  892MOL0     H23032   4.934  10.292   9.688 -2.6449 -1.6837  0.8793
  892MOL0     H23033   4.923  10.069   9.772  0.6243 -0.3088  0.3185
  892MOL0     H23034   4.782  10.075   9.667 -0.2924 -0.6914  0.4308
  892MOL0     H23035   4.964  10.014   9.481 -2.3468  0.8283 -1.0949
  892MOL0     H23036   5.053   9.948   9.629 -1.0982 -3.4565 -1.7242
  892MOL0     H23037   4.796   9.870   9.486 -0.2117  2.6020  0.9042
  892MOL0     H23038   4.839   9.813   9.654  2.2943  1.2394  1.0461
  892MOL0     H23039   4.993   9.800   9.392  0.4185  0.9879  0.3301
  892MOL0     H23040   5.067   9.747   9.547  0.5686  3.6701 -0.1616
  892MOL0     H23041   4.921   9.551   9.554  0.3385 -3.0475 -1.4869
  892MOL0     H23042   4.974   9.555   9.394  1.0887 -2.5861  2.7018
  892MOL0     H23043   4.699   9.632   9.491  1.3562  0.8166  0.4950
  892MOL0     H23044   4.757   9.682   9.327 -0.5265  1.5598  0.8436
  892MOL0     H23045   4.880   9.458   9.184  0.7541 -3.4617 -0.2836
  892MOL0     H23046   4.708   9.128   9.125 -1.1251  0.6137 -1.7290
  892MOL0     H23047   4.866   9.219   9.104 -0.2524 -1.1149 -2.8263
  892MOL0     H23048   4.595   9.262   8.981 -0.3337  0.0117  0.6987
  892MOL0     H23049   4.742   9.373   8.965 -0.3265  1.9059  2.6812
  892MOL0     H23050   4.861   9.174   8.876 -0.2541 -1.2183 -0.7532
  892MOL0     H23051   4.716   9.077   8.874 -0.3007  0.3694  1.1222
  892MOL0     H23052   4.717   9.333   8.707 -2.1831 -0.1792  1.0944
  892MOL0     H23053   4.750   9.180   8.635 -2.0300 -2.3116 -0.7101
  892MOL0     H23054   4.317   9.147   8.775 -2.3923 -2.4299  2.7954
  892MOL0     H23055   4.131   9.021   8.816 -2.1085  0.5966 -1.1700
  892MOL0     H23056   4.126   8.854   8.771 -2.2500  0.6692 -0.6424
  892MOL0     H23057   4.090   8.969   8.647 -1.6235 -0.5770  0.1669
  892MOL0     H23058   4.129   8.554   9.038 -2.9874 -2.4661  1.6250
  892MOL0     H23059   3.989   8.382   9.058 -0.2995 -0.0032 -0.5094
  892MOL0     H23060   3.898   8.034   8.795 -1.3531  0.4713 -0.6736
  892MOL0     H23061   4.054   8.100   8.829  1.0446  0.0722  2.6280
  892MOL0     H23062   4.056   8.066   9.048 -0.6057  0.8348  2.3311
  892MOL0     H23063   3.886   8.008   9.056  0.0632  6.3381  0.0469
  892MOL0     H23064   4.114   7.864   8.910 -0.4995 -0.2248 -0.8584
  892MOL0     H23065   3.951   7.792   8.947  0.4512 -0.8463  0.9177
  892MOL0     H23066   4.018   7.856   9.186 -0.4523 -5.2227  1.2770
  892MOL0     H23067   4.188   7.885   9.127  0.1664  1.4453 -1.7185
  892MOL0     H23068   4.063   7.599   9.103  0.3910 -3.0621  3.3365
  892MOL0     H23069   4.224   7.642   9.125  0.1520 -1.8260  1.3669
  892MOL0     H23070   3.996   7.650   9.324  0.1461 -1.7587  0.0521
  892MOL0     H23071   4.136   7.751   9.365 -5.6426  1.2306  1.6095
  892MOL0     H23072   4.288   7.544   9.363 -0.3432 -0.8037  3.6470
  892MOL0     H23073   4.160   7.448   9.298 -0.9135  2.1502 -1.7203
  892MOL0     H23074   4.215   7.425   9.544 -0.1794 -0.3503 -0.7423
  892MOL0     H23075   4.049   7.486   9.526  0.5558  1.0756  0.4280
  892MOL0     H23076   3.991   8.289   8.652  0.1730 -1.8236  1.4787
  892MOL0     H23077   4.168   8.444   8.611 -1.7704 -1.0124 -1.6556
  892MOL0     H23078   4.564   8.740   8.663  0.2698  0.5547 -3.7597
  892MOL0     H23079   4.676   8.949   8.649 -0.1055  0.9771  0.0309
  892MOL0     H23080   4.744  10.431   9.706 -1.2585 -0.2900 -1.7754
  892MOL0     H23081   4.694  10.665   9.785  0.5987 -1.0814  0.9469
  892MOL0     H23082   4.720  10.987   9.928 -1.2836 -0.0971  2.7065
  892MOL0     H23083   4.626  11.170  10.074 -0.6208 -1.0915 -1.0825
  892MOL0     H23084   4.504  11.441  10.160 -0.0333  0.4174  0.5880
  892MOL0     H23085   4.645  11.349  10.210 -2.1675 -2.8125 -3.3685
  892MOL0     H23086   4.631  11.557  10.331  1.5076 -1.0266  1.5821
  892MOL0     H23087   4.628  11.648  10.183 -1.6027 -1.9408 -0.7848
  892MOL0     H23088   4.859  11.457  10.277  3.0740  1.3133 -0.5094
  892MOL0     H23089   4.866  11.556  10.135 -0.8404  0.3549 -0.7425
  892MOL0     H23090   5.003  11.646  10.328 -0.3235 -2.0024 -1.8108
  892MOL0     H23091   4.863  11.643  10.436  1.3750 -0.4114  0.2539
  892MOL0     H23092   4.812  12.014  10.240  0.5787  0.1344  1.3015
  892MOL0     H23093   4.771  11.449   9.797  0.6326  0.5044  0.3563
  892MOL0     H23094   4.910  11.400   9.626 -1.4132 -1.0567 -1.2069
  892MOL0     H23095   5.024  11.280   9.655 -0.2078  0.1978 -1.3256
  892MOL0     H23096   4.886  11.250   9.542 -2.2434  1.7176  0.5102
  893MOL0     O23097   9.205   7.101   9.456  0.6564 -0.3548  0.1665
  893MOL0     C23098   9.145   7.203   9.496 -0.6609  0.1839  0.4114
  893MOL0     O23099   9.015   7.201   9.546  0.6435 -0.0447 -0.6504
  893MOL0     C23100   8.938   7.084   9.541  0.8103  0.2265 -0.2837
  893MOL0     C23101   8.951   6.976   9.453  0.1300  0.5354  0.2805
  893MOL0     C23102   8.870   6.859   9.455 -0.5234  0.5795 -0.0188
  893MOL0     C23103   8.762   6.862   9.540  0.7149 -0.4488  0.6354
  893MOL0     O23104   8.680   6.749   9.541 -0.1162 -0.1646  0.1975
  893MOL0     C23105   8.540   6.773   9.537  0.2568 -0.4237 -0.0446
  893MOL0     C23106   8.475   6.710   9.414 -0.6977 -0.5397 -0.7770
  893MOL0     C23107   8.326   6.720   9.441  0.4848  0.0632  0.1607
  893MOL0     C23108   8.249   6.749   9.307 -0.2497 -0.7927  0.1417
  893MOL0     C23109   8.253   6.649   9.210 -0.3249 -0.4168  0.2885
  893MOL0     C23110   8.205   6.504   9.262  0.1719 -0.0990 -0.0694
  893MOL0     C23111   8.176   6.405   9.150 -0.3751  1.1058 -0.2287
  893MOL0     C23112   8.150   6.263   9.200  0.3664 -0.4295 -0.3635
  893MOL0     N23113   8.277   6.192   9.223  0.7677  0.0423  0.2358
  893MOL0     C23114   8.335   6.092   9.144 -0.2884  0.6967  1.0095
  893MOL0     C23115   8.461   6.062   9.179 -0.2576  0.3141  0.0316
  893MOL0     C23116   8.550   5.957   9.123  0.4312  0.5210  0.0082
  893MOL0     C23117   8.628   5.885   9.237  0.3157  0.2764 -0.3740
  893MOL0     C23118   8.747   5.964   9.306 -0.6696  0.2477 -0.7430
  893MOL0     C23119   8.859   5.869   9.367 -0.3513  0.1167 -0.8688
  893MOL0     O23120   8.962   5.958   9.424 -0.7073 -0.5420  0.2753
  893MOL0     C23121   9.082   5.897   9.442  0.0733  0.6384  0.2442
  893MOL0     C23122   9.106   5.767   9.490 -0.5981 -0.4538 -0.4762
  893MOL0     C23123   9.232   5.711   9.486 -0.2874  0.3701  0.3078
  893MOL0     C23124   9.239   5.566   9.531 -0.3073  0.1381  0.2026
  893MOL0     C23125   9.350   5.784   9.455 -0.0125  0.2183  0.2318
  893MOL0     C23126   9.482   5.739   9.496 -0.8352  0.8651 -0.3101
  893MOL0     O23127   9.581   5.762   9.402 -0.1181 -0.4160 -0.1018
  893MOL0     C23128   9.717   5.733   9.433  0.6056 -0.6267 -0.0108
  893MOL0     C23129   9.759   5.603   9.450  0.0388 -0.0055  0.0896
  893MOL0     C23130   9.896   5.572   9.472 -0.9643 -0.6293 -0.4994
  893MOL0     C23131   9.985   5.681   9.468 -0.1959 -0.3378 -0.3962
  893MOL0     O23132  10.113   5.641   9.494 -0.8394  0.6491 -0.1505
  893MOL0     C23133  10.197   5.633   9.370 -0.2296  0.2085 -0.6103
  893MOL0     C23134  10.294   5.512   9.368 -0.5927 -0.3664 -0.0771
  893MOL0     C23135  10.402   5.538   9.262  0.4428 -0.4892  0.3561
  893MOL0     C23136  10.504   5.423   9.269  0.3465 -0.2264  0.0040
  893MOL0     C23137  10.633   5.453   9.183  0.3627 -0.3700  0.4129
  893MOL0     C23138  10.742   5.351   9.184  0.5588  0.5074 -0.1355
  893MOL0     C23139  10.686   5.211   9.137 -0.4461 -0.0260  0.6386
  893MOL0     C23140  10.807   5.122   9.148 -0.1704 -0.5542 -0.6863
  893MOL0    Cl23141  10.859   5.119   9.323  0.2362  0.2463  0.1834
  893MOL0     C23142   9.938   5.815   9.463  0.3799  0.3673 -0.8157
  893MOL0     C23143   9.805   5.836   9.446 -0.1278  0.8783  0.1366
  893MOL0     O23144   9.487   5.692   9.609  0.1557  0.1189  0.4553
  893MOL0     C23145   9.324   5.918   9.412 -0.1975  0.2272 -0.4284
  893MOL0     C23146   9.197   5.972   9.418 -0.6772 -0.1823  0.4706
  893MOL0     N23147   8.481   6.142   9.291 -0.1254  0.0013 -0.2885
  893MOL0     N23148   8.375   6.218   9.315 -0.6491  1.0646  0.4461
  893MOL0     C23149   8.733   6.973   9.624 -0.6215  0.1751  0.4120
  893MOL0     C23150   8.822   7.079   9.627  0.5713 -0.2133  0.2827
  893MOL0     C23151   9.218   7.329   9.515 -0.3472 -0.2720  0.1132
  893MOL0     C23152   9.348   7.326   9.565 -0.0918  0.2753  0.3527
  893MOL0     C23153   9.415   7.440   9.592  0.3735  0.1519 -0.3326
  893MOL0     C23154   9.363   7.565   9.556  0.6318  0.2447  0.9583
  893MOL0     O23155   9.431   7.678   9.603  0.1132 -0.2151  0.1233
  893MOL0     C23156   9.356   7.800   9.601 -1.2090 -0.1691  0.1933
  893MOL0     C23157   9.241   7.825   9.699 -1.3126 -0.0996 -0.0925
  893MOL0     C23158   9.224   7.974   9.716  0.2941  0.0801  0.1562
  893MOL0     C23159   9.160   8.024   9.851 -0.2201  0.2211 -0.2053
  893MOL0     C23160   9.103   8.163   9.859  0.0217 -0.0796  0.2823
  893MOL0     C23161   9.048   8.272   9.884  0.0285  0.4030  0.2379
  893MOL0     C23162   9.233   7.566   9.498 -0.1722 -0.1158  0.2343
  893MOL0     C23163   9.160   7.451   9.469  0.6286  0.1033 -0.3265
  893MOL0     C23164   9.021   7.463   9.409  0.4735  0.0362 -0.3613
  893MOL0     H23165   9.032   6.969   9.381 -0.0467 -3.1627  0.2477
  893MOL0     H23166   8.898   6.773   9.394  1.9705  0.3842  1.2735
  893MOL0     H23167   8.516   6.878   9.555 -1.3968 -0.6677 -0.6867
  893MOL0     H23168   8.506   6.721   9.626 -0.4903  1.7201  0.9970
  893MOL0     H23169   8.508   6.759   9.322 -2.9904  2.0268 -0.3651
  893MOL0     H23170   8.511   6.607   9.408 -2.6325 -1.4155  1.3391
  893MOL0     H23171   8.298   6.625   9.488 -2.0184  0.2388 -0.8233
  893MOL0     H23172   8.307   6.792   9.520 -1.9934 -0.2329 -0.0905
  893MOL0     H23173   8.150   6.782   9.338 -0.7090  1.2509 -3.0334
  893MOL0     H23174   8.296   6.839   9.266  1.1849 -0.9589  1.3347
  893MOL0     H23175   8.352   6.641   9.163 -2.1349  0.5863 -4.2058
  893MOL0     H23176   8.197   6.694   9.128 -0.0824  1.3419  1.0403
  893MOL0     H23177   8.287   6.472   9.326 -0.2055  2.7753  2.0447
  893MOL0     H23178   8.115   6.519   9.323 -1.0170  2.1210 -2.1698
  893MOL0     H23179   8.266   6.404   9.089  0.7713 -3.1361  1.2133
  893MOL0     H23180   8.088   6.443   9.097 -1.4503 -0.3021  0.4894
  893MOL0     H23181   8.091   6.278   9.291  1.2658 -1.0878  0.3520
  893MOL0     H23182   8.094   6.206   9.126  0.6840 -1.9990  0.5481
  893MOL0     H23183   8.288   6.027   9.071  3.0564  1.1440 -1.7941
  893MOL0     H23184   8.612   5.994   9.041 -0.2834 -2.7517 -2.2165
  893MOL0     H23185   8.486   5.885   9.070  2.0589 -2.4881  1.8799
  893MOL0     H23186   8.558   5.871   9.321  1.5478  2.6302  1.1716
  893MOL0     H23187   8.661   5.792   9.191 -0.1209 -0.0861  0.0268
  893MOL0     H23188   8.795   6.029   9.232  0.2266  0.8054  0.2970
  893MOL0     H23189   8.704   6.035   9.377 -3.8393  0.1345 -2.3530
  893MOL0     H23190   8.823   5.799   9.443  2.9964  1.7672  2.6134
  893MOL0     H23191   8.910   5.813   9.288  1.5143  0.0887  0.2992
  893MOL0     H23192   9.026   5.697   9.513 -0.3872 -1.3416 -2.3103
  893MOL0     H23193   9.141   5.518   9.522 -1.3579  2.5630 -4.3112
  893MOL0     H23194   9.278   5.559   9.633  1.5712 -1.1952 -0.5414
  893MOL0     H23195   9.307   5.517   9.460 -3.7247 -1.2183 -2.4499
  893MOL0     H23196   9.686   5.523   9.445  2.7250 -2.6393  0.3336
  893MOL0     H23197   9.925   5.471   9.495 -2.0294 -0.5995  1.1716
  893MOL0     H23198  10.142   5.633   9.276  0.1359  1.0289 -0.8359
  893MOL0     H23199  10.257   5.725   9.372  1.0804 -0.5762 -2.1222
  893MOL0     H23200  10.341   5.513   9.467  0.0664  0.0671 -0.3871
  893MOL0     H23201  10.234   5.422   9.355  1.3418 -1.8177  0.6512
  893MOL0     H23202  10.462   5.627   9.283  1.7795 -1.0241 -1.0216
  893MOL0     H23203  10.365   5.548   9.160  1.8329 -1.1317 -0.2387
  893MOL0     H23204  10.458   5.332   9.231  0.1652 -0.8819  1.6948
  893MOL0     H23205  10.539   5.406   9.371  0.3785 -1.4251 -0.2000
  893MOL0     H23206  10.604   5.466   9.079  3.5941  3.9327 -0.1998
  893MOL0     H23207  10.667   5.553   9.210  1.0382 -1.2685  3.3416
  893MOL0     H23208  10.784   5.344   9.285  1.3366  0.3544 -0.4618
  893MOL0     H23209  10.820   5.382   9.115 -0.9596 -0.1204 -2.2215
  893MOL0     H23210  10.628   5.196   9.046  0.1925  1.8508 -0.1383
  893MOL0     H23211  10.629   5.194   9.229  2.5480  3.3503  3.4255
  893MOL0     H23212  10.890   5.161   9.088  0.4489 -0.3784  0.2670
  893MOL0     H23213  10.789   5.020   9.113  1.5103 -0.4453 -1.9654
  893MOL0     H23214  10.009   5.897   9.474  0.9369 -0.0634 -1.1426
  893MOL0     H23215   9.775   5.940   9.442  1.1030  1.4767  3.3070
  893MOL0     H23216   9.417   5.973   9.405  0.9742 -1.8745 -3.7842
  893MOL0     H23217   9.200   6.080   9.414  1.4249 -0.2291 -0.2039
  893MOL0     H23218   8.644   6.976   9.685  0.0954  1.4419  1.4236
  893MOL0     H23219   8.797   7.161   9.692  2.2265 -2.4045  4.0127
  893MOL0     H23220   9.380   7.242   9.624 -1.2180  1.6391  3.0875
  893MOL0     H23221   9.509   7.428   9.644  0.8726  0.1228 -1.2092
  893MOL0     H23222   9.439   7.870   9.606  0.9170 -2.6190  3.3457
  893MOL0     H23223   9.307   7.823   9.506 -1.0905  0.5858  0.3102
  893MOL0     H23224   9.277   7.785   9.794 -0.7911 -1.9774 -1.0458
  893MOL0     H23225   9.145   7.778   9.674 -1.5197 -1.1347  2.4130
  893MOL0     H23226   9.323   8.022   9.712  0.5196 -0.1424  2.1123
  893MOL0     H23227   9.166   7.993   9.625 -1.1923  0.7432  1.2188
  893MOL0     H23228   9.242   8.028   9.923  0.1017  1.3506 -0.6049
  893MOL0     H23229   9.081   7.956   9.885 -1.7303  0.9742 -1.9762
  893MOL0     H23230   8.998   8.363   9.912  0.4665  1.0897 -1.1097
  893MOL0     H23231   9.179   7.658   9.482 -3.1855 -1.0253  3.8858
  893MOL0     H23232   9.021   7.552   9.346  1.2028  0.3888  0.1187
  893MOL0     H23233   9.007   7.384   9.334  1.8302  0.9748 -1.6816
  893MOL0     H23234   8.945   7.458   9.487 -0.1952 -1.3505 -1.0518
  894MOL0     O23235   8.760   5.946   8.688  0.0098  0.1179  0.0107
  894MOL0     C23236   8.715   5.871   8.771  0.0304 -0.6961 -0.1530
  894MOL0     O23237   8.791   5.818   8.878  0.0576 -0.8383  0.0509
  894MOL0     C23238   8.917   5.875   8.901  0.0719  0.2571  0.1912
  894MOL0     C23239   9.033   5.810   8.866 -0.4213  0.3210 -0.7811
  894MOL0     C23240   9.158   5.867   8.887  0.4081  0.8639  0.6361
  894MOL0     C23241   9.168   5.991   8.934 -0.5162 -0.8967  0.0962
  894MOL0     O23242   9.292   6.045   8.947  0.3353 -0.1060  0.0721
  894MOL0     C23243   9.331   6.135   9.042  0.3238 -0.4227 -0.7705
  894MOL0     C23244   9.470   6.101   9.090 -0.2869 -0.4259 -0.4213
  894MOL0     C23245   9.552   6.213   9.166  0.7719  0.8036  0.3191
  894MOL0     C23246   9.683   6.163   9.226 -0.6844 -0.3169  0.2848
  894MOL0     C23247   9.760   6.278   9.292  0.0479 -0.6167 -0.7179
  894MOL0     C23248   9.894   6.225   9.356 -0.6185 -0.0958 -0.1843
  894MOL0     C23249   9.965   6.345   9.423 -0.3847 -0.8053  0.2239
  894MOL0     C23250  10.106   6.300   9.463  0.2052  1.0864  0.5273
  894MOL0     N23251  10.195   6.291   9.348  0.1406  0.2363 -0.5609
  894MOL0     C23252  10.282   6.391   9.302 -0.1026 -0.1223  0.0321
  894MOL0     C23253  10.348   6.335   9.192 -0.2661 -0.2394  0.0308
  894MOL0     C23254  10.452   6.382   9.102  0.5680 -1.0447 -0.3640
  894MOL0     C23255  10.391   6.472   8.992 -0.4025 -0.0333 -0.0723
  894MOL0     C23256  10.470   6.473   8.858  0.1047  0.5932 -0.2327
  894MOL0     C23257  10.420   6.362   8.756 -0.4315 -0.1857 -0.4590
  894MOL0     O23258  10.290   6.404   8.717  0.1751  0.1244  0.7970
  894MOL0     C23259  10.215   6.337   8.623  0.4841  0.6074  0.4404
  894MOL0     C23260  10.239   6.206   8.570 -0.2660 -0.4662 -0.3434
  894MOL0     C23261  10.150   6.133   8.478  0.1861 -0.1295 -0.5490
  894MOL0     C23262  10.196   6.011   8.418  0.4414  0.4451 -0.1376
  894MOL0     C23263  10.033   6.204   8.442  0.2343  0.2355  0.9106
  894MOL0     C23264   9.913   6.141   8.363 -1.0844 -0.2245 -0.5538
  894MOL0     O23265   9.806   6.219   8.349  0.3583 -0.9813 -0.6171
  894MOL0     C23266   9.735   6.194   8.237  0.5444  0.0233 -0.0059
  894MOL0     C23267   9.766   6.271   8.124  0.2778 -0.3354 -0.2675
  894MOL0     C23268   9.683   6.251   8.019  0.4604 -0.5424 -0.7602
  894MOL0     C23269   9.588   6.156   8.004  0.7348 -0.1199 -0.1748
  894MOL0     O23270   9.534   6.130   7.880 -0.0001 -0.1139 -0.1562
  894MOL0     C23271   9.393   6.140   7.880 -0.6447  1.6016 -0.2003
  894MOL0     C23272   9.369   6.265   7.813  0.0866 -0.0192 -0.5291
  894MOL0     C23273   9.434   6.283   7.676  0.2190  0.5116  0.4126
  894MOL0     C23274   9.409   6.428   7.614 -0.2731 -0.1377 -0.0149
  894MOL0     C23275   9.487   6.448   7.481  1.0585 -0.7419 -0.4806
  894MOL0     C23276   9.441   6.586   7.433  0.5198  0.2512  0.1260
  894MOL0     C23277   9.532   6.639   7.327  0.6194 -0.3233 -1.0869
  894MOL0     C23278   9.470   6.740   7.231  1.2879  0.7161 -0.4495
  894MOL0    Cl23279   9.350   6.649   7.125  0.0909  0.0837 -0.4037
  894MOL0     C23280   9.555   6.078   8.113 -0.2458 -1.0014  1.1828
  894MOL0     C23281   9.631   6.095   8.231  0.1745 -0.0472 -0.7329
  894MOL0     O23282   9.929   6.030   8.306  0.4236 -0.0760  0.1672
  894MOL0     C23283  10.016   6.337   8.490  0.2228 -0.1226 -0.3398
  894MOL0     C23284  10.104   6.407   8.563 -0.6158  0.2931 -0.0874
  894MOL0     N23285  10.321   6.201   9.202 -1.1011  0.2933  0.1135
  894MOL0     N23286  10.229   6.170   9.290  0.1481  0.4661  0.4242
  894MOL0     C23287   9.052   6.068   8.969 -0.0197  0.2657 -0.3341
  894MOL0     C23288   8.927   6.014   8.953  0.2148  0.4767 -0.0714
  894MOL0     C23289   8.573   5.834   8.749 -0.9063 -0.6858 -1.1833
  894MOL0     C23290   8.526   5.742   8.842  1.4799  0.5301  0.3966
  894MOL0     C23291   8.393   5.695   8.831 -0.6156  0.7343  0.7028
  894MOL0     C23292   8.302   5.748   8.742 -0.2022  0.8934  0.2917
  894MOL0     O23293   8.168   5.704   8.746 -0.0190 -0.9319  0.1674
  894MOL0     C23294   8.112   5.698   8.871 -1.1487 -0.1598  0.1822
  894MOL0     C23295   7.980   5.773   8.872  0.6770 -0.2412  1.0702
  894MOL0     C23296   7.994   5.929   8.847  0.4707 -0.3957 -0.5572
  894MOL0     C23297   7.859   6.000   8.812  0.0231  0.0321 -0.1318
  894MOL0     C23298   7.876   6.140   8.791 -1.7639 -0.1052  0.2471
  894MOL0     C23299   7.894   6.251   8.755 -0.2834 -0.3202  0.0261
  894MOL0     C23300   8.341   5.848   8.665 -0.3507  0.2243 -0.1335
  894MOL0     C23301   8.476   5.895   8.669  0.3900  0.0121  0.2620
  894MOL0     C23302   8.498   6.005   8.569  1.2334  0.1866  0.2021
  894MOL0     H23303   9.036   5.708   8.829  2.2176 -0.2690  0.8115
  894MOL0     H23304   9.239   5.813   8.840 -1.3970 -0.0764 -1.5868
  894MOL0     H23305   9.257   6.130   9.122  3.1399 -0.8782  2.0204
  894MOL0     H23306   9.320   6.238   9.007 -2.9691 -0.6816 -0.7259
  894MOL0     H23307   9.477   6.008   9.148  2.0568 -1.0360 -1.5307
  894MOL0     H23308   9.539   6.084   9.006  2.0996 -0.1815  1.3789
  894MOL0     H23309   9.584   6.290   9.095  2.2763  1.0150  1.1778
  894MOL0     H23310   9.481   6.247   9.241  0.9450 -1.7071  1.7214
  894MOL0     H23311   9.675   6.092   9.309  0.7776  3.3822  3.9746
  894MOL0     H23312   9.744   6.118   9.148 -0.3989  0.2277  0.1895
  894MOL0     H23313   9.702   6.320   9.375 -2.8373 -3.3204 -1.1767
  894MOL0     H23314   9.776   6.361   9.222  2.5471 -1.5039 -1.2976
  894MOL0     H23315   9.880   6.137   9.419 -0.7945  0.4268  0.5190
  894MOL0     H23316   9.952   6.181   9.275  3.4091  2.1826  1.2033
  894MOL0     H23317   9.917   6.380   9.514 -0.4215 -0.2390 -0.0142
  894MOL0     H23318   9.987   6.432   9.362  0.1259 -1.7417 -0.9636
  894MOL0     H23319  10.139   6.360   9.549 -1.9899 -0.0891  2.3043
  894MOL0     H23320  10.103   6.198   9.502 -0.9872  1.3441  1.1580
  894MOL0     H23321  10.286   6.496   9.328  0.4065 -0.8541  3.4258
  894MOL0     H23322  10.491   6.294   9.050 -0.3194 -0.1804 -2.5833
  894MOL0     H23323  10.534   6.438   9.149 -0.5955 -0.5821  1.1854
  894MOL0     H23324  10.289   6.434   8.980  0.4058 -3.3904  2.2127
  894MOL0     H23325  10.384   6.577   9.023  0.9298  1.4898 -4.2033
  894MOL0     H23326  10.468   6.577   8.825 -2.7138  1.1562  1.3063
  894MOL0     H23327  10.572   6.450   8.888 -0.5795 -1.0814  0.9939
  894MOL0     H23328  10.493   6.367   8.675 -1.0590  0.1482 -1.0135
  894MOL0     H23329  10.410   6.266   8.808  0.3126  0.0671  0.1534
  894MOL0     H23330  10.331   6.159   8.602  0.9115  2.4434  0.8595
  894MOL0     H23331  10.177   5.998   8.311  0.1989 -5.1676  0.2921
  894MOL0     H23332  10.133   5.933   8.461 -0.6593  0.8560 -0.9335
  894MOL0     H23333  10.296   5.989   8.457  0.6086  0.6411 -0.4570
  894MOL0     H23334   9.849   6.339   8.142  0.2014 -1.2522  5.2393
  894MOL0     H23335   9.707   6.306   7.928  1.4378  3.1882  1.5408
  894MOL0     H23336   9.352   6.055   7.825  2.1027  0.4473 -0.6296
  894MOL0     H23337   9.356   6.158   7.981 -2.0264 -0.3432 -0.2879
  894MOL0     H23338   9.260   6.273   7.809 -0.0278  0.2110  1.9253
  894MOL0     H23339   9.407   6.349   7.871  1.5839 -0.5880 -0.6578
  894MOL0     H23340   9.381   6.211   7.613  0.9806 -1.9008  2.3351
  894MOL0     H23341   9.535   6.241   7.673 -0.4542 -1.2120  0.7378
  894MOL0     H23342   9.446   6.510   7.677  0.3253  0.0578 -0.6175
  894MOL0     H23343   9.302   6.448   7.619 -0.1223  0.4710  1.6361
  894MOL0     H23344   9.596   6.447   7.493  1.3836 -3.0458 -2.8755
  894MOL0     H23345   9.457   6.366   7.416 -1.5483  0.4561 -0.8913
  894MOL0     H23346   9.448   6.648   7.524 -3.9007 -0.4795  1.1955
  894MOL0     H23347   9.334   6.581   7.408  0.3865 -0.1768  0.7506
  894MOL0     H23348   9.568   6.556   7.267 -1.9355 -0.8744 -1.9785
  894MOL0     H23349   9.622   6.684   7.371  0.5867 -0.5758 -0.7605
  894MOL0     H23350   9.532   6.790   7.156  0.2506  2.4135 -0.2273
  894MOL0     H23351   9.417   6.814   7.292 -1.0049 -1.3603  0.2375
  894MOL0     H23352   9.485   5.998   8.095 -1.8722  0.1423  2.2072
  894MOL0     H23353   9.617   6.027   8.315  2.1992 -0.0053 -0.3131
  894MOL0     H23354   9.926   6.391   8.460  0.6995 -1.6657 -5.6797
  894MOL0     H23355  10.069   6.506   8.591 -1.0195  0.5743 -1.5458
  894MOL0     H23356   9.058   6.167   9.011  2.4361  0.1399 -0.2486
  894MOL0     H23357   8.838   6.067   8.986  1.1478  0.2148  3.2253
  894MOL0     H23358   8.589   5.679   8.905  1.2999 -2.8729 -2.5062
  894MOL0     H23359   8.371   5.621   8.907  0.3505  1.2632  1.5298
  894MOL0     H23360   8.096   5.595   8.905  0.9152 -0.3289  0.8281
  894MOL0     H23361   8.175   5.741   8.950 -1.9428 -0.7901  1.1866
  894MOL0     H23362   7.930   5.757   8.968  0.9606 -1.5734  1.0152
  894MOL0     H23363   7.918   5.719   8.800 -0.6269  1.8118  0.5668
  894MOL0     H23364   8.042   5.974   8.935  2.3649 -2.0233 -0.6758
  894MOL0     H23365   8.056   5.938   8.757 -1.7847  0.7533 -2.0989
  894MOL0     H23366   7.782   5.982   8.887  1.2752  1.0564  1.4567
  894MOL0     H23367   7.808   5.953   8.727  1.0153 -1.8446  0.2369
  894MOL0     H23368   7.882   6.356   8.735  1.6963  0.1667  1.1155
  894MOL0     H23369   8.275   5.898   8.594 -1.5427  0.3496  1.0172
  894MOL0     H23370   8.583   6.068   8.598  3.0134 -2.2182  0.5400
  894MOL0     H23371   8.535   5.973   8.471  1.2700  1.8710 -0.3669
  894MOL0     H23372   8.409   6.068   8.564  0.1486 -1.2938  0.5018
  895MOL0     O23373   9.792   2.460   5.863  0.5909  1.1508 -0.1697
  895MOL0     C23374   9.818   2.363   5.940  1.3297  0.2825 -0.8915
  895MOL0     O23375   9.935   2.288   5.939  0.1221 -0.3544  0.1759
  895MOL0     C23376   9.991   2.280   5.813  0.3096 -0.1795 -0.0527
  895MOL0     C23377  10.063   2.393   5.765  0.1450  0.1191 -0.1738
  895MOL0     C23378  10.114   2.380   5.643  0.2278  0.5322  0.2185
  895MOL0     C23379  10.117   2.261   5.573 -0.0878  0.3144  0.5462
  895MOL0     O23380  10.193   2.242   5.457 -0.2607 -0.5422  0.7493
  895MOL0     C23381  10.330   2.197   5.476 -0.0405  1.2102  0.1648
  895MOL0     C23382  10.393   2.168   5.335 -0.4301 -0.1858 -0.4127
  895MOL0     C23383  10.337   2.041   5.271  0.2165  0.2540  0.3937
  895MOL0     C23384  10.305   2.050   5.120  0.6390 -0.0658  0.5778
  895MOL0     C23385  10.311   1.915   5.044 -0.0263 -0.7348 -0.7553
  895MOL0     C23386  10.280   1.954   4.895 -0.8128  0.0167 -0.6037
  895MOL0     C23387  10.314   1.841   4.804  0.6317  0.4774  1.3576
  895MOL0     C23388  10.195   1.754   4.755 -0.5109 -0.1568 -0.5960
  895MOL0     N23389  10.247   1.614   4.703  0.0321 -0.6907 -0.2680
  895MOL0     C23390  10.322   1.597   4.590  0.1051 -1.0562 -1.0431
  895MOL0     C23391  10.371   1.481   4.591  0.2584  0.2829  0.4162
  895MOL0     C23392  10.461   1.427   4.472 -0.0985  0.1878  0.3027
  895MOL0     C23393  10.554   1.523   4.395  0.8410 -0.5909 -0.9187
  895MOL0     C23394  10.642   1.440   4.298  0.5954  0.4169  0.5069
  895MOL0     C23395  10.751   1.523   4.219  0.3109  0.5583 -0.2551
  895MOL0     O23396  10.802   1.627   4.304  0.5454 -0.3043  0.2433
  895MOL0     C23397  10.876   1.728   4.253 -0.1117  0.5449 -1.0226
  895MOL0     C23398  10.951   1.803   4.352  1.1678 -0.2119 -0.1788
  895MOL0     C23399  11.008   1.923   4.309  0.3628 -1.1094  0.5002
  895MOL0     C23400  11.061   2.014   4.422 -1.3212  0.5896 -0.1372
  895MOL0     C23401  11.010   1.961   4.175 -1.2248 -1.0693  0.6364
  895MOL0     C23402  11.078   2.085   4.116  0.2113 -0.2208 -0.0291
  895MOL0     O23403  11.006   2.149   4.013  0.5765  0.1723  0.1044
  895MOL0     C23404  11.023   2.289   4.014 -0.5183  0.1347  0.1777
  895MOL0     C23405  11.057   2.359   3.901  0.9839 -0.0484  0.3905
  895MOL0     C23406  11.065   2.502   3.897 -0.0896 -0.2791  0.3153
  895MOL0     C23407  11.040   2.576   4.009  0.0553  0.2355  0.1292
  895MOL0     O23408  11.060   2.713   4.028  0.1934 -0.2176 -0.5645
  895MOL0     C23409  11.097   2.779   3.898 -0.6973 -0.0817 -0.5169
  895MOL0     C23410  11.108   2.931   3.941  0.1477  0.4163  0.6527
  895MOL0     C23411  11.231   2.958   4.040 -0.2304  0.0183 -0.6538
  895MOL0     C23412  11.265   3.109   4.055 -0.1956 -0.3164 -0.4517
  895MOL0     C23413  11.388   3.146   3.973  0.3331  1.2424 -0.3070
  895MOL0     C23414  11.388   3.289   3.924  0.7722  0.1008 -0.5902
  895MOL0     C23415  11.516   3.315   3.854 -1.2494  0.8218 -0.4605
  895MOL0     C23416  11.522   3.458   3.816  0.0822 -0.5496 -0.2551
  895MOL0    Cl23417  11.421   3.516   3.695 -0.1993  0.0594 -0.2889
  895MOL0     C23418  10.994   2.504   4.122 -0.4833 -0.3814  0.8125
  895MOL0     C23419  10.995   2.362   4.123  0.2462 -0.2921  0.6164
  895MOL0     O23420  11.180   2.127   4.167 -0.7217 -0.3288 -0.0988
  895MOL0     C23421  10.951   1.877   4.084 -0.2725  0.2518  0.4536
  895MOL0     C23422  10.886   1.763   4.121  0.0417 -0.6080  0.3110
  895MOL0     N23423  10.336   1.416   4.707 -0.6958 -0.9114 -1.0843
  895MOL0     N23424  10.265   1.500   4.776  0.2973  0.2933 -1.0382
  895MOL0     C23425  10.054   2.147   5.620  0.0931  0.7601  0.8320
  895MOL0     C23426   9.988   2.156   5.743 -0.0766 -0.0184  0.4428
  895MOL0     C23427   9.726   2.357   6.059 -0.1785 -0.0020  0.0477
  895MOL0     C23428   9.752   2.247   6.149 -0.2173 -0.7518  0.4357
  895MOL0     C23429   9.690   2.245   6.270 -0.1851  0.6630  0.2274
  895MOL0     C23430   9.605   2.349   6.310 -0.0563 -0.0138  1.0788
  895MOL0     O23431   9.547   2.361   6.435 -0.1588  0.1129 -0.5151
  895MOL0     C23432   9.560   2.250   6.523  0.0349  0.4398 -0.0250
  895MOL0     C23433   9.480   2.281   6.651  0.2602  0.0558 -0.3418
  895MOL0     C23434   9.472   2.140   6.713 -0.1390  0.3146  0.5869
  895MOL0     C23435   9.404   2.140   6.851 -0.0460  0.0784 -0.1469
  895MOL0     C23436   9.484   2.202   6.956 -0.2069  0.0588  0.0998
  895MOL0     C23437   9.563   2.261   7.029  1.1903 -0.5958  1.2317
  895MOL0     C23438   9.565   2.436   6.215  0.3700 -0.4729  0.3016
  895MOL0     C23439   9.622   2.445   6.087  1.0922  0.6550 -0.5377
  895MOL0     C23440   9.564   2.548   5.991  0.5059 -0.6661  1.0841
  895MOL0     H23441  10.083   2.490   5.809  0.6219 -0.3763  0.7366
  895MOL0     H23442  10.178   2.456   5.598  1.2841 -1.3269 -1.5856
  895MOL0     H23443  10.327   2.115   5.549 -3.0345  2.3563  1.4723
  895MOL0     H23444  10.400   2.267   5.522  3.2416 -2.3255  1.1985
  895MOL0     H23445  10.373   2.254   5.271  3.0277  1.4850  0.5476
  895MOL0     H23446  10.502   2.169   5.344 -0.5411  0.8111  1.0290
  895MOL0     H23447  10.413   1.963   5.285  2.1672  2.0108  0.0055
  895MOL0     H23448  10.240   2.023   5.318 -1.5484  0.3484 -2.9193
  895MOL0     H23449  10.200   2.078   5.121  0.9887  1.3765 -0.3294
  895MOL0     H23450  10.374   2.127   5.084  0.4461 -0.9843 -1.9402
  895MOL0     H23451  10.241   1.839   5.080  1.3142 -1.2010  1.0289
  895MOL0     H23452  10.409   1.869   5.053 -0.2063 -0.7877  1.5203
  895MOL0     H23453  10.180   1.980   4.860  0.1733  2.6323 -1.7151
  895MOL0     H23454  10.336   2.047   4.882 -3.2994  2.1736  2.5183
  895MOL0     H23455  10.380   1.775   4.862  0.2841 -0.2820  0.9019
  895MOL0     H23456  10.361   1.883   4.714 -1.5334  3.0097  1.3038
  895MOL0     H23457  10.123   1.725   4.832 -1.6387 -1.8696 -2.2152
  895MOL0     H23458  10.140   1.811   4.679  1.1547  1.1696 -0.8742
  895MOL0     H23459  10.337   1.670   4.511  0.6508  0.9189  0.8039
  895MOL0     H23460  10.390   1.394   4.397 -0.2772 -2.1226  1.4100
  895MOL0     H23461  10.514   1.342   4.515  1.0938  1.5375  1.6313
  895MOL0     H23462  10.491   1.591   4.337  0.3500  0.3984  0.6995
  895MOL0     H23463  10.621   1.577   4.463  3.4071 -5.2213  0.6315
  895MOL0     H23464  10.688   1.372   4.369  1.6533 -1.3147 -1.6988
  895MOL0     H23465  10.574   1.395   4.226  0.3103  2.3797 -0.5383
  895MOL0     H23466  10.840   1.461   4.202 -0.3945 -1.9039  3.5352
  895MOL0     H23467  10.717   1.553   4.120  4.0886  4.0222 -0.7174
  895MOL0     H23468  10.963   1.772   4.456 -0.2604  2.9003  1.0668
  895MOL0     H23469  11.165   1.979   4.422 -1.5654 -0.3104  2.1983
  895MOL0     H23470  11.022   1.996   4.523 -1.5953 -2.3643 -0.6785
  895MOL0     H23471  11.051   2.120   4.396 -0.1434  0.8312  0.2993
  895MOL0     H23472  11.072   2.308   3.806  2.5702  0.9640  0.0701
  895MOL0     H23473  11.103   2.560   3.814 -3.5289  0.9747 -0.5656
  895MOL0     H23474  11.193   2.736   3.868 -1.3609 -0.8607 -1.6025
  895MOL0     H23475  11.023   2.759   3.820 -3.5662  1.9203  1.4656
  895MOL0     H23476  11.132   2.997   3.857 -1.0511 -0.3215 -0.2933
  895MOL0     H23477  11.019   2.964   3.994  0.6627 -2.7475  3.9119
  895MOL0     H23478  11.316   2.903   3.998 -0.4360 -0.7302 -0.1039
  895MOL0     H23479  11.212   2.915   4.138 -1.5973  2.8702  0.4189
  895MOL0     H23480  11.271   3.145   4.158 -2.1465  1.9629 -1.0565
  895MOL0     H23481  11.177   3.165   4.023 -0.5104 -0.8673 -0.5653
  895MOL0     H23482  11.479   3.120   4.029 -0.2196  0.6105  0.3233
  895MOL0     H23483  11.380   3.082   3.884 -1.7555 -0.4176  0.9818
  895MOL0     H23484  11.387   3.359   4.009 -1.2240  1.0755 -1.3563
  895MOL0     H23485  11.302   3.309   3.860  1.4609  2.9686 -0.7403
  895MOL0     H23486  11.529   3.250   3.767 -0.9957  0.2251  0.0157
  895MOL0     H23487  11.596   3.292   3.926 -3.2209 -2.2963  0.9040
  895MOL0     H23488  11.621   3.479   3.774 -0.3242 -1.4033 -1.6873
  895MOL0     H23489  11.517   3.525   3.902  1.7982 -0.7811  0.0710
  895MOL0     H23490  10.989   2.555   4.218  1.9475 -1.4031  1.5530
  895MOL0     H23491  10.965   2.322   4.219 -0.4518 -2.6760 -0.5027
  895MOL0     H23492  10.959   1.893   3.977 -2.0271 -1.0370  0.0792
  895MOL0     H23493  10.842   1.696   4.048  1.2383 -1.1538  0.0636
  895MOL0     H23494  10.071   2.051   5.573 -1.5363  0.9660 -0.2562
  895MOL0     H23495   9.946   2.068   5.791 -0.3080 -0.0172  0.2427
  895MOL0     H23496   9.829   2.176   6.122  2.7840  2.4495 -0.2111
  895MOL0     H23497   9.715   2.160   6.333 -1.4144  1.1414  1.3917
  895MOL0     H23498   9.529   2.162   6.466 -0.9239  2.3610 -2.6805
  895MOL0     H23499   9.666   2.237   6.548  0.3230 -0.6839 -1.6758
  895MOL0     H23500   9.379   2.318   6.635 -1.1042  0.0529  5.8685
  895MOL0     H23501   9.524   2.359   6.714 -1.0192  0.7922 -0.3336
  895MOL0     H23502   9.432   2.073   6.636  2.2153  1.3734 -1.7076
  895MOL0     H23503   9.570   2.093   6.724  1.9907  4.0222 -0.9024
  895MOL0     H23504   9.390   2.036   6.881  1.1834 -0.3189 -0.8836
  895MOL0     H23505   9.309   2.194   6.837  0.1711  0.5447  0.1597
  895MOL0     H23506   9.631   2.317   7.090 -0.3737  0.4987  2.0154
  895MOL0     H23507   9.489   2.511   6.236  1.9238  1.3563 -0.3402
  895MOL0     H23508   9.560   2.526   5.884 -1.4534  0.7987  0.7844
  895MOL0     H23509   9.464   2.581   6.022  1.2071  0.4766  2.2270
  895MOL0     H23510   9.628   2.637   5.992  1.1193 -1.0192 -1.2183
  896MOL0     O23511   5.066   1.575  10.832  0.4011  0.4028 -0.2102
  896MOL0     C23512   5.177   1.523  10.812  0.1414  0.0716 -0.0004
  896MOL0     O23513   5.202   1.441  10.707 -0.5993 -0.3022 -0.5046
  896MOL0     C23514   5.241   1.495  10.584 -0.2872 -0.1339 -0.0465
  896MOL0     C23515   5.360   1.438  10.532  0.5807  0.9354  0.5915
  896MOL0     C23516   5.396   1.481  10.395  0.1409 -0.1235 -0.0531
  896MOL0     C23517   5.325   1.574  10.328  0.0430  1.1520 -0.2498
  896MOL0     O23518   5.358   1.627  10.205 -0.7367  0.0574 -0.0526
  896MOL0     C23519   5.259   1.616  10.102 -0.1076 -0.5874  0.8042
  896MOL0     C23520   5.325   1.675   9.981  0.7079 -0.1873 -0.6270
  896MOL0     C23521   5.364   1.821   9.998 -0.5544 -1.1209  0.1008
  896MOL0     C23522   5.244   1.921  10.010 -0.5888 -0.3858  0.2281
  896MOL0     C23523   5.143   1.905   9.896  0.4494 -0.4608  0.8668
  896MOL0     C23524   5.040   2.012   9.894  0.4562 -0.3101 -0.2635
  896MOL0     C23525   5.086   2.141   9.833  0.0155  0.6317 -1.0725
  896MOL0     C23526   4.992   2.248   9.857  0.8984  0.8352 -0.0338
  896MOL0     N23527   5.027   2.384   9.806 -1.0445  0.1467  0.0221
  896MOL0     C23528   5.054   2.429   9.684  0.1768 -1.1819 -0.2579
  896MOL0     C23529   5.088   2.558   9.696  0.2316 -0.1628  0.9296
  896MOL0     C23530   5.161   2.634   9.590  0.0603  0.6985 -0.1295
  896MOL0     C23531   5.114   2.775   9.568  0.1325  0.0290 -1.3329
  896MOL0     C23532   5.202   2.863   9.478 -0.2900 -0.6220 -1.6767
  896MOL0     C23533   5.118   2.988   9.435  0.4520 -0.3707  1.2059
  896MOL0     O23534   5.213   3.056   9.341  0.2567 -0.7123 -0.1648
  896MOL0     C23535   5.183   3.097   9.208  0.6692 -0.5248 -0.0152
  896MOL0     C23536   5.057   3.112   9.164 -0.1633  0.2036 -0.1809
  896MOL0     C23537   5.035   3.174   9.034 -0.6169 -0.4379 -0.1921
  896MOL0     C23538   4.888   3.195   9.000 -0.7339 -0.3062  0.3216
  896MOL0     C23539   5.140   3.203   8.945  0.0275  0.1180  0.6795
  896MOL0     C23540   5.116   3.257   8.812  0.0251 -0.4022 -0.0258
  896MOL0     O23541   5.230   3.264   8.726 -0.6619  0.7554  0.9881
  896MOL0     C23542   5.218   3.351   8.616  0.1558 -0.9512 -0.3471
  896MOL0     C23543   5.138   3.331   8.505  0.5291  0.8493  0.8774
  896MOL0     C23544   5.120   3.430   8.411 -0.7763 -0.6202  0.2722
  896MOL0     C23545   5.198   3.550   8.421 -0.8282  0.3463 -0.3645
  896MOL0     O23546   5.178   3.639   8.314 -0.9808 -0.6729 -0.6933
  896MOL0     C23547   5.209   3.776   8.340  0.4817 -0.5191 -0.8454
  896MOL0     C23548   5.144   3.854   8.222 -0.0340  0.0634 -0.8605
  896MOL0     C23549   5.165   4.005   8.209  0.2028  0.6436 -0.8150
  896MOL0     C23550   5.075   4.083   8.312 -0.1943  1.0174 -0.0321
  896MOL0     C23551   5.069   4.228   8.269  1.0258 -0.3869 -0.2591
  896MOL0     C23552   5.206   4.290   8.276 -0.5185 -0.9505  0.2255
  896MOL0     C23553   5.164   4.440   8.238 -1.3177 -0.1918 -0.2078
  896MOL0     C23554   5.287   4.533   8.238 -0.6885 -0.3127 -0.8978
  896MOL0    Cl23555   5.357   4.543   8.078  0.3920 -0.2072  0.3281
  896MOL0     C23556   5.282   3.574   8.537  0.4882  0.3530 -1.0069
  896MOL0     C23557   5.291   3.475   8.633  0.3390 -0.3544  0.1748
  896MOL0     O23558   5.012   3.318   8.799 -0.1594 -0.0458  0.3612
  896MOL0     C23559   5.271   3.180   8.993 -0.5397 -0.0797 -0.1776
  896MOL0     C23560   5.292   3.127   9.122 -0.2688  0.3165  0.0599
  896MOL0     N23561   5.079   2.593   9.832  0.2275  0.6240  0.1148
  896MOL0     N23562   5.036   2.485   9.895  0.0099 -0.5107  0.0110
  896MOL0     C23563   5.223   1.644  10.396 -1.1094  0.8056  0.7688
  896MOL0     C23564   5.185   1.608  10.517 -0.4914  0.9432 -0.8391
  896MOL0     C23565   5.291   1.557  10.900 -0.0601  0.4638  0.2567
  896MOL0     C23566   5.362   1.446  10.958  0.0411 -1.0469  0.8673
  896MOL0     C23567   5.474   1.481  11.051  0.5113  0.0601 -0.0613
  896MOL0     C23568   5.509   1.611  11.082 -0.3744 -0.0932  0.9013
  896MOL0     O23569   5.604   1.634  11.172 -0.4359  0.5275 -0.7496
  896MOL0     C23570   5.732   1.698  11.129 -0.0369  0.0756  1.0121
  896MOL0     C23571   5.736   1.820  11.226  0.5076  0.4605  1.0578
  896MOL0     C23572   5.833   1.927  11.184  0.4006 -0.0430 -0.2186
  896MOL0     C23573   5.951   1.868  11.107 -0.4061 -0.2684  0.6325
  896MOL0     C23574   6.039   1.983  11.077 -0.1938 -0.1133  0.0540
  896MOL0     C23575   6.120   2.067  11.055 -0.1605  0.7220  0.0635
  896MOL0     C23576   5.451   1.711  11.004  0.7708 -0.0775  0.4453
  896MOL0     C23577   5.343   1.683  10.918  0.2436  0.4455  0.0717
  896MOL0     C23578   5.285   1.803  10.851  0.5255 -0.1630  0.2176
  896MOL0     H23579   5.413   1.357  10.582 -0.2950  0.8963  1.4714
  896MOL0     H23580   5.484   1.432  10.354 -1.5216 -3.9027  0.4136
  896MOL0     H23581   5.165   1.667  10.126  0.7401  3.7944 -3.5866
  896MOL0     H23582   5.240   1.511  10.078  0.3353 -1.0838  2.4693
  896MOL0     H23583   5.405   1.605   9.956  0.1827 -1.3856  0.8936
  896MOL0     H23584   5.255   1.663   9.898  1.2785 -3.1548 -0.7751
  896MOL0     H23585   5.430   1.830  10.085 -0.2753  3.0972 -0.3668
  896MOL0     H23586   5.424   1.854   9.913  2.9727 -0.3636  2.6554
  896MOL0     H23587   5.180   1.929  10.098 -2.7516 -1.1287 -1.2140
  896MOL0     H23588   5.302   2.014  10.005 -0.0449 -0.7542 -3.2366
  896MOL0     H23589   5.100   1.805   9.905  1.5280 -0.9143  1.1232
  896MOL0     H23590   5.195   1.926   9.802  0.9677  1.4775  1.5346
  896MOL0     H23591   4.945   1.982   9.848 -1.3861  4.0186  0.2310
  896MOL0     H23592   5.019   2.037   9.998 -1.0813 -0.7516 -0.4392
  896MOL0     H23593   5.116   2.126   9.729  2.0729  3.3148 -0.9762
  896MOL0     H23594   5.173   2.181   9.887  0.6889  2.2785 -3.2279
  896MOL0     H23595   4.900   2.232   9.801  1.6086 -0.4197 -0.9185
  896MOL0     H23596   4.954   2.246   9.960 -0.9184  0.1933 -0.6759
  896MOL0     H23597   5.044   2.378   9.589 -1.1559 -1.4606  0.0039
  896MOL0     H23598   5.159   2.582   9.494  0.4784 -1.4167  0.9458
  896MOL0     H23599   5.270   2.633   9.603  0.3659  1.1040 -2.3550
  896MOL0     H23600   5.015   2.769   9.523  0.6218 -3.7292 -2.2628
  896MOL0     H23601   5.095   2.824   9.664  2.0753  0.1787 -0.9757
  896MOL0     H23602   5.291   2.895   9.532  0.0167 -0.6221 -2.1785
  896MOL0     H23603   5.227   2.806   9.389 -0.9944 -2.5095 -0.7411
  896MOL0     H23604   5.042   2.941   9.371  3.9700 -2.7459 -1.5830
  896MOL0     H23605   5.072   3.055   9.509 -0.7394  0.6100 -0.3441
  896MOL0     H23606   4.968   3.101   9.225 -3.0377  0.1309 -3.9765
  896MOL0     H23607   4.839   3.150   8.913 -2.2473  0.1721  0.8967
  896MOL0     H23608   4.876   3.304   9.006  3.4164  0.5334 -1.9895
  896MOL0     H23609   4.829   3.149   9.079  0.7234 -1.1745  0.9497
  896MOL0     H23610   5.068   3.249   8.494  2.9484 -1.3733  1.0507
  896MOL0     H23611   5.064   3.420   8.319  0.6075 -0.4535 -0.6151
  896MOL0     H23612   5.161   3.817   8.429 -0.7604  1.5686 -2.3634
  896MOL0     H23613   5.315   3.794   8.358  0.2167 -1.7530  2.8850
  896MOL0     H23614   5.186   3.803   8.134 -1.9648 -1.3087 -1.0421
  896MOL0     H23615   5.038   3.830   8.227  0.1056 -0.3470  0.2435
  896MOL0     H23616   5.148   4.034   8.105 -0.6164  1.5878 -0.4369
  896MOL0     H23617   5.272   4.024   8.220  0.7491 -1.8742 -1.0382
  896MOL0     H23618   5.122   4.071   8.410  2.5015  2.0983 -1.0886
  896MOL0     H23619   4.974   4.042   8.311  0.3141 -0.3742  1.3180
  896MOL0     H23620   5.025   4.230   8.169 -0.0595 -0.2020  0.2055
  896MOL0     H23621   4.997   4.280   8.333  2.0385  0.6221  0.1041
  896MOL0     H23622   5.283   4.249   8.209  0.1898 -3.2504  2.2818
  896MOL0     H23623   5.254   4.289   8.374  0.1273 -0.2990 -0.0746
  896MOL0     H23624   5.096   4.478   8.315  0.7917  1.2493  1.0489
  896MOL0     H23625   5.113   4.449   8.142  1.1037  0.5321 -1.5083
  896MOL0     H23626   5.364   4.505   8.309  0.0022  0.8259 -1.1734
  896MOL0     H23627   5.254   4.629   8.279  1.0156 -0.6118  1.2916
  896MOL0     H23628   5.340   3.665   8.551  2.1665 -1.0634  2.2644
  896MOL0     H23629   5.345   3.482   8.726  1.6698 -0.3430 -0.5821
  896MOL0     H23630   5.364   3.209   8.946  0.5656 -2.0541  0.6397
  896MOL0     H23631   5.388   3.115   9.170 -1.0884 -3.3069  1.0919
  896MOL0     H23632   5.166   1.718  10.340 -0.4728  0.5456 -0.2632
  896MOL0     H23633   5.121   1.676  10.571  1.7334  2.3828  0.1199
  896MOL0     H23634   5.346   1.344  10.925  0.0644 -0.1689 -2.1574
  896MOL0     H23635   5.517   1.398  11.107 -0.9252 -1.2877 -0.8968
  896MOL0     H23636   5.819   1.632  11.129  0.8610  0.6821 -5.0905
  896MOL0     H23637   5.726   1.742  11.029  1.6161 -0.5253  0.6230
  896MOL0     H23638   5.753   1.788  11.329  0.6086 -0.7146  0.6911
  896MOL0     H23639   5.635   1.861  11.219 -0.3666 -1.7954 -0.9010
  896MOL0     H23640   5.778   1.999  11.124  1.4578  1.8087  0.9442
  896MOL0     H23641   5.866   1.965  11.281 -1.6270 -2.0080  1.3626
  896MOL0     H23642   5.923   1.825  11.011 -1.2711 -0.5885  1.0145
  896MOL0     H23643   6.003   1.786  11.157 -0.5993 -1.9227 -1.7245
  896MOL0     H23644   6.195   2.143  11.062 -0.1161  0.6332  0.5478
  896MOL0     H23645   5.492   1.811  11.019  3.0262 -0.8715 -0.0053
  896MOL0     H23646   5.314   1.895  10.902  0.6573  0.4981 -1.0247
  896MOL0     H23647   5.328   1.810  10.751  2.7710 -2.8612  0.8692
  896MOL0     H23648   5.175   1.796  10.850  0.5115  0.1088 -0.0545
  897MOL0     O23649   7.400   2.021   7.071  0.8943  0.4196  0.7361
  897MOL0     C23650   7.483   1.998   6.983 -0.3887 -0.0412  0.3851
  897MOL0     O23651   7.455   1.990   6.849 -0.3060 -0.6457 -0.9078
  897MOL0     C23652   7.328   2.034   6.811 -0.5574  0.1072 -0.0194
  897MOL0     C23653   7.259   2.152   6.856 -0.0860  0.3344 -0.3141
  897MOL0     C23654   7.125   2.176   6.817 -0.9865 -0.4388 -0.4952
  897MOL0     C23655   7.055   2.087   6.736  0.3678 -0.5073  0.2410
  897MOL0     O23656   6.921   2.119   6.713 -0.2942  0.4147  0.0436
  897MOL0     C23657   6.908   2.192   6.589  0.6515 -0.1014  0.4013
  897MOL0     C23658   6.784   2.135   6.513  0.1259 -0.3553 -0.4780
  897MOL0     C23659   6.656   2.149   6.611 -0.1446  0.3893 -0.5105
  897MOL0     C23660   6.524   2.132   6.532 -0.6693 -0.1953 -0.7207
  897MOL0     C23661   6.409   2.131   6.630  0.6756  0.1745  0.2762
  897MOL0     C23662   6.372   2.281   6.657 -0.7749  0.4809 -0.2720
  897MOL0     C23663   6.232   2.283   6.719  0.7531 -0.3055 -0.3094
  897MOL0     C23664   6.204   2.431   6.769  0.0383 -0.1958 -0.1550
  897MOL0     N23665   6.199   2.528   6.656  0.3264 -0.6600  0.8236
  897MOL0     C23666   6.308   2.589   6.593  0.9636  0.0533 -0.2831
  897MOL0     C23667   6.261   2.662   6.490  0.1879  0.4032 -1.0175
  897MOL0     C23668   6.321   2.749   6.385  0.5275  0.2205  0.5077
  897MOL0     C23669   6.433   2.696   6.296  0.5540  1.0740  0.4632
  897MOL0     C23670   6.460   2.785   6.174  0.1867  0.1924 -0.2237
  897MOL0     C23671   6.513   2.914   6.225  0.2716 -0.3971  0.1657
  897MOL0     O23672   6.552   3.008   6.125 -0.2647  0.5979  0.2798
  897MOL0     C23673   6.662   2.980   6.044 -0.1489 -0.2433 -0.0292
  897MOL0     C23674   6.774   2.892   6.067  0.9109  0.5705  0.0147
  897MOL0     C23675   6.892   2.888   5.985 -0.3987  0.0906 -0.4321
  897MOL0     C23676   6.984   2.777   6.005 -0.0932  0.2443 -0.3192
  897MOL0     C23677   6.900   2.975   5.873 -0.3218 -0.0855  0.3441
  897MOL0     C23678   7.006   2.991   5.773  0.3643 -0.0560  0.4510
  897MOL0     O23679   6.959   3.018   5.647  0.4660 -0.3400 -0.2016
  897MOL0     C23680   7.036   3.063   5.546 -0.1831  0.1426  0.3206
  897MOL0     C23681   7.170   3.102   5.561  0.1124 -0.4639  1.0029
  897MOL0     C23682   7.233   3.168   5.457  0.4802  0.0431  0.0167
  897MOL0     C23683   7.182   3.172   5.329  0.1982  0.0563 -0.0861
  897MOL0     O23684   7.257   3.224   5.229 -0.0225  0.0795  0.7356
  897MOL0     C23685   7.206   3.201   5.093 -0.6948 -0.3777  1.0377
  897MOL0     C23686   7.315   3.258   5.005 -0.0683  0.0343  1.0547
  897MOL0     C23687   7.463   3.217   5.045  0.4138 -0.0703  0.1392
  897MOL0     C23688   7.558   3.331   5.099 -0.1765  0.1379  0.4985
  897MOL0     C23689   7.708   3.310   5.110 -0.5271  1.0092  0.2502
  897MOL0     C23690   7.786   3.443   5.113  0.5066  0.2850 -0.1230
  897MOL0     C23691   7.942   3.440   5.150  0.8089 -0.3561  0.0919
  897MOL0     C23692   7.959   3.420   5.300 -0.1066 -0.3052 -0.3383
  897MOL0    Cl23693   7.886   3.557   5.388 -0.1779 -0.0077  0.0883
  897MOL0     C23694   7.045   3.127   5.309  1.3351 -1.0187 -0.8541
  897MOL0     C23695   6.972   3.074   5.420  0.4256 -0.6612 -0.5372
  897MOL0     O23696   7.121   2.951   5.800  0.3043  0.4901 -0.7927
  897MOL0     C23697   6.789   3.071   5.859  0.4810  0.5417 -0.4603
  897MOL0     C23698   6.682   3.073   5.942 -0.8627  0.3149 -0.6513
  897MOL0     N23699   6.124   2.644   6.491 -0.2558 -0.2890 -0.6521
  897MOL0     N23700   6.086   2.579   6.599 -0.6772  0.0527 -0.5987
  897MOL0     C23701   7.119   1.970   6.692 -0.0602  0.7647  0.2402
  897MOL0     C23702   7.253   1.942   6.731  0.8735  0.1022 -0.0643
  897MOL0     C23703   7.631   1.984   7.014 -1.0969 -0.1184 -0.5711
  897MOL0     C23704   7.716   2.029   6.911 -0.1337 -0.1063 -0.8493
  897MOL0     C23705   7.862   2.022   6.922 -0.4194  0.4942  0.1238
  897MOL0     C23706   7.916   1.953   7.031 -0.0530 -0.2711 -0.2948
  897MOL0     O23707   8.058   1.938   7.030 -0.4118 -0.5968 -0.4349
  897MOL0     C23708   8.131   1.918   7.157  0.0133  0.7042  0.1061
  897MOL0     C23709   8.282   1.951   7.144 -0.5447  0.1139 -0.1066
  897MOL0     C23710   8.353   1.851   7.045 -0.5058 -0.9955  0.0011
  897MOL0     C23711   8.507   1.846   7.081 -0.3500  0.6585  0.5318
  897MOL0     C23712   8.587   1.970   7.034  0.4991  0.3800  0.0878
  897MOL0     C23713   8.649   2.067   7.007  0.9556 -0.8128 -0.2497
  897MOL0     C23714   7.834   1.915   7.137 -0.0747  0.0048 -1.2690
  897MOL0     C23715   7.694   1.940   7.133  0.1544  0.1872 -0.2681
  897MOL0     C23716   7.609   1.898   7.249 -1.2982 -0.9854  0.0692
  897MOL0     H23717   7.306   2.217   6.929 -0.9894  1.6711 -0.8791
  897MOL0     H23718   7.082   2.267   6.859  1.9765  1.7584 -1.8146
  897MOL0     H23719   6.990   2.174   6.519  1.3650 -4.1034  2.0146
  897MOL0     H23720   6.901   2.299   6.609  1.4568 -0.0101  0.2413
  897MOL0     H23721   6.767   2.195   6.423 -0.3645 -2.2254 -1.6985
  897MOL0     H23722   6.803   2.029   6.495 -1.4827 -0.6484 -0.5870
  897MOL0     H23723   6.673   2.079   6.693  0.0290  1.1569  0.1275
  897MOL0     H23724   6.661   2.252   6.647  3.0322  1.1382 -2.6758
  897MOL0     H23725   6.516   2.214   6.460 -0.8080 -0.4459 -0.9934
  897MOL0     H23726   6.518   2.037   6.478 -3.1480  0.4058 -1.6458
  897MOL0     H23727   6.439   2.093   6.728  0.7630  0.7606  0.4785
  897MOL0     H23728   6.324   2.073   6.593  2.0690 -0.4069 -2.1712
  897MOL0     H23729   6.445   2.338   6.716 -0.1449  0.0810 -0.6510
  897MOL0     H23730   6.367   2.328   6.559 -0.2633 -1.3414 -1.2256
  897MOL0     H23731   6.223   2.214   6.803 -2.2474  3.6254  2.9934
  897MOL0     H23732   6.159   2.253   6.643  0.3030 -0.3960  0.1554
  897MOL0     H23733   6.101   2.424   6.804 -0.3492 -1.0858 -1.4122
  897MOL0     H23734   6.277   2.458   6.847 -0.6485 -1.5746  1.0169
  897MOL0     H23735   6.413   2.566   6.605  1.2931  0.3098 -2.3882
  897MOL0     H23736   6.357   2.839   6.435  2.2944  0.2443 -0.6915
  897MOL0     H23737   6.245   2.797   6.323  2.4964  2.1531 -0.5737
  897MOL0     H23738   6.515   2.684   6.367 -0.3234 -1.2916  1.1896
  897MOL0     H23739   6.400   2.598   6.261  4.0220  0.7283 -2.3497
  897MOL0     H23740   6.529   2.721   6.119 -2.8117 -1.2615 -2.5752
  897MOL0     H23741   6.369   2.796   6.115 -0.9918  3.6098  1.9288
  897MOL0     H23742   6.431   2.959   6.281  0.4336  0.8943 -0.6054
  897MOL0     H23743   6.598   2.902   6.294  1.0380  1.9579 -0.2888
  897MOL0     H23744   6.772   2.832   6.158 -1.4710  2.3011  1.2052
  897MOL0     H23745   7.016   2.755   6.107 -0.5374  0.5976 -0.0992
  897MOL0     H23746   7.086   2.795   5.969  1.5906 -2.6980  2.5028
  897MOL0     H23747   6.947   2.680   5.969  1.1444 -0.6561  0.7380
  897MOL0     H23748   7.232   3.108   5.650 -0.2986  5.7119  1.2879
  897MOL0     H23749   7.337   3.196   5.470  1.0845 -1.8795 -0.3383
  897MOL0     H23750   7.191   3.100   5.053 -1.2736  1.2452 -3.3471
  897MOL0     H23751   7.126   3.273   5.072 -0.6878 -1.1718 -2.1799
  897MOL0     H23752   7.292   3.218   4.906 -1.4442 -1.9736  2.1168
  897MOL0     H23753   7.316   3.367   5.013  2.9287  0.1512  0.3029
  897MOL0     H23754   7.526   3.184   4.961  0.0418  2.8779 -1.4349
  897MOL0     H23755   7.474   3.139   5.120  1.7237  0.1897  0.2483
  897MOL0     H23756   7.528   3.365   5.198 -0.0220 -3.1356  1.8087
  897MOL0     H23757   7.542   3.406   5.022 -0.8785 -0.8240 -0.3257
  897MOL0     H23758   7.723   3.256   5.204  1.2791  3.0072  1.1831
  897MOL0     H23759   7.756   3.259   5.026 -0.7080 -1.2266  1.4167
  897MOL0     H23760   7.741   3.497   5.196  0.2547  2.1216 -1.3954
  897MOL0     H23761   7.765   3.498   5.020  0.4278  1.5556  0.6241
  897MOL0     H23762   7.974   3.537   5.111 -4.9258  1.3340 -1.4664
  897MOL0     H23763   7.983   3.362   5.086  2.8902 -0.2890  1.2562
  897MOL0     H23764   8.066   3.408   5.321 -0.1746 -3.1508 -1.2756
  897MOL0     H23765   7.917   3.323   5.324 -0.5859 -0.6174 -2.2751
  897MOL0     H23766   6.991   3.135   5.215 -1.6410  0.0301  0.8442
  897MOL0     H23767   6.871   3.038   5.406  0.9780 -3.5356  1.7332
  897MOL0     H23768   6.800   3.140   5.776  2.0624 -0.9798 -1.5844
  897MOL0     H23769   6.606   3.148   5.923  0.5638  3.1715  3.4911
  897MOL0     H23770   7.059   1.902   6.632 -2.2558  1.6438  1.3385
  897MOL0     H23771   7.314   1.853   6.715 -0.4502 -1.1427  1.4480
  897MOL0     H23772   7.683   2.091   6.828 -1.4544 -2.4771 -2.2020
  897MOL0     H23773   7.927   2.059   6.844  0.2271 -0.0200  0.4101
  897MOL0     H23774   8.074   1.991   7.216 -3.4608 -1.0790 -0.7486
  897MOL0     H23775   8.125   1.812   7.182 -1.4883  0.2843 -1.8243
  897MOL0     H23776   8.331   1.955   7.242  2.2888 -0.9494 -1.3628
  897MOL0     H23777   8.292   2.053   7.106 -0.9650  0.6195  1.0998
  897MOL0     H23778   8.308   1.753   7.058 -1.1732 -0.8207 -0.8733
  897MOL0     H23779   8.339   1.887   6.942  3.6243  3.1666  0.5343
  897MOL0     H23780   8.562   1.762   7.039  2.0629  2.0586  0.7230
  897MOL0     H23781   8.505   1.833   7.190 -3.0278  1.2006  0.6242
  897MOL0     H23782   8.720   2.143   6.983 -0.2401 -0.0239 -1.4200
  897MOL0     H23783   7.883   1.860   7.217 -1.5765 -1.2251 -1.1460
  897MOL0     H23784   7.544   1.982   7.274 -0.2102 -0.1215  0.0702
  897MOL0     H23785   7.554   1.812   7.210 -0.3025 -0.8380 -1.7644
  897MOL0     H23786   7.678   1.864   7.326  2.4571  1.6576 -1.8118
  898MOL0     O23787   8.793   0.470   2.251 -0.0598  0.0805  0.2647
  898MOL0     C23788   8.671   0.488   2.258  0.7089 -0.4215  0.0156
  898MOL0     O23789   8.570   0.443   2.163 -0.0834 -0.0828  0.8621
  898MOL0     C23790   8.602   0.433   2.025  0.0009  0.3185 -0.9835
  898MOL0     C23791   8.507   0.480   1.938  0.2604 -0.5787  0.5827
  898MOL0     C23792   8.517   0.450   1.801 -0.1783  0.5553 -0.1020
  898MOL0     C23793   8.621   0.368   1.748 -1.1720  0.3930 -0.6335
  898MOL0     O23794   8.617   0.323   1.615 -0.5505  0.7574 -0.5668
  898MOL0     C23795   8.497   0.304   1.543  0.2027  0.1832 -0.3714
  898MOL0     C23796   8.535   0.232   1.414  0.4305 -0.0613 -0.0962
  898MOL0     C23797   8.534   0.083   1.432  0.0487 -0.3629  0.4168
  898MOL0     C23798   8.628  -0.000   1.342 -0.1549 -0.0906  0.0126
  898MOL0     C23799   8.751  -0.045   1.416 -1.3545  0.2133 -0.6693
  898MOL0     C23800   8.842  -0.122   1.318  0.1059 -0.4797  0.2813
  898MOL0     C23801   8.933  -0.221   1.388 -0.0551  0.3533 -0.2430
  898MOL0     C23802   9.075  -0.238   1.330 -1.0312 -0.1225  0.0430
  898MOL0     N23803   9.080  -0.302   1.196  0.4085  0.7866  0.0832
  898MOL0     C23804   9.152  -0.418   1.174 -1.2549 -0.3401  0.2538
  898MOL0     C23805   9.149  -0.418   1.040 -0.6509  0.0256 -0.5169
  898MOL0     C23806   9.205  -0.538   0.966 -0.4717 -0.6924 -0.0993
  898MOL0     C23807   9.349  -0.532   0.935 -0.7684  0.5708 -0.5757
  898MOL0     C23808   9.372  -0.448   0.803  0.6586 -0.4611  0.1533
  898MOL0     C23809   9.519  -0.456   0.756  1.4676  0.4079  0.4174
  898MOL0     O23810   9.592  -0.407   0.867 -0.6177 -0.0831 -0.1108
  898MOL0     C23811   9.731  -0.399   0.852  0.1411  0.4283  0.3933
  898MOL0     C23812   9.812  -0.436   0.745 -0.0869 -0.7791 -0.4781
  898MOL0     C23813   9.949  -0.410   0.756 -0.6591 -0.2605  0.3103
  898MOL0     C23814  10.033  -0.435   0.635  1.0946 -0.1402 -0.2952
  898MOL0     C23815  10.012  -0.362   0.872  0.4436 -0.0931 -0.9235
  898MOL0     C23816  10.156  -0.341   0.898 -0.7987 -0.3242 -0.2318
  898MOL0     O23817  10.204  -0.394   1.014  0.3555 -0.6301 -1.2037
  898MOL0     C23818  10.335  -0.363   1.048  0.1811 -0.0580  0.3297
  898MOL0     C23819  10.422  -0.462   1.090  0.0328 -0.7600  0.0765
  898MOL0     C23820  10.551  -0.429   1.128 -1.1356  0.4638  0.6344
  898MOL0     C23821  10.599  -0.299   1.123 -1.3941  0.5885 -0.3461
  898MOL0     O23822  10.721  -0.252   1.142  0.7967  0.2746  0.4391
  898MOL0     C23823  10.832  -0.332   1.089  0.4334 -0.0464  0.3370
  898MOL0     C23824  10.962  -0.287   1.160  0.5620  0.2763 -0.4824
  898MOL0     C23825  11.058  -0.405   1.175 -0.6075 -0.2844 -0.5524
  898MOL0     C23826  11.179  -0.369   1.263 -0.0179  0.4750 -0.6294
  898MOL0     C23827  11.275  -0.487   1.288  0.2151 -0.2199 -0.0090
  898MOL0     C23828  11.399  -0.432   1.357  0.3872  0.4892  0.0313
  898MOL0     C23829  11.366  -0.360   1.485 -0.4828  0.7140  0.1545
  898MOL0     C23830  11.496  -0.337   1.571  0.2471 -0.8923 -1.0936
  898MOL0    Cl23831  11.555  -0.480   1.648  0.1590 -0.2102  0.0387
  898MOL0     C23832  10.507  -0.199   1.083  0.0940 -0.3599  0.1082
  898MOL0     C23833  10.379  -0.231   1.048 -0.0027  0.2260  0.4020
  898MOL0     O23834  10.229  -0.288   0.809  0.1832 -0.4712  0.9240
  898MOL0     C23835   9.927  -0.336   0.980 -1.0381 -0.3826 -0.2224
  898MOL0     C23836   9.793  -0.339   0.969  0.3864  0.0593  0.7202
  898MOL0     N23837   9.055  -0.329   0.987  0.0243  0.9635  0.3317
  898MOL0     N23838   9.007  -0.272   1.086 -0.2652 -0.5257  0.2999
  898MOL0     C23839   8.715   0.338   1.847 -1.0198 -0.3142  0.1395
  898MOL0     C23840   8.715   0.374   1.979 -0.4156  0.1074  0.0543
  898MOL0     C23841   8.616   0.562   2.377  0.5532 -0.1158  0.7050
  898MOL0     C23842   8.473   0.551   2.399  0.1565 -0.4144  0.5296
  898MOL0     C23843   8.407   0.614   2.510 -0.4741  0.1018  0.2439
  898MOL0     C23844   8.484   0.694   2.589 -0.2877  0.5065 -0.8439
  898MOL0     O23845   8.434   0.778   2.694 -0.3073  0.1262  0.9901
  898MOL0     C23846   8.430   0.727   2.828  0.3532  0.1535 -0.0304
  898MOL0     C23847   8.314   0.792   2.903  0.5208  0.7159 -0.1047
  898MOL0     C23848   8.325   0.736   3.042  0.0404 -1.2341  0.1103
  898MOL0     C23849   8.186   0.760   3.118  0.9674  0.2473  0.4618
  898MOL0     C23850   8.118   0.883   3.085  0.3073  0.3151 -0.9248
  898MOL0     C23851   8.049   0.982   3.064 -1.0719 -0.6538  0.0432
  898MOL0     C23852   8.619   0.711   2.573  0.7048  0.2614 -0.2556
  898MOL0     C23853   8.688   0.645   2.465  0.2789  1.1182  0.2272
  898MOL0     C23854   8.837   0.680   2.463 -0.1938 -0.9502  0.7062
  898MOL0     H23855   8.423   0.545   1.959  0.4096 -0.0191 -0.5059
  898MOL0     H23856   8.440   0.489   1.734 -2.1061 -2.2433  0.2977
  898MOL0     H23857   8.458   0.402   1.513 -2.8467 -0.7890  0.0529
  898MOL0     H23858   8.414   0.267   1.604 -1.3211  1.4806 -1.5594
  898MOL0     H23859   8.469   0.252   1.329 -2.1972 -0.8974  1.6182
  898MOL0     H23860   8.633   0.268   1.383 -0.4072  3.4721  0.8934
  898MOL0     H23861   8.551   0.051   1.535 -0.5780  0.9335  0.9606
  898MOL0     H23862   8.435   0.044   1.404 -1.0362  2.5745 -0.2800
  898MOL0     H23863   8.587  -0.092   1.299  2.2937 -1.1033 -0.3403
  898MOL0     H23864   8.656   0.058   1.254  0.8777  0.3340  0.6054
  898MOL0     H23865   8.722  -0.127   1.482 -1.0530 -2.7459 -3.9183
  898MOL0     H23866   8.787   0.042   1.472 -0.1658 -1.0607  0.6105
  898MOL0     H23867   8.782  -0.165   1.237  0.0359 -1.0067  0.6130
  898MOL0     H23868   8.902  -0.047   1.265  0.6200  0.3321  1.9429
  898MOL0     H23869   8.890  -0.321   1.389  1.5934 -0.4254  2.1581
  898MOL0     H23870   8.943  -0.183   1.490  2.4515  1.6964 -0.8862
  898MOL0     H23871   9.132  -0.146   1.325  1.0055 -1.2784  0.8944
  898MOL0     H23872   9.141  -0.299   1.392 -0.7106  0.4428  0.2668
  898MOL0     H23873   9.201  -0.494   1.233 -0.4121 -0.9017 -1.1176
  898MOL0     H23874   9.145  -0.569   0.880  1.4181  1.3655 -2.3351
  898MOL0     H23875   9.185  -0.616   1.039 -1.4696 -0.3342  0.0300
  898MOL0     H23876   9.402  -0.487   1.020  0.5545  2.1386 -2.1199
  898MOL0     H23877   9.387  -0.634   0.925 -3.4395 -0.3272 -2.6307
  898MOL0     H23878   9.303  -0.484   0.727 -0.1057 -0.5042  0.8540
  898MOL0     H23879   9.340  -0.350   0.839  1.7802 -0.8111  2.2923
  898MOL0     H23880   9.549  -0.554   0.718  0.2536  0.4772 -0.8099
  898MOL0     H23881   9.528  -0.388   0.670  2.1389  0.8291  0.8185
  898MOL0     H23882   9.773  -0.469   0.649 -0.9038 -1.2429  0.0008
  898MOL0     H23883  10.051  -0.335   0.593  0.3138  0.5441  0.9357
  898MOL0     H23884   9.981  -0.491   0.557  1.7672 -0.2894 -0.6401
  898MOL0     H23885  10.124  -0.488   0.666  0.2075 -1.1543  0.6578
  898MOL0     H23886  10.402  -0.568   1.102  2.8700 -1.2900  0.8792
  898MOL0     H23887  10.622  -0.507   1.153 -0.1246 -0.0624 -3.2831
  898MOL0     H23888  10.804  -0.438   1.093 -0.4682  0.1822  0.2110
  898MOL0     H23889  10.844  -0.314   0.982  1.7492  2.0863  0.7727
  898MOL0     H23890  11.005  -0.202   1.105 -1.9397  0.6276 -2.0419
  898MOL0     H23891  10.927  -0.255   1.259 -3.0343  2.6407 -2.2902
  898MOL0     H23892  11.100  -0.417   1.075 -1.3382 -0.8809 -0.7974
  898MOL0     H23893  11.006  -0.496   1.207 -0.2888 -0.1363  0.4251
  898MOL0     H23894  11.127  -0.328   1.350 -2.9696 -1.8888 -1.0982
  898MOL0     H23895  11.226  -0.284   1.213  0.6546  1.1354  1.0641
  898MOL0     H23896  11.230  -0.557   1.360  1.1806 -0.3557  0.4724
  898MOL0     H23897  11.300  -0.518   1.186  1.9188 -0.2874  0.4111
  898MOL0     H23898  11.458  -0.360   1.300 -0.9313  2.4458  1.0305
  898MOL0     H23899  11.465  -0.517   1.376  0.8112  1.1484  1.5947
  898MOL0     H23900  11.291  -0.414   1.544 -1.5867  0.6775 -1.2271
  898MOL0     H23901  11.316  -0.268   1.453 -2.1900 -0.1699  0.1220
  898MOL0     H23902  11.466  -0.268   1.649 -1.2602  0.0796 -2.4661
  898MOL0     H23903  11.579  -0.298   1.511  1.1818 -1.1948 -0.0309
  898MOL0     H23904  10.538  -0.098   1.059  3.3387 -0.5590  2.7563
  898MOL0     H23905  10.330  -0.141   1.015 -0.0504  0.0267 -0.0719
  898MOL0     H23906   9.981  -0.320   1.072 -2.8050 -0.7160  0.9236
  898MOL0     H23907   9.737  -0.305   1.056  0.0714  1.5355 -0.0212
  898MOL0     H23908   8.802   0.278   1.822 -0.7861  0.5912 -1.4359
  898MOL0     H23909   8.790   0.338   2.049  0.6472 -2.4511 -2.1938
  898MOL0     H23910   8.411   0.506   2.322 -1.1283  0.1154  1.2346
  898MOL0     H23911   8.299   0.609   2.512 -0.5157  0.8788  0.3858
  898MOL0     H23912   8.430   0.618   2.824 -1.8383  0.0584  0.9013
  898MOL0     H23913   8.524   0.750   2.880  0.0941 -1.3164  1.1562
  898MOL0     H23914   8.221   0.757   2.858  1.7999 -1.6775 -1.1008
  898MOL0     H23915   8.330   0.900   2.899 -0.6833  0.8682 -1.7430
  898MOL0     H23916   8.334   0.627   3.040 -2.0447 -1.4270 -1.1485
  898MOL0     H23917   8.406   0.784   3.099 -1.6781  0.6300  1.0839
  898MOL0     H23918   8.202   0.752   3.226  2.7662 -2.4157  0.0995
  898MOL0     H23919   8.120   0.678   3.090 -1.0209  1.7454  0.5228
  898MOL0     H23920   7.999   1.076   3.052  1.8319  0.9038 -1.0006
  898MOL0     H23921   8.673   0.781   2.635  2.9342 -2.3992  1.0179
  898MOL0     H23922   8.871   0.783   2.474 -4.0045  1.1786 -3.9055
  898MOL0     H23923   8.885   0.623   2.543  0.4587 -0.2824  0.8022
  898MOL0     H23924   8.889   0.654   2.370  0.1901  1.9684 -0.0132
  899MOL0     O23925  11.334   4.696   0.490  0.6021 -0.1916 -0.4252
  899MOL0     C23926  11.225   4.721   0.541  0.1265 -0.3579  0.6311
  899MOL0     O23927  11.116   4.633   0.540 -0.2877  0.1255  0.5232
  899MOL0     C23928  11.123   4.500   0.506  0.2984 -0.3025  0.2648
  899MOL0     C23929  11.184   4.447   0.391  0.3986  0.3333 -0.8313
  899MOL0     C23930  11.187   4.311   0.361  1.7985 -0.7554  0.1841
  899MOL0     C23931  11.113   4.220   0.434 -0.4462  0.8948 -1.1277
  899MOL0     O23932  11.079   4.084   0.409 -0.1818 -0.2810 -0.1305
  899MOL0     C23933  11.191   4.008   0.363  0.0231  0.5204  0.2106
  899MOL0     C23934  11.152   3.877   0.298 -0.4601  1.2752  0.3881
  899MOL0     C23935  11.059   3.889   0.179  0.8894 -0.4307 -0.0205
  899MOL0     C23936  10.918   3.829   0.201 -0.1684  0.9973  0.1163
  899MOL0     C23937  10.843   3.820   0.069  0.7030  0.3152 -0.1918
  899MOL0     C23938  10.701   3.775   0.089 -0.8633 -0.4198 -0.5426
  899MOL0     C23939  10.696   3.618   0.107  0.3470  0.0747  0.7505
  899MOL0     C23940  10.550   3.572   0.092 -0.0005  0.2087  0.2773
  899MOL0     N23941  10.460   3.633   0.189  0.0879 -1.0450 -0.3115
  899MOL0     C23942  10.447   3.616   0.328  0.3968 -0.6345 -0.7382
  899MOL0     C23943  10.351   3.704   0.358 -0.2524  0.7383  1.1133
  899MOL0     C23944  10.270   3.710   0.484 -0.6305 -0.4606  0.2331
  899MOL0     C23945  10.148   3.623   0.483  0.9128 -0.5698  0.5551
  899MOL0     C23946  10.170   3.473   0.451 -0.6751 -0.6910  0.5194
  899MOL0     C23947  10.037   3.403   0.443  0.0202  0.7387 -0.5687
  899MOL0     O23948  10.060   3.280   0.374  0.4128  0.2113  0.6389
  899MOL0     C23949   9.968   3.181   0.381 -0.9958  0.2289 -0.7714
  899MOL0     C23950  10.004   3.061   0.319  0.6148 -0.1755 -0.1781
  899MOL0     C23951   9.928   2.949   0.311  0.5878 -0.5393  0.2798
  899MOL0     C23952   9.981   2.838   0.222  1.0720 -0.4275  0.9912
  899MOL0     C23953   9.809   2.949   0.396  0.0840 -0.3191  0.6084
  899MOL0     C23954   9.725   2.827   0.409 -0.1699 -0.4218 -0.0419
  899MOL0     O23955   9.644   2.827   0.523  0.7126  0.2780  0.8603
  899MOL0     C23956   9.573   2.712   0.548  0.0078  0.2472 -0.3801
  899MOL0     C23957   9.608   2.578   0.537  0.1471 -1.0495  0.3132
  899MOL0     C23958   9.534   2.470   0.567 -0.5654 -0.5591  0.4559
  899MOL0     C23959   9.405   2.495   0.603 -0.3916 -0.6771 -0.5529
  899MOL0     O23960   9.332   2.388   0.631  0.3835  0.2849  0.5752
  899MOL0     C23961   9.230   2.404   0.721  0.4840  0.7969  0.3078
  899MOL0     C23962   9.176   2.267   0.748  0.0654 -0.9327  0.4456
  899MOL0     C23963   9.275   2.170   0.824  0.2413 -0.7008 -0.7675
  899MOL0     C23964   9.206   2.105   0.944  0.4112  0.2220  0.5407
  899MOL0     C23965   9.074   2.017   0.915  0.3927 -0.0210 -0.0038
  899MOL0     C23966   9.002   1.949   1.044 -0.1846 -0.8941  0.5551
  899MOL0     C23967   8.882   1.881   0.993 -0.0089 -0.2302  0.3875
  899MOL0     C23968   8.763   1.978   0.972  0.1613  0.2825 -0.9914
  899MOL0    Cl23969   8.641   1.886   0.881  0.1655  0.0999  0.1067
  899MOL0     C23970   9.353   2.623   0.612  0.0625  0.6758 -0.0475
  899MOL0     C23971   9.443   2.732   0.592 -0.1503 -0.4362  0.1969
  899MOL0     O23972   9.743   2.737   0.333 -0.1260 -0.7985 -0.2198
  899MOL0     C23973   9.766   3.068   0.451 -0.5579  0.0110  0.0068
  899MOL0     C23974   9.851   3.183   0.452  0.9104  0.6448  0.0011
  899MOL0     N23975  10.316   3.786   0.251  0.7495 -0.3896 -1.0325
  899MOL0     N23976  10.377   3.735   0.146  0.2773 -0.0339  0.6486
  899MOL0     C23977  11.040   4.274   0.544  0.6095  0.9632  0.7278
  899MOL0     C23978  11.047   4.409   0.578  0.5002  0.0385 -0.1484
  899MOL0     C23979  11.225   4.858   0.602 -0.7904 -0.4594  1.4659
  899MOL0     C23980  11.346   4.930   0.615  0.3917 -0.2003  0.7417
  899MOL0     C23981  11.358   5.050   0.680  0.2884  0.8890 -0.2059
  899MOL0     C23982  11.245   5.116   0.736 -0.8155 -0.1435  0.5298
  899MOL0     O23983  11.253   5.237   0.796  0.7562  0.6059 -0.1986
  899MOL0     C23984  11.266   5.248   0.943 -1.2730  0.7975  0.0264
  899MOL0     C23985  11.133   5.226   1.012 -0.4870  0.2032 -0.6417
  899MOL0     C23986  11.049   5.347   0.993 -0.0000 -0.8295 -0.2607
  899MOL0     C23987  10.907   5.325   1.009  0.9980 -0.2442 -0.2677
  899MOL0     C23988  10.851   5.261   0.895 -0.6256 -0.7225  0.1736
  899MOL0     C23989  10.804   5.211   0.800  0.0476 -1.1116  0.5572
  899MOL0     C23990  11.120   5.054   0.708 -0.2912  0.0982 -0.2302
  899MOL0     C23991  11.112   4.931   0.643  0.4406  0.7351  0.2563
  899MOL0     C23992  10.975   4.895   0.595 -0.5043  0.2945  0.6213
  899MOL0     H23993  11.227   4.499   0.307 -1.6889 -0.4870 -2.5075
  899MOL0     H23994  11.248   4.274   0.280  2.1301 -1.8136  0.8982
  899MOL0     H23995  11.269   4.000   0.438  2.7924  0.6825 -2.4646
  899MOL0     H23996  11.232   4.077   0.289 -3.9208  1.8570 -0.9711
  899MOL0     H23997  11.241   3.826   0.259 -2.4728 -1.8489 -0.4580
  899MOL0     H23998  11.110   3.814   0.377 -0.9060  1.4375  0.2841
  899MOL0     H23999  11.062   3.994   0.148  2.8096 -0.9979 -1.9568
  899MOL0     H24000  11.107   3.832   0.100  0.0334 -1.7237  0.3569
  899MOL0     H24001  10.920   3.726   0.238  0.3046 -0.4342 -3.4929
  899MOL0     H24002  10.865   3.891   0.274 -0.9519 -0.1277  0.5217
  899MOL0     H24003  10.899   3.747   0.010 -3.6046 -2.3507 -1.4113
  899MOL0     H24004  10.852   3.924   0.035 -1.1653  0.5046 -0.2037
  899MOL0     H24005  10.668   3.833   0.176  0.4186 -0.2866 -0.1362
  899MOL0     H24006  10.650   3.791  -0.006 -1.9756  0.4527  0.1636
  899MOL0     H24007  10.721   3.598   0.212  2.7728 -0.2094  0.1856
  899MOL0     H24008  10.775   3.568   0.051  2.1707  3.3565  0.1770
  899MOL0     H24009  10.515   3.601  -0.007 -2.0572  3.0072  1.6770
  899MOL0     H24010  10.558   3.463   0.104 -1.8474 -0.1013 -0.8886
  899MOL0     H24011  10.490   3.536   0.388 -1.6484 -1.6890 -0.6017
  899MOL0     H24012  10.245   3.814   0.504  1.9271  0.7944 -2.4505
  899MOL0     H24013  10.324   3.666   0.569  0.0498  1.7633  1.0254
  899MOL0     H24014  10.091   3.625   0.576  1.6847 -1.8091  1.0857
  899MOL0     H24015  10.086   3.665   0.404  1.0756 -0.1720  0.6379
  899MOL0     H24016  10.214   3.455   0.353  3.6076 -0.3526  2.1907
  899MOL0     H24017  10.227   3.420   0.527 -3.2755 -2.6815  1.2446
  899MOL0     H24018   9.996   3.400   0.544 -0.9424  1.3841 -0.9257
  899MOL0     H24019   9.958   3.463   0.397  1.9022  3.0827 -0.9423
  899MOL0     H24020  10.096   3.069   0.261 -0.7115 -1.0090 -2.5461
  899MOL0     H24021  10.041   2.754   0.258 -0.0407 -2.8632 -2.3691
  899MOL0     H24022  10.035   2.892   0.144 -4.4721 -0.7212 -3.7789
  899MOL0     H24023   9.904   2.797   0.156 -0.0927 -1.1867  2.7290
  899MOL0     H24024   9.713   2.569   0.513  1.3184  4.3216  2.0436
  899MOL0     H24025   9.583   2.373   0.555  0.7111  0.2310 -1.2623
  899MOL0     H24026   9.271   2.437   0.817  1.1856 -1.3634  0.8044
  899MOL0     H24027   9.147   2.467   0.687 -0.0162  0.7839  1.4557
  899MOL0     H24028   9.087   2.289   0.808 -0.9637  0.1568 -1.3688
  899MOL0     H24029   9.127   2.227   0.658 -1.9978 -1.1001  1.5858
  899MOL0     H24030   9.358   2.230   0.861 -0.3789 -0.3461  0.1046
  899MOL0     H24031   9.310   2.092   0.756 -0.9240 -0.0995 -2.1023
  899MOL0     H24032   9.179   2.183   1.015 -0.2823  1.1468 -0.6973
  899MOL0     H24033   9.277   2.052   1.009  1.4637  1.8515  0.7779
  899MOL0     H24034   9.002   2.079   0.862  2.3616  1.0727 -1.5166
  899MOL0     H24035   9.108   1.938   0.847  2.9925  1.9084 -1.0790
  899MOL0     H24036   8.974   2.026   1.116 -0.4580  2.3296 -2.7204
  899MOL0     H24037   9.069   1.882   1.100 -0.5742 -2.0017 -0.2785
  899MOL0     H24038   8.847   1.821   1.077  0.0127  3.7506  3.5359
  899MOL0     H24039   8.899   1.813   0.909  0.1355 -0.2955  0.4683
  899MOL0     H24040   8.790   2.063   0.908  1.3076 -0.7343 -1.8964
  899MOL0     H24041   8.735   2.022   1.068 -0.3510 -1.7761 -0.1385
  899MOL0     H24042   9.251   2.635   0.648 -2.2781 -3.6742 -4.0580
  899MOL0     H24043   9.439   2.840   0.604  1.9589 -0.3344  0.3212
  899MOL0     H24044   9.674   3.060   0.508  1.9651 -1.8909  4.3786
  899MOL0     H24045   9.814   3.276   0.494  1.2269  0.6778  0.2084
  899MOL0     H24046  10.983   4.194   0.590  1.5598 -1.1089 -1.4702
  899MOL0     H24047  10.992   4.429   0.669  1.4753  0.8348  0.2808
  899MOL0     H24048  11.444   4.893   0.589  1.3754  2.3615  0.5948
  899MOL0     H24049  11.452   5.105   0.683  0.4933  0.7493 -2.4429
  899MOL0     H24050  11.336   5.168   0.965 -1.0406  1.8424  3.6073
  899MOL0     H24051  11.313   5.346   0.955  1.1097  0.0295 -2.1460
  899MOL0     H24052  11.164   5.203   1.115  0.3992  1.5272 -0.5796
  899MOL0     H24053  11.088   5.136   0.968 -1.3423 -0.4262  1.3955
  899MOL0     H24054  11.075   5.426   1.064 -2.3497 -1.5385  1.5169
  899MOL0     H24055  11.058   5.390   0.893 -0.2624 -1.3893 -0.5278
  899MOL0     H24056  10.877   5.430   1.015  1.9929  0.0540 -0.3085
  899MOL0     H24057  10.880   5.266   1.098  2.2558  4.4149  3.6000
  899MOL0     H24058  10.767   5.177   0.705 -4.1110  3.6064  0.0594
  899MOL0     H24059  11.038   5.122   0.734 -0.5522  0.1831 -1.2458
  899MOL0     H24060  10.957   4.905   0.488 -2.1300  1.0658  0.9248
  899MOL0     H24061  10.962   4.787   0.608  2.6821  0.1405  4.1167
  899MOL0     H24062  10.892   4.945   0.646 -1.7183  0.8312 -1.7361
  900MOL0     O24063   4.347   1.665   4.606  0.0753 -0.0637  0.5308
  900MOL0     C24064   4.407   1.749   4.668  0.1267 -0.5033 -0.1879
  900MOL0     O24065   4.490   1.723   4.771 -0.1668 -0.2958 -0.7575
  900MOL0     C24066   4.469   1.601   4.835 -0.5322 -0.3456 -0.3323
  900MOL0     C24067   4.367   1.588   4.921  0.2016  0.2372 -0.1275
  900MOL0     C24068   4.346   1.475   5.000 -0.3891 -0.7308  0.4941
  900MOL0     C24069   4.428   1.368   4.984  0.5208  0.5945  0.2267
  900MOL0     O24070   4.409   1.233   5.012  0.4092  0.3536 -0.9469
  900MOL0     C24071   4.315   1.212   5.106 -0.4553 -0.5599 -0.3167
  900MOL0     C24072   4.339   1.064   5.143  0.9384 -0.6582 -0.8125
  900MOL0     C24073   4.442   1.045   5.261  0.3536 -0.1033  0.4941
  900MOL0     C24074   4.509   0.914   5.265  0.4534  0.2310  0.1564
  900MOL0     C24075   4.602   0.898   5.384 -0.1966  0.1878 -1.3662
  900MOL0     C24076   4.538   0.836   5.514 -0.3802 -0.8844 -0.8046
  900MOL0     C24077   4.630   0.854   5.632  0.0687 -0.3624  0.3927
  900MOL0     C24078   4.561   0.783   5.752 -0.8215  0.1414  0.1119
  900MOL0     N24079   4.629   0.818   5.879  0.1883  0.0628  0.1503
  900MOL0     C24080   4.736   0.903   5.907 -1.4710  0.0273  0.1699
  900MOL0     C24081   4.738   0.911   6.041  0.5182 -0.3678 -0.1132
  900MOL0     C24082   4.833   0.985   6.134  0.4501  1.0399  0.5770
  900MOL0     C24083   4.759   1.108   6.178 -0.1429  0.3712 -0.1808
  900MOL0     C24084   4.841   1.182   6.288  0.3768 -0.1506 -0.2051
  900MOL0     C24085   4.821   1.129   6.433  0.0419  0.5779  0.9233
  900MOL0     O24086   4.673   1.125   6.445  0.0845  0.0135  0.0837
  900MOL0     C24087   4.623   1.122   6.573  0.1413  0.0463 -0.7469
  900MOL0     C24088   4.692   1.119   6.699  0.2624 -0.3588  0.2826
  900MOL0     C24089   4.618   1.130   6.816  0.8845  0.5579  0.6221
  900MOL0     C24090   4.693   1.157   6.945  0.7896 -0.0614  0.2154
  900MOL0     C24091   4.474   1.136   6.812 -0.0445 -0.1286 -0.3737
  900MOL0     C24092   4.400   1.147   6.931  0.2022 -0.7074 -0.2068
  900MOL0     O24093   4.399   1.032   7.011 -0.2323  0.1920 -0.7163
  900MOL0     C24094   4.321   1.020   7.124 -0.0346  0.5727  0.9362
  900MOL0     C24095   4.181   1.040   7.119 -0.3492  0.5652  0.6576
  900MOL0     C24096   4.098   1.001   7.223  0.4726  0.9875 -0.0227
  900MOL0     C24097   4.151   0.938   7.342  0.4988 -1.0511 -0.3072
  900MOL0     O24098   4.064   0.932   7.448 -0.2961  0.5077 -0.2378
  900MOL0     C24099   4.111   0.883   7.574 -0.6190  0.0738  0.8445
  900MOL0     C24100   4.013   0.943   7.678  0.5339  0.2455  0.3818
  900MOL0     C24101   4.008   1.094   7.667  0.0225 -0.6051 -0.6515
  900MOL0     C24102   3.972   1.180   7.791 -0.2134 -0.5086  0.5439
  900MOL0     C24103   3.991   1.331   7.777 -1.0861 -0.1669 -0.1283
  900MOL0     C24104   3.936   1.406   7.898  0.3409  0.0120 -0.6481
  900MOL0     C24105   3.953   1.557   7.885 -1.7368  0.9091  0.0209
  900MOL0     C24106   3.857   1.630   7.968  0.1006  0.7682 -0.0669
  900MOL0    Cl24107   3.914   1.800   7.975  0.3267 -0.4998 -0.0024
  900MOL0     C24108   4.295   0.917   7.350 -0.1217  0.0175  0.1321
  900MOL0     C24109   4.378   0.951   7.232  0.0425  0.0486 -0.1115
  900MOL0     O24110   4.359   1.259   6.959  0.4359 -0.1997  0.2927
  900MOL0     C24111   4.411   1.131   6.695  0.4375  0.2237  0.8672
  900MOL0     C24112   4.482   1.125   6.573 -0.7267 -0.2114  0.5656
  900MOL0     N24113   4.638   0.832   6.100 -0.3869 -0.5082 -0.3848
  900MOL0     N24114   4.572   0.786   5.997 -0.6363 -0.0353  0.1254
  900MOL0     C24115   4.532   1.380   4.894  0.7476 -0.5433 -0.6632
  900MOL0     C24116   4.566   1.496   4.829  0.3710 -0.5024  0.2505
  900MOL0     C24117   4.401   1.894   4.644  1.1622  0.6019  0.0892
  900MOL0     C24118   4.427   1.976   4.756  0.4331  0.1127 -0.1432
  900MOL0     C24119   4.422   2.115   4.752  1.0985 -0.1987 -1.4468
  900MOL0     C24120   4.407   2.182   4.625 -1.3232  0.4065  0.3390
  900MOL0     O24121   4.410   2.311   4.606 -0.4386 -0.8525 -0.5488
  900MOL0     C24122   4.464   2.389   4.713  0.1052 -0.4488 -0.1934
  900MOL0     C24123   4.487   2.529   4.661  0.4581 -0.2282  0.3386
  900MOL0     C24124   4.367   2.600   4.598 -0.2306 -0.1538  0.2875
  900MOL0     C24125   4.269   2.669   4.711  0.0925 -0.7598  0.1020
  900MOL0     C24126   4.315   2.800   4.757 -0.4668  0.5467 -0.1344
  900MOL0     C24127   4.353   2.907   4.789 -0.7092 -0.0575 -0.2364
  900MOL0     C24128   4.388   2.108   4.511 -0.9399  0.0903  0.0867
  900MOL0     C24129   4.378   1.960   4.518 -0.3844  0.3960  0.8216
  900MOL0     C24130   4.361   1.877   4.384 -0.4000 -0.5749  0.2791
  900MOL0     H24131   4.289   1.664   4.930 -0.2015 -0.1605 -0.2175
  900MOL0     H24132   4.247   1.456   5.040 -3.7003 -1.4222 -6.5381
  900MOL0     H24133   4.215   1.234   5.068 -1.3296 -1.8348  1.1473
  900MOL0     H24134   4.344   1.280   5.186  1.7932 -1.3037 -0.4204
  900MOL0     H24135   4.246   1.021   5.180 -0.3767  0.1588 -2.9570
  900MOL0     H24136   4.346   0.996   5.057 -0.5312 -2.6210  0.5282
  900MOL0     H24137   4.521   1.121   5.256 -1.0256  1.5109  1.9397
  900MOL0     H24138   4.389   1.073   5.352 -1.6628  0.5913 -0.8279
  900MOL0     H24139   4.426   0.843   5.265 -0.4340  1.2292 -0.2652
  900MOL0     H24140   4.574   0.898   5.178  1.7903  0.4030  1.0979
  900MOL0     H24141   4.644   0.995   5.413  0.5682 -0.4390 -0.2961
  900MOL0     H24142   4.689   0.832   5.371  0.2787  0.2813  0.8883
  900MOL0     H24143   4.443   0.880   5.547 -0.3318 -0.6600 -0.9595
  900MOL0     H24144   4.517   0.736   5.475 -0.8580 -1.0633 -0.1113
  900MOL0     H24145   4.651   0.960   5.643 -1.2945  0.1705 -1.7449
  900MOL0     H24146   4.727   0.805   5.617 -0.6928 -2.1417  0.9700
  900MOL0     H24147   4.456   0.811   5.760 -1.1378 -0.1005 -2.2636
  900MOL0     H24148   4.568   0.677   5.729 -0.2714  0.2792 -0.4057
  900MOL0     H24149   4.819   0.936   5.844 -0.2644 -4.3055 -0.8415
  900MOL0     H24150   4.926   1.022   6.091  2.0004 -2.3184  0.6864
  900MOL0     H24151   4.876   0.919   6.209  1.8751  2.9346  1.4978
  900MOL0     H24152   4.755   1.170   6.088 -0.8529  2.5012  1.2311
  900MOL0     H24153   4.655   1.080   6.201  0.7043 -3.7612 -0.6022
  900MOL0     H24154   4.949   1.188   6.272  0.3014  5.3979 -0.4393
  900MOL0     H24155   4.810   1.286   6.294 -1.1839 -0.6648  1.9062
  900MOL0     H24156   4.853   1.025   6.448 -1.5633  0.1393  1.4410
  900MOL0     H24157   4.877   1.200   6.494 -0.4676  0.5706  1.4029
  900MOL0     H24158   4.800   1.125   6.709  0.3414 -0.2228 -0.5295
  900MOL0     H24159   4.656   1.084   7.018  0.3454 -2.3637 -2.1853
  900MOL0     H24160   4.693   1.260   6.982  1.7917 -0.6100  1.8338
  900MOL0     H24161   4.798   1.132   6.929  1.1161  0.4174  1.4416
  900MOL0     H24162   4.150   1.091   7.028  2.8631  0.4539 -0.6452
  900MOL0     H24163   3.990   1.009   7.221  0.5340  1.8491 -0.3026
  900MOL0     H24164   4.114   0.776   7.553 -4.1838  0.3968 -2.3642
  900MOL0     H24165   4.212   0.919   7.597 -0.8638  1.8455 -0.5996
  900MOL0     H24166   3.907   0.921   7.661  0.4387 -1.4141  2.5966
  900MOL0     H24167   4.049   0.926   7.780  0.6448  0.7348  0.4269
  900MOL0     H24168   3.945   1.131   7.586  0.3734  0.1358 -0.5955
  900MOL0     H24169   4.109   1.117   7.630  0.5853 -3.7042 -1.3416
  900MOL0     H24170   4.041   1.148   7.870  0.3339  0.3183  0.4097
  900MOL0     H24171   3.869   1.161   7.822 -0.2147  1.1866  1.7568
  900MOL0     H24172   4.100   1.339   7.768 -0.8035 -0.8234  2.1196
  900MOL0     H24173   3.957   1.376   7.683 -1.7168 -0.8115 -0.2158
  900MOL0     H24174   3.982   1.361   7.987 -1.6238 -1.0715 -0.1150
  900MOL0     H24175   3.828   1.389   7.890  0.2418  1.2584 -2.4953
  900MOL0     H24176   3.958   1.589   7.781 -2.5568 -0.8600 -0.5955
  900MOL0     H24177   4.056   1.590   7.903 -0.9301 -0.2527 -2.1410
  900MOL0     H24178   3.855   1.584   8.067  0.9789 -0.0556 -0.4164
  900MOL0     H24179   3.755   1.630   7.929 -0.0991  1.1472  0.4446
  900MOL0     H24180   4.322   0.859   7.437 -3.4424  2.4673  3.0999
  900MOL0     H24181   4.485   0.934   7.232  0.4557  2.2641 -0.8178
  900MOL0     H24182   4.304   1.134   6.681 -0.0536 -1.5644  3.4552
  900MOL0     H24183   4.428   1.138   6.480  0.4345 -1.6511 -0.3404
  900MOL0     H24184   4.581   1.287   4.866  2.4221  0.7593 -2.3200
  900MOL0     H24185   4.649   1.503   4.758 -0.7708  1.2433 -1.0104
  900MOL0     H24186   4.416   1.927   4.853 -2.2170  2.5424  0.9145
  900MOL0     H24187   4.439   2.169   4.844 -0.5074 -0.5059 -0.9330
  900MOL0     H24188   4.387   2.385   4.791  0.6172 -1.4072  0.2698
  900MOL0     H24189   4.557   2.357   4.758  1.8049  3.4471 -0.4878
  900MOL0     H24190   4.569   2.529   4.589  0.7553  0.2235  0.6698
  900MOL0     H24191   4.518   2.587   4.749  2.4268 -2.7136  1.4214
  900MOL0     H24192   4.411   2.675   4.532  4.3012 -0.9479  2.0015
  900MOL0     H24193   4.305   2.528   4.545 -1.8122 -0.8979  2.9568
  900MOL0     H24194   4.241   2.600   4.791  2.0159 -0.1614  1.3710
  900MOL0     H24195   4.175   2.692   4.660  1.7063  2.5514 -1.6523
  900MOL0     H24196   4.372   3.007   4.821 -1.9839  0.3778 -0.8027
  900MOL0     H24197   4.380   2.172   4.425 -0.6243 -0.6969 -0.5421
  900MOL0     H24198   4.254   1.876   4.362 -0.9382  1.0790  2.4693
  900MOL0     H24199   4.400   1.933   4.299 -3.2603 -0.8244 -1.3216
  900MOL0     H24200   4.403   1.775   4.380  0.0351 -0.3841 -0.1583
  901MOL0     O24201  10.496   7.699   3.278  1.0440  0.0058 -0.1137
  901MOL0     C24202  10.483   7.826   3.256 -0.3817  0.5225  0.6550
  901MOL0     O24203  10.377   7.899   3.313 -0.2182 -0.4270  0.0297
  901MOL0     C24204  10.315   7.846   3.423 -0.5305 -0.7122 -0.6026
  901MOL0     C24205  10.243   7.727   3.425 -0.6363 -0.2591 -0.0432
  901MOL0     C24206  10.187   7.683   3.548 -0.3128  0.1393 -0.1964
  901MOL0     C24207  10.201   7.757   3.670 -0.2097  0.2153 -0.3925
  901MOL0     O24208  10.127   7.707   3.776  0.1014  0.3847  0.3345
  901MOL0     C24209  10.155   7.763   3.905  0.5019 -1.3137  0.6319
  901MOL0     C24210  10.036   7.848   3.970 -0.3624  0.1811 -0.1310
  901MOL0     C24211   9.915   7.755   3.994 -1.0146 -0.2711  0.6207
  901MOL0     C24212   9.829   7.793   4.113  1.0109 -0.7993 -0.2395
  901MOL0     C24213   9.718   7.692   4.133  1.4563 -0.7836  0.3314
  901MOL0     C24214   9.641   7.724   4.258 -0.8922 -0.6991  0.1624
  901MOL0     C24215   9.514   7.650   4.271 -0.3017  0.8355 -0.4434
  901MOL0     C24216   9.466   7.657   4.410 -0.6197 -0.1283 -0.8048
  901MOL0     N24217   9.350   7.570   4.444  0.0925  0.3061 -0.0484
  901MOL0     C24218   9.233   7.589   4.377 -0.1014  1.3740 -0.1708
  901MOL0     C24219   9.154   7.480   4.397 -0.2706  0.5056  0.5985
  901MOL0     C24220   9.008   7.472   4.358  0.0091 -0.3712  0.9347
  901MOL0     C24221   8.991   7.506   4.207  0.2404 -0.1822 -0.3813
  901MOL0     C24222   9.052   7.413   4.101 -0.4055 -0.3431  0.1100
  901MOL0     C24223   9.015   7.272   4.092  0.6884  0.8092 -0.4151
  901MOL0     O24224   9.122   7.192   4.037  0.4356 -0.1177  0.2640
  901MOL0     C24225   9.219   7.127   4.116  0.6330 -0.6281  0.7968
  901MOL0     C24226   9.219   7.139   4.253 -0.8033  1.4576 -1.0035
  901MOL0     C24227   9.308   7.060   4.331 -0.9936  0.6682  0.0865
  901MOL0     C24228   9.273   7.049   4.484  0.6660  0.6516  0.6138
  901MOL0     C24229   9.411   6.984   4.265 -0.1985 -0.0027  0.9314
  901MOL0     C24230   9.527   6.926   4.340  0.3121  0.8206  0.3839
  901MOL0     O24231   9.597   6.823   4.278  0.6904  0.4441  1.0462
  901MOL0     C24232   9.664   6.729   4.339  0.4030  1.3903  0.1064
  901MOL0     C24233   9.601   6.676   4.455  0.2783  0.9867 -0.3743
  901MOL0     C24234   9.667   6.574   4.523  0.0236  0.3565 -0.9055
  901MOL0     C24235   9.792   6.528   4.479 -0.2375 -0.2312 -0.4979
  901MOL0     O24236   9.873   6.425   4.533  0.0062 -0.3086  0.1784
  901MOL0     C24237   9.842   6.357   4.653 -0.4539 -0.7700 -0.1902
  901MOL0     C24238   9.966   6.303   4.719  0.0624  0.7267 -0.3078
  901MOL0     C24239   9.945   6.153   4.770 -0.1704 -0.2077  1.0285
  901MOL0     C24240  10.064   6.096   4.832 -0.9990  0.0372 -0.0677
  901MOL0     C24241  10.039   5.959   4.907 -0.0534  0.1768 -0.3905
  901MOL0     C24242  10.167   5.890   4.972 -0.1427  0.4467  0.5072
  901MOL0     C24243  10.129   5.770   5.063 -0.7663 -1.0084  0.4147
  901MOL0     C24244  10.111   5.821   5.204 -0.4121 -0.5855  0.4375
  901MOL0    Cl24245   9.958   5.915   5.219 -0.2475  0.2142 -0.1459
  901MOL0     C24246   9.849   6.591   4.365 -0.6770  0.2778  0.3504
  901MOL0     C24247   9.784   6.688   4.291  0.6712  1.9348  0.9646
  901MOL0     O24248   9.573   6.985   4.445  0.6329  0.9026  0.0096
  901MOL0     C24249   9.412   6.980   4.126 -1.3913 -0.1199  0.0579
  901MOL0     C24250   9.314   7.048   4.050  0.0428  0.2363 -0.6569
  901MOL0     N24251   9.229   7.401   4.483  0.7137  0.2252  0.5140
  901MOL0     N24252   9.348   7.444   4.498  0.3332 -0.9488  0.4881
  901MOL0     C24253  10.269   7.875   3.665  0.2395  0.2434 -0.3857
  901MOL0     C24254  10.321   7.922   3.544 -1.0807  0.6813  0.7113
  901MOL0     C24255  10.552   7.887   3.149  0.3404 -0.0829  0.5654
  901MOL0     C24256  10.543   8.034   3.142  0.2939  1.6924  0.1978
  901MOL0     C24257  10.602   8.114   3.045  1.5498 -0.2825  0.4310
  901MOL0     C24258  10.673   8.050   2.945 -0.0986 -0.1021 -0.1095
  901MOL0     O24259  10.739   8.127   2.850 -0.0567 -0.0668  0.3462
  901MOL0     C24260  10.654   8.205   2.766  0.3182 -0.7193  0.8712
  901MOL0     C24261  10.704   8.211   2.634  0.0451 -1.0670  0.1929
  901MOL0     C24262  10.593   8.164   2.535 -0.0756  0.5146  0.3771
  901MOL0     C24263  10.638   8.115   2.395  0.7189  0.0469  0.8755
  901MOL0     C24264  10.718   8.220   2.333 -0.0174 -0.0234  0.0516
  901MOL0     C24265  10.774   8.313   2.287  0.6143 -0.2487  0.0608
  901MOL0     C24266  10.692   7.910   2.947  0.0458 -0.1098 -0.3590
  901MOL0     C24267  10.633   7.828   3.042  0.5881  0.2347  0.2783
  901MOL0     C24268  10.632   7.683   3.024  0.2913 -0.0078  0.0389
  901MOL0     H24269  10.241   7.665   3.336 -2.1215 -1.1824  0.5972
  901MOL0     H24270  10.137   7.586   3.548  0.2550 -0.2678 -3.4749
  901MOL0     H24271  10.249   7.819   3.907  0.9835 -1.7614 -3.2574
  901MOL0     H24272  10.167   7.685   3.981 -1.2323 -0.9855  1.2851
  901MOL0     H24273  10.061   7.891   4.067  1.4215 -3.0594  1.0141
  901MOL0     H24274  10.016   7.926   3.896  1.3887 -0.1237 -0.9718
  901MOL0     H24275   9.861   7.775   3.901  0.7804  1.9589 -0.0288
  901MOL0     H24276   9.946   7.651   4.010  2.2271  0.2412 -1.5094
  901MOL0     H24277   9.894   7.785   4.201 -0.3135 -1.3489  0.7145
  901MOL0     H24278   9.777   7.889   4.105 -1.6548 -1.7333  3.1542
  901MOL0     H24279   9.740   7.585   4.137 -2.1974 -1.6370  1.7344
  901MOL0     H24280   9.648   7.691   4.048  0.6043  1.3647  0.9433
  901MOL0     H24281   9.707   7.694   4.340 -2.7004 -5.1129  0.2306
  901MOL0     H24282   9.624   7.832   4.257  2.1086 -0.1371 -1.3434
  901MOL0     H24283   9.532   7.546   4.244 -2.0814 -0.0555  1.5668
  901MOL0     H24284   9.448   7.686   4.191  0.0443  0.2790 -0.9958
  901MOL0     H24285   9.553   7.612   4.459  0.3717  0.8095 -1.6534
  901MOL0     H24286   9.453   7.759   4.447  1.0352 -0.2221  0.1523
  901MOL0     H24287   9.205   7.679   4.323 -2.4844 -0.8544 -2.9497
  901MOL0     H24288   8.957   7.551   4.413 -0.3069  2.9705 -3.6423
  901MOL0     H24289   8.957   7.376   4.371 -0.1860  0.0839  4.5261
  901MOL0     H24290   8.886   7.519   4.180  0.5134  1.8507 -0.6510
  901MOL0     H24291   9.044   7.601   4.194  3.9898 -1.3361  3.7722
  901MOL0     H24292   9.043   7.447   3.998 -2.0470 -1.7171 -0.2275
  901MOL0     H24293   9.161   7.416   4.114 -0.2177 -0.7232 -1.2348
  901MOL0     H24294   8.967   7.223   4.178  1.1737 -0.9702 -1.1083
  901MOL0     H24295   8.931   7.267   4.021 -0.5696 -0.9121  1.0717
  901MOL0     H24296   9.157   7.206   4.312 -0.3174 -0.3478  1.7548
  901MOL0     H24297   9.172   7.006   4.485  0.6504  0.5314 -1.3458
  901MOL0     H24298   9.279   7.141   4.542  3.2637  2.3230 -2.0441
  901MOL0     H24299   9.329   6.965   4.526 -3.2170 -2.5295  0.1270
  901MOL0     H24300   9.502   6.710   4.486  0.0672 -1.0373  1.4550
  901MOL0     H24301   9.611   6.545   4.611 -1.8862  3.6401 -0.8571
  901MOL0     H24302   9.801   6.435   4.719  0.8408 -0.5237  0.3641
  901MOL0     H24303   9.761   6.289   4.628 -1.1014 -0.5978  1.3424
  901MOL0     H24304  10.043   6.290   4.642 -1.4235 -1.4881 -1.5476
  901MOL0     H24305   9.996   6.366   4.803  0.4898  1.4942 -1.0259
  901MOL0     H24306   9.931   6.086   4.685  0.5803  0.5566  0.2860
  901MOL0     H24307   9.858   6.154   4.837  0.1285 -4.0455  1.7083
  901MOL0     H24308  10.099   6.173   4.902  4.5073 -3.2414  1.4366
  901MOL0     H24309  10.140   6.079   4.755  0.2630 -1.7102  1.4635
  901MOL0     H24310   9.957   5.979   4.977 -0.1053 -1.4703  0.0595
  901MOL0     H24311   9.988   5.893   4.836 -3.2876  1.1076  0.8799
  901MOL0     H24312  10.242   5.953   5.022 -0.1369 -0.5463  1.7919
  901MOL0     H24313  10.225   5.848   4.889 -0.6451 -0.6390  0.6946
  901MOL0     H24314  10.216   5.704   5.069  0.4373  0.2374 -1.8879
  901MOL0     H24315  10.035   5.723   5.033 -0.1263  0.3214 -4.5599
  901MOL0     H24316  10.189   5.883   5.249  1.6291 -2.2986 -0.5565
  901MOL0     H24317  10.108   5.726   5.258  3.0434 -1.4319 -0.5953
  901MOL0     H24318   9.950   6.567   4.331 -0.8122  0.5371 -0.2550
  901MOL0     H24319   9.823   6.710   4.192  1.6079  1.8280  1.3033
  901MOL0     H24320   9.499   6.926   4.090  2.0453  2.9145  3.0894
  901MOL0     H24321   9.323   7.062   3.943 -0.0846  1.1367 -0.5583
  901MOL0     H24322  10.255   7.944   3.748  0.5422  0.2753 -0.3602
  901MOL0     H24323  10.375   8.016   3.545  0.5576 -0.2060 -0.4946
  901MOL0     H24324  10.487   8.090   3.218  1.9223  1.1471  1.8690
  901MOL0     H24325  10.582   8.220   3.040 -4.2490 -1.0676  0.5830
  901MOL0     H24326  10.550   8.175   2.780  0.8974 -2.1597  2.4192
  901MOL0     H24327  10.639   8.303   2.812 -3.2774 -0.8105  0.1755
  901MOL0     H24328  10.803   8.164   2.628  0.5505 -0.0860  0.5035
  901MOL0     H24329  10.720   8.318   2.615  1.8585 -0.7992  2.6557
  901MOL0     H24330  10.539   8.084   2.588  0.2982  0.6716  1.0112
  901MOL0     H24331  10.537   8.256   2.518  0.0180  0.5936  0.4929
  901MOL0     H24332  10.545   8.104   2.338  1.0091 -0.9620  0.5807
  901MOL0     H24333  10.691   8.020   2.406 -1.5242 -1.6226 -1.5365
  901MOL0     H24334  10.842   8.383   2.244  1.8395 -1.5401 -0.1709
  901MOL0     H24335  10.751   7.864   2.868 -3.2338 -2.3087 -1.7386
  901MOL0     H24336  10.673   7.651   2.928  1.7594 -2.7660  1.4587
  901MOL0     H24337  10.711   7.641   3.086  1.1633  1.2517 -0.1917
  901MOL0     H24338  10.538   7.629   3.041  1.4476 -1.6675  1.4935
  902MOL0     O24339   8.102   2.768   1.772 -0.0207  0.4130 -0.3081
  902MOL0     C24340   8.110   2.771   1.650  0.6697  0.2700 -0.5047
  902MOL0     O24341   8.036   2.673   1.571  0.3434  0.9557  0.6448
  902MOL0     C24342   7.963   2.570   1.620 -0.6674  0.1968 -0.4613
  902MOL0     C24343   7.987   2.438   1.584 -0.1164  0.1490  0.8958
  902MOL0     C24344   7.914   2.333   1.651  0.1760 -0.7992 -1.1768
  902MOL0     C24345   7.813   2.366   1.741 -0.8430  0.9211  0.2581
  902MOL0     O24346   7.760   2.263   1.808 -0.7541 -0.1521 -0.5265
  902MOL0     C24347   7.692   2.164   1.734 -0.2370 -0.5780 -0.7629
  902MOL0     C24348   7.626   2.060   1.819 -0.1445 -0.4269  0.0727
  902MOL0     C24349   7.717   1.980   1.917  0.2455 -0.7189  0.6904
  902MOL0     C24350   7.743   2.064   2.043  0.9313  0.0676 -0.4257
  902MOL0     C24351   7.789   1.963   2.151 -0.0313 -0.6644 -0.0821
  902MOL0     C24352   7.856   2.033   2.273  0.3211  0.5648 -0.3477
  902MOL0     C24353   7.839   1.936   2.396  0.0094 -0.2632  0.6381
  902MOL0     C24354   7.921   1.996   2.509 -0.2084 -0.7672  0.6897
  902MOL0     N24355   7.918   1.922   2.634 -0.9411  0.3529 -0.4362
  902MOL0     C24356   8.023   1.914   2.724  0.5732  0.7408 -0.0319
  902MOL0     C24357   7.976   1.838   2.823 -0.9292  0.5918 -0.2682
  902MOL0     C24358   8.019   1.801   2.960 -0.2081 -0.2908 -0.0132
  902MOL0     C24359   8.082   1.914   3.057  0.0677 -0.3286 -0.8543
  902MOL0     C24360   8.191   2.005   2.994 -0.4576  0.2445 -0.5590
  902MOL0     C24361   8.264   2.071   3.105  0.2677 -0.2057 -0.9544
  902MOL0     O24362   8.193   2.182   3.163  0.4400 -0.1366 -0.1914
  902MOL0     C24363   8.261   2.259   3.246 -0.3675 -0.8153 -0.0846
  902MOL0     C24364   8.201   2.376   3.294 -0.3921  0.3092  0.4638
  902MOL0     C24365   8.255   2.460   3.394  0.4005 -0.4157 -0.4220
  902MOL0     C24366   8.175   2.593   3.416  0.1203  0.5629  0.2818
  902MOL0     C24367   8.378   2.429   3.456 -0.4253  0.2922 -0.6099
  902MOL0     C24368   8.449   2.506   3.569  0.5666 -0.0267  0.3383
  902MOL0     O24369   8.587   2.482   3.579 -0.2327  0.0921  0.0866
  902MOL0     C24370   8.652   2.496   3.699  0.0213  0.4732  0.1285
  902MOL0     C24371   8.670   2.621   3.749  0.4317 -0.0918  0.7391
  902MOL0     C24372   8.742   2.654   3.862 -1.6540 -0.1387  0.3289
  902MOL0     C24373   8.821   2.546   3.916 -0.1992 -0.5509 -0.0889
  902MOL0     O24374   8.896   2.567   4.031 -0.5418 -0.1875 -0.0487
  902MOL0     C24375   8.896   2.684   4.116 -0.3273  0.1190 -0.6424
  902MOL0     C24376   8.914   2.641   4.262 -0.0188  0.2177  0.0193
  902MOL0     C24377   9.055   2.583   4.278 -0.0086 -0.2768 -0.0377
  902MOL0     C24378   9.088   2.550   4.417  0.3585 -0.2920 -1.2531
  902MOL0     C24379   8.993   2.432   4.468 -0.2798 -1.0533  0.1406
  902MOL0     C24380   9.045   2.367   4.598 -1.2197 -0.6603 -0.1383
  902MOL0     C24381   8.982   2.226   4.614 -0.0763  0.5036 -1.0673
  902MOL0     C24382   8.828   2.226   4.638 -0.3760  0.4475  0.2595
  902MOL0    Cl24383   8.789   2.248   4.809  0.0057 -0.0364 -0.3647
  902MOL0     C24384   8.804   2.412   3.878  1.1502 -0.3121 -0.2338
  902MOL0     C24385   8.722   2.391   3.761  0.2277  0.5732  0.2120
  902MOL0     O24386   8.378   2.561   3.648  0.5478  0.6853 -0.3108
  902MOL0     C24387   8.439   2.315   3.405  0.0827 -0.2463  0.3401
  902MOL0     C24388   8.391   2.228   3.304  0.1606 -0.8977 -0.0033
  902MOL0     N24389   7.844   1.810   2.800  0.1061 -0.0017 -0.2432
  902MOL0     N24390   7.812   1.847   2.684 -0.1254 -0.6765  0.3532
  902MOL0     C24391   7.780   2.499   1.773 -0.2442 -0.3071  0.4449
  902MOL0     C24392   7.861   2.599   1.711  0.3844  0.4218 -0.3081
  902MOL0     C24393   8.167   2.892   1.594 -0.3597  0.0465  0.9570
  902MOL0     C24394   8.298   2.929   1.642  0.9973 -0.1165 -0.2542
  902MOL0     C24395   8.351   3.049   1.599 -0.9281 -0.3923 -0.6655
  902MOL0     C24396   8.283   3.140   1.513  0.1344  0.6296 -0.5687
  902MOL0     O24397   8.351   3.254   1.474  0.2599 -1.0535  0.8303
  902MOL0     C24398   8.279   3.357   1.398  0.4369  1.5189  0.0993
  902MOL0     C24399   8.175   3.439   1.474  0.3771 -0.2848  0.4930
  902MOL0     C24400   8.233   3.498   1.606 -0.4999 -0.1450 -0.0080
  902MOL0     C24401   8.143   3.599   1.677 -0.2144  0.6237 -0.3142
  902MOL0     C24402   8.129   3.724   1.602  0.5257  0.9264 -0.9362
  902MOL0     C24403   8.106   3.828   1.544 -0.4584  0.5083  1.0066
  902MOL0     C24404   8.153   3.106   1.485 -0.1186  0.0789  0.2802
  902MOL0     C24405   8.093   2.980   1.518  0.2088 -0.8113 -1.1255
  902MOL0     C24406   7.956   2.956   1.468 -0.1197 -0.1950 -0.0823
  902MOL0     H24407   8.074   2.414   1.525 -0.1828  0.6316  0.5969
  902MOL0     H24408   7.934   2.228   1.629  4.0409 -0.4799  0.0889
  902MOL0     H24409   7.766   2.103   1.681  0.4633  0.2859 -0.8058
  902MOL0     H24410   7.622   2.211   1.664 -2.9853 -1.9213  0.9255
  902MOL0     H24411   7.538   2.099   1.872  0.2316 -1.0312  1.1831
  902MOL0     H24412   7.587   1.983   1.752 -2.1182  0.2823  0.3204
  902MOL0     H24413   7.653   1.894   1.935 -1.2760  0.4118  0.9057
  902MOL0     H24414   7.808   1.946   1.867 -0.2678 -0.4626 -0.4364
  902MOL0     H24415   7.806   2.153   2.039  0.7251  0.2795  0.9034
  902MOL0     H24416   7.648   2.117   2.053  1.3023  0.4345  1.3848
  902MOL0     H24417   7.857   1.882   2.121 -0.2425 -1.3953  1.3188
  902MOL0     H24418   7.702   1.908   2.190  0.8798 -0.9385  1.6925
  902MOL0     H24419   7.963   2.047   2.255  0.4595 -1.6333 -1.6176
  902MOL0     H24420   7.815   2.128   2.310  0.3431 -0.1830  1.7806
  902MOL0     H24421   7.878   1.835   2.379  0.6679 -0.1560  1.4485
  902MOL0     H24422   7.731   1.928   2.415 -0.1489  3.0521  1.8377
  902MOL0     H24423   8.026   2.010   2.483 -0.7549  0.5728 -0.9870
  902MOL0     H24424   7.886   2.097   2.532  2.6152  0.7485 -1.0619
  902MOL0     H24425   8.121   1.957   2.708  1.1856 -0.4628  0.3413
  902MOL0     H24426   8.094   1.726   2.937  0.8825  0.5306  0.7854
  902MOL0     H24427   7.944   1.738   3.010  1.3263 -4.6198 -2.6472
  902MOL0     H24428   7.999   1.976   3.095  1.6598 -0.4563  3.3487
  902MOL0     H24429   8.126   1.862   3.142 -2.0274 -2.1987 -0.8031
  902MOL0     H24430   8.253   1.933   2.938 -0.6022  0.6471 -1.2496
  902MOL0     H24431   8.147   2.072   2.920 -0.0962 -0.9347 -1.8993
  902MOL0     H24432   8.293   2.000   3.183  1.8577  0.2983 -1.0583
  902MOL0     H24433   8.359   2.104   3.063 -1.0750  2.8839 -1.8379
  902MOL0     H24434   8.102   2.381   3.251  0.4691 -1.4999 -1.9471
  902MOL0     H24435   8.123   2.614   3.322 -0.6670  1.4719  0.9106
  902MOL0     H24436   8.234   2.675   3.458  1.9019 -0.0768 -0.8320
  902MOL0     H24437   8.096   2.581   3.490 -3.0892  1.7092 -2.6991
  902MOL0     H24438   8.624   2.700   3.690 -0.4419 -2.1018 -1.4366
  902MOL0     H24439   8.764   2.759   3.881 -1.9753  0.2796 -1.4451
  902MOL0     H24440   8.976   2.753   4.089 -1.3452  0.8333 -1.9649
  902MOL0     H24441   8.804   2.742   4.098  0.0378  0.8178 -0.2966
  902MOL0     H24442   8.910   2.730   4.325  1.0627  0.2090  0.1188
  902MOL0     H24443   8.836   2.571   4.294  0.2234  0.4696  1.1957
  902MOL0     H24444   9.131   2.658   4.252 -1.2035  1.2286  0.6455
  902MOL0     H24445   9.073   2.492   4.220  0.2465  0.0568 -0.4911
  902MOL0     H24446   9.073   2.640   4.476 -1.4166 -2.8452  2.6117
  902MOL0     H24447   9.197   2.537   4.420  0.5587  1.1166  1.9712
  902MOL0     H24448   8.894   2.465   4.499  0.4532  0.1537  1.3423
  902MOL0     H24449   8.999   2.362   4.384  2.8335 -1.2641  0.3939
  902MOL0     H24450   9.017   2.425   4.686  1.1892 -1.8333  1.5149
  902MOL0     H24451   9.153   2.356   4.593 -1.0062  1.1702 -0.2211
  902MOL0     H24452   9.034   2.181   4.698 -0.1249  0.7554 -0.9022
  902MOL0     H24453   9.007   2.167   4.525 -0.2464 -2.5073  0.7471
  902MOL0     H24454   8.792   2.132   4.596 -0.6898  1.1847 -1.1987
  902MOL0     H24455   8.783   2.307   4.579 -0.3547  2.0504  2.3171
  902MOL0     H24456   8.851   2.322   3.916 -0.8341 -2.1341 -1.8285
  902MOL0     H24457   8.718   2.291   3.718 -0.2340 -0.0057  1.5373
  902MOL0     H24458   8.536   2.287   3.447 -0.4574 -3.6284 -0.3449
  902MOL0     H24459   8.436   2.139   3.261 -1.8697 -0.7115 -2.8159
  902MOL0     H24460   7.722   2.526   1.861 -0.8401  0.0183 -0.0496
  902MOL0     H24461   7.855   2.702   1.745 -0.3219 -0.0003  0.8954
  902MOL0     H24462   8.354   2.865   1.710 -2.3122 -0.9791  1.8685
  902MOL0     H24463   8.441   3.073   1.655 -0.9067  0.2543 -0.9671
  902MOL0     H24464   8.349   3.433   1.360  0.5302  1.4015  0.0349
  902MOL0     H24465   8.227   3.304   1.318  1.2471 -0.6732  0.9458
  902MOL0     H24466   8.083   3.380   1.486  1.6567 -2.4879 -0.0187
  902MOL0     H24467   8.130   3.521   1.418 -1.7335 -2.3410 -1.0331
  902MOL0     H24468   8.263   3.417   1.673 -2.2616 -0.1021  0.9028
  902MOL0     H24469   8.330   3.545   1.586  1.3887 -3.1481  1.3545
  902MOL0     H24470   8.172   3.627   1.779 -0.6695  0.8831 -0.2578
  902MOL0     H24471   8.045   3.557   1.702  0.5187 -0.8050  0.3306
  902MOL0     H24472   8.089   3.912   1.480  2.0527 -1.2916 -2.3637
  902MOL0     H24473   8.097   3.173   1.420 -2.0377 -2.4790 -0.9063
  902MOL0     H24474   7.918   3.041   1.410  1.1187 -0.7612 -1.8210
  902MOL0     H24475   7.965   2.858   1.420  0.5113 -0.2895  0.2163
  902MOL0     H24476   7.882   2.946   1.548 -2.2079  8.0948 -0.0235
  903MOL0     O24477   3.450   5.912   0.742  0.1396 -1.4755 -0.1227
  903MOL0     C24478   3.476   5.830   0.828  0.5305  0.7215  0.4523
  903MOL0     O24479   3.605   5.782   0.845 -0.7084 -0.1889 -0.6758
  903MOL0     C24480   3.718   5.858   0.804  0.4120 -0.0824  0.2902
  903MOL0     C24481   3.810   5.785   0.726 -0.7348  0.4289 -0.2979
  903MOL0     C24482   3.919   5.850   0.669 -1.1134 -0.6838 -0.5893
  903MOL0     C24483   3.950   5.990   0.691  0.2183  0.0986 -0.4202
  903MOL0     O24484   4.075   6.030   0.660 -0.4590 -0.2480 -0.2499
  903MOL0     C24485   4.102   6.174   0.676 -0.1146 -1.1522 -0.7610
  903MOL0     C24486   4.164   6.200   0.810  0.4775  0.0996 -0.0182
  903MOL0     C24487   4.221   6.337   0.806 -0.7258  0.3609 -0.6043
  903MOL0     C24488   4.252   6.396   0.941  0.0564 -0.0016 -0.3005
  903MOL0     C24489   4.128   6.484   0.985 -1.3735 -0.5943 -0.5998
  903MOL0     C24490   4.158   6.556   1.113 -0.0985  0.3934  0.2506
  903MOL0     C24491   4.030   6.621   1.173 -0.4592 -0.4256  0.5806
  903MOL0     C24492   4.048   6.692   1.310 -0.3326  0.2991 -0.0115
  903MOL0     N24493   4.060   6.592   1.420  0.0808  0.2085 -0.0424
  903MOL0     C24494   3.954   6.523   1.474  0.5046  0.0293  0.8351
  903MOL0     C24495   4.000   6.441   1.560  0.6517  0.3046 -0.1316
  903MOL0     C24496   3.914   6.340   1.632  0.7871  0.1496 -0.7473
  903MOL0     C24497   3.850   6.403   1.752  0.4846  0.5343 -0.0238
  903MOL0     C24498   3.732   6.338   1.825 -0.0817 -0.3471  0.4643
  903MOL0     C24499   3.736   6.192   1.851 -0.1525 -0.7088  1.2082
  903MOL0     O24500   3.855   6.163   1.924  0.1025 -0.3881 -0.4466
  903MOL0     C24501   3.911   6.041   1.917  0.4367 -0.2861 -0.1951
  903MOL0     C24502   4.033   6.009   1.988  0.4238  0.3922  1.3292
  903MOL0     C24503   4.082   5.879   2.006 -0.0412 -0.1841 -0.3624
  903MOL0     C24504   4.224   5.866   2.070 -0.4527  0.5107 -0.2895
  903MOL0     C24505   4.022   5.770   1.943  0.2047  0.3347 -0.8366
  903MOL0     C24506   4.063   5.619   1.946  0.3332 -0.5622 -0.2242
  903MOL0     O24507   3.956   5.533   1.941 -0.0282  0.9775  0.3345
  903MOL0     C24508   3.967   5.400   1.913 -0.1804  1.8001  0.1329
  903MOL0     C24509   4.035   5.310   1.994 -0.7190 -0.1544  0.4047
  903MOL0     C24510   4.027   5.167   1.966 -0.2151  0.0605 -0.5057
  903MOL0     C24511   3.968   5.119   1.843  1.0262  0.2939 -0.8234
  903MOL0     O24512   3.959   4.986   1.826 -0.1519 -0.0601 -0.3045
  903MOL0     C24513   3.829   4.929   1.812 -0.4698 -0.1042  0.7194
  903MOL0     C24514   3.840   4.818   1.709 -0.2580  0.9313 -0.8533
  903MOL0     C24515   3.696   4.760   1.668  0.0543 -0.1593 -0.8187
  903MOL0     C24516   3.711   4.609   1.622  0.9421  1.0281  0.4347
  903MOL0     C24517   3.597   4.548   1.552  0.4105 -0.3862  0.7824
  903MOL0     C24518   3.478   4.536   1.641  0.8653  0.2657 -0.5525
  903MOL0     C24519   3.350   4.535   1.568 -0.5687 -0.5345  0.0257
  903MOL0     C24520   3.221   4.535   1.652  0.3832  1.2024 -0.1245
  903MOL0    Cl24521   3.167   4.698   1.706  0.2046 -0.0786 -0.6992
  903MOL0     C24522   3.901   5.218   1.762  0.3446  0.9972  0.4813
  903MOL0     C24523   3.894   5.348   1.804 -0.3713 -0.6828  0.5121
  903MOL0     O24524   4.173   5.590   1.991  0.6981  0.0810 -0.0319
  903MOL0     C24525   3.906   5.805   1.871  0.3357 -1.0123  0.2521
  903MOL0     C24526   3.850   5.934   1.858  0.0065 -0.0355  0.8944
  903MOL0     N24527   4.142   6.448   1.550 -0.2249 -0.4440  0.1738
  903MOL0     N24528   4.180   6.543   1.462 -0.3832  0.0449  0.3247
  903MOL0     C24529   3.858   6.055   0.777  0.2351  0.2934  0.2541
  903MOL0     C24530   3.740   5.995   0.833  0.6507  0.1280  0.1708
  903MOL0     C24531   3.373   5.765   0.902 -0.5171  0.2199 -0.9624
  903MOL0     C24532   3.398   5.643   0.972 -0.5077  0.3114 -0.0032
  903MOL0     C24533   3.296   5.570   1.029  1.2582 -0.9558 -0.2488
  903MOL0     C24534   3.165   5.617   1.028 -0.2548 -0.0882 -0.2870
  903MOL0     O24535   3.051   5.562   1.078 -0.0483  0.1825  0.3927
  903MOL0     C24536   3.050   5.427   1.103 -0.1555 -0.3375 -0.3548
  903MOL0     C24537   3.105   5.405   1.249  0.5076 -0.4071  0.0760
  903MOL0     C24538   3.066   5.259   1.296  0.4379 -0.5416  0.1073
  903MOL0     C24539   3.120   5.236   1.438  0.1448  0.4763  0.8661
  903MOL0     C24540   3.090   5.100   1.489 -0.4842 -0.4139 -0.5523
  903MOL0     C24541   3.071   5.000   1.551 -0.5805  0.0344  0.9582
  903MOL0     C24542   3.149   5.745   0.978 -0.0408  1.0353  0.6829
  903MOL0     C24543   3.248   5.824   0.917  0.3710 -0.4704  0.5443
  903MOL0     C24544   3.223   5.970   0.894  0.0139 -0.9266  0.3458
  903MOL0     H24545   3.792   5.680   0.709  0.6325 -0.1021  1.3261
  903MOL0     H24546   3.992   5.799   0.608 -0.9360 -2.2650  0.8547
  903MOL0     H24547   4.011   6.234   0.662  0.7848  0.2167 -0.9902
  903MOL0     H24548   4.168   6.210   0.597 -3.1746 -1.2457 -3.5494
  903MOL0     H24549   4.090   6.198   0.890  0.8913  0.5383  0.3801
  903MOL0     H24550   4.244   6.127   0.823  0.9103  0.5606 -0.0843
  903MOL0     H24551   4.316   6.320   0.754  0.9410 -0.3637  2.4626
  903MOL0     H24552   4.155   6.403   0.750 -1.0551 -0.8964 -1.7646
  903MOL0     H24553   4.264   6.315   1.014  0.0070 -1.4208 -1.8028
  903MOL0     H24554   4.344   6.455   0.930  1.4577 -2.2576 -1.5034
  903MOL0     H24555   4.043   6.416   0.996 -0.3114 -2.0201 -0.8799
  903MOL0     H24556   4.115   6.558   0.906 -3.2974 -1.0137 -0.7293
  903MOL0     H24557   4.194   6.476   1.178 -0.4002  1.4156  1.7216
  903MOL0     H24558   4.233   6.635   1.102  0.7625 -0.5023 -0.5235
  903MOL0     H24559   3.952   6.553   1.208 -1.7447 -0.1570 -1.6128
  903MOL0     H24560   3.976   6.688   1.105 -0.3806 -0.4346  0.5104
  903MOL0     H24561   4.135   6.758   1.308 -1.1182  1.3599 -0.6219
  903MOL0     H24562   3.959   6.750   1.336 -0.0569 -0.1264  2.0418
  903MOL0     H24563   3.850   6.544   1.449 -0.0701 -2.1551  1.2331
  903MOL0     H24564   3.976   6.254   1.660  2.7917  0.7615 -3.0476
  903MOL0     H24565   3.829   6.303   1.574  0.1286  3.6225 -2.2348
  903MOL0     H24566   3.928   6.406   1.828  1.5909  0.7988 -1.1458
  903MOL0     H24567   3.814   6.502   1.724 -4.5612 -1.2614 -0.9808
  903MOL0     H24568   3.726   6.403   1.913 -1.3108  1.5630 -0.9386
  903MOL0     H24569   3.641   6.354   1.767  0.3629 -2.3093 -0.8987
  903MOL0     H24570   3.650   6.152   1.907 -0.6851 -2.3793 -0.6699
  903MOL0     H24571   3.740   6.140   1.755  1.3748 -1.7211  1.7880
  903MOL0     H24572   4.080   6.093   2.036 -4.1310  3.0209  1.7370
  903MOL0     H24573   4.262   5.959   2.112 -0.9049  0.7900 -0.4948
  903MOL0     H24574   4.284   5.824   1.989  0.3560 -1.5898  1.3036
  903MOL0     H24575   4.223   5.796   2.154  2.3874  1.9132  1.0312
  903MOL0     H24576   4.095   5.353   2.074 -1.8513  2.8395 -0.2019
  903MOL0     H24577   4.064   5.100   2.042 -0.2592  0.4604 -0.1288
  903MOL0     H24578   3.808   4.891   1.912  0.6268  0.5754  1.2245
  903MOL0     H24579   3.753   5.005   1.790 -0.5498 -0.1967  0.6718
  903MOL0     H24580   3.889   4.852   1.618  1.3983 -3.2584 -1.7433
  903MOL0     H24581   3.896   4.733   1.750 -2.0976  0.2624  0.3986
  903MOL0     H24582   3.660   4.822   1.586 -3.1111 -0.5452  0.1455
  903MOL0     H24583   3.623   4.751   1.750  0.3467  0.0777 -0.5300
  903MOL0     H24584   3.739   4.539   1.701 -1.1588 -2.6679 -1.8219
  903MOL0     H24585   3.791   4.617   1.547  2.0543 -1.4339  1.2502
  903MOL0     H24586   3.562   4.615   1.473 -0.7734 -1.6248  0.2169
  903MOL0     H24587   3.632   4.462   1.492  0.9409  1.0204 -1.0257
  903MOL0     H24588   3.464   4.615   1.715  0.3146 -1.7153  1.5851
  903MOL0     H24589   3.476   4.444   1.701  2.4413 -0.6559 -1.8266
  903MOL0     H24590   3.332   4.444   1.509  0.4359 -1.6126  1.3223
  903MOL0     H24591   3.338   4.620   1.500 -0.3511  1.3551  2.2597
  903MOL0     H24592   3.231   4.455   1.726 -2.3209 -0.2152 -1.1418
  903MOL0     H24593   3.136   4.498   1.594  1.0749 -0.4449 -0.1392
  903MOL0     H24594   3.840   5.179   1.682 -1.1457  2.1694  0.9913
  903MOL0     H24595   3.847   5.428   1.748 -2.0846 -0.7289  1.8098
  903MOL0     H24596   3.852   5.729   1.815  1.1578 -0.3373 -1.5402
  903MOL0     H24597   3.762   5.941   1.795  0.6274  2.7704  0.2125
  903MOL0     H24598   3.874   6.161   0.798 -1.9061  0.1685  3.0612
  903MOL0     H24599   3.673   6.057   0.893 -1.0490 -0.2622 -1.2220
  903MOL0     H24600   3.502   5.613   0.976  0.0486  2.2192  1.3446
  903MOL0     H24601   3.326   5.481   1.084  3.6586  0.7955  1.4944
  903MOL0     H24602   2.949   5.386   1.087 -0.3634  0.3102 -0.7377
  903MOL0     H24603   3.107   5.379   1.023 -0.4700  1.4728 -1.7439
  903MOL0     H24604   3.062   5.474   1.323  1.1792 -0.4187  0.4876
  903MOL0     H24605   3.211   5.431   1.254  0.1374  1.1558  0.1761
  903MOL0     H24606   2.958   5.244   1.303  0.1822  0.8363 -0.4154
  903MOL0     H24607   3.104   5.187   1.223 -1.4133 -1.4063 -0.0611
  903MOL0     H24608   3.091   5.303   1.518 -3.2269 -1.9337  1.8789
  903MOL0     H24609   3.228   5.226   1.425 -0.3653 -4.8100 -3.0559
  903MOL0     H24610   3.058   4.901   1.592  0.6284 -0.1991  0.8451
  903MOL0     H24611   3.045   5.777   0.987 -0.2646  0.0377  1.9065
  903MOL0     H24612   3.138   5.994   0.958  2.3617  0.6855  3.1060
  903MOL0     H24613   3.311   6.027   0.927 -2.0180  2.0691  0.9834
  903MOL0     H24614   3.212   5.994   0.788  1.6158 -0.8972  0.1577
  904MOL0     O24615  11.479   4.594   2.492 -0.1847  0.2437 -0.4560
  904MOL0     C24616  11.408   4.494   2.473 -0.8854  0.0817 -0.2367
  904MOL0     O24617  11.296   4.501   2.413 -0.2614  0.6161 -0.8924
  904MOL0     C24618  11.224   4.623   2.399 -0.2944 -0.6260 -0.6952
  904MOL0     C24619  11.104   4.647   2.474  0.2707  0.1236  0.4247
  904MOL0     C24620  11.034   4.771   2.453  0.1291  0.5413 -0.1091
  904MOL0     C24621  11.077   4.851   2.348 -0.0120  0.1343  0.3816
  904MOL0     O24622  11.016   4.965   2.322 -0.2567  0.1878  0.2330
  904MOL0     C24623  10.884   4.998   2.372 -0.4855  0.0494 -0.1800
  904MOL0     C24624  10.871   5.156   2.371 -0.2520  0.2363  0.9430
  904MOL0     C24625  10.791   5.208   2.243 -0.3726 -0.2150 -0.0212
  904MOL0     C24626  10.744   5.350   2.255 -0.0851 -0.2265 -0.2843
  904MOL0     C24627  10.844   5.468   2.296  0.3988 -0.6957  0.6636
  904MOL0     C24628  10.960   5.490   2.207  0.6222  1.1639  0.1888
  904MOL0     C24629  11.068   5.591   2.257  0.0938 -0.2141  0.6105
  904MOL0     C24630  11.200   5.516   2.311 -0.5301  0.0654  0.5374
  904MOL0     N24631  11.247   5.438   2.194  0.3351 -0.3859 -0.1524
  904MOL0     C24632  11.255   5.301   2.169  0.5597 -0.1254  0.7309
  904MOL0     C24633  11.313   5.286   2.046 -0.4260  0.5579  0.2027
  904MOL0     C24634  11.346   5.158   1.982  0.4998  0.1332 -0.2278
  904MOL0     C24635  11.212   5.095   1.951  0.2570  0.2121  0.0431
  904MOL0     C24636  11.234   4.965   1.869  0.3166  0.4653  0.6966
  904MOL0     C24637  11.111   4.916   1.793  0.0977  0.2616 -0.4633
  904MOL0     O24638  11.160   4.802   1.711  0.5582 -1.1035 -0.0880
  904MOL0     C24639  11.061   4.769   1.628 -0.2987  0.3259  0.4330
  904MOL0     C24640  11.121   4.672   1.549  0.6019  0.3146 -0.9816
  904MOL0     C24641  11.042   4.590   1.465 -0.6743  0.9680 -0.2248
  904MOL0     C24642  11.115   4.487   1.396 -0.9532 -0.1369  0.0924
  904MOL0     C24643  10.904   4.612   1.452 -0.5584  0.3625  0.0977
  904MOL0     C24644  10.808   4.528   1.375 -0.6151  0.3370  0.1089
  904MOL0     O24645  10.674   4.534   1.398  0.7437  0.2599  0.0201
  904MOL0     C24646  10.585   4.473   1.313 -0.3527 -0.4904 -0.6693
  904MOL0     C24647  10.517   4.548   1.212 -1.4547  0.0997 -0.0339
  904MOL0     C24648  10.434   4.479   1.120  0.6988 -0.2390 -0.0255
  904MOL0     C24649  10.414   4.338   1.127 -0.2197  0.3536 -0.4312
  904MOL0     O24650  10.337   4.274   1.036  0.0129 -0.4132  0.4514
  904MOL0     C24651  10.312   4.336   0.906  0.8033  0.5834 -0.0481
  904MOL0     C24652  10.229   4.243   0.821 -0.3088 -0.9028  0.3970
  904MOL0     C24653  10.185   4.332   0.698 -0.0745  0.5780 -0.2691
  904MOL0     C24654  10.057   4.412   0.732 -0.0288  0.3116 -0.0378
  904MOL0     C24655  10.010   4.489   0.607 -0.9086 -0.1412  0.4928
  904MOL0     C24656   9.922   4.600   0.634  0.5416 -0.4867 -0.4465
  904MOL0     C24657   9.868   4.657   0.512 -0.8545 -0.4425  1.9051
  904MOL0     C24658   9.797   4.797   0.515 -0.2594 -0.0223 -0.5672
  904MOL0    Cl24659   9.697   4.807   0.662 -0.2706  0.2620 -0.6817
  904MOL0     C24660  10.478   4.271   1.237  0.0889  0.0662  0.1538
  904MOL0     C24661  10.561   4.338   1.328  0.6684 -0.9721 -0.2896
  904MOL0     O24662  10.856   4.439   1.306  0.7330  0.6232  0.3991
  904MOL0     C24663  10.851   4.723   1.520 -0.9483 -0.8233  0.7114
  904MOL0     C24664  10.926   4.804   1.613  0.5832  0.6292  0.8098
  904MOL0     N24665  11.324   5.407   1.993 -0.5718 -0.7329 -0.3020
  904MOL0     N24666  11.299   5.498   2.086 -0.7550 -0.9739  0.0773
  904MOL0     C24667  11.181   4.820   2.270 -0.1997  0.0818 -1.0768
  904MOL0     C24668  11.260   4.715   2.304 -0.7464  0.2301  0.4565
  904MOL0     C24669  11.439   4.365   2.523  0.6998 -1.0046  0.5948
  904MOL0     C24670  11.363   4.253   2.477 -0.2829 -0.2017 -0.1429
  904MOL0     C24671  11.377   4.128   2.533 -0.3519  0.1310  0.1863
  904MOL0     C24672  11.465   4.100   2.637 -0.0352 -0.1131 -0.1780
  904MOL0     O24673  11.464   3.971   2.685  0.1416 -0.2467 -0.3404
  904MOL0     C24674  11.506   3.963   2.821 -0.3149 -0.6351 -0.2272
  904MOL0     C24675  11.489   3.813   2.849 -0.4975 -0.5055 -0.8265
  904MOL0     C24676  11.345   3.773   2.862  0.0983  0.1409 -0.1302
  904MOL0     C24677  11.338   3.620   2.861  0.6444  0.3483 -0.1763
  904MOL0     C24678  11.212   3.550   2.856 -0.2644  0.0389 -0.5382
  904MOL0     C24679  11.112   3.490   2.857 -0.3635  0.7815 -0.1855
  904MOL0     C24680  11.546   4.207   2.675  0.0081 -0.1845 -0.0548
  904MOL0     C24681  11.543   4.335   2.618 -0.1357 -0.6703 -0.4539
  904MOL0     C24682  11.636   4.438   2.665 -0.4213 -0.4704  1.0529
  904MOL0     H24683  11.077   4.570   2.546 -2.3061  0.8370  0.3319
  904MOL0     H24684  10.942   4.789   2.508  0.3320  2.2691 -0.2749
  904MOL0     H24685  10.877   4.964   2.475  1.1324 -0.9637 -0.3829
  904MOL0     H24686  10.799   4.955   2.319 -0.3564  2.2389 -2.3732
  904MOL0     H24687  10.823   5.192   2.462 -0.0231 -0.4844  1.3604
  904MOL0     H24688  10.973   5.195   2.381 -0.9444  2.3357  0.3527
  904MOL0     H24689  10.839   5.177   2.150  1.9171  0.3925  0.8622
  904MOL0     H24690  10.699   5.150   2.235  1.8561 -4.0069 -0.2302
  904MOL0     H24691  10.705   5.389   2.161 -0.6685  0.4257  0.2166
  904MOL0     H24692  10.671   5.358   2.336 -0.0772  0.9021 -0.3704
  904MOL0     H24693  10.877   5.458   2.400 -0.9893 -0.7748  1.1177
  904MOL0     H24694  10.788   5.562   2.305  3.0242  0.9846  0.6340
  904MOL0     H24695  11.007   5.394   2.182 -0.8243  0.6350 -0.6425
  904MOL0     H24696  10.928   5.527   2.109  0.0789 -1.2378 -0.6036
  904MOL0     H24697  11.023   5.650   2.337  2.4935 -0.8195  2.5320
  904MOL0     H24698  11.100   5.645   2.168  0.6637 -2.6094 -0.7413
  904MOL0     H24699  11.281   5.577   2.352 -0.9530 -0.6199  2.4968
  904MOL0     H24700  11.163   5.448   2.388 -3.6958  0.2092 -0.6925
  904MOL0     H24701  11.203   5.231   2.233 -1.7644 -0.5546 -1.4867
  904MOL0     H24702  11.406   5.104   2.057 -0.4757 -1.9221 -0.8462
  904MOL0     H24703  11.404   5.179   1.892 -1.0079  0.9789 -1.0244
  904MOL0     H24704  11.156   5.063   2.040 -0.3592 -1.8867 -1.0216
  904MOL0     H24705  11.155   5.175   1.904  2.2751  1.3053 -0.6999
  904MOL0     H24706  11.304   4.982   1.786  1.3372 -3.0294  0.6431
  904MOL0     H24707  11.276   4.889   1.936 -0.7583 -1.1877 -0.4290
  904MOL0     H24708  11.029   4.871   1.850 -1.4023 -0.5916 -3.1203
  904MOL0     H24709  11.079   5.002   1.734  1.8600 -0.8579 -3.2314
  904MOL0     H24710  11.225   4.645   1.551 -0.0613 -2.7146 -2.3162
  904MOL0     H24711  11.195   4.447   1.458 -1.3178 -1.4681 -0.2752
  904MOL0     H24712  11.160   4.535   1.308 -0.6564 -1.1872 -0.3392
  904MOL0     H24713  11.070   4.395   1.359  0.9752  0.5585 -4.8271
  904MOL0     H24714  10.553   4.649   1.197  1.5881 -0.3476  3.0177
  904MOL0     H24715  10.397   4.530   1.032  0.7975  0.3158  0.2538
  904MOL0     H24716  10.256   4.428   0.921 -1.1739 -1.0824  4.5662
  904MOL0     H24717  10.406   4.354   0.853  1.7883  1.4722  1.8923
  904MOL0     H24718  10.298   4.164   0.789 -2.6603 -1.5427 -3.8430
  904MOL0     H24719  10.150   4.189   0.874 -2.0877 -1.1625 -2.3382
  904MOL0     H24720  10.151   4.266   0.617 -2.6584  1.5273 -0.0456
  904MOL0     H24721  10.271   4.391   0.665  1.9723 -1.4287  1.1941
  904MOL0     H24722  10.088   4.492   0.799  1.0327  0.2552 -0.4500
  904MOL0     H24723   9.971   4.356   0.770 -2.1587  2.2473 -1.7098
  904MOL0     H24724  10.098   4.535   0.561 -1.8735  1.3812  0.0872
  904MOL0     H24725   9.967   4.417   0.537 -2.4265 -2.2150  3.3529
  904MOL0     H24726   9.957   4.673   0.707 -1.0207 -0.3830  0.2480
  904MOL0     H24727   9.840   4.561   0.695 -1.1633  1.2891 -1.4421
  904MOL0     H24728   9.795   4.589   0.469  0.9968 -2.0823  1.2073
  904MOL0     H24729   9.946   4.662   0.435  0.0667  2.4512  2.8960
  904MOL0     H24730   9.744   4.807   0.420  1.6994  1.6144 -1.5644
  904MOL0     H24731   9.867   4.881   0.517 -0.9180  0.5266  0.9747
  904MOL0     H24732  10.457   4.164   1.240 -3.7153  0.6334 -0.8628
  904MOL0     H24733  10.621   4.294   1.407 -0.6025 -0.1526  1.1934
  904MOL0     H24734  10.746   4.750   1.520 -0.1814  2.6611  1.5374
  904MOL0     H24735  10.887   4.888   1.669 -2.7080  0.0132 -0.3542
  904MOL0     H24736  11.185   4.884   2.183 -2.4874  0.6497 -0.8230
  904MOL0     H24737  11.340   4.682   2.238 -2.9274 -2.4823 -1.0716
  904MOL0     H24738  11.284   4.276   2.406 -0.8897  2.5271  1.2324
  904MOL0     H24739  11.322   4.044   2.490  0.3655  2.2411 -5.7509
  904MOL0     H24740  11.611   3.993   2.821  1.0796 -4.8052 -0.1277
  904MOL0     H24741  11.447   4.029   2.885  0.8338  0.2190 -0.0299
  904MOL0     H24742  11.543   3.782   2.939  1.3980  4.0552 -0.0976
  904MOL0     H24743  11.535   3.759   2.765 -1.2363  0.0600 -1.6089
  904MOL0     H24744  11.297   3.804   2.955 -0.0300 -1.2927  0.2978
  904MOL0     H24745  11.283   3.809   2.779 -1.0093  2.7767  1.6998
  904MOL0     H24746  11.402   3.569   2.934 -1.8203 -2.3195  0.3052
  904MOL0     H24747  11.387   3.580   2.772  0.0252 -0.9826  0.0587
  904MOL0     H24748  11.021   3.435   2.842 -0.6575  0.9378  0.8884
  904MOL0     H24749  11.613   4.197   2.760 -1.8205 -2.9326  1.2404
  904MOL0     H24750  11.696   4.487   2.588  0.3664  1.2492  2.6701
  904MOL0     H24751  11.585   4.511   2.728 -2.0869 -0.7913  0.1188
  904MOL0     H24752  11.712   4.389   2.727 -0.3284 -2.1263 -0.2927
  905MOL0     O24753   6.650   6.266   3.667  0.0737  0.4208 -0.9225
  905MOL0     C24754   6.683   6.282   3.550 -0.4379 -0.1939  0.1384
  905MOL0     O24755   6.756   6.190   3.479 -0.8174 -0.1393  0.8934
  905MOL0     C24756   6.794   6.078   3.541  0.0012  0.1546  0.2966
  905MOL0     C24757   6.711   5.974   3.592  0.0435  0.0172 -0.1686
  905MOL0     C24758   6.767   5.859   3.658  0.7069 -0.9805 -0.4968
  905MOL0     C24759   6.905   5.854   3.684 -0.0755 -0.2092 -0.4769
  905MOL0     O24760   6.960   5.734   3.738 -0.3407 -0.6708 -0.0478
  905MOL0     C24761   7.044   5.769   3.852  0.0233 -0.3348  1.2761
  905MOL0     C24762   7.122   5.651   3.909  0.3297 -0.5920  0.0117
  905MOL0     C24763   7.045   5.520   3.927 -0.8104  0.5002  0.6333
  905MOL0     C24764   7.134   5.411   3.992 -0.4954 -0.0326 -0.3489
  905MOL0     C24765   7.094   5.275   3.957  0.0749 -0.6756 -0.7134
  905MOL0     C24766   7.197   5.175   4.016  0.0920 -0.1410 -0.3022
  905MOL0     C24767   7.172   5.025   3.993 -0.0987 -0.0189  0.3018
  905MOL0     C24768   7.289   4.949   4.065  0.4216  0.3479 -0.0278
  905MOL0     N24769   7.274   4.963   4.210 -0.3784  0.3411 -0.1000
  905MOL0     C24770   7.214   4.876   4.291 -0.2016 -0.4386 -0.0295
  905MOL0     C24771   7.232   4.933   4.421  0.9861 -0.1744  0.1512
  905MOL0     C24772   7.171   4.887   4.549 -0.2861 -0.3952  0.0667
  905MOL0     C24773   7.027   4.952   4.548 -0.4253  0.0878 -0.5464
  905MOL0     C24774   7.024   5.106   4.528 -0.7524 -1.2574  1.1700
  905MOL0     C24775   7.042   5.178   4.663 -0.2973  0.8260  0.3736
  905MOL0     O24776   6.919   5.240   4.707  0.2243  0.4896  0.6114
  905MOL0     C24777   6.914   5.294   4.823 -1.5757 -0.5285 -0.5020
  905MOL0     C24778   7.009   5.288   4.929 -0.4089 -1.1632  0.0982
  905MOL0     C24779   6.989   5.378   5.035 -0.9755  0.8777  0.6205
  905MOL0     C24780   7.089   5.359   5.155  0.0539  0.2051 -1.0472
  905MOL0     C24781   6.873   5.457   5.043 -1.1268  0.2709 -0.5898
  905MOL0     C24782   6.853   5.561   5.145  0.5179 -0.4217  0.2376
  905MOL0     O24783   6.727   5.605   5.158  0.2330 -0.3604 -0.2083
  905MOL0     C24784   6.715   5.722   5.227 -0.1896  0.0274  0.4894
  905MOL0     C24785   6.710   5.716   5.364  0.2165 -0.6146 -0.2264
  905MOL0     C24786   6.660   5.821   5.436  0.5288  0.6132  0.1475
  905MOL0     C24787   6.632   5.945   5.368  0.9123  0.2413  0.0294
  905MOL0     O24788   6.616   6.056   5.448 -0.0736  0.7587 -0.1883
  905MOL0     C24789   6.482   6.123   5.434  0.7872 -0.0174 -0.0958
  905MOL0     C24790   6.505   6.266   5.383  0.4441  0.2583  0.6295
  905MOL0     C24791   6.585   6.358   5.477  0.2151  0.0122 -0.5377
  905MOL0     C24792   6.562   6.508   5.447  0.6642 -0.0724  0.3478
  905MOL0     C24793   6.652   6.599   5.508 -0.4351 -0.3438  0.2295
  905MOL0     C24794   6.590   6.741   5.498 -0.2700 -0.8174 -0.3821
  905MOL0     C24795   6.664   6.867   5.549 -0.3128 -0.2308  0.2223
  905MOL0     C24796   6.686   6.853   5.703  0.3680 -0.6215  0.5202
  905MOL0    Cl24797   6.545   6.794   5.784  0.1683  0.0511  0.1410
  905MOL0     C24798   6.658   5.959   5.232 -0.3175 -0.5650 -0.2158
  905MOL0     C24799   6.693   5.841   5.162  0.4702 -0.3573  1.3648
  905MOL0     O24800   6.953   5.625   5.187 -0.6639  0.0156  0.4671
  905MOL0     C24801   6.776   5.449   4.949 -0.3402 -0.4524  0.8798
  905MOL0     C24802   6.798   5.372   4.837 -0.5690 -0.8906 -0.5150
  905MOL0     N24803   7.324   5.034   4.414  0.1889  0.3730 -0.0543
  905MOL0     N24804   7.359   5.042   4.287  0.4291 -0.5109 -0.9582
  905MOL0     C24805   6.987   5.950   3.615  0.8614 -0.4490 -0.3804
  905MOL0     C24806   6.930   6.065   3.550 -0.8510  0.5761  1.0892
  905MOL0     C24807   6.665   6.420   3.490  0.2270 -0.6734 -0.9673
  905MOL0     C24808   6.745   6.456   3.385 -0.1965 -0.1699 -0.1470
  905MOL0     C24809   6.726   6.577   3.306 -0.4056  0.1236 -0.7105
  905MOL0     C24810   6.621   6.660   3.334 -0.5434 -0.2471 -0.1188
  905MOL0     O24811   6.616   6.763   3.244  0.1820  0.1608 -0.0253
  905MOL0     C24812   6.496   6.833   3.230  0.4377  0.0841  0.2453
  905MOL0     C24813   6.503   6.921   3.106 -0.8350 -0.1925 -0.0339
  905MOL0     C24814   6.626   7.011   3.101  0.5955  0.0167  0.3896
  905MOL0     C24815   6.620   7.148   3.160  0.1180 -0.3559 -0.5619
  905MOL0     C24816   6.522   7.234   3.086 -0.0252 -0.0669  0.1949
  905MOL0     C24817   6.449   7.297   3.017  0.0852 -0.7300 -0.2210
  905MOL0     C24818   6.532   6.626   3.441  0.4278  0.8621 -0.1276
  905MOL0     C24819   6.562   6.507   3.523 -0.1651  0.2234 -0.3120
  905MOL0     C24820   6.456   6.470   3.627  0.5242 -0.0426 -0.3870
  905MOL0     H24821   6.607   6.003   3.581  0.7032  2.7517  0.0847
  905MOL0     H24822   6.697   5.789   3.704 -2.0671  1.1993 -1.1082
  905MOL0     H24823   6.979   5.814   3.927  0.5447 -0.2921  1.7041
  905MOL0     H24824   7.116   5.845   3.822 -0.9430  0.4885  0.9806
  905MOL0     H24825   7.205   5.628   3.842 -0.6173 -1.3275 -0.9333
  905MOL0     H24826   7.153   5.675   4.011 -1.1448 -1.8992  0.8141
  905MOL0     H24827   6.953   5.542   3.981 -1.1934  0.0035  0.1919
  905MOL0     H24828   7.026   5.492   3.823  2.4957 -0.1107  0.0805
  905MOL0     H24829   7.239   5.429   3.968 -0.3726  1.0587  0.9346
  905MOL0     H24830   7.125   5.425   4.100 -1.0770  2.1783 -0.6392
  905MOL0     H24831   7.085   5.266   3.849  0.9203  1.9260 -1.0628
  905MOL0     H24832   6.991   5.252   3.990 -0.1758  2.8156  1.4669
  905MOL0     H24833   7.296   5.197   3.976 -1.2940  2.4880 -2.5724
  905MOL0     H24834   7.198   5.192   4.124  2.5253 -2.5962  0.1778
  905MOL0     H24835   7.166   4.999   3.887 -2.0084  0.2871  0.3040
  905MOL0     H24836   7.076   4.998   4.037  0.4502 -0.3518  1.3176
  905MOL0     H24837   7.286   4.840   4.050 -0.4491 -0.5232  4.7578
  905MOL0     H24838   7.387   4.992   4.044  1.6247  0.7586  5.1226
  905MOL0     H24839   7.152   4.789   4.274  1.4869 -1.1139 -3.3679
  905MOL0     H24840   7.233   4.905   4.637 -0.6623 -0.6565  0.3951
  905MOL0     H24841   7.165   4.778   4.563 -0.0402 -0.3689  0.3859
  905MOL0     H24842   6.964   4.905   4.472  1.3917 -2.6811 -0.4999
  905MOL0     H24843   6.981   4.931   4.645  0.7348 -1.7608 -0.3272
  905MOL0     H24844   7.103   5.142   4.462  0.4006  0.5214  3.3825
  905MOL0     H24845   6.928   5.136   4.485 -0.4862 -2.9589 -0.7859
  905MOL0     H24846   7.070   5.103   4.738 -3.4393 -0.7001  0.1549
  905MOL0     H24847   7.118   5.257   4.671 -0.6198  0.9816  2.7583
  905MOL0     H24848   7.096   5.223   4.927  1.5167  1.0205  3.4899
  905MOL0     H24849   7.179   5.421   5.148  1.1371 -1.4539 -2.7847
  905MOL0     H24850   7.117   5.253   5.163  1.9274  0.7677  0.7248
  905MOL0     H24851   7.039   5.382   5.249 -0.0126 -3.8693  0.1355
  905MOL0     H24852   6.728   5.625   5.421 -0.7394 -1.6993 -1.5836
  905MOL0     H24853   6.627   5.815   5.540  1.6274 -2.1620  0.4120
  905MOL0     H24854   6.415   6.066   5.369 -1.6300  2.9886 -0.5113
  905MOL0     H24855   6.428   6.131   5.528 -2.0897  0.1027 -1.6538
  905MOL0     H24856   6.561   6.275   5.289  1.1430 -0.1932  0.9989
  905MOL0     H24857   6.409   6.314   5.360 -0.0591 -0.4910  1.0961
  905MOL0     H24858   6.692   6.340   5.475  0.3634  0.1031  2.1099
  905MOL0     H24859   6.547   6.338   5.578 -4.0968 -2.4387 -2.3266
  905MOL0     H24860   6.462   6.538   5.479  1.3602  1.8203  0.8527
  905MOL0     H24861   6.569   6.526   5.339  0.0309  2.3549  0.6535
  905MOL0     H24862   6.673   6.563   5.609 -1.2793 -3.1867 -0.5321
  905MOL0     H24863   6.748   6.595   5.455 -0.5296  1.8809 -0.2262
  905MOL0     H24864   6.490   6.746   5.544  0.1773 -3.4815  1.1020
  905MOL0     H24865   6.572   6.757   5.392 -2.6701 -0.0305  0.0573
  905MOL0     H24866   6.617   6.960   5.516  3.8162  0.9907 -3.1948
  905MOL0     H24867   6.767   6.875   5.513 -0.1152  1.0364  0.9945
  905MOL0     H24868   6.726   6.942   5.751 -0.8773 -0.2889  0.9960
  905MOL0     H24869   6.757   6.772   5.721 -0.4632 -1.5304 -0.1343
  905MOL0     H24870   6.660   6.061   5.197  0.5055 -0.1712  0.9218
  905MOL0     H24871   6.702   5.839   5.054  0.3691  2.0665  1.2606
  905MOL0     H24872   6.690   5.516   4.941  1.4850  1.9151 -0.0815
  905MOL0     H24873   6.728   5.390   4.756 -0.2521 -1.0607 -0.8309
  905MOL0     H24874   7.094   5.935   3.624  0.6226 -1.5749  0.7963
  905MOL0     H24875   6.980   6.152   3.507 -1.4650  0.4794  0.1641
  905MOL0     H24876   6.838   6.412   3.351 -1.2329 -0.0616 -3.4938
  905MOL0     H24877   6.802   6.593   3.230 -1.2025 -1.7605 -1.9817
  905MOL0     H24878   6.423   6.753   3.212 -0.9585  1.3475  0.0571
  905MOL0     H24879   6.456   6.889   3.315  0.1823 -0.7633  0.6881
  905MOL0     H24880   6.417   6.987   3.095 -0.2028  0.7496  0.5190
  905MOL0     H24881   6.515   6.846   3.027  0.9653 -1.4549  1.3325
  905MOL0     H24882   6.707   6.951   3.145 -0.0979 -1.8083 -0.6870
  905MOL0     H24883   6.661   7.010   2.998 -2.9710 -2.4208 -1.0291
  905MOL0     H24884   6.716   7.200   3.159 -0.7237  1.2526 -1.1602
  905MOL0     H24885   6.587   7.154   3.264 -0.4301  3.5584 -0.8264
  905MOL0     H24886   6.390   7.368   2.963  2.9838  1.3274 -0.9121
  905MOL0     H24887   6.443   6.683   3.465 -0.7676 -0.8779 -0.2776
  905MOL0     H24888   6.502   6.474   3.726 -0.2922 -0.0625  0.0071
  905MOL0     H24889   6.371   6.538   3.620 -0.5428 -1.3094 -0.1981
  905MOL0     H24890   6.417   6.369   3.608 -0.6390  0.2045  0.5540
  906MOL0     O24891   4.598   3.008   8.370 -0.2963  0.0682 -0.2281
  906MOL0     C24892   4.679   3.056   8.289  0.3837  1.0374  0.0445
  906MOL0     O24893   4.815   3.040   8.292 -0.3542 -0.2051 -0.5716
  906MOL0     C24894   4.881   2.973   8.393 -0.3462  0.0789 -0.8890
  906MOL0     C24895   4.851   2.995   8.526  0.2808  0.1944 -0.1015
  906MOL0     C24896   4.915   2.931   8.632 -0.0688  0.0947  0.9591
  906MOL0     C24897   5.013   2.831   8.604 -0.0941  0.8014 -0.4558
  906MOL0     O24898   5.070   2.769   8.715 -0.3143 -0.0545  0.3784
  906MOL0     C24899   5.178   2.679   8.681  0.2876 -0.4694  0.4927
  906MOL0     C24900   5.215   2.603   8.809 -0.6064  0.5777 -0.0923
  906MOL0     C24901   5.105   2.522   8.880  1.2524 -0.2019 -0.1391
  906MOL0     C24902   5.160   2.407   8.964 -1.1764 -0.3582  0.4083
  906MOL0     C24903   5.040   2.364   9.047 -0.7636  0.2131 -0.6867
  906MOL0     C24904   5.016   2.456   9.181  0.0187 -0.7594  0.4560
  906MOL0     C24905   4.909   2.395   9.260  0.0366  0.2652 -0.0052
  906MOL0     C24906   4.855   2.498   9.364  0.0026  0.7507 -0.1866
  906MOL0     N24907   4.758   2.424   9.447  0.7878  1.0601  0.9755
  906MOL0     C24908   4.620   2.425   9.426  0.1909  1.0985  0.7191
  906MOL0     C24909   4.567   2.358   9.531  0.1026  0.9544  1.1898
  906MOL0     C24910   4.424   2.340   9.546  0.6323  0.9723 -0.1329
  906MOL0     C24911   4.360   2.243   9.447 -0.0197  0.3474 -0.4818
  906MOL0     C24912   4.361   2.098   9.489 -0.6988 -0.2648 -0.8969
  906MOL0     C24913   4.498   2.044   9.482  0.2586  0.5147 -0.2627
  906MOL0     O24914   4.502   1.900   9.472  0.4668  0.4472  0.3526
  906MOL0     C24915   4.471   1.848   9.348 -0.3852  0.2741 -0.1286
  906MOL0     C24916   4.498   1.712   9.328  0.1004 -0.1400 -0.6352
  906MOL0     C24917   4.446   1.642   9.217  0.2494  0.3065 -0.0310
  906MOL0     C24918   4.493   1.499   9.205 -0.3018 -0.0300  0.0327
  906MOL0     C24919   4.381   1.711   9.116  0.1004  0.6761  0.3680
  906MOL0     C24920   4.316   1.638   9.000 -0.0615 -0.9926  0.2432
  906MOL0     O24921   4.286   1.719   8.899 -0.0644 -0.5910  0.0425
  906MOL0     C24922   4.229   1.681   8.777  0.6603  0.5448 -0.8186
  906MOL0     C24923   4.159   1.777   8.708 -0.9930 -0.8667 -0.8725
  906MOL0     C24924   4.104   1.746   8.589 -0.9824  0.0863 -0.2346
  906MOL0     C24925   4.110   1.621   8.531 -0.5340 -0.0326 -0.7332
  906MOL0     O24926   4.025   1.615   8.416  0.7014 -0.3475 -0.5955
  906MOL0     C24927   4.039   1.490   8.335 -0.2123 -1.1157  0.4508
  906MOL0     C24928   4.182   1.491   8.280  0.9848  0.2568 -0.4511
  906MOL0     C24929   4.223   1.621   8.193  0.0934 -0.0971 -0.4778
  906MOL0     C24930   4.370   1.605   8.147 -0.2139  0.7677 -0.0650
  906MOL0     C24931   4.416   1.710   8.042 -0.2018 -0.0118  1.3656
  906MOL0     C24932   4.357   1.694   7.901  0.5093  1.4154  0.5133
  906MOL0     C24933   4.394   1.779   7.789 -0.0064 -0.2694 -0.2700
  906MOL0     C24934   4.351   1.733   7.641  0.1772 -0.0419  0.6696
  906MOL0    Cl24935   4.464   1.817   7.526 -0.5161  0.0334  0.0599
  906MOL0     C24936   4.179   1.515   8.606  0.4947 -0.2725 -0.0137
  906MOL0     C24937   4.240   1.549   8.728 -0.0586 -0.3927 -0.3920
  906MOL0     O24938   4.271   1.525   9.018  0.6962  0.4609 -0.3944
  906MOL0     C24939   4.396   1.853   9.118 -1.3972 -0.2546  0.7942
  906MOL0     C24940   4.425   1.920   9.233 -0.7341  0.1628 -0.7588
  906MOL0     N24941   4.671   2.306   9.605 -0.0368 -0.7131  1.0723
  906MOL0     N24942   4.785   2.354   9.559 -0.3838  0.0302  0.4074
  906MOL0     C24943   5.052   2.822   8.477  0.3777 -0.2791  0.7260
  906MOL0     C24944   4.997   2.900   8.373  0.1219 -0.2798 -0.2123
  906MOL0     C24945   4.625   3.139   8.183 -1.3024 -0.2465  0.1701
  906MOL0     C24946   4.708   3.202   8.086 -0.9518  0.1122  0.1760
  906MOL0     C24947   4.660   3.278   7.991 -0.2613  0.1147 -0.0445
  906MOL0     C24948   4.521   3.280   7.956  1.0221  0.7985  0.4472
  906MOL0     O24949   4.477   3.327   7.838 -0.9767 -0.2375 -0.6251
  906MOL0     C24950   4.382   3.251   7.771  0.3003 -0.2583 -0.4386
  906MOL0     C24951   4.359   3.267   7.625 -0.2512  0.0444 -0.4835
  906MOL0     C24952   4.306   3.411   7.597  0.2034 -0.4178 -0.1972
  906MOL0     C24953   4.259   3.421   7.457 -0.6675 -0.0143  0.0525
  906MOL0     C24954   4.130   3.357   7.438  0.7920 -0.8536  0.7225
  906MOL0     C24955   4.024   3.292   7.431 -0.2174 -0.0831 -0.6085
  906MOL0     C24956   4.432   3.230   8.054 -0.2552 -0.1932 -0.4411
  906MOL0     C24957   4.489   3.156   8.160  0.1433  0.7074 -0.2702
  906MOL0     C24958   4.377   3.100   8.249 -0.1591  0.5472 -0.4418
  906MOL0     H24959   4.761   3.049   8.552 -1.1202 -1.9809 -0.2285
  906MOL0     H24960   4.878   2.945   8.733 -2.4074 -1.9121  0.4800
  906MOL0     H24961   5.262   2.737   8.642  1.7145 -3.1551 -0.6630
  906MOL0     H24962   5.149   2.611   8.601 -0.8453  1.8355 -1.1900
  906MOL0     H24963   5.300   2.536   8.796 -0.1683  1.3851 -1.5148
  906MOL0     H24964   5.251   2.687   8.870 -0.2909  1.5424 -1.5618
  906MOL0     H24965   5.053   2.592   8.946 -0.1549 -3.4464  2.4877
  906MOL0     H24966   5.030   2.487   8.808  1.1577 -0.9559  0.3145
  906MOL0     H24967   5.199   2.324   8.903  2.7609  1.0124  0.7456
  906MOL0     H24968   5.244   2.435   9.028  1.0139  0.7768 -2.7269
  906MOL0     H24969   5.071   2.267   9.089  2.4919  1.9692  1.4817
  906MOL0     H24970   4.946   2.357   8.993 -1.4916  0.3715  0.5321
  906MOL0     H24971   5.110   2.463   9.239  0.0403  0.5540  0.3090
  906MOL0     H24972   4.992   2.560   9.158 -1.8563 -0.9265  1.4840
  906MOL0     H24973   4.934   2.294   9.295 -0.2827  0.6753  1.4569
  906MOL0     H24974   4.828   2.368   9.191 -1.5194 -1.0121  2.1870
  906MOL0     H24975   4.929   2.539   9.433  0.5711 -0.5006 -0.0332
  906MOL0     H24976   4.799   2.585   9.327  0.2736  1.2606  0.5843
  906MOL0     H24977   4.574   2.480   9.345  2.9498  1.0707 -1.0015
  906MOL0     H24978   4.374   2.437   9.533 -0.2843  0.7862  1.7376
  906MOL0     H24979   4.394   2.322   9.649  2.3424  0.5398  0.3143
  906MOL0     H24980   4.253   2.263   9.459 -0.2701 -0.6585 -0.9156
  906MOL0     H24981   4.391   2.267   9.345 -0.6952  2.4492 -0.2407
  906MOL0     H24982   4.314   2.082   9.587 -0.5034 -0.0907 -0.7728
  906MOL0     H24983   4.290   2.050   9.422  0.5974 -0.3992 -2.2116
  906MOL0     H24984   4.546   2.094   9.397  0.8671  1.7764  0.7918
  906MOL0     H24985   4.557   2.071   9.570 -1.2130 -3.0727  2.0725
  906MOL0     H24986   4.554   1.646   9.394 -0.5005 -0.6952 -0.6690
  906MOL0     H24987   4.573   1.463   9.272 -2.6527 -3.5516  1.2630
  906MOL0     H24988   4.533   1.466   9.109 -0.0766 -2.5991  0.9202
  906MOL0     H24989   4.403   1.439   9.221 -0.1038  0.0854  1.7751
  906MOL0     H24990   4.146   1.872   8.759  0.1426 -0.7534 -0.7526
  906MOL0     H24991   4.042   1.817   8.536 -2.3680  0.0069  1.2083
  906MOL0     H24992   4.016   1.402   8.395 -1.4601 -2.2687 -1.6185
  906MOL0     H24993   3.966   1.490   8.254 -0.1948  2.0257  0.3058
  906MOL0     H24994   4.259   1.460   8.351 -0.3910 -1.7984  0.2277
  906MOL0     H24995   4.175   1.408   8.209 -0.8495 -0.2253  0.2473
  906MOL0     H24996   4.206   1.716   8.243 -0.2478  0.0716 -0.9114
  906MOL0     H24997   4.163   1.610   8.102  0.3598 -0.9468 -0.5669
  906MOL0     H24998   4.381   1.511   8.091  0.2567  1.3191 -0.9341
  906MOL0     H24999   4.434   1.607   8.236 -1.4802 -0.2435  0.9038
  906MOL0     H25000   4.403   1.812   8.080  2.2149  1.5645 -1.6145
  906MOL0     H25001   4.522   1.692   8.023  0.4484  2.0261  2.7302
  906MOL0     H25002   4.248   1.693   7.906  0.4598  1.7907 -0.2155
  906MOL0     H25003   4.378   1.594   7.862 -2.4243  0.4140  1.2635
  906MOL0     H25004   4.502   1.790   7.786 -0.0409 -0.0605 -0.8770
  906MOL0     H25005   4.353   1.879   7.806 -2.2351 -0.5236 -3.3841
  906MOL0     H25006   4.250   1.770   7.621  0.0084 -0.6648  0.3426
  906MOL0     H25007   4.348   1.628   7.610  1.1371  0.2711 -0.5517
  906MOL0     H25008   4.182   1.411   8.577 -0.8126 -0.5830  0.9070
  906MOL0     H25009   4.291   1.473   8.787 -1.2520 -0.1037  1.0863
  906MOL0     H25010   4.371   1.922   9.038  0.0832  0.7236  1.1358
  906MOL0     H25011   4.436   2.028   9.239 -0.4142  0.0729  2.4428
  906MOL0     H25012   5.138   2.757   8.464  0.0809 -1.4236  3.7547
  906MOL0     H25013   5.033   2.889   8.272  0.2439  0.5519 -0.2618
  906MOL0     H25014   4.816   3.208   8.097 -0.4454 -2.2020 -2.3062
  906MOL0     H25015   4.732   3.338   7.936  3.7788 -2.3364  2.1436
  906MOL0     H25016   4.414   3.147   7.786  1.3139  0.4595  3.2816
  906MOL0     H25017   4.284   3.262   7.817 -1.8050 -0.5773 -4.4319
  906MOL0     H25018   4.286   3.191   7.596 -2.9985  2.0001  0.8977
  906MOL0     H25019   4.456   3.242   7.581 -1.5270 -5.1435 -1.0222
  906MOL0     H25020   4.223   3.444   7.660  0.3118  0.0719 -0.3098
  906MOL0     H25021   4.391   3.476   7.622  0.8621 -1.5615  0.6573
  906MOL0     H25022   4.337   3.377   7.394 -0.8609 -0.4768  0.1240
  906MOL0     H25023   4.264   3.523   7.421  2.1479  0.2793  1.0410
  906MOL0     H25024   3.944   3.222   7.416  1.5844 -2.0225 -1.7585
  906MOL0     H25025   4.328   3.221   8.026  0.5352  2.0537 -5.1197
  906MOL0     H25026   4.381   2.991   8.249 -4.2138  0.2460 -0.0103
  906MOL0     H25027   4.382   3.133   8.353  0.0492 -1.4980  0.2506
  906MOL0     H25028   4.277   3.121   8.209  0.0361 -2.3632 -2.8250
  907MOL0     O25029   2.004   3.884   3.256  0.1311  0.4221 -0.6016
  907MOL0     C25030   2.013   3.931   3.141  0.0023  0.6539  0.0147
  907MOL0     O25031   2.131   3.928   3.079  0.1569 -0.8392 -0.1262
  907MOL0     C25032   2.228   3.840   3.123 -0.4136 -0.0825  0.7671
  907MOL0     C25033   2.205   3.706   3.157  0.9132 -0.8773 -0.0228
  907MOL0     C25034   2.303   3.625   3.215  0.5722  0.5454  0.0406
  907MOL0     C25035   2.425   3.681   3.232  0.2685 -1.1891 -0.1397
  907MOL0     O25036   2.536   3.625   3.294 -0.2920 -0.4016  0.3630
  907MOL0     C25037   2.559   3.487   3.283  0.0120  0.3342 -1.3445
  907MOL0     C25038   2.564   3.423   3.422 -0.2838 -0.1149  0.2237
  907MOL0     C25039   2.664   3.491   3.521 -0.7705 -0.2871 -1.0060
  907MOL0     C25040   2.810   3.468   3.487  0.2371 -0.1639 -0.0591
  907MOL0     C25041   2.905   3.544   3.576 -0.1255 -0.0460 -0.9232
  907MOL0     C25042   3.051   3.543   3.536 -0.9728 -0.4088  0.3882
  907MOL0     C25043   3.128   3.406   3.559 -0.5701  0.4274  0.0076
  907MOL0     C25044   3.271   3.429   3.494  0.6799  0.0769  0.3114
  907MOL0     N25045   3.362   3.491   3.592  0.5456 -0.1772 -0.2792
  907MOL0     C25046   3.404   3.433   3.708 -0.1084  0.2308  0.0674
  907MOL0     C25047   3.468   3.531   3.780  1.5511  0.9941 -0.3371
  907MOL0     C25048   3.519   3.517   3.924  0.3267  0.6164 -0.2059
  907MOL0     C25049   3.457   3.405   4.015  0.1496  0.1329  0.0390
  907MOL0     C25050   3.320   3.464   4.074 -0.7114 -0.2844  0.3784
  907MOL0     C25051   3.269   3.378   4.191 -0.1429  0.0927 -0.4599
  907MOL0     O25052   3.131   3.420   4.222 -0.4606  0.5553  0.5137
  907MOL0     C25053   3.031   3.384   4.134  0.2242  0.5567 -0.0519
  907MOL0     C25054   3.040   3.311   4.014 -0.2840  0.4126  0.7842
  907MOL0     C25055   2.926   3.261   3.939  0.6380  0.0878 -0.4717
  907MOL0     C25056   2.945   3.171   3.816  0.4588  0.5199 -0.6990
  907MOL0     C25057   2.797   3.312   3.979 -0.4858  0.6638  0.6766
  907MOL0     C25058   2.667   3.269   3.906  0.1627 -0.2317  0.8184
  907MOL0     O25059   2.561   3.299   3.982  0.6457 -0.6218  0.0229
  907MOL0     C25060   2.444   3.316   3.907  0.0690  1.0561  0.6001
  907MOL0     C25061   2.417   3.429   3.831 -0.0417 -0.2329 -0.2132
  907MOL0     C25062   2.304   3.450   3.764 -0.1105  0.2118 -0.4483
  907MOL0     C25063   2.191   3.357   3.784  0.1627  1.2086  0.3093
  907MOL0     O25064   2.062   3.384   3.751 -0.0465  0.7055 -0.3042
  907MOL0     C25065   2.004   3.505   3.695 -0.0493 -0.0424  0.8378
  907MOL0     C25066   1.914   3.474   3.575  0.2883 -0.0756  0.2438
  907MOL0     C25067   1.989   3.462   3.440 -0.3681  0.5738 -0.1118
  907MOL0     C25068   1.897   3.387   3.332  0.9768  0.0036 -0.2780
  907MOL0     C25069   1.752   3.444   3.309  0.6973  0.7628 -0.2770
  907MOL0     C25070   1.760   3.577   3.230  0.2487  1.4839 -0.2290
  907MOL0     C25071   1.626   3.616   3.175  1.1079  0.6378 -0.6603
  907MOL0     C25072   1.631   3.750   3.105  0.1205 -0.3910 -0.2940
  907MOL0    Cl25073   1.516   3.747   2.963  0.3809  0.3636  0.1292
  907MOL0     C25074   2.223   3.236   3.851 -0.5961 -0.1100 -0.2052
  907MOL0     C25075   2.349   3.217   3.922 -0.1674 -0.2840 -0.0607
  907MOL0     O25076   2.665   3.204   3.800 -1.0362 -0.9487 -0.8164
  907MOL0     C25077   2.787   3.392   4.096 -0.2711 -0.9472  0.3389
  907MOL0     C25078   2.903   3.417   4.171 -0.2135 -0.0518 -0.2592
  907MOL0     N25079   3.454   3.639   3.701 -0.2131 -0.3252 -0.0217
  907MOL0     N25080   3.397   3.622   3.582 -0.1548  0.7423 -0.1582
  907MOL0     C25081   2.454   3.811   3.187 -0.0240 -0.7863 -0.1319
  907MOL0     C25082   2.361   3.887   3.127 -0.3658  0.5444  0.1681
  907MOL0     C25083   1.909   3.994   3.073 -0.4467  1.0801 -0.2462
  907MOL0     C25084   1.805   4.041   3.149 -0.4992  0.1820 -0.1864
  907MOL0     C25085   1.700   4.099   3.090 -0.4727 -0.7366 -0.6797
  907MOL0     C25086   1.696   4.127   2.951 -0.4837  0.0634  0.2337
  907MOL0     O25087   1.599   4.196   2.884  0.9907 -0.0625  0.0683
  907MOL0     C25088   1.458   4.208   2.936  0.8582 -0.6339 -0.4283
  907MOL0     C25089   1.406   4.339   2.864  0.0013  1.0513 -0.8518
  907MOL0     C25090   1.376   4.318   2.716  0.1509 -0.1864  0.5187
  907MOL0     C25091   1.282   4.425   2.656 -0.7944  0.5278 -1.3545
  907MOL0     C25092   1.262   4.395   2.509 -0.0779  0.4649  0.2888
  907MOL0     C25093   1.237   4.370   2.394  0.2595 -0.2349 -0.5100
  907MOL0     C25094   1.801   4.076   2.870  0.0956  0.3004 -0.5607
  907MOL0     C25095   1.899   3.994   2.926  0.1531  0.3551  0.4603
  907MOL0     C25096   1.990   3.919   2.835 -0.4488 -0.1638  0.4919
  907MOL0     H25097   2.106   3.664   3.144  0.6368 -0.9399  2.0082
  907MOL0     H25098   2.280   3.525   3.250  1.6805 -1.8951 -5.2335
  907MOL0     H25099   2.663   3.484   3.248  1.2374  1.1990  1.9055
  907MOL0     H25100   2.491   3.436   3.213 -3.0382  0.8125  1.0681
  907MOL0     H25101   2.464   3.423   3.464 -0.4862 -3.6881 -0.0010
  907MOL0     H25102   2.581   3.315   3.425  3.6675  0.3660  0.9565
  907MOL0     H25103   2.648   3.599   3.512  2.1049  0.2536 -0.8621
  907MOL0     H25104   2.639   3.442   3.615 -5.0960  0.8761 -1.3593
  907MOL0     H25105   2.819   3.362   3.515  1.3651  0.0120  0.2822
  907MOL0     H25106   2.827   3.477   3.379 -2.7590  1.3451 -0.4988
  907MOL0     H25107   2.902   3.504   3.678 -0.2849  1.9366 -0.1097
  907MOL0     H25108   2.873   3.648   3.588 -0.2840 -0.4066  2.9668
  907MOL0     H25109   3.050   3.554   3.428 -3.2313  1.3199  0.5034
  907MOL0     H25110   3.099   3.631   3.580  0.0552 -0.6270 -0.2739
  907MOL0     H25111   3.082   3.321   3.509  2.7744 -0.7245 -1.3762
  907MOL0     H25112   3.138   3.383   3.665 -2.1784  2.2365  0.6185
  907MOL0     H25113   3.301   3.340   3.439 -0.4051 -1.1240  1.5762
  907MOL0     H25114   3.270   3.510   3.421 -0.9195 -0.4687 -0.3116
  907MOL0     H25115   3.405   3.328   3.732 -0.3317  0.2021 -0.0401
  907MOL0     H25116   3.508   3.614   3.974  0.8503  0.9211 -0.6730
  907MOL0     H25117   3.625   3.490   3.915 -0.4063 -2.6786 -0.2348
  907MOL0     H25118   3.421   3.323   3.953  0.2018  1.3784 -1.7205
  907MOL0     H25119   3.527   3.371   4.091  0.8360 -0.6828 -0.9236
  907MOL0     H25120   3.338   3.562   4.119  1.6299 -1.0977  1.3310
  907MOL0     H25121   3.240   3.482   4.002 -0.5086 -1.0656 -0.0576
  907MOL0     H25122   3.260   3.273   4.159  1.8061 -0.8448  1.7518
  907MOL0     H25123   3.339   3.389   4.274  0.8032 -1.7479 -0.9565
  907MOL0     H25124   3.129   3.259   3.981 -2.7984 -3.8419 -0.0039
  907MOL0     H25125   3.050   3.167   3.785 -0.0542 -0.6711 -2.3946
  907MOL0     H25126   2.892   3.213   3.730 -1.1516  0.8560  0.4026
  907MOL0     H25127   2.907   3.074   3.847  1.6561  0.6590  1.3765
  907MOL0     H25128   2.497   3.502   3.834  0.1363 -0.4481  1.5695
  907MOL0     H25129   2.287   3.548   3.720  1.2490 -0.0269 -1.5592
  907MOL0     H25130   1.945   3.552   3.774  0.4722 -0.8050  1.7114
  907MOL0     H25131   2.064   3.588   3.657  2.7457 -0.5106  3.7362
  907MOL0     H25132   1.861   3.386   3.611 -0.4290  1.4058  3.1294
  907MOL0     H25133   1.844   3.558   3.564  2.4900  1.6240 -2.0072
  907MOL0     H25134   2.087   3.416   3.459 -0.7951  0.1186  1.0847
  907MOL0     H25135   2.009   3.561   3.397 -0.4144  0.2122 -0.9939
  907MOL0     H25136   1.881   3.291   3.381 -0.1898  1.1078  1.6204
  907MOL0     H25137   1.946   3.376   3.235  0.9784 -2.5779 -0.0467
  907MOL0     H25138   1.686   3.374   3.257 -1.1680  1.4742  1.0354
  907MOL0     H25139   1.706   3.463   3.406  3.9268 -0.3728  1.6330
  907MOL0     H25140   1.833   3.558   3.150  0.5812 -1.7999  0.6767
  907MOL0     H25141   1.805   3.642   3.305 -1.0005  0.1686  1.7385
  907MOL0     H25142   1.553   3.604   3.256 -1.1049  0.1930 -2.6155
  907MOL0     H25143   1.595   3.548   3.095  0.6006  2.3159 -1.9504
  907MOL0     H25144   1.730   3.765   3.060 -0.2771  1.0731 -0.7445
  907MOL0     H25145   1.603   3.828   3.177 -1.4434  1.1371 -2.4617
  907MOL0     H25146   2.143   3.164   3.865  1.9568 -2.8871  1.2028
  907MOL0     H25147   2.359   3.134   3.992 -1.2994 -0.8036 -0.4828
  907MOL0     H25148   2.700   3.444   4.135 -2.1903 -3.1599 -0.6909
  907MOL0     H25149   2.888   3.469   4.265 -0.8710 -0.3561 -0.1916
  907MOL0     H25150   2.557   3.845   3.187  0.4438 -2.1450  0.6718
  907MOL0     H25151   2.382   3.990   3.098  3.3103  0.3328  1.4597
  907MOL0     H25152   1.801   4.015   3.254 -2.2318 -0.7395 -0.4357
  907MOL0     H25153   1.639   4.144   3.168 -0.1940  0.2486 -1.0100
  907MOL0     H25154   1.393   4.124   2.909 -0.8624  0.2627  0.7287
  907MOL0     H25155   1.461   4.221   3.045 -2.9346  0.7172 -0.3425
  907MOL0     H25156   1.466   4.430   2.872 -0.0273  1.0084 -0.1011
  907MOL0     H25157   1.316   4.363   2.920 -0.3807  1.8368 -1.7660
  907MOL0     H25158   1.470   4.320   2.660 -0.8288  0.3056 -1.1928
  907MOL0     H25159   1.340   4.216   2.701 -1.6121  0.4008  0.4859
  907MOL0     H25160   1.326   4.524   2.672  0.2552 -0.4533  3.8725
  907MOL0     H25161   1.188   4.419   2.711 -1.5160 -1.0154 -2.7121
  907MOL0     H25162   1.216   4.347   2.291  2.1580 -0.2590 -0.9266
  907MOL0     H25163   1.808   4.107   2.767  2.9554  4.1712  0.5763
  907MOL0     H25164   2.022   3.822   2.873  2.1950  0.8611  1.1459
  907MOL0     H25165   1.928   3.899   2.747 -1.4551 -1.8477  1.5381
  907MOL0     H25166   2.083   3.975   2.824 -0.7604  0.5026  1.1716
  908MOL0     O25167   1.894   4.478   5.722  0.5371 -0.0479 -0.1491
  908MOL0     C25168   1.904   4.575   5.796  0.1137 -0.5672 -1.0121
  908MOL0     O25169   1.917   4.565   5.932  0.6728  0.9024  0.1326
  908MOL0     C25170   1.907   4.446   6.004  0.5390  0.1977  0.6083
  908MOL0     C25171   1.856   4.446   6.139 -0.3991 -0.1963 -0.6253
  908MOL0     C25172   1.867   4.340   6.232 -0.2569 -0.2948  0.0053
  908MOL0     C25173   1.933   4.227   6.184 -0.7299  0.0286 -0.2020
  908MOL0     O25174   1.967   4.129   6.282 -0.1297 -0.3654 -0.5825
  908MOL0     C25175   1.934   4.001   6.240 -0.4200  1.3346 -0.1563
  908MOL0     C25176   1.922   3.913   6.373 -0.1286 -0.4174 -0.4275
  908MOL0     C25177   1.798   3.952   6.455  0.7463 -0.3207 -0.1721
  908MOL0     C25178   1.784   3.881   6.585 -0.1595  0.6858 -1.2338
  908MOL0     C25179   1.754   3.728   6.572 -0.6028  0.5716 -0.3011
  908MOL0     C25180   1.753   3.670   6.714  0.1017 -0.8328  0.1260
  908MOL0     C25181   1.889   3.612   6.741 -0.5249 -0.4416  0.3055
  908MOL0     C25182   1.908   3.541   6.876  0.5760  0.4910 -0.6490
  908MOL0     N25183   1.872   3.396   6.877 -0.2474  0.2291  0.1307
  908MOL0     C25184   1.957   3.295   6.908 -0.7372  0.1679  0.0752
  908MOL0     C25185   1.893   3.183   6.881 -0.0269  0.0682 -0.9908
  908MOL0     C25186   1.934   3.035   6.884 -1.0175  0.4932  0.3292
  908MOL0     C25187   1.868   2.965   6.765 -0.2607  0.9605  1.1001
  908MOL0     C25188   1.930   2.829   6.746  0.9245 -0.4669 -0.4343
  908MOL0     C25189   1.846   2.752   6.648  0.1475 -0.6532 -0.7023
  908MOL0     O25190   1.867   2.807   6.511 -0.7287  0.3236 -0.3736
  908MOL0     C25191   1.757   2.813   6.436  0.2345  0.9256 -0.8902
  908MOL0     C25192   1.751   2.895   6.327  0.2575  0.6409  0.8682
  908MOL0     C25193   1.647   2.902   6.237 -0.4248  0.1035 -0.2224
  908MOL0     C25194   1.648   2.989   6.115  0.6384 -0.6241  0.1504
  908MOL0     C25195   1.534   2.808   6.250 -0.4820  0.6210 -0.2375
  908MOL0     C25196   1.431   2.782   6.157  1.0538 -0.6452  0.1473
  908MOL0     O25197   1.395   2.661   6.140 -0.2973  0.6859 -0.9467
  908MOL0     C25198   1.298   2.639   6.048 -0.0815 -0.4883 -0.9277
  908MOL0     C25199   1.314   2.608   5.914  0.1056 -1.2284  0.8958
  908MOL0     C25200   1.197   2.594   5.833  0.2915  0.7403  0.0146
  908MOL0     C25201   1.067   2.587   5.885  0.0682 -0.4084  0.6040
  908MOL0     O25202   0.962   2.574   5.800 -0.6070  0.2319 -0.2306
  908MOL0     C25203   0.845   2.649   5.845  0.8245 -0.0927  0.7872
  908MOL0     C25204   0.742   2.669   5.738 -0.1094  0.2126  0.4677
  908MOL0     C25205   0.656   2.544   5.725 -0.4011 -0.2958  0.0698
  908MOL0     C25206   0.559   2.566   5.610 -0.0978 -0.3582  0.9858
  908MOL0     C25207   0.466   2.442   5.587  0.0714 -0.3770 -0.4545
  908MOL0     C25208   0.341   2.475   5.503  0.7991 -0.4624 -0.0966
  908MOL0     C25209   0.238   2.364   5.508  0.4938  0.0758  0.3804
  908MOL0     C25210   0.111   2.390   5.421  0.8719 -0.5668 -0.7806
  908MOL0    Cl25211   0.147   2.352   5.259  0.4116 -0.1007 -0.1978
  908MOL0     C25212   1.055   2.604   6.026  0.7868  0.2479  0.0968
  908MOL0     C25213   1.166   2.629   6.115 -0.1746 -0.3468 -0.0713
  908MOL0     O25214   1.375   2.879   6.104  0.5913 -0.0454 -0.4584
  908MOL0     C25215   1.538   2.717   6.360  0.1016  0.8225 -1.0532
  908MOL0     C25216   1.644   2.722   6.448 -0.0256  0.4614 -0.4125
  908MOL0     N25217   1.762   3.211   6.846 -0.2006  0.2929 -0.1564
  908MOL0     N25218   1.758   3.344   6.830  0.1250  0.9027  0.5530
  908MOL0     C25219   1.998   4.223   6.060 -0.4847 -0.7627  0.1528
  908MOL0     C25220   1.979   4.331   5.962  0.2367 -0.0219 -0.1431
  908MOL0     C25221   1.920   4.712   5.737  0.4819  0.2676  0.6765
  908MOL0     C25222   1.882   4.816   5.821  0.9605 -0.6229  0.0719
  908MOL0     C25223   1.863   4.942   5.772 -0.2448  0.9965 -0.0295
  908MOL0     C25224   1.883   4.969   5.634 -0.5510  0.2473  0.3490
  908MOL0     O25225   1.851   5.084   5.567  0.4027 -0.2685 -0.4563
  908MOL0     C25226   1.774   5.180   5.635  0.1799  0.0950 -0.7172
  908MOL0     C25227   1.862   5.277   5.726  0.0332  0.7833  0.0513
  908MOL0     C25228   1.774   5.346   5.824 -0.7479 -0.1665 -0.6694
  908MOL0     C25229   1.855   5.458   5.899  0.2752  0.0617  0.1294
  908MOL0     C25230   1.803   5.480   6.040 -0.6532 -0.3102 -0.5076
  908MOL0     C25231   1.769   5.482   6.162 -0.4391 -1.1147  0.4360
  908MOL0     C25232   1.933   4.870   5.556  0.1094  0.4615 -0.6363
  908MOL0     C25233   1.968   4.749   5.610  0.4387 -0.0137  0.5622
  908MOL0     C25234   2.044   4.655   5.513  0.3954 -1.0607 -0.4751
  908MOL0     H25235   1.812   4.540   6.170 -1.7412 -0.4656 -1.5976
  908MOL0     H25236   1.828   4.360   6.332  1.4546  2.9831  0.1406
  908MOL0     H25237   2.019   3.964   6.182 -2.1280  1.7891 -3.1668
  908MOL0     H25238   1.839   3.986   6.187  0.3038  2.0184 -1.6772
  908MOL0     H25239   1.922   3.809   6.340  0.6131 -0.8376  0.8243
  908MOL0     H25240   2.011   3.927   6.434  0.1779 -1.5114 -0.6134
  908MOL0     H25241   1.818   4.054   6.489 -0.1605 -0.7929  1.9310
  908MOL0     H25242   1.707   3.943   6.395  0.3277 -0.1428  0.4259
  908MOL0     H25243   1.886   3.877   6.625  1.0306  2.5357 -3.8109
  908MOL0     H25244   1.700   3.921   6.642 -1.4943  0.2790 -2.8193
  908MOL0     H25245   1.824   3.675   6.506  2.4711 -1.8495  4.3036
  908MOL0     H25246   1.656   3.711   6.526  0.5425 -2.5515 -1.8682
  908MOL0     H25247   1.721   3.744   6.789 -0.1630  1.2478 -1.9384
  908MOL0     H25248   1.684   3.584   6.715 -0.2078 -0.5956 -0.7202
  908MOL0     H25249   1.955   3.699   6.730 -2.8443  1.2328 -1.0782
  908MOL0     H25250   1.895   3.543   6.656 -2.1011 -2.3016  1.6008
  908MOL0     H25251   2.012   3.527   6.906  0.1428  0.1246  0.7578
  908MOL0     H25252   1.849   3.590   6.954  2.2610  0.4096  0.7381
  908MOL0     H25253   2.065   3.306   6.920 -0.6999 -1.1874  1.2541
  908MOL0     H25254   1.899   2.986   6.975  1.1987 -3.8700 -0.8860
  908MOL0     H25255   2.043   3.028   6.881 -0.9950 -0.2380  1.9421
  908MOL0     H25256   1.764   2.948   6.798 -0.3552 -3.6544 -0.7704
  908MOL0     H25257   1.876   3.022   6.673  0.3291 -2.8781 -1.4538
  908MOL0     H25258   2.038   2.824   6.731  1.2142 -0.4014  1.4788
  908MOL0     H25259   1.920   2.777   6.841  1.7449  0.5468  0.2170
  908MOL0     H25260   1.873   2.646   6.655 -1.2152 -0.9623  0.3363
  908MOL0     H25261   1.743   2.776   6.675  1.0898  2.1167  0.7855
  908MOL0     H25262   1.830   2.968   6.312 -2.6086  3.9550  0.9783
  908MOL0     H25263   1.667   2.929   6.026  0.5299 -0.0083 -0.2883
  908MOL0     H25264   1.731   3.060   6.121 -0.4368  0.6174  0.8985
  908MOL0     H25265   1.554   3.045   6.114 -0.0939 -1.8072 -0.7881
  908MOL0     H25266   1.409   2.597   5.862  0.5246 -2.8078  1.9028
  908MOL0     H25267   1.220   2.576   5.729 -1.4998 -2.5708  0.0422
  908MOL0     H25268   0.792   2.611   5.932  1.2388  0.1231  1.1396
  908MOL0     H25269   0.869   2.754   5.867 -2.5922  0.9371  0.1030
  908MOL0     H25270   0.672   2.744   5.774 -2.4932 -1.2021 -1.0029
  908MOL0     H25271   0.784   2.691   5.640  0.1356 -0.7170  0.3549
  908MOL0     H25272   0.590   2.526   5.810 -0.0690  1.0782  0.6437
  908MOL0     H25273   0.709   2.449   5.716 -0.9055 -0.3786 -5.1453
  908MOL0     H25274   0.612   2.583   5.515 -2.0957  2.2336  0.2388
  908MOL0     H25275   0.493   2.652   5.621 -0.3781  0.0722 -2.6694
  908MOL0     H25276   0.521   2.358   5.543  1.3819  1.1415 -1.7914
  908MOL0     H25277   0.439   2.397   5.683 -0.6893 -0.0666 -0.5157
  908MOL0     H25278   0.359   2.510   5.401 -0.3244  1.8034  0.4090
  908MOL0     H25279   0.302   2.566   5.551  2.2586 -0.2502  0.7507
  908MOL0     H25280   0.190   2.364   5.606 -0.5799 -0.6935 -0.1145
  908MOL0     H25281   0.268   2.263   5.478 -1.5869 -0.5792  0.2959
  908MOL0     H25282   0.072   2.491   5.441  1.0818 -0.4346 -1.0329
  908MOL0     H25283   0.035   2.320   5.458 -0.6640  1.1679 -0.4852
  908MOL0     H25284   0.957   2.603   6.073 -1.6931 -3.2681 -4.2792
  908MOL0     H25285   1.154   2.650   6.221 -2.2970  1.4560 -0.5919
  908MOL0     H25286   1.462   2.641   6.372  0.7566  0.1015 -1.3661
  908MOL0     H25287   1.653   2.645   6.525 -2.2297  0.2018 -0.3456
  908MOL0     H25288   2.063   4.141   6.032 -1.4974 -1.6895  0.4756
  908MOL0     H25289   2.026   4.327   5.864  1.3406  1.8181  0.2598
  908MOL0     H25290   1.880   4.800   5.928 -0.4489  2.4094  0.6113
  908MOL0     H25291   1.833   5.012   5.850  0.1787  0.7332  0.3768
  908MOL0     H25292   1.712   5.248   5.575 -1.5820 -3.7334 -3.6304
  908MOL0     H25293   1.694   5.135   5.693 -1.3324  2.7068 -0.6026
  908MOL0     H25294   1.917   5.345   5.660  0.5168  0.4579  0.1181
  908MOL0     H25295   1.940   5.215   5.771  0.6841  3.2493  2.6434
  908MOL0     H25296   1.686   5.375   5.766  1.2022  3.9166 -2.0078
  908MOL0     H25297   1.754   5.280   5.908  2.3968 -0.6647 -0.1799
  908MOL0     H25298   1.847   5.541   5.828  2.9883  0.4506  0.1634
  908MOL0     H25299   1.961   5.429   5.898 -0.0914 -1.5508 -2.6897
  908MOL0     H25300   1.769   5.519   6.262 -0.4534  0.9103 -0.2603
  908MOL0     H25301   1.942   4.891   5.450 -3.8562  1.3678 -0.9351
  908MOL0     H25302   2.109   4.602   5.584 -1.8926 -0.1408  2.5412
  908MOL0     H25303   1.985   4.590   5.448 -1.2382 -1.3101  1.1481
  908MOL0     H25304   2.116   4.715   5.457  1.8583 -2.0353  0.2929
  909MOL0     O25305  11.029   3.771   6.083 -0.2841 -0.2660 -0.2848
  909MOL0     C25306  11.103   3.849   6.022  0.0894  0.0527  1.3614
  909MOL0     O25307  11.094   3.883   5.887  0.2926  0.0926  0.6557
  909MOL0     C25308  10.992   3.839   5.811 -0.0818 -0.2729 -0.5651
  909MOL0     C25309  10.943   3.926   5.717 -0.5924 -0.3141  0.5188
  909MOL0     C25310  10.840   3.888   5.628 -0.1250 -0.7953  0.6132
  909MOL0     C25311  10.783   3.764   5.634 -0.8797 -0.1892  0.4995
  909MOL0     O25312  10.688   3.732   5.545  0.4370  0.0643  0.1512
  909MOL0     C25313  10.557   3.791   5.561 -1.0963 -0.2736 -0.0434
  909MOL0     C25314  10.461   3.756   5.439  0.0578  0.5731 -0.0417
  909MOL0     C25315  10.439   3.613   5.421  0.0390  0.3161  0.4994
  909MOL0     C25316  10.350   3.590   5.297  0.6079 -0.7303  0.8129
  909MOL0     C25317  10.315   3.446   5.306 -0.0042  0.1940  0.1665
  909MOL0     C25318  10.215   3.406   5.196  0.2382 -0.6562 -0.9080
  909MOL0     C25319  10.290   3.381   5.065  0.3979 -0.2915 -0.3778
  909MOL0     C25320  10.196   3.323   4.966 -0.6081  0.1633 -0.8456
  909MOL0     N25321  10.080   3.400   4.936  0.2025  0.0123 -0.2228
  909MOL0     C25322  10.076   3.538   4.906 -0.2831  0.2482  0.1169
  909MOL0     C25323   9.943   3.576   4.919  0.5813 -0.3878  0.1978
  909MOL0     C25324   9.896   3.714   4.885 -0.4140 -0.2755 -0.1973
  909MOL0     C25325   9.885   3.742   4.733  0.1162  0.7032  1.3409
  909MOL0     C25326   9.799   3.868   4.672 -0.0324 -0.3328  0.7285
  909MOL0     C25327   9.653   3.849   4.702  0.4977  0.6397  0.3248
  909MOL0     O25328   9.606   3.718   4.672  0.1638  1.5489 -0.0079
  909MOL0     C25329   9.530   3.646   4.760 -0.7620 -0.5173  0.6269
  909MOL0     C25330   9.404   3.685   4.799 -0.0048  0.3307  0.6284
  909MOL0     C25331   9.334   3.601   4.894  0.6576 -0.1627  0.4820
  909MOL0     C25332   9.201   3.653   4.945 -0.2632  0.6922 -0.1453
  909MOL0     C25333   9.391   3.476   4.939 -1.0072 -0.2774 -0.2816
  909MOL0     C25334   9.330   3.373   5.037 -0.3084  0.1376 -1.0623
  909MOL0     O25335   9.418   3.294   5.095  0.2720  0.2626  0.6700
  909MOL0     C25336   9.367   3.209   5.189  0.2501  1.0776 -0.1203
  909MOL0     C25337   9.303   3.086   5.162  0.1612  0.4571  0.8351
  909MOL0     C25338   9.263   3.001   5.266  0.2543 -0.2597  0.1129
  909MOL0     C25339   9.281   3.039   5.397 -0.0884  0.6764 -0.6382
  909MOL0     O25340   9.223   2.953   5.493 -0.5216  0.3648 -0.1755
  909MOL0     C25341   9.278   2.955   5.628 -0.3691  0.4984 -0.1626
  909MOL0     C25342   9.419   2.891   5.645 -0.7976  0.6209  0.0512
  909MOL0     C25343   9.399   2.746   5.632  0.9685  0.3645  0.8930
  909MOL0     C25344   9.543   2.678   5.631 -0.5236  0.5268  0.8709
  909MOL0     C25345   9.551   2.530   5.580 -0.6471 -0.7547 -0.7230
  909MOL0     C25346   9.502   2.520   5.438  0.3971  0.0297  0.1269
  909MOL0     C25347   9.537   2.395   5.369  0.1968 -0.1160  0.1097
  909MOL0     C25348   9.476   2.274   5.444 -0.2837  0.2711  0.3012
  909MOL0    Cl25349   9.509   2.115   5.354 -0.5269  0.1781 -0.1989
  909MOL0     C25350   9.352   3.159   5.425 -0.5997 -0.3603  0.5559
  909MOL0     C25351   9.403   3.239   5.319 -0.7930 -0.1393  0.3184
  909MOL0     O25352   9.208   3.371   5.050  0.1753 -0.0768  0.9807
  909MOL0     C25353   9.512   3.444   4.885 -0.4096 -1.9451  0.0822
  909MOL0     C25354   9.588   3.528   4.801  0.5707  0.1452  0.1999
  909MOL0     N25355   9.873   3.461   4.948  0.7932 -1.5272 -0.2067
  909MOL0     N25356   9.951   3.361   4.955 -1.0133 -0.0284  0.7672
  909MOL0     C25357  10.839   3.665   5.720 -0.6367 -0.7591  0.0277
  909MOL0     C25358  10.941   3.707   5.809 -0.2482  0.5226  0.0067
  909MOL0     C25359  11.196   3.931   6.107 -0.4614  0.0622 -0.0236
  909MOL0     C25360  11.244   4.058   6.059 -0.2420  0.8060  0.6247
  909MOL0     C25361  11.342   4.133   6.120 -0.2729  0.2870  0.3225
  909MOL0     C25362  11.390   4.094   6.251  0.3875  0.7949 -0.9540
  909MOL0     O25363  11.477   4.183   6.312 -0.1638 -0.1225 -0.2507
  909MOL0     C25364  11.604   4.125   6.346  0.6068 -0.1448 -0.5466
  909MOL0     C25365  11.689   4.236   6.409  0.6138  0.3366 -1.1543
  909MOL0     C25366  11.806   4.171   6.487  0.5355 -0.2804 -0.3997
  909MOL0     C25367  11.922   4.261   6.505  0.4572 -0.1240  0.0874
  909MOL0     C25368  12.038   4.198   6.565 -0.5150  0.5151 -0.5897
  909MOL0     C25369  12.138   4.141   6.609 -0.5974 -0.9802  0.5963
  909MOL0     C25370  11.344   3.964   6.302  0.2043  0.2095 -0.6743
  909MOL0     C25371  11.250   3.893   6.236  0.6510  0.4710 -0.2377
  909MOL0     C25372  11.202   3.766   6.313 -0.4135  0.2053 -0.4410
  909MOL0     H25373  10.991   4.024   5.724 -0.1650 -0.5097  0.3294
  909MOL0     H25374  10.797   3.951   5.550  1.3149 -4.8652 -4.0264
  909MOL0     H25375  10.564   3.900   5.565  0.7451 -0.3595  0.0157
  909MOL0     H25376  10.517   3.749   5.654 -3.4661 -2.3081 -1.8534
  909MOL0     H25377  10.365   3.802   5.466 -0.1198  1.5780 -2.1421
  909MOL0     H25378  10.490   3.811   5.348  1.2855  1.0478  0.6215
  909MOL0     H25379  10.532   3.559   5.403 -0.6551 -1.1130  0.9782
  909MOL0     H25380  10.389   3.556   5.500 -1.5244  0.3799 -0.3845
  909MOL0     H25381  10.262   3.656   5.297  0.5568 -0.7843 -0.3511
  909MOL0     H25382  10.409   3.603   5.207  0.1585 -1.6212  0.3756
  909MOL0     H25383  10.267   3.416   5.400  1.0263  0.9413  0.9541
  909MOL0     H25384  10.402   3.379   5.309  1.7035  2.3089  2.6429
  909MOL0     H25385  10.168   3.313   5.229 -0.3531  0.9362  3.3380
  909MOL0     H25386  10.141   3.486   5.188  1.7571  1.4097  2.9078
  909MOL0     H25387  10.373   3.311   5.076 -0.5783 -1.2675  1.1059
  909MOL0     H25388  10.332   3.469   5.015 -1.7992  1.0097 -0.0594
  909MOL0     H25389  10.255   3.325   4.874 -0.1776  2.6246 -0.6010
  909MOL0     H25390  10.174   3.221   4.998  0.0716  0.1866 -0.2668
  909MOL0     H25391  10.157   3.610   4.894  1.9758 -1.5903  3.0678
  909MOL0     H25392   9.973   3.782   4.923 -1.5019  1.6043 -1.1837
  909MOL0     H25393   9.799   3.738   4.929  1.0176  1.6019  2.1542
  909MOL0     H25394   9.981   3.765   4.687  0.0892 -1.7243 -0.1255
  909MOL0     H25395   9.857   3.649   4.682  1.0543  3.0910 -4.3889
  909MOL0     H25396   9.837   3.966   4.703  0.4726 -0.1792 -0.3213
  909MOL0     H25397   9.819   3.860   4.564  4.4286 -2.6059  1.5036
  909MOL0     H25398   9.640   3.869   4.809 -0.3680  0.3525  0.2777
  909MOL0     H25399   9.584   3.909   4.643  1.7166  1.6534 -0.1091
  909MOL0     H25400   9.362   3.776   4.758 -1.3437 -0.2075  0.7700
  909MOL0     H25401   9.166   3.742   4.892 -3.7054  0.2616  1.1879
  909MOL0     H25402   9.210   3.682   5.050 -0.2569 -0.0273  0.0620
  909MOL0     H25403   9.133   3.568   4.933 -0.9255  0.8076  2.3323
  909MOL0     H25404   9.286   3.059   5.058  0.6509 -0.8358  1.0700
  909MOL0     H25405   9.208   2.910   5.243 -0.6760 -0.1400  1.7573
  909MOL0     H25406   9.295   3.057   5.663  4.3309  0.0590 -0.4327
  909MOL0     H25407   9.200   2.909   5.688  0.9988 -2.5758 -0.5225
  909MOL0     H25408   9.500   2.930   5.583  1.9407  1.1979  3.5915
  909MOL0     H25409   9.455   2.912   5.746  1.5916 -0.1108 -0.5847
  909MOL0     H25410   9.340   2.726   5.542  1.3950 -2.9269  1.2106
  909MOL0     H25411   9.343   2.708   5.719 -1.5799  0.6729 -0.5049
  909MOL0     H25412   9.577   2.685   5.734 -0.7894  2.0580  0.8723
  909MOL0     H25413   9.621   2.728   5.573 -0.1586 -0.9234  0.0413
  909MOL0     H25414   9.653   2.493   5.596 -1.7906 -3.0788  2.2223
  909MOL0     H25415   9.485   2.469   5.643  0.5381  1.0767  2.5300
  909MOL0     H25416   9.549   2.606   5.389  1.4026 -1.0927 -0.9392
  909MOL0     H25417   9.393   2.528   5.432  0.4248 -0.3347 -1.1440
  909MOL0     H25418   9.645   2.380   5.363  0.0648 -0.5281 -1.7204
  909MOL0     H25419   9.498   2.396   5.267  0.2489  1.9453  0.0540
  909MOL0     H25420   9.368   2.291   5.449 -0.1509  1.1526  0.2110
  909MOL0     H25421   9.519   2.257   5.543 -0.6438 -0.1957  0.3817
  909MOL0     H25422   9.376   3.197   5.525 -2.0109  1.7416  0.1668
  909MOL0     H25423   9.464   3.326   5.341  2.7065 -2.8620  2.4420
  909MOL0     H25424   9.560   3.349   4.905  1.5093 -0.7873  1.2893
  909MOL0     H25425   9.684   3.497   4.760 -0.4732 -1.5445 -1.1463
  909MOL0     H25426  10.801   3.564   5.707 -2.2845 -0.2961  0.9511
  909MOL0     H25427  10.988   3.628   5.867  1.8337  0.2315 -1.9180
  909MOL0     H25428  11.220   4.088   5.957  2.5365 -0.2552 -0.4462
  909MOL0     H25429  11.374   4.219   6.062 -0.5021  0.7589  0.8827
  909MOL0     H25430  11.593   4.036   6.410 -0.7680  0.7689  0.5395
  909MOL0     H25431  11.642   4.092   6.249 -0.8432 -0.4870 -1.0388
  909MOL0     H25432  11.619   4.289   6.474 -1.8500 -1.5089 -2.1086
  909MOL0     H25433  11.720   4.313   6.338  1.4201  0.7925 -0.3225
  909MOL0     H25434  11.767   4.141   6.585  0.1794  0.4704 -0.3103
  909MOL0     H25435  11.840   4.081   6.434  0.9659  0.0508 -0.6887
  909MOL0     H25436  11.891   4.354   6.553  1.9615  0.9861 -0.9878
  909MOL0     H25437  11.962   4.286   6.406  0.3121  2.0974  0.5263
  909MOL0     H25438  12.222   4.075   6.623  0.8394 -0.1496 -2.9207
  909MOL0     H25439  11.366   3.927   6.402 -4.0237  0.3887  0.5498
  909MOL0     H25440  11.116   3.794   6.375 -0.1669 -0.4579  0.2025
  909MOL0     H25441  11.185   3.687   6.240  0.0693  1.3413 -1.8420
  909MOL0     H25442  11.280   3.734   6.383 -0.3406  0.9850 -0.1543
  910MOL0     O25443  11.278  10.083   7.753  0.3196 -0.2872 -0.4263
  910MOL0     C25444  11.155  10.059   7.744 -0.2665  0.6307 -0.1329
  910MOL0     O25445  11.097   9.973   7.651 -0.4817  0.7008  0.0806
  910MOL0     C25446  11.157   9.958   7.532  0.5402 -0.3481  0.2367
  910MOL0     C25447  11.182   9.830   7.469 -0.2137 -0.3872 -0.6057
  910MOL0     C25448  11.253   9.815   7.348  0.0761  0.1100 -0.6448
  910MOL0     C25449  11.293   9.933   7.284 -0.1765  0.7292  0.6965
  910MOL0     O25450  11.364   9.922   7.163 -0.4737 -0.6353 -0.0081
  910MOL0     C25451  11.422   9.798   7.119  0.2159 -0.0712  0.3507
  910MOL0     C25452  11.465   9.822   6.980 -0.3363  0.1712  0.5993
  910MOL0     C25453  11.537   9.696   6.926 -0.7488  0.4026  0.2202
  910MOL0     C25454  11.689   9.680   6.974  0.5066 -0.5266 -0.1839
  910MOL0     C25455  11.762   9.601   6.863 -0.6034  0.9153  0.4663
  910MOL0     C25456  11.895   9.553   6.912 -0.1269  0.0643 -0.9171
  910MOL0     C25457  12.005   9.659   6.908  0.6216 -0.6567  0.2972
  910MOL0     C25458  12.130   9.584   6.944  0.8666  0.2672 -0.3318
  910MOL0     N25459  12.158   9.587   7.088  0.1242  0.0045  0.2852
  910MOL0     C25460  12.069   9.601   7.198 -0.2680 -0.7687 -0.4135
  910MOL0     C25461  12.142   9.603   7.308 -0.6542  0.2468  0.4963
  910MOL0     C25462  12.094   9.637   7.450  0.2079 -0.4154 -0.7241
  910MOL0     C25463  11.942   9.617   7.479 -0.6815 -0.4821  0.4017
  910MOL0     C25464  11.922   9.629   7.632 -0.2776  0.2666  0.3575
  910MOL0     C25465  11.779   9.662   7.676  0.1784  0.4426  0.2394
  910MOL0     O25466  11.747   9.793   7.619  0.0519  0.1700 -0.8086
  910MOL0     C25467  11.727   9.894   7.714  0.6154  0.2960 -0.3887
  910MOL0     C25468  11.835   9.929   7.792 -0.9690  0.8107 -0.0964
  910MOL0     C25469  11.821  10.022   7.899  0.4035 -0.0032  0.5169
  910MOL0     C25470  11.949  10.046   7.976 -0.3962  0.1343 -0.4054
  910MOL0     C25471  11.691  10.076   7.920 -1.0517  0.0171 -1.1745
  910MOL0     C25472  11.671  10.180   8.032 -2.0157 -0.0980 -0.5053
  910MOL0     O25473  11.733  10.158   8.150 -0.2921 -0.0250 -1.2382
  910MOL0     C25474  11.669  10.215   8.261 -0.1461 -0.1537 -0.6316
  910MOL0     C25475  11.542  10.180   8.305 -0.8770  0.3774 -0.0953
  910MOL0     C25476  11.487  10.225   8.424  0.5909  0.8648  0.6644
  910MOL0     C25477  11.564  10.318   8.500 -0.3502 -0.5138  0.4239
  910MOL0     O25478  11.508  10.369   8.610  0.3757 -0.3794  0.1796
  910MOL0     C25479  11.363  10.408   8.609 -0.1730  0.3384  0.2750
  910MOL0     C25480  11.332  10.495   8.737  0.0295  0.1062  0.1569
  910MOL0     C25481  11.182  10.500   8.783 -0.6614 -0.3901  0.2667
  910MOL0     C25482  11.133  10.637   8.822  1.1931  0.6743  0.0107
  910MOL0     C25483  10.980  10.649   8.844  0.3497  0.0249 -0.0714
  910MOL0     C25484  10.947  10.630   8.991  0.6021 -0.5188  0.1581
  910MOL0     C25485  10.786  10.651   9.003 -1.5060 -0.0050  0.9790
  910MOL0     C25486  10.745  10.650   9.154  0.3651 -0.7410  0.3585
  910MOL0    Cl25487  10.813  10.770   9.262 -0.3183  0.0548  0.3029
  910MOL0     C25488  11.689  10.361   8.462  0.3284  0.8534 -0.1710
  910MOL0     C25489  11.739  10.300   8.344 -0.4128 -1.6984 -0.0917
  910MOL0     O25490  11.599  10.273   8.005  0.1429 -0.4125 -0.3698
  910MOL0     C25491  11.589  10.056   7.830  0.1364 -0.1697  0.5436
  910MOL0     C25492  11.603   9.968   7.728 -0.8109 -0.0436  1.2900
  910MOL0     N25493  12.278   9.599   7.272 -0.1109  0.0660  0.4958
  910MOL0     N25494  12.282   9.592   7.142 -0.3128 -0.3208  0.0300
  910MOL0     C25495  11.266  10.055   7.343  0.4213 -0.4209 -0.0496
  910MOL0     C25496  11.200  10.069   7.462 -0.3004 -0.3626 -0.5084
  910MOL0     C25497  11.050  10.113   7.836  0.7494  0.2236  0.0603
  910MOL0     C25498  10.941  10.163   7.776  0.2886 -0.8080  0.3482
  910MOL0     C25499  10.836  10.236   7.843  0.0041  0.3773 -0.5374
  910MOL0     C25500  10.842  10.252   7.976 -0.3810 -0.1178 -0.1748
  910MOL0     O25501  10.742  10.306   8.053 -0.6320  0.4482 -0.5777
  910MOL0     C25502  10.748  10.314   8.197 -0.2941 -0.9535  0.1797
  910MOL0     C25503  10.824  10.439   8.237  0.3101 -0.4574 -0.0214
  910MOL0     C25504  10.813  10.466   8.383  0.6605  0.5639 -0.7911
  910MOL0     C25505  10.903  10.389   8.479  0.3466  0.0377 -0.1152
  910MOL0     C25506  11.045  10.374   8.432  0.7664 -0.2818 -0.6591
  910MOL0     C25507  11.156  10.355   8.378  0.4396  1.4761 -0.0155
  910MOL0     C25508  10.963  10.203   8.037 -0.0946  0.2347 -0.3662
  910MOL0     C25509  11.067  10.136   7.969 -0.4211  0.8900 -0.6046
  910MOL0     C25510  11.196  10.112   8.040 -0.4840  0.0528  0.5129
  910MOL0     H25511  11.154   9.738   7.518  1.5924 -0.7600 -0.1793
  910MOL0     H25512  11.267   9.714   7.312  3.3423 -0.1197  0.8657
  910MOL0     H25513  11.349   9.716   7.120 -1.5170  1.3996  2.2125
  910MOL0     H25514  11.507   9.771   7.183 -1.0643  0.7277  2.4888
  910MOL0     H25515  11.379   9.850   6.918  1.6967  2.0442 -1.6504
  910MOL0     H25516  11.531   9.909   6.987  1.0006 -0.8290  0.6837
  910MOL0     H25517  11.486   9.600   6.941  0.1568 -0.0856  0.2394
  910MOL0     H25518  11.543   9.696   6.817  0.0244 -1.2970  0.2256
  910MOL0     H25519  11.745   9.773   6.992  0.5550 -0.8840  1.7291
  910MOL0     H25520  11.693   9.636   7.074 -4.9752  1.5988  1.3609
  910MOL0     H25521  11.777   9.654   6.769  0.6693  1.1959  0.8155
  910MOL0     H25522  11.698   9.515   6.840 -0.4305  0.0750  2.8478
  910MOL0     H25523  11.883   9.503   7.009 -2.1947  0.7995 -0.7451
  910MOL0     H25524  11.931   9.468   6.853 -1.6262 -1.3086  0.0563
  910MOL0     H25525  11.994   9.750   6.968  0.9758 -1.0294  0.9359
  910MOL0     H25526  12.011   9.687   6.802  0.6108 -2.5883 -0.2539
  910MOL0     H25527  12.128   9.485   6.898  1.5530  0.5544 -1.0015
  910MOL0     H25528  12.213   9.640   6.901  1.0987  0.5618  0.4848
  910MOL0     H25529  11.961   9.604   7.195 -0.2734  0.1440  0.2722
  910MOL0     H25530  12.118   9.741   7.475 -0.7961 -0.2133 -0.5279
  910MOL0     H25531  12.152   9.567   7.511  1.5449  1.5096  0.3299
  910MOL0     H25532  11.901   9.692   7.411  1.3268  0.3265  0.0213
  910MOL0     H25533  11.898   9.527   7.437 -1.5508 -1.7397  3.6952
  910MOL0     H25534  11.957   9.543   7.690  2.1259 -0.3402 -1.8123
  910MOL0     H25535  11.980   9.710   7.678  2.9869 -2.2712  1.0576
  910MOL0     H25536  11.724   9.577   7.634  2.3414 -0.0405 -1.7938
  910MOL0     H25537  11.772   9.657   7.785  1.6903 -0.6560  0.3179
  910MOL0     H25538  11.932   9.884   7.774 -0.7116  0.9028  0.9967
  910MOL0     H25539  11.953   9.972   8.057 -1.3101 -0.0673 -0.5294
  910MOL0     H25540  11.970  10.142   8.024  0.5530  0.4264 -1.3726
  910MOL0     H25541  12.028  10.025   7.903  1.0019  1.1612  0.7809
  910MOL0     H25542  11.499  10.102   8.243 -1.9937 -0.1905  1.3332
  910MOL0     H25543  11.394  10.182   8.459  1.6434 -2.6828 -0.5188
  910MOL0     H25544  11.344  10.472   8.522  0.7437 -0.1044 -0.2585
  910MOL0     H25545  11.299  10.319   8.607 -0.9849  0.8195  2.3191
  910MOL0     H25546  11.385  10.450   8.821 -2.1918  0.0811  1.5947
  910MOL0     H25547  11.371  10.597   8.730  0.1284 -0.0223 -3.3152
  910MOL0     H25548  11.175  10.450   8.880 -1.2491 -0.1587  0.3467
  910MOL0     H25549  11.122  10.448   8.707  2.4708 -0.5163 -2.3618
  910MOL0     H25550  11.160  10.702   8.738 -0.1584  1.9943  0.5499
  910MOL0     H25551  11.186  10.674   8.911 -0.0558 -2.4738  2.2315
  910MOL0     H25552  10.936  10.735   8.794 -1.6461 -2.2412 -2.5352
  910MOL0     H25553  10.933  10.566   8.790 -0.3292  1.6853 -2.1669
  910MOL0     H25554  11.001  10.707   9.047 -1.9112  1.1294  0.4927
  910MOL0     H25555  10.978  10.533   9.031 -2.7407 -2.1268 -0.7850
  910MOL0     H25556  10.729  10.577   8.947 -0.7738  0.6658 -0.7505
  910MOL0     H25557  10.764  10.753   8.969 -0.5359  0.6572  2.2512
  910MOL0     H25558  10.753  10.548   9.194  1.5396 -1.2577 -1.0767
  910MOL0     H25559  10.637  10.669   9.149  0.0643 -2.2231  0.5589
  910MOL0     H25560  11.740  10.432   8.527  3.6192  0.0465 -1.6499
  910MOL0     H25561  11.836  10.336   8.310 -1.2486  0.8960  0.0525
  910MOL0     H25562  11.490  10.095   7.847  1.1702  1.9774  2.0799
  910MOL0     H25563  11.513   9.957   7.668  0.3991 -1.9880 -0.3150
  910MOL0     H25564  11.312  10.143   7.298  1.8685 -2.4785 -2.8791
  910MOL0     H25565  11.188  10.166   7.507 -2.6631 -0.1997 -1.3694
  910MOL0     H25566  10.922  10.171   7.670  1.8233  2.5342  0.2032
  910MOL0     H25567  10.759  10.283   7.783 -0.5675 -0.2175 -0.2743
  910MOL0     H25568  10.645  10.336   8.226  0.8620  2.3128  2.3826
  910MOL0     H25569  10.760  10.224   8.257 -0.6650 -1.5042 -0.5558
  910MOL0     H25570  10.778  10.524   8.186 -0.5685 -1.6041 -1.2157
  910MOL0     H25571  10.929  10.424   8.208  1.4443  1.9798  2.3330
  910MOL0     H25572  10.847  10.570   8.387 -0.3921  0.8957  0.1946
  910MOL0     H25573  10.706  10.458   8.407  0.5935  2.3416 -0.3520
  910MOL0     H25574  10.858  10.293   8.507  0.6686 -0.1578 -0.2702
  910MOL0     H25575  10.912  10.433   8.579 -1.3586 -1.9212  0.9890
  910MOL0     H25576  11.253  10.339   8.334  0.5218 -1.1364  0.9733
  910MOL0     H25577  10.962  10.217   8.144 -2.3498  0.2811 -0.3531
  910MOL0     H25578  11.265  10.184   7.997 -1.7460  1.1828  0.3183
  910MOL0     H25579  11.193  10.119   8.149  0.7350  1.1980  0.4933
  910MOL0     H25580  11.232  10.013   8.011  3.8791  1.4074  0.6683
  911MOL0     O25581  11.248   3.217   3.609 -1.0257  0.1038 -0.8542
  911MOL0     C25582  11.129   3.199   3.590 -0.4907  0.1462 -0.1562
  911MOL0     O25583  11.026   3.281   3.623 -0.0268 -0.0350  0.6553
  911MOL0     C25584  11.042   3.379   3.720 -0.6976  0.4259  0.4805
  911MOL0     C25585  10.991   3.363   3.848 -0.1408 -0.2020 -0.1116
  911MOL0     C25586  11.003   3.459   3.940  0.2262 -0.3654 -0.8060
  911MOL0     C25587  11.067   3.578   3.907 -0.1022  0.2287 -0.1053
  911MOL0     O25588  11.101   3.662   4.010  0.3025 -0.5179  0.0151
  911MOL0     C25589  11.225   3.733   4.001  0.5035  0.1922 -0.5449
  911MOL0     C25590  11.257   3.765   4.147  0.3041  1.3317 -0.3530
  911MOL0     C25591  11.284   3.644   4.242  1.0203 -0.0851 -0.3600
  911MOL0     C25592  11.419   3.578   4.223  0.4435  0.8843 -0.4143
  911MOL0     C25593  11.434   3.438   4.287 -0.2693 -0.3964 -0.3508
  911MOL0     C25594  11.578   3.392   4.250 -1.0032 -0.0190  0.8560
  911MOL0     C25595  11.616   3.256   4.319  0.5063 -0.3852 -0.7111
  911MOL0     C25596  11.747   3.200   4.284  0.3725  0.3132 -0.0136
  911MOL0     N25597  11.743   3.109   4.172  0.5278  0.0570 -0.2825
  911MOL0     C25598  11.672   2.990   4.165  0.1307 -0.3075 -0.5001
  911MOL0     C25599  11.721   2.923   4.062 -1.3553  0.2967  0.1098
  911MOL0     C25600  11.681   2.787   4.011 -1.1859  0.7630 -1.0575
  911MOL0     C25601  11.799   2.679   4.021  0.8722 -0.1774  0.4119
  911MOL0     C25602  11.808   2.646   4.169 -1.0510 -0.3753 -0.1247
  911MOL0     C25603  11.873   2.512   4.200  0.4090 -0.2454  0.1520
  911MOL0     O25604  11.850   2.484   4.336 -0.3288  0.1028 -0.6062
  911MOL0     C25605  11.909   2.380   4.403 -0.3193  0.1893 -0.1909
  911MOL0     C25606  11.914   2.399   4.543  0.4396  1.1715  0.3274
  911MOL0     C25607  11.976   2.310   4.625  0.0088  0.2439  0.8391
  911MOL0     C25608  12.000   2.373   4.758 -0.7649  0.8229  0.2607
  911MOL0     C25609  12.044   2.198   4.568  0.1154  0.8521 -0.6784
  911MOL0     C25610  12.111   2.098   4.646 -1.0541 -0.3916 -0.0530
  911MOL0     O25611  12.184   2.007   4.570 -0.5474  0.0474  0.0537
  911MOL0     C25612  12.249   1.906   4.636 -0.3594 -0.8877 -0.5913
  911MOL0     C25613  12.240   1.772   4.598  0.4344  0.6711  0.3486
  911MOL0     C25614  12.306   1.676   4.678 -1.1412 -0.2211 -0.3025
  911MOL0     C25615  12.394   1.707   4.778 -0.2433  0.0266 -1.4786
  911MOL0     O25616  12.482   1.610   4.831 -0.1228 -0.6977  0.1098
  911MOL0     C25617  12.561   1.653   4.949 -0.6033  0.2736  0.1000
  911MOL0     C25618  12.663   1.549   4.977 -0.4406 -0.0553 -0.6369
  911MOL0     C25619  12.737   1.591   5.100  0.3413 -0.1628  0.2045
  911MOL0     C25620  12.866   1.503   5.107  0.0034 -1.1099  0.6762
  911MOL0     C25621  12.932   1.485   5.242 -0.0140 -0.9397 -0.7117
  911MOL0     C25622  12.955   1.632   5.306 -0.3560 -0.6196 -0.1010
  911MOL0     C25623  13.001   1.621   5.452 -0.0237  0.4895 -0.2385
  911MOL0     C25624  13.118   1.518   5.477  0.5014  0.4776 -0.2431
  911MOL0    Cl25625  13.181   1.530   5.640 -0.1180  0.4015 -0.0364
  911MOL0     C25626  12.394   1.844   4.815 -0.2143  0.4729 -1.0293
  911MOL0     C25627  12.328   1.939   4.741 -0.4578  0.2042  0.2494
  911MOL0     O25628  12.089   2.093   4.772  0.0075 -0.1621 -0.2656
  911MOL0     C25629  12.040   2.179   4.429 -0.1773  0.9842 -0.7039
  911MOL0     C25630  11.972   2.276   4.343  0.6792  0.5448  0.8549
  911MOL0     N25631  11.823   3.001   4.003  0.3301  0.2254  0.5524
  911MOL0     N25632  11.828   3.115   4.062 -0.8831 -0.9129 -0.8001
  911MOL0     C25633  11.108   3.609   3.781 -0.4991 -0.6134  0.1131
  911MOL0     C25634  11.089   3.508   3.681 -0.3264  0.3686  0.4485
  911MOL0     C25635  11.102   3.064   3.517  0.8418 -0.4889 -0.5510
  911MOL0     C25636  11.202   2.970   3.511 -0.3193  0.1127 -0.3719
  911MOL0     C25637  11.192   2.849   3.450  0.6956  0.1213  0.7651
  911MOL0     C25638  11.068   2.817   3.401 -0.9884 -1.2189  1.0125
  911MOL0     O25639  11.078   2.691   3.339 -0.2101 -0.0767 -0.7550
  911MOL0     C25640  10.954   2.638   3.293  0.1871  0.3334 -0.3545
  911MOL0     C25641  10.959   2.498   3.228  0.6822 -0.6214 -0.9063
  911MOL0     C25642  10.970   2.389   3.329 -0.8524 -0.1179  0.3172
  911MOL0     C25643  11.127   2.358   3.353 -1.8743  0.1623 -0.1783
  911MOL0     C25644  11.153   2.286   3.474  0.1836  0.7513  0.1366
  911MOL0     C25645  11.175   2.215   3.574 -0.0665 -0.8289 -0.0656
  911MOL0     C25646  10.955   2.906   3.407 -0.5583  0.4430  0.0618
  911MOL0     C25647  10.975   3.033   3.460 -0.3459  0.6024 -0.6311
  911MOL0     C25648  10.875   3.139   3.437 -0.8443  0.7737  1.0630
  911MOL0     H25649  10.949   3.263   3.854 -1.4135  0.3376  0.3013
  911MOL0     H25650  10.971   3.447   4.043  0.5988  0.7357 -0.5493
  911MOL0     H25651  11.201   3.818   3.936 -0.1784 -1.3322 -2.3769
  911MOL0     H25652  11.300   3.672   3.951  0.0877 -0.6445 -0.1629
  911MOL0     H25653  11.344   3.831   4.148  1.8174 -0.6028  0.6080
  911MOL0     H25654  11.170   3.818   4.188  1.0131 -0.1777  3.4607
  911MOL0     H25655  11.286   3.678   4.346 -2.0899 -2.2882  0.5566
  911MOL0     H25656  11.198   3.578   4.249 -2.0158  3.6698  1.3439
  911MOL0     H25657  11.438   3.557   4.117  1.3292 -1.0481  0.0861
  911MOL0     H25658  11.495   3.646   4.264 -1.3585  1.8530  1.4869
  911MOL0     H25659  11.359   3.372   4.244 -0.1539 -0.9820  0.3252
  911MOL0     H25660  11.426   3.439   4.396  0.5504 -3.9913 -0.1361
  911MOL0     H25661  11.572   3.375   4.142 -0.5209 -0.4227  0.8887
  911MOL0     H25662  11.656   3.468   4.254 -2.6853  1.7620  0.9831
  911MOL0     H25663  11.533   3.188   4.297  0.1301  0.8422 -3.5395
  911MOL0     H25664  11.624   3.291   4.423  0.4082  2.6687 -1.6421
  911MOL0     H25665  11.818   3.277   4.251  1.8405 -0.8919  0.2309
  911MOL0     H25666  11.792   3.149   4.369  1.7456 -1.2054 -1.5741
  911MOL0     H25667  11.589   2.953   4.225 -0.4258  0.2973 -0.8860
  911MOL0     H25668  11.666   2.806   3.904  0.4365  1.5151 -1.1689
  911MOL0     H25669  11.590   2.753   4.062 -0.2907 -2.7066 -1.5309
  911MOL0     H25670  11.766   2.587   3.972 -0.1375  1.2445 -1.7595
  911MOL0     H25671  11.893   2.714   3.977  0.5974 -1.5592 -1.3730
  911MOL0     H25672  11.874   2.721   4.214 -1.4322 -0.4076  0.5032
  911MOL0     H25673  11.710   2.634   4.217 -0.8058  0.7343  0.7011
  911MOL0     H25674  11.831   2.427   4.145  0.7241 -0.1894 -0.1826
  911MOL0     H25675  11.979   2.518   4.172  0.4904 -1.0338  0.2599
  911MOL0     H25676  11.873   2.484   4.598  1.2443 -1.0046  4.7019
  911MOL0     H25677  12.062   2.462   4.748  1.2046 -0.6995 -2.1322
  911MOL0     H25678  12.041   2.309   4.837 -0.3719  0.2693 -0.3786
  911MOL0     H25679  11.905   2.413   4.796 -1.5691  3.2341 -3.7199
  911MOL0     H25680  12.175   1.744   4.515  0.1129 -0.0315  0.8218
  911MOL0     H25681  12.285   1.572   4.657 -3.4576  0.0338  0.3606
  911MOL0     H25682  12.621   1.743   4.930  1.5054 -0.8548  1.0921
  911MOL0     H25683  12.500   1.665   5.039 -0.0638 -1.3969  0.7301
  911MOL0     H25684  12.626   1.452   5.009  1.6282  0.1213  2.7197
  911MOL0     H25685  12.738   1.551   4.897  1.6124  0.8264  1.2254
  911MOL0     H25686  12.675   1.571   5.188 -0.3241 -0.4142 -0.3139
  911MOL0     H25687  12.770   1.695   5.104  3.7949 -0.9782 -2.5933
  911MOL0     H25688  12.935   1.556   5.040 -2.0224  0.7862 -0.0620
  911MOL0     H25689  12.854   1.403   5.063 -1.6615  0.0269 -1.7208
  911MOL0     H25690  12.864   1.421   5.298 -0.2145 -3.2709 -3.3910
  911MOL0     H25691  13.020   1.420   5.237 -1.1027 -2.3993 -1.7543
  911MOL0     H25692  12.866   1.695   5.308 -1.7397 -2.4337 -1.0115
  911MOL0     H25693  13.030   1.692   5.253  1.7358 -3.1934 -0.2487
  911MOL0     H25694  12.910   1.592   5.504 -1.5002  1.2164 -2.3044
  911MOL0     H25695  13.040   1.716   5.490  5.0561 -1.1143 -0.5793
  911MOL0     H25696  13.204   1.536   5.411  0.0349  0.8940 -0.7477
  911MOL0     H25697  13.097   1.413   5.452  2.6416 -0.9001  2.9749
  911MOL0     H25698  12.456   1.879   4.896 -0.6399 -0.4429 -0.2919
  911MOL0     H25699  12.327   2.044   4.768 -1.6346 -0.1854  1.9811
  911MOL0     H25700  12.091   2.098   4.378  1.8574  1.4707  0.4949
  911MOL0     H25701  11.968   2.261   4.236 -2.1501  0.0234  0.9678
  911MOL0     H25702  11.156   3.704   3.761 -1.8185  0.2773  0.9724
  911MOL0     H25703  11.104   3.535   3.577  0.5372 -1.2895  0.0948
  911MOL0     H25704  11.305   2.995   3.538  0.2281 -0.7853 -1.5489
  911MOL0     H25705  11.281   2.793   3.423  0.1643  0.5317 -2.1427
  911MOL0     H25706  10.890   2.623   3.380  1.3769  0.4370  0.5633
  911MOL0     H25707  10.897   2.706   3.229 -0.2677 -0.5182 -0.8633
  911MOL0     H25708  11.033   2.497   3.148  3.3377 -0.5204  1.3751
  911MOL0     H25709  10.862   2.481   3.182 -0.3686  0.1593  0.9152
  911MOL0     H25710  10.928   2.415   3.427  0.0842  0.5070  0.5663
  911MOL0     H25711  10.911   2.306   3.290 -0.1118 -0.0883 -0.8985
  911MOL0     H25712  11.186   2.450   3.352 -1.6250  0.0778  2.1546
  911MOL0     H25713  11.173   2.299   3.273 -1.7241 -0.6485  0.4987
  911MOL0     H25714  11.190   2.132   3.640 -2.0640 -3.5512 -2.7242
  911MOL0     H25715  10.860   2.878   3.361  0.7372 -1.8252 -1.4598
  911MOL0     H25716  10.791   3.096   3.380 -1.2942  1.2655  1.3461
  911MOL0     H25717  10.839   3.188   3.528  2.2676  0.8023  2.3780
  911MOL0     H25718  10.928   3.203   3.366 -0.2797  1.4267  2.0461
  912MOL0     O25719   1.441   1.722   4.458 -0.2485 -0.3841  0.3634
  912MOL0     C25720   1.537   1.730   4.536 -0.3632  0.6988  0.7857
  912MOL0     O25721   1.636   1.824   4.528 -0.0305 -0.4352 -0.1350
  912MOL0     C25722   1.606   1.946   4.469 -0.5255 -0.2643 -0.4486
  912MOL0     C25723   1.606   2.063   4.544 -0.6673 -0.2727  0.3117
  912MOL0     C25724   1.562   2.180   4.486 -0.9080 -0.2421 -0.3496
  912MOL0     C25725   1.525   2.194   4.352  0.2471  0.9884 -0.6286
  912MOL0     O25726   1.477   2.312   4.308 -0.2160 -0.3497 -0.8796
  912MOL0     C25727   1.496   2.329   4.165 -0.1093 -0.4033  0.0996
  912MOL0     C25728   1.458   2.477   4.132  0.2309  0.5128  1.3152
  912MOL0     C25729   1.539   2.536   4.022 -0.7308  0.2540 -0.5085
  912MOL0     C25730   1.472   2.634   3.927  1.4098 -0.0658 -0.4577
  912MOL0     C25731   1.564   2.694   3.822 -0.9638 -0.9935  0.3691
  912MOL0     C25732   1.508   2.830   3.776 -0.5449 -0.7783 -0.0396
  912MOL0     C25733   1.593   2.902   3.671 -0.1072  1.0621 -0.9162
  912MOL0     C25734   1.560   3.051   3.661 -0.1670  0.3270 -0.1566
  912MOL0     N25735   1.421   3.053   3.626  0.5304  0.4012 -0.6448
  912MOL0     C25736   1.358   2.992   3.513  0.0816  0.1981 -0.3006
  912MOL0     C25737   1.231   3.050   3.528  0.0169  0.1273  0.0206
  912MOL0     C25738   1.131   3.029   3.420  0.7495 -0.1158 -0.0845
  912MOL0     C25739   1.129   2.879   3.368 -0.3230  0.5190  1.3516
  912MOL0     C25740   1.112   2.766   3.461  1.1689 -0.1000 -0.6663
  912MOL0     C25741   1.014   2.792   3.579  0.9604  0.7774  0.2430
  912MOL0     O25742   1.043   2.673   3.653 -0.3403 -0.3068 -0.5394
  912MOL0     C25743   0.981   2.655   3.770 -0.0712 -0.7496 -0.0134
  912MOL0     C25744   0.847   2.690   3.796  0.2475  0.5967  0.7111
  912MOL0     C25745   0.783   2.665   3.921 -0.0101 -0.2931  0.6223
  912MOL0     C25746   0.643   2.727   3.937  0.7306 -0.2078  0.1173
  912MOL0     C25747   0.867   2.619   4.029  0.0242  0.3648  0.2151
  912MOL0     C25748   0.809   2.591   4.162  0.7974  0.1835  0.0189
  912MOL0     O25749   0.899   2.569   4.248 -0.0832  0.3517 -0.4507
  912MOL0     C25750   0.875   2.513   4.370 -0.1026 -0.6022 -0.4986
  912MOL0     C25751   0.980   2.534   4.462 -0.1190 -0.3613  0.2403
  912MOL0     C25752   0.978   2.506   4.599 -0.0711  0.7699  0.2526
  912MOL0     C25753   0.856   2.430   4.642 -1.0494 -0.1397  0.3276
  912MOL0     O25754   0.833   2.377   4.764  0.0623  0.1336  0.2946
  912MOL0     C25755   0.917   2.431   4.868  0.0302 -0.8454 -0.5720
  912MOL0     C25756   0.869   2.368   5.008 -0.1317  0.3915  0.4968
  912MOL0     C25757   0.861   2.219   4.993 -0.0179 -0.3391  0.4005
  912MOL0     C25758   0.850   2.150   5.134  0.7246  0.8400 -0.2257
  912MOL0     C25759   0.933   2.017   5.148 -0.5936 -1.0649 -0.6607
  912MOL0     C25760   0.959   1.980   5.298  0.1562 -0.1782  0.7000
  912MOL0     C25761   1.070   1.873   5.304  0.0409  0.0608 -0.0936
  912MOL0     C25762   1.101   1.824   5.445 -0.7778 -0.7015  0.2509
  912MOL0    Cl25763   1.030   1.672   5.492  0.0538  0.1340  0.3412
  912MOL0     C25764   0.756   2.406   4.553  0.6465  0.1819 -0.7974
  912MOL0     C25765   0.763   2.446   4.422 -0.0503  0.3154  0.3832
  912MOL0     O25766   0.690   2.571   4.174 -0.1175  0.4131 -0.5519
  912MOL0     C25767   0.999   2.582   3.994  0.3947  0.2575 -0.4988
  912MOL0     C25768   1.054   2.594   3.870  0.6869 -0.1140 -0.8123
  912MOL0     N25769   1.207   3.130   3.638  0.0786  0.3191 -0.2088
  912MOL0     N25770   1.325   3.120   3.703 -0.5550  0.5398 -0.7971
  912MOL0     C25771   1.545   2.085   4.268 -0.4875  0.3474  1.1047
  912MOL0     C25772   1.586   1.959   4.333  0.1336  0.1026  0.5927
  912MOL0     C25773   1.546   1.625   4.630 -0.1039 -0.9091  0.2953
  912MOL0     C25774   1.467   1.508   4.614  0.7062 -0.0809 -1.0231
  912MOL0     C25775   1.486   1.403   4.702 -0.1032  0.1311  0.2053
  912MOL0     C25776   1.561   1.416   4.822  1.0255  0.1011  0.2551
  912MOL0     O25777   1.539   1.325   4.926  0.4353  0.2753  0.0276
  912MOL0     C25778   1.478   1.191   4.904  0.3335  0.5347  0.7727
  912MOL0     C25779   1.489   1.114   5.037 -0.6178  0.7025  0.3383
  912MOL0     C25780   1.441   0.967   5.019 -0.1734 -0.0608 -0.6381
  912MOL0     C25781   1.341   0.911   5.125  0.2753 -1.1090  0.3463
  912MOL0     C25782   1.408   0.919   5.251 -0.7096 -0.4367 -0.1861
  912MOL0     C25783   1.483   0.919   5.346 -0.7992  0.3158  0.5564
  912MOL0     C25784   1.620   1.538   4.849 -0.8260  0.2934 -0.2074
  912MOL0     C25785   1.626   1.634   4.752  0.1824 -0.3843  0.0631
  912MOL0     C25786   1.709   1.759   4.792  0.6983  0.8179  0.6221
  912MOL0     H25787   1.634   2.063   4.648 -0.4751  0.9884  0.2821
  912MOL0     H25788   1.553   2.260   4.559  0.9191  1.3844 -1.8081
  912MOL0     H25789   1.442   2.251   4.110 -0.6675 -0.2529  0.4368
  912MOL0     H25790   1.602   2.309   4.147  0.8916  1.5108  3.1644
  912MOL0     H25791   1.352   2.488   4.105  0.4836  0.2901  0.1814
  912MOL0     H25792   1.467   2.534   4.224  1.9427  2.1434  0.2167
  912MOL0     H25793   1.627   2.582   4.068 -1.1363 -1.1508  1.8420
  912MOL0     H25794   1.576   2.457   3.957  1.4896  1.2061 -0.4992
  912MOL0     H25795   1.395   2.577   3.873  1.5711 -0.0062 -0.7499
  912MOL0     H25796   1.434   2.713   3.992 -2.7477  1.2089 -3.9757
  912MOL0     H25797   1.567   2.629   3.734 -0.9721 -1.6186  0.8146
  912MOL0     H25798   1.668   2.695   3.858 -0.1305 -0.4507 -1.9236
  912MOL0     H25799   1.403   2.825   3.744 -0.6374 -1.1474  0.3171
  912MOL0     H25800   1.495   2.885   3.870 -0.8875 -1.6933  0.4579
  912MOL0     H25801   1.574   2.844   3.580  2.9647 -0.0720 -0.9474
  912MOL0     H25802   1.699   2.898   3.698 -0.8016  3.6910  3.2129
  912MOL0     H25803   1.571   3.098   3.759  0.6509  0.4802 -0.3158
  912MOL0     H25804   1.625   3.104   3.590  1.2148 -0.3801  0.5480
  912MOL0     H25805   1.391   2.928   3.432 -2.4906  1.5942 -2.6421
  912MOL0     H25806   1.167   3.080   3.330  1.0580 -0.3725 -0.1095
  912MOL0     H25807   1.030   3.061   3.446 -0.0135 -2.4428 -0.0142
  912MOL0     H25808   1.056   2.880   3.286 -0.3173 -0.3359  1.3326
  912MOL0     H25809   1.222   2.856   3.314  0.8708  3.2785  2.0738
  912MOL0     H25810   1.080   2.669   3.422  2.1542 -0.2139 -1.2156
  912MOL0     H25811   1.209   2.764   3.510  1.1419  3.4607 -0.2229
  912MOL0     H25812   1.047   2.883   3.630  2.6896 -0.0899  0.7436
  912MOL0     H25813   0.907   2.784   3.556  0.7849 -0.8982  1.5008
  912MOL0     H25814   0.791   2.748   3.723  0.5375 -1.4952 -1.2837
  912MOL0     H25815   0.632   2.774   4.035  0.8186 -0.3696  0.2043
  912MOL0     H25816   0.556   2.662   3.919  1.0860 -0.1440 -2.2530
  912MOL0     H25817   0.626   2.806   3.863  0.9417 -1.6045 -1.5047
  912MOL0     H25818   1.067   2.586   4.425 -1.2843  0.3817 -1.6280
  912MOL0     H25819   1.059   2.516   4.670  1.2585 -0.0380 -1.1084
  912MOL0     H25820   1.024   2.419   4.853  0.6907  2.0023  1.1247
  912MOL0     H25821   0.889   2.537   4.877  1.4313 -0.5826  1.1406
  912MOL0     H25822   0.945   2.396   5.082 -0.3670  0.8737  0.5611
  912MOL0     H25823   0.777   2.416   5.043  0.0738  1.3694 -0.2871
  912MOL0     H25824   0.924   2.164   4.923 -2.0312 -1.0902 -0.9150
  912MOL0     H25825   0.760   2.208   4.952  0.0196 -1.9533  0.7038
  912MOL0     H25826   0.749   2.115   5.157  0.8636 -0.0869 -0.9774
  912MOL0     H25827   0.890   2.219   5.208 -0.2267  3.4863 -2.0464
  912MOL0     H25828   0.881   1.934   5.100 -0.7625 -1.5191  0.2995
  912MOL0     H25829   1.030   2.014   5.096  0.8091 -1.8243  1.8281
  912MOL0     H25830   0.863   1.954   5.344 -0.4534  0.6554 -0.0549
  912MOL0     H25831   0.988   2.072   5.350 -1.4762  1.9352 -1.8571
  912MOL0     H25832   1.159   1.915   5.256 -2.7296  3.2035 -2.9980
  912MOL0     H25833   1.046   1.788   5.240  0.2907 -0.6630  0.7541
  912MOL0     H25834   1.061   1.899   5.514 -2.4377 -0.1510 -1.2270
  912MOL0     H25835   1.210   1.821   5.438 -0.7769  0.9247 -0.9421
  912MOL0     H25836   0.668   2.359   4.596  0.7915 -0.1537 -0.8634
  912MOL0     H25837   0.678   2.420   4.361  0.1544  2.0999 -0.7341
  912MOL0     H25838   1.060   2.553   4.079 -0.2345 -2.7127 -0.9556
  912MOL0     H25839   1.153   2.561   3.841 -0.0691 -3.5971  0.1539
  912MOL0     H25840   1.528   2.069   4.162  2.9265 -0.4397  0.5367
  912MOL0     H25841   1.601   1.867   4.277 -2.3344 -0.9311  1.4725
  912MOL0     H25842   1.403   1.500   4.527  0.7989  0.7567 -1.1823
  912MOL0     H25843   1.421   1.317   4.689 -0.8175  0.7765 -0.6264
  912MOL0     H25844   1.371   1.204   4.884  0.2746  0.2047  0.8674
  912MOL0     H25845   1.527   1.139   4.821 -0.1910 -2.0490  2.0010
  912MOL0     H25846   1.421   1.160   5.110 -2.6374 -0.1902 -0.9058
  912MOL0     H25847   1.590   1.120   5.078  0.2547 -1.1692 -1.3702
  912MOL0     H25848   1.396   0.962   4.919 -0.1002  1.7039 -0.7934
  912MOL0     H25849   1.530   0.904   5.021 -0.6376 -0.8970  3.2118
  912MOL0     H25850   1.312   0.812   5.088 -2.2180 -1.3932  2.7857
  912MOL0     H25851   1.249   0.968   5.128  1.8825  1.6880 -0.1910
  912MOL0     H25852   1.563   0.931   5.416 -0.8349  1.0512  0.4823
  912MOL0     H25853   1.654   1.560   4.950  1.6261 -0.1595 -0.8761
  912MOL0     H25854   1.649   1.851   4.792  0.2675  0.5462 -0.1319
  912MOL0     H25855   1.743   1.749   4.895  4.1042  0.2609 -0.4340
  912MOL0     H25856   1.800   1.765   4.732  1.2581 -1.3364  1.1797
  913MOL0     O25857   3.809   2.804   7.046  0.3866 -0.0138 -0.2880
  913MOL0     C25858   3.716   2.725   7.051  0.0068 -0.8048  0.1993
  913MOL0     O25859   3.715   2.618   6.970 -0.0823 -0.1095  0.3102
  913MOL0     C25860   3.815   2.587   6.877 -0.6358 -0.4595  0.4033
  913MOL0     C25861   3.834   2.662   6.756  0.5498 -0.2821 -0.4912
  913MOL0     C25862   3.942   2.637   6.671 -0.3810  0.1145  0.2341
  913MOL0     C25863   4.042   2.547   6.708  0.2773 -0.8512 -0.0499
  913MOL0     O25864   4.157   2.532   6.628  0.9454  0.9936 -0.1097
  913MOL0     C25865   4.138   2.478   6.494 -1.0530 -0.6183 -0.5329
  913MOL0     C25866   4.208   2.340   6.491  0.2433 -0.1064  0.2400
  913MOL0     C25867   4.357   2.351   6.512 -0.3098 -0.8522  0.0574
  913MOL0     C25868   4.437   2.401   6.396 -0.2336  0.0507  0.4742
  913MOL0     C25869   4.591   2.423   6.422  0.5185  1.0889 -0.1238
  913MOL0     C25870   4.659   2.283   6.385 -0.7120 -0.0038  0.3055
  913MOL0     C25871   4.803   2.271   6.455 -0.4676 -0.7205 -0.3485
  913MOL0     C25872   4.900   2.354   6.376 -1.1669 -0.1590  0.8304
  913MOL0     N25873   5.029   2.394   6.445 -0.2261  0.2503  0.1789
  913MOL0     C25874   5.036   2.484   6.553  0.0803 -0.2124  0.1447
  913MOL0     C25875   5.170   2.486   6.582 -0.7931  0.5988 -0.7899
  913MOL0     C25876   5.242   2.573   6.685  0.1482  0.4161 -0.3707
  913MOL0     C25877   5.306   2.504   6.807 -0.0119 -0.2950  0.5362
  913MOL0     C25878   5.231   2.503   6.942 -0.4863  0.0800 -0.1794
  913MOL0     C25879   5.116   2.400   6.927  0.5917  0.0833 -0.1655
  913MOL0     O25880   5.171   2.267   6.927  0.2292  0.1465 -0.0548
  913MOL0     C25881   5.245   2.217   7.030  0.0096 -0.1225 -0.1170
  913MOL0     C25882   5.350   2.131   6.993 -0.1587  0.0938  1.1710
  913MOL0     C25883   5.430   2.069   7.083 -0.1558  0.3518  0.8440
  913MOL0     C25884   5.523   1.968   7.018 -0.2581  0.5922  0.1528
  913MOL0     C25885   5.422   2.100   7.219 -0.6044  0.1919 -0.4112
  913MOL0     C25886   5.512   2.049   7.323  0.0410 -0.5456 -0.7883
  913MOL0     O25887   5.524   2.131   7.434  0.6842  0.0063  0.0718
  913MOL0     C25888   5.578   2.102   7.560 -0.0530 -0.2443 -1.1511
  913MOL0     C25889   5.625   1.975   7.591  0.9659  0.8007  0.0903
  913MOL0     C25890   5.670   1.938   7.719  0.7339  0.3539 -0.3802
  913MOL0     C25891   5.687   2.036   7.820 -0.0627  0.3767  0.2689
  913MOL0     O25892   5.757   2.006   7.935 -1.2615  0.0003 -0.3381
  913MOL0     C25893   5.889   1.957   7.912  0.2477  0.2391 -0.9320
  913MOL0     C25894   5.952   1.888   8.036 -0.0811  0.4048 -0.1773
  913MOL0     C25895   5.856   1.776   8.091 -0.6032 -0.3881  0.7954
  913MOL0     C25896   5.809   1.684   7.982 -0.0239 -0.5282  0.5368
  913MOL0     C25897   5.735   1.564   8.046  0.3245  0.3968  0.6205
  913MOL0     C25898   5.833   1.465   8.117 -0.2095 -0.0880  0.7641
  913MOL0     C25899   5.760   1.367   8.212  0.6391  0.9188  0.5762
  913MOL0     C25900   5.617   1.321   8.186 -0.1781 -0.1952 -0.5285
  913MOL0    Cl25901   5.605   1.210   8.047  0.6149 -0.4330 -0.1737
  913MOL0     C25902   5.626   2.168   7.800  0.2506  0.7645 -0.7324
  913MOL0     C25903   5.575   2.204   7.670  0.0871  0.0231 -0.3408
  913MOL0     O25904   5.567   1.943   7.303 -0.1302 -0.2636  0.0640
  913MOL0     C25905   5.326   2.191   7.257  0.3403 -0.0322  0.4287
  913MOL0     C25906   5.244   2.251   7.160  0.2030 -0.0743  0.1304
  913MOL0     N25907   5.233   2.386   6.506  0.2377 -0.2477 -0.4344
  913MOL0     N25908   5.151   2.335   6.428  0.5370  0.0026 -0.8849
  913MOL0     C25909   4.019   2.462   6.825  0.1273 -0.5195  0.0567
  913MOL0     C25910   3.897   2.480   6.897 -0.5647 -0.1707  0.4411
  913MOL0     C25911   3.600   2.764   7.144  0.5367 -0.7431 -0.8009
  913MOL0     C25912   3.591   2.899   7.201 -0.8692 -0.3184  0.3840
  913MOL0     C25913   3.491   2.946   7.281 -0.2888 -0.3208  0.5568
  913MOL0     C25914   3.384   2.859   7.301  0.2597 -0.0927 -0.8152
  913MOL0     O25915   3.257   2.894   7.351  0.8909  0.1779 -0.2733
  913MOL0     C25916   3.226   3.020   7.418  0.3515  0.3188  0.4712
  913MOL0     C25917   3.174   3.110   7.304 -0.1582  0.5524  0.9953
  913MOL0     C25918   3.151   3.259   7.343  0.7999 -0.8877 -0.2620
  913MOL0     C25919   3.109   3.326   7.218  0.8448 -0.0886 -0.4647
  913MOL0     C25920   2.971   3.287   7.189  1.7032  1.7322 -0.2316
  913MOL0     C25921   2.859   3.249   7.160  1.1917  0.2231  0.6989
  913MOL0     C25922   3.374   2.732   7.248 -0.6953  0.7452  0.2539
  913MOL0     C25923   3.478   2.691   7.159  0.3809  1.8115  0.2970
  913MOL0     C25924   3.473   2.552   7.090  0.2771 -0.4442 -0.1268
  913MOL0     H25925   3.770   2.746   6.731 -4.2964 -3.4901 -0.3536
  913MOL0     H25926   3.957   2.687   6.576  1.7530 -4.3429 -2.0384
  913MOL0     H25927   4.194   2.545   6.429  0.2989 -0.4831  0.7319
  913MOL0     H25928   4.034   2.470   6.462 -0.5391  2.2751 -3.4204
  913MOL0     H25929   4.156   2.266   6.553  1.9973 -3.7161 -2.2364
  913MOL0     H25930   4.206   2.303   6.388 -0.2626  0.7135 -0.0508
  913MOL0     H25931   4.373   2.407   6.605 -3.2012 -0.8634  0.6670
  913MOL0     H25932   4.391   2.250   6.537 -1.7993 -1.9936 -2.1967
  913MOL0     H25933   4.421   2.341   6.306 -0.4149  2.4090 -1.1817
  913MOL0     H25934   4.415   2.503   6.361  4.5201  0.4484 -2.1449
  913MOL0     H25935   4.608   2.455   6.525  0.2456  0.8701 -0.0083
  913MOL0     H25936   4.629   2.499   6.354 -0.4918  0.9738 -0.8211
  913MOL0     H25937   4.597   2.194   6.399  0.3719 -1.5639 -3.5217
  913MOL0     H25938   4.672   2.277   6.277  0.4696 -1.0920  0.4850
  913MOL0     H25939   4.842   2.169   6.462  0.0585 -0.4452  1.3897
  913MOL0     H25940   4.792   2.313   6.556  1.4249  0.1009 -0.4348
  913MOL0     H25941   4.923   2.296   6.286  1.0674  0.1724  1.1340
  913MOL0     H25942   4.848   2.444   6.343  2.6207  1.2051 -2.1678
  913MOL0     H25943   4.960   2.555   6.584  1.5318  1.4952 -0.0435
  913MOL0     H25944   5.177   2.650   6.727  1.6793  1.2708  0.5571
  913MOL0     H25945   5.311   2.635   6.627  1.0642 -1.3089 -1.2060
  913MOL0     H25946   5.355   2.406   6.795 -3.4261 -1.9502 -1.2524
  913MOL0     H25947   5.388   2.576   6.813 -2.8636  3.3587 -0.6235
  913MOL0     H25948   5.297   2.493   7.029 -0.1156  2.6422 -0.1095
  913MOL0     H25949   5.190   2.604   6.952  0.9004  0.5078  1.6563
  913MOL0     H25950   5.053   2.398   7.016  0.2192  1.3554 -0.3728
  913MOL0     H25951   5.066   2.415   6.830 -0.4112 -3.8828 -0.4364
  913MOL0     H25952   5.376   2.118   6.888  1.1009  0.1138  1.4635
  913MOL0     H25953   5.512   1.952   6.910 -0.5868 -1.4074  0.4430
  913MOL0     H25954   5.491   1.877   7.069  0.4021 -0.8690 -1.8946
  913MOL0     H25955   5.626   2.000   7.038 -1.2854  3.2218  1.7846
  913MOL0     H25956   5.619   1.906   7.507 -0.0716  4.3495 -2.9906
  913MOL0     H25957   5.731   1.848   7.718  1.6348  0.8697  2.1131
  913MOL0     H25958   5.912   1.895   7.825 -0.1002  0.0260 -0.8723
  913MOL0     H25959   5.951   2.047   7.909  0.5065  0.2403  1.7467
  913MOL0     H25960   6.043   1.834   8.008  0.3655  0.7608  0.5622
  913MOL0     H25961   5.981   1.961   8.112  0.7372  0.9665 -1.0123
  913MOL0     H25962   5.774   1.820   8.148 -0.0831  1.5294  0.1529
  913MOL0     H25963   5.921   1.718   8.156  0.3128 -0.0757  0.1765
  913MOL0     H25964   5.894   1.680   7.913 -0.5976 -0.3094 -0.1950
  913MOL0     H25965   5.731   1.726   7.917 -0.1185 -1.8184 -0.2458
  913MOL0     H25966   5.683   1.610   8.130  1.2682  0.1740  1.3440
  913MOL0     H25967   5.666   1.521   7.973  1.2735 -0.4482  0.1984
  913MOL0     H25968   5.908   1.516   8.179  1.8321  0.0128 -1.6156
  913MOL0     H25969   5.884   1.407   8.039 -3.7109 -1.3856 -0.7895
  913MOL0     H25970   5.773   1.419   8.307  5.7734  1.7479 -0.3024
  913MOL0     H25971   5.827   1.280   8.221  1.4500  1.3160 -1.1998
  913MOL0     H25972   5.541   1.399   8.186 -1.9311 -1.8004  1.1645
  913MOL0     H25973   5.589   1.256   8.269 -1.4108 -0.4562 -1.1244
  913MOL0     H25974   5.628   2.238   7.883  2.4517 -1.6573  1.4528
  913MOL0     H25975   5.531   2.303   7.662 -1.1522 -0.1919  2.5093
  913MOL0     H25976   5.322   2.234   7.357 -0.5755 -0.1539  0.4540
  913MOL0     H25977   5.173   2.325   7.197  1.1832  0.9314  0.0455
  913MOL0     H25978   4.099   2.392   6.848  2.2395  1.2232 -1.5351
  913MOL0     H25979   3.883   2.435   6.995  2.4946 -1.1908  0.5150
  913MOL0     H25980   3.671   2.972   7.191  1.2726 -2.5664  0.0522
  913MOL0     H25981   3.488   3.045   7.325 -0.7857  0.0149 -0.2228
  913MOL0     H25982   3.141   3.018   7.487 -3.2118  2.4964 -3.4049
  913MOL0     H25983   3.311   3.067   7.468  0.4491  0.8104 -0.1457
  913MOL0     H25984   3.092   3.054   7.259  0.2123  1.9478 -1.5840
  913MOL0     H25985   3.250   3.106   7.225 -2.1309  3.1603 -1.2014
  913MOL0     H25986   3.076   3.279   7.421 -0.7577  0.9415 -2.1392
  913MOL0     H25987   3.245   3.300   7.383  1.2093 -2.8755  0.9581
  913MOL0     H25988   3.180   3.293   7.141  0.0568  0.2757 -1.3654
  913MOL0     H25989   3.101   3.434   7.228  0.5870 -0.2588  1.5537
  913MOL0     H25990   2.757   3.229   7.135  0.3383  5.0890 -0.8540
  913MOL0     H25991   3.291   2.674   7.284 -1.1674  1.4265  0.2759
  913MOL0     H25992   3.568   2.500   7.097  0.7527  0.5562  1.6032
  913MOL0     H25993   3.406   2.488   7.147 -0.4320  1.1850  0.9633
  913MOL0     H25994   3.436   2.557   6.987  1.9966  1.1195 -0.7338
  914MOL0     O25995   0.044   4.158   9.613 -0.4158  0.7804  0.1821
  914MOL0     C25996   0.116   4.178   9.512 -0.1474  0.5488  0.8075
  914MOL0     O25997   0.085   4.260   9.406 -0.2720  0.1045 -0.2153
  914MOL0     C25998  -0.045   4.314   9.408  0.8368 -0.3523 -0.4715
  914MOL0     C25999  -0.077   4.436   9.480  0.8208  0.4582 -0.0146
  914MOL0     C26000  -0.212   4.483   9.470 -0.2998 -0.2778  0.0343
  914MOL0     C26001  -0.316   4.418   9.400  0.5727 -0.4696 -0.0453
  914MOL0     O26002  -0.447   4.465   9.378  0.6341 -0.3199 -0.5804
  914MOL0     C26003  -0.459   4.601   9.351 -0.6879  0.7968  0.4065
  914MOL0     C26004  -0.510   4.680   9.469 -0.4132  0.3363 -0.3625
  914MOL0     C26005  -0.630   4.625   9.538 -0.3933  0.6677 -0.0601
  914MOL0     C26006  -0.684   4.713   9.652  1.0397  0.6179 -0.5038
  914MOL0     C26007  -0.741   4.842   9.608  0.3054  0.4790  0.4503
  914MOL0     C26008  -0.780   4.927   9.730  0.2879  0.0822  1.0662
  914MOL0     C26009  -0.872   5.039   9.684  0.2989  0.5049  0.4749
  914MOL0     C26010  -0.856   5.165   9.779  0.0800  0.3997  0.6436
  914MOL0     N26011  -0.875   5.118   9.916 -0.1862  0.4531  0.2904
  914MOL0     C26012  -0.991   5.063   9.974  0.5804 -0.3416 -0.2959
  914MOL0     C26013  -0.950   5.006  10.090 -1.6141  0.2274 -0.2305
  914MOL0     C26014  -1.024   4.904  10.176  0.2839 -0.3372  0.5242
  914MOL0     C26015  -1.026   4.758  10.112  0.1610  0.4769  0.1075
  914MOL0     C26016  -0.912   4.680  10.182 -1.2895  0.3784 -0.6630
  914MOL0     C26017  -0.960   4.617  10.321 -0.2691 -0.5796 -0.0334
  914MOL0     O26018  -0.944   4.702  10.437  0.0164  0.0762 -0.6937
  914MOL0     C26019  -1.060   4.707  10.516 -0.2271  0.4664  0.1740
  914MOL0     C26020  -1.151   4.819  10.506 -0.2574  0.3795 -0.1698
  914MOL0     C26021  -1.273   4.806  10.566  0.1925 -0.3561  0.1149
  914MOL0     C26022  -1.360   4.930  10.549  0.6411  0.1489 -0.1784
  914MOL0     C26023  -1.300   4.705  10.659  0.5094  0.0415  0.0213
  914MOL0     C26024  -1.393   4.712  10.775  0.3423  0.9338 -0.1634
  914MOL0     O26025  -1.364   4.631  10.885  0.8407 -0.2667  0.0992
  914MOL0     C26026  -1.466   4.619  10.970 -0.1379 -0.5839 -0.4087
  914MOL0     C26027  -1.563   4.520  10.955 -0.3935  1.2337 -0.1377
  914MOL0     C26028  -1.645   4.507  11.069  1.1077  0.4417 -0.1900
  914MOL0     C26029  -1.643   4.588  11.192  1.1597 -0.2953 -0.4158
  914MOL0     O26030  -1.729   4.573  11.299 -0.0368  1.1490  0.3630
  914MOL0     C26031  -1.819   4.458  11.299 -0.3763  0.3422 -1.2542
  914MOL0     C26032  -1.966   4.495  11.252 -0.1351  0.6441  0.1148
  914MOL0     C26033  -2.037   4.612  11.325 -0.1031  0.1917  0.4101
  914MOL0     C26034  -2.179   4.641  11.264 -0.4307  1.2602 -0.3010
  914MOL0     C26035  -2.282   4.520  11.283 -0.2705  0.3884 -0.6044
  914MOL0     C26036  -2.314   4.491  11.435 -0.9577  0.4255 -0.4216
  914MOL0     C26037  -2.349   4.604  11.538 -0.8626 -0.7043  0.8115
  914MOL0     C26038  -2.501   4.611  11.545  1.2337  0.2334  0.3928
  914MOL0    Cl26039  -2.543   4.792  11.577 -0.1553  0.1070  0.2826
  914MOL0     C26040  -1.548   4.685  11.195  0.2758 -0.1818  0.1919
  914MOL0     C26041  -1.464   4.704  11.084  0.4698  0.0383  0.1357
  914MOL0     O26042  -1.505   4.772  10.760  0.6489  0.6500  0.0027
  914MOL0     C26043  -1.212   4.596  10.661  0.2998 -0.3022 -0.3240
  914MOL0     C26044  -1.091   4.592  10.592  0.0160  0.8164  0.7375
  914MOL0     N26045  -0.811   5.035  10.109 -0.0628  0.7603 -0.2371
  914MOL0     N26046  -0.772   5.094   9.999 -0.5924  0.2962  0.1090
  914MOL0     C26047  -0.287   4.296   9.347 -0.7224  0.7195 -0.3320
  914MOL0     C26048  -0.151   4.241   9.359  0.9979  0.7830 -0.1080
  914MOL0     C26049   0.259   4.121   9.515  0.4696  0.7175  0.5066
  914MOL0     C26050   0.316   4.106   9.645 -0.2666  0.2797 -0.6904
  914MOL0     C26051   0.455   4.081   9.662  0.0010  0.5519  0.6797
  914MOL0     C26052   0.542   4.056   9.544  0.1773 -0.7373 -0.4362
  914MOL0     O26053   0.681   4.027   9.553  0.4407 -0.8183  0.5036
  914MOL0     C26054   0.735   3.991   9.687 -0.2389 -0.4523  0.3332
  914MOL0     C26055   0.885   3.944   9.673  0.0037 -0.2827 -0.0786
  914MOL0     C26056   0.897   3.810   9.591 -0.2122 -0.2245  0.1547
  914MOL0     C26057   1.041   3.791   9.541  0.6119 -0.4910  0.7045
  914MOL0     C26058   1.134   3.784   9.659 -0.3063  0.2673  0.3970
  914MOL0     C26059   1.196   3.776   9.764 -0.6078 -0.1290 -0.1488
  914MOL0     C26060   0.483   4.078   9.424 -1.1145 -0.3905  0.0345
  914MOL0     C26061   0.348   4.113   9.401 -0.6767 -1.7801 -0.3512
  914MOL0     C26062   0.305   4.117   9.258 -0.9548  0.2664 -0.1791
  914MOL0     H26063  -0.000   4.498   9.525  0.0663  2.7532 -1.6839
  914MOL0     H26064  -0.227   4.582   9.512  1.9971  0.0508  0.2070
  914MOL0     H26065  -0.528   4.599   9.266  1.7059  1.6250 -1.6909
  914MOL0     H26066  -0.366   4.636   9.306 -0.7434 -1.0895 -1.2950
  914MOL0     H26067  -0.433   4.698   9.544 -0.3788 -0.3117 -0.2392
  914MOL0     H26068  -0.539   4.780   9.433 -0.3068  0.5780  0.2112
  914MOL0     H26069  -0.709   4.601   9.467  2.4632 -1.0657 -2.8940
  914MOL0     H26070  -0.596   4.533   9.586  1.2438  1.0584 -0.3962
  914MOL0     H26071  -0.758   4.659   9.712 -0.3058  2.5823 -0.2819
  914MOL0     H26072  -0.595   4.732   9.713 -0.1676 -0.7456  1.8409
  914MOL0     H26073  -0.825   4.814   9.544  3.9219 -3.6136 -3.1618
  914MOL0     H26074  -0.672   4.900   9.546 -0.6999 -0.2447 -1.4224
  914MOL0     H26075  -0.844   4.866   9.794 -0.5083 -1.3200 -0.9720
  914MOL0     H26076  -0.692   4.964   9.783 -0.5949 -1.2197  3.5829
  914MOL0     H26077  -0.974   5.005   9.666  1.7286 -3.9148 -0.7325
  914MOL0     H26078  -0.842   5.077   9.585 -1.6171  1.9680  0.4096
  914MOL0     H26079  -0.758   5.212   9.764 -0.0608  0.3872 -0.3872
  914MOL0     H26080  -0.936   5.237   9.761  1.2488  2.0494  1.7528
  914MOL0     H26081  -1.094   5.062   9.938  0.1596 -0.8713  0.8724
  914MOL0     H26082  -1.121   4.954  10.173 -0.3341 -1.5477 -1.0792
  914MOL0     H26083  -0.977   4.896  10.275  1.6981  0.9567  0.0044
  914MOL0     H26084  -1.124   4.710  10.119 -0.6660  2.0099 -0.3723
  914MOL0     H26085  -1.012   4.785  10.007 -3.7239  2.1799 -0.1770
  914MOL0     H26086  -0.902   4.591  10.119 -1.8134 -3.3824  3.9316
  914MOL0     H26087  -0.818   4.733  10.194 -1.9809  1.0737  3.1634
  914MOL0     H26088  -1.065   4.596  10.297  0.7424 -2.1599 -3.8247
  914MOL0     H26089  -0.906   4.526  10.346  0.9526  0.2226  0.3360
  914MOL0     H26090  -1.119   4.905  10.447  2.8469  0.2028  1.0477
  914MOL0     H26091  -1.331   5.006  10.476  1.7710 -2.2650 -2.4424
  914MOL0     H26092  -1.364   4.980  10.646 -0.0308  0.8214 -0.5319
  914MOL0     H26093  -1.466   4.904  10.539  0.0136 -0.4558  5.1818
  914MOL0     H26094  -1.557   4.459  10.865 -0.0263  0.6580  0.2664
  914MOL0     H26095  -1.721   4.430  11.064 -2.9115  3.9570  0.6674
  914MOL0     H26096  -1.765   4.375  11.252  2.9321  0.6986  1.5281
  914MOL0     H26097  -1.831   4.422  11.401  2.0158 -0.1435 -1.0922
  914MOL0     H26098  -1.949   4.508  11.144 -1.6800 -2.5933 -0.6373
  914MOL0     H26099  -2.028   4.405  11.263 -3.1881  2.7007  1.2045
  914MOL0     H26100  -1.978   4.705  11.321 -2.0031  1.4010 -1.5054
  914MOL0     H26101  -2.042   4.579  11.429  2.0653 -0.0098  0.4947
  914MOL0     H26102  -2.189   4.660  11.156 -2.6668  1.2407 -0.1323
  914MOL0     H26103  -2.205   4.728  11.324  5.4373  1.7878  2.1412
  914MOL0     H26104  -2.381   4.543  11.243 -0.9119 -4.3037 -2.2742
  914MOL0     H26105  -2.253   4.433  11.224 -2.1288 -1.9345  1.6899
  914MOL0     H26106  -2.218   4.452  11.469 -0.8500 -0.1595 -1.3696
  914MOL0     H26107  -2.385   4.407  11.439 -1.1944  0.3347 -4.0061
  914MOL0     H26108  -2.315   4.701  11.501 -2.5145 -0.7026 -0.8439
  914MOL0     H26109  -2.309   4.577  11.636 -0.4052 -0.4296  0.7026
  914MOL0     H26110  -2.551   4.559  11.628 -0.3480  0.3373 -0.4624
  914MOL0     H26111  -2.555   4.572  11.458 -0.8251 -0.2839  1.8037
  914MOL0     H26112  -1.519   4.734  11.288  4.4232 -2.2143  0.1811
  914MOL0     H26113  -1.382   4.774  11.080  2.5226 -2.2550 -2.9051
  914MOL0     H26114  -1.223   4.508  10.724 -0.6569 -1.3121 -1.8356
  914MOL0     H26115  -1.022   4.508  10.593  1.4090  1.8006 -2.0462
  914MOL0     H26116  -0.364   4.245   9.291  1.0272 -1.3267 -1.0042
  914MOL0     H26117  -0.140   4.144   9.313 -0.0910 -0.3592  1.8930
  914MOL0     H26118   0.249   4.104   9.730  2.3795 -4.7170  1.7036
  914MOL0     H26119   0.492   4.090   9.764  0.5397 -0.3724  0.5812
  914MOL0     H26120   0.728   4.072   9.760  0.1146 -0.3201  0.2269
  914MOL0     H26121   0.689   3.900   9.726  2.0303 -1.4407  0.8759
  914MOL0     H26122   0.914   3.930   9.778 -0.5575 -1.8419 -0.1102
  914MOL0     H26123   0.939   4.019   9.614  2.6089 -0.7913  1.4942
  914MOL0     H26124   0.868   3.726   9.654  0.9285 -1.1547 -0.5102
  914MOL0     H26125   0.826   3.820   9.508 -0.2088 -4.4614 -0.5574
  914MOL0     H26126   1.054   3.883   9.483 -0.2947 -0.3498  0.7106
  914MOL0     H26127   1.053   3.712   9.467  1.3356  2.5193 -2.6826
  914MOL0     H26128   1.249   3.777   9.857 -1.3568 -0.6857  0.3008
  914MOL0     H26129   0.544   4.059   9.336 -1.3008  0.4036 -0.2681
  914MOL0     H26130   0.216   4.057   9.238 -1.5339  0.6130  1.2187
  914MOL0     H26131   0.275   4.215   9.219  0.8139  1.7099  1.8870
  914MOL0     H26132   0.382   4.085   9.187 -0.3977  3.2509 -1.0823
  915MOL0     O26133   1.708   6.034   8.469 -0.7448  0.1541 -0.4223
  915MOL0     C26134   1.600   5.979   8.472 -0.5831 -0.2969 -0.4045
  915MOL0     O26135   1.552   5.888   8.377  0.3326  1.0841 -0.0125
  915MOL0     C26136   1.631   5.831   8.281 -1.0387  0.0030 -0.1201
  915MOL0     C26137   1.678   5.908   8.177  0.6480 -0.3430  0.0694
  915MOL0     C26138   1.740   5.838   8.066  1.2727 -0.4586  0.4642
  915MOL0     C26139   1.736   5.690   8.060 -1.0091 -0.5380  0.3513
  915MOL0     O26140   1.777   5.642   7.935  0.5475  0.2191  0.2187
  915MOL0     C26141   1.820   5.502   7.924  0.2114 -0.0567 -0.1580
  915MOL0     C26142   1.866   5.471   7.783  0.0484 -0.1809 -0.0958
  915MOL0     C26143   1.996   5.542   7.738 -0.3226  0.2889 -0.4649
  915MOL0     C26144   2.115   5.495   7.822  0.1711 -0.5840  0.4844
  915MOL0     C26145   2.232   5.592   7.787  0.0984  0.4735 -1.0566
  915MOL0     C26146   2.220   5.736   7.824 -0.1731 -0.2497 -0.4517
  915MOL0     C26147   2.190   5.754   7.970  0.7627 -0.8995 -0.3740
  915MOL0     C26148   2.208   5.901   8.017  0.3539 -0.7099 -0.1376
  915MOL0     N26149   2.205   5.895   8.162 -0.2099  0.3885 -0.8434
  915MOL0     C26150   2.100   5.865   8.243  0.5306  0.9223 -0.2655
  915MOL0     C26151   2.145   5.902   8.365  0.5810 -1.0710 -0.3888
  915MOL0     C26152   2.051   5.893   8.491  0.0555 -0.3398  0.0125
  915MOL0     C26153   2.093   5.781   8.598  0.9580  0.5700 -0.0095
  915MOL0     C26154   1.977   5.769   8.690 -0.0592 -0.0198  0.1158
  915MOL0     C26155   1.988   5.647   8.777 -0.7309  0.2809 -0.6575
  915MOL0     O26156   1.859   5.624   8.846  0.7258  0.0834 -0.6414
  915MOL0     C26157   1.854   5.678   8.969 -0.3585  0.1932  0.3359
  915MOL0     C26158   1.765   5.786   8.984  0.0193 -0.0021  0.0526
  915MOL0     C26159   1.762   5.856   9.114  0.0693  0.1725  0.2747
  915MOL0     C26160   1.665   5.966   9.128  0.6819  0.0502 -0.8122
  915MOL0     C26161   1.846   5.813   9.221  0.0729  0.2064 -0.6296
  915MOL0     C26162   1.838   5.867   9.356 -0.0049  0.3692  0.4157
  915MOL0     O26163   1.946   5.857   9.437  0.6898 -0.1146  0.7900
  915MOL0     C26164   1.940   5.932   9.552  1.0010 -0.4000  0.3423
  915MOL0     C26165   1.936   6.067   9.557  0.2215 -0.3045  0.6001
  915MOL0     C26166   1.954   6.124   9.680  0.1274 -0.7510  0.2820
  915MOL0     C26167   1.943   6.056   9.797 -0.4824 -0.2858 -0.0275
  915MOL0     O26168   1.951   6.097   9.928  0.1779  0.6247  0.1911
  915MOL0     C26169   1.999   6.220   9.957 -0.0355 -0.2333 -0.5495
  915MOL0     C26170   1.963   6.245  10.103  1.1609 -0.4356  0.6980
  915MOL0     C26171   1.994   6.392  10.143  0.6282 -0.8380  0.3464
  915MOL0     C26172   1.904   6.502  10.085 -0.4499  0.7817  0.7416
  915MOL0     C26173   1.920   6.632  10.172  0.4989  0.8304 -0.0814
  915MOL0     C26174   1.847   6.758  10.094 -0.5991  0.3087  0.0800
  915MOL0     C26175   1.897   6.886  10.161 -1.0012  0.0225  1.0378
  915MOL0     C26176   1.861   7.016  10.075  0.1464  0.2125 -0.6756
  915MOL0    Cl26177   1.681   7.043  10.064  0.7970 -0.4295  0.5768
  915MOL0     C26178   1.930   5.916   9.794  0.8319 -1.2266  0.5622
  915MOL0     C26179   1.935   5.855   9.666 -0.4101 -0.4226 -0.6194
  915MOL0     O26180   1.732   5.917   9.391  0.1310 -0.8189  0.0354
  915MOL0     C26181   1.934   5.709   9.191  0.6697 -0.0886 -0.8137
  915MOL0     C26182   1.937   5.641   9.076 -0.1962 -0.5774  0.1579
  915MOL0     N26183   2.266   5.961   8.356 -0.7147 -0.2745 -0.0951
  915MOL0     N26184   2.299   5.959   8.234 -0.5508 -0.9105  0.8748
  915MOL0     C26185   1.687   5.615   8.174  0.5770 -0.2774  0.0261
  915MOL0     C26186   1.639   5.693   8.278 -0.5089  0.5442  0.4000
  915MOL0     C26187   1.506   6.029   8.583 -0.8446  0.0251 -0.8197
  915MOL0     C26188   1.377   6.031   8.550 -0.1956  0.6929 -0.1987
  915MOL0     C26189   1.281   6.093   8.638  0.3491  0.6717  0.1472
  915MOL0     C26190   1.305   6.141   8.768 -0.7312  0.0435  0.1404
  915MOL0     O26191   1.207   6.198   8.845  0.0182 -0.3106 -0.0376
  915MOL0     C26192   1.240   6.223   8.984  0.8926 -0.5194  0.3885
  915MOL0     C26193   1.120   6.294   9.039  0.1210  0.6367 -0.1674
  915MOL0     C26194   1.156   6.348   9.170 -0.4270 -0.4940 -0.6466
  915MOL0     C26195   1.016   6.406   9.224 -1.4256 -0.2505 -0.2928
  915MOL0     C26196   1.048   6.488   9.340 -0.0541 -0.6407  0.2767
  915MOL0     C26197   1.084   6.551   9.439  0.3293  0.4676  0.1761
  915MOL0     C26198   1.444   6.113   8.802  0.3549  0.0445 -0.2064
  915MOL0     C26199   1.538   6.070   8.714  0.1846  0.1186 -0.5094
  915MOL0     C26200   1.690   6.061   8.753 -0.0987  0.5896 -0.3315
  915MOL0     H26201   1.669   6.016   8.180 -1.9478 -0.5168  2.0796
  915MOL0     H26202   1.775   5.904   7.987  1.2255  0.9209  1.5687
  915MOL0     H26203   1.735   5.439   7.951  0.5682 -0.9186 -1.0086
  915MOL0     H26204   1.902   5.483   7.994  1.5624 -2.1029 -2.1530
  915MOL0     H26205   1.881   5.364   7.770 -2.5386 -0.4149 -1.9944
  915MOL0     H26206   1.786   5.489   7.710 -0.3767  0.0598  0.4191
  915MOL0     H26207   2.027   5.528   7.634  0.6151  0.8529 -0.2713
  915MOL0     H26208   1.982   5.650   7.740  0.3745  0.4646  3.5290
  915MOL0     H26209   2.108   5.492   7.931 -2.3472 -5.2559  0.4368
  915MOL0     H26210   2.135   5.391   7.795 -2.9207 -1.7635  2.2477
  915MOL0     H26211   2.256   5.592   7.680  2.9531 -0.6586 -0.5080
  915MOL0     H26212   2.316   5.543   7.837 -1.4211 -0.6769  0.4988
  915MOL0     H26213   2.315   5.787   7.804 -0.1950 -1.0064 -2.7872
  915MOL0     H26214   2.146   5.791   7.765 -0.4800 -0.8803 -0.6643
  915MOL0     H26215   2.257   5.688   8.026  0.3247 -2.6635 -1.8369
  915MOL0     H26216   2.084   5.738   7.990  1.1578 -2.5163  0.6965
  915MOL0     H26217   2.305   5.945   7.994  0.3423 -0.7522 -0.2655
  915MOL0     H26218   2.128   5.965   7.981 -0.1491 -1.0235  0.4090
  915MOL0     H26219   2.009   5.813   8.216  1.6789 -0.3575 -1.8157
  915MOL0     H26220   1.948   5.869   8.462 -0.9790  0.7661  2.4408
  915MOL0     H26221   2.047   5.992   8.538  0.6737 -0.4608  0.3213
  915MOL0     H26222   2.107   5.686   8.546  1.2375  1.2760 -1.2707
  915MOL0     H26223   2.180   5.815   8.654 -0.0434  2.2927  0.5969
  915MOL0     H26224   1.964   5.858   8.752 -1.3612 -0.3350  0.3144
  915MOL0     H26225   1.886   5.748   8.633  0.9130 -3.5304 -0.3641
  915MOL0     H26226   2.023   5.559   8.722  1.8821 -0.8768  2.5263
  915MOL0     H26227   2.062   5.668   8.854  0.0584 -1.5283 -0.8791
  915MOL0     H26228   1.701   5.827   8.906  1.6589 -2.1866 -2.5948
  915MOL0     H26229   1.585   5.939   9.198  1.2311 -0.3758 -0.3500
  915MOL0     H26230   1.617   5.986   9.031 -2.1637  0.7386  0.6195
  915MOL0     H26231   1.722   6.055   9.156 -1.2721  1.7057 -1.8088
  915MOL0     H26232   1.952   6.118   9.462  0.6191 -1.1119  0.2303
  915MOL0     H26233   1.985   6.228   9.679  4.0832 -1.7661 -1.3353
  915MOL0     H26234   2.107   6.225   9.945 -0.0591  3.0565 -0.1955
  915MOL0     H26235   1.947   6.299   9.902 -3.5587 -0.3269  2.2203
  915MOL0     H26236   1.854   6.236  10.113  0.8664  0.5455 -1.1304
  915MOL0     H26237   2.024   6.174  10.160 -1.5069 -2.5851  1.1235
  915MOL0     H26238   2.098   6.417  10.120  1.0555 -0.3112  2.6107
  915MOL0     H26239   1.980   6.391  10.251 -0.8539 -2.2591  0.1692
  915MOL0     H26240   1.797   6.480  10.086 -0.0056 -2.1018 -1.9895
  915MOL0     H26241   1.934   6.514   9.981 -0.3406  0.3792  0.7258
  915MOL0     H26242   1.871   6.610  10.267 -4.1799  0.5014 -2.2800
  915MOL0     H26243   2.021   6.667  10.193  1.9609 -3.2649  0.6340
  915MOL0     H26244   1.738   6.741  10.089 -0.6588  0.6838  0.1332
  915MOL0     H26245   1.883   6.773   9.991  1.5335 -3.0269  0.1660
  915MOL0     H26246   2.006   6.876  10.166 -0.5644  1.9381 -1.8284
  915MOL0     H26247   1.846   6.895  10.258 -0.6133  1.2137  1.1478
  915MOL0     H26248   1.902   6.996   9.975  0.2097 -0.6332 -0.4900
  915MOL0     H26249   1.901   7.106  10.122 -2.3597  1.1116 -0.0933
  915MOL0     H26250   1.926   5.852   9.881 -0.5699 -3.7282 -1.1832
  915MOL0     H26251   1.931   5.747   9.654  1.3942 -0.7636  1.2901
  915MOL0     H26252   1.973   5.659   9.279  0.5437  0.1179 -0.6377
  915MOL0     H26253   1.982   5.542   9.079 -3.8450 -2.4156  3.5182
  915MOL0     H26254   1.650   5.513   8.168 -1.1733  0.3755 -0.8356
  915MOL0     H26255   1.601   5.654   8.371 -0.8602 -0.6367 -0.2195
  915MOL0     H26256   1.351   6.004   8.448 -0.1903  3.0309 -0.8643
  915MOL0     H26257   1.181   6.076   8.600 -0.5098 -0.9061  2.8402
  915MOL0     H26258   1.261   6.128   9.035 -1.1163 -1.2717 -0.0945
  915MOL0     H26259   1.331   6.280   9.004  0.3496  0.7345 -0.5842
  915MOL0     H26260   1.029   6.234   9.044  0.0384  0.7163 -0.6414
  915MOL0     H26261   1.090   6.380   8.979 -3.1566 -0.1181  0.2416
  915MOL0     H26262   1.208   6.282   9.239  0.1719 -0.5209 -1.1125
  915MOL0     H26263   1.230   6.429   9.161  0.0088 -0.5805  1.6304
  915MOL0     H26264   0.936   6.334   9.245 -0.5271 -1.4189 -0.7656
  915MOL0     H26265   0.979   6.470   9.144  1.7553  2.5991  0.2867
  915MOL0     H26266   1.111   6.589   9.535  1.0622 -2.4862  1.2228
  915MOL0     H26267   1.482   6.122   8.904 -1.4593 -2.4202  0.8003
  915MOL0     H26268   1.736   5.965   8.727  1.8850  0.5434  2.8018
  915MOL0     H26269   1.745   6.137   8.698  1.9831 -0.5103  0.1066
  915MOL0     H26270   1.712   6.067   8.860  2.7168  0.6628 -0.8481
  916MOL0     O26271   6.073   9.716   2.557 -0.2991 -0.2722  0.0039
  916MOL0     C26272   6.086   9.633   2.638  0.0433  0.2997 -1.3214
  916MOL0     O26273   6.200   9.619   2.715  0.5245  0.0220 -0.1699
  916MOL0     C26274   6.306   9.699   2.699  0.3093  0.7946  0.6473
  916MOL0     C26275   6.328   9.800   2.797  0.7154 -0.6017  0.1035
  916MOL0     C26276   6.429   9.885   2.782 -0.1773 -0.5158 -0.5100
  916MOL0     C26277   6.515   9.882   2.664  0.6595  0.3439  1.3040
  916MOL0     O26278   6.637   9.942   2.644  1.0000  0.4107 -0.0421
  916MOL0     C26279   6.734   9.949   2.754  0.4477  0.8502 -0.0801
  916MOL0     C26280   6.790   9.809   2.791 -0.3623 -0.2076 -0.1175
  916MOL0     C26281   6.830   9.727   2.671 -0.2345  0.3314  0.7125
  916MOL0     C26282   6.951   9.619   2.689  0.8341 -0.7337  0.3699
  916MOL0     C26283   6.960   9.528   2.569  0.7805 -0.1290 -0.5590
  916MOL0     C26284   7.051   9.418   2.602  0.5214 -0.2222 -0.2271
  916MOL0     C26285   7.030   9.313   2.496 -0.7257 -0.0243 -0.0341
  916MOL0     C26286   7.153   9.214   2.510  0.0561  0.3595 -0.9536
  916MOL0     N26287   7.096   9.083   2.478  1.0458  1.1776 -0.3184
  916MOL0     C26288   7.110   9.023   2.358  0.6111 -0.4919  0.5274
  916MOL0     C26289   7.055   8.898   2.366 -0.2499 -0.0836  1.2787
  916MOL0     C26290   7.040   8.804   2.259 -0.0710 -0.4690  0.9732
  916MOL0     C26291   7.122   8.675   2.279  0.4928  0.6804 -0.6784
  916MOL0     C26292   7.131   8.600   2.148  0.0186 -0.0877 -0.1107
  916MOL0     C26293   6.998   8.533   2.096  0.4533 -0.6837  0.2008
  916MOL0     O26294   7.030   8.400   2.045 -0.9197 -0.4856 -0.0810
  916MOL0     C26295   7.055   8.387   1.908 -0.0103 -1.2111  1.3854
  916MOL0     C26296   7.070   8.488   1.819  0.4384 -0.8483 -0.1307
  916MOL0     C26297   7.052   8.470   1.680  0.8306 -0.7348 -0.2307
  916MOL0     C26298   7.077   8.603   1.599  0.8873 -0.8616  0.7251
  916MOL0     C26299   7.024   8.348   1.628 -1.2689  1.0028 -1.1450
  916MOL0     C26300   7.012   8.309   1.489  0.5870 -0.1816  0.2446
  916MOL0     O26301   6.980   8.179   1.472  0.7004 -0.3221  0.4507
  916MOL0     C26302   6.967   8.138   1.345 -0.4543  0.4259  0.3796
  916MOL0     C26303   7.082   8.144   1.259 -0.2883 -0.1937  0.2134
  916MOL0     C26304   7.070   8.112   1.123  0.8962 -0.5672  0.5159
  916MOL0     C26305   6.948   8.065   1.074  0.5392  0.1217  0.0989
  916MOL0     O26306   6.948   8.027   0.939  0.1737  0.0686  1.0300
  916MOL0     C26307   6.820   8.060   0.866 -1.4313  1.2704  0.3650
  916MOL0     C26308   6.849   8.011   0.718 -0.0120 -0.8028  0.3670
  916MOL0     C26309   6.927   8.108   0.628  0.0018 -0.0283 -0.3154
  916MOL0     C26310   6.948   8.052   0.491  0.9412  0.0681  0.3467
  916MOL0     C26311   7.040   8.144   0.402  0.6878 -0.6466  0.1097
  916MOL0     C26312   7.072   8.088   0.259  0.2532  0.6505 -0.3654
  916MOL0     C26313   7.145   8.180   0.182 -0.3811  0.0984  0.7894
  916MOL0     C26314   7.211   8.137   0.052  0.0742  0.8041 -0.1495
  916MOL0    Cl26315   7.336   8.019   0.109 -0.0574  0.1719  0.2457
  916MOL0     C26316   6.840   8.044   1.158 -0.0379 -0.8315 -0.4776
  916MOL0     C26317   6.849   8.080   1.295 -1.1071  0.3034 -0.1461
  916MOL0     O26318   7.033   8.393   1.400 -0.0222  0.4675  0.0703
  916MOL0     C26319   7.006   8.246   1.724  0.3092  0.6702  0.0999
  916MOL0     C26320   7.025   8.264   1.854 -0.5755  0.1101 -0.0651
  916MOL0     N26321   6.999   8.885   2.489 -0.3525 -0.2478  0.1962
  916MOL0     N26322   7.021   8.995   2.553  0.9737  0.1180 -1.1513
  916MOL0     C26323   6.481   9.790   2.566  0.2099  0.7756  0.4109
  916MOL0     C26324   6.372   9.702   2.578 -0.3247 -0.1518 -0.2800
  916MOL0     C26325   5.964   9.540   2.665  0.6022 -0.4958  0.0764
  916MOL0     C26326   5.932   9.510   2.798  0.1131 -0.7412 -0.0364
  916MOL0     C26327   5.830   9.416   2.830 -0.0587 -0.1456 -1.1295
  916MOL0     C26328   5.767   9.341   2.732  0.4725 -0.7350 -0.7879
  916MOL0     O26329   5.679   9.249   2.761 -0.5566  0.3122 -0.2233
  916MOL0     C26330   5.699   9.166   2.878  0.2121 -0.0757 -0.0207
  916MOL0     C26331   5.628   9.031   2.862  0.9548  0.4172  0.4137
  916MOL0     C26332   5.656   8.927   2.974 -0.0723 -0.3609  0.2564
  916MOL0     C26333   5.621   8.785   2.931 -0.0524 -0.2277 -0.1621
  916MOL0     C26334   5.739   8.728   2.859 -0.6806 -0.3462  0.0539
  916MOL0     C26335   5.829   8.669   2.801 -0.7598 -0.7799 -0.1337
  916MOL0     C26336   5.796   9.373   2.604 -0.1759  0.2720  0.8721
  916MOL0     C26337   5.891   9.476   2.555 -0.1474  0.4454 -0.4179
  916MOL0     C26338   5.911   9.485   2.406  0.0564  0.1968  0.0931
  916MOL0     H26339   6.276   9.799   2.893  0.6593 -3.4708  0.1219
  916MOL0     H26340   6.452   9.953   2.864 -2.1546 -0.1061 -0.2328
  916MOL0     H26341   6.692   9.990   2.846 -2.1173 -1.1053 -0.2563
  916MOL0     H26342   6.808  10.022   2.719  1.9181 -0.3845  0.3112
  916MOL0     H26343   6.887   9.833   2.836  0.3019  2.5500 -2.7027
  916MOL0     H26344   6.729   9.758   2.865 -0.1578  3.1078  2.5736
  916MOL0     H26345   6.745   9.659   2.654  2.0521 -2.8474  1.0904
  916MOL0     H26346   6.857   9.789   2.585 -0.5771  1.9591  1.7424
  916MOL0     H26347   7.048   9.666   2.707  0.9707 -0.7731 -0.2280
  916MOL0     H26348   6.924   9.559   2.776  2.6889 -2.5410 -0.2208
  916MOL0     H26349   6.992   9.590   2.485 -0.8241  2.4417  0.6040
  916MOL0     H26350   6.858   9.499   2.542 -0.1870  1.3075  1.3161
  916MOL0     H26351   7.151   9.462   2.606  0.5037 -0.2865  2.9338
  916MOL0     H26352   7.024   9.384   2.702 -0.7167  0.3355 -0.3474
  916MOL0     H26353   7.029   9.352   2.394  0.7309 -1.5753 -0.7012
  916MOL0     H26354   6.934   9.268   2.522 -1.2443  1.4615  0.7012
  916MOL0     H26355   7.235   9.249   2.447  1.1946 -1.2198 -0.4129
  916MOL0     H26356   7.197   9.217   2.610 -0.5552 -0.0942 -0.6623
  916MOL0     H26357   7.172   9.070   2.282 -1.1550 -2.1243 -2.0925
  916MOL0     H26358   7.057   8.861   2.168 -1.1018 -0.7144  0.6137
  916MOL0     H26359   6.937   8.772   2.243 -0.8369  1.0909  2.3794
  916MOL0     H26360   7.224   8.701   2.311  0.2959  0.9874 -0.2845
  916MOL0     H26361   7.067   8.621   2.356 -4.3154  2.6103 -2.4048
  916MOL0     H26362   7.182   8.657   2.070  1.7981  2.8558  2.9146
  916MOL0     H26363   7.202   8.519   2.169  0.5858  0.1248 -1.1103
  916MOL0     H26364   6.929   8.524   2.181  2.2476 -3.9311  1.5046
  916MOL0     H26365   6.955   8.601   2.023  2.2271 -0.2775 -0.4924
  916MOL0     H26366   7.087   8.587   1.859  0.9988 -1.0054  0.0321
  916MOL0     H26367   7.107   8.683   1.666 -0.3829 -0.8828  1.3549
  916MOL0     H26368   6.985   8.640   1.552  1.3286 -0.5456  0.1085
  916MOL0     H26369   7.149   8.586   1.518  0.2064  1.9447 -0.6059
  916MOL0     H26370   7.166   8.190   1.309 -1.9223  2.6141  0.6162
  916MOL0     H26371   7.139   8.157   1.052 -1.1474  1.0593 -0.5865
  916MOL0     H26372   6.739   7.995   0.899 -0.7293  1.0019  1.5988
  916MOL0     H26373   6.787   8.164   0.865 -0.3488  1.6222 -0.5181
  916MOL0     H26374   6.901   7.915   0.722 -3.6194 -3.0897 -1.7929
  916MOL0     H26375   6.750   7.998   0.673  0.2415  2.9705 -1.6792
  916MOL0     H26376   7.018   8.138   0.681 -0.1243  1.4299 -0.8610
  916MOL0     H26377   6.873   8.203   0.616 -1.2284 -0.8217 -1.2341
  916MOL0     H26378   6.842   8.050   0.462  0.2962 -1.1994  2.5639
  916MOL0     H26379   7.000   7.956   0.492  0.7521 -0.0583 -0.7834
  916MOL0     H26380   6.994   8.241   0.381  1.2489 -0.5916 -0.9509
  916MOL0     H26381   7.128   8.174   0.461  0.3571  2.4408 -0.7720
  916MOL0     H26382   6.973   8.072   0.215 -1.4947  4.5904  1.6599
  916MOL0     H26383   7.127   7.993   0.268 -1.0676 -0.1724 -0.6372
  916MOL0     H26384   7.223   8.216   0.251  1.8483 -1.8953 -0.5293
  916MOL0     H26385   7.084   8.269   0.165 -0.5545 -0.1364  0.1677
  916MOL0     H26386   7.266   8.213  -0.005  0.0221  2.2561  1.6501
  916MOL0     H26387   7.142   8.090  -0.019 -0.5993  0.1174  0.9379
  916MOL0     H26388   6.746   7.997   1.132 -0.0370 -2.1844  1.6788
  916MOL0     H26389   6.768   8.048   1.359 -1.5934  0.1926 -0.8093
  916MOL0     H26390   6.974   8.144   1.706  2.3514 -0.2748  1.4242
  916MOL0     H26391   7.006   8.173   1.911  0.5681 -1.5258 -2.1404
  916MOL0     H26392   6.556   9.779   2.488 -0.8671  0.9126 -0.6708
  916MOL0     H26393   6.353   9.627   2.502  2.5476 -1.0229 -0.2213
  916MOL0     H26394   5.987   9.573   2.867 -2.3316  3.8782 -1.8776
  916MOL0     H26395   5.797   9.398   2.932 -1.3712 -2.3896 -1.8841
  916MOL0     H26396   5.806   9.143   2.884  0.1369 -0.5953 -0.5775
  916MOL0     H26397   5.674   9.205   2.977 -2.9356  0.6818 -0.9943
  916MOL0     H26398   5.639   9.000   2.758 -2.0616 -0.1258  0.1678
  916MOL0     H26399   5.525   9.068   2.860  0.6870  0.0226 -4.4640
  916MOL0     H26400   5.764   8.937   2.991  0.3343 -0.0707 -2.1757
  916MOL0     H26401   5.608   8.952   3.069 -2.5871 -2.8339 -0.2599
  916MOL0     H26402   5.531   8.795   2.870  0.5949  3.1248 -0.7584
  916MOL0     H26403   5.620   8.723   3.021 -1.5939 -1.2797 -0.8670
  916MOL0     H26404   5.907   8.611   2.758 -0.8240 -1.0738  0.1445
  916MOL0     H26405   5.765   9.306   2.524  0.4193 -0.4544  1.2418
  916MOL0     H26406   6.005   9.449   2.365  0.0387  3.6720 -3.6852
  916MOL0     H26407   5.841   9.418   2.356 -0.6851  0.2925  0.9804
  916MOL0     H26408   5.904   9.588   2.367  3.7264 -0.6726 -3.5835
  917MOL0     O26409   8.619   9.716   5.561  0.2651 -0.8104 -0.4159
  917MOL0     C26410   8.579   9.732   5.444 -0.1824  0.0933  0.8249
  917MOL0     O26411   8.450   9.716   5.401 -0.7864 -0.3403  0.1741
  917MOL0     C26412   8.361   9.682   5.497 -0.2537  0.1113 -0.5681
  917MOL0     C26413   8.258   9.767   5.548 -0.4031 -0.2999  0.3786
  917MOL0     C26414   8.167   9.728   5.642  0.4125  0.6185 -0.6048
  917MOL0     C26415   8.163   9.591   5.679 -0.8372  0.1294 -0.2445
  917MOL0     O26416   8.069   9.536   5.768 -0.4790 -0.1099  0.5203
  917MOL0     C26417   7.934   9.537   5.719 -0.5628  0.4822  0.3347
  917MOL0     C26418   7.907   9.392   5.658  0.7671 -0.6357  0.6542
  917MOL0     C26419   7.763   9.340   5.676 -0.8030 -0.1351  0.5588
  917MOL0     C26420   7.711   9.327   5.824 -0.1986  0.0408  0.0514
  917MOL0     C26421   7.570   9.281   5.825  0.8075 -0.0131 -0.4656
  917MOL0     C26422   7.463   9.354   5.733 -0.5343  0.2158  0.4936
  917MOL0     C26423   7.322   9.298   5.716  0.4770  0.2878 -0.8231
  917MOL0     C26424   7.311   9.156   5.651 -0.2081 -0.0137 -0.2327
  917MOL0     N26425   7.361   9.143   5.515 -0.0924  0.6625 -0.6815
  917MOL0     C26426   7.493   9.111   5.476  0.5484  0.5421 -0.4860
  917MOL0     C26427   7.490   9.151   5.348 -0.8680  0.8851  0.0207
  917MOL0     C26428   7.619   9.147   5.269  0.5091 -0.5781  0.3241
  917MOL0     C26429   7.646   9.285   5.197  0.1501 -0.2758 -0.2413
  917MOL0     C26430   7.761   9.259   5.105 -0.8304  0.1896  0.0615
  917MOL0     C26431   7.780   9.374   5.001 -0.2092  0.2438 -0.5180
  917MOL0     O26432   7.895   9.330   4.921 -0.4506  0.0249 -0.7288
  917MOL0     C26433   7.894   9.382   4.794 -0.2118  0.5201  0.6062
  917MOL0     C26434   7.936   9.505   4.760 -0.0791 -0.2643 -0.5066
  917MOL0     C26435   7.934   9.550   4.623  0.4732  0.3295 -0.6250
  917MOL0     C26436   7.986   9.693   4.594  0.5472 -0.5145 -0.2884
  917MOL0     C26437   7.886   9.463   4.528  1.9837  0.3024  0.6647
  917MOL0     C26438   7.885   9.493   4.380  0.2212  0.0946 -0.6731
  917MOL0     O26439   7.923   9.400   4.296 -0.6859 -0.4332  0.8208
  917MOL0     C26440   7.946   9.419   4.164  0.0589 -0.2918  0.2792
  917MOL0     C26441   7.991   9.540   4.112  0.0006  0.6875 -0.9671
  917MOL0     C26442   8.012   9.555   3.971  0.7193 -0.1737 -0.2176
  917MOL0     C26443   7.996   9.442   3.888 -0.6868 -0.5847 -0.6693
  917MOL0     O26444   8.041   9.452   3.763  0.8446 -1.0128 -0.0510
  917MOL0     C26445   8.019   9.343   3.672  0.6334 -0.9173  0.1274
  917MOL0     C26446   7.866   9.337   3.629  0.5507 -0.6375 -0.0517
  917MOL0     C26447   7.811   9.221   3.554  0.2616  0.1188  0.1253
  917MOL0     C26448   7.909   9.164   3.456  0.1222  0.2280  0.3606
  917MOL0     C26449   7.854   9.049   3.372  0.2117  1.1233 -1.1029
  917MOL0     C26450   7.834   8.926   3.457  0.4747  0.3408 -0.0338
  917MOL0     C26451   7.780   8.808   3.377  0.2213 -0.2699  0.2059
  917MOL0     C26452   7.753   8.680   3.460  1.0124  0.7412  0.3960
  917MOL0    Cl26453   7.596   8.708   3.561  1.0151 -0.4135  0.0942
  917MOL0     C26454   7.959   9.321   3.949 -0.5730 -0.0274  0.2310
  917MOL0     C26455   7.930   9.315   4.081  0.3963  0.1409  0.9228
  917MOL0     O26456   7.825   9.606   4.354 -0.1140  0.4597  1.1389
  917MOL0     C26457   7.847   9.332   4.562 -0.6605  0.2840 -0.5063
  917MOL0     C26458   7.843   9.294   4.694 -0.1029 -0.2640  0.2272
  917MOL0     N26459   7.362   9.186   5.308  0.1557 -0.3103 -0.4727
  917MOL0     N26460   7.289   9.189   5.411 -0.3138 -0.3820 -0.1345
  917MOL0     C26461   8.269   9.502   5.639  0.1398 -0.2439  0.8574
  917MOL0     C26462   8.357   9.547   5.539  0.4057  0.1740  0.2356
  917MOL0     C26463   8.684   9.729   5.329  0.3385  1.3204 -0.4040
  917MOL0     C26464   8.649   9.677   5.199 -1.0100  0.2925 -0.1214
  917MOL0     C26465   8.741   9.682   5.098 -0.0539  0.6582 -0.1158
  917MOL0     C26466   8.866   9.729   5.123  0.4561  0.2493 -0.4004
  917MOL0     O26467   8.954   9.726   5.018  0.2531 -0.2377  0.1171
  917MOL0     C26468   8.974   9.604   4.949 -0.4746 -0.0354  0.4835
  917MOL0     C26469   9.092   9.626   4.851  0.8563 -0.4561 -0.1261
  917MOL0     C26470   9.050   9.710   4.720  0.4806  0.6703 -0.3690
  917MOL0     C26471   9.174   9.757   4.653  0.0308 -0.3996 -0.3787
  917MOL0     C26472   9.231   9.874   4.719  0.1570  0.3040 -0.4296
  917MOL0     C26473   9.289   9.964   4.782  0.3768 -0.1447  0.5110
  917MOL0     C26474   8.915   9.766   5.246 -0.2710  1.0955  0.3066
  917MOL0     C26475   8.823   9.762   5.350  0.6706  0.0889  0.7080
  917MOL0     C26476   8.877   9.805   5.483  0.2462  0.1359  0.1530
  917MOL0     H26477   8.257   9.865   5.502  0.0608 -1.5176 -2.4348
  917MOL0     H26478   8.090   9.792   5.683 -1.0647 -0.1394 -2.0783
  917MOL0     H26479   7.903   9.602   5.637 -2.4407 -0.8515 -0.0660
  917MOL0     H26480   7.872   9.558   5.807 -0.1670 -2.0185  1.3010
  917MOL0     H26481   7.936   9.393   5.552  2.5568 -0.8919  1.1148
  917MOL0     H26482   7.980   9.327   5.706  0.8818 -1.1316 -0.1619
  917MOL0     H26483   7.700   9.423   5.641  0.9304 -0.1501 -3.0068
  917MOL0     H26484   7.743   9.256   5.609 -2.6356  2.7313 -2.8230
  917MOL0     H26485   7.775   9.263   5.885 -1.1521 -0.5402  0.4616
  917MOL0     H26486   7.713   9.427   5.869  0.6140  0.1994 -0.3111
  917MOL0     H26487   7.531   9.277   5.927  5.1592  0.8795  1.4627
  917MOL0     H26488   7.584   9.178   5.792  0.6307  0.1208 -0.9698
  917MOL0     H26489   7.455   9.451   5.783  1.9736  1.0655 -0.6052
  917MOL0     H26490   7.504   9.364   5.632 -0.6572  0.5646  0.4779
  917MOL0     H26491   7.259   9.370   5.663 -1.8035  1.8227  3.4629
  917MOL0     H26492   7.272   9.304   5.814  2.1182  3.7086 -0.0253
  917MOL0     H26493   7.363   9.078   5.707  2.6205  1.9771  0.1348
  917MOL0     H26494   7.206   9.125   5.646 -0.4310  0.5380  0.8439
  917MOL0     H26495   7.571   9.062   5.532 -0.6190 -0.0274  0.7013
  917MOL0     H26496   7.598   9.068   5.197 -0.6009  0.7640 -0.8672
  917MOL0     H26497   7.705   9.130   5.334 -0.7984 -5.2173  1.1971
  917MOL0     H26498   7.554   9.309   5.143  1.0817  1.4615 -1.1634
  917MOL0     H26499   7.660   9.370   5.265  1.3387  0.2151 -1.0673
  917MOL0     H26500   7.860   9.254   5.150  0.3015  0.7993 -2.1862
  917MOL0     H26501   7.749   9.163   5.054 -0.4615  0.2920 -0.2234
  917MOL0     H26502   7.700   9.377   4.927 -1.4923  2.4766  0.8597
  917MOL0     H26503   7.790   9.472   5.049 -0.1929 -0.0512  0.0930
  917MOL0     H26504   7.971   9.574   4.836  1.0485  0.4154 -1.5927
  917MOL0     H26505   8.054   9.676   4.510  1.5363 -1.1863  0.6377
  917MOL0     H26506   8.046   9.740   4.672  1.2642 -1.0065 -0.5376
  917MOL0     H26507   7.899   9.756   4.573  0.9923  0.8587  1.7195
  917MOL0     H26508   8.008   9.619   4.185  0.8482  0.2017 -0.6182
  917MOL0     H26509   8.060   9.643   3.929 -0.0882 -0.2105 -1.2801
  917MOL0     H26510   8.082   9.368   3.586  1.1129 -0.2079  0.6736
  917MOL0     H26511   8.059   9.248   3.710  3.5406  0.9795  2.2483
  917MOL0     H26512   7.800   9.347   3.715  0.2356  1.0280 -0.4520
  917MOL0     H26513   7.839   9.426   3.571 -1.9460  0.0858  2.0340
  917MOL0     H26514   7.726   9.253   3.493  0.1757 -2.8481 -1.4970
  917MOL0     H26515   7.788   9.144   3.628 -3.8004 -1.1323 -2.1176
  917MOL0     H26516   8.000   9.124   3.502 -0.1794 -2.1486 -0.9528
  917MOL0     H26517   7.931   9.239   3.379 -0.4188 -2.0136 -2.0978
  917MOL0     H26518   7.759   9.084   3.330 -0.3646  1.0438  0.1075
  917MOL0     H26519   7.928   9.022   3.296  1.9666 -1.6208  1.3515
  917MOL0     H26520   7.763   8.948   3.537 -0.4016 -0.8089 -0.4663
  917MOL0     H26521   7.926   8.895   3.506  0.0559 -2.3176 -0.7265
  917MOL0     H26522   7.849   8.790   3.294  0.1328  2.3473 -0.5259
  917MOL0     H26523   7.686   8.845   3.334  1.7598  1.9641 -1.4378
  917MOL0     H26524   7.835   8.667   3.532  0.0260 -1.2497  1.2395
  917MOL0     H26525   7.743   8.594   3.393  2.1317  1.4982 -0.7944
  917MOL0     H26526   7.954   9.233   3.885  1.3810 -0.0849  0.1134
  917MOL0     H26527   7.896   9.221   4.124  0.6024 -0.3578  0.0134
  917MOL0     H26528   7.809   9.261   4.490 -0.9604  1.5184 -1.6096
  917MOL0     H26529   7.802   9.196   4.718 -0.9205  0.5578  2.4181
  917MOL0     H26530   8.270   9.401   5.678 -1.9672  0.3531  2.6437
  917MOL0     H26531   8.432   9.473   5.513 -0.8049 -1.5831  1.5055
  917MOL0     H26532   8.550   9.633   5.188 -1.5448  1.0200  1.4630
  917MOL0     H26533   8.707   9.663   4.997 -0.7972  1.2259  0.0117
  917MOL0     H26534   9.013   9.534   5.023  1.3645  2.4208  2.0161
  917MOL0     H26535   8.886   9.567   4.895 -0.4344  3.1358 -2.1095
  917MOL0     H26536   9.116   9.525   4.815  0.0149 -1.0183  0.8361
  917MOL0     H26537   9.172   9.666   4.913 -0.0714 -0.8840  1.4159
  917MOL0     H26538   8.994   9.648   4.650  0.3495  0.1814  0.1583
  917MOL0     H26539   8.984   9.795   4.740 -3.1490 -1.7810 -0.9701
  917MOL0     H26540   9.158   9.787   4.549  1.1952 -3.5679 -1.5808
  917MOL0     H26541   9.252   9.680   4.651  1.7665  1.2831 -0.8909
  917MOL0     H26542   9.340  10.018   4.859 -2.8882 -1.6541  4.0851
  917MOL0     H26543   9.019   9.795   5.254  0.4972 -1.6205  0.9671
  917MOL0     H26544   8.829   9.899   5.512 -0.5221  0.3107 -1.5640
  917MOL0     H26545   8.858   9.732   5.562  0.7138 -0.3027 -0.1347
  917MOL0     H26546   8.983   9.832   5.476 -0.1967  1.8339 -0.4770
  918MOL0     O26547   3.646   5.855   5.991 -0.3577  0.0362  0.1641
  918MOL0     C26548   3.656   5.761   5.908 -0.8869 -0.3621 -0.1535
  918MOL0     O26549   3.570   5.671   5.881 -0.3041 -0.6917  0.0143
  918MOL0     C26550   3.433   5.688   5.904  0.1402  0.7329 -0.0619
  918MOL0     C26551   3.360   5.808   5.923  0.2248  0.3913 -0.4853
  918MOL0     C26552   3.223   5.800   5.918  0.3245  0.4722  1.1356
  918MOL0     C26553   3.154   5.680   5.925  0.3946 -0.2749  0.7058
  918MOL0     O26554   3.012   5.681   5.917 -0.5036 -0.1824 -0.5505
  918MOL0     C26555   2.960   5.620   6.037  0.8795  0.1911 -0.7985
  918MOL0     C26556   2.852   5.706   6.107 -0.6410 -0.6820  0.3622
  918MOL0     C26557   2.819   5.649   6.247  0.9154 -0.4547  0.2201
  918MOL0     C26558   2.724   5.732   6.330 -0.4401  0.2448 -0.1801
  918MOL0     C26559   2.589   5.749   6.259  0.5225 -0.4016  0.6773
  918MOL0     C26560   2.487   5.834   6.358 -0.1554  0.0743  0.4950
  918MOL0     C26561   2.339   5.799   6.350  0.9648 -0.7221 -0.4724
  918MOL0     C26562   2.284   5.671   6.398  0.2461  0.4861  0.3443
  918MOL0     N26563   2.141   5.687   6.431  0.7539 -1.2492 -0.4174
  918MOL0     C26564   2.090   5.665   6.564 -0.4378  0.2327  0.0165
  918MOL0     C26565   1.959   5.673   6.550  0.8550 -0.0666 -0.4663
  918MOL0     C26566   1.859   5.655   6.662  0.4211 -0.0166 -0.4833
  918MOL0     C26567   1.771   5.534   6.631 -0.3787 -1.1926  0.0089
  918MOL0     C26568   1.636   5.535   6.715  0.5241 -0.2286 -0.1814
  918MOL0     C26569   1.661   5.462   6.860 -0.0328 -0.1441  0.2516
  918MOL0     O26570   1.791   5.487   6.920  0.5461 -0.1819 -0.3078
  918MOL0     C26571   1.861   5.371   6.950 -0.7510  0.1778 -0.1017
  918MOL0     C26572   1.998   5.364   6.914 -0.6828  0.1648  0.3255
  918MOL0     C26573   2.085   5.255   6.951 -0.9042 -0.1107  0.1171
  918MOL0     C26574   2.236   5.267   6.928  0.1292  0.9136 -1.1510
  918MOL0     C26575   2.026   5.136   7.012 -0.5259 -0.4872 -0.2353
  918MOL0     C26576   2.097   5.010   7.051 -0.8001 -1.3692 -1.1490
  918MOL0     O26577   2.196   5.025   7.152  0.0629 -0.5643  0.2667
  918MOL0     C26578   2.259   4.907   7.199 -0.6476  0.2765  1.0008
  918MOL0     C26579   2.216   4.829   7.312 -0.0671  0.6758  0.7955
  918MOL0     C26580   2.274   4.705   7.334 -0.3258 -0.1832 -0.4208
  918MOL0     C26581   2.368   4.650   7.244 -0.0224 -0.4280 -0.4184
  918MOL0     O26582   2.404   4.516   7.229  0.3600 -0.2354 -0.0824
  918MOL0     C26583   2.335   4.422   7.310  0.3307  0.2937  0.5885
  918MOL0     C26584   2.405   4.377   7.441 -0.2643  0.8598  0.4559
  918MOL0     C26585   2.547   4.441   7.464  0.2960  0.7224  0.1689
  918MOL0     C26586   2.638   4.383   7.576 -0.3417  0.1301  0.2696
  918MOL0     C26587   2.767   4.475   7.585  0.0571  0.3543 -0.3967
  918MOL0     C26588   2.889   4.402   7.645  1.2222  0.5972 -0.0428
  918MOL0     C26589   3.013   4.500   7.656 -1.0031 -0.0446 -0.2958
  918MOL0     C26590   3.150   4.431   7.698  0.2296  0.5589  0.5344
  918MOL0    Cl26591   3.132   4.371   7.865  0.2226  0.5183  0.4497
  918MOL0     C26592   2.419   4.728   7.143 -0.5005 -0.2689  0.0740
  918MOL0     C26593   2.368   4.856   7.116  0.4615  0.0571 -0.4096
  918MOL0     O26594   2.070   4.904   6.995  1.1079  0.2800 -0.2440
  918MOL0     C26595   1.889   5.138   7.039 -0.4149 -0.3487 -0.0375
  918MOL0     C26596   1.812   5.260   7.016  0.2551 -1.0920  0.2550
  918MOL0     N26597   1.930   5.697   6.416 -0.9235 -0.8599  0.4198
  918MOL0     N26598   2.041   5.702   6.344 -0.4693 -0.1261 -0.3981
  918MOL0     C26599   3.227   5.559   5.917 -0.3687 -0.1535  0.5168
  918MOL0     C26600   3.363   5.563   5.903 -0.7154 -0.5451 -0.0014
  918MOL0     C26601   3.790   5.749   5.860 -0.2985  0.0322  1.0148
  918MOL0     C26602   3.889   5.702   5.945  0.1746  1.1812  0.2036
  918MOL0     C26603   4.020   5.655   5.900  1.5345 -0.1416 -0.7512
  918MOL0     C26604   4.053   5.684   5.772  0.6674 -0.0537  0.1918
  918MOL0     O26605   4.180   5.658   5.726  0.1982  0.3053  0.0003
  918MOL0     C26606   4.214   5.667   5.582  0.1332  0.3672 -0.2902
  918MOL0     C26607   4.331   5.577   5.538 -0.5515  0.2995  0.5570
  918MOL0     C26608   4.269   5.447   5.482 -0.5637  0.0206 -0.6175
  918MOL0     C26609   4.369   5.341   5.474  0.0703  0.1312  0.9717
  918MOL0     C26610   4.318   5.224   5.396 -0.2380  0.0050  0.1549
  918MOL0     C26611   4.273   5.135   5.330 -0.5612  0.7367 -0.2943
  918MOL0     C26612   3.961   5.753   5.686  0.2985  0.3799 -0.9554
  918MOL0     C26613   3.824   5.773   5.727  0.0776 -0.1472 -0.8308
  918MOL0     C26614   3.725   5.822   5.637  0.3234 -0.6327  0.4258
  918MOL0     H26615   3.417   5.900   5.920  1.9690 -0.5503  1.3669
  918MOL0     H26616   3.165   5.891   5.911 -1.2742 -0.6073 -0.2049
  918MOL0     H26617   3.041   5.597   6.107 -0.6856  1.7632  1.6479
  918MOL0     H26618   2.903   5.530   6.015 -2.4941  2.4726 -2.1912
  918MOL0     H26619   2.893   5.803   6.139  0.2923 -1.3902  1.3724
  918MOL0     H26620   2.768   5.710   6.036 -0.5235  2.5741  0.2535
  918MOL0     H26621   2.774   5.550   6.232  0.4308  0.0028 -1.7519
  918MOL0     H26622   2.915   5.638   6.297  2.7216  0.6350 -2.7362
  918MOL0     H26623   2.705   5.683   6.426 -2.1289  1.5234  0.1697
  918MOL0     H26624   2.770   5.830   6.341  0.1467 -0.1736  1.4258
  918MOL0     H26625   2.550   5.648   6.245 -1.9710  0.4107  1.2287
  918MOL0     H26626   2.596   5.803   6.164  1.6334 -1.3359  0.2080
  918MOL0     H26627   2.533   5.805   6.452  1.6116 -3.3232 -1.2410
  918MOL0     H26628   2.500   5.943   6.352 -0.1282  0.4370  4.5812
  918MOL0     H26629   2.307   5.785   6.247 -1.7505 -0.0456  0.1907
  918MOL0     H26630   2.292   5.883   6.403  4.6286  0.2472  1.6259
  918MOL0     H26631   2.290   5.587   6.327  0.0317  1.6302 -1.0692
  918MOL0     H26632   2.344   5.643   6.485 -0.5147 -0.4071  0.5934
  918MOL0     H26633   2.134   5.649   6.661 -0.1653  0.5059 -0.0578
  918MOL0     H26634   1.813   5.753   6.654 -0.1089 -0.1606  0.5959
  918MOL0     H26635   1.902   5.650   6.763 -0.7974  0.7429  0.0887
  918MOL0     H26636   1.747   5.543   6.525  0.1270  3.6229  0.0793
  918MOL0     H26637   1.830   5.444   6.647 -2.7906 -2.7101  1.0332
  918MOL0     H26638   1.590   5.633   6.731 -1.8042 -1.1038 -1.2257
  918MOL0     H26639   1.557   5.483   6.661  1.0379  1.2267 -2.4699
  918MOL0     H26640   1.586   5.499   6.931  0.7930 -0.2974  1.2309
  918MOL0     H26641   1.633   5.358   6.845  1.1352 -0.9606  2.9729
  918MOL0     H26642   2.039   5.451   6.865 -0.3706 -0.4795 -0.5853
  918MOL0     H26643   2.282   5.337   6.998  0.3356  0.3220 -0.6859
  918MOL0     H26644   2.258   5.289   6.823 -1.8219 -0.4121 -1.8932
  918MOL0     H26645   2.284   5.170   6.939 -1.4459  0.2489  0.2888
  918MOL0     H26646   2.147   4.872   7.384 -2.0108  3.8810 -2.6650
  918MOL0     H26647   2.225   4.664   7.422  0.9475  1.6219  1.1850
  918MOL0     H26648   2.231   4.449   7.327  0.6387  2.9908 -1.2361
  918MOL0     H26649   2.341   4.333   7.246  0.9946  0.3702  0.5370
  918MOL0     H26650   2.327   4.407   7.512 -1.3874  0.4155 -0.5567
  918MOL0     H26651   2.416   4.269   7.457  0.3719  0.8896  0.2319
  918MOL0     H26652   2.535   4.548   7.480  0.8468  0.7335  0.5304
  918MOL0     H26653   2.593   4.436   7.365 -1.0263 -1.8742 -0.4159
  918MOL0     H26654   2.679   4.286   7.549  1.8014  1.0548 -0.0354
  918MOL0     H26655   2.582   4.366   7.669 -0.6760 -0.1994  0.0071
  918MOL0     H26656   2.789   4.520   7.488 -2.0998 -0.1231 -1.1530
  918MOL0     H26657   2.736   4.552   7.656 -1.0300 -0.4810  0.0619
  918MOL0     H26658   2.916   4.323   7.574  0.5556 -0.3085  0.6896
  918MOL0     H26659   2.870   4.362   7.745 -1.6005  0.6914 -0.4516
  918MOL0     H26660   2.999   4.569   7.740  0.4207  1.9852 -1.6271
  918MOL0     H26661   3.029   4.561   7.567  1.6135  1.1048  0.8663
  918MOL0     H26662   3.232   4.504   7.704  1.1168 -0.1793 -1.7349
  918MOL0     H26663   3.184   4.364   7.618 -0.7735 -1.6547  1.8622
  918MOL0     H26664   2.492   4.693   7.071 -0.8002  1.3726 -1.0835
  918MOL0     H26665   2.397   4.916   7.031 -0.6822  0.7679 -0.3202
  918MOL0     H26666   1.859   5.046   7.087  1.8374 -0.5093  1.1986
  918MOL0     H26667   1.715   5.259   7.066  1.1264 -1.8931  2.0238
  918MOL0     H26668   3.182   5.464   5.945 -0.9180  0.0432  0.3288
  918MOL0     H26669   3.412   5.466   5.903 -0.3188 -0.3676 -1.6192
  918MOL0     H26670   3.848   5.679   6.043  0.4887 -1.5671 -0.2280
  918MOL0     H26671   4.079   5.604   5.976  0.0569 -0.5474  0.1628
  918MOL0     H26672   4.131   5.634   5.519 -0.8159  2.0592  0.0119
  918MOL0     H26673   4.241   5.769   5.553 -2.8168  1.5115  0.5866
  918MOL0     H26674   4.401   5.544   5.615 -0.3091 -0.1320  0.1582
  918MOL0     H26675   4.393   5.632   5.466 -0.1784  2.1499  2.1951
  918MOL0     H26676   4.184   5.418   5.544  1.8566 -0.3124  2.8753
  918MOL0     H26677   4.238   5.464   5.379 -0.9251  0.2064 -0.4785
  918MOL0     H26678   4.411   5.326   5.574 -1.4623  0.4628  1.7028
  918MOL0     H26679   4.447   5.383   5.411 -3.6494 -0.0233 -4.4429
  918MOL0     H26680   4.223   5.054   5.279  1.2437 -0.8882  0.4004
  918MOL0     H26681   3.983   5.788   5.586  2.6301 -0.5323 -0.8230
  918MOL0     H26682   3.772   5.882   5.559 -0.7045 -1.9102 -1.2482
  918MOL0     H26683   3.686   5.743   5.572 -0.5541  2.6139 -3.3608
  918MOL0     H26684   3.634   5.868   5.675  2.2085  2.0058  2.0930
  919MOL0     O26685   1.155   3.436   0.248 -0.6671 -0.7361  0.7018
  919MOL0     C26686   1.120   3.533   0.180  0.9506  0.3455  0.0719
  919MOL0     O26687   1.163   3.662   0.198  0.4373  0.0959 -0.0040
  919MOL0     C26688   1.262   3.689   0.289 -0.0106  0.1804 -0.9781
  919MOL0     C26689   1.211   3.702   0.423 -0.2097  0.3342 -0.5966
  919MOL0     C26690   1.308   3.734   0.523 -0.0655  0.4741  0.1723
  919MOL0     C26691   1.447   3.746   0.486  0.2072 -0.3327 -1.0990
  919MOL0     O26692   1.524   3.762   0.590 -1.0129  0.1284 -0.4417
  919MOL0     C26693   1.668   3.738   0.576 -0.1001  0.2549  0.4519
  919MOL0     C26694   1.738   3.779   0.709 -0.1890  0.2924  0.4012
  919MOL0     C26695   1.759   3.926   0.728 -0.4102 -0.0750  1.4945
  919MOL0     C26696   1.835   3.976   0.850 -0.8262  0.4354 -0.2329
  919MOL0     C26697   1.983   3.916   0.858 -0.0177 -0.2877  0.5480
  919MOL0     C26698   2.057   3.959   0.991  0.3932 -0.6621  0.3691
  919MOL0     C26699   2.184   4.056   0.982 -0.1219 -0.1366  0.3604
  919MOL0     C26700   2.125   4.192   0.937  0.7292 -0.4402  0.3371
  919MOL0     N26701   2.206   4.309   0.936 -0.3698 -0.3099  0.2845
  919MOL0     C26702   2.235   4.376   1.048  0.3774 -0.1447  0.2328
  919MOL0     C26703   2.316   4.469   1.009 -0.3865 -0.6377  0.2230
  919MOL0     C26704   2.361   4.588   1.090  0.0565 -0.3935 -1.0724
  919MOL0     C26705   2.267   4.710   1.052  0.5407 -0.2038 -0.6012
  919MOL0     C26706   2.276   4.830   1.146  0.7196 -0.4550 -0.5281
  919MOL0     C26707   2.155   4.929   1.128  0.1901  0.4322  0.3237
  919MOL0     O26708   2.157   5.031   1.228 -0.3241  0.6380  0.3120
  919MOL0     C26709   2.037   5.050   1.286  0.7213 -1.0956 -0.8100
  919MOL0     C26710   1.967   5.161   1.245  0.2233 -0.1194  0.6291
  919MOL0     C26711   1.837   5.182   1.286  1.2091 -0.4011 -0.8005
  919MOL0     C26712   1.751   5.284   1.220 -0.8142 -0.1309  0.3333
  919MOL0     C26713   1.783   5.099   1.396  0.7057 -0.3398  0.5511
  919MOL0     C26714   1.657   5.110   1.464  0.1032  0.3925  0.8788
  919MOL0     O26715   1.650   5.049   1.587 -0.2418 -0.4057  0.0398
  919MOL0     C26716   1.521   5.040   1.641  0.3571 -0.6313  0.3293
  919MOL0     C26717   1.437   4.928   1.618 -0.3823 -0.2109  0.5393
  919MOL0     C26718   1.312   4.906   1.675  0.3165 -0.8887  0.0685
  919MOL0     C26719   1.260   5.015   1.751 -0.3931  0.2689 -0.4323
  919MOL0     O26720   1.134   5.005   1.794 -0.6814  0.0362 -0.5871
  919MOL0     C26721   1.080   5.116   1.860  0.0356 -0.6020 -1.6272
  919MOL0     C26722   0.927   5.089   1.859  0.6430 -0.3611 -0.4237
  919MOL0     C26723   0.853   5.187   1.964 -0.0532  0.2238  0.7847
  919MOL0     C26724   0.852   5.110   2.097  0.3833 -0.2702  0.8925
  919MOL0     C26725   0.760   5.182   2.202 -0.5379 -0.2927 -0.1301
  919MOL0     C26726   0.818   5.325   2.246  0.1751  0.3903  0.2111
  919MOL0     C26727   0.957   5.313   2.311 -0.2242 -0.7754  0.2029
  919MOL0     C26728   1.022   5.453   2.320  0.5482 -0.2616 -0.4356
  919MOL0    Cl26729   0.935   5.555   2.428  0.3648 -0.2490  0.3112
  919MOL0     C26730   1.348   5.121   1.778  0.1848 -0.4883 -0.3977
  919MOL0     C26731   1.471   5.142   1.719  0.0566 -0.7595  0.0510
  919MOL0     O26732   1.566   5.174   1.410 -0.7269 -0.2886  0.5530
  919MOL0     C26733   1.863   4.990   1.438 -0.0660 -0.0691 -0.0294
  919MOL0     C26734   1.985   4.965   1.380  0.3389  0.2429  0.5854
  919MOL0     N26735   2.328   4.466   0.873 -0.1438  0.9371  0.0721
  919MOL0     N26736   2.253   4.369   0.829  0.0323  0.1814  0.3132
  919MOL0     C26737   1.483   3.730   0.353  0.0507  0.1689  0.8189
  919MOL0     C26738   1.399   3.693   0.256 -0.0115  0.0864 -0.7796
  919MOL0     C26739   0.995   3.513   0.094  0.1939  0.5440 -0.3630
  919MOL0     C26740   0.885   3.616   0.093 -0.3094  0.4602 -0.2882
  919MOL0     C26741   0.771   3.600   0.009  0.6363  0.4104  0.3507
  919MOL0     C26742   0.761   3.482  -0.072  0.5267 -0.0165 -0.4393
  919MOL0     O26743   0.659   3.436  -0.147  0.1178  0.1323 -0.7561
  919MOL0     C26744   0.533   3.511  -0.155 -0.5485 -0.3250  1.0161
  919MOL0     C26745   0.427   3.456  -0.249  0.1810 -0.6867  0.4323
  919MOL0     C26746   0.406   3.303  -0.258 -0.3677  0.4202 -0.0039
  919MOL0     C26747   0.403   3.231  -0.115 -0.3601  0.0290  0.4582
  919MOL0     C26748   0.449   3.092  -0.138  0.4707 -0.4953  0.3328
  919MOL0     C26749   0.489   2.979  -0.151  0.8340  0.3820 -0.6001
  919MOL0     C26750   0.861   3.377  -0.052  0.9767 -0.1219  0.5967
  919MOL0     C26751   0.981   3.394   0.017  0.2599  0.4747 -0.6772
  919MOL0     C26752   1.086   3.283   0.016 -0.0945 -0.2204 -0.0697
  919MOL0     H26753   1.107   3.691   0.451  0.2473  1.2408  1.6920
  919MOL0     H26754   1.276   3.753   0.625 -0.2742 -0.4000  0.2809
  919MOL0     H26755   1.704   3.809   0.501  0.7637  1.0045  1.5412
  919MOL0     H26756   1.688   3.637   0.540 -0.0039  1.2910 -2.6386
  919MOL0     H26757   1.701   3.734   0.802 -1.6693  1.4596  0.4259
  919MOL0     H26758   1.841   3.747   0.693 -0.1272  0.6692  0.0390
  919MOL0     H26759   1.820   3.966   0.646  1.9320 -3.1056  1.5735
  919MOL0     H26760   1.662   3.977   0.728 -0.3954  0.1868 -2.0447
  919MOL0     H26761   1.831   4.085   0.858 -2.5527  0.4125 -0.2562
  919MOL0     H26762   1.788   3.933   0.939  0.8387 -1.0205 -0.0172
  919MOL0     H26763   2.048   3.950   0.777 -0.5163  4.1921  1.7585
  919MOL0     H26764   1.979   3.807   0.866  1.5232 -0.2354  2.5640
  919MOL0     H26765   1.983   3.993   1.064 -1.5843 -0.4074 -1.6489
  919MOL0     H26766   2.110   3.873   1.034 -2.7015 -3.0698 -0.1986
  919MOL0     H26767   2.255   4.023   0.906 -1.0673  1.7240 -1.4197
  919MOL0     H26768   2.233   4.055   1.080  3.2810 -1.0938 -1.2062
  919MOL0     H26769   2.093   4.181   0.832  1.1027 -1.9244  0.3630
  919MOL0     H26770   2.038   4.201   1.002  0.5558  2.2052 -0.1158
  919MOL0     H26771   2.186   4.351   1.141 -5.3544  0.3401 -2.2207
  919MOL0     H26772   2.461   4.629   1.073  0.2079 -0.3255 -0.1040
  919MOL0     H26773   2.347   4.587   1.199 -0.0600  2.7979 -0.9499
  919MOL0     H26774   2.286   4.751   0.953 -1.0642  2.7730  0.2027
  919MOL0     H26775   2.166   4.668   1.056 -0.0956  1.0999 -1.9583
  919MOL0     H26776   2.276   4.796   1.250 -0.5965  1.0768  0.0202
  919MOL0     H26777   2.373   4.880   1.141  1.2071 -1.4732 -2.0744
  919MOL0     H26778   2.165   4.969   1.027 -1.3468 -2.6255 -1.1796
  919MOL0     H26779   2.066   4.865   1.132  0.5329 -0.1230 -0.6836
  919MOL0     H26780   2.010   5.219   1.164  0.8424 -0.6156  0.6034
  919MOL0     H26781   1.783   5.313   1.120 -3.0152  4.0070  0.6346
  919MOL0     H26782   1.746   5.368   1.289  0.7583  0.3881 -0.1431
  919MOL0     H26783   1.647   5.254   1.203 -0.4179 -1.9804  0.8854
  919MOL0     H26784   1.481   4.849   1.559 -1.9638  0.3426 -1.4912
  919MOL0     H26785   1.250   4.824   1.640 -0.6157 -0.0367 -0.3217
  919MOL0     H26786   1.120   5.117   1.962 -0.2428  0.4691 -1.5132
  919MOL0     H26787   1.102   5.212   1.813 -0.0369 -0.8333 -2.1368
  919MOL0     H26788   0.889   5.098   1.757 -0.8799  1.3790  0.2562
  919MOL0     H26789   0.905   4.985   1.885 -0.4937 -0.1648 -0.5462
  919MOL0     H26790   0.752   5.214   1.931 -0.0060 -0.9942 -0.4451
  919MOL0     H26791   0.908   5.281   1.969  3.4219 -1.6853  1.8005
  919MOL0     H26792   0.949   5.082   2.138  1.1123  1.8796  0.7648
  919MOL0     H26793   0.802   5.020   2.061  0.9699  0.4156 -1.8894
  919MOL0     H26794   0.660   5.199   2.159 -1.2438 -1.9184  0.7491
  919MOL0     H26795   0.741   5.116   2.287 -0.8850  0.2529  0.2193
  919MOL0     H26796   0.745   5.362   2.318  2.0525  0.1727  2.3400
  919MOL0     H26797   0.820   5.387   2.156  3.6160 -0.0432 -0.1446
  919MOL0     H26798   1.026   5.253   2.250 -0.3177 -0.9674  0.2858
  919MOL0     H26799   0.937   5.267   2.408 -0.9728  1.0560  0.9583
  919MOL0     H26800   1.038   5.490   2.218  0.0222 -3.9890 -2.0398
  919MOL0     H26801   1.120   5.436   2.366 -0.5337 -2.8325  1.1279
  919MOL0     H26802   1.329   5.182   1.866 -1.5084 -0.6840 -0.5895
  919MOL0     H26803   1.530   5.231   1.736  0.4451 -0.4749 -2.4479
  919MOL0     H26804   1.826   4.935   1.524  0.3127  1.8717  1.4360
  919MOL0     H26805   2.033   4.870   1.403 -0.5987 -1.0129 -2.1995
  919MOL0     H26806   1.586   3.740   0.320  0.2228  2.6239  1.9601
  919MOL0     H26807   1.432   3.687   0.153  2.5451 -1.6719  0.0157
  919MOL0     H26808   0.881   3.705   0.156 -1.7797  1.4849 -1.7488
  919MOL0     H26809   0.699   3.682   0.009  0.2601  0.0848 -0.1023
  919MOL0     H26810   0.505   3.509  -0.049 -0.3933  0.0830  1.0673
  919MOL0     H26811   0.557   3.613  -0.188  0.4025 -1.0727 -0.7205
  919MOL0     H26812   0.448   3.509  -0.343 -1.0144 -2.4220 -0.8911
  919MOL0     H26813   0.331   3.488  -0.208 -0.4963 -1.8662 -0.1611
  919MOL0     H26814   0.311   3.282  -0.307  0.3692 -0.1097 -1.2394
  919MOL0     H26815   0.487   3.270  -0.324 -0.3691 -2.7206  1.3903
  919MOL0     H26816   0.297   3.219  -0.089 -0.7994 -0.4355 -1.4416
  919MOL0     H26817   0.458   3.277  -0.032  1.7911 -3.8091  1.4277
  919MOL0     H26818   0.528   2.880  -0.164  0.9577 -0.1627  2.9799
  919MOL0     H26819   0.845   3.279  -0.096  3.6283 -0.3862  0.0367
  919MOL0     H26820   1.114   3.248   0.115  0.0002  1.7933  0.6536
  919MOL0     H26821   1.057   3.194  -0.042 -0.6213  1.1611 -2.0350
  919MOL0     H26822   1.170   3.315  -0.047 -0.7486  1.4385 -0.1324
  920MOL0     O26823   5.759   0.514   3.141 -0.0763 -0.2700  0.4135
  920MOL0     C26824   5.660   0.542   3.206 -0.5759  0.0047 -1.0034
  920MOL0     O26825   5.563   0.629   3.164  0.5042 -0.1789  0.2175
  920MOL0     C26826   5.574   0.690   3.044 -0.5658 -0.7990 -0.0957
  920MOL0     C26827   5.578   0.830   3.041 -1.2937  0.6306  0.6288
  920MOL0     C26828   5.609   0.897   2.918 -0.3065  0.0156  0.0932
  920MOL0     C26829   5.623   0.829   2.796  0.3347  0.2190  0.2258
  920MOL0     O26830   5.674   0.881   2.686  1.0565 -0.5500  0.0900
  920MOL0     C26831   5.616   0.997   2.624 -0.4196  0.3246  0.0821
  920MOL0     C26832   5.716   1.113   2.588  0.3205  0.9781 -0.5280
  920MOL0     C26833   5.824   1.060   2.488  0.1298  0.1897 -0.1916
  920MOL0     C26834   5.945   1.004   2.561 -0.4845  0.5163 -0.2747
  920MOL0     C26835   6.060   0.965   2.468 -0.1080  0.0447  0.2691
  920MOL0     C26836   6.173   0.897   2.526  0.8067 -0.3114 -0.8337
  920MOL0     C26837   6.265   0.838   2.422 -0.7096 -0.8789  0.0018
  920MOL0     C26838   6.373   0.753   2.492  0.6127  0.2409  0.4673
  920MOL0     N26839   6.465   0.670   2.409  0.0108  0.2930 -0.5683
  920MOL0     C26840   6.425   0.584   2.314  0.5049 -0.5337  0.1962
  920MOL0     C26841   6.536   0.538   2.268 -0.1210 -0.3582  0.9259
  920MOL0     C26842   6.554   0.472   2.130 -0.0162  0.3336  0.1122
  920MOL0     C26843   6.564   0.568   2.007 -0.2227 -0.0035 -0.3004
  920MOL0     C26844   6.662   0.687   2.022  0.1184  0.0559  0.5989
  920MOL0     C26845   6.802   0.643   1.978 -0.1575  0.2637 -0.1720
  920MOL0     O26846   6.904   0.750   1.977  0.3411  0.4246 -0.7606
  920MOL0     C26847   6.938   0.805   2.103  0.1405 -0.4204  0.4869
  920MOL0     C26848   6.919   0.753   2.219  1.1919  0.3884 -0.3445
  920MOL0     C26849   6.959   0.811   2.346 -1.1117 -1.2982 -0.0043
  920MOL0     C26850   6.925   0.744   2.480  0.3493 -0.6244  0.2837
  920MOL0     C26851   7.024   0.932   2.342  0.6939  0.5096 -0.6167
  920MOL0     C26852   7.056   1.006   2.459  0.2127 -1.0494 -1.0110
  920MOL0     O26853   7.153   0.966   2.554 -0.6979 -0.1533  0.9741
  920MOL0     C26854   7.204   1.032   2.665  0.8144 -0.3736  0.0480
  920MOL0     C26855   7.252   0.950   2.765  0.1670  0.2679 -0.7556
  920MOL0     C26856   7.320   1.007   2.864  0.3385 -0.5261 -0.7779
  920MOL0     C26857   7.343   1.150   2.870  0.8964  0.0994 -0.2696
  920MOL0     O26858   7.414   1.199   2.984  0.4337 -0.3616  0.5851
  920MOL0     C26859   7.401   1.337   3.021 -0.3405  0.1009 -0.4096
  920MOL0     C26860   7.499   1.384   3.122 -0.1928 -0.2829 -0.2220
  920MOL0     C26861   7.638   1.370   3.061 -0.3580 -0.7701  1.2747
  920MOL0     C26862   7.746   1.397   3.164 -0.1267 -0.0291  0.0484
  920MOL0     C26863   7.840   1.510   3.119 -0.3333 -0.0529  0.0139
  920MOL0     C26864   7.951   1.540   3.227 -1.1008 -0.2717  0.9299
  920MOL0     C26865   8.014   1.415   3.283 -0.1813 -0.4823 -0.5065
  920MOL0     C26866   8.145   1.440   3.362  0.3668  0.7916 -0.1826
  920MOL0    Cl26867   8.136   1.559   3.496 -0.3645  0.5962 -0.1931
  920MOL0     C26868   7.305   1.230   2.768  0.0392 -0.2282 -0.7716
  920MOL0     C26869   7.217   1.176   2.674 -0.8156 -0.5381 -0.1740
  920MOL0     O26870   6.988   1.110   2.473 -0.2948  0.7848  0.0344
  920MOL0     C26871   7.056   0.991   2.219 -0.3258 -0.0310 -0.0561
  920MOL0     C26872   7.013   0.918   2.103  0.1577 -0.0177  0.3990
  920MOL0     N26873   6.646   0.591   2.336  0.3386  0.0880  0.1714
  920MOL0     N26874   6.596   0.681   2.411  0.5616 -0.3879 -0.4324
  920MOL0     C26875   5.607   0.689   2.802 -0.2526 -0.5258  0.1215
  920MOL0     C26876   5.584   0.617   2.922  0.3056  0.6084  0.1111
  920MOL0     C26877   5.626   0.462   3.324  0.5695 -0.3330  1.2737
  920MOL0     C26878   5.523   0.509   3.406 -1.1247  0.2425 -0.4470
  920MOL0     C26879   5.489   0.445   3.526 -0.1027 -0.0699  0.1318
  920MOL0     C26880   5.552   0.317   3.548  0.0116 -1.1244 -0.6761
  920MOL0     O26881   5.537   0.239   3.658 -0.2592 -0.1444 -0.3339
  920MOL0     C26882   5.465   0.284   3.771  0.0179  1.3577 -0.0320
  920MOL0     C26883   5.494   0.186   3.889  0.8838 -0.2626  0.2641
  920MOL0     C26884   5.389   0.203   4.008 -0.4136 -0.0954  0.0988
  920MOL0     C26885   5.444   0.274   4.141  0.5681 -0.0013  0.2004
  920MOL0     C26886   5.461   0.415   4.123 -0.7181 -0.1296  0.4383
  920MOL0     C26887   5.484   0.529   4.095  0.1185  0.6316  0.0726
  920MOL0     C26888   5.645   0.262   3.457  0.9579 -0.6717 -0.4098
  920MOL0     C26889   5.683   0.338   3.349  0.3861  0.3884 -0.1145
  920MOL0     C26890   5.773   0.264   3.254 -0.3319  1.1544 -0.9888
  920MOL0     H26891   5.577   0.877   3.140 -1.0939 -0.3974  1.1313
  920MOL0     H26892   5.639   1.001   2.904  1.9592 -0.2084  2.4961
  920MOL0     H26893   5.529   1.033   2.682  0.0820 -0.6159  1.4784
  920MOL0     H26894   5.573   0.968   2.528  4.2753 -0.9234 -1.8834
  920MOL0     H26895   5.663   1.195   2.538 -0.8536  0.1775 -0.6317
  920MOL0     H26896   5.758   1.141   2.686  2.1803  0.7169 -1.2070
  920MOL0     H26897   5.769   0.993   2.422 -0.8460  2.2797 -1.6449
  920MOL0     H26898   5.862   1.144   2.429  0.8935 -0.0140  0.0074
  920MOL0     H26899   5.973   1.084   2.630  0.2706 -0.6530  0.8198
  920MOL0     H26900   5.906   0.920   2.620  1.1006  0.1153  0.2704
  920MOL0     H26901   6.098   1.053   2.414  4.2370 -1.1826  0.9650
  920MOL0     H26902   6.009   0.908   2.389 -1.6097  0.5208  0.8696
  920MOL0     H26903   6.214   0.959   2.606  2.7823  0.0213 -2.0440
  920MOL0     H26904   6.123   0.809   2.569  1.5739 -0.3022  0.0981
  920MOL0     H26905   6.294   0.909   2.344 -2.1382  0.8279  0.9639
  920MOL0     H26906   6.210   0.762   2.366 -1.1264 -2.8278  2.8026
  920MOL0     H26907   6.444   0.799   2.561 -0.2535  1.9425  0.2805
  920MOL0     H26908   6.313   0.679   2.544 -0.0576  2.0319  2.3675
  920MOL0     H26909   6.328   0.555   2.275  0.3213  0.7693 -0.3577
  920MOL0     H26910   6.474   0.397   2.123  0.7930 -0.4607 -0.9932
  920MOL0     H26911   6.651   0.422   2.142 -0.5098 -0.4570  0.9741
  920MOL0     H26912   6.592   0.509   1.920 -1.7244  1.9349 -2.2278
  920MOL0     H26913   6.461   0.604   1.994 -1.0950 -1.3490  2.2619
  920MOL0     H26914   6.629   0.775   1.965 -2.1969 -1.8279 -1.1744
  920MOL0     H26915   6.675   0.703   2.129 -1.0049  1.3107  0.5713
  920MOL0     H26916   6.840   0.556   2.032  1.1775 -0.5572 -2.2877
  920MOL0     H26917   6.806   0.593   1.881  0.7497 -4.9869  2.1949
  920MOL0     H26918   6.864   0.660   2.224  1.1454  0.3828 -0.9133
  920MOL0     H26919   6.834   0.787   2.522 -1.9361 -4.0280 -0.8221
  920MOL0     H26920   7.007   0.764   2.551  0.8766 -2.6901  0.3247
  920MOL0     H26921   6.920   0.636   2.464 -3.3963 -0.6430  0.7437
  920MOL0     H26922   7.239   0.842   2.767 -0.2468  0.3299 -0.0024
  920MOL0     H26923   7.350   0.942   2.945  1.1972  0.8579  0.0772
  920MOL0     H26924   7.414   1.398   2.931 -3.1381  1.5237  0.0383
  920MOL0     H26925   7.302   1.354   3.065  0.6343  2.7324  0.9673
  920MOL0     H26926   7.498   1.491   3.145 -0.9483  0.4701 -3.2563
  920MOL0     H26927   7.487   1.322   3.211  1.2008 -2.5825 -1.5476
  920MOL0     H26928   7.644   1.443   2.981  2.3532 -1.9090  0.2894
  920MOL0     H26929   7.667   1.277   3.010  4.2450  0.4908  1.0775
  920MOL0     H26930   7.799   1.302   3.173 -2.4236 -1.3826 -0.1135
  920MOL0     H26931   7.706   1.427   3.261  2.0285  4.8903 -0.2873
  920MOL0     H26932   7.883   1.479   3.024  0.6797 -0.4759  0.5875
  920MOL0     H26933   7.791   1.603   3.089  2.7475  0.8430 -2.7015
  920MOL0     H26934   7.923   1.601   3.313  1.7064  1.1160  0.9613
  920MOL0     H26935   8.021   1.608   3.179 -0.7202 -0.3410  1.3842
  920MOL0     H26936   8.035   1.347   3.200 -0.5657 -1.9095  0.5382
  920MOL0     H26937   7.928   1.379   3.340 -0.7081  0.4555 -0.6776
  920MOL0     H26938   8.210   1.494   3.292 -1.7690  2.2634 -1.1506
  920MOL0     H26939   8.191   1.346   3.393 -3.8291 -0.8041  2.0624
  920MOL0     H26940   7.330   1.334   2.747 -1.6560 -0.2567 -3.4386
  920MOL0     H26941   7.192   1.251   2.599 -1.1068 -2.1073 -1.7085
  920MOL0     H26942   7.110   1.085   2.214 -2.0019  1.2677  2.9748
  920MOL0     H26943   7.044   0.955   2.006 -0.4174  1.9045  0.9147
  920MOL0     H26944   5.615   0.624   2.715  0.9556 -3.2159  2.0788
  920MOL0     H26945   5.568   0.510   2.922  0.0984  0.6097  1.8724
  920MOL0     H26946   5.483   0.606   3.380  1.3397  0.3686 -4.7590
  920MOL0     H26947   5.415   0.487   3.593  0.5954  0.2035  0.7527
  920MOL0     H26948   5.488   0.390   3.786  0.0869  1.2566  0.6131
  920MOL0     H26949   5.359   0.285   3.746 -0.5030 -1.9221  1.5344
  920MOL0     H26950   5.598   0.199   3.919  1.9314  1.6514 -3.5361
  920MOL0     H26951   5.477   0.083   3.857 -4.2624  0.0667  0.9716
  920MOL0     H26952   5.300   0.257   3.975 -1.0287  0.2327  2.1595
  920MOL0     H26953   5.360   0.106   4.048 -2.2103  1.1826  2.1022
  920MOL0     H26954   5.543   0.238   4.171  1.5725  3.2233  1.2677
  920MOL0     H26955   5.372   0.256   4.221  1.7249  0.8289  1.4753
  920MOL0     H26956   5.505   0.630   4.064 -1.6593  1.1745  0.4940
  920MOL0     H26957   5.696   0.169   3.480  0.8233 -0.8858 -0.9662
  920MOL0     H26958   5.758   0.278   3.146  0.8727  0.0732 -1.3272
  920MOL0     H26959   5.881   0.278   3.262 -0.1215  1.1495 -3.1329
  920MOL0     H26960   5.764   0.156   3.269 -2.0896  1.2777 -1.0073
  921MOL0     O26961  11.376   7.572   8.328 -0.2702 -0.1965  0.4466
  921MOL0     C26962  11.411   7.683   8.292 -1.2071 -0.2056 -0.8267
  921MOL0     O26963  11.508   7.722   8.207 -0.4550  1.1425 -0.1432
  921MOL0     C26964  11.587   7.619   8.147 -0.3456 -0.0081 -0.8676
  921MOL0     C26965  11.531   7.531   8.058 -0.6136 -0.0249  0.3725
  921MOL0     C26966  11.602   7.416   8.014  0.4810  0.3725 -0.0389
  921MOL0     C26967  11.730   7.382   8.073  0.5441  0.8233  0.7981
  921MOL0     O26968  11.800   7.263   8.051 -0.3530  0.6512  0.4913
  921MOL0     C26969  11.721   7.152   7.990 -0.0668  0.0538  0.6858
  921MOL0     C26970  11.799   7.021   7.995  0.4486 -0.9562  0.6154
  921MOL0     C26971  11.697   6.908   7.950  0.0235  0.4633 -0.4522
  921MOL0     C26972  11.781   6.800   7.880  0.2178  0.3136 -0.6395
  921MOL0     C26973  11.699   6.681   7.822 -0.1640 -0.0747  0.0752
  921MOL0     C26974  11.794   6.580   7.754  1.0905 -0.3072  0.0707
  921MOL0     C26975  11.854   6.478   7.849  0.1171  0.1087 -0.3655
  921MOL0     C26976  11.962   6.390   7.770  0.4031  0.5706  0.1430
  921MOL0     N26977  11.901   6.329   7.653 -0.5903  0.2532 -0.4630
  921MOL0     C26978  11.818   6.219   7.653  0.1991 -1.0017 -0.1244
  921MOL0     C26979  11.831   6.171   7.527 -0.9454  0.8859 -1.6592
  921MOL0     C26980  11.772   6.035   7.512  0.2669 -0.4794  0.2847
  921MOL0     C26981  11.652   6.032   7.415 -1.2073  0.7074 -0.8635
  921MOL0     C26982  11.612   5.879   7.383 -0.0994 -0.1678  0.3603
  921MOL0     C26983  11.477   5.866   7.313 -0.4442 -0.4014 -0.1375
  921MOL0     O26984  11.378   5.840   7.412  0.5599  0.0273 -0.6387
  921MOL0     C26985  11.262   5.898   7.392  0.6281  0.2853  0.2144
  921MOL0     C26986  11.147   5.835   7.349  0.1097 -0.0970 -0.0834
  921MOL0     C26987  11.030   5.906   7.333 -1.5176 -0.8251  0.5256
  921MOL0     C26988  10.925   5.835   7.265 -0.1307 -0.5177 -1.3557
  921MOL0     C26989  11.024   6.034   7.396  1.3397 -0.3733  0.5845
  921MOL0     C26990  10.895   6.109   7.414  0.5996 -0.3745 -0.5591
  921MOL0     O26991  10.780   6.061   7.361 -0.2432 -0.0950  0.2485
  921MOL0     C26992  10.667   6.098   7.436 -1.1548  0.0001  0.0052
  921MOL0     C26993  10.650   6.108   7.581  0.0245  0.1769  0.6432
  921MOL0     C26994  10.529   6.132   7.641  1.0341  0.8341  0.5234
  921MOL0     C26995  10.413   6.158   7.564  0.0559  0.0425  0.9272
  921MOL0     O26996  10.291   6.187   7.609  0.2011 -0.2616 -0.1407
  921MOL0     C26997  10.268   6.174   7.755 -0.1056  0.9119  0.1992
  921MOL0     C26998  10.234   6.036   7.807 -0.1034 -0.2390  0.6099
  921MOL0     C26999  10.237   6.035   7.959  0.0090  0.8693  0.5424
  921MOL0     C27000  10.190   5.892   8.003  0.7016 -0.4214  0.3276
  921MOL0     C27001  10.047   5.893   8.050  0.8403  0.2506  0.7182
  921MOL0     C27002   9.953   5.838   7.940 -0.0775 -0.6050 -1.6272
  921MOL0     C27003   9.805   5.877   7.980  0.5923 -0.7034  0.3277
  921MOL0     C27004   9.703   5.858   7.866 -1.1749  0.7385 -0.8888
  921MOL0    Cl27005   9.732   5.694   7.798  0.1197 -0.0454  0.6579
  921MOL0     C27006  10.426   6.167   7.426 -0.1366 -0.2068 -0.2323
  921MOL0     C27007  10.545   6.130   7.362  0.0306 -0.4472  0.2994
  921MOL0     O27008  10.900   6.215   7.485  0.2927 -0.1393 -0.2786
  921MOL0     C27009  11.140   6.094   7.438  0.8840 -0.0792 -0.9316
  921MOL0     C27010  11.259   6.023   7.428  1.3923 -0.4725  0.3142
  921MOL0     N27011  11.907   6.247   7.447  0.4930 -0.4134 -1.1468
  921MOL0     N27012  11.957   6.343   7.524  0.0402 -0.5482 -0.1884
  921MOL0     C27013  11.790   7.458   8.173  0.6523 -0.0949 -0.4126
  921MOL0     C27014  11.719   7.588   8.204  0.7625  0.2009 -0.3680
  921MOL0     C27015  11.333   7.779   8.375 -0.8233 -0.5095 -1.2713
  921MOL0     C27016  11.190   7.787   8.352 -0.0489  0.2912 -0.0018
  921MOL0     C27017  11.118   7.883   8.429 -0.3274  0.1836 -0.2482
  921MOL0     C27018  11.180   7.975   8.519 -0.6494  0.2513  1.8608
  921MOL0     O27019  11.109   8.081   8.563 -0.0189  0.2425  0.7066
  921MOL0     C27020  11.177   8.201   8.581  0.0097 -0.3259 -0.2298
  921MOL0     C27021  11.227   8.239   8.722 -0.4956  0.5606  0.0042
  921MOL0     C27022  11.135   8.223   8.836 -0.4593  0.0116 -0.6944
  921MOL0     C27023  11.010   8.308   8.829  0.0647  0.3979 -0.5959
  921MOL0     C27024  10.906   8.261   8.919 -0.1748 -0.5499  0.6984
  921MOL0     C27025  10.829   8.211   8.997 -0.6399 -1.0274 -1.1218
  921MOL0     C27026  11.310   7.949   8.553 -0.7660 -0.2145  0.3029
  921MOL0     C27027  11.384   7.858   8.479 -0.0534 -0.7004 -1.0642
  921MOL0     C27028  11.525   7.850   8.525 -0.6052  0.0356  0.0393
  921MOL0     H27029  11.427   7.542   8.028 -0.9441 -1.6109  0.8405
  921MOL0     H27030  11.549   7.363   7.935 -0.8843  1.0995  0.3527
  921MOL0     H27031  11.710   7.164   7.881  4.0242 -0.8454 -0.0057
  921MOL0     H27032  11.625   7.135   8.040 -0.0917  2.6417  1.6684
  921MOL0     H27033  11.875   7.019   7.916 -1.9059 -0.6690 -1.7921
  921MOL0     H27034  11.835   7.003   8.097  1.1232 -0.0241  0.5519
  921MOL0     H27035  11.634   6.871   8.031 -0.3549  1.1321 -0.4299
  921MOL0     H27036  11.626   6.941   7.873 -1.9699  0.6059  1.3517
  921MOL0     H27037  11.839   6.841   7.796 -0.3626 -1.7608 -2.1442
  921MOL0     H27038  11.855   6.764   7.952  1.1737 -0.2702 -1.8717
  921MOL0     H27039  11.623   6.721   7.754  0.6191 -1.9465 -2.0084
  921MOL0     H27040  11.635   6.629   7.895  1.9609 -1.8804  0.7759
  921MOL0     H27041  11.736   6.532   7.675  1.8664 -0.1690 -0.5988
  921MOL0     H27042  11.868   6.643   7.704 -0.0908  2.7700  1.8997
  921MOL0     H27043  11.775   6.423   7.901  0.0032  2.6889  2.4756
  921MOL0     H27044  11.901   6.526   7.935  0.4811 -1.3903  0.2853
  921MOL0     H27045  12.036   6.460   7.730  0.1552  0.5908 -0.2900
  921MOL0     H27046  12.002   6.316   7.839  1.1830 -0.9236 -1.8181
  921MOL0     H27047  11.771   6.174   7.740 -4.8969 -0.6875 -2.3804
  921MOL0     H27048  11.745   5.993   7.609  0.1498  3.6563  2.2699
  921MOL0     H27049  11.848   5.971   7.468  0.4384  0.8092 -1.4293
  921MOL0     H27050  11.568   6.091   7.453 -1.0516  0.1255  0.4650
  921MOL0     H27051  11.694   6.090   7.333  2.6105 -1.7067 -0.8450
  921MOL0     H27052  11.682   5.826   7.318  1.1200 -0.0368  1.5033
  921MOL0     H27053  11.599   5.828   7.479 -2.4099  1.1969  0.8434
  921MOL0     H27054  11.449   5.957   7.259 -0.0199 -0.5044 -0.5373
  921MOL0     H27055  11.475   5.777   7.251 -1.2733 -0.6520  0.2466
  921MOL0     H27056  11.145   5.733   7.313  0.4694  0.2984 -1.2937
  921MOL0     H27057  10.877   5.900   7.192  0.0395  0.4484 -0.6187
  921MOL0     H27058  10.846   5.812   7.336  0.8424  0.0669 -0.0466
  921MOL0     H27059  10.950   5.733   7.233  0.3255 -2.1756  3.4102
  921MOL0     H27060  10.737   6.075   7.636 -0.2633  1.0426  1.6499
  921MOL0     H27061  10.513   6.115   7.747 -1.1815  1.4161  0.3396
  921MOL0     H27062  10.351   6.215   7.813 -1.0965 -1.5568  3.7319
  921MOL0     H27063  10.185   6.243   7.773  1.6307  2.9842  0.5776
  921MOL0     H27064  10.142   6.018   7.751  0.5801  1.1456 -1.0691
  921MOL0     H27065  10.311   5.966   7.774  1.1125  0.3304  2.1011
  921MOL0     H27066  10.185   6.122   8.000  0.3163  0.9956  0.6722
  921MOL0     H27067  10.340   6.041   7.997 -0.4158 -0.3146  1.9597
  921MOL0     H27068  10.247   5.865   8.092  0.0747  1.5338  1.3855
  921MOL0     H27069  10.225   5.822   7.927  0.0353 -0.1643 -0.2287
  921MOL0     H27070  10.043   5.818   8.129 -2.4681 -0.4782 -0.0046
  921MOL0     H27071  10.011   5.984   8.098  3.0883  1.3767  0.3958
  921MOL0     H27072   9.966   5.729   7.941 -0.1786 -0.7203  1.8583
  921MOL0     H27073   9.971   5.867   7.836  0.2805 -0.3372 -1.4918
  921MOL0     H27074   9.800   5.983   8.007  0.1977 -0.9569  1.2887
  921MOL0     H27075   9.784   5.823   8.073  0.7764  0.8997  1.3489
  921MOL0     H27076   9.724   5.939   7.796  2.2621  1.4994  0.7988
  921MOL0     H27077   9.605   5.869   7.914 -0.5176 -2.2315  1.5064
  921MOL0     H27078  10.342   6.200   7.366 -0.1858  0.5766  0.2554
  921MOL0     H27079  10.540   6.133   7.254 -0.3691 -0.8688  0.3059
  921MOL0     H27080  11.140   6.190   7.486 -3.5584 -0.5510  0.3799
  921MOL0     H27081  11.339   6.081   7.474  1.2370  0.1772 -0.2140
  921MOL0     H27082  11.877   7.427   8.229  0.0995 -0.1450  0.4412
  921MOL0     H27083  11.760   7.658   8.276 -2.9709  2.1015  0.1722
  921MOL0     H27084  11.135   7.721   8.285 -0.1624 -3.0033  3.0125
  921MOL0     H27085  11.013   7.909   8.417  0.5321  2.9837 -2.8995
  921MOL0     H27086  11.271   8.203   8.527 -1.1331 -2.4080 -2.4726
  921MOL0     H27087  11.110   8.274   8.534 -1.7378 -1.0185  1.0759
  921MOL0     H27088  11.257   8.344   8.725  0.0735  0.4480  4.3799
  921MOL0     H27089  11.307   8.168   8.745 -0.2984  0.2988 -1.4157
  921MOL0     H27090  11.097   8.120   8.838  2.4503 -1.2638  3.1311
  921MOL0     H27091  11.184   8.254   8.929  1.1171  1.4210 -1.9330
  921MOL0     H27092  10.974   8.293   8.727  0.3615 -1.8498 -0.4242
  921MOL0     H27093  11.011   8.417   8.839 -0.4277  0.3349  0.2702
  921MOL0     H27094  10.773   8.160   9.072 -0.3609 -1.6372 -1.3241
  921MOL0     H27095  11.372   7.993   8.631  0.9114 -2.5957  0.4355
  921MOL0     H27096  11.595   7.798   8.457  2.2160  1.0180  2.0079
  921MOL0     H27097  11.570   7.949   8.534 -1.5001  0.3469  1.1856
  921MOL0     H27098  11.527   7.799   8.622  0.9665  3.2720  1.8634
  922MOL0     O27099  10.182  10.643  11.084 -0.3908 -0.0840 -1.2096
  922MOL0     C27100  10.150  10.569  10.994 -0.1781  0.2771  0.5890
  922MOL0     O27101  10.212  10.545  10.877  0.6166  0.1111  0.1922
  922MOL0     C27102  10.317  10.625  10.846 -0.9306  1.2086 -1.3426
  922MOL0     C27103  10.312  10.717  10.742 -0.2386  1.1531  0.0676
  922MOL0     C27104  10.398  10.820  10.728  0.1267 -0.0160 -1.2914
  922MOL0     C27105  10.518  10.823  10.810  0.6242  0.2747 -0.2303
  922MOL0     O27106  10.606  10.922  10.792 -0.4040 -0.3552  1.0457
  922MOL0     C27107  10.742  10.901  10.819 -0.7154  0.1053  0.2356
  922MOL0     C27108  10.789  10.954  10.961  0.2231 -0.1366  0.0814
  922MOL0     C27109  10.940  10.941  10.990 -0.2993 -0.1360 -0.8655
  922MOL0     C27110  11.002  10.806  11.013  0.4410  0.7070 -0.0322
  922MOL0     C27111  10.982  10.773  11.166 -0.4460 -0.6029 -0.2281
  922MOL0     C27112  11.083  10.676  11.217 -0.1841 -0.6959  0.2242
  922MOL0     C27113  11.096  10.692  11.365  0.5338  0.7367  0.3071
  922MOL0     C27114  10.964  10.709  11.450  0.9693 -0.6188  0.2068
  922MOL0     N27115  10.991  10.674  11.597 -0.1661 -0.1261  0.3069
  922MOL0     C27116  11.028  10.560  11.652  0.2029  0.6272 -0.1823
  922MOL0     C27117  11.036  10.583  11.784 -0.1966  0.5598  0.1440
  922MOL0     C27118  11.070  10.481  11.883  1.1140 -0.2998 -0.0074
  922MOL0     C27119  10.948  10.379  11.894  0.4836 -1.6912 -0.3693
  922MOL0     C27120  10.952  10.292  12.019 -0.1912  0.6762 -0.7956
  922MOL0     C27121  10.817  10.239  12.063 -0.2698  0.5308  0.3540
  922MOL0     O27122  10.738  10.163  11.966  0.0841 -0.5736  0.5658
  922MOL0     C27123  10.609  10.126  11.998 -0.0402 -1.3427 -0.4771
  922MOL0     C27124  10.549  10.154  12.118 -0.0793 -0.4214  1.7574
  922MOL0     C27125  10.418  10.127  12.148  0.1477  0.0276 -0.2375
  922MOL0     C27126  10.364  10.168  12.276 -0.5447 -0.1294 -0.3046
  922MOL0     C27127  10.336  10.058  12.056  0.4106 -0.4689  0.3399
  922MOL0     C27128  10.184  10.036  12.070 -0.5932  0.3638  0.4893
  922MOL0     O27129  10.109  10.142  12.113  0.5688  0.1734  0.1681
  922MOL0     C27130   9.969  10.141  12.115 -0.7499  0.0260 -0.3361
  922MOL0     C27131   9.910  10.271  12.128  0.1889  0.1332  0.7358
  922MOL0     C27132   9.764  10.277  12.115  0.3122  0.3970 -0.5914
  922MOL0     C27133   9.684  10.158  12.116 -0.2622  0.8368  0.4969
  922MOL0     O27134   9.551  10.154  12.119  0.2290 -0.7707  0.0813
  922MOL0     C27135   9.476  10.271  12.100  0.2235  0.0338  0.7761
  922MOL0     C27136   9.327  10.253  12.083 -0.4381  0.5422 -0.0800
  922MOL0     C27137   9.263  10.244  12.222  0.4364  0.5619 -0.2795
  922MOL0     C27138   9.125  10.177  12.217 -0.3207 -0.4743 -0.2962
  922MOL0     C27139   9.056  10.211  12.351 -0.5040 -0.1788  0.4561
  922MOL0     C27140   8.910  10.163  12.366 -0.4580 -0.2374 -0.1733
  922MOL0     C27141   8.841  10.218  12.487  0.1554 -0.2395  0.4136
  922MOL0     C27142   8.901  10.170  12.619 -0.7327  0.8550  0.2022
  922MOL0    Cl27143   8.861  10.292  12.745 -0.2050 -0.0226 -0.1819
  922MOL0     C27144   9.750  10.039  12.115 -0.0002 -0.0320 -0.6783
  922MOL0     C27145   9.893  10.027  12.111 -0.0887 -0.7339 -0.2709
  922MOL0     O27146  10.141   9.935  12.013  1.0319  0.8341  0.3470
  922MOL0     C27147  10.396  10.012  11.937  0.1977 -0.1135  0.3108
  922MOL0     C27148  10.526  10.050  11.905 -0.0998 -0.2854  0.0988
  922MOL0     N27149  11.009  10.703  11.816 -0.0419 -0.3178 -0.2160
  922MOL0     N27150  10.979  10.763  11.702 -0.2417  0.5494  0.1367
  922MOL0     C27151  10.539  10.722  10.896  0.1901  0.2558 -0.8964
  922MOL0     C27152  10.443  10.622  10.913 -0.3565 -0.8580 -0.8805
  922MOL0     C27153  10.023  10.496  11.019 -0.4840 -0.1180  1.1319
  922MOL0     C27154   9.928  10.495  10.915  0.7122  0.1131 -0.2552
  922MOL0     C27155   9.809  10.421  10.927  0.7508  0.8332  0.2747
  922MOL0     C27156   9.788  10.350  11.045  0.3490 -0.7937 -0.3363
  922MOL0     O27157   9.677  10.274  11.069 -0.6545 -0.4045  0.6025
  922MOL0     C27158   9.593  10.217  10.963 -0.7060  0.4240  0.0062
  922MOL0     C27159   9.483  10.137  11.034 -0.3739 -0.6373 -0.0509
  922MOL0     C27160   9.403  10.230  11.126  0.4834 -0.2777  0.7023
  922MOL0     C27161   9.348  10.347  11.041 -0.6512 -1.1947  0.2096
  922MOL0     C27162   9.244  10.307  10.951  1.3252  0.1126  0.3047
  922MOL0     C27163   9.164  10.279  10.874  0.2967  0.0283 -0.1636
  922MOL0     C27164   9.883  10.352  11.141 -0.3942 -0.2855  0.8605
  922MOL0     C27165  10.012  10.417  11.133  0.0592 -0.0278 -0.0770
  922MOL0     C27166  10.109  10.419  11.245  0.0568  0.1348  0.3765
  922MOL0     H27167  10.231  10.703  10.671 -2.2725  0.7042  2.3597
  922MOL0     H27168  10.380  10.900  10.657 -3.6336  1.2717  0.8321
  922MOL0     H27169  10.791  10.959  10.740 -0.9858 -0.5244 -0.3988
  922MOL0     H27170  10.767  10.795  10.810 -0.7117 -0.0547  1.8456
  922MOL0     H27171  10.752  11.057  10.959 -2.6370 -1.0392  0.9569
  922MOL0     H27172  10.721  10.902  11.030 -0.9787  0.2272 -0.7896
  922MOL0     H27173  10.983  10.997  10.906 -0.3571 -0.9261 -1.4380
  922MOL0     H27174  10.961  11.011  11.071  0.4470 -1.1486 -0.1623
  922MOL0     H27175  10.954  10.732  10.949  0.6813 -0.1233  0.7296
  922MOL0     H27176  11.107  10.796  10.985 -0.1065  0.3861 -2.1353
  922MOL0     H27177  10.884  10.726  11.175 -0.2301 -0.7765  1.3365
  922MOL0     H27178  10.985  10.869  11.219  2.8651 -0.5067 -0.3550
  922MOL0     H27179  11.045  10.574  11.204  0.1900 -0.8396  0.2750
  922MOL0     H27180  11.184  10.690  11.177 -0.3087 -3.4007 -1.2694
  922MOL0     H27181  11.166  10.773  11.390  1.9169 -0.0933 -0.7011
  922MOL0     H27182  11.148  10.604  11.405 -2.4561 -1.3208 -0.0311
  922MOL0     H27183  10.916  10.805  11.425  1.2942 -0.7683 -1.0352
  922MOL0     H27184  10.886  10.645  11.407  0.6556  0.3979 -0.7891
  922MOL0     H27185  11.046  10.463  11.605 -0.6875  1.9601 -3.5669
  922MOL0     H27186  11.097  10.540  11.971  1.7683 -0.8729  0.1783
  922MOL0     H27187  11.155  10.421  11.849  1.6551 -0.4571  1.5603
  922MOL0     H27188  10.853  10.432  11.903  0.4905 -1.7148 -0.1473
  922MOL0     H27189  10.933  10.309  11.811  1.6936 -1.1192 -1.0899
  922MOL0     H27190  11.011  10.201  12.004 -1.1725 -0.6189  2.2896
  922MOL0     H27191  10.991  10.363  12.093  0.1139  0.0333 -0.3256
  922MOL0     H27192  10.853  10.177  12.146  3.5813  1.9567 -0.0464
  922MOL0     H27193  10.758  10.321  12.104 -1.0447 -0.2317  0.8232
  922MOL0     H27194  10.613  10.202  12.193  2.6370 -2.0485  0.6403
  922MOL0     H27195  10.440  10.164  12.354 -0.4627  2.6504 -0.1323
  922MOL0     H27196  10.292  10.102  12.325  0.3325  0.9887  2.7537
  922MOL0     H27197  10.319  10.268  12.275  1.6213  0.9257  1.3372
  922MOL0     H27198   9.963  10.365  12.138 -1.0726  1.0954 -0.8878
  922MOL0     H27199   9.714  10.373  12.126  0.5963  0.3705  1.3363
  922MOL0     H27200   9.484  10.342  12.183 -2.2938 -0.4928  1.5556
  922MOL0     H27201   9.520  10.316  12.010  2.0979  2.3342  2.6940
  922MOL0     H27202   9.300  10.339  12.020  0.8052 -0.8682 -2.7143
  922MOL0     H27203   9.307  10.168  12.017  0.7066  3.5297 -4.7548
  922MOL0     H27204   9.256  10.345  12.262  2.9117  1.0511 -0.8999
  922MOL0     H27205   9.336  10.191  12.285  2.9436  1.9693 -1.8335
  922MOL0     H27206   9.124  10.069  12.199  3.2845 -1.0533  1.9619
  922MOL0     H27207   9.078  10.230  12.134  1.3685  2.5691  0.5100
  922MOL0     H27208   9.122  10.164  12.425  2.6559  0.7272 -1.5857
  922MOL0     H27209   9.069  10.319  12.363  4.3845 -0.6926  2.4814
  922MOL0     H27210   8.902  10.056  12.388 -0.3043  0.5370  4.9246
  922MOL0     H27211   8.861  10.183  12.271  3.5894  4.8252 -1.6812
  922MOL0     H27212   8.735  10.194  12.475 -0.4079  2.6367 -1.7233
  922MOL0     H27213   8.826  10.326  12.474 -0.3880 -0.4393 -0.7948
  922MOL0     H27214   9.008  10.161  12.601 -1.1022 -0.1805 -1.6479
  922MOL0     H27215   8.858  10.076  12.655  2.5323 -0.3427  1.2951
  922MOL0     H27216   9.683   9.955  12.100 -5.9327  4.2567 -1.3174
  922MOL0     H27217   9.946   9.933  12.119  2.5349  0.6696  0.1743
  922MOL0     H27218  10.337   9.950  11.870  4.1999 -1.1848 -2.6034
  922MOL0     H27219  10.569  10.018  11.810  2.0744 -1.4675  1.4155
  922MOL0     H27220  10.636  10.726  10.944 -0.6003 -1.2402  0.9393
  922MOL0     H27221  10.463  10.543  10.984  1.0497 -0.9882 -1.3965
  922MOL0     H27222   9.933  10.563  10.830 -3.2708  1.9235  0.6977
  922MOL0     H27223   9.736  10.403  10.849 -0.7920  0.9069  1.6558
  922MOL0     H27224   9.559  10.295  10.894  1.5034 -0.1003 -1.7951
  922MOL0     H27225   9.650  10.144  10.905 -1.0133  0.1014  0.1018
  922MOL0     H27226   9.528  10.060  11.097 -0.6104 -1.6072 -1.0335
  922MOL0     H27227   9.421  10.079  10.965 -0.7334 -0.1775 -0.1205
  922MOL0     H27228   9.315  10.182  11.170 -0.9408  1.2949 -0.2984
  922MOL0     H27229   9.462  10.263  11.212 -0.3103  2.5153  0.2748
  922MOL0     H27230   9.423  10.407  10.990  0.6945 -3.1902 -0.2394
  922MOL0     H27231   9.316  10.429  11.106  0.6343 -1.9189  1.8283
  922MOL0     H27232   9.091  10.248  10.803  1.0788 -0.8248 -0.6165
  922MOL0     H27233   9.851  10.306  11.234  2.6533 -2.4555  0.9698
  922MOL0     H27234  10.102  10.340  11.320 -2.6204 -0.0745 -0.0100
  922MOL0     H27235  10.210  10.423  11.203  0.0871 -0.0572  0.4311
  922MOL0     H27236  10.101  10.510  11.305 -1.1468 -1.1839  2.3039
  923MOL0     O27237   3.431   2.396   7.498  0.2169  0.0428 -1.0866
  923MOL0     C27238   3.315   2.345   7.491  0.1788  0.0890 -0.9989
  923MOL0     O27239   3.205   2.381   7.569 -0.0717  0.3914  0.3272
  923MOL0     C27240   3.219   2.499   7.639 -0.0629 -0.0776 -0.2484
  923MOL0     C27241   3.230   2.630   7.573 -0.1177 -0.6364 -0.1407
  923MOL0     C27242   3.253   2.732   7.664 -0.0698  0.2860 -0.3526
  923MOL0     C27243   3.253   2.720   7.808 -0.2518  0.1365  1.4331
  923MOL0     O27244   3.279   2.831   7.883 -0.4125 -0.1443 -0.6557
  923MOL0     C27245   3.327   2.813   8.016  0.1652  1.0043  0.0368
  923MOL0     C27246   3.375   2.937   8.078 -0.1393  0.0821 -0.2535
  923MOL0     C27247   3.272   3.044   8.126 -0.0062  0.5119  0.1249
  923MOL0     C27248   3.188   2.990   8.244 -0.6514  0.3357  0.3813
  923MOL0     C27249   3.084   3.083   8.295 -0.1909  0.1266 -0.0395
  923MOL0     C27250   3.144   3.208   8.363 -0.3766 -0.1542  0.3550
  923MOL0     C27251   3.032   3.303   8.399 -0.0695 -0.4784 -0.1010
  923MOL0     C27252   3.101   3.433   8.444  0.3466  0.1573  0.7448
  923MOL0     N27253   3.013   3.536   8.500  1.3360  1.1403  0.8419
  923MOL0     C27254   2.874   3.560   8.483  0.0341 -0.4665  0.2784
  923MOL0     C27255   2.841   3.623   8.601 -1.2381 -0.2412  0.4467
  923MOL0     C27256   2.705   3.640   8.660  0.1695 -0.8232  0.4021
  923MOL0     C27257   2.619   3.739   8.578  0.1269 -0.0323 -0.0488
  923MOL0     C27258   2.481   3.775   8.643  0.7496 -0.7255  1.2606
  923MOL0     C27259   2.390   3.653   8.677  0.2300  0.2176 -0.6945
  923MOL0     O27260   2.370   3.579   8.551 -0.0235 -0.1428  0.0184
  923MOL0     C27261   2.247   3.517   8.547  0.7705  0.4060 -0.5592
  923MOL0     C27262   2.171   3.537   8.431  1.5123  0.9377 -0.9784
  923MOL0     C27263   2.046   3.479   8.421  0.5688  0.8047  0.5003
  923MOL0     C27264   1.966   3.527   8.301 -0.3505 -0.6113  0.1812
  923MOL0     C27265   1.998   3.385   8.522  0.1458 -0.6169 -0.1366
  923MOL0     C27266   1.862   3.315   8.509 -0.5680 -0.1723 -0.3285
  923MOL0     O27267   1.787   3.356   8.409 -0.2061  0.4530  0.4715
  923MOL0     C27268   1.671   3.285   8.397 -0.0748 -0.5796 -0.6762
  923MOL0     C27269   1.565   3.340   8.468  0.0750 -0.2718 -0.5609
  923MOL0     C27270   1.439   3.282   8.462 -0.3276 -0.0465 -0.2755
  923MOL0     C27271   1.415   3.173   8.374 -0.3943 -0.1974  0.2972
  923MOL0     O27272   1.295   3.105   8.344 -0.2958 -0.0481 -0.4498
  923MOL0     C27273   1.169   3.182   8.370  0.1317  0.6428 -0.0668
  923MOL0     C27274   1.069   3.155   8.250 -0.3996 -0.6237 -0.5595
  923MOL0     C27275   0.971   3.047   8.286 -0.2130 -0.6759 -0.1695
  923MOL0     C27276   0.876   3.016   8.165  0.0798 -0.3968  0.8391
  923MOL0     C27277   0.795   2.896   8.179 -0.3452  0.6949  0.4212
  923MOL0     C27278   0.654   2.908   8.113 -0.8898  0.5793 -0.6507
  923MOL0     C27279   0.609   2.771   8.062  0.6259 -0.0427  0.2256
  923MOL0     C27280   0.555   2.677   8.170 -0.3716  0.0775 -0.8250
  923MOL0    Cl27281   0.700   2.600   8.252 -0.3832  0.0411  0.1791
  923MOL0     C27282   1.515   3.127   8.294  0.4154 -0.2450 -0.2068
  923MOL0     C27283   1.649   3.176   8.303  0.6522  0.0870 -0.8274
  923MOL0     O27284   1.826   3.247   8.608  0.1357 -0.9835  0.0236
  923MOL0     C27285   2.076   3.366   8.635  0.3802 -0.8707 -0.2283
  923MOL0     C27286   2.198   3.430   8.651  0.4518 -0.0144  0.1972
  923MOL0     N27287   2.951   3.649   8.676  0.0009 -0.0003 -0.2144
  923MOL0     N27288   3.047   3.589   8.623 -0.2305  0.7184  0.1678
  923MOL0     C27289   3.219   2.595   7.862  1.0304  0.0664 -0.0471
  923MOL0     C27290   3.197   2.488   7.773 -0.1809 -0.3845 -0.5756
  923MOL0     C27291   3.286   2.253   7.372  0.1601 -0.5522  0.5761
  923MOL0     C27292   3.148   2.209   7.354 -0.2828 -0.9274 -0.1579
  923MOL0     C27293   3.102   2.147   7.242  0.1292 -0.3742 -0.4029
  923MOL0     C27294   3.188   2.100   7.142 -0.4951 -0.7616  0.1569
  923MOL0     O27295   3.141   2.023   7.037  1.0782  1.1395  0.3595
  923MOL0     C27296   3.208   1.995   6.914  0.4438  0.0932  0.6131
  923MOL0     C27297   3.119   1.979   6.790 -0.8173 -0.0040  0.1322
  923MOL0     C27298   3.201   1.905   6.687 -0.0485 -0.6021 -0.1224
  923MOL0     C27299   3.135   1.917   6.546  0.2532  0.3929  0.5135
  923MOL0     C27300   3.207   2.036   6.485 -0.1720 -0.4161 -0.6507
  923MOL0     C27301   3.270   2.133   6.443 -0.0445  0.9074  0.8790
  923MOL0     C27302   3.328   2.121   7.172 -0.2745 -0.7268 -0.0904
  923MOL0     C27303   3.374   2.205   7.277 -0.4511 -0.2083 -0.2003
  923MOL0     C27304   3.531   2.224   7.297  0.9840 -0.8873 -0.2689
  923MOL0     H27305   3.237   2.629   7.465  0.8079  1.9990 -0.1915
  923MOL0     H27306   3.276   2.830   7.623  1.6886 -0.1727 -0.5408
  923MOL0     H27307   3.412   2.743   8.015  1.4569  2.4696  1.3050
  923MOL0     H27308   3.250   2.768   8.079  0.2687 -0.1538 -0.6390
  923MOL0     H27309   3.417   2.897   8.171 -4.1545 -2.8433  0.5713
  923MOL0     H27310   3.448   2.980   8.008  0.3167 -2.8011 -1.7092
  923MOL0     H27311   3.329   3.133   8.150 -0.3358  1.6725 -2.9121
  923MOL0     H27312   3.203   3.069   8.045 -0.9579 -0.2188  0.6870
  923MOL0     H27313   3.131   2.904   8.205 -0.0698  0.4263 -0.6998
  923MOL0     H27314   3.255   2.956   8.323  1.2600  2.6644 -0.1485
  923MOL0     H27315   3.013   3.036   8.363  2.0312  0.4338  2.6607
  923MOL0     H27316   3.017   3.126   8.219 -2.1190  0.1548  1.6017
  923MOL0     H27317   3.207   3.174   8.445 -2.4788 -0.5630  1.8817
  923MOL0     H27318   3.214   3.263   8.299 -0.0318  0.7710  1.4928
  923MOL0     H27319   2.982   3.258   8.485  2.2202 -1.1208  0.9635
  923MOL0     H27320   2.963   3.323   8.315 -2.3820 -0.2794  1.7334
  923MOL0     H27321   3.177   3.419   8.522  0.5219  2.9892  1.2023
  923MOL0     H27322   3.149   3.467   8.351  0.3762  0.9689  1.0549
  923MOL0     H27323   2.805   3.517   8.411  3.3018 -1.5890 -2.4047
  923MOL0     H27324   2.706   3.683   8.761 -2.4180 -0.2373  0.2425
  923MOL0     H27325   2.666   3.538   8.669  3.2192 -2.0215  1.3070
  923MOL0     H27326   2.681   3.829   8.571  0.9775 -0.4925  1.2394
  923MOL0     H27327   2.607   3.705   8.475  0.2601 -1.4632  0.3822
  923MOL0     H27328   2.494   3.842   8.728  2.0989 -1.0369  1.3189
  923MOL0     H27329   2.426   3.823   8.561  2.9279  0.4804  0.4005
  923MOL0     H27330   2.451   3.597   8.748  0.4739  0.8626 -0.3939
  923MOL0     H27331   2.295   3.679   8.724  0.0247 -0.6240 -0.6112
  923MOL0     H27332   2.199   3.607   8.352 -0.1659 -1.0930 -3.5655
  923MOL0     H27333   2.012   3.595   8.229 -1.6606  0.1415  0.0111
  923MOL0     H27334   1.876   3.580   8.335 -0.0612  1.6136 -2.2450
  923MOL0     H27335   1.945   3.441   8.237  0.5819  0.4631 -1.6580
  923MOL0     H27336   1.588   3.425   8.532  4.0605 -1.6842  0.1144
  923MOL0     H27337   1.367   3.337   8.523  1.0226  2.7896 -1.0533
  923MOL0     H27338   1.129   3.153   8.468  0.1909  0.6429 -0.0424
  923MOL0     H27339   1.191   3.289   8.372 -0.4743  0.8961 -3.0347
  923MOL0     H27340   1.010   3.247   8.248  0.2943 -0.1650 -0.3350
  923MOL0     H27341   1.118   3.136   8.154  0.0464  1.9685 -0.9133
  923MOL0     H27342   0.916   3.084   8.373  0.1769 -0.3821 -0.0513
  923MOL0     H27343   1.023   2.954   8.312 -1.3608 -0.8322  1.7370
  923MOL0     H27344   0.942   2.979   8.086 -1.4018 -0.2391 -0.5258
  923MOL0     H27345   0.825   3.110   8.141  1.8784  0.0960 -1.4326
  923MOL0     H27346   0.846   2.806   8.145  0.6217  0.3606  2.5822
  923MOL0     H27347   0.763   2.872   8.281 -0.8943  0.7592  0.2692
  923MOL0     H27348   0.664   2.976   8.028 -0.0310  3.0258  1.2591
  923MOL0     H27349   0.586   2.957   8.184  2.2590  3.8544  0.4158
  923MOL0     H27350   0.690   2.718   8.011  0.3759  0.9524 -1.2704
  923MOL0     H27351   0.525   2.787   7.994  0.4404  0.7226  0.6141
  923MOL0     H27352   0.502   2.597   8.117  1.5859 -1.5516 -0.4808
  923MOL0     H27353   0.489   2.735   8.235 -1.6385 -3.4154  1.3186
  923MOL0     H27354   1.481   3.050   8.225 -0.2479 -1.5034  1.4460
  923MOL0     H27355   1.730   3.141   8.239 -1.2194 -2.6707 -1.8686
  923MOL0     H27356   2.048   3.299   8.717  0.6584  0.9424  1.4213
  923MOL0     H27357   2.240   3.400   8.746 -0.1819 -3.2676 -0.4492
  923MOL0     H27358   3.219   2.573   7.968 -1.5196 -0.8042 -0.1484
  923MOL0     H27359   3.174   2.387   7.807 -1.0533 -0.3762 -1.0973
  923MOL0     H27360   3.082   2.237   7.436  0.3134 -1.1162  0.3914
  923MOL0     H27361   2.996   2.127   7.229 -0.3248  1.4041  0.2551
  923MOL0     H27362   3.274   2.075   6.880  2.1660 -1.0033  1.2380
  923MOL0     H27363   3.280   1.917   6.941 -1.9173 -1.5131  2.7405
  923MOL0     H27364   3.090   2.081   6.763  0.8218  0.7481  1.0483
  923MOL0     H27365   3.033   1.917   6.817 -0.6558 -2.0790 -3.4490
  923MOL0     H27366   3.307   1.936   6.685  0.2298 -1.4607 -2.7501
  923MOL0     H27367   3.187   1.803   6.722  0.2450 -0.2563  1.0306
  923MOL0     H27368   3.029   1.943   6.551  0.5937  2.2294 -0.8426
  923MOL0     H27369   3.153   1.822   6.493 -0.3557  0.7643 -0.3877
  923MOL0     H27370   3.342   2.209   6.420  0.4244  0.0856 -0.4830
  923MOL0     H27371   3.406   2.088   7.104  2.3488 -0.2299  2.5080
  923MOL0     H27372   3.543   2.332   7.283  0.0896 -0.7680 -0.1752
  923MOL0     H27373   3.543   2.190   7.400 -0.6589  0.7071  0.5100
  923MOL0     H27374   3.597   2.158   7.239  0.8021 -2.1192  0.8710
  924MOL0     O27375   6.725  11.512   5.785  0.1142  1.2408  0.5439
  924MOL0     C27376   6.777  11.614   5.820  0.0494 -0.2037 -0.5016
  924MOL0     O27377   6.712  11.727   5.849 -0.5348  0.3319  0.0366
  924MOL0     C27378   6.576  11.729   5.838  0.3369  0.1632 -0.8894
  924MOL0     C27379   6.492  11.680   5.935 -0.0302 -0.5825 -0.0807
  924MOL0     C27380   6.353  11.686   5.917  0.0384  0.5246 -0.8197
  924MOL0     C27381   6.296  11.715   5.792  0.2571  0.1162  0.9080
  924MOL0     O27382   6.154  11.705   5.772 -0.8741  0.0112 -0.0873
  924MOL0     C27383   6.067  11.718   5.885  0.1691  0.7981  1.1173
  924MOL0     C27384   6.088  11.845   5.966 -0.0572  0.3198 -0.9656
  924MOL0     C27385   5.965  11.872   6.060 -0.3007 -0.0787  0.5567
  924MOL0     C27386   5.997  11.991   6.159  0.0089  0.1798 -0.4477
  924MOL0     C27387   5.906  12.021   6.277 -0.2131 -0.4765 -0.4796
  924MOL0     C27388   5.967  12.117   6.369  0.2435  0.0366  0.1159
  924MOL0     C27389   5.895  12.170   6.496 -0.1615 -0.8587 -0.5632
  924MOL0     C27390   5.999  12.245   6.582 -0.0755  0.3435  1.0398
  924MOL0     N27391   6.077  12.342   6.508 -0.8299  0.0050  0.0740
  924MOL0     C27392   6.183  12.315   6.426  0.4779  0.3277 -0.3816
  924MOL0     C27393   6.217  12.427   6.366  1.0342  1.0318  0.3549
  924MOL0     C27394   6.326  12.437   6.266 -0.0994 -0.3900  0.5488
  924MOL0     C27395   6.284  12.498   6.132 -0.8291  0.1896 -0.0762
  924MOL0     C27396   6.210  12.387   6.043 -0.5785 -0.2962 -0.6377
  924MOL0     C27397   6.164  12.446   5.916 -0.0799  0.0626  0.5232
  924MOL0     O27398   6.133  12.359   5.806 -0.6679  0.1731 -0.5771
  924MOL0     C27399   6.248  12.326   5.729 -1.1464 -0.2127 -0.4524
  924MOL0     C27400   6.226  12.241   5.624 -0.1119  0.2095  0.6952
  924MOL0     C27401   6.331  12.174   5.559 -0.7210  0.3189  0.9467
  924MOL0     C27402   6.294  12.076   5.448  0.6378  0.4995  0.2626
  924MOL0     C27403   6.469  12.201   5.594  0.3313  0.6497  0.0752
  924MOL0     C27404   6.581  12.115   5.542 -0.2940 -0.0290  0.1867
  924MOL0     O27405   6.677  12.080   5.639  0.0388  0.4784 -0.8586
  924MOL0     C27406   6.798  12.019   5.612 -0.2213  0.1324 -0.4342
  924MOL0     C27407   6.856  11.972   5.494  0.3917  0.3751 -0.4762
  924MOL0     C27408   6.994  11.935   5.491 -0.6949  0.1556  0.3625
  924MOL0     C27409   7.074  11.940   5.603  0.0820  0.5780  0.8758
  924MOL0     O27410   7.210  11.922   5.603 -0.2575 -0.3760  0.2680
  924MOL0     C27411   7.281  11.836   5.513 -0.8901 -0.0140 -0.7587
  924MOL0     C27412   7.411  11.805   5.582  0.3793  0.8735 -0.5170
  924MOL0     C27413   7.522  11.780   5.483 -0.0312  0.0754 -0.2776
  924MOL0     C27414   7.653  11.760   5.545 -0.3926  0.4081 -0.6314
  924MOL0     C27415   7.659  11.623   5.622 -0.9435 -0.3868  0.3989
  924MOL0     C27416   7.656  11.518   5.518  0.0456 -0.2418  1.0045
  924MOL0     C27417   7.619  11.385   5.588  0.1437  1.0943  0.0451
  924MOL0     C27418   7.510  11.311   5.497  0.9570 -0.3453 -0.2435
  924MOL0    Cl27419   7.372  11.434   5.487  0.4416  0.0721  0.0192
  924MOL0     C27420   7.019  11.975   5.725 -0.5596 -0.5273 -0.0294
  924MOL0     C27421   6.883  12.004   5.731 -0.5734 -0.2716 -0.1812
  924MOL0     O27422   6.587  12.091   5.420 -0.6013  1.5626 -0.4922
  924MOL0     C27423   6.496  12.292   5.699 -0.0861 -0.6951  0.6603
  924MOL0     C27424   6.386  12.350   5.763 -0.0849 -0.1371  0.2093
  924MOL0     N27425   6.124  12.522   6.401  0.4914 -0.9671 -0.2596
  924MOL0     N27426   6.040  12.466   6.482  0.0946  0.4133 -0.8685
  924MOL0     C27427   6.378  11.774   5.693 -0.5720  0.6125  0.5318
  924MOL0     C27428   6.520  11.770   5.718  0.3463  0.2563  0.1001
  924MOL0     C27429   6.923  11.602   5.834 -0.4628 -0.5685  0.0991
  924MOL0     C27430   6.978  11.686   5.932  1.4471  0.4240 -0.3905
  924MOL0     C27431   7.105  11.677   5.981 -0.0031 -0.8697  0.3458
  924MOL0     C27432   7.191  11.582   5.925  0.1979  0.9804 -0.0350
  924MOL0     O27433   7.324  11.546   5.955  0.7734 -0.3397  0.0288
  924MOL0     C27434   7.389  11.610   6.070 -0.7524 -0.1136 -0.6049
  924MOL0     C27435   7.474  11.513   6.143 -0.4560  0.7267  1.2193
  924MOL0     C27436   7.604  11.467   6.075 -0.1304 -0.4220 -1.0060
  924MOL0     C27437   7.730  11.562   6.070  0.3206  0.9606  0.4954
  924MOL0     C27438   7.695  11.676   5.987  1.1823  0.3755  0.8968
  924MOL0     C27439   7.665  11.776   5.923 -0.0544 -0.5807 -0.2790
  924MOL0     C27440   7.144  11.499   5.821  0.3442  0.1435  0.2943
  924MOL0     C27441   7.006  11.506   5.771  0.4498  0.6909 -0.3016
  924MOL0     C27442   6.978  11.425   5.647  0.7605 -0.3334 -0.2878
  924MOL0     H27443   6.537  11.643   6.027 -0.1176 -1.5772 -0.4262
  924MOL0     H27444   6.290  11.658   6.001  1.1150  3.7135  1.2286
  924MOL0     H27445   6.074  11.637   5.959 -2.8713  2.8130  3.8979
  924MOL0     H27446   5.963  11.727   5.852 -0.2361  1.7115  2.5331
  924MOL0     H27447   6.183  11.850   6.019 -0.5128  1.6350 -0.2358
  924MOL0     H27448   6.089  11.928   5.895  0.9528 -0.3143 -1.7091
  924MOL0     H27449   5.883  11.902   5.995  2.2082  0.8509 -2.4447
  924MOL0     H27450   5.942  11.782   6.117 -2.2231  0.1872  0.2433
  924MOL0     H27451   6.098  11.965   6.194 -0.3054 -2.2877 -1.1492
  924MOL0     H27452   6.007  12.085   6.104 -1.4776  1.4752  1.4153
  924MOL0     H27453   5.880  11.929   6.332 -3.2684  1.2482  1.2868
  924MOL0     H27454   5.812  12.059   6.236  0.2323  1.3402  0.1153
  924MOL0     H27455   6.061  12.078   6.409  0.4494  0.1283 -0.2718
  924MOL0     H27456   5.981  12.206   6.306  0.4162  2.1958  2.9701
  924MOL0     H27457   5.861  12.083   6.554  0.4605 -0.7044  0.0530
  924MOL0     H27458   5.809  12.231   6.468  0.7548 -0.2993 -2.2818
  924MOL0     H27459   5.953  12.285   6.673  2.7163 -0.2644  2.8806
  924MOL0     H27460   6.067  12.168   6.621  0.5141  0.8425  1.0093
  924MOL0     H27461   6.225  12.216   6.410 -0.0891  0.2169 -1.2398
  924MOL0     H27462   6.361  12.335   6.251  0.6676  0.0394 -0.7407
  924MOL0     H27463   6.409  12.495   6.306 -1.2283  1.4189  0.4156
  924MOL0     H27464   6.218  12.585   6.135  0.1911  0.9475  1.9883
  924MOL0     H27465   6.375  12.528   6.079 -0.2891 -0.5197  0.4300
  924MOL0     H27466   6.282  12.306   6.032 -1.5186 -1.3886  0.7456
  924MOL0     H27467   6.125  12.341   6.095 -0.6476  1.2705  0.7107
  924MOL0     H27468   6.079  12.510   5.941  0.5982 -0.0237  3.4602
  924MOL0     H27469   6.231  12.522   5.876 -0.5819  1.1038  1.6178
  924MOL0     H27470   6.127  12.202   5.607 -0.7027  0.7767  2.5874
  924MOL0     H27471   6.350  11.982   5.448  0.9708  0.6424 -2.3263
  924MOL0     H27472   6.313  12.129   5.354 -0.1057  0.9716  0.3725
  924MOL0     H27473   6.188  12.051   5.460  0.3143  2.5917  2.5863
  924MOL0     H27474   6.797  11.957   5.404 -2.1555 -0.8112  1.2783
  924MOL0     H27475   7.043  11.912   5.397 -4.9200  2.0247 -2.6533
  924MOL0     H27476   7.225  11.743   5.495 -0.8777 -1.1273  3.7753
  924MOL0     H27477   7.308  11.878   5.416 -2.7170  1.1375 -0.8235
  924MOL0     H27478   7.448  11.876   5.657  2.5532 -1.1501  0.4717
  924MOL0     H27479   7.388  11.728   5.657  2.2208 -1.1319 -1.8808
  924MOL0     H27480   7.529  11.862   5.410  3.0909  0.1938  0.0338
  924MOL0     H27481   7.484  11.703   5.416 -0.4462  0.2745 -0.2735
  924MOL0     H27482   7.661  11.836   5.622  2.2318 -0.1557 -0.2747
  924MOL0     H27483   7.734  11.768   5.473  0.5132  1.9479  0.5135
  924MOL0     H27484   7.757  11.609   5.668  0.0908 -0.6112 -1.7088
  924MOL0     H27485   7.573  11.613   5.688 -0.1377 -1.8962  1.2656
  924MOL0     H27486   7.753  11.501   5.470  1.4767  1.6181  3.0681
  924MOL0     H27487   7.589  11.538   5.433  1.0219  1.9933  0.7004
  924MOL0     H27488   7.582  11.420   5.684 -1.1073  1.0684 -0.4118
  924MOL0     H27489   7.710  11.327   5.605  0.0748 -0.2655 -3.3803
  924MOL0     H27490   7.468  11.218   5.536  1.8429  1.2933  5.5414
  924MOL0     H27491   7.563  11.293   5.403  2.8125 -0.4466  0.7688
  924MOL0     H27492   7.076  11.965   5.817  0.0856 -2.8370 -0.6026
  924MOL0     H27493   6.842  12.035   5.827 -1.2801 -1.7308  0.0162
  924MOL0     H27494   6.599  12.306   5.731 -0.4928  1.3936  1.2373
  924MOL0     H27495   6.400  12.420   5.845  1.0017 -0.4368  0.2928
  924MOL0     H27496   6.345  11.800   5.593  0.3606 -0.2978 -0.0306
  924MOL0     H27497   6.586  11.804   5.639  0.1072  0.2327 -0.1101
  924MOL0     H27498   6.910  11.762   5.969  0.6293 -1.0122  1.1915
  924MOL0     H27499   7.128  11.749   6.059 -1.5537 -1.4987  1.4445
  924MOL0     H27500   7.437  11.706   6.048 -0.1079  0.5521  3.1478
  924MOL0     H27501   7.312  11.632   6.145 -0.8135 -2.4329  0.0928
  924MOL0     H27502   7.423  11.425   6.185 -0.5990  1.6144  3.0405
  924MOL0     H27503   7.501  11.561   6.238  3.5030  0.5355  0.3477
  924MOL0     H27504   7.638  11.371   6.116 -1.1267 -0.7695 -0.9770
  924MOL0     H27505   7.583  11.424   5.977 -0.3057 -1.5581 -0.4965
  924MOL0     H27506   7.820  11.510   6.035  1.3237  2.8140  0.1836
  924MOL0     H27507   7.750  11.610   6.166  1.8748  0.5599  0.4080
  924MOL0     H27508   7.628  11.854   5.860 -1.1995 -1.2800 -0.4922
  924MOL0     H27509   7.208  11.421   5.779  1.2455  1.1124 -0.1690
  924MOL0     H27510   7.073  11.396   5.601  0.7363 -0.7324 -0.0898
  924MOL0     H27511   6.907  11.343   5.660  0.2173  0.3915  1.6591
  924MOL0     H27512   6.947  11.485   5.560 -1.3879 -0.3653  0.3866
  925MOL0     O27513  10.636   4.785   8.083  0.2521  0.2636  0.8405
  925MOL0     C27514  10.686   4.746   8.194  1.7261  0.6626  0.2032
  925MOL0     O27515  10.615   4.753   8.309 -0.3677 -0.1944 -0.4565
  925MOL0     C27516  10.481   4.773   8.319  0.7180 -0.4813 -0.6091
  925MOL0     C27517  10.444   4.817   8.450 -0.5508  0.4693 -0.0409
  925MOL0     C27518  10.315   4.850   8.482 -0.0460  0.6196  0.3746
  925MOL0     C27519  10.217   4.821   8.394  1.0076 -0.4573 -0.5834
  925MOL0     O27520  10.082   4.837   8.431 -0.2649  0.4298 -0.1177
  925MOL0     C27521  10.019   4.708   8.461 -0.0881  0.6236 -0.0988
  925MOL0     C27522   9.864   4.728   8.462  0.5289  0.3120  0.0420
  925MOL0     C27523   9.828   4.855   8.546  0.6805 -0.8119 -0.3047
  925MOL0     C27524   9.815   4.841   8.696  0.7221 -0.0826 -1.0207
  925MOL0     C27525   9.809   4.979   8.769 -0.1154 -0.3261  0.5491
  925MOL0     C27526   9.804   4.968   8.911  0.0943 -0.0280 -0.5682
  925MOL0     C27527   9.673   4.917   8.968  0.1164 -0.2892  0.6024
  925MOL0     C27528   9.688   4.929   9.124  0.0718 -0.4193  0.5399
  925MOL0     N27529   9.675   5.068   9.163  0.2864 -0.1820  0.5319
  925MOL0     C27530   9.567   5.154   9.128  0.7192  1.0203 -0.6358
  925MOL0     C27531   9.617   5.277   9.168  0.1129  0.5179 -0.0223
  925MOL0     C27532   9.563   5.417   9.145  0.0449  0.8387 -0.2890
  925MOL0     C27533   9.415   5.411   9.121 -0.1642  0.2787  0.5431
  925MOL0     C27534   9.354   5.551   9.131 -1.6137 -0.2262  1.1385
  925MOL0     C27535   9.207   5.555   9.100  0.6129 -0.1472  0.2307
  925MOL0     O27536   9.144   5.486   9.208 -0.3923 -0.3513 -0.4597
  925MOL0     C27537   9.006   5.500   9.208  0.8034  0.2159  0.2851
  925MOL0     C27538   8.934   5.474   9.321 -1.1466  0.3871 -0.0488
  925MOL0     C27539   8.796   5.492   9.331  0.2570  0.5022 -0.7178
  925MOL0     C27540   8.732   5.470   9.467 -0.2335  0.6083 -0.0477
  925MOL0     C27541   8.725   5.511   9.211 -0.0056 -0.1361  0.5431
  925MOL0     C27542   8.574   5.512   9.198 -0.0979 -0.0044 -1.3899
  925MOL0     O27543   8.497   5.496   9.309 -0.6716  0.7393 -0.3361
  925MOL0     C27544   8.365   5.520   9.284  0.2565  0.5941  0.0099
  925MOL0     C27545   8.309   5.645   9.284 -0.2040 -0.0797 -0.4895
  925MOL0     C27546   8.168   5.655   9.249 -0.1945  0.6762  0.2348
  925MOL0     C27547   8.087   5.544   9.238 -0.6559  0.0599  0.1395
  925MOL0     O27548   7.958   5.579   9.221 -0.5377 -0.1491  0.2469
  925MOL0     C27549   7.851   5.488   9.187  0.2511 -0.7612 -0.3589
  925MOL0     C27550   7.864   5.431   9.040 -0.0773  0.4859 -0.8881
  925MOL0     C27551   7.750   5.339   9.000 -0.9150 -0.3896  0.4480
  925MOL0     C27552   7.610   5.400   9.002  0.4756 -0.1880 -0.0998
  925MOL0     C27553   7.514   5.319   8.913 -0.2123 -0.0163 -0.0267
  925MOL0     C27554   7.524   5.348   8.755 -0.0630 -0.2060 -0.6854
  925MOL0     C27555   7.509   5.495   8.713 -0.3717 -0.1152 -0.1298
  925MOL0     C27556   7.453   5.509   8.566 -0.0718 -0.5880 -0.7511
  925MOL0    Cl27557   7.555   5.453   8.432 -0.4383 -0.2546  0.0694
  925MOL0     C27558   8.145   5.420   9.255  0.1450  0.4398  0.5744
  925MOL0     C27559   8.283   5.405   9.272  0.8919 -0.1920  0.4665
  925MOL0     O27560   8.527   5.519   9.084  0.4270  0.3150 -0.7914
  925MOL0     C27561   8.794   5.519   9.085  0.1251  0.1896 -0.6048
  925MOL0     C27562   8.933   5.523   9.091  0.0904  0.1404  0.8927
  925MOL0     N27563   9.751   5.256   9.222 -0.1301  0.2355 -0.4439
  925MOL0     N27564   9.781   5.141   9.216 -0.4166  1.0308  0.2143
  925MOL0     C27565  10.250   4.782   8.263  0.1176  0.7591  0.4198
  925MOL0     C27566  10.381   4.758   8.227  0.2134 -0.1624 -0.9897
  925MOL0     C27567  10.827   4.699   8.217  0.2955 -0.8319  0.3573
  925MOL0     C27568  10.880   4.720   8.348 -1.7013 -0.4443 -0.4031
  925MOL0     C27569  11.013   4.686   8.372  0.3412  0.1762 -0.1004
  925MOL0     C27570  11.086   4.632   8.273 -1.7333  0.5127  0.2656
  925MOL0     O27571  11.219   4.582   8.287  0.6696 -0.6247 -0.1137
  925MOL0     C27572  11.273   4.586   8.419 -0.8113 -0.1944  0.0760
  925MOL0     C27573  11.420   4.546   8.426 -0.4312 -0.5992  0.5058
  925MOL0     C27574  11.530   4.658   8.413  0.0065  0.5850  0.8366
  925MOL0     C27575  11.662   4.595   8.431  0.3792  0.2413 -0.2716
  925MOL0     C27576  11.690   4.589   8.573 -0.2830 -0.1507 -0.9627
  925MOL0     C27577  11.717   4.581   8.697  0.6262 -1.0108  0.0377
  925MOL0     C27578  11.036   4.618   8.144 -0.1920 -0.2768  0.5168
  925MOL0     C27579  10.907   4.658   8.110 -0.3848  0.0404 -0.1722
  925MOL0     C27580  10.855   4.630   7.976  1.0403  0.1368  0.3073
  925MOL0     H27581  10.525   4.839   8.518 -0.4834  1.1737 -0.3421
  925MOL0     H27582  10.303   4.907   8.573 -2.4454 -0.6349  0.9193
  925MOL0     H27583  10.053   4.661   8.554 -0.2596 -2.3142 -1.3976
  925MOL0     H27584  10.053   4.638   8.385  2.0084  0.2158  1.1523
  925MOL0     H27585   9.820   4.734   8.362 -0.0980  0.1447  0.2979
  925MOL0     H27586   9.828   4.634   8.506 -0.6736 -0.8559 -3.1314
  925MOL0     H27587   9.898   4.938   8.531  0.5063 -0.7579 -0.8191
  925MOL0     H27588   9.730   4.897   8.521 -1.3501 -3.0798  3.0876
  925MOL0     H27589   9.719   4.796   8.724 -0.7857  2.8951 -0.8974
  925MOL0     H27590   9.895   4.778   8.734  1.1795  1.4920  0.7720
  925MOL0     H27591   9.724   5.037   8.732  0.6456  2.3421  2.6748
  925MOL0     H27592   9.903   5.029   8.742  0.2986 -1.5307 -0.3367
  925MOL0     H27593   9.892   4.910   8.940  0.4408  0.3240 -0.9043
  925MOL0     H27594   9.829   5.067   8.950  0.8324  0.6671 -2.6926
  925MOL0     H27595   9.655   4.811   8.949 -0.1272 -0.0109 -0.8419
  925MOL0     H27596   9.590   4.981   8.937  0.7717  0.2926  0.0372
  925MOL0     H27597   9.610   4.872   9.176  0.8751 -1.3345  0.7578
  925MOL0     H27598   9.780   4.874   9.145  1.8853  2.6534  1.3240
  925MOL0     H27599   9.464   5.129   9.107  0.4670  0.1042  1.4155
  925MOL0     H27600   9.607   5.457   9.054 -0.9856 -0.0267 -1.1903
  925MOL0     H27601   9.586   5.487   9.226 -1.2293  2.7355 -1.4888
  925MOL0     H27602   9.389   5.385   9.017  2.9229  1.1448 -0.5473
  925MOL0     H27603   9.358   5.349   9.191 -0.8388  0.4223  0.1360
  925MOL0     H27604   9.370   5.586   9.234 -2.5251  3.4076  0.1981
  925MOL0     H27605   9.402   5.617   9.058 -0.0516 -2.1332  0.3676
  925MOL0     H27606   9.177   5.660   9.092 -2.6254 -1.0628 -1.7339
  925MOL0     H27607   9.180   5.508   9.004  2.9424  2.8802 -2.1236
  925MOL0     H27608   8.997   5.439   9.402 -1.8387  1.6899  1.1042
  925MOL0     H27609   8.645   5.535   9.486  0.5843  1.4701  0.8569
  925MOL0     H27610   8.795   5.476   9.556  2.0878  1.5780 -1.6762
  925MOL0     H27611   8.686   5.371   9.459  0.5930  0.4030 -3.8945
  925MOL0     H27612   8.368   5.735   9.300 -0.4644  0.6275 -2.9620
  925MOL0     H27613   8.116   5.750   9.236 -2.1694 -0.2424  1.0206
  925MOL0     H27614   7.845   5.411   9.264 -1.7976 -2.1302 -1.7962
  925MOL0     H27615   7.763   5.553   9.190  1.7811  1.4266  1.3960
  925MOL0     H27616   7.868   5.507   8.962  0.3714 -2.8631 -4.4519
  925MOL0     H27617   7.961   5.383   9.026  0.2754 -0.3108  3.1123
  925MOL0     H27618   7.754   5.246   9.058 -1.4532  0.0512  1.2189
  925MOL0     H27619   7.771   5.312   8.896 -0.2997  2.0945 -0.1482
  925MOL0     H27620   7.612   5.505   8.972 -3.3911 -0.0106 -0.1915
  925MOL0     H27621   7.570   5.403   9.104 -2.8778  1.8879 -1.3344
  925MOL0     H27622   7.537   5.214   8.933 -0.9595  0.4448  4.1094
  925MOL0     H27623   7.414   5.338   8.951 -0.9516 -1.0091 -1.4146
  925MOL0     H27624   7.467   5.278   8.694 -0.4901  0.8711 -1.5630
  925MOL0     H27625   7.624   5.322   8.721  1.8341  0.7656  3.4927
  925MOL0     H27626   7.608   5.541   8.716 -0.1890 -0.5028 -0.1049
  925MOL0     H27627   7.428   5.533   8.776  0.0185  0.0517  0.2758
  925MOL0     H27628   7.411   5.609   8.552  4.7042  1.8731  0.2387
  925MOL0     H27629   7.367   5.443   8.569 -2.5058  2.4086  1.3824
  925MOL0     H27630   8.074   5.339   9.247 -0.7594  0.8661  3.1662
  925MOL0     H27631   8.339   5.314   9.256 -0.9707 -1.4419  0.7560
  925MOL0     H27632   8.744   5.528   8.990  2.5884 -0.4105 -2.0438
  925MOL0     H27633   8.970   5.535   8.989  0.3686  2.7046  1.2223
  925MOL0     H27634  10.172   4.757   8.191  0.6201 -0.5377  0.2897
  925MOL0     H27635  10.409   4.737   8.124  3.5687 -0.5320 -0.1317
  925MOL0     H27636  10.808   4.752   8.423  3.4678 -0.0894  5.1711
  925MOL0     H27637  11.048   4.700   8.474  1.4025 -0.5801 -0.3468
  925MOL0     H27638  11.276   4.694   8.439  1.2975 -0.5588  2.0818
  925MOL0     H27639  11.217   4.530   8.494 -0.0712 -0.1097  0.7074
  925MOL0     H27640  11.450   4.486   8.340  1.0592  0.2419  0.4116
  925MOL0     H27641  11.429   4.476   8.510 -1.7912  1.5565  2.5580
  925MOL0     H27642  11.530   4.707   8.315  1.0233  0.3499  0.7074
  925MOL0     H27643  11.517   4.736   8.489  1.2985 -0.0867  1.7705
  925MOL0     H27644  11.734   4.657   8.378 -0.0498 -0.5199 -1.7973
  925MOL0     H27645  11.681   4.501   8.379  1.4682 -0.7869  1.8378
  925MOL0     H27646  11.757   4.586   8.796  3.0549 -1.4739 -0.8511
  925MOL0     H27647  11.084   4.583   8.053  2.5965 -0.8015  2.0817
  925MOL0     H27648  10.756   4.583   7.969 -0.4384  3.2690 -3.4126
  925MOL0     H27649  10.845   4.726   7.926 -2.0343  1.1036  2.4676
  925MOL0     H27650  10.919   4.562   7.919  1.7091  0.5510  0.5635
  926MOL0     O27651   0.385   3.739   6.883 -0.2421  0.1266  0.4162
  926MOL0     C27652   0.421   3.674   6.778  0.5379  0.3509  0.3867
  926MOL0     O27653   0.543   3.629   6.743  0.5369 -0.2842  0.0590
  926MOL0     C27654   0.650   3.688   6.807  0.5536 -0.8624  0.6850
  926MOL0     C27655   0.680   3.827   6.790  0.5603  1.3746 -0.1995
  926MOL0     C27656   0.796   3.878   6.851  0.1844  0.0512  0.0186
  926MOL0     C27657   0.881   3.800   6.933  0.0220 -0.4158  0.2921
  926MOL0     O27658   1.000   3.838   6.992 -0.3211 -0.2529  0.1893
  926MOL0     C27659   1.061   3.959   6.963 -0.3711 -0.1971  0.2630
  926MOL0     C27660   1.208   3.955   7.010  0.0345  0.3144  0.0825
  926MOL0     C27661   1.231   3.920   7.159  0.8402 -0.4311 -0.5256
  926MOL0     C27662   1.279   3.777   7.195 -0.4693 -0.6952 -0.1567
  926MOL0     C27663   1.332   3.755   7.332 -0.9976 -0.9716 -0.2781
  926MOL0     C27664   1.236   3.787   7.455 -0.1691  0.5807 -0.7849
  926MOL0     C27665   1.103   3.708   7.438  0.6182  0.4768  0.2395
  926MOL0     C27666   0.997   3.794   7.391 -0.3576 -0.3624  0.2425
  926MOL0     N27667   0.861   3.771   7.436  0.4287  0.0844 -0.6582
  926MOL0     C27668   0.753   3.770   7.346  0.6670 -0.6581  0.0614
  926MOL0     C27669   0.656   3.707   7.412  0.4324 -0.0080 -0.3918
  926MOL0     C27670   0.516   3.702   7.379  0.4643 -0.6304  0.6836
  926MOL0     C27671   0.458   3.591   7.279 -1.5825 -0.7586 -0.1286
  926MOL0     C27672   0.542   3.457   7.293 -0.1062 -0.1278  1.0904
  926MOL0     C27673   0.483   3.337   7.211  0.0886  0.3096 -0.2502
  926MOL0     O27674   0.597   3.261   7.161  1.0295  0.1065  0.8013
  926MOL0     C27675   0.672   3.199   7.247 -1.0446 -0.3052 -0.4800
  926MOL0     C27676   0.809   3.189   7.237 -0.5067 -0.7089  0.0669
  926MOL0     C27677   0.900   3.125   7.325 -0.7998  0.0573 -0.5291
  926MOL0     C27678   1.046   3.137   7.292  0.1339 -0.3611  1.4059
  926MOL0     C27679   0.853   3.056   7.442  0.2101 -0.2586 -0.1923
  926MOL0     C27680   0.940   2.976   7.537 -0.1731 -0.6712  0.0649
  926MOL0     O27681   0.880   2.938   7.657 -0.0200  0.0613  0.2798
  926MOL0     C27682   0.959   2.885   7.751 -1.0866 -0.7692 -0.4230
  926MOL0     C27683   1.043   2.960   7.831  0.0609  0.2279 -0.3206
  926MOL0     C27684   1.127   2.900   7.927  1.4088  0.4309  0.5586
  926MOL0     C27685   1.122   2.760   7.936 -0.4654 -0.0622  1.4822
  926MOL0     O27686   1.203   2.699   8.025  0.1025 -0.2211 -0.4017
  926MOL0     C27687   1.154   2.677   8.162 -0.5643  0.0845 -0.0564
  926MOL0     C27688   1.264   2.629   8.258  0.0149 -0.1475  0.0110
  926MOL0     C27689   1.350   2.735   8.305  0.1467 -0.3865 -0.1156
  926MOL0     C27690   1.431   2.688   8.421 -0.0107 -0.4812 -0.0575
  926MOL0     C27691   1.531   2.793   8.450  0.6831  0.2215  0.1554
  926MOL0     C27692   1.604   2.751   8.578 -1.0039 -0.3119 -0.8713
  926MOL0     C27693   1.699   2.864   8.619  0.3837  0.4466 -1.0328
  926MOL0     C27694   1.794   2.807   8.726  0.1930  0.0970 -0.2350
  926MOL0    Cl27695   1.899   2.926   8.800 -0.2132  0.3511 -0.3341
  926MOL0     C27696   1.041   2.683   7.857 -0.6621  0.5905 -0.8947
  926MOL0     C27697   0.947   2.750   7.775 -0.8254 -0.3605  0.8906
  926MOL0     O27698   1.051   2.942   7.504  0.6683 -0.7813  0.3389
  926MOL0     C27699   0.717   3.064   7.456 -0.0499 -0.0678 -0.7457
  926MOL0     C27700   0.628   3.136   7.368 -0.2819  0.4531 -0.4031
  926MOL0     N27701   0.701   3.660   7.531 -0.0088 -0.1818 -0.3812
  926MOL0     N27702   0.816   3.716   7.551  0.3646  1.1699  0.1819
  926MOL0     C27703   0.853   3.661   6.932  0.6398 -0.2995  0.1183
  926MOL0     C27704   0.750   3.607   6.865  0.7691  0.0847  0.9221
  926MOL0     C27705   0.306   3.638   6.697  0.2343  0.7910 -0.3574
  926MOL0     C27706   0.301   3.508   6.657  0.3857 -0.2915 -0.0360
  926MOL0     C27707   0.197   3.446   6.591  0.7077  0.1065 -0.7544
  926MOL0     C27708   0.086   3.522   6.548  0.9386 -0.2688  0.3068
  926MOL0     O27709  -0.030   3.473   6.499  0.5646 -0.0181 -0.0691
  926MOL0     C27710  -0.014   3.373   6.396 -0.0982  0.5782  0.7809
  926MOL0     C27711  -0.149   3.307   6.377  0.1908 -1.1773 -0.1274
  926MOL0     C27712  -0.244   3.377   6.284  0.2453  0.6585  0.1078
  926MOL0     C27713  -0.213   3.369   6.132 -0.4562  0.2961 -0.4804
  926MOL0     C27714  -0.336   3.370   6.055 -0.0359 -0.2191  0.1326
  926MOL0     C27715  -0.436   3.383   5.996  0.8699  0.0908 -0.0004
  926MOL0     C27716   0.095   3.660   6.570  0.3459  0.1385  0.6446
  926MOL0     C27717   0.201   3.719   6.651  0.0798  0.6097  0.3681
  926MOL0     C27718   0.190   3.868   6.680  0.0214  0.4684  0.0264
  926MOL0     H27719   0.625   3.893   6.724  1.1461  2.3107  0.2285
  926MOL0     H27720   0.819   3.982   6.833 -2.7472  0.7287 -0.2737
  926MOL0     H27721   1.011   4.047   7.004  3.0213  3.0414 -1.8938
  926MOL0     H27722   1.060   3.964   6.854 -0.8258 -1.8606  0.1638
  926MOL0     H27723   1.260   3.872   6.961  2.7935  1.1123  1.4614
  926MOL0     H27724   1.247   4.051   6.977  0.8573  0.5687  1.7070
  926MOL0     H27725   1.306   3.994   7.189 -0.8980  0.8181  0.9283
  926MOL0     H27726   1.142   3.938   7.220  0.2137 -3.9352 -0.2043
  926MOL0     H27727   1.198   3.704   7.187 -0.4775 -0.6145 -0.9288
  926MOL0     H27728   1.366   3.756   7.132  0.7733  1.3268  0.7816
  926MOL0     H27729   1.419   3.821   7.340 -2.2218  0.4434  3.0194
  926MOL0     H27730   1.373   3.653   7.336  0.5447 -0.5548 -3.0164
  926MOL0     H27731   1.275   3.775   7.557 -2.2138 -2.6740 -0.2122
  926MOL0     H27732   1.215   3.895   7.455  3.0680  1.3343  0.2248
  926MOL0     H27733   1.074   3.660   7.532 -0.8928  2.3066  0.7663
  926MOL0     H27734   1.127   3.618   7.381  3.1611 -0.4211  2.5203
  926MOL0     H27735   1.006   3.895   7.432 -2.6124  2.2861 -4.8283
  926MOL0     H27736   0.999   3.815   7.283  2.9851  2.2001  0.6417
  926MOL0     H27737   0.744   3.813   7.246 -2.2346 -0.3364  0.3632
  926MOL0     H27738   0.475   3.799   7.352 -0.7034 -0.8504  1.5775
  926MOL0     H27739   0.460   3.678   7.471 -6.2398 -2.3947 -3.1871
  926MOL0     H27740   0.350   3.578   7.296 -1.4882  1.8184  3.3626
  926MOL0     H27741   0.475   3.628   7.177  0.9484 -0.3167  0.4051
  926MOL0     H27742   0.640   3.484   7.251 -0.2059 -0.6058  0.5474
  926MOL0     H27743   0.554   3.445   7.401 -2.5193  4.1545  2.0951
  926MOL0     H27744   0.419   3.281   7.281 -3.0395  2.2757 -1.3301
  926MOL0     H27745   0.424   3.378   7.129  0.6736  1.4036 -0.1449
  926MOL0     H27746   0.853   3.247   7.157 -1.0389  1.1966  1.0954
  926MOL0     H27747   1.100   3.170   7.382 -0.1834 -0.7873  1.7586
  926MOL0     H27748   1.066   3.204   7.209 -0.7731  0.1852  1.6180
  926MOL0     H27749   1.102   3.044   7.273  1.4389  0.3291  1.7427
  926MOL0     H27750   1.054   3.068   7.822  0.4795  0.3707  1.4943
  926MOL0     H27751   1.198   2.960   7.983  2.3988 -0.3753  0.1978
  926MOL0     H27752   1.108   2.766   8.204  0.0786  0.1611  0.5119
  926MOL0     H27753   1.081   2.596   8.163 -3.4862  2.5111  2.4909
  926MOL0     H27754   1.221   2.567   8.337 -1.1328 -2.2626 -2.1419
  926MOL0     H27755   1.313   2.546   8.207 -1.3370 -0.9403 -0.0683
  926MOL0     H27756   1.274   2.804   8.344  2.3445  2.7162 -0.9581
  926MOL0     H27757   1.410   2.779   8.225 -1.3947 -0.4441 -1.3531
  926MOL0     H27758   1.494   2.605   8.388 -2.2123 -2.5038  0.5878
  926MOL0     H27759   1.370   2.662   8.508  0.7329  0.6894  0.8566
  926MOL0     H27760   1.593   2.794   8.361  0.4670  2.1552 -0.0302
  926MOL0     H27761   1.484   2.888   8.477  0.5428 -0.3249  1.9731
  926MOL0     H27762   1.675   2.672   8.550  1.5849  0.3990  2.9285
  926MOL0     H27763   1.544   2.725   8.665 -1.2362 -1.3034 -1.3106
  926MOL0     H27764   1.642   2.952   8.651  1.8887  1.4357 -0.9893
  926MOL0     H27765   1.747   2.911   8.533  0.6943  3.0453  0.4598
  926MOL0     H27766   1.860   2.729   8.687  1.6687  1.6889 -1.0665
  926MOL0     H27767   1.721   2.784   8.804  1.0947  1.8775  1.2279
  926MOL0     H27768   1.031   2.578   7.880  3.3390  0.1222 -0.6420
  926MOL0     H27769   0.882   2.685   7.716  0.5348  1.4911 -2.9650
  926MOL0     H27770   0.665   3.017   7.538 -0.7407 -0.7364 -1.5443
  926MOL0     H27771   0.525   3.129   7.403 -0.2551  2.5437  0.1985
  926MOL0     H27772   0.930   3.607   6.987  0.8737 -0.4295 -0.3333
  926MOL0     H27773   0.744   3.500   6.878  0.2051 -0.1249 -0.7990
  926MOL0     H27774   0.376   3.442   6.699 -0.0157  2.3757  5.8723
  926MOL0     H27775   0.211   3.340   6.571 -0.7679 -0.0813 -0.8928
  926MOL0     H27776   0.023   3.419   6.305 -0.1846  2.4217  1.6416
  926MOL0     H27777   0.060   3.297   6.424 -2.7990 -3.3465 -1.6561
  926MOL0     H27778  -0.202   3.296   6.473  2.3396 -2.6409  0.9638
  926MOL0     H27779  -0.131   3.208   6.335 -1.4928 -0.8973 -1.6186
  926MOL0     H27780  -0.341   3.337   6.314 -0.1875  1.8345  0.3363
  926MOL0     H27781  -0.246   3.480   6.320  1.5738 -0.0158  2.3451
  926MOL0     H27782  -0.167   3.272   6.109  1.4902  1.5674 -2.2549
  926MOL0     H27783  -0.148   3.453   6.105 -0.6687  0.1159 -1.5687
  926MOL0     H27784  -0.537   3.375   5.961 -0.4656  1.6529  3.0660
  926MOL0     H27785   0.019   3.717   6.519 -0.8426 -0.2139  1.9532
  926MOL0     H27786   0.084   3.892   6.664 -0.7209 -2.3208  0.2071
  926MOL0     H27787   0.210   3.891   6.785  1.6751  0.3957 -0.2487
  926MOL0     H27788   0.244   3.934   6.612  1.4789  1.5627  2.1367
  927MOL0     O27789   5.667   2.506   5.876  0.5132 -0.3654  0.1454
  927MOL0     C27790   5.609   2.507   5.986 -0.0578  1.1141 -0.1459
  927MOL0     O27791   5.565   2.620   6.042 -0.4535  0.0048 -0.4105
  927MOL0     C27792   5.565   2.740   5.982 -0.8299  0.7689  0.9338
  927MOL0     C27793   5.644   2.841   6.043  0.6537 -0.5009  0.0350
  927MOL0     C27794   5.645   2.972   5.988  0.1370 -0.0384  0.4462
  927MOL0     C27795   5.579   3.006   5.872  0.0615  0.2719  0.6656
  927MOL0     O27796   5.585   3.133   5.814  0.8765  0.3803  0.0913
  927MOL0     C27797   5.679   3.235   5.866 -1.0119  1.0914 -0.3466
  927MOL0     C27798   5.669   3.377   5.804 -0.4204 -0.4049 -0.4191
  927MOL0     C27799   5.683   3.398   5.649 -0.3780  1.1465  0.2783
  927MOL0     C27800   5.577   3.327   5.564 -0.4958 -0.1910 -0.8032
  927MOL0     C27801   5.554   3.381   5.424  0.2286 -0.2043  0.3579
  927MOL0     C27802   5.690   3.358   5.345  0.6674  1.0385  0.2060
  927MOL0     C27803   5.667   3.401   5.195  0.7521  0.7182 -1.4416
  927MOL0     C27804   5.789   3.400   5.116 -0.9273  0.1501  0.2260
  927MOL0     N27805   5.774   3.430   4.971 -0.2852 -0.4515 -0.5984
  927MOL0     C27806   5.718   3.543   4.923 -0.0664 -0.6802  0.4236
  927MOL0     C27807   5.711   3.526   4.786 -0.1985 -0.7455 -0.5018
  927MOL0     C27808   5.682   3.640   4.699 -0.0918  0.6877  0.0838
  927MOL0     C27809   5.727   3.608   4.554 -0.9196  0.5042 -0.6560
  927MOL0     C27810   5.616   3.535   4.481  0.7510  0.0985 -0.4274
  927MOL0     C27811   5.661   3.506   4.336 -0.0746 -0.9826  0.0862
  927MOL0     O27812   5.764   3.406   4.332  0.7536 -0.2495  0.1002
  927MOL0     C27813   5.735   3.275   4.375 -0.7916  0.7202 -0.2475
  927MOL0     C27814   5.806   3.219   4.481 -0.3275  0.0304 -0.5491
  927MOL0     C27815   5.795   3.088   4.535 -0.1778 -0.1970  0.6089
  927MOL0     C27816   5.860   3.068   4.666 -0.0213 -0.2193  0.3729
  927MOL0     C27817   5.710   3.006   4.464  0.3236 -0.2266  0.1992
  927MOL0     C27818   5.677   2.868   4.501 -0.7524  1.2916  0.5699
  927MOL0     O27819   5.553   2.829   4.461 -0.0515 -0.4745  0.2879
  927MOL0     C27820   5.508   2.706   4.509  0.3040  0.2902 -0.3671
  927MOL0     C27821   5.576   2.579   4.506 -0.0762  0.4267  0.1763
  927MOL0     C27822   5.512   2.466   4.559  0.0507  0.1715 -0.0839
  927MOL0     C27823   5.375   2.468   4.602  0.0461  0.4511  0.0149
  927MOL0     O27824   5.302   2.357   4.625 -0.3889  0.1260  0.7720
  927MOL0     C27825   5.368   2.226   4.630  0.6044  0.4208  0.5413
  927MOL0     C27826   5.284   2.136   4.726  0.0905  0.2148 -0.5942
  927MOL0     C27827   5.318   1.985   4.735  0.3297  0.1895 -0.0462
  927MOL0     C27828   5.458   1.935   4.758 -0.1100  0.3722 -0.3715
  927MOL0     C27829   5.462   1.786   4.708  0.4685 -0.2079 -0.5747
  927MOL0     C27830   5.363   1.692   4.792 -0.2975  0.1196  0.7171
  927MOL0     C27831   5.399   1.672   4.940  0.5522 -0.2076  0.0000
  927MOL0     C27832   5.287   1.607   5.013  0.8738 -0.4778  0.1681
  927MOL0    Cl27833   5.196   1.742   5.092 -0.5010 -0.0985 -0.2656
  927MOL0     C27834   5.314   2.589   4.601 -0.1996  0.0394  0.5950
  927MOL0     C27835   5.374   2.705   4.545 -0.9873 -0.0216  0.3319
  927MOL0     O27836   5.757   2.800   4.576 -0.0024  0.0500  0.1326
  927MOL0     C27837   5.642   3.062   4.353 -0.0562  0.0205  0.0976
  927MOL0     C27838   5.646   3.194   4.303 -0.0705 -0.5458  0.4801
  927MOL0     N27839   5.754   3.401   4.758 -0.3968 -0.7704  0.1273
  927MOL0     N27840   5.800   3.347   4.866  0.2396 -0.9725  0.3486
  927MOL0     C27841   5.514   2.897   5.806  0.8196  0.8912 -0.7762
  927MOL0     C27842   5.507   2.766   5.856 -1.2078 -0.0172  0.1201
  927MOL0     C27843   5.574   2.373   6.054 -0.6797 -0.9737 -0.8218
  927MOL0     C27844   5.504   2.379   6.180  0.4572 -1.3018  0.0933
  927MOL0     C27845   5.455   2.262   6.241  0.0462 -0.1141  0.0101
  927MOL0     C27846   5.482   2.139   6.188 -0.0015  0.7277  0.8019
  927MOL0     O27847   5.422   2.031   6.251 -0.2251 -1.4542  0.6314
  927MOL0     C27848   5.320   1.978   6.174  0.4011 -0.1684  0.0377
  927MOL0     C27849   5.189   2.053   6.208 -0.0221 -0.7775 -0.2268
  927MOL0     C27850   5.063   1.967   6.171 -0.7195  0.3847 -0.0287
  927MOL0     C27851   5.030   1.860   6.279 -0.2714  0.0773  0.1512
  927MOL0     C27852   4.884   1.838   6.299 -0.6864 -0.0699  0.6786
  927MOL0     C27853   4.770   1.816   6.312  0.3414  0.4618 -1.8616
  927MOL0     C27854   5.563   2.125   6.069 -0.9279 -0.2861  0.5166
  927MOL0     C27855   5.614   2.247   6.012  0.4367  0.6728 -0.1792
  927MOL0     C27856   5.718   2.217   5.898  0.0660  0.5720  0.9540
  927MOL0     H27857   5.696   2.827   6.137 -1.6304 -3.2010  1.0179
  927MOL0     H27858   5.697   3.053   6.039  1.4802  0.6756 -1.9002
  927MOL0     H27859   5.784   3.207   5.851 -0.3359  4.2093 -2.3478
  927MOL0     H27860   5.657   3.245   5.973 -0.9920 -0.4549 -0.1665
  927MOL0     H27861   5.578   3.426   5.840  0.6482 -1.7823  4.9951
  927MOL0     H27862   5.753   3.440   5.835  1.8451 -1.4634 -3.8238
  927MOL0     H27863   5.653   3.501   5.631 -3.2259  0.8083  2.2836
  927MOL0     H27864   5.783   3.378   5.610 -1.7322  0.0576 -2.9990
  927MOL0     H27865   5.611   3.223   5.561  2.0046  0.5579 -0.5596
  927MOL0     H27866   5.480   3.332   5.615  0.3983 -0.1612  0.9556
  927MOL0     H27867   5.531   3.486   5.443  0.9995 -0.0645  0.5490
  927MOL0     H27868   5.470   3.327   5.379 -1.0016  2.1658 -0.3169
  927MOL0     H27869   5.771   3.414   5.392  2.0178 -2.3653  2.2617
  927MOL0     H27870   5.716   3.252   5.348 -1.7625  0.2867 -1.3191
  927MOL0     H27871   5.641   3.508   5.192  0.6520  0.7360 -0.3773
  927MOL0     H27872   5.582   3.343   5.157 -0.9423  1.7747  0.5323
  927MOL0     H27873   5.860   3.475   5.151 -0.9543  0.2731  0.0207
  927MOL0     H27874   5.830   3.299   5.125 -0.7934  0.1508 -0.3179
  927MOL0     H27875   5.706   3.635   4.978  4.4056 -2.1337  4.5191
  927MOL0     H27876   5.738   3.731   4.720  1.0577 -0.0457  0.3267
  927MOL0     H27877   5.575   3.660   4.701  0.4746  4.2714  1.8539
  927MOL0     H27878   5.758   3.700   4.503  2.4078  0.6761  1.3720
  927MOL0     H27879   5.818   3.548   4.557 -1.7163 -0.8412 -2.2023
  927MOL0     H27880   5.600   3.433   4.519  1.8985 -0.8498 -2.3582
  927MOL0     H27881   5.524   3.593   4.480  1.0112  0.5126 -1.6958
  927MOL0     H27882   5.574   3.477   4.277  0.0464 -3.0663  0.8305
  927MOL0     H27883   5.706   3.598   4.299 -0.1025 -0.8700  0.3312
  927MOL0     H27884   5.884   3.285   4.518 -2.2190  1.9294  0.2277
  927MOL0     H27885   5.778   3.053   4.738 -1.9364  2.5147 -1.0838
  927MOL0     H27886   5.923   3.148   4.706  1.3429 -1.1940  0.2516
  927MOL0     H27887   5.917   2.974   4.668 -0.6355 -0.6013  1.7792
  927MOL0     H27888   5.677   2.572   4.467  0.2054 -0.1425  0.9831
  927MOL0     H27889   5.570   2.376   4.544  2.0991  1.2463  0.9583
  927MOL0     H27890   5.389   2.175   4.535  3.6324  2.0742  0.1597
  927MOL0     H27891   5.469   2.231   4.673  1.0345 -1.0596 -0.2255
  927MOL0     H27892   5.290   2.176   4.828  3.9068  1.2705 -1.1077
  927MOL0     H27893   5.177   2.146   4.701 -1.2513 -2.9556  2.9442
  927MOL0     H27894   5.306   1.951   4.632 -0.3883  0.5095 -0.0786
  927MOL0     H27895   5.253   1.932   4.805  2.2795 -1.6201  0.5003
  927MOL0     H27896   5.477   1.940   4.866  1.3456  1.0528 -0.6268
  927MOL0     H27897   5.532   1.998   4.707  0.4972 -1.4113 -1.7988
  927MOL0     H27898   5.437   1.789   4.601  0.0860  1.0057 -0.4743
  927MOL0     H27899   5.563   1.750   4.725 -0.6562 -4.5660 -1.9991
  927MOL0     H27900   5.380   1.591   4.754  4.3064  0.0435  2.2704
  927MOL0     H27901   5.261   1.730   4.786 -0.2390  0.0583 -2.0158
  927MOL0     H27902   5.448   1.760   4.984 -0.1302  0.6312 -0.8663
  927MOL0     H27903   5.473   1.593   4.925  0.0729 -0.2891 -2.3822
  927MOL0     H27904   5.325   1.551   5.099 -3.0153 -0.7738  1.9237
  927MOL0     H27905   5.218   1.544   4.955  1.3141 -0.7451 -0.0692
  927MOL0     H27906   5.213   2.593   4.643  0.1770  2.2303  1.4317
  927MOL0     H27907   5.329   2.804   4.540  0.7849  0.8590  0.9913
  927MOL0     H27908   5.579   2.995   4.296 -0.0948  0.6077 -0.5721
  927MOL0     H27909   5.593   3.233   4.217  1.0702  2.0635  0.8592
  927MOL0     H27910   5.476   2.909   5.705  0.5151  0.8807 -0.6649
  927MOL0     H27911   5.472   2.686   5.792 -0.8531  1.8799 -2.5852
  927MOL0     H27912   5.467   2.475   6.215  2.3409 -0.7936  0.8085
  927MOL0     H27913   5.379   2.266   6.319  0.5880 -2.9373  0.7996
  927MOL0     H27914   5.341   1.982   6.067 -0.1066 -2.0319 -0.1700
  927MOL0     H27915   5.298   1.875   6.204  0.1419  0.4208  2.0645
  927MOL0     H27916   5.205   2.141   6.145  4.8353 -0.9639  0.3538
  927MOL0     H27917   5.178   2.083   6.312 -0.7215 -1.3669 -0.1309
  927MOL0     H27918   4.980   2.036   6.157 -0.4843  0.1126 -3.9581
  927MOL0     H27919   5.080   1.910   6.079  0.0762  1.2478 -0.4394
  927MOL0     H27920   5.080   1.882   6.375 -1.1240  0.4759  0.5109
  927MOL0     H27921   5.070   1.764   6.247 -1.7217  0.6339 -3.7784
  927MOL0     H27922   4.669   1.797   6.343  0.9929  0.3629  0.4152
  927MOL0     H27923   5.593   2.027   6.033 -0.3959  0.5713 -1.5218
  927MOL0     H27924   5.724   2.109   5.882  1.7937  0.6835  0.6770
  927MOL0     H27925   5.681   2.271   5.810  0.8062  3.2826  2.2071
  927MOL0     H27926   5.813   2.259   5.931 -1.2104  3.5540  1.2308
  928MOL0     O27927   6.355   2.888   8.185  0.1258 -0.1324 -0.2741
  928MOL0     C27928   6.373   2.786   8.251  1.2094  0.3061 -0.4446
  928MOL0     O27929   6.273   2.695   8.274 -0.3730 -0.1431  0.0551
  928MOL0     C27930   6.159   2.696   8.198  0.2916  0.0091 -0.4904
  928MOL0     C27931   6.163   2.609   8.094 -0.5076 -0.2155 -0.2610
  928MOL0     C27932   6.058   2.578   8.009 -0.4974 -0.3186 -0.6007
  928MOL0     C27933   5.944   2.660   8.024 -0.0620  0.1980 -0.1375
  928MOL0     O27934   5.849   2.669   7.922  0.1070 -0.3831 -0.0100
  928MOL0     C27935   5.848   2.792   7.852  1.0949 -0.4079 -0.3020
  928MOL0     C27936   5.781   2.786   7.717  0.8572  1.1113 -0.2565
  928MOL0     C27937   5.792   2.927   7.644  0.1885  0.5039  0.3938
  928MOL0     C27938   5.667   3.003   7.677 -0.3491 -0.2513  0.4928
  928MOL0     C27939   5.686   3.152   7.647  0.0943 -0.2446 -0.1147
  928MOL0     C27940   5.553   3.230   7.625 -0.1400  0.4257 -0.6241
  928MOL0     C27941   5.582   3.374   7.592 -0.7509 -0.3698 -0.2144
  928MOL0     C27942   5.472   3.459   7.658 -0.5106  0.1034  0.5011
  928MOL0     N27943   5.486   3.478   7.805  0.4202 -0.0954 -0.4706
  928MOL0     C27944   5.453   3.393   7.907  0.5380  1.0768 -0.4174
  928MOL0     C27945   5.488   3.456   8.025 -0.0554 -0.3312 -0.6595
  928MOL0     C27946   5.484   3.398   8.160  0.6906 -0.1662  1.5742
  928MOL0     C27947   5.616   3.372   8.225 -1.0554  0.7520 -0.4503
  928MOL0     C27948   5.715   3.313   8.130  0.3871 -0.6288  0.6913
  928MOL0     C27949   5.708   3.169   8.078  0.1063  0.9389  0.5427
  928MOL0     O27950   5.717   3.074   8.187  0.4338 -0.1454 -0.8069
  928MOL0     C27951   5.826   3.063   8.267 -0.3864  0.1875  0.1444
  928MOL0     C27952   5.812   3.025   8.399  0.3346 -0.1702  0.0027
  928MOL0     C27953   5.924   3.015   8.488  0.5765 -0.1490  0.4438
  928MOL0     C27954   5.910   2.956   8.628 -0.2880  0.2657  0.1646
  928MOL0     C27955   6.051   3.054   8.435 -0.0943 -0.7517 -0.6506
  928MOL0     C27956   6.179   3.056   8.501 -0.2202  0.9189  0.3671
  928MOL0     O27957   6.256   3.163   8.481 -0.3101 -0.0919 -0.7058
  928MOL0     C27958   6.381   3.158   8.537 -0.8621 -0.2842  0.5725
  928MOL0     C27959   6.487   3.097   8.460 -0.7372  0.7452 -0.6669
  928MOL0     C27960   6.616   3.098   8.515 -0.4228 -0.3489  0.0666
  928MOL0     C27961   6.638   3.158   8.643  0.5730 -0.0145  1.1908
  928MOL0     O27962   6.761   3.154   8.697  0.2323 -0.9674 -0.1282
  928MOL0     C27963   6.859   3.048   8.670 -0.1899  0.1545 -0.2774
  928MOL0     C27964   6.982   3.061   8.778  0.4317 -0.4831 -0.5375
  928MOL0     C27965   6.999   2.949   8.875  0.0237  0.1593 -0.6122
  928MOL0     C27966   7.142   2.919   8.934  0.7337 -0.1575  0.0122
  928MOL0     C27967   7.173   3.015   9.046  0.4903 -0.4835 -0.2376
  928MOL0     C27968   7.307   2.998   9.107  0.5760  0.3982  0.8754
  928MOL0     C27969   7.319   3.076   9.234 -0.2667 -0.1892  0.3809
  928MOL0     C27970   7.290   2.998   9.358  0.2873 -0.3340 -0.1011
  928MOL0    Cl27971   7.394   2.851   9.376 -0.3409 -0.5020  0.5816
  928MOL0     C27972   6.543   3.221   8.703  0.2761 -1.0422 -0.0585
  928MOL0     C27973   6.412   3.224   8.657  0.2968 -0.3639  0.1658
  928MOL0     O27974   6.206   2.962   8.581 -0.1932  0.3888 -0.0588
  928MOL0     C27975   6.064   3.087   8.303  0.3285  0.9681  0.5596
  928MOL0     C27976   5.951   3.091   8.213 -0.3332 -0.0937  0.2080
  928MOL0     N27977   5.539   3.580   7.989 -0.9559  0.3254 -0.5618
  928MOL0     N27978   5.542   3.590   7.860 -0.3696 -0.6270 -0.3295
  928MOL0     C27979   5.936   2.744   8.134 -0.1683  0.4734  0.1842
  928MOL0     C27980   6.042   2.756   8.222  0.3653 -0.3890 -1.0931
  928MOL0     C27981   6.505   2.762   8.311 -0.5071 -0.0484  0.8902
  928MOL0     C27982   6.618   2.813   8.253  0.9635 -0.6310 -0.6914
  928MOL0     C27983   6.753   2.799   8.304 -0.4856 -0.1441 -0.0331
  928MOL0     C27984   6.773   2.743   8.427  0.2600  0.2327 -0.6082
  928MOL0     O27985   6.900   2.724   8.479  0.8426 -0.6769 -0.6192
  928MOL0     C27986   7.026   2.768   8.414  0.0398 -0.4381 -0.7493
  928MOL0     C27987   7.146   2.751   8.512  0.0645  0.5722 -0.9964
  928MOL0     C27988   7.289   2.776   8.444 -0.7694  1.1063  0.5222
  928MOL0     C27989   7.306   2.932   8.417  0.7108  0.6085 -0.1738
  928MOL0     C27990   7.351   2.997   8.542  0.0230  0.5530 -0.7461
  928MOL0     C27991   7.380   3.029   8.654  0.3097 -0.0489  0.2118
  928MOL0     C27992   6.658   2.709   8.499 -0.7903  0.5412  0.2148
  928MOL0     C27993   6.529   2.711   8.441  0.1807  0.4698 -0.7407
  928MOL0     C27994   6.415   2.660   8.531  0.9084 -0.7798  0.7513
  928MOL0     H27995   6.254   2.554   8.073 -0.5716 -1.5781  2.5287
  928MOL0     H27996   6.056   2.522   7.916 -0.4141 -0.5270 -0.4771
  928MOL0     H27997   5.948   2.831   7.830 -0.1297  2.5771 -1.0797
  928MOL0     H27998   5.792   2.870   7.904  0.7524 -0.2875 -0.8519
  928MOL0     H27999   5.845   2.709   7.674 -0.3917  0.8664 -1.7778
  928MOL0     H28000   5.682   2.742   7.731  0.6751  0.8152 -2.1273
  928MOL0     H28001   5.882   2.975   7.684 -1.5415  1.5132  3.4309
  928MOL0     H28002   5.808   2.925   7.536 -0.5018  6.0238 -0.1204
  928MOL0     H28003   5.581   2.969   7.619  0.2066  2.3627 -2.1181
  928MOL0     H28004   5.642   3.000   7.784 -1.9032 -1.8261  0.1328
  928MOL0     H28005   5.765   3.171   7.575 -0.2646  0.1596 -0.4082
  928MOL0     H28006   5.723   3.198   7.738 -1.3630 -0.7730  0.7912
  928MOL0     H28007   5.488   3.181   7.552  2.1646 -0.3811 -2.2604
  928MOL0     H28008   5.502   3.216   7.721  1.1695 -0.5378 -0.0336
  928MOL0     H28009   5.597   3.395   7.486  3.0108 -1.8309 -0.1048
  928MOL0     H28010   5.672   3.409   7.643 -0.6750  2.3253 -1.9475
  928MOL0     H28011   5.474   3.551   7.599  2.5911  0.0232  0.3027
  928MOL0     H28012   5.379   3.403   7.644  0.4835 -2.7917  3.8979
  928MOL0     H28013   5.426   3.288   7.901 -0.0817  1.1816  0.3386
  928MOL0     H28014   5.416   3.313   8.153 -1.4094  1.5178 -0.2680
  928MOL0     H28015   5.421   3.468   8.217 -1.5683 -2.2511  1.8198
  928MOL0     H28016   5.648   3.473   8.255  1.6712  0.1620 -1.1278
  928MOL0     H28017   5.597   3.304   8.309 -1.3211 -0.1275 -1.2195
  928MOL0     H28018   5.717   3.378   8.043 -3.4295  0.2757  1.1142
  928MOL0     H28019   5.813   3.317   8.179 -1.0167 -0.5508  3.7331
  928MOL0     H28020   5.616   3.152   8.020  0.0135  1.7859  0.4338
  928MOL0     H28021   5.796   3.153   8.016  0.5580 -3.0904  1.9483
  928MOL0     H28022   5.711   3.010   8.434 -0.8716  1.3783 -2.5892
  928MOL0     H28023   5.807   2.977   8.657 -2.0726 -0.9181 -4.4297
  928MOL0     H28024   5.988   2.992   8.696 -1.4102  3.6638 -0.1668
  928MOL0     H28025   5.924   2.847   8.627  0.8895  0.3126  3.1376
  928MOL0     H28026   6.467   3.038   8.371  1.0976 -1.0994  0.0769
  928MOL0     H28027   6.693   3.052   8.454 -3.5327 -2.2873 -2.8184
  928MOL0     H28028   6.805   2.954   8.684 -2.8196  1.2767 -2.0935
  928MOL0     H28029   6.900   3.052   8.568  0.2061 -0.8979 -0.1778
  928MOL0     H28030   7.063   3.074   8.706 -0.2462  1.1257 -1.0560
  928MOL0     H28031   6.962   3.154   8.832 -1.9946 -2.5031  2.3897
  928MOL0     H28032   6.983   2.851   8.828  0.8970  0.6840 -2.0463
  928MOL0     H28033   6.920   2.963   8.950  0.6465  0.7118 -0.0512
  928MOL0     H28034   7.216   2.922   8.853 -1.3334 -0.6564 -2.0158
  928MOL0     H28035   7.139   2.818   8.976  2.8762 -0.2227  0.1379
  928MOL0     H28036   7.167   3.122   9.025  1.2496 -0.6659 -1.4915
  928MOL0     H28037   7.095   2.999   9.121  1.6423 -0.6250  0.9678
  928MOL0     H28038   7.390   3.038   9.047  1.6150  0.1239  2.0724
  928MOL0     H28039   7.325   2.891   9.122 -1.7820 -0.6740 -2.7707
  928MOL0     H28040   7.247   3.157   9.222 -1.1856 -1.0274  0.0948
  928MOL0     H28041   7.421   3.115   9.242  0.2111 -0.9427 -1.5574
  928MOL0     H28042   7.183   2.974   9.355  0.3675 -0.6451 -0.7097
  928MOL0     H28043   7.304   3.058   9.448 -0.2321  1.1540 -0.9813
  928MOL0     H28044   6.568   3.258   8.802  1.0785 -0.2319 -0.5415
  928MOL0     H28045   6.344   3.284   8.716 -1.1163 -1.2707 -0.4917
  928MOL0     H28046   6.161   3.108   8.258  0.5252  0.9762  0.9862
  928MOL0     H28047   5.980   3.105   8.109  0.3606 -3.3183 -0.1326
  928MOL0     H28048   5.846   2.803   8.150  0.4609  0.9591  2.0828
  928MOL0     H28049   6.038   2.823   8.307  0.3896  0.3169 -1.6326
  928MOL0     H28050   6.597   2.854   8.155 -2.2179 -0.6689 -0.1134
  928MOL0     H28051   6.836   2.843   8.250 -0.6238  1.7808  1.2079
  928MOL0     H28052   7.040   2.709   8.323  2.2179 -0.5306 -0.4285
  928MOL0     H28053   7.021   2.873   8.386  0.9722 -0.4203 -0.8872
  928MOL0     H28054   7.144   2.658   8.569  1.5905  0.5521 -0.9317
  928MOL0     H28055   7.126   2.825   8.591  1.1723  2.9991 -2.8596
  928MOL0     H28056   7.365   2.751   8.518 -2.0787 -2.6996  0.8002
  928MOL0     H28057   7.308   2.734   8.345 -1.9194  1.3423  0.1771
  928MOL0     H28058   7.212   2.978   8.385  1.3793  0.7639 -2.0490
  928MOL0     H28059   7.373   2.941   8.331 -2.3136  0.7529 -2.6512
  928MOL0     H28060   7.407   3.064   8.752 -0.3617  1.1745 -0.0215
  928MOL0     H28061   6.670   2.655   8.592 -0.2309  0.9087  0.3636
  928MOL0     H28062   6.359   2.576   8.489 -1.3792  1.6565 -1.3731
  928MOL0     H28063   6.449   2.623   8.628  1.2072 -1.5597  0.3553
  928MOL0     H28064   6.335   2.731   8.558 -0.4701 -3.0362  3.1329
  929MOL0     O28065   1.457   5.018   2.125 -0.2705 -0.1517 -0.3840
  929MOL0     C28066   1.395   4.944   2.200 -0.4202 -1.2308  0.9257
  929MOL0     O28067   1.388   4.958   2.341 -0.8126 -0.1112 -0.7456
  929MOL0     C28068   1.370   5.080   2.397  0.3225  0.5310 -0.3894
  929MOL0     C28069   1.251   5.105   2.471  0.6599 -0.2689 -0.5724
  929MOL0     C28070   1.240   5.222   2.549  0.5449 -0.5608 -0.0955
  929MOL0     C28071   1.330   5.316   2.535  0.4776  0.2789 -0.2170
  929MOL0     O28072   1.301   5.439   2.594  0.5927 -1.1891 -0.3699
  929MOL0     C28073   1.340   5.568   2.538 -0.0085 -0.5714 -0.4820
  929MOL0     C28074   1.420   5.657   2.631  0.8773  0.2874 -0.0710
  929MOL0     C28075   1.432   5.792   2.559 -0.3812 -0.0429 -0.4459
  929MOL0     C28076   1.523   5.876   2.652  0.0218  0.6505  0.2132
  929MOL0     C28077   1.581   5.998   2.582  0.1748 -0.1441  0.6065
  929MOL0     C28078   1.560   6.132   2.657 -0.4461  0.0355  0.3968
  929MOL0     C28079   1.643   6.250   2.596  0.7252 -0.1141  0.1772
  929MOL0     C28080   1.795   6.239   2.577  0.1001 -0.4489  0.7753
  929MOL0     N28081   1.837   6.363   2.507  0.0864  0.2416  0.0726
  929MOL0     C28082   1.897   6.366   2.383  0.4823 -0.0576 -1.0765
  929MOL0     C28083   1.926   6.489   2.353  1.7531  0.3436 -0.0884
  929MOL0     C28084   1.998   6.542   2.234 -0.2873  0.4625  0.0772
  929MOL0     C28085   2.135   6.476   2.206 -0.3101  0.0814  0.7356
  929MOL0     C28086   2.237   6.469   2.327  0.5689  0.5278 -0.1189
  929MOL0     C28087   2.380   6.443   2.280  0.2230  0.9031  0.2016
  929MOL0     O28088   2.436   6.547   2.196  1.0049  0.4262 -0.0555
  929MOL0     C28089   2.488   6.659   2.261 -0.4848  0.8873 -0.3151
  929MOL0     C28090   2.538   6.765   2.190 -0.1212 -0.7110  0.4389
  929MOL0     C28091   2.579   6.890   2.241 -0.5075 -0.8194 -1.0493
  929MOL0     C28092   2.643   6.992   2.144 -0.2566  0.9326 -0.0223
  929MOL0     C28093   2.575   6.903   2.386  0.4900 -0.5146  0.1488
  929MOL0     C28094   2.633   7.014   2.461 -0.0847  0.5488 -0.5257
  929MOL0     O28095   2.540   7.061   2.549  0.9092  0.6446  0.2585
  929MOL0     C28096   2.569   7.159   2.635  0.5861  0.9027 -1.0940
  929MOL0     C28097   2.526   7.136   2.767 -0.3000  0.5266  0.5620
  929MOL0     C28098   2.523   7.236   2.860  0.2036 -0.3554 -0.4400
  929MOL0     C28099   2.576   7.363   2.831  0.0025  1.1380 -0.0940
  929MOL0     O28100   2.595   7.465   2.924 -0.6637 -0.5161 -0.4247
  929MOL0     C28101   2.645   7.425   3.055 -0.0458 -0.1216 -0.7074
  929MOL0     C28102   2.727   7.532   3.138 -0.2102 -0.1870 -0.1401
  929MOL0     C28103   2.650   7.663   3.155  0.2648 -0.5164 -0.0245
  929MOL0     C28104   2.527   7.656   3.235  0.1348  0.6784  0.3913
  929MOL0     C28105   2.522   7.587   3.376 -0.4655 -0.2490  0.4448
  929MOL0     C28106   2.618   7.641   3.466  0.0168 -0.0179 -0.2579
  929MOL0     C28107   2.572   7.606   3.604 -0.3182  0.6565 -0.3273
  929MOL0     C28108   2.666   7.656   3.705 -0.4462  0.0850  0.3703
  929MOL0    Cl28109   2.605   7.617   3.864 -0.3362  0.1679 -0.1929
  929MOL0     C28110   2.628   7.382   2.701  0.4711 -0.2770 -0.5564
  929MOL0     C28111   2.623   7.288   2.598 -1.2573 -0.4561 -0.2782
  929MOL0     O28112   2.746   7.062   2.447 -0.2599 -0.8776 -0.2952
  929MOL0     C28113   2.532   6.800   2.460  0.6112  0.4383  1.2197
  929MOL0     C28114   2.493   6.675   2.399 -0.1697 -1.2552  0.9877
  929MOL0     N28115   1.876   6.564   2.452 -0.0674  0.5894  0.5071
  929MOL0     N28116   1.813   6.489   2.534 -0.4916  0.0321 -0.8112
  929MOL0     C28117   1.457   5.295   2.460  1.2900 -0.8179 -0.0232
  929MOL0     C28118   1.469   5.172   2.397 -0.6321 -1.1513 -0.3180
  929MOL0     C28119   1.335   4.833   2.130  0.9360  0.0281  0.5709
  929MOL0     C28120   1.389   4.786   2.008 -0.2784  0.6319  0.0836
  929MOL0     C28121   1.341   4.670   1.944  0.5477  0.6088  0.5187
  929MOL0     C28122   1.240   4.596   2.008  0.1599 -1.3296 -0.1640
  929MOL0     O28123   1.192   4.487   1.940  0.7078 -0.4030  0.3175
  929MOL0     C28124   1.281   4.380   1.917 -0.8900  0.2045 -0.4574
  929MOL0     C28125   1.196   4.255   1.885 -0.1042  0.5265  0.4339
  929MOL0     C28126   1.151   4.246   1.736  0.1888 -0.2073 -0.7514
  929MOL0     C28127   1.101   4.106   1.706 -0.4138  0.1405  0.6478
  929MOL0     C28128   0.983   4.071   1.792 -0.5958 -0.7546 -1.0729
  929MOL0     C28129   0.895   4.026   1.863 -0.5599 -0.8152 -0.1203
  929MOL0     C28130   1.178   4.648   2.123 -0.1108 -0.8059  0.3064
  929MOL0     C28131   1.220   4.766   2.184  0.8983 -0.6358  0.7572
  929MOL0     C28132   1.145   4.813   2.305  0.3567 -0.2622 -0.5061
  929MOL0     H28133   1.192   5.019   2.499  0.9970 -0.5829 -0.8089
  929MOL0     H28134   1.146   5.240   2.599  0.4101  1.9505 -1.1210
  929MOL0     H28135   1.243   5.616   2.520 -1.0361 -2.1964  0.5121
  929MOL0     H28136   1.392   5.546   2.444 -1.8789  0.2332 -1.7696
  929MOL0     H28137   1.362   5.672   2.722  1.6927  0.0709  0.4869
  929MOL0     H28138   1.516   5.607   2.644  0.3181 -0.2493  2.5230
  929MOL0     H28139   1.477   5.781   2.460  1.9616 -2.3291  0.7431
  929MOL0     H28140   1.337   5.846   2.554  0.4825  2.4574  4.0412
  929MOL0     H28141   1.461   5.898   2.740  0.9738  1.5025  0.6880
  929MOL0     H28142   1.601   5.813   2.696  1.5755  0.6416 -2.4069
  929MOL0     H28143   1.532   5.986   2.485  1.1958 -2.4369  0.2902
  929MOL0     H28144   1.687   5.983   2.558  0.2918  1.2243  0.2122
  929MOL0     H28145   1.455   6.160   2.666 -0.0272  1.8407 -0.1048
  929MOL0     H28146   1.589   6.116   2.762 -3.3448 -0.9623  1.1691
  929MOL0     H28147   1.623   6.338   2.659 -0.9297 -1.3103  1.4130
  929MOL0     H28148   1.605   6.281   2.499  4.1243  1.3257 -0.8626
  929MOL0     H28149   1.851   6.238   2.671  1.4028 -1.7377  0.0305
  929MOL0     H28150   1.816   6.148   2.520  1.0394  1.1024 -1.5041
  929MOL0     H28151   1.935   6.288   2.318  3.6692  0.1763  0.2898
  929MOL0     H28152   2.022   6.648   2.246 -2.1478  1.1346 -1.5370
  929MOL0     H28153   1.923   6.538   2.154 -1.9172  1.2471  1.4968
  929MOL0     H28154   2.113   6.377   2.166 -2.0780  1.0018 -0.7680
  929MOL0     H28155   2.173   6.545   2.129  2.5875 -1.6595  0.4632
  929MOL0     H28156   2.240   6.563   2.383  2.0001  0.2216  0.3435
  929MOL0     H28157   2.191   6.391   2.388  0.9051 -2.7604 -3.7017
  929MOL0     H28158   2.454   6.411   2.354  0.1755  0.8448  0.2237
  929MOL0     H28159   2.362   6.356   2.216 -1.5103  1.6470 -0.3684
  929MOL0     H28160   2.540   6.751   2.082 -5.1947 -1.1087  0.1764
  929MOL0     H28161   2.655   6.932   2.053  0.6879  0.6842  0.2571
  929MOL0     H28162   2.742   7.026   2.177  0.6247  1.4841 -2.9765
  929MOL0     H28163   2.597   7.083   2.106  1.3265  1.6011 -0.4233
  929MOL0     H28164   2.482   7.042   2.801 -0.2484 -1.0881 -3.3237
  929MOL0     H28165   2.493   7.214   2.962  4.5116  2.6526  1.8137
  929MOL0     H28166   2.559   7.386   3.110  0.9355 -2.5727 -0.7390
  929MOL0     H28167   2.702   7.333   3.040 -0.0019 -0.6121  1.9657
  929MOL0     H28168   2.747   7.492   3.238 -0.5439 -0.0728 -0.0297
  929MOL0     H28169   2.823   7.543   3.085 -0.4164 -1.3608 -0.8095
  929MOL0     H28170   2.628   7.697   3.054 -3.2790 -2.6209 -0.1418
  929MOL0     H28171   2.723   7.727   3.205 -0.9807  0.0288  1.1614
  929MOL0     H28172   2.462   7.598   3.169 -0.3567 -1.2348  2.4502
  929MOL0     H28173   2.472   7.748   3.258 -0.7203  0.5409 -0.9675
  929MOL0     H28174   2.421   7.583   3.418 -1.3791 -1.7021 -1.6948
  929MOL0     H28175   2.560   7.484   3.367 -1.1550 -0.6575  1.8449
  929MOL0     H28176   2.618   7.750   3.460 -0.5005  0.0819  1.1359
  929MOL0     H28177   2.720   7.610   3.442 -0.0120 -1.2593  1.1047
  929MOL0     H28178   2.566   7.499   3.623 -2.8339  0.7249 -0.4886
  929MOL0     H28179   2.481   7.660   3.633  0.1799  0.3314  2.0612
  929MOL0     H28180   2.686   7.762   3.687  3.7904 -0.9138 -2.4680
  929MOL0     H28181   2.766   7.618   3.682  0.2359  1.3878  1.0530
  929MOL0     H28182   2.662   7.484   2.684  0.3342  0.3732  2.4708
  929MOL0     H28183   2.645   7.310   2.494 -0.0406  2.0652  0.4393
  929MOL0     H28184   2.529   6.810   2.569 -1.5000  2.6537  1.0473
  929MOL0     H28185   2.481   6.597   2.474  0.6528 -2.5563 -0.1848
  929MOL0     H28186   1.527   5.378   2.459 -1.6707  1.9232 -2.1210
  929MOL0     H28187   1.559   5.154   2.340  0.4247  2.1866  0.0747
  929MOL0     H28188   1.478   4.831   1.966  1.5539 -1.0618  1.9070
  929MOL0     H28189   1.373   4.633   1.847  1.0123  0.8136  0.5925
  929MOL0     H28190   1.359   4.390   1.841  2.0352  0.3696  2.3856
  929MOL0     H28191   1.337   4.361   2.008  0.5098  1.9018 -0.9297
  929MOL0     H28192   1.116   4.248   1.958  0.3929 -1.9086  0.8409
  929MOL0     H28193   1.263   4.169   1.900 -1.2912 -0.8195 -1.5606
  929MOL0     H28194   1.067   4.306   1.700  0.0428 -0.1313 -0.2947
  929MOL0     H28195   1.243   4.262   1.679  0.8462 -1.3633 -0.0535
  929MOL0     H28196   1.186   4.041   1.727 -0.3951  0.8701  3.2777
  929MOL0     H28197   1.064   4.098   1.604 -0.0488  1.2503  0.4201
  929MOL0     H28198   0.815   3.988   1.924 -2.6740  1.2732 -1.4246
  929MOL0     H28199   1.095   4.599   2.174  1.0011 -1.5712  1.4626
  929MOL0     H28200   1.202   4.807   2.398 -0.5948  1.1976  0.2042
  929MOL0     H28201   1.091   4.905   2.279  2.4145  1.0998 -0.1700
  929MOL0     H28202   1.055   4.758   2.334  1.4089 -0.3857  2.8703
  930MOL0     O28203   5.577   4.392   8.770 -0.0788  0.2469  0.1134
  930MOL0     C28204   5.464   4.370   8.824  0.4479 -0.0962 -0.3767
  930MOL0     O28205   5.405   4.447   8.921 -0.3742 -0.1207 -0.1202
  930MOL0     C28206   5.456   4.566   8.960 -0.4195 -0.5564  0.2896
  930MOL0     C28207   5.483   4.671   8.858 -0.1343 -0.4289  0.3614
  930MOL0     C28208   5.539   4.792   8.902 -0.2596 -0.5965 -0.0236
  930MOL0     C28209   5.574   4.806   9.038  0.2199  1.8398  0.1152
  930MOL0     O28210   5.618   4.925   9.078  0.4803 -0.1232  0.3694
  930MOL0     C28211   5.515   5.002   9.141  1.0231 -0.0081 -0.1911
  930MOL0     C28212   5.551   5.150   9.165 -0.1146 -0.1463 -0.3749
  930MOL0     C28213   5.460   5.229   9.262 -0.1582 -0.2231 -0.1755
  930MOL0     C28214   5.537   5.348   9.312 -0.0418 -0.7418  0.4457
  930MOL0     C28215   5.443   5.442   9.408 -0.8952  0.1817 -0.5587
  930MOL0     C28216   5.338   5.517   9.326  0.0084 -0.1566  0.3331
  930MOL0     C28217   5.397   5.643   9.265 -0.1645 -0.4483 -0.6349
  930MOL0     C28218   5.284   5.733   9.197 -0.3016 -0.0975 -0.7026
  930MOL0     N28219   5.215   5.669   9.084 -0.6918  0.5648 -0.7936
  930MOL0     C28220   5.229   5.694   8.946 -0.4484 -0.0169  0.1370
  930MOL0     C28221   5.129   5.621   8.884  0.0404  0.3184  0.4511
  930MOL0     C28222   5.076   5.633   8.735  0.4428 -0.6749 -0.3203
  930MOL0     C28223   5.030   5.784   8.704  0.2906  0.5436 -1.0152
  930MOL0     C28224   4.892   5.818   8.768 -0.1804 -0.1781  0.2308
  930MOL0     C28225   4.889   5.827   8.918  0.4564 -0.2508 -0.5966
  930MOL0     O28226   4.996   5.906   8.977 -0.0605  0.0354 -0.0642
  930MOL0     C28227   4.960   5.982   9.084  0.2984  0.0682 -0.7603
  930MOL0     C28228   4.942   6.123   9.067 -0.5479  0.6047 -0.3953
  930MOL0     C28229   4.896   6.197   9.181 -0.1739 -0.0549  0.9341
  930MOL0     C28230   4.893   6.350   9.154 -0.6559 -0.5869  0.5780
  930MOL0     C28231   4.853   6.142   9.305 -0.5216  0.1020 -0.3387
  930MOL0     C28232   4.798   6.224   9.411  1.1618 -0.1319  0.7137
  930MOL0     O28233   4.680   6.286   9.379 -0.2835 -0.3978  0.0276
  930MOL0     C28234   4.611   6.337   9.485 -0.0180 -0.6691  0.0339
  930MOL0     C28235   4.498   6.264   9.531 -0.9989 -0.3054 -0.2385
  930MOL0     C28236   4.426   6.322   9.641  0.2388  0.6084 -0.2292
  930MOL0     C28237   4.461   6.446   9.691 -0.8694 -0.3808 -0.6584
  930MOL0     O28238   4.367   6.499   9.782  0.2154  0.3234 -0.1783
  930MOL0     C28239   4.390   6.628   9.840 -0.4167  0.4204  0.9980
  930MOL0     C28240   4.272   6.694   9.898  1.0891  0.9175  1.4461
  930MOL0     C28241   4.227   6.623  10.034  0.4942 -0.3833  1.3110
  930MOL0     C28242   4.317   6.628  10.160  0.4090 -0.5080  0.5653
  930MOL0     C28243   4.255   6.542  10.273 -0.1065  0.2604  0.5478
  930MOL0     C28244   4.115   6.595  10.322  0.1972  0.2930  0.1268
  930MOL0     C28245   4.116   6.737  10.364 -0.1129  0.2270 -0.3750
  930MOL0     C28246   3.988   6.768  10.441  0.2077  0.9613  0.4578
  930MOL0    Cl28247   3.974   6.931  10.455 -0.5523  0.3397 -0.1597
  930MOL0     C28248   4.577   6.510   9.644 -0.6501  0.1856 -0.7509
  930MOL0     C28249   4.659   6.455   9.544 -0.0755 -0.7879  0.6271
  930MOL0     O28250   4.829   6.199   9.527 -0.2465  0.3205 -0.5856
  930MOL0     C28251   4.867   6.002   9.310  0.7468 -0.2903  0.9043
  930MOL0     C28252   4.921   5.918   9.210  0.3145 -0.1083 -0.1526
  930MOL0     N28253   5.067   5.533   8.980 -0.3037  0.3537  0.6715
  930MOL0     N28254   5.118   5.572   9.093 -0.1314 -0.7268  0.1804
  930MOL0     C28255   5.563   4.693   9.128 -0.2051  0.1917 -0.9688
  930MOL0     C28256   5.508   4.576   9.088 -0.2287  0.6745 -0.3081
  930MOL0     C28257   5.379   4.246   8.793 -0.2367  0.1243  0.4894
  930MOL0     C28258   5.287   4.190   8.884  0.6033 -0.1696  0.4858
  930MOL0     C28259   5.208   4.085   8.845 -0.4579  0.5324  0.4944
  930MOL0     C28260   5.231   4.016   8.720  0.0966 -0.2834 -0.2065
  930MOL0     O28261   5.181   3.890   8.682 -0.3276 -0.7449  0.4075
  930MOL0     C28262   5.081   3.825   8.750 -0.1390 -0.0715  0.2988
  930MOL0     C28263   4.962   3.787   8.670 -0.3751 -0.8667  0.4747
  930MOL0     C28264   4.902   3.884   8.570  0.4473 -0.5424  0.2720
  930MOL0     C28265   4.899   4.031   8.628 -0.6974 -0.3155 -0.2385
  930MOL0     C28266   4.802   4.123   8.564  0.0849 -0.1516 -0.1986
  930MOL0     C28267   4.716   4.187   8.504 -0.1418 -0.4022  0.1010
  930MOL0     C28268   5.321   4.066   8.630  0.0233 -0.1599 -0.4472
  930MOL0     C28269   5.390   4.188   8.665 -0.7317  1.0509 -0.1296
  930MOL0     C28270   5.476   4.240   8.557  0.3109 -0.4229 -0.7515
  930MOL0     H28271   5.466   4.647   8.753  1.9157 -3.7087  0.6813
  930MOL0     H28272   5.546   4.883   8.845  1.4814  0.8969  2.3838
  930MOL0     H28273   5.490   4.946   9.232 -2.6496 -1.4598 -1.8868
  930MOL0     H28274   5.419   5.007   9.088  0.0183 -1.0077  1.4368
  930MOL0     H28275   5.653   5.160   9.203 -1.0105  3.1865  1.6204
  930MOL0     H28276   5.547   5.211   9.074  0.4074  1.4718  0.6295
  930MOL0     H28277   5.366   5.266   9.220 -0.1602  0.1511  0.1427
  930MOL0     H28278   5.447   5.168   9.351 -1.6180 -4.3044 -2.9150
  930MOL0     H28279   5.625   5.311   9.365 -0.4705 -2.0543  0.2792
  930MOL0     H28280   5.566   5.404   9.223 -1.3008  2.7414  2.0514
  930MOL0     H28281   5.512   5.507   9.463  2.3162 -3.3293 -0.0605
  930MOL0     H28282   5.395   5.375   9.480  1.7367  0.1426  1.3039
  930MOL0     H28283   5.288   5.471   9.240  0.4342  2.1499 -1.2529
  930MOL0     H28284   5.265   5.541   9.404  0.9133  2.5344  0.4715
  930MOL0     H28285   5.465   5.618   9.183  0.0890 -1.5930 -0.1054
  930MOL0     H28286   5.447   5.709   9.336  0.5501  0.0910 -1.6116
  930MOL0     H28287   5.204   5.770   9.262 -0.1432  1.3794 -1.2984
  930MOL0     H28288   5.337   5.822   9.161  0.1823 -0.7664 -1.6786
  930MOL0     H28289   5.287   5.778   8.909  0.3184 -0.3330  0.6028
  930MOL0     H28290   4.990   5.567   8.725 -1.5437  1.4877  1.3314
  930MOL0     H28291   5.153   5.597   8.665 -0.3096  0.9159 -2.0568
  930MOL0     H28292   5.112   5.855   8.722  0.2556  0.4509 -0.4833
  930MOL0     H28293   5.018   5.799   8.596  0.5086 -3.4102 -1.7422
  930MOL0     H28294   4.846   5.900   8.711  2.7804 -0.1546 -2.4062
  930MOL0     H28295   4.826   5.734   8.745 -0.3746 -1.2476  4.1238
  930MOL0     H28296   4.792   5.869   8.947  1.3801  1.1068  0.6473
  930MOL0     H28297   4.889   5.722   8.950  0.7159 -0.3039 -0.7651
  930MOL0     H28298   4.987   6.158   8.975  0.6566 -2.0064 -0.8781
  930MOL0     H28299   4.791   6.388   9.142 -0.5212 -0.6482 -0.9162
  930MOL0     H28300   4.952   6.375   9.065  1.1013  0.0969  1.8718
  930MOL0     H28301   4.946   6.390   9.241  0.7700 -2.4388  0.6074
  930MOL0     H28302   4.471   6.164   9.499  0.1062  0.1261 -2.7366
  930MOL0     H28303   4.332   6.276   9.671  1.4376 -1.4877  0.6001
  930MOL0     H28304   4.464   6.613   9.920  2.8473  0.1479 -1.8397
  930MOL0     H28305   4.448   6.691   9.771 -1.4183 -1.5491 -1.7947
  930MOL0     H28306   4.300   6.796   9.929 -1.4832  1.5804  1.8019
  930MOL0     H28307   4.187   6.682   9.831  1.2494 -2.3217  1.6761
  930MOL0     H28308   4.209   6.518  10.010 -4.5160  0.3512  0.8671
  930MOL0     H28309   4.130   6.665  10.060  0.4194  0.7189 -0.6051
  930MOL0     H28310   4.326   6.730  10.198 -0.4390 -0.2008 -0.0205
  930MOL0     H28311   4.417   6.592  10.133  0.3916  0.3326 -0.7458
  930MOL0     H28312   4.246   6.440  10.236 -0.9696  0.1085  1.1271
  930MOL0     H28313   4.325   6.541  10.357 -0.0238  3.6688  0.6803
  930MOL0     H28314   4.084   6.523  10.399  1.6372 -0.6205 -0.1029
  930MOL0     H28315   4.045   6.590  10.238  0.0767  0.9525  0.1880
  930MOL0     H28316   4.125   6.798  10.273 -2.4776 -0.1763 -0.9470
  930MOL0     H28317   4.197   6.776  10.427 -2.3358  2.6618  1.1722
  930MOL0     H28318   3.985   6.715  10.537  0.5178  1.9196  1.0121
  930MOL0     H28319   3.899   6.736  10.386 -1.4470 -1.0633  3.9433
  930MOL0     H28320   4.619   6.598   9.692  1.2977 -0.8130 -0.5207
  930MOL0     H28321   4.752   6.504   9.515  0.6929  0.3026  4.4254
  930MOL0     H28322   4.836   5.949   9.400 -0.2915  0.0177  0.7295
  930MOL0     H28323   4.933   5.811   9.226  0.4980  0.4244  5.0886
  930MOL0     H28324   5.593   4.701   9.233  1.5856 -1.2349 -1.3117
  930MOL0     H28325   5.499   4.488   9.150 -2.6575 -1.2721 -3.1019
  930MOL0     H28326   5.277   4.237   8.982  1.4406  2.0716 -0.4588
  930MOL0     H28327   5.142   4.037   8.917  0.8685 -0.9225  0.7882
  930MOL0     H28328   5.121   3.735   8.797  0.6534 -0.4053 -0.9711
  930MOL0     H28329   5.039   3.894   8.824 -3.4971 -1.5137 -0.1006
  930MOL0     H28330   4.894   3.759   8.752  1.7536  2.1029  3.5534
  930MOL0     H28331   4.993   3.697   8.616  0.8140  0.1770 -0.6477
  930MOL0     H28332   4.957   3.885   8.475 -0.9707  0.8539 -0.5749
  930MOL0     H28333   4.800   3.858   8.543  1.2250 -2.5778 -0.9284
  930MOL0     H28334   4.990   4.089   8.641 -0.3502 -1.2962  2.2872
  930MOL0     H28335   4.849   4.010   8.722 -0.0307  3.1819  1.0361
  930MOL0     H28336   4.631   4.241   8.468  1.2512  2.6133  1.0467
  930MOL0     H28337   5.348   4.022   8.534  2.3161  0.5665 -0.1981
  930MOL0     H28338   5.478   4.166   8.476  2.6003 -3.1915  1.6158
  930MOL0     H28339   5.445   4.336   8.516  2.5159  0.0969 -1.3168
  930MOL0     H28340   5.581   4.251   8.587  0.4507 -0.2535 -1.2890
  931MOL0     O28341   1.680   9.164   1.209  0.9122  0.0855  0.0346
  931MOL0     C28342   1.558   9.177   1.182 -0.2743 -0.3692  0.1124
  931MOL0     O28343   1.483   9.277   1.235  0.5113 -0.7828 -0.7573
  931MOL0     C28344   1.534   9.361   1.335  0.1273 -0.3134 -0.8924
  931MOL0     C28345   1.486   9.353   1.467  0.1712  0.9527  0.1191
  931MOL0     C28346   1.535   9.432   1.570 -0.7092  0.2754 -1.0232
  931MOL0     C28347   1.636   9.529   1.535  0.8078  0.2157  0.3196
  931MOL0     O28348   1.691   9.626   1.614  0.3432 -0.1711  0.5726
  931MOL0     C28349   1.593   9.704   1.676 -0.0249 -1.1699  0.2794
  931MOL0     C28350   1.663   9.780   1.788 -0.0029 -0.0010 -0.2927
  931MOL0     C28351   1.564   9.796   1.904 -0.3412 -0.3825 -0.0665
  931MOL0     C28352   1.648   9.869   2.014 -1.5296  1.2697 -0.0508
  931MOL0     C28353   1.573   9.908   2.140  0.7286 -0.5464 -0.3779
  931MOL0     C28354   1.480   9.801   2.208 -0.2189  0.3268 -0.1781
  931MOL0     C28355   1.559   9.679   2.271 -0.4154  0.2006 -1.1863
  931MOL0     C28356   1.461   9.589   2.364 -0.2819 -0.2372 -0.9027
  931MOL0     N28357   1.345   9.526   2.294 -0.0990  0.4317 -0.6058
  931MOL0     C28358   1.363   9.437   2.189  0.9687 -0.1303 -0.3608
  931MOL0     C28359   1.244   9.431   2.128 -0.5013  0.3635  0.0404
  931MOL0     C28360   1.226   9.321   2.028 -0.2510  0.0256  0.5157
  931MOL0     C28361   1.297   9.336   1.886 -1.3934 -0.2355 -0.1979
  931MOL0     C28362   1.231   9.248   1.776  0.2319 -0.3938 -0.4327
  931MOL0     C28363   1.287   9.111   1.775 -0.1545  0.0899  0.3764
  931MOL0     O28364   1.254   9.041   1.655  0.7136 -0.8617 -0.1179
  931MOL0     C28365   1.295   8.911   1.631 -0.6283  0.2620  0.3673
  931MOL0     C28366   1.291   8.816   1.733  0.0357 -0.2435 -0.2802
  931MOL0     C28367   1.350   8.686   1.724  0.1074 -0.2181 -0.0750
  931MOL0     C28368   1.344   8.587   1.837  0.3464  0.2628 -0.5124
  931MOL0     C28369   1.405   8.653   1.601 -0.5929 -0.4056 -0.2488
  931MOL0     C28370   1.473   8.524   1.574  0.1997 -0.4718  0.2648
  931MOL0     O28371   1.414   8.402   1.621  0.0052 -0.5833  0.2416
  931MOL0     C28372   1.474   8.282   1.610  0.3734 -0.1563  0.1883
  931MOL0     C28373   1.444   8.186   1.513 -0.3942 -0.6958 -0.4348
  931MOL0     C28374   1.521   8.070   1.500  0.1953 -0.4094  0.5681
  931MOL0     C28375   1.633   8.058   1.576  0.3183  0.5764 -0.2817
  931MOL0     O28376   1.703   7.949   1.537  0.1255 -0.1909 -0.7203
  931MOL0     C28377   1.846   7.933   1.559 -0.6175 -0.5931  0.1222
  931MOL0     C28378   1.939   8.047   1.501  0.4353  0.7525 -0.9262
  931MOL0     C28379   1.943   8.057   1.348 -0.2089 -0.0112 -0.7879
  931MOL0     C28380   1.892   8.190   1.300 -0.3518  0.8778 -0.2997
  931MOL0     C28381   1.989   8.301   1.342 -0.6791  0.4888  0.1797
  931MOL0     C28382   2.146   8.286   1.320 -0.7487  1.0785  0.4239
  931MOL0     C28383   2.237   8.412   1.287  0.3114 -0.7641 -0.0888
  931MOL0     C28384   2.231   8.451   1.139 -0.1355 -1.1879  0.0484
  931MOL0    Cl28385   2.060   8.462   1.071 -0.5677 -0.5497 -0.0755
  931MOL0     C28386   1.670   8.145   1.680  0.0604 -0.4814 -0.5175
  931MOL0     C28387   1.589   8.259   1.691  0.4581  0.3508 -0.7221
  931MOL0     O28388   1.567   8.528   1.501  0.4482 -0.4248  0.2536
  931MOL0     C28389   1.409   8.750   1.493  0.0056  0.1655 -0.6031
  931MOL0     C28390   1.373   8.878   1.519  0.3288 -0.5245  0.3175
  931MOL0     N28391   1.154   9.513   2.195  0.6138 -0.7508 -0.0531
  931MOL0     N28392   1.218   9.576   2.288 -0.6244  0.0787  0.4610
  931MOL0     C28393   1.687   9.534   1.402 -0.0176  0.2668  0.7361
  931MOL0     C28394   1.637   9.452   1.302  0.1109  0.3621  0.1010
  931MOL0     C28395   1.497   9.105   1.073  0.2508 -0.2122 -0.4307
  931MOL0     C28396   1.400   9.163   0.988  0.0525 -0.4296 -0.3538
  931MOL0     C28397   1.357   9.099   0.874  0.2318 -0.2422  0.7763
  931MOL0     C28398   1.413   8.977   0.833 -0.0145  0.6656  1.2314
  931MOL0     O28399   1.370   8.918   0.714 -0.1358 -0.0857  0.1733
  931MOL0     C28400   1.434   8.810   0.645 -0.3197  0.7177 -0.6050
  931MOL0     C28401   1.373   8.675   0.667  0.8878  0.3204  0.6365
  931MOL0     C28402   1.310   8.642   0.535 -0.9017  1.1839  0.1661
  931MOL0     C28403   1.409   8.600   0.421 -0.3534  0.6948  0.7003
  931MOL0     C28404   1.439   8.456   0.406  0.4253 -0.5019  0.0422
  931MOL0     C28405   1.450   8.335   0.386 -0.0278  0.7397  0.2849
  931MOL0     C28406   1.497   8.923   0.927 -0.3682  0.4815  0.5646
  931MOL0     C28407   1.545   8.982   1.033  0.5950  0.3609 -0.5895
  931MOL0     C28408   1.640   8.897   1.118 -0.4852  0.3488  0.4092
  931MOL0     H28409   1.420   9.269   1.484  3.6085 -2.6157 -2.3455
  931MOL0     H28410   1.496   9.423   1.671 -0.1451  1.4118 -0.6911
  931MOL0     H28411   1.516   9.642   1.724  0.9701 -1.3625  1.7023
  931MOL0     H28412   1.539   9.760   1.599 -0.2687 -0.4221  0.9725
  931MOL0     H28413   1.753   9.728   1.823  0.7198 -1.6617 -4.0740
  931MOL0     H28414   1.684   9.881   1.751  1.0792 -0.5603 -1.2716
  931MOL0     H28415   1.479   9.856   1.873 -1.5572 -2.3692 -0.7792
  931MOL0     H28416   1.525   9.699   1.936 -3.6003  1.0549  0.7151
  931MOL0     H28417   1.735   9.808   2.042 -2.3045  0.0554 -0.2027
  931MOL0     H28418   1.687   9.956   1.961  0.2106  1.8495  2.0341
  931MOL0     H28419   1.514   9.997   2.117 -0.9495 -1.5157  0.0063
  931MOL0     H28420   1.642   9.939   2.219 -0.5661 -1.0320  1.0000
  931MOL0     H28421   1.419   9.847   2.287 -0.8625 -0.6096 -0.1247
  931MOL0     H28422   1.422   9.763   2.125  1.2555  0.8201 -1.4849
  931MOL0     H28423   1.645   9.710   2.332 -0.3860 -0.2244 -1.0098
  931MOL0     H28424   1.602   9.626   2.186  1.6895 -0.9244  0.4798
  931MOL0     H28425   1.514   9.510   2.417 -0.6564 -2.8093 -4.0086
  931MOL0     H28426   1.418   9.656   2.440 -0.5160  1.2807 -2.3067
  931MOL0     H28427   1.446   9.371   2.167 -0.7272 -2.0008 -1.4273
  931MOL0     H28428   1.118   9.308   2.015 -0.3058  1.1528 -0.3034
  931MOL0     H28429   1.264   9.233   2.080  0.5034  0.2489  0.3519
  931MOL0     H28430   1.276   9.440   1.858 -0.8707 -1.1055 -4.5247
  931MOL0     H28431   1.403   9.315   1.902 -1.6199  0.0576  2.0403
  931MOL0     H28432   1.122   9.250   1.785  0.1673  0.1080 -1.2108
  931MOL0     H28433   1.263   9.294   1.681  0.6745  1.8664  0.7449
  931MOL0     H28434   1.396   9.108   1.788 -0.0547 -4.0052 -0.1182
  931MOL0     H28435   1.237   9.063   1.859  0.4076  1.1484  1.3333
  931MOL0     H28436   1.229   8.851   1.814  0.0561  0.4590 -0.5612
  931MOL0     H28437   1.272   8.505   1.831 -0.7604  1.2056 -0.3157
  931MOL0     H28438   1.334   8.642   1.931  0.0557  0.8989 -0.9063
  931MOL0     H28439   1.443   8.542   1.851  0.9318  1.7104  0.2216
  931MOL0     H28440   1.363   8.194   1.441  0.0038 -0.1285 -0.8273
  931MOL0     H28441   1.479   8.003   1.426 -0.7139  2.0267 -1.2342
  931MOL0     H28442   1.855   7.956   1.666 -2.3797  1.2083 -0.0611
  931MOL0     H28443   1.868   7.829   1.534  0.8571 -0.9777  2.5832
  931MOL0     H28444   1.916   8.146   1.540 -2.6524  0.8848 -2.7693
  931MOL0     H28445   2.037   8.023   1.543 -0.4315 -1.3024  0.0845
  931MOL0     H28446   1.877   7.978   1.310  2.0933 -1.3273 -2.2996
  931MOL0     H28447   2.045   8.047   1.308  0.4491  0.9091  0.5888
  931MOL0     H28448   1.793   8.198   1.345  0.6239 -4.0359  3.6160
  931MOL0     H28449   1.874   8.183   1.192 -1.7087 -2.8096  0.0300
  931MOL0     H28450   1.955   8.395   1.297 -3.4260  0.3939  1.8524
  931MOL0     H28451   1.978   8.324   1.448 -1.0742  2.0512 -0.1791
  931MOL0     H28452   2.165   8.222   1.234 -1.1351 -0.7390  1.6353
  931MOL0     H28453   2.179   8.246   1.417 -1.4664 -1.0797 -0.1640
  931MOL0     H28454   2.340   8.387   1.315  0.5792  1.9894  1.7717
  931MOL0     H28455   2.215   8.500   1.349  1.6019  0.8657 -1.7958
  931MOL0     H28456   2.293   8.381   1.082 -0.7650 -1.7376  0.0239
  931MOL0     H28457   2.266   8.552   1.119 -1.0301 -1.0875 -1.1386
  931MOL0     H28458   1.750   8.125   1.752  2.1353 -0.8089 -2.7897
  931MOL0     H28459   1.615   8.333   1.766 -0.0335 -1.0870  0.9395
  931MOL0     H28460   1.450   8.723   1.397 -2.4249  1.2912 -2.0351
  931MOL0     H28461   1.383   8.951   1.440 -0.7651 -1.8778 -1.1654
  931MOL0     H28462   1.765   9.608   1.383 -0.9150  0.8556 -0.8273
  931MOL0     H28463   1.662   9.469   1.198  0.3747  1.1893  0.2864
  931MOL0     H28464   1.355   9.255   1.023 -0.4824 -1.4871  1.9334
  931MOL0     H28465   1.291   9.151   0.806  2.4837  0.3245 -1.0908
  931MOL0     H28466   1.432   8.835   0.538 -1.1543  1.2099 -0.4834
  931MOL0     H28467   1.540   8.806   0.672 -0.5673  2.9518  1.0195
  931MOL0     H28468   1.310   8.674   0.756  0.1883 -2.2800  0.1980
  931MOL0     H28469   1.457   8.605   0.670  0.0007 -1.0280 -2.2239
  931MOL0     H28470   1.243   8.556   0.539  1.8800 -1.3480 -2.2613
  931MOL0     H28471   1.246   8.724   0.501 -2.1097 -0.8600 -2.8952
  931MOL0     H28472   1.505   8.652   0.423 -1.3177  2.5477  0.9029
  931MOL0     H28473   1.370   8.627   0.323 -3.0816  1.3833  1.8674
  931MOL0     H28474   1.471   8.232   0.364 -0.0900  0.5559  1.0699
  931MOL0     H28475   1.547   8.834   0.889 -2.0507 -0.2445 -0.1011
  931MOL0     H28476   1.654   8.801   1.069 -1.9958 -0.0504  0.7262
  931MOL0     H28477   1.738   8.946   1.125 -0.3762 -0.0195  1.8832
  931MOL0     H28478   1.593   8.882   1.216 -0.1070  2.2784  0.9428
  932MOL0     O28479   6.247   9.462   0.323  0.7823  0.5201 -0.3714
  932MOL0     C28480   6.334   9.441   0.406 -0.0530  0.9382 -0.9003
  932MOL0     O28481   6.353   9.512   0.521 -0.2475  0.3763  0.4858
  932MOL0     C28482   6.266   9.604   0.558  1.5196  0.8379 -0.4456
  932MOL0     C28483   6.191   9.692   0.469  0.4335 -0.7325  0.5761
  932MOL0     C28484   6.100   9.786   0.520  0.4287  0.8213  0.2133
  932MOL0     C28485   6.068   9.787   0.656 -0.0412  0.9244  0.4762
  932MOL0     O28486   5.978   9.877   0.706 -0.2427 -0.6239  0.3377
  932MOL0     C28487   5.846   9.820   0.705  0.3642 -0.2991  0.0061
  932MOL0     C28488   5.747   9.926   0.752 -0.3420 -0.1495  0.2604
  932MOL0     C28489   5.603   9.888   0.723 -0.5434  0.0504 -0.1860
  932MOL0     C28490   5.566   9.784   0.826 -0.1330  0.1296 -0.2476
  932MOL0     C28491   5.417   9.767   0.829 -0.5920 -0.0851 -0.5861
  932MOL0     C28492   5.363   9.659   0.924  0.2155  0.7971 -0.7469
  932MOL0     C28493   5.388   9.694   1.076  1.4076 -0.3412  0.1279
  932MOL0     C28494   5.308   9.603   1.169 -0.4985  0.4479  0.2071
  932MOL0     N28495   5.170   9.636   1.211 -0.0860  0.4604 -0.4357
  932MOL0     C28496   5.139   9.727   1.302 -0.0791  0.1004  0.7078
  932MOL0     C28497   5.012   9.752   1.272  0.9530 -0.1620 -0.2216
  932MOL0     C28498   4.938   9.852   1.356  0.0229  0.2296 -0.7765
  932MOL0     C28499   4.820   9.901   1.279  0.0208  0.1617  0.4517
  932MOL0     C28500   4.683   9.889   1.357  0.5312  0.0404  0.3831
  932MOL0     C28501   4.567   9.933   1.273  0.4385 -0.0249  1.3097
  932MOL0     O28502   4.588  10.066   1.224 -0.1748  0.7417  0.0488
  932MOL0     C28503   4.474  10.123   1.160  1.1375 -0.6872 -0.2282
  932MOL0     C28504   4.376  10.045   1.092  0.1771 -0.6014  1.2107
  932MOL0     C28505   4.272  10.105   1.014  0.1192 -0.5241 -0.1206
  932MOL0     C28506   4.170  10.010   0.949 -0.1260  0.1030  0.5411
  932MOL0     C28507   4.272  10.254   1.011 -0.1815  0.1387  0.6286
  932MOL0     C28508   4.190  10.329   0.921  1.7068 -0.0943 -0.0874
  932MOL0     O28509   4.242  10.440   0.855 -0.4373  1.0315 -0.2061
  932MOL0     C28510   4.156  10.532   0.789  0.5337 -0.0850 -0.3640
  932MOL0     C28511   4.082  10.618   0.876 -0.2628  0.2682  0.0068
  932MOL0     C28512   3.977  10.689   0.825  0.8189 -0.2326  0.6097
  932MOL0     C28513   3.943  10.679   0.682 -0.0113 -0.4016  0.3624
  932MOL0     O28514   3.835  10.755   0.632  0.5736 -0.3617 -0.3909
  932MOL0     C28515   3.754  10.704   0.529 -0.3048  0.0134  0.6129
  932MOL0     C28516   3.657  10.810   0.475  0.0058 -0.8991 -0.5330
  932MOL0     C28517   3.578  10.760   0.349  0.3926 -0.7336 -0.2899
  932MOL0     C28518   3.463  10.862   0.319 -0.5363 -0.6587 -0.1532
  932MOL0     C28519   3.386  10.817   0.194 -0.9843  0.4431  0.2105
  932MOL0     C28520   3.277  10.911   0.159 -0.2761  0.1489  0.7063
  932MOL0     C28521   3.163  10.834   0.072 -0.2462 -1.1101 -0.8902
  932MOL0     C28522   3.104  10.934  -0.022 -0.0706 -0.2705 -0.1015
  932MOL0    Cl28523   2.999  10.852  -0.130 -0.1282 -0.2535 -0.0246
  932MOL0     C28524   4.013  10.583   0.594  0.3688 -0.5475  0.2662
  932MOL0     C28525   4.119  10.511   0.657  0.3498  0.2975  0.3509
  932MOL0     O28526   4.075  10.287   0.898 -0.0989 -0.5154  0.4751
  932MOL0     C28527   4.368  10.328   1.084 -0.4584  0.2572 -0.6299
  932MOL0     C28528   4.464  10.259   1.156  0.6599 -0.1672 -0.7655
  932MOL0     N28529   4.968   9.659   1.180 -0.6518  0.2320 -0.5898
  932MOL0     N28530   5.065   9.585   1.149  1.4685  0.2134  0.0828
  932MOL0     C28531   6.139   9.697   0.744  0.2097  0.3552 -0.0352
  932MOL0     C28532   6.230   9.604   0.694  0.8589 -1.3104  0.8849
  932MOL0     C28533   6.438   9.336   0.377  0.5348  0.5771  0.5314
  932MOL0     C28534   6.564   9.383   0.389  0.6669 -0.1186  0.2829
  932MOL0     C28535   6.668   9.298   0.359 -0.4365  0.4557  0.8207
  932MOL0     C28536   6.655   9.168   0.314 -0.2940  0.6108 -0.3102
  932MOL0     O28537   6.781   9.115   0.290  0.6495  0.1462  0.4193
  932MOL0     C28538   6.805   9.037   0.171 -0.1696 -0.1246  0.3247
  932MOL0     C28539   6.913   8.941   0.209 -0.1741 -0.1938  0.0842
  932MOL0     C28540   6.878   8.841   0.320 -0.1715 -0.1982  0.4923
  932MOL0     C28541   6.980   8.729   0.324 -0.0772 -0.7463  0.0971
  932MOL0     C28542   7.117   8.770   0.362 -0.5169  0.2996  1.3736
  932MOL0     C28543   7.232   8.789   0.397  0.5899 -0.5480  0.1839
  932MOL0     C28544   6.520   9.116   0.300  0.2376 -0.2036 -0.3841
  932MOL0     C28545   6.412   9.206   0.326  0.9269 -0.5582 -0.0973
  932MOL0     C28546   6.273   9.154   0.296 -0.8484 -0.4346 -0.2495
  932MOL0     H28547   6.216   9.703   0.364  1.6560  1.2895  1.0354
  932MOL0     H28548   6.050   9.865   0.465 -0.1401  0.9391  0.8949
  932MOL0     H28549   5.846   9.730   0.767 -0.0410  0.0666  0.5352
  932MOL0     H28550   5.815   9.793   0.603  3.1674 -0.0792 -1.0021
  932MOL0     H28551   5.768   9.950   0.857  1.3536  2.9139 -0.6330
  932MOL0     H28552   5.769  10.011   0.686 -0.6436 -1.8258 -2.1458
  932MOL0     H28553   5.534   9.971   0.741 -1.4927 -0.6815 -0.4225
  932MOL0     H28554   5.586   9.851   0.622 -1.6759  0.7695 -0.2804
  932MOL0     H28555   5.608   9.685   0.806 -2.1653 -1.3054  2.0086
  932MOL0     H28556   5.603   9.807   0.926 -0.6526  3.5637 -0.7360
  932MOL0     H28557   5.379   9.752   0.728 -1.8187 -0.3544 -0.0997
  932MOL0     H28558   5.382   9.869   0.849  1.0861  0.0749  1.9765
  932MOL0     H28559   5.254   9.663   0.924  0.2043  1.0148 -2.4624
  932MOL0     H28560   5.401   9.560   0.893  0.1845  1.0465 -1.6110
  932MOL0     H28561   5.352   9.795   1.097 -1.3780 -2.0298  4.8025
  932MOL0     H28562   5.487   9.682   1.120  0.8542 -0.3929  1.3840
  932MOL0     H28563   5.297   9.503   1.128 -1.4427  0.9258 -0.7469
  932MOL0     H28564   5.371   9.598   1.258 -0.7805  0.2460  0.3987
  932MOL0     H28565   5.210   9.782   1.364  1.5701  2.4529 -2.9478
  932MOL0     H28566   5.004   9.929   1.395  0.7110 -1.1465  0.9117
  932MOL0     H28567   4.901   9.800   1.445 -1.3738 -0.8175 -1.9099
  932MOL0     H28568   4.839  10.004   1.248 -0.7127 -0.0321 -0.6726
  932MOL0     H28569   4.797   9.842   1.190 -0.0111  0.6542  0.1342
  932MOL0     H28570   4.664   9.782   1.372  3.2301 -0.9895 -2.4506
  932MOL0     H28571   4.682   9.945   1.450 -0.5998  1.2948 -0.3461
  932MOL0     H28572   4.554   9.858   1.194  2.1564  1.1474 -0.1607
  932MOL0     H28573   4.473   9.932   1.330 -0.1067 -0.8523  0.4396
  932MOL0     H28574   4.372   9.938   1.111 -0.6543 -0.4855  1.7416
  932MOL0     H28575   4.075  10.030   1.000 -0.8781  0.2599 -0.8886
  932MOL0     H28576   4.203   9.908   0.969  0.7202  0.3044  0.2454
  932MOL0     H28577   4.164  10.029   0.842 -0.7235  0.6493  0.6634
  932MOL0     H28578   4.096  10.629   0.983 -0.0090  0.4764 -0.0471
  932MOL0     H28579   3.912  10.755   0.882  0.7312  0.1936  0.0244
  932MOL0     H28580   3.814  10.687   0.439  3.2572 -0.6295  2.9020
  932MOL0     H28581   3.699  10.616   0.563  1.4324 -0.5488  2.0889
  932MOL0     H28582   3.585  10.835   0.554  1.7436 -0.2940  0.9411
  932MOL0     H28583   3.716  10.896   0.441  0.5503 -2.4085 -3.7322
  932MOL0     H28584   3.544  10.656   0.347 -2.4589  0.1004 -0.5928
  932MOL0     H28585   3.645  10.770   0.263  0.6039  1.1171  0.0474
  932MOL0     H28586   3.506  10.961   0.303 -0.4401 -0.4374  1.3166
  932MOL0     H28587   3.395  10.878   0.403 -1.5430  0.6528 -1.1763
  932MOL0     H28588   3.452  10.800   0.108 -1.6570  1.3290 -0.5027
  932MOL0     H28589   3.340  10.726   0.234 -2.9382  0.9621 -0.7338
  932MOL0     H28590   3.315  10.993   0.097 -0.4041  0.8677  1.5703
  932MOL0     H28591   3.218  10.950   0.243 -0.9520  3.0187 -0.9516
  932MOL0     H28592   3.085  10.800   0.141  0.3747  0.5075  0.6902
  932MOL0     H28593   3.209  10.752   0.016  0.4823 -1.8961  0.7823
  932MOL0     H28594   3.187  10.983  -0.072  0.7941 -0.3645  1.1824
  932MOL0     H28595   3.049  11.010   0.035  1.9040  0.1307  1.3831
  932MOL0     H28596   3.982  10.563   0.492  0.5018  1.7480 -0.2577
  932MOL0     H28597   4.167  10.430   0.604 -0.4792 -1.1223  1.6889
  932MOL0     H28598   4.374  10.436   1.070 -0.0403 -0.0817 -3.8188
  932MOL0     H28599   4.534  10.310   1.221 -0.7407 -1.9723  2.4405
  932MOL0     H28600   6.113   9.700   0.850 -0.2590  1.2897 -0.1692
  932MOL0     H28601   6.272   9.527   0.757  1.3778 -0.6586  1.3419
  932MOL0     H28602   6.585   9.484   0.423  1.0700 -0.4008  0.8810
  932MOL0     H28603   6.765   9.344   0.377 -0.3132 -1.2248  6.5622
  932MOL0     H28604   6.719   8.980   0.134  0.6447 -0.5237 -1.0437
  932MOL0     H28605   6.846   9.110   0.101 -0.3675 -0.2395  0.0859
  932MOL0     H28606   7.000   9.003   0.232  1.4503 -1.2911 -2.5632
  932MOL0     H28607   6.944   8.891   0.117  0.3527 -0.6068  0.4774
  932MOL0     H28608   6.869   8.888   0.419 -2.5291  1.6419 -0.4983
  932MOL0     H28609   6.778   8.799   0.310  0.0955 -1.0648  1.2707
  932MOL0     H28610   6.980   8.676   0.228  0.8950  0.3765 -0.5489
  932MOL0     H28611   6.947   8.656   0.399  0.0611 -0.5838  0.3186
  932MOL0     H28612   7.333   8.790   0.434  0.6524 -0.8992  0.0315
  932MOL0     H28613   6.509   9.027   0.238 -0.0499  0.0457 -0.6961
  932MOL0     H28614   6.204   9.184   0.375 -0.3097  1.6922 -0.5072
  932MOL0     H28615   6.225   9.200   0.209 -0.1352 -3.6536 -2.5250
  932MOL0     H28616   6.278   9.046   0.281  1.3868 -0.1020 -2.6540
  933MOL0     O28617   2.118   8.077   6.461 -0.3584  0.3818  0.5335
  933MOL0     C28618   2.104   8.175   6.526  0.0071 -0.0466 -0.3076
  933MOL0     O28619   2.079   8.181   6.662 -0.2633 -0.0711 -0.0866
  933MOL0     C28620   2.027   8.073   6.734  1.0602  0.1680  0.6142
  933MOL0     C28621   1.955   7.965   6.680 -0.1154  0.8560  0.0206
  933MOL0     C28622   1.890   7.874   6.768  0.2254 -0.0865 -0.0121
  933MOL0     C28623   1.899   7.884   6.908 -0.6699  0.2859  0.6696
  933MOL0     O28624   1.828   7.820   7.007 -0.8130 -0.1851  0.8758
  933MOL0     C28625   1.698   7.759   6.964  0.0376 -0.7601 -0.0384
  933MOL0     C28626   1.643   7.678   7.082  0.1567  0.0925  0.0016
  933MOL0     C28627   1.677   7.528   7.079  0.2739 -0.3766  0.1740
  933MOL0     C28628   1.586   7.439   7.181 -0.6686  0.1839  0.4598
  933MOL0     C28629   1.646   7.291   7.193  0.0392 -0.3404 -0.4390
  933MOL0     C28630   1.576   7.191   7.282  0.2079  0.1772  0.1676
  933MOL0     C28631   1.562   7.051   7.219 -0.1248 -0.7099 -0.6252
  933MOL0     C28632   1.490   6.962   7.308  0.2841  0.3531  0.5639
  933MOL0     N28633   1.576   6.860   7.369 -0.3325 -0.2125  0.1349
  933MOL0     C28634   1.700   6.881   7.440  0.4037 -0.6352  0.7326
  933MOL0     C28635   1.723   6.755   7.493 -0.1907 -0.3194  0.2496
  933MOL0     C28636   1.864   6.707   7.552  0.3069 -0.2580  0.1001
  933MOL0     C28637   1.879   6.791   7.679 -1.1054 -0.9284 -0.6431
  933MOL0     C28638   2.011   6.759   7.764  0.0271 -0.2358 -0.7002
  933MOL0     C28639   1.991   6.802   7.914  0.1714 -0.4533  0.9629
  933MOL0     O28640   2.118   6.798   7.987 -0.1197  0.4169 -0.0545
  933MOL0     C28641   2.096   6.807   8.122 -0.0044 -0.1587 -0.5408
  933MOL0     C28642   1.979   6.857   8.182 -0.4293 -0.1647  0.0806
  933MOL0     C28643   1.961   6.865   8.317 -0.2357  0.3388 -0.7524
  933MOL0     C28644   1.823   6.909   8.364  0.1159  0.2787  0.7609
  933MOL0     C28645   2.071   6.826   8.410 -0.3128  0.2154  0.8341
  933MOL0     C28646   2.054   6.822   8.554  0.5184 -0.0763  0.1413
  933MOL0     O28647   1.925   6.820   8.615  0.0055 -0.6349  0.7655
  933MOL0     C28648   1.927   6.812   8.756  0.4508 -0.0364  0.1946
  933MOL0     C28649   1.918   6.921   8.833  0.6913 -0.3443  0.1978
  933MOL0     C28650   1.896   6.921   8.972 -0.4321 -0.2816  0.0721
  933MOL0     C28651   1.908   6.802   9.044  0.0176 -0.2325 -0.4840
  933MOL0     O28652   1.913   6.811   9.191  0.2417 -0.0835  0.4279
  933MOL0     C28653   1.784   6.789   9.253 -0.5832 -0.3142 -0.6450
  933MOL0     C28654   1.722   6.918   9.292  0.2236  0.0140 -0.7081
  933MOL0     C28655   1.770   6.972   9.431 -0.1745  0.4122 -0.5772
  933MOL0     C28656   1.718   7.107   9.444  0.8447  0.2886 -0.0851
  933MOL0     C28657   1.754   7.165   9.582 -1.4435  1.0941  0.7091
  933MOL0     C28658   1.721   7.314   9.584  0.1737 -0.6323 -0.0824
  933MOL0     C28659   1.691   7.354   9.723  1.1148 -0.0749  0.1460
  933MOL0     C28660   1.549   7.328   9.763  0.7909 -0.7913 -0.4035
  933MOL0    Cl28661   1.442   7.449   9.684 -0.3235 -0.0294 -0.2168
  933MOL0     C28662   1.936   6.686   8.972 -0.9539  0.8032  0.0234
  933MOL0     C28663   1.940   6.693   8.826  1.0888  0.7838 -0.4103
  933MOL0     O28664   2.159   6.812   8.624 -0.1761 -0.2144 -0.3711
  933MOL0     C28665   2.189   6.796   8.347 -0.4204 -0.8051 -0.1304
  933MOL0     C28666   2.194   6.767   8.214  0.2171 -0.5932 -0.7570
  933MOL0     N28667   1.630   6.664   7.455 -0.2796  0.6611 -0.1774
  933MOL0     N28668   1.548   6.729   7.391  0.8639 -0.3691  0.3590
  933MOL0     C28669   1.986   7.982   6.956 -0.1631 -0.3928 -0.3807
  933MOL0     C28670   2.041   8.085   6.875  0.0073 -1.4550  0.0563
  933MOL0     C28671   2.119   8.304   6.459  0.2831 -0.4819 -1.4446
  933MOL0     C28672   2.170   8.409   6.536 -0.9345  0.1419  0.5090
  933MOL0     C28673   2.217   8.528   6.485 -0.3677 -0.0615  0.2738
  933MOL0     C28674   2.218   8.555   6.344  0.2939  0.3288  0.5070
  933MOL0     O28675   2.266   8.676   6.303  0.0644  0.3632 -0.2600
  933MOL0     C28676   2.277   8.721   6.175 -0.4465  0.1333 -0.6281
  933MOL0     C28677   2.314   8.867   6.195 -0.2376 -0.1953  0.0068
  933MOL0     C28678   2.421   8.895   6.302  0.0698  0.1413 -0.8050
  933MOL0     C28679   2.480   9.033   6.297  0.8770 -0.4505  0.1338
  933MOL0     C28680   2.605   9.039   6.380  0.8050  1.0749  0.2762
  933MOL0     C28681   2.715   9.040   6.431 -0.0089 -0.2305  0.1677
  933MOL0     C28682   2.161   8.454   6.262  1.0894 -0.5893  0.0187
  933MOL0     C28683   2.117   8.331   6.318 -0.1545  0.5434 -0.0286
  933MOL0     C28684   2.048   8.238   6.219  0.7490 -0.2339  0.3840
  933MOL0     H28685   1.955   7.955   6.572  0.6036 -2.9074  0.2262
  933MOL0     H28686   1.822   7.806   6.717 -0.2257 -2.3541  3.3307
  933MOL0     H28687   1.706   7.700   6.872  0.9334  0.5474 -0.8277
  933MOL0     H28688   1.631   7.838   6.930 -1.5158 -1.0773  2.0821
  933MOL0     H28689   1.676   7.729   7.174  1.5816 -1.7519  0.5829
  933MOL0     H28690   1.533   7.675   7.079  0.0576  1.7193  0.6252
  933MOL0     H28691   1.665   7.482   6.980 -2.3839  1.1569 -0.2992
  933MOL0     H28692   1.783   7.512   7.102 -0.0616 -0.7919  1.5136
  933MOL0     H28693   1.591   7.483   7.281  0.8305  1.6806 -0.2194
  933MOL0     H28694   1.481   7.444   7.152 -0.9227 -0.9880  1.1548
  933MOL0     H28695   1.749   7.290   7.230 -0.1716 -2.9530  0.2629
  933MOL0     H28696   1.656   7.251   7.092  0.3115  1.4124 -1.1505
  933MOL0     H28697   1.630   7.190   7.377  2.0804  1.0411 -0.8224
  933MOL0     H28698   1.473   7.214   7.308 -0.1857 -3.1074  2.1743
  933MOL0     H28699   1.655   6.999   7.195 -0.8521 -2.1956 -0.3466
  933MOL0     H28700   1.515   7.068   7.121  2.0770  1.1826 -1.4413
  933MOL0     H28701   1.436   7.013   7.388 -1.6183 -0.4659 -0.1328
  933MOL0     H28702   1.417   6.900   7.256  0.3579 -1.4045  2.4372
  933MOL0     H28703   1.765   6.969   7.439  1.0407 -0.9126 -3.9177
  933MOL0     H28704   1.955   6.721   7.493  1.7868  1.6409  2.6408
  933MOL0     H28705   1.855   6.601   7.578 -2.4721  0.5544  3.1312
  933MOL0     H28706   1.881   6.896   7.647  0.3916 -0.5778  0.4872
  933MOL0     H28707   1.788   6.780   7.740 -2.1105  0.6701 -1.7596
  933MOL0     H28708   2.037   6.653   7.774 -1.2436 -0.7216 -2.0613
  933MOL0     H28709   2.104   6.803   7.727  1.4340 -3.9438 -2.1030
  933MOL0     H28710   1.967   6.908   7.923 -0.8342 -0.5209 -0.5856
  933MOL0     H28711   1.909   6.747   7.961 -0.8046  1.6481  1.8595
  933MOL0     H28712   1.897   6.882   8.115 -0.0432 -3.5759 -1.9135
  933MOL0     H28713   1.817   7.008   8.411 -2.4086  0.8482 -0.6199
  933MOL0     H28714   1.781   6.830   8.427  0.3198  1.8686  3.0212
  933MOL0     H28715   1.758   6.925   8.278  0.6630  2.2358  0.6525
  933MOL0     H28716   1.929   7.018   8.786  4.4975  2.4060  5.6491
  933MOL0     H28717   1.867   7.014   9.020 -0.3784  1.4047 -2.8995
  933MOL0     H28718   1.730   6.723   9.184  2.0599 -3.6466  0.2125
  933MOL0     H28719   1.800   6.731   9.345 -3.5847  2.3659  1.8555
  933MOL0     H28720   1.742   6.992   9.213 -2.6041 -0.1890 -1.7218
  933MOL0     H28721   1.616   6.900   9.308 -0.0348  0.1987 -2.0878
  933MOL0     H28722   1.879   6.980   9.432 -0.1055 -0.4694 -0.2314
  933MOL0     H28723   1.733   6.910   9.512 -1.4435 -0.5362 -1.8307
  933MOL0     H28724   1.610   7.093   9.455  0.9053 -0.1741 -0.0508
  933MOL0     H28725   1.745   7.176   9.363 -2.7957  0.2208 -1.5934
  933MOL0     H28726   1.695   7.119   9.662 -1.3214  0.0234  0.2054
  933MOL0     H28727   1.858   7.145   9.606 -1.1101  0.4392 -1.0895
  933MOL0     H28728   1.635   7.328   9.518  1.8078 -3.8174 -3.2856
  933MOL0     H28729   1.810   7.362   9.542  1.0014 -2.6009 -0.7407
  933MOL0     H28730   1.714   7.461   9.734 -1.3998  0.7555 -1.8398
  933MOL0     H28731   1.759   7.304   9.794 -1.1765 -0.3497  2.2872
  933MOL0     H28732   1.539   7.320   9.871  0.2392 -1.1769 -0.4825
  933MOL0     H28733   1.519   7.234   9.717 -2.1604  1.0829 -2.6641
  933MOL0     H28734   1.946   6.593   9.026 -1.0949  1.7580  1.7457
  933MOL0     H28735   1.963   6.598   8.780 -0.5627  0.5240 -0.7684
  933MOL0     H28736   2.277   6.795   8.412 -0.9730 -0.9898  0.6263
  933MOL0     H28737   2.286   6.733   8.166  1.5994  1.6937  0.1221
  933MOL0     H28738   1.998   7.985   7.063  2.2525  0.0225 -0.6048
  933MOL0     H28739   2.090   8.169   6.923  1.8648 -1.9386 -0.8779
  933MOL0     H28740   2.177   8.394   6.643 -0.7997  3.0587  0.9722
  933MOL0     H28741   2.238   8.607   6.556 -4.5700  4.1035 -2.5522
  933MOL0     H28742   2.367   8.680   6.129  0.6513  1.2127  0.4746
  933MOL0     H28743   2.188   8.703   6.114  0.3206 -2.7747 -1.0436
  933MOL0     H28744   2.221   8.914   6.228 -0.3502 -0.7106  0.4256
  933MOL0     H28745   2.346   8.911   6.100  1.1234  0.1956  0.6151
  933MOL0     H28746   2.381   8.881   6.402 -2.1021 -0.8637 -1.7503
  933MOL0     H28747   2.498   8.818   6.292 -0.6358 -0.7100  0.0941
  933MOL0     H28748   2.413   9.112   6.334  1.9909 -0.0359  1.3182
  933MOL0     H28749   2.518   9.059   6.198 -1.1880 -0.8129 -0.8015
  933MOL0     H28750   2.811   9.049   6.479 -0.8096 -1.2375  2.0377
  933MOL0     H28751   2.156   8.468   6.154  0.6115  0.0193  0.1137
  933MOL0     H28752   2.131   8.187   6.171  0.5884 -0.4521  0.3347
  933MOL0     H28753   1.970   8.175   6.264 -0.3577  2.5853  2.7336
  933MOL0     H28754   1.983   8.297   6.154 -4.0611 -2.8638  2.2421
  934MOL0     O28755  11.283   2.438   8.240  0.5931 -0.2170 -0.3000
  934MOL0     C28756  11.370   2.412   8.322  0.2996  0.7276 -0.2487
  934MOL0     O28757  11.462   2.313   8.303  0.7336  0.4717  0.5846
  934MOL0     C28758  11.469   2.232   8.185  0.3998  0.0391 -0.4289
  934MOL0     C28759  11.365   2.199   8.096 -1.1944  0.5349  0.6020
  934MOL0     C28760  11.393   2.134   7.977 -0.1602  0.5391 -0.0967
  934MOL0     C28761  11.524   2.091   7.944 -0.4688 -0.4248  0.1696
  934MOL0     O28762  11.559   2.014   7.836 -1.0984 -1.3863  0.0463
  934MOL0     C28763  11.467   2.000   7.729  0.0397 -0.1556  0.2472
  934MOL0     C28764  11.501   1.912   7.612 -0.4949  0.1133  0.1622
  934MOL0     C28765  11.608   1.949   7.504  0.6513  0.5769  0.7888
  934MOL0     C28766  11.618   1.833   7.404  0.0710 -0.5684 -0.0845
  934MOL0     C28767  11.662   1.876   7.261  0.3766 -0.2233  0.3202
  934MOL0     C28768  11.805   1.824   7.220  0.8134  0.5558  0.1833
  934MOL0     C28769  11.827   1.870   7.075  0.1397  0.3611 -0.6240
  934MOL0     C28770  11.982   1.880   7.054  0.3447 -0.3580 -0.6508
  934MOL0     N28771  12.035   1.752   7.013 -0.7907 -0.3493  0.4066
  934MOL0     C28772  12.168   1.737   6.978  0.3387  0.0865 -0.3387
  934MOL0     C28773  12.172   1.600   6.951  0.3200  0.0573  0.1813
  934MOL0     C28774  12.284   1.520   6.899  1.2365 -0.3885 -0.1639
  934MOL0     C28775  12.331   1.425   7.004 -0.9142  0.1032  0.7813
  934MOL0     C28776  12.454   1.350   6.950 -0.2079  0.0613 -0.1252
  934MOL0     C28777  12.538   1.280   7.057  0.5851  0.9529  0.5951
  934MOL0     O28778  12.482   1.152   7.070 -0.4996  0.3127 -0.5164
  934MOL0     C28779  12.481   1.093   7.196 -0.6563 -0.4595  0.9743
  934MOL0     C28780  12.422   1.161   7.302  0.5272  0.6666 -0.6185
  934MOL0     C28781  12.416   1.077   7.425 -0.7015  0.0793 -0.8626
  934MOL0     C28782  12.324   1.132   7.542 -0.5596  0.1878  0.4276
  934MOL0     C28783  12.477   0.949   7.431  0.1458 -0.6102  0.4644
  934MOL0     C28784  12.461   0.854   7.536  0.2465  0.2740 -0.7511
  934MOL0     O28785  12.578   0.779   7.574 -0.6087  0.4615 -0.4657
  934MOL0     C28786  12.590   0.719   7.699 -0.3992 -0.1338 -0.8751
  934MOL0     C28787  12.697   0.750   7.787 -0.3817 -0.2231 -0.2751
  934MOL0     C28788  12.724   0.681   7.905  0.7765 -0.3080  0.0687
  934MOL0     C28789  12.638   0.574   7.944 -0.9348 -0.5831 -0.5303
  934MOL0     O28790  12.664   0.517   8.072 -0.4121 -0.3725  0.1789
  934MOL0     C28791  12.568   0.437   8.143 -0.2188 -1.0327  0.3253
  934MOL0     C28792  12.652   0.391   8.265 -0.3248  0.1172 -0.5152
  934MOL0     C28793  12.557   0.323   8.371  0.2992  0.1730 -0.9216
  934MOL0     C28794  12.625   0.219   8.462  0.7778  0.2937  0.3532
  934MOL0     C28795  12.546   0.171   8.580  0.5843  0.1264  0.1174
  934MOL0     C28796  12.638   0.082   8.668  0.6185  0.2517  0.3566
  934MOL0     C28797  12.577   0.014   8.794  0.2503  0.2268  0.5077
  934MOL0     C28798  12.550  -0.140   8.772  1.1560 -0.2091  0.2332
  934MOL0    Cl28799  12.458  -0.167   8.614 -0.1815 -0.0740 -0.0788
  934MOL0     C28800  12.532   0.539   7.860 -0.0548 -0.7157  0.1344
  934MOL0     C28801  12.515   0.606   7.735 -0.2109 -0.3215 -0.1504
  934MOL0     O28802  12.351   0.836   7.585  0.7950  0.3053 -0.2478
  934MOL0     C28803  12.555   0.909   7.321 -0.4482 -0.7448  0.0301
  934MOL0     C28804  12.558   0.978   7.203  0.2478 -0.4104  0.5989
  934MOL0     N28805  12.053   1.542   6.960  0.5958 -0.0929 -0.7884
  934MOL0     N28806  11.971   1.631   7.004  0.2224 -0.2211 -0.0866
  934MOL0     C28807  11.627   2.123   8.037  0.5265 -0.9006 -1.2382
  934MOL0     C28808  11.603   2.181   8.167 -0.0325 -0.0585  0.4591
  934MOL0     C28809  11.371   2.479   8.452 -0.1261  0.6829  0.4363
  934MOL0     C28810  11.399   2.401   8.568 -0.2741 -0.2357  0.4364
  934MOL0     C28811  11.396   2.456   8.693 -0.1655 -1.2470 -0.8193
  934MOL0     C28812  11.359   2.589   8.718 -0.7771  0.1245  0.1269
  934MOL0     O28813  11.358   2.640   8.850  0.8598 -0.0155 -0.4035
  934MOL0     C28814  11.364   2.775   8.873 -1.0884 -0.1747 -0.0106
  934MOL0     C28815  11.376   2.778   9.027 -0.4633  0.3373  0.3840
  934MOL0     C28816  11.507   2.707   9.078  0.0708 -0.2775 -0.2591
  934MOL0     C28817  11.502   2.720   9.234 -1.0600  0.7796 -0.7548
  934MOL0     C28818  11.621   2.651   9.292 -0.6830 -0.4767 -0.1136
  934MOL0     C28819  11.711   2.582   9.340  0.5721 -0.0906  0.4142
  934MOL0     C28820  11.324   2.663   8.603  0.0601  0.0415 -0.9634
  934MOL0     C28821  11.330   2.609   8.473  0.1068 -0.6476 -1.0799
  934MOL0     C28822  11.303   2.709   8.365 -0.1371 -0.8444 -0.6456
  934MOL0     H28823  11.265   2.225   8.130 -1.3335  0.0292  0.5873
  934MOL0     H28824  11.301   2.105   7.927 -1.1002  0.4956  1.5917
  934MOL0     H28825  11.443   2.094   7.678 -1.4465 -1.0603 -0.7647
  934MOL0     H28826  11.373   1.955   7.763  0.0872 -1.2064 -0.9368
  934MOL0     H28827  11.536   1.816   7.652  0.5919  0.8849  1.1287
  934MOL0     H28828  11.407   1.896   7.558 -3.3650  1.4212  4.2652
  934MOL0     H28829  11.567   2.034   7.448 -0.6224 -0.5259 -0.0184
  934MOL0     H28830  11.703   1.982   7.546 -0.2983  1.9196  2.0106
  934MOL0     H28831  11.686   1.758   7.444 -1.7960 -1.3321  1.8319
  934MOL0     H28832  11.520   1.784   7.407 -2.2384  3.5763  3.7656
  934MOL0     H28833  11.664   1.985   7.261  4.1759 -0.0888  3.0126
  934MOL0     H28834  11.587   1.835   7.194 -0.9881  3.9448 -1.0113
  934MOL0     H28835  11.884   1.867   7.282 -0.2453  0.5165  1.5983
  934MOL0     H28836  11.805   1.715   7.229 -2.6883  0.2498 -1.5207
  934MOL0     H28837  11.777   1.966   7.060 -2.4357 -0.4777  1.6707
  934MOL0     H28838  11.780   1.801   7.004 -1.6573  0.7848  0.0883
  934MOL0     H28839  12.010   1.951   6.976  0.1822 -0.8200 -1.1342
  934MOL0     H28840  12.028   1.918   7.146  0.1509 -1.5205 -0.0478
  934MOL0     H28841  12.248   1.810   6.980  1.0530 -0.6279  2.7767
  934MOL0     H28842  12.366   1.584   6.865  0.1531  0.3439 -1.5447
  934MOL0     H28843  12.252   1.468   6.808  0.2319 -0.2068  0.0710
  934MOL0     H28844  12.362   1.476   7.096 -3.2435 -1.5070  2.5728
  934MOL0     H28845  12.255   1.354   7.038  1.4635 -2.3036  1.4091
  934MOL0     H28846  12.420   1.285   6.870  1.5076 -0.3017 -0.5888
  934MOL0     H28847  12.520   1.419   6.897  1.6655 -2.4952 -1.2942
  934MOL0     H28848  12.641   1.275   7.019  0.5502  1.9979  0.3486
  934MOL0     H28849  12.557   1.328   7.154 -0.0881 -0.2258  1.3440
  934MOL0     H28850  12.395   1.265   7.288  2.6200  1.2711 -0.5174
  934MOL0     H28851  12.266   1.216   7.506 -0.5467 -0.2239 -0.5662
  934MOL0     H28852  12.389   1.159   7.627  5.3601 -1.1598 -3.0806
  934MOL0     H28853  12.254   1.054   7.574 -1.1223  1.2491  1.8640
  934MOL0     H28854  12.756   0.837   7.759 -2.8545  2.3672  1.9033
  934MOL0     H28855  12.792   0.727   7.976  0.8661  0.6085 -0.5929
  934MOL0     H28856  12.480   0.493   8.174  0.7099  0.4194  0.4009
  934MOL0     H28857  12.553   0.345   8.085  1.5924 -0.1097 -1.7246
  934MOL0     H28858  12.722   0.311   8.238  0.2766  0.0031  1.2276
  934MOL0     H28859  12.702   0.479   8.307  0.2762 -1.1763  1.6684
  934MOL0     H28860  12.465   0.280   8.331  0.6221 -1.5121  0.0422
  934MOL0     H28861  12.519   0.393   8.446  3.6145  0.4211  0.7366
  934MOL0     H28862  12.722   0.255   8.500  0.5795 -0.0195  1.1852
  934MOL0     H28863  12.637   0.131   8.398 -3.6168 -0.8991  0.9059
  934MOL0     H28864  12.502   0.247   8.645  0.6487 -0.9861  1.5196
  934MOL0     H28865  12.462   0.115   8.538 -0.3271  2.4995 -1.4765
  934MOL0     H28866  12.707   0.151   8.717 -0.6300  1.9260 -0.1543
  934MOL0     H28867  12.696   0.014   8.604  3.3765  1.1313  1.7372
  934MOL0     H28868  12.484   0.058   8.833  0.8187 -0.4624  2.7929
  934MOL0     H28869  12.658   0.013   8.867  2.9658 -1.3441 -2.2833
  934MOL0     H28870  12.487  -0.171   8.856  0.0824  0.8236 -0.1821
  934MOL0     H28871  12.646  -0.194   8.776  2.6137  2.3036  2.3729
  934MOL0     H28872  12.468   0.456   7.887  1.5205 -2.3263 -0.8543
  934MOL0     H28873  12.437   0.568   7.671 -4.4562 -0.6700  4.6049
  934MOL0     H28874  12.611   0.818   7.337  0.5732  0.0946  1.3991
  934MOL0     H28875  12.623   0.953   7.120  1.1089  0.8170  0.8730
  934MOL0     H28876  11.730   2.100   8.011  1.4746  0.2975  1.1253
  934MOL0     H28877  11.685   2.207   8.234 -0.0789 -0.4225  0.6589
  934MOL0     H28878  11.427   2.297   8.554 -2.3252 -0.4509 -3.2442
  934MOL0     H28879  11.426   2.394   8.777 -1.6656 -0.8600  0.0181
  934MOL0     H28880  11.455   2.815   8.827 -1.9068  0.6413 -0.9460
  934MOL0     H28881  11.275   2.825   8.834 -2.0786 -2.4929 -0.8713
  934MOL0     H28882  11.284   2.737   9.069 -1.7503  3.6262  1.1449
  934MOL0     H28883  11.383   2.881   9.065 -1.4498  1.2139 -1.6598
  934MOL0     H28884  11.506   2.600   9.056 -1.3607 -0.7346  1.7447
  934MOL0     H28885  11.599   2.751   9.038  0.6048 -0.6630  0.5187
  934MOL0     H28886  11.418   2.660   9.270  0.2021 -1.6635 -1.6050
  934MOL0     H28887  11.500   2.815   9.287 -2.6427  0.0608  0.5567
  934MOL0     H28888  11.809   2.542   9.358  0.8227  0.3708  0.0819
  934MOL0     H28889  11.294   2.767   8.604 -0.8110 -0.2002 -1.0354
  934MOL0     H28890  11.203   2.699   8.322  1.3395 -1.8903 -4.1934
  934MOL0     H28891  11.318   2.811   8.401 -3.8287 -0.2821 -0.3324
  934MOL0     H28892  11.370   2.692   8.280  0.8584 -2.3552  0.3793
  935MOL0     O28893   3.533   0.136   1.469  0.8668 -0.1152  0.3935
  935MOL0     C28894   3.501   0.018   1.477  0.5647  0.3552  0.3921
  935MOL0     O28895   3.377  -0.036   1.454  0.3732  0.6057 -0.2729
  935MOL0     C28896   3.287   0.069   1.417 -0.4389 -0.0967  0.0830
  935MOL0     C28897   3.223   0.145   1.515 -0.0168  0.0812  0.4628
  935MOL0     C28898   3.140   0.247   1.478  0.6754 -0.9480  0.1674
  935MOL0     C28899   3.107   0.273   1.347  0.1778 -0.2113  0.6386
  935MOL0     O28900   3.007   0.364   1.307 -0.3692 -0.4656 -0.3879
  935MOL0     C28901   2.925   0.440   1.393 -0.5381 -0.1114  0.7937
  935MOL0     C28902   2.848   0.561   1.333  0.0978  0.1764  0.4968
  935MOL0     C28903   2.947   0.669   1.303  0.2086 -0.7482 -0.6914
  935MOL0     C28904   2.876   0.800   1.244 -0.0248  0.3351  0.0407
  935MOL0     C28905   2.981   0.908   1.224 -0.1932 -0.2587  0.1971
  935MOL0     C28906   2.908   1.040   1.182 -0.5297 -0.2417  0.1661
  935MOL0     C28907   2.804   1.030   1.070  0.2713  0.4305  1.2529
  935MOL0     C28908   2.866   0.962   0.939 -0.7658  0.6685 -0.1669
  935MOL0     N28909   2.774   0.962   0.829 -0.0841  0.1771 -0.6793
  935MOL0     C28910   2.702   1.070   0.793  0.2434  0.6333  0.3245
  935MOL0     C28911   2.630   1.014   0.687 -0.2469 -0.4721  0.5773
  935MOL0     C28912   2.560   1.101   0.588 -0.7892  0.0317 -0.5511
  935MOL0     C28913   2.408   1.053   0.585 -0.0672  0.3556  0.0149
  935MOL0     C28914   2.314   1.164   0.531  0.7643  0.2719 -0.1690
  935MOL0     C28915   2.353   1.209   0.390  0.6293 -1.2357 -0.6569
  935MOL0     O28916   2.247   1.276   0.338  0.2621  0.0976 -0.5650
  935MOL0     C28917   2.246   1.409   0.358 -0.7946 -0.6227  0.4200
  935MOL0     C28918   2.356   1.497   0.340 -0.8532  0.1207 -0.3155
  935MOL0     C28919   2.347   1.635   0.366 -0.8007  0.1098  0.3335
  935MOL0     C28920   2.467   1.719   0.315 -0.2805 -0.2818 -0.0015
  935MOL0     C28921   2.224   1.695   0.402 -0.5987 -0.0333 -0.1691
  935MOL0     C28922   2.218   1.845   0.420 -0.0761 -0.4717 -0.2433
  935MOL0     O28923   2.326   1.915   0.466  0.3506  0.0612  0.0899
  935MOL0     C28924   2.325   2.059   0.492  0.7812  0.7289  0.6459
  935MOL0     C28925   2.219   2.152   0.467 -0.0975  0.6424 -0.2633
  935MOL0     C28926   2.239   2.287   0.505  0.1387  0.1873  0.7819
  935MOL0     C28927   2.357   2.333   0.556  0.0802  0.0101  0.8287
  935MOL0     O28928   2.356   2.469   0.599 -1.0544  0.9630  0.3537
  935MOL0     C28929   2.485   2.527   0.629 -0.3958  0.0755  0.2540
  935MOL0     C28930   2.473   2.665   0.689  0.2155 -0.7281 -0.3232
  935MOL0     C28931   2.584   2.709   0.788 -0.3205  0.2808  0.0382
  935MOL0     C28932   2.633   2.621   0.910 -0.1213 -0.0992  0.2231
  935MOL0     C28933   2.733   2.714   0.975 -0.4170  0.2240 -0.2301
  935MOL0     C28934   2.676   2.834   1.037  0.0854 -0.9565 -0.7982
  935MOL0     C28935   2.749   2.886   1.160 -0.2564 -0.4214 -0.6639
  935MOL0     C28936   2.694   3.022   1.198 -0.7358  0.0051  0.6239
  935MOL0    Cl28937   2.693   3.137   1.057 -0.2309 -0.2905 -0.1753
  935MOL0     C28938   2.465   2.243   0.562  0.4121  0.2381 -0.5395
  935MOL0     C28939   2.443   2.106   0.537  0.2350 -0.0229  0.3991
  935MOL0     O28940   2.107   1.896   0.403 -0.5613 -0.2264  0.0513
  935MOL0     C28941   2.115   1.613   0.412  0.1973 -0.1704  0.0866
  935MOL0     C28942   2.127   1.475   0.405  0.3033  0.3538  0.1460
  935MOL0     N28943   2.666   0.884   0.668  0.4474  0.2663  0.1989
  935MOL0     N28944   2.752   0.853   0.753 -0.3304  0.0118  0.5494
  935MOL0     C28945   3.174   0.203   1.251  0.6449  0.0809 -0.0526
  935MOL0     C28946   3.258   0.098   1.280  0.3224 -0.3216 -1.0453
  935MOL0     C28947   3.614  -0.089   1.492 -0.2612 -0.0071  0.6238
  935MOL0     C28948   3.602  -0.209   1.412 -0.1502 -0.4231 -0.1316
  935MOL0     C28949   3.701  -0.309   1.421 -0.3621 -0.9837  0.5168
  935MOL0     C28950   3.826  -0.268   1.487  0.6200  0.1770  1.1895
  935MOL0     O28951   3.945  -0.340   1.486  0.3871  0.4181 -0.3569
  935MOL0     C28952   3.943  -0.458   1.405 -0.2399 -0.3171  0.1856
  935MOL0     C28953   4.053  -0.540   1.472  0.1258 -0.0330  0.3899
  935MOL0     C28954   4.048  -0.688   1.460  0.3199  0.4641  0.2748
  935MOL0     C28955   4.087  -0.726   1.313 -0.6338 -0.4014 -0.5436
  935MOL0     C28956   4.147  -0.862   1.312  0.5205  0.3375 -0.3992
  935MOL0     C28957   4.186  -0.971   1.304 -0.2563 -0.4964 -0.0538
  935MOL0     C28958   3.834  -0.157   1.563 -0.1102  0.4102  0.6812
  935MOL0     C28959   3.728  -0.070   1.573  0.0721 -0.6253  0.9490
  935MOL0     C28960   3.725   0.047   1.665 -1.1441 -0.1148 -0.3318
  935MOL0     H28961   3.238   0.115   1.619 -3.9484  0.8019  1.4122
  935MOL0     H28962   3.088   0.298   1.559  1.4193 -3.1975  2.1798
  935MOL0     H28963   2.975   0.487   1.479 -1.3362  1.6868  0.3296
  935MOL0     H28964   2.850   0.371   1.432 -0.7517 -0.7220 -0.6391
  935MOL0     H28965   2.800   0.535   1.238 -1.4933  4.2496 -0.0373
  935MOL0     H28966   2.775   0.599   1.405  2.7883  1.4736  2.7002
  935MOL0     H28967   3.015   0.695   1.384  2.4408 -0.0910 -2.6536
  935MOL0     H28968   3.017   0.629   1.228  1.6489 -2.5997  1.5227
  935MOL0     H28969   2.817   0.769   1.158 -1.3667 -0.1341  1.0914
  935MOL0     H28970   2.807   0.834   1.322 -1.3744  2.8620 -2.1022
  935MOL0     H28971   3.051   0.864   1.153  0.4689 -0.6758  1.0978
  935MOL0     H28972   3.038   0.923   1.316  2.5778 -0.2432 -1.3990
  935MOL0     H28973   2.865   1.086   1.271  0.6871  0.5530  0.3657
  935MOL0     H28974   2.984   1.107   1.142  1.3242 -3.0855 -1.3722
  935MOL0     H28975   2.777   1.135   1.058  1.1928  0.4269 -1.4113
  935MOL0     H28976   2.708   0.990   1.103  0.8887 -1.6723  0.6820
  935MOL0     H28977   2.958   1.009   0.903 -0.6540  1.6767  1.3561
  935MOL0     H28978   2.884   0.857   0.960 -0.6151  0.9017  0.9154
  935MOL0     H28979   2.708   1.176   0.816 -0.9880  0.8572 -0.2716
  935MOL0     H28980   2.618   1.092   0.495  1.3460 -1.0596  0.8107
  935MOL0     H28981   2.550   1.204   0.622 -0.7453 -0.3997  0.8212
  935MOL0     H28982   2.389   0.965   0.523 -1.9759 -0.0610  1.1168
  935MOL0     H28983   2.384   1.018   0.686 -0.1795 -1.3915 -0.5875
  935MOL0     H28984   2.213   1.122   0.534  1.6324 -2.0195 -0.8531
  935MOL0     H28985   2.315   1.254   0.594 -0.6442  0.6870 -0.7053
  935MOL0     H28986   2.442   1.272   0.403 -1.4393  1.4303  1.8922
  935MOL0     H28987   2.377   1.122   0.328  2.2418 -1.6178  0.4431
  935MOL0     H28988   2.444   1.452   0.295 -1.9847 -2.1695 -0.3623
  935MOL0     H28989   2.521   1.766   0.399  1.9682 -1.1525 -0.8668
  935MOL0     H28990   2.429   1.792   0.244  0.6836 -1.1494 -1.4709
  935MOL0     H28991   2.537   1.663   0.252 -2.1458 -3.2504  0.3573
  935MOL0     H28992   2.124   2.134   0.418 -1.0388  1.7240  1.0949
  935MOL0     H28993   2.157   2.353   0.475 -0.3209 -0.2107  1.1449
  935MOL0     H28994   2.514   2.462   0.713  0.6086  3.6508  2.9324
  935MOL0     H28995   2.552   2.533   0.543  1.4126  1.7232  1.6822
  935MOL0     H28996   2.469   2.732   0.602 -0.3472  0.2170  0.4115
  935MOL0     H28997   2.377   2.675   0.740  0.0476 -0.6790 -0.6476
  935MOL0     H28998   2.539   2.800   0.826  0.7174  0.5295  0.7260
  935MOL0     H28999   2.659   2.748   0.719 -3.2968  2.1716 -2.3732
  935MOL0     H29000   2.675   2.525   0.879 -2.3084 -0.1256 -3.0694
  935MOL0     H29001   2.559   2.606   0.989 -1.6667  2.7074 -0.5344
  935MOL0     H29002   2.764   2.652   1.060 -1.6816  0.8796  0.7370
  935MOL0     H29003   2.822   2.733   0.914  0.4165 -0.6904  0.6574
  935MOL0     H29004   2.576   2.820   1.080  1.3552  0.0500  2.7636
  935MOL0     H29005   2.665   2.913   0.961 -0.5024 -1.5878 -1.3886
  935MOL0     H29006   2.857   2.893   1.144  0.2748  3.2646  2.8900
  935MOL0     H29007   2.728   2.821   1.245 -1.5770  0.7334 -0.0798
  935MOL0     H29008   2.735   3.068   1.288  0.5147  0.9598 -0.3924
  935MOL0     H29009   2.592   2.988   1.221  0.0582 -2.2530  1.0261
  935MOL0     H29010   2.561   2.278   0.596  0.0163  2.7999 -1.7738
  935MOL0     H29011   2.520   2.030   0.541 -0.7024 -1.1354 -1.3328
  935MOL0     H29012   2.017   1.651   0.439  0.2742 -0.5534  0.9557
  935MOL0     H29013   2.038   1.416   0.419  1.5744 -1.1806  2.3672
  935MOL0     H29014   3.144   0.220   1.148 -2.3563 -2.8724  0.1488
  935MOL0     H29015   3.294   0.035   1.200  1.5189 -1.0683  0.0295
  935MOL0     H29016   3.518  -0.215   1.345 -0.0525  0.6629 -0.3771
  935MOL0     H29017   3.688  -0.400   1.365  1.7351 -2.4332  2.1986
  935MOL0     H29018   3.854  -0.521   1.413 -1.6645  1.0789 -2.8945
  935MOL0     H29019   3.961  -0.445   1.297 -0.2572 -0.0797  0.2120
  935MOL0     H29020   4.047  -0.525   1.580 -4.0118 -1.5960  0.5371
  935MOL0     H29021   4.149  -0.496   1.442  0.8237 -0.6658  1.6194
  935MOL0     H29022   4.104  -0.742   1.536  0.0689 -1.7248 -1.0212
  935MOL0     H29023   3.942  -0.712   1.476  0.2490 -0.1471 -0.9710
  935MOL0     H29024   4.158  -0.656   1.268  1.4340 -0.9689  1.6262
  935MOL0     H29025   3.995  -0.723   1.254 -2.3150 -3.6858  1.6195
  935MOL0     H29026   4.241  -1.063   1.308 -0.3089 -0.5766  4.8723
  935MOL0     H29027   3.921  -0.155   1.627 -1.3780 -0.4424  2.5160
  935MOL0     H29028   3.785   0.023   1.753  0.5419 -0.4152 -1.5117
  935MOL0     H29029   3.769   0.139   1.626 -0.1623  0.1177  1.2261
  935MOL0     H29030   3.624   0.081   1.692 -1.0692  2.9965 -3.3230
  936MOL0     O29031   8.106   1.837   6.522  1.0861 -0.0247 -0.3768
  936MOL0     C29032   8.126   1.720   6.517 -0.8440 -1.1057  0.5335
  936MOL0     O29033   8.222   1.657   6.442  0.3717 -0.7565  0.4203
  936MOL0     C29034   8.338   1.715   6.407  0.0732 -0.5682 -0.1948
  936MOL0     C29035   8.409   1.643   6.311  0.6193 -0.4902  0.2198
  936MOL0     C29036   8.536   1.687   6.269 -0.1945 -0.2614 -0.0900
  936MOL0     C29037   8.581   1.814   6.308  0.1632 -1.2411 -0.4814
  936MOL0     O29038   8.690   1.878   6.256  0.8934 -0.3919  0.1835
  936MOL0     C29039   8.741   1.846   6.130  0.0032  0.5612  0.2289
  936MOL0     C29040   8.847   1.947   6.097 -0.2977  0.8601  0.5586
  936MOL0     C29041   8.928   1.909   5.969 -0.1260 -0.5936  0.1796
  936MOL0     C29042   9.031   1.808   5.988 -0.2045 -0.7436  0.0767
  936MOL0     C29043   9.060   1.736   5.859  0.9756  0.4275  0.0940
  936MOL0     C29044   9.175   1.632   5.877 -0.1046  0.7047  0.9091
  936MOL0     C29045   9.166   1.523   5.770 -0.2069  0.3465 -0.6901
  936MOL0     C29046   9.197   1.562   5.630 -0.1146  0.4136  0.4655
  936MOL0     N29047   9.184   1.445   5.532 -0.0931 -0.9989  0.1931
  936MOL0     C29048   9.289   1.364   5.486 -0.2779 -0.1848 -0.0566
  936MOL0     C29049   9.218   1.270   5.416  0.7830 -0.7391 -0.1175
  936MOL0     C29050   9.263   1.143   5.348  0.3370 -0.4843  0.0427
  936MOL0     C29051   9.367   1.067   5.433 -0.5755 -0.0588  0.1867
  936MOL0     C29052   9.402   0.926   5.391 -1.4706 -0.5521 -0.3249
  936MOL0     C29053   9.466   0.908   5.240  1.1721 -0.5424 -0.6212
  936MOL0     O29054   9.357   0.887   5.139  0.1657 -0.7254  0.2626
  936MOL0     C29055   9.393   0.802   5.040 -0.2940  0.5111  0.5824
  936MOL0     C29056   9.516   0.799   4.984  0.1801  0.0318  0.6146
  936MOL0     C29057   9.565   0.722   4.874  0.8231 -0.4931  0.5018
  936MOL0     C29058   9.706   0.727   4.830  0.0805  0.1148  0.2546
  936MOL0     C29059   9.462   0.644   4.821  0.3806 -0.4835 -0.0638
  936MOL0     C29060   9.491   0.551   4.712  0.5847  0.7860  0.7490
  936MOL0     O29061   9.598   0.557   4.638 -0.0335 -0.2579  0.5131
  936MOL0     C29062   9.615   0.462   4.534 -0.7719 -0.1501  0.9435
  936MOL0     C29063   9.680   0.335   4.559 -1.2620 -0.2870 -0.0143
  936MOL0     C29064   9.695   0.245   4.455 -0.7784  0.5605  0.2947
  936MOL0     C29065   9.655   0.275   4.331 -0.0030  0.0523  1.2132
  936MOL0     O29066   9.688   0.179   4.231  0.5530 -1.2133  0.3850
  936MOL0     C29067   9.752   0.233   4.118 -1.0135  0.3396 -0.5912
  936MOL0     C29068   9.730   0.155   3.987  0.2149  0.7396 -0.3174
  936MOL0     C29069   9.625   0.188   3.887 -0.0305  0.8838  0.0294
  936MOL0     C29070   9.669   0.267   3.768 -1.0742  0.1885  0.6455
  936MOL0     C29071   9.575   0.286   3.654  0.8610  0.0464  0.1027
  936MOL0     C29072   9.662   0.350   3.546 -0.7562  0.3035  0.2823
  936MOL0     C29073   9.583   0.408   3.428  0.3780 -0.0197  0.6558
  936MOL0     C29074   9.487   0.309   3.356 -0.2621 -0.1134 -0.6119
  936MOL0    Cl29075   9.443   0.396   3.201 -0.2377  0.4448  0.2527
  936MOL0     C29076   9.593   0.399   4.300  0.7794 -0.5345 -0.2512
  936MOL0     C29077   9.574   0.489   4.403  0.1353  0.4605  0.9773
  936MOL0     O29078   9.417   0.456   4.719 -0.0468  1.2071 -0.8479
  936MOL0     C29079   9.330   0.656   4.863 -0.2309 -0.0488 -0.7449
  936MOL0     C29080   9.294   0.734   4.974  0.1243 -0.2200 -0.1946
  936MOL0     N29081   9.082   1.297   5.416  0.0594 -0.2254 -0.1097
  936MOL0     N29082   9.067   1.406   5.482  0.3108 -0.3704  0.6142
  936MOL0     C29083   8.508   1.887   6.402  0.2540  0.0379  0.5543
  936MOL0     C29084   8.388   1.841   6.451 -0.3134 -0.2268 -0.0521
  936MOL0     C29085   8.016   1.630   6.557 -0.6716  0.9509 -0.5278
  936MOL0     C29086   7.951   1.548   6.467  0.5714 -0.8782  0.0571
  936MOL0     C29087   7.849   1.452   6.502  0.9321  0.4016 -0.4930
  936MOL0     C29088   7.830   1.422   6.639 -0.1596 -0.6937 -0.2593
  936MOL0     O29089   7.751   1.323   6.690  0.3182 -0.1797 -0.4364
  936MOL0     C29090   7.626   1.293   6.631  1.0372 -1.1287 -0.8337
  936MOL0     C29091   7.536   1.214   6.723 -0.0087  0.5413 -0.6159
  936MOL0     C29092   7.631   1.111   6.799  0.1438 -0.1119 -0.1273
  936MOL0     C29093   7.552   0.992   6.849 -0.8771 -0.7311  0.5381
  936MOL0     C29094   7.518   0.892   6.752  0.2640 -0.5236 -0.0331
  936MOL0     C29095   7.487   0.802   6.677 -0.3142  0.2503  0.1292
  936MOL0     C29096   7.895   1.509   6.725  0.2854 -0.6137 -1.0569
  936MOL0     C29097   7.977   1.620   6.692  0.2728  1.3504  0.4486
  936MOL0     C29098   8.041   1.691   6.802 -0.0841 -1.1094 -0.5871
  936MOL0     H29099   8.362   1.556   6.265 -1.4085 -0.4024  1.9748
  936MOL0     H29100   8.588   1.637   6.188  2.1225  1.3064  0.3211
  936MOL0     H29101   8.660   1.837   6.057 -0.0757 -2.6863  0.5858
  936MOL0     H29102   8.796   1.752   6.135  2.0389  1.3265 -3.6283
  936MOL0     H29103   8.808   2.046   6.071  1.2543  2.0352  2.4344
  936MOL0     H29104   8.913   1.958   6.184  1.9619  2.5055 -1.2247
  936MOL0     H29105   8.849   1.867   5.907 -0.4646 -0.0523  0.2346
  936MOL0     H29106   8.962   2.002   5.922 -1.0433 -0.2726  0.1252
  936MOL0     H29107   9.123   1.855   6.023 -1.3128  1.6106  0.0122
  936MOL0     H29108   8.988   1.733   6.056 -0.0919 -1.5446 -0.7164
  936MOL0     H29109   9.079   1.802   5.774 -0.8066  0.4498 -0.3173
  936MOL0     H29110   8.968   1.684   5.829  1.4695  1.3980 -3.6185
  936MOL0     H29111   9.274   1.678   5.887  0.2165  0.3078 -0.2827
  936MOL0     H29112   9.152   1.586   5.974 -2.5339  3.1947  1.6594
  936MOL0     H29113   9.061   1.491   5.768  0.4770 -2.2206 -0.0696
  936MOL0     H29114   9.237   1.444   5.798 -1.0154 -0.6672 -1.4221
  936MOL0     H29115   9.115   1.626   5.596 -0.3242 -0.5477 -0.9285
  936MOL0     H29116   9.294   1.614   5.633 -0.6097  1.3284  1.9964
  936MOL0     H29117   9.392   1.385   5.515 -0.5460 -0.6462  1.3157
  936MOL0     H29118   9.296   1.151   5.244 -3.6877 -2.8555 -1.6616
  936MOL0     H29119   9.178   1.075   5.347  2.1909 -3.0272  1.1706
  936MOL0     H29120   9.462   1.122   5.428 -0.4734 -0.3267 -2.2377
  936MOL0     H29121   9.346   1.083   5.539  0.5180  3.5795  0.0031
  936MOL0     H29122   9.487   0.900   5.455  2.3312  1.0838 -4.1725
  936MOL0     H29123   9.313   0.870   5.419 -1.2712 -0.6321  0.1671
  936MOL0     H29124   9.526   0.997   5.217  0.4176 -0.1929 -1.3039
  936MOL0     H29125   9.533   0.822   5.245  0.5222 -1.0104  0.1580
  936MOL0     H29126   9.597   0.866   5.012  1.7944 -2.0449  1.2400
  936MOL0     H29127   9.760   0.631   4.835  0.1563  0.1118 -0.4875
  936MOL0     H29128   9.764   0.792   4.896  0.3821 -3.0198  3.4045
  936MOL0     H29129   9.710   0.778   4.734 -1.2472  1.9639  1.1426
  936MOL0     H29130   9.716   0.312   4.658 -0.3434  0.3684 -0.1726
  936MOL0     H29131   9.747   0.151   4.472  2.1198  1.4090 -2.7369
  936MOL0     H29132   9.736   0.339   4.097 -1.4585  0.2143 -0.9057
  936MOL0     H29133   9.857   0.214   4.143 -0.9984  0.0085 -0.8943
  936MOL0     H29134   9.820   0.136   3.928 -0.1166 -1.6057 -0.1640
  936MOL0     H29135   9.707   0.058   4.033 -1.5025 -0.7411 -3.9253
  936MOL0     H29136   9.546   0.245   3.937 -4.0484 -3.7992 -0.2690
  936MOL0     H29137   9.578   0.099   3.844  1.8966  0.1047 -0.5726
  936MOL0     H29138   9.764   0.225   3.736 -1.5652 -0.2759 -0.2336
  936MOL0     H29139   9.696   0.367   3.804 -0.8171  1.4662 -2.7112
  936MOL0     H29140   9.528   0.189   3.633 -1.9368  1.2151  0.5721
  936MOL0     H29141   9.494   0.353   3.683  1.2092  1.7115 -2.4420
  936MOL0     H29142   9.729   0.272   3.509 -1.1560  0.9939 -2.0618
  936MOL0     H29143   9.727   0.419   3.601 -0.4772 -1.8972  2.9323
  936MOL0     H29144   9.664   0.435   3.360  2.3932  1.3294  3.3734
  936MOL0     H29145   9.518   0.492   3.455 -0.7390 -0.3894 -0.8020
  936MOL0     H29146   9.398   0.307   3.419  1.5976  0.3745  2.1888
  936MOL0     H29147   9.529   0.209   3.341  0.6670  0.1494  0.1900
  936MOL0     H29148   9.553   0.422   4.202 -0.7679 -2.6892 -0.2004
  936MOL0     H29149   9.532   0.588   4.387 -2.0504 -0.2282  2.1350
  936MOL0     H29150   9.256   0.604   4.801 -0.4826 -1.9593  1.0442
  936MOL0     H29151   9.191   0.734   5.010  0.3132 -2.7429  0.5723
  936MOL0     H29152   8.556   1.975   6.443  2.3797 -1.0234  0.4570
  936MOL0     H29153   8.343   1.894   6.535 -0.7923 -1.7478  0.6978
  936MOL0     H29154   7.975   1.564   6.362 -4.0514 -0.4632 -1.1667
  936MOL0     H29155   7.788   1.404   6.426  1.4109  2.4343 -2.2514
  936MOL0     H29156   7.593   1.384   6.581  0.6129 -1.2872 -0.8456
  936MOL0     H29157   7.643   1.217   6.553 -1.0104 -0.0572 -2.4326
  936MOL0     H29158   7.465   1.165   6.657 -2.9871  2.0953  1.2052
  936MOL0     H29159   7.482   1.283   6.789 -1.9064 -0.1924 -1.3610
  936MOL0     H29160   7.714   1.074   6.738 -0.2446 -1.1251 -0.0494
  936MOL0     H29161   7.680   1.166   6.881 -1.1097 -1.1451  1.3706
  936MOL0     H29162   7.464   1.027   6.903 -0.8570 -2.1012  1.5239
  936MOL0     H29163   7.600   0.952   6.939 -1.3983 -1.8806  0.3197
  936MOL0     H29164   7.465   0.726   6.604  1.3898  0.3214 -0.5096
  936MOL0     H29165   7.884   1.487   6.831  3.1522  1.2453 -0.2780
  936MOL0     H29166   8.025   1.625   6.888 -0.2389 -2.4818 -1.6209
  936MOL0     H29167   8.148   1.702   6.782  0.3337 -2.8711  0.4006
  936MOL0     H29168   7.996   1.790   6.815  1.2319 -0.5043 -0.4688
  937MOL0     O29169   5.883   9.545   9.985  0.4735  0.0243  0.1656
  937MOL0     C29170   5.958   9.450  10.006 -0.8811  0.0354 -0.4681
  937MOL0     O29171   5.930   9.322   9.981  0.3316 -0.4134 -0.5929
  937MOL0     C29172   5.809   9.295   9.929  0.2626  0.7402  0.3210
  937MOL0     C29173   5.690   9.346   9.987 -0.4396  0.1190  0.2189
  937MOL0     C29174   5.567   9.311   9.929  0.3526 -1.0810  0.2090
  937MOL0     C29175   5.570   9.228   9.812  0.7824 -1.0576 -1.6232
  937MOL0     O29176   5.451   9.209   9.762 -0.4048  0.1649  0.6488
  937MOL0     C29177   5.425   9.100   9.672 -0.8213 -0.0806  0.7839
  937MOL0     C29178   5.276   9.109   9.643 -0.4203 -0.4096  0.3759
  937MOL0     C29179   5.185   9.074   9.753 -0.6397  0.1166 -0.6574
  937MOL0     C29180   5.189   8.916   9.781  0.9688 -0.0143 -0.4353
  937MOL0     C29181   5.079   8.884   9.886  0.5963 -0.1234  0.2568
  937MOL0     C29182   4.951   8.851   9.820  0.7612 -0.1245 -0.1379
  937MOL0     C29183   4.844   8.788   9.909  0.1547  0.2908 -0.5217
  937MOL0     C29184   4.889   8.670  10.002 -0.7297 -0.3739  0.1199
  937MOL0     N29185   4.787   8.622  10.098 -0.0251  0.2079 -0.4081
  937MOL0     C29186   4.669   8.553  10.073 -0.6619 -0.2229  0.3061
  937MOL0     C29187   4.591   8.576  10.186  0.6438  0.4657  0.8550
  937MOL0     C29188   4.444   8.540  10.206 -0.0724  0.9145 -0.1563
  937MOL0     C29189   4.417   8.389  10.228  0.5205  1.2378  0.3557
  937MOL0     C29190   4.268   8.365  10.239 -0.1429  0.2600  1.0276
  937MOL0     C29191   4.237   8.224  10.239 -0.6913 -0.0624 -1.1637
  937MOL0     O29192   4.289   8.158  10.125  0.0527 -0.9511  0.4387
  937MOL0     C29193   4.284   8.024  10.118  1.5171  0.6542  0.0541
  937MOL0     C29194   4.363   7.958  10.022 -0.2794 -0.5541 -0.4250
  937MOL0     C29195   4.350   7.818   9.990  0.3142 -0.3518  1.3241
  937MOL0     C29196   4.442   7.740   9.894  1.2134 -0.1939  0.3428
  937MOL0     C29197   4.254   7.742  10.062 -0.8753  0.0379  0.7218
  937MOL0     C29198   4.246   7.597  10.057  1.6771  0.2891 -0.1199
  937MOL0     O29199   4.113   7.561  10.048 -0.0710 -0.6860  0.5165
  937MOL0     C29200   4.100   7.424  10.043 -0.3697  0.8775 -0.1075
  937MOL0     C29201   4.061   7.352  10.167 -0.5578 -0.5044  0.2206
  937MOL0     C29202   4.030   7.216  10.168 -0.0505  0.3678 -0.1792
  937MOL0     C29203   4.048   7.149  10.042  0.7165  1.1453  0.3068
  937MOL0     O29204   4.019   7.013  10.040  0.3334  0.0234 -0.0257
  937MOL0     C29205   3.909   6.959   9.965 -0.1646  1.1717 -0.0474
  937MOL0     C29206   3.862   6.840  10.043  0.8381  1.1783 -0.1717
  937MOL0     C29207   3.755   6.746   9.963 -0.0729  0.0590  0.1197
  937MOL0     C29208   3.682   6.638  10.045  0.0217  0.1402  0.0692
  937MOL0     C29209   3.781   6.537  10.108  0.7714  0.0641 -0.2113
  937MOL0     C29210   3.690   6.440  10.177 -0.2017  0.5201  1.0971
  937MOL0     C29211   3.752   6.329  10.251 -0.6427 -0.1545 -1.2401
  937MOL0     C29212   3.665   6.207  10.260  0.0956 -0.4650  0.7602
  937MOL0    Cl29213   3.769   6.067  10.312 -0.2399 -0.0385 -0.3143
  937MOL0     C29214   4.099   7.210   9.927  0.9811 -0.3648 -0.2776
  937MOL0     C29215   4.116   7.352   9.922 -0.9336 -0.0407  0.1601
  937MOL0     O29216   4.342   7.521  10.071  0.0160 -0.1557  0.2990
  937MOL0     C29217   4.178   7.812  10.159  0.1114 -0.3673 -0.5501
  937MOL0     C29218   4.195   7.945  10.188  0.9040 -0.1479  0.3445
  937MOL0     N29219   4.660   8.652  10.269 -0.2637 -0.3293 -0.7522
  937MOL0     N29220   4.775   8.682  10.213 -0.5250  0.8138  0.4517
  937MOL0     C29221   5.689   9.171   9.770 -0.8895  0.5900 -1.2022
  937MOL0     C29222   5.808   9.206   9.828  0.1809  0.8218  1.0438
  937MOL0     C29223   6.098   9.487  10.033  0.2794  0.0700  0.4722
  937MOL0     C29224   6.156   9.600   9.983  0.7635 -0.5622  1.0600
  937MOL0     C29225   6.287   9.635  10.011  0.1253 -0.6920  0.1262
  937MOL0     C29226   6.362   9.555  10.094 -0.5214 -0.0576  0.9308
  937MOL0     O29227   6.494   9.581  10.131  1.2942 -0.5387  0.4112
  937MOL0     C29228   6.573   9.695  10.084 -0.2616 -0.6218 -1.1721
  937MOL0     C29229   6.577   9.806  10.191  1.3074 -0.4234  0.1616
  937MOL0     C29230   6.442   9.883  10.211 -0.6299 -0.6547  0.1589
  937MOL0     C29231   6.420   9.978  10.330 -0.7153  0.7653 -0.1858
  937MOL0     C29232   6.305  10.066  10.311  0.5852  0.1865 -0.0085
  937MOL0     C29233   6.203  10.131  10.304  0.4003 -0.1176  0.3203
  937MOL0     C29234   6.309   9.434  10.136 -0.3893 -0.2131  0.0762
  937MOL0     C29235   6.174   9.406  10.112  0.2996 -0.0189 -0.4183
  937MOL0     C29236   6.122   9.278  10.189 -0.0165  0.1427  0.3877
  937MOL0     H29237   5.697   9.392  10.086  2.5118 -0.6745  0.4705
  937MOL0     H29238   5.472   9.352   9.962  0.5487 -0.4249 -0.0423
  937MOL0     H29239   5.452   9.003   9.713  1.9551  0.9959  1.7772
  937MOL0     H29240   5.489   9.131   9.588  0.6069  3.3325  2.8929
  937MOL0     H29241   5.253   9.214   9.622 -2.3014 -0.8735 -0.0570
  937MOL0     H29242   5.254   9.053   9.552 -0.2575 -1.5969  1.0406
  937MOL0     H29243   5.214   9.124   9.846  1.4657 -1.3714 -0.4498
  937MOL0     H29244   5.086   9.109   9.724 -1.1393  0.7261  1.5440
  937MOL0     H29245   5.165   8.854   9.695 -0.2255  1.1749 -0.9823
  937MOL0     H29246   5.285   8.887   9.825  1.2330 -1.0808 -1.6436
  937MOL0     H29247   5.062   8.980   9.935  3.7302  1.6799 -1.8062
  937MOL0     H29248   5.126   8.814   9.955  4.2206 -0.3515 -2.1463
  937MOL0     H29249   4.921   8.932   9.753  3.0058 -0.5518 -1.7829
  937MOL0     H29250   4.969   8.765   9.755  2.3150  0.3866 -0.4168
  937MOL0     H29251   4.759   8.748   9.853  0.2200 -0.3082 -0.1948
  937MOL0     H29252   4.796   8.853   9.983  1.1697 -0.5567  0.9368
  937MOL0     H29253   4.928   8.586   9.944  2.0351  0.1367  1.0728
  937MOL0     H29254   4.959   8.721  10.068 -2.8853  3.9544 -0.5717
  937MOL0     H29255   4.645   8.508   9.977  2.7040  0.7786 -1.1700
  937MOL0     H29256   4.388   8.583  10.122  1.1363  0.1053 -1.4133
  937MOL0     H29257   4.404   8.587  10.296 -3.8554  0.0209 -1.1883
  937MOL0     H29258   4.463   8.326  10.151  0.6119  1.7436 -0.0088
  937MOL0     H29259   4.461   8.368  10.326  1.3802  0.4726 -0.1745
  937MOL0     H29260   4.225   8.415  10.327 -2.1804 -0.7423  0.6756
  937MOL0     H29261   4.219   8.398  10.147  4.2540  0.5667 -1.4897
  937MOL0     H29262   4.270   8.184  10.335  0.4583  0.5116 -1.3100
  937MOL0     H29263   4.128   8.217  10.252 -0.8209  0.3374 -1.9553
  937MOL0     H29264   4.437   8.006   9.959  2.2674 -3.8033 -0.1750
  937MOL0     H29265   4.504   7.656   9.926  0.0457 -2.3883 -2.6279
  937MOL0     H29266   4.506   7.820   9.856  0.5672 -0.8942 -2.4517
  937MOL0     H29267   4.382   7.689   9.817 -0.8944  2.1173  0.3239
  937MOL0     H29268   4.056   7.422  10.250  1.7245  2.0235 -1.5898
  937MOL0     H29269   4.010   7.153  10.254 -0.2006  0.5156 -0.1083
  937MOL0     H29270   3.824   7.027   9.962  0.0206  1.4917  1.1541
  937MOL0     H29271   3.947   6.924   9.869 -0.5659 -1.0317  0.5156
  937MOL0     H29272   3.943   6.771  10.069 -1.0440 -1.5064 -0.9526
  937MOL0     H29273   3.819   6.862  10.142  0.6515 -0.6677  0.2011
  937MOL0     H29274   3.802   6.696   9.878 -2.2521 -0.6377 -0.7487
  937MOL0     H29275   3.670   6.803   9.923 -0.2825 -1.2108 -1.3321
  937MOL0     H29276   3.607   6.595   9.978  0.5255  0.1131 -0.4895
  937MOL0     H29277   3.634   6.680  10.134 -0.5198 -0.0841 -0.1163
  937MOL0     H29278   3.830   6.482  10.028  3.4999  1.4435  0.4015
  937MOL0     H29279   3.840   6.586  10.186 -2.4915  1.4076  1.6151
  937MOL0     H29280   3.620   6.409  10.099  0.2629  2.7974 -0.3498
  937MOL0     H29281   3.623   6.490  10.247 -1.5510 -0.7307  0.7481
  937MOL0     H29282   3.768   6.371  10.351 -2.1402  1.1300 -1.4992
  937MOL0     H29283   3.851   6.304  10.212 -0.7836 -2.0852 -0.4955
  937MOL0     H29284   3.629   6.192  10.158  3.2817 -1.1169 -0.3704
  937MOL0     H29285   3.571   6.220  10.316 -2.2840 -0.5728 -2.8834
  937MOL0     H29286   4.117   7.147   9.841  1.2696  0.1658 -0.6118
  937MOL0     H29287   4.156   7.400   9.833  1.4939 -4.3167 -1.3247
  937MOL0     H29288   4.108   7.752  10.216  2.2734 -1.9509  0.5831
  937MOL0     H29289   4.126   7.979  10.265 -1.0962 -2.8263 -0.1269
  937MOL0     H29290   5.698   9.111   9.680  0.3824 -0.8689 -0.1685
  937MOL0     H29291   5.901   9.166   9.788 -0.8517 -0.3605 -0.2742
  937MOL0     H29292   6.107   9.668   9.915  0.9711  0.6256  2.0615
  937MOL0     H29293   6.319   9.732   9.975  0.6910  1.0695  4.6733
  937MOL0     H29294   6.677   9.663  10.074  0.2088  1.1696 -2.6673
  937MOL0     H29295   6.535   9.732   9.988 -2.4213 -1.5593 -0.7453
  937MOL0     H29296   6.660   9.868  10.157  3.0247 -1.5290  2.1553
  937MOL0     H29297   6.622   9.779  10.287 -1.0282 -1.2908  1.1038
  937MOL0     H29298   6.412   9.932  10.118 -1.6518  0.3034  0.9655
  937MOL0     H29299   6.373   9.800  10.230 -2.5889  0.9855  0.6016
  937MOL0     H29300   6.514  10.034  10.337  1.8457 -3.2862  4.7769
  937MOL0     H29301   6.421   9.922  10.424  1.0866  1.8634  0.5028
  937MOL0     H29302   6.110  10.180  10.288  0.1846 -1.3664 -2.9117
  937MOL0     H29303   6.371   9.360  10.184  0.2336 -0.9226 -1.7369
  937MOL0     H29304   6.017   9.294  10.216 -0.3630 -0.1001 -0.7573
  937MOL0     H29305   6.131   9.184  10.134  0.5026 -1.1471  2.5396
  937MOL0     H29306   6.179   9.256  10.279  0.3530 -3.6876 -0.6271
  938MOL0     O29307   2.064   0.058   1.666 -0.0819 -0.3675 -0.3398
  938MOL0     C29308   1.954   0.061   1.721  0.0024  0.0656 -0.7021
  938MOL0     O29309   1.926  -0.011   1.835 -0.1304  0.2745 -0.2368
  938MOL0     C29310   2.020  -0.109   1.871  0.2696  0.2477  0.3686
  938MOL0     C29311   2.055  -0.225   1.806  0.3489 -0.0406 -0.9613
  938MOL0     C29312   2.143  -0.312   1.865 -0.0355  0.5833  0.7593
  938MOL0     C29313   2.196  -0.296   1.990 -0.0044  0.3336 -0.8266
  938MOL0     O29314   2.278  -0.403   2.055 -0.3814 -0.2362  0.6739
  938MOL0     C29315   2.257  -0.539   2.016  0.2923  0.0450 -0.6497
  938MOL0     C29316   2.283  -0.631   2.133 -0.4914  0.0042  0.3888
  938MOL0     C29317   2.332  -0.774   2.092 -0.4007 -0.1027  0.7743
  938MOL0     C29318   2.445  -0.787   1.998  0.1730 -0.4611  0.2492
  938MOL0     C29319   2.407  -0.867   1.877 -0.2691 -0.5089 -0.6636
  938MOL0     C29320   2.503  -0.864   1.762  0.2739  0.2377  0.0984
  938MOL0     C29321   2.464  -0.942   1.642 -0.1696 -0.4745  0.5942
  938MOL0     C29322   2.457  -1.094   1.661 -0.1132  0.7847 -0.0492
  938MOL0     N29323   2.427  -1.164   1.535 -0.9846 -0.9133  0.2516
  938MOL0     C29324   2.518  -1.187   1.438 -0.1997  0.4909  0.2831
  938MOL0     C29325   2.460  -1.268   1.339 -0.7188  0.2989 -0.4565
  938MOL0     C29326   2.509  -1.319   1.208 -0.4959  0.1750  0.3072
  938MOL0     C29327   2.432  -1.279   1.086 -0.0601 -0.4897  0.3019
  938MOL0     C29328   2.411  -1.127   1.045  0.2670  0.0438  0.1839
  938MOL0     C29329   2.548  -1.064   1.014 -0.6135  0.2491  0.3812
  938MOL0     O29330   2.622  -1.018   1.132 -0.1373 -0.0511  0.7122
  938MOL0     C29331   2.605  -0.886   1.168  0.2318 -0.8486 -0.9422
  938MOL0     C29332   2.675  -0.778   1.113  0.6612  0.9292  0.7593
  938MOL0     C29333   2.650  -0.645   1.146 -1.2143  0.6875 -0.2216
  938MOL0     C29334   2.746  -0.544   1.083  0.0992 -0.8078 -0.2895
  938MOL0     C29335   2.547  -0.611   1.230  0.2583  0.0718  0.2570
  938MOL0     C29336   2.510  -0.486   1.290  0.3995 -0.3553  0.2099
  938MOL0     O29337   2.377  -0.471   1.332  0.0126  0.1509  0.1021
  938MOL0     C29338   2.317  -0.348   1.313 -0.2163  0.3348  0.3726
  938MOL0     C29339   2.311  -0.296   1.187  0.5140 -0.4783 -0.0242
  938MOL0     C29340   2.248  -0.171   1.180  1.2905 -0.4027  0.8102
  938MOL0     C29341   2.190  -0.107   1.291  1.1582  0.6408 -0.3313
  938MOL0     O29342   2.132   0.011   1.265 -0.4292  0.1020 -0.1518
  938MOL0     C29343   2.214   0.124   1.316 -1.0602 -0.1515 -0.5342
  938MOL0     C29344   2.133   0.247   1.307  0.3688 -0.4333  0.2223
  938MOL0     C29345   2.088   0.275   1.166  0.3697  0.1209  0.6846
  938MOL0     C29346   1.982   0.380   1.149 -0.7110  0.4310 -0.6684
  938MOL0     C29347   2.043   0.521   1.141  0.5166 -0.2179 -0.9430
  938MOL0     C29348   1.940   0.629   1.131 -0.5325  0.1888 -0.6122
  938MOL0     C29349   1.858   0.618   0.994 -0.2040  0.8008  0.3370
  938MOL0     C29350   1.784   0.739   0.945 -0.4964  0.1571  0.2407
  938MOL0    Cl29351   1.675   0.772   1.079 -0.0205  0.5264  0.3196
  938MOL0     C29352   2.206  -0.159   1.420  0.2473 -0.5891  0.8460
  938MOL0     C29353   2.266  -0.283   1.430  0.7259  1.2314  0.9155
  938MOL0     O29354   2.595  -0.398   1.297  0.4396  0.4347 -0.3237
  938MOL0     C29355   2.473  -0.717   1.283 -0.1364  0.0516 -1.2484
  938MOL0     C29356   2.506  -0.850   1.262  0.4488 -0.6907 -0.4841
  938MOL0     N29357   2.330  -1.279   1.384  0.3981  0.0993 -0.2151
  938MOL0     N29358   2.312  -1.223   1.498  0.7419  0.5327  0.2890
  938MOL0     C29359   2.169  -0.177   2.057  0.0687 -0.5480  0.2847
  938MOL0     C29360   2.073  -0.088   2.000 -0.2155  0.5608  0.7502
  938MOL0     C29361   1.848   0.125   1.648  0.1731  0.2193  0.8790
  938MOL0     C29362   1.828   0.109   1.506 -0.9345  0.1383  0.5489
  938MOL0     C29363   1.729   0.181   1.444  0.1039 -0.5729 -0.3722
  938MOL0     C29364   1.643   0.268   1.514  0.3468  0.6546 -0.3147
  938MOL0     O29365   1.537   0.342   1.462 -0.4331 -0.2224  0.1784
  938MOL0     C29366   1.504   0.323   1.322  0.1220  0.0546  0.3305
  938MOL0     C29367   1.385   0.423   1.309  0.4056 -0.5876 -0.1008
  938MOL0     C29368   1.290   0.405   1.194 -0.5086  0.5079  0.0317
  938MOL0     C29369   1.201   0.531   1.186  0.0568  0.2645 -0.0209
  938MOL0     C29370   1.278   0.655   1.164  1.2733 -0.5089  0.0827
  938MOL0     C29371   1.312   0.777   1.149 -1.4923  0.1939  0.0793
  938MOL0     C29372   1.660   0.274   1.650 -0.0117  0.5450  0.1340
  938MOL0     C29373   1.770   0.211   1.713 -0.3822 -0.6286 -0.2182
  938MOL0     C29374   1.777   0.224   1.864 -0.7031 -0.8948  0.5283
  938MOL0     H29375   2.008  -0.251   1.712  1.1598 -3.1364 -0.6300
  938MOL0     H29376   2.173  -0.398   1.804  0.4969  0.7189  0.8262
  938MOL0     H29377   2.324  -0.559   1.932 -1.4138 -0.5037 -1.9277
  938MOL0     H29378   2.158  -0.568   1.978  1.1471 -1.1931 -2.0261
  938MOL0     H29379   2.356  -0.577   2.194 -1.0359  1.6682 -0.3691
  938MOL0     H29380   2.195  -0.641   2.198 -2.1020 -0.4087 -1.7466
  938MOL0     H29381   2.344  -0.821   2.190 -0.7592 -2.9907 -0.4669
  938MOL0     H29382   2.249  -0.830   2.047  0.6115 -1.0114 -0.0230
  938MOL0     H29383   2.492  -0.693   1.966 -2.9580  1.7077  1.6167
  938MOL0     H29384   2.526  -0.841   2.048  1.3716  1.5021  0.5450
  938MOL0     H29385   2.309  -0.835   1.840  0.5325  2.6348 -0.3180
  938MOL0     H29386   2.397  -0.969   1.915  1.3203  0.1895  1.8230
  938MOL0     H29387   2.516  -0.758   1.737  1.1136 -0.0397 -0.6488
  938MOL0     H29388   2.605  -0.884   1.794  0.7104  1.1439 -0.6862
  938MOL0     H29389   2.523  -0.905   1.558  0.8558  2.0120  2.2809
  938MOL0     H29390   2.365  -0.913   1.604  1.1174  0.4505 -2.3567
  938MOL0     H29391   2.561  -1.120   1.685 -0.1464  1.1442  0.4876
  938MOL0     H29392   2.392  -1.120   1.745  2.3510  1.2241  2.1226
  938MOL0     H29393   2.617  -1.144   1.422  0.4721 -0.1155  2.5434
  938MOL0     H29394   2.504  -1.427   1.218 -0.3667  0.1998  0.6604
  938MOL0     H29395   2.612  -1.288   1.185 -0.7467  3.0049  2.3649
  938MOL0     H29396   2.473  -1.322   0.994 -2.1028  0.6199 -1.2353
  938MOL0     H29397   2.332  -1.318   1.107 -0.7976  0.8947 -0.4737
  938MOL0     H29398   2.347  -1.120   0.956  1.6420  1.6071 -0.7502
  938MOL0     H29399   2.369  -1.071   1.129 -1.5490  1.8393 -1.7932
  938MOL0     H29400   2.609  -1.145   0.971  0.8061  0.0706  2.5918
  938MOL0     H29401   2.526  -0.994   0.933 -1.0107  0.7279  0.9000
  938MOL0     H29402   2.752  -0.810   1.045  0.8234  0.5655  1.1102
  938MOL0     H29403   2.800  -0.492   1.163 -1.1574 -0.5391  0.4183
  938MOL0     H29404   2.685  -0.465   1.038  1.6313  1.1085  0.8306
  938MOL0     H29405   2.817  -0.578   1.007 -1.6472  0.3178 -2.5252
  938MOL0     H29406   2.343  -0.343   1.095 -0.6643  0.5388 -0.9948
  938MOL0     H29407   2.223  -0.135   1.081  2.7449  2.3764  1.3581
  938MOL0     H29408   2.236   0.110   1.422  2.6159  2.0563 -0.8177
  938MOL0     H29409   2.306   0.136   1.258  1.6998 -0.0135  3.4241
  938MOL0     H29410   2.045   0.238   1.371  1.2477  2.1661  1.9281
  938MOL0     H29411   2.207   0.321   1.339  0.4679 -0.3775 -0.1262
  938MOL0     H29412   2.040   0.183   1.132 -1.7592  0.1768  3.2486
  938MOL0     H29413   2.173   0.301   1.102 -1.6837  2.6316 -1.2717
  938MOL0     H29414   1.908   0.369   1.228 -1.1227  2.6834 -0.6910
  938MOL0     H29415   1.934   0.356   1.054 -2.4781 -1.0849  0.5388
  938MOL0     H29416   2.107   0.539   1.228 -1.2410 -1.3562  0.6587
  938MOL0     H29417   2.103   0.515   1.050  2.0535  0.0506  0.0155
  938MOL0     H29418   1.990   0.726   1.125  2.6873 -1.3897 -1.6284
  938MOL0     H29419   1.864   0.637   1.209 -0.3877  0.4877 -0.4983
  938MOL0     H29420   1.779   0.543   1.001  0.4749 -0.0752 -0.9299
  938MOL0     H29421   1.934   0.588   0.921 -2.6089 -6.2279 -0.0016
  938MOL0     H29422   1.726   0.729   0.853  1.4168  1.4505 -1.1897
  938MOL0     H29423   1.856   0.819   0.925 -1.0718  0.4227 -0.8756
  938MOL0     H29424   2.145  -0.119   1.500 -1.8827  2.6142 -2.0825
  938MOL0     H29425   2.275  -0.314   1.534 -0.1647 -0.3766  0.5438
  938MOL0     H29426   2.384  -0.688   1.338 -1.0347  0.1329 -2.6902
  938MOL0     H29427   2.443  -0.928   1.303  0.0011 -0.0089  0.1433
  938MOL0     H29428   2.219  -0.146   2.148  1.2253 -1.2260 -0.1023
  938MOL0     H29429   2.035  -0.012   2.068  1.8177  1.0748  1.3634
  938MOL0     H29430   1.879   0.031   1.449 -1.5517  0.3300 -0.2845
  938MOL0     H29431   1.713   0.177   1.337  1.3795  0.2710 -0.6221
  938MOL0     H29432   1.578   0.352   1.247  1.2799  0.9559  1.7774
  938MOL0     H29433   1.472   0.219   1.305 -0.9719  0.4735 -0.2523
  938MOL0     H29434   1.440   0.517   1.321  2.5022 -1.7224 -0.4700
  938MOL0     H29435   1.329   0.404   1.402 -0.5485 -1.1078 -0.7646
  938MOL0     H29436   1.336   0.383   1.098 -1.9311  1.3938 -0.8941
  938MOL0     H29437   1.219   0.324   1.215  0.1317  0.0426  0.4325
  938MOL0     H29438   1.135   0.541   1.273  0.0575 -1.1925  0.1654
  938MOL0     H29439   1.148   0.494   1.098  0.6641 -2.6287  0.7305
  938MOL0     H29440   1.331   0.881   1.138  0.4125 -0.3125 -2.5472
  938MOL0     H29441   1.593   0.345   1.698  0.6173  1.7565 -0.7025
  938MOL0     H29442   1.692   0.283   1.900 -1.0412 -1.0672  0.0190
  938MOL0     H29443   1.758   0.128   1.912  0.8131  0.6420  4.6249
  938MOL0     H29444   1.873   0.261   1.901 -1.0151  0.1814  0.3004
  939MOL0     O29445   2.899  10.194   4.925  0.1559  0.3431 -0.2280
  939MOL0     C29446   2.881  10.212   4.814 -0.1985 -0.6578  0.1288
  939MOL0     O29447   2.825  10.329   4.765 -0.1856 -0.1460 -0.0469
  939MOL0     C29448   2.754  10.421   4.836 -0.0223 -0.2816 -0.2302
  939MOL0     C29449   2.750  10.555   4.789  0.9076 -0.5296  0.3515
  939MOL0     C29450   2.664  10.649   4.843  0.5534  0.2311  0.1960
  939MOL0     C29451   2.567  10.599   4.941 -0.2568  0.7319  0.6304
  939MOL0     O29452   2.482  10.693   4.986  0.3074 -0.4254  0.0469
  939MOL0     C29453   2.440  10.687   5.126  0.4841 -0.2682 -0.5933
  939MOL0     C29454   2.316  10.779   5.146 -0.3735  0.1852  0.7287
  939MOL0     C29455   2.268  10.799   5.294  0.3336 -0.3569  0.1804
  939MOL0     C29456   2.184  10.668   5.336 -0.2970  0.1176 -0.2501
  939MOL0     C29457   2.154  10.682   5.491 -0.8706  0.3102  0.0470
  939MOL0     C29458   2.069  10.554   5.523 -0.3140  0.7001  0.8603
  939MOL0     C29459   2.014  10.562   5.659  0.7615 -0.5958 -0.6867
  939MOL0     C29460   1.893  10.667   5.653 -0.7579 -0.5368 -0.5300
  939MOL0     N29461   1.826  10.690   5.787 -0.3412 -0.1158  0.9446
  939MOL0     C29462   1.696  10.668   5.807  0.2228 -0.3515 -0.2890
  939MOL0     C29463   1.672  10.725   5.923 -0.2084  0.0511  0.0468
  939MOL0     C29464   1.532  10.738   5.980  0.1364 -0.1326 -0.4485
  939MOL0     C29465   1.504  10.895   5.991  0.5423  0.1133  0.0620
  939MOL0     C29466   1.356  10.929   5.986 -0.0548 -0.1581  0.4009
  939MOL0     C29467   1.334  11.077   5.959  0.3541  0.3979  0.5744
  939MOL0     O29468   1.407  11.153   6.060 -0.1434 -0.4671 -0.1308
  939MOL0     C29469   1.337  11.228   6.146  0.5846 -0.5489 -0.7577
  939MOL0     C29470   1.213  11.295   6.129  0.6497 -0.0596 -1.0905
  939MOL0     C29471   1.159  11.370   6.243 -0.1672 -0.4156 -0.5835
  939MOL0     C29472   1.023  11.447   6.197 -0.5989  0.7246 -0.6086
  939MOL0     C29473   1.223  11.385   6.361 -0.4894 -0.0464 -0.6879
  939MOL0     C29474   1.158  11.455   6.477 -0.6210  0.6080  0.1737
  939MOL0     O29475   1.075  11.566   6.465  0.0169  0.2764 -0.3060
  939MOL0     C29476   1.010  11.611   6.575  0.1756 -0.8291 -0.1992
  939MOL0     C29477   0.868  11.603   6.577  0.1348  0.6099 -0.8180
  939MOL0     C29478   0.788  11.648   6.684 -0.2210 -0.7563 -0.6403
  939MOL0     C29479   0.858  11.696   6.799  0.5778 -0.1942  0.7476
  939MOL0     O29480   0.774  11.757   6.897 -0.5395 -0.4283 -0.1988
  939MOL0     C29481   0.822  11.822   7.012 -0.4558  0.5987 -0.4347
  939MOL0     C29482   0.700  11.860   7.097  0.0253 -0.2601  0.5228
  939MOL0     C29483   0.728  11.981   7.178 -0.1618  0.0522  0.4160
  939MOL0     C29484   0.600  12.017   7.256 -0.2070  0.7233  0.0770
  939MOL0     C29485   0.626  12.054   7.405  0.0091 -0.2575  0.2684
  939MOL0     C29486   0.692  11.946   7.498  0.5820  0.7978 -0.3806
  939MOL0     C29487   0.581  11.836   7.528 -0.0190 -0.4629  0.0818
  939MOL0     C29488   0.584  11.803   7.670  0.1371 -0.0294  0.5791
  939MOL0    Cl29489   0.526  11.949   7.756  0.1083  0.1736 -0.2483
  939MOL0     C29490   1.000  11.699   6.804  0.0833  0.0568 -0.2151
  939MOL0     C29491   1.075  11.650   6.691 -0.2361  0.2921  0.4311
  939MOL0     O29492   1.194  11.405   6.584  0.8551 -0.3211  1.0788
  939MOL0     C29493   1.348  11.327   6.373 -0.7259  0.8800  0.4252
  939MOL0     C29494   1.395  11.250   6.259 -0.0328  0.1034 -0.8664
  939MOL0     N29495   1.792  10.753   5.986 -0.6363  0.9224 -0.0896
  939MOL0     N29496   1.880  10.741   5.898  0.3499  0.1629 -0.2041
  939MOL0     C29497   2.590  10.482   5.001 -0.2297  0.0060  0.3616
  939MOL0     C29498   2.673  10.388   4.947 -0.5256  0.5143 -0.5337
  939MOL0     C29499   2.925  10.107   4.722  0.4143  0.0133  0.0333
  939MOL0     C29500   3.048  10.121   4.656 -0.4515 -0.4181 -0.3961
  939MOL0     C29501   3.100  10.030   4.565 -0.5480  0.5380  0.3248
  939MOL0     C29502   3.024   9.911   4.544  0.5150 -0.5348 -0.5024
  939MOL0     O29503   3.082   9.820   4.473 -1.0230 -0.1379  0.5179
  939MOL0     C29504   3.024   9.688   4.477 -0.9799  1.2669 -0.2723
  939MOL0     C29505   3.047   9.613   4.614  0.2744 -0.3363  0.8117
  939MOL0     C29506   3.194   9.564   4.648  0.3549 -0.2813 -0.5826
  939MOL0     C29507   3.215   9.413   4.626  0.2819  0.1367  0.6364
  939MOL0     C29508   3.341   9.360   4.676  0.0075  0.0185 -0.0596
  939MOL0     C29509   3.449   9.321   4.718 -0.2227 -0.1793  0.6684
  939MOL0     C29510   2.900   9.899   4.607  0.1439 -0.5977  0.3838
  939MOL0     C29511   2.854   9.996   4.699 -0.4964  0.2446  0.2539
  939MOL0     C29512   2.736   9.968   4.792  0.4267 -1.2225 -0.0306
  939MOL0     H29513   2.805  10.569   4.697  0.8841 -1.3687  0.1955
  939MOL0     H29514   2.644  10.747   4.800 -0.8721 -1.1064 -2.4692
  939MOL0     H29515   2.523  10.721   5.189 -0.8213  1.9913  0.0209
  939MOL0     H29516   2.422  10.587   5.165  1.4388 -0.8520 -1.5820
  939MOL0     H29517   2.350  10.873   5.101  1.9717 -1.4576 -1.2236
  939MOL0     H29518   2.238  10.740   5.081 -0.1835  1.9180 -0.5967
  939MOL0     H29519   2.354  10.817   5.361 -0.1265  4.7889 -0.1763
  939MOL0     H29520   2.188  10.874   5.301  0.8073  0.0208  2.1546
  939MOL0     H29521   2.087  10.672   5.286 -0.6133 -2.1760  0.0402
  939MOL0     H29522   2.229  10.572   5.307  1.6931  0.7852  0.4715
  939MOL0     H29523   2.096  10.775   5.492 -2.5067 -0.6742  0.2869
  939MOL0     H29524   2.238  10.688   5.562 -1.9247  0.2627  1.3459
  939MOL0     H29525   1.986  10.537   5.454 -0.1135 -1.6121  1.1122
  939MOL0     H29526   2.134  10.467   5.512  0.2391  1.3745 -1.9780
  939MOL0     H29527   2.090  10.568   5.738 -0.9959  0.5087  0.9944
  939MOL0     H29528   1.968  10.466   5.684 -3.0851  1.7282  2.2371
  939MOL0     H29529   1.920  10.769   5.624  0.1204 -0.3598  0.8226
  939MOL0     H29530   1.814  10.642   5.582 -2.8359  2.9811  0.3026
  939MOL0     H29531   1.628  10.620   5.738  1.4665 -3.2033  0.3016
  939MOL0     H29532   1.534  10.679   6.072  1.4448  0.1534 -0.2833
  939MOL0     H29533   1.463  10.691   5.909 -0.2117 -0.7724  0.2976
  939MOL0     H29534   1.557  10.925   6.083 -0.1436  2.3779 -0.2026
  939MOL0     H29535   1.553  10.941   5.905  1.8752 -1.3955 -0.0227
  939MOL0     H29536   1.315  10.869   5.905  0.3764  1.4020 -1.0177
  939MOL0     H29537   1.306  10.905   6.080  1.0101  3.5015  2.1244
  939MOL0     H29538   1.369  11.104   5.859 -1.0924 -0.2615 -0.1372
  939MOL0     H29539   1.228  11.101   5.950 -0.1500 -2.3137 -2.6753
  939MOL0     H29540   1.159  11.281   6.036 -2.7480 -1.1810  0.9011
  939MOL0     H29541   0.977  11.394   6.113  0.3207  0.3313 -0.8806
  939MOL0     H29542   1.030  11.553   6.172 -2.1504  1.0308  0.1468
  939MOL0     H29543   0.955  11.433   6.282 -0.2797 -0.8447 -0.5888
  939MOL0     H29544   0.815  11.569   6.489 -0.5904  1.1473 -0.6032
  939MOL0     H29545   0.680  11.647   6.675 -0.1510  1.0593 -2.3152
  939MOL0     H29546   0.883  11.748   7.066 -1.3287  1.6516  2.1857
  939MOL0     H29547   0.883  11.908   6.984  1.1591 -0.8120 -1.4364
  939MOL0     H29548   0.612  11.887   7.037  0.2998  1.0982  0.7034
  939MOL0     H29549   0.679  11.772   7.159 -0.2177  1.2613  2.7126
  939MOL0     H29550   0.759  12.071   7.125  1.3254  0.8786  2.5313
  939MOL0     H29551   0.803  11.963   7.255  0.7862  4.2348  0.7014
  939MOL0     H29552   0.526  11.937   7.261  2.9984 -2.4107  1.9144
  939MOL0     H29553   0.555  12.104   7.206  0.1082  1.1785  0.5718
  939MOL0     H29554   0.682  12.147   7.405 -0.4145  0.0052 -0.7598
  939MOL0     H29555   0.522  12.075   7.434 -1.4576  0.0080 -4.3885
  939MOL0     H29556   0.719  11.989   7.595 -1.0078  0.2648  0.3265
  939MOL0     H29557   0.781  11.894   7.462 -1.3974 -2.8757 -0.4011
  939MOL0     H29558   0.606  11.747   7.469 -0.3160 -0.5563  0.0925
  939MOL0     H29559   0.477  11.864   7.506  0.2079  3.7813  3.2072
  939MOL0     H29560   0.682  11.785   7.715  0.6725  4.9788  2.0301
  939MOL0     H29561   0.515  11.720   7.689 -0.4074  0.4724  0.8128
  939MOL0     H29562   1.043  11.740   6.895  1.0884 -0.3091 -0.5088
  939MOL0     H29563   1.182  11.641   6.707 -0.6648 -1.4361  3.0900
  939MOL0     H29564   1.421  11.348   6.451  0.7315 -0.3221 -0.5691
  939MOL0     H29565   1.490  11.200   6.274  0.2188  1.4422  3.9083
  939MOL0     H29566   2.516  10.442   5.071 -2.0558  1.6766 -0.5075
  939MOL0     H29567   2.692  10.290   4.991 -2.8966  0.5321  0.6812
  939MOL0     H29568   3.105  10.211   4.677 -3.3169  1.0062  2.0373
  939MOL0     H29569   3.200  10.053   4.527 -0.3090 -1.3990 -0.3644
  939MOL0     H29570   2.918   9.686   4.449 -0.5008  2.1825 -2.3617
  939MOL0     H29571   3.076   9.628   4.401  0.2485  0.0069  1.4756
  939MOL0     H29572   2.990   9.521   4.611 -0.7005  0.2806 -0.5986
  939MOL0     H29573   3.009   9.677   4.695  0.6381 -0.2716  0.9347
  939MOL0     H29574   3.273   9.612   4.589  2.3731 -0.3326  1.9043
  939MOL0     H29575   3.221   9.586   4.752 -2.2371 -0.0825  0.1135
  939MOL0     H29576   3.221   9.401   4.517  0.8202 -0.1419  0.6909
  939MOL0     H29577   3.133   9.358   4.672  0.6362 -2.4847 -1.6253
  939MOL0     H29578   3.544   9.312   4.766  0.7876  1.9639 -0.7483
  939MOL0     H29579   2.840   9.815   4.573 -3.1026  2.8213 -3.6427
  939MOL0     H29580   2.731   9.859   4.804 -1.7078 -1.2480 -0.7957
  939MOL0     H29581   2.741  10.011   4.892  1.0854 -0.7106 -0.2756
  939MOL0     H29582   2.644  10.000   4.744  2.0241 -0.5807 -2.9236
  940MOL0     O29583   0.213   4.471   0.536  0.6615 -0.0976 -0.2996
  940MOL0     C29584   0.187   4.593   0.556 -0.0282  0.7484 -0.4015
  940MOL0     O29585   0.243   4.701   0.494 -0.2426 -0.6731  0.3477
  940MOL0     C29586   0.319   4.699   0.382  0.8411 -0.3770  0.6662
  940MOL0     C29587   0.330   4.815   0.304 -1.0578  0.9245  0.0733
  940MOL0     C29588   0.414   4.815   0.190  0.3448 -0.6359 -0.8481
  940MOL0     C29589   0.488   4.702   0.146  0.1933 -0.0152 -0.0693
  940MOL0     O29590   0.542   4.704   0.020  0.3899  0.3448  0.9146
  940MOL0     C29591   0.584   4.571  -0.029 -0.1641 -0.0507 -0.5653
  940MOL0     C29592   0.627   4.566  -0.180  0.0455 -0.2802 -0.7839
  940MOL0     C29593   0.713   4.455  -0.222  0.6182 -0.4296 -0.4904
  940MOL0     C29594   0.705   4.447  -0.374  0.8273  0.8522  0.8912
  940MOL0     C29595   0.631   4.323  -0.436  0.6005 -0.3861  0.0340
  940MOL0     C29596   0.699   4.187  -0.405 -1.4465  0.3860 -1.1507
  940MOL0     C29597   0.611   4.074  -0.407  0.3712  0.5136 -0.4946
  940MOL0     C29598   0.680   3.935  -0.400  0.0606 -0.4408 -0.3591
  940MOL0     N29599   0.598   3.826  -0.445 -0.1108  0.3080  0.6441
  940MOL0     C29600   0.458   3.821  -0.414  0.4224  0.5239  0.2689
  940MOL0     C29601   0.395   3.752  -0.511 -1.5047  0.9267 -0.5108
  940MOL0     C29602   0.252   3.737  -0.550 -0.3754  0.1494 -0.1385
  940MOL0     C29603   0.166   3.869  -0.540 -1.2597  0.8235 -0.6668
  940MOL0     C29604   0.024   3.850  -0.589  0.0186  0.9283 -0.1385
  940MOL0     C29605  -0.081   3.822  -0.476 -0.2489  0.1745  0.1207
  940MOL0     O29606  -0.118   3.928  -0.396  0.9950 -0.0648  0.1296
  940MOL0     C29607  -0.161   4.050  -0.442 -0.5827 -0.9577  0.6147
  940MOL0     C29608  -0.220   4.066  -0.564  0.7467  0.8923 -0.3810
  940MOL0     C29609  -0.242   4.186  -0.629 -1.1504 -0.3820 -0.5798
  940MOL0     C29610  -0.306   4.175  -0.765  0.0672 -0.8971 -0.6800
  940MOL0     C29611  -0.190   4.306  -0.565 -0.1478  0.0811  0.1206
  940MOL0     C29612  -0.196   4.437  -0.622 -0.1501  0.0202  0.6232
  940MOL0     O29613  -0.180   4.536  -0.535  0.6301 -0.3502 -0.0437
  940MOL0     C29614  -0.232   4.651  -0.576 -0.1398  0.6759 -0.0244
  940MOL0     C29615  -0.147   4.764  -0.560 -0.1976  0.4233 -0.3511
  940MOL0     C29616  -0.196   4.894  -0.571  0.2311  0.2800 -0.8977
  940MOL0     C29617  -0.336   4.917  -0.610 -0.3451  0.0533 -0.5034
  940MOL0     O29618  -0.385   5.043  -0.607 -0.7977  0.2705 -0.4560
  940MOL0     C29619  -0.527   5.070  -0.581 -0.6915 -0.4419  0.0428
  940MOL0     C29620  -0.553   5.136  -0.443  0.1104 -1.2416 -0.1839
  940MOL0     C29621  -0.463   5.074  -0.339 -0.2123 -0.1655 -0.4550
  940MOL0     C29622  -0.488   5.123  -0.195 -1.0485  0.3665 -0.7486
  940MOL0     C29623  -0.381   5.087  -0.096 -0.1864 -0.1989 -0.2203
  940MOL0     C29624  -0.364   4.939  -0.064  0.4649  0.9459  0.2166
  940MOL0     C29625  -0.276   4.913   0.061  0.4739 -0.7244  0.1540
  940MOL0     C29626  -0.328   4.963   0.202 -0.0470  0.0495 -0.0251
  940MOL0    Cl29627  -0.506   4.910   0.222 -0.1218 -0.5931 -0.1569
  940MOL0     C29628  -0.410   4.802  -0.643 -1.4431 -0.0589  1.5599
  940MOL0     C29629  -0.360   4.670  -0.630 -0.1817 -0.0468  1.0385
  940MOL0     O29630  -0.192   4.444  -0.749  0.3242  0.5271  0.0241
  940MOL0     C29631  -0.133   4.289  -0.438  0.0012  0.7202  0.3632
  940MOL0     C29632  -0.118   4.163  -0.371 -0.3387  0.1456  0.4889
  940MOL0     N29633   0.501   3.686  -0.577 -0.1871  0.9510  0.6528
  940MOL0     N29634   0.617   3.723  -0.539 -0.1184 -0.6809 -0.3243
  940MOL0     C29635   0.487   4.602   0.240  0.3507  0.7338  0.3283
  940MOL0     C29636   0.408   4.599   0.348  0.7398  0.6842 -0.3134
  940MOL0     C29637   0.096   4.620   0.666  0.0971  0.6949  0.2485
  940MOL0     C29638   0.129   4.740   0.741  0.0413  0.3904  0.6873
  940MOL0     C29639   0.069   4.763   0.867  0.1514  0.0587  0.0496
  940MOL0     C29640  -0.037   4.681   0.910  0.0882  0.4753 -0.0210
  940MOL0     O29641  -0.109   4.703   1.023  0.2381  0.1600 -1.1441
  940MOL0     C29642  -0.171   4.829   1.074 -0.4922 -0.4733 -0.0568
  940MOL0     C29643  -0.246   4.819   1.205 -0.4583 -1.0316 -1.0908
  940MOL0     C29644  -0.239   4.961   1.275 -0.0081  0.5288  1.0632
  940MOL0     C29645  -0.339   4.970   1.390 -0.9746  0.3771  0.2693
  940MOL0     C29646  -0.347   5.103   1.438  0.0117  0.1550  0.4578
  940MOL0     C29647  -0.354   5.206   1.491  0.3573 -0.3232  0.1763
  940MOL0     C29648  -0.071   4.574   0.833 -0.9607  0.2437 -0.7218
  940MOL0     C29649   0.000   4.531   0.718 -0.1956 -0.4840 -0.9959
  940MOL0     C29650  -0.054   4.408   0.638 -0.7049  0.0709 -0.3811
  940MOL0     H29651   0.277   4.907   0.330  1.0660  2.6302 -1.3017
  940MOL0     H29652   0.415   4.909   0.136 -2.7240 -0.8214 -1.4002
  940MOL0     H29653   0.508   4.493  -0.020  2.8134 -3.1263  0.0107
  940MOL0     H29654   0.673   4.543   0.028 -0.0057 -0.9998 -1.2447
  940MOL0     H29655   0.524   4.554  -0.213 -0.1907  2.2096 -1.1611
  940MOL0     H29656   0.683   4.658  -0.202  0.0672  0.2551  1.2376
  940MOL0     H29657   0.813   4.470  -0.181  0.4394  2.2887 -0.8790
  940MOL0     H29658   0.664   4.366  -0.179 -2.6667  1.2686 -0.3669
  940MOL0     H29659   0.652   4.529  -0.422  1.1014 -0.7742 -2.4465
  940MOL0     H29660   0.810   4.457  -0.402  1.5113 -1.1669  2.5295
  940MOL0     H29661   0.612   4.330  -0.543 -3.3324  0.2258  0.6054
  940MOL0     H29662   0.525   4.321  -0.409  0.4588 -0.7901 -0.5474
  940MOL0     H29663   0.787   4.161  -0.465 -0.0492  2.1567 -0.0013
  940MOL0     H29664   0.734   4.194  -0.301 -1.8938  1.3890 -1.0553
  940MOL0     H29665   0.553   4.072  -0.500 -0.4641 -3.6607 -0.0620
  940MOL0     H29666   0.547   4.082  -0.319  0.4626  0.0432 -0.3896
  940MOL0     H29667   0.770   3.929  -0.463 -0.6739  1.1128 -1.6144
  940MOL0     H29668   0.704   3.903  -0.298 -2.2720 -1.7576 -0.1573
  940MOL0     H29669   0.407   3.874  -0.335  3.7232  1.9010  1.6642
  940MOL0     H29670   0.209   3.664  -0.481  0.5643  2.1203  2.7134
  940MOL0     H29671   0.240   3.707  -0.654  0.5622  0.5865 -0.3851
  940MOL0     H29672   0.164   3.906  -0.437 -2.8692  0.4956 -0.5552
  940MOL0     H29673   0.209   3.945  -0.606 -1.5667 -1.1843 -3.3094
  940MOL0     H29674  -0.006   3.952  -0.614 -0.9457  0.9592  1.0386
  940MOL0     H29675   0.025   3.780  -0.672 -2.1182  1.3317 -0.5549
  940MOL0     H29676  -0.167   3.793  -0.536 -0.7514  2.0367 -0.1062
  940MOL0     H29677  -0.057   3.739  -0.408  2.4956  1.0161  0.3036
  940MOL0     H29678  -0.254   3.974  -0.611 -0.4440  0.2741  1.5801
  940MOL0     H29679  -0.230   4.131  -0.829  0.2279 -1.6386  0.0021
  940MOL0     H29680  -0.348   4.265  -0.811 -3.1207 -1.6027  0.5311
  940MOL0     H29681  -0.390   4.106  -0.759 -0.3692 -0.4724 -1.7561
  940MOL0     H29682  -0.043   4.761  -0.528 -0.0754 -1.6629 -0.7973
  940MOL0     H29683  -0.147   4.991  -0.567 -1.1610  1.1506 -2.8413
  940MOL0     H29684  -0.569   5.145  -0.649 -2.5636  0.3803  1.9694
  940MOL0     H29685  -0.598   4.987  -0.592 -0.5492 -0.3164 -2.4917
  940MOL0     H29686  -0.552   5.246  -0.442  0.0503 -1.2295  1.4229
  940MOL0     H29687  -0.659   5.125  -0.417  0.5324 -0.2198  2.2302
  940MOL0     H29688  -0.359   5.106  -0.354  0.2283 -0.4049  1.8236
  940MOL0     H29689  -0.457   4.964  -0.341  3.6361 -0.1224 -0.1480
  940MOL0     H29690  -0.580   5.086  -0.149  0.9190  1.5621  4.8066
  940MOL0     H29691  -0.514   5.229  -0.202 -2.3416  0.1326  0.1304
  940MOL0     H29692  -0.287   5.128  -0.135  0.6366  1.8974  3.5076
  940MOL0     H29693  -0.404   5.143  -0.005 -1.9932 -2.9740  1.1695
  940MOL0     H29694  -0.330   4.887  -0.154 -2.4778  0.6296 -0.8458
  940MOL0     H29695  -0.462   4.891  -0.053 -0.5023  2.3731 -1.6696
  940MOL0     H29696  -0.176   4.953   0.043  0.9537 -1.5938  0.8192
  940MOL0     H29697  -0.263   4.805   0.069 -0.7099 -1.0209 -1.3902
  940MOL0     H29698  -0.310   5.070   0.213  0.0299 -0.0593  1.0007
  940MOL0     H29699  -0.263   4.915   0.276  1.3391  1.4673 -0.2782
  940MOL0     H29700  -0.512   4.811  -0.679 -0.6082  2.2199 -0.5049
  940MOL0     H29701  -0.434   4.591  -0.644 -1.9584  1.5466  0.9672
  940MOL0     H29702  -0.104   4.376  -0.379  0.2956 -0.8320  2.6794
  940MOL0     H29703  -0.048   4.153  -0.289  0.8204 -2.6782 -0.6967
  940MOL0     H29704   0.545   4.512   0.222 -0.7650 -0.5244  2.5065
  940MOL0     H29705   0.417   4.514   0.415 -2.6170 -0.5116 -1.1673
  940MOL0     H29706   0.202   4.813   0.706 -3.3143  2.0577 -3.6655
  940MOL0     H29707   0.101   4.845   0.930 -0.1260  0.2619 -0.0713
  940MOL0     H29708  -0.090   4.903   1.076 -0.3969 -0.2833 -3.8122
  940MOL0     H29709  -0.241   4.869   1.001 -1.6304  0.8492  1.6874
  940MOL0     H29710  -0.200   4.748   1.274 -1.3129  0.8171  1.5326
  940MOL0     H29711  -0.350   4.794   1.188 -0.3820 -2.0260 -0.1828
  940MOL0     H29712  -0.135   4.973   1.306  0.3543  1.5510 -0.4392
  940MOL0     H29713  -0.264   5.044   1.210 -2.0870 -1.5986 -1.0594
  940MOL0     H29714  -0.305   4.918   1.480  0.2477  0.7587  0.0392
  940MOL0     H29715  -0.441   4.941   1.364 -1.7192  1.5330  1.7410
  940MOL0     H29716  -0.371   5.306   1.524 -0.9361 -0.4694  0.0290
  940MOL0     H29717  -0.137   4.500   0.879  0.9389 -2.3322 -1.9034
  940MOL0     H29718  -0.159   4.396   0.664 -1.2560  2.2495 -1.3536
  940MOL0     H29719  -0.057   4.415   0.529 -3.0983 -0.9642 -0.4303
  940MOL0     H29720   0.007   4.322   0.668  1.4506  1.8067  0.5317
  941MOL0     O29721   7.284   7.170  11.504  0.3638 -0.5542  0.7489
  941MOL0     C29722   7.276   7.095  11.597 -0.4319  0.2087 -0.7411
  941MOL0     O29723   7.386   7.035  11.669  0.2008 -0.0352 -0.3789
  941MOL0     C29724   7.507   7.047  11.603  0.3942 -0.0996 -0.1932
  941MOL0     C29725   7.542   6.954  11.502 -1.0118  0.1210  0.8651
  941MOL0     C29726   7.670   6.975  11.458  0.0712  0.4738  0.4446
  941MOL0     C29727   7.763   7.068  11.494  0.4386 -0.4146 -1.1512
  941MOL0     O29728   7.888   7.089  11.443  0.6677  0.8933 -0.2179
  941MOL0     C29729   7.883   7.078  11.300 -1.0332 -0.9677  0.0978
  941MOL0     C29730   8.013   7.126  11.247  0.3451 -0.0917  0.0433
  941MOL0     C29731   8.126   7.011  11.260  0.2165  0.2914 -0.2422
  941MOL0     C29732   8.251   7.065  11.187  0.7771  0.8938 -0.8903
  941MOL0     C29733   8.387   6.995  11.234  0.3518  0.8752 -0.0724
  941MOL0     C29734   8.496   6.986  11.128 -0.1443 -0.2668 -1.0536
  941MOL0     C29735   8.560   7.123  11.107 -0.3992 -0.1276  0.9156
  941MOL0     C29736   8.661   7.177  11.220  0.6040 -0.4006  0.2132
  941MOL0     N29737   8.703   7.311  11.166 -0.4043 -0.0106 -0.2614
  941MOL0     C29738   8.627   7.424  11.125 -0.4744  0.0168  0.0053
  941MOL0     C29739   8.707   7.527  11.142 -0.6993  0.5769  0.4758
  941MOL0     C29740   8.673   7.668  11.105  0.0715 -0.3611 -0.1020
  941MOL0     C29741   8.641   7.745  11.239  0.6566  0.9225  0.4087
  941MOL0     C29742   8.611   7.897  11.216 -0.7458  0.2637  0.4615
  941MOL0     C29743   8.543   7.968  11.338  0.7114 -0.9299 -0.0577
  941MOL0     O29744   8.631   7.977  11.449  0.5316 -0.1985 -0.4564
  941MOL0     C29745   8.558   7.952  11.563  0.1603  0.1936  0.0605
  941MOL0     C29746   8.560   7.823  11.626  0.3943  0.1055 -0.5347
  941MOL0     C29747   8.494   7.790  11.746  0.4215 -0.1315  0.2821
  941MOL0     C29748   8.513   7.655  11.804  0.2572 -0.4947 -0.0098
  941MOL0     C29749   8.402   7.891  11.802  0.7957 -0.1720  0.2287
  941MOL0     C29750   8.307   7.862  11.921  0.2537  0.2540 -0.2004
  941MOL0     O29751   8.190   7.931  11.932 -0.3424 -0.3981  0.7178
  941MOL0     C29752   8.090   7.884  12.011 -1.6412 -0.5337  0.1554
  941MOL0     C29753   8.031   7.970  12.111  0.1739  0.0940  0.0563
  941MOL0     C29754   7.921   7.935  12.176 -0.2545  0.0587  0.4009
  941MOL0     C29755   7.862   7.813  12.165  0.9406  0.4516 -0.4404
  941MOL0     O29756   7.740   7.798  12.229 -0.0779  1.2726  0.8593
  941MOL0     C29757   7.689   7.668  12.239 -0.0234 -0.4628  0.0011
  941MOL0     C29758   7.575   7.669  12.340  0.0830  0.3175 -0.0840
  941MOL0     C29759   7.585   7.779  12.448 -0.4215 -0.3737 -1.0241
  941MOL0     C29760   7.505   7.753  12.572  0.3541 -0.6741 -0.1191
  941MOL0     C29761   7.353   7.770  12.541  0.4026  0.1849 -0.3845
  941MOL0     C29762   7.267   7.642  12.521  0.8045  0.2072  0.2614
  941MOL0     C29763   7.124   7.670  12.499 -0.2803 -0.4208  0.7813
  941MOL0     C29764   7.049   7.721  12.620  0.5745 -0.1259  0.5028
  941MOL0    Cl29765   7.067   7.587  12.753 -0.3021  0.2197  0.1344
  941MOL0     C29766   7.922   7.713  12.070  0.1214 -0.3560  0.1888
  941MOL0     C29767   8.033   7.752  12.003 -0.0071 -0.1420  0.4473
  941MOL0     O29768   8.345   7.763  11.990 -0.0609  0.2137 -0.3265
  941MOL0     C29769   8.395   8.013  11.739  0.5163  0.2337 -0.0327
  941MOL0     C29770   8.471   8.050  11.625 -0.2304  0.2329 -0.3856
  941MOL0     N29771   8.828   7.487  11.199  0.5628  0.4363  0.2953
  941MOL0     N29772   8.826   7.355  11.201 -0.6116 -0.3266 -0.4750
  941MOL0     C29773   7.719   7.151  11.594 -0.0836 -1.2683  0.8111
  941MOL0     C29774   7.593   7.147  11.650  0.4579 -0.2681 -1.1006
  941MOL0     C29775   7.150   7.042  11.638  0.7995 -0.3140  0.8260
  941MOL0     C29776   7.145   6.947  11.736 -0.5616  0.3053 -0.9132
  941MOL0     C29777   7.023   6.890  11.775 -0.2289 -0.0746  0.9125
  941MOL0     C29778   6.901   6.928  11.718 -0.7802 -0.2697 -0.5381
  941MOL0     O29779   6.789   6.854  11.751 -0.4217  0.3640 -1.0379
  941MOL0     C29780   6.661   6.928  11.779  0.4997  0.5711 -0.1554
  941MOL0     C29781   6.567   6.829  11.853  0.9180 -0.0181 -0.5904
  941MOL0     C29782   6.422   6.878  11.884  0.1707  0.3922  0.0751
  941MOL0     C29783   6.384   6.999  11.794  0.4417  0.3987  0.6813
  941MOL0     C29784   6.250   7.044  11.826 -0.3921 -0.3797 -0.9537
  941MOL0     C29785   6.141   7.076  11.871 -0.1793  0.3129  0.2762
  941MOL0     C29786   6.903   7.037  11.629  0.9369 -0.8895 -0.2740
  941MOL0     C29787   7.021   7.096  11.588  0.0791  1.3315 -0.6039
  941MOL0     C29788   6.997   7.201  11.490  0.3042  0.2124 -0.8339
  941MOL0     H29789   7.489   6.864  11.472  1.0480 -0.8304 -0.1352
  941MOL0     H29790   7.707   6.903  11.386  0.0909  1.3081 -0.4089
  941MOL0     H29791   7.805   7.138  11.254  1.6124  2.0868 -0.7970
  941MOL0     H29792   7.861   6.975  11.272 -1.0918 -0.4817 -1.7613
  941MOL0     H29793   8.003   7.131  11.138  1.3650 -1.2036 -0.1167
  941MOL0     H29794   8.044   7.227  11.277  1.4511 -0.1550 -0.8343
  941MOL0     H29795   8.145   6.990  11.365  2.2522  0.6750 -0.4880
  941MOL0     H29796   8.099   6.917  11.211 -0.9329  0.0773  0.7705
  941MOL0     H29797   8.254   7.064  11.078  1.1285 -0.0546 -0.8883
  941MOL0     H29798   8.260   7.169  11.219  0.0278  0.1589  2.0275
  941MOL0     H29799   8.355   6.892  11.256 -1.7507  1.3659 -0.5551
  941MOL0     H29800   8.426   7.031  11.329  0.7053  0.5091 -0.0752
  941MOL0     H29801   8.577   6.919  11.157  1.9176  2.0418 -1.1224
  941MOL0     H29802   8.462   6.941  11.034 -0.0237 -1.4349 -0.5591
  941MOL0     H29803   8.486   7.203  11.095  0.0167 -0.0125 -1.3694
  941MOL0     H29804   8.611   7.125  11.010  1.3794  1.9650  1.8220
  941MOL0     H29805   8.608   7.176  11.316 -1.0880 -1.4455 -0.7024
  941MOL0     H29806   8.752   7.118  11.236 -0.6106 -2.2039  0.6879
  941MOL0     H29807   8.522   7.424  11.097 -0.8473  3.6729  0.7822
  941MOL0     H29808   8.589   7.676  11.036  2.2317  0.3878 -2.8198
  941MOL0     H29809   8.762   7.715  11.061  0.4738 -1.7189 -0.8031
  941MOL0     H29810   8.552   7.705  11.289 -0.7121  1.0601 -1.7923
  941MOL0     H29811   8.722   7.730  11.312 -0.9539 -3.5231  1.6122
  941MOL0     H29812   8.706   7.947  11.195  0.1841 -1.5954  0.1062
  941MOL0     H29813   8.557   7.909  11.121  0.2427 -3.5148 -0.7547
  941MOL0     H29814   8.508   8.067  11.308  0.9663 -1.4948 -2.3660
  941MOL0     H29815   8.448   7.921  11.365  0.9826 -1.3583  0.1676
  941MOL0     H29816   8.623   7.749  11.579  0.5444 -1.0129  1.3378
  941MOL0     H29817   8.564   7.583  11.738  2.3961  0.2644  0.7296
  941MOL0     H29818   8.417   7.608  11.828  0.2065 -0.4198 -0.0660
  941MOL0     H29819   8.575   7.657  11.894  1.4793 -3.1082 -0.6674
  941MOL0     H29820   8.072   8.070  12.119  0.7382 -0.0074 -1.2300
  941MOL0     H29821   7.868   8.002  12.243  0.3167 -0.9638  1.9375
  941MOL0     H29822   7.661   7.627  12.142  3.9376 -1.8642 -0.7183
  941MOL0     H29823   7.765   7.599  12.276  2.2237  2.0264  0.3685
  941MOL0     H29824   7.482   7.688  12.286  0.5099 -0.3546 -1.0753
  941MOL0     H29825   7.568   7.570  12.386 -1.6633 -0.9472 -2.8154
  941MOL0     H29826   7.570   7.878  12.405  0.9684  0.7187  0.8405
  941MOL0     H29827   7.687   7.791  12.486 -1.6820  0.0333  2.6658
  941MOL0     H29828   7.523   7.825  12.652  1.3362 -0.1863 -0.7547
  941MOL0     H29829   7.524   7.648  12.594 -1.4680 -1.7720 -3.1126
  941MOL0     H29830   7.314   7.824  12.628 -0.3637  2.7380 -2.2101
  941MOL0     H29831   7.341   7.833  12.453 -0.5311  1.4542  0.6044
  941MOL0     H29832   7.279   7.568  12.601 -1.6722  1.2885  1.7758
  941MOL0     H29833   7.295   7.604  12.423  0.1068  1.4994 -0.4710
  941MOL0     H29834   7.094   7.578  12.448 -0.8434  1.8521 -3.5530
  941MOL0     H29835   7.125   7.753  12.427  5.5869 -0.5740  0.1998
  941MOL0     H29836   6.949   7.722  12.574 -0.0352  0.5221  1.8124
  941MOL0     H29837   7.091   7.817  12.652  1.9214 -0.1538 -1.0622
  941MOL0     H29838   7.871   7.618  12.064 -2.4079  0.9353 -0.2489
  941MOL0     H29839   8.070   7.687  11.924  0.9640  0.9482 -0.0342
  941MOL0     H29840   8.324   8.088  11.773  0.2305  0.6947 -1.5849
  941MOL0     H29841   8.470   8.149  11.580  2.1016  0.0776 -0.9557
  941MOL0     H29842   7.794   7.218  11.635 -0.0055  0.0605 -1.3563
  941MOL0     H29843   7.580   7.209  11.738  0.7487 -0.5360 -0.8663
  941MOL0     H29844   7.230   6.894  11.779 -1.6689  0.4330  1.6581
  941MOL0     H29845   7.006   6.813  11.849 -2.5870 -1.0432 -0.5386
  941MOL0     H29846   6.670   7.022  11.834  0.4332 -0.8868  2.5395
  941MOL0     H29847   6.615   6.956  11.684  1.9128 -1.1349 -1.4123
  941MOL0     H29848   6.609   6.808  11.952 -0.3787 -2.6214 -0.5241
  941MOL0     H29849   6.555   6.737  11.796 -2.1728  1.0675 -1.9197
  941MOL0     H29850   6.352   6.795  11.871  1.3589 -0.2877 -2.7213
  941MOL0     H29851   6.418   6.924  11.983 -2.6765  4.4251 -1.6600
  941MOL0     H29852   6.399   6.967  11.690  1.1045 -3.1068  1.7069
  941MOL0     H29853   6.449   7.086  11.805  1.4638 -0.1106 -0.8911
  941MOL0     H29854   6.041   7.089  11.907  0.2921  2.8059  0.9119
  941MOL0     H29855   6.818   7.077  11.575 -0.6322 -0.1686  2.5416
  941MOL0     H29856   6.903   7.196  11.433  1.0371 -1.0587 -1.9840
  941MOL0     H29857   7.017   7.297  11.538  1.9788 -0.0806 -0.8877
  941MOL0     H29858   7.065   7.181  11.406 -2.4631 -0.1820 -3.1510
  942MOL0     O29859  11.016   2.568   5.996  0.4425  0.5011  0.3678
  942MOL0     C29860  11.092   2.620   5.908 -0.3927 -0.1795  0.3847
  942MOL0     O29861  11.149   2.740   5.924 -0.3120 -0.5785  0.1335
  942MOL0     C29862  11.095   2.830   6.011 -0.0444 -0.4433 -0.8326
  942MOL0     C29863  10.951   2.854   6.026 -0.3102  0.0656 -0.2946
  942MOL0     C29864  10.902   2.948   6.121  0.1544  1.4261 -0.6502
  942MOL0     C29865  10.991   3.032   6.177 -0.6131 -0.5528 -0.2718
  942MOL0     O29866  10.937   3.136   6.251 -0.1841  0.4113  0.2395
  942MOL0     C29867  10.842   3.118   6.359  0.6261 -0.5046 -0.2751
  942MOL0     C29868  10.836   3.220   6.481 -0.2237 -0.5540  0.2883
  942MOL0     C29869  10.981   3.247   6.535  0.7891 -1.0610  0.7449
  942MOL0     C29870  10.984   3.285   6.688  0.1989  0.5347 -0.2940
  942MOL0     C29871  11.123   3.339   6.733  0.1775  0.4597 -0.9219
  942MOL0     C29872  11.217   3.227   6.716 -0.8732  0.4580  0.4949
  942MOL0     C29873  11.350   3.267   6.762 -0.9468 -0.1271 -0.1408
  942MOL0     C29874  11.374   3.284   6.917  0.6047 -0.5552  0.2880
  942MOL0     N29875  11.517   3.277   6.954 -1.2668  0.3300 -0.3666
  942MOL0     C29876  11.597   3.161   6.942  0.1237 -0.1850 -0.5586
  942MOL0     C29877  11.721   3.203   6.957  0.6027  0.2572 -1.2592
  942MOL0     C29878  11.851   3.138   6.946 -0.5513  0.5062 -0.3973
  942MOL0     C29879  11.871   3.050   7.068 -0.6603 -1.1285  0.2698
  942MOL0     C29880  11.989   2.953   7.044 -0.6393 -0.0650  0.4126
  942MOL0     C29881  11.967   2.815   7.110 -0.0765 -0.0295 -0.2078
  942MOL0     O29882  11.902   2.729   7.016  0.2553 -0.0305 -0.7363
  942MOL0     C29883  11.766   2.747   6.992 -1.2118  0.3405  0.5786
  942MOL0     C29884  11.737   2.777   6.858  0.6289  1.0109 -0.3253
  942MOL0     C29885  11.603   2.808   6.828  0.8521 -0.8115 -1.2072
  942MOL0     C29886  11.569   2.848   6.688  0.6129 -0.5358 -0.1095
  942MOL0     C29887  11.500   2.804   6.935 -0.6797  0.1331 -0.5435
  942MOL0     C29888  11.361   2.838   6.916  0.7310 -0.1150  0.0788
  942MOL0     O29889  11.281   2.869   7.028  0.5765  0.2834  0.7026
  942MOL0     C29890  11.144   2.888   7.000  0.1269 -0.0460  0.0860
  942MOL0     C29891  11.080   2.997   7.056  0.3012  0.6504 -0.5524
  942MOL0     C29892  10.949   3.027   7.045  0.6307 -0.3448 -0.8609
  942MOL0     C29893  10.860   2.940   6.985  0.1257 -0.3396 -0.5919
  942MOL0     O29894  10.725   2.947   7.011  0.3428  0.4444 -0.0064
  942MOL0     C29895  10.656   3.040   6.922 -0.6841 -0.7502  0.2671
  942MOL0     C29896  10.534   3.101   6.988 -0.6297  0.0588 -0.2877
  942MOL0     C29897  10.429   2.999   7.044 -0.0604  0.1178  0.4674
  942MOL0     C29898  10.323   3.084   7.126  0.6084 -0.0220 -0.0681
  942MOL0     C29899  10.202   3.009   7.189  0.4078  0.5231 -0.2731
  942MOL0     C29900  10.254   2.933   7.305 -0.2129  0.0156 -1.0763
  942MOL0     C29901  10.149   2.845   7.364 -0.1592 -1.0055  0.3694
  942MOL0     C29902  10.204   2.747   7.463  0.7343  0.3773  0.9044
  942MOL0    Cl29903  10.081   2.615   7.530 -0.3717 -0.3984  0.0985
  942MOL0     C29904  10.914   2.827   6.931 -0.1042  0.2559  0.2175
  942MOL0     C29905  11.055   2.790   6.943  0.2408 -0.4194 -0.3531
  942MOL0     O29906  11.323   2.827   6.803  0.1955 -0.0024  0.4102
  942MOL0     C29907  11.541   2.765   7.060 -0.6122  0.0123 -0.9731
  942MOL0     C29908  11.678   2.735   7.088  0.1217  0.4458 -0.7717
  942MOL0     N29909  11.711   3.344   6.995 -0.3826 -0.0206  0.2245
  942MOL0     N29910  11.592   3.384   6.992  0.1540 -0.3456 -0.0708
  942MOL0     C29911  11.125   3.025   6.144 -0.0884  0.0761  0.1641
  942MOL0     C29912  11.178   2.930   6.065 -0.0496  0.4634  0.9453
  942MOL0     C29913  11.147   2.539   5.796 -0.2004 -0.4041 -1.2631
  942MOL0     C29914  11.214   2.615   5.690  0.0840  0.0793 -0.9953
  942MOL0     C29915  11.251   2.559   5.572  0.5371  0.4657  0.1476
  942MOL0     C29916  11.232   2.421   5.554 -1.0751  0.1337 -0.0757
  942MOL0     O29917  11.292   2.372   5.444  0.6324 -0.0339  0.3912
  942MOL0     C29918  11.307   2.233   5.424  0.0851  0.2515 -0.0792
  942MOL0     C29919  11.365   2.204   5.288  0.0342 -0.0548 -0.2248
  942MOL0     C29920  11.250   2.215   5.181  0.4009 -0.0127  0.2869
  942MOL0     C29921  11.316   2.233   5.049 -0.0113 -0.3403 -0.4799
  942MOL0     C29922  11.208   2.252   4.950 -0.6553  0.6474 -0.2831
  942MOL0     C29923  11.108   2.252   4.884 -0.0104  0.8522 -0.0324
  942MOL0     C29924  11.171   2.343   5.650  0.0047  0.6488  0.7015
  942MOL0     C29925  11.126   2.398   5.773 -0.1219 -0.3136  0.2064
  942MOL0     C29926  11.061   2.304   5.867  0.1011 -0.1430 -0.3539
  942MOL0     H29927  10.875   2.807   5.963 -0.5404  0.4748 -0.3300
  942MOL0     H29928  10.794   2.954   6.136 -0.1476  0.0103 -1.9827
  942MOL0     H29929  10.865   3.017   6.396 -3.8211 -2.2026 -1.4701
  942MOL0     H29930  10.743   3.093   6.321  0.4033 -0.1845  0.0837
  942MOL0     H29931  10.801   3.320   6.452  1.0164  1.0155  3.6122
  942MOL0     H29932  10.764   3.185   6.555  0.8202  1.0347  2.1693
  942MOL0     H29933  11.032   3.151   6.523 -0.5020 -1.5994 -0.8454
  942MOL0     H29934  11.026   3.328   6.477 -1.6626  0.0012  0.1780
  942MOL0     H29935  10.901   3.353   6.712  0.1366 -0.2400  1.8956
  942MOL0     H29936  10.964   3.198   6.750  0.3760  1.6038  1.3310
  942MOL0     H29937  11.099   3.371   6.835  0.3476 -0.3434 -0.6228
  942MOL0     H29938  11.155   3.426   6.676  0.2331  1.2857  0.3179
  942MOL0     H29939  11.189   3.132   6.764 -1.7512 -0.1455 -1.1289
  942MOL0     H29940  11.232   3.207   6.609 -0.3744 -2.0382  0.9664
  942MOL0     H29941  11.384   3.352   6.702 -1.5353 -1.8087 -3.0013
  942MOL0     H29942  11.416   3.188   6.724 -2.3637 -1.2404 -0.3492
  942MOL0     H29943  11.337   3.382   6.948 -0.5059 -0.2493 -1.8208
  942MOL0     H29944  11.323   3.206   6.975  0.6995  1.8904  4.0184
  942MOL0     H29945  11.553   3.065   6.916  0.8602 -0.5168 -0.6068
  942MOL0     H29946  11.929   3.214   6.942  0.3799 -0.4226 -0.3303
  942MOL0     H29947  11.841   3.075   6.857 -2.7495 -2.3673  1.7150
  942MOL0     H29948  11.897   3.111   7.155 -2.0615  1.1161 -0.8023
  942MOL0     H29949  11.778   3.000   7.095 -1.9257 -0.1856 -2.0357
  942MOL0     H29950  12.019   2.938   6.940  0.2864 -0.0871  0.6690
  942MOL0     H29951  12.074   2.997   7.099 -1.3114 -0.4179  1.7677
  942MOL0     H29952  12.066   2.780   7.139  0.3291  0.5768 -0.8274
  942MOL0     H29953  11.913   2.837   7.202  1.7891 -0.4947  1.0403
  942MOL0     H29954  11.805   2.775   6.773 -0.7483  0.2194 -1.4444
  942MOL0     H29955  11.658   2.859   6.625 -0.5994  2.1178 -1.5314
  942MOL0     H29956  11.510   2.940   6.686 -0.2963 -1.1088 -0.9319
  942MOL0     H29957  11.501   2.771   6.648  0.7779 -0.1285 -1.2009
  942MOL0     H29958  11.142   3.047   7.129 -0.8331  2.3303 -0.6652
  942MOL0     H29959  10.914   3.110   7.105 -3.1946 -1.6395 -0.9853
  942MOL0     H29960  10.715   3.125   6.886 -1.7411  0.0376  0.3405
  942MOL0     H29961  10.618   2.997   6.830 -1.9715  2.2346 -0.7137
  942MOL0     H29962  10.557   3.181   7.059 -0.1212 -1.3541  1.1889
  942MOL0     H29963  10.493   3.162   6.906  0.4481  0.4840 -0.5266
  942MOL0     H29964  10.480   2.934   7.116 -0.2433  0.7004  1.1289
  942MOL0     H29965  10.390   2.929   6.969 -2.1237 -0.1569  1.6958
  942MOL0     H29966  10.285   3.161   7.058 -0.5759 -1.4838 -1.1225
  942MOL0     H29967  10.379   3.143   7.199  1.2703  1.2269 -1.5440
  942MOL0     H29968  10.131   3.087   7.219 -0.2100  0.2363 -0.9445
  942MOL0     H29969  10.156   2.932   7.126  1.7024  1.5364 -2.5890
  942MOL0     H29970  10.292   2.994   7.387 -1.0529 -1.0809  0.1730
  942MOL0     H29971  10.339   2.871   7.275  0.4421 -0.7807  2.1526
  942MOL0     H29972  10.089   2.795   7.287 -2.6376 -1.3478  2.3948
  942MOL0     H29973  10.090   2.916   7.422 -1.3605 -1.8376  0.2037
  942MOL0     H29974  10.257   2.799   7.542  0.9207  1.9448 -0.2059
  942MOL0     H29975  10.289   2.696   7.417 -0.8076 -0.2503 -1.4702
  942MOL0     H29976  10.849   2.742   6.913 -1.4978  1.0724  1.2328
  942MOL0     H29977  11.093   2.692   6.915 -0.7618 -1.1386  0.6824
  942MOL0     H29978  11.475   2.755   7.145 -0.6093  4.1285 -0.2765
  942MOL0     H29979  11.711   2.688   7.180 -1.5376 -2.3279 -1.4973
  942MOL0     H29980  11.190   3.107   6.173  0.4067 -0.3805  0.3674
  942MOL0     H29981  11.284   2.928   6.042 -0.3981 -1.8870 -0.7701
  942MOL0     H29982  11.223   2.721   5.709 -0.0119  0.0844 -0.9811
  942MOL0     H29983  11.320   2.604   5.501  0.7391 -0.0999 -0.0205
  942MOL0     H29984  11.364   2.199   5.511  1.1425  0.6689 -0.5933
  942MOL0     H29985  11.211   2.181   5.429 -2.0736  3.7380 -1.7980
  942MOL0     H29986  11.398   2.100   5.289  0.6622  0.1106  2.5782
  942MOL0     H29987  11.452   2.267   5.270 -0.1029  0.9823  2.3300
  942MOL0     H29988  11.180   2.132   5.193 -2.5563  2.4210  1.1924
  942MOL0     H29989  11.183   2.301   5.193 -1.8904 -1.5964 -0.5479
  942MOL0     H29990  11.371   2.141   5.027  0.0258 -0.5985  0.6048
  942MOL0     H29991  11.397   2.306   5.049 -0.1171 -0.1715  1.3629
  942MOL0     H29992  11.023   2.260   4.818 -0.1061 -1.2142 -0.2254
  942MOL0     H29993  11.149   2.239   5.630  3.0361  0.0797 -0.0969
  942MOL0     H29994  10.974   2.258   5.819 -1.1139 -0.1329  1.7193
  942MOL0     H29995  11.139   2.230   5.889  0.3924  0.5343  0.9261
  942MOL0     H29996  11.031   2.353   5.959  2.1217  1.2137 -0.3363
  943MOL0     O29997   0.837   4.315   4.510 -0.2924  0.6069 -0.1351
  943MOL0     C29998   0.871   4.211   4.464  0.1511  0.3122 -0.1932
  943MOL0     O29999   0.993   4.178   4.423 -0.5988  0.7080  0.4384
  943MOL0     C30000   1.101   4.258   4.424 -0.5503  0.0233 -0.1492
  943MOL0     C30001   1.104   4.400   4.436 -0.0391  0.2712  0.6906
  943MOL0     C30002   1.226   4.469   4.416  0.8650  0.0882  0.8229
  943MOL0     C30003   1.344   4.405   4.388  0.8311 -0.3498  0.1418
  943MOL0     O30004   1.447   4.486   4.365  0.2494  0.6711  1.2286
  943MOL0     C30005   1.577   4.440   4.329 -0.8632  0.0773 -0.0102
  943MOL0     C30006   1.688   4.537   4.347 -1.3389 -0.5370 -0.5005
  943MOL0     C30007   1.701   4.590   4.498 -0.4279  0.1746 -0.3217
  943MOL0     C30008   1.821   4.678   4.527 -0.0490  0.1145  0.5123
  943MOL0     C30009   1.848   4.714   4.677  0.0001  0.2293 -0.4609
  943MOL0     C30010   1.767   4.837   4.733  0.5493  0.6987  0.8150
  943MOL0     C30011   1.792   4.854   4.880  0.3422  0.6349  0.5990
  943MOL0     C30012   1.688   4.968   4.931  0.6793  0.1449  1.4313
  943MOL0     N30013   1.555   4.943   4.953  0.4888  0.2831  1.0286
  943MOL0     C30014   1.507   4.909   5.079  0.2311 -0.2436 -0.7413
  943MOL0     C30015   1.374   4.922   5.065  0.0965  0.4980 -0.3800
  943MOL0     C30016   1.275   4.888   5.177 -0.1982  0.4086  0.7535
  943MOL0     C30017   1.144   4.947   5.154 -0.4272  0.4332 -0.9339
  943MOL0     C30018   1.052   4.928   5.287  0.1432  0.4173  0.5622
  943MOL0     C30019   0.987   4.794   5.289  0.3218 -0.5286  0.7038
  943MOL0     O30020   0.929   4.761   5.414 -0.2717 -0.6073 -0.1962
  943MOL0     C30021   0.883   4.634   5.429  0.8115  0.0781 -0.1677
  943MOL0     C30022   0.832   4.598   5.553  1.2910  0.6435 -0.2262
  943MOL0     C30023   0.763   4.476   5.585  0.3892  0.0011  0.5162
  943MOL0     C30024   0.696   4.470   5.726 -0.5758 -0.2105  0.4487
  943MOL0     C30025   0.739   4.378   5.484  0.0746 -0.2073 -0.1675
  943MOL0     C30026   0.692   4.240   5.514  0.7381  1.3960  0.8926
  943MOL0     O30027   0.731   4.190   5.637 -0.5807 -1.0551  0.5790
  943MOL0     C30028   0.726   4.054   5.646  0.3106 -0.6120 -0.3440
  943MOL0     C30029   0.757   3.955   5.551  0.3674  0.4002 -0.6600
  943MOL0     C30030   0.760   3.820   5.591 -1.0868 -0.7665 -0.0544
  943MOL0     C30031   0.750   3.785   5.725 -0.7266  0.5509 -0.0514
  943MOL0     O30032   0.777   3.655   5.758  0.0640  0.1748  0.4681
  943MOL0     C30033   0.743   3.601   5.885 -0.2526 -0.4546 -0.4228
  943MOL0     C30034   0.801   3.461   5.887  0.2366  0.3159 -0.1510
  943MOL0     C30035   0.951   3.451   5.876  0.4524  0.5281 -0.3991
  943MOL0     C30036   0.996   3.431   5.730  0.2338  0.0881  0.1628
  943MOL0     C30037   1.147   3.405   5.729  0.0527 -0.7868  0.5057
  943MOL0     C30038   1.184   3.321   5.615  0.4390  1.2208  1.0584
  943MOL0     C30039   1.338   3.293   5.618 -0.7492  0.2351 -0.2557
  943MOL0     C30040   1.381   3.214   5.486 -0.3372 -0.9100 -1.0613
  943MOL0    Cl30041   1.557   3.203   5.507  0.2871 -0.0171  0.1832
  943MOL0     C30042   0.705   3.879   5.812 -0.3091 -0.3124  0.1418
  943MOL0     C30043   0.692   4.010   5.774 -0.0893 -1.1416 -0.4702
  943MOL0     O30044   0.611   4.186   5.435 -0.1126 -0.1636 -0.1911
  943MOL0     C30045   0.794   4.412   5.360  0.3056  0.2980  0.7127
  943MOL0     C30046   0.867   4.533   5.323  0.8613  0.1856  1.5295
  943MOL0     N30047   1.334   4.952   4.940 -0.0734 -0.1869  0.0550
  943MOL0     N30048   1.446   4.959   4.876  0.4207 -0.0996 -0.4731
  943MOL0     C30049   1.342   4.264   4.371 -0.3364  0.4232 -0.5826
  943MOL0     C30050   1.221   4.198   4.394  0.1193 -0.0073 -0.4035
  943MOL0     C30051   0.753   4.123   4.432 -0.8557 -0.2046 -0.4696
  943MOL0     C30052   0.653   4.114   4.532 -0.3932  0.2317  0.3125
  943MOL0     C30053   0.541   4.049   4.512  0.2833 -0.6214 -0.5861
  943MOL0     C30054   0.522   3.976   4.397 -0.0556 -0.6787  0.7975
  943MOL0     O30055   0.410   3.904   4.403  0.3097  0.3347  0.1915
  943MOL0     C30056   0.359   3.813   4.296 -0.0672 -0.0555 -0.3211
  943MOL0     C30057   0.243   3.897   4.232 -0.1923 -0.7531 -1.5085
  943MOL0     C30058   0.173   3.821   4.127 -0.1716  1.6500 -0.2777
  943MOL0     C30059   0.061   3.902   4.068 -0.2020 -0.2783 -0.0011
  943MOL0     C30060   0.024   3.854   3.935 -0.0361  0.7328  0.2562
  943MOL0     C30061  -0.006   3.802   3.829  0.0963  0.8811 -0.2874
  943MOL0     C30062   0.634   3.966   4.308 -1.1487  0.7719  0.7492
  943MOL0     C30063   0.744   4.043   4.318 -0.3198 -0.2069 -0.3851
  943MOL0     C30064   0.833   4.055   4.193 -0.0212 -0.5182  0.5472
  943MOL0     H30065   1.018   4.466   4.437 -0.6849 -0.4617 -1.3082
  943MOL0     H30066   1.225   4.577   4.433  2.7854  0.5500 -1.4261
  943MOL0     H30067   1.584   4.425   4.221  1.0427  0.2961  0.0524
  943MOL0     H30068   1.595   4.349   4.388  0.9226  1.4244  1.6587
  943MOL0     H30069   1.785   4.501   4.313 -2.2567 -2.3391 -1.3153
  943MOL0     H30070   1.661   4.618   4.278 -1.6557 -1.5963 -1.6641
  943MOL0     H30071   1.612   4.643   4.532 -0.2213  0.1570  0.2685
  943MOL0     H30072   1.695   4.501   4.562  2.3096  0.0200 -0.1433
  943MOL0     H30073   1.913   4.628   4.498 -0.4256  0.3971 -1.2809
  943MOL0     H30074   1.812   4.767   4.464  0.1501 -0.1301  0.1414
  943MOL0     H30075   1.954   4.740   4.681  0.4675 -1.6509  0.7030
  943MOL0     H30076   1.848   4.626   4.742  2.5504 -0.2303 -0.9670
  943MOL0     H30077   1.788   4.919   4.663  0.1602  0.2344  0.1472
  943MOL0     H30078   1.659   4.826   4.719  0.0238  5.5978 -1.0795
  943MOL0     H30079   1.895   4.890   4.881 -0.6061  4.1502 -2.7280
  943MOL0     H30080   1.792   4.776   4.956 -4.4830 -0.5309 -0.2607
  943MOL0     H30081   1.727   5.019   5.020  0.2231  3.6630 -0.1776
  943MOL0     H30082   1.685   5.053   4.861 -3.6418  0.8370  2.2103
  943MOL0     H30083   1.563   4.885   5.169  2.0891 -0.0026 -1.7971
  943MOL0     H30084   1.319   4.913   5.274  0.6069 -0.3753  0.6014
  943MOL0     H30085   1.263   4.781   5.162  2.1352  0.0834  0.7658
  943MOL0     H30086   1.150   5.056   5.141  0.2889  0.5287  0.1559
  943MOL0     H30087   1.098   4.919   5.058 -2.1161  2.3411 -0.7519
  943MOL0     H30088   1.105   4.949   5.381 -0.1022 -0.6108  0.9445
  943MOL0     H30089   0.966   4.996   5.293 -1.1488 -1.0420 -0.6718
  943MOL0     H30090   0.924   4.785   5.200 -0.0691  2.5600  0.5620
  943MOL0     H30091   1.078   4.738   5.266  0.6610  0.1661  0.3449
  943MOL0     H30092   0.820   4.675   5.628  0.4478 -0.1647  0.4902
  943MOL0     H30093   0.774   4.454   5.802  3.7758  1.5241 -3.1578
  943MOL0     H30094   0.623   4.389   5.728 -2.7616  1.5118 -2.4956
  943MOL0     H30095   0.639   4.560   5.749 -1.7366 -1.1808  1.4634
  943MOL0     H30096   0.775   3.968   5.445  2.9242  0.8293 -0.2363
  943MOL0     H30097   0.773   3.744   5.515 -3.9284  1.3172 -2.8934
  943MOL0     H30098   0.799   3.642   5.970  3.3131  0.7817 -3.0988
  943MOL0     H30099   0.635   3.595   5.902  0.1335 -1.6957  2.0235
  943MOL0     H30100   0.763   3.424   5.982 -0.0843 -1.2959 -0.8872
  943MOL0     H30101   0.751   3.409   5.806 -2.9866  2.2062  0.4542
  943MOL0     H30102   0.983   3.365   5.936 -0.0409  0.3173 -0.4348
  943MOL0     H30103   1.009   3.528   5.928  0.1352 -0.3992  1.3717
  943MOL0     H30104   0.969   3.511   5.660 -0.9714 -0.5666 -0.1654
  943MOL0     H30105   0.958   3.340   5.683 -2.8041 -1.4726  4.9461
  943MOL0     H30106   1.194   3.504   5.739 -1.7060  0.3005 -1.2320
  943MOL0     H30107   1.175   3.344   5.815 -1.0290  0.8879  2.1400
  943MOL0     H30108   1.152   3.364   5.519 -1.6675 -0.0691  1.1008
  943MOL0     H30109   1.138   3.222   5.622 -0.9664  1.8962  1.7139
  943MOL0     H30110   1.378   3.248   5.710  2.1638  3.4354  0.2546
  943MOL0     H30111   1.392   3.388   5.615  0.2811 -0.3658 -2.2558
  943MOL0     H30112   1.344   3.256   5.392 -2.6320 -0.8561 -0.2031
  943MOL0     H30113   1.339   3.113   5.492  0.9578 -1.4057  2.4865
  943MOL0     H30114   0.696   3.847   5.916 -0.8666  0.7681  0.4381
  943MOL0     H30115   0.666   4.085   5.848 -0.8196  0.3681 -2.1678
  943MOL0     H30116   0.792   4.336   5.283  1.4840  2.7690 -1.9362
  943MOL0     H30117   0.906   4.548   5.223 -0.7696 -0.9885  0.6714
  943MOL0     H30118   1.425   4.200   4.341 -0.2513  0.8644 -1.3169
  943MOL0     H30119   1.209   4.091   4.378 -1.2093 -0.1131  1.1125
  943MOL0     H30120   0.659   4.178   4.619 -1.3975  2.1276 -0.9356
  943MOL0     H30121   0.468   4.069   4.589  2.3236  0.6419  1.1199
  943MOL0     H30122   0.433   3.779   4.223 -0.2235  1.7865 -1.4082
  943MOL0     H30123   0.303   3.732   4.343  0.0292 -1.9110 -3.1501
  943MOL0     H30124   0.277   3.991   4.187 -1.1831  0.1452 -0.4309
  943MOL0     H30125   0.172   3.927   4.309  0.0918  1.3861 -2.0075
  943MOL0     H30126   0.237   3.782   4.047 -0.3650  0.4336  0.1550
  943MOL0     H30127   0.138   3.734   4.182 -2.3221  1.5063 -1.7581
  943MOL0     H30128   0.083   4.010   4.069 -0.1668 -0.2705  1.7057
  943MOL0     H30129  -0.021   3.894   4.140 -1.3828  1.5241 -1.0643
  943MOL0     H30130  -0.046   3.757   3.740  1.9682 -1.0225 -0.2389
  943MOL0     H30131   0.627   3.890   4.231 -1.2812  0.0500  1.4655
  943MOL0     H30132   0.888   4.149   4.197  0.8951 -1.0512  0.7989
  943MOL0     H30133   0.903   3.971   4.183  0.7757  0.1812  0.1273
  943MOL0     H30134   0.773   4.055   4.102  0.1384 -1.2643  0.4309
  944MOL0     O30135   7.991  10.532   7.749 -0.1068 -0.4075 -0.3880
  944MOL0     C30136   7.917  10.578   7.832  0.2010 -1.7085 -0.7655
  944MOL0     O30137   7.884  10.521   7.947  0.1776 -0.0542  0.3464
  944MOL0     C30138   7.901  10.387   7.979 -0.2060  0.0811 -0.5282
  944MOL0     C30139   7.997  10.352   8.070  0.3738 -0.8123  1.0156
  944MOL0     C30140   8.020  10.212   8.100  0.6947 -0.5602 -0.6675
  944MOL0     C30141   7.935  10.110   8.042  0.4630  0.3895 -0.8404
  944MOL0     O30142   7.946   9.982   8.095 -0.6563  0.4032 -0.0113
  944MOL0     C30143   7.831   9.898   8.102 -0.5592 -0.3495 -0.1596
  944MOL0     C30144   7.839   9.778   8.197 -0.0692  0.2055  0.4113
  944MOL0     C30145   7.897   9.660   8.128 -0.3188 -0.2814  0.0302
  944MOL0     C30146   7.907   9.547   8.229  0.9568 -1.0025  0.1586
  944MOL0     C30147   8.044   9.557   8.315  0.7827 -0.4725 -1.1834
  944MOL0     C30148   8.070   9.440   8.420  0.0369  0.1601  0.3182
  944MOL0     C30149   8.194   9.469   8.505  0.0815  0.0536  0.2906
  944MOL0     C30150   8.201   9.406   8.645  0.7784  0.6864  0.1912
  944MOL0     N30151   8.102   9.476   8.735  0.2383 -0.2725 -0.2345
  944MOL0     C30152   7.989   9.412   8.781  1.1994 -0.2650  0.9984
  944MOL0     C30153   7.958   9.461   8.899 -0.2491  0.6953  1.6122
  944MOL0     C30154   7.831   9.442   8.973 -1.2430  1.2176  0.4847
  944MOL0     C30155   7.858   9.442   9.129  0.0048 -0.0907 -0.2238
  944MOL0     C30156   7.725   9.455   9.209  0.0361 -0.0517 -0.5719
  944MOL0     C30157   7.748   9.488   9.357  0.2238 -0.3939 -0.0807
  944MOL0     O30158   7.771   9.360   9.416  0.0651 -0.1997 -0.0398
  944MOL0     C30159   7.789   9.356   9.554  0.5206 -0.7392  0.1244
  944MOL0     C30160   7.860   9.465   9.615  0.1106 -0.1034  0.0593
  944MOL0     C30161   7.877   9.471   9.753  0.4674  1.3646 -0.5085
  944MOL0     C30162   7.960   9.586   9.815 -0.1034 -0.2170  0.0568
  944MOL0     C30163   7.837   9.359   9.832  0.1582 -0.1006 -1.1502
  944MOL0     C30164   7.853   9.349   9.987 -0.4392  0.0388  0.6296
  944MOL0     O30165   7.789   9.245  10.041 -0.1801  0.3800 -0.3843
  944MOL0     C30166   7.812   9.218  10.173  0.5138  0.8146  0.3792
  944MOL0     C30167   7.709   9.235  10.258 -0.3950 -0.0150  0.1158
  944MOL0     C30168   7.732   9.205  10.389 -0.0471 -0.6150  0.0134
  944MOL0     C30169   7.845   9.146  10.434  0.3336  0.0350 -0.0450
  944MOL0     O30170   7.847   9.112  10.570 -0.2301  0.0829  0.2707
  944MOL0     C30171   7.826   9.213  10.670 -0.0117 -0.0609  0.2220
  944MOL0     C30172   7.923   9.209  10.784 -0.2822  1.2335 -0.2173
  944MOL0     C30173   7.905   9.325  10.877 -0.9440  0.3953  0.4016
  944MOL0     C30174   8.020   9.342  10.974  0.7928 -0.3135  0.0356
  944MOL0     C30175   8.024   9.486  11.041 -1.5040 -0.1505 -0.3355
  944MOL0     C30176   8.132   9.504  11.149 -0.1483  0.0177 -0.3750
  944MOL0     C30177   8.136   9.653  11.198  0.0479  0.2859  0.0107
  944MOL0     C30178   8.032   9.685  11.303  0.0123 -0.2138 -0.5199
  944MOL0    Cl30179   8.058   9.860  11.373 -0.4839 -0.2265 -0.1583
  944MOL0     C30180   7.941   9.108  10.342 -0.4770  0.4159 -0.0277
  944MOL0     C30181   7.923   9.141  10.209  0.1855 -0.6511  0.2113
  944MOL0     O30182   7.919   9.431  10.048 -0.2412  0.3269 -0.5007
  944MOL0     C30183   7.754   9.266   9.772 -0.3465  0.8302 -0.4744
  944MOL0     C30184   7.736   9.259   9.638 -0.4556  0.8608  0.3674
  944MOL0     N30185   8.058   9.552   8.935 -0.9996 -0.1804 -0.0018
  944MOL0     N30186   8.138   9.557   8.836 -0.0257 -0.1192 -0.2950
  944MOL0     C30187   7.843  10.152   7.945 -0.1204 -0.2684 -1.1856
  944MOL0     C30188   7.829  10.286   7.916 -0.3174 -0.2738  0.1044
  944MOL0     C30189   7.884  10.724   7.822  0.1714 -0.2290 -0.4582
  944MOL0     C30190   7.793  10.773   7.916 -0.0086 -0.3938 -0.0355
  944MOL0     C30191   7.776  10.907   7.937  0.2433  0.2877  0.3889
  944MOL0     C30192   7.848  11.009   7.861  0.2811  0.5835  0.5548
  944MOL0     O30193   7.803  11.132   7.885  0.3442  0.4901  0.2535
  944MOL0     C30194   7.798  11.229   7.780 -0.2697  0.5315  0.4212
  944MOL0     C30195   7.706  11.339   7.828 -0.2846  0.2433  0.3796
  944MOL0     C30196   7.675  11.436   7.719  0.6326  0.9474 -0.1928
  944MOL0     C30197   7.623  11.571   7.784 -0.4458 -0.4176 -0.4473
  944MOL0     C30198   7.555  11.652   7.683  0.8474  0.6890 -0.1530
  944MOL0     C30199   7.495  11.719   7.599 -0.3519 -0.2741 -0.5071
  944MOL0     C30200   7.932  10.958   7.757  0.8315 -0.2356 -0.6725
  944MOL0     C30201   7.948  10.817   7.743 -0.3890  0.5157 -0.4335
  944MOL0     C30202   8.059  10.786   7.642 -0.5475 -0.6652 -0.4617
  944MOL0     H30203   8.043  10.432   8.128 -1.7758  1.5664 -0.3654
  944MOL0     H30204   8.095  10.187   8.174  0.7094  0.1960 -0.4153
  944MOL0     H30205   7.809   9.861   8.002  1.7253 -2.3541 -0.0260
  944MOL0     H30206   7.754   9.960   8.148  0.2934 -1.3109  2.7684
  944MOL0     H30207   7.901   9.817   8.278  0.4385  2.6285 -1.0346
  944MOL0     H30208   7.735   9.759   8.225 -0.6657  1.1339 -1.0440
  944MOL0     H30209   7.837   9.622   8.045  0.5296 -2.9173  0.5074
  944MOL0     H30210   7.999   9.680   8.095 -0.3548 -0.6084 -0.2878
  944MOL0     H30211   7.824   9.538   8.299 -3.2625 -1.3216 -4.3014
  944MOL0     H30212   7.913   9.449   8.181  2.8095  0.0678 -2.0291
  944MOL0     H30213   8.024   9.644   8.379  2.4601 -1.4376  0.7570
  944MOL0     H30214   8.115   9.566   8.232 -1.7441  0.2444 -3.4246
  944MOL0     H30215   7.982   9.446   8.485 -2.4631 -0.1967 -2.8130
  944MOL0     H30216   8.068   9.345   8.368  0.5082 -0.4284  1.3415
  944MOL0     H30217   8.198   9.577   8.524  0.8429  0.2252 -0.7199
  944MOL0     H30218   8.292   9.454   8.459 -0.1728 -2.6282  0.5218
  944MOL0     H30219   8.197   9.297   8.655 -0.0683  0.4968 -1.7319
  944MOL0     H30220   8.301   9.435   8.679  1.6538  0.5241 -2.0656
  944MOL0     H30221   7.930   9.351   8.713  4.0338 -0.8577 -1.1791
  944MOL0     H30222   7.792   9.342   8.952 -1.0721  1.1798  0.3463
  944MOL0     H30223   7.758   9.518   8.942 -2.3862 -0.6901 -1.7868
  944MOL0     H30224   7.914   9.351   9.152  2.7219  1.2604 -1.0749
  944MOL0     H30225   7.910   9.537   9.142  2.1991 -1.2751  0.0523
  944MOL0     H30226   7.668   9.534   9.159 -1.6383 -2.0750 -2.0788
  944MOL0     H30227   7.667   9.363   9.199  0.1948 -0.2301  0.1243
  944MOL0     H30228   7.840   9.545   9.354 -0.6096  0.9830 -2.1571
  944MOL0     H30229   7.661   9.545   9.391 -0.6795 -0.6991 -1.7226
  944MOL0     H30230   7.919   9.529   9.549 -0.6796  0.0368 -0.5295
  944MOL0     H30231   7.960   9.664   9.738 -1.5995 -0.6811 -0.4550
  944MOL0     H30232   8.062   9.556   9.840  0.0735  0.1387 -0.2303
  944MOL0     H30233   7.920   9.638   9.903  2.4950  2.3969 -0.1656
  944MOL0     H30234   7.624   9.302  10.241  0.3963  0.7728 -0.8949
  944MOL0     H30235   7.651   9.231  10.456 -0.4584  3.9776 -1.8995
  944MOL0     H30236   7.812   9.315  10.634 -0.5171  0.2996  1.3899
  944MOL0     H30237   7.732   9.187  10.719  2.0980 -4.2726  2.6028
  944MOL0     H30238   7.912   9.114  10.837 -3.1574  0.6607 -1.6529
  944MOL0     H30239   8.019   9.215  10.731  1.0327  1.0050  2.0208
  944MOL0     H30240   7.809   9.315  10.929 -2.4021 -0.2813 -2.2297
  944MOL0     H30241   7.901   9.404  10.802 -2.2033 -0.4136 -0.4296
  944MOL0     H30242   8.113   9.324  10.919  0.5479 -0.7901 -0.2289
  944MOL0     H30243   8.011   9.260  11.045 -0.0843 -2.1866 -2.1305
  944MOL0     H30244   8.055   9.551  10.959  0.6941  1.7505  1.8289
  944MOL0     H30245   7.931   9.529  11.077 -1.0047  0.1609  0.6112
  944MOL0     H30246   8.219   9.476  11.090 -0.6495 -2.7427  0.0487
  944MOL0     H30247   8.115   9.433  11.230  0.2181 -1.4429 -1.5281
  944MOL0     H30248   8.124   9.708  11.104  0.7082  1.3243  0.5141
  944MOL0     H30249   8.233   9.684  11.238  0.4701  0.5578 -1.1736
  944MOL0     H30250   8.042   9.613  11.385  2.9099 -1.4686 -1.8247
  944MOL0     H30251   7.927   9.670  11.277 -0.3495 -0.3072  0.9128
  944MOL0     H30252   8.029   9.049  10.363 -0.5386  0.2144 -0.3245
  944MOL0     H30253   7.991   9.095  10.138 -0.2839  0.9543 -1.3373
  944MOL0     H30254   7.716   9.185   9.833  1.3167 -0.3185 -0.8910
  944MOL0     H30255   7.676   9.176   9.603 -0.8862  0.9301  0.9309
  944MOL0     H30256   7.785  10.078   7.890  0.8165 -2.3523  0.4926
  944MOL0     H30257   7.749  10.305   7.844  0.8908 -3.2029 -2.2578
  944MOL0     H30258   7.742  10.706   7.984 -1.8364 -0.4805 -1.4093
  944MOL0     H30259   7.709  10.955   8.007 -0.2036 -1.8050  1.4552
  944MOL0     H30260   7.896  11.270   7.757  2.3446 -4.3642  1.4446
  944MOL0     H30261   7.750  11.193   7.688  0.7768 -2.0554  0.7981
  944MOL0     H30262   7.748  11.389   7.915  2.3457  1.0258 -1.2464
  944MOL0     H30263   7.606  11.295   7.838  0.7880 -2.4402  0.1264
  944MOL0     H30264   7.760  11.455   7.652 -1.4560  0.8019 -3.0916
  944MOL0     H30265   7.600  11.388   7.655  0.6475  3.0816 -1.9466
  944MOL0     H30266   7.708  11.626   7.824 -0.5533 -0.6205  0.0647
  944MOL0     H30267   7.563  11.549   7.873  1.5304  1.8042  1.5609
  944MOL0     H30268   7.441  11.766   7.518 -1.2018 -4.0467 -2.3444
  944MOL0     H30269   7.973  11.034   7.692 -0.9338  3.0551  1.7968
  944MOL0     H30270   8.045  10.702   7.574  1.4291 -1.5071  0.1035
  944MOL0     H30271   8.072  10.872   7.576 -2.7979 -0.6770 -1.0061
  944MOL0     H30272   8.156  10.767   7.688  0.1856  1.1941 -1.1240
  945MOL0     O30273   4.850   8.790   5.019  0.1943 -0.9123 -0.2061
  945MOL0     C30274   4.751   8.790   4.949  0.6198 -0.0726  0.1036
  945MOL0     O30275   4.634   8.846   4.980 -0.2565 -0.1826 -0.2913
  945MOL0     C30276   4.612   8.862   5.117  1.2478  0.2055  1.2885
  945MOL0     C30277   4.544   8.758   5.185  0.1566  0.0813 -0.5579
  945MOL0     C30278   4.522   8.776   5.325  0.3622  0.2605  0.9373
  945MOL0     C30279   4.579   8.877   5.394 -0.6288  0.4343  0.0803
  945MOL0     O30280   4.557   8.871   5.536  0.0632 -0.0041  0.2128
  945MOL0     C30281   4.523   8.995   5.596 -0.5528 -0.1212 -0.6084
  945MOL0     C30282   4.634   9.045   5.686 -0.1497  0.1716 -0.0775
  945MOL0     C30283   4.613   9.193   5.716 -0.6214  0.1637 -0.2212
  945MOL0     C30284   4.693   9.237   5.841 -0.0150  0.8069 -0.3670
  945MOL0     C30285   4.698   9.389   5.864 -0.2204  0.6348  0.4245
  945MOL0     C30286   4.829   9.413   5.930  0.0265  0.1399  0.0685
  945MOL0     C30287   4.872   9.340   6.051 -0.1790 -0.5093  0.2701
  945MOL0     C30288   5.023   9.347   6.079  0.2853  0.3257 -0.2405
  945MOL0     N30289   5.063   9.250   6.177 -0.2714  0.0946  0.1291
  945MOL0     C30290   5.044   9.275   6.307 -0.7309 -0.0615  0.0937
  945MOL0     C30291   5.049   9.155   6.363 -0.5491  0.6228 -0.3988
  945MOL0     C30292   5.041   9.121   6.513  0.7719  0.4791  0.2722
  945MOL0     C30293   5.158   9.169   6.594  0.0054 -0.1745  0.0520
  945MOL0     C30294   5.133   9.164   6.749  0.2929 -0.1427  0.3758
  945MOL0     C30295   5.236   9.215   6.846  0.6431 -0.0894  0.1475
  945MOL0     O30296   5.195   9.360   6.862  0.2781  1.0092 -0.2888
  945MOL0     C30297   5.206   9.397   6.994 -0.1863  0.2550 -0.4169
  945MOL0     C30298   5.328   9.450   7.030 -0.0494 -0.4239  0.4230
  945MOL0     C30299   5.336   9.513   7.162 -0.5769 -0.6313  0.5424
  945MOL0     C30300   5.476   9.575   7.186 -0.0247 -0.2083 -0.0219
  945MOL0     C30301   5.231   9.507   7.251 -0.4435  0.4219 -0.2656
  945MOL0     C30302   5.242   9.567   7.389  0.9545 -0.9989  0.4405
  945MOL0     O30303   5.187   9.492   7.491  0.0740 -0.2793 -0.3752
  945MOL0     C30304   5.200   9.524   7.622 -1.5497  0.0043  0.2360
  945MOL0     C30305   5.112   9.459   7.709 -0.2982 -0.7249 -0.3132
  945MOL0     C30306   5.133   9.467   7.845  0.4524  0.8065  0.5647
  945MOL0     C30307   5.218   9.559   7.911  0.7529  0.6910 -0.3030
  945MOL0     O30308   5.233   9.588   8.045 -0.4163  0.0806  0.1219
  945MOL0     C30309   5.212   9.471   8.133  0.5155  0.5130 -0.2770
  945MOL0     C30310   5.283   9.342   8.087 -0.3176 -0.5744 -0.5220
  945MOL0     C30311   5.235   9.231   8.186 -0.0391  1.1411  0.1117
  945MOL0     C30312   5.292   9.101   8.133  0.1261  0.6025 -0.5133
  945MOL0     C30313   5.305   8.987   8.232  0.0231 -0.6494 -0.0224
  945MOL0     C30314   5.438   8.969   8.297  0.7645 -0.1723 -0.0884
  945MOL0     C30315   5.428   8.889   8.422  0.5676 -0.9771 -0.3600
  945MOL0     C30316   5.567   8.863   8.484  0.5378 -0.2818 -0.7042
  945MOL0    Cl30317   5.548   8.774   8.638  0.0599 -0.3822 -0.0441
  945MOL0     C30318   5.295   9.632   7.818  0.3931 -0.2441 -0.7050
  945MOL0     C30319   5.301   9.605   7.680 -0.5331  0.4726 -0.4620
  945MOL0     O30320   5.283   9.691   7.393 -0.2502  0.5578 -0.3711
  945MOL0     C30321   5.110   9.435   7.221 -0.1373  0.0950  0.3977
  945MOL0     C30322   5.104   9.379   7.093 -0.8345  0.6825 -0.0198
  945MOL0     N30323   5.062   9.051   6.273  0.8052 -1.2394  0.2767
  945MOL0     N30324   5.070   9.115   6.165 -0.3697 -0.9758  0.3929
  945MOL0     C30325   4.651   8.977   5.321 -0.6301 -0.4841  0.4884
  945MOL0     C30326   4.662   8.977   5.182 -0.3380 -0.1424  0.9303
  945MOL0     C30327   4.762   8.716   4.820 -0.0402  0.5948  0.2880
  945MOL0     C30328   4.651   8.636   4.770 -0.4362  0.4133 -0.1616
  945MOL0     C30329   4.670   8.559   4.661  0.2299  0.8270 -0.3832
  945MOL0     C30330   4.782   8.562   4.587 -0.3053 -0.1219 -0.2535
  945MOL0     O30331   4.798   8.470   4.489 -0.5269  0.4581  0.4616
  945MOL0     C30332   4.877   8.513   4.374  0.5460 -0.4218  0.1308
  945MOL0     C30333   4.844   8.436   4.239  1.0032  0.4145 -0.9350
  945MOL0     C30334   4.910   8.287   4.248  0.1544 -0.7038  0.3877
  945MOL0     C30335   4.904   8.218   4.109 -1.0891  0.2096  0.6654
  945MOL0     C30336   4.776   8.200   4.040 -0.8786 -0.6634  0.4409
  945MOL0     C30337   4.671   8.198   3.986  0.4221 -0.5962 -0.2235
  945MOL0     C30338   4.885   8.641   4.636 -0.8500  0.3601  0.4875
  945MOL0     C30339   4.883   8.720   4.743 -0.3185 -0.2114 -1.2423
  945MOL0     C30340   5.000   8.811   4.773  0.1736 -0.2265  0.3818
  945MOL0     H30341   4.492   8.679   5.130 -0.5093  2.0057 -2.8767
  945MOL0     H30342   4.459   8.707   5.380 -1.3397  0.5124 -0.6104
  945MOL0     H30343   4.438   8.983   5.664 -0.7885  0.3252 -0.8170
  945MOL0     H30344   4.497   9.066   5.516  0.6373  0.9837 -0.0655
  945MOL0     H30345   4.638   9.000   5.785  1.3015  3.8594  1.6894
  945MOL0     H30346   4.734   9.036   5.642 -0.3848  1.2471 -0.8650
  945MOL0     H30347   4.654   9.260   5.640  0.7946  0.6937  0.9772
  945MOL0     H30348   4.506   9.215   5.730 -0.4362  1.5481 -0.8080
  945MOL0     H30349   4.653   9.182   5.927 -1.6306  1.1026 -0.8862
  945MOL0     H30350   4.794   9.197   5.832 -0.4210 -0.3345 -0.0523
  945MOL0     H30351   4.611   9.417   5.925 -0.2922  0.3989  0.4294
  945MOL0     H30352   4.700   9.446   5.771  0.1978 -0.7833 -0.4628
  945MOL0     H30353   4.910   9.381   5.863  0.9314 -2.9557  2.4154
  945MOL0     H30354   4.840   9.522   5.934  0.9926  0.0217  1.7152
  945MOL0     H30355   4.846   9.234   6.044  0.4944 -0.6729  0.1734
  945MOL0     H30356   4.809   9.384   6.129 -1.4999  0.7477 -1.4255
  945MOL0     H30357   5.077   9.319   5.988 -1.3070 -2.5555 -0.4232
  945MOL0     H30358   5.046   9.450   6.109 -2.4359  1.5685 -2.0273
  945MOL0     H30359   5.035   9.370   6.358  4.2039  0.4154  0.5342
  945MOL0     H30360   5.025   9.013   6.522  1.1366  0.4873  1.1526
  945MOL0     H30361   4.953   9.177   6.543  0.2652 -0.2626  0.1957
  945MOL0     H30362   5.248   9.107   6.589  1.3954  1.6564  1.0342
  945MOL0     H30363   5.167   9.276   6.573 -3.5862  0.0829 -0.9256
  945MOL0     H30364   5.035   9.199   6.783 -0.2639  0.0637 -1.3083
  945MOL0     H30365   5.122   9.058   6.773 -2.1549 -0.2082 -0.7030
  945MOL0     H30366   5.229   9.163   6.942 -1.0589  0.1175  0.1692
  945MOL0     H30367   5.340   9.205   6.815  0.7085 -0.0400  0.3513
  945MOL0     H30368   5.419   9.454   6.970  0.6127 -1.9230  1.2576
  945MOL0     H30369   5.497   9.670   7.137 -0.9836  0.9715  1.7785
  945MOL0     H30370   5.556   9.507   7.154  0.2059 -0.9322  1.9648
  945MOL0     H30371   5.494   9.584   7.293  0.0381  1.1001 -0.1244
  945MOL0     H30372   5.027   9.406   7.668 -2.1615  1.6370  0.2891
  945MOL0     H30373   5.064   9.399   7.894 -0.4877  0.7227 -0.8193
  945MOL0     H30374   5.239   9.501   8.234 -0.3425 -1.5029  0.5989
  945MOL0     H30375   5.104   9.455   8.140  0.6040 -0.2225 -0.5546
  945MOL0     H30376   5.259   9.306   7.987  2.2221  1.6088 -2.0396
  945MOL0     H30377   5.390   9.362   8.085 -0.5061  0.4862 -0.4622
  945MOL0     H30378   5.126   9.226   8.185  0.0012 -0.2500  0.2356
  945MOL0     H30379   5.269   9.252   8.288 -1.3416 -0.3780  0.9016
  945MOL0     H30380   5.392   9.120   8.095  1.5666 -3.1709  0.9791
  945MOL0     H30381   5.228   9.065   8.052  0.4044  0.6353 -0.7480
  945MOL0     H30382   5.242   9.012   8.317 -0.6322 -2.1224 -0.0431
  945MOL0     H30383   5.266   8.891   8.197 -0.7119 -1.0415  1.7535
  945MOL0     H30384   5.486   9.063   8.322  0.3615  0.2759 -0.9675
  945MOL0     H30385   5.511   8.928   8.226  3.9924  5.0557 -0.3251
  945MOL0     H30386   5.371   8.796   8.414 -1.7026  0.4537 -2.2471
  945MOL0     H30387   5.382   8.948   8.502  2.2313 -0.2193  0.0724
  945MOL0     H30388   5.622   8.954   8.512  2.8698 -1.4068 -1.4022
  945MOL0     H30389   5.638   8.805   8.425 -0.2785 -1.4339 -0.5736
  945MOL0     H30390   5.370   9.692   7.868  1.4264 -1.3179 -0.9241
  945MOL0     H30391   5.379   9.649   7.619  0.6882 -3.2486 -1.8237
  945MOL0     H30392   5.022   9.413   7.281 -1.1106 -0.6054 -1.2094
  945MOL0     H30393   5.008   9.337   7.066 -0.2799 -0.0002 -0.9759
  945MOL0     H30394   4.670   9.063   5.385 -0.1950 -1.1435  1.2589
  945MOL0     H30395   4.711   9.053   5.122 -0.2799 -1.0317 -0.1765
  945MOL0     H30396   4.565   8.629   4.835 -0.2268  1.5141  0.2626
  945MOL0     H30397   4.585   8.496   4.636 -0.3937  1.9949 -1.3142
  945MOL0     H30398   4.843   8.614   4.347  1.5952 -0.9822 -3.9045
  945MOL0     H30399   4.983   8.519   4.401  0.5575 -0.5784  0.1203
  945MOL0     H30400   4.866   8.485   4.144  1.8072 -0.0621 -1.0082
  945MOL0     H30401   4.735   8.441   4.245  1.1348  2.3740  1.9695
  945MOL0     H30402   5.015   8.290   4.281  0.6763  1.6261 -1.2200
  945MOL0     H30403   4.852   8.228   4.320 -0.2942 -1.5570 -0.6599
  945MOL0     H30404   4.945   8.119   4.130 -0.8811  0.3647  0.9963
  945MOL0     H30405   4.976   8.261   4.039  1.6904 -5.7309 -0.7536
  945MOL0     H30406   4.575   8.212   3.939  0.6733  2.4512 -0.0125
  945MOL0     H30407   4.973   8.646   4.573 -0.8309 -1.0666  0.3813
  945MOL0     H30408   5.072   8.754   4.833  0.0966 -2.0056 -1.1327
  945MOL0     H30409   5.056   8.827   4.680  3.1583 -0.2812  2.0655
  945MOL0     H30410   4.971   8.904   4.823  2.0720  0.9201 -0.5355
  946MOL0     O30411   4.147   4.081   7.666  0.5564  0.1731 -0.0325
  946MOL0     C30412   4.212   4.176   7.631  0.9085  0.0465 -0.5941
  946MOL0     O30413   4.225   4.234   7.506 -0.3799  0.1974 -0.5009
  946MOL0     C30414   4.177   4.173   7.393  0.3729  1.2124 -0.2826
  946MOL0     C30415   4.268   4.174   7.282  0.7467 -0.1529  0.3452
  946MOL0     C30416   4.237   4.111   7.161 -0.2224  0.5353 -0.0790
  946MOL0     C30417   4.118   4.032   7.151  0.8952 -0.6427 -0.3691
  946MOL0     O30418   4.095   3.975   7.026 -0.3037  0.2579 -0.0014
  946MOL0     C30419   3.973   3.919   6.988  0.5915  0.0518  0.4429
  946MOL0     C30420   3.988   3.873   6.850 -0.2274 -0.3263  0.3909
  946MOL0     C30421   3.869   3.786   6.804 -0.0591 -0.3603  0.4371
  946MOL0     C30422   3.925   3.695   6.687  0.2053  0.3588 -1.3397
  946MOL0     C30423   3.924   3.763   6.551 -0.5226 -0.2937  0.1707
  946MOL0     C30424   3.778   3.788   6.508  0.3317  0.7455 -0.0826
  946MOL0     C30425   3.757   3.844   6.363  0.2272  0.2586  0.0398
  946MOL0     C30426   3.825   3.970   6.315 -0.0914 -0.0194 -0.2953
  946MOL0     N30427   3.966   3.952   6.290  0.0919 -0.0015 -0.3739
  946MOL0     C30428   4.068   4.006   6.361 -0.4995  0.2289 -0.6253
  946MOL0     C30429   4.185   3.956   6.311 -0.1673 -0.4493 -1.0417
  946MOL0     C30430   4.322   3.980   6.358 -0.2790 -0.6091  0.0085
  946MOL0     C30431   4.363   3.887   6.465 -0.3308  1.1066  0.3635
  946MOL0     C30432   4.486   3.798   6.405 -0.6932  0.7249  0.1978
  946MOL0     C30433   4.431   3.670   6.338 -0.2059 -0.0817 -0.7710
  946MOL0     O30434   4.406   3.564   6.436 -0.4774  0.0157  0.7809
  946MOL0     C30435   4.285   3.496   6.433 -0.6353  0.3892  0.0219
  946MOL0     C30436   4.172   3.543   6.372  0.3653  0.2157  0.3709
  946MOL0     C30437   4.053   3.462   6.355  0.6630  0.7861 -0.5194
  946MOL0     C30438   3.945   3.525   6.271  0.5677 -0.1283  0.5504
  946MOL0     C30439   4.042   3.331   6.411 -0.1016 -0.3324  0.2381
  946MOL0     C30440   3.923   3.248   6.411  0.6639 -0.7746 -0.1171
  946MOL0     O30441   3.924   3.130   6.482 -0.2121  0.0879 -0.7477
  946MOL0     C30442   3.806   3.065   6.478  0.5791 -0.6348 -0.0942
  946MOL0     C30443   3.689   3.117   6.531 -0.1028 -0.0131 -0.8445
  946MOL0     C30444   3.574   3.041   6.564 -0.4009  0.1712 -0.1855
  946MOL0     C30445   3.582   2.905   6.542  0.1357  0.2541 -0.5256
  946MOL0     O30446   3.490   2.814   6.586 -0.0471  0.2133 -1.5902
  946MOL0     C30447   3.401   2.762   6.491  0.0825  0.5355  0.2823
  946MOL0     C30448   3.258   2.775   6.561 -0.3667  0.6341  1.3811
  946MOL0     C30449   3.163   2.673   6.483  0.1179  1.0662  0.7275
  946MOL0     C30450   3.136   2.725   6.343 -0.3381 -0.3632 -0.4656
  946MOL0     C30451   3.021   2.833   6.331 -0.7604  1.0822  0.2623
  946MOL0     C30452   2.951   2.811   6.195  0.0061  0.0574  0.5227
  946MOL0     C30453   2.888   2.946   6.162 -0.1108 -0.1766 -0.6013
  946MOL0     C30454   2.855   2.974   6.022  0.3161  0.4990 -0.5914
  946MOL0    Cl30455   2.736   2.858   5.958 -0.2993  0.1742 -0.0115
  946MOL0     C30456   3.699   2.849   6.484  0.7417  0.3511 -0.6953
  946MOL0     C30457   3.810   2.931   6.455 -0.3835 -0.2771  0.3615
  946MOL0     O30458   3.849   3.264   6.313 -0.3889  0.4520 -0.0362
  946MOL0     C30459   4.163   3.289   6.478  0.6246 -0.2258 -0.0811
  946MOL0     C30460   4.284   3.363   6.481  0.9110  0.2244  0.9386
  946MOL0     N30461   4.148   3.880   6.195  0.4706  0.7015 -0.0837
  946MOL0     N30462   4.017   3.883   6.180 -0.6419 -0.0870 -1.3542
  946MOL0     C30463   4.041   4.018   7.262 -0.1567  0.7662 -0.5146
  946MOL0     C30464   4.073   4.081   7.384 -0.0374 -0.8640 -0.1217
  946MOL0     C30465   4.278   4.242   7.738  0.2094 -0.7633 -0.1460
  946MOL0     C30466   4.220   4.248   7.871 -0.9455 -0.2224  0.8908
  946MOL0     C30467   4.290   4.310   7.973  1.5930 -0.4214 -0.5656
  946MOL0     C30468   4.417   4.362   7.962 -0.1715  0.5244 -0.6022
  946MOL0     O30469   4.479   4.432   8.062  0.4575  1.1408 -0.7855
  946MOL0     C30470   4.507   4.343   8.174  0.9048 -0.7307 -0.2231
  946MOL0     C30471   4.537   4.190   8.156  0.4925 -0.6549 -0.0954
  946MOL0     C30472   4.657   4.170   8.071  0.8886 -0.3948 -0.6585
  946MOL0     C30473   4.718   4.040   8.118  0.5521 -0.5245 -0.2841
  946MOL0     C30474   4.832   4.016   8.034  0.3098  0.1325 -0.0546
  946MOL0     C30475   4.936   4.002   7.973  0.7073  0.0995  0.4036
  946MOL0     C30476   4.474   4.364   7.830  0.2993  1.1159 -0.2855
  946MOL0     C30477   4.403   4.297   7.724 -0.0196  0.0431 -0.0068
  946MOL0     C30478   4.482   4.279   7.595 -0.1780  0.4274 -1.2797
  946MOL0     H30479   4.363   4.228   7.287 -0.5789  2.2427  1.4444
  946MOL0     H30480   4.306   4.133   7.080  0.6265  3.7041  1.3371
  946MOL0     H30481   3.900   4.001   6.984 -0.9909 -1.2567 -3.7355
  946MOL0     H30482   3.950   3.832   7.050 -1.7296 -0.4102 -0.9232
  946MOL0     H30483   4.007   3.958   6.784 -0.6006 -1.3205 -1.0577
  946MOL0     H30484   4.079   3.811   6.844 -0.0639 -0.2007  1.3764
  946MOL0     H30485   3.834   3.733   6.893 -2.5637 -0.3182 -0.4211
  946MOL0     H30486   3.786   3.849   6.770 -0.2726 -1.0189 -0.3118
  946MOL0     H30487   4.024   3.654   6.704 -1.0473 -2.4670 -0.1743
  946MOL0     H30488   3.869   3.603   6.669  1.9701 -0.2738 -4.1225
  946MOL0     H30489   3.970   3.703   6.472 -1.9260  0.3974 -1.2188
  946MOL0     H30490   3.987   3.850   6.568  1.3687 -1.8310  1.4869
  946MOL0     H30491   3.715   3.700   6.520 -0.3786  1.5413  2.5637
  946MOL0     H30492   3.732   3.862   6.575  0.6640 -0.7959  1.9213
  946MOL0     H30493   3.648   3.854   6.352  0.2332 -0.9226 -1.3275
  946MOL0     H30494   3.770   3.759   6.295 -1.1429 -0.6081  0.8034
  946MOL0     H30495   3.776   4.019   6.231 -0.4181  0.3018  0.0790
  946MOL0     H30496   3.806   4.037   6.399  1.3311  0.4736 -0.3527
  946MOL0     H30497   4.058   4.070   6.448  0.5339 -0.5694  0.1130
  946MOL0     H30498   4.345   4.082   6.392  3.4446 -1.5240  0.6668
  946MOL0     H30499   4.392   3.972   6.275  0.2931  1.5206  0.2192
  946MOL0     H30500   4.399   3.941   6.554  1.2676  0.9177 -0.1353
  946MOL0     H30501   4.282   3.822   6.498 -1.3273  0.7085 -2.6027
  946MOL0     H30502   4.553   3.857   6.341  4.0062 -3.1257  0.9187
  946MOL0     H30503   4.559   3.769   6.482 -0.3290  0.8258 -0.1092
  946MOL0     H30504   4.348   3.688   6.269 -2.1125 -1.2661  1.0956
  946MOL0     H30505   4.515   3.626   6.283  1.9113 -1.1428  2.9359
  946MOL0     H30506   4.171   3.647   6.339 -0.5998  0.5943  1.5195
  946MOL0     H30507   3.854   3.551   6.326  0.6228  0.1996  0.4844
  946MOL0     H30508   3.911   3.463   6.188 -1.5607  3.1751 -1.2552
  946MOL0     H30509   3.986   3.621   6.241 -1.8144  1.0084  0.7342
  946MOL0     H30510   3.707   3.224   6.536 -0.9940  0.1004  0.7687
  946MOL0     H30511   3.486   3.081   6.612 -0.4216 -2.0235  1.7688
  946MOL0     H30512   3.411   2.809   6.393 -1.6492  1.3006  0.4375
  946MOL0     H30513   3.429   2.657   6.478 -1.5160  0.2361 -1.0366
  946MOL0     H30514   3.261   2.758   6.669  0.5833 -0.5045  1.2093
  946MOL0     H30515   3.219   2.876   6.551 -1.1982  0.4831  2.8603
  946MOL0     H30516   3.066   2.659   6.532 -0.0711  0.3626  0.1659
  946MOL0     H30517   3.196   2.571   6.462 -1.3503  0.2466  2.1283
  946MOL0     H30518   3.109   2.636   6.284  0.7965 -0.9597 -0.1212
  946MOL0     H30519   3.227   2.773   6.305  0.2472  0.7870  2.1995
  946MOL0     H30520   2.949   2.810   6.411  1.5363  2.8879  3.0345
  946MOL0     H30521   3.060   2.934   6.341  1.5706  0.3131 -0.5288
  946MOL0     H30522   2.882   2.727   6.191  0.0142  0.0800 -0.1799
  946MOL0     H30523   3.032   2.796   6.123  2.1396  2.8646  2.0988
  946MOL0     H30524   2.960   3.025   6.184  0.3803 -0.5949 -0.6726
  946MOL0     H30525   2.816   2.974   6.239  2.3252  1.9961  1.0694
  946MOL0     H30526   2.947   2.984   5.963 -0.4867  1.9660 -1.6471
  946MOL0     H30527   2.795   3.065   6.021 -0.1052  0.2461  0.5965
  946MOL0     H30528   3.700   2.741   6.472  1.4184  0.4018 -1.1687
  946MOL0     H30529   3.903   2.904   6.406 -0.0269  1.0018  0.2951
  946MOL0     H30530   4.174   3.184   6.504 -0.5987 -0.9581 -2.2894
  946MOL0     H30531   4.372   3.317   6.526  1.0806 -1.4384 -0.9640
  946MOL0     H30532   3.954   3.954   7.250  0.4772 -0.2355  0.0301
  946MOL0     H30533   4.018   4.059   7.474 -1.3064 -2.2978 -1.2009
  946MOL0     H30534   4.117   4.216   7.885 -1.5098  0.9659 -0.3197
  946MOL0     H30535   4.237   4.310   8.068  0.3321  1.3792 -1.2234
  946MOL0     H30536   4.583   4.391   8.236  0.4034  0.8300 -0.7566
  946MOL0     H30537   4.411   4.337   8.226  0.8458 -1.0911 -0.3720
  946MOL0     H30538   4.444   4.142   8.122  0.5777  0.5964 -2.3413
  946MOL0     H30539   4.543   4.147   8.256  0.5748 -1.4680 -0.4408
  946MOL0     H30540   4.618   4.160   7.969 -3.3244  0.3174  0.7000
  946MOL0     H30541   4.732   4.248   8.086 -0.1614 -0.0864  4.8646
  946MOL0     H30542   4.643   3.961   8.113 -2.0791  1.7200  0.6242
  946MOL0     H30543   4.745   4.056   8.223  0.4111 -1.3211 -0.1252
  946MOL0     H30544   5.023   3.980   7.914  0.1440 -0.3956 -0.2657
  946MOL0     H30545   4.575   4.404   7.832  1.2639 -1.1306  2.3152
  946MOL0     H30546   4.429   4.343   7.524  0.1589  2.9352  0.5850
  946MOL0     H30547   4.586   4.311   7.603  0.1442 -0.8995  0.4301
  946MOL0     H30548   4.487   4.171   7.579  0.4137  0.5567 -2.0871
  947MOL0     O30549   1.492   5.562   0.856 -0.0582 -0.0085  0.4726
  947MOL0     C30550   1.402   5.618   0.909  0.6327  0.6465 -0.4363
  947MOL0     O30551   1.415   5.723   0.994 -0.5224 -0.0709 -0.3368
  947MOL0     C30552   1.539   5.738   1.049 -0.2589  0.2709  1.0389
  947MOL0     C30553   1.579   5.667   1.157 -0.4754 -0.0322 -0.1713
  947MOL0     C30554   1.698   5.706   1.223 -1.5406  0.0575 -0.2952
  947MOL0     C30555   1.790   5.788   1.163  0.2298  0.1482 -0.0149
  947MOL0     O30556   1.910   5.812   1.222  0.4453  0.4658 -0.3377
  947MOL0     C30557   2.002   5.709   1.194 -0.1926  0.0348 -0.4199
  947MOL0     C30558   2.065   5.747   1.063 -0.2732 -1.2901  0.2174
  947MOL0     C30559   2.176   5.649   1.035 -1.6410  0.4480 -0.2638
  947MOL0     C30560   2.224   5.685   0.886 -0.1297  0.6084  0.5928
  947MOL0     C30561   2.334   5.588   0.843 -0.0268  0.3992  0.5299
  947MOL0     C30562   2.362   5.613   0.701 -0.7809  0.7005 -0.0883
  947MOL0     C30563   2.498   5.570   0.665 -0.0521 -0.5928 -0.7133
  947MOL0     C30564   2.514   5.551   0.513  0.3343 -0.0182  0.7023
  947MOL0     N30565   2.449   5.647   0.424 -0.3648  0.0242  0.2060
  947MOL0     C30566   2.505   5.768   0.379  0.2603  0.3809  0.4677
  947MOL0     C30567   2.411   5.822   0.295 -0.3974  0.5019 -0.3649
  947MOL0     C30568   2.426   5.946   0.213 -0.0476 -0.9949 -0.1426
  947MOL0     C30569   2.371   5.922   0.071 -0.2770  0.2694 -0.5609
  947MOL0     C30570   2.228   5.958   0.036  0.0504  0.1771 -0.8922
  947MOL0     C30571   2.193   5.878  -0.088 -1.3052  0.4145 -0.4247
  947MOL0     O30572   2.269   5.946  -0.190  0.7425  0.4428 -0.4997
  947MOL0     C30573   2.216   6.029  -0.287  0.0300 -0.1452 -0.8037
  947MOL0     C30574   2.086   6.072  -0.272 -0.0861 -0.5646 -0.1580
  947MOL0     C30575   2.012   6.159  -0.356 -0.1091  0.2518 -0.4008
  947MOL0     C30576   1.874   6.194  -0.319  0.4504 -0.1136 -0.1326
  947MOL0     C30577   2.087   6.217  -0.463  0.8265 -0.0855  0.0808
  947MOL0     C30578   2.032   6.314  -0.561 -0.2669 -1.3573 -1.4320
  947MOL0     O30579   1.922   6.386  -0.529  0.4687  0.0779  0.8694
  947MOL0     C30580   1.875   6.476  -0.627 -1.0821 -0.6526  0.7106
  947MOL0     C30581   1.799   6.423  -0.733  0.4467 -0.0659  0.0108
  947MOL0     C30582   1.742   6.513  -0.822 -0.2869  0.5446  0.1992
  947MOL0     C30583   1.746   6.650  -0.802 -1.1207  0.3591 -0.0764
  947MOL0     O30584   1.678   6.742  -0.881  0.4122  0.3916 -0.3584
  947MOL0     C30585   1.618   6.692  -0.997 -0.3610 -0.2762  0.2399
  947MOL0     C30586   1.536   6.800  -1.065 -0.1675  0.1604 -0.0517
  947MOL0     C30587   1.462   6.902  -0.966  0.1519 -1.1495  0.0836
  947MOL0     C30588   1.378   6.997  -1.052 -0.3814  0.0401 -0.3128
  947MOL0     C30589   1.302   7.097  -0.969  0.4782  0.1370  0.1134
  947MOL0     C30590   1.209   7.182  -1.060  0.6598 -1.0696  0.1570
  947MOL0     C30591   1.125   7.294  -0.989  0.5884 -0.0508  0.5138
  947MOL0     C30592   1.056   7.375  -1.092  0.1006 -0.6963  0.0328
  947MOL0    Cl30593   0.963   7.520  -1.018 -0.0885 -0.2097  0.0217
  947MOL0     C30594   1.834   6.701  -0.704 -0.0234  0.0773  0.4094
  947MOL0     C30595   1.902   6.614  -0.626  0.5432  1.1240 -0.3625
  947MOL0     O30596   2.087   6.321  -0.668 -0.8687  0.4798 -0.0359
  947MOL0     C30597   2.222   6.172  -0.486  0.1344  0.4110 -0.6699
  947MOL0     C30598   2.285   6.080  -0.396 -0.8752  0.8961 -0.9386
  947MOL0     N30599   2.308   5.730   0.285  0.6757 -0.1685  0.4483
  947MOL0     N30600   2.331   5.629   0.363 -0.8210  0.5295 -0.1052
  947MOL0     C30601   1.749   5.856   1.047  0.3401 -0.1884  1.2311
  947MOL0     C30602   1.622   5.834   0.986 -0.3945 -0.0239 -0.3985
  947MOL0     C30603   1.257   5.571   0.888 -0.8302  0.2006  0.6122
  947MOL0     C30604   1.230   5.487   0.771  0.1450  0.0858 -0.4332
  947MOL0     C30605   1.103   5.432   0.750 -0.8599 -0.3103  0.2046
  947MOL0     C30606   0.999   5.424   0.848 -0.7713 -0.4926  0.1897
  947MOL0     O30607   0.882   5.355   0.843 -0.3858  0.2724 -1.1652
  947MOL0     C30608   0.855   5.237   0.763  0.6794 -0.2124  0.1463
  947MOL0     C30609   0.912   5.125   0.852 -0.1720  0.8202 -0.1185
  947MOL0     C30610   0.818   5.071   0.963  0.0033  0.0050  0.4003
  947MOL0     C30611   0.852   4.928   1.019  0.1386 -0.1836 -1.0000
  947MOL0     C30612   0.814   4.926   1.164  0.0586 -0.3751  0.6421
  947MOL0     C30613   0.787   4.923   1.284  0.2830  0.8574  0.6103
  947MOL0     C30614   1.034   5.484   0.972  0.0961 -0.8826  1.0344
  947MOL0     C30615   1.153   5.561   0.985  1.0223  0.6662 -0.1427
  947MOL0     C30616   1.176   5.617   1.125  0.6538  0.4461  0.9318
  947MOL0     H30617   1.510   5.596   1.201 -1.8681  1.4445  0.1058
  947MOL0     H30618   1.723   5.653   1.314  1.3641  0.8689 -0.5118
  947MOL0     H30619   1.959   5.608   1.188 -0.8077  0.3397 -1.4414
  947MOL0     H30620   2.072   5.708   1.277  2.7009  4.6906 -2.4311
  947MOL0     H30621   1.986   5.743   0.987 -0.3369 -1.1840  0.2780
  947MOL0     H30622   2.093   5.852   1.075 -0.6558 -1.1827  0.1829
  947MOL0     H30623   2.254   5.678   1.106 -0.7783 -0.2462 -0.9241
  947MOL0     H30624   2.148   5.544   1.041 -2.1998  0.4770 -1.8809
  947MOL0     H30625   2.137   5.671   0.821 -2.7618 -2.2075  4.2731
  947MOL0     H30626   2.264   5.787   0.881 -2.2391  1.5099  0.9954
  947MOL0     H30627   2.304   5.484   0.858  1.9856 -0.0480  1.7203
  947MOL0     H30628   2.418   5.598   0.912  2.7288 -1.6520 -2.2101
  947MOL0     H30629   2.291   5.565   0.633 -1.2276  2.8974 -1.2788
  947MOL0     H30630   2.347   5.717   0.669 -3.7807 -0.7176 -4.1101
  947MOL0     H30631   2.509   5.474   0.717 -1.3198  1.1384  3.1857
  947MOL0     H30632   2.577   5.635   0.703  4.0769 -5.0197 -0.6744
  947MOL0     H30633   2.622   5.559   0.494 -0.1019  0.7001 -1.7449
  947MOL0     H30634   2.483   5.450   0.488  0.5603  0.5985 -2.4763
  947MOL0     H30635   2.604   5.807   0.402 -0.3845  4.4304 -2.5182
  947MOL0     H30636   2.530   5.980   0.213 -0.7615  1.5027 -1.2340
  947MOL0     H30637   2.374   6.022   0.274 -0.9325 -2.6620  1.2694
  947MOL0     H30638   2.430   5.993   0.012 -0.3772 -0.0052 -0.9933
  947MOL0     H30639   2.392   5.819   0.042  1.8523  0.8217 -1.1422
  947MOL0     H30640   2.159   5.917   0.110  2.9537 -2.0174  0.8020
  947MOL0     H30641   2.210   6.066   0.031  0.1118  0.5205  3.1044
  947MOL0     H30642   2.224   5.774  -0.080 -0.7444  0.6070 -0.0381
  947MOL0     H30643   2.085   5.873  -0.105 -1.2264  0.3086 -0.8930
  947MOL0     H30644   2.039   6.031  -0.183  0.0603  0.7615  0.5557
  947MOL0     H30645   1.846   6.136  -0.231  0.9733 -0.7402 -0.3701
  947MOL0     H30646   1.807   6.187  -0.406  1.3989  3.0741 -1.2556
  947MOL0     H30647   1.869   6.300  -0.292  2.5278 -0.1738  0.5929
  947MOL0     H30648   1.777   6.317  -0.737 -0.9095  0.2182 -0.4729
  947MOL0     H30649   1.679   6.459  -0.891 -1.8134 -0.2190  2.0850
  947MOL0     H30650   1.690   6.650  -1.068  1.8792  2.9464  0.3951
  947MOL0     H30651   1.548   6.613  -0.970 -0.0675 -0.2607  1.0699
  947MOL0     H30652   1.601   6.869  -1.120  0.9852 -0.5176  0.4124
  947MOL0     H30653   1.454   6.773  -1.131 -1.8162  1.9437  1.1536
  947MOL0     H30654   1.535   6.960  -0.910  0.4082 -0.2596 -1.1406
  947MOL0     H30655   1.406   6.835  -0.900  1.7326 -2.5546  0.0772
  947MOL0     H30656   1.310   6.947  -1.122 -1.5762  0.7806  0.2940
  947MOL0     H30657   1.446   7.055  -1.116 -0.0714 -0.4754 -0.4590
  947MOL0     H30658   1.252   7.039  -0.891  0.7193  2.1432  1.8401
  947MOL0     H30659   1.370   7.168  -0.919 -0.6032  1.1631  0.1555
  947MOL0     H30660   1.145   7.111  -1.114  3.8742 -2.8149 -1.6547
  947MOL0     H30661   1.271   7.232  -1.134 -2.1363  1.9149 -0.3838
  947MOL0     H30662   1.196   7.347  -0.926  0.2080  1.9640 -0.6415
  947MOL0     H30663   1.052   7.239  -0.930  0.6441 -1.9330 -1.0626
  947MOL0     H30664   0.981   7.313  -1.141 -0.1532  0.2292 -0.7980
  947MOL0     H30665   1.127   7.423  -1.161 -1.4503  1.8559  0.0802
  947MOL0     H30666   1.839   6.807  -0.684  0.2332 -0.2947  2.6027
  947MOL0     H30667   1.962   6.643  -0.541 -0.4147  0.6242  0.5021
  947MOL0     H30668   2.287   6.211  -0.564  1.0731 -1.5838 -0.9564
  947MOL0     H30669   2.390   6.050  -0.400 -1.4986 -1.3932 -1.2815
  947MOL0     H30670   1.824   5.923   1.004 -1.5561  0.9807 -0.4743
  947MOL0     H30671   1.594   5.891   0.897  2.2295  0.5896 -0.9112
  947MOL0     H30672   1.305   5.461   0.697 -0.8935  0.8025 -1.7924
  947MOL0     H30673   1.092   5.367   0.664 -1.5319 -2.4622  1.8483
  947MOL0     H30674   0.746   5.229   0.755  0.1393  3.3146  2.0917
  947MOL0     H30675   0.904   5.243   0.665  1.3338 -1.6552  0.3601
  947MOL0     H30676   1.012   5.149   0.889 -0.2812 -1.5444  1.9732
  947MOL0     H30677   0.920   5.039   0.784 -3.0372 -0.3647  0.8992
  947MOL0     H30678   0.838   5.141   1.044  1.7841 -1.0340  0.9272
  947MOL0     H30679   0.712   5.069   0.936  0.6028 -0.6225 -2.1687
  947MOL0     H30680   0.959   4.907   1.011 -0.4432 -4.0316 -0.4496
  947MOL0     H30681   0.803   4.841   0.974 -0.9198 -0.5274  0.6978
  947MOL0     H30682   0.775   4.923   1.390  1.9945 -4.1479  1.0744
  947MOL0     H30683   0.961   5.480   1.052 -0.8278 -0.7150  0.2220
  947MOL0     H30684   1.118   5.710   1.129  0.4719  0.4504 -0.8699
  947MOL0     H30685   1.136   5.549   1.201 -0.3460  2.2543  2.1058
  947MOL0     H30686   1.283   5.624   1.146  0.9198 -1.2160  0.3018
  948MOL0     O30687   2.002   2.461   4.085  0.5062 -0.0999 -0.2668
  948MOL0     C30688   1.967   2.387   3.993  0.7858 -0.2745  0.0339
  948MOL0     O30689   1.979   2.253   3.997  0.0946 -0.2171  0.2553
  948MOL0     C30690   2.013   2.199   4.117  0.3291  0.7553  0.8790
  948MOL0     C30691   2.143   2.144   4.127  0.1456  0.3022  0.8670
  948MOL0     C30692   2.188   2.074   4.243  0.3409 -1.0521 -0.6722
  948MOL0     C30693   2.094   2.059   4.349  0.2442  0.7998  0.1636
  948MOL0     O30694   2.128   2.001   4.470  0.2016 -0.5589  0.5454
  948MOL0     C30695   2.228   2.087   4.541  0.3677  0.9900  0.1107
  948MOL0     C30696   2.367   2.032   4.526  0.3676  0.3020  0.2531
  948MOL0     C30697   2.484   2.089   4.610  0.0823  0.0297  0.7155
  948MOL0     C30698   2.475   2.246   4.625 -0.0245 -0.3317  0.4412
  948MOL0     C30699   2.609   2.292   4.686  0.3537  1.1092  0.6579
  948MOL0     C30700   2.642   2.435   4.657 -0.2869  0.1899 -0.3943
  948MOL0     C30701   2.761   2.485   4.738 -0.1252 -0.3944 -0.7594
  948MOL0     C30702   2.820   2.616   4.734  0.6568 -0.1766 -0.1583
  948MOL0     N30703   2.877   2.646   4.599  0.4341  0.2379  0.2956
  948MOL0     C30704   3.006   2.663   4.574 -0.1217 -0.4448 -0.2964
  948MOL0     C30705   3.015   2.730   4.452 -0.3104 -0.3120  0.2028
  948MOL0     C30706   3.140   2.776   4.387 -0.5229  0.1162 -0.3620
  948MOL0     C30707   3.132   2.752   4.238  0.8681  0.3134  1.1216
  948MOL0     C30708   3.069   2.869   4.159  0.6844  0.6857  0.4671
  948MOL0     C30709   3.086   2.845   4.013  0.6515 -1.0330  1.1681
  948MOL0     O30710   3.010   2.727   3.976  0.5176  0.4468  0.3837
  948MOL0     C30711   2.991   2.689   3.842  0.2294  0.0148  0.0993
  948MOL0     C30712   3.052   2.752   3.738  1.2795  0.6487 -0.2944
  948MOL0     C30713   3.030   2.715   3.604  0.0946  0.4828 -0.0671
  948MOL0     C30714   3.103   2.792   3.493  0.7746 -0.2468 -0.3736
  948MOL0     C30715   2.924   2.614   3.583  0.2510  1.0746  0.9815
  948MOL0     C30716   2.875   2.569   3.443  0.6345 -0.4349 -0.0822
  948MOL0     O30717   2.893   2.663   3.343  1.2326 -0.3649 -0.0764
  948MOL0     C30718   2.856   2.650   3.205 -0.3547 -0.2640 -0.5877
  948MOL0     C30719   2.722   2.599   3.163  0.0113 -0.1570 -0.0627
  948MOL0     C30720   2.690   2.598   3.025 -0.8879 -0.4998 -0.4405
  948MOL0     C30721   2.782   2.656   2.932  0.1120  0.0053  0.5521
  948MOL0     O30722   2.740   2.657   2.798  0.2821  0.1770  0.3758
  948MOL0     C30723   2.813   2.724   2.693 -0.2437  0.5980  0.2327
  948MOL0     C30724   2.755   2.667   2.555  0.5291  0.6321  0.2768
  948MOL0     C30725   2.814   2.526   2.523  0.3660  0.1807 -0.1622
  948MOL0     C30726   2.734   2.455   2.410  0.2176 -0.7719  0.6916
  948MOL0     C30727   2.805   2.332   2.360  0.2102  0.3494 -0.7046
  948MOL0     C30728   2.747   2.286   2.225 -0.2144  0.6024  0.0481
  948MOL0     C30729   2.762   2.390   2.112 -0.1027  0.7111 -0.8964
  948MOL0     C30730   2.739   2.324   1.974 -0.2679  0.3876  0.3341
  948MOL0    Cl30731   2.635   2.432   1.891  0.3032  0.1416 -0.0353
  948MOL0     C30732   2.900   2.710   2.969 -0.5354  0.7809 -0.3325
  948MOL0     C30733   2.932   2.710   3.107  0.0155 -0.7360  0.6923
  948MOL0     O30734   2.806   2.466   3.433  0.3957  0.3078 -0.4964
  948MOL0     C30735   2.867   2.553   3.692 -0.9857 -0.2762  0.4728
  948MOL0     C30736   2.904   2.593   3.820 -0.4031  0.5466  0.3056
  948MOL0     N30737   2.887   2.745   4.408  0.3160 -0.0306  0.2465
  948MOL0     N30738   2.806   2.690   4.493  1.1799 -0.5867  0.7346
  948MOL0     C30739   1.960   2.104   4.335 -0.5053  0.2465 -0.0546
  948MOL0     C30740   1.922   2.186   4.221  1.4227 -0.2252  0.2082
  948MOL0     C30741   1.909   2.449   3.872 -0.1347 -0.6247 -0.9547
  948MOL0     C30742   1.798   2.384   3.829  0.1365 -0.3878 -0.6856
  948MOL0     C30743   1.738   2.416   3.710 -0.8693  0.5477  0.6098
  948MOL0     C30744   1.791   2.512   3.626 -0.4609  0.1898 -0.1284
  948MOL0     O30745   1.732   2.551   3.500 -0.2060 -0.0590 -0.3455
  948MOL0     C30746   1.643   2.462   3.431 -0.4564 -0.1089 -0.4598
  948MOL0     C30747   1.595   2.541   3.311  0.0355 -0.1766 -1.1933
  948MOL0     C30748   1.482   2.464   3.235 -0.9096 -0.0742 -0.0393
  948MOL0     C30749   1.503   2.316   3.227  0.4153  0.9997  0.7692
  948MOL0     C30750   1.414   2.265   3.120 -0.3193  1.0558  0.0605
  948MOL0     C30751   1.345   2.226   3.022 -0.5314 -0.5727 -0.1049
  948MOL0     C30752   1.900   2.592   3.679  0.4236  0.8171 -0.5871
  948MOL0     C30753   1.958   2.566   3.802  0.2264  0.1147  0.6086
  948MOL0     C30754   2.078   2.643   3.830  0.1105  0.6318  0.2469
  948MOL0     H30755   2.219   2.147   4.050 -0.6756  0.4917  0.0592
  948MOL0     H30756   2.287   2.033   4.258 -0.1961 -1.2606  3.5912
  948MOL0     H30757   2.193   2.076   4.644 -2.3709  0.4716 -0.7781
  948MOL0     H30758   2.211   2.193   4.525 -1.1574  1.1665  2.3591
  948MOL0     H30759   2.362   1.926   4.549  4.2712 -0.2717 -0.7559
  948MOL0     H30760   2.397   2.051   4.422  3.7842  0.9659  1.2279
  948MOL0     H30761   2.470   2.054   4.712 -5.1465  1.8953  0.8996
  948MOL0     H30762   2.577   2.047   4.569 -0.9113  1.5630 -3.7104
  948MOL0     H30763   2.454   2.303   4.534 -1.1895 -0.5386  0.5654
  948MOL0     H30764   2.393   2.267   4.694 -1.3214 -0.2856 -1.0467
  948MOL0     H30765   2.692   2.228   4.653 -0.0592 -0.1697  2.0225
  948MOL0     H30766   2.599   2.274   4.793 -3.1706  0.4564  0.3366
  948MOL0     H30767   2.665   2.436   4.550  0.8081  0.9080 -0.1588
  948MOL0     H30768   2.551   2.491   4.681 -0.8163 -1.6199  2.1448
  948MOL0     H30769   2.844   2.415   4.726 -0.7147 -1.3735  0.6475
  948MOL0     H30770   2.727   2.465   4.840  2.3671  1.1308  0.4523
  948MOL0     H30771   2.732   2.681   4.745  1.8417  1.8634 -2.0574
  948MOL0     H30772   2.892   2.630   4.815 -0.8323 -0.4394  1.2857
  948MOL0     H30773   3.083   2.644   4.647 -0.7765  0.2832  0.6121
  948MOL0     H30774   3.220   2.710   4.422 -0.4793  0.4160  0.1009
  948MOL0     H30775   3.163   2.879   4.415 -0.0804 -0.8916  3.4371
  948MOL0     H30776   3.234   2.740   4.199 -0.3699  0.3345 -2.4743
  948MOL0     H30777   3.070   2.663   4.228  1.8545 -0.4518  1.6412
  948MOL0     H30778   2.962   2.879   4.179  0.2794 -2.6268  0.4799
  948MOL0     H30779   3.119   2.966   4.173 -0.0008  1.4591 -1.9493
  948MOL0     H30780   3.051   2.931   3.955  0.8615 -2.3328 -1.0014
  948MOL0     H30781   3.187   2.844   3.973  1.0157 -1.1671  2.0772
  948MOL0     H30782   3.110   2.842   3.759  2.1946 -0.1390  0.6579
  948MOL0     H30783   3.116   2.731   3.403  1.4068 -1.6500  0.6451
  948MOL0     H30784   3.197   2.826   3.538  0.8435 -0.2180 -0.5380
  948MOL0     H30785   3.034   2.875   3.471 -1.2711 -2.0426 -1.1193
  948MOL0     H30786   2.663   2.555   3.243 -0.4847  0.4101 -0.1120
  948MOL0     H30787   2.599   2.547   2.995 -1.8338  0.0103  1.3722
  948MOL0     H30788   2.812   2.832   2.707  1.4369  0.4455  1.9077
  948MOL0     H30789   2.920   2.699   2.692  0.2083  2.3802 -1.1509
  948MOL0     H30790   2.647   2.675   2.569  0.8456  0.0918  4.0930
  948MOL0     H30791   2.778   2.726   2.466 -2.8753  0.3381 -0.9378
  948MOL0     H30792   2.811   2.468   2.616 -0.3764  1.2254  0.4871
  948MOL0     H30793   2.920   2.529   2.498  0.5862 -0.1120  0.7036
  948MOL0     H30794   2.720   2.525   2.327  5.3383  1.4407  1.3555
  948MOL0     H30795   2.636   2.440   2.456  1.7092 -1.0959  4.0310
  948MOL0     H30796   2.913   2.348   2.357  0.4652 -1.3161 -1.6457
  948MOL0     H30797   2.799   2.248   2.430  2.6096 -0.4611 -1.3558
  948MOL0     H30798   2.641   2.258   2.230 -0.9258  1.1007 -5.5781
  948MOL0     H30799   2.797   2.193   2.198 -1.1242 -0.5529  2.1281
  948MOL0     H30800   2.863   2.433   2.113  0.4295 -0.4682  1.6140
  948MOL0     H30801   2.699   2.477   2.129 -1.7211 -0.8377  1.5369
  948MOL0     H30802   2.687   2.230   1.993 -2.5957  1.8183  1.4842
  948MOL0     H30803   2.819   2.306   1.901 -1.0398  1.4026 -0.8132
  948MOL0     H30804   2.973   2.725   2.890 -0.0734 -4.4737 -1.3134
  948MOL0     H30805   3.032   2.737   3.142 -0.2040 -1.0450  1.5567
  948MOL0     H30806   2.789   2.478   3.690 -1.4253  0.1194  1.7205
  948MOL0     H30807   2.861   2.534   3.901  0.3014  0.2645  0.4816
  948MOL0     H30808   1.888   2.072   4.410 -0.0070 -0.2901  0.2062
  948MOL0     H30809   1.820   2.215   4.199  1.6070 -1.9346 -3.5805
  948MOL0     H30810   1.765   2.297   3.886  2.3761 -1.0139 -0.2479
  948MOL0     H30811   1.650   2.364   3.676 -0.4649  0.7999 -0.8827
  948MOL0     H30812   1.698   2.372   3.402  1.2481  1.2590 -1.7198
  948MOL0     H30813   1.556   2.437   3.492 -1.2621 -0.4870 -1.7364
  948MOL0     H30814   1.686   2.564   3.255 -1.0031  0.8308 -2.5242
  948MOL0     H30815   1.560   2.640   3.339  3.2331  0.5672  0.5577
  948MOL0     H30816   1.383   2.496   3.269 -1.4787 -0.8128 -0.9370
  948MOL0     H30817   1.484   2.497   3.130  3.0857 -1.4821 -0.5762
  948MOL0     H30818   1.482   2.275   3.326 -1.3603  1.8987  0.8076
  948MOL0     H30819   1.605   2.303   3.190  0.3113  2.2053  0.0160
  948MOL0     H30820   1.274   2.199   2.947 -1.0045  1.3590 -0.4011
  948MOL0     H30821   1.958   2.655   3.612 -0.8702  1.4296 -1.1591
  948MOL0     H30822   2.038   2.745   3.833 -3.3491 -0.6025  0.1085
  948MOL0     H30823   2.113   2.615   3.930 -1.9912  1.7748  1.3674
  948MOL0     H30824   2.157   2.625   3.757  0.9610 -0.6282  1.4210
  949MOL0     O30825   7.093   4.502   4.238 -0.2120  0.3813 -0.4425
  949MOL0     C30826   6.977   4.473   4.272  0.0150  0.6635 -1.0897
  949MOL0     O30827   6.936   4.475   4.406  0.8631  0.1362  0.1930
  949MOL0     C30828   7.025   4.498   4.507 -1.2863 -0.6015 -0.3831
  949MOL0     C30829   6.964   4.555   4.621  0.3093  0.6231  0.1791
  949MOL0     C30830   7.046   4.579   4.739 -0.6042 -0.2017 -0.2400
  949MOL0     C30831   7.180   4.558   4.735 -0.9547 -0.9128 -0.0995
  949MOL0     O30832   7.250   4.589   4.850 -0.2894 -0.3777  0.0448
  949MOL0     C30833   7.332   4.486   4.914  0.6649 -0.6601  0.7063
  949MOL0     C30834   7.480   4.522   4.933 -0.6666 -0.2050  0.3354
  949MOL0     C30835   7.516   4.639   4.839 -0.0227 -0.0104  0.2689
  949MOL0     C30836   7.667   4.636   4.812 -0.2388  1.0120 -0.7886
  949MOL0     C30837   7.738   4.735   4.900  0.5105 -0.4543  0.0309
  949MOL0     C30838   7.896   4.719   4.890  0.1942 -0.3181 -0.6763
  949MOL0     C30839   7.950   4.681   4.752  0.1509 -0.0800 -0.1835
  949MOL0     C30840   7.927   4.797   4.649  0.0151 -0.9759  0.6319
  949MOL0     N30841   8.038   4.894   4.644  0.1515  0.5350  0.1029
  949MOL0     C30842   8.026   5.030   4.629  0.9647 -0.1443  0.5414
  949MOL0     C30843   8.144   5.076   4.581  0.4484 -0.3373 -0.4736
  949MOL0     C30844   8.187   5.216   4.551 -0.0014  0.6370 -0.4295
  949MOL0     C30845   8.086   5.313   4.490 -0.4860  0.3341 -0.3718
  949MOL0     C30846   8.057   5.283   4.341 -0.7618  0.1347  0.4044
  949MOL0     C30847   8.158   5.363   4.241  0.4933  0.6283  0.0837
  949MOL0     O30848   8.113   5.502   4.234 -0.4138 -0.3816 -0.9536
  949MOL0     C30849   8.164   5.586   4.135  0.2550  0.1915 -0.4424
  949MOL0     C30850   8.254   5.562   4.032 -0.1035  0.3099  0.5424
  949MOL0     C30851   8.281   5.661   3.932  0.6174 -0.5545 -0.5010
  949MOL0     C30852   8.355   5.614   3.806  0.7827  0.6540 -0.3824
  949MOL0     C30853   8.249   5.799   3.958  0.0310  1.4116  0.0108
  949MOL0     C30854   8.293   5.909   3.878 -0.0523  0.3037 -0.0398
  949MOL0     O30855   8.394   5.892   3.790 -0.4597 -0.4543  0.3353
  949MOL0     C30856   8.447   6.004   3.736  0.0851 -0.5467  1.0715
  949MOL0     C30857   8.570   6.049   3.780 -1.2174 -1.0509 -0.5015
  949MOL0     C30858   8.629   6.167   3.726  0.0598 -0.1187  0.1624
  949MOL0     C30859   8.563   6.235   3.617  0.0884  0.3080  0.8364
  949MOL0     O30860   8.596   6.348   3.545  0.5663 -0.1505 -1.2462
  949MOL0     C30861   8.720   6.411   3.574  0.0638  0.2696  0.1055
  949MOL0     C30862   8.744   6.529   3.479  0.0803 -0.0325  0.1193
  949MOL0     C30863   8.623   6.626   3.454  0.0401 -0.8111  0.1637
  949MOL0     C30864   8.565   6.703   3.576 -0.4249  0.6775 -0.0259
  949MOL0     C30865   8.683   6.762   3.662  1.3028 -0.2214 -1.1624
  949MOL0     C30866   8.659   6.866   3.764 -0.1045 -0.1297  0.6844
  949MOL0     C30867   8.800   6.899   3.827  0.6236  0.6242  0.8153
  949MOL0     C30868   8.794   6.976   3.959 -0.7913 -1.2757  0.1872
  949MOL0    Cl30869   8.673   7.115   3.933  0.1159 -0.5792 -0.0644
  949MOL0     C30870   8.456   6.170   3.561 -0.3639 -0.6571 -0.5384
  949MOL0     C30871   8.397   6.059   3.617  0.2504  0.5723  0.6390
  949MOL0     O30872   8.239   6.019   3.903  0.1424 -0.4886 -0.5483
  949MOL0     C30873   8.162   5.821   4.067  0.1142 -0.9234  0.1635
  949MOL0     C30874   8.125   5.713   4.153 -0.1751 -0.1720 -0.3248
  949MOL0     N30875   8.226   4.970   4.587 -0.5324 -0.9798  1.0341
  949MOL0     N30876   8.168   4.860   4.615  0.6753 -0.1966 -0.2608
  949MOL0     C30877   7.241   4.490   4.626 -1.2600  0.8286  0.5396
  949MOL0     C30878   7.169   4.459   4.512  1.0009 -0.0629 -0.2951
  949MOL0     C30879   6.882   4.436   4.166 -0.0560 -0.2665  0.3512
  949MOL0     C30880   6.755   4.396   4.205 -0.3421  0.3183  0.5157
  949MOL0     C30881   6.675   4.319   4.116 -0.6395 -0.6215 -0.2813
  949MOL0     C30882   6.722   4.305   3.983 -0.0791  0.3623 -0.1440
  949MOL0     O30883   6.636   4.232   3.902 -0.4546 -0.1699  0.3049
  949MOL0     C30884   6.710   4.124   3.830  0.1607  0.3187  0.3246
  949MOL0     C30885   6.665   4.131   3.683 -0.4310  0.2824  0.1586
  949MOL0     C30886   6.725   4.011   3.609 -0.0830  0.1624 -0.5116
  949MOL0     C30887   6.882   4.021   3.585  0.1313 -0.4641  0.7733
  949MOL0     C30888   6.950   4.154   3.595  0.1791  0.6190 -0.3093
  949MOL0     C30889   7.016   4.254   3.597 -0.0288 -0.2911  0.3949
  949MOL0     C30890   6.828   4.367   3.935 -0.5018  0.2137 -0.6412
  949MOL0     C30891   6.914   4.431   4.030 -0.9940  0.2606  0.2657
  949MOL0     C30892   7.048   4.480   3.973 -0.3503  0.1299  0.8024
  949MOL0     H30893   6.856   4.566   4.612  0.4495  0.7670 -1.6992
  949MOL0     H30894   6.996   4.604   4.833  0.7148 -1.8091  0.9527
  949MOL0     H30895   7.324   4.405   4.841 -0.1831 -0.7244  0.8698
  949MOL0     H30896   7.289   4.455   5.009  0.6350  1.6611  1.5010
  949MOL0     H30897   7.506   4.553   5.034 -1.3640  2.1596 -0.1465
  949MOL0     H30898   7.541   4.432   4.918  1.3930  1.1902 -0.1440
  949MOL0     H30899   7.474   4.622   4.739 -0.1187 -0.9648  0.4621
  949MOL0     H30900   7.474   4.728   4.887 -3.6897 -0.4739 -1.7051
  949MOL0     H30901   7.715   4.544   4.847 -0.3720  1.7993  1.6108
  949MOL0     H30902   7.687   4.636   4.704 -0.0244 -1.5950 -0.8327
  949MOL0     H30903   7.710   4.723   5.004  0.7100 -0.2351  0.1132
  949MOL0     H30904   7.699   4.834   4.873 -3.7586 -1.3864  2.0836
  949MOL0     H30905   7.956   4.796   4.939  0.4173 -0.8411 -0.1062
  949MOL0     H30906   7.902   4.628   4.951 -3.9800 -0.0221  0.4969
  949MOL0     H30907   7.895   4.591   4.724 -1.1083 -0.0027  1.8548
  949MOL0     H30908   8.056   4.659   4.765 -0.2093 -1.6743  0.2076
  949MOL0     H30909   7.914   4.748   4.553 -0.0286  0.2502 -0.0159
  949MOL0     H30910   7.836   4.854   4.670  0.6553  0.3315 -0.0200
  949MOL0     H30911   7.943   5.095   4.653  1.3897  2.7390 -4.4493
  949MOL0     H30912   8.273   5.205   4.484  0.7330 -1.1838  0.7113
  949MOL0     H30913   8.217   5.261   4.646  0.5435  1.0786 -0.8055
  949MOL0     H30914   8.003   5.300   4.560  1.4006 -2.4330  1.5451
  949MOL0     H30915   8.128   5.413   4.502  3.2058 -1.1055  0.0262
  949MOL0     H30916   8.077   5.181   4.309 -0.5628  0.5341 -0.7702
  949MOL0     H30917   7.955   5.312   4.316 -1.8303 -2.9576  0.7923
  949MOL0     H30918   8.255   5.363   4.293  0.5509  3.2992  0.0783
  949MOL0     H30919   8.161   5.322   4.140 -3.1413  1.2315 -0.3869
  949MOL0     H30920   8.296   5.462   4.026  0.5911  0.5194  1.5576
  949MOL0     H30921   8.343   5.506   3.807  0.4196  0.6100  3.0779
  949MOL0     H30922   8.463   5.634   3.813  1.0033 -0.3771 -0.7669
  949MOL0     H30923   8.302   5.658   3.721  0.3868  1.5487  0.3049
  949MOL0     H30924   8.613   5.992   3.862 -0.2848  1.6417  1.0063
  949MOL0     H30925   8.715   6.207   3.780  2.4392  1.0070 -3.9617
  949MOL0     H30926   8.711   6.450   3.676  3.4097  1.2621  0.1431
  949MOL0     H30927   8.808   6.346   3.573  0.9667  1.4735 -0.8377
  949MOL0     H30928   8.833   6.589   3.500 -0.9780  1.3920  0.6987
  949MOL0     H30929   8.771   6.487   3.382  2.6500  1.0975  0.2542
  949MOL0     H30930   8.542   6.565   3.413  0.3430 -0.9944 -0.1708
  949MOL0     H30931   8.653   6.699   3.379  0.8374  0.1185  1.3513
  949MOL0     H30932   8.496   6.642   3.635  0.2746 -0.0467  0.0572
  949MOL0     H30933   8.502   6.785   3.541  0.3506  0.4140 -2.1758
  949MOL0     H30934   8.718   6.673   3.714  0.7135 -1.9086 -3.4599
  949MOL0     H30935   8.762   6.808   3.602 -0.6604  0.7034 -3.2256
  949MOL0     H30936   8.591   6.828   3.841 -1.3166 -0.1059 -0.3479
  949MOL0     H30937   8.619   6.958   3.720  0.8226  1.3666  2.7952
  949MOL0     H30938   8.847   6.964   3.752  1.0647 -0.6626 -0.0539
  949MOL0     H30939   8.856   6.805   3.835  0.3032  0.5220  2.0230
  949MOL0     H30940   8.891   7.020   3.985 -2.0411  0.6092  1.9692
  949MOL0     H30941   8.767   6.898   4.031  1.1920 -0.6067  1.7323
  949MOL0     H30942   8.413   6.210   3.470 -0.7433  1.6922  0.5974
  949MOL0     H30943   8.312   6.016   3.567  0.6662  0.6283 -0.1290
  949MOL0     H30944   8.114   5.916   4.089 -1.4584 -2.2026  2.7096
  949MOL0     H30945   8.064   5.733   4.240  1.8874  1.8650  0.7467
  949MOL0     H30946   7.347   4.468   4.629 -0.7362  3.1322  0.6906
  949MOL0     H30947   7.210   4.403   4.430 -2.4592 -2.0953 -0.8210
  949MOL0     H30948   6.721   4.409   4.307 -0.1633 -0.9231  0.7506
  949MOL0     H30949   6.584   4.274   4.154 -2.3395  1.9987 -0.9383
  949MOL0     H30950   6.817   4.121   3.853 -0.1196  0.2823  1.7061
  949MOL0     H30951   6.664   4.030   3.860 -0.9183 -0.5261 -3.4079
  949MOL0     H30952   6.713   4.216   3.634  2.6278 -0.8212  1.0348
  949MOL0     H30953   6.558   4.135   3.661  0.2078  2.6947 -3.4778
  949MOL0     H30954   6.695   3.920   3.662  2.5087 -0.7446 -0.4396
  949MOL0     H30955   6.674   4.001   3.513 -0.9612  2.8777 -0.4045
  949MOL0     H30956   6.905   3.980   3.486 -3.1694  0.7522 -0.6283
  949MOL0     H30957   6.924   3.950   3.657  1.2310 -1.5415 -0.8463
  949MOL0     H30958   7.089   4.332   3.598 -2.2604  2.0227  4.0588
  949MOL0     H30959   6.863   4.367   3.832 -0.5735  0.5553 -0.6674
  949MOL0     H30960   7.056   4.589   3.977 -0.3288  0.1829 -0.3897
  949MOL0     H30961   7.139   4.444   4.023 -1.5698  0.2587  3.2689
  949MOL0     H30962   7.052   4.437   3.873  0.6002  0.8490  0.5193
  950MOL0     O30963   3.381   8.996   7.649 -0.2600 -0.5046  0.4570
  950MOL0     C30964   3.353   9.111   7.687  0.0648  0.0678  0.5538
  950MOL0     O30965   3.365   9.219   7.614 -0.1264 -0.3651 -0.1392
  950MOL0     C30966   3.427   9.247   7.494 -0.0263 -0.0666  0.5408
  950MOL0     C30967   3.489   9.148   7.408  0.0396  0.1863  0.5092
  950MOL0     C30968   3.525   9.188   7.279 -0.2719  0.3450  0.2100
  950MOL0     C30969   3.510   9.311   7.229  0.7787 -0.6446  0.6300
  950MOL0     O30970   3.562   9.350   7.107 -0.5235 -0.5183 -0.6959
  950MOL0     C30971   3.692   9.306   7.062  0.2951  0.9471  0.0823
  950MOL0     C30972   3.810   9.387   7.114  0.4566  0.0583 -1.0968
  950MOL0     C30973   3.797   9.539   7.109 -0.7616 -0.4707  0.1216
  950MOL0     C30974   3.909   9.616   7.183 -0.2003  0.0716 -0.3153
  950MOL0     C30975   3.884   9.770   7.164  0.2053 -0.3641  0.0043
  950MOL0     C30976   4.003   9.837   7.236 -0.4142  1.2072 -0.3792
  950MOL0     C30977   4.020   9.987   7.219 -0.2226 -0.0379  0.6425
  950MOL0     C30978   3.944  10.073   7.313 -0.1284 -1.1813 -0.1654
  950MOL0     N30979   3.911  10.212   7.272  0.0561 -0.0528  0.8528
  950MOL0     C30980   3.807  10.241   7.192  1.3171  0.3931  0.3010
  950MOL0     C30981   3.814  10.379   7.196 -0.6444 -0.8463  0.1794
  950MOL0     C30982   3.724  10.470   7.131 -0.0951 -0.3543 -1.1175
  950MOL0     C30983   3.609  10.521   7.226 -0.7393 -0.2301  0.1957
  950MOL0     C30984   3.514  10.408   7.253 -0.4914 -0.4866  0.2442
  950MOL0     C30985   3.397  10.461   7.333  0.1007  0.5750  0.0104
  950MOL0     O30986   3.436  10.473   7.471  0.8945 -0.5032 -0.0571
  950MOL0     C30987   3.336  10.492   7.568 -0.5743 -0.7221  0.1178
  950MOL0     C30988   3.201  10.521   7.544 -0.4870 -1.1897  0.4628
  950MOL0     C30989   3.108  10.532   7.649 -0.6785  0.0713 -0.2951
  950MOL0     C30990   2.960  10.551   7.629 -0.0016  1.2208 -0.5096
  950MOL0     C30991   3.154  10.501   7.783  1.0683  0.1022 -0.9733
  950MOL0     C30992   3.071  10.524   7.907  0.6811 -0.4213 -0.1080
  950MOL0     O30993   3.009  10.645   7.902  0.1134  0.0897  0.7370
  950MOL0     C30994   2.944  10.703   8.011 -0.9902  0.2233  0.1555
  950MOL0     C30995   2.826  10.769   7.996 -0.4913  0.0999  0.0676
  950MOL0     C30996   2.765  10.849   8.096 -0.4281 -0.3917  0.1773
  950MOL0     C30997   2.818  10.844   8.224  0.4350  0.2382 -0.4100
  950MOL0     O30998   2.759  10.885   8.344  0.4087  0.4570  0.1534
  950MOL0     C30999   2.629  10.944   8.350 -0.5995 -0.5720 -0.4572
  950MOL0     C31000   2.643  11.097   8.344  0.7192 -0.0479  0.4199
  950MOL0     C31001   2.502  11.164   8.338 -0.1023 -0.0326 -0.6396
  950MOL0     C31002   2.515  11.311   8.357  0.4921 -0.0092  0.0406
  950MOL0     C31003   2.377  11.384   8.357 -0.2992  0.9507 -0.0171
  950MOL0     C31004   2.384  11.531   8.379  0.4750  0.1560  0.1631
  950MOL0     C31005   2.441  11.624   8.268  0.3290 -0.3655  0.5849
  950MOL0     C31006   2.332  11.661   8.169  0.7848 -0.5393  0.1238
  950MOL0    Cl31007   2.383  11.821   8.123  0.5205 -0.6055  0.2283
  950MOL0     C31008   2.932  10.765   8.243 -0.5183  0.1079 -0.3441
  950MOL0     C31009   2.998  10.703   8.140  0.3481  0.2385  0.9501
  950MOL0     O31010   3.080  10.445   8.001  0.2314 -0.1455 -0.5932
  950MOL0     C31011   3.285  10.454   7.806  0.3027  0.3920  0.1916
  950MOL0     C31012   3.374  10.467   7.699  0.2783 -0.1089 -0.8312
  950MOL0     N31013   3.920  10.426   7.268 -0.2598  0.1241  0.2320
  950MOL0     N31014   3.977  10.329   7.314  0.5736  0.0136  0.1813
  950MOL0     C31015   3.454   9.413   7.317 -0.1086 -0.6010 -0.0517
  950MOL0     C31016   3.415   9.387   7.449  0.1615  0.6006 -0.4844
  950MOL0     C31017   3.282   9.127   7.821 -0.3177 -1.1397 -0.2863
  950MOL0     C31018   3.207   9.012   7.861 -0.8635 -0.3561  0.7057
  950MOL0     C31019   3.139   9.012   7.984 -0.5057  0.0823 -0.0733
  950MOL0     C31020   3.143   9.126   8.064 -0.5906  0.3711  0.0874
  950MOL0     O31021   3.075   9.128   8.181  0.4465 -0.6052 -0.0380
  950MOL0     C31022   3.012   9.007   8.226 -0.5975 -0.1036  0.1727
  950MOL0     C31023   2.955   9.041   8.359  0.2448  1.0137  0.1280
  950MOL0     C31024   2.912   8.909   8.446  0.2994 -0.3766 -0.3776
  950MOL0     C31025   2.881   8.945   8.585 -0.0073 -0.9524  0.8076
  950MOL0     C31026   2.782   9.054   8.599  0.1557  0.0751 -0.7589
  950MOL0     C31027   2.713   9.156   8.600 -0.5264 -0.0798 -1.1336
  950MOL0     C31028   3.221   9.235   8.030  0.0893  0.4428 -1.0279
  950MOL0     C31029   3.286   9.244   7.904 -0.1212  0.0661 -0.2264
  950MOL0     C31030   3.367   9.371   7.868  1.1159 -0.3298 -0.4572
  950MOL0     H31031   3.514   9.048   7.441 -0.5723 -0.7744 -1.7457
  950MOL0     H31032   3.572   9.108   7.223 -1.7051  1.7952 -3.3665
  950MOL0     H31033   3.698   9.306   6.953 -1.5342  4.3043 -0.1518
  950MOL0     H31034   3.703   9.200   7.088 -1.8934  0.2424 -1.5709
  950MOL0     H31035   3.799   9.373   7.222 -2.5854  1.6184 -1.1081
  950MOL0     H31036   3.906   9.347   7.080  1.8514  0.4934  1.9334
  950MOL0     H31037   3.818   9.570   7.006  4.2191  0.2320  1.0830
  950MOL0     H31038   3.698   9.569   7.146 -0.1558 -1.4222  2.7812
  950MOL0     H31039   3.912   9.585   7.288  1.2804 -2.9231 -1.1344
  950MOL0     H31040   3.997   9.596   7.122 -1.9296 -1.9881 -2.2973
  950MOL0     H31041   3.793   9.798   7.217 -1.0885 -1.0719 -1.7705
  950MOL0     H31042   3.886   9.801   7.059  0.8967  1.1250  0.4275
  950MOL0     H31043   4.001   9.810   7.342 -2.4790 -3.2068 -1.3406
  950MOL0     H31044   4.098   9.795   7.201 -0.5944  0.6069 -0.1540
  950MOL0     H31045   3.991  10.006   7.115  1.0632  1.7216  0.5463
  950MOL0     H31046   4.126  10.016   7.221 -0.1588 -0.1129 -0.6991
  950MOL0     H31047   3.849  10.020   7.326  1.1182 -3.2487  1.2246
  950MOL0     H31048   4.005  10.063   7.403 -2.7106 -1.6900  1.6291
  950MOL0     H31049   3.732  10.178   7.144  0.3502  1.3498  0.5142
  950MOL0     H31050   3.682  10.433   7.037 -0.5705 -1.1205 -0.6095
  950MOL0     H31051   3.781  10.558   7.100  0.5932  0.4070  1.9601
  950MOL0     H31052   3.648  10.562   7.319 -1.3428  4.1589 -1.2513
  950MOL0     H31053   3.560  10.605   7.175 -0.5270 -0.1057  0.1959
  950MOL0     H31054   3.483  10.370   7.155  2.5057 -2.4469 -0.0586
  950MOL0     H31055   3.553  10.319   7.301 -2.6212 -0.4567  2.2411
  950MOL0     H31056   3.360  10.555   7.290  1.5349  0.1640 -2.3178
  950MOL0     H31057   3.317  10.389   7.313  1.1914 -0.4232 -0.9326
  950MOL0     H31058   3.163  10.535   7.443  0.3381  3.0965  0.5418
  950MOL0     H31059   2.934  10.654   7.652 -2.8203  0.2516  1.1744
  950MOL0     H31060   2.916  10.479   7.699  3.9044 -0.4182  0.5413
  950MOL0     H31061   2.922  10.531   7.529 -0.4070  1.6674 -0.4491
  950MOL0     H31062   2.788  10.781   7.895 -3.3335 -2.0005  0.7517
  950MOL0     H31063   2.674  10.906   8.075 -0.5354 -0.3778  0.6642
  950MOL0     H31064   2.557  10.908   8.275 -2.2443 -0.2254  0.8940
  950MOL0     H31065   2.584  10.912   8.445 -2.7440 -0.5604 -1.4109
  950MOL0     H31066   2.704  11.132   8.428  0.2116 -2.8563  2.0998
  950MOL0     H31067   2.708  11.115   8.258  1.9281  3.4766  1.8778
  950MOL0     H31068   2.433  11.122   8.412 -1.7812  0.8007 -1.6792
  950MOL0     H31069   2.467  11.143   8.237  1.9698  0.3808 -1.4944
  950MOL0     H31070   2.574  11.350   8.273  1.3812 -0.8257  0.2802
  950MOL0     H31071   2.577  11.327   8.445 -1.9344 -0.4631  1.9441
  950MOL0     H31072   2.335  11.377   8.256 -0.7293  2.8846 -0.0212
  950MOL0     H31073   2.308  11.352   8.435 -0.6403 -0.1756 -0.7577
  950MOL0     H31074   2.450  11.546   8.465  1.1258 -1.2111 -0.0637
  950MOL0     H31075   2.285  11.555   8.420 -0.1050 -0.6748 -0.7048
  950MOL0     H31076   2.527  11.595   8.207 -0.7972  0.8318 -1.6669
  950MOL0     H31077   2.463  11.716   8.324 -1.0424  0.8474 -0.7789
  950MOL0     H31078   2.232  11.667   8.215  0.2864 -2.5453 -0.5875
  950MOL0     H31079   2.319  11.597   8.082  2.4218  2.4424 -2.5120
  950MOL0     H31080   2.979  10.760   8.341  1.5585  1.9967 -1.1597
  950MOL0     H31081   3.085  10.645   8.167 -0.9886 -1.5738  1.5661
  950MOL0     H31082   3.312  10.429   7.908 -0.3451 -0.2057  0.2303
  950MOL0     H31083   3.479  10.445   7.715  1.1164  2.0409 -2.8138
  950MOL0     H31084   3.446   9.514   7.280 -0.5953 -0.6070  0.0341
  950MOL0     H31085   3.375   9.463   7.516 -2.0391 -0.1147 -0.8779
  950MOL0     H31086   3.221   8.918   7.808  0.5032 -0.6429  1.5230
  950MOL0     H31087   3.094   8.917   8.010 -0.5791 -0.0757 -0.7597
  950MOL0     H31088   2.930   8.969   8.164 -1.9584  0.3037  1.6386
  950MOL0     H31089   3.090   8.931   8.225  0.3985  0.9042 -0.9495
  950MOL0     H31090   2.870   9.105   8.335  0.0865 -0.2739 -3.1757
  950MOL0     H31091   3.030   9.099   8.415  0.9363  3.3444 -2.9343
  950MOL0     H31092   2.827   8.860   8.399 -1.5731  4.2259 -2.4127
  950MOL0     H31093   3.001   8.846   8.446 -0.8011 -2.0346  1.1986
  950MOL0     H31094   2.972   8.982   8.635  0.6023  1.9312 -2.0691
  950MOL0     H31095   2.849   8.851   8.630 -0.2309 -0.5787  1.4543
  950MOL0     H31096   2.639   9.233   8.612 -2.5062 -1.6129 -2.7816
  950MOL0     H31097   3.218   9.322   8.095 -0.6329 -0.4067  0.1257
  950MOL0     H31098   3.358   9.407   7.766  0.7532  2.9992  0.6329
  950MOL0     H31099   3.333   9.447   7.939 -2.1542  0.6579 -2.8609
  950MOL0     H31100   3.476   9.364   7.878  1.3994  0.9561 -2.1860
  951MOL0     O31101   2.073   0.503   5.186  0.5020 -0.3821  0.4543
  951MOL0     C31102   2.096   0.380   5.167  0.5590  0.0101  0.1480
  951MOL0     O31103   2.210   0.326   5.113  0.0228 -0.9240 -1.0249
  951MOL0     C31104   2.273   0.396   5.012  0.6701 -0.8886  0.4037
  951MOL0     C31105   2.401   0.353   4.994 -0.0234  1.2555  0.1578
  951MOL0     C31106   2.483   0.397   4.892 -0.0061  0.5796  0.1089
  951MOL0     C31107   2.429   0.472   4.787 -0.2869 -0.0214 -1.4828
  951MOL0     O31108   2.502   0.526   4.679 -0.2120  0.8369 -0.0969
  951MOL0     C31109   2.644   0.502   4.671  0.3162  0.0638 -0.4691
  951MOL0     C31110   2.689   0.568   4.537 -0.0985 -0.0915 -0.4024
  951MOL0     C31111   2.646   0.486   4.411 -0.1411 -0.4452 -1.2940
  951MOL0     C31112   2.726   0.361   4.383  0.3664 -0.0587  0.4908
  951MOL0     C31113   2.665   0.292   4.270 -0.1106 -0.3744 -0.0768
  951MOL0     C31114   2.745   0.162   4.235 -0.2074 -0.5532  0.2041
  951MOL0     C31115   2.693   0.110   4.091 -0.7610  0.1015 -1.4359
  951MOL0     C31116   2.758  -0.023   4.040  0.1793  0.5901  0.3408
  951MOL0     N31117   2.906  -0.031   4.071 -0.3559 -0.0830  0.3414
  951MOL0     C31118   3.011   0.048   4.029 -1.5240  0.5467 -0.5313
  951MOL0     C31119   3.115   0.000   4.100 -0.2313 -0.5672 -0.1779
  951MOL0     C31120   3.249   0.074   4.100  0.3577 -0.7458 -0.6383
  951MOL0     C31121   3.235   0.199   4.176 -0.6455 -0.5694 -0.6128
  951MOL0     C31122   3.265   0.188   4.326 -0.4661 -0.5041 -0.6386
  951MOL0     C31123   3.252   0.329   4.405  0.6654  0.2441 -0.6165
  951MOL0     O31124   3.121   0.385   4.411 -0.6150  0.1706 -0.4003
  951MOL0     C31125   3.059   0.351   4.530 -0.2527  0.4823  0.2857
  951MOL0     C31126   3.063   0.436   4.647 -0.9399 -0.5145 -0.0665
  951MOL0     C31127   3.017   0.396   4.772  0.4003 -0.3567  0.9072
  951MOL0     C31128   3.043   0.496   4.884  0.3208  0.0577  0.2009
  951MOL0     C31129   2.944   0.275   4.773  0.4123 -0.6322  0.3359
  951MOL0     C31130   2.870   0.246   4.902  0.1289  0.0520 -0.8382
  951MOL0     O31131   2.923   0.289   5.024 -0.1989  0.3927 -0.5672
  951MOL0     C31132   2.854   0.286   5.141  0.2119 -0.2574 -0.3907
  951MOL0     C31133   2.770   0.174   5.180 -0.1124 -0.7860 -0.1022
  951MOL0     C31134   2.711   0.172   5.300 -0.6533  0.0960  0.1878
  951MOL0     C31135   2.717   0.277   5.389  0.7673  0.0565 -0.3592
  951MOL0     O31136   2.633   0.275   5.500 -0.2263 -0.7273 -0.1524
  951MOL0     C31137   2.505   0.337   5.471 -0.9262 -0.0170 -0.3760
  951MOL0     C31138   2.503   0.458   5.566  0.0257 -0.4308 -0.3375
  951MOL0     C31139   2.431   0.587   5.501  0.2574 -0.7462  0.7719
  951MOL0     C31140   2.355   0.664   5.608  0.7619  0.0936 -0.2620
  951MOL0     C31141   2.297   0.802   5.561  0.5364  0.2099 -1.0919
  951MOL0     C31142   2.257   0.873   5.679 -0.1976  0.4655 -0.9497
  951MOL0     C31143   2.367   0.954   5.736 -0.6068  0.2240 -0.3035
  951MOL0     C31144   2.313   1.049   5.848  0.1665  0.3144 -1.0864
  951MOL0    Cl31145   2.457   1.154   5.915  0.2357 -0.1738  0.2698
  951MOL0     C31146   2.795   0.394   5.358 -0.0184  0.7426  0.0302
  951MOL0     C31147   2.876   0.387   5.237  0.1590  0.1671  0.1285
  951MOL0     O31148   2.769   0.181   4.895  0.6672  0.4042  0.4053
  951MOL0     C31149   2.930   0.192   4.662 -0.1908 -0.0163 -0.2822
  951MOL0     C31150   2.994   0.230   4.540  0.7526  0.9320 -0.0232
  951MOL0     N31151   3.071  -0.098   4.186  0.3128  0.9584 -0.1641
  951MOL0     N31152   2.948  -0.123   4.157 -0.2266 -0.4004 -0.2167
  951MOL0     C31153   2.297   0.523   4.802 -0.0189  0.0990  0.6488
  951MOL0     C31154   2.214   0.480   4.910  0.4864 -0.2438  0.3942
  951MOL0     C31155   1.988   0.282   5.193  0.2699  0.2254 -0.5277
  951MOL0     C31156   1.857   0.329   5.186  0.7956  0.2765  0.6712
  951MOL0     C31157   1.749   0.238   5.215  0.4607 -0.2749 -0.4654
  951MOL0     C31158   1.764   0.103   5.235 -1.0130  0.5408  0.5403
  951MOL0     O31159   1.650   0.025   5.257  0.3806 -0.2349 -0.2102
  951MOL0     C31160   1.663  -0.111   5.261 -0.2473 -0.3305  1.3368
  951MOL0     C31161   1.712  -0.163   5.399 -0.3535 -0.0088 -0.0184
  951MOL0     C31162   1.611  -0.234   5.488 -0.2945 -0.2614  0.1261
  951MOL0     C31163   1.661  -0.257   5.629  0.8634 -0.5023  0.1154
  951MOL0     C31164   1.728  -0.386   5.644 -0.2266 -0.4707 -0.2897
  951MOL0     C31165   1.774  -0.492   5.663  0.9148 -0.1357 -0.8056
  951MOL0     C31166   1.896   0.065   5.241  0.0054  0.7671 -0.6994
  951MOL0     C31167   2.005   0.149   5.227  0.6774  0.2223  0.1503
  951MOL0     C31168   2.130   0.083   5.245 -0.1518  0.8318 -0.0983
  951MOL0     H31169   2.434   0.296   5.080 -1.3197  3.3081  2.1445
  951MOL0     H31170   2.585   0.359   4.889 -1.2724 -3.2623 -1.9219
  951MOL0     H31171   2.656   0.396   4.649  2.6794  0.6005 -2.2040
  951MOL0     H31172   2.691   0.533   4.766  1.1278 -0.1550 -0.7885
  951MOL0     H31173   2.648   0.670   4.537  1.3840  0.5346 -0.4114
  951MOL0     H31174   2.797   0.585   4.530 -0.1063  0.0011 -0.2875
  951MOL0     H31175   2.539   0.463   4.417 -0.2678 -0.1486 -2.2415
  951MOL0     H31176   2.665   0.549   4.324 -0.8699  0.8393 -0.5697
  951MOL0     H31177   2.832   0.381   4.363  0.5094 -2.3194 -1.3972
  951MOL0     H31178   2.718   0.292   4.466 -0.0870 -2.1690 -1.2213
  951MOL0     H31179   2.668   0.366   4.190 -0.3877  0.5704  0.7793
  951MOL0     H31180   2.558   0.275   4.284 -0.9494  2.4189 -2.1956
  951MOL0     H31181   2.852   0.182   4.226 -0.4002 -0.1387 -1.6532
  951MOL0     H31182   2.725   0.077   4.300  3.5794 -3.8826 -2.5263
  951MOL0     H31183   2.717   0.182   4.012  0.8129 -0.2011 -1.2623
  951MOL0     H31184   2.584   0.096   4.089 -0.8598  0.8832 -1.6326
  951MOL0     H31185   2.697  -0.106   4.076 -1.2014  0.9951 -0.9187
  951MOL0     H31186   2.747  -0.028   3.931 -2.8766  0.5420  0.5650
  951MOL0     H31187   3.025   0.129   3.958 -1.0591 -0.1733 -1.2849
  951MOL0     H31188   3.274   0.097   3.996 -0.6138  4.0516 -0.0778
  951MOL0     H31189   3.335   0.020   4.141  0.3187  0.1518  0.7164
  951MOL0     H31190   3.321   0.257   4.141 -0.4917 -1.1144 -1.1513
  951MOL0     H31191   3.145   0.251   4.143 -0.9183 -1.5596 -1.4558
  951MOL0     H31192   3.195   0.110   4.360  0.2165 -0.1870  1.6462
  951MOL0     H31193   3.368   0.152   4.329 -0.3747 -0.1474  0.8094
  951MOL0     H31194   3.283   0.307   4.507 -3.0853 -0.0493  0.6252
  951MOL0     H31195   3.317   0.405   4.361  0.7205  1.0787  0.8631
  951MOL0     H31196   3.115   0.530   4.634  0.6283 -1.3577 -0.2424
  951MOL0     H31197   2.946   0.521   4.928  0.4754  0.4672  0.3147
  951MOL0     H31198   3.082   0.594   4.853  1.5435  0.0518  1.5990
  951MOL0     H31199   3.115   0.453   4.954  1.3724  1.1969 -0.1203
  951MOL0     H31200   2.745   0.091   5.115 -0.9599 -0.7668  0.1900
  951MOL0     H31201   2.663   0.081   5.333  0.8302  0.0174  2.2827
  951MOL0     H31202   2.501   0.378   5.369 -0.1613 -0.2049 -0.4900
  951MOL0     H31203   2.428   0.260   5.481 -1.7094  0.8717  0.7158
  951MOL0     H31204   2.471   0.439   5.669  2.3921  1.8651  0.9635
  951MOL0     H31205   2.605   0.496   5.576  0.6599 -1.3414 -2.5816
  951MOL0     H31206   2.368   0.564   5.414  0.5153  1.4950 -0.0690
  951MOL0     H31207   2.505   0.660   5.466 -0.4544 -0.6398 -0.5808
  951MOL0     H31208   2.421   0.687   5.693  0.2284  0.1010  0.1548
  951MOL0     H31209   2.279   0.606   5.661  1.3330 -0.1952  0.2649
  951MOL0     H31210   2.371   0.866   5.510  0.7049  1.5439  0.7485
  951MOL0     H31211   2.215   0.785   5.491 -3.4552  2.9390  2.4961
  951MOL0     H31212   2.221   0.803   5.755  2.7715  0.8369  0.9782
  951MOL0     H31213   2.183   0.948   5.651  0.8413  0.9067 -2.7038
  951MOL0     H31214   2.418   1.014   5.659  1.1233  0.6177  1.0866
  951MOL0     H31215   2.436   0.874   5.763 -3.7286 -2.2412  1.0005
  951MOL0     H31216   2.256   1.000   5.927  1.7308  0.8461  0.4484
  951MOL0     H31217   2.248   1.112   5.786 -0.0444  0.4292 -0.7558
  951MOL0     H31218   2.808   0.478   5.425  0.5539  1.5062 -1.0123
  951MOL0     H31219   2.947   0.466   5.216  1.3422 -0.1690  2.4397
  951MOL0     H31220   2.855   0.115   4.669 -1.9422  1.6080 -0.4895
  951MOL0     H31221   3.001   0.165   4.454  1.5791  1.7064 -0.5604
  951MOL0     H31222   2.261   0.583   4.720  2.2624 -0.0146 -0.5302
  951MOL0     H31223   2.110   0.509   4.919  0.5837  0.0034  0.7303
  951MOL0     H31224   1.821   0.425   5.151 -3.1931 -2.1919 -3.1349
  951MOL0     H31225   1.647   0.275   5.211 -0.2013 -2.0934 -3.2701
  951MOL0     H31226   1.571  -0.162   5.231  1.7489 -2.7358 -1.3554
  951MOL0     H31227   1.736  -0.137   5.183  0.3802  3.0011  0.6918
  951MOL0     H31228   1.746  -0.074   5.453  1.3359  0.3872 -1.6311
  951MOL0     H31229   1.792  -0.234   5.377  1.0692  2.1404 -2.2803
  951MOL0     H31230   1.529  -0.163   5.500  0.0286 -0.0819  1.4969
  951MOL0     H31231   1.564  -0.329   5.460 -0.2642 -0.2794  0.1360
  951MOL0     H31232   1.571  -0.285   5.684  2.5114 -0.2138  3.1811
  951MOL0     H31233   1.717  -0.172   5.669  1.2556 -0.9121  0.4486
  951MOL0     H31234   1.848  -0.570   5.672  1.8242  0.8374  0.6491
  951MOL0     H31235   1.914  -0.037   5.274  0.0786  1.3679  1.2362
  951MOL0     H31236   2.114  -0.025   5.256  0.1985  0.7014 -0.7919
  951MOL0     H31237   2.195   0.094   5.157  2.9850  1.1601  2.1178
  951MOL0     H31238   2.181   0.109   5.338 -0.6552 -3.4575  1.6222
  952MOL0     O31239   6.969   5.383   9.331 -0.9577 -0.3243 -0.2851
  952MOL0     C31240   6.930   5.441   9.231 -1.0234  0.5418 -0.1121
  952MOL0     O31241   6.952   5.577   9.204 -0.2984 -0.6212  0.1770
  952MOL0     C31242   7.030   5.637   9.285 -0.2268 -0.4140  0.2950
  952MOL0     C31243   6.972   5.734   9.370 -0.3625  0.3313 -0.3630
  952MOL0     C31244   7.050   5.809   9.454 -0.3909 -0.4387 -0.8876
  952MOL0     C31245   7.188   5.790   9.457  0.2647 -0.6751 -0.4091
  952MOL0     O31246   7.260   5.858   9.556  0.1031  0.2249 -0.3623
  952MOL0     C31247   7.403   5.821   9.552 -0.2551 -0.1310 -0.3587
  952MOL0     C31248   7.462   5.885   9.681 -0.0613  0.0843 -0.5700
  952MOL0     C31249   7.615   5.892   9.684 -0.8127  1.3806 -0.2753
  952MOL0     C31250   7.678   5.895   9.824  0.3168 -0.0413  0.3034
  952MOL0     C31251   7.819   5.942   9.817 -0.6229  0.8442 -0.1662
  952MOL0     C31252   7.844   6.089   9.830  0.1320  0.8155 -0.1185
  952MOL0     C31253   7.989   6.122   9.810 -0.1318  0.7036  0.1556
  952MOL0     C31254   8.010   6.273   9.820  0.5154  0.3947 -0.2581
  952MOL0     N31255   8.155   6.294   9.817 -0.0971  0.2704 -1.1490
  952MOL0     C31256   8.235   6.314   9.711  0.0756  0.2709  1.9004
  952MOL0     C31257   8.355   6.357   9.753 -1.4169 -0.3404 -0.3434
  952MOL0     C31258   8.464   6.407   9.671  0.7063  0.0926  1.0050
  952MOL0     C31259   8.602   6.331   9.684  0.3736 -0.2616  0.8407
  952MOL0     C31260   8.603   6.191   9.641 -0.1340  0.5769  0.4027
  952MOL0     C31261   8.744   6.132   9.625 -0.6479  0.1152 -0.2536
  952MOL0     O31262   8.831   6.172   9.741 -0.1619  0.5307 -0.0441
  952MOL0     C31263   8.815   6.124   9.871 -0.4595  0.4032  0.1375
  952MOL0     C31264   8.888   6.198   9.971 -0.0693  0.2858  0.2246
  952MOL0     C31265   8.892   6.155  10.096 -0.4044 -0.1224  0.2601
  952MOL0     C31266   8.958   6.244  10.199  0.3533  0.0465 -0.2149
  952MOL0     C31267   8.821   6.039  10.132 -0.1698  0.2050 -0.6061
  952MOL0     C31268   8.824   5.993  10.273  0.6548 -1.2860 -0.1258
  952MOL0     O31269   8.939   5.982  10.348 -0.2037  0.1895  0.4045
  952MOL0     C31270   8.940   6.004  10.482  0.5375 -1.3957  1.0277
  952MOL0     C31271   8.880   6.120  10.538 -0.0750  0.8276 -0.4295
  952MOL0     C31272   8.897   6.163  10.674 -0.3644 -0.8256 -0.1529
  952MOL0     C31273   8.971   6.075  10.756 -0.4288  0.6727  0.0373
  952MOL0     O31274   9.007   6.113  10.879  0.4504 -0.4936 -0.2681
  952MOL0     C31275   8.930   6.060  10.991 -1.1711  0.6832 -0.1379
  952MOL0     C31276   8.834   6.179  11.031  0.5584 -0.6465 -0.0240
  952MOL0     C31277   8.747   6.143  11.145 -0.4015  1.0482  0.2818
  952MOL0     C31278   8.638   6.244  11.160 -0.3685 -0.5598  0.2323
  952MOL0     C31279   8.507   6.207  11.229  0.8786  0.0236 -0.2091
  952MOL0     C31280   8.441   6.335  11.266  1.0052  0.3787 -0.5324
  952MOL0     C31281   8.297   6.307  11.329 -0.8900  0.3001 -1.4023
  952MOL0     C31282   8.175   6.271  11.247 -0.5022 -0.6027 -0.0476
  952MOL0    Cl31283   8.170   6.094  11.208 -0.0142  0.4426 -0.2119
  952MOL0     C31284   9.044   5.966  10.702  0.1450  0.3703  1.5668
  952MOL0     C31285   9.029   5.930  10.561 -0.2246  0.0876 -1.1304
  952MOL0     O31286   8.714   6.002  10.320 -0.1842  0.1696 -0.1484
  952MOL0     C31287   8.738   5.971  10.046 -0.4883 -0.1324  0.0310
  952MOL0     C31288   8.731   6.015   9.910  0.3139  0.5224  0.0733
  952MOL0     N31289   8.354   6.344   9.890 -0.3108 -0.5809 -0.6703
  952MOL0     N31290   8.238   6.302   9.928  0.6329 -0.1888 -0.1025
  952MOL0     C31291   7.246   5.698   9.362 -0.0657  0.2065 -0.1309
  952MOL0     C31292   7.168   5.619   9.280  0.1479  0.5596 -0.6225
  952MOL0     C31293   6.878   5.359   9.112  0.8770  0.3113 -1.2162
  952MOL0     C31294   6.836   5.430   8.996 -0.3097  0.3310 -0.1231
  952MOL0     C31295   6.794   5.362   8.887 -0.6601 -0.2911  1.0798
  952MOL0     C31296   6.791   5.222   8.880  0.9163  0.4274 -0.3318
  952MOL0     O31297   6.765   5.161   8.763  0.1144  0.0101  0.0684
  952MOL0     C31298   6.636   5.090   8.761 -0.1221  0.7152  0.0273
  952MOL0     C31299   6.596   5.048   8.619  0.4467 -0.6341 -0.8980
  952MOL0     C31300   6.721   4.990   8.531  0.3548  0.4203  0.2970
  952MOL0     C31301   6.674   4.861   8.459 -0.0045  0.2411  0.0362
  952MOL0     C31302   6.611   4.902   8.334 -0.4222 -0.6014 -0.0628
  952MOL0     C31303   6.543   4.939   8.240  0.4138 -0.2131 -0.5815
  952MOL0     C31304   6.828   5.148   8.993 -0.6139  0.5061 -0.9484
  952MOL0     C31305   6.871   5.216   9.114 -0.5531 -0.7089  0.0684
  952MOL0     C31306   6.895   5.132   9.236  0.4539  0.1453  0.5964
  952MOL0     H31307   6.865   5.744   9.359 -0.4627  3.1068  1.9096
  952MOL0     H31308   7.012   5.887   9.519  0.3572 -1.8486  1.3840
  952MOL0     H31309   7.466   5.856   9.469 -1.1254 -0.6591 -1.2635
  952MOL0     H31310   7.420   5.713   9.563 -0.3615 -0.0324  0.9935
  952MOL0     H31311   7.423   5.986   9.689  0.4197  0.2572 -0.3507
  952MOL0     H31312   7.424   5.822   9.762 -1.9972  1.8282 -0.0403
  952MOL0     H31313   7.659   5.811   9.625  2.1703  1.5001  1.5769
  952MOL0     H31314   7.642   5.987   9.638  2.1876 -0.0631 -1.8087
  952MOL0     H31315   7.613   5.952   9.891  0.0742  1.0012 -0.7961
  952MOL0     H31316   7.678   5.790   9.856  1.9916 -0.1383  0.0466
  952MOL0     H31317   7.867   5.905   9.726 -1.5730  2.2207 -1.2657
  952MOL0     H31318   7.875   5.893   9.898  0.8578 -1.2540 -2.3124
  952MOL0     H31319   7.775   6.132   9.757 -3.8734 -2.2295  1.5368
  952MOL0     H31320   7.825   6.134   9.928  1.9908 -1.2639  1.3134
  952MOL0     H31321   8.020   6.087   9.711 -0.5191  1.4132 -0.2285
  952MOL0     H31322   8.052   6.080   9.888  0.9720  0.2383 -0.9718
  952MOL0     H31323   7.978   6.326   9.729  2.4129  2.0119 -0.0678
  952MOL0     H31324   7.970   6.321   9.909  2.1318 -0.6034  1.0654
  952MOL0     H31325   8.204   6.290   9.610 -2.1360 -1.8056  2.9622
  952MOL0     H31326   8.480   6.513   9.690 -0.8758  0.6821 -0.6341
  952MOL0     H31327   8.425   6.408   9.569  0.3637  1.8869  1.1257
  952MOL0     H31328   8.669   6.382   9.614  1.0192 -3.0525 -0.7267
  952MOL0     H31329   8.643   6.346   9.784  0.8461  1.2825  0.4466
  952MOL0     H31330   8.541   6.133   9.710  0.4068 -0.7292 -0.1797
  952MOL0     H31331   8.564   6.171   9.541  2.4224 -0.8979 -0.4168
  952MOL0     H31332   8.739   6.024   9.613 -2.0037  0.3181 -2.0331
  952MOL0     H31333   8.798   6.181   9.543  1.4935 -1.9731 -0.1979
  952MOL0     H31334   8.933   6.283   9.921 -1.0113 -0.2207 -1.5661
  952MOL0     H31335   8.961   6.347  10.163 -1.9017 -0.4126 -1.9692
  952MOL0     H31336   9.063   6.216  10.211 -0.0630 -1.7330 -0.3355
  952MOL0     H31337   8.903   6.242  10.294 -0.5968 -1.4444 -0.7581
  952MOL0     H31338   8.815   6.184  10.479 -1.8425 -1.5947 -1.2526
  952MOL0     H31339   8.846   6.251  10.713  1.8262  0.5120 -0.1699
  952MOL0     H31340   8.881   5.966  10.964 -0.9150  0.9695 -1.6730
  952MOL0     H31341   9.008   6.050  11.067 -0.1391  1.1103 -1.1057
  952MOL0     H31342   8.892   6.269  11.057  0.7056  0.3923 -3.4419
  952MOL0     H31343   8.774   6.195  10.941  0.4614 -1.7111 -0.1564
  952MOL0     H31344   8.801   6.134  11.240  1.7240  0.2221 -0.9478
  952MOL0     H31345   8.690   6.051  11.126 -0.4736  1.1411  0.0483
  952MOL0     H31346   8.617   6.282  11.059 -0.6236  1.1580  0.9014
  952MOL0     H31347   8.686   6.327  11.211  0.4164 -0.6497 -0.3349
  952MOL0     H31348   8.439   6.155  11.160 -0.5754  1.7731 -0.1811
  952MOL0     H31349   8.522   6.150  11.321 -2.8213  1.0298  1.2070
  952MOL0     H31350   8.432   6.402  11.181  3.3411 -0.6845 -1.7050
  952MOL0     H31351   8.505   6.373  11.345  0.6596 -1.7314  0.8688
  952MOL0     H31352   8.275   6.393  11.393  1.5914 -2.2885  3.4999
  952MOL0     H31353   8.311   6.230  11.406 -0.5258  3.1088  1.5515
  952MOL0     H31354   8.172   6.333  11.157  0.3359  0.1868  0.4425
  952MOL0     H31355   8.084   6.311  11.294 -1.6226  0.5222 -2.9429
  952MOL0     H31356   9.111   5.916  10.772  0.5561  2.5239  2.7861
  952MOL0     H31357   9.077   5.845  10.513 -0.0081  0.2399 -1.1869
  952MOL0     H31358   8.678   5.889  10.083 -3.8222  2.1474  0.1688
  952MOL0     H31359   8.665   5.954   9.849 -0.2810 -2.6120  3.4534
  952MOL0     H31360   7.354   5.706   9.357  0.1382  1.7218  3.5957
  952MOL0     H31361   7.220   5.562   9.204 -2.8512 -0.3794 -2.1085
  952MOL0     H31362   6.849   5.537   8.994  0.3844  0.3607  2.3554
  952MOL0     H31363   6.768   5.428   8.806 -1.0009  1.9934  2.9330
  952MOL0     H31364   6.650   5.000   8.823  1.9777  1.4902  0.7718
  952MOL0     H31365   6.539   5.128   8.793 -1.3068 -3.6254  2.5443
  952MOL0     H31366   6.548   5.136   8.576 -3.6254 -0.7904  2.6043
  952MOL0     H31367   6.521   4.971   8.638 -0.2580 -0.6087 -3.2783
  952MOL0     H31368   6.752   5.068   8.462  0.5375 -1.0071 -1.2938
  952MOL0     H31369   6.799   4.962   8.603  2.1375 -1.8069 -2.3169
  952MOL0     H31370   6.618   4.790   8.521  3.3913 -1.6372  1.2164
  952MOL0     H31371   6.769   4.818   8.427 -0.9730 -2.5979  0.6212
  952MOL0     H31372   6.493   4.950   8.146 -0.5686 -0.0483 -0.0573
  952MOL0     H31373   6.834   5.040   8.988 -2.7001  0.3706 -1.3496
  952MOL0     H31374   7.002   5.139   9.258  0.3759  0.7235  0.7921
  952MOL0     H31375   6.827   5.164   9.316 -0.4765 -2.8579  1.1308
  952MOL0     H31376   6.864   5.030   9.208  0.9434  0.5625 -1.6350
  953MOL0     O31377   5.590   0.293   5.697 -0.0967  1.0432  1.0166
  953MOL0     C31378   5.673   0.348   5.630 -0.1180  0.3687 -0.0610
  953MOL0     O31379   5.742   0.460   5.670 -0.2987  0.5826  0.3123
  953MOL0     C31380   5.712   0.546   5.769  0.8920  0.4323 -0.7210
  953MOL0     C31381   5.581   0.570   5.809  0.1037 -0.0781 -0.9549
  953MOL0     C31382   5.559   0.655   5.917 -0.4399 -0.0757 -1.0926
  953MOL0     C31383   5.664   0.711   5.992 -0.6287 -0.3146  0.4921
  953MOL0     O31384   5.613   0.800   6.083 -0.1355  0.3834 -0.2235
  953MOL0     C31385   5.706   0.851   6.180 -0.8044  0.4501 -0.8880
  953MOL0     C31386   5.641   0.969   6.268 -0.0460 -0.3992 -0.3424
  953MOL0     C31387   5.751   1.038   6.344 -0.3995 -0.5452  0.4104
  953MOL0     C31388   5.720   1.177   6.401 -0.2962 -0.7573 -0.9859
  953MOL0     C31389   5.844   1.267   6.419 -0.1329  0.0341  0.4316
  953MOL0     C31390   5.887   1.343   6.289  0.6753 -0.3416  0.0742
  953MOL0     C31391   6.001   1.437   6.314 -0.2011  0.1669 -0.0794
  953MOL0     C31392   6.060   1.492   6.174 -0.1651  0.8470 -0.0181
  953MOL0     N31393   6.085   1.390   6.062  0.6688 -1.2690 -0.1899
  953MOL0     C31394   5.998   1.350   5.958  0.8218 -1.3450  0.1333
  953MOL0     C31395   6.065   1.262   5.883  0.7221  0.8243  0.3529
  953MOL0     C31396   6.009   1.179   5.763 -0.2358 -0.4481 -1.1563
  953MOL0     C31397   6.024   1.258   5.636  0.0064 -0.1303  0.7276
  953MOL0     C31398   5.986   1.406   5.637 -0.3427  0.1413 -0.5026
  953MOL0     C31399   5.985   1.461   5.500 -0.6095 -0.0615  0.6506
  953MOL0     O31400   5.946   1.600   5.510  0.0735 -0.0762  0.1627
  953MOL0     C31401   6.025   1.692   5.447  0.4566  0.8624 -0.8874
  953MOL0     C31402   6.054   1.797   5.537 -0.2346  0.5285  0.3639
  953MOL0     C31403   6.154   1.895   5.512  0.4742 -0.0878 -0.1035
  953MOL0     C31404   6.170   2.007   5.607 -0.1787  0.1059 -0.5249
  953MOL0     C31405   6.226   1.886   5.393  0.0101 -0.5233  0.0161
  953MOL0     C31406   6.330   1.986   5.359 -0.4088  0.0295  0.7977
  953MOL0     O31407   6.464   1.954   5.366  0.4350  0.9713  0.9039
  953MOL0     C31408   6.554   2.044   5.320  0.2371  1.2040  0.5913
  953MOL0     C31409   6.650   2.098   5.408 -0.4136  0.4731 -0.6777
  953MOL0     C31410   6.753   2.175   5.364 -1.2193 -0.0383  0.8075
  953MOL0     C31411   6.772   2.194   5.227  1.4602 -0.2075 -0.5872
  953MOL0     O31412   6.888   2.256   5.192 -0.1998 -0.0438 -0.8874
  953MOL0     C31413   6.919   2.278   5.059 -0.0912  0.3908  0.5426
  953MOL0     C31414   7.001   2.159   5.005  0.0604 -0.6297 -0.3413
  953MOL0     C31415   6.999   2.164   4.848  0.1348  0.3556  0.1854
  953MOL0     C31416   7.081   2.053   4.770  0.5580 -1.3669  0.4596
  953MOL0     C31417   7.019   2.023   4.635  0.8077 -1.0272  0.2714
  953MOL0     C31418   7.113   1.948   4.536  0.2856  0.0931 -0.5736
  953MOL0     C31419   7.053   1.888   4.406  0.0328 -0.4353 -0.0610
  953MOL0     C31420   6.971   1.761   4.425 -0.7928 -0.7714 -0.0654
  953MOL0    Cl31421   6.964   1.675   4.262 -0.4222 -0.0976 -0.1593
  953MOL0     C31422   6.677   2.145   5.135  0.6853 -0.2176  0.4938
  953MOL0     C31423   6.561   2.079   5.188 -0.3094  1.2442 -0.2021
  953MOL0     O31424   6.292   2.094   5.316 -0.3995 -0.0154 -0.4534
  953MOL0     C31425   6.200   1.785   5.302 -0.7528  0.6756  0.6512
  953MOL0     C31426   6.108   1.684   5.334  0.0779 -0.8439  0.3313
  953MOL0     N31427   6.182   1.238   5.943 -0.2721  0.6196 -0.2547
  953MOL0     N31428   6.203   1.319   6.042 -0.0715  0.1689 -0.3329
  953MOL0     C31429   5.799   0.666   5.961  0.2814 -0.3653  0.4614
  953MOL0     C31430   5.822   0.580   5.850 -0.9738  0.1435  1.0605
  953MOL0     C31431   5.695   0.272   5.508  0.2644 -0.5429  0.0940
  953MOL0     C31432   5.588   0.225   5.429  0.0247  0.2973 -0.1875
  953MOL0     C31433   5.601   0.176   5.300 -0.8828  0.2817 -0.3216
  953MOL0     C31434   5.725   0.161   5.245 -0.2346 -0.3959  0.1982
  953MOL0     O31435   5.747   0.126   5.111  0.9851  0.7399  0.3235
  953MOL0     C31436   5.646   0.053   5.037  0.3782  0.0784 -0.3258
  953MOL0     C31437   5.661  -0.095   5.053  0.4824  0.1645 -0.2623
  953MOL0     C31438   5.533  -0.160   5.009  0.0279 -0.1161  0.0544
  953MOL0     C31439   5.546  -0.311   5.013  0.3287  0.9592  0.0984
  953MOL0     C31440   5.601  -0.364   5.147  0.5315 -0.0315  0.1695
  953MOL0     C31441   5.655  -0.414   5.246  0.0673  0.4585  0.2061
  953MOL0     C31442   5.833   0.198   5.325  0.1219  0.9362  0.9888
  953MOL0     C31443   5.819   0.255   5.448  0.2091 -1.1048 -0.7011
  953MOL0     C31444   5.948   0.296   5.517 -0.2888  0.6862  0.3642
  953MOL0     H31445   5.491   0.530   5.763  0.1460 -3.3794  1.4666
  953MOL0     H31446   5.461   0.682   5.953 -0.5805 -2.2435  0.3288
  953MOL0     H31447   5.803   0.880   6.138 -0.8397  1.8608 -0.0504
  953MOL0     H31448   5.713   0.777   6.261 -4.0429  1.5726  0.5740
  953MOL0     H31449   5.588   1.040   6.203 -0.0333  2.7353  2.7930
  953MOL0     H31450   5.570   0.923   6.338  1.1588 -0.7117  0.7008
  953MOL0     H31451   5.777   0.976   6.430 -0.7571  0.0629  0.9761
  953MOL0     H31452   5.839   1.044   6.281 -0.7835  1.2447 -0.0204
  953MOL0     H31453   5.660   1.228   6.324  0.3983 -0.4894 -1.3639
  953MOL0     H31454   5.672   1.164   6.498  1.7275 -1.6243 -0.0690
  953MOL0     H31455   5.930   1.214   6.462  0.3067 -0.7759 -1.3726
  953MOL0     H31456   5.815   1.347   6.488  0.8954  1.4705 -0.7574
  953MOL0     H31457   5.913   1.268   6.214 -0.0760 -2.4410  1.8243
  953MOL0     H31458   5.796   1.393   6.254  1.0063 -0.5641 -1.1616
  953MOL0     H31459   6.082   1.387   6.369 -0.8807 -0.6566  0.1869
  953MOL0     H31460   5.964   1.525   6.367  1.9639  2.7468 -2.5349
  953MOL0     H31461   5.984   1.567   6.151  1.6417  2.8920  0.3071
  953MOL0     H31462   6.158   1.539   6.187  0.0808  0.3681 -0.1356
  953MOL0     H31463   5.894   1.374   5.940 -0.2652 -2.8834  3.5949
  953MOL0     H31464   5.904   1.162   5.789 -0.1288 -1.7084 -1.4488
  953MOL0     H31465   6.053   1.079   5.751 -1.2843 -1.8166  3.9774
  953MOL0     H31466   6.123   1.255   5.590 -0.0408  0.7562  0.5630
  953MOL0     H31467   5.970   1.205   5.557  3.3898  3.5420 -4.7649
  953MOL0     H31468   5.882   1.420   5.671 -1.2964 -2.5966 -1.9596
  953MOL0     H31469   6.054   1.460   5.704 -0.7242  1.3462 -1.0648
  953MOL0     H31470   6.083   1.458   5.451 -0.6562  1.4821  0.3982
  953MOL0     H31471   5.917   1.406   5.436 -0.6898 -0.1775  0.8351
  953MOL0     H31472   5.992   1.815   5.624 -2.4891  2.6506 -1.5229
  953MOL0     H31473   6.170   1.983   5.714  1.2915  4.0197  0.5312
  953MOL0     H31474   6.106   2.091   5.579  1.8478  0.2969 -5.6843
  953MOL0     H31475   6.270   2.050   5.597  1.2114 -2.4532  1.2217
  953MOL0     H31476   6.632   2.070   5.512  0.9697  0.3630 -0.4501
  953MOL0     H31477   6.822   2.219   5.435 -0.4840  0.1773 -0.0312
  953MOL0     H31478   6.835   2.295   4.991 -0.3809 -1.6391  0.3094
  953MOL0     H31479   6.982   2.367   5.068  1.2010 -0.6384  6.7720
  953MOL0     H31480   7.096   2.139   5.056  1.5512  1.7752 -1.9821
  953MOL0     H31481   6.943   2.077   5.047 -1.8078  0.2323 -1.1380
  953MOL0     H31482   7.038   2.256   4.803  2.3331 -1.2558 -1.4201
  953MOL0     H31483   6.893   2.153   4.822 -0.2562  0.7619  1.5345
  953MOL0     H31484   7.082   1.964   4.833 -1.3449 -0.6701  1.5355
  953MOL0     H31485   7.180   2.099   4.755  0.2678 -0.2947  1.6845
  953MOL0     H31486   6.930   1.962   4.648  0.9607 -1.4346 -0.5072
  953MOL0     H31487   6.991   2.116   4.585  2.9304  0.2740  1.3359
  953MOL0     H31488   7.164   1.866   4.587 -0.3895 -3.3129 -4.8730
  953MOL0     H31489   7.188   2.019   4.501 -0.2662  1.7750  1.3990
  953MOL0     H31490   7.138   1.876   4.340 -1.1716  0.3556 -1.8183
  953MOL0     H31491   6.994   1.966   4.357 -0.9486  0.5640  2.5035
  953MOL0     H31492   6.866   1.769   4.455 -1.3026 -1.1900 -1.6483
  953MOL0     H31493   7.009   1.678   4.485 -0.6784 -0.9281 -0.3477
  953MOL0     H31494   6.681   2.164   5.028 -1.9168 -2.5883 -0.1260
  953MOL0     H31495   6.482   2.037   5.126 -0.9688  0.5703  1.0710
  953MOL0     H31496   6.257   1.772   5.210  1.4541 -2.9200  2.3103
  953MOL0     H31497   6.107   1.594   5.273  1.9403 -0.7019  0.0362
  953MOL0     H31498   5.880   0.711   6.017  1.5932 -0.5527 -1.1882
  953MOL0     H31499   5.918   0.559   5.803 -1.4716  1.8973 -0.8864
  953MOL0     H31500   5.483   0.222   5.456  0.0870 -0.8928 -0.0446
  953MOL0     H31501   5.509   0.146   5.251 -1.7237  0.6833  0.9564
  953MOL0     H31502   5.546   0.094   5.054  0.5504  0.4300 -0.1442
  953MOL0     H31503   5.656   0.074   4.930 -3.6999 -0.8135 -1.0361
  953MOL0     H31504   5.679  -0.126   5.156  3.6817  1.0820 -0.4381
  953MOL0     H31505   5.749  -0.120   4.993  0.5295 -0.7927  0.1919
  953MOL0     H31506   5.441  -0.127   5.056 -0.9038 -4.6065  1.9723
  953MOL0     H31507   5.516  -0.132   4.905 -0.7512 -0.1816  0.1591
  953MOL0     H31508   5.599  -0.355   4.928 -2.9837 -0.2789 -1.4899
  953MOL0     H31509   5.450  -0.356   4.987  0.9757  0.1630 -0.9995
  953MOL0     H31510   5.704  -0.456   5.331  0.7308  1.4699  0.3383
  953MOL0     H31511   5.920   0.202   5.260 -0.9645  0.3137 -0.5604
  953MOL0     H31512   5.961   0.403   5.536 -0.3722  0.3575  2.6235
  953MOL0     H31513   5.963   0.250   5.616  0.9267  0.0590 -0.0929
  953MOL0     H31514   6.034   0.257   5.462 -0.4421  2.9724 -1.6738
  954MOL0     O31515   4.190   7.278   6.865  0.4080  0.1264  0.1787
  954MOL0     C31516   4.180   7.170   6.807 -0.2316 -0.3150 -0.0879
  954MOL0     O31517   4.190   7.150   6.670  0.2031  0.3227  0.1393
  954MOL0     C31518   4.191   7.267   6.595  0.5502  0.1569  0.8931
  954MOL0     C31519   4.082   7.367   6.595 -0.3925  0.3827  0.4415
  954MOL0     C31520   4.077   7.473   6.509  0.0574 -0.3121 -0.6430
  954MOL0     C31521   4.181   7.486   6.417 -0.4124 -0.0288 -0.1413
  954MOL0     O31522   4.202   7.584   6.323 -0.1357 -0.7300  0.0716
  954MOL0     C31523   4.148   7.718   6.346 -0.3798  0.4509  0.0530
  954MOL0     C31524   4.237   7.823   6.290 -0.0304 -0.7636 -0.5114
  954MOL0     C31525   4.380   7.828   6.353 -0.9810  0.2965 -0.1285
  954MOL0     C31526   4.465   7.911   6.261 -1.0440  0.0540  0.6216
  954MOL0     C31527   4.612   7.918   6.311 -0.6447 -0.4840 -0.0109
  954MOL0     C31528   4.708   8.017   6.241  0.1163 -0.0338  0.6846
  954MOL0     C31529   4.758   7.978   6.098  1.1407 -0.0394  0.3595
  954MOL0     C31530   4.874   8.062   6.048  1.1129  0.9196 -0.0664
  954MOL0     N31531   4.840   8.208   6.047 -0.3106  0.2974 -0.4647
  954MOL0     C31532   4.748   8.263   5.959 -0.2705 -0.7283  0.5031
  954MOL0     C31533   4.728   8.390   6.012 -0.7444 -0.0314  0.0266
  954MOL0     C31534   4.647   8.493   5.950  0.2643 -0.7764 -1.0210
  954MOL0     C31535   4.499   8.488   5.984 -0.2421  0.0047  0.6041
  954MOL0     C31536   4.455   8.601   6.083  0.1487  0.3380  0.9554
  954MOL0     C31537   4.311   8.589   6.113 -0.2592  0.3572  1.0497
  954MOL0     O31538   4.268   8.704   6.186 -0.2475 -0.5885 -0.8206
  954MOL0     C31539   4.144   8.694   6.245  0.6378  0.7238 -0.4451
  954MOL0     C31540   4.025   8.665   6.180 -0.2883  0.0758 -1.0786
  954MOL0     C31541   3.901   8.666   6.246 -0.4567  0.2870  0.5352
  954MOL0     C31542   3.773   8.629   6.173  0.4176 -0.0134  0.8555
  954MOL0     C31543   3.906   8.672   6.390  0.3362 -0.0757 -0.2633
  954MOL0     C31544   3.776   8.654   6.480 -0.6313 -1.6848 -0.2229
  954MOL0     O31545   3.655   8.609   6.424 -0.7860 -0.3523 -0.3680
  954MOL0     C31546   3.557   8.604   6.519 -0.4400  0.3136 -0.1110
  954MOL0     C31547   3.567   8.506   6.619 -0.2258  0.5079 -0.6316
  954MOL0     C31548   3.475   8.498   6.722  0.1835  0.1850  0.4501
  954MOL0     C31549   3.373   8.590   6.729  0.1155 -0.0336  0.4200
  954MOL0     O31550   3.273   8.559   6.815  0.0035 -0.4359  0.1217
  954MOL0     C31551   3.168   8.485   6.759  0.3593 -0.4348  1.2938
  954MOL0     C31552   3.056   8.458   6.865  0.1355  0.6441  0.5736
  954MOL0     C31553   3.114   8.413   7.003 -0.6148 -0.2195 -0.8231
  954MOL0     C31554   3.208   8.288   7.002  0.3871 -0.7098 -0.6367
  954MOL0     C31555   3.255   8.250   7.149  0.1174  0.1836  0.7330
  954MOL0     C31556   3.337   8.130   7.160  0.0497  0.2520  0.2357
  954MOL0     C31557   3.339   8.087   7.304 -0.1107 -0.4813 -1.1179
  954MOL0     C31558   3.439   7.973   7.358 -0.4528 -0.0498  0.5868
  954MOL0    Cl31559   3.432   7.833   7.253  0.0715 -0.1108 -0.4464
  954MOL0     C31560   3.364   8.684   6.629 -0.4124  0.0263 -0.2951
  954MOL0     C31561   3.453   8.695   6.527 -0.4525 -0.2280 -0.2050
  954MOL0     O31562   3.800   8.692   6.596 -0.2010  0.8125  0.2322
  954MOL0     C31563   4.033   8.693   6.451 -0.1591 -0.0414 -0.7648
  954MOL0     C31564   4.148   8.710   6.382  0.0298  0.3868  0.3940
  954MOL0     N31565   4.805   8.410   6.125 -0.1322 -0.1468 -0.0018
  954MOL0     N31566   4.870   8.298   6.145  0.6164 -0.0246  0.0041
  954MOL0     C31567   4.274   7.383   6.408  0.3178  0.2482  0.1573
  954MOL0     C31568   4.279   7.272   6.487  0.5262  0.7859  0.9052
  954MOL0     C31569   4.148   7.056   6.905  0.0222 -0.1967 -0.1876
  954MOL0     C31570   4.083   7.091   7.031  0.4169  0.3670 -0.6459
  954MOL0     C31571   4.026   6.995   7.114 -0.2020  1.1168 -1.6097
  954MOL0     C31572   4.024   6.863   7.074 -2.1515 -0.7064  0.9878
  954MOL0     O31573   3.973   6.755   7.134  0.0158  1.3495 -0.3066
  954MOL0     C31574   3.873   6.774   7.237 -0.6119 -0.1792 -0.4275
  954MOL0     C31575   3.795   6.649   7.261  1.2880  1.0305  0.3204
  954MOL0     C31576   3.882   6.533   7.305  0.1175  0.3778 -0.4772
  954MOL0     C31577   3.809   6.402   7.343 -0.1007 -0.3080  0.8596
  954MOL0     C31578   3.760   6.410   7.484 -0.3228  0.4532 -0.8169
  954MOL0     C31579   3.703   6.428   7.591  0.6878 -0.1270  0.8528
  954MOL0     C31580   4.090   6.833   6.949 -0.6895  0.0285  0.0440
  954MOL0     C31581   4.149   6.921   6.868  0.5585  1.2311  0.1538
  954MOL0     C31582   4.252   6.883   6.760  0.3027 -0.7530  0.5375
  954MOL0     H31583   4.007   7.352   6.672  2.0570 -0.2853  2.8840
  954MOL0     H31584   3.995   7.543   6.500 -2.8100 -3.2140  0.5991
  954MOL0     H31585   4.139   7.733   6.454 -1.6329 -1.5181  0.2697
  954MOL0     H31586   4.046   7.722   6.307 -0.6855 -1.6197  0.4898
  954MOL0     H31587   4.246   7.806   6.183  1.6744 -3.3658 -0.0673
  954MOL0     H31588   4.189   7.921   6.302  4.1973  1.6575 -1.3717
  954MOL0     H31589   4.384   7.875   6.452  2.3900  0.7523 -0.3463
  954MOL0     H31590   4.427   7.731   6.371 -1.6680  0.4204  3.0445
  954MOL0     H31591   4.472   7.879   6.156 -0.8523  0.1816  0.5954
  954MOL0     H31592   4.432   8.014   6.251  0.1837  0.2603 -3.0835
  954MOL0     H31593   4.650   7.816   6.310  0.0497 -0.2594  1.3397
  954MOL0     H31594   4.614   7.945   6.418  0.2689  2.2305 -0.6198
  954MOL0     H31595   4.648   8.105   6.214  0.5384 -0.3725 -1.5288
  954MOL0     H31596   4.788   8.049   6.309 -0.9926  1.6531  1.2821
  954MOL0     H31597   4.685   7.992   6.017  1.5879  0.1128 -0.0266
  954MOL0     H31598   4.773   7.870   6.110 -2.4764 -0.3952  3.9323
  954MOL0     H31599   4.965   8.030   6.099  0.2875 -3.4950 -0.9640
  954MOL0     H31600   4.892   8.021   5.948  2.7386 -0.0010  0.5712
  954MOL0     H31601   4.714   8.213   5.870  3.9025 -2.8021 -0.2010
  954MOL0     H31602   4.659   8.469   5.844 -1.2249 -5.4157 -0.3641
  954MOL0     H31603   4.677   8.596   5.972 -1.9406 -0.5802  1.6279
  954MOL0     H31604   4.435   8.487   5.896  1.6274  2.0304 -0.8706
  954MOL0     H31605   4.474   8.396   6.038  0.6041  0.1416  1.2597
  954MOL0     H31606   4.511   8.601   6.177 -0.8816  0.9012  1.5859
  954MOL0     H31607   4.475   8.700   6.040 -0.5148 -0.1919 -0.6336
  954MOL0     H31608   4.255   8.582   6.019  3.3668 -1.4502 -1.1856
  954MOL0     H31609   4.292   8.494   6.165  1.2913 -0.0796  0.8552
  954MOL0     H31610   4.024   8.657   6.072 -2.9202  2.3753 -1.3328
  954MOL0     H31611   3.727   8.533   6.201 -2.0469  0.5267 -1.0005
  954MOL0     H31612   3.794   8.609   6.068  0.0440 -0.2267  0.8190
  954MOL0     H31613   3.692   8.701   6.187  0.1564 -0.4563  1.7102
  954MOL0     H31614   3.642   8.428   6.608  0.5217  0.7016  2.2493
  954MOL0     H31615   3.473   8.410   6.786 -2.0167 -0.8889 -0.9879
  954MOL0     H31616   3.125   8.534   6.672  1.3975  1.2292  1.6773
  954MOL0     H31617   3.200   8.390   6.716 -0.5114  0.5091 -1.6666
  954MOL0     H31618   2.997   8.548   6.883 -0.5090  0.8197 -2.0656
  954MOL0     H31619   2.990   8.382   6.822 -1.8003  1.8090  1.3628
  954MOL0     H31620   3.037   8.400   7.080  0.6874 -0.2997  0.5347
  954MOL0     H31621   3.186   8.490   7.031  1.2960 -1.3725 -2.3268
  954MOL0     H31622   3.298   8.301   6.941  4.2108 -2.8317  3.9787
  954MOL0     H31623   3.165   8.199   6.955 -0.3072 -0.9984  0.5128
  954MOL0     H31624   3.300   8.332   7.206  0.4320  2.8820 -3.0248
  954MOL0     H31625   3.160   8.240   7.201  0.2188 -1.9381  0.6065
  954MOL0     H31626   3.436   8.156   7.122  0.3956 -2.8584 -1.2538
  954MOL0     H31627   3.303   8.041   7.107  1.4372 -0.1725  0.0312
  954MOL0     H31628   3.241   8.050   7.335 -0.8801  2.8309  0.8116
  954MOL0     H31629   3.344   8.171   7.374  3.7408 -2.3800  1.2327
  954MOL0     H31630   3.439   7.940   7.462  0.6236  1.6949  1.1921
  954MOL0     H31631   3.542   8.003   7.339  0.6698 -3.2962  1.0441
  954MOL0     H31632   3.288   8.762   6.624  1.9216  2.3784 -3.4748
  954MOL0     H31633   3.421   8.763   6.448 -2.0435  0.6664  1.1468
  954MOL0     H31634   4.037   8.703   6.559  0.4850 -1.7967 -0.5800
  954MOL0     H31635   4.245   8.728   6.429  0.1118  1.4328 -0.1408
  954MOL0     H31636   4.349   7.392   6.331 -0.8486  1.7892 -0.8577
  954MOL0     H31637   4.360   7.201   6.472 -1.1737 -0.4719 -4.1327
  954MOL0     H31638   4.071   7.193   7.067  2.6129 -0.5084  3.1807
  954MOL0     H31639   3.985   7.043   7.203 -0.4186  3.3715 -2.8440
  954MOL0     H31640   3.920   6.798   7.333  0.2279  0.5945 -1.0153
  954MOL0     H31641   3.803   6.847   7.196 -2.8823 -2.6628 -1.2645
  954MOL0     H31642   3.749   6.621   7.167  0.6681  0.8338  0.6792
  954MOL0     H31643   3.724   6.659   7.344  0.7916  0.2386  0.0035
  954MOL0     H31644   3.943   6.522   7.215 -3.2899  0.1840 -2.9308
  954MOL0     H31645   3.934   6.571   7.394  2.1487 -1.1511 -0.9348
  954MOL0     H31646   3.891   6.331   7.332  0.7670  0.8478 -0.6214
  954MOL0     H31647   3.732   6.380   7.268  0.5497 -0.9639  0.3690
  954MOL0     H31648   3.664   6.446   7.689 -2.0393 -2.1675  0.2574
  954MOL0     H31649   4.096   6.725   6.934  1.5553 -0.6072  4.0724
  954MOL0     H31650   4.337   6.952   6.767 -0.1773  0.4029 -2.9487
  954MOL0     H31651   4.294   6.783   6.774 -2.4345 -1.5919  4.2351
  954MOL0     H31652   4.212   6.892   6.658  2.2300  1.2795 -0.1239
  955MOL0     O31653   1.912   0.077   8.283  0.2850 -0.5718 -0.5913
  955MOL0     C31654   1.807   0.012   8.293  0.5916  0.3111 -0.3003
  955MOL0     O31655   1.688   0.063   8.259  0.3892  0.1793  0.3648
  955MOL0     C31656   1.669   0.175   8.169  0.5077 -0.1556 -0.6436
  955MOL0     C31657   1.757   0.257   8.098 -0.1922  0.2278  1.1305
  955MOL0     C31658   1.711   0.336   8.000 -0.2469 -0.7493 -0.5860
  955MOL0     C31659   1.575   0.348   7.972 -0.1920  1.2819  0.3906
  955MOL0     O31660   1.532   0.410   7.859 -0.0831 -0.5088 -1.1926
  955MOL0     C31661   1.616   0.500   7.783  0.0930 -0.3315  0.2367
  955MOL0     C31662   1.664   0.627   7.845 -0.0665  0.4398 -0.3328
  955MOL0     C31663   1.560   0.737   7.844  0.0562  0.5310  0.3204
  955MOL0     C31664   1.612   0.865   7.919 -0.5365  0.1349 -0.3652
  955MOL0     C31665   1.510   0.970   7.925 -0.1509  0.6694 -0.7953
  955MOL0     C31666   1.472   1.027   7.788 -0.6173  1.4869  0.5333
  955MOL0     C31667   1.366   1.137   7.800 -0.2151  0.9887  0.4956
  955MOL0     C31668   1.333   1.198   7.661  0.2784 -0.0827  1.2426
  955MOL0     N31669   1.210   1.283   7.661 -0.2059 -1.2290  0.2542
  955MOL0     C31670   1.092   1.286   7.742 -0.5359  0.0404  0.1506
  955MOL0     C31671   1.037   1.409   7.712  0.4726  0.2989  1.3488
  955MOL0     C31672   0.910   1.463   7.760 -0.3538 -0.1514  0.4799
  955MOL0     C31673   0.916   1.519   7.910 -0.0737  0.0134  0.5225
  955MOL0     C31674   0.971   1.660   7.935  0.1161 -0.6794 -0.0439
  955MOL0     C31675   0.948   1.711   8.078  0.4706 -0.1985 -0.6593
  955MOL0     O31676   1.013   1.841   8.093 -0.0809  0.0404 -0.8133
  955MOL0     C31677   0.947   1.953   8.044  0.3573  0.2426 -1.1078
  955MOL0     C31678   1.004   2.077   8.041  0.7827  0.3737  0.0510
  955MOL0     C31679   0.932   2.196   8.007 -0.2043 -0.0732 -0.3877
  955MOL0     C31680   1.007   2.322   8.024  0.1668 -0.5791 -0.6582
  955MOL0     C31681   0.797   2.189   7.976 -0.6001 -0.2619 -0.7216
  955MOL0     C31682   0.703   2.298   7.965  0.0504 -0.4104  0.1731
  955MOL0     O31683   0.571   2.265   7.972 -0.1162 -0.6349  0.6019
  955MOL0     C31684   0.463   2.348   7.937 -0.7986 -1.9074 -0.3421
  955MOL0     C31685   0.363   2.342   8.029 -0.0784  0.0569 -0.0182
  955MOL0     C31686   0.252   2.418   8.022  0.5533 -0.3145 -0.0351
  955MOL0     C31687   0.244   2.519   7.926 -0.3846  0.5060 -0.1512
  955MOL0     O31688   0.143   2.618   7.911  0.3355 -0.3346 -0.7303
  955MOL0     C31689   0.047   2.635   8.010  0.5039  0.3215 -0.7088
  955MOL0     C31690  -0.019   2.763   7.977 -0.2988  0.1212 -0.0112
  955MOL0     C31691  -0.111   2.747   7.852 -0.1362 -1.3886  0.3447
  955MOL0     C31692  -0.207   2.627   7.841 -0.5676 -0.5547  0.3558
  955MOL0     C31693  -0.328   2.667   7.747  0.9064  0.1289  0.6043
  955MOL0     C31694  -0.436   2.558   7.752 -1.0416 -0.2850 -0.0558
  955MOL0     C31695  -0.388   2.419   7.701  0.1016 -0.6058 -0.7342
  955MOL0     C31696  -0.502   2.316   7.704  0.4028 -0.0496 -0.0065
  955MOL0    Cl31697  -0.544   2.279   7.863  0.2335  0.2608  0.1452
  955MOL0     C31698   0.344   2.528   7.825  0.3400  0.3227  0.3206
  955MOL0     C31699   0.456   2.440   7.832 -0.0037  0.3532 -0.2830
  955MOL0     O31700   0.746   2.410   7.946 -0.2597 -0.8504 -0.5297
  955MOL0     C31701   0.747   2.058   7.944  0.2945 -0.2932 -0.3315
  955MOL0     C31702   0.813   1.943   7.990 -0.5795 -0.1869 -0.0259
  955MOL0     N31703   1.119   1.477   7.624 -0.8091  0.2438 -0.3461
  955MOL0     N31704   1.224   1.404   7.603 -0.0728  0.0560 -0.0777
  955MOL0     C31705   1.481   0.282   8.051  0.1221 -0.2200  0.2268
  955MOL0     C31706   1.530   0.194   8.148 -0.5415 -0.5262  0.1039
  955MOL0     C31707   1.807  -0.122   8.349  0.7039  1.1415 -0.1733
  955MOL0     C31708   1.932  -0.174   8.385  0.3051  0.3127  0.3220
  955MOL0     C31709   1.954  -0.306   8.436  0.6355  0.2508  0.2594
  955MOL0     C31710   1.835  -0.388   8.454  0.0531  0.3043 -0.0264
  955MOL0     O31711   1.835  -0.507   8.529 -0.0155  0.1183  0.3002
  955MOL0     C31712   1.956  -0.570   8.587  0.2386 -0.3776  0.2034
  955MOL0     C31713   1.969  -0.554   8.741  0.3819  0.2100  0.0332
  955MOL0     C31714   1.832  -0.585   8.805  0.4601  0.0858 -0.1797
  955MOL0     C31715   1.831  -0.559   8.954 -0.3855  0.0346  0.9326
  955MOL0     C31716   1.698  -0.595   9.005 -0.3230  0.2272  0.6980
  955MOL0     C31717   1.591  -0.595   9.058 -0.3003  0.0328 -0.2880
  955MOL0     C31718   1.713  -0.337   8.416  0.7665  0.1917 -0.7743
  955MOL0     C31719   1.696  -0.206   8.366  0.0944 -0.0710  0.0516
  955MOL0     C31720   1.549  -0.166   8.346  0.4951 -0.9643  0.0536
  955MOL0     H31721   1.864   0.247   8.107  0.0880  0.5101 -1.1289
  955MOL0     H31722   1.782   0.396   7.944  3.3648  0.4613  4.5839
  955MOL0     H31723   1.560   0.526   7.693 -1.4058 -0.8394  0.9968
  955MOL0     H31724   1.699   0.438   7.747 -0.7162 -1.5863  0.5053
  955MOL0     H31725   1.678   0.611   7.952 -0.7679  3.3129  0.2916
  955MOL0     H31726   1.753   0.656   7.788 -0.7500 -2.9824 -3.4873
  955MOL0     H31727   1.529   0.762   7.742 -2.3519 -0.6640  0.6925
  955MOL0     H31728   1.468   0.701   7.892 -1.0880  0.0719 -2.0513
  955MOL0     H31729   1.639   0.839   8.021  0.1009  1.2616 -0.2290
  955MOL0     H31730   1.700   0.899   7.864  0.5102  0.0784  1.2245
  955MOL0     H31731   1.547   1.049   7.990 -1.1726  0.2423  0.3440
  955MOL0     H31732   1.425   0.923   7.975  1.3547 -1.4406 -0.0344
  955MOL0     H31733   1.567   1.062   7.746 -0.0472 -0.0592  0.4440
  955MOL0     H31734   1.435   0.953   7.716  1.7290  1.6888 -0.9817
  955MOL0     H31735   1.397   1.213   7.872  0.9943  2.7662 -1.7640
  955MOL0     H31736   1.276   1.082   7.829 -0.4203  1.8328  1.5070
  955MOL0     H31737   1.418   1.252   7.620  0.4505 -1.4961 -0.3866
  955MOL0     H31738   1.314   1.112   7.595 -3.1483  0.2863  1.5368
  955MOL0     H31739   1.053   1.211   7.810 -1.9378  2.3818  2.0733
  955MOL0     H31740   0.837   1.383   7.745  0.2989 -0.7971  0.6454
  955MOL0     H31741   0.872   1.543   7.696 -0.3503 -0.6702 -0.1795
  955MOL0     H31742   0.814   1.520   7.948 -0.0192 -3.6080  1.1633
  955MOL0     H31743   0.972   1.446   7.969  0.4959 -1.1504 -1.3670
  955MOL0     H31744   1.078   1.666   7.917  0.0884 -1.6760 -0.6050
  955MOL0     H31745   0.924   1.721   7.857  1.2592 -0.3808 -0.5211
  955MOL0     H31746   0.841   1.708   8.099  1.1510 -0.4949  3.7952
  955MOL0     H31747   0.991   1.641   8.150  2.7454  3.7851  2.2767
  955MOL0     H31748   1.103   2.090   8.082  0.1866 -0.6146  1.9310
  955MOL0     H31749   1.094   2.315   8.090 -1.1965  0.3896  1.3436
  955MOL0     H31750   0.944   2.406   8.053  3.0491  0.9810  1.6969
  955MOL0     H31751   1.049   2.352   7.927  0.6311  1.2073  0.0494
  955MOL0     H31752   0.364   2.275   8.115  1.0382  2.0982  1.6693
  955MOL0     H31753   0.174   2.412   8.098 -3.1218 -2.8530 -3.6059
  955MOL0     H31754  -0.025   2.553   8.020 -1.0725  1.6128 -0.9201
  955MOL0     H31755   0.102   2.636   8.105  2.8611 -3.4835 -1.8256
  955MOL0     H31756  -0.077   2.810   8.057 -0.8226 -0.4872 -0.0267
  955MOL0     H31757   0.071   2.821   7.954  0.1554 -0.9899 -1.1143
  955MOL0     H31758  -0.044   2.757   7.766  1.3861 -2.0868  1.3843
  955MOL0     H31759  -0.168   2.839   7.841  1.0053 -0.8344 -1.3765
  955MOL0     H31760  -0.245   2.603   7.940 -0.8612  0.2226  0.4403
  955MOL0     H31761  -0.147   2.543   7.803 -0.9207 -0.5042 -0.3175
  955MOL0     H31762  -0.379   2.751   7.796  0.9950  0.1316  0.6923
  955MOL0     H31763  -0.295   2.692   7.645  0.9115 -1.6641  0.1349
  955MOL0     H31764  -0.522   2.585   7.690 -0.1116 -0.3929 -1.4106
  955MOL0     H31765  -0.465   2.547   7.857 -0.4727 -1.4659 -0.0024
  955MOL0     H31766  -0.302   2.385   7.759 -0.4603 -1.4017 -0.3543
  955MOL0     H31767  -0.362   2.431   7.596 -0.7544 -2.4527 -1.1944
  955MOL0     H31768  -0.477   2.222   7.654 -2.9007 -1.0225 -0.0433
  955MOL0     H31769  -0.593   2.351   7.654 -1.1690 -0.4644  2.4343
  955MOL0     H31770   0.339   2.585   7.732  1.4582 -0.8123 -0.4785
  955MOL0     H31771   0.534   2.462   7.761 -0.1910  1.0837 -0.2686
  955MOL0     H31772   0.647   2.045   7.905 -0.5660 -1.8557  2.1253
  955MOL0     H31773   0.748   1.857   7.978 -1.9224  0.6518  0.9530
  955MOL0     H31774   1.375   0.289   8.026  0.6270 -0.7479 -2.3676
  955MOL0     H31775   1.456   0.144   8.208 -0.5681 -0.5909  0.0176
  955MOL0     H31776   2.019  -0.115   8.357  0.0154  0.4041 -0.4129
  955MOL0     H31777   2.053  -0.340   8.461  0.5591  1.1617  1.9826
  955MOL0     H31778   1.970  -0.672   8.550  0.2752 -0.3236  0.0700
  955MOL0     H31779   2.047  -0.527   8.545  0.3245  1.5015  2.1141
  955MOL0     H31780   1.997  -0.452   8.766 -3.1963  0.8193  2.4501
  955MOL0     H31781   2.051  -0.621   8.769 -2.0514 -1.7519  3.2678
  955MOL0     H31782   1.746  -0.536   8.759 -2.3382 -4.8378 -0.9216
  955MOL0     H31783   1.811  -0.691   8.786  1.6993  0.0195 -1.3075
  955MOL0     H31784   1.845  -0.455   8.987  1.7773 -0.7990  2.8651
  955MOL0     H31785   1.906  -0.615   9.009  1.0640  1.4859  0.5223
  955MOL0     H31786   1.490  -0.576   9.089 -0.3005  1.6502 -1.1858
  955MOL0     H31787   1.624  -0.397   8.435  0.6529  1.2748  2.8249
  955MOL0     H31788   1.528  -0.070   8.394 -0.8409 -0.9078 -0.5766
  955MOL0     H31789   1.532  -0.151   8.239 -2.9894  0.4346  0.6663
  955MOL0     H31790   1.473  -0.240   8.373 -0.2793 -0.4307 -0.6188
  956MOL0     O31791   2.563   4.505   8.602  0.0902 -0.0170 -0.1068
  956MOL0     C31792   2.614   4.554   8.700 -0.5712 -0.0522 -0.4662
  956MOL0     O31793   2.745   4.582   8.717  0.1820  0.4320 -0.4129
  956MOL0     C31794   2.828   4.578   8.611  0.2964 -0.1047  0.0533
  956MOL0     C31795   2.840   4.685   8.525 -0.0587  0.3309  0.6009
  956MOL0     C31796   2.925   4.668   8.415  0.7585 -0.1723  0.4980
  956MOL0     C31797   3.004   4.555   8.403  0.2043  0.0839  0.3336
  956MOL0     O31798   3.107   4.539   8.314  0.0532  0.3225 -0.0202
  956MOL0     C31799   3.155   4.651   8.241 -0.0572 -0.4512  1.0842
  956MOL0     C31800   3.264   4.600   8.143  0.7513 -0.1406  0.7424
  956MOL0     C31801   3.388   4.535   8.210 -0.0893 -0.4560  0.5342
  956MOL0     C31802   3.381   4.382   8.226  0.9901 -0.2073  1.2207
  956MOL0     C31803   3.517   4.331   8.277 -0.0566 -0.1919 -0.3409
  956MOL0     C31804   3.513   4.339   8.431 -1.5102  0.7225 -0.6490
  956MOL0     C31805   3.646   4.288   8.480 -0.1440  0.6002 -0.3493
  956MOL0     C31806   3.645   4.136   8.496  0.7411 -0.2797 -0.2201
  956MOL0     N31807   3.741   4.079   8.585 -0.2662  1.0019  0.6945
  956MOL0     C31808   3.740   3.942   8.621 -0.0886  0.2554 -0.8800
  956MOL0     C31809   3.854   3.931   8.692  0.0200 -0.7396  0.2158
  956MOL0     C31810   3.886   3.809   8.775 -0.8615  0.9638  0.1813
  956MOL0     C31811   3.941   3.851   8.917  0.1844  1.1694  0.6214
  956MOL0     C31812   3.979   3.725   8.998 -0.6612  0.8890 -0.1062
  956MOL0     C31813   4.004   3.753   9.142  0.2313  1.0798  0.7085
  956MOL0     O31814   4.111   3.848   9.165 -0.5428 -0.0125 -0.1306
  956MOL0     C31815   4.231   3.809   9.129  0.1751  0.4267 -0.0224
  956MOL0     C31816   4.296   3.693   9.162 -0.1654  0.5124  0.4676
  956MOL0     C31817   4.432   3.663   9.119  0.4807  0.1878 -0.1073
  956MOL0     C31818   4.465   3.516   9.115 -0.5884 -0.3689 -0.4839
  956MOL0     C31819   4.498   3.755   9.045 -0.2380 -1.8897 -0.3997
  956MOL0     C31820   4.637   3.745   9.000  0.2223  0.9398 -0.8329
  956MOL0     O31821   4.726   3.686   9.087  0.3272 -0.9544 -0.4381
  956MOL0     C31822   4.859   3.675   9.080 -0.4601  0.3761  0.1622
  956MOL0     C31823   4.935   3.704   9.190 -0.8465 -0.1735 -0.1004
  956MOL0     C31824   5.075   3.660   9.187 -0.8427  0.0962  0.0052
  956MOL0     C31825   5.131   3.599   9.071 -0.1169 -1.1235  0.4308
  956MOL0     O31826   5.263   3.558   9.072 -0.9195 -0.4478  0.5026
  956MOL0     C31827   5.355   3.673   9.085  0.0734  0.8541 -0.6466
  956MOL0     C31828   5.428   3.675   8.949  0.5783  0.0210  0.2124
  956MOL0     C31829   5.555   3.583   8.941  0.3672 -0.3790 -0.0879
  956MOL0     C31830   5.627   3.604   8.800  0.4394  0.0963  0.1299
  956MOL0     C31831   5.711   3.480   8.767 -0.3429  0.2360 -0.2406
  956MOL0     C31832   5.756   3.484   8.612  0.1477 -0.4044  0.1094
  956MOL0     C31833   5.833   3.351   8.587 -1.0420 -0.7438  0.0323
  956MOL0     C31834   5.983   3.362   8.629  0.8665 -0.1251 -0.2291
  956MOL0    Cl31835   6.075   3.437   8.498  0.5087  0.6590  0.5369
  956MOL0     C31836   5.045   3.562   8.965 -0.1121  0.9000 -0.6812
  956MOL0     C31837   4.910   3.599   8.974 -0.1289 -0.0437 -0.6530
  956MOL0     O31838   4.665   3.787   8.894 -0.2921 -0.5024  0.4548
  956MOL0     C31839   4.432   3.879   9.008 -0.1754  0.5639  0.0475
  956MOL0     C31840   4.294   3.895   9.036 -0.4042  0.4682  0.1079
  956MOL0     N31841   3.928   4.050   8.694  0.1570 -0.6030 -0.3654
  956MOL0     N31842   3.859   4.139   8.636  0.4779 -0.2184 -0.6156
  956MOL0     C31843   2.992   4.453   8.495  0.7138  0.0915  0.5236
  956MOL0     C31844   2.897   4.460   8.597  0.0731 -0.0903  0.5089
  956MOL0     C31845   2.526   4.567   8.822 -0.1406 -0.0992  0.1540
  956MOL0     C31846   2.403   4.509   8.822  1.3553 -0.0424 -0.0615
  956MOL0     C31847   2.319   4.511   8.931  0.0571 -0.1674  0.7655
  956MOL0     C31848   2.344   4.579   9.047 -1.0620  0.0284  0.0367
  956MOL0     O31849   2.261   4.593   9.155 -0.5462  1.3585  0.2842
  956MOL0     C31850   2.135   4.525   9.156  0.6843  0.9011  0.2277
  956MOL0     C31851   2.063   4.554   9.291 -0.6260  0.1697  0.0442
  956MOL0     C31852   2.145   4.470   9.411 -0.2992  0.4464 -0.7641
  956MOL0     C31853   2.290   4.501   9.448  1.1441 -0.0151  0.4733
  956MOL0     C31854   2.315   4.640   9.498 -0.2370 -0.0070 -0.2305
  956MOL0     C31855   2.328   4.756   9.533 -0.0000 -0.2585 -1.1468
  956MOL0     C31856   2.471   4.647   9.059  0.8291  0.7083 -0.3136
  956MOL0     C31857   2.551   4.647   8.941  0.0182  0.5143 -0.1834
  956MOL0     C31858   2.669   4.748   8.951 -0.4697  0.8702  1.1109
  956MOL0     H31859   2.794   4.783   8.534  1.2607  1.0436  0.0179
  956MOL0     H31860   2.933   4.745   8.338 -1.3111 -2.9590 -2.7958
  956MOL0     H31861   3.206   4.725   8.303  1.0458  0.5996 -0.9517
  956MOL0     H31862   3.074   4.703   8.189  0.0235 -0.6461  0.7571
  956MOL0     H31863   3.218   4.530   8.073  1.0171  0.1520  0.2724
  956MOL0     H31864   3.313   4.676   8.082  5.5358 -1.3417  2.7026
  956MOL0     H31865   3.471   4.564   8.144 -1.5627  0.5110 -0.9922
  956MOL0     H31866   3.423   4.576   8.306 -1.7685 -3.7009  2.6870
  956MOL0     H31867   3.305   4.349   8.297 -0.6610 -4.0239 -1.9385
  956MOL0     H31868   3.348   4.332   8.134 -0.7574  1.5059  0.8244
  956MOL0     H31869   3.604   4.385   8.238  1.4264 -2.5046 -0.4195
  956MOL0     H31870   3.544   4.229   8.248  2.1606 -0.0019  0.8212
  956MOL0     H31871   3.501   4.442   8.465  0.6177 -0.1872  3.4573
  956MOL0     H31872   3.438   4.271   8.472  1.1087 -1.3446  1.0527
  956MOL0     H31873   3.663   4.325   8.582  2.6008 -1.7617  0.1694
  956MOL0     H31874   3.728   4.320   8.415 -0.1325 -1.7031 -1.5701
  956MOL0     H31875   3.551   4.109   8.544  0.3315  2.5474  0.7494
  956MOL0     H31876   3.640   4.082   8.401 -1.7164 -1.6778  0.6085
  956MOL0     H31877   3.659   3.870   8.616  0.4333 -0.7669  2.6399
  956MOL0     H31878   3.967   3.765   8.716 -0.4082 -0.6913  1.9192
  956MOL0     H31879   3.808   3.733   8.767  0.9516 -0.8675 -1.0959
  956MOL0     H31880   4.027   3.918   8.911 -2.3224  4.5616 -1.1436
  956MOL0     H31881   3.871   3.915   8.971  1.7701  1.6870  2.1447
  956MOL0     H31882   3.901   3.651   8.978  1.0080 -0.0287 -4.1466
  956MOL0     H31883   4.065   3.683   8.946 -0.9711  3.0142 -2.5462
  956MOL0     H31884   3.912   3.790   9.187 -1.1396  1.7586 -2.4297
  956MOL0     H31885   4.013   3.658   9.197  1.0919 -0.6827 -2.2807
  956MOL0     H31886   4.235   3.630   9.227 -3.2731  2.5376 -0.2523
  956MOL0     H31887   4.570   3.491   9.136 -0.9594  1.1546  4.3448
  956MOL0     H31888   4.421   3.467   9.027 -1.2424  1.6769 -1.3770
  956MOL0     H31889   4.422   3.475   9.206 -2.1458  0.3127 -0.8829
  956MOL0     H31890   4.894   3.758   9.275 -0.7150 -2.2551  1.3446
  956MOL0     H31891   5.119   3.658   9.286  0.1650 -1.1766 -0.4418
  956MOL0     H31892   5.310   3.770   9.106  1.4879  1.3320  0.2698
  956MOL0     H31893   5.426   3.651   9.165 -0.6190 -2.8257 -0.8653
  956MOL0     H31894   5.352   3.651   8.875 -2.0735 -1.2497  3.1260
  956MOL0     H31895   5.450   3.781   8.933  0.2015 -0.1341 -1.5411
  956MOL0     H31896   5.517   3.480   8.946 -0.3325 -0.0781  1.3943
  956MOL0     H31897   5.619   3.604   9.027  4.1157 -1.3430 -2.3940
  956MOL0     H31898   5.683   3.698   8.798  0.4984  0.0911  1.1372
  956MOL0     H31899   5.546   3.614   8.727 -0.9976  1.4594  1.8235
  956MOL0     H31900   5.799   3.493   8.831 -1.2663  1.9921  0.7808
  956MOL0     H31901   5.664   3.386   8.797  1.1362  0.0358  1.6615
  956MOL0     H31902   5.804   3.578   8.584 -2.1222  0.9141  0.3677
  956MOL0     H31903   5.665   3.480   8.551  1.1759 -0.7775 -1.4555
  956MOL0     H31904   5.832   3.322   8.482 -1.3985  0.2393 -0.2466
  956MOL0     H31905   5.780   3.275   8.646  1.1524 -2.0346  0.4428
  956MOL0     H31906   6.024   3.263   8.652 -2.5338 -1.0786  2.6241
  956MOL0     H31907   5.985   3.422   8.721 -1.1867  0.5218 -0.5575
  956MOL0     H31908   5.079   3.513   8.875 -0.3691 -1.3502  0.3916
  956MOL0     H31909   4.843   3.573   8.893  0.0016  1.3901 -1.2358
  956MOL0     H31910   4.483   3.947   8.941 -0.2104  0.4204 -0.1282
  956MOL0     H31911   4.235   3.983   9.013 -0.5487  1.0473  2.4434
  956MOL0     H31912   3.048   4.361   8.479 -0.4045 -0.2832 -1.5582
  956MOL0     H31913   2.891   4.380   8.670  0.6942 -2.3788 -1.8002
  956MOL0     H31914   2.373   4.450   8.735  0.0335  0.2152  0.2038
  956MOL0     H31915   2.228   4.457   8.907  0.4085 -0.1774 -0.6615
  956MOL0     H31916   2.073   4.575   9.081  1.2424  1.1451 -0.0796
  956MOL0     H31917   2.135   4.417   9.140 -3.7402  0.8620 -0.8424
  956MOL0     H31918   1.962   4.512   9.283 -0.5738  0.3092 -1.8317
  956MOL0     H31919   2.060   4.660   9.316 -2.1981 -0.3437  2.4312
  956MOL0     H31920   2.082   4.477   9.501 -0.9156  2.7275 -1.3027
  956MOL0     H31921   2.137   4.363   9.389 -0.1470  0.7111 -2.1635
  956MOL0     H31922   2.356   4.476   9.364 -0.4656  0.2916 -0.9322
  956MOL0     H31923   2.304   4.432   9.532 -1.6628 -1.7465 -0.3483
  956MOL0     H31924   2.321   4.862   9.547 -0.8130 -0.4928  0.4892
  956MOL0     H31925   2.496   4.693   9.154 -0.8459 -0.4989  0.7751
  956MOL0     H31926   2.753   4.697   9.000 -0.2703  1.4839  1.4298
  956MOL0     H31927   2.697   4.785   8.852 -3.8015  1.1306  0.1736
  956MOL0     H31928   2.649   4.829   9.022 -1.0916  1.5229  0.2017
  957MOL0     O31929   8.837   7.719   8.762  0.4701 -0.1042  0.3703
  957MOL0     C31930   8.731   7.708   8.816 -0.1641  0.2104 -0.3974
  957MOL0     O31931   8.683   7.804   8.897 -0.1919  0.0447 -0.4106
  957MOL0     C31932   8.760   7.924   8.921  0.0170  0.4821  0.1022
  957MOL0     C31933   8.754   8.013   8.814 -0.2720  0.6841 -0.4870
  957MOL0     C31934   8.798   8.141   8.821 -0.0428  0.1848  0.2362
  957MOL0     C31935   8.872   8.182   8.937 -0.4002  0.3819 -0.4906
  957MOL0     O31936   8.933   8.306   8.934  0.5005 -0.3135 -0.0124
  957MOL0     C31937   9.001   8.348   9.061  0.2850  0.0549  0.1801
  957MOL0     C31938   9.059   8.493   9.054  0.5381  0.1720 -0.1632
  957MOL0     C31939   8.946   8.583   9.035  0.4199  1.1665 -0.0327
  957MOL0     C31940   8.981   8.727   9.060 -0.0132  0.0080 -0.0280
  957MOL0     C31941   8.854   8.818   9.083  0.2042  0.7211  0.8603
  957MOL0     C31942   8.784   8.844   8.941  0.4758 -0.1810 -0.1323
  957MOL0     C31943   8.852   8.938   8.845 -0.6231  0.1762  0.0262
  957MOL0     C31944   8.937   9.058   8.906  0.7367  1.1805  0.3200
  957MOL0     N31945   8.997   9.158   8.804  0.1359  0.2751 -0.3375
  957MOL0     C31946   9.083   9.129   8.692 -0.6270 -0.7053 -0.1815
  957MOL0     C31947   9.119   9.252   8.644  1.3277  0.4380 -0.2243
  957MOL0     C31948   9.169   9.271   8.505  0.2738  0.0217  0.0714
  957MOL0     C31949   9.047   9.292   8.411  0.9477  0.4514 -0.3184
  957MOL0     C31950   9.080   9.330   8.266 -0.2635  1.1178  0.4302
  957MOL0     C31951   8.952   9.386   8.190 -0.4419  0.1177 -0.0419
  957MOL0     O31952   8.851   9.281   8.196  0.7246  0.0188 -0.5045
  957MOL0     C31953   8.728   9.330   8.146  0.0915  0.0465  0.6432
  957MOL0     C31954   8.615   9.246   8.159 -0.4151 -0.4684 -0.2310
  957MOL0     C31955   8.486   9.283   8.125  0.0240 -1.3360  0.1418
  957MOL0     C31956   8.378   9.177   8.158 -0.0838 -0.6072 -0.5498
  957MOL0     C31957   8.464   9.410   8.062 -0.1454  0.4785 -0.0161
  957MOL0     C31958   8.323   9.445   7.998 -0.6280 -0.0618  0.1132
  957MOL0     O31959   8.315   9.575   7.949 -0.5824  0.6164 -0.2855
  957MOL0     C31960   8.218   9.626   7.873 -0.7942  0.8025  0.3932
  957MOL0     C31961   8.184   9.766   7.876  0.2456  0.2254 -0.3701
  957MOL0     C31962   8.075   9.816   7.803 -0.0583  0.1746  0.1191
  957MOL0     C31963   8.009   9.731   7.714 -0.6403  1.0671 -0.3430
  957MOL0     O31964   7.896   9.750   7.637  0.2636  0.9410 -0.1760
  957MOL0     C31965   7.851   9.882   7.630 -0.4570 -0.5503  0.0481
  957MOL0     C31966   7.776   9.894   7.502 -0.2663 -0.7078 -0.5255
  957MOL0     C31967   7.863   9.867   7.373  0.1713 -0.2613 -0.1144
  957MOL0     C31968   7.868   9.987   7.280 -0.0130 -0.0610 -0.1364
  957MOL0     C31969   7.950   9.974   7.165 -0.1545  0.0788 -0.0017
  957MOL0     C31970   7.876   9.920   7.043 -0.0701  0.0003  0.2882
  957MOL0     C31971   7.801  10.027   6.965 -0.0322 -0.5693 -1.1463
  957MOL0     C31972   7.718   9.965   6.855  0.1892  0.0182  0.3788
  957MOL0    Cl31973   7.618  10.078   6.774  0.6277 -0.0539  0.0759
  957MOL0     C31974   8.048   9.599   7.711  1.0520 -0.0017  0.0135
  957MOL0     C31975   8.152   9.546   7.781  0.2620 -0.0498 -0.8297
  957MOL0     O31976   8.235   9.363   8.012  0.5798 -0.2077 -1.0673
  957MOL0     C31977   8.569   9.499   8.054 -0.0525 -0.0778  0.4306
  957MOL0     C31978   8.699   9.457   8.097 -0.1066  0.1748  0.0564
  957MOL0     N31979   9.054   9.348   8.711 -0.2255  0.8997  0.2369
  957MOL0     N31980   8.992   9.290   8.810 -0.0633 -0.0765  0.4439
  957MOL0     C31981   8.883   8.088   9.042  0.4459 -0.1023 -0.5621
  957MOL0     C31982   8.823   7.961   9.035 -0.1703  0.1518 -0.5971
  957MOL0     C31983   8.665   7.584   8.787  0.8971  0.4067 -0.7024
  957MOL0     C31984   8.734   7.471   8.756  0.7359 -0.1221  1.1836
  957MOL0     C31985   8.675   7.345   8.726  0.1794  0.9340  0.2218
  957MOL0     C31986   8.538   7.324   8.744  0.2900  0.6249 -1.2664
  957MOL0     O31987   8.482   7.205   8.714 -0.4387 -1.3368 -0.7344
  957MOL0     C31988   8.366   7.160   8.787 -0.8077 -0.8320 -0.7576
  957MOL0     C31989   8.319   7.021   8.753 -0.2211  0.0044  1.0269
  957MOL0     C31990   8.262   7.014   8.615  0.5088  0.3324  0.2802
  957MOL0     C31991   8.118   7.025   8.608  0.3196 -1.0361  0.2292
  957MOL0     C31992   8.078   7.163   8.609 -0.1512  0.1825 -0.3648
  957MOL0     C31993   8.052   7.285   8.605  0.8893  0.3011 -0.5952
  957MOL0     C31994   8.469   7.436   8.792  0.3233  0.5006 -1.1459
  957MOL0     C31995   8.524   7.563   8.803  0.4781  0.3036 -0.0900
  957MOL0     C31996   8.426   7.684   8.815  0.1741  0.0865 -0.7708
  957MOL0     H31997   8.702   7.970   8.729  3.5392 -1.2748 -2.0866
  957MOL0     H31998   8.795   8.212   8.739 -0.4326  1.2481  1.1501
  957MOL0     H31999   9.084   8.281   9.086 -2.1342 -3.1679  0.1866
  957MOL0     H32000   8.933   8.336   9.145 -1.6936 -0.9702 -1.4940
  957MOL0     H32001   9.120   8.526   9.139 -2.0289  1.9594  1.1155
  957MOL0     H32002   9.108   8.495   8.956  2.9736 -0.4732  0.9735
  957MOL0     H32003   8.908   8.556   8.936  0.5099 -2.2599  0.7574
  957MOL0     H32004   8.868   8.559   9.107  0.3618  1.5520  0.0349
  957MOL0     H32005   9.049   8.734   9.145 -0.1508  2.6328 -0.0534
  957MOL0     H32006   9.028   8.777   8.974 -1.6358  2.2083  0.2828
  957MOL0     H32007   8.882   8.908   9.139  0.0833  0.3027  1.6065
  957MOL0     H32008   8.785   8.749   9.133 -2.2415  1.6946 -0.9992
  957MOL0     H32009   8.760   8.751   8.888  0.9301  0.0751 -0.7999
  957MOL0     H32010   8.682   8.883   8.954  0.9004  0.8648  0.1190
  957MOL0     H32011   8.775   8.973   8.776 -0.8322 -0.0271  0.1567
  957MOL0     H32012   8.929   8.885   8.788  0.9118  2.4633 -0.1707
  957MOL0     H32013   8.877   9.123   8.971 -2.4329  0.1182 -1.3041
  957MOL0     H32014   9.016   9.012   8.966  0.9456 -1.7625 -1.9741
  957MOL0     H32015   9.110   9.035   8.647  1.9060  0.9605 -2.4590
  957MOL0     H32016   9.227   9.185   8.471  2.2255  0.4531  2.1161
  957MOL0     H32017   9.232   9.360   8.498  0.5171 -0.2383 -1.6044
  957MOL0     H32018   8.985   9.202   8.413 -0.9779  1.7278  2.0457
  957MOL0     H32019   8.991   9.374   8.456 -0.2054 -2.0938  3.3642
  957MOL0     H32020   9.163   9.399   8.249  2.2177 -2.3004 -3.2401
  957MOL0     H32021   9.111   9.239   8.215 -0.9293  0.4736  1.1543
  957MOL0     H32022   8.925   9.473   8.251 -0.9298 -1.4236  2.0738
  957MOL0     H32023   8.985   9.400   8.087  1.0233  2.1243  0.6377
  957MOL0     H32024   8.621   9.145   8.199 -3.3516 -0.0228  1.6320
  957MOL0     H32025   8.299   9.219   8.219 -0.6493 -0.3976 -1.4081
  957MOL0     H32026   8.408   9.081   8.201 -0.8847  0.5104  2.7590
  957MOL0     H32027   8.329   9.150   8.064  0.0037  0.5642 -0.9433
  957MOL0     H32028   8.238   9.836   7.939  0.7073 -1.3020  0.9874
  957MOL0     H32029   8.050   9.921   7.815 -0.4197  0.0481  0.4781
  957MOL0     H32030   7.786   9.906   7.715 -0.4879 -1.4628  0.2943
  957MOL0     H32031   7.932   9.955   7.625  0.9497 -1.9657  1.3275
  957MOL0     H32032   7.695   9.821   7.512 -0.8472  0.0532  0.6033
  957MOL0     H32033   7.730   9.994   7.503  0.3653 -0.4046 -0.7913
  957MOL0     H32034   7.815   9.782   7.323 -2.6659  0.8345  0.5471
  957MOL0     H32035   7.969   9.846   7.391  0.1128  0.5805  1.3497
  957MOL0     H32036   7.901  10.075   7.337  2.0688  0.3195 -1.7977
  957MOL0     H32037   7.763  10.005   7.256 -0.6209 -2.4115  0.4970
  957MOL0     H32038   7.985  10.073   7.135 -0.5756 -0.0004 -0.7788
  957MOL0     H32039   8.038   9.912   7.186  1.7347  2.3014 -0.9546
  957MOL0     H32040   7.810   9.836   7.069  2.5110 -1.4088  2.7869
  957MOL0     H32041   7.951   9.874   6.979  3.5935  1.6182  3.0542
  957MOL0     H32042   7.876  10.090   6.915  0.0560 -0.7645 -1.2608
  957MOL0     H32043   7.741  10.080   7.039 -0.7909 -0.9247 -1.4961
  957MOL0     H32044   7.659   9.888   6.906 -2.7559  1.9606  0.1619
  957MOL0     H32045   7.779   9.919   6.777 -0.0702  0.4696 -0.0994
  957MOL0     H32046   7.992   9.522   7.657 -2.6756 -0.0930  3.4857
  957MOL0     H32047   8.171   9.440   7.788  1.8454  0.1094 -2.2798
  957MOL0     H32048   8.552   9.601   8.024  0.6533 -0.5272 -1.6612
  957MOL0     H32049   8.771   9.538   8.097  1.3437 -1.0671 -0.6379
  957MOL0     H32050   8.925   8.109   9.140  1.3407 -2.6817 -0.2907
  957MOL0     H32051   8.831   7.893   9.120  3.3811  1.5021  0.2830
  957MOL0     H32052   8.841   7.481   8.745  0.5732 -0.9714 -2.7136
  957MOL0     H32053   8.744   7.266   8.697 -0.1175 -0.7192  3.5777
  957MOL0     H32054   8.391   7.165   8.894 -2.9093 -0.8877 -0.2327
  957MOL0     H32055   8.286   7.234   8.787 -0.1471 -0.0933 -1.8430
  957MOL0     H32056   8.262   6.985   8.839  1.3336  1.2256  2.6205
  957MOL0     H32057   8.405   6.954   8.752 -0.1252  0.1300  0.5315
  957MOL0     H32058   8.319   7.073   8.543  0.1159  0.6026  0.1916
  957MOL0     H32059   8.282   6.913   8.576  0.3113 -0.7041  2.6346
  957MOL0     H32060   8.084   6.968   8.695  2.8149 -0.9527  1.3522
  957MOL0     H32061   8.093   6.987   8.508 -0.2172  1.8308 -0.8355
  957MOL0     H32062   8.042   7.391   8.621  3.4507  0.4278  0.6965
  957MOL0     H32063   8.363   7.422   8.811  0.6602  0.6502  1.1168
  957MOL0     H32064   8.323   7.648   8.817  0.3760 -0.6934 -2.4205
  957MOL0     H32065   8.451   7.715   8.917 -0.9271 -1.4852  0.0212
  957MOL0     H32066   8.441   7.757   8.735  2.3546  0.1660 -0.3550
  958MOL0     O32067   1.928   3.584   5.642 -0.7565  0.4319 -0.7264
  958MOL0     C32068   2.016   3.662   5.614 -0.2068 -0.7529  0.1615
  958MOL0     O32069   2.126   3.686   5.684  0.1740 -0.6906 -0.3682
  958MOL0     C32070   2.133   3.640   5.811 -0.0810  0.2706 -0.2933
  958MOL0     C32071   2.044   3.681   5.906 -0.7521 -0.3506 -0.5163
  958MOL0     C32072   2.048   3.649   6.041  1.0586  0.2093 -0.2150
  958MOL0     C32073   2.138   3.559   6.082  0.6037  0.6082 -0.2054
  958MOL0     O32074   2.134   3.526   6.218 -0.2237 -0.4264  0.3233
  958MOL0     C32075   2.143   3.387   6.246  0.9120 -0.2204 -0.2214
  958MOL0     C32076   2.050   3.356   6.355  0.8155  0.4348  0.2283
  958MOL0     C32077   1.898   3.361   6.300 -0.3198 -0.2125 -0.3916
  958MOL0     C32078   1.802   3.346   6.422  0.3124  0.0496  0.6368
  958MOL0     C32079   1.656   3.355   6.385  0.3319 -0.5247 -0.7294
  958MOL0     C32080   1.555   3.356   6.503  0.2670 -1.0615  0.3139
  958MOL0     C32081   1.564   3.236   6.593 -0.5114 -0.0812  0.0783
  958MOL0     C32082   1.500   3.110   6.522 -0.7397 -0.0520  1.0953
  958MOL0     N32083   1.356   3.090   6.546  0.4601  0.1956  0.2041
  958MOL0     C32084   1.268   3.087   6.435 -0.1317 -0.2564 -0.0821
  958MOL0     C32085   1.149   3.096   6.497  1.1021 -0.0711  0.3197
  958MOL0     C32086   1.002   3.120   6.430 -0.0358  0.3808  0.4456
  958MOL0     C32087   0.992   3.043   6.295  1.3536  0.5424 -0.6650
  958MOL0     C32088   0.848   3.049   6.244 -0.0229 -0.1226 -0.1698
  958MOL0     C32089   0.846   3.019   6.092 -0.1323 -0.8406 -0.4618
  958MOL0     O32090   0.929   3.118   6.027 -0.3742  0.5110 -0.1047
  958MOL0     C32091   1.004   3.059   5.930  0.2693  0.0636 -0.2821
  958MOL0     C32092   0.947   3.041   5.802  0.1832  0.4234 -0.8551
  958MOL0     C32093   1.026   2.978   5.694 -0.3330 -0.3093 -0.3880
  958MOL0     C32094   0.970   2.986   5.555 -0.3774  1.1846 -1.0111
  958MOL0     C32095   1.160   2.921   5.722  0.0181 -0.7314 -0.4249
  958MOL0     C32096   1.241   2.850   5.627 -1.3092  0.2459  0.3135
  958MOL0     O32097   1.383   2.855   5.639  0.8456  0.1325  0.5155
  958MOL0     C32098   1.460   2.773   5.552 -0.1570 -0.7280  0.5132
  958MOL0     C32099   1.431   2.638   5.508 -0.4668  0.1199  1.3211
  958MOL0     C32100   1.533   2.563   5.432 -0.7433 -0.2417 -0.3842
  958MOL0     C32101   1.653   2.632   5.401 -0.6360 -1.4287  0.2923
  958MOL0     O32102   1.738   2.567   5.315 -0.3430 -0.0767  0.7280
  958MOL0     C32103   1.881   2.569   5.355  0.3509  0.8754 -0.2963
  958MOL0     C32104   1.965   2.647   5.251 -0.4881  0.5582 -1.3163
  958MOL0     C32105   2.101   2.692   5.296 -0.4750  0.5920 -0.7871
  958MOL0     C32106   2.199   2.586   5.336 -0.2741 -0.5680  0.3070
  958MOL0     C32107   2.314   2.649   5.419 -0.6039  0.8029 -0.6759
  958MOL0     C32108   2.391   2.547   5.506 -0.8527  0.4040 -0.0078
  958MOL0     C32109   2.466   2.603   5.626 -0.0435 -0.0863  0.3049
  958MOL0     C32110   2.538   2.746   5.614 -0.1363 -0.1419  0.8672
  958MOL0    Cl32111   2.703   2.723   5.548  0.6101  0.1678 -0.5312
  958MOL0     C32112   1.685   2.756   5.458  0.2603  1.1143 -0.2689
  958MOL0     C32113   1.592   2.816   5.542 -0.9615 -0.5504  0.3365
  958MOL0     O32114   1.190   2.780   5.541  0.4092  0.4435  0.7037
  958MOL0     C32115   1.208   2.942   5.852 -0.2960  0.7804  0.6016
  958MOL0     C32116   1.133   3.009   5.948 -0.5210 -1.0627 -0.8138
  958MOL0     N32117   1.177   3.090   6.638 -0.2711 -0.6631 -0.0203
  958MOL0     N32118   1.297   3.099   6.665 -0.5320  0.6482 -0.7850
  958MOL0     C32119   2.235   3.512   5.991  0.9489  0.0927  0.6771
  958MOL0     C32120   2.224   3.549   5.850  0.5638  0.6314  1.1198
  958MOL0     C32121   2.012   3.731   5.484  0.2596 -0.0732  0.6174
  958MOL0     C32122   2.057   3.867   5.483 -0.1474 -0.1640  1.0884
  958MOL0     C32123   2.036   3.929   5.350  0.1634 -0.2294 -0.1238
  958MOL0     C32124   1.997   3.867   5.236 -0.2652  0.4662 -1.0007
  958MOL0     O32125   1.990   3.943   5.121 -0.2197  0.6192 -0.1491
  958MOL0     C32126   1.849   3.956   5.089  0.8544  0.6941 -0.2894
  958MOL0     C32127   1.820   4.055   4.973 -0.2954 -0.4516  0.0353
  958MOL0     C32128   1.868   4.013   4.831  0.2999 -0.2877 -0.0155
  958MOL0     C32129   1.798   4.112   4.727 -1.0502  0.0787  1.0978
  958MOL0     C32130   1.881   4.224   4.723  0.4778 -0.3130  0.0994
  958MOL0     C32131   1.945   4.330   4.716 -0.6443 -0.1276 -0.5200
  958MOL0     C32132   1.963   3.726   5.239 -1.0463  0.0230 -0.0873
  958MOL0     C32133   1.970   3.662   5.369  0.4635  0.3265 -0.1730
  958MOL0     C32134   1.940   3.511   5.371  0.1179 -0.3358 -0.2795
  958MOL0     H32135   1.962   3.742   5.868 -1.6751 -0.2412  1.5258
  958MOL0     H32136   1.965   3.673   6.106  2.9144 -0.4885  2.5827
  958MOL0     H32137   2.247   3.368   6.274  1.1565  0.3854 -0.6824
  958MOL0     H32138   2.109   3.333   6.157 -1.7225  1.6150 -0.4479
  958MOL0     H32139   2.061   3.252   6.388 -0.3485 -0.3515 -1.7067
  958MOL0     H32140   2.068   3.429   6.435  0.7194  2.3805 -1.4552
  958MOL0     H32141   1.881   3.460   6.256  1.4104  1.1957  1.8971
  958MOL0     H32142   1.875   3.272   6.240 -0.4203 -1.3288  1.2396
  958MOL0     H32143   1.814   3.246   6.465 -0.8554  0.9275  3.2636
  958MOL0     H32144   1.832   3.414   6.503  1.5252 -2.0100  2.0273
  958MOL0     H32145   1.636   3.272   6.317 -1.0394 -0.6687 -0.1873
  958MOL0     H32146   1.640   3.451   6.335 -2.4749 -1.2127 -1.3729
  958MOL0     H32147   1.563   3.448   6.563 -2.9496 -0.5053  0.0445
  958MOL0     H32148   1.457   3.361   6.455  0.3400 -1.9648  0.0561
  958MOL0     H32149   1.516   3.247   6.691  1.0156  0.0035  0.8336
  958MOL0     H32150   1.670   3.214   6.607 -0.2432  0.1623 -1.3928
  958MOL0     H32151   1.525   3.104   6.416 -2.3869 -0.1040  0.6748
  958MOL0     H32152   1.548   3.021   6.564  2.5338 -0.7607 -3.3658
  958MOL0     H32153   1.297   3.095   6.331  2.1054 -1.0080  0.4340
  958MOL0     H32154   0.987   3.227   6.416 -3.4049  0.3498  2.6861
  958MOL0     H32155   0.932   3.087   6.507 -0.3626  2.5990  1.1595
  958MOL0     H32156   1.060   3.102   6.234  2.1212 -0.0740 -0.4263
  958MOL0     H32157   1.021   2.937   6.301 -0.6351 -0.0457 -0.6084
  958MOL0     H32158   0.788   2.981   6.305  0.5660  2.3700  3.5180
  958MOL0     H32159   0.816   3.153   6.250  0.8042  0.5316 -4.0499
  958MOL0     H32160   0.872   2.915   6.071  2.2597 -0.2342 -0.9195
  958MOL0     H32161   0.745   3.027   6.053 -0.0325 -1.1177 -0.7840
  958MOL0     H32162   0.848   3.080   5.779  0.1045 -0.5119 -2.2063
  958MOL0     H32163   0.896   3.066   5.554 -0.0547  1.4830 -1.1047
  958MOL0     H32164   0.930   2.892   5.517  0.2982  0.1976  0.6075
  958MOL0     H32165   1.058   3.018   5.498  1.5865 -2.1043 -0.1387
  958MOL0     H32166   1.343   2.576   5.522  2.1636 -4.3021  0.1737
  958MOL0     H32167   1.522   2.463   5.393 -0.1313  0.0392 -1.3147
  958MOL0     H32168   1.882   2.620   5.452 -1.8335  3.6757 -1.5958
  958MOL0     H32169   1.914   2.467   5.377 -1.8011 -0.0820 -1.2255
  958MOL0     H32170   1.976   2.592   5.157  0.0476 -2.3562  0.3528
  958MOL0     H32171   1.905   2.736   5.233 -2.0115 -0.3867 -1.0761
  958MOL0     H32172   2.085   2.751   5.387  3.6565  1.6495 -0.5292
  958MOL0     H32173   2.149   2.755   5.219  1.3534 -2.2516 -2.1531
  958MOL0     H32174   2.236   2.540   5.244 -0.6257  0.1520 -0.2013
  958MOL0     H32175   2.152   2.497   5.380 -0.7903 -3.8618 -5.8195
  958MOL0     H32176   2.382   2.698   5.349 -1.1081  0.9987 -1.0347
  958MOL0     H32177   2.274   2.734   5.475 -0.1772  2.2144 -2.4453
  958MOL0     H32178   2.465   2.487   5.452  3.0702  0.5675  4.5952
  958MOL0     H32179   2.319   2.472   5.541 -1.9477 -0.3898 -3.4844
  958MOL0     H32180   2.545   2.533   5.655 -1.0993 -0.3020  2.9203
  958MOL0     H32181   2.393   2.606   5.707  1.2279 -1.2841  1.5399
  958MOL0     H32182   2.532   2.795   5.712  2.4283 -1.1647  1.6159
  958MOL0     H32183   2.487   2.808   5.539  0.2381 -0.2876  0.4924
  958MOL0     H32184   1.785   2.800   5.455 -0.4006  2.6302 -0.8891
  958MOL0     H32185   1.610   2.912   5.591  0.9668 -0.7341  0.0709
  958MOL0     H32186   1.313   2.918   5.859 -0.4529 -0.5304 -0.9550
  958MOL0     H32187   1.176   3.023   6.047 -3.4338  0.7929  0.3269
  958MOL0     H32188   2.304   3.432   6.018  2.2464  0.9897  0.1108
  958MOL0     H32189   2.295   3.524   5.771  2.8909  4.5205  1.7112
  958MOL0     H32190   2.075   3.920   5.577  0.7913  0.1779  0.7227
  958MOL0     H32191   2.032   4.035   5.328 -1.1681 -0.6424 -2.0508
  958MOL0     H32192   1.786   3.868   5.076  4.8371 -2.4047 -0.2559
  958MOL0     H32193   1.800   4.005   5.175  1.9886  1.9208 -0.3148
  958MOL0     H32194   1.845   4.157   5.004 -2.0949 -0.0601  0.3120
  958MOL0     H32195   1.711   4.051   4.978 -0.2672 -0.8102  0.3871
  958MOL0     H32196   1.977   4.012   4.823  0.1999  0.7925 -2.1544
  958MOL0     H32197   1.831   3.914   4.804  0.2760  0.1286 -1.5759
  958MOL0     H32198   1.692   4.122   4.751 -1.1857 -3.9447  2.9424
  958MOL0     H32199   1.797   4.058   4.632  0.6090 -0.3545  1.3012
  958MOL0     H32200   1.990   4.426   4.707 -2.5566  0.8894  0.2503
  958MOL0     H32201   1.950   3.674   5.144  0.1680 -1.7636  0.6626
  958MOL0     H32202   1.924   3.462   5.274 -3.5320 -0.6113  0.3210
  958MOL0     H32203   2.009   3.461   5.439 -0.7118 -0.6733  0.3388
  958MOL0     H32204   1.844   3.504   5.424  1.7000  1.0214  3.0454
  959MOL0     O32205  11.482   3.892   5.203 -0.5004  0.6584  0.2044
  959MOL0     C32206  11.376   3.944   5.222 -0.5353  0.4870 -0.2603
  959MOL0     O32207  11.315   3.931   5.343  0.2745 -0.3678  0.5142
  959MOL0     C32208  11.379   3.986   5.448 -0.4450  0.5116  0.1226
  959MOL0     C32209  11.514   4.020   5.462  0.2364  0.0451 -0.8056
  959MOL0     C32210  11.568   4.081   5.578  0.8007  0.2602  0.0893
  959MOL0     C32211  11.482   4.088   5.687  0.4883  0.8085 -0.7975
  959MOL0     O32212  11.537   4.132   5.805 -0.0940  0.7170 -0.3296
  959MOL0     C32213  11.610   4.028   5.875  0.3958 -0.3327 -0.4310
  959MOL0     C32214  11.722   4.106   5.941 -1.0499 -0.6672 -0.1618
  959MOL0     C32215  11.840   4.025   5.997  0.0738 -0.2772  0.1184
  959MOL0     C32216  11.942   4.129   6.040 -0.9025  0.4870  0.2397
  959MOL0     C32217  12.060   4.054   6.105  0.1585 -0.0917  0.1533
  959MOL0     C32218  12.188   4.140   6.148 -0.4427  0.4467 -0.3809
  959MOL0     C32219  12.284   4.050   6.221 -0.2486  0.4621 -0.6649
  959MOL0     C32220  12.393   4.139   6.275  0.9680 -0.2067  0.5098
  959MOL0     N32221  12.492   4.079   6.366 -0.4158  0.2890  0.1637
  959MOL0     C32222  12.589   3.973   6.343  0.1820  0.3779  0.0503
  959MOL0     C32223  12.620   3.931   6.471  1.1833  0.5353 -0.9616
  959MOL0     C32224  12.701   3.822   6.512 -0.1360 -0.9098 -0.4945
  959MOL0     C32225  12.612   3.721   6.591  0.1562 -1.2053 -0.0721
  959MOL0     C32226  12.546   3.636   6.488  0.1232  0.9471 -0.4053
  959MOL0     C32227  12.434   3.555   6.551 -1.0658  0.1076  0.2085
  959MOL0     O32228  12.376   3.465   6.453 -0.3042  0.0845 -1.0730
  959MOL0     C32229  12.271   3.517   6.371  0.4920  0.4976 -0.7542
  959MOL0     C32230  12.196   3.423   6.308  0.0029  0.3132  0.8379
  959MOL0     C32231  12.092   3.460   6.217 -0.9950  0.3921  0.2285
  959MOL0     C32232  11.995   3.347   6.183  0.0192  0.1838 -0.8654
  959MOL0     C32233  12.062   3.592   6.191 -0.6128 -0.1919 -0.3906
  959MOL0     C32234  11.954   3.637   6.108  0.9793  0.0747  0.1232
  959MOL0     O32235  11.879   3.553   6.025 -0.3102 -0.1127 -0.6793
  959MOL0     C32236  11.758   3.604   5.986 -0.3077  0.7968  0.3863
  959MOL0     C32237  11.705   3.573   5.864  0.1223  0.9797 -0.6299
  959MOL0     C32238  11.576   3.597   5.825 -0.1337 -1.0092 -0.3298
  959MOL0     C32239  11.492   3.666   5.910 -0.1354 -0.4156 -0.3183
  959MOL0     O32240  11.374   3.723   5.867  0.2545  0.3967 -0.1532
  959MOL0     C32241  11.313   3.693   5.745  0.4023 -1.2531  0.1096
  959MOL0     C32242  11.256   3.554   5.704 -0.5353 -1.1038 -0.2834
  959MOL0     C32243  11.235   3.532   5.566 -0.8519 -0.5970  0.0824
  959MOL0     C32244  11.134   3.620   5.483 -0.3003  0.4039 -0.2021
  959MOL0     C32245  11.135   3.592   5.330  0.4727  0.5338 -0.6751
  959MOL0     C32246  11.025   3.665   5.262 -0.3603 -0.6782 -0.1546
  959MOL0     C32247  10.884   3.621   5.284  0.6093  0.5989  0.5646
  959MOL0     C32248  10.779   3.708   5.211 -0.2439 -0.4908 -0.0686
  959MOL0    Cl32249  10.789   3.878   5.276 -0.3261  0.0429  0.2853
  959MOL0     C32250  11.536   3.699   6.038  0.0298 -0.8504  0.7809
  959MOL0     C32251  11.662   3.659   6.073  0.4037  0.3748  0.1725
  959MOL0     O32252  11.919   3.754   6.124  0.0916  0.2463 -0.0150
  959MOL0     C32253  12.141   3.688   6.263 -0.8748 -0.0599 -0.0250
  959MOL0     C32254  12.239   3.650   6.355  0.5247  0.6755 -1.2961
  959MOL0     N32255  12.547   4.013   6.560  0.6977 -0.3104  0.1645
  959MOL0     N32256  12.475   4.100   6.499 -1.0322 -0.1871  0.4284
  959MOL0     C32257  11.348   4.063   5.681  0.6264 -0.5000 -0.3433
  959MOL0     C32258  11.291   4.015   5.560 -0.0159  0.8562  0.4504
  959MOL0     C32259  11.288   3.986   5.112 -0.1832 -0.0101  0.5150
  959MOL0     C32260  11.148   3.987   5.128 -0.6118  0.1518 -0.1757
  959MOL0     C32261  11.061   4.030   5.028  0.0289  1.0078 -0.7491
  959MOL0     C32262  11.108   4.073   4.913 -0.4291 -0.4218  0.1880
  959MOL0     O32263  11.027   4.141   4.822 -0.0323 -0.2806  0.3037
  959MOL0     C32264  10.948   4.069   4.736 -0.2741  0.0990 -0.7249
  959MOL0     C32265  11.029   3.990   4.635 -0.1510 -0.1983  0.3082
  959MOL0     C32266  10.934   3.903   4.558 -0.1020 -1.7901  0.2689
  959MOL0     C32267  11.000   3.860   4.420 -0.1646  0.2721  0.2592
  959MOL0     C32268  10.938   3.735   4.364  0.3334  0.1160  0.2904
  959MOL0     C32269  10.897   3.632   4.315  0.8483  0.3172 -0.2757
  959MOL0     C32270  11.252   4.087   4.898  0.5226  0.0645 -0.1982
  959MOL0     C32271  11.342   4.040   4.997  0.7665  0.7712  0.2789
  959MOL0     C32272  11.483   4.055   4.967  0.9494 -0.5296  0.2862
  959MOL0     H32273  11.591   4.000   5.387 -0.7464 -0.1196 -1.8016
  959MOL0     H32274  11.675   4.101   5.580  1.1058 -0.5225 -3.4140
  959MOL0     H32275  11.649   3.955   5.803 -2.0114  1.0119 -3.3172
  959MOL0     H32276  11.542   3.974   5.942 -2.1866  0.8733 -1.9061
  959MOL0     H32277  11.760   4.164   5.857 -3.9075  0.5377 -0.7195
  959MOL0     H32278  11.680   4.171   6.018  0.3584  0.0016  0.0711
  959MOL0     H32279  11.801   3.975   6.086  0.7468  0.0100  0.5820
  959MOL0     H32280  11.883   3.950   5.931  1.7109  0.9399 -0.2626
  959MOL0     H32281  11.979   4.173   5.947 -0.2113  3.6892  1.9070
  959MOL0     H32282  11.890   4.206   6.097 -0.6525 -0.5432  1.9202
  959MOL0     H32283  12.083   3.964   6.047 -0.2368 -0.6975  0.9083
  959MOL0     H32284  12.012   4.011   6.193  0.0024  1.4833  0.8643
  959MOL0     H32285  12.231   4.177   6.054  0.3824 -3.9478 -2.0178
  959MOL0     H32286  12.161   4.227   6.207  1.0359  2.1796 -2.1286
  959MOL0     H32287  12.314   3.962   6.165  0.3061  1.4700 -2.0155
  959MOL0     H32288  12.250   4.004   6.314  2.7360 -1.3111 -0.3348
  959MOL0     H32289  12.453   4.180   6.193  3.8683 -0.8730  2.1445
  959MOL0     H32290  12.354   4.228   6.324  0.9476  0.8573 -1.3405
  959MOL0     H32291  12.629   3.925   6.254  0.2461 -0.1334  0.3518
  959MOL0     H32292  12.785   3.857   6.573  0.7195  1.2215 -2.7279
  959MOL0     H32293  12.737   3.778   6.419  0.8741 -2.4646  0.5776
  959MOL0     H32294  12.686   3.660   6.644  1.1835  1.9207  2.3922
  959MOL0     H32295  12.541   3.764   6.661 -0.7005  2.7034 -3.0029
  959MOL0     H32296  12.491   3.698   6.416 -0.0293 -0.0008 -1.1411
  959MOL0     H32297  12.608   3.573   6.423 -0.6881  1.9048 -2.1752
  959MOL0     H32298  12.468   3.501   6.639  2.0083  2.0232  0.3590
  959MOL0     H32299  12.363   3.630   6.587  0.3232  0.6831  1.8618
  959MOL0     H32300  12.204   3.322   6.347 -4.6873  0.5212  2.9487
  959MOL0     H32301  11.892   3.382   6.175  0.6781  1.9673 -2.1831
  959MOL0     H32302  11.994   3.265   6.256 -3.6716  1.2715  0.5395
  959MOL0     H32303  12.017   3.307   6.084  1.3499 -0.6826 -0.2504
  959MOL0     H32304  11.762   3.506   5.801 -0.2307 -1.3912  1.3862
  959MOL0     H32305  11.532   3.571   5.729 -1.6054 -2.0900  0.5854
  959MOL0     H32306  11.242   3.774   5.726  1.8851  0.0788  0.0304
  959MOL0     H32307  11.393   3.714   5.673  1.8317 -4.2575  0.6565
  959MOL0     H32308  11.322   3.480   5.751 -0.6165 -0.0452  1.6241
  959MOL0     H32309  11.155   3.538   5.741 -0.0060 -1.5763  1.0231
  959MOL0     H32310  11.196   3.430   5.556  0.0962 -0.8096 -1.7229
  959MOL0     H32311  11.330   3.513   5.515  1.4174  2.1590  2.8406
  959MOL0     H32312  11.157   3.727   5.479 -3.1626  1.0932 -0.3847
  959MOL0     H32313  11.033   3.586   5.507 -0.4325  0.0617 -1.1931
  959MOL0     H32314  11.230   3.630   5.293  1.1107  1.3480  1.5941
  959MOL0     H32315  11.133   3.484   5.311 -1.8225  0.5669 -0.9591
  959MOL0     H32316  11.051   3.652   5.157 -0.5855 -0.7172 -0.2036
  959MOL0     H32317  11.025   3.771   5.291 -2.9817 -0.6999  0.1242
  959MOL0     H32318  10.856   3.615   5.390 -0.1328  2.3682  0.5046
  959MOL0     H32319  10.877   3.524   5.233 -2.6354 -0.0967  2.1063
  959MOL0     H32320  10.680   3.670   5.239 -1.1952  0.9152 -1.3525
  959MOL0     H32321  10.794   3.714   5.102 -0.3942 -2.3727 -0.2313
  959MOL0     H32322  11.466   3.749   6.104 -0.9622 -1.9832  0.6060
  959MOL0     H32323  11.691   3.678   6.176  2.4704 -0.1663 -0.2573
  959MOL0     H32324  12.119   3.793   6.250  1.3361  0.1605 -3.2932
  959MOL0     H32325  12.296   3.737   6.386 -0.2511  0.6210  0.4064
  959MOL0     H32326  11.283   4.082   5.766 -1.2597 -1.0032 -1.6248
  959MOL0     H32327  11.183   4.009   5.551  0.0762 -1.7535  0.4118
  959MOL0     H32328  11.097   3.958   5.220 -2.8134  0.7831 -1.1209
  959MOL0     H32329  10.957   4.024   5.056  0.6786  2.4531  2.2777
  959MOL0     H32330  10.892   3.996   4.795 -0.3417 -1.5470 -2.6971
  959MOL0     H32331  10.871   4.121   4.678  0.9387  1.3009 -1.3314
  959MOL0     H32332  11.111   3.934   4.682 -0.1819  0.3649  1.0615
  959MOL0     H32333  11.070   4.062   4.564  1.4648 -1.1669  0.2035
  959MOL0     H32334  10.918   3.814   4.619  3.0527 -2.0414  0.9109
  959MOL0     H32335  10.840   3.954   4.537  0.3531 -0.5773  1.0480
  959MOL0     H32336  11.103   3.833   4.442  0.1316  1.1583  0.0239
  959MOL0     H32337  11.002   3.940   4.345  1.0396  1.6060  1.6255
  959MOL0     H32338  10.866   3.536   4.279  0.0782  0.1221  0.8715
  959MOL0     H32339  11.287   4.131   4.805 -2.5837  3.8715  0.1701
  959MOL0     H32340  11.490   4.077   4.860 -0.0473 -2.8649 -0.3206
  959MOL0     H32341  11.528   4.141   5.017  0.0566 -0.2965  0.7085
  959MOL0     H32342  11.535   3.965   5.001 -1.3097 -2.1315 -0.3075
  960MOL0     O32343  10.884   2.421  10.386 -0.7292  0.7924  0.6662
  960MOL0     C32344  10.801   2.362  10.459 -0.2499 -0.3723  0.2066
  960MOL0     O32345  10.704   2.421  10.534 -0.6229  0.5249  0.5020
  960MOL0     C32346  10.679   2.556  10.541  1.2780  0.5908  0.0904
  960MOL0     C32347  10.624   2.617  10.658 -0.3568 -0.3005  0.4674
  960MOL0     C32348  10.603   2.754  10.670  1.4791 -0.4001 -0.2450
  960MOL0     C32349  10.613   2.833  10.560  0.7906  0.8561  0.5867
  960MOL0     O32350  10.606   2.969  10.549 -0.2130 -0.0300  0.4597
  960MOL0     C32351  10.601   3.056  10.662  0.1626 -0.0648  0.0519
  960MOL0     C32352  10.573   3.194  10.619 -0.6034 -0.5513  0.7001
  960MOL0     C32353  10.634   3.297  10.722 -0.0358  0.9358  1.0253
  960MOL0     C32354  10.728   3.404  10.658 -0.2988  1.1643  0.3785
  960MOL0     C32355  10.791   3.502  10.763  0.5388  1.6361 -0.0686
  960MOL0     C32356  10.874   3.609  10.700  0.2423  0.3479 -0.4465
  960MOL0     C32357  10.914   3.716  10.800 -0.0785 -0.7158 -0.5691
  960MOL0     C32358  10.992   3.822  10.727 -0.7940  0.3650 -0.8964
  960MOL0     N32359  11.115   3.771  10.668  0.2529  0.2527 -0.1832
  960MOL0     C32360  11.125   3.744  10.529  0.0119  0.6810 -0.6223
  960MOL0     C32361  11.261   3.722  10.516  0.7063 -0.5492 -0.0787
  960MOL0     C32362  11.319   3.695  10.385 -0.4671 -0.3386 -0.0166
  960MOL0     C32363  11.326   3.558  10.334 -0.0084  0.6738  0.9019
  960MOL0     C32364  11.421   3.473  10.407 -0.1266 -0.2762  0.4716
  960MOL0     C32365  11.560   3.529  10.439 -0.7713  0.8188  1.2212
  960MOL0     O32366  11.656   3.430  10.471 -0.5943  0.6223 -0.5424
  960MOL0     C32367  11.625   3.367  10.585  0.1988  0.0192  0.1220
  960MOL0     C32368  11.607   3.434  10.712 -0.1242 -0.1086 -0.4363
  960MOL0     C32369  11.575   3.360  10.829 -0.2585 -0.8652  1.1708
  960MOL0     C32370  11.547   3.431  10.948 -0.3217 -0.3565 -0.4261
  960MOL0     C32371  11.579   3.214  10.824  0.3847 -0.8314  1.3449
  960MOL0     C32372  11.540   3.114  10.935 -0.1984 -0.7000 -0.9512
  960MOL0     O32373  11.490   2.993  10.894 -0.1567  0.4625 -0.4366
  960MOL0     C32374  11.449   2.895  10.985 -0.4532 -0.4458  1.1306
  960MOL0     C32375  11.362   2.914  11.093 -0.2114 -0.1704 -0.2999
  960MOL0     C32376  11.327   2.803  11.172 -0.9845  0.5245  0.5647
  960MOL0     C32377  11.376   2.675  11.141 -0.7676  0.1444  1.4703
  960MOL0     O32378  11.326   2.570  11.211 -0.7864 -0.5879  0.0283
  960MOL0     C32379  11.383   2.442  11.175 -0.2652 -0.5595  0.1880
  960MOL0     C32380  11.331   2.331  11.259 -0.1649 -0.5033  0.5769
  960MOL0     C32381  11.342   2.198  11.184  0.5215  0.9113 -0.7738
  960MOL0     C32382  11.299   2.076  11.273 -0.1549  0.4507  0.1422
  960MOL0     C32383  11.379   1.953  11.223 -0.2285 -0.7191  0.4470
  960MOL0     C32384  11.378   1.907  11.074  0.3831 -0.1223  0.0296
  960MOL0     C32385  11.227   1.866  11.041  0.1420  0.3714 -0.8959
  960MOL0     C32386  11.199   1.799  10.912 -0.8249  0.2476  0.3821
  960MOL0    Cl32387  11.214   1.901  10.765 -0.2192  0.3702 -0.3169
  960MOL0     C32388  11.473   2.660  11.027 -0.3031  0.5427 -0.2877
  960MOL0     C32389  11.500   2.774  10.947 -0.7922 -0.6277  0.2655
  960MOL0     O32390  11.554   3.142  11.056  0.6605 -0.8889  0.8263
  960MOL0     C32391  11.601   3.152  10.699 -0.0042  0.3234  0.7122
  960MOL0     C32392  11.616   3.233  10.586  0.3015 -0.1164 -0.2173
  960MOL0     N32393  11.329   3.741  10.632 -0.8043 -0.2913  0.5889
  960MOL0     N32394  11.240   3.774  10.723  0.2884  0.8826  0.2402
  960MOL0     C32395  10.649   2.781  10.441 -0.3387 -0.6334  0.0300
  960MOL0     C32396  10.695   2.646  10.424 -0.3255  0.0052 -0.7417
  960MOL0     C32397  10.793   2.217  10.453  0.2427  1.5217 -0.2629
  960MOL0     C32398  10.674   2.155  10.397  0.3212  0.4776 -0.9504
  960MOL0     C32399  10.679   2.014  10.372 -0.4834 -0.1954  0.8096
  960MOL0     C32400  10.800   1.942  10.403  0.1356 -0.4679 -0.5020
  960MOL0     O32401  10.785   1.808  10.379 -0.5914 -0.5101 -0.3347
  960MOL0     C32402  10.892   1.732  10.308  0.4736 -0.6873  0.4887
  960MOL0     C32403  10.865   1.582  10.332 -0.2281 -0.2354  0.2399
  960MOL0     C32404  10.989   1.501  10.386  0.0186 -0.3251 -0.6790
  960MOL0     C32405  10.978   1.516  10.543  0.0896  0.3479  1.0289
  960MOL0     C32406  11.104   1.532  10.605 -0.0045  0.5054 -0.6270
  960MOL0     C32407  11.209   1.567  10.657 -0.6684  0.0984  0.1570
  960MOL0     C32408  10.904   2.000  10.464  0.1108  0.1712  0.9444
  960MOL0     C32409  10.904   2.136  10.495 -0.3400  0.1743 -0.6913
  960MOL0     C32410  11.023   2.195  10.568 -0.5043  0.0665 -0.1725
  960MOL0     H32411  10.608   2.545  10.737  0.5085 -0.8165  0.1877
  960MOL0     H32412  10.565   2.785  10.767 -2.7775 -4.0444 -0.3949
  960MOL0     H32413  10.701   3.050  10.705 -0.9959 -1.6400  2.7945
  960MOL0     H32414  10.531   3.003  10.728  0.4638 -2.4116 -1.3896
  960MOL0     H32415  10.621   3.221  10.524  0.0251  0.5365  1.3221
  960MOL0     H32416  10.466   3.210  10.601  0.1998  1.5412 -3.3034
  960MOL0     H32417  10.555   3.361  10.762  0.8213  1.8401  1.3051
  960MOL0     H32418  10.683   3.252  10.809  1.4369 -1.7317 -1.0177
  960MOL0     H32419  10.810   3.355  10.604 -1.3685  0.6623 -0.8426
  960MOL0     H32420  10.680   3.468  10.583  2.4142  2.4490 -0.4110
  960MOL0     H32421  10.858   3.446  10.828 -0.5740 -1.2585 -1.2640
  960MOL0     H32422  10.703   3.539  10.815 -1.6327 -1.5434 -1.1850
  960MOL0     H32423  10.963   3.559  10.660  0.1305  0.3495 -0.7010
  960MOL0     H32424  10.823   3.663  10.620  1.7055  1.1876 -0.8553
  960MOL0     H32425  10.990   3.678  10.869  1.0205 -0.6623 -1.7082
  960MOL0     H32426  10.834   3.760  10.860  1.1562 -3.2278  3.3138
  960MOL0     H32427  10.920   3.873  10.663 -5.4586 -0.2098  3.3459
  960MOL0     H32428  11.023   3.900  10.798 -1.5826 -0.8837  0.8574
  960MOL0     H32429  11.051   3.756  10.450  0.0857  2.1662 -0.4946
  960MOL0     H32430  11.423   3.730  10.382 -0.1512 -1.3242 -1.0432
  960MOL0     H32431  11.267   3.760  10.314  1.0128  2.6470  1.4420
  960MOL0     H32432  11.226   3.513  10.342 -1.1010  2.7034 -0.3063
  960MOL0     H32433  11.362   3.557  10.231  2.3302 -2.1976  1.5894
  960MOL0     H32434  11.389   3.446  10.509 -0.2020  0.1448  0.5616
  960MOL0     H32435  11.420   3.382  10.346 -4.5610  0.9547 -1.7211
  960MOL0     H32436  11.589   3.579  10.346 -1.2323 -2.6894 -0.9920
  960MOL0     H32437  11.557   3.603  10.520  0.4785  0.3624  1.7070
  960MOL0     H32438  11.614   3.541  10.727  0.2184  0.1121 -1.9633
  960MOL0     H32439  11.534   3.539  10.941  0.6752  0.1636  3.5276
  960MOL0     H32440  11.623   3.416  11.026  0.0401  4.1036  0.3558
  960MOL0     H32441  11.456   3.380  10.979  0.4630 -0.0798  2.6845
  960MOL0     H32442  11.326   3.010  11.128  3.8687  1.1918  0.6561
  960MOL0     H32443  11.274   2.815  11.266  1.6215 -3.5582  2.8605
  960MOL0     H32444  11.361   2.412  11.072 -1.8963 -2.1782  0.9630
  960MOL0     H32445  11.492   2.436  11.180 -0.2145 -0.7148 -0.8711
  960MOL0     H32446  11.402   2.321  11.341  1.8476  5.5974  0.0583
  960MOL0     H32447  11.227   2.354  11.286 -0.4593  1.4508 -1.8849
  960MOL0     H32448  11.444   2.178  11.150  0.6735  1.5550 -0.7183
  960MOL0     H32449  11.281   2.209  11.094 -0.3074  2.5540 -0.0520
  960MOL0     H32450  11.193   2.048  11.280 -0.0830  0.2282  0.3402
  960MOL0     H32451  11.329   2.098  11.375 -0.2721 -0.4819  0.3791
  960MOL0     H32452  11.483   1.978  11.243 -0.1592 -0.0587 -0.6547
  960MOL0     H32453  11.354   1.868  11.286  1.4862 -0.7088  1.1936
  960MOL0     H32454  11.441   1.818  11.068  1.1975  0.3897  0.8847
  960MOL0     H32455  11.415   1.995  11.021  0.3849  0.3106  0.7394
  960MOL0     H32456  11.169   1.959  11.041  0.1440  0.4616 -3.6052
  960MOL0     H32457  11.191   1.805  11.123 -0.0147 -2.5064 -2.9491
  960MOL0     H32458  11.094   1.767  10.908 -0.3215 -1.5136 -3.2450
  960MOL0     H32459  11.254   1.704  10.909 -3.5663 -1.5471  1.8953
  960MOL0     H32460  11.526   2.565  11.019 -3.2696 -1.3055  0.2636
  960MOL0     H32461  11.567   2.774  10.861 -2.4235 -0.1521 -1.0626
  960MOL0     H32462  11.608   3.043  10.695  2.7196  0.4795 -1.2805
  960MOL0     H32463  11.630   3.185  10.489  1.4302 -0.2196 -0.0221
  960MOL0     H32464  10.658   2.842  10.352 -2.1030 -3.2843 -2.1595
  960MOL0     H32465  10.723   2.620  10.323 -1.3625  1.1038 -1.3373
  960MOL0     H32466  10.580   2.208  10.382 -0.6441 -0.4118  1.4839
  960MOL0     H32467  10.590   1.961  10.339 -1.1956  0.4726  1.6205
  960MOL0     H32468  10.880   1.755  10.202  2.8422  0.8369  0.4759
  960MOL0     H32469  10.991   1.758  10.347  1.0111 -0.5581 -0.8882
  960MOL0     H32470  10.837   1.544  10.234 -1.8179 -2.1689  1.3531
  960MOL0     H32471  10.775   1.553  10.388 -0.8254  1.3984  0.1627
  960MOL0     H32472  10.980   1.401  10.343 -1.8137  0.3795 -2.0512
  960MOL0     H32473  11.085   1.547  10.360  1.4159 -2.9164 -0.4716
  960MOL0     H32474  10.929   1.430  10.590  0.4322  0.0246  0.8020
  960MOL0     H32475  10.912   1.602  10.553  0.5589  1.0794 -1.4673
  960MOL0     H32476  11.300   1.601  10.703  0.0779 -0.3163 -0.9593
  960MOL0     H32477  10.981   1.935  10.504 -0.3642 -0.1176  1.3968
  960MOL0     H32478  11.076   2.113  10.617 -1.9476 -1.2281 -0.7281
  960MOL0     H32479  11.096   2.255  10.513  0.6297  0.5235  1.7348
  960MOL0     H32480  10.988   2.250  10.655  0.3606 -0.8059  0.7517
  961MOL0     O32481   2.399   7.815   0.674 -0.0970 -0.1061 -0.3143
  961MOL0     C32482   2.462   7.711   0.641 -0.1611 -0.2438  0.6590
  961MOL0     O32483   2.435   7.588   0.685  0.5672 -0.3018  0.1817
  961MOL0     C32484   2.334   7.576   0.780  0.1931 -1.1611 -0.4237
  961MOL0     C32485   2.362   7.602   0.921 -0.3446  1.4517 -0.6953
  961MOL0     C32486   2.269   7.576   1.017  0.2596 -0.8616 -0.7208
  961MOL0     C32487   2.140   7.546   0.987  0.3276 -0.1994 -0.3544
  961MOL0     O32488   2.060   7.510   1.088 -0.8683  0.4584  0.4769
  961MOL0     C32489   1.964   7.610   1.119  0.3868 -0.7730  0.1740
  961MOL0     C32490   1.885   7.576   1.239 -0.4729  0.4155  0.3807
  961MOL0     C32491   1.792   7.451   1.219 -0.3915  1.5018 -0.5480
  961MOL0     C32492   1.687   7.462   1.334 -0.0590  0.6059  1.0276
  961MOL0     C32493   1.607   7.333   1.343  0.9404  0.0467  0.0614
  961MOL0     C32494   1.487   7.332   1.438  0.3337 -0.6586  0.0171
  961MOL0     C32495   1.375   7.224   1.413 -0.0721  0.0856 -0.0571
  961MOL0     C32496   1.269   7.228   1.534 -0.3237 -0.4425  0.4693
  961MOL0     N32497   1.313   7.180   1.663  0.2608 -0.0013 -0.5775
  961MOL0     C32498   1.240   7.090   1.732 -0.7385  0.7523  0.4950
  961MOL0     C32499   1.285   7.100   1.863 -0.3603 -0.5982  0.1629
  961MOL0     C32500   1.227   7.023   1.981  0.6166 -0.4387 -1.4618
  961MOL0     C32501   1.149   7.123   2.070 -0.7305  0.2481  1.0419
  961MOL0     C32502   1.108   7.063   2.203 -0.0333  0.6061 -1.1230
  961MOL0     C32503   0.964   7.100   2.252 -0.8584 -0.5056 -0.6451
  961MOL0     O32504   0.969   7.056   2.388  0.7330 -0.5193 -0.1807
  961MOL0     C32505   0.870   7.091   2.470 -0.1523  0.2214 -0.9249
  961MOL0     C32506   0.901   7.125   2.604 -0.5381 -0.2391  0.1492
  961MOL0     C32507   0.796   7.122   2.704 -0.4312 -0.2464 -0.4267
  961MOL0     C32508   0.839   7.156   2.846  0.1167 -0.1427  0.3039
  961MOL0     C32509   0.663   7.122   2.669  0.2961 -1.6499  0.4631
  961MOL0     C32510   0.554   7.131   2.765 -0.1733  0.7680  0.1296
  961MOL0     O32511   0.463   7.038   2.767  0.1466 -1.4726  0.5082
  961MOL0     C32512   0.347   7.044   2.846 -0.2744  0.6255  0.5330
  961MOL0     C32513   0.355   7.044   2.980 -0.1929  0.3138 -0.2150
  961MOL0     C32514   0.234   7.048   3.056 -0.2877 -0.3067 -0.6812
  961MOL0     C32515   0.106   7.057   2.994 -0.3176 -0.4348  0.1895
  961MOL0     O32516  -0.002   7.029   3.070  0.3390  0.5480  0.7689
  961MOL0     C32517  -0.121   7.103   3.032  0.8492 -0.4949 -0.4105
  961MOL0     C32518  -0.225   7.090   3.146 -0.1506  0.6989  0.3829
  961MOL0     C32519  -0.185   7.184   3.272  0.1458 -0.8480 -1.2266
  961MOL0     C32520  -0.226   7.104   3.405 -0.6924 -0.4727 -0.4132
  961MOL0     C32521  -0.198   7.178   3.543 -0.2169  0.6517 -0.3811
  961MOL0     C32522  -0.256   7.318   3.562 -0.0366 -0.1733  0.3691
  961MOL0     C32523  -0.405   7.334   3.553  0.5024 -1.0220  1.1240
  961MOL0     C32524  -0.479   7.248   3.653  0.1321  0.4427  0.4652
  961MOL0    Cl32525  -0.654   7.288   3.662 -0.2250  0.3544  0.0591
  961MOL0     C32526   0.104   7.057   2.852 -0.5963 -0.1486  0.8966
  961MOL0     C32527   0.225   7.040   2.778 -0.4856 -1.3077 -0.7766
  961MOL0     O32528   0.543   7.240   2.823  0.4294 -0.3054  0.2721
  961MOL0     C32529   0.633   7.088   2.538 -0.7378 -0.3705  0.2782
  961MOL0     C32530   0.734   7.064   2.441  0.2818 -0.0024  0.6197
  961MOL0     N32531   1.395   7.187   1.865 -0.2065 -0.1254 -0.1383
  961MOL0     N32532   1.403   7.236   1.744 -0.8676 -1.3606  0.1817
  961MOL0     C32533   2.100   7.536   0.855 -0.0396  0.0581  0.2650
  961MOL0     C32534   2.194   7.562   0.752 -0.1114  1.2147  0.1789
  961MOL0     C32535   2.559   7.734   0.526 -0.0124  0.4136 -0.6165
  961MOL0     C32536   2.626   7.851   0.523 -0.0660  0.2543 -0.9163
  961MOL0     C32537   2.723   7.879   0.429 -0.3003 -0.4765  0.8516
  961MOL0     C32538   2.760   7.779   0.335 -0.1938 -0.2035  0.5936
  961MOL0     O32539   2.857   7.800   0.236  0.2107 -0.1035 -0.4621
  961MOL0     C32540   2.813   7.859   0.111  0.8035  0.7140 -0.1050
  961MOL0     C32541   2.689   7.787   0.041 -0.5687  0.4065  0.1118
  961MOL0     C32542   2.680   7.830  -0.110  0.5530  1.1557 -0.6285
  961MOL0     C32543   2.556   7.780  -0.202  0.2878 -0.1958 -0.8300
  961MOL0     C32544   2.575   7.640  -0.252  0.6553 -0.5176 -0.4498
  961MOL0     C32545   2.589   7.528  -0.295  0.4926 -0.1426 -0.1430
  961MOL0     C32546   2.696   7.661   0.338  0.2885  0.2834 -0.1725
  961MOL0     C32547   2.593   7.637   0.427 -0.8778 -0.2870 -1.2863
  961MOL0     C32548   2.528   7.509   0.419  0.7809  0.7635 -0.5480
  961MOL0     H32549   2.465   7.623   0.948 -0.5849  0.8300  0.7946
  961MOL0     H32550   2.298   7.583   1.121 -1.6278  0.2026 -0.2143
  961MOL0     H32551   1.900   7.615   1.031  1.4054 -4.4725 -0.9718
  961MOL0     H32552   2.015   7.706   1.131  4.5112 -2.1926 -3.4391
  961MOL0     H32553   1.953   7.564   1.323 -1.3629  2.4885  1.4787
  961MOL0     H32554   1.819   7.656   1.275 -1.6980  1.0384 -2.9135
  961MOL0     H32555   1.745   7.446   1.121  0.3629 -2.6792 -0.8845
  961MOL0     H32556   1.842   7.354   1.223 -1.2980  1.0165 -0.7288
  961MOL0     H32557   1.740   7.480   1.428  1.4492  2.8070 -0.1705
  961MOL0     H32558   1.612   7.540   1.316 -1.8327 -1.1828  0.2772
  961MOL0     H32559   1.664   7.248   1.382  2.5152  2.2053  2.8249
  961MOL0     H32560   1.563   7.318   1.244  1.4169  2.6676 -0.6083
  961MOL0     H32561   1.530   7.322   1.538 -1.2310 -5.1969  0.4489
  961MOL0     H32562   1.429   7.422   1.421 -0.4160 -1.6268 -3.1972
  961MOL0     H32563   1.402   7.120   1.390  0.0098  0.7072 -3.2124
  961MOL0     H32564   1.331   7.268   1.323  0.3796  5.7435  2.1161
  961MOL0     H32565   1.235   7.332   1.528 -2.5863 -1.1363  0.3629
  961MOL0     H32566   1.180   7.168   1.515 -0.7148 -0.0256  0.9547
  961MOL0     H32567   1.165   7.025   1.688 -0.6633  1.1880 -0.2958
  961MOL0     H32568   1.299   6.964   2.038 -1.7517 -1.6120  0.5271
  961MOL0     H32569   1.146   6.962   1.939 -0.7023 -1.1178  1.7228
  961MOL0     H32570   1.212   7.212   2.076 -2.0087  1.4834 -1.9224
  961MOL0     H32571   1.062   7.150   2.009  0.1580 -1.2918 -1.0503
  961MOL0     H32572   1.116   6.954   2.196 -2.3658  0.2943  0.0041
  961MOL0     H32573   1.176   7.088   2.286 -2.1458  1.9747  0.3146
  961MOL0     H32574   0.930   7.203   2.244 -3.5452 -1.3843 -1.3456
  961MOL0     H32575   0.895   7.042   2.190  1.6870 -2.2871 -2.0439
  961MOL0     H32576   1.008   7.133   2.620 -0.5091  1.0750 -0.6090
  961MOL0     H32577   0.830   7.265   2.845  1.8771  0.0628  1.6476
  961MOL0     H32578   0.946   7.137   2.856  0.1300 -0.0495  0.3400
  961MOL0     H32579   0.783   7.105   2.925 -1.1416  0.2803 -0.2684
  961MOL0     H32580   0.456   7.036   3.018  0.5003 -0.1556 -2.0874
  961MOL0     H32581   0.249   7.028   3.162  1.2486  1.3852 -0.5252
  961MOL0     H32582  -0.093   7.208   3.016  2.7935 -1.1141 -1.2895
  961MOL0     H32583  -0.166   7.065   2.940 -1.0687 -0.7139  0.5519
  961MOL0     H32584  -0.328   7.115   3.116  0.2401 -1.4717 -3.4074
  961MOL0     H32585  -0.223   6.984   3.174 -0.2483 -0.0115 -2.0410
  961MOL0     H32586  -0.238   7.277   3.250 -2.0028 -1.8399 -0.5455
  961MOL0     H32587  -0.076   7.187   3.278  0.1891 -1.0661 -1.8633
  961MOL0     H32588  -0.174   7.007   3.410 -0.8849 -0.6309  5.7610
  961MOL0     H32589  -0.332   7.082   3.390 -1.0140 -0.3834  1.5309
  961MOL0     H32590  -0.239   7.113   3.621  0.5797 -0.8688 -1.1989
  961MOL0     H32591  -0.093   7.175   3.571 -0.8949  0.2212  2.3866
  961MOL0     H32592  -0.205   7.376   3.485 -1.4937 -1.4599 -1.6680
  961MOL0     H32593  -0.221   7.359   3.657  3.5268 -0.5788 -0.5969
  961MOL0     H32594  -0.439   7.296   3.455 -1.1329 -0.7008  1.5327
  961MOL0     H32595  -0.426   7.441   3.550 -1.8572 -1.4328  0.5729
  961MOL0     H32596  -0.427   7.280   3.744  0.4380 -0.2094  0.5256
  961MOL0     H32597  -0.463   7.144   3.622  1.8395  0.9310 -0.4056
  961MOL0     H32598   0.007   7.058   2.801 -2.0154 -0.3834  3.4381
  961MOL0     H32599   0.218   7.051   2.670  1.7669  2.0262 -0.7418
  961MOL0     H32600   0.532   7.087   2.498  0.4943 -0.0864 -3.2322
  961MOL0     H32601   0.709   7.018   2.346 -2.4690  0.1336  1.1951
  961MOL0     H32602   2.002   7.499   0.825 -0.2476  0.8764 -0.0975
  961MOL0     H32603   2.151   7.543   0.654 -0.1370 -1.4310  0.6451
  961MOL0     H32604   2.602   7.925   0.599 -0.4824  0.1846 -0.9742
  961MOL0     H32605   2.788   7.966   0.426 -1.3979  0.3329  0.0949
  961MOL0     H32606   2.788   7.965   0.123 -2.8791 -0.1016  0.8713
  961MOL0     H32607   2.895   7.850   0.039 -0.4355  2.3164 -1.8241
  961MOL0     H32608   2.592   7.815   0.082 -0.7036 -0.1571  0.1757
  961MOL0     H32609   2.696   7.681   0.065  0.9338  0.5374  0.3726
  961MOL0     H32610   2.687   7.939  -0.108  3.1076  1.0813 -1.2638
  961MOL0     H32611   2.770   7.789  -0.157 -0.9500 -0.0786 -2.5410
  961MOL0     H32612   2.540   7.855  -0.280 -0.4962 -1.1575 -1.6179
  961MOL0     H32613   2.463   7.790  -0.145 -0.2676  1.9106 -1.9990
  961MOL0     H32614   2.598   7.424  -0.316  0.0631 -0.4690  1.2065
  961MOL0     H32615   2.731   7.583   0.271 -0.0228 -0.8162  0.9171
  961MOL0     H32616   2.422   7.531   0.433  0.0302 -1.7909 -1.5066
  961MOL0     H32617   2.540   7.467   0.318 -0.5268 -2.1014  0.3732
  961MOL0     H32618   2.554   7.431   0.490  0.7574  2.2764  1.1817
  962MOL0     O32619   0.179   5.220   5.829  0.5190  0.0172 -0.5060
  962MOL0     C32620   0.230   5.331   5.839 -0.5515  0.5133 -0.4633
  962MOL0     O32621   0.173   5.450   5.830 -0.6218  0.0938 -0.3070
  962MOL0     C32622   0.035   5.447   5.805 -0.5007 -0.4944 -0.1477
  962MOL0     C32623  -0.061   5.378   5.882  0.9549  0.2519 -0.0723
  962MOL0     C32624  -0.200   5.404   5.863 -0.6020 -0.0482 -1.0023
  962MOL0     C32625  -0.240   5.495   5.767  0.0027  0.0673 -0.2008
  962MOL0     O32626  -0.376   5.521   5.762  0.2024  0.6496  0.4866
  962MOL0     C32627  -0.427   5.633   5.687 -0.0232 -0.1480  0.2577
  962MOL0     C32628  -0.580   5.638   5.673 -0.4775 -0.0399 -0.7212
  962MOL0     C32629  -0.657   5.719   5.788 -0.4918  0.7298 -0.3514
  962MOL0     C32630  -0.789   5.777   5.737  0.1558 -0.4411 -0.5803
  962MOL0     C32631  -0.887   5.814   5.849  0.3893  0.0496  0.8503
  962MOL0     C32632  -0.822   5.910   5.942 -0.6486 -0.8440  0.5152
  962MOL0     C32633  -0.908   5.952   6.069 -0.4337  0.6090 -0.6945
  962MOL0     C32634  -0.823   6.008   6.178 -0.0998  0.4116 -0.1272
  962MOL0     N32635  -0.747   6.131   6.134  0.3765  0.4176 -0.4261
  962MOL0     C32636  -0.622   6.119   6.065 -0.2270 -0.3441 -0.6138
  962MOL0     C32637  -0.567   6.240   6.059  0.1298 -0.9732  0.1773
  962MOL0     C32638  -0.426   6.277   6.008  0.0975 -0.1703 -1.1105
  962MOL0     C32639  -0.421   6.246   5.852 -0.3621 -0.0179 -0.0705
  962MOL0     C32640  -0.393   6.093   5.826  0.2990  0.0788  0.1775
  962MOL0     C32641  -0.333   6.095   5.681  0.3322  0.0340 -0.9522
  962MOL0     O32642  -0.329   5.959   5.653  0.3970  0.1321  0.2133
  962MOL0     C32643  -0.244   5.918   5.560  0.8044 -0.2642  0.6865
  962MOL0     C32644  -0.295   5.905   5.431  0.4145 -0.2735 -0.3977
  962MOL0     C32645  -0.208   5.856   5.326 -0.0153  0.0771  0.5320
  962MOL0     C32646  -0.285   5.831   5.196  1.3297 -0.3120  0.6749
  962MOL0     C32647  -0.073   5.814   5.358 -0.2887 -0.5249 -0.9125
  962MOL0     C32648   0.017   5.754   5.260 -0.9611 -0.2784 -0.2631
  962MOL0     O32649   0.157   5.729   5.294 -0.3163 -0.2366 -0.5761
  962MOL0     C32650   0.238   5.667   5.199  0.4740 -0.9847  0.1005
  962MOL0     C32651   0.212   5.555   5.135 -0.2944  0.4010 -0.8732
  962MOL0     C32652   0.289   5.512   5.028 -0.6357  1.1576  0.2006
  962MOL0     C32653   0.402   5.584   4.983  0.6208  0.0253  0.2432
  962MOL0     O32654   0.479   5.537   4.879  0.0049 -0.5260 -0.1408
  962MOL0     C32655   0.613   5.568   4.887 -0.3416 -0.0499 -0.6206
  962MOL0     C32656   0.694   5.466   4.807  0.3525  0.4534 -0.0717
  962MOL0     C32657   0.761   5.345   4.879  0.4941 -0.0270 -1.2187
  962MOL0     C32658   0.693   5.278   5.000  0.4472 -0.8634 -0.7624
  962MOL0     C32659   0.751   5.155   5.067 -0.1114  0.3374 -0.2010
  962MOL0     C32660   0.659   5.094   5.166  0.3281  1.1447  0.4035
  962MOL0     C32661   0.538   5.028   5.094 -0.3483  0.2674  0.1856
  962MOL0     C32662   0.439   4.966   5.195 -0.4202 -0.6394  0.5730
  962MOL0    Cl32663   0.519   4.831   5.282 -0.4657  0.4408  0.3912
  962MOL0     C32664   0.435   5.697   5.062 -0.2209  0.2473 -0.4812
  962MOL0     C32665   0.357   5.735   5.162  0.5228 -0.0890 -0.9823
  962MOL0     O32666  -0.035   5.727   5.151  0.1182  0.6102  0.1041
  962MOL0     C32667  -0.024   5.832   5.491 -0.5295  0.2464 -0.1219
  962MOL0     C32668  -0.108   5.889   5.586  0.1491 -0.0495 -0.1635
  962MOL0     N32669  -0.662   6.322   6.110  1.0627  0.1391 -0.2960
  962MOL0     N32670  -0.771   6.265   6.156 -0.1576 -0.1075 -0.3640
  962MOL0     C32671  -0.144   5.542   5.680 -0.1507  0.0217  0.2766
  962MOL0     C32672  -0.008   5.524   5.697 -0.4302  0.7628  0.5150
  962MOL0     C32673   0.384   5.323   5.851  0.7991  0.7849 -0.2208
  962MOL0     C32674   0.456   5.428   5.797  0.4750 -0.7117  0.2556
  962MOL0     C32675   0.578   5.460   5.839 -0.3622  1.1508  0.5038
  962MOL0     C32676   0.635   5.380   5.945 -0.7547 -0.1895  0.0151
  962MOL0     O32677   0.761   5.424   5.994 -0.1528  0.3287  0.5548
  962MOL0     C32678   0.814   5.372   6.115  0.1652 -0.3915 -0.1305
  962MOL0     C32679   0.720   5.388   6.243  0.2136 -0.0460 -0.1424
  962MOL0     C32680   0.703   5.539   6.282 -0.2208 -0.1935  0.0484
  962MOL0     C32681   0.647   5.640   6.172  0.2004  0.5333 -0.3610
  962MOL0     C32682   0.615   5.769   6.243 -0.5066 -0.8692 -0.3145
  962MOL0     C32683   0.579   5.879   6.278  0.0340 -0.3278 -0.5353
  962MOL0     C32684   0.578   5.263   5.988  1.3515 -0.4860  0.3002
  962MOL0     C32685   0.449   5.240   5.952 -0.6927  0.0718  0.1445
  962MOL0     C32686   0.381   5.119   6.023  0.6721  0.4554  0.2813
  962MOL0     H32687  -0.035   5.318   5.969  0.1623  4.6569  3.6167
  962MOL0     H32688  -0.268   5.349   5.926 -1.2286  0.2038 -1.4494
  962MOL0     H32689  -0.392   5.625   5.584 -4.2182 -0.6634 -1.3503
  962MOL0     H32690  -0.399   5.734   5.720  0.8758 -0.6068  0.9283
  962MOL0     H32691  -0.596   5.688   5.577 -1.2305 -0.0310 -0.6030
  962MOL0     H32692  -0.635   5.543   5.660 -2.7849  1.2837 -1.2333
  962MOL0     H32693  -0.664   5.639   5.863 -0.9620  0.4373 -0.7035
  962MOL0     H32694  -0.598   5.804   5.823 -1.9309  1.8508 -0.5742
  962MOL0     H32695  -0.779   5.860   5.667  0.2623 -0.2576 -0.3473
  962MOL0     H32696  -0.842   5.689   5.697 -1.5831 -0.3126  1.2639
  962MOL0     H32697  -0.911   5.723   5.905 -0.5125 -0.4761 -0.3275
  962MOL0     H32698  -0.984   5.853   5.816  1.5561  2.1083 -0.3521
  962MOL0     H32699  -0.730   5.864   5.978  1.0719  1.2219 -0.9944
  962MOL0     H32700  -0.801   6.004   5.890  0.0959 -2.2694 -1.8683
  962MOL0     H32701  -0.943   5.853   6.101 -1.9365  1.0401 -0.9608
  962MOL0     H32702  -0.997   6.012   6.048 -1.1497  0.4959  1.7032
  962MOL0     H32703  -0.891   6.035   6.260  0.1310 -0.5272  0.3896
  962MOL0     H32704  -0.750   5.933   6.210  0.4969  0.7995 -0.5775
  962MOL0     H32705  -0.574   6.030   6.024  0.9777  0.4655 -1.0144
  962MOL0     H32706  -0.358   6.209   6.060 -0.0834 -0.4707 -1.2658
  962MOL0     H32707  -0.398   6.380   6.032 -0.7475 -0.2595  0.3672
  962MOL0     H32708  -0.508   6.268   5.790  0.6913  1.9328 -0.9713
  962MOL0     H32709  -0.339   6.304   5.808 -0.4147  0.9655  1.0975
  962MOL0     H32710  -0.320   6.049   5.894  1.4698  2.6411  0.7012
  962MOL0     H32711  -0.485   6.033   5.829 -0.1231  0.7451  1.5559
  962MOL0     H32712  -0.391   6.154   5.609  0.0154 -0.7077 -1.3140
  962MOL0     H32713  -0.233   6.138   5.690  0.0599  0.2610  3.6879
  962MOL0     H32714  -0.401   5.929   5.418  0.0951 -1.2344  0.3421
  962MOL0     H32715  -0.384   5.878   5.189  0.3239 -2.1366  1.7452
  962MOL0     H32716  -0.289   5.723   5.179 -6.1243 -0.8705  2.4842
  962MOL0     H32717  -0.232   5.883   5.116 -0.1801 -0.4678 -0.4654
  962MOL0     H32718   0.124   5.497   5.159 -0.3036  0.8744  0.2736
  962MOL0     H32719   0.244   5.427   4.978  1.2907  1.6066 -2.5194
  962MOL0     H32720   0.623   5.672   4.854  1.0389  0.2646  0.6578
  962MOL0     H32721   0.655   5.566   4.988  1.9609 -0.2204 -1.4995
  962MOL0     H32722   0.623   5.421   4.738 -1.7851 -0.7420  2.6973
  962MOL0     H32723   0.774   5.510   4.747 -0.7096 -0.1448 -2.0171
  962MOL0     H32724   0.866   5.367   4.901 -0.0805  2.0246 -0.2074
  962MOL0     H32725   0.756   5.259   4.811 -0.9313 -0.6689 -0.3669
  962MOL0     H32726   0.597   5.258   4.952  0.4687 -0.8735 -0.8009
  962MOL0     H32727   0.678   5.348   5.082  1.0980 -1.3477 -0.2112
  962MOL0     H32728   0.780   5.083   4.989 -1.9129  1.6607 -2.1983
  962MOL0     H32729   0.848   5.186   5.107  0.5236  1.2331 -2.3064
  962MOL0     H32730   0.626   5.171   5.236 -1.5111 -0.6670  1.6080
  962MOL0     H32731   0.704   5.007   5.215 -5.2951 -3.0366 -0.8315
  962MOL0     H32732   0.568   4.942   5.034  0.1916  0.8704 -0.4195
  962MOL0     H32733   0.486   5.098   5.028  1.1418 -0.3847 -1.7531
  962MOL0     H32734   0.353   4.949   5.130 -1.1645  1.6648  0.8428
  962MOL0     H32735   0.410   5.051   5.258 -0.4676  0.9912 -1.5192
  962MOL0     H32736   0.531   5.748   5.050  0.9796 -1.9870 -0.8703
  962MOL0     H32737   0.390   5.813   5.230 -1.8483 -0.7627  1.0997
  962MOL0     H32738   0.075   5.802   5.522 -0.1776  1.2569 -0.2254
  962MOL0     H32739  -0.066   5.889   5.686  0.3100 -0.9816 -0.2244
  962MOL0     H32740  -0.172   5.610   5.600 -2.2589 -0.6994  0.3553
  962MOL0     H32741   0.066   5.562   5.627  0.5948 -0.5594  0.8156
  962MOL0     H32742   0.403   5.496   5.730 -0.8713 -0.7393  1.2392
  962MOL0     H32743   0.619   5.557   5.811 -2.2160  1.2885 -2.0917
  962MOL0     H32744   0.824   5.267   6.088  3.2135  0.7003 -4.4269
  962MOL0     H32745   0.919   5.400   6.127  0.5179 -1.3069 -0.9466
  962MOL0     H32746   0.777   5.338   6.321 -0.5647 -0.7607 -0.0149
  962MOL0     H32747   0.623   5.339   6.228 -0.8631  1.3957  1.6826
  962MOL0     H32748   0.644   5.543   6.374 -0.5805  1.2130 -0.2206
  962MOL0     H32749   0.803   5.575   6.306  0.1098 -1.2246  0.2601
  962MOL0     H32750   0.553   5.606   6.128 -2.0971  4.1627  1.3125
  962MOL0     H32751   0.727   5.654   6.099  3.3571  2.0844  3.0679
  962MOL0     H32752   0.566   5.981   6.307  2.3677  0.0319 -0.5356
  962MOL0     H32753   0.627   5.207   6.067 -0.2020 -1.1035  0.8634
  962MOL0     H32754   0.456   5.072   6.088  0.7263 -0.1810 -0.2271
  962MOL0     H32755   0.286   5.146   6.069 -1.5171 -4.3874 -0.8033
  962MOL0     H32756   0.350   5.045   5.950  0.4481 -0.0148  0.8461
  963MOL0     O32757   2.821   8.889   7.733 -0.0824  0.2379  1.1393
  963MOL0     C32758   2.801   9.000   7.775  0.3410 -0.9470  0.4403
  963MOL0     O32759   2.841   9.112   7.707  0.1221  0.0191 -0.1215
  963MOL0     C32760   2.889   9.099   7.578  1.6349 -0.7806  0.5305
  963MOL0     C32761   2.810   9.133   7.464 -0.3308 -0.9035  0.1077
  963MOL0     C32762   2.851   9.106   7.334  1.0346 -0.4278  0.6154
  963MOL0     C32763   2.979   9.055   7.313  1.3478  0.3823  0.8124
  963MOL0     O32764   3.012   9.021   7.185 -0.0888  0.2957  0.0102
  963MOL0     C32765   3.152   9.046   7.152  0.1863  0.2781  0.3666
  963MOL0     C32766   3.150   9.081   7.006  0.5374  0.2773 -0.0396
  963MOL0     C32767   3.088   8.974   6.914 -0.5186 -0.0601  0.5212
  963MOL0     C32768   3.071   9.018   6.769  0.4204 -0.5439  0.3666
  963MOL0     C32769   3.202   9.069   6.708 -0.6551 -0.1764 -0.3456
  963MOL0     C32770   3.198   9.072   6.557 -0.2077  0.3003  0.2559
  963MOL0     C32771   3.119   9.201   6.511 -0.0964 -0.1495 -0.0653
  963MOL0     C32772   3.114   9.187   6.354  0.1209 -0.4997 -0.2243
  963MOL0     N32773   3.055   9.308   6.295 -0.4425  0.1243  0.5966
  963MOL0     C32774   2.919   9.323   6.277  0.2871  0.5481 -0.0274
  963MOL0     C32775   2.905   9.427   6.191 -1.1541  0.1950  0.4444
  963MOL0     C32776   2.783   9.488   6.136  0.6769  0.0988  0.0810
  963MOL0     C32777   2.724   9.410   6.020 -0.0895 -0.8858  0.7654
  963MOL0     C32778   2.803   9.424   5.888  0.4908 -0.0756 -0.1868
  963MOL0     C32779   2.935   9.376   5.887  0.0583  0.7011 -0.3399
  963MOL0     O32780   2.978   9.328   5.753 -0.4858  0.2278 -0.3857
  963MOL0     C32781   2.987   9.191   5.724  0.1632  0.2347 -0.0525
  963MOL0     C32782   3.002   9.086   5.812  0.9753  0.1479  0.6761
  963MOL0     C32783   3.029   8.954   5.762 -0.9855  0.1021  0.5662
  963MOL0     C32784   3.054   8.860   5.865  0.6056 -0.4642 -0.0802
  963MOL0     C32785   3.026   8.923   5.617  0.0469 -0.0438 -0.1927
  963MOL0     C32786   3.036   8.786   5.546 -0.0190  0.9495 -0.5100
  963MOL0     O32787   3.052   8.793   5.414  0.2590  0.5652 -0.0712
  963MOL0     C32788   3.071   8.683   5.333 -0.2681 -0.5075  0.6097
  963MOL0     C32789   3.051   8.716   5.199 -1.0592 -0.1518  0.6608
  963MOL0     C32790   3.072   8.627   5.099  0.0355  0.2044 -0.0537
  963MOL0     C32791   3.106   8.493   5.123  0.1865  0.5169 -0.0250
  963MOL0     O32792   3.126   8.405   5.012  0.2576 -0.2396 -0.1515
  963MOL0     C32793   3.122   8.264   5.026 -1.1059 -0.5033  0.1845
  963MOL0     C32794   3.268   8.221   5.073 -1.2786  0.2930  1.0213
  963MOL0     C32795   3.364   8.225   4.946  0.5412 -0.3807  0.1492
  963MOL0     C32796   3.369   8.093   4.875  0.1573 -0.5470 -0.2088
  963MOL0     C32797   3.488   8.074   4.777  0.2130  0.0157  0.1687
  963MOL0     C32798   3.479   7.938   4.714 -0.3939  0.6711 -0.1717
  963MOL0     C32799   3.577   7.843   4.794  0.3036  0.2334 -0.2055
  963MOL0     C32800   3.699   7.838   4.701 -1.2834 -0.0625 -0.0879
  963MOL0    Cl32801   3.818   7.730   4.770 -1.1164  0.2168  0.6629
  963MOL0     C32802   3.115   8.457   5.262  0.0984  0.1088  0.5491
  963MOL0     C32803   3.089   8.549   5.364 -0.4323  1.1882 -0.1409
  963MOL0     O32804   3.025   8.683   5.607  0.0190 -0.5716 -0.3334
  963MOL0     C32805   3.013   9.036   5.537 -0.6038  0.2388 -0.1240
  963MOL0     C32806   3.003   9.160   5.586 -0.6522 -0.5027 -0.6165
  963MOL0     N32807   3.029   9.481   6.167  0.1121 -0.0857 -0.4225
  963MOL0     N32808   3.120   9.404   6.214  0.2904 -0.2769 -0.3499
  963MOL0     C32809   3.054   9.026   7.426  0.9106 -0.9463 -0.5560
  963MOL0     C32810   3.016   9.047   7.563  0.8511 -0.2354  0.7197
  963MOL0     C32811   2.730   9.016   7.911 -0.6477 -0.3529 -0.1069
  963MOL0     C32812   2.724   9.152   7.967 -0.6880  0.4810 -0.0010
  963MOL0     C32813   2.644   9.179   8.083 -0.0434  0.5917  0.4208
  963MOL0     C32814   2.582   9.072   8.152 -0.3921 -0.9408 -0.2529
  963MOL0     O32815   2.512   9.110   8.262  0.6905 -1.2632 -0.2535
  963MOL0     C32816   2.430   9.014   8.328  0.0675 -0.1276 -0.5253
  963MOL0     C32817   2.367   9.044   8.463 -0.5633 -0.4179 -0.1353
  963MOL0     C32818   2.272   9.173   8.462 -0.4339  0.5129 -0.1473
  963MOL0     C32819   2.162   9.168   8.567  0.5283 -0.3179 -0.0474
  963MOL0     C32820   2.209   9.129   8.703  0.2056  0.8485  0.6049
  963MOL0     C32821   2.248   9.108   8.820 -0.0576  0.2969 -0.2775
  963MOL0     C32822   2.599   8.942   8.094 -0.2763 -0.3143 -0.7816
  963MOL0     C32823   2.662   8.914   7.978 -0.0261  0.3921 -0.2375
  963MOL0     C32824   2.640   8.776   7.915  0.1065 -0.5192  0.1050
  963MOL0     H32825   2.712   9.172   7.490  1.1675  0.7314  4.0392
  963MOL0     H32826   2.783   9.112   7.250  1.4556  1.9618  0.3859
  963MOL0     H32827   3.217   8.960   7.172 -0.1426 -0.4282 -1.3788
  963MOL0     H32828   3.180   9.129   7.218  2.4638 -1.2276  1.4154
  963MOL0     H32829   3.106   9.181   7.001  1.3534  0.6871  0.6393
  963MOL0     H32830   3.253   9.096   6.972  0.0635  2.7404 -0.6151
  963MOL0     H32831   3.149   8.883   6.915  0.4857  0.5817 -0.3134
  963MOL0     H32832   2.984   8.954   6.940 -0.5372 -0.4704  0.1515
  963MOL0     H32833   3.028   8.935   6.712  0.4086 -4.0436  4.9338
  963MOL0     H32834   2.987   9.087   6.755  1.1618  0.1340 -1.0783
  963MOL0     H32835   3.273   8.990   6.736 -0.1658 -0.0754 -1.2527
  963MOL0     H32836   3.240   9.161   6.755  0.5617 -0.6280 -0.4074
  963MOL0     H32837   3.300   9.081   6.517 -1.3886 -2.3659 -3.9344
  963MOL0     H32838   3.151   8.981   6.520  0.0703  1.0218 -2.0557
  963MOL0     H32839   3.178   9.288   6.540  3.8204 -3.0527  1.6098
  963MOL0     H32840   3.022   9.205   6.562  1.0609 -1.8703  2.5102
  963MOL0     H32841   3.215   9.181   6.314 -0.2181 -1.2416 -1.0035
  963MOL0     H32842   3.074   9.091   6.320  2.9754 -1.8252 -0.0703
  963MOL0     H32843   2.832   9.260   6.296  1.2954 -0.3975  1.6751
  963MOL0     H32844   2.788   9.593   6.106 -0.7787 -0.2909 -1.7159
  963MOL0     H32845   2.714   9.478   6.220 -0.4719  1.2420 -0.6790
  963MOL0     H32846   2.710   9.307   6.055 -0.7614 -0.5046  1.6632
  963MOL0     H32847   2.624   9.449   5.999 -0.6651 -2.2328  0.8773
  963MOL0     H32848   2.754   9.375   5.804  2.3606 -0.8351 -0.8763
  963MOL0     H32849   2.804   9.532   5.870  1.7145 -0.2640 -1.4788
  963MOL0     H32850   3.001   9.461   5.904  0.3766 -0.0871  2.9346
  963MOL0     H32851   2.946   9.297   5.961 -1.7760 -0.1185 -0.8970
  963MOL0     H32852   3.012   9.106   5.918  0.5216  1.3123  0.5092
  963MOL0     H32853   3.134   8.790   5.839  1.9609  0.5138  1.2619
  963MOL0     H32854   2.961   8.809   5.891  1.6217 -1.6542  1.4419
  963MOL0     H32855   3.090   8.916   5.953 -1.4808  0.6787  0.0999
  963MOL0     H32856   3.027   8.821   5.186  1.3635  0.4429  0.5295
  963MOL0     H32857   3.081   8.660   4.995 -0.2996 -0.5882 -0.3391
  963MOL0     H32858   3.050   8.227   5.100 -2.4482 -0.0808 -0.8692
  963MOL0     H32859   3.088   8.215   4.935 -1.9439 -1.0367  0.7656
  963MOL0     H32860   3.312   8.284   5.151 -1.3156  1.0296  0.4602
  963MOL0     H32861   3.268   8.118   5.108  2.5002  0.1685  1.0854
  963MOL0     H32862   3.461   8.251   4.989  0.1135  2.2443 -0.3159
  963MOL0     H32863   3.333   8.295   4.868 -1.5967 -1.7498 -0.3247
  963MOL0     H32864   3.279   8.083   4.814  0.9208 -3.7305 -1.0126
  963MOL0     H32865   3.368   8.004   4.938 -0.8332 -0.5987 -0.2769
  963MOL0     H32866   3.498   8.153   4.702  1.9325 -0.9127 -0.6623
  963MOL0     H32867   3.589   8.083   4.820  0.6854  0.1747 -0.9348
  963MOL0     H32868   3.502   7.944   4.607  0.4791  1.9346  0.0579
  963MOL0     H32869   3.380   7.892   4.720  0.7852 -2.0573 -0.1524
  963MOL0     H32870   3.546   7.739   4.804  1.1041 -0.0739 -0.7891
  963MOL0     H32871   3.608   7.882   4.891 -2.2350 -0.5986  1.0266
  963MOL0     H32872   3.731   7.942   4.702  0.2490 -0.4695 -1.7480
  963MOL0     H32873   3.685   7.810   4.596 -0.3450  0.2796 -0.3113
  963MOL0     H32874   3.152   8.356   5.277  1.3443  0.6701  1.3607
  963MOL0     H32875   3.102   8.517   5.467 -2.1369  1.5110  0.2019
  963MOL0     H32876   3.000   9.036   5.430  1.0174  1.9014 -0.3778
  963MOL0     H32877   2.981   9.241   5.518 -1.5361 -1.4204 -1.4539
  963MOL0     H32878   3.153   8.982   7.415  2.5758  1.8372  1.7530
  963MOL0     H32879   3.057   8.999   7.651  0.3958  0.3448  1.2592
  963MOL0     H32880   2.761   9.238   7.911  1.2363 -2.5321 -3.8090
  963MOL0     H32881   2.616   9.277   8.123  1.2673  1.3474 -0.4320
  963MOL0     H32882   2.350   8.983   8.260 -0.7652 -2.5481  1.4205
  963MOL0     H32883   2.492   8.925   8.343  1.1399  0.8407  1.0393
  963MOL0     H32884   2.442   9.059   8.541  1.8977  1.9003 -2.7197
  963MOL0     H32885   2.301   8.962   8.495 -0.0666 -0.8456 -0.1912
  963MOL0     H32886   2.337   9.259   8.480  1.9260 -0.1232 -4.3361
  963MOL0     H32887   2.228   9.193   8.363  1.9754  3.3672 -0.7949
  963MOL0     H32888   2.073   9.117   8.529 -0.5129  2.2150 -1.2169
  963MOL0     H32889   2.139   9.274   8.579  2.9287 -0.0652  3.7798
  963MOL0     H32890   2.273   9.098   8.924 -0.9707  0.4775 -0.0226
  963MOL0     H32891   2.554   8.856   8.143  1.2815  1.1027  3.6369
  963MOL0     H32892   2.612   8.782   7.810 -1.3256 -0.6801  0.4560
  963MOL0     H32893   2.736   8.728   7.938 -1.2599 -3.1967  0.6043
  963MOL0     H32894   2.556   8.726   7.963 -1.9995 -0.2040 -3.0079
  964MOL0     O32895   0.524   0.660   8.663  0.0897 -0.5540 -0.9521
  964MOL0     C32896   0.419   0.724   8.683 -0.3946 -0.3079  0.2058
  964MOL0     O32897   0.416   0.853   8.690  0.0977  0.3130  0.3005
  964MOL0     C32898   0.535   0.918   8.719  0.2148  0.4616  0.3343
  964MOL0     C32899   0.541   0.999   8.835  1.0815 -0.9220  0.9261
  964MOL0     C32900   0.664   1.061   8.875  0.6630 -0.6150 -0.8042
  964MOL0     C32901   0.772   1.049   8.786  0.4152 -0.1101  0.2496
  964MOL0     O32902   0.900   1.096   8.825 -0.1217 -0.1350 -0.8131
  964MOL0     C32903   0.931   1.232   8.799  0.6740  0.7535  0.0815
  964MOL0     C32904   0.853   1.326   8.887 -0.1089  0.3461 -0.0339
  964MOL0     C32905   0.919   1.464   8.871 -0.1547  0.0320  0.2760
  964MOL0     C32906   0.886   1.557   8.994  0.1977  0.8035 -0.3397
  964MOL0     C32907   0.960   1.690   9.009 -0.0316  0.0004  0.1826
  964MOL0     C32908   0.948   1.776   8.876 -0.7684  0.1367 -0.0879
  964MOL0     C32909   0.814   1.838   8.876  0.2838  0.1733 -0.2437
  964MOL0     C32910   0.787   1.922   8.748 -0.3134  0.4486  0.7874
  964MOL0     N32911   0.736   1.815   8.652 -0.1392 -0.5284 -0.0877
  964MOL0     C32912   0.819   1.750   8.562  0.7143 -0.1767 -0.1137
  964MOL0     C32913   0.741   1.652   8.510 -0.5875  0.0548 -0.6312
  964MOL0     C32914   0.776   1.556   8.402  0.6794  0.4510 -0.3494
  964MOL0     C32915   0.806   1.418   8.465  0.2625 -0.4233 -0.2324
  964MOL0     C32916   0.691   1.346   8.517  0.6304 -0.1005 -0.2330
  964MOL0     C32917   0.582   1.323   8.411  0.0880  0.6229  1.2229
  964MOL0     O32918   0.485   1.225   8.450 -0.5742  0.4238 -0.4693
  964MOL0     C32919   0.374   1.260   8.516  0.4837 -0.2384 -0.5066
  964MOL0     C32920   0.284   1.156   8.530  0.7434  0.5210  0.6014
  964MOL0     C32921   0.156   1.173   8.588 -0.5739  0.8452 -0.3992
  964MOL0     C32922   0.062   1.058   8.589 -0.0105  0.3956 -0.3859
  964MOL0     C32923   0.122   1.302   8.639 -0.3475 -0.4222  0.0263
  964MOL0     C32924  -0.002   1.335   8.725 -0.0693 -0.0402  0.4638
  964MOL0     O32925  -0.030   1.469   8.753  0.3789  0.6783  0.5078
  964MOL0     C32926  -0.137   1.502   8.837 -0.1223  0.6426 -0.0329
  964MOL0     C32927  -0.112   1.560   8.961  0.3192  0.7946  0.1367
  964MOL0     C32928  -0.219   1.595   9.047  0.3988 -0.3366 -0.5019
  964MOL0     C32929  -0.351   1.579   9.002 -0.2379  1.2843 -0.2908
  964MOL0     O32930  -0.462   1.627   9.063  0.1766  0.6982  0.1704
  964MOL0     C32931  -0.455   1.692   9.193 -0.6958 -0.2879  0.6397
  964MOL0     C32932  -0.590   1.773   9.208 -0.2894 -1.3289  0.0228
  964MOL0     C32933  -0.595   1.847   9.347 -0.1638 -0.1153  0.0926
  964MOL0     C32934  -0.733   1.846   9.430 -0.2863 -0.1093  0.3171
  964MOL0     C32935  -0.721   1.919   9.566  1.1643 -0.5517 -0.9040
  964MOL0     C32936  -0.629   1.848   9.662 -0.7388 -0.6367 -0.5122
  964MOL0     C32937  -0.675   1.713   9.715  0.2932  0.3227 -0.2481
  964MOL0     C32938  -0.565   1.628   9.769  0.3699  0.1306 -0.4409
  964MOL0    Cl32939  -0.496   1.727   9.903  0.3558  0.2197  0.0064
  964MOL0     C32940  -0.380   1.527   8.878 -0.5007 -0.1175  0.6851
  964MOL0     C32941  -0.272   1.485   8.794  0.5006 -0.7774  0.0589
  964MOL0     O32942  -0.067   1.243   8.770 -0.3937  0.3149  0.1902
  964MOL0     C32943   0.216   1.403   8.630 -0.0774  0.0041  0.5028
  964MOL0     C32944   0.344   1.385   8.562  0.1521  1.4012 -0.3812
  964MOL0     N32945   0.609   1.665   8.565 -0.2359  0.1322  0.4537
  964MOL0     N32946   0.613   1.765   8.648 -0.3265  0.0912 -0.3346
  964MOL0     C32947   0.766   0.958   8.681 -0.1113  0.3173  0.0288
  964MOL0     C32948   0.644   0.909   8.640 -0.8053 -0.1238  0.5223
  964MOL0     C32949   0.297   0.640   8.682  0.5464 -0.4523 -0.6407
  964MOL0     C32950   0.172   0.703   8.707 -0.0304 -0.0240 -0.4160
  964MOL0     C32951   0.055   0.625   8.726 -0.6011  0.1262  0.5085
  964MOL0     C32952   0.052   0.489   8.707 -1.3797  0.7075 -0.0871
  964MOL0     O32953  -0.067   0.419   8.707  0.6595  0.9138 -0.0158
  964MOL0     C32954  -0.201   0.464   8.725  0.6100  0.8110  0.0977
  964MOL0     C32955  -0.253   0.437   8.869  1.1420  0.6225  0.6311
  964MOL0     C32956  -0.254   0.293   8.909  0.1404  0.6596 -0.6761
  964MOL0     C32957  -0.374   0.205   8.871 -1.0361 -1.4945 -0.1656
  964MOL0     C32958  -0.358   0.074   8.930 -1.1368  0.5888  0.2973
  964MOL0     C32959  -0.338  -0.044   8.947 -0.4399 -0.1983 -0.4356
  964MOL0     C32960   0.172   0.423   8.674 -0.4458  1.0404 -0.5038
  964MOL0     C32961   0.291   0.496   8.654  0.1209  0.6209 -0.0142
  964MOL0     C32962   0.405   0.409   8.602 -0.2682 -0.5405  0.2531
  964MOL0     H32963   0.447   1.017   8.886  0.8266 -1.6339  0.7195
  964MOL0     H32964   0.683   1.108   8.971 -0.0851 -0.7318 -0.5872
  964MOL0     H32965   0.916   1.256   8.693  1.5663 -1.3528 -0.5793
  964MOL0     H32966   1.037   1.236   8.825  1.3145 -3.6146 -1.0475
  964MOL0     H32967   0.744   1.326   8.872 -0.1082  0.4562 -0.0428
  964MOL0     H32968   0.868   1.285   8.987 -0.8859 -0.9128 -0.4182
  964MOL0     H32969   1.027   1.447   8.869 -0.0875  0.0926  1.8634
  964MOL0     H32970   0.887   1.508   8.777 -0.4327  0.3179  0.5033
  964MOL0     H32971   0.778   1.568   8.985  0.3148  2.3156 -0.1498
  964MOL0     H32972   0.909   1.499   9.084 -1.7546 -0.6927 -0.7422
  964MOL0     H32973   1.067   1.671   9.016  0.3049  0.7789 -1.9039
  964MOL0     H32974   0.931   1.745   9.099 -0.5095 -0.4755  0.3240
  964MOL0     H32975   1.026   1.853   8.869  0.6327 -0.9734  2.0972
  964MOL0     H32976   0.956   1.709   8.790 -2.3870 -0.0436 -0.1222
  964MOL0     H32977   0.783   1.897   8.962 -4.0068  0.2611 -1.6120
  964MOL0     H32978   0.737   1.760   8.877 -0.1427  0.5891 -0.0517
  964MOL0     H32979   0.715   2.004   8.760 -0.6733  0.2517  0.0548
  964MOL0     H32980   0.882   1.963   8.714 -0.4860 -0.6936 -1.2605
  964MOL0     H32981   0.922   1.761   8.530  0.5157 -2.8567 -2.0441
  964MOL0     H32982   0.871   1.583   8.354 -0.4881  0.0575 -3.0513
  964MOL0     H32983   0.707   1.562   8.318  1.4207  0.3550 -0.9762
  964MOL0     H32984   0.855   1.348   8.396  0.8211 -0.5638  0.2953
  964MOL0     H32985   0.862   1.439   8.557 -0.5769  2.4962 -0.3133
  964MOL0     H32986   0.726   1.250   8.557  1.5940  1.5151  3.1035
  964MOL0     H32987   0.651   1.402   8.601  1.7700  1.6059 -0.7825
  964MOL0     H32988   0.534   1.412   8.371 -1.2902  2.0076  5.3804
  964MOL0     H32989   0.638   1.270   8.334 -0.9958 -4.2137  3.3779
  964MOL0     H32990   0.310   1.058   8.492  0.4412  0.9077 -0.6584
  964MOL0     H32991   0.060   1.012   8.688 -0.9690 -0.4068 -0.7643
  964MOL0     H32992   0.098   0.980   8.521  3.0334  1.6759 -0.4379
  964MOL0     H32993  -0.037   1.095   8.564 -0.5797  0.1396  1.3317
  964MOL0     H32994  -0.010   1.561   8.996  1.2102 -2.0692 -1.9645
  964MOL0     H32995  -0.186   1.635   9.142 -0.8622 -0.8335  0.1806
  964MOL0     H32996  -0.433   1.616   9.268  0.3684  0.0601  0.6949
  964MOL0     H32997  -0.372   1.762   9.198 -0.0758 -0.3410 -4.0381
  964MOL0     H32998  -0.595   1.850   9.130 -2.1964  1.4649  2.6316
  964MOL0     H32999  -0.676   1.706   9.209 -1.2906 -0.0849  0.7840
  964MOL0     H33000  -0.566   1.952   9.336  0.2628  0.0740  2.3384
  964MOL0     H33001  -0.514   1.803   9.407  0.6358  1.7844  0.4823
  964MOL0     H33002  -0.757   1.739   9.439 -0.7880 -0.3010 -2.3690
  964MOL0     H33003  -0.824   1.888   9.386  2.2353  2.6804 -2.6852
  964MOL0     H33004  -0.671   2.014   9.544  0.8889 -0.7541 -2.4671
  964MOL0     H33005  -0.816   1.945   9.613  0.9487  0.1525 -1.7062
  964MOL0     H33006  -0.623   1.912   9.751 -2.3100 -0.1733 -0.7099
  964MOL0     H33007  -0.531   1.842   9.613 -1.0345 -0.8033 -1.0891
  964MOL0     H33008  -0.725   1.656   9.637  1.4821  1.9642 -2.3047
  964MOL0     H33009  -0.762   1.725   9.781  1.2541 -2.6663  1.7890
  964MOL0     H33010  -0.493   1.597   9.692  1.4238 -0.3641  0.7188
  964MOL0     H33011  -0.604   1.537   9.814 -0.0889  0.4686 -0.1530
  964MOL0     H33012  -0.485   1.526   8.850  0.1107 -0.5780 -1.8091
  964MOL0     H33013  -0.285   1.436   8.698  1.0062 -0.9523  0.0771
  964MOL0     H33014   0.188   1.504   8.657 -0.2175  0.0386  0.2279
  964MOL0     H33015   0.419   1.464   8.557 -0.0198  1.7975  2.0766
  964MOL0     H33016   0.853   0.926   8.625 -0.4989 -1.4039  0.3618
  964MOL0     H33017   0.648   0.856   8.545 -2.6151  3.2930 -1.6795
  964MOL0     H33018   0.177   0.811   8.720 -1.3186  0.0894 -0.7668
  964MOL0     H33019  -0.030   0.678   8.768  0.0452 -0.1601  2.2874
  964MOL0     H33020  -0.213   0.571   8.705  1.8690  0.5271 -2.6443
  964MOL0     H33021  -0.274   0.416   8.659 -0.2618  1.4978  0.5442
  964MOL0     H33022  -0.358   0.463   8.879  1.2136  0.2026  3.6049
  964MOL0     H33023  -0.207   0.507   8.940  2.9680  0.9487 -0.7757
  964MOL0     H33024  -0.168   0.240   8.868 -0.5680 -0.4914 -0.7365
  964MOL0     H33025  -0.245   0.290   9.018 -4.3920 -3.4689 -0.0199
  964MOL0     H33026  -0.380   0.182   8.764  0.8527 -1.5572 -0.2865
  964MOL0     H33027  -0.467   0.253   8.904 -0.8843 -0.5563 -1.0499
  964MOL0     H33028  -0.332  -0.151   8.952 -1.7572 -0.2428  1.7340
  964MOL0     H33029   0.172   0.317   8.649  2.8804  0.9008 -0.3713
  964MOL0     H33030   0.467   0.465   8.532  1.9483 -2.2695  0.7433
  964MOL0     H33031   0.464   0.346   8.669 -0.1170 -0.3661  0.2846
  964MOL0     H33032   0.362   0.329   8.541  1.9714 -0.3204 -1.7502
  965MOL0     O33033   7.310   3.223   4.257  0.2052 -0.1480 -0.3509
  965MOL0     C33034   7.296   3.155   4.156 -0.2321  0.0833  0.4596
  965MOL0     O33035   7.305   3.194   4.022  0.1939 -0.6878 -0.7053
  965MOL0     C33036   7.203   3.170   3.939 -0.3444 -0.3342  0.5059
  965MOL0     C33037   7.084   3.107   3.981 -0.3026  1.2040  0.1092
  965MOL0     C33038   6.988   3.087   3.879 -0.6222 -0.0571  0.1210
  965MOL0     C33039   7.002   3.143   3.754  0.2868 -0.5365 -0.2742
  965MOL0     O33040   6.889   3.130   3.666 -0.7514 -0.2677 -0.2312
  965MOL0     C33041   6.864   3.225   3.569 -0.5264 -0.0988  0.7736
  965MOL0     C33042   6.728   3.200   3.497 -0.2620  0.3419  0.8618
  965MOL0     C33043   6.695   3.068   3.417 -0.7672 -0.8662 -0.3056
  965MOL0     C33044   6.549   3.012   3.434 -0.8355  0.7935  0.1849
  965MOL0     C33045   6.537   2.896   3.334  0.0586 -0.0889 -0.2231
  965MOL0     C33046   6.412   2.818   3.374  0.8084 -0.5059 -0.0848
  965MOL0     C33047   6.395   2.691   3.290  0.0575 -0.9267 -0.1187
  965MOL0     C33048   6.273   2.608   3.326  0.2683  0.5397 -0.6255
  965MOL0     N33049   6.149   2.687   3.332 -1.4843 -0.0903  0.6987
  965MOL0     C33050   6.082   2.746   3.229 -0.4589 -0.2094  0.5119
  965MOL0     C33051   5.970   2.801   3.280  0.5626 -0.3368  0.1191
  965MOL0     C33052   5.862   2.887   3.212  0.0869 -0.0353  0.0476
  965MOL0     C33053   5.752   2.790   3.165  0.1102  0.6532  0.1372
  965MOL0     C33054   5.728   2.816   3.013 -0.0014 -0.2544  0.6750
  965MOL0     C33055   5.650   2.943   2.974 -0.3101  0.0150  0.3615
  965MOL0     O33056   5.751   3.052   2.982 -0.2156 -0.5335  0.5401
  965MOL0     C33057   5.793   3.128   2.869  0.6126 -0.7952  0.3670
  965MOL0     C33058   5.732   3.118   2.745 -0.6010  0.3704  0.2061
  965MOL0     C33059   5.755   3.221   2.651 -0.0358  0.3747 -0.6676
  965MOL0     C33060   5.660   3.221   2.538  0.3375  0.1205  0.8530
  965MOL0     C33061   5.853   3.319   2.669 -0.1701  0.2824 -0.7362
  965MOL0     C33062   5.889   3.431   2.565 -0.1612  0.0209 -1.0685
  965MOL0     O33063   5.998   3.505   2.593  0.2515  0.6044  0.0369
  965MOL0     C33064   6.014   3.621   2.531 -0.3027 -0.1726  0.4832
  965MOL0     C33065   6.141   3.650   2.487  0.1369  0.0016 -0.4297
  965MOL0     C33066   6.180   3.777   2.441  0.3312 -0.1759 -0.1836
  965MOL0     C33067   6.077   3.871   2.424  0.6016 -0.4760 -0.4230
  965MOL0     O33068   6.100   4.000   2.380  0.3573  0.0698 -0.5618
  965MOL0     C33069   6.154   4.028   2.254  0.5582  0.5084  0.6590
  965MOL0     C33070   6.140   4.187   2.222  0.0526  0.4865 -0.1092
  965MOL0     C33071   5.998   4.224   2.196 -1.2220  0.3266  0.5159
  965MOL0     C33072   5.945   4.186   2.055 -0.5842 -0.5404  0.2310
  965MOL0     C33073   5.795   4.223   2.033  0.7019 -0.2455 -0.2271
  965MOL0     C33074   5.744   4.167   1.902 -0.4553  0.5703  0.4738
  965MOL0     C33075   5.597   4.197   1.885  0.0961 -1.1631 -0.0158
  965MOL0     C33076   5.522   4.130   1.776  0.3301 -0.6167  0.3296
  965MOL0    Cl33077   5.357   4.189   1.758 -0.0380  0.5493  0.2899
  965MOL0     C33078   5.946   3.833   2.452  0.5383 -0.0836  0.8831
  965MOL0     C33079   5.914   3.710   2.508  0.7014  0.7834 -0.2580
  965MOL0     O33080   5.823   3.440   2.460  0.5807 -0.3115  0.4896
  965MOL0     C33081   5.918   3.325   2.797  0.6510 -0.2443 -0.6955
  965MOL0     C33082   5.880   3.231   2.897 -0.0029 -0.9335  0.1299
  965MOL0     N33083   5.972   2.776   3.409 -0.1579  0.4689 -0.4981
  965MOL0     N33084   6.078   2.708   3.441 -0.2653  0.4082  0.4797
  965MOL0     C33085   7.115   3.214   3.724 -0.6517 -0.4120  0.2495
  965MOL0     C33086   7.222   3.222   3.807  0.3745  0.1520 -0.4260
  965MOL0     C33087   7.304   3.007   4.167  0.0583  0.0189 -0.0002
  965MOL0     C33088   7.346   2.919   4.072  0.1568  0.3167 -0.1958
  965MOL0     C33089   7.373   2.789   4.085 -0.0331  0.5482 -0.8036
  965MOL0     C33090   7.349   2.732   4.205 -0.0555 -0.9239  0.1609
  965MOL0     O33091   7.382   2.598   4.224 -0.3245  0.1720  0.5647
  965MOL0     C33092   7.512   2.581   4.271 -0.5825  0.9866 -0.6144
  965MOL0     C33093   7.539   2.431   4.258  0.2761  0.6214  0.0969
  965MOL0     C33094   7.454   2.343   4.349  1.1242 -0.3680 -0.5703
  965MOL0     C33095   7.398   2.227   4.259  0.1096 -0.8479 -0.2514
  965MOL0     C33096   7.514   2.144   4.222 -0.2385 -0.3436 -0.0162
  965MOL0     C33097   7.610   2.077   4.184  0.6268 -0.1673  0.2780
  965MOL0     C33098   7.280   2.804   4.296  0.0151 -0.7889 -0.0854
  965MOL0     C33099   7.266   2.943   4.288  0.4706 -0.0235 -0.0620
  965MOL0     C33100   7.209   3.017   4.416  0.6633 -0.4326  0.2034
  965MOL0     H33101   7.072   3.073   4.083 -1.4783  0.5611 -0.2192
  965MOL0     H33102   6.901   3.024   3.895 -0.4033 -1.1419 -2.5339
  965MOL0     H33103   6.942   3.216   3.494 -1.6901 -2.6310 -0.2684
  965MOL0     H33104   6.856   3.325   3.613 -1.8993  1.5718 -2.8921
  965MOL0     H33105   6.650   3.193   3.574  0.4350  2.8719  1.8773
  965MOL0     H33106   6.692   3.286   3.440  0.5424 -1.1228 -2.0396
  965MOL0     H33107   6.707   3.078   3.309 -0.7045 -3.5237 -0.6217
  965MOL0     H33108   6.768   2.991   3.444 -3.6767 -3.9141 -0.3344
  965MOL0     H33109   6.529   2.981   3.537  0.2418  2.1063  0.8216
  965MOL0     H33110   6.479   3.092   3.410 -0.0770  1.2667 -0.5188
  965MOL0     H33111   6.628   2.835   3.336  0.9264  1.1338 -1.2773
  965MOL0     H33112   6.526   2.931   3.230 -1.3916 -0.7186 -0.3127
  965MOL0     H33113   6.407   2.789   3.480  2.3370 -2.4496 -0.4767
  965MOL0     H33114   6.335   2.894   3.360  0.3155 -0.6574  1.5244
  965MOL0     H33115   6.483   2.631   3.313  0.6604  0.6638  2.1742
  965MOL0     H33116   6.395   2.716   3.184 -2.2144  2.2229  0.4757
  965MOL0     H33117   6.254   2.531   3.251  4.1953 -2.9687  1.5492
  965MOL0     H33118   6.294   2.555   3.420 -0.9923  1.5894  0.2856
  965MOL0     H33119   6.114   2.744   3.126 -0.3158 -0.7821  0.5633
  965MOL0     H33120   5.902   2.957   3.138  0.2228  0.1533  0.2983
  965MOL0     H33121   5.818   2.955   3.286  0.1616  3.5328 -2.9475
  965MOL0     H33122   5.780   2.686   3.183  2.0828  1.3933  1.9126
  965MOL0     H33123   5.659   2.801   3.221 -1.7127  2.6080 -2.9948
  965MOL0     H33124   5.822   2.822   2.958 -0.0453  1.3566  0.7269
  965MOL0     H33125   5.680   2.724   2.979  1.4155 -3.0722  5.3002
  965MOL0     H33126   5.596   2.931   2.879  1.2696  0.0499 -0.5634
  965MOL0     H33127   5.576   2.978   3.047 -2.0336  0.6955 -1.5940
  965MOL0     H33128   5.661   3.039   2.725  0.4197 -0.5873  0.2715
  965MOL0     H33129   5.602   3.129   2.534  1.2728 -0.4259 -1.4653
  965MOL0     H33130   5.714   3.217   2.443 -2.0022 -2.4157 -0.4958
  965MOL0     H33131   5.600   3.313   2.539  2.9651  2.0050 -0.6069
  965MOL0     H33132   6.215   3.572   2.501  0.1371  0.1654  0.5752
  965MOL0     H33133   6.282   3.807   2.419  0.6804  0.5767  2.1923
  965MOL0     H33134   6.256   3.989   2.259 -0.2694 -1.7352  0.9894
  965MOL0     H33135   6.095   3.963   2.189  0.3253 -1.0533  2.3588
  965MOL0     H33136   6.179   4.241   2.309 -0.9115  1.8181 -0.4656
  965MOL0     H33137   6.199   4.213   2.133 -0.2503  1.0476 -0.1548
  965MOL0     H33138   5.995   4.333   2.195 -2.9453  0.3282 -1.0887
  965MOL0     H33139   5.937   4.191   2.281 -0.1913 -1.4556  0.6073
  965MOL0     H33140   5.965   4.081   2.035  4.7722  0.2103  0.0479
  965MOL0     H33141   6.004   4.244   1.983 -1.3874 -1.9713 -1.6581
  965MOL0     H33142   5.738   4.180   2.116  3.3156 -0.6945  1.4423
  965MOL0     H33143   5.786   4.332   2.043 -0.1624 -0.5098  3.2660
  965MOL0     H33144   5.763   4.060   1.906  0.8702  0.6821 -1.6275
  965MOL0     H33145   5.797   4.215   1.819 -1.9614  0.8094 -0.3951
  965MOL0     H33146   5.586   4.304   1.866  0.6759 -1.3012 -1.2290
  965MOL0     H33147   5.545   4.187   1.981  1.5680  0.5504  1.0111
  965MOL0     H33148   5.516   4.022   1.791  2.6044 -0.7834  0.4746
  965MOL0     H33149   5.565   4.155   1.679 -2.3991  0.9461 -0.5756
  965MOL0     H33150   5.869   3.910   2.445  1.6145  0.8964 -4.7282
  965MOL0     H33151   5.812   3.685   2.537  1.7157  0.6032  3.8147
  965MOL0     H33152   5.984   3.406   2.829 -0.1184 -0.0500  0.4646
  965MOL0     H33153   5.914   3.258   2.996 -0.9149  0.7782  0.0051
  965MOL0     H33154   7.120   3.270   3.631  0.9050  1.1547  1.2042
  965MOL0     H33155   7.317   3.268   3.781  2.1066 -0.5038  3.9261
  965MOL0     H33156   7.360   2.966   3.975  0.5763  4.3279  1.6102
  965MOL0     H33157   7.416   2.742   3.997  3.1707 -0.1811  0.9558
  965MOL0     H33158   7.577   2.642   4.208 -2.7327  1.3320 -2.6407
  965MOL0     H33159   7.521   2.618   4.374 -4.4337  1.0138 -0.1587
  965MOL0     H33160   7.644   2.401   4.267  0.5542  1.1892 -1.1242
  965MOL0     H33161   7.512   2.403   4.156 -2.3949 -2.2106  1.3985
  965MOL0     H33162   7.511   2.297   4.431 -0.4210 -2.1433 -0.4345
  965MOL0     H33163   7.368   2.399   4.387  1.2407  0.5356 -1.5816
  965MOL0     H33164   7.344   2.261   4.170 -0.1865 -2.6933 -0.8166
  965MOL0     H33165   7.330   2.166   4.319  0.4302 -1.5466 -0.5909
  965MOL0     H33166   7.699   2.025   4.155  1.3215 -0.2001  2.3017
  965MOL0     H33167   7.246   2.762   4.390  2.4130  3.2680  2.8925
  965MOL0     H33168   7.119   3.070   4.386  2.1561  1.6498 -0.9009
  965MOL0     H33169   7.183   2.948   4.496 -1.8535 -0.2977 -0.4180
  965MOL0     H33170   7.285   3.089   4.448  0.6240 -0.0603 -0.5298
  966MOL0     O33171   2.545   8.447   8.741  0.3047 -0.4391  0.4059
  966MOL0     C33172   2.541   8.572   8.766 -0.5216  0.2483 -0.3121
  966MOL0     O33173   2.515   8.677   8.677  0.4580  0.4357 -0.4607
  966MOL0     C33174   2.468   8.647   8.553  0.5597 -0.0232  0.4068
  966MOL0     C33175   2.552   8.658   8.448  0.4079 -0.5990  1.2499
  966MOL0     C33176   2.520   8.613   8.318 -0.3507 -0.0581  0.2416
  966MOL0     C33177   2.381   8.583   8.298 -0.1940 -0.1029 -0.3702
  966MOL0     O33178   2.348   8.559   8.168  0.4598 -0.3310 -0.5887
  966MOL0     C33179   2.317   8.417   8.140 -0.0135  0.9452 -0.6617
  966MOL0     C33180   2.384   8.380   8.000  0.4390 -0.8815  0.2037
  966MOL0     C33181   2.309   8.438   7.882  1.5199  0.9450  0.8127
  966MOL0     C33182   2.167   8.379   7.869  0.2419  0.7342  0.3460
  966MOL0     C33183   2.118   8.408   7.732  0.4738  0.5531  0.1123
  966MOL0     C33184   1.993   8.338   7.686  0.7374  0.1387  0.1573
  966MOL0     C33185   1.875   8.435   7.643 -0.1585  0.6037  0.1321
  966MOL0     C33186   1.849   8.530   7.761  0.1450  0.2175 -0.2421
  966MOL0     N33187   1.722   8.601   7.722  0.0590  0.0866 -1.1634
  966MOL0     C33188   1.600   8.539   7.745 -0.0426 -0.0394  0.0998
  966MOL0     C33189   1.517   8.644   7.768 -0.4479  0.4592  0.3091
  966MOL0     C33190   1.370   8.649   7.807  0.3292  0.4302  0.2830
  966MOL0     C33191   1.290   8.524   7.803  0.6558 -0.6869  0.5019
  966MOL0     C33192   1.130   8.529   7.792  0.1300  0.0280 -0.4074
  966MOL0     C33193   1.079   8.650   7.867  0.0577 -0.1368 -0.0909
  966MOL0     O33194   0.944   8.675   7.830 -0.0388  0.4108  0.9409
  966MOL0     C33195   0.878   8.774   7.907  0.3188  0.5585  0.3036
  966MOL0     C33196   0.903   8.792   8.050  0.1148 -0.0260 -0.3497
  966MOL0     C33197   0.824   8.884   8.119 -0.4264  0.2526  1.0531
  966MOL0     C33198   0.851   8.897   8.263 -0.5704 -0.4896 -0.1676
  966MOL0     C33199   0.740   8.973   8.049 -0.0242  0.2346 -0.2801
  966MOL0     C33200   0.669   9.084   8.119 -0.6774 -0.3086  0.3778
  966MOL0     O33201   0.652   9.199   8.045 -0.0607  0.6816  0.4955
  966MOL0     C33202   0.608   9.316   8.090  0.3594 -0.5053 -0.2886
  966MOL0     C33203   0.624   9.428   8.007  0.2265  0.3025  0.0194
  966MOL0     C33204   0.580   9.548   8.049 -0.0822  0.3421 -0.3289
  966MOL0     C33205   0.507   9.575   8.166  0.2714 -0.1754  0.0438
  966MOL0     O33206   0.486   9.713   8.189  0.5132  0.1765 -0.2574
  966MOL0     C33207   0.446   9.740   8.321 -0.2938 -0.1476  0.0203
  966MOL0     C33208   0.401   9.883   8.345  0.3306 -0.8748 -1.0032
  966MOL0     C33209   0.377   9.894   8.501  0.0596  0.0933 -0.6351
  966MOL0     C33210   0.326  10.034   8.533  0.5785 -0.6918 -0.3065
  966MOL0     C33211   0.327  10.057   8.685 -0.9663 -0.5698 -0.6501
  966MOL0     C33212   0.220  10.163   8.720 -0.4758  0.6347  0.4858
  966MOL0     C33213   0.208  10.210   8.865 -0.1105  0.9583 -0.6569
  966MOL0     C33214   0.094  10.315   8.878  1.0402 -0.5306 -0.3731
  966MOL0    Cl33215   0.103  10.407   9.043  0.0304 -0.5486  0.3319
  966MOL0     C33216   0.483   9.465   8.236  0.3755  0.0296  0.4598
  966MOL0     C33217   0.519   9.333   8.202  0.2190 -0.3871  0.0068
  966MOL0     O33218   0.632   9.079   8.235  0.3594 -0.2940  0.0263
  966MOL0     C33219   0.730   8.966   7.910  0.1720  0.2795 -0.8631
  966MOL0     C33220   0.800   8.868   7.840 -0.2592 -0.1175  0.3094
  966MOL0     N33221   1.580   8.761   7.748  0.4756 -0.3908  0.4991
  966MOL0     N33222   1.703   8.734   7.708  0.0187 -0.0240 -0.6012
  966MOL0     C33223   2.287   8.565   8.400 -0.3048 -0.1908  0.0163
  966MOL0     C33224   2.336   8.591   8.533 -0.5769  0.6442  0.5505
  966MOL0     C33225   2.602   8.621   8.890 -0.0474 -0.2468  0.6037
  966MOL0     C33226   2.675   8.748   8.898  0.6076 -0.1047  0.5256
  966MOL0     C33227   2.751   8.780   9.011  0.2147 -1.4180 -0.7244
  966MOL0     C33228   2.765   8.696   9.120 -0.0008  0.0863 -0.0494
  966MOL0     O33229   2.830   8.715   9.238  0.1763 -0.3945 -0.2940
  966MOL0     C33230   2.926   8.824   9.246  0.0358 -0.0348  0.7617
  966MOL0     C33231   3.054   8.796   9.160 -0.7076  0.4687 -0.2511
  966MOL0     C33232   3.111   8.655   9.179 -0.1173  0.4028  0.1326
  966MOL0     C33233   3.179   8.626   9.314 -0.1907  1.2616  0.5220
  966MOL0     C33234   3.239   8.490   9.312  0.3647  0.2207 -0.0497
  966MOL0     C33235   3.294   8.380   9.301 -0.6151 -0.8237 -0.9702
  966MOL0     C33236   2.685   8.580   9.115  0.4303  1.0008  0.4087
  966MOL0     C33237   2.602   8.537   9.006  0.1277 -0.1522 -0.4437
  966MOL0     C33238   2.545   8.400   9.017  0.5323  0.1041  0.0592
  966MOL0     H33239   2.647   8.709   8.457 -1.8338  4.5760 -0.7450
  966MOL0     H33240   2.599   8.625   8.244  2.1273 -4.2889  1.8361
  966MOL0     H33241   2.209   8.404   8.136  0.2305 -1.1687 -1.5982
  966MOL0     H33242   2.359   8.344   8.210  0.8195 -0.5725 -2.6672
  966MOL0     H33243   2.483   8.426   8.001 -0.3283  0.8230  0.0860
  966MOL0     H33244   2.384   8.270   7.998 -0.0916 -0.9068  1.1361
  966MOL0     H33245   2.292   8.544   7.905  1.3425  0.4548  3.2034
  966MOL0     H33246   2.355   8.463   7.786  0.7699  2.1197  0.7317
  966MOL0     H33247   2.174   8.270   7.870  1.5716  0.7640  2.6107
  966MOL0     H33248   2.087   8.407   7.938 -1.5523  0.7813 -1.6233
  966MOL0     H33249   2.198   8.373   7.666  0.1628 -0.0451  0.0453
  966MOL0     H33250   2.103   8.517   7.727 -1.5235  0.3013 -0.2041
  966MOL0     H33251   2.031   8.283   7.599 -0.2020  0.8956 -0.7583
  966MOL0     H33252   1.954   8.274   7.766  0.0937  0.1485 -0.1457
  966MOL0     H33253   1.786   8.379   7.615 -0.2204 -0.1591  1.7322
  966MOL0     H33254   1.912   8.494   7.559  2.8060 -1.4886 -0.2035
  966MOL0     H33255   1.844   8.464   7.848  0.0842 -2.7816 -2.3734
  966MOL0     H33256   1.935   8.598   7.755  0.4784 -0.0749  0.9443
  966MOL0     H33257   1.577   8.437   7.773  0.7675 -0.0510  0.7525
  966MOL0     H33258   1.318   8.714   7.736 -1.8030 -1.7556 -0.2673
  966MOL0     H33259   1.369   8.698   7.905  0.0624  0.7974  0.1003
  966MOL0     H33260   1.325   8.476   7.712  1.3190  0.2238  0.2609
  966MOL0     H33261   1.325   8.462   7.886  3.2798 -1.1177 -0.8463
  966MOL0     H33262   1.107   8.540   7.686 -0.4415 -0.7361 -0.3628
  966MOL0     H33263   1.083   8.436   7.825  0.3587 -0.6023 -1.8012
  966MOL0     H33264   1.098   8.632   7.974  2.7460  0.1282 -0.4650
  966MOL0     H33265   1.142   8.735   7.843 -0.5058  0.3165  0.0027
  966MOL0     H33266   0.966   8.729   8.112  1.7095 -0.8668 -2.7060
  966MOL0     H33267   0.944   8.848   8.292  0.3812  1.9631  1.2809
  966MOL0     H33268   0.762   8.853   8.310 -0.3406 -2.6786 -1.6619
  966MOL0     H33269   0.870   8.998   8.301  2.9811 -0.1171 -2.4997
  966MOL0     H33270   0.685   9.423   7.918  0.3765  1.0816  0.0737
  966MOL0     H33271   0.587   9.632   7.981  2.4963 -0.4294 -1.0976
  966MOL0     H33272   0.355   9.683   8.341  0.5372 -1.1416  1.1227
  966MOL0     H33273   0.522   9.719   8.397 -1.1589  0.4953  1.0895
  966MOL0     H33274   0.464   9.967   8.313 -2.5723  1.6094 -0.6920
  966MOL0     H33275   0.311   9.910   8.289 -0.9215 -1.8504  0.4701
  966MOL0     H33276   0.469   9.879   8.560 -0.7886  1.7788  1.2222
  966MOL0     H33277   0.301   9.823   8.536 -0.1495  0.3834 -0.4996
  966MOL0     H33278   0.223  10.035   8.496  0.4309  0.1344  0.1059
  966MOL0     H33279   0.389  10.117   8.497 -2.8179  2.4301  0.3449
  966MOL0     H33280   0.297   9.973   8.748 -2.5605  3.2476  4.3275
  966MOL0     H33281   0.425  10.091   8.721 -0.6157 -2.0346 -0.1681
  966MOL0     H33282   0.125  10.121   8.686  0.6743 -1.5116 -0.2695
  966MOL0     H33283   0.255  10.242   8.653  1.9144 -1.2496 -0.6579
  966MOL0     H33284   0.300  10.262   8.896  0.6408 -0.6465 -0.1147
  966MOL0     H33285   0.198  10.123   8.930 -0.5746 -1.3864 -3.6715
  966MOL0     H33286  -0.001  10.263   8.865  1.0395 -1.4632  2.6776
  966MOL0     H33287   0.114  10.392   8.803 -1.4728 -0.0690 -0.6332
  966MOL0     H33288   0.424   9.483   8.326  0.8094 -0.9866  0.9632
  966MOL0     H33289   0.487   9.249   8.263 -0.0505 -0.7630 -0.6436
  966MOL0     H33290   0.669   9.033   7.848 -0.1003  1.5401  0.6976
  966MOL0     H33291   0.778   8.851   7.735 -3.7350  3.0468  0.3420
  966MOL0     H33292   2.185   8.536   8.378 -1.1886  3.4587 -1.3347
  966MOL0     H33293   2.276   8.565   8.619  0.9224  1.3884  1.8570
  966MOL0     H33294   2.661   8.817   8.815  1.9906 -0.4549 -0.0343
  966MOL0     H33295   2.807   8.871   8.991  1.9749 -2.4010 -0.4506
  966MOL0     H33296   2.885   8.917   9.205 -2.7108 -1.4201  0.1394
  966MOL0     H33297   2.950   8.833   9.352  2.7697 -0.3090  0.2493
  966MOL0     H33298   3.127   8.871   9.191 -2.6836  1.6306  1.9327
  966MOL0     H33299   3.027   8.806   9.055  2.1012 -2.0855 -1.3372
  966MOL0     H33300   3.035   8.578   9.165  1.8316 -1.2541 -2.0853
  966MOL0     H33301   3.184   8.638   9.099  0.6003  1.3163  0.5716
  966MOL0     H33302   3.103   8.641   9.392 -0.4182  0.2659  0.5032
  966MOL0     H33303   3.259   8.699   9.326  1.7583 -0.6764 -0.1324
  966MOL0     H33304   3.357   8.296   9.281 -2.6470 -2.6041 -0.2455
  966MOL0     H33305   2.686   8.512   9.200 -0.5102  0.3421 -0.0986
  966MOL0     H33306   2.528   8.372   9.122  0.3076 -2.0464 -0.5161
  966MOL0     H33307   2.449   8.399   8.964  0.9325 -1.5778 -0.7059
  966MOL0     H33308   2.616   8.328   8.975  0.6276 -1.9123  3.3320
  967MOL0     O33309   5.145   5.900  10.016 -1.1723  0.6282  0.3526
  967MOL0     C33310   5.075   5.990   9.988  0.2975  0.3826  0.7517
  967MOL0     O33311   5.115   6.116   9.953  0.2930 -0.1676 -0.7773
  967MOL0     C33312   5.229   6.168  10.006  0.5975 -0.5552  0.2181
  967MOL0     C33313   5.224   6.304  10.053 -0.2172  0.3786  0.6168
  967MOL0     C33314   5.342   6.363  10.093 -0.3629 -0.8732 -1.1861
  967MOL0     C33315   5.465   6.302  10.095  0.3997  0.8130 -0.9936
  967MOL0     O33316   5.570   6.360  10.164  0.6622 -0.3482  0.2327
  967MOL0     C33317   5.667   6.272  10.237  0.2797 -0.3001  0.0246
  967MOL0     C33318   5.647   6.261  10.389 -0.0556  0.1858 -0.4208
  967MOL0     C33319   5.768   6.210  10.465 -0.2464  0.7483  0.0850
  967MOL0     C33320   5.729   6.161  10.605 -0.0570 -0.1495 -0.3670
  967MOL0     C33321   5.841   6.067  10.657  0.5418  0.1938  0.1643
  967MOL0     C33322   5.790   6.018  10.792 -0.3272  0.1977  0.5860
  967MOL0     C33323   5.884   5.927  10.861  0.4821  0.8437 -1.4351
  967MOL0     C33324   5.830   5.895  11.009 -0.2396  0.2835 -0.3557
  967MOL0     N33325   5.937   5.816  11.076  0.1184 -0.5500  0.7118
  967MOL0     C33326   5.966   5.678  11.056 -0.7231 -0.2886  0.7771
  967MOL0     C33327   6.092   5.670  11.106  0.3378  0.3179  0.2703
  967MOL0     C33328   6.184   5.550  11.109 -0.1246 -0.0235  0.1556
  967MOL0     C33329   6.127   5.452  11.211 -0.9071  0.3983 -0.2774
  967MOL0     C33330   6.035   5.349  11.151  0.9779  0.6204  0.0990
  967MOL0     C33331   5.939   5.292  11.248  0.4829 -0.0295 -0.8265
  967MOL0     O33332   6.024   5.245  11.357 -0.0071  0.6194 -0.3680
  967MOL0     C33333   6.077   5.119  11.351 -0.2891  0.1316  0.3795
  967MOL0     C33334   6.052   5.026  11.259  0.0677  0.4598 -0.1597
  967MOL0     C33335   6.105   4.900  11.268  0.1748  0.0272  0.9438
  967MOL0     C33336   6.046   4.800  11.169 -0.2113  0.6565  0.8025
  967MOL0     C33337   6.195   4.872  11.369  0.1564  0.2592  0.2712
  967MOL0     C33338   6.252   4.733  11.396 -0.2917  0.1531  0.8295
  967MOL0     O33339   6.381   4.718  11.448 -0.1918  0.3498 -0.4388
  967MOL0     C33340   6.449   4.600  11.415 -0.0900 -0.4122 -0.1886
  967MOL0     C33341   6.546   4.567  11.508  0.5335  0.5083 -0.4501
  967MOL0     C33342   6.630   4.454  11.480 -1.4168 -0.4066  0.0301
  967MOL0     C33343   6.614   4.364  11.371  0.3501  0.8002  0.0644
  967MOL0     O33344   6.713   4.267  11.341  0.6959 -0.3914 -0.1289
  967MOL0     C33345   6.682   4.149  11.269 -0.9242 -0.1551  0.6999
  967MOL0     C33346   6.793   4.147  11.152  0.3164  0.1049 -0.6335
  967MOL0     C33347   6.777   4.030  11.054  0.6788  0.3308 -0.3284
  967MOL0     C33348   6.791   3.895  11.128  0.1889 -0.2911  0.5911
  967MOL0     C33349   6.859   3.786  11.040 -0.8372  0.3740  0.7480
  967MOL0     C33350   6.878   3.655  11.113 -0.5008 -0.3014  0.6147
  967MOL0     C33351   6.957   3.555  11.027 -0.1721 -0.6005  0.0188
  967MOL0     C33352   6.996   3.426  11.104 -0.2145 -0.6895 -0.1471
  967MOL0    Cl33353   7.140   3.450  11.211  0.0727  0.2409 -0.0630
  967MOL0     C33354   6.506   4.404  11.273  1.0062 -0.5944  0.2369
  967MOL0     C33355   6.424   4.520  11.301  0.2309 -0.4783  0.1102
  967MOL0     O33356   6.176   4.641  11.376 -0.1496  0.3811  1.0963
  967MOL0     C33357   6.241   4.973  11.444  0.0164 -0.3995  0.0995
  967MOL0     C33358   6.174   5.095  11.446  0.0011  0.2298 -0.5422
  967MOL0     N33359   6.141   5.789  11.143 -0.0309  0.3516  0.0945
  967MOL0     N33360   6.045   5.872  11.132  0.1330 -0.4982  0.1809
  967MOL0     C33361   5.459   6.168  10.045 -0.8522 -0.5429  0.3997
  967MOL0     C33362   5.348   6.099  10.011  0.2704 -0.6797 -0.5549
  967MOL0     C33363   4.928   5.979  10.027  0.4847  0.3827 -0.5403
  967MOL0     C33364   4.832   5.949   9.936 -0.0200  1.1135  0.2254
  967MOL0     C33365   4.698   5.935   9.977 -0.0198  0.6758 -0.7413
  967MOL0     C33366   4.661   5.949  10.108  0.3014 -0.9466 -0.0905
  967MOL0     O33367   4.523   5.945  10.128 -0.4588  0.1027 -0.2684
  967MOL0     C33368   4.472   5.907  10.260 -0.2466 -0.5829 -0.5166
  967MOL0     C33369   4.453   6.031  10.343 -0.2989  0.0282  0.2567
  967MOL0     C33370   4.337   6.117  10.286 -0.1635 -1.1352  0.4402
  967MOL0     C33371   4.202   6.071  10.322  0.7785  0.0430  0.3202
  967MOL0     C33372   4.166   6.115  10.456  0.3180  0.9454 -0.5579
  967MOL0     C33373   4.125   6.144  10.573 -0.1059  0.3062  0.3394
  967MOL0     C33374   4.757   5.976  10.205 -1.2262 -0.3326 -0.2196
  967MOL0     C33375   4.893   5.990  10.163  1.0302  0.4451  0.0694
  967MOL0     C33376   4.987   6.019  10.283  0.2236 -0.0252 -0.5244
  967MOL0     H33377   5.128   6.353  10.063 -0.2992  1.1079 -2.6353
  967MOL0     H33378   5.331   6.463  10.133  0.1283 -1.3826  0.2789
  967MOL0     H33379   5.765   6.319  10.227  0.7713 -1.2601  0.1588
  967MOL0     H33380   5.675   6.176  10.184 -0.8553  0.9358 -2.6094
  967MOL0     H33381   5.626   6.358  10.437  1.9551 -0.0320  1.0022
  967MOL0     H33382   5.564   6.193  10.411  0.3966  0.0526  0.9192
  967MOL0     H33383   5.798   6.115  10.421 -1.7905  0.8243 -1.2264
  967MOL0     H33384   5.854   6.278  10.468  1.0189 -0.4822 -3.4740
  967MOL0     H33385   5.720   6.242  10.678  1.8853 -1.5917  1.5909
  967MOL0     H33386   5.641   6.099  10.584 -1.5937  2.7081 -3.1770
  967MOL0     H33387   5.938   6.117  10.663  0.4641  0.4005 -0.2943
  967MOL0     H33388   5.849   5.979  10.593  2.0200  0.9217 -0.6984
  967MOL0     H33389   5.769   6.099  10.863 -2.7922 -2.0319  2.6148
  967MOL0     H33390   5.699   5.960  10.773 -0.7951  0.3889  2.0781
  967MOL0     H33391   5.985   5.968  10.873  0.1002  1.5466 -0.4730
  967MOL0     H33392   5.889   5.832  10.808  0.7894  0.6964 -1.1487
  967MOL0     H33393   5.810   5.990  11.058  0.5829 -0.1280  0.8151
  967MOL0     H33394   5.737   5.836  11.010 -0.1232  0.1059  0.1279
  967MOL0     H33395   5.893   5.607  11.019 -0.1674 -1.2836  1.5386
  967MOL0     H33396   6.279   5.591  11.144 -0.5137  0.6094  0.4986
  967MOL0     H33397   6.198   5.505  11.011 -0.9629  1.9593 -0.9424
  967MOL0     H33398   6.211   5.402  11.260 -1.1873 -1.5797 -1.6920
  967MOL0     H33399   6.069   5.515  11.280 -3.1904  0.9733 -2.5827
  967MOL0     H33400   5.975   5.401  11.076  1.7573  0.5844 -0.5644
  967MOL0     H33401   6.090   5.268  11.102  1.1448 -0.2161  1.6082
  967MOL0     H33402   5.860   5.365  11.268 -0.2715 -0.4945 -2.0051
  967MOL0     H33403   5.875   5.209  11.215  1.2912 -2.2825  2.7171
  967MOL0     H33404   5.961   5.035  11.201 -0.1418  1.9288  0.3433
  967MOL0     H33405   5.992   4.847  11.085  1.0688  1.3353  0.3369
  967MOL0     H33406   5.984   4.727  11.221 -1.3188  1.5555  0.7902
  967MOL0     H33407   6.131   4.756  11.117  0.1493  2.3161 -0.1020
  967MOL0     H33408   6.571   4.629  11.593  0.9616 -1.6824  1.1041
  967MOL0     H33409   6.715   4.425  11.541 -3.1823 -0.3551  2.6333
  967MOL0     H33410   6.694   4.058  11.329  2.2250 -0.8599 -0.7553
  967MOL0     H33411   6.581   4.150  11.228  0.0499  0.9021 -1.9808
  967MOL0     H33412   6.771   4.229  11.083 -1.7821 -1.9850 -2.6099
  967MOL0     H33413   6.893   4.151  11.197  0.2980  0.3805 -0.6138
  967MOL0     H33414   6.847   4.039  10.970  0.3816 -4.1493 -1.2987
  967MOL0     H33415   6.671   4.035  11.026  0.0200 -0.0055  1.8579
  967MOL0     H33416   6.703   3.847  11.172 -0.4049 -0.5203 -0.7941
  967MOL0     H33417   6.864   3.900  11.210  1.4052 -2.5824 -0.2916
  967MOL0     H33418   6.786   3.758  10.962 -0.1767 -2.0750  0.9419
  967MOL0     H33419   6.954   3.818  10.997 -1.5030  2.3200  0.6173
  967MOL0     H33420   6.780   3.605  11.117 -0.2296 -1.5718 -3.5451
  967MOL0     H33421   6.931   3.660  11.209  1.4653 -0.7664 -0.4135
  967MOL0     H33422   7.051   3.600  10.993 -1.8167  1.6175 -1.9584
  967MOL0     H33423   6.907   3.541  10.931 -1.7512  1.1026  0.5330
  967MOL0     H33424   7.017   3.350  11.028 -0.1310 -0.9080  0.0939
  967MOL0     H33425   6.924   3.385  11.176  2.1385 -2.0150  1.5686
  967MOL0     H33426   6.505   4.353  11.177 -0.3287 -1.1173  0.5169
  967MOL0     H33427   6.351   4.551  11.227  2.0343  0.5872 -1.3335
  967MOL0     H33428   6.307   4.945  11.526  3.3318  0.1856 -2.1548
  967MOL0     H33429   6.192   5.167  11.525 -0.4327 -1.0527  0.7561
  967MOL0     H33430   5.553   6.114  10.054 -0.4415  0.1113  0.0817
  967MOL0     H33431   5.357   5.997   9.975 -0.5075 -0.0719 -2.6202
  967MOL0     H33432   4.858   5.937   9.832  0.5036 -0.9322  0.5380
  967MOL0     H33433   4.616   5.922   9.907 -2.0652  3.0776  1.0541
  967MOL0     H33434   4.386   5.843  10.243 -0.8449  0.8073 -3.5398
  967MOL0     H33435   4.552   5.855  10.314 -0.0488 -0.5956 -0.8174
  967MOL0     H33436   4.549   6.081  10.353  1.1543 -2.9364  2.9851
  967MOL0     H33437   4.429   5.992  10.443 -0.8293 -1.6552 -0.4862
  967MOL0     H33438   4.347   6.221  10.319 -0.9463 -0.7425 -0.5255
  967MOL0     H33439   4.347   6.115  10.177 -1.1542  0.1882  0.3060
  967MOL0     H33440   4.197   5.962  10.324  0.7426 -0.1098 -2.8083
  967MOL0     H33441   4.143   6.114  10.240  2.7306 -0.0143 -1.2119
  967MOL0     H33442   4.091   6.175  10.669  1.6742  2.5002  0.3558
  967MOL0     H33443   4.728   5.983  10.309 -0.9470  3.7069 -0.2497
  967MOL0     H33444   5.077   6.076  10.258 -0.8579  1.3754 -1.3937
  967MOL0     H33445   4.940   6.075  10.365  3.7086  2.2676  0.1383
  967MOL0     H33446   5.032   5.932  10.331  3.9758  0.8028 -2.1292
  968MOL0     O33447   0.486   9.274   2.960  0.1008 -0.3325 -0.2018
  968MOL0     C33448   0.513   9.383   3.021  0.6440  1.2664  0.9811
  968MOL0     O33449   0.422   9.455   3.093 -0.4998 -0.1151  0.5706
  968MOL0     C33450   0.296   9.415   3.104  0.2750 -0.1174  0.4184
  968MOL0     C33451   0.246   9.415   3.232  0.4933 -0.2465 -0.5931
  968MOL0     C33452   0.103   9.385   3.251 -0.0173 -0.3642  0.2207
  968MOL0     C33453   0.019   9.370   3.134  0.7257  0.0562 -0.1424
  968MOL0     O33454  -0.112   9.331   3.136  0.1780 -0.3995  0.1760
  968MOL0     C33455  -0.170   9.311   3.267  1.1274  0.7833 -0.5090
  968MOL0     C33456  -0.317   9.322   3.246  0.2882  0.3639  0.3341
  968MOL0     C33457  -0.389   9.381   3.369  0.3856 -0.3983  0.1684
  968MOL0     C33458  -0.543   9.393   3.350 -0.5712  0.7219 -0.0163
  968MOL0     C33459  -0.617   9.486   3.451  0.2208  0.1627 -0.7039
  968MOL0     C33460  -0.718   9.589   3.400  0.3731 -0.3823  0.5319
  968MOL0     C33461  -0.833   9.527   3.311  0.1614  0.1961  0.2320
  968MOL0     C33462  -0.934   9.447   3.387  1.1118  1.1371  0.1297
  968MOL0     N33463  -1.034   9.383   3.295 -0.6532 -0.0462  0.6437
  968MOL0     C33464  -0.992   9.294   3.191 -0.1563  0.7399 -0.1992
  968MOL0     C33465  -1.089   9.307   3.098 -0.0923  0.8533  0.0819
  968MOL0     C33466  -1.111   9.247   2.957 -0.0290  0.1950  0.2099
  968MOL0     C33467  -1.204   9.121   2.977 -0.3896  0.3223 -0.6662
  968MOL0     C33468  -1.257   9.065   2.848  0.8732 -0.9506  0.3023
  968MOL0     C33469  -1.354   8.941   2.858  0.7530  0.8306  0.2541
  968MOL0     O33470  -1.482   8.996   2.895 -0.2268  1.0096 -0.0450
  968MOL0     C33471  -1.590   8.932   2.854  1.3330 -0.8802 -0.0629
  968MOL0     C33472  -1.683   9.005   2.793 -0.2117  0.3911  0.0156
  968MOL0     C33473  -1.802   8.954   2.740 -0.7771 -0.0796  1.1571
  968MOL0     C33474  -1.879   9.062   2.660 -0.3345 -0.1298 -0.1461
  968MOL0     C33475  -1.830   8.810   2.760  0.7112 -0.6235  0.2015
  968MOL0     C33476  -1.940   8.741   2.695 -0.2288  0.0372  0.1287
  968MOL0     O33477  -1.927   8.611   2.678 -0.6773  0.5940  0.6900
  968MOL0     C33478  -2.009   8.523   2.618  0.4165  0.0977 -0.3580
  968MOL0     C33479  -2.142   8.525   2.640 -0.2073 -0.5511 -0.1748
  968MOL0     C33480  -2.234   8.440   2.575 -0.6865 -0.3894 -1.3969
  968MOL0     C33481  -2.185   8.345   2.489 -0.0657 -0.6637  0.3153
  968MOL0     O33482  -2.258   8.265   2.407 -0.5900  0.4022  0.2760
  968MOL0     C33483  -2.390   8.235   2.450  0.8373  0.0223 -0.3461
  968MOL0     C33484  -2.501   8.332   2.404 -0.3407 -0.1770  0.0496
  968MOL0     C33485  -2.631   8.316   2.486  0.4395  0.3597  1.1086
  968MOL0     C33486  -2.747   8.357   2.405  0.2459 -0.4222 -0.1150
  968MOL0     C33487  -2.876   8.381   2.481  0.0090  0.4925  0.6706
  968MOL0     C33488  -2.867   8.489   2.591 -0.7526  0.3578  0.9781
  968MOL0     C33489  -2.981   8.495   2.682  0.0289  0.1686 -0.2819
  968MOL0     C33490  -3.037   8.631   2.710 -0.2733 -0.6612  0.4345
  968MOL0    Cl33491  -3.106   8.721   2.571  0.3716  0.2150 -0.1644
  968MOL0     C33492  -2.045   8.337   2.459  0.4707  0.1329 -0.1737
  968MOL0     C33493  -1.961   8.420   2.531 -0.2998 -0.5941 -0.1235
  968MOL0     O33494  -2.039   8.811   2.665 -0.2623 -0.1084  0.4917
  968MOL0     C33495  -1.733   8.733   2.824  0.3475 -0.3655 -1.2397
  968MOL0     C33496  -1.609   8.793   2.866  0.3330  0.2794 -0.1366
  968MOL0     N33497  -1.175   9.402   3.135  0.7309  0.5881  1.0670
  968MOL0     N33498  -1.134   9.453   3.244 -0.6382  0.4268 -0.0523
  968MOL0     C33499   0.072   9.383   3.005 -0.7950  0.7410 -1.1162
  968MOL0     C33500   0.212   9.403   2.992  0.1905 -0.7407 -0.8780
  968MOL0     C33501   0.649   9.447   3.008 -0.4830  0.5022  1.0489
  968MOL0     C33502   0.666   9.588   3.023  0.1364  1.6997 -0.6584
  968MOL0     C33503   0.784   9.652   3.024 -0.4692  0.0256 -0.8989
  968MOL0     C33504   0.899   9.585   2.992 -0.6136  0.2113  0.7937
  968MOL0     O33505   1.022   9.651   2.982  0.1915 -0.7584  0.4560
  968MOL0     C33506   1.135   9.628   3.061 -0.2874  0.0959  0.2565
  968MOL0     C33507   1.227   9.752   3.050 -0.3595 -0.2858  0.0074
  968MOL0     C33508   1.160   9.887   3.083 -0.1221  0.5468 -0.9781
  968MOL0     C33509   1.114   9.897   3.234  0.4553  0.6461  0.3043
  968MOL0     C33510   1.089  10.039   3.275  0.6072 -0.1332 -0.3396
  968MOL0     C33511   1.063  10.155   3.315 -0.2563  0.0008  0.3597
  968MOL0     C33512   0.894   9.447   2.976 -0.8349 -1.1827 -1.0393
  968MOL0     C33513   0.765   9.379   2.975 -0.5691 -0.0275  0.7561
  968MOL0     C33514   0.756   9.236   2.930 -0.5901  0.4519 -0.1497
  968MOL0     H33515   0.311   9.458   3.308 -0.5280 -0.6095  0.5172
  968MOL0     H33516   0.056   9.377   3.348 -2.5664 -4.4525 -1.1002
  968MOL0     H33517  -0.149   9.390   3.339  2.3391 -0.6435  0.7750
  968MOL0     H33518  -0.142   9.213   3.308 -2.7383  1.5396  5.0699
  968MOL0     H33519  -0.339   9.384   3.158  2.6097  1.7109  0.6143
  968MOL0     H33520  -0.354   9.223   3.219  1.1355  0.1917 -0.2182
  968MOL0     H33521  -0.363   9.320   3.456 -0.7299 -1.0309  0.0764
  968MOL0     H33522  -0.347   9.480   3.388  0.0909 -0.4502  1.1298
  968MOL0     H33523  -0.562   9.422   3.246  1.9668 -1.2976 -1.1450
  968MOL0     H33524  -0.587   9.292   3.346  0.8049  0.0775 -4.6498
  968MOL0     H33525  -0.544   9.537   3.514  0.1557  0.5475 -0.9358
  968MOL0     H33526  -0.679   9.417   3.508  0.7627 -0.1646 -0.5048
  968MOL0     H33527  -0.773   9.645   3.477  0.2597  1.2814 -0.7139
  968MOL0     H33528  -0.663   9.667   3.348 -0.3025 -0.0193  0.3499
  968MOL0     H33529  -0.789   9.456   3.241  0.8567  1.6975 -0.9066
  968MOL0     H33530  -0.881   9.617   3.272  2.3733  1.9590  1.3150
  968MOL0     H33531  -0.891   9.375   3.457  1.5354  1.5239  0.2713
  968MOL0     H33532  -0.987   9.519   3.450 -1.0738  3.8192 -4.3162
  968MOL0     H33533  -0.900   9.236   3.186 -0.3897  0.1548  1.5324
  968MOL0     H33534  -1.012   9.215   2.921 -1.5118 -1.0308 -3.1809
  968MOL0     H33535  -1.161   9.319   2.892  1.6125  2.6267  1.4654
  968MOL0     H33536  -1.152   9.036   3.022  0.4677  0.8987 -0.5473
  968MOL0     H33537  -1.290   9.158   3.033  0.1711  0.9200 -0.1774
  968MOL0     H33538  -1.310   9.142   2.790  1.5182 -1.5062 -1.0710
  968MOL0     H33539  -1.176   9.022   2.789  0.8681  0.3584 -0.7034
  968MOL0     H33540  -1.362   8.903   2.756  2.9732  0.1289  0.2736
  968MOL0     H33541  -1.312   8.876   2.936  0.4718  1.2347  0.7455
  968MOL0     H33542  -1.657   9.111   2.790 -2.0641  1.0300  2.7261
  968MOL0     H33543  -1.838   9.053   2.559  2.4329  0.2704  0.8436
  968MOL0     H33544  -1.857   9.159   2.706 -1.3794  0.3719 -0.6763
  968MOL0     H33545  -1.988   9.053   2.658 -0.4861  1.3537  0.0729
  968MOL0     H33546  -2.191   8.600   2.701 -1.9702 -1.8175  0.0347
  968MOL0     H33547  -2.338   8.465   2.595  0.4331  2.1354  2.4177
  968MOL0     H33548  -2.414   8.132   2.421  0.5926  0.2621 -0.9986
  968MOL0     H33549  -2.388   8.252   2.558  2.3654  2.9665 -0.7360
  968MOL0     H33550  -2.464   8.434   2.396 -1.3462  0.2726  0.9275
  968MOL0     H33551  -2.521   8.302   2.300 -0.3241 -1.7519  0.4682
  968MOL0     H33552  -2.612   8.368   2.581  2.7222 -0.6817  1.2740
  968MOL0     H33553  -2.654   8.210   2.497 -3.8837  1.0835  0.9738
  968MOL0     H33554  -2.770   8.295   2.318  0.0746  2.3500 -2.1589
  968MOL0     H33555  -2.715   8.450   2.358  0.2724 -0.7812 -0.8273
  968MOL0     H33556  -2.948   8.413   2.405  1.7396 -1.5150 -2.0133
  968MOL0     H33557  -2.911   8.288   2.526  3.3526 -1.7730 -0.9435
  968MOL0     H33558  -2.847   8.581   2.535  0.6050 -1.4007 -1.6656
  968MOL0     H33559  -2.781   8.476   2.658 -0.7067  0.8361  1.0137
  968MOL0     H33560  -2.942   8.462   2.779 -1.0111  2.0961  0.8576
  968MOL0     H33561  -3.059   8.428   2.646  0.9009 -1.7193  1.1350
  968MOL0     H33562  -2.967   8.690   2.770 -1.2208  1.2211 -0.2379
  968MOL0     H33563  -3.120   8.622   2.781  0.6038  1.4312  1.8323
  968MOL0     H33564  -2.003   8.258   2.397 -1.3064  0.6290 -2.1302
  968MOL0     H33565  -1.854   8.404   2.533 -0.7112 -3.9846  1.7039
  968MOL0     H33566  -1.733   8.632   2.862  3.7341  0.6808  2.2517
  968MOL0     H33567  -1.529   8.732   2.909 -1.1725 -1.9526 -0.3474
  968MOL0     H33568   0.020   9.364   2.912 -1.0340 -0.2054 -0.7957
  968MOL0     H33569   0.263   9.400   2.896 -0.2079 -0.7015 -1.0956
  968MOL0     H33570   0.584   9.656   3.039 -0.0110  1.3205  0.2578
  968MOL0     H33571   0.781   9.761   3.028  0.9106  0.0509  0.5596
  968MOL0     H33572   1.103   9.606   3.163  0.1639 -2.1573 -0.0382
  968MOL0     H33573   1.186   9.538   3.025 -0.6285 -0.0854  0.2204
  968MOL0     H33574   1.269   9.753   2.949 -2.0617  3.1451 -0.8450
  968MOL0     H33575   1.311   9.736   3.118 -0.9753 -0.9969  0.5994
  968MOL0     H33576   1.236   9.963   3.065  1.4587 -0.0181  2.3645
  968MOL0     H33577   1.073   9.893   3.018  0.1744 -0.7812 -1.5394
  968MOL0     H33578   1.191   9.855   3.299  1.1373  2.3958  0.6822
  968MOL0     H33579   1.025   9.835   3.253  2.8175 -2.7165  1.4568
  968MOL0     H33580   1.048  10.260   3.329  1.1657  0.3718 -0.7427
  968MOL0     H33581   0.989   9.397   2.956  0.0929 -0.0825  0.4550
  968MOL0     H33582   0.856   9.195   2.911 -1.5624 -3.3463  1.8709
  968MOL0     H33583   0.726   9.177   3.018  1.6368  1.7228  1.5845
  968MOL0     H33584   0.676   9.219   2.858 -1.1233  1.4632  0.1809
  969MOL0     O33585   8.190  10.342   3.562  0.1172 -0.1936 -0.1243
  969MOL0     C33586   8.129  10.419   3.637  0.0704 -1.2881 -0.5752
  969MOL0     O33587   8.053  10.523   3.610 -0.4369  0.1027  0.6072
  969MOL0     C33588   8.041  10.548   3.475 -0.6650 -0.7198 -0.3323
  969MOL0     C33589   7.920  10.510   3.412 -0.7201  0.0400  0.6871
  969MOL0     C33590   7.898  10.550   3.276  0.1259  0.4321 -0.6073
  969MOL0     C33591   8.004  10.604   3.204  0.7943  0.4166 -0.0198
  969MOL0     O33592   7.996  10.629   3.071 -0.3946  0.3665  0.1585
  969MOL0     C33593   7.946  10.522   2.991 -0.6358 -0.3008  0.6363
  969MOL0     C33594   7.976  10.535   2.842 -0.1353 -0.5853  1.6069
  969MOL0     C33595   7.927  10.683   2.791 -0.7820 -0.0173 -0.1233
  969MOL0     C33596   7.937  10.691   2.640  0.5348  0.4012  0.5958
  969MOL0     C33597   7.925  10.834   2.594  0.0921 -0.2360  0.3087
  969MOL0     C33598   8.032  10.917   2.668  0.2847  0.3655  0.3622
  969MOL0     C33599   8.060  11.054   2.610  0.0994 -0.2831  0.1612
  969MOL0     C33600   7.940  11.124   2.558  0.0063 -0.2984 -0.0622
  969MOL0     N33601   7.972  11.265   2.529  0.4780 -0.3989 -0.0025
  969MOL0     C33602   8.055  11.316   2.432  0.3711 -0.0900 -0.1835
  969MOL0     C33603   8.037  11.451   2.439 -0.2743  0.7136  1.1688
  969MOL0     C33604   8.123  11.553   2.368  0.1991  0.3514 -0.6363
  969MOL0     C33605   8.050  11.652   2.277  0.1991  0.0174 -0.0598
  969MOL0     C33606   8.086  11.799   2.293  0.1797  0.4419  0.1844
  969MOL0     C33607   8.229  11.858   2.302 -0.0042 -0.4256 -0.6069
  969MOL0     O33608   8.309  11.776   2.210  1.0972  0.1536  0.4417
  969MOL0     C33609   8.281  11.800   2.080  0.2464  2.0403  0.5508
  969MOL0     C33610   8.214  11.905   2.014  0.1246 -0.5698 -0.5050
  969MOL0     C33611   8.178  11.901   1.879 -0.3991  0.9171  0.3996
  969MOL0     C33612   8.092  12.013   1.835 -0.4065 -0.5223 -0.2447
  969MOL0     C33613   8.223  11.795   1.800  0.0686  0.3393  0.6410
  969MOL0     C33614   8.176  11.766   1.655 -0.5154 -0.3353 -0.1907
  969MOL0     O33615   8.089  11.853   1.603  0.3028 -1.0578 -1.1257
  969MOL0     C33616   8.056  11.846   1.468  0.4253  0.7840 -0.1763
  969MOL0     C33617   8.146  11.902   1.376  0.2342 -0.2041  0.0872
  969MOL0     C33618   8.102  11.924   1.240 -0.3535  0.1719  0.6152
  969MOL0     C33619   7.990  11.862   1.199  0.2500 -1.2752  0.5372
  969MOL0     O33620   7.958  11.875   1.064 -0.3977 -0.2398 -0.6361
  969MOL0     C33621   7.936  11.754   0.993 -0.2157  0.0385 -0.1347
  969MOL0     C33622   8.000  11.763   0.854 -0.7723  0.4214 -0.0224
  969MOL0     C33623   8.039  11.640   0.775  0.7698 -0.4256  0.3861
  969MOL0     C33624   7.929  11.529   0.780  1.1260  0.7890  0.0319
  969MOL0     C33625   7.978  11.403   0.711  0.0890  0.5248  0.1576
  969MOL0     C33626   7.897  11.273   0.728 -0.2151 -0.3313 -0.3199
  969MOL0     C33627   7.870  11.231   0.876 -0.7570 -0.0294 -0.5001
  969MOL0     C33628   8.002  11.221   0.950 -0.5694  0.6856 -0.4763
  969MOL0    Cl33629   7.967  11.140   1.113  0.9610 -0.3236 -0.2614
  969MOL0     C33630   7.909  11.795   1.292 -0.1994 -0.1384 -0.1247
  969MOL0     C33631   7.934  11.799   1.427 -0.2331  0.1385 -0.6763
  969MOL0     O33632   8.233  11.666   1.602  0.1952  0.2641  0.0925
  969MOL0     C33633   8.302  11.704   1.865 -0.5307  0.0693  0.0221
  969MOL0     C33634   8.319  11.694   1.999  0.8680  1.0010 -0.5112
  969MOL0     N33635   7.921  11.476   2.519 -0.9643 -0.2595  0.4637
  969MOL0     N33636   7.895  11.365   2.582 -0.6873 -0.0331  1.1162
  969MOL0     C33637   8.133  10.625   3.264 -0.5251 -0.7234  0.5571
  969MOL0     C33638   8.146  10.611   3.402 -0.1086 -0.0208 -1.0085
  969MOL0     C33639   8.146  10.399   3.789 -0.2428 -0.3986  0.7316
  969MOL0     C33640   8.255  10.324   3.829 -0.3288  1.0460 -1.7542
  969MOL0     C33641   8.267  10.290   3.966 -0.3907  0.8656  0.3017
  969MOL0     C33642   8.174  10.328   4.061 -0.5417 -0.5937 -0.2201
  969MOL0     O33643   8.208  10.293   4.187 -0.4171 -0.0945 -0.4016
  969MOL0     C33644   8.105  10.265   4.289  0.3992 -0.7510  0.4144
  969MOL0     C33645   8.159  10.170   4.385 -0.6124  0.0760 -0.6229
  969MOL0     C33646   8.062  10.051   4.422  0.1877 -0.5495 -0.4185
  969MOL0     C33647   8.066   9.934   4.327  0.6823 -0.1349  0.2004
  969MOL0     C33648   8.204   9.877   4.330  0.4203  0.6208  0.0621
  969MOL0     C33649   8.311   9.834   4.332 -0.5579 -0.5858  0.9559
  969MOL0     C33650   8.067  10.412   4.025 -0.4191  0.4986  0.0731
  969MOL0     C33651   8.055  10.445   3.886  0.1606 -0.3569  0.1569
  969MOL0     C33652   7.944  10.540   3.862  1.0083  0.2957  0.4280
  969MOL0     H33653   7.829  10.479   3.462 -1.1616 -3.6172 -1.9823
  969MOL0     H33654   7.804  10.541   3.224 -1.3241  1.8809  1.5859
  969MOL0     H33655   7.837  10.519   3.002 -0.6869 -1.1933  0.0367
  969MOL0     H33656   7.983  10.423   3.017 -0.1257 -1.0785 -2.5674
  969MOL0     H33657   8.085  10.522   2.837  0.1993  2.0151  0.5179
  969MOL0     H33658   7.922  10.461   2.782 -1.9035  1.2761  0.8307
  969MOL0     H33659   7.830  10.714   2.830  0.1741  1.8745  0.9041
  969MOL0     H33660   7.987  10.755   2.847 -2.4622  0.2221  1.4392
  969MOL0     H33661   8.039  10.658   2.621  0.5937  0.2935  1.0685
  969MOL0     H33662   7.864  10.628   2.590  3.6124 -0.7067 -2.9121
  969MOL0     H33663   7.826  10.871   2.620  1.1964  2.3972  1.1670
  969MOL0     H33664   7.939  10.847   2.486  0.7257  2.3936  0.6278
  969MOL0     H33665   8.011  10.931   2.775  1.4289 -0.1606  0.6756
  969MOL0     H33666   8.130  10.869   2.657  0.1452  0.0563  0.4585
  969MOL0     H33667   8.127  11.050   2.524 -1.1231 -1.9725 -0.7891
  969MOL0     H33668   8.085  11.119   2.694  1.1255 -2.1370  1.3725
  969MOL0     H33669   7.896  11.073   2.472  3.0886 -3.7640  0.1936
  969MOL0     H33670   7.863  11.128   2.636  1.0944  1.5316  0.9806
  969MOL0     H33671   8.131  11.261   2.377  0.8148 -1.0615  1.3568
  969MOL0     H33672   8.211  11.504   2.326  2.6013 -0.7818  4.8147
  969MOL0     H33673   8.162  11.608   2.454 -0.8866 -0.7886  0.6196
  969MOL0     H33674   8.065  11.628   2.171 -0.0952  1.9870 -0.5821
  969MOL0     H33675   7.944  11.644   2.301 -0.4730  1.2704 -2.3550
  969MOL0     H33676   8.037  11.850   2.210 -3.1530 -1.8922  0.5062
  969MOL0     H33677   8.030  11.809   2.387 -0.3909 -0.1577 -0.0838
  969MOL0     H33678   8.223  11.966   2.290 -2.3888 -0.3041  0.9381
  969MOL0     H33679   8.269  11.854   2.404  2.7608  2.6432 -1.3951
  969MOL0     H33680   8.179  11.969   2.093  2.3592 -2.6749  2.4057
  969MOL0     H33681   8.007  11.978   1.776 -0.7953  0.5489 -0.3284
  969MOL0     H33682   8.141  12.078   1.762 -1.2985 -1.3805 -1.6540
  969MOL0     H33683   8.056  12.063   1.925 -0.9789 -2.7662  0.8658
  969MOL0     H33684   8.243  11.935   1.411  0.7230  0.8419 -2.0705
  969MOL0     H33685   8.159  11.986   1.171 -0.2161  1.7907  2.1260
  969MOL0     H33686   7.989  11.672   1.043  0.4634  1.3140  1.3081
  969MOL0     H33687   7.832  11.722   0.989 -0.2970  0.3714 -2.4136
  969MOL0     H33688   7.922  11.810   0.794 -0.4336  0.0042 -0.7933
  969MOL0     H33689   8.091  11.822   0.868 -1.1054  0.4355  2.7866
  969MOL0     H33690   8.134  11.607   0.818 -0.2925 -1.9491  1.6579
  969MOL0     H33691   8.059  11.668   0.671 -0.1655 -1.8208 -0.1944
  969MOL0     H33692   7.832  11.564   0.741  0.4573 -2.1210 -1.1937
  969MOL0     H33693   7.905  11.495   0.881  0.4132  0.7085 -0.1539
  969MOL0     H33694   7.991  11.432   0.606 -0.0486  3.5622  0.8842
  969MOL0     H33695   8.077  11.385   0.753  0.3004 -3.0849 -1.5654
  969MOL0     H33696   7.940  11.178   0.696 -1.2908 -1.8614  2.3868
  969MOL0     H33697   7.801  11.291   0.680 -1.4082 -2.0135  1.2841
  969MOL0     H33698   7.826  11.131   0.872  4.6220 -3.0260  3.0025
  969MOL0     H33699   7.803  11.294   0.934 -0.9401 -1.2338  0.6318
  969MOL0     H33700   8.046  11.322   0.953  1.3980 -0.1218 -0.3235
  969MOL0     H33701   8.079  11.156   0.907 -1.4017 -0.2060 -0.6323
  969MOL0     H33702   7.811  11.766   1.256 -0.5320  0.1981  0.4896
  969MOL0     H33703   7.864  11.763   1.501  0.2980 -0.0526 -0.2641
  969MOL0     H33704   8.345  11.616   1.819 -1.9935 -1.0074  0.6329
  969MOL0     H33705   8.369  11.603   2.032 -1.5280 -0.3365 -0.3681
  969MOL0     H33706   8.214  10.667   3.206  1.6154 -4.6130  0.3454
  969MOL0     H33707   8.238  10.632   3.455 -1.2317  0.3299  0.9037
  969MOL0     H33708   8.321  10.284   3.753  0.8267  3.1979 -1.9538
  969MOL0     H33709   8.355  10.241   4.007 -0.1007  0.9700 -0.1897
  969MOL0     H33710   8.081  10.365   4.325 -0.3526 -0.7092 -0.1615
  969MOL0     H33711   8.012  10.235   4.239  0.4591  2.4044 -1.8842
  969MOL0     H33712   8.182  10.220   4.479  0.2799 -0.4054 -0.5790
  969MOL0     H33713   8.252  10.129   4.345 -0.2020 -0.0800  0.4663
  969MOL0     H33714   8.088  10.014   4.521  1.0039  0.8668 -0.0739
  969MOL0     H33715   7.959  10.088   4.418 -0.6576 -2.5633  1.1869
  969MOL0     H33716   8.032   9.956   4.226 -1.3709  0.3851  0.9535
  969MOL0     H33717   8.001   9.850   4.354  0.0575  0.4517  0.5623
  969MOL0     H33718   8.408   9.793   4.314 -1.2642 -3.3868  2.7850
  969MOL0     H33719   7.998  10.444   4.102 -0.4652  0.3330  0.1007
  969MOL0     H33720   7.867  10.546   3.940 -0.3240  2.9443 -0.9554
  969MOL0     H33721   7.993  10.638   3.861  2.9833 -0.6444 -1.4433
  969MOL0     H33722   7.892  10.517   3.768  0.8101  2.0271  0.0824
  970MOL0     O33723   2.299   4.602  10.140  0.1514 -0.5339  0.5410
  970MOL0     C33724   2.245   4.512  10.073  0.1375 -0.4273 -0.1604
  970MOL0     O33725   2.119   4.485  10.075  1.2547 -0.1299  0.0798
  970MOL0     C33726   2.038   4.585  10.139 -0.5047  1.2293  0.0890
  970MOL0     C33727   2.047   4.721  10.099 -0.1777  0.1914  0.8942
  970MOL0     C33728   1.948   4.810  10.132 -0.7907  0.0330 -0.5386
  970MOL0     C33729   1.847   4.767  10.216  0.3916  0.2059  0.3824
  970MOL0     O33730   1.739   4.846  10.243 -0.0785  0.4663  0.9466
  970MOL0     C33731   1.658   4.879  10.132  0.6426  0.6485  0.5011
  970MOL0     C33732   1.529   4.941  10.185 -0.0134  0.2388  0.3854
  970MOL0     C33733   1.465   4.843  10.294  0.0120  0.0816  0.1556
  970MOL0     C33734   1.322   4.895  10.343 -0.8278 -0.4803  0.0205
  970MOL0     C33735   1.205   4.885  10.256 -0.0818 -0.6454 -0.1712
  970MOL0     C33736   1.174   4.735  10.214 -0.3031  0.1969 -0.6492
  970MOL0     C33737   1.079   4.744  10.091  0.3440 -1.0601  0.2888
  970MOL0     C33738   1.151   4.781   9.956 -0.0530 -0.1233  0.1411
  970MOL0     N33739   1.286   4.731   9.937 -1.3419  0.0587  0.4029
  970MOL0     C33740   1.331   4.613   9.909 -0.6718  0.4448  0.2319
  970MOL0     C33741   1.467   4.615   9.884  0.2794 -0.4978 -1.1037
  970MOL0     C33742   1.551   4.502   9.835  1.3487 -0.1390  0.4061
  970MOL0     C33743   1.530   4.386   9.926 -0.9009 -0.2724  0.6761
  970MOL0     C33744   1.652   4.293   9.925 -0.2360  0.3813  0.2537
  970MOL0     C33745   1.705   4.253   9.792 -1.0201 -0.7427  0.0733
  970MOL0     O33746   1.820   4.163   9.801 -0.2608  0.5548  0.4651
  970MOL0     C33747   1.899   4.137   9.690 -0.4707  0.2768 -0.2115
  970MOL0     C33748   2.012   4.052   9.712  0.6783  0.2430 -0.3115
  970MOL0     C33749   2.103   4.014   9.619  0.6218 -0.4080 -0.2682
  970MOL0     C33750   2.217   3.931   9.665  0.3751  0.1900 -0.1261
  970MOL0     C33751   2.091   4.069   9.488  0.9715 -0.5520 -0.2482
  970MOL0     C33752   2.183   4.044   9.375 -1.2472 -0.2044  0.1180
  970MOL0     O33753   2.165   4.114   9.269  0.5500 -0.0936  0.7438
  970MOL0     C33754   2.261   4.112   9.170  0.4110  0.1342  0.4873
  970MOL0     C33755   2.222   4.029   9.051 -0.3130 -0.6168 -0.2096
  970MOL0     C33756   2.318   4.027   8.938 -0.2149  0.7931 -0.0317
  970MOL0     C33757   2.440   4.100   8.938  0.2794  0.3833  0.9056
  970MOL0     O33758   2.526   4.085   8.826 -0.3671 -0.1072  0.5839
  970MOL0     C33759   2.640   4.179   8.826 -0.0400  0.9666  0.1992
  970MOL0     C33760   2.722   4.123   8.710  0.3112 -0.2957  0.0507
  970MOL0     C33761   2.662   4.154   8.567  0.2126 -0.2941  0.2615
  970MOL0     C33762   2.743   4.102   8.452  0.3841  0.5316 -0.1485
  970MOL0     C33763   2.702   4.165   8.309 -0.0613 -0.2472 -0.2550
  970MOL0     C33764   2.764   4.307   8.287  0.1003 -0.1766 -0.3655
  970MOL0     C33765   2.721   4.351   8.148  0.7071  0.0659 -0.2677
  970MOL0     C33766   2.747   4.494   8.119  0.4874  0.2032 -0.6100
  970MOL0    Cl33767   2.670   4.539   7.968  0.7344  0.3582 -0.0570
  970MOL0     C33768   2.460   4.197   9.043 -0.7662 -0.5549  0.2675
  970MOL0     C33769   2.377   4.200   9.157 -0.2318  1.3485 -0.1083
  970MOL0     O33770   2.258   3.948   9.387  0.0594 -0.2397 -0.0836
  970MOL0     C33771   1.984   4.158   9.470  0.1246 -1.0031  0.0002
  970MOL0     C33772   1.886   4.188   9.564  0.3735 -0.1984  1.2465
  970MOL0     N33773   1.499   4.744   9.885  0.3950  0.4814  0.2357
  970MOL0     N33774   1.395   4.808   9.916 -1.1743  1.1859 -0.7121
  970MOL0     C33775   1.859   4.632  10.269  0.2856 -0.3892  0.3168
  970MOL0     C33776   1.955   4.539  10.230  0.4324  0.7191  0.4058
  970MOL0     C33777   2.344   4.438   9.990 -0.1758  0.0534  0.4273
  970MOL0     C33778   2.476   4.460  10.014 -0.3422  0.6423  0.6585
  970MOL0     C33779   2.572   4.394   9.948  0.4470  0.1583  0.3665
  970MOL0     C33780   2.550   4.303   9.850 -0.5076 -0.4122 -0.0148
  970MOL0     O33781   2.640   4.253   9.762  0.3515  0.8760  1.0263
  970MOL0     C33782   2.727   4.355   9.705 -0.1843 -0.0776 -0.2302
  970MOL0     C33783   2.646   4.472   9.634 -1.0539 -0.7418  0.9361
  970MOL0     C33784   2.749   4.560   9.554  0.0674 -0.6271 -0.4288
  970MOL0     C33785   2.726   4.577   9.400  0.1573 -0.3700 -0.4719
  970MOL0     C33786   2.825   4.660   9.332 -0.3045  0.0754  0.5883
  970MOL0     C33787   2.896   4.736   9.272 -0.6173  0.5201 -0.6177
  970MOL0     C33788   2.420   4.272   9.828  0.1519 -0.6415  0.5088
  970MOL0     C33789   2.315   4.339   9.893  0.3931  1.5757 -0.1528
  970MOL0     C33790   2.172   4.328   9.841 -0.4182  0.4838 -0.7824
  970MOL0     H33791   2.122   4.749  10.025 -1.0421 -0.6584 -0.3365
  970MOL0     H33792   1.960   4.915  10.105  1.0265 -0.6825 -2.8220
  970MOL0     H33793   1.644   4.783  10.083  3.0313  1.5374 -2.1639
  970MOL0     H33794   1.709   4.952  10.068 -1.1701  0.6560 -1.0235
  970MOL0     H33795   1.550   5.037  10.233  0.5998 -0.5209  1.6939
  970MOL0     H33796   1.459   4.949  10.102 -0.1567 -0.4743  0.4352
  970MOL0     H33797   1.467   4.736  10.269  3.8972 -0.6740  2.7337
  970MOL0     H33798   1.524   4.847  10.386  0.0382  3.6654  0.1201
  970MOL0     H33799   1.305   4.844  10.439  1.7667  1.7134  1.7648
  970MOL0     H33800   1.331   5.001  10.365  3.0074 -0.6064 -0.3970
  970MOL0     H33801   1.227   4.940  10.164  0.6637 -0.4405  0.1220
  970MOL0     H33802   1.117   4.933  10.298  2.0221  3.1201  0.3762
  970MOL0     H33803   1.263   4.672  10.210 -0.0643  0.5994 -2.0703
  970MOL0     H33804   1.121   4.696  10.302  1.2197 -2.7795 -0.9169
  970MOL0     H33805   1.009   4.823  10.117  1.3569 -0.2615  0.6796
  970MOL0     H33806   1.033   4.646  10.074  0.8557 -1.6744  2.2658
  970MOL0     H33807   1.088   4.749   9.873  2.8201 -0.6514 -1.9958
  970MOL0     H33808   1.162   4.889   9.937 -4.2591 -0.1228 -4.0786
  970MOL0     H33809   1.277   4.519   9.901  2.3730 -1.9269  3.9874
  970MOL0     H33810   1.654   4.538   9.827  1.8784 -1.5085  0.6792
  970MOL0     H33811   1.516   4.474   9.735  1.3379 -0.5574  0.5233
  970MOL0     H33812   1.519   4.420  10.030 -0.4875  0.2262  0.5622
  970MOL0     H33813   1.437   4.330   9.922  1.4898 -4.6704  0.9609
  970MOL0     H33814   1.736   4.340   9.978 -0.0291  1.5160 -1.0389
  970MOL0     H33815   1.626   4.200   9.976 -1.4066 -1.9198 -4.1004
  970MOL0     H33816   1.634   4.223   9.715  1.9320 -0.9677 -2.7497
  970MOL0     H33817   1.757   4.344   9.759  0.5657 -1.9230 -0.7775
  970MOL0     H33818   2.013   4.021   9.816  0.1125  4.3311  1.1109
  970MOL0     H33819   2.226   3.835   9.613  2.0470 -0.0056  0.4608
  970MOL0     H33820   2.209   3.909   9.772 -3.0077 -0.8434 -0.4796
  970MOL0     H33821   2.312   3.977   9.637  2.1975 -0.8150  3.7575
  970MOL0     H33822   2.143   3.955   9.051 -0.4471 -0.5279 -2.0189
  970MOL0     H33823   2.296   3.956   8.859  2.3623 -1.6104  1.2334
  970MOL0     H33824   2.612   4.284   8.819 -0.4676  0.8170 -0.3839
  970MOL0     H33825   2.698   4.172   8.919 -1.4381  2.7021  1.2646
  970MOL0     H33826   2.818   4.175   8.720  1.2303 -2.1718  1.9964
  970MOL0     H33827   2.745   4.018   8.729 -1.3875 -0.8771 -0.9207
  970MOL0     H33828   2.643   4.262   8.561 -1.7983 -0.4454  2.2052
  970MOL0     H33829   2.565   4.103   8.561 -0.0530  0.2942 -0.6716
  970MOL0     H33830   2.739   3.993   8.441 -1.0509  0.6408 -1.1492
  970MOL0     H33831   2.847   4.127   8.470 -0.5567  1.7573  4.8709
  970MOL0     H33832   2.731   4.111   8.219  1.9435 -0.1598  0.2813
  970MOL0     H33833   2.594   4.176   8.292 -0.0922 -0.2819 -0.0842
  970MOL0     H33834   2.873   4.315   8.291  0.5101 -3.8270 -0.9783
  970MOL0     H33835   2.729   4.386   8.355  1.3227  0.3880 -0.3629
  970MOL0     H33836   2.614   4.336   8.127  0.1532  0.9753  1.6297
  970MOL0     H33837   2.789   4.295   8.084  1.6892  0.0870  0.7317
  970MOL0     H33838   2.851   4.525   8.132  0.1804  0.2021  2.3483
  970MOL0     H33839   2.690   4.556   8.189  0.1580  0.4788 -1.1146
  970MOL0     H33840   2.543   4.266   9.038  1.1778 -2.8206 -0.3738
  970MOL0     H33841   2.396   4.258   9.247  0.0057  1.0483  0.0383
  970MOL0     H33842   1.968   4.206   9.374  3.1368 -0.7088 -0.4396
  970MOL0     H33843   1.814   4.266   9.542  0.2168 -1.0670 -1.7718
  970MOL0     H33844   1.772   4.608  10.329  0.0257  3.9826  2.0936
  970MOL0     H33845   1.952   4.435  10.262 -1.1587  0.5522 -0.1909
  970MOL0     H33846   2.503   4.526  10.096 -4.0744  0.3589  2.3276
  970MOL0     H33847   2.675   4.415   9.976  0.7747 -0.2868 -0.4780
  970MOL0     H33848   2.804   4.393   9.774 -1.1629  1.0159  0.2990
  970MOL0     H33849   2.782   4.303   9.626 -0.0627 -1.4832  0.7476
  970MOL0     H33850   2.601   4.539   9.708  0.2370  1.4184 -0.1409
  970MOL0     H33851   2.566   4.437   9.568 -0.6715  0.3965 -0.1804
  970MOL0     H33852   2.743   4.661   9.596  0.3309 -0.5766 -0.5064
  970MOL0     H33853   2.850   4.522   9.573 -0.6487 -1.7275  1.5396
  970MOL0     H33854   2.639   4.640   9.382  0.5958 -0.1353 -1.9227
  970MOL0     H33855   2.705   4.489   9.337  0.0771 -0.4733 -0.3007
  970MOL0     H33856   2.969   4.788   9.214  1.0555 -2.0873 -0.9902
  970MOL0     H33857   2.403   4.191   9.758 -1.6639 -1.5055  1.8685
  970MOL0     H33858   2.105   4.282   9.913  1.4502 -0.0757  0.6919
  970MOL0     H33859   2.152   4.426   9.796  0.7060  0.5816 -1.1195
  970MOL0     H33860   2.176   4.259   9.756  2.2754  1.4426 -1.5519
  971MOL0     O33861   4.263   8.855   2.681 -0.6722  0.3971 -0.5529
  971MOL0     C33862   4.172   8.932   2.704 -0.2813  0.8217  1.2620
  971MOL0     O33863   4.126   9.031   2.616 -0.0475 -0.2422 -0.4291
  971MOL0     C33864   4.206   9.030   2.502 -0.0982 -0.7057  0.7906
  971MOL0     C33865   4.160   8.966   2.389  0.2570  0.6488  0.0732
  971MOL0     C33866   4.242   8.955   2.278 -1.3063  0.1751  0.3116
  971MOL0     C33867   4.368   9.015   2.281  0.2515 -0.6819  0.1229
  971MOL0     O33868   4.456   9.041   2.180  0.4015 -0.5521 -0.0554
  971MOL0     C33869   4.415   9.041   2.054 -0.3145 -0.1225  0.9878
  971MOL0     C33870   4.436   8.896   2.000 -0.5669 -0.1472 -0.2236
  971MOL0     C33871   4.450   8.901   1.842  0.2016  0.3560  1.0784
  971MOL0     C33872   4.519   8.782   1.774  0.3304  0.5654  0.0389
  971MOL0     C33873   4.466   8.766   1.638 -0.1608 -0.6477 -0.4104
  971MOL0     C33874   4.552   8.662   1.563  0.6488 -0.0128  0.0605
  971MOL0     C33875   4.511   8.633   1.418  0.2938 -0.1522 -0.6438
  971MOL0     C33876   4.620   8.564   1.339  0.6690  0.5523  0.2112
  971MOL0     N33877   4.590   8.531   1.196 -0.1417  0.3586 -0.0468
  971MOL0     C33878   4.633   8.415   1.136  1.5804  0.7229 -0.3054
  971MOL0     C33879   4.584   8.425   1.012 -0.2599  1.0754 -0.2636
  971MOL0     C33880   4.607   8.320   0.904 -0.0722  0.4277  0.3838
  971MOL0     C33881   4.588   8.172   0.948 -1.0762 -0.8530  0.1177
  971MOL0     C33882   4.611   8.067   0.828 -0.1430  0.6392 -0.0976
  971MOL0     C33883   4.752   8.059   0.776 -0.1405  0.7931  0.2972
  971MOL0     O33884   4.773   7.949   0.678  0.0392 -0.4471  0.0634
  971MOL0     C33885   4.904   7.910   0.659 -0.6946  0.5359  0.4211
  971MOL0     C33886   4.932   7.800   0.571 -0.1140  0.2739 -0.3244
  971MOL0     C33887   5.059   7.754   0.538  0.3946  0.0873  0.6784
  971MOL0     C33888   5.076   7.643   0.435  0.4221  0.4889 -0.4277
  971MOL0     C33889   5.176   7.828   0.583 -0.0173  0.4399  0.2277
  971MOL0     C33890   5.317   7.791   0.543 -0.0722 -0.2201 -0.0821
  971MOL0     O33891   5.406   7.868   0.615  0.3832 -0.3124  0.4432
  971MOL0     C33892   5.532   7.879   0.576  0.0388 -0.0221 -0.2090
  971MOL0     C33893   5.573   7.965   0.469 -1.1337 -1.1932  0.4350
  971MOL0     C33894   5.707   7.984   0.435 -0.2430 -0.4870 -0.2972
  971MOL0     C33895   5.809   7.911   0.508  0.1437  0.0957  0.1478
  971MOL0     O33896   5.939   7.918   0.487  0.0457  0.3293  0.0110
  971MOL0     C33897   5.990   7.983   0.371  0.4652  1.4083  0.1696
  971MOL0     C33898   6.144   7.977   0.370 -0.5473 -0.3531 -0.3409
  971MOL0     C33899   6.203   8.046   0.254  0.3071 -0.1415 -0.5285
  971MOL0     C33900   6.168   8.000   0.115  0.0390 -0.6210 -0.0387
  971MOL0     C33901   6.252   8.074   0.012 -0.2568  0.0413  1.5713
  971MOL0     C33902   6.236   8.228   0.009  1.0457  0.4372  1.0219
  971MOL0     C33903   6.298   8.279  -0.123 -0.3744 -0.1861 -0.1484
  971MOL0     C33904   6.292   8.430  -0.118 -0.4924 -0.6359  0.5161
  971MOL0    Cl33905   6.134   8.497  -0.170 -1.0555  0.3257 -0.0180
  971MOL0     C33906   5.765   7.817   0.601 -0.4946  0.8012 -0.2797
  971MOL0     C33907   5.634   7.807   0.643  0.2067 -0.4773 -1.0838
  971MOL0     O33908   5.342   7.710   0.457 -0.0073 -0.4863 -0.2914
  971MOL0     C33909   5.154   7.941   0.671 -0.0046  0.6486  0.7337
  971MOL0     C33910   5.016   7.986   0.708 -0.0713  0.1594 -0.4714
  971MOL0     N33911   4.524   8.545   0.994  0.5747  0.8130 -0.1240
  971MOL0     N33912   4.516   8.602   1.105 -0.5045 -0.4543 -0.0637
  971MOL0     C33913   4.417   9.086   2.394 -0.3854  0.0955  0.6768
  971MOL0     C33914   4.336   9.092   2.506 -0.7921  0.9356 -1.2586
  971MOL0     C33915   4.114   8.921   2.836 -0.0072  0.4883  0.1850
  971MOL0     C33916   3.970   8.927   2.849  0.0362  0.5863  0.6280
  971MOL0     C33917   3.912   8.923   2.975  0.8797  0.3436 -0.2091
  971MOL0     C33918   3.987   8.944   3.091 -0.0429  0.1472 -1.5406
  971MOL0     O33919   3.935   8.954   3.218  0.1478 -0.4616  0.4438
  971MOL0     C33920   3.793   8.942   3.241  0.0280 -0.8274  0.3200
  971MOL0     C33921   3.768   8.910   3.384 -0.7296 -0.2997 -0.2420
  971MOL0     C33922   3.624   8.889   3.424 -0.7656 -0.3358 -0.8470
  971MOL0     C33923   3.551   9.018   3.426  0.2091 -0.1853 -0.4087
  971MOL0     C33924   3.424   8.986   3.484 -0.7878  0.2261  0.0513
  971MOL0     C33925   3.316   8.967   3.532  0.1497  0.4803  1.4569
  971MOL0     C33926   4.124   8.947   3.082 -0.1517  0.0897  0.3909
  971MOL0     C33927   4.190   8.939   2.949  0.5379 -0.1730 -0.4706
  971MOL0     C33928   4.336   8.955   2.940  0.1592 -0.9697  0.2408
  971MOL0     H33929   4.065   8.917   2.405  0.0369  1.5454  1.8420
  971MOL0     H33930   4.201   8.917   2.185 -0.6534  0.3172 -0.0418
  971MOL0     H33931   4.470   9.112   1.991  2.8189 -2.3547  0.9732
  971MOL0     H33932   4.311   9.071   2.042 -1.4068 -3.3008  1.4420
  971MOL0     H33933   4.534   8.865   2.037  0.3228  1.5367 -1.0710
  971MOL0     H33934   4.359   8.822   2.024  0.8527 -3.3479 -4.1779
  971MOL0     H33935   4.349   8.923   1.805 -1.2419 -3.4681  2.2446
  971MOL0     H33936   4.518   8.982   1.815 -1.6660  1.5796 -0.2219
  971MOL0     H33937   4.626   8.804   1.770  0.1626  1.1961 -2.4579
  971MOL0     H33938   4.505   8.686   1.824 -0.1955 -0.0328 -1.2108
  971MOL0     H33939   4.470   8.865   1.591  1.9477 -0.7632 -0.5665
  971MOL0     H33940   4.362   8.733   1.637  0.0509 -1.3162 -0.5015
  971MOL0     H33941   4.658   8.687   1.559 -0.1181  3.5783 -2.8900
  971MOL0     H33942   4.525   8.579   1.630  0.2962 -0.8889 -1.1190
  971MOL0     H33943   4.500   8.730   1.368  1.7598  1.0853  1.2717
  971MOL0     H33944   4.420   8.574   1.408  1.8105 -2.2597 -3.7488
  971MOL0     H33945   4.706   8.630   1.327  0.6040  0.4715 -0.8115
  971MOL0     H33946   4.662   8.473   1.383  2.5781  0.9625 -0.6851
  971MOL0     H33947   4.704   8.339   1.167  2.7733  0.7526 -2.7009
  971MOL0     H33948   4.705   8.332   0.857  0.0370  1.3609  0.8344
  971MOL0     H33949   4.527   8.336   0.831 -0.7789  0.9392  1.2451
  971MOL0     H33950   4.661   8.152   1.026  0.3426  0.9865 -0.6530
  971MOL0     H33951   4.486   8.160   0.985 -1.9135  0.6459 -1.5450
  971MOL0     H33952   4.577   7.970   0.865  0.5415  0.7527  0.8656
  971MOL0     H33953   4.544   8.091   0.745 -0.3586 -1.1547 -0.4952
  971MOL0     H33954   4.786   8.156   0.737 -0.5322  1.2185  0.9868
  971MOL0     H33955   4.813   8.021   0.859  1.9335 -0.2897 -1.6380
  971MOL0     H33956   4.845   7.739   0.545  1.3316 -3.7445  3.0961
  971MOL0     H33957   5.137   7.666   0.348 -0.7806 -1.5424 -1.9075
  971MOL0     H33958   4.987   7.600   0.389  2.3522  0.9154 -5.1209
  971MOL0     H33959   5.125   7.557   0.481 -1.7751 -1.6937 -1.8756
  971MOL0     H33960   5.499   8.019   0.410 -0.6053 -1.9855 -1.0143
  971MOL0     H33961   5.737   8.052   0.355  3.0380 -2.7270 -1.2145
  971MOL0     H33962   5.946   7.934   0.283  2.2733  0.9788 -0.5450
  971MOL0     H33963   5.948   8.084   0.376 -1.8661  0.4577  1.1966
  971MOL0     H33964   6.178   8.019   0.465 -4.8337  0.0762  1.2321
  971MOL0     H33965   6.182   7.874   0.367  0.6016 -0.0163  1.3662
  971MOL0     H33966   6.311   8.040   0.274  0.4767  0.8760 -1.0807
  971MOL0     H33967   6.175   8.151   0.263  0.7521  0.3500 -3.6570
  971MOL0     H33968   6.065   8.030   0.091  0.9059  3.9771  0.9162
  971MOL0     H33969   6.180   7.893   0.098  1.1296 -0.2855 -1.5819
  971MOL0     H33970   6.355   8.054   0.041  1.3769 -1.2841 -3.9692
  971MOL0     H33971   6.239   8.034  -0.089  1.6977  1.8522  0.5317
  971MOL0     H33972   6.299   8.268   0.089  0.6521  0.7954  1.1534
  971MOL0     H33973   6.133   8.260   0.024  0.7285 -0.8827  1.8674
  971MOL0     H33974   6.240   8.247  -0.210 -1.7814 -2.3423  1.4729
  971MOL0     H33975   6.403   8.256  -0.143  0.2492  1.2122  1.3259
  971MOL0     H33976   6.367   8.481  -0.179 -1.9001  0.8635 -0.0242
  971MOL0     H33977   6.308   8.469  -0.018  0.0723  2.4832 -0.6884
  971MOL0     H33978   5.842   7.759   0.650 -0.2201  1.4076  0.0150
  971MOL0     H33979   5.615   7.739   0.725 -2.0237 -0.0911 -1.2285
  971MOL0     H33980   5.245   7.993   0.700  0.0542  0.2508  1.2897
  971MOL0     H33981   5.003   8.083   0.755  1.0508 -0.5221  1.3465
  971MOL0     H33982   4.501   9.155   2.384 -1.7753  1.5166 -3.0419
  971MOL0     H33983   4.380   9.131   2.597 -3.6929 -0.5094  0.9468
  971MOL0     H33984   3.904   8.927   2.763  0.9392 -2.0962 -0.1691
  971MOL0     H33985   3.804   8.918   2.986  0.9871  0.6978  1.2168
  971MOL0     H33986   3.744   9.031   3.200  2.9001  0.3935 -0.7020
  971MOL0     H33987   3.758   8.849   3.194  0.2251  0.6450 -3.0392
  971MOL0     H33988   3.835   8.966   3.450  1.1205  1.6488 -3.5298
  971MOL0     H33989   3.806   8.808   3.381 -0.9081 -0.3482 -1.3651
  971MOL0     H33990   3.570   8.820   3.359 -2.5864 -1.1714  1.4224
  971MOL0     H33991   3.637   8.845   3.524  1.5079  2.6552  0.3605
  971MOL0     H33992   3.532   9.057   3.325 -3.1732 -0.9352 -0.1649
  971MOL0     H33993   3.593   9.096   3.491  1.1919 -0.8755 -0.1992
  971MOL0     H33994   3.216   8.933   3.550  0.0201 -0.1555 -0.2925
  971MOL0     H33995   4.181   8.970   3.171  1.4001  0.9165 -0.7781
  971MOL0     H33996   4.350   9.053   2.895  0.2808 -1.5449 -1.0202
  971MOL0     H33997   4.373   8.944   3.043  1.4954 -3.8552 -0.4439
  971MOL0     H33998   4.395   8.888   2.877  1.9069  0.0844  0.6891
  972MOL0     O33999   7.334   6.892   5.266 -0.3159  0.2435 -0.4945
  972MOL0     C34000   7.366   7.007   5.295 -0.2652  0.2236  0.5538
  972MOL0     O34001   7.473   7.045   5.363 -0.6153  1.0092  0.6320
  972MOL0     C34002   7.563   6.952   5.415  0.0338  0.3908  0.2102
  972MOL0     C34003   7.522   6.841   5.487  1.2074  0.3038  0.2557
  972MOL0     C34004   7.624   6.756   5.542  0.8973  0.1422 -0.0141
  972MOL0     C34005   7.753   6.775   5.511 -0.3318  0.3329 -0.2170
  972MOL0     O34006   7.836   6.678   5.562 -0.0105  0.3183  0.6379
  972MOL0     C34007   7.969   6.656   5.504  0.1183  0.2745  0.1751
  972MOL0     C34008   8.024   6.556   5.589 -0.1684 -1.0630  0.1845
  972MOL0     C34009   8.068   6.621   5.718 -0.6121  0.2854 -0.0173
  972MOL0     C34010   8.112   6.511   5.817 -0.1476 -0.1374  0.4675
  972MOL0     C34011   8.117   6.550   5.967  1.2529  0.0128 -0.3740
  972MOL0     C34012   8.204   6.677   5.991 -0.2695 -0.5416 -0.0352
  972MOL0     C34013   8.244   6.700   6.144 -0.2487 -0.0874 -0.7207
  972MOL0     C34014   8.361   6.806   6.162 -0.0583  0.0770 -0.7395
  972MOL0     N34015   8.302   6.938   6.176 -0.6822 -0.6383  0.1771
  972MOL0     C34016   8.268   7.022   6.069 -0.7589 -0.2100 -0.6407
  972MOL0     C34017   8.241   7.140   6.126 -0.1838  0.3137 -0.1682
  972MOL0     C34018   8.208   7.275   6.053  0.7837 -1.2104  0.5224
  972MOL0     C34019   8.192   7.395   6.153  0.1968 -0.1398  0.2948
  972MOL0     C34020   8.326   7.464   6.193 -0.0669 -0.1776  0.0771
  972MOL0     C34021   8.302   7.604   6.256 -0.4771 -0.0106 -1.3954
  972MOL0     O34022   8.212   7.600   6.372  0.0831  0.4897  0.1942
  972MOL0     C34023   8.253   7.644   6.499 -0.2119 -0.3516  1.0083
  972MOL0     C34024   8.284   7.780   6.516 -0.0110  0.1320 -0.7193
  972MOL0     C34025   8.328   7.829   6.646 -0.3480 -0.0957  1.7779
  972MOL0     C34026   8.360   7.975   6.661  0.3914  0.4398  0.6190
  972MOL0     C34027   8.335   7.736   6.757  0.5419  0.9787  0.8468
  972MOL0     C34028   8.369   7.770   6.897  1.0391  0.0782 -0.5153
  972MOL0     O34029   8.357   7.898   6.945 -0.7087 -0.3111  0.4559
  972MOL0     C34030   8.440   7.921   7.055 -0.3586  0.0215 -0.1574
  972MOL0     C34031   8.395   7.901   7.183 -0.6340 -0.3757  1.2317
  972MOL0     C34032   8.474   7.922   7.294  0.2436  0.9267  0.1778
  972MOL0     C34033   8.608   7.956   7.287 -0.1945 -0.8637 -0.4481
  972MOL0     O34034   8.683   7.965   7.396  0.7775  0.6176 -1.0541
  972MOL0     C34035   8.831   7.954   7.386  0.5438 -0.1145 -0.4050
  972MOL0     C34036   8.889   8.005   7.517 -0.1675 -0.1466  0.3559
  972MOL0     C34037   9.034   8.055   7.511 -0.2477 -0.2880  0.7650
  972MOL0     C34038   9.142   7.942   7.513  0.4745 -0.7092 -0.5693
  972MOL0     C34039   9.283   7.989   7.540 -0.0823 -0.4350 -1.6565
  972MOL0     C34040   9.359   8.030   7.417  0.3758 -0.4293  0.5810
  972MOL0     C34041   9.502   8.082   7.454 -0.8406  0.5168 -0.2999
  972MOL0     C34042   9.610   7.980   7.503 -0.0891 -0.5036 -0.6532
  972MOL0    Cl34043   9.641   7.849   7.378 -0.4107 -0.3747  0.1743
  972MOL0     C34044   8.649   7.992   7.160 -1.2640 -0.1438  0.2920
  972MOL0     C34045   8.568   7.982   7.042  0.8460  0.2617  0.5741
  972MOL0     O34046   8.410   7.678   6.962  0.4253  0.2814 -0.1579
  972MOL0     C34047   8.305   7.597   6.739 -0.3621 -0.3078 -0.0709
  972MOL0     C34048   8.271   7.559   6.606 -0.1660 -0.5569 -0.4054
  972MOL0     N34049   8.261   7.122   6.263 -0.5412 -0.0530 -0.4888
  972MOL0     N34050   8.281   7.003   6.290  0.5388 -0.6167 -1.3147
  972MOL0     C34051   7.786   6.877   5.423  0.1275 -0.3787  0.0877
  972MOL0     C34052   7.696   6.975   5.395  1.1406  0.6557  0.3658
  972MOL0     C34053   7.288   7.123   5.246  0.2085 -0.1306  0.0728
  972MOL0     C34054   7.304   7.239   5.322  0.0828 -0.2001 -1.0629
  972MOL0     C34055   7.223   7.352   5.297 -0.8902  0.8192 -0.3070
  972MOL0     C34056   7.125   7.342   5.198 -0.0304 -0.6252  0.9814
  972MOL0     O34057   7.038   7.445   5.167  0.7232  0.3769 -0.0686
  972MOL0     C34058   7.075   7.583   5.188  0.1359 -0.4482 -0.1865
  972MOL0     C34059   7.000   7.643   5.311 -0.3411  0.6504  0.4006
  972MOL0     C34060   7.050   7.785   5.343  1.5196 -0.4082 -0.0247
  972MOL0     C34061   7.197   7.804   5.385 -0.9374 -0.4346 -0.3638
  972MOL0     C34062   7.229   7.707   5.490  0.5136 -1.0430 -0.4042
  972MOL0     C34063   7.238   7.624   5.579 -0.2881 -0.0474  0.4891
  972MOL0     C34064   7.108   7.222   5.124  0.1922 -0.6324  0.0128
  972MOL0     C34065   7.192   7.113   5.144  0.1548 -0.8607 -0.7619
  972MOL0     C34066   7.174   7.001   5.051  0.2063 -0.2060  0.4033
  972MOL0     H34067   7.415   6.820   5.490  1.2104  0.2936  0.3150
  972MOL0     H34068   7.588   6.671   5.598 -0.9839  0.9893  0.1437
  972MOL0     H34069   8.033   6.744   5.505  2.3183 -1.2324  1.9160
  972MOL0     H34070   7.959   6.614   5.403 -2.2693 -0.2697  0.5736
  972MOL0     H34071   7.956   6.472   5.602 -2.0032 -0.4207 -3.8397
  972MOL0     H34072   8.114   6.504   5.555 -0.3909 -1.0305 -0.4688
  972MOL0     H34073   8.138   6.705   5.717  1.3415 -1.2586 -2.3036
  972MOL0     H34074   7.977   6.662   5.763  0.0700  1.9628 -0.1004
  972MOL0     H34075   8.042   6.426   5.814  0.8317 -1.0064  1.4330
  972MOL0     H34076   8.211   6.481   5.782  0.6388  0.8202  1.7930
  972MOL0     H34077   8.155   6.471   6.032 -1.5526 -0.4044  0.9100
  972MOL0     H34078   8.017   6.557   6.009  0.5865 -2.3545 -1.4075
  972MOL0     H34079   8.301   6.682   5.940  0.2877  1.4957  1.0873
  972MOL0     H34080   8.161   6.772   5.959  1.0734 -0.5895 -2.2084
  972MOL0     H34081   8.264   6.600   6.182  1.0846  0.1563 -0.7204
  972MOL0     H34082   8.152   6.729   6.195 -0.0467  1.9090 -1.3768
  972MOL0     H34083   8.409   6.782   6.258  1.6453 -0.2264 -1.6281
  972MOL0     H34084   8.438   6.811   6.084  0.7976 -2.9660 -0.2237
  972MOL0     H34085   8.264   6.992   5.965  0.3591  0.2273 -0.8291
  972MOL0     H34086   8.131   7.271   5.976 -0.3082 -0.3529  1.5382
  972MOL0     H34087   8.297   7.299   5.994 -0.9051  1.8741 -0.9772
  972MOL0     H34088   8.138   7.479   6.108 -0.3173 -0.8057 -0.3559
  972MOL0     H34089   8.137   7.358   6.240  2.0708  0.4323  1.8042
  972MOL0     H34090   8.393   7.404   6.255 -0.8326 -2.5798 -1.2962
  972MOL0     H34091   8.386   7.483   6.104 -3.2699  0.6453 -2.1015
  972MOL0     H34092   8.399   7.643   6.287 -0.5588 -1.4355  0.9092
  972MOL0     H34093   8.261   7.677   6.186 -0.5554  0.9723 -0.3555
  972MOL0     H34094   8.264   7.853   6.439  0.2112 -1.4291 -2.3283
  972MOL0     H34095   8.460   7.985   6.704  1.0992  1.1587 -1.0945
  972MOL0     H34096   8.291   8.024   6.731 -0.3245  1.1307 -0.5406
  972MOL0     H34097   8.355   8.033   6.569 -1.0940  0.4283  0.6667
  972MOL0     H34098   8.295   7.865   7.205 -1.3764  0.8240 -0.0160
  972MOL0     H34099   8.434   7.891   7.390  2.0260 -1.9945  0.0936
  972MOL0     H34100   8.867   7.853   7.365  3.3599  0.7837 -0.3950
  972MOL0     H34101   8.872   8.012   7.303 -1.1320 -1.9025 -2.5939
  972MOL0     H34102   8.824   8.091   7.540 -2.2507 -1.3354 -0.8092
  972MOL0     H34103   8.886   7.931   7.597  1.7967  1.5896  2.1761
  972MOL0     H34104   9.051   8.126   7.592 -1.5111 -0.4140  1.1699
  972MOL0     H34105   9.076   8.101   7.421  1.3041 -2.5340  0.2700
  972MOL0     H34106   9.147   7.878   7.424  2.1031 -2.6692  0.8465
  972MOL0     H34107   9.111   7.872   7.591 -0.6788  0.6809  0.2682
  972MOL0     H34108   9.286   8.065   7.619  0.7464 -3.8346  1.9234
  972MOL0     H34109   9.331   7.898   7.579  0.7663  0.8973  0.6152
  972MOL0     H34110   9.306   8.112   7.369  3.3173  1.7685  0.8377
  972MOL0     H34111   9.369   7.945   7.349  0.3756 -0.0739  0.1408
  972MOL0     H34112   9.485   8.177   7.506 -0.4528  1.8168 -2.4581
  972MOL0     H34113   9.559   8.113   7.367  1.6298 -1.7271  0.3982
  972MOL0     H34114   9.570   7.943   7.598  0.2549 -0.4155 -0.4739
  972MOL0     H34115   9.700   8.036   7.527 -0.4169  0.7404 -2.1858
  972MOL0     H34116   8.749   8.025   7.137 -0.5109 -2.1287  0.4945
  972MOL0     H34117   8.611   8.002   6.944  0.4614  0.9637  0.5415
  972MOL0     H34118   8.309   7.523   6.818  2.8390 -0.0808  0.1023
  972MOL0     H34119   8.247   7.456   6.581 -0.4550 -1.1638  2.0985
  972MOL0     H34120   7.893   6.880   5.400  0.2455 -1.5282  0.4327
  972MOL0     H34121   7.716   7.074   5.355 -3.7661  2.6161  2.0741
  972MOL0     H34122   7.377   7.256   5.400 -0.4188  0.5868 -0.7564
  972MOL0     H34123   7.232   7.430   5.373  2.8328  0.2784  0.0018
  972MOL0     H34124   7.183   7.596   5.201  0.2752 -1.4950 -0.1950
  972MOL0     H34125   7.053   7.630   5.092 -0.0871 -1.7728 -0.8072
  972MOL0     H34126   7.013   7.589   5.405  1.3896  0.1707 -0.0832
  972MOL0     H34127   6.891   7.649   5.300 -0.1183  1.5528 -1.8269
  972MOL0     H34128   7.021   7.849   5.260  0.4114 -0.6386  0.1632
  972MOL0     H34129   6.985   7.816   5.425  0.5133 -2.7215  0.1528
  972MOL0     H34130   7.220   7.900   5.433  3.5939 -2.9449  3.3379
  972MOL0     H34131   7.256   7.778   5.296 -1.1996  2.0751 -1.3570
  972MOL0     H34132   7.252   7.551   5.656  1.5278 -0.6342 -0.3432
  972MOL0     H34133   7.029   7.228   5.051 -2.2387 -0.8101  2.4795
  972MOL0     H34134   7.108   7.031   4.969  1.0911  1.9193  0.4040
  972MOL0     H34135   7.270   6.965   5.013  1.6605  2.6087  1.1635
  972MOL0     H34136   7.131   6.914   5.102  0.8652  0.4624  2.1938
  973MOL0     O34137  10.236   8.114   4.274  0.2514 -0.1317  0.2820
  973MOL0     C34138  10.296   8.067   4.364 -0.3869 -0.7538 -0.4970
  973MOL0     O34139  10.242   8.024   4.478 -0.1026 -0.5257  0.2142
  973MOL0     C34140  10.107   8.024   4.489  0.4076  0.5739  0.2459
  973MOL0     C34141  10.026   8.146   4.490  0.3339  0.6444  0.4354
  973MOL0     C34142   9.882   8.130   4.507 -1.1396 -0.0689 -0.9138
  973MOL0     C34143   9.821   8.013   4.521  0.0553  1.0103  0.0954
  973MOL0     O34144   9.680   8.019   4.519  0.5801  0.4290  0.7836
  973MOL0     C34145   9.620   7.987   4.644 -0.6268  0.7059 -0.1780
  973MOL0     C34146   9.559   8.094   4.729  0.9528  0.5468 -0.7506
  973MOL0     C34147   9.501   8.039   4.870  0.6553 -0.0507  0.2560
  973MOL0     C34148   9.454   8.165   4.952  0.1529  0.3363  0.7367
  973MOL0     C34149   9.545   8.205   5.067  0.2145 -0.2766 -0.0956
  973MOL0     C34150   9.506   8.336   5.132 -1.4924 -0.7110  0.0042
  973MOL0     C34151   9.392   8.313   5.235  0.6915  0.1304 -0.5964
  973MOL0     C34152   9.438   8.273   5.372  0.4782 -0.2501  0.9777
  973MOL0     N34153   9.319   8.240   5.451  0.8380  0.2413  0.4793
  973MOL0     C34154   9.246   8.128   5.465 -1.1147  0.4531  0.2331
  973MOL0     C34155   9.151   8.161   5.564 -0.1844  0.9095  0.9104
  973MOL0     C34156   9.036   8.066   5.606 -0.2101 -1.0153  0.3180
  973MOL0     C34157   8.988   8.081   5.761 -0.1916  0.3099 -0.3333
  973MOL0     C34158   8.852   8.016   5.784  0.1742  0.0870 -0.8792
  973MOL0     C34159   8.873   7.866   5.806 -0.4778 -0.4144  0.0796
  973MOL0     O34160   8.903   7.850   5.952 -0.2996 -0.5988 -0.3020
  973MOL0     C34161   8.873   7.729   6.008 -0.2694 -0.8478 -0.1010
  973MOL0     C34162   8.939   7.703   6.125  0.2680 -0.1765  0.1559
  973MOL0     C34163   8.934   7.585   6.200 -1.0514 -0.2428 -0.2067
  973MOL0     C34164   9.006   7.581   6.326 -0.3548  0.6216 -0.3079
  973MOL0     C34165   8.851   7.478   6.161  0.5637  0.4430 -0.6022
  973MOL0     C34166   8.836   7.348   6.231 -0.1180  0.5724 -0.5727
  973MOL0     O34167   8.733   7.263   6.181 -0.5458 -0.4048 -0.1936
  973MOL0     C34168   8.722   7.134   6.228 -0.2884  0.0399 -0.4985
  973MOL0     C34169   8.689   7.046   6.127  0.4930  1.5086 -0.2807
  973MOL0     C34170   8.680   6.909   6.147 -0.4427  0.4772  0.2801
  973MOL0     C34171   8.691   6.859   6.280  0.3474  1.8072 -1.0754
  973MOL0     O34172   8.663   6.721   6.296 -0.3923 -0.8560  0.2368
  973MOL0     C34173   8.649   6.669   6.430 -0.3324  0.7299 -0.1115
  973MOL0     C34174   8.590   6.530   6.430 -0.0622 -0.2357 -0.0740
  973MOL0     C34175   8.605   6.471   6.576 -0.0532  0.3684  0.8201
  973MOL0     C34176   8.730   6.415   6.624 -0.4656 -0.8553 -0.9321
  973MOL0     C34177   8.785   6.294   6.553  0.0217  0.3776  0.7739
  973MOL0     C34178   8.691   6.170   6.542 -0.3778 -0.2128  0.2074
  973MOL0     C34179   8.600   6.161   6.426 -0.1275 -1.0453 -0.0676
  973MOL0     C34180   8.592   6.021   6.351 -1.2157  0.7483 -1.1924
  973MOL0    Cl34181   8.507   5.913   6.460  0.2750  0.0091  0.0883
  973MOL0     C34182   8.731   6.951   6.380  0.3072  0.1680 -0.5129
  973MOL0     C34183   8.746   7.084   6.350  0.4487 -0.7707 -0.5288
  973MOL0     O34184   8.932   7.310   6.300  0.0950  0.0016 -0.0334
  973MOL0     C34185   8.757   7.504   6.052  0.2581  1.0731 -0.2573
  973MOL0     C34186   8.777   7.629   5.976 -0.7614 -0.4178  0.1353
  973MOL0     N34187   9.179   8.290   5.603  0.4241  0.2008 -0.4380
  973MOL0     N34188   9.277   8.333   5.542 -0.1148 -1.4509  0.3245
  973MOL0     C34189   9.899   7.896   4.534 -0.1529 -0.2171  0.3857
  973MOL0     C34190  10.040   7.904   4.527 -0.1528  1.4714  0.9740
  973MOL0     C34191  10.439   8.052   4.368  0.0764 -0.2609 -0.4297
  973MOL0     C34192  10.519   8.168   4.404  0.5435  0.0942 -0.2344
  973MOL0     C34193  10.656   8.139   4.429 -0.5025 -0.4665 -0.3355
  973MOL0     C34194  10.701   8.011   4.405 -0.5681  0.2029  0.0643
  973MOL0     O34195  10.824   7.963   4.438  0.4411 -0.5631 -0.0197
  973MOL0     C34196  10.907   8.035   4.532  0.4040  0.1680 -0.8804
  973MOL0     C34197  11.028   7.940   4.559  0.3660 -0.8310 -0.5977
  973MOL0     C34198  10.985   7.808   4.629  0.3342  1.1786  0.5750
  973MOL0     C34199  11.099   7.721   4.678 -0.1879  0.2079  1.4993
  973MOL0     C34200  11.182   7.679   4.565  0.1735 -0.3192 -0.2137
  973MOL0     C34201  11.260   7.649   4.484 -0.5927  0.0772  0.8415
  973MOL0     C34202  10.622   7.919   4.334 -0.9417  0.4777 -0.0008
  973MOL0     C34203  10.486   7.929   4.325 -0.0312 -1.0721  0.3235
  973MOL0     C34204  10.399   7.833   4.263 -1.0899  0.0018  1.3767
  973MOL0     H34205  10.078   8.237   4.463  0.4259  0.9426  1.5739
  973MOL0     H34206   9.815   8.216   4.510 -4.7313 -2.6613 -0.2371
  973MOL0     H34207   9.692   7.924   4.697 -0.2716  0.1715 -1.2676
  973MOL0     H34208   9.535   7.922   4.622 -0.2990  0.4276 -0.6452
  973MOL0     H34209   9.629   8.175   4.749  0.2197  1.7487 -2.7634
  973MOL0     H34210   9.478   8.145   4.676 -1.9454 -1.4739  1.4833
  973MOL0     H34211   9.419   7.968   4.853  3.1216 -3.1194  0.2916
  973MOL0     H34212   9.576   7.980   4.923  0.3754 -1.1623 -0.5288
  973MOL0     H34213   9.433   8.245   4.880 -2.1926 -0.2225  0.7091
  973MOL0     H34214   9.351   8.146   4.984 -0.5781  2.8505  0.0587
  973MOL0     H34215   9.630   8.237   5.007  0.3859 -0.5002  0.0256
  973MOL0     H34216   9.581   8.130   5.139  0.1095 -0.0720  0.1711
  973MOL0     H34217   9.593   8.381   5.180 -2.7460 -0.0799  1.7992
  973MOL0     H34218   9.463   8.396   5.052 -0.3895  0.7753  0.4795
  973MOL0     H34219   9.317   8.248   5.187  0.4957 -2.4514  2.8204
  973MOL0     H34220   9.347   8.408   5.264 -0.2307 -1.2839  3.2438
  973MOL0     H34221   9.498   8.182   5.364  0.4660 -0.0884 -1.5343
  973MOL0     H34222   9.489   8.362   5.409 -0.3040  1.8363 -2.5393
  973MOL0     H34223   9.267   8.041   5.404  1.8130  1.1703  0.0485
  973MOL0     H34224   9.058   7.964   5.574 -1.6464 -1.6197  1.1657
  973MOL0     H34225   8.950   8.085   5.542  0.5897  1.9727 -0.0323
  973MOL0     H34226   9.063   8.050   5.835  1.8533 -0.2228 -2.4728
  973MOL0     H34227   8.988   8.189   5.780 -1.3593 -0.1551  2.8803
  973MOL0     H34228   8.800   8.067   5.865 -1.6710  1.2068 -2.6568
  973MOL0     H34229   8.784   8.047   5.703  0.8208 -2.6382 -2.5990
  973MOL0     H34230   8.793   7.802   5.768  0.4486 -1.9083  0.5691
  973MOL0     H34231   8.953   7.819   5.748 -1.1814 -2.4397  0.6571
  973MOL0     H34232   9.005   7.776   6.171 -1.2322  1.1709  0.2696
  973MOL0     H34233   9.098   7.525   6.309 -0.3311  0.5005  0.1904
  973MOL0     H34234   8.954   7.529   6.407 -0.8394  0.2293 -0.8620
  973MOL0     H34235   9.031   7.678   6.370 -1.9636  1.1236 -0.4166
  973MOL0     H34236   8.675   7.076   6.023 -0.1789  1.1548 -0.2953
  973MOL0     H34237   8.663   6.837   6.068 -0.2324 -0.8772  1.4232
  973MOL0     H34238   8.746   6.677   6.480 -0.8150  0.3552  0.9199
  973MOL0     H34239   8.578   6.732   6.484 -0.4979 -1.0327  1.8626
  973MOL0     H34240   8.484   6.535   6.403 -0.9916 -1.8572  2.8631
  973MOL0     H34241   8.650   6.473   6.358 -0.9643  0.1064 -1.1135
  973MOL0     H34242   8.529   6.393   6.591  3.0045 -2.8410  0.8462
  973MOL0     H34243   8.584   6.552   6.646 -1.4658  1.1904 -0.4872
  973MOL0     H34244   8.720   6.383   6.729  1.3842 -1.8973 -1.0303
  973MOL0     H34245   8.800   6.498   6.617 -0.7754 -0.4272  0.5739
  973MOL0     H34246   8.818   6.334   6.456  1.8963 -2.8029 -0.0755
  973MOL0     H34247   8.876   6.242   6.587  0.1154 -3.6152 -4.3262
  973MOL0     H34248   8.626   6.163   6.630 -0.4378 -0.7758  0.1257
  973MOL0     H34249   8.762   6.088   6.521  0.5581  0.8986 -1.1646
  973MOL0     H34250   8.642   6.231   6.353  0.9055  0.2607  1.6930
  973MOL0     H34251   8.503   6.195   6.463  1.7558  1.2550  3.2288
  973MOL0     H34252   8.693   5.986   6.329 -1.4754 -0.1808 -0.9611
  973MOL0     H34253   8.535   6.035   6.259  0.4898  2.5546 -2.0549
  973MOL0     H34254   8.746   6.913   6.481  1.8803 -1.4095 -1.2866
  973MOL0     H34255   8.769   7.154   6.431 -3.9006  0.5861 -0.2120
  973MOL0     H34256   8.670   7.443   6.029  0.9502 -0.9436  2.0288
  973MOL0     H34257   8.717   7.644   5.887 -0.0001 -2.2324 -0.7143
  973MOL0     H34258   9.851   7.799   4.541 -0.7343  0.0509  0.2210
  973MOL0     H34259  10.110   7.824   4.546  1.4256  1.9269 -2.1705
  973MOL0     H34260  10.468   8.262   4.423  1.0042  0.8752 -2.4449
  973MOL0     H34261  10.730   8.216   4.453 -1.5872  0.6406 -0.4328
  973MOL0     H34262  10.948   8.129   4.494 -1.1512  1.9106  1.3844
  973MOL0     H34263  10.854   8.062   4.624 -1.1947  1.8536 -2.2394
  973MOL0     H34264  11.098   7.997   4.621  0.1553  1.1547 -2.0467
  973MOL0     H34265  11.074   7.925   4.461 -0.7291 -0.1322 -1.2508
  973MOL0     H34266  10.920   7.830   4.714 -4.2502 -2.1072 -1.6937
  973MOL0     H34267  10.921   7.745   4.567  0.6534  0.7668  0.6604
  973MOL0     H34268  11.058   7.628   4.718 -0.6211  0.1661  0.9743
  973MOL0     H34269  11.165   7.772   4.748  1.3548 -1.7120  1.5149
  973MOL0     H34270  11.341   7.628   4.417 -0.6606 -0.7519  1.0031
  973MOL0     H34271  10.668   7.825   4.304  1.5140  1.8634 -0.7734
  973MOL0     H34272  10.446   7.734   4.255 -1.7633 -0.5855  3.9720
  973MOL0     H34273  10.316   7.809   4.330  0.4761 -0.9474  3.0782
  973MOL0     H34274  10.375   7.869   4.162  1.0046  3.5496  1.9622
  974MOL0     O34275   9.066   5.524   5.141 -0.1217 -0.2759 -0.5392
  974MOL0     C34276   8.991   5.431   5.150  0.0577  0.7684 -0.4573
  974MOL0     O34277   8.860   5.419   5.101  0.2597 -0.2064 -0.0909
  974MOL0     C34278   8.815   5.526   5.036  0.4431 -0.3394 -0.9059
  974MOL0     C34279   8.704   5.596   5.077 -0.2756  1.2472  0.2294
  974MOL0     C34280   8.651   5.685   4.993 -0.0044  0.1438  0.2089
  974MOL0     C34281   8.698   5.722   4.872  0.4052 -0.3627  0.4757
  974MOL0     O34282   8.617   5.819   4.810  0.3629  0.5473 -0.5351
  974MOL0     C34283   8.659   5.876   4.687  0.5409 -0.0366 -0.5874
  974MOL0     C34284   8.541   5.956   4.648  0.4552 -0.4308 -0.7521
  974MOL0     C34285   8.429   5.874   4.588  0.6546 -0.1795 -0.9815
  974MOL0     C34286   8.372   5.945   4.462  1.2743 -0.1200 -0.1058
  974MOL0     C34287   8.245   5.886   4.410  0.1444 -0.0246  1.2144
  974MOL0     C34288   8.134   5.849   4.516  0.9330  0.5665  0.4118
  974MOL0     C34289   8.093   5.960   4.610  0.5122  0.5561 -0.0664
  974MOL0     C34290   8.025   6.072   4.530  0.3006  0.2520  0.0089
  974MOL0     N34291   7.965   6.165   4.623  0.0378  0.6419 -0.3414
  974MOL0     C34292   7.843   6.168   4.694  0.3967 -1.5509  0.3127
  974MOL0     C34293   7.814   6.297   4.734 -0.4654  0.0776 -0.2260
  974MOL0     C34294   7.677   6.331   4.788  0.2685  0.8640 -0.3076
  974MOL0     C34295   7.590   6.399   4.678  1.0022  0.2051 -0.8720
  974MOL0     C34296   7.594   6.342   4.537  0.6554  0.0134  0.5344
  974MOL0     C34297   7.539   6.432   4.429 -0.4793 -0.4516  0.5236
  974MOL0     O34298   7.498   6.376   4.304 -0.1196  0.6888 -0.2837
  974MOL0     C34299   7.558   6.271   4.245 -0.0919  0.5832 -0.0083
  974MOL0     C34300   7.698   6.252   4.258  0.4858  0.7968  0.1046
  974MOL0     C34301   7.758   6.131   4.206 -0.2984 -0.4662 -0.4203
  974MOL0     C34302   7.905   6.128   4.196  0.4430 -0.4061 -0.0354
  974MOL0     C34303   7.675   6.026   4.157 -0.7800 -1.3206 -1.2517
  974MOL0     C34304   7.728   5.891   4.118 -0.2810 -0.3777 -0.7623
  974MOL0     O34305   7.639   5.792   4.082 -0.3579 -0.4978  0.7255
  974MOL0     C34306   7.673   5.661   4.055  0.2108  0.9459  0.2445
  974MOL0     C34307   7.574   5.584   3.988  0.3506 -0.1603  0.8473
  974MOL0     C34308   7.593   5.447   3.964 -0.6068  0.5181  0.2695
  974MOL0     C34309   7.719   5.385   3.998  1.1867  0.4514  0.5911
  974MOL0     O34310   7.754   5.253   3.969  0.6609  0.2247 -0.3437
  974MOL0     C34311   7.676   5.157   4.049  0.4655  0.0944  0.5588
  974MOL0     C34312   7.762   5.045   4.102 -0.0121 -0.0877  0.9875
  974MOL0     C34313   7.685   4.954   4.196 -0.6384  0.5469 -1.0296
  974MOL0     C34314   7.755   4.822   4.247 -0.1997 -0.1864 -0.4263
  974MOL0     C34315   7.648   4.739   4.323 -0.9610 -0.3079 -0.7718
  974MOL0     C34316   7.684   4.600   4.372  0.0440 -0.6417  0.5154
  974MOL0     C34317   7.564   4.532   4.440  0.6703  0.7270 -0.6873
  974MOL0     C34318   7.599   4.383   4.479  1.2747 -0.0383 -0.3352
  974MOL0    Cl34319   7.746   4.358   4.560 -0.4357 -0.0490 -0.9775
  974MOL0     C34320   7.808   5.460   4.076  0.6015  0.2021  0.4897
  974MOL0     C34321   7.781   5.590   4.108 -0.0256  0.3520  0.7836
  974MOL0     O34322   7.850   5.880   4.113 -0.0457 -0.7685 -0.3424
  974MOL0     C34323   7.540   6.050   4.138  0.8287 -0.6310 -0.2727
  974MOL0     C34324   7.485   6.172   4.181  0.0987  0.2906  0.2923
  974MOL0     N34325   7.925   6.371   4.691  0.0235 -0.3754 -0.9570
  974MOL0     N34326   8.000   6.290   4.628 -0.3853 -0.9302  0.2965
  974MOL0     C34327   8.810   5.660   4.825  0.0643 -0.3694  0.1712
  974MOL0     C34328   8.879   5.566   4.914  0.9978  0.8760 -0.1389
  974MOL0     C34329   9.047   5.302   5.198 -0.9034 -0.2275  0.7067
  974MOL0     C34330   9.184   5.270   5.149  0.4483 -0.0621  0.5794
  974MOL0     C34331   9.247   5.162   5.185 -0.3621  0.4869 -0.5945
  974MOL0     C34332   9.190   5.071   5.273  0.8352 -0.4097  0.1862
  974MOL0     O34333   9.243   4.950   5.307 -0.3571 -0.0862 -0.0019
  974MOL0     C34334   9.311   4.939   5.436 -0.0539  0.0228  0.0486
  974MOL0     C34335   9.460   4.986   5.429  0.3227  0.3831  0.4662
  974MOL0     C34336   9.527   4.987   5.561  0.2318 -0.6599  0.1783
  974MOL0     C34337   9.584   4.849   5.602  0.3873 -0.8148 -1.0117
  974MOL0     C34338   9.717   4.840   5.533  0.0895 -0.1433  0.6797
  974MOL0     C34339   9.818   4.819   5.453 -0.0939  0.1516  0.2175
  974MOL0     C34340   9.057   5.095   5.317  0.5240 -0.0900  0.5942
  974MOL0     C34341   8.989   5.215   5.284 -0.1320 -0.1115 -0.1757
  974MOL0     C34342   8.848   5.234   5.355  0.0873  0.4508 -0.1162
  974MOL0     H34343   8.659   5.561   5.169 -1.6462  0.7768 -0.5866
  974MOL0     H34344   8.550   5.712   5.019 -0.7584 -2.8396  0.7230
  974MOL0     H34345   8.680   5.795   4.616  3.7415 -0.2149  0.4010
  974MOL0     H34346   8.746   5.941   4.698 -0.0104  0.6078  0.0052
  974MOL0     H34347   8.508   6.020   4.731  2.6266 -1.2222  0.8352
  974MOL0     H34348   8.575   6.023   4.569 -2.0973  0.4965 -1.1546
  974MOL0     H34349   8.473   5.776   4.567  2.9083  0.2478  1.2981
  974MOL0     H34350   8.345   5.860   4.657  2.7209 -0.7961  1.5596
  974MOL0     H34351   8.345   6.048   4.484  1.5096  0.0700 -0.6971
  974MOL0     H34352   8.443   5.942   4.379 -1.2361 -1.2820 -2.3604
  974MOL0     H34353   8.260   5.801   4.342  0.6025  1.7413 -1.0147
  974MOL0     H34354   8.208   5.950   4.329 -1.0753 -1.5974  0.4567
  974MOL0     H34355   8.053   5.812   4.452  1.1204  2.5254 -1.0449
  974MOL0     H34356   8.164   5.766   4.580  0.8045  1.1092  1.1974
  974MOL0     H34357   8.181   5.994   4.666  0.9641  0.8581 -0.9343
  974MOL0     H34358   8.028   5.916   4.686  0.9142  1.8323  1.0605
  974MOL0     H34359   8.110   6.126   4.487  1.5043  0.1574  2.1471
  974MOL0     H34360   7.946   6.039   4.462 -2.8073  3.0497  1.9608
  974MOL0     H34361   7.776   6.084   4.711 -2.9299  1.1107  1.3914
  974MOL0     H34362   7.677   6.390   4.880  0.8073 -1.3329  1.1849
  974MOL0     H34363   7.622   6.239   4.811 -0.0446  0.5325 -2.2044
  974MOL0     H34364   7.486   6.399   4.713  0.7772  3.0073 -1.3096
  974MOL0     H34365   7.633   6.499   4.674  3.6842 -0.4167  3.9891
  974MOL0     H34366   7.701   6.323   4.523  0.7365  0.5472  0.3948
  974MOL0     H34367   7.545   6.245   4.523  1.2433 -0.4559  1.6126
  974MOL0     H34368   7.447   6.480   4.463 -1.5914 -0.8272 -1.7708
  974MOL0     H34369   7.604   6.518   4.410 -0.2140  0.0002  3.0693
  974MOL0     H34370   7.760   6.333   4.295  1.0567  0.0503  0.8102
  974MOL0     H34371   7.942   6.125   4.093 -1.5502 -1.7281 -0.7602
  974MOL0     H34372   7.949   6.050   4.259 -1.9315  2.0288  5.3230
  974MOL0     H34373   7.935   6.223   4.241  0.1679 -0.5627  0.4869
  974MOL0     H34374   7.481   5.635   3.964  0.8149 -0.2364 -1.2248
  974MOL0     H34375   7.508   5.399   3.918  1.3808 -2.8784 -0.2211
  974MOL0     H34376   7.629   5.209   4.132 -0.6886  1.3877 -0.8484
  974MOL0     H34377   7.597   5.109   3.991 -1.1617  2.0658  1.0084
  974MOL0     H34378   7.808   4.986   4.022  1.4268  1.1643  0.8300
  974MOL0     H34379   7.837   5.103   4.157 -1.9292  3.6235  0.0239
  974MOL0     H34380   7.607   4.906   4.137  0.5292 -1.2214 -1.1939
  974MOL0     H34381   7.647   5.007   4.284  0.3323 -0.5692  0.0845
  974MOL0     H34382   7.846   4.842   4.304  0.2488 -0.0868 -1.1626
  974MOL0     H34383   7.775   4.757   4.162 -1.6829 -3.1164  1.2803
  974MOL0     H34384   7.622   4.793   4.415  1.5539  0.9841 -0.7357
  974MOL0     H34385   7.557   4.732   4.264 -1.5277  0.2181  0.0247
  974MOL0     H34386   7.772   4.606   4.436  0.3020 -0.6897  0.1682
  974MOL0     H34387   7.713   4.544   4.283 -0.1685  2.4167 -1.6063
  974MOL0     H34388   7.485   4.522   4.365 -1.8549  3.8674  1.2953
  974MOL0     H34389   7.528   4.579   4.532 -2.8227 -1.7398 -0.6020
  974MOL0     H34390   7.599   4.302   4.406 -0.0350  0.0084 -0.4264
  974MOL0     H34391   7.521   4.359   4.552  1.3244 -0.7204 -0.5034
  974MOL0     H34392   7.897   5.404   4.102  0.7714  0.3246  0.1739
  974MOL0     H34393   7.848   5.642   4.176 -1.5918  2.9629  0.4259
  974MOL0     H34394   7.487   5.970   4.088 -0.1536 -0.1096 -0.0921
  974MOL0     H34395   7.383   6.186   4.145  0.6841 -0.8407 -2.0653
  974MOL0     H34396   8.855   5.702   4.735 -2.4785 -3.1202 -2.6243
  974MOL0     H34397   8.971   5.518   4.881  0.7268 -0.5269  1.0575
  974MOL0     H34398   9.239   5.344   5.092 -0.7232 -0.4143 -1.0947
  974MOL0     H34399   9.346   5.135   5.149 -0.2614 -0.4496  0.3274
  974MOL0     H34400   9.249   5.006   5.497 -1.6725  1.8596 -3.3337
  974MOL0     H34401   9.317   4.836   5.473  1.5058 -0.2860 -0.9787
  974MOL0     H34402   9.468   5.086   5.386  0.5476 -0.3072 -1.1771
  974MOL0     H34403   9.503   4.915   5.357  2.5031  1.7155  0.3516
  974MOL0     H34404   9.616   5.051   5.556 -0.5036  0.3463 -0.4689
  974MOL0     H34405   9.463   5.036   5.635  2.3706  2.0861  0.3515
  974MOL0     H34406   9.513   4.777   5.562 -3.0882  1.1438  1.0484
  974MOL0     H34407   9.594   4.849   5.711 -0.0068  0.2089 -0.9609
  974MOL0     H34408   9.895   4.792   5.384 -0.1264  1.0932 -0.2109
  974MOL0     H34409   9.007   5.029   5.387 -2.3993  1.7058  0.3605
  974MOL0     H34410   8.770   5.204   5.285  1.7892  1.0428 -2.3738
  974MOL0     H34411   8.850   5.170   5.444 -1.8692 -0.0318 -0.3745
  974MOL0     H34412   8.847   5.341   5.375  0.0054  0.5492 -0.6272
  975MOL0     O34413   9.195   0.136   7.989 -0.4703  0.0476 -0.3363
  975MOL0     C34414   9.249   0.214   7.914 -0.8971  0.7209  0.6272
  975MOL0     O34415   9.342   0.307   7.947 -0.6665  0.6577  0.0397
  975MOL0     C34416   9.376   0.334   8.079 -0.2920 -1.1039  0.0586
  975MOL0     C34417   9.288   0.322   8.192 -0.3410  0.2815  1.0510
  975MOL0     C34418   9.325   0.370   8.313  0.0514 -0.1682 -0.2260
  975MOL0     C34419   9.448   0.433   8.337 -0.2249 -0.3998  0.5837
  975MOL0     O34420   9.475   0.500   8.460 -0.5462  0.6898  0.4643
  975MOL0     C34421   9.402   0.469   8.581 -0.2344 -0.0394  0.2775
  975MOL0     C34422   9.447   0.562   8.696 -0.6775 -0.7031 -1.0498
  975MOL0     C34423   9.407   0.706   8.679 -0.5639  0.1547 -0.1392
  975MOL0     C34424   9.309   0.766   8.780  0.2882 -0.0297  0.4553
  975MOL0     C34425   9.271   0.909   8.765  0.4087  0.4467 -0.0432
  975MOL0     C34426   9.205   0.946   8.635  0.1212 -0.4098  1.4430
  975MOL0     C34427   9.157   1.097   8.632  0.8064 -0.4624  0.6282
  975MOL0     C34428   9.015   1.116   8.689 -0.2468 -0.0257  0.7245
  975MOL0     N34429   8.989   1.257   8.734  0.2325  0.2406  1.0871
  975MOL0     C34430   8.865   1.308   8.750 -0.7105  0.7396  0.5654
  975MOL0     C34431   8.876   1.438   8.784  0.7953 -0.3984  0.7067
  975MOL0     C34432   8.755   1.522   8.802 -0.5248  0.3250  1.0565
  975MOL0     C34433   8.768   1.589   8.936 -0.0869  1.3204 -0.1386
  975MOL0     C34434   8.642   1.653   8.998 -1.2558  0.6580  0.5325
  975MOL0     C34435   8.525   1.559   9.030  0.2635 -0.0223  0.4598
  975MOL0     O34436   8.571   1.456   9.115 -0.2606 -1.0095  0.2974
  975MOL0     C34437   8.566   1.479   9.246  0.2832  0.6579  0.3120
  975MOL0     C34438   8.557   1.599   9.320  0.5922 -0.0380  0.3604
  975MOL0     C34439   8.573   1.600   9.456  0.4792 -0.3775 -0.1659
  975MOL0     C34440   8.567   1.733   9.521 -0.5312 -0.7129  0.7178
  975MOL0     C34441   8.595   1.477   9.521  0.3039 -0.0987 -0.4107
  975MOL0     C34442   8.627   1.466   9.663 -0.3286 -0.2817 -0.1026
  975MOL0     O34443   8.561   1.366   9.736  0.0248 -0.2636  0.1063
  975MOL0     C34444   8.604   1.336   9.864 -0.4974 -0.4558  0.0645
  975MOL0     C34445   8.743   1.335   9.905 -0.2098 -0.2340  0.4707
  975MOL0     C34446   8.776   1.302  10.037 -0.1177  0.4549 -0.8985
  975MOL0     C34447   8.677   1.270  10.128 -0.1260  0.4965 -0.2216
  975MOL0     O34448   8.710   1.233  10.259 -0.4941  0.1011 -0.6196
  975MOL0     C34449   8.651   1.096  10.291 -0.4498  0.5102  0.0976
  975MOL0     C34450   8.743   1.008  10.370  0.2002  0.2411 -0.2025
  975MOL0     C34451   8.765   1.066  10.515 -0.6606 -0.3026  0.5752
  975MOL0     C34452   8.912   1.129  10.524 -0.4078  0.6711  0.0750
  975MOL0     C34453   8.939   1.140  10.678 -0.1167  0.1057  0.1829
  975MOL0     C34454   9.087   1.184  10.714  0.3323 -0.0586 -0.8066
  975MOL0     C34455   9.134   1.330  10.676 -0.2556  0.4222 -1.1929
  975MOL0     C34456   9.248   1.387  10.760  0.3502 -0.5317  0.4787
  975MOL0    Cl34457   9.198   1.433  10.922 -0.3940  0.4006 -0.2391
  975MOL0     C34458   8.548   1.275  10.089  1.2870  0.2485 -0.1320
  975MOL0     C34459   8.506   1.302   9.959  0.1986 -0.1778  0.0719
  975MOL0     O34460   8.722   1.541   9.704 -0.4859  0.1952 -0.2316
  975MOL0     C34461   8.573   1.354   9.454  1.0810 -0.5683  0.2395
  975MOL0     C34462   8.568   1.352   9.313 -0.2806  0.0876 -0.5800
  975MOL0     N34463   9.015   1.456   8.800  0.4206 -0.3553  0.3511
  975MOL0     N34464   9.082   1.351   8.774  1.1130 -0.6850  0.8806
  975MOL0     C34465   9.539   0.448   8.224  0.9091 -0.4437 -0.6072
  975MOL0     C34466   9.499   0.404   8.102  0.5130  0.3068  0.0034
  975MOL0     C34467   9.247   0.167   7.768 -0.8678 -0.4667 -0.4784
  975MOL0     C34468   9.303   0.251   7.672  0.6839 -0.9830 -0.0769
  975MOL0     C34469   9.313   0.217   7.533 -1.3491 -0.0622  0.4966
  975MOL0     C34470   9.285   0.088   7.489  0.3098 -0.4903  0.3075
  975MOL0     O34471   9.313   0.048   7.359 -0.5116  0.2200  0.1391
  975MOL0     C34472   9.206   0.036   7.266  0.7628 -0.1179 -0.3655
  975MOL0     C34473   9.190  -0.104   7.214 -0.1750  0.5361  0.2065
  975MOL0     C34474   9.292  -0.152   7.104  0.3126 -0.0490 -0.2811
  975MOL0     C34475   9.325  -0.043   7.000 -0.6623  0.1368 -0.5560
  975MOL0     C34476   9.206   0.004   6.927 -0.5172 -0.2650 -0.0100
  975MOL0     C34477   9.111   0.057   6.881  0.5182  0.8203  0.0700
  975MOL0     C34478   9.217   0.009   7.580  0.3582  0.4649 -0.8852
  975MOL0     C34479   9.200   0.044   7.715 -0.5524  0.0365 -0.2279
  975MOL0     C34480   9.150  -0.063   7.801  0.1103  0.4958 -1.0850
  975MOL0     H34481   9.191   0.273   8.197 -0.2802  0.0244 -0.0585
  975MOL0     H34482   9.247   0.361   8.388 -1.2020 -1.8322 -1.6698
  975MOL0     H34483   9.432   0.369   8.614 -2.8906 -0.1091  2.9057
  975MOL0     H34484   9.293   0.462   8.586 -0.9485  4.2863 -3.3143
  975MOL0     H34485   9.383   0.535   8.780 -1.3460  0.5804 -1.1231
  975MOL0     H34486   9.552   0.558   8.724 -1.2173  0.2689  1.2870
  975MOL0     H34487   9.495   0.772   8.684 -1.1213  0.8355  3.0116
  975MOL0     H34488   9.369   0.713   8.577  0.7754  0.8349 -0.6223
  975MOL0     H34489   9.220   0.703   8.774  0.1240  0.2678 -5.1774
  975MOL0     H34490   9.356   0.761   8.879 -3.7055 -0.0480  2.5725
  975MOL0     H34491   9.359   0.972   8.782 -1.4933  2.5047  3.7113
  975MOL0     H34492   9.200   0.930   8.846  0.1949 -2.0948  0.5175
  975MOL0     H34493   9.276   0.939   8.552 -0.8724 -1.1836  0.6355
  975MOL0     H34494   9.115   0.886   8.619 -1.6285  2.4052 -0.0076
  975MOL0     H34495   9.161   1.123   8.526 -2.7865 -1.1692  0.1932
  975MOL0     H34496   9.227   1.162   8.685  0.5150  1.3264 -1.0780
  975MOL0     H34497   8.941   1.084   8.615  0.1573  3.0050 -1.1982
  975MOL0     H34498   8.995   1.051   8.775 -2.4062 -0.2229  0.1229
  975MOL0     H34499   8.770   1.259   8.732 -1.2040  1.1607  1.8897
  975MOL0     H34500   8.665   1.459   8.802 -0.1125 -0.3280 -0.9668
  975MOL0     H34501   8.749   1.592   8.718 -0.4635 -2.6614 -1.6145
  975MOL0     H34502   8.806   1.513   9.004 -2.5291  1.8568  1.9989
  975MOL0     H34503   8.848   1.663   8.932  1.7734 -0.2793  3.1177
  975MOL0     H34504   8.664   1.708   9.090  1.5740  0.7510 -0.1190
  975MOL0     H34505   8.596   1.724   8.928  0.4299  0.9645 -0.3129
  975MOL0     H34506   8.443   1.617   9.074 -0.2198 -0.0295 -0.4067
  975MOL0     H34507   8.484   1.533   8.932 -0.0538  1.9201  0.0326
  975MOL0     H34508   8.554   1.692   9.264  0.3096  0.0288  0.4811
  975MOL0     H34509   8.532   1.815   9.457  1.6029 -1.3270 -1.4029
  975MOL0     H34510   8.670   1.762   9.541 -0.0713  0.2623 -2.4459
  975MOL0     H34511   8.509   1.729   9.614 -2.0145  0.2603 -0.1182
  975MOL0     H34512   8.823   1.342   9.831 -3.0056 -0.8362 -2.8888
  975MOL0     H34513   8.880   1.313  10.065  0.3752 -1.6569 -1.7231
  975MOL0     H34514   8.553   1.115  10.337 -0.8078  1.5012 -1.0006
  975MOL0     H34515   8.640   1.039  10.199  1.6251  0.7153 -0.3177
  975MOL0     H34516   8.702   0.908  10.384  2.0256 -0.6051 -0.6537
  975MOL0     H34517   8.835   0.995  10.312 -1.5053  0.6109 -3.1831
  975MOL0     H34518   8.763   0.984  10.588 -1.4017 -0.4709  0.3709
  975MOL0     H34519   8.698   1.152  10.527  0.5128  0.8639 -0.9221
  975MOL0     H34520   8.937   1.215  10.461 -0.4768 -0.8169 -2.0629
  975MOL0     H34521   8.979   1.051  10.487  2.0190  1.0519  3.2213
  975MOL0     H34522   8.861   1.200  10.727  0.7173  1.3369  0.0446
  975MOL0     H34523   8.916   1.045  10.727 -3.7599  0.7716  0.0498
  975MOL0     H34524   9.156   1.115  10.664  0.1977  0.9288 -2.3964
  975MOL0     H34525   9.103   1.175  10.822 -1.1839 -0.2771 -0.5875
  975MOL0     H34526   9.051   1.398  10.696  1.3982  2.7473 -1.8305
  975MOL0     H34527   9.145   1.337  10.567 -3.0394 -0.2666 -1.5885
  975MOL0     H34528   9.280   1.480  10.713 -1.6166  0.0799  0.2602
  975MOL0     H34529   9.322   1.306  10.755  0.4229 -0.4353 -0.1981
  975MOL0     H34530   8.469   1.247  10.158  0.4049  1.2344 -0.7038
  975MOL0     H34531   8.401   1.305   9.934  0.3601 -2.6136 -1.1885
  975MOL0     H34532   8.587   1.265   9.513 -1.6694  0.4966  2.7870
  975MOL0     H34533   8.575   1.261   9.255 -0.5552 -0.2555 -0.0780
  975MOL0     H34534   9.633   0.500   8.238  3.2666 -3.6643 -3.1138
  975MOL0     H34535   9.572   0.394   8.022  3.1994 -1.5018  2.4754
  975MOL0     H34536   9.327   0.351   7.707 -0.7009 -0.5437 -0.3641
  975MOL0     H34537   9.343   0.298   7.466 -0.0952  1.0842  2.3586
  975MOL0     H34538   9.108   0.054   7.312  1.2596  2.6970 -0.2390
  975MOL0     H34539   9.222   0.105   7.183 -2.1593  0.4065 -0.5942
  975MOL0     H34540   9.089  -0.115   7.175 -0.4198  1.7285  0.4438
  975MOL0     H34541   9.199  -0.173   7.299 -1.8282 -1.8008 -1.4148
  975MOL0     H34542   9.383  -0.168   7.162 -1.2101 -0.0211  2.3045
  975MOL0     H34543   9.252  -0.241   7.055 -2.1280 -0.9301  2.9486
  975MOL0     H34544   9.399  -0.071   6.925 -2.2523 -0.2441 -2.0529
  975MOL0     H34545   9.370   0.045   7.048 -1.7032  1.0594 -1.1978
  975MOL0     H34546   9.028   0.092   6.823 -0.5301 -1.7992 -0.1467
  975MOL0     H34547   9.180  -0.086   7.543 -1.3058  1.5773 -2.2313
  975MOL0     H34548   9.063  -0.030   7.858  1.3550 -2.3928  2.9539
  975MOL0     H34549   9.131  -0.154   7.743  4.0517 -1.3240  0.1470
  975MOL0     H34550   9.220  -0.092   7.880  0.3739 -0.6561 -1.7258
  976MOL0     O34551   8.766   6.837  11.281  0.2250 -0.8436  0.3863
  976MOL0     C34552   8.808   6.729  11.324  0.4102  0.7157  0.3060
  976MOL0     O34553   8.790   6.609  11.259  0.2043  0.5569 -1.0545
  976MOL0     C34554   8.735   6.617  11.136 -1.1862 -0.7268  0.7086
  976MOL0     C34555   8.820   6.588  11.030  0.2256  0.2397  0.1013
  976MOL0     C34556   8.753   6.588  10.904  0.2802 -0.7001  0.6721
  976MOL0     C34557   8.617   6.609  10.893  0.4497 -0.5991 -0.4254
  976MOL0     O34558   8.548   6.598  10.773  0.1646  0.5108  0.0764
  976MOL0     C34559   8.587   6.501  10.680 -0.1538 -0.2707  0.5813
  976MOL0     C34560   8.508   6.511  10.546 -0.1910 -1.3141 -1.2609
  976MOL0     C34561   8.571   6.443  10.434  0.5778 -0.2522 -0.4143
  976MOL0     C34562   8.479   6.446  10.318 -0.5124 -1.7514  0.6047
  976MOL0     C34563   8.544   6.386  10.188  0.3363  0.3099 -0.1245
  976MOL0     C34564   8.640   6.483  10.105  0.5976 -0.6106  0.3693
  976MOL0     C34565   8.562   6.606  10.044 -0.4213  0.1102  0.9079
  976MOL0     C34566   8.631   6.671   9.928 -0.9490 -0.6556  0.1171
  976MOL0     N34567   8.773   6.706   9.962  0.5123 -0.0450  0.6820
  976MOL0     C34568   8.813   6.832   9.989 -0.2322 -0.7989 -0.0943
  976MOL0     C34569   8.951   6.825   9.987  0.5482  0.6348  0.2237
  976MOL0     C34570   9.050   6.937  10.002 -0.0251  0.3409  0.0875
  976MOL0     C34571   9.123   6.990   9.880 -0.3518 -1.0478 -0.6223
  976MOL0     C34572   9.232   6.891   9.827 -0.5914 -0.3655 -0.2160
  976MOL0     C34573   9.352   6.943   9.743  0.1506 -0.1544  0.3229
  976MOL0     O34574   9.416   7.024   9.831  0.1629 -1.1674 -0.1085
  976MOL0     C34575   9.547   7.052   9.799  0.2289  0.5251 -0.1515
  976MOL0     C34576   9.585   7.087   9.667  0.1966 -1.4197  0.2688
  976MOL0     C34577   9.718   7.121   9.632  1.0705 -1.1980  0.2202
  976MOL0     C34578   9.748   7.158   9.491 -0.9033 -0.6684  0.0581
  976MOL0     C34579   9.817   7.117   9.734  0.7952 -0.0964  0.6567
  976MOL0     C34580   9.965   7.150   9.713 -0.0380 -0.0586  0.1155
  976MOL0     O34581  10.058   7.101   9.790  0.1896  0.3514  0.5561
  976MOL0     C34582  10.174   7.168   9.788  0.0790 -0.8113 -0.5280
  976MOL0     C34583  10.203   7.257   9.894  0.2552  0.0705 -0.5685
  976MOL0     C34584  10.321   7.319   9.903 -0.0674  0.4435  0.5663
  976MOL0     C34585  10.415   7.303   9.799  0.4076 -0.3020 -0.1091
  976MOL0     O34586  10.546   7.350   9.804  0.1263  0.0993 -0.2184
  976MOL0     C34587  10.588   7.431   9.920  0.6326  0.8004  0.3626
  976MOL0     C34588  10.731   7.474   9.901 -0.6476 -1.1477  0.3061
  976MOL0     C34589  10.818   7.349   9.900 -0.3639 -0.7505  0.0219
  976MOL0     C34590  10.949   7.386   9.969  0.4779 -0.1544 -0.0845
  976MOL0     C34591  11.051   7.268   9.975 -0.1599 -0.2101  0.3825
  976MOL0     C34592  11.100   7.217   9.841  1.2255  0.5087 -0.2644
  976MOL0     C34593  11.193   7.309   9.764  0.1526 -0.4907 -0.4352
  976MOL0     C34594  11.331   7.348   9.826 -0.1294 -0.3634  0.6153
  976MOL0    Cl34595  11.416   7.194   9.866 -0.1242 -0.7842 -0.3501
  976MOL0     C34596  10.389   7.203   9.709 -0.3969 -1.0239  0.6150
  976MOL0     C34597  10.268   7.139   9.699  0.2393  0.6152  0.0473
  976MOL0     O34598   9.985   7.226   9.615 -0.4030 -0.4538 -0.4279
  976MOL0     C34599   9.776   7.082   9.862 -0.1047 -0.3417 -0.4351
  976MOL0     C34600   9.644   7.045   9.897 -0.1064 -0.2877  0.1009
  976MOL0     N34601   8.985   6.690   9.949  0.1292 -0.2996 -0.4749
  976MOL0     N34602   8.882   6.627   9.933  0.2512 -0.2272 -0.4194
  976MOL0     C34603   8.544   6.662  11.001  1.1139  0.1498 -0.5271
  976MOL0     C34604   8.600   6.648  11.121 -0.1569 -0.4636 -0.1497
  976MOL0     C34605   8.881   6.712  11.464  0.1768  0.5161  0.5181
  976MOL0     C34606   8.926   6.584  11.498  0.6382  0.6714  0.3564
  976MOL0     C34607   8.984   6.557  11.625 -0.1815  0.8353 -0.6252
  976MOL0     C34608   8.990   6.656  11.723  0.2966  0.7333  0.2040
  976MOL0     O34609   9.031   6.634  11.852 -0.5579 -0.2327 -0.0659
  976MOL0     C34610   9.180   6.632  11.881  0.0469  0.3040 -0.5944
  976MOL0     C34611   9.232   6.754  11.962 -0.1913  0.7639 -0.6841
  976MOL0     C34612   9.150   6.793  12.083 -0.5373  0.1102 -0.9577
  976MOL0     C34613   9.029   6.873  12.045 -0.3639 -0.0892  0.5167
  976MOL0     C34614   8.971   6.942  12.158 -0.0423  1.0941 -0.7649
  976MOL0     C34615   8.925   7.008  12.248  0.1880 -0.0635 -0.2190
  976MOL0     C34616   8.959   6.787  11.685  0.6743  1.0909  0.6725
  976MOL0     C34617   8.902   6.817  11.557  0.0919  0.0458 -0.0203
  976MOL0     C34618   8.889   6.961  11.523 -0.3154 -0.1426 -1.1237
  976MOL0     H34619   8.924   6.555  11.025  0.8660  2.3528 -2.0088
  976MOL0     H34620   8.811   6.555  10.818  1.0865  0.0797  0.9080
  976MOL0     H34621   8.576   6.396  10.710 -0.7086 -1.0987 -2.2373
  976MOL0     H34622   8.692   6.522  10.657 -0.4680  1.5982  0.7632
  976MOL0     H34623   8.407   6.475  10.565 -0.3274 -0.5627 -0.4392
  976MOL0     H34624   8.496   6.619  10.533  2.4820 -0.4441  1.8843
  976MOL0     H34625   8.660   6.498  10.402  1.6774 -1.3195  0.6994
  976MOL0     H34626   8.595   6.338  10.455 -0.5979 -0.2337  1.1134
  976MOL0     H34627   8.392   6.387  10.349 -0.7941 -1.4192  0.4532
  976MOL0     H34628   8.448   6.544  10.280  2.1208 -2.3760 -3.8812
  976MOL0     H34629   8.456   6.353  10.133  0.2249 -2.3889  1.4741
  976MOL0     H34630   8.590   6.293  10.223  0.1403  1.0525  2.2766
  976MOL0     H34631   8.721   6.522  10.166  0.4285 -2.3552  1.8045
  976MOL0     H34632   8.688   6.417  10.032 -0.8896 -2.9963  1.4059
  976MOL0     H34633   8.531   6.688  10.109  1.2781  3.0381 -1.7085
  976MOL0     H34634   8.467   6.571  10.000 -0.8674  3.9419 -1.6719
  976MOL0     H34635   8.623   6.613   9.835  1.8004  2.6856 -2.4937
  976MOL0     H34636   8.566   6.755   9.899  1.3926  0.9513 -0.7480
  976MOL0     H34637   8.749   6.917  10.012  1.0599  0.4621 -0.9552
  976MOL0     H34638   9.130   6.900  10.067 -0.8473 -1.5750  0.0670
  976MOL0     H34639   8.996   7.024  10.042 -0.0006  1.3016 -1.8545
  976MOL0     H34640   9.041   7.011   9.810 -0.8521  4.8375  1.1408
  976MOL0     H34641   9.167   7.088   9.901 -0.4165 -0.6656 -2.1374
  976MOL0     H34642   9.279   6.843   9.913 -0.4300  0.6460  0.2689
  976MOL0     H34643   9.175   6.824   9.761 -1.4129  2.1991 -2.3120
  976MOL0     H34644   9.422   6.861   9.724  3.6233  2.1706  1.9544
  976MOL0     H34645   9.315   6.992   9.652 -0.9380  0.2893  0.9892
  976MOL0     H34646   9.510   7.092   9.589  1.8566 -1.0622 -1.3878
  976MOL0     H34647   9.836   7.099   9.465  0.6818  1.2367  0.8242
  976MOL0     H34648   9.774   7.264   9.483  4.1069 -1.6143  0.4874
  976MOL0     H34649   9.663   7.133   9.427  0.0188  0.9746 -1.9360
  976MOL0     H34650  10.128   7.288   9.967  0.3305  0.0275 -0.4733
  976MOL0     H34651  10.349   7.385   9.984  1.0096  2.4122 -1.3163
  976MOL0     H34652  10.523   7.514   9.947 -0.6769 -0.1504  0.2192
  976MOL0     H34653  10.591   7.360  10.003 -2.2827 -1.3019 -1.1624
  976MOL0     H34654  10.741   7.538   9.813 -0.6569 -2.8371 -0.9532
  976MOL0     H34655  10.748   7.540   9.987 -0.4319 -0.0663 -0.5372
  976MOL0     H34656  10.833   7.320   9.796  0.4996  1.7044 -0.5998
  976MOL0     H34657  10.766   7.268   9.953 -0.4170 -0.4687  0.4049
  976MOL0     H34658  10.939   7.433  10.067  1.0694  1.1909 -0.6439
  976MOL0     H34659  10.993   7.470   9.914  0.1493  0.4417  0.5464
  976MOL0     H34660  11.142   7.289  10.033 -1.7682 -2.1799  3.9753
  976MOL0     H34661  10.993   7.188  10.023 -3.0645  1.2170 -0.5224
  976MOL0     H34662  11.016   7.181   9.782 -0.0023  2.0930  0.4539
  976MOL0     H34663  11.165   7.129   9.846  2.7781  1.5098 -1.5454
  976MOL0     H34664  11.135   7.401   9.758 -3.9513 -2.8364 -0.5772
  976MOL0     H34665  11.208   7.276   9.660  0.7914  2.8398 -1.5040
  976MOL0     H34666  11.316   7.402   9.920  0.2882 -3.3871  2.5664
  976MOL0     H34667  11.392   7.417   9.768 -2.3183  0.8099 -0.3992
  976MOL0     H34668  10.464   7.161   9.643 -2.3153 -3.5376 -0.1354
  976MOL0     H34669  10.259   7.059   9.626  3.4423  0.8973 -0.7986
  976MOL0     H34670   9.849   7.081   9.942  1.5751 -0.8900 -1.9110
  976MOL0     H34671   9.610   7.007   9.992 -0.3126  0.2285  0.2348
  976MOL0     H34672   8.439   6.691  10.995  1.5706  1.6476 -3.4894
  976MOL0     H34673   8.554   6.681  11.214  2.3880  0.3350  0.9080
  976MOL0     H34674   8.912   6.496  11.437 -1.7524  3.3822 -3.4838
  976MOL0     H34675   9.015   6.456  11.650 -0.9471  0.0731 -2.5701
  976MOL0     H34676   9.194   6.545  11.946  1.3063  0.6568 -0.3574
  976MOL0     H34677   9.246   6.627  11.794  1.4519  0.2280  0.4451
  976MOL0     H34678   9.248   6.843  11.900  1.1691  0.8894 -0.1899
  976MOL0     H34679   9.326   6.722  12.006  0.1009  2.9963  0.4502
  976MOL0     H34680   9.119   6.702  12.134 -4.0916  1.3981 -0.4718
  976MOL0     H34681   9.211   6.853  12.151 -4.1060 -0.5990  3.3639
  976MOL0     H34682   8.957   6.796  12.014  1.0120 -2.4427  2.7488
  976MOL0     H34683   9.052   6.948  11.969  4.3772 -1.3005  0.4873
  976MOL0     H34684   8.875   7.078  12.311 -0.4122  2.4627 -3.2661
  976MOL0     H34685   8.981   6.879  11.737  0.4540  0.0484  2.7097
  976MOL0     H34686   8.889   6.978  11.415 -2.6162 -2.1104 -1.5286
  976MOL0     H34687   8.793   7.004  11.552 -0.8464 -0.0658 -2.9162
  976MOL0     H34688   8.976   7.015  11.562 -1.3445  2.0357 -1.7134
  977MOL0     O34689   1.756   9.467   5.139 -0.8409  0.1098 -0.3901
  977MOL0     C34690   1.704   9.577   5.114  0.5672 -0.6063  0.6600
  977MOL0     O34691   1.668   9.608   4.980  0.2024  0.4086 -0.8063
  977MOL0     C34692   1.759   9.594   4.876  0.1320 -0.4138 -1.0816
  977MOL0     C34693   1.900   9.575   4.897  0.8346 -1.1422 -1.2052
  977MOL0     C34694   1.980   9.547   4.788  1.0167 -0.3783  0.3166
  977MOL0     C34695   1.929   9.552   4.659 -0.9292  1.0823 -0.4503
  977MOL0     O34696   2.016   9.532   4.556 -0.7201  0.0696  0.2677
  977MOL0     C34697   1.978   9.544   4.420  0.4880  0.7601 -1.1150
  977MOL0     C34698   1.955   9.684   4.375  0.1240  0.2184 -0.5023
  977MOL0     C34699   2.023   9.791   4.458 -0.9341  0.0312 -0.1745
  977MOL0     C34700   2.060   9.906   4.363  0.2805 -0.2147 -0.3130
  977MOL0     C34701   2.127  10.030   4.421 -0.0609  0.0372 -0.4056
  977MOL0     C34702   2.042  10.105   4.515 -0.3124 -0.3598 -0.5372
  977MOL0     C34703   2.088  10.247   4.532 -0.8448  0.7064  0.0438
  977MOL0     C34704   2.029  10.312   4.655  0.4778  0.6030  0.1850
  977MOL0     N34705   1.891  10.345   4.630  0.1857 -0.3129  1.4817
  977MOL0     C34706   1.848  10.447   4.544  0.8544 -0.0057 -0.6857
  977MOL0     C34707   1.712  10.444   4.548 -0.1771 -0.4409  0.0361
  977MOL0     C34708   1.632  10.538   4.464  0.6117  0.0079  0.0683
  977MOL0     C34709   1.538  10.456   4.366  0.6289  0.2393 -0.5010
  977MOL0     C34710   1.620  10.376   4.260 -0.5718 -0.3479  1.6728
  977MOL0     C34711   1.603  10.414   4.112  0.5487 -0.9878 -0.5315
  977MOL0     O34712   1.462  10.420   4.083  0.5196 -0.5846  0.3038
  977MOL0     C34713   1.415  10.522   3.997  0.5050 -0.0205 -0.3972
  977MOL0     C34714   1.420  10.663   4.021  0.2814 -0.1296 -0.9216
  977MOL0     C34715   1.363  10.764   3.936  0.6105  0.0512  0.3187
  977MOL0     C34716   1.361  10.909   3.986 -0.1908  0.0864  0.8882
  977MOL0     C34717   1.305  10.721   3.813 -0.3964 -0.6832 -0.3588
  977MOL0     C34718   1.250  10.816   3.707 -0.2863  0.5731  0.1440
  977MOL0     O34719   1.152  10.918   3.732 -0.6162  0.3444  0.3415
  977MOL0     C34720   1.118  11.013   3.649 -0.1350 -0.3110  0.1478
  977MOL0     C34721   1.184  11.133   3.642  0.2790 -0.9312  0.1286
  977MOL0     C34722   1.140  11.231   3.545  0.4737 -0.0049 -0.1511
  977MOL0     C34723   1.032  11.207   3.468 -0.7034 -0.2411  0.4310
  977MOL0     O34724   0.980  11.295   3.371 -0.8719 -0.4242 -0.1480
  977MOL0     C34725   1.009  11.431   3.388  0.0746  1.4666  0.0404
  977MOL0     C34726   0.949  11.513   3.279 -0.0147  0.1081 -0.8818
  977MOL0     C34727   0.982  11.454   3.144 -0.3222 -0.1811  0.9366
  977MOL0     C34728   0.924  11.561   3.034  0.2436 -0.7556  0.0070
  977MOL0     C34729   1.022  11.681   3.013  0.2484  1.3464  1.2695
  977MOL0     C34730   0.972  11.767   2.895 -0.1694  0.8872 -0.2403
  977MOL0     C34731   1.075  11.875   2.861 -0.4540  0.4858  0.4506
  977MOL0     C34732   1.032  11.976   2.757  0.3358  0.1195 -0.6847
  977MOL0    Cl34733   0.979  11.914   2.609  0.2760  0.0619  0.1330
  977MOL0     C34734   0.963  11.080   3.482 -0.6928  0.1824  0.5449
  977MOL0     C34735   1.001  10.986   3.577 -0.0865  0.2060  0.5412
  977MOL0     O34736   1.284  10.784   3.598  0.2267  0.4097  1.0511
  977MOL0     C34737   1.298  10.587   3.789 -0.1716 -0.5313  0.2533
  977MOL0     C34738   1.349  10.492   3.881  0.1018  0.2307  0.5837
  977MOL0     N34739   1.675  10.342   4.626 -0.0155 -0.0354  0.1037
  977MOL0     N34740   1.780  10.279   4.669 -0.2259  0.2895 -0.1723
  977MOL0     C34741   1.793   9.560   4.637  0.5001  0.9307  0.1014
  977MOL0     C34742   1.706   9.589   4.746 -0.6636  0.5591  0.7710
  977MOL0     C34743   1.650   9.654   5.220  0.9563  0.2094 -0.6894
  977MOL0     C34744   1.543   9.744   5.194  0.2913 -0.5000 -0.2089
  977MOL0     C34745   1.502   9.838   5.289 -0.2499  0.1880  0.0846
  977MOL0     C34746   1.570   9.841   5.415  0.6375 -0.2428  0.2419
  977MOL0     O34747   1.523   9.934   5.500 -0.1698 -0.6651  0.4769
  977MOL0     C34748   1.580   9.947   5.627  0.0776  0.4767 -0.3261
  977MOL0     C34749   1.508   9.857   5.724  1.0439 -0.1221 -0.5135
  977MOL0     C34750   1.354   9.889   5.716  0.4801  0.5994 -0.3192
  977MOL0     C34751   1.284   9.859   5.846  0.3292  0.3619  0.1699
  977MOL0     C34752   1.293   9.963   5.949 -0.5967  0.1638  0.2745
  977MOL0     C34753   1.284  10.039   6.045  0.5150  0.7427 -0.3890
  977MOL0     C34754   1.659   9.747   5.445 -0.5604 -0.8002 -0.4513
  977MOL0     C34755   1.704   9.652   5.351  1.1252  0.5120 -0.2203
  977MOL0     C34756   1.816   9.563   5.401  0.3036  0.0755  0.2703
  977MOL0     H34757   1.937   9.574   4.999  0.6479 -3.8586 -1.0915
  977MOL0     H34758   2.084   9.532   4.814  2.1957  2.3715 -2.1979
  977MOL0     H34759   1.891   9.479   4.401 -0.4650  1.9424 -0.9149
  977MOL0     H34760   2.065   9.503   4.368 -0.4584 -2.6253 -0.2841
  977MOL0     H34761   1.991   9.685   4.271  0.2564 -1.9158 -0.5389
  977MOL0     H34762   1.847   9.699   4.379  0.2878  1.2573  0.1544
  977MOL0     H34763   1.977   9.832   4.549 -0.8377 -0.3325  0.0397
  977MOL0     H34764   2.119   9.749   4.489 -0.0230 -0.7958 -3.7307
  977MOL0     H34765   2.129   9.872   4.286 -1.1993  2.5310 -3.1059
  977MOL0     H34766   1.982   9.939   4.294  3.0506  1.0828 -3.0723
  977MOL0     H34767   2.164  10.100   4.346 -0.0531  1.9073  1.2768
  977MOL0     H34768   2.215   9.987   4.471  0.9336  0.0346 -2.0716
  977MOL0     H34769   1.942  10.111   4.472  0.3637  2.1961 -1.9464
  977MOL0     H34770   2.036  10.063   4.616 -0.6748  0.3020 -0.2774
  977MOL0     H34771   2.074  10.303   4.439  2.2637  0.2764 -0.8046
  977MOL0     H34772   2.196  10.236   4.546 -0.9740 -0.8483  0.0104
  977MOL0     H34773   2.042  10.242   4.737  0.1324  0.3756  0.0478
  977MOL0     H34774   2.099  10.395   4.667  1.3577 -0.1580  0.3499
  977MOL0     H34775   1.916  10.510   4.488  1.4673 -2.3199 -2.7418
  977MOL0     H34776   1.688  10.610   4.403  1.4354 -3.1854 -3.3344
  977MOL0     H34777   1.563  10.595   4.527  0.5671  1.4857 -1.2289
  977MOL0     H34778   1.476  10.379   4.413  0.0302  0.5366 -0.7944
  977MOL0     H34779   1.467  10.527   4.323  0.2581 -0.2833 -0.7599
  977MOL0     H34780   1.727  10.385   4.279 -0.5589 -0.2489  1.5604
  977MOL0     H34781   1.597  10.270   4.272 -0.7027 -0.5313  0.0869
  977MOL0     H34782   1.648  10.513   4.101  0.9006 -0.7331  2.3459
  977MOL0     H34783   1.653  10.335   4.056  0.8877  1.6726 -4.3369
  977MOL0     H34784   1.460  10.683   4.120 -1.0337  2.3430 -0.8062
  977MOL0     H34785   1.451  10.970   3.995 -0.7105  0.9309  0.5390
  977MOL0     H34786   1.310  10.916   4.082  0.2702  0.8142  1.0972
  977MOL0     H34787   1.307  10.972   3.914  0.4345 -1.4827 -1.0270
  977MOL0     H34788   1.281  11.155   3.687  1.5651 -1.2492 -2.3276
  977MOL0     H34789   1.194  11.325   3.551  0.4739 -0.1109  2.8747
  977MOL0     H34790   0.958  11.450   3.483  0.5110 -1.6429  1.0138
  977MOL0     H34791   1.112  11.464   3.403  0.2750  1.2719 -0.8321
  977MOL0     H34792   0.840  11.507   3.288  0.0326  0.9882  0.5523
  977MOL0     H34793   0.986  11.616   3.278  1.7051 -0.4550  0.5753
  977MOL0     H34794   0.931  11.357   3.134 -1.0888  0.3606 -0.8336
  977MOL0     H34795   1.089  11.445   3.126 -0.2699  0.2407  1.0405
  977MOL0     H34796   0.828  11.598   3.072  0.2795  1.1395 -1.5378
  977MOL0     H34797   0.908  11.524   2.932 -2.5274  0.5469 -0.1328
  977MOL0     H34798   1.033  11.749   3.098  0.7094 -0.9470  3.1348
  977MOL0     H34799   1.123  11.648   2.988 -0.2614  1.2052 -0.8092
  977MOL0     H34800   0.873  11.812   2.906 -0.5168  0.3174 -0.9298
  977MOL0     H34801   0.958  11.701   2.809 -2.3485  2.6697 -1.3444
  977MOL0     H34802   1.169  11.828   2.829 -0.2207  2.3164 -1.7913
  977MOL0     H34803   1.080  11.935   2.952 -1.5816  0.2055  0.7176
  977MOL0     H34804   1.110  12.045   2.723 -1.3457  0.4191 -4.4905
  977MOL0     H34805   0.951  12.042   2.791 -0.3506 -0.3314 -1.4034
  977MOL0     H34806   0.887  11.053   3.409  0.0175 -0.7550  0.1280
  977MOL0     H34807   0.951  10.890   3.572  0.9190 -0.4164  1.9492
  977MOL0     H34808   1.247  10.545   3.703 -2.9646 -1.4042  2.2052
  977MOL0     H34809   1.341  10.386   3.860  4.0426 -0.8208  3.1913
  977MOL0     H34810   1.755   9.580   4.538 -0.8828  1.7584  0.7820
  977MOL0     H34811   1.604   9.617   4.724 -0.1224  1.1563 -1.1485
  977MOL0     H34812   1.486   9.742   5.102  0.4032 -1.2404 -0.2687
  977MOL0     H34813   1.428   9.913   5.267  1.8353  3.5409  3.2115
  977MOL0     H34814   1.685   9.918   5.643 -0.7624 -1.0397  3.7204
  977MOL0     H34815   1.567  10.050   5.662 -2.2173  0.1057  0.0109
  977MOL0     H34816   1.547   9.877   5.824 -0.9426  2.5834 -0.1762
  977MOL0     H34817   1.521   9.750   5.701 -0.7686 -0.1054 -1.8245
  977MOL0     H34818   1.328   9.991   5.687  1.2114  0.3776 -1.8464
  977MOL0     H34819   1.304   9.821   5.646 -0.0724  2.4222 -1.7882
  977MOL0     H34820   1.312   9.765   5.895  0.8211  0.6918  0.5396
  977MOL0     H34821   1.178   9.852   5.824  0.5652  2.0246 -1.7592
  977MOL0     H34822   1.260  10.116   6.115 -2.5603  2.4573 -3.0831
  977MOL0     H34823   1.712   9.747   5.540 -1.2873 -0.9856 -0.0420
  977MOL0     H34824   1.818   9.562   5.510  1.0195 -1.7565  0.2780
  977MOL0     H34825   1.806   9.457   5.375 -0.1517  0.4681 -1.2894
  977MOL0     H34826   1.915   9.604   5.378  2.6164 -3.6358  2.4572
  978MOL0     O34827  10.555   4.971   8.718  0.5279 -0.6229  0.2250
  978MOL0     C34828  10.496   4.955   8.820  0.8780 -0.6280  0.3968
  978MOL0     O34829  10.520   4.857   8.915  0.2650  0.2337  0.7032
  978MOL0     C34830  10.615   4.763   8.879 -0.8781 -1.0556 -0.0043
  978MOL0     C34831  10.582   4.673   8.785 -0.5718 -0.4020  0.5591
  978MOL0     C34832  10.674   4.588   8.727  0.1078 -0.4852  0.3416
  978MOL0     C34833  10.818   4.596   8.757  0.3528  0.0435 -0.8360
  978MOL0     O34834  10.921   4.513   8.714 -0.0794  0.2583  0.2943
  978MOL0     C34835  10.906   4.431   8.595  0.1889  0.1476  1.3724
  978MOL0     C34836  11.007   4.322   8.597  0.0144 -0.1833  0.3557
  978MOL0     C34837  10.980   4.203   8.503 -1.5679 -0.2505  0.8628
  978MOL0     C34838  11.046   4.239   8.365  0.1837 -0.4643  0.3070
  978MOL0     C34839  11.200   4.198   8.365  0.0629 -0.4726  0.1289
  978MOL0     C34840  11.259   4.202   8.221  0.4940  0.0168 -0.2578
  978MOL0     C34841  11.236   4.083   8.128 -1.4877  0.2272 -0.5564
  978MOL0     C34842  11.260   4.127   7.982 -0.1467 -0.4641  0.3494
  978MOL0     N34843  11.157   4.196   7.914  0.6285  0.3034  0.0341
  978MOL0     C34844  11.051   4.131   7.858 -0.2813  0.0857  0.9049
  978MOL0     C34845  10.996   4.225   7.776 -0.0151 -0.4577  0.6257
  978MOL0     C34846  10.891   4.215   7.674 -0.1982 -0.1654  0.1266
  978MOL0     C34847  10.741   4.225   7.723  0.6197 -0.4742  1.0106
  978MOL0     C34848  10.680   4.087   7.755  0.9650 -0.0609 -0.2104
  978MOL0     C34849  10.688   3.975   7.646  0.1867  0.3304 -0.4732
  978MOL0     O34850  10.630   3.854   7.713  0.3442  0.4971 -0.3238
  978MOL0     C34851  10.651   3.724   7.682 -0.3802 -1.2812 -0.0484
  978MOL0     C34852  10.766   3.671   7.629 -0.1157 -0.2987  0.1452
  978MOL0     C34853  10.778   3.527   7.626 -0.3162 -0.7541 -0.1872
  978MOL0     C34854  10.908   3.486   7.576 -0.4582  0.3968  0.5030
  978MOL0     C34855  10.671   3.445   7.665 -1.0019 -0.6553  0.2380
  978MOL0     C34856  10.674   3.295   7.660  0.2606  0.7650  0.3733
  978MOL0     O34857  10.563   3.243   7.620 -0.0502  0.6853  1.0713
  978MOL0     C34858  10.571   3.112   7.584 -0.6436 -0.4106 -0.5416
  978MOL0     C34859  10.549   3.024   7.694  0.7508 -0.3312 -0.0300
  978MOL0     C34860  10.537   2.885   7.670 -0.8358  0.7661  0.2835
  978MOL0     C34861  10.575   2.830   7.547 -0.2644 -0.5020 -0.1869
  978MOL0     O34862  10.567   2.697   7.523 -0.5219  0.3115 -0.5612
  978MOL0     C34863  10.658   2.616   7.603  0.0920 -0.6109  0.2036
  978MOL0     C34864  10.629   2.469   7.578 -0.5063 -0.3189  0.1736
  978MOL0     C34865  10.637   2.432   7.432  0.2924  0.5885  0.3340
  978MOL0     C34866  10.659   2.280   7.418  0.1242  0.3980  0.0863
  978MOL0     C34867  10.698   2.241   7.267  0.8601  0.7045 -0.6826
  978MOL0     C34868  10.717   2.094   7.232  1.0975  0.1006  0.0931
  978MOL0     C34869  10.808   2.023   7.338  1.0599 -0.5568  0.4799
  978MOL0     C34870  10.944   2.082   7.325 -0.2253 -0.0203  0.8056
  978MOL0    Cl34871  11.056   1.982   7.420  0.3634 -0.8102  0.2118
  978MOL0     C34872  10.596   2.918   7.433 -0.0189  0.3091  0.0559
  978MOL0     C34873  10.593   3.057   7.447 -0.4913 -0.7831  0.0397
  978MOL0     O34874  10.771   3.232   7.697 -0.2571  0.5410  0.3820
  978MOL0     C34875  10.557   3.507   7.717 -0.4490  0.1461  0.9945
  978MOL0     C34876  10.540   3.649   7.714  0.2742  1.3780 -0.4010
  978MOL0     N34877  11.071   4.343   7.779 -0.3799 -0.6706 -1.0760
  978MOL0     N34878  11.161   4.322   7.871 -0.6479  0.4038  0.2672
  978MOL0     C34879  10.843   4.691   8.856 -0.5265  0.7143  0.0344
  978MOL0     C34880  10.746   4.770   8.923  0.0738 -0.6967  0.3878
  978MOL0     C34881  10.387   5.054   8.846  0.5692 -1.1836 -0.0089
  978MOL0     C34882  10.430   5.186   8.837  0.5118  0.6671  0.2636
  978MOL0     C34883  10.345   5.291   8.874  1.0658  0.1991 -0.0181
  978MOL0     C34884  10.221   5.267   8.941  0.0231 -0.2614  0.4752
  978MOL0     O34885  10.135   5.377   8.975 -0.7603  0.2378  0.1617
  978MOL0     C34886   9.999   5.349   9.012 -0.2793  0.5329 -0.4912
  978MOL0     C34887   9.919   5.487   9.011 -0.4972  0.1136 -1.0551
  978MOL0     C34888   9.941   5.573   8.881 -0.9310 -0.2874  0.5633
  978MOL0     C34889   9.896   5.716   8.906  0.6953  0.4961  0.5830
  978MOL0     C34890   9.745   5.723   8.908 -0.1971 -1.2340  0.7534
  978MOL0     C34891   9.624   5.727   8.899 -0.7399 -0.3890 -0.6086
  978MOL0     C34892  10.176   5.136   8.947  0.2402 -0.8659  0.5322
  978MOL0     C34893  10.258   5.025   8.906  0.2885  0.0506 -0.1813
  978MOL0     C34894  10.207   4.884   8.920 -0.2070  0.1477  0.0643
  978MOL0     H34895  10.479   4.673   8.751 -0.4673  0.3489  0.2305
  978MOL0     H34896  10.643   4.506   8.661 -0.2570  0.6780 -0.9785
  978MOL0     H34897  10.922   4.492   8.505 -1.0600 -2.3215 -0.6735
  978MOL0     H34898  10.804   4.395   8.575  1.0611 -1.7912  0.0187
  978MOL0     H34899  11.103   4.367   8.570 -1.4745  2.4134 -1.0317
  978MOL0     H34900  11.018   4.274   8.695  1.0833  0.7233  0.7026
  978MOL0     H34901  11.024   4.107   8.532  4.2980  2.1781  1.5476
  978MOL0     H34902  10.872   4.198   8.484 -2.6647  0.5223  5.6466
  978MOL0     H34903  10.981   4.185   8.295 -3.6759  3.0301  0.7851
  978MOL0     H34904  11.026   4.342   8.334 -1.7342 -1.0436 -0.5667
  978MOL0     H34905  11.204   4.094   8.398  3.7393 -0.2273  0.8600
  978MOL0     H34906  11.260   4.262   8.430 -0.4002  1.7579 -1.4949
  978MOL0     H34907  11.200   4.283   8.176  0.8722  0.0326 -0.7343
  978MOL0     H34908  11.367   4.220   8.229  0.4188  0.1858  0.4228
  978MOL0     H34909  11.148   4.022   8.150  1.0527 -2.3590  3.7637
  978MOL0     H34910  11.322   4.025   8.162 -0.3385 -0.0873 -3.6596
  978MOL0     H34911  11.349   4.191   7.987 -0.8108  0.3738  3.7585
  978MOL0     H34912  11.285   4.032   7.934 -1.0294 -1.6416  2.0972
  978MOL0     H34913  11.032   4.024   7.865  0.9741 -0.2114  0.0221
  978MOL0     H34914  10.908   4.120   7.624 -1.9829 -2.2071  3.0727
  978MOL0     H34915  10.907   4.296   7.602 -1.8804  0.6023  0.5750
  978MOL0     H34916  10.748   4.303   7.799  2.5524  1.7317 -1.2547
  978MOL0     H34917  10.671   4.273   7.654  2.5638  0.2045 -0.5881
  978MOL0     H34918  10.735   4.034   7.834 -0.3332 -0.8302  0.2014
  978MOL0     H34919  10.578   4.094   7.792  0.5447  0.2991 -1.3842
  978MOL0     H34920  10.636   3.988   7.551  1.8277 -3.7477 -2.1615
  978MOL0     H34921  10.789   3.957   7.611 -1.2679 -1.2100 -4.3973
  978MOL0     H34922  10.846   3.739   7.602 -2.3401  1.4603 -2.4840
  978MOL0     H34923  10.946   3.563   7.509  0.4780 -0.8938 -0.5034
  978MOL0     H34924  10.901   3.395   7.516 -2.9005  2.0940 -1.9959
  978MOL0     H34925  10.981   3.488   7.657 -0.4936  1.6538  0.5173
  978MOL0     H34926  10.520   3.048   7.796 -6.7933 -0.4141 -1.5625
  978MOL0     H34927  10.523   2.819   7.755 -2.0900 -0.8118 -1.0767
  978MOL0     H34928  10.762   2.630   7.572  1.1861 -1.9611  2.9024
  978MOL0     H34929  10.655   2.643   7.709  3.9382  2.7794 -0.3129
  978MOL0     H34930  10.692   2.414   7.648 -0.7879 -0.5720  0.2281
  978MOL0     H34931  10.523   2.461   7.605 -0.4516 -1.4817  0.0652
  978MOL0     H34932  10.716   2.490   7.384  0.2908  0.0410 -0.3638
  978MOL0     H34933  10.547   2.450   7.372 -1.2603 -3.9005  0.9406
  978MOL0     H34934  10.583   2.222   7.471  0.8402 -0.2580  0.4283
  978MOL0     H34935  10.747   2.266   7.482 -0.2459 -1.8283  0.1985
  978MOL0     H34936  10.611   2.271   7.208 -1.4390 -2.7381  0.6280
  978MOL0     H34937  10.796   2.284   7.245  2.5988 -1.8502  1.3952
  978MOL0     H34938  10.757   2.098   7.130 -2.5435  0.9218 -1.4817
  978MOL0     H34939  10.615   2.055   7.227  0.2484  1.9834  1.5944
  978MOL0     H34940  10.815   1.915   7.322 -0.5984 -0.3607 -2.0417
  978MOL0     H34941  10.768   2.038   7.439  2.5246 -0.8453  1.1423
  978MOL0     H34942  10.941   2.183   7.369 -1.7958 -0.5805  2.0572
  978MOL0     H34943  10.980   2.103   7.224 -3.0291  0.7161 -0.1170
  978MOL0     H34944  10.608   2.887   7.330 -0.7961 -1.2472  0.4023
  978MOL0     H34945  10.602   3.135   7.372  0.9110  0.7050  1.6390
  978MOL0     H34946  10.475   3.443   7.749  0.1037 -1.3708 -0.4457
  978MOL0     H34947  10.451   3.700   7.749 -0.9998  1.5807 -3.5525
  978MOL0     H34948  10.944   4.721   8.879  0.7712 -2.7203 -0.5006
  978MOL0     H34949  10.770   4.854   8.987 -2.3793  1.4776 -1.3650
  978MOL0     H34950  10.528   5.221   8.807  0.6557  1.7352  1.8342
  978MOL0     H34951  10.374   5.396   8.875  0.3328  0.4226  1.5849
  978MOL0     H34952   9.944   5.272   8.957  1.4324 -2.3080  1.5482
  978MOL0     H34953   9.996   5.320   9.118 -1.5676  2.4664  0.0710
  978MOL0     H34954   9.957   5.548   9.093  0.2853  0.0629 -1.3722
  978MOL0     H34955   9.815   5.469   9.037  0.1166  0.9837  2.4860
  978MOL0     H34956  10.048   5.569   8.858 -0.7981 -2.3288  1.3287
  978MOL0     H34957   9.885   5.542   8.793  3.2963  1.4101 -3.1092
  978MOL0     H34958   9.935   5.784   8.830  1.2518 -0.6756 -0.1989
  978MOL0     H34959   9.929   5.758   9.002  0.8724  1.1655  0.2329
  978MOL0     H34960   9.523   5.755   8.880 -0.9821 -2.3348 -2.4979
  978MOL0     H34961  10.084   5.100   8.993 -0.5850  0.6002  0.0904
  978MOL0     H34962  10.284   4.818   8.962  0.4489 -1.1699 -2.9179
  978MOL0     H34963  10.117   4.879   8.981  0.1552 -1.3431  0.5118
  978MOL0     H34964  10.176   4.838   8.825 -3.1020  1.4665  0.2664
  979MOL0     O34965   6.294   5.598   4.306  0.2667  0.6694 -0.3915
  979MOL0     C34966   6.317   5.478   4.327 -0.2326 -0.8000 -0.6187
  979MOL0     O34967   6.355   5.423   4.454  0.3580  0.3371  0.2659
  979MOL0     C34968   6.372   5.500   4.565  0.3582 -0.4083 -0.0002
  979MOL0     C34969   6.398   5.641   4.577  0.9645  0.0325  0.9446
  979MOL0     C34970   6.418   5.694   4.699 -0.0787 -1.0612  0.1641
  979MOL0     C34971   6.395   5.628   4.815 -0.2451  0.5143  1.6384
  979MOL0     O34972   6.400   5.704   4.926 -0.0925  0.0614 -0.4477
  979MOL0     C34973   6.351   5.660   5.052 -0.2939 -0.1713  0.3153
  979MOL0     C34974   6.331   5.793   5.138 -0.6438  0.2987  0.9281
  979MOL0     C34975   6.247   5.778   5.266 -0.9593 -0.5421  0.6019
  979MOL0     C34976   6.107   5.723   5.229  0.3727  0.2738  0.9938
  979MOL0     C34977   6.005   5.762   5.339 -0.8720 -0.2653  0.4456
  979MOL0     C34978   6.022   5.678   5.466  0.6324 -0.1525  0.6285
  979MOL0     C34979   5.945   5.727   5.580  0.3604 -0.0242 -0.2055
  979MOL0     C34980   5.921   5.628   5.698 -0.7930  0.2008 -0.1187
  979MOL0     N34981   5.845   5.505   5.659  0.1341  0.0220 -0.0586
  979MOL0     C34982   5.709   5.497   5.652 -0.2146 -0.2495 -0.2892
  979MOL0     C34983   5.674   5.369   5.637  0.0684 -0.0776 -0.6207
  979MOL0     C34984   5.531   5.320   5.647  0.6432  0.2905 -0.5502
  979MOL0     C34985   5.524   5.179   5.712 -0.1292  0.2809 -0.4551
  979MOL0     C34986   5.386   5.146   5.768  0.0332  0.0182  0.9833
  979MOL0     C34987   5.301   5.236   5.850  0.2406  0.0215  0.1910
  979MOL0     O34988   5.359   5.245   5.976  0.1864 -0.3160  0.2305
  979MOL0     C34989   5.285   5.305   6.074  0.1358  0.8578 -0.1752
  979MOL0     C34990   5.330   5.293   6.203  0.1400  0.3347  0.0914
  979MOL0     C34991   5.258   5.347   6.307  0.8637  0.5778 -0.0366
  979MOL0     C34992   5.298   5.310   6.444  1.2386  0.7917 -0.2096
  979MOL0     C34993   5.137   5.421   6.280  1.0121 -0.7189 -0.0388
  979MOL0     C34994   5.056   5.478   6.387  0.7869 -0.8241 -0.1614
  979MOL0     O34995   5.126   5.548   6.490  0.4299  0.1822  0.4314
  979MOL0     C34996   5.070   5.582   6.614  0.3793 -0.8450 -0.0480
  979MOL0     C34997   4.944   5.635   6.635  0.9935 -0.0550 -0.8103
  979MOL0     C34998   4.890   5.664   6.764  0.0559  0.0896 -0.4166
  979MOL0     C34999   4.976   5.664   6.873 -0.0755  0.5890 -0.4806
  979MOL0     O35000   4.931   5.724   6.987  0.9734  0.0319  0.6371
  979MOL0     C35001   4.996   5.705   7.116  0.6404  0.3785  0.8365
  979MOL0     C35002   4.999   5.556   7.175  0.3393 -0.6026  0.5244
  979MOL0     C35003   4.873   5.534   7.257 -0.2591  0.5601  0.3913
  979MOL0     C35004   4.885   5.404   7.337 -0.4117  0.6774  0.0312
  979MOL0     C35005   4.907   5.281   7.252  0.1150 -0.0188 -0.4591
  979MOL0     C35006   4.872   5.152   7.333  0.4697 -0.0041 -0.0085
  979MOL0     C35007   4.886   5.031   7.247 -0.2601  0.2119 -1.1469
  979MOL0     C35008   4.873   4.907   7.338 -0.3704 -0.2866  0.3084
  979MOL0    Cl35009   5.017   4.888   7.427 -0.1299 -0.3380  0.4935
  979MOL0     C35010   5.110   5.606   6.858  0.1111 -0.5245  0.1978
  979MOL0     C35011   5.146   5.558   6.730  0.1685 -0.0398 -0.1839
  979MOL0     O35012   4.930   5.487   6.364 -0.2579 -1.0074  0.3923
  979MOL0     C35013   5.091   5.426   6.141 -0.0643 -0.4920  1.2695
  979MOL0     C35014   5.163   5.367   6.038 -0.2156  0.6139 -0.5774
  979MOL0     N35015   5.793   5.300   5.643 -0.6289 -0.3696  0.5069
  979MOL0     N35016   5.891   5.379   5.655  0.1910  0.5608  0.5623
  979MOL0     C35017   6.355   5.495   4.803 -0.5262 -0.4802 -0.7005
  979MOL0     C35018   6.350   5.430   4.680 -0.7119  0.3161  0.2088
  979MOL0     C35019   6.289   5.386   4.208  0.6299  0.4149  1.2670
  979MOL0     C35020   6.226   5.433   4.091 -0.6519  0.3555 -0.8186
  979MOL0     C35021   6.186   5.364   3.989  0.4677  0.4049  0.6945
  979MOL0     C35022   6.187   5.224   3.994 -1.2166 -0.5877 -0.8854
  979MOL0     O35023   6.131   5.152   3.892 -0.1414  0.4619  0.0400
  979MOL0     C35024   6.222   5.078   3.813 -0.3707 -0.4524  0.0254
  979MOL0     C35025   6.169   5.043   3.673  0.4873  1.3782  1.0431
  979MOL0     C35026   6.050   4.936   3.703  0.4991  0.0341 -0.2895
  979MOL0     C35027   5.974   4.902   3.570  0.3577  0.1372 -0.0412
  979MOL0     C35028   5.861   4.995   3.557  0.2855 -0.3097  0.2443
  979MOL0     C35029   5.764   5.067   3.571  0.0595  0.3351 -0.5336
  979MOL0     C35030   6.250   5.162   4.101 -0.5179  0.4353 -0.1885
  979MOL0     C35031   6.310   5.244   4.205  0.2051  0.3915  0.0811
  979MOL0     C35032   6.381   5.175   4.324  0.1030 -0.9013  0.0294
  979MOL0     H35033   6.414   5.699   4.486 -0.1128 -1.0594  0.0308
  979MOL0     H35034   6.469   5.788   4.711  1.1548 -1.6307 -0.4512
  979MOL0     H35035   6.415   5.583   5.095  0.5373  0.7383  0.7308
  979MOL0     H35036   6.262   5.612   5.009  0.9946  0.5855 -3.6284
  979MOL0     H35037   6.425   5.847   5.149  0.6149 -0.4066 -3.9772
  979MOL0     H35038   6.277   5.865   5.076 -2.0216 -0.4762  1.1822
  979MOL0     H35039   6.312   5.720   5.333  0.7944 -0.8475 -1.2649
  979MOL0     H35040   6.231   5.876   5.314  2.2687  0.7805 -0.6589
  979MOL0     H35041   6.071   5.763   5.134 -1.3458 -1.5992  0.7898
  979MOL0     H35042   6.109   5.614   5.219  0.0825  0.4611 -1.8689
  979MOL0     H35043   5.902   5.744   5.304 -0.4880 -2.1912  0.1962
  979MOL0     H35044   6.013   5.866   5.372  0.5639 -0.1173 -0.3182
  979MOL0     H35045   6.002   5.573   5.445 -0.6842  0.0646  0.7318
  979MOL0     H35046   6.127   5.682   5.497  0.7353 -0.1170  0.2843
  979MOL0     H35047   5.848   5.758   5.541  0.4724  0.2880 -0.2377
  979MOL0     H35048   5.987   5.820   5.620 -3.3057  1.1025  1.5021
  979MOL0     H35049   6.020   5.607   5.739 -1.5502  1.4928  2.6107
  979MOL0     H35050   5.863   5.677   5.777  1.9489  1.1693  1.4175
  979MOL0     H35051   5.635   5.573   5.677  4.3375  4.6055  0.3171
  979MOL0     H35052   5.495   5.307   5.544  0.3665 -0.7280 -0.3369
  979MOL0     H35053   5.475   5.395   5.703 -1.1170  1.2444 -3.3554
  979MOL0     H35054   5.562   5.111   5.635  2.1486  2.6997 -1.6119
  979MOL0     H35055   5.592   5.178   5.798 -1.3963 -1.0235  0.5799
  979MOL0     H35056   5.321   5.115   5.686  1.6954 -0.0366 -0.3576
  979MOL0     H35057   5.404   5.059   5.831  0.2708  0.8386  2.0874
  979MOL0     H35058   5.289   5.332   5.800 -0.2713 -0.6920 -1.1285
  979MOL0     H35059   5.203   5.188   5.863 -1.0267  1.7123 -2.2512
  979MOL0     H35060   5.418   5.232   6.214  2.3768  2.4925 -3.5678
  979MOL0     H35061   5.214   5.274   6.503  1.1025  0.8567 -0.3619
  979MOL0     H35062   5.328   5.397   6.503 -2.2562  0.5340  2.2407
  979MOL0     H35063   5.377   5.235   6.455  1.3166  1.0695  1.3893
  979MOL0     H35064   4.871   5.626   6.555 -3.6356 -0.8998  3.0326
  979MOL0     H35065   4.787   5.696   6.776 -0.4171 -1.5071  0.1465
  979MOL0     H35066   5.099   5.734   7.092 -0.2277  0.7181 -3.3347
  979MOL0     H35067   4.962   5.779   7.189 -3.6842  0.3289 -0.8537
  979MOL0     H35068   4.995   5.486   7.091 -2.7420 -0.4584  0.4301
  979MOL0     H35069   5.089   5.538   7.234 -1.1775 -1.2495  2.7415
  979MOL0     H35070   4.789   5.530   7.187 -1.9076  1.3148  2.2299
  979MOL0     H35071   4.858   5.614   7.331  1.2987  2.2217 -0.9654
  979MOL0     H35072   4.783   5.399   7.376  0.1407 -2.2433  1.3794
  979MOL0     H35073   4.958   5.412   7.418 -1.2744 -0.9487  1.0316
  979MOL0     H35074   4.858   5.283   7.154  0.5878 -0.1390 -0.7015
  979MOL0     H35075   5.015   5.272   7.239  0.0416 -2.0601  0.0696
  979MOL0     H35076   4.767   5.158   7.366  0.9438 -0.4029  1.6988
  979MOL0     H35077   4.938   5.146   7.420  0.7400  1.7701 -0.0574
  979MOL0     H35078   4.981   5.025   7.193 -1.2653 -0.9546 -2.8683
  979MOL0     H35079   4.800   5.036   7.181 -2.6455  0.9962  1.7872
  979MOL0     H35080   4.869   4.816   7.277  4.8129  0.0769 -1.0553
  979MOL0     H35081   4.784   4.910   7.401  0.1738  1.8509  1.0318
  979MOL0     H35082   5.184   5.592   6.936  1.7646 -2.6087 -1.6010
  979MOL0     H35083   5.243   5.511   6.718 -1.1105 -3.0786  0.5544
  979MOL0     H35084   4.994   5.473   6.132  0.2333 -0.1732 -0.4735
  979MOL0     H35085   5.130   5.380   5.935 -1.8737  0.0804 -0.1495
  979MOL0     H35086   6.329   5.448   4.898  0.2142  2.0624  0.8564
  979MOL0     H35087   6.341   5.322   4.674  0.4432  0.2790 -2.4742
  979MOL0     H35088   6.210   5.540   4.084  1.3711  0.9970  2.2719
  979MOL0     H35089   6.158   5.422   3.901  0.2201  0.8510  1.0631
  979MOL0     H35090   6.316   5.132   3.802  0.4927 -1.6167  1.3712
  979MOL0     H35091   6.241   4.982   3.861  0.2743 -0.0644  0.5512
  979MOL0     H35092   6.232   4.995   3.598  1.7385  0.2965  2.7051
  979MOL0     H35093   6.119   5.128   3.626 -1.7866 -0.8381 -0.9246
  979MOL0     H35094   6.096   4.845   3.742  1.9077 -0.3448 -2.6807
  979MOL0     H35095   5.982   4.969   3.782 -0.3492 -2.8226  0.2875
  979MOL0     H35096   5.934   4.800   3.573 -1.0879  0.1346 -6.1834
  979MOL0     H35097   6.037   4.902   3.481  0.1304 -2.4931 -0.2896
  979MOL0     H35098   5.682   5.136   3.576 -0.7576 -0.1633 -4.2030
  979MOL0     H35099   6.258   5.054   4.109  0.7886  0.6488  2.3225
  979MOL0     H35100   6.390   5.072   4.287 -0.4408 -1.2781  0.9212
  979MOL0     H35101   6.479   5.221   4.339  0.6125 -1.2545 -1.9175
  979MOL0     H35102   6.315   5.166   4.410 -2.9169 -1.9367 -2.2269
  980MOL0     O35103  11.072  11.502  10.869 -0.2580  0.7759  0.1621
  980MOL0     C35104  11.194  11.475  10.858 -0.3569 -0.2999 -0.3917
  980MOL0     O35105  11.292  11.571  10.885  0.1183 -0.1657 -0.8150
  980MOL0     C35106  11.261  11.702  10.892  0.5512 -0.7952 -0.4682
  980MOL0     C35107  11.199  11.764  10.779  0.2546 -0.2955 -0.1831
  980MOL0     C35108  11.186  11.899  10.771 -0.4567  0.6779  0.3917
  980MOL0     C35109  11.231  11.976  10.880 -0.7186  0.7371 -0.8173
  980MOL0     O35110  11.200  12.110  10.909  0.7778  0.1249  0.3146
  980MOL0     C35111  11.160  12.189  10.799  0.6174  0.5346  0.5704
  980MOL0     C35112  11.177  12.336  10.840  0.8533  0.5244 -0.7499
  980MOL0     C35113  11.137  12.440  10.734  0.3377  0.1857 -0.4418
  980MOL0     C35114  11.169  12.397  10.592  0.0906 -0.1392 -0.4680
  980MOL0     C35115  11.173  12.520  10.496  0.0460 -0.8189  0.6182
  980MOL0     C35116  11.264  12.488  10.376  0.4767 -0.3143 -0.8974
  980MOL0     C35117  11.249  12.599  10.268 -0.1979  0.8242  1.2878
  980MOL0     C35118  11.369  12.619  10.184  0.2050  0.4336  0.4203
  980MOL0     N35119  11.335  12.680  10.059  0.7158  0.2791  0.0885
  980MOL0     C35120  11.319  12.819  10.047 -0.9746  1.3549  0.3937
  980MOL0     C35121  11.322  12.844   9.912 -0.5615  0.9667  0.4580
  980MOL0     C35122  11.323  12.974   9.842 -0.3125 -1.4524 -0.5664
  980MOL0     C35123  11.454  13.051   9.865 -0.8595  0.7239  0.2484
  980MOL0     C35124  11.425  13.204   9.868  0.1362  0.2981  0.0153
  980MOL0     C35125  11.549  13.289   9.890 -0.8718  0.0668 -0.1741
  980MOL0     O35126  11.572  13.312  10.031  0.2439 -0.1110 -0.6189
  980MOL0     C35127  11.687  13.380  10.062  0.3818 -0.3000 -0.1432
  980MOL0     C35128  11.787  13.424   9.963  0.2398 -0.4532  0.0730
  980MOL0     C35129  11.891  13.496  10.013 -0.3466  1.0248 -0.1881
  980MOL0     C35130  11.981  13.530   9.914  0.0264 -0.8047 -0.4453
  980MOL0     C35131  11.923  13.518  10.154  0.9674 -0.3303  0.5025
  980MOL0     C35132  12.045  13.584  10.209 -0.7863 -0.9712 -1.0153
  980MOL0     O35133  12.165  13.566  10.146  0.9674 -0.6214  0.3138
  980MOL0     C35134  12.270  13.620  10.206  0.5830 -0.2400 -0.2896
  980MOL0     C35135  12.343  13.545  10.299 -0.1175 -0.1598 -0.4137
  980MOL0     C35136  12.449  13.614  10.356  1.0738  1.3207  0.0996
  980MOL0     C35137  12.481  13.744  10.337 -0.0892  0.2201 -0.9304
  980MOL0     O35138  12.560  13.815  10.423 -0.0467 -0.6366 -0.2333
  980MOL0     C35139  12.616  13.764  10.542  0.1985 -0.8980 -0.5649
  980MOL0     C35140  12.541  13.815  10.661 -0.4668  0.7672 -0.7643
  980MOL0     C35141  12.553  13.720  10.785  0.6929  0.0070 -0.1454
  980MOL0     C35142  12.546  13.795  10.913  0.6118  0.4611 -0.4681
  980MOL0     C35143  12.398  13.817  10.952  1.0072  0.0413  0.0462
  980MOL0     C35144  12.375  13.935  11.056  0.3881 -0.0766  0.4055
  980MOL0     C35145  12.228  13.993  11.033 -0.1152  0.6975 -0.2481
  980MOL0     C35146  12.179  14.115  11.127 -0.4323  0.1174 -0.1197
  980MOL0    Cl35147  12.239  14.092  11.295  0.0130  0.6765 -0.1056
  980MOL0     C35148  12.414  13.818  10.243 -0.6383  0.5680  0.0843
  980MOL0     C35149  12.309  13.749  10.166  0.1028  0.0283 -0.1738
  980MOL0     O35150  12.033  13.639  10.318  0.0308 -1.3374 -0.5650
  980MOL0     C35151  11.814  13.490  10.246  0.1280 -1.0786 -0.1182
  980MOL0     C35152  11.702  13.418  10.198  0.3161 -0.8731  0.3571
  980MOL0     N35153  11.339  12.720   9.841  0.3828  0.6738 -0.3751
  980MOL0     N35154  11.356  12.626   9.933  0.3163 -0.4195 -0.1987
  980MOL0     C35155  11.296  11.920  10.992 -0.1506  0.0635  0.6479
  980MOL0     C35156  11.301  11.783  10.997 -0.1685  0.1099 -0.2282
  980MOL0     C35157  11.228  11.322  10.833  0.5360  0.1099  0.1333
  980MOL0     C35158  11.362  11.280  10.857  0.9426  0.5624  0.2527
  980MOL0     C35159  11.397  11.148  10.836 -0.2707  0.4935  0.6811
  980MOL0     C35160  11.302  11.054  10.787 -0.1310 -0.2729 -0.3108
  980MOL0     O35161  11.329  10.924  10.760  0.2664 -0.4164 -0.0625
  980MOL0     C35162  11.456  10.868  10.786  0.1984  0.3136  0.2676
  980MOL0     C35163  11.532  10.877  10.653  0.2029  0.8211 -0.7854
  980MOL0     C35164  11.446  10.857  10.530 -0.5945  0.2612 -0.2690
  980MOL0     C35165  11.507  10.879  10.391 -0.6051  0.5173  0.3893
  980MOL0     C35166  11.590  10.763  10.353  0.6534 -0.4690  0.9335
  980MOL0     C35167  11.660  10.677  10.303 -1.1183 -0.1657  0.6681
  980MOL0     C35168  11.171  11.094  10.765 -0.3774 -0.2439 -0.4714
  980MOL0     C35169  11.138  11.228  10.787  0.2751 -0.0442 -0.2201
  980MOL0     C35170  11.004  11.271  10.733  1.0865  1.2721  0.4978
  980MOL0     H35171  11.159  11.700  10.701 -0.2890  2.8197 -2.6495
  980MOL0     H35172  11.133  11.942  10.686  0.1495 -0.1306 -0.4211
  980MOL0     H35173  11.055  12.171  10.773 -0.0129 -0.4456  3.4179
  980MOL0     H35174  11.221  12.163  10.712  2.2415  3.4850  0.6901
  980MOL0     H35175  11.122  12.364  10.931  0.7840  0.7819 -0.8720
  980MOL0     H35176  11.280  12.349  10.874  1.2622 -1.4421 -1.1235
  980MOL0     H35177  11.028  12.446  10.742  0.3277  3.5006 -1.4219
  980MOL0     H35178  11.171  12.539  10.768 -1.4330 -0.4023  3.6427
  980MOL0     H35179  11.269  12.353  10.591  0.8417  1.4182  1.1116
  980MOL0     H35180  11.111  12.317  10.546  1.2513 -0.5574 -1.2293
  980MOL0     H35181  11.203  12.614  10.542 -2.2565  0.5713 -0.5529
  980MOL0     H35182  11.075  12.537  10.451  0.3488 -0.4254  0.1083
  980MOL0     H35183  11.365  12.487  10.419 -0.4654 -2.6929  1.5529
  980MOL0     H35184  11.228  12.395  10.330 -1.2459  0.0008 -0.2265
  980MOL0     H35185  11.228  12.695  10.317  0.4408  1.5690  0.1364
  980MOL0     H35186  11.157  12.578  10.212 -0.4347 -1.1483  2.3253
  980MOL0     H35187  11.445  12.684  10.226  1.2985 -0.9010  0.5697
  980MOL0     H35188  11.398  12.515  10.163  1.5609  0.5896  1.3982
  980MOL0     H35189  11.300  12.889  10.127 -0.7420  3.4545 -1.3156
  980MOL0     H35190  11.244  13.029   9.894 -0.1643 -2.2390  0.5174
  980MOL0     H35191  11.295  12.957   9.738  1.0522  0.5797 -1.3292
  980MOL0     H35192  11.494  13.015   9.960  2.5006 -0.7583 -1.5756
  980MOL0     H35193  11.523  13.026   9.785 -1.3988 -1.6970  0.4810
  980MOL0     H35194  11.404  13.232   9.764  1.9567 -4.1699 -1.8153
  980MOL0     H35195  11.341  13.223   9.936  1.0991 -0.8360  1.5871
  980MOL0     H35196  11.638  13.245   9.843  1.5890  4.2484  0.0281
  980MOL0     H35197  11.544  13.385   9.838 -1.4803 -0.7426 -1.6772
  980MOL0     H35198  11.768  13.392   9.860 -4.5112  0.7966  0.3214
  980MOL0     H35199  11.929  13.568   9.826 -0.0597  3.4647  1.1802
  980MOL0     H35200  12.046  13.442   9.909  1.8949 -0.0015  4.1832
  980MOL0     H35201  12.045  13.614   9.944 -2.3365  0.5473  1.1689
  980MOL0     H35202  12.314  13.445  10.330  1.4895 -0.0844  1.5321
  980MOL0     H35203  12.505  13.557  10.429  1.0128  0.1316 -0.7526
  980MOL0     H35204  12.620  13.655  10.549  0.0442 -0.7798  2.6478
  980MOL0     H35205  12.716  13.807  10.552  0.4781 -1.8373  0.9488
  980MOL0     H35206  12.571  13.917  10.687  1.6393 -0.1854  0.8078
  980MOL0     H35207  12.432  13.808  10.652 -0.7064 -0.2926  1.9958
  980MOL0     H35208  12.644  13.661  10.795  2.6401  3.0821  2.7201
  980MOL0     H35209  12.464  13.658  10.782  0.1275  0.7543  0.7100
  980MOL0     H35210  12.610  13.883  10.921  2.0864 -0.7148  1.9697
  980MOL0     H35211  12.594  13.729  10.986 -0.1138  2.5459  2.0559
  980MOL0     H35212  12.347  13.830  10.856  0.0831 -3.0752  0.0094
  980MOL0     H35213  12.346  13.731  10.994  1.2051 -0.5131 -0.8234
  980MOL0     H35214  12.443  14.011  11.016  0.3621 -0.6208 -0.7187
  980MOL0     H35215  12.400  13.920  11.161 -0.1243  1.7977  0.8445
  980MOL0     H35216  12.167  13.903  11.047 -0.2320  1.0451  1.9117
  980MOL0     H35217  12.218  14.030  10.931  2.2052  1.6204 -0.1962
  980MOL0     H35218  12.070  14.110  11.118 -0.3651  1.7744 -2.9490
  980MOL0     H35219  12.223  14.210  11.095  0.1912 -0.4611 -1.0559
  980MOL0     H35220  12.431  13.926  10.241  0.1565  0.6676  3.8684
  980MOL0     H35221  12.248  13.804  10.095 -1.1604  2.3414  2.4625
  980MOL0     H35222  11.822  13.507  10.353  1.1711  2.2952 -0.6008
  980MOL0     H35223  11.612  13.393  10.253 -0.0461 -1.2449 -0.3867
  980MOL0     H35224  11.328  11.982  11.075  0.1894 -0.0269  0.5860
  980MOL0     H35225  11.349  11.751  11.089 -0.7304  2.0518  0.7988
  980MOL0     H35226  11.439  11.354  10.875  0.0082  2.5487 -2.9884
  980MOL0     H35227  11.500  11.124  10.858 -0.7410  0.2774  2.9502
  980MOL0     H35228  11.517  10.917  10.862  3.4439 -0.4275 -1.7018
  980MOL0     H35229  11.444  10.762  10.808  2.1391  0.3408  1.7283
  980MOL0     H35230  11.603  10.794  10.644 -1.5121 -0.7906 -0.1775
  980MOL0     H35231  11.582  10.973  10.638  1.0830  0.1226 -2.6343
  980MOL0     H35232  11.403  10.756  10.531  0.7676 -0.3354 -0.6985
  980MOL0     H35233  11.377  10.941  10.522 -0.4835  0.2152 -2.1503
  980MOL0     H35234  11.568  10.969  10.403  0.2986 -0.3490  3.0279
  980MOL0     H35235  11.431  10.888  10.313  0.1082 -1.2278 -0.5820
  980MOL0     H35236  11.720  10.600  10.259 -1.7963 -0.1002 -0.4137
  980MOL0     H35237  11.098  11.026  10.722 -1.1636  0.2992 -0.0013
  980MOL0     H35238  11.009  11.360  10.670 -6.0035  1.9705  0.0289
  980MOL0     H35239  10.966  11.186  10.674  3.5609  0.4961 -0.0777
  980MOL0     H35240  10.934  11.292  10.815 -2.9398  2.8745 -2.9456
  981MOL0     O35241   4.399   6.832   0.715  0.4215 -0.5929 -0.1517
  981MOL0     C35242   4.489   6.787   0.780 -0.8314  0.9986  0.3891
  981MOL0     O35243   4.584   6.701   0.729  0.3299  0.0033  0.1784
  981MOL0     C35244   4.566   6.644   0.610  0.5753  0.5345  0.7781
  981MOL0     C35245   4.505   6.519   0.591 -0.2647  0.4686  0.1679
  981MOL0     C35246   4.467   6.478   0.461 -0.7475  1.1369 -0.7948
  981MOL0     C35247   4.501   6.550   0.344 -0.4290 -0.0134 -0.2254
  981MOL0     O35248   4.476   6.522   0.213  0.0306 -0.1296  0.0286
  981MOL0     C35249   4.383   6.415   0.189 -0.1400  0.6069  0.8705
  981MOL0     C35250   4.321   6.426   0.042  0.2134  0.4593 -0.7564
  981MOL0     C35251   4.424   6.443  -0.077 -0.3009  0.9089 -0.5123
  981MOL0     C35252   4.542   6.345  -0.059 -0.0864 -0.0399 -0.8386
  981MOL0     C35253   4.506   6.193  -0.053  0.4807 -0.0524  0.9039
  981MOL0     C35254   4.415   6.147  -0.171  0.0638 -0.4097  0.5311
  981MOL0     C35255   4.506   6.141  -0.308 -0.1895  0.0653  0.6257
  981MOL0     C35256   4.409   6.143  -0.437  0.6392 -0.2721 -1.3541
  981MOL0     N35257   4.488   6.107  -0.559  0.7481  0.1204  1.1943
  981MOL0     C35258   4.593   6.176  -0.605 -0.7331  0.1541 -0.5454
  981MOL0     C35259   4.611   6.140  -0.734  0.1847 -1.1929  0.8120
  981MOL0     C35260   4.720   6.195  -0.819  0.9109 -0.6263  0.4132
  981MOL0     C35261   4.680   6.333  -0.886 -0.3064  0.6602 -1.0241
  981MOL0     C35262   4.574   6.323  -0.992  0.2036 -0.1878 -0.1520
  981MOL0     C35263   4.606   6.361  -1.133 -0.9693  0.2598 -0.4248
  981MOL0     O35264   4.737   6.309  -1.175 -0.3765  0.1510  0.2371
  981MOL0     C35265   4.803   6.373  -1.278  0.7751  0.6717 -0.0417
  981MOL0     C35266   4.775   6.339  -1.418  0.2632  0.2313  0.2213
  981MOL0     C35267   4.820   6.410  -1.528 -0.1068  0.4265 -0.6381
  981MOL0     C35268   4.778   6.375  -1.668  0.0146  0.1998  0.1679
  981MOL0     C35269   4.918   6.507  -1.504 -0.0877 -0.5278 -0.1715
  981MOL0     C35270   4.990   6.585  -1.610 -0.6332 -0.0704 -0.3567
  981MOL0     O35271   5.047   6.699  -1.565 -0.4828 -0.3609 -0.1985
  981MOL0     C35272   5.139   6.767  -1.640 -0.3969 -0.2869  0.2063
  981MOL0     C35273   5.236   6.700  -1.720 -0.1555  0.1286 -0.8166
  981MOL0     C35274   5.334   6.765  -1.794 -0.3023 -0.4501  0.3760
  981MOL0     C35275   5.322   6.908  -1.789  0.3891  0.4004 -0.4126
  981MOL0     O35276   5.415   6.977  -1.862  0.4689 -0.3879  0.2013
  981MOL0     C35277   5.377   7.057  -1.970  0.6305  0.2645 -1.1973
  981MOL0     C35278   5.498   7.127  -1.998  0.2052  0.6488  0.5110
  981MOL0     C35279   5.624   7.053  -2.058 -0.0570  0.1634 -1.1729
  981MOL0     C35280   5.727   7.164  -2.095 -0.4154  0.2444 -0.6670
  981MOL0     C35281   5.845   7.178  -1.993  0.7118  0.3484  0.4960
  981MOL0     C35282   5.824   7.289  -1.899  0.1083  0.2613  0.1881
  981MOL0     C35283   5.932   7.308  -1.799 -0.3598 -0.1385  0.3971
  981MOL0     C35284   5.910   7.437  -1.721 -0.7782 -0.3659 -0.7930
  981MOL0    Cl35285   6.073   7.490  -1.653  0.3416  0.1142  0.3871
  981MOL0     C35286   5.227   6.977  -1.713  0.3166  0.5063 -0.3783
  981MOL0     C35287   5.143   6.900  -1.631  0.6502 -0.6167  0.8617
  981MOL0     O35288   5.015   6.515  -1.707  0.1133  0.8966 -0.1087
  981MOL0     C35289   4.947   6.553  -1.369  0.8805 -0.3888 -0.1512
  981MOL0     C35290   4.889   6.480  -1.262 -0.2391  0.2586 -0.2035
  981MOL0     N35291   4.508   6.060  -0.770 -0.5541  0.4896  0.3385
  981MOL0     N35292   4.439   6.046  -0.668 -0.3559  0.7721  0.0564
  981MOL0     C35293   4.566   6.677   0.360 -0.0242  0.6985 -0.2363
  981MOL0     C35294   4.601   6.715   0.489  0.7700  0.5765 -0.7607
  981MOL0     C35295   4.537   6.854   0.907 -0.3448  0.2973  0.4812
  981MOL0     C35296   4.667   6.839   0.953  0.2521  0.4489  0.0011
  981MOL0     C35297   4.716   6.901   1.065  0.6258  0.4902 -0.0009
  981MOL0     C35298   4.632   6.982   1.140  0.1324 -0.7075 -0.7809
  981MOL0     O35299   4.659   7.051   1.260 -0.4135  0.1591  0.1560
  981MOL0     C35300   4.780   6.999   1.332  0.6601 -0.1354  0.3412
  981MOL0     C35301   4.797   7.082   1.454 -0.0217 -0.1748 -0.3092
  981MOL0     C35302   4.809   7.234   1.444 -0.1386 -0.0232  0.9878
  981MOL0     C35303   4.797   7.310   1.572 -0.3407  0.8175  0.0002
  981MOL0     C35304   4.663   7.288   1.628  1.3649  0.1584  0.0623
  981MOL0     C35305   4.551   7.265   1.672 -0.7842  0.1183 -1.0386
  981MOL0     C35306   4.497   7.003   1.095 -0.0649 -0.2081  0.1247
  981MOL0     C35307   4.453   6.941   0.984 -0.1132  0.4741  0.0253
  981MOL0     C35308   4.313   6.975   0.950 -0.3928  0.0482 -0.6365
  981MOL0     H35309   4.487   6.472   0.687 -4.5857  2.7350  0.7239
  981MOL0     H35310   4.409   6.387   0.450 -3.7361  2.7423  0.5244
  981MOL0     H35311   4.295   6.401   0.252 -0.0533 -2.6235  0.4090
  981MOL0     H35312   4.443   6.325   0.201 -0.3486  0.4946  1.0518
  981MOL0     H35313   4.254   6.341   0.026  1.2489 -0.8698  1.5796
  981MOL0     H35314   4.259   6.516   0.050 -0.8672 -0.4801  3.3294
  981MOL0     H35315   4.376   6.407  -0.168 -0.0712 -0.5498 -0.0800
  981MOL0     H35316   4.473   6.540  -0.089  1.1294  0.1537 -0.9959
  981MOL0     H35317   4.616   6.364  -0.137 -1.5023  0.3436 -2.1542
  981MOL0     H35318   4.584   6.382   0.035 -4.4313  1.4054  0.8231
  981MOL0     H35319   4.450   6.169   0.039 -4.2101 -0.6624 -1.7837
  981MOL0     H35320   4.598   6.133  -0.055 -0.8558 -2.2460 -1.3041
  981MOL0     H35321   4.367   6.049  -0.158 -2.0010  0.6703  1.6172
  981MOL0     H35322   4.329   6.216  -0.177  0.5305  0.1159 -0.2892
  981MOL0     H35323   4.561   6.047  -0.320 -3.3754 -1.7888 -0.8541
  981MOL0     H35324   4.574   6.226  -0.313  0.7352 -0.7256 -1.3589
  981MOL0     H35325   4.328   6.071  -0.424  0.4698  0.0897 -0.3035
  981MOL0     H35326   4.358   6.240  -0.448 -1.7652 -1.2798  0.0401
  981MOL0     H35327   4.649   6.251  -0.551  0.9717 -1.4856  0.1038
  981MOL0     H35328   4.747   6.110  -0.882  1.0506 -0.5414  0.3582
  981MOL0     H35329   4.811   6.216  -0.763  1.1792 -1.2410  0.2154
  981MOL0     H35330   4.654   6.401  -0.804  2.2618 -0.5589  0.9550
  981MOL0     H35331   4.763   6.384  -0.935  2.2257 -0.5065  1.7429
  981MOL0     H35332   4.549   6.216  -0.988  2.9387 -0.8627  2.5372
  981MOL0     H35333   4.488   6.382  -0.959 -1.1758 -1.8812 -0.5269
  981MOL0     H35334   4.524   6.320  -1.193 -1.3117  2.2911 -1.4358
  981MOL0     H35335   4.594   6.469  -1.142  0.7388  0.3654 -2.3758
  981MOL0     H35336   4.710   6.255  -1.439 -0.9466  0.8919  1.1125
  981MOL0     H35337   4.755   6.473  -1.710  3.9860  0.5889 -1.4779
  981MOL0     H35338   4.690   6.311  -1.669 -0.4661  0.7800  1.5451
  981MOL0     H35339   4.854   6.323  -1.727 -2.3828 -2.1990 -1.0273
  981MOL0     H35340   5.243   6.592  -1.730  0.3035  0.1855 -1.1820
  981MOL0     H35341   5.403   6.726  -1.867 -0.3652  0.2209 -0.0491
  981MOL0     H35342   5.333   6.998  -2.051  1.0164  0.3728 -1.4848
  981MOL0     H35343   5.310   7.137  -1.936  0.5169 -1.3728  3.0102
  981MOL0     H35344   5.474   7.209  -2.067 -2.1520 -0.7043 -0.4006
  981MOL0     H35345   5.522   7.180  -1.906 -1.6961  4.7884 -1.0908
  981MOL0     H35346   5.597   6.994  -2.147 -2.3757 -2.4233  1.0619
  981MOL0     H35347   5.663   6.991  -1.977 -1.9975  0.7959  0.2966
  981MOL0     H35348   5.690   7.266  -2.109 -0.6732  0.4830  1.4430
  981MOL0     H35349   5.775   7.118  -2.181 -0.1357  0.4562 -0.6250
  981MOL0     H35350   5.852   7.084  -1.936  0.8676 -0.1081 -0.2519
  981MOL0     H35351   5.943   7.193  -2.039  1.7296  3.9290  3.3802
  981MOL0     H35352   5.734   7.275  -1.838  1.6073 -0.6946  2.3067
  981MOL0     H35353   5.829   7.383  -1.955  1.5992  0.7427  1.0564
  981MOL0     H35354   6.027   7.328  -1.849 -1.2485  2.9868 -0.2752
  981MOL0     H35355   5.949   7.223  -1.732 -1.3200 -0.0544  0.7687
  981MOL0     H35356   5.829   7.430  -1.648 -0.1490 -0.3504 -0.0821
  981MOL0     H35357   5.881   7.521  -1.784  0.1730 -1.8728 -3.4259
  981MOL0     H35358   5.215   7.085  -1.707  1.5518  0.5921  1.5432
  981MOL0     H35359   5.076   6.951  -1.561  1.6112  0.2143  1.2012
  981MOL0     H35360   5.004   6.644  -1.351  1.9865 -0.2516 -3.5901
  981MOL0     H35361   4.924   6.511  -1.164  0.3526  1.2464 -0.7256
  981MOL0     H35362   4.583   6.736   0.270 -2.2695  1.2607 -0.3477
  981MOL0     H35363   4.650   6.811   0.501 -2.9945  2.3348  3.4015
  981MOL0     H35364   4.732   6.781   0.888  1.0652  2.3561 -0.9856
  981MOL0     H35365   4.819   6.879   1.090  1.9847  2.3265 -3.3462
  981MOL0     H35366   4.761   6.895   1.357 -2.0868 -0.8473 -3.7070
  981MOL0     H35367   4.873   7.005   1.275 -1.1616 -0.3129 -2.8874
  981MOL0     H35368   4.893   7.050   1.496 -0.6073 -0.1140  1.1318
  981MOL0     H35369   4.706   7.061   1.511  1.0083  1.8910  2.3134
  981MOL0     H35370   4.909   7.258   1.406 -0.7971  1.7269  0.2746
  981MOL0     H35371   4.734   7.268   1.371 -1.0659 -2.7548  0.5386
  981MOL0     H35372   4.813   7.416   1.551 -1.1503  0.9451  0.0124
  981MOL0     H35373   4.870   7.270   1.643  0.2187 -1.3903 -1.6876
  981MOL0     H35374   4.455   7.238   1.709 -0.9778  0.9348 -0.9147
  981MOL0     H35375   4.431   7.061   1.158  0.6912  0.2626  0.5050
  981MOL0     H35376   4.276   7.038   1.032  2.2754 -1.2011  1.7145
  981MOL0     H35377   4.290   7.019   0.853 -1.8688 -1.9490 -1.2620
  981MOL0     H35378   4.256   6.882   0.946  0.8773 -0.8346  0.8202
  982MOL0     O35379   8.542   3.065  10.647 -0.5305 -0.0528  0.5688
  982MOL0     C35380   8.551   3.180  10.608  0.3700  0.1952  1.1634
  982MOL0     O35381   8.490   3.291  10.665 -0.2850 -0.7141  0.9430
  982MOL0     C35382   8.416   3.289  10.778 -0.7307  0.4146 -0.3593
  982MOL0     C35383   8.343   3.177  10.833 -0.1752 -0.3378  0.4428
  982MOL0     C35384   8.250   3.196  10.929  0.3797  0.3758 -0.3281
  982MOL0     C35385   8.253   3.315  11.008 -0.2154 -0.1373 -0.1119
  982MOL0     O35386   8.175   3.329  11.121  0.2362  0.1301  0.7896
  982MOL0     C35387   8.054   3.242  11.121 -0.6283 -0.1239  0.1880
  982MOL0     C35388   7.964   3.294  11.226  0.1672  0.4150 -0.2306
  982MOL0     C35389   8.013   3.244  11.371 -0.2304  0.4825 -0.0913
  982MOL0     C35390   7.918   3.303  11.479  0.2179  0.0974 -0.6942
  982MOL0     C35391   7.931   3.221  11.607  1.1528  0.5690 -0.6414
  982MOL0     C35392   7.852   3.284  11.727  0.2137  0.5947  0.2457
  982MOL0     C35393   7.883   3.205  11.851  0.9141  1.3581 -0.6509
  982MOL0     C35394   8.018   3.247  11.915  0.0064  0.2253 -0.1769
  982MOL0     N35395   7.992   3.378  11.980  0.5093 -0.5922  0.6629
  982MOL0     C35396   8.013   3.502  11.922  0.5866 -0.2805  0.4994
  982MOL0     C35397   7.955   3.585  12.011 -0.4986 -0.2696  1.0528
  982MOL0     C35398   7.935   3.725  11.987 -0.4871 -0.0656  0.0716
  982MOL0     C35399   8.023   3.804  12.085  0.9747  0.2447 -0.1433
  982MOL0     C35400   8.020   3.949  12.025  0.5189 -0.7903 -0.9323
  982MOL0     C35401   8.097   4.042  12.125  0.3041 -0.1454 -0.0223
  982MOL0     O35402   8.012   4.113  12.216  0.4341 -0.4168  0.0080
  982MOL0     C35403   7.970   4.246  12.198  0.4524  0.4014  0.1375
  982MOL0     C35404   7.930   4.297  12.075  0.4462  0.1076 -0.8883
  982MOL0     C35405   7.873   4.420  12.057 -0.2056 -0.4563 -0.7289
  982MOL0     C35406   7.832   4.469  11.921 -0.1457  0.0711  0.6189
  982MOL0     C35407   7.860   4.503  12.170  0.3704 -0.4284  0.4341
  982MOL0     C35408   7.817   4.644  12.169 -0.2010 -0.1788  0.4022
  982MOL0     O35409   7.754   4.685  12.279  0.1188 -0.8362 -0.0437
  982MOL0     C35410   7.711   4.815  12.273 -0.3175 -0.0604  0.0815
  982MOL0     C35411   7.804   4.926  12.279 -0.8021  0.1449 -0.3615
  982MOL0     C35412   7.757   5.064  12.292  0.6141  0.6912 -0.6464
  982MOL0     C35413   7.615   5.086  12.286 -0.9975 -0.1408 -0.2805
  982MOL0     O35414   7.570   5.214  12.283 -0.0360  0.0319 -0.9381
  982MOL0     C35415   7.454   5.249  12.362 -0.3263  0.7479 -0.1639
  982MOL0     C35416   7.374   5.357  12.279 -0.1121 -0.0092  0.2427
  982MOL0     C35417   7.282   5.423  12.377 -0.2545 -0.4530  0.0033
  982MOL0     C35418   7.207   5.535  12.302  1.1607  0.1091 -0.2420
  982MOL0     C35419   7.117   5.618  12.396 -0.6914  0.2254  0.2000
  982MOL0     C35420   7.040   5.721  12.306 -0.4210  0.1176  0.0357
  982MOL0     C35421   6.932   5.800  12.382  0.3000  0.5373  0.3183
  982MOL0     C35422   6.856   5.879  12.285 -0.3225 -0.7658  0.2743
  982MOL0    Cl35423   6.799   6.032  12.366  0.0587 -0.3163 -0.3861
  982MOL0     C35424   7.530   4.968  12.284 -0.3509 -0.2284  0.0683
  982MOL0     C35425   7.575   4.845  12.271 -0.8978 -0.0715 -0.6813
  982MOL0     O35426   7.838   4.706  12.066 -0.0326 -0.2704  0.1815
  982MOL0     C35427   7.892   4.449  12.301 -0.1202 -0.0914 -0.1606
  982MOL0     C35428   7.937   4.315  12.314 -0.2325 -0.3801  0.3732
  982MOL0     N35429   7.909   3.513  12.119  0.2725  0.1493  0.2547
  982MOL0     N35430   7.938   3.390  12.104 -0.8179 -0.6176  0.1548
  982MOL0     C35431   8.330   3.423  10.963  0.2553  0.4332  0.1190
  982MOL0     C35432   8.403   3.415  10.850  0.6871 -0.8845  0.5921
  982MOL0     C35433   8.623   3.207  10.480 -0.0684 -0.6438 -0.7362
  982MOL0     C35434   8.563   3.281  10.386 -0.0777  0.8178 -0.0811
  982MOL0     C35435   8.636   3.324  10.275  0.3550  0.5268 -0.3106
  982MOL0     C35436   8.757   3.272  10.240 -0.0032 -1.2136  0.2686
  982MOL0     O35437   8.808   3.315  10.121  0.2836 -0.2588  0.0070
  982MOL0     C35438   8.943   3.285  10.081 -0.2836 -0.1770  0.6169
  982MOL0     C35439   8.988   3.363   9.946  0.1055 -0.3621 -0.2009
  982MOL0     C35440   8.895   3.352   9.829  0.0560 -0.3144  0.2307
  982MOL0     C35441   8.901   3.207   9.775  0.4564 -0.2650  0.4461
  982MOL0     C35442   8.848   3.190   9.643 -0.9537  0.0908  0.3981
  982MOL0     C35443   8.821   3.193   9.520  0.7163 -0.0221  0.2418
  982MOL0     C35444   8.819   3.188  10.344 -0.0748 -0.7494  0.7863
  982MOL0     C35445   8.752   3.160  10.465 -0.0979 -0.5174  0.3137
  982MOL0     C35446   8.829   3.097  10.570  0.1199 -0.4974  0.3670
  982MOL0     H35447   8.351   3.079  10.787 -3.1260  0.5146 -2.2788
  982MOL0     H35448   8.195   3.106  10.954  2.7680 -1.0987  0.0126
  982MOL0     H35449   8.079   3.137  11.138  1.2894  0.2080 -0.4315
  982MOL0     H35450   8.005   3.250  11.024 -0.1380 -3.4412 -0.4551
  982MOL0     H35451   7.955   3.402  11.236 -0.5819  0.1611  2.9261
  982MOL0     H35452   7.875   3.239  11.194  0.3093  1.3900 -2.5005
  982MOL0     H35453   8.017   3.135  11.381 -1.5626  0.3128 -1.0773
  982MOL0     H35454   8.118   3.267  11.392  0.2519 -0.8607 -0.8742
  982MOL0     H35455   7.946   3.406  11.501  1.2232 -0.4034  0.4467
  982MOL0     H35456   7.815   3.280  11.448  0.4408 -1.8607 -0.1032
  982MOL0     H35457   8.032   3.207  11.647  0.0203 -1.3140  1.8728
  982MOL0     H35458   7.881   3.127  11.580  1.8751  0.3438 -1.2243
  982MOL0     H35459   7.881   3.390  11.734  1.1886  0.4430 -1.1613
  982MOL0     H35460   7.746   3.262  11.711  0.8847 -2.6414 -0.3500
  982MOL0     H35461   7.886   3.098  11.830 -2.4897  1.6958 -3.9150
  982MOL0     H35462   7.804   3.219  11.926 -0.3974 -1.8107 -1.2759
  982MOL0     H35463   8.047   3.175  11.992 -1.0603 -0.2368 -0.1868
  982MOL0     H35464   8.101   3.257  11.844 -0.3319  3.1950 -0.2586
  982MOL0     H35465   8.066   3.525  11.830  3.2574 -2.6358  1.2942
  982MOL0     H35466   7.829   3.746  12.005 -0.7656 -1.4089  0.0774
  982MOL0     H35467   7.972   3.759  11.889  1.7715  2.3659  1.6480
  982MOL0     H35468   7.970   3.794  12.179 -0.5672  0.4721 -0.9549
  982MOL0     H35469   8.126   3.767  12.080  1.2752  1.1271 -0.7697
  982MOL0     H35470   8.081   3.951  11.934  0.8614 -1.2610 -0.7191
  982MOL0     H35471   7.918   3.982  12.004  1.6376  2.3264 -2.0149
  982MOL0     H35472   8.159   3.980  12.190  0.9508  0.1778 -0.3225
  982MOL0     H35473   8.163   4.113  12.075  0.4224  0.1134  0.5024
  982MOL0     H35474   7.935   4.239  11.984  2.8110 -0.7573 -0.2873
  982MOL0     H35475   7.754   4.544  11.932 -1.9240 -1.6031  0.0008
  982MOL0     H35476   7.797   4.386  11.859 -0.9896  0.4911  0.5207
  982MOL0     H35477   7.915   4.510  11.862 -0.1819 -2.4165 -1.3728
  982MOL0     H35478   7.909   4.900  12.291 -1.1771 -1.5888 -0.5450
  982MOL0     H35479   7.842   5.131  12.284  1.2423 -0.2304 -2.3015
  982MOL0     H35480   7.377   5.172  12.365  0.4959 -0.1196 -0.8901
  982MOL0     H35481   7.490   5.288  12.458  1.4345  1.1848 -0.9543
  982MOL0     H35482   7.446   5.421  12.226 -1.7098  0.8254 -0.9878
  982MOL0     H35483   7.315   5.303  12.205 -0.1128 -2.8743  2.1822
  982MOL0     H35484   7.330   5.461  12.467 -2.0835  1.1373  0.3738
  982MOL0     H35485   7.222   5.346  12.427  3.4148 -2.1239  2.1871
  982MOL0     H35486   7.151   5.491  12.220 -0.1434  2.0983 -0.4872
  982MOL0     H35487   7.275   5.613  12.265 -0.6483  1.2989 -1.2164
  982MOL0     H35488   7.048   5.547  12.442  0.2408 -0.4481  0.5839
  982MOL0     H35489   7.177   5.673  12.469  0.4504 -0.0617 -0.4956
  982MOL0     H35490   7.003   5.661  12.222 -1.5653 -0.2874  0.8043
  982MOL0     H35491   7.118   5.786  12.266 -2.2098  2.5154  0.2678
  982MOL0     H35492   6.981   5.870  12.450 -0.4130  1.1287  0.2431
  982MOL0     H35493   6.876   5.728  12.443 -0.7207  1.6032  0.6856
  982MOL0     H35494   6.787   5.820  12.224 -0.0042  0.1083 -0.9794
  982MOL0     H35495   6.928   5.905  12.207 -0.9160 -1.9840 -0.7092
  982MOL0     H35496   7.422   4.976  12.275 -0.8459 -2.4633  2.5897
  982MOL0     H35497   7.514   4.756  12.272  0.5618 -1.1439  2.3057
  982MOL0     H35498   7.870   4.513  12.386  0.6418  3.7888 -2.6486
  982MOL0     H35499   7.966   4.262  12.404  1.0097 -1.5722 -0.6986
  982MOL0     H35500   8.334   3.506  11.032  1.0900  0.1885  0.3761
  982MOL0     H35501   8.459   3.501  10.816 -0.6911 -1.4332 -3.5717
  982MOL0     H35502   8.457   3.297  10.402 -0.4300  0.4754 -1.7947
  982MOL0     H35503   8.591   3.392  10.203  2.6491  0.6413 -1.7461
  982MOL0     H35504   9.013   3.308  10.162 -1.7677 -2.3982  2.6509
  982MOL0     H35505   8.950   3.177  10.069 -0.3138 -0.0413 -0.8037
  982MOL0     H35506   9.081   3.317   9.913 -0.5926 -1.7825 -0.2670
  982MOL0     H35507   9.013   3.467   9.968  1.6040 -0.8517  0.5973
  982MOL0     H35508   8.795   3.382   9.862  0.7799  1.8761  0.5957
  982MOL0     H35509   8.933   3.416   9.748 -1.1328  1.3835  0.9446
  982MOL0     H35510   8.841   3.153   9.849 -1.0944  1.0991  0.2462
  982MOL0     H35511   8.998   3.160   9.793  1.0640  0.6273 -0.4046
  982MOL0     H35512   8.798   3.199   9.415  0.9367  0.2881  0.2085
  982MOL0     H35513   8.927   3.183  10.332 -0.0311  2.5031 -1.4134
  982MOL0     H35514   8.928   3.091  10.525  0.3177  1.7280  0.3964
  982MOL0     H35515   8.849   3.157  10.659  1.8732 -0.2195 -0.1778
  982MOL0     H35516   8.800   2.992  10.579 -3.5029  0.1990 -1.1833
  983MOL0     O35517   2.109   1.200   5.456 -0.0402 -0.3804 -0.0245
  983MOL0     C35518   2.005   1.278   5.459 -1.2993  0.1497 -0.5164
  983MOL0     O35519   1.897   1.259   5.533  0.1199 -0.4963 -0.2653
  983MOL0     C35520   1.904   1.180   5.648  0.5017  0.3458 -0.3416
  983MOL0     C35521   1.931   1.237   5.774  0.8076 -0.6334  0.2103
  983MOL0     C35522   1.944   1.163   5.892  0.8459 -0.3981 -0.0347
  983MOL0     C35523   1.913   1.022   5.884 -0.6213  0.3658 -0.7439
  983MOL0     O35524   1.940   0.929   5.983 -0.2392 -0.1979 -0.4742
  983MOL0     C35525   1.952   0.986   6.115  0.2523  0.2423 -0.7162
  983MOL0     C35526   1.986   0.862   6.205  0.0602 -0.3531 -0.2097
  983MOL0     C35527   2.121   0.792   6.173  0.2074 -0.2216  0.4241
  983MOL0     C35528   2.144   0.725   6.027  0.0887  0.7929 -0.3125
  983MOL0     C35529   2.270   0.636   6.003 -0.7541 -0.0251 -0.4998
  983MOL0     C35530   2.273   0.501   6.093 -0.3594 -0.0364  0.3607
  983MOL0     C35531   2.401   0.421   6.105  0.5947 -0.9473  0.3215
  983MOL0     C35532   2.464   0.461   6.237  0.2582  0.2827 -1.2008
  983MOL0     N35533   2.525   0.588   6.224  0.7354 -0.9641  0.6302
  983MOL0     C35534   2.478   0.711   6.273 -0.8087  0.4918 -0.5740
  983MOL0     C35535   2.587   0.795   6.243  0.2982 -0.5279 -0.6206
  983MOL0     C35536   2.607   0.944   6.257  1.1306 -0.4898 -0.4471
  983MOL0     C35537   2.651   0.980   6.391 -0.4418 -0.3215 -0.1600
  983MOL0     C35538   2.781   0.936   6.445 -0.7021  0.1722 -0.9777
  983MOL0     C35539   2.824   0.998   6.581  0.2813  0.9399 -0.5259
  983MOL0     O35540   2.705   1.002   6.664 -0.3917 -0.1131  0.1428
  983MOL0     C35541   2.640   1.120   6.687  0.6449 -0.1574 -0.8528
  983MOL0     C35542   2.520   1.111   6.756 -0.4353  0.0569  0.4349
  983MOL0     C35543   2.447   1.231   6.788 -0.0896 -0.1349 -0.2837
  983MOL0     C35544   2.334   1.202   6.882  0.6075  0.2674 -0.4020
  983MOL0     C35545   2.492   1.364   6.750  0.1605  0.0385  0.0419
  983MOL0     C35546   2.437   1.489   6.799 -0.0593  0.8769 -0.6322
  983MOL0     O35547   2.475   1.592   6.730 -0.2722 -0.5134  0.4305
  983MOL0     C35548   2.400   1.702   6.705  0.6551 -0.1572 -0.3088
  983MOL0     C35549   2.470   1.810   6.649 -0.3672 -0.0554 -0.1225
  983MOL0     C35550   2.397   1.922   6.600 -0.4541  0.2591  0.3036
  983MOL0     C35551   2.263   1.931   6.624  0.0901 -0.9442  0.5443
  983MOL0     O35552   2.193   2.040   6.584  0.0991  0.4796  0.2584
  983MOL0     C35553   2.073   2.090   6.663  0.2183  0.4347 -0.0449
  983MOL0     C35554   2.109   2.105   6.818  0.8546  0.2515 -0.2928
  983MOL0     C35555   2.216   2.215   6.852  0.9940  0.4823  0.3119
  983MOL0     C35556   2.166   2.356   6.842 -1.1058 -0.1155  0.1066
  983MOL0     C35557   2.268   2.454   6.786 -0.4313  0.4452 -0.0903
  983MOL0     C35558   2.227   2.602   6.792  0.4191  0.0848  0.4651
  983MOL0     C35559   2.347   2.684   6.731 -0.7383 -0.0338 -0.9297
  983MOL0     C35560   2.403   2.792   6.825 -0.4929  0.0753  0.3184
  983MOL0    Cl35561   2.490   2.719   6.949 -0.0047 -0.6545 -0.1547
  983MOL0     C35562   2.195   1.820   6.675 -0.1021  0.7812 -0.4265
  983MOL0     C35563   2.261   1.707   6.726 -0.5990  0.4234 -1.3929
  983MOL0     O35564   2.352   1.481   6.888 -0.5167 -0.0274  0.5310
  983MOL0     C35565   2.608   1.363   6.668 -0.6327 -0.5030 -0.3217
  983MOL0     C35566   2.676   1.251   6.646 -0.1453  0.7837  0.3987
  983MOL0     N35567   2.680   0.725   6.185 -0.4381 -0.4195  0.5641
  983MOL0     N35568   2.657   0.605   6.178  0.1130  0.2017  0.0414
  983MOL0     C35569   1.881   0.970   5.757 -0.2918  0.0910 -0.6836
  983MOL0     C35570   1.881   1.048   5.641 -0.0138  0.2524 -0.0176
  983MOL0     C35571   1.992   1.384   5.362  0.1985 -0.0734  0.0110
  983MOL0     C35572   2.091   1.480   5.369 -0.2762 -0.4589 -0.1701
  983MOL0     C35573   2.095   1.584   5.274  0.6105  0.2203 -0.9027
  983MOL0     C35574   1.987   1.598   5.184 -0.7663 -0.6650  0.7667
  983MOL0     O35575   1.981   1.700   5.091  0.3266  1.0741 -0.1503
  983MOL0     C35576   2.028   1.830   5.112 -0.3378 -1.1020 -1.9035
  983MOL0     C35577   2.047   1.904   4.984 -0.1969  0.9531  0.3073
  983MOL0     C35578   2.177   1.868   4.921  0.3371  0.4098  1.0257
  983MOL0     C35579   2.183   1.722   4.865 -0.1539  0.3262  0.7810
  983MOL0     C35580   2.317   1.713   4.798 -0.5036 -1.3444 -0.3940
  983MOL0     C35581   2.416   1.723   4.731 -0.1237  0.7484  0.7653
  983MOL0     C35582   1.890   1.501   5.182  0.3364  0.2403  0.2592
  983MOL0     C35583   1.889   1.401   5.276 -0.0358  0.1778 -0.3552
  983MOL0     C35584   1.776   1.299   5.257 -0.4111 -0.1873  0.4667
  983MOL0     H35585   1.953   1.343   5.772  2.4058 -0.9318 -0.8051
  983MOL0     H35586   1.960   1.212   5.988 -1.3368 -0.1599  0.2549
  983MOL0     H35587   1.857   1.026   6.151  0.2103  1.2832 -1.9400
  983MOL0     H35588   2.033   1.060   6.115 -0.0602  0.6653 -3.1508
  983MOL0     H35589   1.982   0.877   6.313  2.6983  0.9285 -0.2073
  983MOL0     H35590   1.902   0.794   6.189 -1.6914  1.8474 -0.9048
  983MOL0     H35591   2.199   0.869   6.181  2.2063 -1.8830 -1.5892
  983MOL0     H35592   2.138   0.719   6.253 -2.1597 -1.4110 -0.0850
  983MOL0     H35593   2.058   0.662   6.000  3.2196 -4.9450  1.3726
  983MOL0     H35594   2.148   0.809   5.958  0.4165 -0.7265 -2.2448
  983MOL0     H35595   2.353   0.703   6.029 -1.2492  0.2612  0.3931
  983MOL0     H35596   2.284   0.604   5.900  1.8927  0.8535 -0.5015
  983MOL0     H35597   2.209   0.507   6.183 -1.8789  2.3489 -0.7594
  983MOL0     H35598   2.203   0.440   6.035 -1.5482  2.7234 -1.3281
  983MOL0     H35599   2.460   0.426   6.013 -0.2725  3.1226 -0.1766
  983MOL0     H35600   2.379   0.313   6.106  0.5808 -0.9695  2.4351
  983MOL0     H35601   2.397   0.461   6.323  0.4465 -0.3355 -1.0494
  983MOL0     H35602   2.545   0.400   6.276  0.6089  0.2798 -1.9121
  983MOL0     H35603   2.382   0.744   6.312 -1.9015  1.8896 -4.0650
  983MOL0     H35604   2.509   0.991   6.248  0.2895 -2.3853 -1.8124
  983MOL0     H35605   2.675   0.981   6.179  1.7205 -0.7403 -0.0589
  983MOL0     H35606   2.653   1.090   6.386 -2.5139 -0.2866 -1.2262
  983MOL0     H35607   2.583   0.940   6.466 -1.0348  0.9246 -0.0113
  983MOL0     H35608   2.790   0.827   6.457 -0.4206  0.3294  0.3736
  983MOL0     H35609   2.853   0.947   6.363 -1.5661 -3.4152 -2.4350
  983MOL0     H35610   2.904   0.956   6.643 -0.0634  3.3378  1.7346
  983MOL0     H35611   2.863   1.097   6.559  2.0731  0.3089 -0.3340
  983MOL0     H35612   2.485   1.012   6.783 -2.0492 -0.3693 -2.7169
  983MOL0     H35613   2.299   1.098   6.878  2.7949 -0.5172 -0.5527
  983MOL0     H35614   2.251   1.265   6.848 -1.6879 -2.6885 -0.6713
  983MOL0     H35615   2.350   1.233   6.986  3.1422 -0.2338 -0.5944
  983MOL0     H35616   2.576   1.804   6.627 -0.0286  2.9376  0.2907
  983MOL0     H35617   2.448   2.004   6.551  0.2701 -0.2761  0.1480
  983MOL0     H35618   2.040   2.182   6.613  0.8430 -0.4439 -2.2279
  983MOL0     H35619   1.987   2.022   6.654 -0.6050  1.4311  0.1820
  983MOL0     H35620   2.015   2.129   6.868 -1.1949 -2.5542 -2.4218
  983MOL0     H35621   2.150   2.009   6.851  1.8464 -0.0481 -2.2315
  983MOL0     H35622   2.309   2.204   6.794  1.5525 -2.9966  1.6145
  983MOL0     H35623   2.255   2.212   6.955 -1.9590  2.1825  1.6022
  983MOL0     H35624   2.146   2.401   6.939 -0.8854  2.6861 -1.0500
  983MOL0     H35625   2.074   2.361   6.783  0.8762  1.1548 -3.1396
  983MOL0     H35626   2.361   2.439   6.841 -0.5668  3.1162  1.0135
  983MOL0     H35627   2.280   2.424   6.681 -1.8824 -0.0252 -0.1517
  983MOL0     H35628   2.200   2.634   6.893  1.5935 -0.0402  0.8285
  983MOL0     H35629   2.136   2.612   6.732 -1.9358 -0.5121  3.7072
  983MOL0     H35630   2.300   2.746   6.654 -2.0141  0.2160  0.0299
  983MOL0     H35631   2.425   2.625   6.681 -0.0958 -0.9347  1.0446
  983MOL0     H35632   2.330   2.836   6.894 -2.0670 -3.8202  1.3885
  983MOL0     H35633   2.466   2.863   6.771 -0.5064 -0.2369 -0.1117
  983MOL0     H35634   2.087   1.820   6.687  0.0610  0.9733  1.1793
  983MOL0     H35635   2.205   1.633   6.782  3.7012 -1.2046  1.2035
  983MOL0     H35636   2.649   1.459   6.638 -0.7143  0.4717  2.3870
  983MOL0     H35637   2.775   1.259   6.601 -0.6062  0.5120 -0.6742
  983MOL0     H35638   1.877   0.862   5.753  0.0443 -0.0300  1.2199
  983MOL0     H35639   1.868   1.006   5.542  1.9095 -0.3390 -0.0710
  983MOL0     H35640   2.183   1.482   5.426 -0.6379  1.3706  0.4263
  983MOL0     H35641   2.189   1.638   5.276  1.4929 -0.9529  4.9846
  983MOL0     H35642   1.955   1.891   5.166  1.6684  0.1799 -0.5250
  983MOL0     H35643   2.112   1.835   5.182 -0.9541  1.2721 -1.2469
  983MOL0     H35644   2.048   2.011   5.004 -0.6360  0.8230  1.0949
  983MOL0     H35645   1.966   1.881   4.915  1.5107  0.0085 -1.5057
  983MOL0     H35646   2.211   1.939   4.846  2.3651 -1.7050 -0.2012
  983MOL0     H35647   2.260   1.884   4.991  1.3465 -3.6453  1.0226
  983MOL0     H35648   2.105   1.710   4.789  0.1335  0.1963  0.5040
  983MOL0     H35649   2.174   1.638   4.934 -1.6670 -0.6148 -0.4812
  983MOL0     H35650   2.498   1.736   4.663  0.1823 -2.8245  0.2339
  983MOL0     H35651   1.827   1.506   5.094 -0.4710 -2.2444  0.6407
  983MOL0     H35652   1.777   1.211   5.323  3.1319  0.8921  2.0939
  983MOL0     H35653   1.681   1.351   5.270  0.0455  0.1957  2.6124
  983MOL0     H35654   1.784   1.268   5.152  0.6171 -1.5696  0.9172
  984MOL0     O35655   8.723   8.761   7.910 -0.8012  0.2970 -0.0222
  984MOL0     C35656   8.699   8.875   7.937 -0.8571 -0.9736 -0.4008
  984MOL0     O35657   8.771   8.943   8.030 -0.0198 -0.0327  0.1655
  984MOL0     C35658   8.902   8.920   8.066 -0.2273  0.4947 -0.9019
  984MOL0     C35659   9.001   8.862   7.982 -0.0041 -0.6942 -0.0012
  984MOL0     C35660   9.126   8.840   8.037 -0.5551 -0.6701  0.0409
  984MOL0     C35661   9.164   8.881   8.165  0.3251 -0.9835 -0.4687
  984MOL0     O35662   9.299   8.874   8.191  0.0114  0.6470  0.6429
  984MOL0     C35663   9.353   8.963   8.286 -0.2590  0.2282  0.0038
  984MOL0     C35664   9.497   8.979   8.269 -0.1150  0.1593 -0.4247
  984MOL0     C35665   9.578   9.001   8.405  1.0973 -0.6404 -0.0440
  984MOL0     C35666   9.730   8.978   8.398  0.0469  0.0292 -0.7399
  984MOL0     C35667   9.796   9.016   8.532 -0.3306 -0.1262 -0.6044
  984MOL0     C35668   9.945   9.020   8.524 -0.6866 -0.2767 -0.0310
  984MOL0     C35669  10.017   9.022   8.664 -0.4430  0.4291 -0.9720
  984MOL0     C35670  10.011   9.158   8.737  0.1843 -0.2599  1.1281
  984MOL0     N35671  10.136   9.239   8.703 -0.1396 -0.3906  1.0063
  984MOL0     C35672  10.263   9.201   8.738 -0.2229 -0.1090 -0.0832
  984MOL0     C35673  10.337   9.296   8.667 -0.7348  0.7796  0.5571
  984MOL0     C35674  10.486   9.293   8.651  0.1560  0.0699  0.0039
  984MOL0     C35675  10.532   9.229   8.522  0.1654  0.5945 -0.4388
  984MOL0     C35676  10.670   9.262   8.465  0.0986  0.7161 -0.2045
  984MOL0     C35677  10.706   9.161   8.360  0.5779  0.2480 -0.2089
  984MOL0     O35678  10.851   9.160   8.347  0.3141  0.3813  0.2534
  984MOL0     C35679  10.892   9.078   8.258  0.8768 -0.1380  0.1092
  984MOL0     C35680  10.814   9.003   8.165  0.1241 -0.2300 -0.0919
  984MOL0     C35681  10.869   8.910   8.079 -0.5506 -0.0532  0.9133
  984MOL0     C35682  10.778   8.849   7.977  0.2662  0.6942  0.4647
  984MOL0     C35683  11.001   8.887   8.085 -0.0714 -0.3011 -0.7876
  984MOL0     C35684  11.061   8.779   8.013  0.0586  0.3529  0.2075
  984MOL0     O35685  11.022   8.743   7.880  0.4027 -0.3150  0.0860
  984MOL0     C35686  11.081   8.642   7.811 -0.2177  2.0268  0.9675
  984MOL0     C35687  11.217   8.615   7.788  0.6646 -1.0080 -0.1196
  984MOL0     C35688  11.256   8.507   7.716  0.1749  0.5342  0.1074
  984MOL0     C35689  11.168   8.429   7.647  0.5546  0.7706  0.7128
  984MOL0     O35690  11.225   8.345   7.544  0.2788 -0.0436 -0.2961
  984MOL0     C35691  11.165   8.220   7.540 -1.4572  1.4405  0.0809
  984MOL0     C35692  11.220   8.117   7.449 -0.3244 -0.3686 -0.4181
  984MOL0     C35693  11.374   8.089   7.481  0.1754  0.2662 -0.2131
  984MOL0     C35694  11.425   7.950   7.456 -1.0244 -1.0737 -0.8969
  984MOL0     C35695  11.445   7.919   7.306 -0.8944  1.0320 -0.7464
  984MOL0     C35696  11.502   7.783   7.283 -0.1088 -0.4766 -0.5345
  984MOL0     C35697  11.653   7.775   7.285 -0.1452  0.3391 -0.3404
  984MOL0     C35698  11.710   7.645   7.239 -0.5930 -0.0023 -0.0731
  984MOL0    Cl35699  11.624   7.496   7.285 -0.2853  0.6420 -0.4771
  984MOL0     C35700  11.025   8.458   7.655 -0.0809  0.1293  0.3227
  984MOL0     C35701  10.986   8.555   7.751  0.2877 -0.0551  0.3779
  984MOL0     O35702  11.144   8.718   8.069  0.3431 -0.1282 -0.4026
  984MOL0     C35703  11.081   8.968   8.170 -0.6932  1.3995  0.5004
  984MOL0     C35704  11.031   9.073   8.241  0.6092  0.1105  0.3094
  984MOL0     N35705  10.262   9.380   8.597  0.2860 -1.0350 -0.4028
  984MOL0     N35706  10.139   9.358   8.632  0.4682  0.1301 -1.1928
  984MOL0     C35707   9.067   8.954   8.239 -0.2152  0.5017  0.3699
  984MOL0     C35708   8.938   8.971   8.187  0.4066 -0.8270 -0.1209
  984MOL0     C35709   8.584   8.936   7.877  0.1469  0.3430 -0.2823
  984MOL0     C35710   8.582   9.070   7.858  0.5250 -0.8013 -0.0710
  984MOL0     C35711   8.474   9.137   7.793  0.5479  0.0831  0.2129
  984MOL0     C35712   8.370   9.064   7.736  0.7002 -0.7809  0.3080
  984MOL0     O35713   8.258   9.127   7.680  0.5068  0.0020  0.4854
  984MOL0     C35714   8.134   9.054   7.647  0.1931 -0.6047  0.7674
  984MOL0     C35715   8.033   9.162   7.591 -0.9781  0.5087  0.6924
  984MOL0     C35716   8.085   9.274   7.490  0.1757 -0.2488 -0.6099
  984MOL0     C35717   7.959   9.325   7.416 -0.1900  0.5779 -0.3198
  984MOL0     C35718   7.991   9.423   7.315 -0.4669  0.8224  0.4171
  984MOL0     C35719   8.010   9.506   7.232 -0.1017 -0.2629 -0.9900
  984MOL0     C35720   8.379   8.931   7.740  0.2777  0.1369  1.1910
  984MOL0     C35721   8.478   8.859   7.809 -0.2686 -1.8838 -0.1546
  984MOL0     C35722   8.478   8.713   7.800  0.7887 -0.0367 -0.4635
  984MOL0     H35723   8.977   8.825   7.883  0.2690  0.4578 -0.5182
  984MOL0     H35724   9.194   8.813   7.957 -3.0501  3.3476 -3.9216
  984MOL0     H35725   9.325   8.930   8.387 -2.6068 -0.0983 -0.7029
  984MOL0     H35726   9.309   9.062   8.276 -1.5654 -0.2761  0.4721
  984MOL0     H35727   9.535   8.885   8.227 -4.6479 -2.1761  0.0330
  984MOL0     H35728   9.526   9.060   8.201  1.2507 -0.3293 -0.4561
  984MOL0     H35729   9.563   9.105   8.438 -3.3467 -1.2515  0.4469
  984MOL0     H35730   9.529   8.938   8.480 -1.8491 -0.8709 -1.9907
  984MOL0     H35731   9.742   8.874   8.365  0.8903  1.2036 -4.6619
  984MOL0     H35732   9.773   9.051   8.328 -2.1849  1.6920 -0.4778
  984MOL0     H35733   9.758   8.945   8.606 -1.8743  2.1524  0.9390
  984MOL0     H35734   9.762   9.118   8.552 -3.9027 -0.5821 -3.2428
  984MOL0     H35735   9.981   8.940   8.459  2.6219  2.1982 -1.5416
  984MOL0     H35736   9.971   9.115   8.475  0.7302 -0.7686 -0.2900
  984MOL0     H35737  10.125   9.004   8.656 -0.4449  0.5460 -1.2580
  984MOL0     H35738   9.970   8.940   8.721  2.3292  0.3394  1.4532
  984MOL0     H35739   9.923   9.212   8.703  1.1196  1.2721  1.0396
  984MOL0     H35740  10.010   9.140   8.845  3.5335  1.3375  1.5628
  984MOL0     H35741  10.292   9.110   8.790  0.6830  1.1533  1.7638
  984MOL0     H35742  10.537   9.261   8.742  0.2635 -0.1305 -0.1251
  984MOL0     H35743  10.510   9.399   8.650 -0.8298  0.3484  2.1919
  984MOL0     H35744  10.520   9.121   8.534 -1.7194  0.7407 -0.7898
  984MOL0     H35745  10.474   9.264   8.436  1.2274 -2.8391 -2.7643
  984MOL0     H35746  10.659   9.358   8.415 -1.4741  0.1831 -0.9633
  984MOL0     H35747  10.739   9.265   8.549  1.3793 -1.7771 -1.0600
  984MOL0     H35748  10.668   9.065   8.395  1.3965  0.8297  2.5149
  984MOL0     H35749  10.661   9.196   8.267 -2.1095 -0.2689  0.8020
  984MOL0     H35750  10.709   9.023   8.146  0.9885  2.8874 -2.2903
  984MOL0     H35751  10.813   8.900   7.888  5.0555 -1.2419  0.9648
  984MOL0     H35752  10.671   8.866   7.991  0.3068  1.6038 -0.2758
  984MOL0     H35753  10.773   8.740   7.983  0.3546  0.6559 -0.1996
  984MOL0     H35754  11.287   8.690   7.823 -1.0489  0.4697  0.3479
  984MOL0     H35755  11.361   8.483   7.701 -0.3966 -0.9589 -1.8604
  984MOL0     H35756  11.164   8.183   7.643  0.9252 -0.9877 -0.6770
  984MOL0     H35757  11.063   8.244   7.511 -1.9167  1.0712  1.3346
  984MOL0     H35758  11.160   8.027   7.468  2.9776 -2.7189 -0.2148
  984MOL0     H35759  11.210   8.153   7.347  0.9011 -1.8106 -1.0801
  984MOL0     H35760  11.387   8.126   7.583 -1.5982  1.4796 -0.3832
  984MOL0     H35761  11.434   8.154   7.417 -1.5041  1.2498 -0.8698
  984MOL0     H35762  11.346   7.887   7.499 -0.8945 -0.6322  0.0106
  984MOL0     H35763  11.520   7.938   7.510 -1.3201  1.2936  0.2704
  984MOL0     H35764  11.353   7.908   7.248  1.5666 -1.6034 -4.6094
  984MOL0     H35765  11.505   7.999   7.262  0.9292  0.9610  1.4027
  984MOL0     H35766  11.479   7.766   7.177  0.9538  1.7186 -1.1597
  984MOL0     H35767  11.452   7.709   7.346  2.1262 -1.6451 -0.0366
  984MOL0     H35768  11.698   7.803   7.381 -0.1888  1.1514 -0.5512
  984MOL0     H35769  11.687   7.855   7.218  0.9297 -1.2558 -1.7654
  984MOL0     H35770  11.815   7.641   7.270 -1.3584  0.3810  2.8769
  984MOL0     H35771  11.700   7.639   7.131 -1.2397  0.7133 -0.0641
  984MOL0     H35772  10.960   8.388   7.604  5.0029 -4.1788 -1.1414
  984MOL0     H35773  10.883   8.587   7.759 -0.2610 -0.4525 -3.4013
  984MOL0     H35774  11.183   8.933   8.171 -2.1219 -3.7693 -1.1562
  984MOL0     H35775  11.101   9.131   8.299 -0.0056  1.5138 -0.3231
  984MOL0     H35776   9.101   8.999   8.332  1.1004  1.7878 -0.6699
  984MOL0     H35777   8.864   9.023   8.246 -1.5136 -3.3147 -0.1719
  984MOL0     H35778   8.651   9.135   7.909 -1.0132 -1.4820  3.1565
  984MOL0     H35779   8.473   9.245   7.780  1.1374  0.1571  0.7431
  984MOL0     H35780   8.154   8.997   7.556 -1.4824 -1.7655  1.0717
  984MOL0     H35781   8.085   9.005   7.732  1.9481 -3.0830  0.4619
  984MOL0     H35782   8.004   9.219   7.679  0.4124  1.4384  0.5804
  984MOL0     H35783   7.938   9.124   7.553  1.0698 -1.0338 -3.6409
  984MOL0     H35784   8.133   9.359   7.538 -1.4802  0.3506  0.0658
  984MOL0     H35785   8.159   9.228   7.424  0.8923 -0.3546  0.2381
  984MOL0     H35786   7.892   9.370   7.489  2.2634 -3.6467  5.2278
  984MOL0     H35787   7.898   9.245   7.374 -1.6196  0.3260  2.0661
  984MOL0     H35788   8.015   9.595   7.173 -0.8344  2.5993  2.8735
  984MOL0     H35789   8.305   8.868   7.691  0.8614  1.1267 -1.0855
  984MOL0     H35790   8.459   8.674   7.901  0.1354 -3.1812 -1.6778
  984MOL0     H35791   8.395   8.664   7.748  2.1156 -1.1546 -1.6168
  984MOL0     H35792   8.566   8.677   7.747  1.4973  0.8042  0.1195
  985MOL0     O35793  10.579   6.659  10.406  0.3223 -1.6157  0.4712
  985MOL0     C35794  10.583   6.734  10.505  0.6971  0.2043  0.1693
  985MOL0     O35795  10.478   6.809  10.553 -0.9186  0.5742 -0.3856
  985MOL0     C35796  10.369   6.826  10.476 -0.0285  0.0454  0.1282
  985MOL0     C35797  10.377   6.880  10.350  0.7670  0.8347  0.2827
  985MOL0     C35798  10.256   6.898  10.271  0.3883 -0.5293 -0.2974
  985MOL0     C35799  10.135   6.839  10.317  0.2315 -0.5301 -0.1244
  985MOL0     O35800  10.030   6.860  10.238 -0.2988 -0.0798 -0.1983
  985MOL0     C35801   9.927   6.768  10.235 -0.0209 -0.1895 -0.5922
  985MOL0     C35802   9.870   6.753  10.087 -0.3798 -0.2241  0.8862
  985MOL0     C35803   9.752   6.656  10.055 -0.1236  0.8392 -0.7210
  985MOL0     C35804   9.708   6.645   9.902  0.1946  0.0014  0.2566
  985MOL0     C35805   9.552   6.641   9.874  0.8249  0.1997 -0.5662
  985MOL0     C35806   9.497   6.506   9.907 -0.5424 -0.0402  0.0361
  985MOL0     C35807   9.345   6.490   9.888 -0.2166 -0.7099  0.4052
  985MOL0     C35808   9.294   6.369   9.961 -0.8484 -0.2580  0.4982
  985MOL0     N35809   9.271   6.387  10.107 -0.4963  0.5812 -0.0758
  985MOL0     C35810   9.185   6.480  10.158  0.4799  0.1951 -0.5934
  985MOL0     C35811   9.197   6.477  10.296 -0.0100  0.9069  0.5971
  985MOL0     C35812   9.127   6.575  10.381 -0.0446  0.2851  0.2253
  985MOL0     C35813   9.153   6.549  10.533  0.9950 -0.0587 -0.1474
  985MOL0     C35814   9.082   6.664  10.613  0.2300  1.5700 -0.4909
  985MOL0     C35815   9.084   6.633  10.761 -0.6158 -0.3844  0.1595
  985MOL0     O35816   9.219   6.634  10.806 -0.2065  0.7179  0.5472
  985MOL0     C35817   9.249   6.547  10.915 -0.0780 -0.7550  0.5053
  985MOL0     C35818   9.290   6.610  11.035  1.0101  0.6041 -0.6133
  985MOL0     C35819   9.312   6.531  11.147 -0.2190 -0.5943 -1.2664
  985MOL0     C35820   9.365   6.619  11.263  0.1987  0.1697 -0.2093
  985MOL0     C35821   9.284   6.394  11.151  0.1196  0.3780  0.9946
  985MOL0     C35822   9.304   6.300  11.270 -0.0633 -0.4568 -0.6488
  985MOL0     O35823   9.331   6.363  11.395  0.2286  0.2584  0.5392
  985MOL0     C35824   9.288   6.311  11.515  0.1778  0.0072  0.3490
  985MOL0     C35825   9.188   6.210  11.535  0.2655  0.4698  0.1921
  985MOL0     C35826   9.155   6.178  11.668 -0.4908  0.9873 -0.0761
  985MOL0     C35827   9.198   6.247  11.773 -0.4745 -0.0468 -1.1160
  985MOL0     O35828   9.154   6.228  11.897  0.3047 -0.1440 -0.3460
  985MOL0     C35829   9.046   6.149  11.929  0.6367  0.0396  0.5419
  985MOL0     C35830   8.918   6.219  11.877 -0.0441 -0.2522  0.0606
  985MOL0     C35831   8.858   6.297  11.997 -0.7716 -0.5124  0.5453
  985MOL0     C35832   8.735   6.376  11.953 -0.0369  0.1317  0.1597
  985MOL0     C35833   8.666   6.482  12.039 -0.3451 -0.2029 -0.1228
  985MOL0     C35834   8.739   6.532  12.174  0.4294 -0.0477 -0.3517
  985MOL0     C35835   8.714   6.441  12.287  0.9516 -0.0721  0.4573
  985MOL0     C35836   8.809   6.441  12.407 -0.2864 -0.9386  0.3416
  985MOL0    Cl35837   8.951   6.348  12.359  0.0053  0.3897 -0.5263
  985MOL0     C35838   9.298   6.346  11.753  0.4631  0.0687  0.7808
  985MOL0     C35839   9.329   6.380  11.625  0.3596  0.0064 -0.5075
  985MOL0     O35840   9.275   6.178  11.259 -0.0207  0.0349  1.2139
  985MOL0     C35841   9.239   6.329  11.032  0.8402 -0.4432  0.5312
  985MOL0     C35842   9.228   6.409  10.916  0.6261 -0.0403 -0.3424
  985MOL0     N35843   9.298   6.379  10.316  0.4440  0.2828 -0.4057
  985MOL0     N35844   9.325   6.314  10.208 -1.0709  0.2434 -0.7112
  985MOL0     C35845  10.131   6.773  10.440  0.7439  0.2792 -0.1597
  985MOL0     C35846  10.249   6.765  10.516 -0.1109  0.6983 -0.1394
  985MOL0     C35847  10.717   6.760  10.564 -0.7708  0.0130  1.2669
  985MOL0     C35848  10.734   6.881  10.634 -0.3362 -0.5036  0.2342
  985MOL0     C35849  10.856   6.923  10.687 -0.8101 -0.8510 -0.5464
  985MOL0     C35850  10.972   6.854  10.665  0.2812 -0.9487 -0.0749
  985MOL0     O35851  11.080   6.917  10.727  0.3297  0.1323  0.0469
  985MOL0     C35852  11.213   6.869  10.710  0.3545  0.2653 -0.6929
  985MOL0     C35853  11.281   6.902  10.581  0.0851 -0.1957  0.9724
  985MOL0     C35854  11.423   6.844  10.575  0.5612 -0.2856  1.0197
  985MOL0     C35855  11.437   6.689  10.597  0.7446 -0.7850 -0.9364
  985MOL0     C35856  11.352   6.628  10.490  0.0434 -0.9148  0.3642
  985MOL0     C35857  11.276   6.575  10.414 -0.4720  0.4931 -0.1010
  985MOL0     C35858  10.958   6.728  10.603  0.4157 -0.5522  0.0010
  985MOL0     C35859  10.833   6.683  10.547  0.4222 -0.0852  0.4119
  985MOL0     C35860  10.823   6.547  10.482 -0.4997 -0.5289  0.1055
  985MOL0     H35861  10.477   6.914  10.327  1.5279 -1.0804  0.5692
  985MOL0     H35862  10.257   6.943  10.173  1.5845 -1.7082 -0.8596
  985MOL0     H35863   9.847   6.794  10.304 -1.6286 -0.6353 -2.1998
  985MOL0     H35864   9.958   6.667  10.263  0.3364  0.2420  0.6058
  985MOL0     H35865   9.848   6.857  10.062 -1.1547  0.3087  3.4320
  985MOL0     H35866   9.953   6.713  10.028 -1.5628  0.2575 -1.2160
  985MOL0     H35867   9.778   6.553  10.084 -0.0048  1.5595  2.0154
  985MOL0     H35868   9.667   6.684  10.118  0.8821 -2.3185  2.4221
  985MOL0     H35869   9.741   6.739   9.858 -0.4663  1.7529  3.2259
  985MOL0     H35870   9.760   6.572   9.840  0.5681  1.2570 -0.9440
  985MOL0     H35871   9.519   6.652   9.771 -0.3867  0.3826 -0.1808
  985MOL0     H35872   9.500   6.712   9.941  1.5804 -1.1240  1.5335
  985MOL0     H35873   9.559   6.435   9.852  0.5350  1.2166 -0.4178
  985MOL0     H35874   9.517   6.497  10.014 -0.3395  0.1516  0.0152
  985MOL0     H35875   9.318   6.489   9.782 -0.1407  0.3478  0.3677
  985MOL0     H35876   9.292   6.576   9.930  0.8966 -0.6785  1.8295
  985MOL0     H35877   9.200   6.349   9.909 -0.2763 -0.8342 -0.3335
  985MOL0     H35878   9.350   6.279   9.934 -1.4972 -1.3093  2.4253
  985MOL0     H35879   9.112   6.531  10.097 -0.2175 -2.2819 -1.9470
  985MOL0     H35880   9.020   6.580  10.358 -0.3187  0.5345  1.4725
  985MOL0     H35881   9.172   6.672  10.356  4.7849 -1.3166  1.5642
  985MOL0     H35882   9.118   6.447  10.552  2.8591 -0.7655 -0.2601
  985MOL0     H35883   9.259   6.546  10.561  1.4491 -0.0541 -1.7591
  985MOL0     H35884   9.132   6.760  10.596  0.3268  1.1307 -3.3290
  985MOL0     H35885   8.978   6.677  10.582  0.9101  2.8746 -2.4125
  985MOL0     H35886   9.019   6.705  10.811  1.2223  0.4514  1.4642
  985MOL0     H35887   9.025   6.542  10.775  0.4252 -1.1671 -0.3245
  985MOL0     H35888   9.298   6.719  11.032  1.2085  0.5967 -0.3714
  985MOL0     H35889   9.298   6.634  11.348  0.6430  1.8248 -0.1135
  985MOL0     H35890   9.393   6.716  11.222  0.5112 -0.2609 -1.0334
  985MOL0     H35891   9.463   6.590  11.301  0.0056  0.3226  0.4240
  985MOL0     H35892   9.136   6.162  11.454 -1.8151  2.7145  0.0863
  985MOL0     H35893   9.083   6.097  11.665 -1.2632  1.6861 -1.6488
  985MOL0     H35894   9.057   6.052  11.880  1.3008  1.5485 -2.5311
  985MOL0     H35895   9.042   6.132  12.037  4.2846 -1.5908  0.5570
  985MOL0     H35896   8.934   6.284  11.790 -5.9072  0.1740 -1.1372
  985MOL0     H35897   8.835   6.153  11.852 -0.4383  0.5901 -0.9252
  985MOL0     H35898   8.931   6.370  12.029 -0.6389  0.3335 -1.4979
  985MOL0     H35899   8.848   6.230  12.083 -2.5935 -1.6367 -0.4444
  985MOL0     H35900   8.662   6.305  11.912 -1.5840  0.8070  1.6443
  985MOL0     H35901   8.764   6.433  11.864  0.5335  1.5761  1.2328
  985MOL0     H35902   8.654   6.570  11.974 -1.0755 -0.4271 -0.3010
  985MOL0     H35903   8.566   6.453  12.070  0.2318 -1.6787  0.4291
  985MOL0     H35904   8.691   6.623  12.210  0.0684 -0.7533  1.0161
  985MOL0     H35905   8.845   6.557  12.159  0.0830  0.9872 -1.1763
  985MOL0     H35906   8.694   6.340  12.249 -3.1123  0.6888  0.1920
  985MOL0     H35907   8.619   6.486  12.317  1.1651 -0.2783  1.4500
  985MOL0     H35908   8.753   6.397  12.490 -0.8878 -2.1110 -0.6559
  985MOL0     H35909   8.829   6.543  12.442  0.3038 -0.9495  0.0504
  985MOL0     H35910   9.340   6.399  11.838  1.0298  2.5182 -0.9182
  985MOL0     H35911   9.409   6.451  11.607  1.2588 -1.1001 -1.0304
  985MOL0     H35912   9.221   6.223  11.037 -3.6461  0.1812  1.3676
  985MOL0     H35913   9.207   6.381  10.814 -0.2605  1.9613 -0.7603
  985MOL0     H35914  10.052   6.717  10.489  2.0824 -0.8987  0.7837
  985MOL0     H35915  10.235   6.726  10.616 -1.3095 -3.7136 -1.7814
  985MOL0     H35916  10.657   6.957  10.633  1.7771  1.7815  0.5542
  985MOL0     H35917  10.863   7.016  10.743  0.2840 -0.2220 -1.6752
  985MOL0     H35918  11.269   6.898  10.800  1.2908 -0.0807 -1.1487
  985MOL0     H35919  11.218   6.761  10.726 -2.4514 -0.1396 -1.9685
  985MOL0     H35920  11.302   7.008  10.564  2.4749 -0.8463 -0.5992
  985MOL0     H35921  11.226   6.868  10.493 -0.2976  1.0088  0.7269
  985MOL0     H35922  11.470   6.873  10.480 -1.9366  1.1071  0.0990
  985MOL0     H35923  11.472   6.896  10.658 -0.3195 -0.7449  1.8378
  985MOL0     H35924  11.403   6.650  10.694  3.0226 -0.4705  0.0623
  985MOL0     H35925  11.541   6.658  10.582  1.9033  0.3011  3.3750
  985MOL0     H35926  11.200   6.527  10.357 -1.2904  0.1409  1.2557
  985MOL0     H35927  11.047   6.666  10.606 -1.6385 -3.6896  1.0713
  985MOL0     H35928  10.803   6.553  10.375  1.6637  1.3024 -0.2817
  985MOL0     H35929  10.913   6.486  10.487  0.0780  0.2235 -0.6841
  985MOL0     H35930  10.744   6.488  10.529 -1.1423 -0.6276 -1.0429
  986MOL0     O35931   0.518  11.241   4.931 -0.0637  0.5804  0.7782
  986MOL0     C35932   0.442  11.212   5.023 -0.0779  0.0018  1.1925
  986MOL0     O35933   0.470  11.217   5.158 -0.0557  0.2515 -0.2341
  986MOL0     C35934   0.596  11.261   5.183  0.1774  0.2277  0.2103
  986MOL0     C35935   0.620  11.388   5.247 -0.2448  0.1573 -0.0201
  986MOL0     C35936   0.748  11.433   5.273  0.7575 -0.0845 -1.2240
  986MOL0     C35937   0.860  11.365   5.230 -0.1701 -0.2289  1.0514
  986MOL0     O35938   0.978  11.422   5.274 -0.1500 -0.7281  0.3312
  986MOL0     C35939   1.099  11.373   5.209  0.3404  0.4257 -0.5471
  986MOL0     C35940   1.214  11.443   5.290 -0.2509  0.3578  0.0598
  986MOL0     C35941   1.227  11.590   5.258 -1.1197 -0.2247  0.2453
  986MOL0     C35942   1.291  11.604   5.116 -0.1576  0.4614 -0.6215
  986MOL0     C35943   1.306  11.754   5.060  0.2146  0.7436 -0.8243
  986MOL0     C35944   1.186  11.847   5.044 -0.6624 -0.3551  0.2242
  986MOL0     C35945   1.212  11.981   4.972  1.0720  0.9376  0.0925
  986MOL0     C35946   1.209  11.955   4.822 -1.2326  0.4052  1.1361
  986MOL0     N35947   1.085  11.914   4.741 -0.3335  0.1220 -0.3840
  986MOL0     C35948   0.992  12.008   4.700  0.1304  0.6522  1.1248
  986MOL0     C35949   0.898  11.934   4.639  0.0340 -0.4932 -0.3330
  986MOL0     C35950   0.759  11.964   4.582  0.1163  0.3459 -0.0891
  986MOL0     C35951   0.683  11.832   4.570  0.6236 -0.4010  0.1904
  986MOL0     C35952   0.552  11.858   4.503 -0.5018  0.7023 -0.2711
  986MOL0     C35953   0.457  11.737   4.522 -0.2209  0.1177  1.2468
  986MOL0     O35954   0.342  11.786   4.463  0.5361 -0.5102  0.1653
  986MOL0     C35955   0.257  11.718   4.385 -0.4265 -0.0345 -0.3247
  986MOL0     C35956   0.167  11.784   4.293 -0.0163  0.6546 -0.9171
  986MOL0     C35957   0.077  11.720   4.203  0.2475 -0.0342  0.2500
  986MOL0     C35958   0.026  11.815   4.096  0.4548  0.7247 -1.0762
  986MOL0     C35959   0.065  11.580   4.205  0.3029  0.6411  0.4111
  986MOL0     C35960  -0.008  11.493   4.109  0.2521 -0.5963  0.0702
  986MOL0     O35961  -0.112  11.555   4.045  1.3997 -0.1068 -0.7504
  986MOL0     C35962  -0.152  11.487   3.933 -0.6912 -0.9330  0.5588
  986MOL0     C35963  -0.081  11.490   3.805  1.0874  0.3246  0.5491
  986MOL0     C35964  -0.146  11.446   3.689  0.7715 -0.6164  0.4458
  986MOL0     C35965  -0.279  11.379   3.697  0.4223  0.2255 -0.2192
  986MOL0     O35966  -0.340  11.362   3.577  0.0257 -0.3999  0.4392
  986MOL0     C35967  -0.412  11.244   3.561  0.1224  0.3613  1.1276
  986MOL0     C35968  -0.464  11.241   3.421  0.2778 -0.3679  0.0881
  986MOL0     C35969  -0.356  11.231   3.321  0.0216  0.7760  0.3078
  986MOL0     C35970  -0.349  11.088   3.259 -0.7610 -0.1595 -0.4699
  986MOL0     C35971  -0.260  11.088   3.131 -0.7762 -0.1562 -0.5333
  986MOL0     C35972  -0.120  11.135   3.177  0.2874  0.0563  1.3198
  986MOL0     C35973  -0.030  11.134   3.055 -0.3482  0.1685  0.5621
  986MOL0     C35974   0.101  11.207   3.087  0.0128 -0.6974  0.3839
  986MOL0    Cl35975   0.194  11.249   2.938  0.1855 -0.3752  0.3231
  986MOL0     C35976  -0.342  11.375   3.819  0.0385  0.2176 -0.5357
  986MOL0     C35977  -0.280  11.437   3.932 -0.3410  1.0171  0.0625
  986MOL0     O35978   0.025  11.374   4.101 -0.3269  0.4887  0.3893
  986MOL0     C35979   0.147  11.515   4.306  0.0305  0.2509 -1.3262
  986MOL0     C35980   0.244  11.582   4.382  0.3070  1.0172 -0.6158
  986MOL0     N35981   0.953  11.801   4.632 -0.2694 -0.2406 -0.4217
  986MOL0     N35982   1.057  11.788   4.701 -0.6597 -0.1005 -0.3323
  986MOL0     C35983   0.837  11.247   5.160  0.5733 -0.2112  0.0691
  986MOL0     C35984   0.708  11.190   5.137 -0.9787 -0.7223  0.4301
  986MOL0     C35985   0.306  11.171   4.981 -0.0830 -0.3002 -0.5153
  986MOL0     C35986   0.207  11.229   5.063 -0.4337  0.0908 -0.2936
  986MOL0     C35987   0.076  11.194   5.047 -1.0409  0.0324  0.4766
  986MOL0     C35988   0.037  11.097   4.952  0.1946  1.1256 -0.0060
  986MOL0     O35989  -0.092  11.045   4.940 -0.5610  0.2992 -0.3331
  986MOL0     C35990  -0.191  11.108   5.012 -0.1552 -0.3088  0.4522
  986MOL0     C35991  -0.338  11.055   4.988  0.0898  0.3745  0.0281
  986MOL0     C35992  -0.403  11.137   4.875  0.0760 -0.3077 -0.2598
  986MOL0     C35993  -0.322  11.182   4.751  0.7634 -0.7036  0.7873
  986MOL0     C35994  -0.408  11.251   4.660  0.0625  0.1252 -0.1884
  986MOL0     C35995  -0.490  11.322   4.602  0.3261  0.1816  0.5098
  986MOL0     C35996   0.142  11.042   4.873 -0.0549  0.7277 -0.3624
  986MOL0     C35997   0.276  11.071   4.885  0.1965 -0.1488 -0.8174
  986MOL0     C35998   0.381  11.002   4.801  0.3920 -0.5057 -0.0147
  986MOL0     H35999   0.536  11.449   5.279 -0.7551 -1.4042  1.7714
  986MOL0     H36000   0.766  11.528   5.323  0.7909 -0.9402  0.4819
  986MOL0     H36001   1.094  11.402   5.103  0.2240  3.5401  0.1927
  986MOL0     H36002   1.115  11.265   5.206  3.6887  0.8276 -1.3690
  986MOL0     H36003   1.183  11.445   5.395 -0.8655  0.8657 -0.1248
  986MOL0     H36004   1.306  11.384   5.285 -1.0308 -0.8138 -1.1324
  986MOL0     H36005   1.131  11.642   5.266 -0.8502  0.2484  0.4619
  986MOL0     H36006   1.298  11.636   5.327 -0.4404  1.8372 -1.7181
  986MOL0     H36007   1.386  11.550   5.109 -0.7576 -0.3981 -4.1665
  986MOL0     H36008   1.229  11.546   5.047  1.6469 -1.4954 -0.7110
  986MOL0     H36009   1.354  11.747   4.962  0.6807 -2.1019 -0.4886
  986MOL0     H36010   1.374  11.803   5.130 -1.1439  0.0075  1.1051
  986MOL0     H36011   1.107  11.800   4.983 -1.1260  0.7062 -0.0139
  986MOL0     H36012   1.158  11.869   5.147  2.1879 -0.3258  1.0543
  986MOL0     H36013   1.299  12.037   5.009  1.9144  0.1271 -0.6039
  986MOL0     H36014   1.129  12.046   5.001 -0.7664 -0.9058 -0.7616
  986MOL0     H36015   1.253  12.044   4.775  0.1190 -1.0567 -0.5191
  986MOL0     H36016   1.281  11.874   4.807 -2.8419 -0.9504  0.3588
  986MOL0     H36017   0.997  12.116   4.699  4.3341  0.6284  1.8329
  986MOL0     H36018   0.775  12.003   4.481 -1.3380 -3.4399 -1.9741
  986MOL0     H36019   0.701  12.027   4.650  0.5206  0.0885  0.5066
  986MOL0     H36020   0.742  11.755   4.520  1.8720 -2.3414  4.2198
  986MOL0     H36021   0.674  11.805   4.675 -0.6174  5.8363  2.1470
  986MOL0     H36022   0.503  11.950   4.535 -3.3633  0.0573 -2.3468
  986MOL0     H36023   0.575  11.876   4.398  1.0562  4.7474  0.6015
  986MOL0     H36024   0.502  11.656   4.465  0.0081  0.9820  0.1783
  986MOL0     H36025   0.450  11.703   4.626  1.2776  0.3233  1.4330
  986MOL0     H36026   0.173  11.891   4.280  0.2055  0.3214 -4.7251
  986MOL0     H36027   0.092  11.814   4.009  2.8299  0.1755  0.6267
  986MOL0     H36028   0.022  11.913   4.145  0.8473 -0.8227  2.2865
  986MOL0     H36029  -0.075  11.783   4.069 -0.1132 -3.2827  4.0627
  986MOL0     H36030   0.017  11.536   3.807  1.6308 -0.8272  1.1285
  986MOL0     H36031  -0.080  11.468   3.606 -0.2700 -0.3030 -0.3240
  986MOL0     H36032  -0.350  11.155   3.580  0.2918 -0.0276 -0.9918
  986MOL0     H36033  -0.498  11.240   3.628 -0.2967  5.3933  1.1996
  986MOL0     H36034  -0.530  11.155   3.407  0.1733 -0.5610  1.5901
  986MOL0     H36035  -0.542  11.314   3.400 -0.3138 -1.2461 -0.8895
  986MOL0     H36036  -0.267  11.255   3.379  0.6523 -0.9756  0.1084
  986MOL0     H36037  -0.384  11.304   3.244 -1.6048 -0.0716  0.0554
  986MOL0     H36038  -0.445  11.045   3.229 -0.5355 -1.9437  1.1892
  986MOL0     H36039  -0.312  11.023   3.339 -0.3407  1.0296  0.3211
  986MOL0     H36040  -0.252  10.985   3.098  0.7174 -1.1031  2.4511
  986MOL0     H36041  -0.306  11.157   3.058 -0.5320 -0.4711 -0.9893
  986MOL0     H36042  -0.080  11.054   3.240  0.0345 -1.7853 -0.7442
  986MOL0     H36043  -0.116  11.230   3.230  0.9490  0.7568  0.0710
  986MOL0     H36044  -0.067  11.195   2.972  1.8545 -0.5801 -1.0691
  986MOL0     H36045  -0.014  11.031   3.024  3.7881  0.1915  1.9969
  986MOL0     H36046   0.163  11.142   3.148 -1.8461 -1.2417  1.7735
  986MOL0     H36047   0.085  11.301   3.141 -2.2984 -1.1963  0.6785
  986MOL0     H36048  -0.442  11.333   3.827  1.0945 -2.3618  0.2080
  986MOL0     H36049  -0.338  11.435   4.024  0.0476  1.2390  0.3164
  986MOL0     H36050   0.158  11.407   4.317  2.0959  0.4826 -0.6844
  986MOL0     H36051   0.313  11.525   4.443  0.5313 -0.8691 -2.4855
  986MOL0     H36052   0.926  11.201   5.118  1.0997  1.6256 -0.9215
  986MOL0     H36053   0.718  11.092   5.091  1.5955 -1.3817  2.1683
  986MOL0     H36054   0.240  11.306   5.132  1.4454  0.2153 -1.2551
  986MOL0     H36055   0.010  11.248   5.114  0.5326  0.9475  1.3496
  986MOL0     H36056  -0.157  11.087   5.114 -1.6516 -1.7864  0.6865
  986MOL0     H36057  -0.182  11.213   4.980  1.9823 -1.2196 -2.4212
  986MOL0     H36058  -0.386  11.056   5.087 -0.1256 -0.6369 -0.0542
  986MOL0     H36059  -0.337  10.952   4.950  1.7173  1.2621 -2.5838
  986MOL0     H36060  -0.479  11.077   4.823  1.9598 -2.0971 -1.0638
  986MOL0     H36061  -0.443  11.228   4.921  2.9166  0.4798  0.8310
  986MOL0     H36062  -0.285  11.090   4.705 -0.6839  0.0666 -2.1055
  986MOL0     H36063  -0.235  11.246   4.770 -1.7345  3.3231 -0.1345
  986MOL0     H36064  -0.579  11.373   4.573 -1.5452 -1.7542  2.5519
  986MOL0     H36065   0.101  10.974   4.799 -2.7149  0.8062  0.9284
  986MOL0     H36066   0.411  11.064   4.716  1.9620  3.2933  3.0104
  986MOL0     H36067   0.468  10.981   4.864  0.2701 -2.4994 -0.4290
  986MOL0     H36068   0.344  10.903   4.771  0.4069 -1.4401  2.7600
  987MOL0     O36069   1.292   9.803   1.423 -0.0645  0.1439 -0.0881
  987MOL0     C36070   1.293   9.926   1.390 -0.8692  0.0090  0.2226
  987MOL0     O36071   1.414  10.006   1.368  0.3825  0.4624  0.3240
  987MOL0     C36072   1.527   9.942   1.334 -0.1118 -0.4630 -0.9627
  987MOL0     C36073   1.528   9.836   1.244  0.5891 -0.2778  0.4596
  987MOL0     C36074   1.653   9.795   1.207 -0.4552  0.5649 -0.1614
  987MOL0     C36075   1.774   9.848   1.243 -0.1025 -0.9270 -1.2746
  987MOL0     O36076   1.892   9.781   1.201 -0.6022  0.0766 -0.6830
  987MOL0     C36077   1.991   9.745   1.295 -0.3676  1.2389  0.5747
  987MOL0     C36078   2.126   9.822   1.284  0.1606 -0.7502  0.3752
  987MOL0     C36079   2.194   9.817   1.416 -1.2200  0.4783 -0.7173
  987MOL0     C36080   2.342   9.866   1.408  0.4249 -0.0343  0.9613
  987MOL0     C36081   2.423   9.864   1.545 -0.3521 -0.0684 -0.3541
  987MOL0     C36082   2.367   9.978   1.627 -0.3662 -0.3177  0.8161
  987MOL0     C36083   2.468  10.013   1.742 -0.2533  0.4114  0.4089
  987MOL0     C36084   2.406  10.118   1.833  0.4223 -0.6567  0.6796
  987MOL0     N36085   2.508  10.178   1.921 -0.6837 -0.2219  0.0167
  987MOL0     C36086   2.595  10.119   2.015 -0.8181 -0.5527 -0.4273
  987MOL0     C36087   2.659  10.227   2.074  0.4014 -0.0108  0.2545
  987MOL0     C36088   2.779  10.234   2.160  0.1325  0.0432 -0.0062
  987MOL0     C36089   2.738  10.282   2.299 -0.8306  0.2007  0.1889
  987MOL0     C36090   2.852  10.248   2.403  0.9172 -0.1555 -0.2611
  987MOL0     C36091   2.829  10.307   2.540 -0.1338  0.2206  0.3050
  987MOL0     O36092   2.690  10.334   2.567  0.3757 -0.2214  0.1476
  987MOL0     C36093   2.613  10.233   2.629 -0.6836 -1.0479 -0.2023
  987MOL0     C36094   2.473  10.252   2.622  0.0757 -0.7603 -0.2505
  987MOL0     C36095   2.392  10.155   2.684 -0.1280  0.3953  0.5089
  987MOL0     C36096   2.242  10.180   2.672  0.0957 -0.6043 -0.8131
  987MOL0     C36097   2.447  10.033   2.730 -0.4836 -0.0440  0.7965
  987MOL0     C36098   2.361   9.928   2.771 -0.6880 -0.6311 -1.2002
  987MOL0     O36099   2.269   9.964   2.879  0.5309  0.1984 -0.1480
  987MOL0     C36100   2.176   9.867   2.901 -0.3218 -0.0288  0.5025
  987MOL0     C36101   2.206   9.729   2.910 -0.1764 -0.3944 -0.9621
  987MOL0     C36102   2.121   9.638   2.971 -0.1824  0.0679 -1.1482
  987MOL0     C36103   1.988   9.669   2.986  0.4587  0.3195 -0.4203
  987MOL0     O36104   1.909   9.557   3.022 -0.2271  0.4195  0.0349
  987MOL0     C36105   1.776   9.587   3.063  0.2443 -0.6956 -0.4350
  987MOL0     C36106   1.693   9.463   3.115 -0.4847  0.5970  0.6606
  987MOL0     C36107   1.557   9.505   3.175  0.0390  0.0852 -0.2883
  987MOL0     C36108   1.553   9.515   3.326 -1.0983  0.1651  0.1660
  987MOL0     C36109   1.407   9.555   3.376 -1.0977  1.1197 -1.0718
  987MOL0     C36110   1.405   9.568   3.529  0.4420 -0.0646  0.6735
  987MOL0     C36111   1.413   9.429   3.594 -0.8289 -0.4336  0.3495
  987MOL0     C36112   1.482   9.436   3.735  0.4804  0.3568  0.1620
  987MOL0    Cl36113   1.421   9.560   3.846  0.2935 -0.4823 -0.2775
  987MOL0     C36114   1.952   9.802   2.959 -0.4377 -0.0181  0.7714
  987MOL0     C36115   2.040   9.906   2.927 -0.9762  1.5225  0.0094
  987MOL0     O36116   2.371   9.821   2.704 -0.7758 -0.0609 -0.1551
  987MOL0     C36117   2.585  10.023   2.744 -0.9115 -0.2104  0.2336
  987MOL0     C36118   2.673  10.125   2.696 -0.2439  1.1815 -0.4951
  987MOL0     N36119   2.606  10.353   2.024 -0.7907 -0.1968  0.0835
  987MOL0     N36120   2.515  10.313   1.936 -1.1724  0.0128  0.3094
  987MOL0     C36121   1.769   9.950   1.335  0.6531 -0.1334  0.6208
  987MOL0     C36122   1.647  10.004   1.382  0.4065 -0.1700  0.1270
  987MOL0     C36123   1.169  10.000   1.366  0.4686  0.8132  0.4623
  987MOL0     C36124   1.044   9.956   1.419 -0.9279 -1.3853 -0.0727
  987MOL0     C36125   0.932  10.044   1.421 -0.6441  0.7568 -0.0304
  987MOL0     C36126   0.934  10.166   1.348 -0.5082  0.0215 -0.1921
  987MOL0     O36127   0.816  10.237   1.371 -0.0733  0.6155  0.2093
  987MOL0     C36128   0.799  10.363   1.312  0.4089  0.8130  0.4443
  987MOL0     C36129   0.740  10.340   1.174  0.0458 -0.0084  0.8104
  987MOL0     C36130   0.750  10.465   1.087  0.0502  0.5585  0.2567
  987MOL0     C36131   0.709  10.587   1.162  0.5435  0.1515  0.0943
  987MOL0     C36132   0.704  10.715   1.084  0.3562  0.1290 -0.6067
  987MOL0     C36133   0.704  10.824   1.022 -0.1919  0.2899 -0.6375
  987MOL0     C36134   1.042  10.189   1.273  1.1324  0.0008  0.6674
  987MOL0     C36135   1.158  10.110   1.277  0.1130  0.2436  0.2532
  987MOL0     C36136   1.275  10.154   1.188 -0.6218  0.1086  0.1561
  987MOL0     H36137   1.440   9.784   1.208 -0.6823  1.9408  0.1753
  987MOL0     H36138   1.660   9.722   1.127 -0.6886  0.9972 -0.5789
  987MOL0     H36139   2.025   9.643   1.279  0.8409  1.5254  1.2098
  987MOL0     H36140   1.956   9.753   1.399 -3.7397  1.0939 -0.4207
  987MOL0     H36141   2.188   9.791   1.200 -0.4740  2.1206 -1.2800
  987MOL0     H36142   2.103   9.928   1.274  0.4395 -0.5143  2.0314
  987MOL0     H36143   2.144   9.881   1.489  0.3092  4.8394 -3.1327
  987MOL0     H36144   2.193   9.713   1.450  4.2898 -0.0748 -1.2454
  987MOL0     H36145   2.390   9.810   1.327 -1.8568  1.6974 -1.8016
  987MOL0     H36146   2.340   9.970   1.373 -1.0451  0.8463  3.3743
  987MOL0     H36147   2.529   9.882   1.524 -0.1828 -2.4541 -1.9813
  987MOL0     H36148   2.414   9.764   1.589 -0.4407  0.3743  0.6651
  987MOL0     H36149   2.330  10.062   1.568 -0.3136  0.1210  1.3898
  987MOL0     H36150   2.276   9.944   1.678  0.0896 -1.1772  1.0897
  987MOL0     H36151   2.558  10.057   1.698 -1.0709  3.3644  1.4123
  987MOL0     H36152   2.509   9.926   1.793 -0.0034  0.0540 -0.3877
  987MOL0     H36153   2.347  10.187   1.772 -1.9924 -1.4992  1.9238
  987MOL0     H36154   2.321  10.075   1.886 -0.7791  0.7117 -0.0507
  987MOL0     H36155   2.622  10.016   2.032 -2.3017 -0.2577  6.1503
  987MOL0     H36156   2.859  10.298   2.123  0.9182 -0.6576  0.4573
  987MOL0     H36157   2.818  10.132   2.157 -2.4864 -1.0382 -3.0973
  987MOL0     H36158   2.726  10.389   2.281  0.0441  0.4695  1.1137
  987MOL0     H36159   2.644  10.244   2.339  0.7518  1.9132  6.6325
  987MOL0     H36160   2.868  10.140   2.401 -4.0001 -1.1417 -2.3307
  987MOL0     H36161   2.947  10.289   2.368 -0.2238  1.4008 -1.6559
  987MOL0     H36162   2.875  10.257   2.626 -1.8031 -0.5153  0.8090
  987MOL0     H36163   2.897  10.393   2.541  1.0390 -0.6494 -1.1432
  987MOL0     H36164   2.432  10.338   2.569 -0.5526  0.4437  2.0558
  987MOL0     H36165   2.219  10.255   2.748  0.5855 -2.8102  1.6539
  987MOL0     H36166   2.174  10.094   2.675  1.3142 -1.5728  0.9791
  987MOL0     H36167   2.221  10.228   2.576 -1.5904  1.1122  0.3443
  987MOL0     H36168   2.304   9.684   2.904  1.2435  1.7977  2.7613
  987MOL0     H36169   2.163   9.541   2.998 -2.6940 -0.7141  0.3089
  987MOL0     H36170   1.781   9.655   3.148 -1.0728 -0.8624 -0.2075
  987MOL0     H36171   1.714   9.632   2.985 -3.5807 -0.9652  2.2223
  987MOL0     H36172   1.670   9.399   3.029 -0.8300  1.7353 -0.1113
  987MOL0     H36173   1.762   9.419   3.188  1.6395  2.4481 -0.1052
  987MOL0     H36174   1.491   9.431   3.130 -0.6248  1.3244 -1.4525
  987MOL0     H36175   1.508   9.596   3.139 -0.2672  0.2660  0.5607
  987MOL0     H36176   1.620   9.596   3.356  0.0209 -1.0632  1.1189
  987MOL0     H36177   1.594   9.421   3.364  2.0462  1.0203 -0.8489
  987MOL0     H36178   1.377   9.655   3.343 -0.4670  0.9799 -2.1052
  987MOL0     H36179   1.333   9.482   3.346  0.6249 -1.0836 -0.2364
  987MOL0     H36180   1.308   9.608   3.561 -0.6472 -2.0046  0.0398
  987MOL0     H36181   1.481   9.636   3.568  1.4452 -2.2458  2.7500
  987MOL0     H36182   1.465   9.353   3.536  0.4110 -0.8948  1.9964
  987MOL0     H36183   1.311   9.393   3.612 -0.4475  0.4463  6.2240
  987MOL0     H36184   1.590   9.452   3.739  0.5551 -0.2612  1.8088
  987MOL0     H36185   1.461   9.337   3.776 -3.1932  0.9883  0.1371
  987MOL0     H36186   1.845   9.824   2.966 -0.4731 -0.1091  0.5307
  987MOL0     H36187   2.005  10.009   2.933 -1.3876  1.3323  1.1278
  987MOL0     H36188   2.636   9.942   2.795  1.1214 -0.8311 -2.5341
  987MOL0     H36189   2.780  10.114   2.706 -0.6210 -3.0363  0.6722
  987MOL0     H36190   1.866   9.997   1.343  0.6697  0.0377 -0.3675
  987MOL0     H36191   1.650  10.090   1.447  0.4387  1.1811 -1.5715
  987MOL0     H36192   1.024   9.864   1.472 -2.6644 -0.3732  1.1021
  987MOL0     H36193   0.843   9.992   1.454  0.7962 -1.9677 -0.1224
  987MOL0     H36194   0.735  10.430   1.371  3.0797  4.1054 -0.0906
  987MOL0     H36195   0.898  10.409   1.309  1.3018 -1.0857 -1.0239
  987MOL0     H36196   0.639  10.299   1.184  0.3038 -1.1009 -0.7021
  987MOL0     H36197   0.790  10.254   1.129 -0.1023  0.9357 -1.2963
  987MOL0     H36198   0.855  10.456   1.056 -0.3433 -3.0226 -0.5330
  987MOL0     H36199   0.693  10.457   0.994 -0.7646 -2.6824  0.8955
  987MOL0     H36200   0.786  10.608   1.236  0.3904 -2.9766  1.3089
  987MOL0     H36201   0.618  10.571   1.221  1.2669  2.7401  2.1271
  987MOL0     H36202   0.699  10.923   0.981 -1.0061 -1.2717 -4.7936
  987MOL0     H36203   1.049  10.278   1.210  0.5815 -1.3891 -1.4786
  987MOL0     H36204   1.241  10.231   1.117  1.1293 -1.0663 -2.0791
  987MOL0     H36205   1.359  10.201   1.240 -1.1789 -2.4745  3.7638
  987MOL0     H36206   1.302  10.065   1.131 -0.1831  0.8525 -0.8173
  988MOL0     O36207   9.684   3.462   4.176 -0.1873 -0.4361 -0.3861
  988MOL0     C36208   9.640   3.512   4.279 -0.8006 -0.3673 -0.7728
  988MOL0     O36209   9.690   3.627   4.324 -0.9268 -0.4153 -0.0202
  988MOL0     C36210   9.793   3.678   4.259 -0.5628 -0.3558 -0.2688
  988MOL0     C36211   9.780   3.793   4.177 -0.2881 -0.0192 -0.2159
  988MOL0     C36212   9.896   3.865   4.144  0.8394  0.0066 -0.4872
  988MOL0     C36213  10.013   3.836   4.190 -0.0569 -0.6891 -0.3460
  988MOL0     O36214  10.113   3.916   4.146 -0.0915  0.0731 -0.5963
  988MOL0     C36215  10.257   3.896   4.169  0.1362 -0.4503  0.2264
  988MOL0     C36216  10.314   3.988   4.275  0.0598 -0.3278  0.3326
  988MOL0     C36217  10.324   4.136   4.233  0.6702  0.1272 -0.0687
  988MOL0     C36218  10.467   4.177   4.193 -0.0801  1.1275 -0.2548
  988MOL0     C36219  10.585   4.199   4.300  0.3603  0.4848  0.0804
  988MOL0     C36220  10.727   4.221   4.238 -0.2944 -0.4552  0.0056
  988MOL0     C36221  10.832   4.241   4.350 -0.0478 -0.4620 -0.3147
  988MOL0     C36222  10.950   4.317   4.289 -0.2289 -0.0106 -0.5535
  988MOL0     N36223  11.019   4.237   4.186  0.2785  0.2887 -0.1342
  988MOL0     C36224  11.038   4.277   4.056  0.2205  0.3972 -0.2769
  988MOL0     C36225  11.108   4.184   3.993 -0.7512 -1.2862  0.3540
  988MOL0     C36226  11.154   4.218   3.859  0.5514  0.2428  0.0983
  988MOL0     C36227  11.095   4.122   3.756 -0.4802  0.0807 -0.2607
  988MOL0     C36228  11.159   4.154   3.617  0.5147  0.5296  0.1336
  988MOL0     C36229  11.115   4.047   3.511 -0.5183  0.3880  0.3811
  988MOL0     O36230  11.192   3.920   3.532  0.4176 -0.2721 -0.2532
  988MOL0     C36231  11.167   3.806   3.454 -0.1366 -0.0123 -0.6047
  988MOL0     C36232  11.278   3.721   3.430 -0.4462  0.9979 -0.8043
  988MOL0     C36233  11.265   3.600   3.356 -0.2866 -0.3650  0.1590
  988MOL0     C36234  11.384   3.509   3.347 -0.2638  0.1027  0.2048
  988MOL0     C36235  11.137   3.555   3.316 -0.9169 -0.5084 -0.1336
  988MOL0     C36236  11.112   3.433   3.233 -0.1136 -0.2275 -0.4056
  988MOL0     O36237  11.224   3.370   3.174 -0.1078 -0.8754  0.6005
  988MOL0     C36238  11.227   3.251   3.112 -0.0367 -0.1647 -0.1335
  988MOL0     C36239  11.151   3.140   3.148 -0.1681  0.3269  0.4818
  988MOL0     C36240  11.157   3.018   3.074  0.2649 -0.5688 -0.7398
  988MOL0     C36241  11.259   3.003   2.971  0.2887 -0.4546  0.7727
  988MOL0     O36242  11.257   2.881   2.901  0.2764 -0.9631  1.0760
  988MOL0     C36243  11.354   2.838   2.802  0.0386  0.2322 -0.7919
  988MOL0     C36244  11.287   2.836   2.657  0.0940 -0.0271  0.2462
  988MOL0     C36245  11.393   2.811   2.548  0.4645  0.0286  0.6203
  988MOL0     C36246  11.330   2.792   2.407  0.0744  0.4599 -0.6724
  988MOL0     C36247  11.442   2.780   2.309 -0.9689  0.8234  0.2129
  988MOL0     C36248  11.506   2.912   2.269 -0.3198  0.4230 -0.2687
  988MOL0     C36249  11.425   3.016   2.197 -0.5348 -0.9235 -1.4396
  988MOL0     C36250  11.324   2.969   2.089  0.0979 -0.5562  0.2832
  988MOL0    Cl36251  11.235   3.115   2.020 -0.0199  0.3551 -0.0707
  988MOL0     C36252  11.340   3.118   2.940  0.3768 -0.5850  0.0473
  988MOL0     C36253  11.318   3.234   3.006  0.3103 -1.2713 -0.7991
  988MOL0     O36254  10.997   3.397   3.217 -0.6167 -0.6853  0.2509
  988MOL0     C36255  11.026   3.645   3.337 -0.6790 -0.1408 -0.1606
  988MOL0     C36256  11.043   3.774   3.403 -0.2086 -0.5640 -0.0074
  988MOL0     N36257  11.134   4.086   4.080 -0.4075  0.4981 -0.0608
  988MOL0     N36258  11.080   4.118   4.195  0.4548 -0.6678  0.0714
  988MOL0     C36259  10.036   3.726   4.262 -0.0671  0.9252  0.7812
  988MOL0     C36260   9.924   3.649   4.296 -0.8454 -0.1608  0.2852
  988MOL0     C36261   9.520   3.465   4.343 -0.2910 -0.6697  0.4915
  988MOL0     C36262   9.448   3.550   4.423 -0.4522 -0.2252  0.4317
  988MOL0     C36263   9.338   3.507   4.490 -0.8621  0.2277  0.6326
  988MOL0     C36264   9.296   3.376   4.466  0.0476 -0.4218 -0.7083
  988MOL0     O36265   9.180   3.341   4.527  0.2122  0.8412  0.9265
  988MOL0     C36266   9.160   3.331   4.664 -0.3365 -0.2533 -0.2130
  988MOL0     C36267   9.167   3.184   4.691 -0.4330  0.5063 -0.6680
  988MOL0     C36268   9.030   3.119   4.662  0.0004  0.1893  0.1603
  988MOL0     C36269   9.051   2.968   4.673 -0.1288 -0.8026 -0.4297
  988MOL0     C36270   8.928   2.894   4.650 -0.8906  0.1996  0.3917
  988MOL0     C36271   8.832   2.821   4.640 -0.1252  0.5255  0.1257
  988MOL0     C36272   9.352   3.291   4.371 -0.0553  0.0639 -0.3009
  988MOL0     C36273   9.474   3.327   4.321  0.2911  0.9549 -0.2776
  988MOL0     C36274   9.537   3.217   4.237 -0.4474  0.4205  0.0367
  988MOL0     H36275   9.679   3.832   4.167 -0.9448 -0.7986  2.4085
  988MOL0     H36276   9.891   3.963   4.099  0.9152  0.5419  0.6358
  988MOL0     H36277  10.310   3.913   4.075 -0.7579 -2.3499 -0.6614
  988MOL0     H36278  10.274   3.793   4.201  0.3074 -0.5547 -0.1914
  988MOL0     H36279  10.247   3.978   4.361 -1.5113  3.6298 -0.2149
  988MOL0     H36280  10.413   3.947   4.296  0.5780  2.0704  3.2788
  988MOL0     H36281  10.261   4.157   4.146  0.8579 -1.1947 -0.5576
  988MOL0     H36282  10.286   4.204   4.309 -1.1988 -0.4790 -0.3975
  988MOL0     H36283  10.499   4.105   4.117 -1.0785 -1.6344  1.7977
  988MOL0     H36284  10.467   4.276   4.146  2.5853  0.6299 -1.4721
  988MOL0     H36285  10.596   4.113   4.368 -0.8017 -0.2955 -0.6823
  988MOL0     H36286  10.551   4.292   4.347 -1.2211 -0.4877  0.9867
  988MOL0     H36287  10.751   4.136   4.173 -1.2656  1.5157 -3.1794
  988MOL0     H36288  10.726   4.314   4.181  0.4205 -0.2414  0.3277
  988MOL0     H36289  10.863   4.144   4.389  2.6544 -0.1562 -1.4399
  988MOL0     H36290  10.784   4.295   4.432  1.1917 -0.8618  0.7006
  988MOL0     H36291  10.922   4.415   4.250  2.9662  1.7500  1.1527
  988MOL0     H36292  11.025   4.340   4.366  1.8173  1.4415 -2.8488
  988MOL0     H36293  10.998   4.365   4.007 -2.8143  0.1241  1.4527
  988MOL0     H36294  11.262   4.213   3.850  0.6345 -2.7223  1.3717
  988MOL0     H36295  11.111   4.312   3.823  1.3340 -0.9833 -4.6600
  988MOL0     H36296  11.113   4.018   3.786 -2.9143 -0.8541 -1.7118
  988MOL0     H36297  10.986   4.137   3.756 -0.4547  1.0743  2.8444
  988MOL0     H36298  11.141   4.260   3.597  1.6812  1.0138  1.4269
  988MOL0     H36299  11.268   4.143   3.626  0.2426 -1.3936  2.2473
  988MOL0     H36300  11.008   4.025   3.513 -0.8671  1.8662 -0.4278
  988MOL0     H36301  11.146   4.083   3.412  0.5762 -0.6443  0.3238
  988MOL0     H36302  11.372   3.745   3.479  0.8507 -1.4489 -1.8882
  988MOL0     H36303  11.416   3.485   3.245 -1.2281 -1.7493  0.2971
  988MOL0     H36304  11.374   3.417   3.406 -2.4859  0.6425  0.7703
  988MOL0     H36305  11.469   3.556   3.397 -0.8123 -2.5863  4.1037
  988MOL0     H36306  11.065   3.157   3.211 -0.4272  4.1327 -0.6460
  988MOL0     H36307  11.090   2.934   3.087 -1.7641  0.3372 -4.0069
  988MOL0     H36308  11.445   2.898   2.794 -0.6734  1.2120 -1.9248
  988MOL0     H36309  11.382   2.735   2.826  2.2004  1.6297  3.7798
  988MOL0     H36310  11.225   2.746   2.653  1.5238 -1.0446  0.2938
  988MOL0     H36311  11.218   2.917   2.630 -0.5747 -0.4453  0.6684
  988MOL0     H36312  11.446   2.717   2.565 -0.5833 -0.6555  0.2237
  988MOL0     H36313  11.463   2.895   2.549  1.6082 -0.8689 -0.7244
  988MOL0     H36314  11.268   2.871   2.364 -2.2727 -1.4288 -0.9568
  988MOL0     H36315  11.264   2.705   2.398  0.8132  0.0527 -2.9384
  988MOL0     H36316  11.516   2.710   2.347 -0.8182 -0.5232 -2.3634
  988MOL0     H36317  11.397   2.737   2.219  3.1937 -3.0381 -0.3737
  988MOL0     H36318  11.591   2.894   2.203 -0.0862 -2.6174  0.6804
  988MOL0     H36319  11.541   2.962   2.360  0.4518  1.3292 -1.0534
  988MOL0     H36320  11.493   3.074   2.134  0.1776 -0.7173 -0.4944
  988MOL0     H36321  11.377   3.083   2.269 -0.3258 -2.1377 -0.1325
  988MOL0     H36322  11.247   2.911   2.140  1.0796 -3.1592 -1.0099
  988MOL0     H36323  11.372   2.905   2.015 -0.2763  2.4982 -2.8296
  988MOL0     H36324  11.422   3.099   2.871 -0.1342  0.5662 -0.9158
  988MOL0     H36325  11.389   3.311   2.978  0.2639 -0.7798  0.3923
  988MOL0     H36326  10.925   3.618   3.308 -1.5396  0.0197  2.3602
  988MOL0     H36327  10.951   3.833   3.408 -1.4922 -2.3695 -1.1794
  988MOL0     H36328  10.135   3.694   4.294  2.3722  1.6402 -4.8733
  988MOL0     H36329   9.941   3.555   4.346 -0.4861  0.0793  0.6215
  988MOL0     H36330   9.477   3.654   4.435  1.2383 -0.7847  1.5544
  988MOL0     H36331   9.295   3.561   4.574  1.1367 -0.2031  2.0124
  988MOL0     H36332   9.235   3.388   4.720 -0.5336  1.2618 -1.4133
  988MOL0     H36333   9.059   3.371   4.680 -0.8332 -1.2668 -0.7441
  988MOL0     H36334   9.204   3.159   4.791 -0.9487 -0.6583 -0.7632
  988MOL0     H36335   9.239   3.147   4.618 -0.2290  0.8261 -0.6317
  988MOL0     H36336   8.949   3.150   4.729 -0.6924 -2.5720  0.7199
  988MOL0     H36337   9.016   3.146   4.557  1.7641 -0.4502 -0.2741
  988MOL0     H36338   9.095   2.943   4.770 -3.7530  1.1112  1.9056
  988MOL0     H36339   9.120   2.945   4.591  2.1578 -0.6190  1.3281
  988MOL0     H36340   8.749   2.756   4.621  1.7003 -1.8566 -0.0813
  988MOL0     H36341   9.322   3.187   4.363 -1.1076  0.2366  1.0167
  988MOL0     H36342   9.512   3.116   4.271  3.7072 -1.0673 -0.7012
  988MOL0     H36343   9.518   3.227   4.129  3.2784 -2.6550 -1.1397
  988MOL0     H36344   9.646   3.221   4.248 -0.6216  0.0760  2.0904
  989MOL0     O36345  10.453   8.752   2.767 -0.5952  0.2998  0.9431
  989MOL0     C36346  10.502   8.680   2.677 -0.5065 -0.5988  0.1778
  989MOL0     O36347  10.637   8.673   2.660  1.4625 -0.2274  0.4591
  989MOL0     C36348  10.727   8.743   2.736  1.3504 -0.7888 -0.0911
  989MOL0     C36349  10.739   8.882   2.725  0.3393  0.4820 -0.1558
  989MOL0     C36350  10.828   8.950   2.803 -0.4003 -0.0153  0.0892
  989MOL0     C36351  10.916   8.885   2.892 -0.1894 -0.1344 -1.0711
  989MOL0     O36352  11.008   8.949   2.962 -0.2961 -0.6443  0.2995
  989MOL0     C36353  11.146   8.920   2.921  1.3781 -0.0807  0.3010
  989MOL0     C36354  11.226   9.026   2.972  0.8062  0.3960 -0.2553
  989MOL0     C36355  11.376   9.022   2.922 -0.4172 -0.1884 -0.4933
  989MOL0     C36356  11.460   8.957   3.029 -0.0918  0.4114 -0.9231
  989MOL0     C36357  11.616   8.998   3.011  0.1564  0.3125  0.4717
  989MOL0     C36358  11.676   8.958   2.870  0.1202 -0.2308 -0.0438
  989MOL0     C36359  11.813   9.022   2.848  0.0489 -0.8107 -0.2468
  989MOL0     C36360  11.877   8.984   2.710  0.6473 -0.2243  0.7616
  989MOL0     N36361  11.884   9.106   2.626  0.0852 -0.4636  0.5162
  989MOL0     C36362  11.952   9.228   2.646  0.6058  0.0144  0.8560
  989MOL0     C36363  11.896   9.325   2.560 -1.0699 -0.1554  0.2374
  989MOL0     C36364  11.963   9.457   2.539  0.0883 -0.3476 -0.2132
  989MOL0     C36365  12.068   9.451   2.429 -0.1304 -0.0134  0.1541
  989MOL0     C36366  12.212   9.493   2.464 -0.3806 -0.2204 -0.8934
  989MOL0     C36367  12.281   9.420   2.579 -0.0485  0.8017  1.0317
  989MOL0     O36368  12.251   9.279   2.581 -0.7101  0.4101  0.3612
  989MOL0     C36369  12.314   9.186   2.498  0.8472  0.0549 -0.2311
  989MOL0     C36370  12.400   9.204   2.394  0.6540  0.0710 -0.6103
  989MOL0     C36371  12.445   9.089   2.317 -0.1894  0.6421 -0.3342
  989MOL0     C36372  12.528   9.113   2.189  0.3740 -0.5080  0.4004
  989MOL0     C36373  12.415   8.952   2.363 -0.0649 -0.0778  0.1072
  989MOL0     C36374  12.460   8.817   2.309 -0.4405  0.4232 -0.7864
  989MOL0     O36375  12.550   8.807   2.205  0.5768  0.3566  0.7174
  989MOL0     C36376  12.596   8.678   2.173  0.7285  0.5336  0.2818
  989MOL0     C36377  12.533   8.598   2.079 -0.1208 -0.0001 -0.3196
  989MOL0     C36378  12.594   8.472   2.043 -0.2495  0.0594  0.3578
  989MOL0     C36379  12.719   8.434   2.099 -0.2868 -1.6004 -0.1951
  989MOL0     O36380  12.774   8.314   2.094  0.2079 -0.6700  0.4887
  989MOL0     C36381  12.719   8.213   2.009  0.3690 -0.1619  0.1950
  989MOL0     C36382  12.812   8.186   1.892 -0.3091  0.8405 -0.6124
  989MOL0     C36383  12.790   8.055   1.826 -1.0244  1.0196  0.4397
  989MOL0     C36384  12.656   8.040   1.764 -0.0582 -0.4156 -0.1110
  989MOL0     C36385  12.645   7.939   1.648 -0.2998 -0.0601 -0.0185
  989MOL0     C36386  12.496   7.888   1.643  0.2893  0.6011  0.0720
  989MOL0     C36387  12.453   7.812   1.509 -0.8107  0.2790 -0.6845
  989MOL0     C36388  12.302   7.809   1.502 -1.0914  0.1179  0.0289
  989MOL0    Cl36389  12.239   7.718   1.651 -0.3306 -0.0862  0.1289
  989MOL0     C36390  12.780   8.525   2.190 -0.4692 -0.3066  0.2751
  989MOL0     C36391  12.711   8.640   2.229 -1.4663  0.1737  0.9363
  989MOL0     O36392  12.405   8.716   2.355 -0.0976  0.0787 -0.2805
  989MOL0     C36393  12.327   8.945   2.472 -0.4404 -0.7459  0.3424
  989MOL0     C36394  12.272   9.056   2.545  0.5059 -0.7732  0.2102
  989MOL0     N36395  11.799   9.253   2.485  0.0126  0.1149 -0.9668
  989MOL0     N36396  11.782   9.130   2.535  0.6611 -0.7001  0.1786
  989MOL0     C36397  10.904   8.746   2.907 -0.2747 -0.2082  0.1389
  989MOL0     C36398  10.813   8.678   2.835 -0.3526  0.7127  0.7242
  989MOL0     C36399  10.406   8.597   2.594 -0.2831  0.1509  0.0309
  989MOL0     C36400  10.279   8.565   2.649  0.0272 -0.1828 -0.1572
  989MOL0     C36401  10.184   8.504   2.570  0.4106  0.0911 -0.3682
  989MOL0     C36402  10.215   8.463   2.440  1.2638 -0.3643  0.6659
  989MOL0     O36403  10.102   8.403   2.376 -0.3726  0.0587 -0.8658
  989MOL0     C36404  10.132   8.300   2.273  0.6069  0.0359 -0.8591
  989MOL0     C36405  10.140   8.170   2.344  0.2027 -0.8518  0.3117
  989MOL0     C36406  10.024   8.126   2.435  0.7841  0.1996 -0.3335
  989MOL0     C36407   9.893   8.095   2.350 -0.9891  0.0962  0.2973
  989MOL0     C36408   9.905   7.982   2.264  0.9460  0.1537  0.1351
  989MOL0     C36409   9.883   7.879   2.193  0.1096  0.0162 -0.8563
  989MOL0     C36410  10.342   8.479   2.393  0.2538 -0.2895 -0.4866
  989MOL0     C36411  10.436   8.545   2.466 -0.1092 -0.5373 -0.4295
  989MOL0     C36412  10.565   8.570   2.392  0.2599 -0.0570 -0.0689
  989MOL0     H36413  10.671   8.931   2.656 -0.3849 -1.4883 -0.9250
  989MOL0     H36414  10.824   9.058   2.814  1.9802  0.0343  1.0327
  989MOL0     H36415  11.156   8.927   2.812 -0.0258  1.6806  0.2421
  989MOL0     H36416  11.180   8.818   2.945 -1.2088 -0.9274  0.6550
  989MOL0     H36417  11.171   9.118   2.952  1.4011  0.6053 -0.9977
  989MOL0     H36418  11.233   9.015   3.080 -0.2295 -1.6644 -0.3417
  989MOL0     H36419  11.384   8.972   2.825  1.9103  1.1846 -1.0997
  989MOL0     H36420  11.411   9.124   2.901 -1.6670 -0.0107 -1.7960
  989MOL0     H36421  11.425   8.992   3.127  0.3636 -2.4361  0.3548
  989MOL0     H36422  11.441   8.850   3.032  2.6115 -0.2079  3.2783
  989MOL0     H36423  11.671   8.962   3.098  2.1343 -1.6606 -1.4875
  989MOL0     H36424  11.626   9.107   3.010 -0.8773  0.4189  0.0020
  989MOL0     H36425  11.682   8.849   2.868 -0.1057 -0.4183  3.4877
  989MOL0     H36426  11.609   8.993   2.791 -1.6545 -0.7123  1.1992
  989MOL0     H36427  11.886   8.982   2.919 -1.1011 -0.2027  1.3255
  989MOL0     H36428  11.806   9.129   2.870  2.0183 -1.0302  1.8409
  989MOL0     H36429  11.972   8.937   2.735  0.5126  0.6606  3.2473
  989MOL0     H36430  11.816   8.914   2.652 -1.2828  0.7175  1.5352
  989MOL0     H36431  12.031   9.256   2.716  0.6950  0.6717  0.4974
  989MOL0     H36432  12.012   9.476   2.635  0.6134  0.9148 -0.6980
  989MOL0     H36433  11.880   9.529   2.539  1.1189  0.9472  2.2742
  989MOL0     H36434  12.084   9.347   2.399 -0.5367 -0.9431  2.8436
  989MOL0     H36435  12.027   9.497   2.338  0.6643  0.4401  0.0223
  989MOL0     H36436  12.268   9.467   2.374 -0.0684 -1.2387 -0.4204
  989MOL0     H36437  12.216   9.601   2.479  1.0035 -0.0403 -2.3173
  989MOL0     H36438  12.387   9.443   2.590  0.3041  0.9650 -1.9287
  989MOL0     H36439  12.231   9.450   2.671  1.2549  2.6590  1.1839
  989MOL0     H36440  12.418   9.307   2.367  1.4419  1.0966  3.3131
  989MOL0     H36441  12.619   9.051   2.191  3.0775  3.1235  2.1049
  989MOL0     H36442  12.561   9.216   2.178  1.0606 -0.2909  3.5270
  989MOL0     H36443  12.469   9.078   2.104  0.1217 -0.5927  0.6082
  989MOL0     H36444  12.442   8.638   2.036  0.0804 -2.5177 -3.3910
  989MOL0     H36445  12.556   8.413   1.960  2.2468 -0.7315 -0.3315
  989MOL0     H36446  12.706   8.127   2.075  3.3608  0.3489  1.6432
  989MOL0     H36447  12.619   8.230   1.968  0.9260  1.3506 -0.6484
  989MOL0     H36448  12.791   8.261   1.815 -5.2717 -1.3294 -1.7928
  989MOL0     H36449  12.917   8.182   1.922  0.0696 -0.9998 -2.0104
  989MOL0     H36450  12.832   7.969   1.880 -0.2640  1.4883  0.6140
  989MOL0     H36451  12.859   8.066   1.742  0.1354 -0.0218  1.2082
  989MOL0     H36452  12.618   8.134   1.724  3.6049  0.6559 -1.4592
  989MOL0     H36453  12.582   8.010   1.840 -2.0373  0.5607 -1.5625
  989MOL0     H36454  12.658   7.989   1.552 -1.4978  1.1385  0.4151
  989MOL0     H36455  12.722   7.862   1.655  1.8065  1.6057 -2.7233
  989MOL0     H36456  12.433   7.975   1.661  1.2321  1.0621  1.2741
  989MOL0     H36457  12.482   7.817   1.726  0.0172 -1.6165 -1.7799
  989MOL0     H36458  12.500   7.713   1.503 -2.4040 -0.4617 -1.4544
  989MOL0     H36459  12.493   7.859   1.419  1.7740  1.2440  0.8606
  989MOL0     H36460  12.264   7.765   1.410  0.4680  1.2332 -1.1947
  989MOL0     H36461  12.251   7.906   1.500 -2.2654 -0.4583  0.5656
  989MOL0     H36462  12.872   8.498   2.241  0.7819  4.1894  0.8160
  989MOL0     H36463  12.754   8.709   2.301 -0.5940  3.1410 -2.1993
  989MOL0     H36464  12.294   8.849   2.510 -1.9419  0.5928  2.6443
  989MOL0     H36465  12.212   9.047   2.635 -0.1082  1.8616  0.1303
  989MOL0     H36466  10.977   8.706   2.977 -0.9772 -0.6020  0.6674
  989MOL0     H36467  10.818   8.570   2.847 -0.3121  0.4918 -1.0556
  989MOL0     H36468  10.255   8.601   2.749 -0.0803  0.2263 -0.3306
  989MOL0     H36469  10.079   8.488   2.593  0.0523  0.2393 -1.8037
  989MOL0     H36470  10.036   8.304   2.220 -0.8319 -0.5160  1.5864
  989MOL0     H36471  10.209   8.321   2.198 -0.2561  1.3308 -1.4287
  989MOL0     H36472  10.227   8.168   2.411 -0.4572 -0.3523  1.2121
  989MOL0     H36473  10.163   8.101   2.263 -2.1920 -0.7725 -0.5151
  989MOL0     H36474  10.064   8.050   2.502  0.3359  2.2788  2.4531
  989MOL0     H36475  10.001   8.207   2.505 -0.4906 -2.1906  2.1652
  989MOL0     H36476   9.873   8.176   2.279  3.1199 -1.3882 -2.9798
  989MOL0     H36477   9.812   8.072   2.420  0.4572 -0.5117  1.8299
  989MOL0     H36478   9.858   7.799   2.127 -3.6644  0.2458  0.0607
  989MOL0     H36479  10.374   8.451   2.293  1.6595  2.1397 -0.8043
  989MOL0     H36480  10.548   8.532   2.290 -2.1783 -0.7263  0.5252
  989MOL0     H36481  10.606   8.671   2.379  2.1169 -0.8436 -0.8491
  989MOL0     H36482  10.640   8.504   2.436 -1.9922 -3.1490 -0.5368
  990MOL0     O36483   6.446   5.503   6.041 -1.2570 -0.1951 -0.0725
  990MOL0     C36484   6.550   5.533   5.980  0.4209 -1.3322  0.0388
  990MOL0     O36485   6.569   5.536   5.848  0.0278 -0.0468  0.0925
  990MOL0     C36486   6.475   5.504   5.750  0.0070  0.8138  0.8098
  990MOL0     C36487   6.347   5.455   5.750 -0.3745  0.5839  0.4659
  990MOL0     C36488   6.279   5.404   5.644  0.4181 -1.3761  0.4383
  990MOL0     C36489   6.336   5.417   5.517 -0.2526 -0.8775 -0.2021
  990MOL0     O36490   6.283   5.379   5.402 -0.0301  0.3485  0.4031
  990MOL0     C36491   6.153   5.322   5.416  0.4858  0.8848  0.8225
  990MOL0     C36492   6.080   5.300   5.278 -0.5522  0.2236  0.5608
  990MOL0     C36493   6.156   5.190   5.199 -0.6013  0.6452  0.1276
  990MOL0     C36494   6.203   5.223   5.053 -0.0160  0.3039 -0.9670
  990MOL0     C36495   6.218   5.117   4.949  0.1440 -0.4630 -0.4198
  990MOL0     C36496   6.082   5.052   4.914  0.4622 -0.4662 -0.7428
  990MOL0     C36497   6.078   4.964   4.791 -0.4230  0.1877 -0.3727
  990MOL0     C36498   6.113   5.031   4.661 -1.1928 -0.6706  0.7234
  990MOL0     N36499   6.020   5.139   4.617 -1.0246  0.4005 -0.1772
  990MOL0     C36500   6.022   5.273   4.662  0.6628  0.0908  0.4932
  990MOL0     C36501   5.906   5.326   4.616 -0.3521 -0.8117 -0.3301
  990MOL0     C36502   5.869   5.471   4.632 -0.2118 -0.0240 -0.2798
  990MOL0     C36503   5.965   5.575   4.554  0.5067 -0.4274  0.2907
  990MOL0     C36504   5.995   5.527   4.406  0.3145 -0.2194  0.1639
  990MOL0     C36505   5.878   5.470   4.342 -0.1556  0.5496 -0.2254
  990MOL0     O36506   5.763   5.565   4.336  0.0545 -0.3755  0.3841
  990MOL0     C36507   5.764   5.653   4.231  0.8053  0.2679  0.2245
  990MOL0     C36508   5.660   5.753   4.239  0.2812  0.8549  0.1082
  990MOL0     C36509   5.629   5.843   4.139  0.1329 -0.0491 -0.1160
  990MOL0     C36510   5.533   5.946   4.174  0.0658 -0.8778 -0.7672
  990MOL0     C36511   5.706   5.837   4.020  0.9903 -0.6177  0.2248
  990MOL0     C36512   5.686   5.937   3.907 -0.2251 -0.4050 -0.8114
  990MOL0     O36513   5.713   5.882   3.786 -0.0034  0.1192  0.9151
  990MOL0     C36514   5.704   5.960   3.672 -0.5353  0.7479  0.1197
  990MOL0     C36515   5.789   5.921   3.570  0.5748  0.0923  0.2608
  990MOL0     C36516   5.783   5.991   3.451 -0.2349 -0.3418  0.4761
  990MOL0     C36517   5.680   6.081   3.431  0.3284  0.0531  0.6987
  990MOL0     O36518   5.658   6.138   3.304 -0.0811 -0.3484  0.4292
  990MOL0     C36519   5.750   6.093   3.200  0.1426  0.2110  0.3721
  990MOL0     C36520   5.714   6.161   3.077  0.6345 -1.6652  1.0044
  990MOL0     C36521   5.761   6.311   3.068 -0.9482  0.5708  0.0396
  990MOL0     C36522   5.917   6.316   3.034 -0.8397 -0.0003 -0.0253
  990MOL0     C36523   5.958   6.450   2.967  0.0149 -0.6675  1.0078
  990MOL0     C36524   5.905   6.571   3.049  0.3309 -0.2605  1.0821
  990MOL0     C36525   5.948   6.707   2.995  0.9991  0.1921 -0.7153
  990MOL0     C36526   6.094   6.726   3.021 -0.1948 -0.1463  0.1134
  990MOL0    Cl36527   6.126   6.876   3.105  0.5798  0.5950  0.0939
  990MOL0     C36528   5.579   6.112   3.530 -0.6886 -0.1504 -0.3211
  990MOL0     C36529   5.602   6.053   3.655  0.6915  0.3627  1.0094
  990MOL0     O36530   5.685   6.059   3.933 -0.3984  0.3249 -0.5789
  990MOL0     C36531   5.812   5.742   4.013  0.2142  0.1026 -0.2576
  990MOL0     C36532   5.841   5.652   4.114  0.4387  0.0869 -1.1282
  990MOL0     N36533   5.831   5.223   4.566 -0.5792  0.4399 -0.3754
  990MOL0     N36534   5.899   5.108   4.564 -0.1334 -0.2073  0.2172
  990MOL0     C36535   6.465   5.482   5.508  1.2348 -0.2662 -0.2398
  990MOL0     C36536   6.532   5.518   5.622 -0.2893 -0.7309  0.5072
  990MOL0     C36537   6.657   5.590   6.062  0.7177 -0.0790  0.5740
  990MOL0     C36538   6.614   5.626   6.195 -1.3654 -1.1625 -0.0825
  990MOL0     C36539   6.709   5.676   6.290  0.5799 -0.8089 -0.2666
  990MOL0     C36540   6.843   5.695   6.260 -0.8921 -0.6637 -0.0318
  990MOL0     O36541   6.936   5.759   6.344  0.5775 -0.5976  0.5991
  990MOL0     C36542   6.990   5.662   6.438  0.2585  0.4772  0.4915
  990MOL0     C36543   7.059   5.546   6.366 -0.4581 -0.6939  0.6974
  990MOL0     C36544   7.136   5.450   6.469  1.2482  0.1294  0.2769
  990MOL0     C36545   7.206   5.327   6.398 -0.3874  0.1467 -1.1311
  990MOL0     C36546   7.107   5.264   6.310 -0.6033  1.0188 -0.3000
  990MOL0     C36547   7.028   5.216   6.228 -0.2742  0.2493 -1.0506
  990MOL0     C36548   6.883   5.647   6.133  0.3000 -0.3827  0.2906
  990MOL0     C36549   6.791   5.600   6.038  0.5196 -0.5387  0.5083
  990MOL0     C36550   6.846   5.571   5.899 -0.6351 -0.2652 -0.0792
  990MOL0     H36551   6.301   5.437   5.847 -4.6601  0.6188 -1.3524
  990MOL0     H36552   6.198   5.335   5.666 -1.0762  0.4651  0.9920
  990MOL0     H36553   6.081   5.376   5.478  0.4579  2.0202 -0.1675
  990MOL0     H36554   6.163   5.229   5.473 -1.0142  1.7174  2.5665
  990MOL0     H36555   5.976   5.273   5.297 -0.0064 -1.4344  1.4405
  990MOL0     H36556   6.094   5.386   5.212  3.8304  0.3155  1.2916
  990MOL0     H36557   6.248   5.157   5.249 -0.2221  0.9637 -0.3560
  990MOL0     H36558   6.085   5.106   5.202 -3.1626  2.7067  2.2299
  990MOL0     H36559   6.140   5.301   5.008 -0.0825  1.1227  0.5118
  990MOL0     H36560   6.304   5.262   5.066 -0.2721  0.5639  0.3946
  990MOL0     H36561   6.283   5.039   4.990 -0.6780 -2.3253 -2.4128
  990MOL0     H36562   6.267   5.160   4.861 -0.4864  0.9593 -0.1087
  990MOL0     H36563   6.052   4.989   4.999 -3.2832 -1.0814 -2.3087
  990MOL0     H36564   5.998   5.122   4.908 -0.0362 -1.1398 -2.1499
  990MOL0     H36565   5.977   4.922   4.792  0.6596 -2.5764 -0.5306
  990MOL0     H36566   6.140   4.879   4.821 -0.2892  0.0315 -1.0894
  990MOL0     H36567   6.217   5.062   4.672 -1.1335 -1.7832  4.5563
  990MOL0     H36568   6.104   4.944   4.594  2.5153  0.4630 -1.5132
  990MOL0     H36569   6.105   5.330   4.704 -0.0234  1.5820 -0.1100
  990MOL0     H36570   5.862   5.499   4.737  0.0362  2.2531 -0.8304
  990MOL0     H36571   5.771   5.474   4.583 -0.6303 -1.8730  0.3650
  990MOL0     H36572   5.925   5.677   4.557  2.8614  0.5595  3.4060
  990MOL0     H36573   6.060   5.575   4.609  0.1520  1.2794  0.9850
  990MOL0     H36574   6.037   5.614   4.354 -0.8136 -0.4472 -1.2139
  990MOL0     H36575   6.063   5.443   4.419 -0.0097 -0.6836 -1.0193
  990MOL0     H36576   5.909   5.425   4.246 -1.6948 -3.0510  0.7702
  990MOL0     H36577   5.838   5.386   4.400  1.1640 -0.3966 -0.6289
  990MOL0     H36578   5.613   5.756   4.337 -2.5789 -0.4236 -1.1065
  990MOL0     H36579   5.486   5.933   4.272 -1.0120  0.3242 -1.1069
  990MOL0     H36580   5.456   5.953   4.097  2.3031  0.4797 -3.0518
  990MOL0     H36581   5.585   6.041   4.186  0.4341 -1.0729 -0.7809
  990MOL0     H36582   5.859   5.840   3.589  1.3857  0.6516 -0.2900
  990MOL0     H36583   5.871   5.974   3.391  2.1969  1.3916  3.2328
  990MOL0     H36584   5.856   6.104   3.222  0.1973  0.8390 -0.1765
  990MOL0     H36585   5.740   5.986   3.184 -1.3193  0.2348  0.9433
  990MOL0     H36586   5.757   6.103   2.995  0.1428  0.4293 -0.8200
  990MOL0     H36587   5.606   6.161   3.061  0.8183  1.1519 -0.8265
  990MOL0     H36588   5.743   6.359   3.165  1.7082 -0.9863  1.4111
  990MOL0     H36589   5.707   6.362   2.988  2.3286  0.6860 -2.2816
  990MOL0     H36590   5.949   6.249   2.953  1.1786  0.0141  0.7067
  990MOL0     H36591   5.975   6.301   3.126 -0.4626  4.8955  0.7949
  990MOL0     H36592   6.064   6.472   2.974 -0.5383  1.8113  5.3061
  990MOL0     H36593   5.918   6.453   2.865 -1.2661  1.0581  1.5067
  990MOL0     H36594   5.936   6.553   3.153 -0.7679 -1.8326  1.1811
  990MOL0     H36595   5.796   6.563   3.047  0.0721  2.4825 -0.9899
  990MOL0     H36596   5.893   6.781   3.053 -1.6287 -0.2596 -2.4569
  990MOL0     H36597   5.911   6.699   2.892 -2.1756 -1.2670  0.4135
  990MOL0     H36598   6.147   6.729   2.925 -0.7107  1.1958 -0.1565
  990MOL0     H36599   6.143   6.648   3.079  0.3714  0.3800  0.3595
  990MOL0     H36600   5.505   6.191   3.522 -1.8773 -1.0073  1.5740
  990MOL0     H36601   5.547   6.081   3.744  0.3326 -1.2727  1.3277
  990MOL0     H36602   5.872   5.746   3.922  1.5974 -0.9147  0.5836
  990MOL0     H36603   5.927   5.586   4.111 -1.5063 -2.6611 -0.6541
  990MOL0     H36604   6.500   5.503   5.407 -1.9912  2.1731 -1.0226
  990MOL0     H36605   6.630   5.559   5.598 -0.4862 -1.3778 -1.5765
  990MOL0     H36606   6.518   5.610   6.244 -2.2561  1.0198 -0.9523
  990MOL0     H36607   6.656   5.681   6.385 -3.2133 -1.7852 -2.1441
  990MOL0     H36608   7.060   5.721   6.497  1.0372  0.6644 -0.5897
  990MOL0     H36609   6.909   5.625   6.501  1.0143 -1.3302  0.4576
  990MOL0     H36610   7.128   5.593   6.295  2.1165 -0.7611  3.0167
  990MOL0     H36611   6.986   5.491   6.305 -2.4289  3.0003 -0.6144
  990MOL0     H36612   7.213   5.503   6.525  1.9919 -1.8792  1.2618
  990MOL0     H36613   7.057   5.414   6.535  0.4334 -2.5247 -1.9581
  990MOL0     H36614   7.222   5.256   6.480 -1.3219  0.0746 -0.9981
  990MOL0     H36615   7.295   5.369   6.350 -1.0969  1.3032 -1.4746
  990MOL0     H36616   6.977   5.171   6.145 -2.0013 -1.5491  0.8630
  990MOL0     H36617   6.989   5.636   6.113 -0.1556  0.6941 -3.4371
  990MOL0     H36618   6.805   5.645   5.829  0.3526  2.6719  2.2262
  990MOL0     H36619   6.955   5.582   5.903 -0.7058  0.1360  1.1825
  990MOL0     H36620   6.819   5.467   5.882 -0.4920 -1.2598  4.4729
  991MOL0     O36621  10.930  10.895  10.470  0.2502 -0.3672 -0.3315
  991MOL0     C36622  10.953  10.940  10.358 -0.2416  0.0960 -0.1733
  991MOL0     O36623  10.899  11.049  10.297  0.7633 -0.9602  0.6661
  991MOL0     C36624  10.829  11.141  10.367 -0.3422 -0.5234 -0.1328
  991MOL0     C36625  10.717  11.108  10.443 -0.1058  0.6359 -0.0266
  991MOL0     C36626  10.632  11.204  10.502 -0.3353 -0.0673  0.0097
  991MOL0     C36627  10.669  11.342  10.504  0.2269  0.4669 -0.0710
  991MOL0     O36628  10.611  11.451  10.566 -0.1939  0.0431 -0.1322
  991MOL0     C36629  10.482  11.426  10.626  0.4423 -0.0933  0.6017
  991MOL0     C36630  10.503  11.364  10.761  0.2507 -0.6061  0.9322
  991MOL0     C36631  10.370  11.337  10.830  0.8772 -0.1893 -0.6863
  991MOL0     C36632  10.286  11.468  10.842 -0.3628  0.4750  1.0920
  991MOL0     C36633  10.167  11.452  10.937 -0.4472  0.1092 -0.3012
  991MOL0     C36634  10.188  11.444  11.082 -0.3648 -0.2668  0.1101
  991MOL0     C36635  10.058  11.479  11.156  0.0087  0.2226  0.3263
  991MOL0     C36636  10.091  11.514  11.306  0.9279 -0.5795  0.5459
  991MOL0     N36637  10.191  11.430  11.379  0.0100 -0.9938 -0.0423
  991MOL0     C36638  10.156  11.313  11.448 -0.2569  0.1861 -0.0908
  991MOL0     C36639  10.270  11.274  11.510  0.5050  0.6719 -0.1527
  991MOL0     C36640  10.289  11.142  11.586 -0.2842 -0.4659  1.0796
  991MOL0     C36641  10.154  11.074  11.624 -0.2935  0.9162  0.0186
  991MOL0     C36642  10.194  10.984  11.745  0.2325 -0.2417 -0.3925
  991MOL0     C36643  10.283  10.859  11.720 -0.2662  0.2004 -0.0992
  991MOL0     O36644  10.228  10.763  11.620  0.2421 -0.0395 -0.9387
  991MOL0     C36645  10.322  10.690  11.551  0.3806  0.3790 -0.6585
  991MOL0     C36646  10.433  10.640  11.615 -0.0054  0.3712 -0.3005
  991MOL0     C36647  10.541  10.589  11.542 -0.1395  1.2373  0.1353
  991MOL0     C36648  10.658  10.538  11.622  0.5451 -1.1598  0.6542
  991MOL0     C36649  10.527  10.571  11.401  0.0508  0.9758 -0.9528
  991MOL0     C36650  10.621  10.498  11.317  0.1240 -0.3083  0.5175
  991MOL0     O36651  10.687  10.387  11.373 -0.1198 -0.2834 -0.3936
  991MOL0     C36652  10.751  10.300  11.294  0.6187  0.3975  0.1405
  991MOL0     C36653  10.675  10.199  11.237  0.1247 -0.0808 -0.4064
  991MOL0     C36654  10.726  10.109  11.144  0.4148  0.4900 -0.6037
  991MOL0     C36655  10.873  10.111  11.126  0.5722  0.4151 -0.5468
  991MOL0     O36656  10.939  10.034  11.038 -0.5333 -0.0209  0.3149
  991MOL0     C36657  10.865   9.940  10.960  0.1144 -0.1492 -0.2319
  991MOL0     C36658  10.838   9.994  10.822  0.7673  1.3093  0.1936
  991MOL0     C36659  10.969  10.002  10.738  0.3886 -0.1180 -0.3462
  991MOL0     C36660  11.002   9.854  10.676 -0.0784 -0.1715  0.4279
  991MOL0     C36661  11.146   9.823  10.626  0.0206  0.0267 -0.7763
  991MOL0     C36662  11.202   9.688  10.676  0.2765  0.5887  0.4361
  991MOL0     C36663  11.116   9.573  10.624 -0.1236  0.2555  0.0983
  991MOL0     C36664  11.173   9.441  10.667 -0.3208 -0.3377  0.0500
  991MOL0    Cl36665  11.060   9.307  10.631 -0.0863  0.0646 -0.1119
  991MOL0     C36666  10.950  10.197  11.194 -0.3557  0.0560 -0.7467
  991MOL0     C36667  10.890  10.290  11.285  0.0505 -0.5648 -0.1148
  991MOL0     O36668  10.627  10.540  11.204  0.0923  0.5158 -0.0489
  991MOL0     C36669  10.410  10.624  11.339 -0.3746 -0.8701  0.5147
  991MOL0     C36670  10.302  10.687  11.413  0.3918  0.5890 -0.0895
  991MOL0     N36671  10.367  11.373  11.491  0.8687 -0.0621 -0.0938
  991MOL0     N36672  10.314  11.471  11.435 -0.0652  1.0202  0.1624
  991MOL0     C36673  10.791  11.370  10.437 -0.0361  1.4463 -0.0391
  991MOL0     C36674  10.865  11.276  10.365 -0.7841 -0.2369 -0.1634
  991MOL0     C36675  11.048  10.858  10.276  1.0124  0.1226 -0.4873
  991MOL0     C36676  11.048  10.897  10.138 -0.6764  0.0409  0.2787
  991MOL0     C36677  11.142  10.839  10.045  1.5593  0.1076  0.7158
  991MOL0     C36678  11.222  10.735  10.081 -0.7450 -0.4877 -0.8783
  991MOL0     O36679  11.313  10.688   9.990  0.8856  0.6150 -0.1411
  991MOL0     C36680  11.420  10.599  10.031 -0.2208  1.2308 -0.6846
  991MOL0     C36681  11.368  10.453  10.005 -0.3290  0.6163  0.0378
  991MOL0     C36682  11.470  10.340  10.030 -0.3949 -0.9746 -0.4589
  991MOL0     C36683  11.572  10.321   9.909 -0.9060  0.4900 -0.2571
  991MOL0     C36684  11.676  10.421   9.914 -1.3232 -0.9940  0.3250
  991MOL0     C36685  11.769  10.503   9.921 -0.5363 -0.3884  0.4091
  991MOL0     C36686  11.213  10.686  10.220 -0.4545 -0.5421  0.6208
  991MOL0     C36687  11.127  10.749  10.311  0.0494  1.2221  0.2049
  991MOL0     C36688  11.107  10.679  10.454 -0.6668 -0.0526  0.2022
  991MOL0     H36689  10.681  11.005  10.444 -0.0646  0.6197 -0.1313
  991MOL0     H36690  10.542  11.174  10.555 -0.5820 -0.3708 -0.5729
  991MOL0     H36691  10.413  11.379  10.555 -0.5324  1.8528  0.2199
  991MOL0     H36692  10.437  11.525  10.637  0.1406 -0.0560 -0.7442
  991MOL0     H36693  10.558  11.272  10.738 -0.0041 -0.5239 -0.0497
  991MOL0     H36694  10.561  11.431  10.826  0.3194 -1.0067  1.2881
  991MOL0     H36695  10.317  11.261  10.773 -0.6457  0.0407  0.3448
  991MOL0     H36696  10.370  11.295  10.931 -0.7562  0.6065 -0.3182
  991MOL0     H36697  10.364  11.539  10.872 -1.1729  1.1594  1.6456
  991MOL0     H36698  10.244  11.485  10.742 -0.8822 -0.1509  1.1966
  991MOL0     H36699  10.111  11.364  10.905  1.2855 -1.5482  1.0065
  991MOL0     H36700  10.113  11.547  10.929 -1.4675 -0.5237 -1.1400
  991MOL0     H36701  10.213  11.342  11.112  1.3241 -0.4265 -1.6521
  991MOL0     H36702  10.253  11.523  11.122  0.2562 -1.7436  2.1896
  991MOL0     H36703   9.989  11.396  11.173  1.5691 -2.5102 -4.7859
  991MOL0     H36704  10.007  11.561  11.104  0.7494  0.3228 -0.2582
  991MOL0     H36705  10.122  11.618  11.320  1.5134 -0.3306 -2.0299
  991MOL0     H36706   9.991  11.513  11.350  0.4878  2.7395 -0.1477
  991MOL0     H36707  10.060  11.261  11.443 -0.3107  0.3506 -0.8581
  991MOL0     H36708  10.360  11.153  11.669 -1.9366  3.2706  2.2124
  991MOL0     H36709  10.345  11.087  11.510 -0.4445  0.8582 -0.0335
  991MOL0     H36710  10.070  11.137  11.653 -0.7082  0.1151  0.5790
  991MOL0     H36711  10.125  11.007  11.543 -0.1709 -0.8172  1.3532
  991MOL0     H36712  10.236  11.047  11.824 -1.5193 -0.4651  0.7623
  991MOL0     H36713  10.102  10.952  11.794 -0.4244 -2.4879 -2.9254
  991MOL0     H36714  10.383  10.896  11.695  0.5114 -1.9008 -0.3202
  991MOL0     H36715  10.283  10.806  11.816 -1.9611 -0.6321 -0.5161
  991MOL0     H36716  10.440  10.651  11.722 -1.0854  0.3822 -0.2233
  991MOL0     H36717  10.612  10.483  11.705 -0.1211 -0.3547  0.8281
  991MOL0     H36718  10.704  10.631  11.655  0.4759 -0.4064 -1.2705
  991MOL0     H36719  10.740  10.487  11.570  0.9821 -0.5437  0.7365
  991MOL0     H36720  10.569  10.196  11.260 -0.1161  3.5262 -0.5267
  991MOL0     H36721  10.657  10.050  11.085 -3.3095  4.9135 -1.2960
  991MOL0     H36722  10.923   9.848  10.959  2.6257  1.2104  2.9748
  991MOL0     H36723  10.779   9.897  11.012 -0.6996  0.4959 -1.0024
  991MOL0     H36724  10.762   9.930  10.775 -0.6404  2.1354  1.2417
  991MOL0     H36725  10.797  10.095  10.829  0.4252  1.1738  0.1982
  991MOL0     H36726  11.058  10.034  10.793  0.0746 -0.8492  0.6183
  991MOL0     H36727  10.953  10.070  10.654 -3.0630 -0.5198 -0.1684
  991MOL0     H36728  10.934   9.841  10.591 -1.5875  1.1787  1.3792
  991MOL0     H36729  10.978   9.783  10.756 -2.1633 -0.7569 -0.6568
  991MOL0     H36730  11.165   9.835  10.519  4.3573 -0.8925 -0.3047
  991MOL0     H36731  11.212   9.897  10.673 -2.2008  0.4951  1.8600
  991MOL0     H36732  11.201   9.682  10.786 -2.0633  1.6478  0.5283
  991MOL0     H36733  11.302   9.678  10.632  0.8206  0.1792  1.6924
  991MOL0     H36734  11.112   9.569  10.515 -2.6555  1.5212  0.0818
  991MOL0     H36735  11.019   9.595  10.669  1.9788  3.7842  3.6411
  991MOL0     H36736  11.196   9.447  10.774  2.1819 -0.5309 -0.4273
  991MOL0     H36737  11.269   9.414  10.623 -1.2476 -0.1156 -2.2073
  991MOL0     H36738  11.056  10.175  11.191 -0.4107 -0.6844  1.1185
  991MOL0     H36739  10.957  10.346  11.350  0.1352  0.8635 -1.3675
  991MOL0     H36740  10.386  10.604  11.235  1.7345 -1.5169  0.1108
  991MOL0     H36741  10.223  10.742  11.362 -1.0842 -1.4112 -0.0746
  991MOL0     H36742  10.830  11.471  10.435  1.2650  0.9525 -2.0673
  991MOL0     H36743  10.964  11.304  10.329  0.5523 -2.6925  1.2851
  991MOL0     H36744  10.980  10.956  10.077  0.0727 -0.6325 -1.2654
  991MOL0     H36745  11.140  10.877   9.943 -0.1207  0.1116  0.7207
  991MOL0     H36746  11.514  10.607   9.974  0.1339 -0.0611 -0.2989
  991MOL0     H36747  11.445  10.622  10.135  1.6562 -3.2669  0.0925
  991MOL0     H36748  11.324  10.433   9.907  0.9344 -0.2240 -0.3875
  991MOL0     H36749  11.287  10.445  10.077  0.1320  4.1619  1.1159
  991MOL0     H36750  11.528  10.354  10.122 -0.3263 -0.4572 -0.5759
  991MOL0     H36751  11.426  10.240  10.027 -0.9601 -0.8009 -4.5138
  991MOL0     H36752  11.510  10.339   9.821  1.0216 -0.4293 -1.8738
  991MOL0     H36753  11.624  10.225   9.905  0.6737  1.3326 -0.8534
  991MOL0     H36754  11.857  10.562   9.935  1.8546 -3.2492 -1.1573
  991MOL0     H36755  11.270  10.606  10.265  1.5766  1.4791  1.8214
  991MOL0     H36756  11.003  10.649  10.467 -1.2780  1.6619 -0.4237
  991MOL0     H36757  11.169  10.592  10.479  0.6594  1.6070  3.1359
  991MOL0     H36758  11.129  10.760  10.523 -0.6227 -1.8636  2.4408
  992MOL0     O36759   1.378   8.197   2.634 -0.3808  0.7566  0.0584
  992MOL0     C36760   1.421   8.211   2.516  0.0597 -0.5859 -0.1006
  992MOL0     O36761   1.427   8.326   2.440 -0.0181  0.1951 -1.0825
  992MOL0     C36762   1.393   8.442   2.513 -0.7229  0.2175  0.4020
  992MOL0     C36763   1.260   8.469   2.522  0.0704 -1.1996 -0.5956
  992MOL0     C36764   1.221   8.581   2.609 -0.2823 -1.2117 -0.7394
  992MOL0     C36765   1.310   8.655   2.676 -0.2372  0.1219  1.0280
  992MOL0     O36766   1.281   8.772   2.747 -1.1137  0.2543 -0.1008
  992MOL0     C36767   1.177   8.755   2.841 -0.0993 -0.2695  0.2171
  992MOL0     C36768   1.225   8.689   2.964  0.4002 -0.1967  0.0250
  992MOL0     C36769   1.357   8.746   3.030  0.2932 -0.7003 -1.2029
  992MOL0     C36770   1.323   8.878   3.111 -0.1231  0.4381  0.1236
  992MOL0     C36771   1.417   8.904   3.237  0.4229  0.2788  0.2467
  992MOL0     C36772   1.548   8.983   3.192 -0.4784 -0.2092 -0.1632
  992MOL0     C36773   1.654   9.010   3.304 -0.0249  0.1159  0.5580
  992MOL0     C36774   1.693   9.153   3.293  0.5668  0.6725  0.3449
  992MOL0     N36775   1.771   9.202   3.406 -0.4520  0.3684  0.0669
  992MOL0     C36776   1.884   9.146   3.441 -0.7632 -0.2194  0.5326
  992MOL0     C36777   1.918   9.191   3.560 -0.4247 -0.6590 -0.1496
  992MOL0     C36778   2.052   9.181   3.629  1.6081  0.8156  0.7890
  992MOL0     C36779   2.071   9.041   3.686 -0.1580 -0.6461  0.2773
  992MOL0     C36780   2.210   9.024   3.760 -0.2688 -0.4256 -0.6425
  992MOL0     C36781   2.327   9.016   3.650  0.4218 -0.6960 -0.2856
  992MOL0     O36782   2.452   9.012   3.723  0.3371 -0.7344  0.0451
  992MOL0     C36783   2.483   9.135   3.782  0.2305  0.8129  0.7042
  992MOL0     C36784   2.515   9.140   3.921 -0.2163 -0.9185  1.0582
  992MOL0     C36785   2.545   9.259   3.988 -0.4813  0.7740 -0.4469
  992MOL0     C36786   2.564   9.246   4.133  0.0826  0.2794  0.7653
  992MOL0     C36787   2.550   9.376   3.911  0.2754 -1.3001  0.5644
  992MOL0     C36788   2.574   9.514   3.967 -0.3428  0.2978  0.3543
  992MOL0     O36789   2.573   9.525   4.100 -0.4649 -0.0189  0.2888
  992MOL0     C36790   2.635   9.646   4.133  0.2190  0.6287 -0.0601
  992MOL0     C36791   2.578   9.747   4.200  0.1927  0.8553 -0.2367
  992MOL0     C36792   2.654   9.856   4.250  0.5568 -0.2287 -0.1261
  992MOL0     C36793   2.791   9.858   4.235  0.0170 -0.5279 -0.2167
  992MOL0     O36794   2.868   9.955   4.294 -0.1991  0.1189 -0.0509
  992MOL0     C36795   2.819  10.092   4.296 -0.9522 -0.0244 -0.5074
  992MOL0     C36796   2.940  10.185   4.271 -0.0189 -0.3393  0.0116
  992MOL0     C36797   2.913  10.318   4.349 -0.8717 -0.2043 -0.7891
  992MOL0     C36798   3.049  10.403   4.347 -0.1054  0.3579  0.1116
  992MOL0     C36799   3.087  10.510   4.456 -0.8728 -0.0115 -0.2979
  992MOL0     C36800   3.014  10.649   4.425  0.5638 -1.3280  1.4693
  992MOL0     C36801   3.072  10.771   4.504 -0.6462  0.0189 -0.5993
  992MOL0     C36802   3.072  10.748   4.658  0.8817 -1.8116 -0.1233
  992MOL0    Cl36803   3.159  10.896   4.717  0.1278 -0.1575  0.0227
  992MOL0     C36804   2.854   9.749   4.174  0.0991 -1.1297 -0.8077
  992MOL0     C36805   2.773   9.650   4.118  0.5655 -0.9144  0.1794
  992MOL0     O36806   2.582   9.616   3.886  0.4157 -0.0400  0.2125
  992MOL0     C36807   2.537   9.370   3.768  0.2343 -1.3302 -0.4827
  992MOL0     C36808   2.506   9.250   3.703  0.7431  0.2998 -0.0490
  992MOL0     N36809   1.815   9.276   3.600 -0.1350 -0.2188  0.9137
  992MOL0     N36810   1.725   9.274   3.507  0.1542  0.0594 -0.7288
  992MOL0     C36811   1.445   8.632   2.658 -0.3869 -0.5854  0.0860
  992MOL0     C36812   1.483   8.523   2.575 -0.1753 -0.6519  0.3040
  992MOL0     C36813   1.451   8.079   2.447  1.0397 -0.0231  0.4787
  992MOL0     C36814   1.397   8.068   2.318  0.0679 -0.2359 -0.1593
  992MOL0     C36815   1.422   7.948   2.243  0.3718 -0.6663  0.1168
  992MOL0     C36816   1.481   7.843   2.305  0.1736  0.2098 -0.2440
  992MOL0     O36817   1.481   7.730   2.226 -0.0584  0.1744 -0.4264
  992MOL0     C36818   1.440   7.610   2.294  0.0719  0.1210  0.1230
  992MOL0     C36819   1.382   7.500   2.209 -0.4990  0.9965  0.0271
  992MOL0     C36820   1.352   7.377   2.288  0.8015 -0.0310 -0.4021
  992MOL0     C36821   1.256   7.392   2.407 -0.8083  0.5313  0.1053
  992MOL0     C36822   1.263   7.278   2.500 -0.0734  0.3947 -0.0773
  992MOL0     C36823   1.288   7.191   2.578  0.3556 -0.2162  0.3584
  992MOL0     C36824   1.524   7.847   2.439 -0.5870 -0.7986 -0.3271
  992MOL0     C36825   1.511   7.969   2.508  0.3500  0.3537 -0.2406
  992MOL0     C36826   1.575   7.976   2.642 -0.4780  0.3971 -0.1629
  992MOL0     H36827   1.184   8.408   2.473 -0.6715 -1.8239  1.2441
  992MOL0     H36828   1.115   8.604   2.606 -0.5400 -1.9700  1.0529
  992MOL0     H36829   1.091   8.699   2.805  0.3462 -3.0384  3.0679
  992MOL0     H36830   1.127   8.849   2.867  0.7200 -0.2287  1.8018
  992MOL0     H36831   1.140   8.690   3.032  0.1938 -1.1311 -0.2108
  992MOL0     H36832   1.243   8.587   2.927  0.1496 -1.9464  4.2217
  992MOL0     H36833   1.394   8.668   3.098  2.0107  0.9209 -0.1860
  992MOL0     H36834   1.434   8.758   2.953  2.0940 -0.5925  0.5277
  992MOL0     H36835   1.336   8.954   3.034 -0.2457  1.0766  0.7214
  992MOL0     H36836   1.218   8.885   3.143  0.2911 -1.3988  2.1512
  992MOL0     H36837   1.449   8.808   3.279  1.8062 -0.2328 -1.7984
  992MOL0     H36838   1.358   8.962   3.308 -1.0801  1.0131 -1.5099
  992MOL0     H36839   1.595   8.923   3.113 -0.2194  2.4990 -2.2132
  992MOL0     H36840   1.502   9.073   3.149 -2.3866 -0.5749  0.9528
  992MOL0     H36841   1.730   8.932   3.300 -1.9459 -1.8723  1.0128
  992MOL0     H36842   1.611   8.997   3.404 -1.2256 -1.9110 -0.1628
  992MOL0     H36843   1.745   9.156   3.197  0.3594 -0.8716  0.1553
  992MOL0     H36844   1.608   9.221   3.281 -0.6191 -0.8127  0.0266
  992MOL0     H36845   1.948   9.083   3.380  0.6249 -1.2016  2.8882
  992MOL0     H36846   2.062   9.262   3.702  0.5110 -1.2544  3.4305
  992MOL0     H36847   2.120   9.211   3.549 -1.6670  1.9917 -1.7682
  992MOL0     H36848   1.990   9.005   3.751 -0.3448 -1.4748 -0.4029
  992MOL0     H36849   2.061   8.977   3.598  1.5558 -0.8819  0.2268
  992MOL0     H36850   2.234   9.109   3.824  2.3215  2.5037 -4.9935
  992MOL0     H36851   2.219   8.927   3.811  2.6915 -0.3187 -0.7689
  992MOL0     H36852   2.308   8.924   3.594  0.4271 -1.8747  1.5497
  992MOL0     H36853   2.325   9.103   3.584 -0.3133  0.6910  1.4664
  992MOL0     H36854   2.520   9.048   3.977  3.4474 -0.2438  2.1053
  992MOL0     H36855   2.660   9.293   4.158  1.1294 -0.4224 -1.5776
  992MOL0     H36856   2.567   9.141   4.161 -3.6725  0.2336  1.5521
  992MOL0     H36857   2.485   9.299   4.186 -0.4028 -0.4815  0.8147
  992MOL0     H36858   2.471   9.747   4.219  0.1813 -0.2287 -0.2688
  992MOL0     H36859   2.601   9.931   4.308 -1.6176 -2.0584  0.3660
  992MOL0     H36860   2.748  10.122   4.219  0.8034  0.8845 -1.8576
  992MOL0     H36861   2.775  10.114   4.394  0.5171  2.0319 -0.2248
  992MOL0     H36862   3.030  10.127   4.294  1.0301  0.4433 -1.9653
  992MOL0     H36863   2.956  10.202   4.164  0.7575  1.7527  0.4232
  992MOL0     H36864   2.880  10.302   4.452 -1.1278 -4.5521 -1.3568
  992MOL0     H36865   2.833  10.371   4.297  1.8805  1.1123 -4.0701
  992MOL0     H36866   3.054  10.451   4.249 -1.3034  0.4288  0.0629
  992MOL0     H36867   3.130  10.331   4.357  1.7690  2.4397  0.5314
  992MOL0     H36868   3.051  10.475   4.553 -1.8183  1.0631 -0.2520
  992MOL0     H36869   3.196  10.520   4.451 -0.4764 -3.4651 -3.6683
  992MOL0     H36870   2.905  10.647   4.437  0.1580 -0.2415 -1.2547
  992MOL0     H36871   3.032  10.679   4.321 -0.9438 -1.4860  1.1455
  992MOL0     H36872   3.005  10.854   4.478 -1.3412 -0.8566 -1.7373
  992MOL0     H36873   3.170  10.801   4.466 -0.0015 -1.8466 -0.5503
  992MOL0     H36874   3.131  10.660   4.687 -0.0571 -1.3047  3.8190
  992MOL0     H36875   2.973  10.734   4.701  0.6042 -0.5972 -0.3284
  992MOL0     H36876   2.962   9.734   4.175  0.1375 -0.8245 -0.4937
  992MOL0     H36877   2.811   9.560   4.070 -2.5667 -1.4383 -1.6465
  992MOL0     H36878   2.559   9.454   3.702  0.3225 -0.9640 -0.0016
  992MOL0     H36879   2.501   9.258   3.595 -0.8829  2.2995  0.1204
  992MOL0     H36880   1.525   8.687   2.707 -0.8153  1.7361 -1.6556
  992MOL0     H36881   1.588   8.496   2.569 -0.2190 -1.5467  2.4933
  992MOL0     H36882   1.338   8.144   2.268  1.4944  1.1627  0.2100
  992MOL0     H36883   1.388   7.935   2.141 -2.9803 -1.9156  1.2369
  992MOL0     H36884   1.527   7.576   2.352  0.9652  2.3455  0.1991
  992MOL0     H36885   1.361   7.630   2.367 -0.9253 -2.1386 -0.2430
  992MOL0     H36886   1.459   7.467   2.139 -0.3898  1.4281 -0.0606
  992MOL0     H36887   1.298   7.532   2.146  0.5122  2.2998 -0.7105
  992MOL0     H36888   1.329   7.289   2.227 -3.4685 -0.0328  0.9097
  992MOL0     H36889   1.451   7.354   2.330  1.2856  0.5554 -1.2005
  992MOL0     H36890   1.152   7.404   2.375 -0.1350  2.1393 -1.6620
  992MOL0     H36891   1.291   7.470   2.476  0.1776 -2.3371  3.1066
  992MOL0     H36892   1.310   7.097   2.625  0.9447  0.6015  1.7982
  992MOL0     H36893   1.567   7.758   2.484 -0.8995 -0.5830  0.4027
  992MOL0     H36894   1.613   8.074   2.675 -1.3061 -0.5390  4.3057
  992MOL0     H36895   1.491   7.957   2.710 -0.5597  1.6622  0.1161
  992MOL0     H36896   1.649   7.897   2.653  0.3951  1.3722  1.3872
  993MOL0     O36897  11.089   4.537   3.691  0.6222  0.3308 -0.6648
  993MOL0     C36898  11.131   4.655   3.684  0.5635 -0.7354 -0.0618
  993MOL0     O36899  11.212   4.712   3.777 -0.5963  0.7720  0.7677
  993MOL0     C36900  11.237   4.632   3.885 -0.3128  0.3672 -0.2079
  993MOL0     C36901  11.158   4.637   4.005  0.3665 -0.0282  0.1606
  993MOL0     C36902  11.194   4.563   4.120  0.4130 -0.2382  0.9895
  993MOL0     C36903  11.294   4.469   4.111 -0.4342  0.0564  0.3034
  993MOL0     O36904  11.316   4.396   4.223  0.0970 -0.4691 -0.0970
  993MOL0     C36905  11.426   4.313   4.244 -0.7859 -0.6166 -0.1453
  993MOL0     C36906  11.400   4.251   4.383 -0.7725 -0.4404  0.1722
  993MOL0     C36907  11.489   4.128   4.401  0.5112  0.0656  0.3847
  993MOL0     C36908  11.426   4.059   4.529 -0.5085  1.1383  0.6392
  993MOL0     C36909  11.520   3.939   4.565 -0.6361 -0.0343  0.4644
  993MOL0     C36910  11.436   3.819   4.602 -0.0860 -0.7806 -0.7218
  993MOL0     C36911  11.516   3.689   4.577 -0.5395 -0.0861  0.4272
  993MOL0     C36912  11.646   3.673   4.657 -0.2709 -0.1063  0.4090
  993MOL0     N36913  11.706   3.535   4.640  0.2962  0.0638 -0.0954
  993MOL0     C36914  11.680   3.429   4.720 -0.0469  0.1311 -0.3354
  993MOL0     C36915  11.751   3.328   4.662  0.3942  0.9282 -0.5353
  993MOL0     C36916  11.760   3.184   4.721 -0.2944  0.0284  0.6454
  993MOL0     C36917  11.800   3.198   4.876  0.3516  0.8520  1.4497
  993MOL0     C36918  11.951   3.235   4.890  0.1031 -0.2280 -0.9773
  993MOL0     C36919  11.977   3.308   5.019  0.6244  0.2375  0.4462
  993MOL0     O36920  11.919   3.437   4.999 -0.5145 -0.9763 -0.1545
  993MOL0     C36921  12.004   3.545   4.979  0.4574 -0.3357 -0.1030
  993MOL0     C36922  12.096   3.595   5.072  0.6663 -0.6564 -0.1521
  993MOL0     C36923  12.161   3.725   5.067 -0.0397  0.0267  0.7237
  993MOL0     C36924  12.249   3.766   5.193  0.0712  0.4413  0.0695
  993MOL0     C36925  12.144   3.796   4.947 -0.2753 -0.3493 -0.0193
  993MOL0     C36926  12.229   3.917   4.917 -0.6213 -0.4350  0.2006
  993MOL0     O36927  12.321   3.949   5.013  0.6786 -0.4607 -0.5451
  993MOL0     C36928  12.401   4.059   5.009  0.8568  0.3773  0.2994
  993MOL0     C36929  12.378   4.172   4.925 -0.4404  0.0663 -0.7502
  993MOL0     C36930  12.465   4.285   4.923  0.5211 -0.0012 -0.0436
  993MOL0     C36931  12.573   4.291   5.008  0.1220 -1.2397  0.1685
  993MOL0     O36932  12.668   4.396   5.004  0.0980  0.1429 -1.0659
  993MOL0     C36933  12.655   4.506   4.913 -0.8033  0.5282  0.0395
  993MOL0     C36934  12.781   4.585   4.911 -0.9003 -0.2382  0.3891
  993MOL0     C36935  12.875   4.530   4.795  1.2195 -0.9254  0.2551
  993MOL0     C36936  13.026   4.532   4.829  0.1910  0.2379  0.1714
  993MOL0     C36937  13.090   4.415   4.902 -0.4099  0.3235  0.5312
  993MOL0     C36938  13.227   4.461   4.952 -0.9344 -0.4478 -0.2314
  993MOL0     C36939  13.217   4.530   5.091  0.5464 -0.0034 -0.4692
  993MOL0     C36940  13.347   4.513   5.173  0.4779  0.1232 -0.0415
  993MOL0    Cl36941  13.391   4.679   5.206  0.1145 -0.1783  0.1899
  993MOL0     C36942  12.597   4.183   5.095  0.5461  0.3648 -0.0652
  993MOL0     C36943  12.512   4.069   5.089 -0.2222  0.4404 -0.2480
  993MOL0     O36944  12.226   3.958   4.802  0.6342 -0.3881 -0.4192
  993MOL0     C36945  12.062   3.743   4.852  0.4182  0.4828  0.1791
  993MOL0     C36946  11.992   3.624   4.858  0.4250 -0.8239 -1.4665
  993MOL0     N36947  11.835   3.374   4.567  0.1996 -0.7815 -0.2775
  993MOL0     N36948  11.811   3.503   4.560 -0.0212  0.3471  0.4234
  993MOL0     C36949  11.355   4.443   3.990  0.1232  0.5356 -0.0606
  993MOL0     C36950  11.335   4.528   3.883 -0.1591 -0.2578 -0.3021
  993MOL0     C36951  11.118   4.739   3.563  0.0280 -0.1742 -1.1093
  993MOL0     C36952  11.114   4.879   3.585  0.7782  0.0748 -0.5858
  993MOL0     C36953  11.101   4.973   3.482  0.1370  0.1296  0.6136
  993MOL0     C36954  11.077   4.929   3.345  0.2799  0.3436 -0.4102
  993MOL0     O36955  11.068   5.008   3.233 -0.8542 -0.0287  0.2166
  993MOL0     C36956  11.034   5.153   3.236  0.3237 -0.2695 -0.0479
  993MOL0     C36957  11.175   5.234   3.232 -0.1582  0.5138  0.3358
  993MOL0     C36958  11.274   5.190   3.109 -0.1130 -0.5218 -0.3730
  993MOL0     C36959  11.229   5.236   2.975 -0.5521  0.1577  0.9288
  993MOL0     C36960  11.251   5.372   2.945 -0.2680 -0.5060  0.4627
  993MOL0     C36961  11.271   5.498   2.943 -0.3751  0.3099  0.5866
  993MOL0     C36962  11.079   4.789   3.324  0.4046 -0.0165 -0.7202
  993MOL0     C36963  11.101   4.695   3.429 -1.0230 -0.2505  0.1935
  993MOL0     C36964  11.126   4.550   3.385 -0.2030  0.1371  0.5647
  993MOL0     H36965  11.079   4.707   4.030  0.1476 -0.5821  1.0554
  993MOL0     H36966  11.136   4.585   4.209 -0.7729 -0.0927  0.2100
  993MOL0     H36967  11.520   4.369   4.241 -0.3302 -1.3963 -2.3850
  993MOL0     H36968  11.429   4.232   4.170  0.7584  0.1897 -1.0028
  993MOL0     H36969  11.400   4.323   4.465 -1.9014  1.3820 -1.3477
  993MOL0     H36970  11.293   4.226   4.383 -1.5413  2.0563 -3.6227
  993MOL0     H36971  11.481   4.053   4.321  1.6695  0.3212  0.0057
  993MOL0     H36972  11.594   4.157   4.413  1.5379 -2.1422 -2.2257
  993MOL0     H36973  11.397   4.118   4.617  0.9370 -1.1423  2.8104
  993MOL0     H36974  11.330   4.028   4.486 -0.1296  0.9353 -0.0724
  993MOL0     H36975  11.586   3.962   4.650  1.5306  2.0282 -1.6105
  993MOL0     H36976  11.583   3.907   4.481 -1.2872 -2.4964  0.8292
  993MOL0     H36977  11.400   3.822   4.706 -0.2705  2.3333 -0.7959
  993MOL0     H36978  11.346   3.825   4.541 -1.3273 -0.6335  1.0444
  993MOL0     H36979  11.545   3.674   4.472 -0.8958 -1.6218  0.5190
  993MOL0     H36980  11.447   3.607   4.597  0.3653 -0.6901  1.1368
  993MOL0     H36981  11.726   3.739   4.623 -0.7255 -0.6148 -1.7920
  993MOL0     H36982  11.628   3.689   4.764 -1.7381 -0.6674  0.2787
  993MOL0     H36983  11.622   3.433   4.811 -0.3130  3.7606 -0.5082
  993MOL0     H36984  11.840   3.136   4.664 -1.8252  0.0232 -1.6328
  993MOL0     H36985  11.669   3.126   4.704  0.2214 -0.1268 -1.9545
  993MOL0     H36986  11.737   3.276   4.920 -1.9445  1.1236 -1.9353
  993MOL0     H36987  11.775   3.108   4.934  2.2394 -0.5988  0.1377
  993MOL0     H36988  12.003   3.139   4.892 -1.9284 -1.5215  3.8467
  993MOL0     H36989  11.985   3.308   4.815  2.6275 -0.6655 -0.3430
  993MOL0     H36990  11.940   3.248   5.103  1.6146 -1.3186 -0.1850
  993MOL0     H36991  12.085   3.318   5.026  0.6939 -0.4170  0.3939
  993MOL0     H36992  12.101   3.552   5.171 -1.6327  0.6927  0.6337
  993MOL0     H36993  12.216   3.858   5.241  0.2643  1.2996 -1.3969
  993MOL0     H36994  12.355   3.777   5.168  0.1909 -0.5067  0.0971
  993MOL0     H36995  12.237   3.692   5.274  1.1001  0.3110  0.1204
  993MOL0     H36996  12.294   4.174   4.856 -0.4621 -1.1209 -0.7869
  993MOL0     H36997  12.436   4.364   4.853 -0.3377 -0.2765 -0.0065
  993MOL0     H36998  12.636   4.468   4.812  1.0137  0.7619 -0.4447
  993MOL0     H36999  12.576   4.570   4.952 -0.5980  1.7938 -1.5020
  993MOL0     H37000  12.752   4.690   4.895  1.3775  0.7412  1.9940
  993MOL0     H37001  12.832   4.585   5.008 -3.6083  2.2614  1.9787
  993MOL0     H37002  12.854   4.594   4.709 -0.9910 -0.0424  1.3546
  993MOL0     H37003  12.855   4.427   4.766 -0.7531 -0.1557 -1.3015
  993MOL0     H37004  13.050   4.623   4.885 -2.7913  1.2162  0.0444
  993MOL0     H37005  13.078   4.541   4.733  0.7618 -3.2649  0.0313
  993MOL0     H37006  13.033   4.366   4.982 -3.8049 -0.3540 -2.1173
  993MOL0     H37007  13.107   4.336   4.829  1.1284  2.0007 -1.0160
  993MOL0     H37008  13.268   4.520   4.870 -0.3839 -0.1695  0.2342
  993MOL0     H37009  13.291   4.373   4.958 -0.8074 -0.3721 -0.4760
  993MOL0     H37010  13.143   4.478   5.152  1.1656 -0.3730 -0.0160
  993MOL0     H37011  13.181   4.633   5.083 -1.9923 -0.7887 -0.0097
  993MOL0     H37012  13.417   4.464   5.105 -0.8678  0.7785 -1.9849
  993MOL0     H37013  13.335   4.449   5.261  1.6906 -1.1459 -0.7586
  993MOL0     H37014  12.688   4.172   5.153  0.3870 -0.0689  0.1039
  993MOL0     H37015  12.523   3.989   5.162 -1.4818  2.9017  2.8821
  993MOL0     H37016  12.064   3.783   4.750  3.7015 -3.1133 -1.4093
  993MOL0     H37017  11.941   3.584   4.771 -1.0473  1.3787 -1.6874
  993MOL0     H37018  11.440   4.377   3.983  1.1065  1.8158 -0.6688
  993MOL0     H37019  11.396   4.508   3.795 -1.1085 -1.0369 -0.8063
  993MOL0     H37020  11.140   4.923   3.681 -1.2875 -0.3300  0.2220
  993MOL0     H37021  11.105   5.079   3.506 -0.1412  1.0821 -2.9108
  993MOL0     H37022  10.978   5.171   3.143  0.0704 -2.1851 -0.3219
  993MOL0     H37023  10.957   5.171   3.312 -0.3322  1.2893 -1.0403
  993MOL0     H37024  11.226   5.229   3.329 -0.0570 -1.1300  0.2222
  993MOL0     H37025  11.169   5.341   3.211  3.5360  0.5907 -1.1770
  993MOL0     H37026  11.377   5.223   3.123 -0.4483 -0.5457  2.7258
  993MOL0     H37027  11.285   5.081   3.100 -0.5058 -0.9181  2.8075
  993MOL0     H37028  11.123   5.219   2.951 -1.6953  5.2276  1.2092
  993MOL0     H37029  11.283   5.175   2.902 -3.2114  1.2818 -2.2622
  993MOL0     H37030  11.291   5.603   2.951 -0.6810  0.4676 -0.5301
  993MOL0     H37031  11.086   4.749   3.224  0.4930 -0.0921 -0.6838
  993MOL0     H37032  11.038   4.489   3.405 -0.5002  0.5281  0.4719
  993MOL0     H37033  11.155   4.540   3.280 -1.1117  1.7504  0.1310
  993MOL0     H37034  11.218   4.517   3.434  0.9806  0.5703 -1.2471
  994MOL0     O37035   0.977   8.028   7.771 -0.2429 -0.7249  0.0513
  994MOL0     C37036   0.993   8.098   7.870 -0.0155  0.6610 -0.5966
  994MOL0     O37037   1.111   8.117   7.935 -0.5266 -0.2999 -0.8242
  994MOL0     C37038   1.229   8.138   7.873  0.0811  0.5786  0.4547
  994MOL0     C37039   1.351   8.118   7.941 -0.2509 -0.1592  0.5082
  994MOL0     C37040   1.467   8.156   7.867  0.5702  0.8850  0.6942
  994MOL0     C37041   1.466   8.167   7.726  0.4067  0.5713  0.4346
  994MOL0     O37042   1.581   8.185   7.656  0.0363  0.8631 -0.0984
  994MOL0     C37043   1.630   8.071   7.595  0.0964  0.8003 -0.8944
  994MOL0     C37044   1.754   8.089   7.497 -0.0934  0.3138 -0.1380
  994MOL0     C37045   1.827   7.954   7.464 -0.2285  0.7350  0.3246
  994MOL0     C37046   1.922   7.957   7.340  1.9818 -0.0451  0.4999
  994MOL0     C37047   2.013   7.833   7.327  0.0232  0.6922 -0.3234
  994MOL0     C37048   1.934   7.700   7.313  0.4101  0.3319  0.6513
  994MOL0     C37049   2.006   7.559   7.352 -0.4911 -0.2968 -0.2908
  994MOL0     C37050   1.946   7.492   7.472 -0.4289  0.6465 -0.2044
  994MOL0     N37051   1.942   7.587   7.584 -0.6508  0.0003  0.5551
  994MOL0     C37052   2.054   7.656   7.623  0.2869 -0.1924  0.2209
  994MOL0     C37053   2.017   7.752   7.715  0.6053 -0.2488 -0.9085
  994MOL0     C37054   2.109   7.836   7.804 -0.2956 -0.2287  0.1716
  994MOL0     C37055   2.223   7.768   7.869  0.2176  0.0263 -0.1521
  994MOL0     C37056   2.162   7.670   7.980  0.6276 -0.2290  0.0903
  994MOL0     C37057   2.275   7.561   8.010 -0.1493 -0.4149  1.0903
  994MOL0     O37058   2.345   7.512   7.892  0.3349 -0.0910 -0.5444
  994MOL0     C37059   2.283   7.410   7.813  0.7797  0.0474 -0.3165
  994MOL0     C37060   2.157   7.346   7.842  0.0693  0.2598  0.1695
  994MOL0     C37061   2.097   7.253   7.759 -0.3455  0.0251  0.4573
  994MOL0     C37062   1.968   7.195   7.802 -0.0348  0.2963 -0.7655
  994MOL0     C37063   2.157   7.213   7.639 -1.0291  0.2214 -1.0403
  994MOL0     C37064   2.095   7.146   7.527  1.0689 -0.0609 -0.5406
  994MOL0     O37065   2.164   7.092   7.420  0.7966  0.2198  0.2823
  994MOL0     C37066   2.103   7.097   7.297 -0.7712 -0.1844  0.3100
  994MOL0     C37067   2.084   7.218   7.226  0.3121 -0.1634  0.2707
  994MOL0     C37068   2.029   7.227   7.099 -0.2092 -0.3479 -0.6009
  994MOL0     C37069   1.983   7.112   7.046 -0.0845  0.1535  0.0879
  994MOL0     O37070   1.939   7.126   6.913 -0.0715 -0.3841 -0.5383
  994MOL0     C37071   1.876   7.017   6.860  1.4712 -0.1642  0.9243
  994MOL0     C37072   1.792   7.050   6.730  0.7127  0.4836 -1.0797
  994MOL0     C37073   1.716   6.939   6.657 -0.1724 -0.7148 -0.0376
  994MOL0     C37074   1.663   6.843   6.755  0.5901 -1.0429 -0.5504
  994MOL0     C37075   1.554   6.901   6.851  0.5743  0.4855  0.9063
  994MOL0     C37076   1.513   6.795   6.951  0.3258 -0.2644  0.4797
  994MOL0     C37077   1.433   6.679   6.892  0.1798 -0.7674  0.6074
  994MOL0     C37078   1.358   6.598   6.998 -0.5588  0.6924 -0.4153
  994MOL0    Cl37079   1.456   6.542   7.130  0.1481 -0.3078  0.5619
  994MOL0     C37080   1.994   6.984   7.109  0.2127  0.5767 -0.3853
  994MOL0     C37081   2.053   6.981   7.238 -0.1848  0.6984  0.2230
  994MOL0     O37082   1.971   7.158   7.525 -0.4230  1.0533 -0.5945
  994MOL0     C37083   2.279   7.275   7.610  0.4084  0.2375  0.5059
  994MOL0     C37084   2.343   7.360   7.700  1.3464 -0.5246 -0.0815
  994MOL0     N37085   1.871   7.728   7.735  0.2834 -0.4763 -0.9053
  994MOL0     N37086   1.830   7.631   7.654 -0.1585  0.6836  0.1258
  994MOL0     C37087   1.344   8.172   7.655 -0.8347  0.5549  0.3619
  994MOL0     C37088   1.229   8.161   7.729  0.1620  0.5885 -0.4518
  994MOL0     C37089   0.882   8.187   7.917  0.8413 -0.5927 -0.5104
  994MOL0     C37090   0.910   8.296   8.001  0.1999 -0.8168  0.8851
  994MOL0     C37091   0.819   8.393   8.038  0.4232 -0.5425 -0.1758
  994MOL0     C37092   0.679   8.379   8.009  0.0621  0.2090  0.7064
  994MOL0     O37093   0.590   8.471   8.060  0.4893 -0.7881 -0.2562
  994MOL0     C37094   0.452   8.444   8.084 -0.7086 -0.4087 -0.1170
  994MOL0     C37095   0.409   8.521   8.210 -0.1500 -0.3509 -0.6999
  994MOL0     C37096   0.471   8.670   8.233 -0.7153 -0.3872  0.8208
  994MOL0     C37097   0.393   8.764   8.325 -0.5314  0.6587  0.0681
  994MOL0     C37098   0.396   8.694   8.458  0.8785 -0.1239  1.1227
  994MOL0     C37099   0.384   8.629   8.556  0.4951 -0.5713 -0.6265
  994MOL0     C37100   0.644   8.266   7.924 -0.5323 -0.0682  0.4984
  994MOL0     C37101   0.744   8.176   7.887  0.7723 -0.6660  0.1699
  994MOL0     C37102   0.691   8.048   7.824  0.5098  0.0823  0.6898
  994MOL0     H37103   1.359   8.085   8.044 -0.2668  0.3461  0.6758
  994MOL0     H37104   1.568   8.153   7.906  0.3994 -1.3726  1.1209
  994MOL0     H37105   1.558   8.023   7.528  0.0491 -1.4966  0.6732
  994MOL0     H37106   1.645   7.998   7.676  0.1211  0.5857 -1.0910
  994MOL0     H37107   1.728   8.141   7.405 -0.9126  0.5895  0.2392
  994MOL0     H37108   1.821   8.153   7.555 -0.4416  1.1755 -0.6792
  994MOL0     H37109   1.886   7.929   7.553 -2.1726  0.9134  1.7387
  994MOL0     H37110   1.747   7.879   7.458 -0.5272  1.0850 -0.1068
  994MOL0     H37111   1.861   7.961   7.249  1.5556 -0.8488  0.7491
  994MOL0     H37112   1.985   8.046   7.349  1.0755  1.1392 -2.9995
  994MOL0     H37113   2.074   7.812   7.415  0.3690 -3.4834 -1.3570
  994MOL0     H37114   2.081   7.838   7.241 -0.7006  1.7886 -0.8629
  994MOL0     H37115   1.834   7.716   7.354 -0.5827  1.6459 -1.9978
  994MOL0     H37116   1.903   7.686   7.208  0.9539 -2.4048  0.7711
  994MOL0     H37117   2.111   7.586   7.369 -0.9781  0.4509  1.9016
  994MOL0     H37118   2.009   7.487   7.269 -0.5466 -0.5591 -0.0656
  994MOL0     H37119   1.842   7.460   7.455 -0.2817 -0.2208  0.4193
  994MOL0     H37120   2.007   7.404   7.492  0.4949  1.0556 -1.1583
  994MOL0     H37121   2.157   7.642   7.590  0.6368  1.1312  0.6758
  994MOL0     H37122   2.051   7.895   7.876  0.4292 -0.0996  0.6601
  994MOL0     H37123   2.149   7.918   7.743  0.6316 -1.5369 -1.0392
  994MOL0     H37124   2.273   7.714   7.788  0.5306  3.5700 -2.5326
  994MOL0     H37125   2.297   7.833   7.916  0.7562 -1.5538  1.3010
  994MOL0     H37126   2.145   7.728   8.071  0.9474 -0.5436  0.3532
  994MOL0     H37127   2.069   7.618   7.959  0.3447 -0.4356  1.7933
  994MOL0     H37128   2.349   7.608   8.076  1.5119 -2.0384  0.4845
  994MOL0     H37129   2.232   7.479   8.069 -2.7939  0.3780  0.3506
  994MOL0     H37130   2.105   7.392   7.926  3.0048  1.5827  1.4221
  994MOL0     H37131   1.883   7.253   7.764 -3.4002 -2.4296  1.9202
  994MOL0     H37132   1.948   7.206   7.909  1.8064  4.3692 -0.6458
  994MOL0     H37133   1.960   7.091   7.770  2.5756 -0.4613  0.7459
  994MOL0     H37134   2.127   7.303   7.278 -1.0387  0.2511  0.7561
  994MOL0     H37135   2.022   7.317   7.039  3.0983  0.0766 -0.5308
  994MOL0     H37136   1.951   6.951   6.814  0.8308  1.0769 -2.1970
  994MOL0     H37137   1.822   6.966   6.940  0.6963 -1.2656 -0.2381
  994MOL0     H37138   1.721   7.125   6.766 -0.4767 -0.9048 -0.4569
  994MOL0     H37139   1.856   7.100   6.657  0.0693  1.8375 -0.7466
  994MOL0     H37140   1.774   6.906   6.571  1.3536  1.0216  0.2782
  994MOL0     H37141   1.630   6.988   6.610  1.8387  1.4729 -1.6704
  994MOL0     H37142   1.741   6.794   6.813 -0.7343 -3.5334 -0.6950
  994MOL0     H37143   1.618   6.770   6.687 -0.3768 -1.2068  0.2267
  994MOL0     H37144   1.591   6.980   6.917 -2.3761  2.0670  0.8306
  994MOL0     H37145   1.472   6.947   6.794  0.2044 -0.5228  0.5889
  994MOL0     H37146   1.441   6.841   7.020  0.5679 -0.6574  0.9929
  994MOL0     H37147   1.603   6.768   7.006  0.7816 -0.7882 -0.5043
  994MOL0     H37148   1.498   6.606   6.842 -1.7386 -1.2148 -1.3557
  994MOL0     H37149   1.359   6.709   6.817 -0.2937 -1.9495  0.5833
  994MOL0     H37150   1.324   6.502   6.958 -0.0037 -0.5231  1.8633
  994MOL0     H37151   1.270   6.641   7.046  0.0062 -3.3572  5.1547
  994MOL0     H37152   1.970   6.888   7.065  1.2903  0.0158  0.2022
  994MOL0     H37153   2.070   6.897   7.304  1.2622  2.0338  1.6457
  994MOL0     H37154   2.318   7.255   7.511 -0.7547 -0.2688  0.1281
  994MOL0     H37155   2.437   7.394   7.657  1.6830 -2.3532 -0.9054
  994MOL0     H37156   1.335   8.179   7.547 -0.7924 -3.8463 -0.1195
  994MOL0     H37157   1.140   8.183   7.671 -0.2980  1.3080  0.4803
  994MOL0     H37158   1.014   8.321   8.019  0.6800 -3.0185  1.5524
  994MOL0     H37159   0.863   8.470   8.101  1.8571 -1.8489  0.5021
  994MOL0     H37160   0.391   8.467   7.996  0.5667 -0.3178 -1.0178
  994MOL0     H37161   0.441   8.336   8.098 -4.0373 -0.5350 -2.3966
  994MOL0     H37162   0.457   8.464   8.290  1.5336 -0.5645 -1.8027
  994MOL0     H37163   0.300   8.518   8.215 -0.1468  0.8318  1.1098
  994MOL0     H37164   0.571   8.676   8.276  0.6019  3.3692 -2.1779
  994MOL0     H37165   0.490   8.709   8.133  1.5798  0.1491  1.4071
  994MOL0     H37166   0.288   8.768   8.296 -1.4967 -2.6642  2.4714
  994MOL0     H37167   0.447   8.859   8.338  0.3246  0.1028  0.7060
  994MOL0     H37168   0.362   8.576   8.646 -2.3244  1.0648 -0.2641
  994MOL0     H37169   0.540   8.254   7.894 -0.2730 -0.6603 -0.1969
  994MOL0     H37170   0.747   8.024   7.733 -0.0231 -0.0717  0.3967
  994MOL0     H37171   0.696   7.964   7.894 -1.5502  1.1727  2.2441
  994MOL0     H37172   0.587   8.054   7.789  0.6650 -3.3760 -0.7890
  995MOL0     O37173   6.004   8.928   0.118  0.3974  0.5594 -0.7827
  995MOL0     C37174   5.972   8.817   0.065 -0.3124  0.6491 -0.5895
  995MOL0     O37175   5.927   8.813  -0.056  0.4568  0.2443  0.0353
  995MOL0     C37176   5.975   8.906  -0.151 -0.5362 -0.9649  0.5526
  995MOL0     C37177   6.101   8.971  -0.145  0.5216 -0.5224  1.1221
  995MOL0     C37178   6.146   9.072  -0.240  0.0271  0.3098 -0.2580
  995MOL0     C37179   6.070   9.083  -0.357  0.5366 -0.2506  0.0738
  995MOL0     O37180   6.098   9.175  -0.459 -0.1900 -0.0205 -1.0712
  995MOL0     C37181   6.235   9.186  -0.501  0.3598  0.6463  0.7304
  995MOL0     C37182   6.239   9.273  -0.633  0.2077 -0.7431  0.1825
  995MOL0     C37183   6.379   9.312  -0.687  0.3074 -0.3265 -0.7959
  995MOL0     C37184   6.480   9.205  -0.726  0.2104 -0.3358 -0.1620
  995MOL0     C37185   6.606   9.258  -0.801  0.9176 -0.6840 -0.2326
  995MOL0     C37186   6.710   9.320  -0.707  0.8667 -0.2793  1.1316
  995MOL0     C37187   6.839   9.371  -0.782  0.5492 -0.0023  0.5730
  995MOL0     C37188   6.937   9.441  -0.684 -0.0977 -0.7242 -0.1952
  995MOL0     N37189   7.060   9.486  -0.745 -0.2208 -0.4195  0.3394
  995MOL0     C37190   7.090   9.617  -0.798 -0.2351 -0.4358  0.4540
  995MOL0     C37191   7.213   9.613  -0.852  0.2450  0.1510  1.0516
  995MOL0     C37192   7.288   9.734  -0.910 -0.8606 -0.5767 -0.1833
  995MOL0     C37193   7.211   9.808  -1.013  0.1920 -0.0318 -0.1903
  995MOL0     C37194   7.291   9.922  -1.071 -0.4821  0.5403  0.0108
  995MOL0     C37195   7.389   9.871  -1.187  0.7383 -0.3856 -0.6281
  995MOL0     O37196   7.368   9.735  -1.244  0.8825 -0.2017 -0.8727
  995MOL0     C37197   7.263   9.716  -1.341 -0.0046 -0.8292  0.1238
  995MOL0     C37198   7.257   9.590  -1.407  0.4207  0.9026 -0.2527
  995MOL0     C37199   7.155   9.561  -1.500 -0.0362  0.0318 -0.6965
  995MOL0     C37200   7.158   9.418  -1.545 -0.1285 -0.0918  0.3992
  995MOL0     C37201   7.069   9.666  -1.540 -0.0683  0.7349 -0.9414
  995MOL0     C37202   6.976   9.643  -1.647  0.3298  0.1113  0.0304
  995MOL0     O37203   6.941   9.757  -1.706  0.5743 -0.5218  0.7849
  995MOL0     C37204   6.859   9.758  -1.824 -0.0196  0.3605 -0.5767
  995MOL0     C37205   6.865   9.659  -1.923  0.3926  0.2473  0.1047
  995MOL0     C37206   6.788   9.665  -2.040 -0.5533  0.5077  0.5430
  995MOL0     C37207   6.716   9.777  -2.064  0.6198  1.1671  1.2802
  995MOL0     O37208   6.653   9.766  -2.177  0.4558  0.2804  0.8046
  995MOL0     C37209   6.579   9.880  -2.232  0.0402  0.3899 -0.5136
  995MOL0     C37210   6.500   9.874  -2.369 -0.2678 -1.1193  0.0186
  995MOL0     C37211   6.577   9.810  -2.480  0.0115 -0.1909 -0.2465
  995MOL0     C37212   6.602   9.660  -2.457 -0.4793 -0.1756  0.5993
  995MOL0     C37213   6.481   9.568  -2.418 -0.6692  0.1330  0.4148
  995MOL0     C37214   6.396   9.549  -2.540  0.6006 -0.7847  0.1907
  995MOL0     C37215   6.295   9.438  -2.539 -0.1850  0.1588  0.3231
  995MOL0     C37216   6.215   9.449  -2.663  0.1962 -0.2309 -0.1216
  995MOL0    Cl37217   6.078   9.339  -2.686 -0.4414  0.0557  0.5904
  995MOL0     C37218   6.704   9.871  -1.964 -0.7583 -0.7594 -0.5915
  995MOL0     C37219   6.777   9.870  -1.847 -0.2719  0.8503 -0.0483
  995MOL0     O37220   6.914   9.534  -1.661 -0.0081 -0.2304  0.1366
  995MOL0     C37221   7.082   9.791  -1.484  0.5334 -0.1566  0.3012
  995MOL0     C37222   7.175   9.821  -1.384 -1.3420 -0.3004 -0.1167
  995MOL0     N37223   7.246   9.478  -0.854  0.4110  0.7303 -1.1032
  995MOL0     N37224   7.170   9.409  -0.773 -0.1840 -0.6719  0.7684
  995MOL0     C37225   5.948   9.014  -0.367  0.4938  0.2970 -0.3556
  995MOL0     C37226   5.902   8.926  -0.270  0.3215 -0.3180  0.7771
  995MOL0     C37227   5.996   8.680   0.138  0.1536  0.3491 -0.0089
  995MOL0     C37228   6.105   8.676   0.224  0.8189 -0.2919 -0.9863
  995MOL0     C37229   6.130   8.567   0.306 -1.0759  0.5979  0.0997
  995MOL0     C37230   6.049   8.451   0.284  0.6872  0.5280  0.2381
  995MOL0     O37231   6.058   8.332   0.355  0.8225  0.2032 -0.3591
  995MOL0     C37232   6.109   8.344   0.496  0.4449 -0.6722 -0.1818
  995MOL0     C37233   6.003   8.397   0.601  0.3189 -0.1177 -0.5819
  995MOL0     C37234   5.858   8.346   0.586 -0.1786  0.4434  0.0491
  995MOL0     C37235   5.756   8.454   0.543  0.5246  0.2335  0.1458
  995MOL0     C37236   5.741   8.542   0.654  0.1183 -0.7853  0.5071
  995MOL0     C37237   5.726   8.605   0.758 -0.2265  0.6796 -0.5424
  995MOL0     C37238   5.963   8.438   0.175  1.0944  0.1163 -0.4977
  995MOL0     C37239   5.923   8.558   0.105 -0.0502 -0.2545 -0.8070
  995MOL0     C37240   5.817   8.547   0.001  0.0401 -0.3979  0.1257
  995MOL0     H37241   6.166   8.954  -0.060 -0.6513  1.3837  2.4773
  995MOL0     H37242   6.242   9.122  -0.232  0.2461 -0.1544  0.0421
  995MOL0     H37243   6.267   9.082  -0.511 -1.6656 -0.4659  4.1598
  995MOL0     H37244   6.282   9.241  -0.420 -0.8111  2.1051  0.4698
  995MOL0     H37245   6.197   9.213  -0.714  0.7369  0.3541 -0.9440
  995MOL0     H37246   6.184   9.366  -0.620  1.3574  0.2166 -1.3765
  995MOL0     H37247   6.369   9.390  -0.763  2.2900 -0.9302 -1.7248
  995MOL0     H37248   6.429   9.358  -0.601 -0.4200 -1.8458  0.5076
  995MOL0     H37249   6.533   9.164  -0.640 -0.5204  0.7476  0.8257
  995MOL0     H37250   6.420   9.128  -0.775  0.3498 -0.4592 -0.1412
  995MOL0     H37251   6.569   9.324  -0.880 -2.8630 -3.5332 -1.1448
  995MOL0     H37252   6.653   9.175  -0.854 -1.3242 -0.6100 -2.5040
  995MOL0     H37253   6.665   9.414  -0.672 -3.3128 -0.7503 -2.1038
  995MOL0     H37254   6.745   9.265  -0.620  1.5928  1.1501  1.7714
  995MOL0     H37255   6.808   9.443  -0.858 -1.7861 -3.5334 -2.1858
  995MOL0     H37256   6.880   9.289  -0.842 -2.0367  0.2342 -1.6805
  995MOL0     H37257   6.891   9.531  -0.642 -0.4778 -0.2069 -1.6378
  995MOL0     H37258   6.956   9.368  -0.605 -0.6885 -0.4064  0.2463
  995MOL0     H37259   7.035   9.711  -0.797 -0.1913 -0.4129  0.7306
  995MOL0     H37260   7.381   9.696  -0.953  0.6873  3.1204 -0.5365
  995MOL0     H37261   7.306   9.798  -0.823 -1.0191  0.4467 -0.8846
  995MOL0     H37262   7.172   9.743  -1.092 -1.1640 -1.9022  1.8940
  995MOL0     H37263   7.121   9.851  -0.970  1.4009 -0.3464  2.9319
  995MOL0     H37264   7.217   9.990  -1.114 -0.1047  0.7102 -0.3720
  995MOL0     H37265   7.336   9.984  -0.993 -0.2768  0.5899 -0.1447
  995MOL0     H37266   7.407   9.946  -1.266 -1.9901 -0.6078 -1.5707
  995MOL0     H37267   7.481   9.876  -1.129 -0.7443  3.6071  1.8286
  995MOL0     H37268   7.316   9.507  -1.369 -0.3976  0.0492 -0.8294
  995MOL0     H37269   7.251   9.377  -1.505  2.1275  2.2899 -2.0055
  995MOL0     H37270   7.164   9.423  -1.654 -0.8491 -0.1460  0.3528
  995MOL0     H37271   7.072   9.358  -1.514  1.7969 -1.5820  3.2926
  995MOL0     H37272   6.898   9.555  -1.924  0.2115  0.0683 -4.0483
  995MOL0     H37273   6.793   9.580  -2.107  0.1355  1.2884 -0.4034
  995MOL0     H37274   6.507   9.900  -2.153  1.7183  1.3263  0.8540
  995MOL0     H37275   6.651   9.961  -2.247 -1.0061  1.2276 -1.2127
  995MOL0     H37276   6.408   9.818  -2.351 -1.7190  1.3884  0.9500
  995MOL0     H37277   6.468   9.973  -2.403  0.3562 -0.7614  0.4635
  995MOL0     H37278   6.671   9.861  -2.503  0.1227  2.9506  5.2438
  995MOL0     H37279   6.522   9.807  -2.574  1.0341  2.9773 -1.0719
  995MOL0     H37280   6.685   9.653  -2.386 -3.3870 -1.1877  4.2701
  995MOL0     H37281   6.638   9.625  -2.554 -1.6822 -0.1259  0.1156
  995MOL0     H37282   6.537   9.479  -2.388  2.0829  0.9917 -1.8087
  995MOL0     H37283   6.422   9.604  -2.333 -1.1649  1.1625 -0.3472
  995MOL0     H37284   6.471   9.527  -2.618  1.4226  0.0107  0.7323
  995MOL0     H37285   6.344   9.642  -2.567 -1.3936 -1.6290  0.9440
  995MOL0     H37286   6.232   9.461  -2.452 -2.9653  2.6317 -2.1356
  995MOL0     H37287   6.340   9.339  -2.528  1.9480  0.3963 -4.1197
  995MOL0     H37288   6.286   9.428  -2.743 -0.5739  2.0921 -1.5368
  995MOL0     H37289   6.176   9.549  -2.687  0.8623 -0.1010 -0.6964
  995MOL0     H37290   6.638   9.957  -1.970  0.4232  0.1818 -6.2879
  995MOL0     H37291   6.781   9.951  -1.774 -1.3812  0.2890  0.6621
  995MOL0     H37292   7.020   9.871  -1.525  0.0999  0.2877  1.7589
  995MOL0     H37293   7.187   9.926  -1.358 -1.8232 -0.1806 -0.3688
  995MOL0     H37294   5.892   9.047  -0.454 -0.3944 -1.7651 -0.6188
  995MOL0     H37295   5.803   8.884  -0.260  0.4295 -0.5133  1.0378
  995MOL0     H37296   6.167   8.764   0.232  3.0201 -1.9119  2.2889
  995MOL0     H37297   6.210   8.585   0.376  0.4204 -2.2650 -0.7100
  995MOL0     H37298   6.146   8.246   0.528 -1.6896 -1.5802 -0.3158
  995MOL0     H37299   6.196   8.410   0.488  0.2118 -0.5966 -4.6855
  995MOL0     H37300   5.997   8.506   0.598  1.0406 -0.0715 -0.6852
  995MOL0     H37301   6.035   8.385   0.705  1.3820  2.0850 -0.5837
  995MOL0     H37302   5.868   8.279   0.500  0.3271 -0.3262  0.6959
  995MOL0     H37303   5.818   8.284   0.667 -1.9901 -1.5532 -2.2375
  995MOL0     H37304   5.663   8.408   0.509  2.1528 -1.6722 -2.0112
  995MOL0     H37305   5.790   8.498   0.449  0.4015 -3.6478 -1.8810
  995MOL0     H37306   5.713   8.655   0.852  0.9267  1.3249 -0.7109
  995MOL0     H37307   5.919   8.340   0.156 -1.6730  0.8153  1.5332
  995MOL0     H37308   5.856   8.579  -0.096  2.1134 -0.0132  1.0294
  995MOL0     H37309   5.774   8.448  -0.014  0.3478 -0.6159  0.6406
  995MOL0     H37310   5.732   8.613   0.021 -1.3859 -1.3020 -2.4964
  996MOL0     O37311   8.264   3.372   4.830  0.2843  0.2860 -0.3590
  996MOL0     C37312   8.228   3.484   4.795 -0.5340 -0.2469 -0.1503
  996MOL0     O37313   8.224   3.602   4.872 -0.3420  0.2161 -0.5002
  996MOL0     C37314   8.285   3.615   4.995 -0.7421 -1.1214 -0.4631
  996MOL0     C37315   8.310   3.753   5.022  0.8114 -0.1864 -0.0832
  996MOL0     C37316   8.350   3.784   5.151  0.1912 -0.4922 -0.1260
  996MOL0     C37317   8.345   3.696   5.256  0.3350  0.9599  0.5484
  996MOL0     O37318   8.386   3.723   5.388 -0.8530 -0.1354  0.5494
  996MOL0     C37319   8.393   3.859   5.433  0.6351 -0.3977  0.0277
  996MOL0     C37320   8.424   3.866   5.583 -0.4144 -1.0659  0.2677
  996MOL0     C37321   8.414   4.014   5.640  0.7103 -0.2119  0.5497
  996MOL0     C37322   8.411   4.012   5.796  0.2133 -0.6828  0.1932
  996MOL0     C37323   8.391   4.153   5.843 -0.1276 -0.5092 -0.0064
  996MOL0     C37324   8.396   4.167   5.998 -0.1558  0.1740  0.3797
  996MOL0     C37325   8.536   4.143   6.053 -0.9262 -0.0109 -0.4716
  996MOL0     C37326   8.535   4.193   6.196  0.1141  0.4562  0.9496
  996MOL0     N37327   8.660   4.168   6.266 -0.2035  0.4715  0.0205
  996MOL0     C37328   8.720   4.257   6.352  0.6712 -0.4955  0.4708
  996MOL0     C37329   8.808   4.188   6.415 -0.5871  0.1694 -0.2958
  996MOL0     C37330   8.903   4.233   6.528 -0.0408 -0.3805 -0.3441
  996MOL0     C37331   9.019   4.324   6.484  0.0651 -0.0825  0.1594
  996MOL0     C37332   9.102   4.258   6.371  0.6572  0.2443 -0.4627
  996MOL0     C37333   9.181   4.347   6.293 -0.8029 -0.4966  0.2938
  996MOL0     O37334   9.091   4.433   6.208 -0.0787 -0.1019  0.1111
  996MOL0     C37335   9.007   4.386   6.114 -0.0072 -0.7616 -0.4260
  996MOL0     C37336   8.916   4.475   6.062  0.4264  0.2577  0.5145
  996MOL0     C37337   8.829   4.435   5.961  0.3422  0.5796  0.0926
  996MOL0     C37338   8.736   4.541   5.914  0.2032 -1.2964  0.1202
  996MOL0     C37339   8.854   4.325   5.880  0.0845  0.4848 -0.7041
  996MOL0     C37340   8.792   4.288   5.749  0.8662 -0.2711  0.0681
  996MOL0     O37341   8.818   4.168   5.709  0.1011  0.1944  0.4649
  996MOL0     C37342   8.794   4.113   5.584  0.1080 -0.2002 -0.8965
  996MOL0     C37343   8.789   4.185   5.466  0.0363 -0.2359  0.2090
  996MOL0     C37344   8.732   4.121   5.348 -0.6839 -0.4294 -0.1371
  996MOL0     C37345   8.733   3.980   5.346  0.0117 -0.9527 -0.3656
  996MOL0     O37346   8.711   3.910   5.233 -0.5589 -0.1098  0.0958
  996MOL0     C37347   8.792   3.938   5.123  0.3861 -0.7529  0.6566
  996MOL0     C37348   8.805   3.832   5.011  0.3059 -1.8142 -0.5273
  996MOL0     C37349   8.741   3.700   5.055  0.2094 -0.3703  0.6715
  996MOL0     C37350   8.767   3.582   4.956 -0.1217 -0.3284  0.0015
  996MOL0     C37351   8.683   3.460   4.996 -0.3322 -1.0241  0.1269
  996MOL0     C37352   8.727   3.347   4.901  0.4817  0.0821  0.2978
  996MOL0     C37353   8.675   3.206   4.932 -0.2596  0.4376 -0.4264
  996MOL0     C37354   8.735   3.143   5.049 -0.7083  1.0724 -1.0697
  996MOL0    Cl37355   8.903   3.091   5.017  0.2464 -0.1969 -0.0826
  996MOL0     C37356   8.756   3.904   5.464  0.5077  0.3649 -0.7836
  996MOL0     C37357   8.777   3.975   5.581 -0.3230  0.1604  0.5901
  996MOL0     O37358   8.750   4.376   5.672 -0.3392 -0.6341  0.1264
  996MOL0     C37359   8.947   4.235   5.939  0.6420 -0.4732 -0.2184
  996MOL0     C37360   9.020   4.264   6.054 -1.0030  0.4273  0.0702
  996MOL0     N37361   8.814   4.069   6.355  0.3544  0.6711 -0.0798
  996MOL0     N37362   8.723   4.055   6.263 -0.2087  0.0871 -1.6066
  996MOL0     C37363   8.312   3.564   5.227 -0.1853 -0.2727 -0.6464
  996MOL0     C37364   8.294   3.513   5.092 -0.1917 -0.3678  0.1673
  996MOL0     C37365   8.180   3.514   4.659 -0.7194  1.1315 -0.0309
  996MOL0     C37366   8.042   3.549   4.628  0.1043 -0.7152 -0.5621
  996MOL0     C37367   7.999   3.557   4.494 -0.4411  0.4847  0.1221
  996MOL0     C37368   8.084   3.532   4.390 -0.4397 -0.8087 -0.2233
  996MOL0     O37369   8.048   3.532   4.262  0.4532 -0.0288  0.7166
  996MOL0     C37370   7.918   3.588   4.223  0.1615 -0.2307 -0.2031
  996MOL0     C37371   7.926   3.612   4.074  0.0718  0.6860  0.0057
  996MOL0     C37372   7.961   3.754   4.032  0.3377  0.0593 -0.3807
  996MOL0     C37373   7.975   3.764   3.879 -0.2886  0.2182 -0.6080
  996MOL0     C37374   8.023   3.898   3.853 -0.5417 -0.3650  0.3939
  996MOL0     C37375   8.051   4.018   3.847 -0.1692 -0.3960 -0.2643
  996MOL0     C37376   8.212   3.492   4.420 -0.3245 -0.2139  0.5414
  996MOL0     C37377   8.268   3.497   4.549  1.1659  1.0042 -0.0870
  996MOL0     C37378   8.417   3.477   4.566  1.5276 -0.3064  0.4113
  996MOL0     H37379   8.296   3.828   4.945  0.3569 -0.8304 -0.6367
  996MOL0     H37380   8.371   3.890   5.163  0.8208 -0.5865 -0.3387
  996MOL0     H37381   8.295   3.904   5.419  0.3415 -1.2060 -0.5660
  996MOL0     H37382   8.471   3.915   5.381  1.3466 -2.6686 -1.4738
  996MOL0     H37383   8.360   3.799   5.642 -0.9820 -0.8682 -0.1130
  996MOL0     H37384   8.524   3.824   5.590 -0.0274  0.0324  2.9885
  996MOL0     H37385   8.495   4.076   5.602 -0.8661  0.6530 -1.5884
  996MOL0     H37386   8.327   4.066   5.599  0.7064 -1.8935 -1.8400
  996MOL0     H37387   8.334   3.942   5.830  2.0405 -2.7440  0.2950
  996MOL0     H37388   8.507   3.967   5.822  0.0530 -1.6540 -0.8376
  996MOL0     H37389   8.291   4.188   5.814  0.4322  1.9596  0.8481
  996MOL0     H37390   8.462   4.220   5.796  1.8083 -3.5672 -1.7917
  996MOL0     H37391   8.371   4.272   6.013  0.3728  0.0728  2.2181
  996MOL0     H37392   8.317   4.104   6.041  0.8605 -2.3399 -1.2056
  996MOL0     H37393   8.620   4.196   6.007  1.0418 -0.3534  2.4613
  996MOL0     H37394   8.566   4.038   6.044 -0.2917  0.0114  1.0065
  996MOL0     H37395   8.507   4.297   6.217 -0.2929  0.5636 -0.0710
  996MOL0     H37396   8.455   4.127   6.231  0.1284 -0.0156  0.1171
  996MOL0     H37397   8.689   4.360   6.365  1.5951  0.0556 -1.3271
  996MOL0     H37398   8.943   4.144   6.576 -2.3742 -1.1142  0.3968
  996MOL0     H37399   8.846   4.290   6.602 -1.6606  1.6138 -2.9158
  996MOL0     H37400   8.972   4.417   6.452  0.9165 -0.5715 -2.7465
  996MOL0     H37401   9.086   4.348   6.568 -1.7912 -0.1072  1.7280
  996MOL0     H37402   9.170   4.187   6.418 -0.3078 -0.5080 -0.1618
  996MOL0     H37403   9.038   4.189   6.315 -0.0592 -1.5337  2.3560
  996MOL0     H37404   9.252   4.408   6.349 -1.2107  0.8403 -0.5845
  996MOL0     H37405   9.244   4.285   6.228 -0.7037  1.2785 -1.3850
  996MOL0     H37406   8.907   4.572   6.110  3.6704  1.3319 -0.7452
  996MOL0     H37407   8.638   4.498   5.892  0.2851 -0.2569 -2.6186
  996MOL0     H37408   8.784   4.586   5.827 -1.8667  2.1074  0.5452
  996MOL0     H37409   8.710   4.622   5.982  1.3808 -1.7275  1.1223
  996MOL0     H37410   8.820   4.289   5.468 -1.1324  0.1332  1.9898
  996MOL0     H37411   8.713   4.186   5.264  0.3483  2.1411  1.5109
  996MOL0     H37412   8.749   4.030   5.082 -0.0024 -0.9519  0.6075
  996MOL0     H37413   8.898   3.955   5.139  0.3782  0.3237 -0.3351
  996MOL0     H37414   8.756   3.870   4.921  1.0695 -1.4745 -0.8121
  996MOL0     H37415   8.909   3.821   4.979  0.7260  3.3132 -1.8527
  996MOL0     H37416   8.634   3.716   5.074 -0.2302 -0.3126 -1.5794
  996MOL0     H37417   8.780   3.665   5.151  2.3869 -2.1106 -0.7405
  996MOL0     H37418   8.875   3.569   4.940 -0.2988  0.3828 -2.1011
  996MOL0     H37419   8.729   3.612   4.858  0.4891 -0.3948 -0.2640
  996MOL0     H37420   8.713   3.434   5.098  1.2973 -2.5562 -0.6703
  996MOL0     H37421   8.576   3.477   4.981  0.5520  3.4448 -3.1928
  996MOL0     H37422   8.834   3.355   4.876  0.0207  0.9183 -1.5831
  996MOL0     H37423   8.709   3.397   4.806  1.3966  0.9066  0.5349
  996MOL0     H37424   8.689   3.128   4.856 -1.5291 -2.7169  2.3420
  996MOL0     H37425   8.566   3.209   4.931 -0.3521 -1.2545  1.0059
  996MOL0     H37426   8.680   3.060   5.096  1.9402  1.5889  3.4872
  996MOL0     H37427   8.739   3.209   5.136  0.5413 -1.1356  0.6808
  996MOL0     H37428   8.749   3.796   5.461 -0.2479  0.1543  3.1640
  996MOL0     H37429   8.793   3.921   5.674  1.7501  1.0449  0.8015
  996MOL0     H37430   8.970   4.134   5.906  0.1784 -1.2658  1.7554
  996MOL0     H37431   9.079   4.179   6.086  1.4635  2.2007  0.5589
  996MOL0     H37432   8.319   3.500   5.314  1.3949  0.2053 -0.3748
  996MOL0     H37433   8.267   3.410   5.071 -3.3968  0.9883 -3.3492
  996MOL0     H37434   7.969   3.562   4.708  1.0629 -0.2984  0.2738
  996MOL0     H37435   7.897   3.577   4.464 -0.2763  0.2726 -0.6192
  996MOL0     H37436   7.837   3.518   4.242 -3.3172  3.1182 -1.3528
  996MOL0     H37437   7.900   3.686   4.270 -0.6001  0.1341 -1.2205
  996MOL0     H37438   7.828   3.603   4.025 -0.5491  1.8297  0.9770
  996MOL0     H37439   7.994   3.540   4.028  3.4587  4.5433 -1.6439
  996MOL0     H37440   7.875   3.807   4.074 -0.1397 -0.0454 -1.1907
  996MOL0     H37441   8.051   3.787   4.083  0.6739 -0.7080 -0.4589
  996MOL0     H37442   7.883   3.754   3.821 -1.4327  1.6786  0.8535
  996MOL0     H37443   8.036   3.676   3.854 -3.7375 -2.5297 -0.0480
  996MOL0     H37444   8.068   4.116   3.808  2.1219 -1.6404 -2.7592
  996MOL0     H37445   8.281   3.482   4.336 -2.1949  2.3652 -1.4726
  996MOL0     H37446   8.440   3.438   4.666  0.9806 -2.6929 -0.3166
  996MOL0     H37447   8.461   3.396   4.507  2.9276 -0.6616  1.8738
  996MOL0     H37448   8.459   3.577   4.554  2.0973 -0.6928 -1.0480
  997MOL0     O37449   1.468   5.768   3.881  0.3848  0.7016  0.6264
  997MOL0     C37450   1.507   5.885   3.883  0.4579 -0.5728 -0.0272
  997MOL0     O37451   1.557   5.944   3.993 -0.0405 -0.0539  0.0701
  997MOL0     C37452   1.567   5.868   4.106  0.8420  0.1785  0.0297
  997MOL0     C37453   1.492   5.892   4.226 -1.1588  1.0261 -0.1624
  997MOL0     C37454   1.522   5.823   4.344 -0.7145  0.4711 -0.1502
  997MOL0     C37455   1.621   5.729   4.341 -0.2502  0.5767 -1.0392
  997MOL0     O37456   1.640   5.655   4.462 -0.1851  0.2623 -0.0619
  997MOL0     C37457   1.675   5.518   4.452 -0.1605 -0.2066 -0.7406
  997MOL0     C37458   1.699   5.456   4.590 -0.7782  0.6854 -1.5288
  997MOL0     C37459   1.574   5.453   4.679  1.1233  0.6452  0.9013
  997MOL0     C37460   1.572   5.357   4.792  0.7862 -0.7879  0.1098
  997MOL0     C37461   1.427   5.315   4.817 -0.1701  0.2189 -0.1485
  997MOL0     C37462   1.361   5.398   4.928 -0.1277  0.1562 -0.6359
  997MOL0     C37463   1.216   5.332   4.946 -0.2431 -1.0932  0.4535
  997MOL0     C37464   1.140   5.391   5.068  0.1101 -0.4439 -0.5552
  997MOL0     N37465   1.178   5.343   5.203  0.0826  0.8619 -0.1338
  997MOL0     C37466   1.286   5.381   5.279  0.7868 -0.3293 -0.0708
  997MOL0     C37467   1.274   5.302   5.396  0.0014 -0.2734  0.1100
  997MOL0     C37468   1.374   5.301   5.508  0.2735  0.0175 -0.6367
  997MOL0     C37469   1.398   5.159   5.574  0.3553 -0.4407 -0.3717
  997MOL0     C37470   1.495   5.078   5.488 -0.0666  1.0433  0.2593
  997MOL0     C37471   1.548   4.947   5.543 -0.1093  0.4493 -0.0378
  997MOL0     O37472   1.442   4.863   5.504 -0.0987  0.2117  0.0792
  997MOL0     C37473   1.470   4.723   5.475  0.0545 -0.9609 -0.1782
  997MOL0     C37474   1.377   4.656   5.403  0.1762 -0.2613 -0.7237
  997MOL0     C37475   1.388   4.518   5.376 -0.5220 -0.7328  0.4475
  997MOL0     C37476   1.270   4.457   5.312 -0.2167 -0.5572 -0.0526
  997MOL0     C37477   1.510   4.454   5.398 -0.6104  0.1420 -0.2677
  997MOL0     C37478   1.543   4.315   5.352  0.7303  0.5088  0.1565
  997MOL0     O37479   1.450   4.254   5.278 -0.1773 -0.2555  1.0029
  997MOL0     C37480   1.470   4.124   5.241 -0.2495  1.3720 -0.0953
  997MOL0     C37481   1.411   4.085   5.115 -0.6751  0.0741  0.5639
  997MOL0     C37482   1.415   3.953   5.070 -0.1058  0.8358 -0.3226
  997MOL0     C37483   1.463   3.848   5.152 -0.1746  0.4758  0.9554
  997MOL0     O37484   1.430   3.724   5.101 -0.6038  1.1799  0.0055
  997MOL0     C37485   1.506   3.615   5.164 -0.3455  0.9214 -0.1491
  997MOL0     C37486   1.652   3.589   5.125  0.2510  0.3097  1.2694
  997MOL0     C37487   1.667   3.570   4.976 -0.3437  0.1871  0.4227
  997MOL0     C37488   1.656   3.422   4.931 -0.6352  0.4889  0.2463
  997MOL0     C37489   1.687   3.428   4.781 -0.0762 -0.5569 -0.3536
  997MOL0     C37490   1.685   3.290   4.714 -0.0165 -0.2047 -0.3481
  997MOL0     C37491   1.681   3.305   4.557 -0.0630  1.0459 -0.6409
  997MOL0     C37492   1.630   3.176   4.489  0.7139  0.6097  0.6545
  997MOL0    Cl37493   1.722   3.033   4.541 -0.5875  0.2163 -0.1291
  997MOL0     C37494   1.515   3.888   5.275 -0.0871  0.1732  0.4087
  997MOL0     C37495   1.515   4.015   5.320 -0.1259 -0.3309  0.3104
  997MOL0     O37496   1.652   4.264   5.376  0.2044  0.4121 -0.5300
  997MOL0     C37497   1.616   4.530   5.466 -0.0511 -0.2699  0.0177
  997MOL0     C37498   1.590   4.663   5.506  0.1855 -0.1032 -0.3458
  997MOL0     N37499   1.160   5.225   5.378  0.4709  0.8754 -0.0740
  997MOL0     N37500   1.109   5.246   5.266  0.5815  0.8272  0.1153
  997MOL0     C37501   1.697   5.707   4.226 -0.7719  0.2215  0.0040
  997MOL0     C37502   1.673   5.783   4.105  0.0041  0.2119 -0.1931
  997MOL0     C37503   1.530   5.965   3.755  0.3015 -0.6360 -0.4689
  997MOL0     C37504   1.641   6.059   3.746  0.4617  0.1292  0.3449
  997MOL0     C37505   1.669   6.112   3.621  0.1689  0.6485 -0.0765
  997MOL0     C37506   1.588   6.094   3.513 -0.2328 -0.2988  0.3826
  997MOL0     O37507   1.594   6.178   3.400 -0.3978  0.2126  0.3168
  997MOL0     C37508   1.724   6.243   3.370  0.3562 -0.2030 -0.3188
  997MOL0     C37509   1.842   6.143   3.362 -0.8617 -0.7858 -0.5151
  997MOL0     C37510   1.847   6.043   3.242  0.5314  0.5125 -0.8201
  997MOL0     C37511   1.873   6.116   3.105 -0.2680  0.0394 -0.6488
  997MOL0     C37512   1.849   6.021   2.994  0.1064 -0.1769 -0.2124
  997MOL0     C37513   1.824   5.969   2.887  0.1650 -0.2469  0.5043
  997MOL0     C37514   1.482   6.004   3.526  0.9386  0.1897 -0.2695
  997MOL0     C37515   1.454   5.938   3.645  0.0368  0.0072  0.2466
  997MOL0     C37516   1.326   5.857   3.648 -0.2183 -0.2632 -0.8548
  997MOL0     H37517   1.417   5.970   4.219  1.1880  3.3468 -1.5525
  997MOL0     H37518   1.467   5.829   4.438  1.0921  1.6361  0.9141
  997MOL0     H37519   1.765   5.498   4.392  1.3124 -2.8238  2.0853
  997MOL0     H37520   1.585   5.467   4.418  1.0857 -3.8306  0.8858
  997MOL0     H37521   1.737   5.355   4.571  0.7892  1.1747 -1.1398
  997MOL0     H37522   1.774   5.516   4.642 -0.4383 -0.5455 -0.5281
  997MOL0     H37523   1.542   5.552   4.713  2.4876  1.3288  0.2828
  997MOL0     H37524   1.498   5.418   4.608 -0.7490  1.3234  2.4996
  997MOL0     H37525   1.619   5.264   4.758  0.5919 -0.3309 -1.5193
  997MOL0     H37526   1.628   5.403   4.874 -1.3847 -1.5970  2.1543
  997MOL0     H37527   1.423   5.213   4.858  2.0094 -0.9854 -2.6793
  997MOL0     H37528   1.355   5.306   4.735  2.7727  0.0316 -2.8821
  997MOL0     H37529   1.423   5.390   5.018 -0.9405  3.2494  0.3226
  997MOL0     H37530   1.363   5.505   4.905  0.0031 -0.1491 -2.1569
  997MOL0     H37531   1.213   5.223   4.952 -3.1786 -1.3269 -2.3536
  997MOL0     H37532   1.159   5.357   4.856 -0.1508 -1.8587  0.1750
  997MOL0     H37533   1.160   5.499   5.069  0.4319 -0.4804  1.6513
  997MOL0     H37534   1.033   5.380   5.047 -0.1116  1.9815 -1.0529
  997MOL0     H37535   1.364   5.452   5.254  0.9140 -0.2186  0.6238
  997MOL0     H37536   1.340   5.373   5.583  3.7027  0.7002  0.4581
  997MOL0     H37537   1.468   5.340   5.467  1.5612 -2.4809 -0.2828
  997MOL0     H37538   1.440   5.175   5.673 -3.0091 -0.3609  1.1843
  997MOL0     H37539   1.304   5.102   5.575 -0.1537  0.3130  2.3275
  997MOL0     H37540   1.438   5.064   5.396  1.5387 -1.1947 -0.5079
  997MOL0     H37541   1.587   5.130   5.461  0.1372 -0.3928 -2.1766
  997MOL0     H37542   1.640   4.924   5.488 -0.4770  0.4996 -0.6945
  997MOL0     H37543   1.567   4.944   5.650  0.6293 -3.0520 -0.1315
  997MOL0     H37544   1.281   4.697   5.370  0.6723  3.2496  1.6054
  997MOL0     H37545   1.218   4.373   5.358 -1.8322  0.0351 -0.7329
  997MOL0     H37546   1.297   4.442   5.208 -0.1282 -0.8601  0.0149
  997MOL0     H37547   1.188   4.529   5.304 -0.1492 -0.4363  0.2861
  997MOL0     H37548   1.361   4.157   5.052  1.4693  2.5839  1.5170
  997MOL0     H37549   1.374   3.936   4.971  0.8567 -1.3020 -0.4238
  997MOL0     H37550   1.500   3.614   5.274 -2.3019  1.7025 -0.2082
  997MOL0     H37551   1.455   3.521   5.144 -1.3978  1.8034 -1.8768
  997MOL0     H37552   1.712   3.679   5.142  1.5552 -0.0150 -1.1099
  997MOL0     H37553   1.689   3.509   5.190 -5.9300 -1.9553  2.6218
  997MOL0     H37554   1.768   3.595   4.941 -0.3480  0.7481  0.7915
  997MOL0     H37555   1.607   3.635   4.911 -1.0546 -0.0446  0.8435
  997MOL0     H37556   1.560   3.376   4.954 -1.0751  2.8339  3.7700
  997MOL0     H37557   1.740   3.368   4.975 -0.7566 -1.4714 -1.7336
  997MOL0     H37558   1.616   3.494   4.729  1.9597  0.4365 -2.0091
  997MOL0     H37559   1.784   3.475   4.763 -1.2837  1.7086 -1.4143
  997MOL0     H37560   1.596   3.233   4.743 -1.0428 -0.2732 -3.2864
  997MOL0     H37561   1.776   3.245   4.754  1.2289  1.4313 -1.2226
  997MOL0     H37562   1.781   3.331   4.523 -0.2569 -0.5087 -2.6192
  997MOL0     H37563   1.624   3.395   4.532  0.6740  1.3272 -1.3624
  997MOL0     H37564   1.643   3.197   4.383  3.2240  0.5999  0.8821
  997MOL0     H37565   1.522   3.169   4.506  0.7796  1.3991  1.4935
  997MOL0     H37566   1.562   3.813   5.338  0.0032  1.2737  1.7172
  997MOL0     H37567   1.538   4.050   5.420 -0.7951  6.0862 -1.3511
  997MOL0     H37568   1.718   4.494   5.472 -0.4357 -1.2409  1.1806
  997MOL0     H37569   1.668   4.715   5.561  0.3959 -1.9151  1.1406
  997MOL0     H37570   1.774   5.631   4.225 -0.1676  0.5417  4.2113
  997MOL0     H37571   1.722   5.759   4.011  0.6008  0.2738  0.0980
  997MOL0     H37572   1.705   6.094   3.826 -1.4050  1.5251  1.3067
  997MOL0     H37573   1.745   6.188   3.610 -0.3824  0.9414 -2.4986
  997MOL0     H37574   1.712   6.311   3.285 -2.7781  2.7736  2.2337
  997MOL0     H37575   1.739   6.301   3.462  0.6215 -0.2805 -0.3132
  997MOL0     H37576   1.830   6.083   3.453 -2.3658  0.7127  0.3297
  997MOL0     H37577   1.937   6.196   3.369 -1.0345 -0.5361  0.0006
  997MOL0     H37578   1.910   5.958   3.267 -1.9898 -0.6234  2.3394
  997MOL0     H37579   1.748   5.997   3.238  1.4200 -1.5210 -0.3293
  997MOL0     H37580   1.972   6.162   3.104 -0.9568  1.6583  0.1769
  997MOL0     H37581   1.810   6.204   3.088 -0.4872 -0.0566 -0.3501
  997MOL0     H37582   1.793   5.907   2.805 -0.2737  0.7311 -0.0884
  997MOL0     H37583   1.406   5.991   3.450 -0.0435  0.7261  0.5931
  997MOL0     H37584   1.286   5.864   3.750  1.8077 -0.2157 -0.0286
  997MOL0     H37585   1.244   5.895   3.586 -0.8233  1.0900  0.6776
  997MOL0     H37586   1.331   5.754   3.613  0.2203  0.3435 -2.6861
  998MOL0     O37587   0.596   7.723   5.543  0.1266 -0.3212  0.1877
  998MOL0     C37588   0.713   7.752   5.567 -0.9842 -0.2893  0.3263
  998MOL0     O37589   0.802   7.825   5.486 -0.8338  0.0511  0.5190
  998MOL0     C37590   0.754   7.936   5.419  0.0149  0.6454  1.4723
  998MOL0     C37591   0.845   8.000   5.328  0.0421  0.5516  0.2105
  998MOL0     C37592   0.808   8.106   5.250  0.0371 -0.1511 -0.2639
  998MOL0     C37593   0.676   8.165   5.256 -0.1706  0.1747 -0.4622
  998MOL0     O37594   0.631   8.268   5.189  0.6015  0.2730  0.2960
  998MOL0     C37595   0.650   8.248   5.056  0.0006  0.1812 -0.3804
  998MOL0     C37596   0.555   8.329   4.970  0.3425  0.3981  0.2341
  998MOL0     C37597   0.409   8.299   5.000 -1.3103 -0.3618  0.2612
  998MOL0     C37598   0.317   8.403   4.926 -0.6260 -0.9129  0.8605
  998MOL0     C37599   0.178   8.351   4.924 -0.2057 -0.0963 -0.5693
  998MOL0     C37600   0.176   8.255   4.802 -0.4378  0.1000  0.3115
  998MOL0     C37601   0.179   8.334   4.675  0.4582 -0.7727 -0.0220
  998MOL0     C37602   0.149   8.246   4.550  1.3798  0.2446 -0.1609
  998MOL0     N37603   0.251   8.145   4.504 -0.0141  0.0133  0.1735
  998MOL0     C37604   0.376   8.159   4.440 -0.4778  0.6524 -0.6439
  998MOL0     C37605   0.424   8.034   4.438 -0.0966 -0.8341  0.2513
  998MOL0     C37606   0.560   7.992   4.383  0.5290 -0.3998 -0.6576
  998MOL0     C37607   0.667   8.096   4.364  0.0498 -1.4896 -0.3897
  998MOL0     C37608   0.794   8.034   4.304 -0.1652 -0.2698 -0.3868
  998MOL0     C37609   0.918   8.103   4.349  0.2030 -0.0595  0.0711
  998MOL0     O37610   1.034   8.032   4.307 -0.8779  0.5753  0.6316
  998MOL0     C37611   1.152   8.080   4.370 -1.2060 -0.2546  0.3074
  998MOL0     C37612   1.264   8.027   4.305 -0.5313 -0.6730  0.1803
  998MOL0     C37613   1.402   8.069   4.326 -0.1062  0.2439  0.5203
  998MOL0     C37614   1.508   8.013   4.256 -0.2686 -0.1637  0.6695
  998MOL0     C37615   1.418   8.174   4.426  0.7872  0.2135 -0.2651
  998MOL0     C37616   1.556   8.225   4.464  0.6095  0.3616  0.3495
  998MOL0     O37617   1.558   8.360   4.499 -0.7772  0.3452 -0.8016
  998MOL0     C37618   1.675   8.430   4.523 -0.1576 -0.1782  0.2893
  998MOL0     C37619   1.806   8.383   4.494  0.3075  0.1892 -0.8305
  998MOL0     C37620   1.920   8.463   4.536  0.4197 -0.4187  0.2835
  998MOL0     C37621   1.908   8.585   4.603  0.2772 -0.0441  0.5838
  998MOL0     O37622   2.017   8.654   4.644 -0.1040  0.2002  0.0062
  998MOL0     C37623   2.022   8.694   4.785  0.4623  0.2286  0.1859
  998MOL0     C37624   2.159   8.711   4.839 -0.1829 -0.1294 -0.1976
  998MOL0     C37625   2.240   8.827   4.786 -0.1311  0.5894  0.6191
  998MOL0     C37626   2.225   8.954   4.872  0.4936 -0.9855 -0.0777
  998MOL0     C37627   2.304   9.079   4.821 -0.2846  0.3579 -0.1386
  998MOL0     C37628   2.296   9.111   4.672 -0.4251  0.3310  0.2668
  998MOL0     C37629   2.393   9.228   4.629  0.3833 -1.2623  0.3109
  998MOL0     C37630   2.387   9.262   4.477  0.6446 -0.3248 -0.6235
  998MOL0    Cl37631   2.377   9.434   4.428  0.3708  0.5908 -0.1644
  998MOL0     C37632   1.775   8.630   4.621 -0.1959 -0.4106 -0.1278
  998MOL0     C37633   1.661   8.554   4.583 -0.0148  0.0109  0.0917
  998MOL0     O37634   1.637   8.139   4.505 -0.3828 -0.0354 -0.3064
  998MOL0     C37635   1.304   8.218   4.495  0.2158  0.4476  0.2556
  998MOL0     C37636   1.174   8.176   4.473 -0.2316 -0.0481  0.1285
  998MOL0     N37637   0.337   7.950   4.507 -0.0025  0.1310  0.2629
  998MOL0     N37638   0.239   8.019   4.553 -1.1192  0.2667 -0.3262
  998MOL0     C37639   0.586   8.112   5.343  0.1170 -0.2672 -1.6680
  998MOL0     C37640   0.623   7.999   5.428 -0.4493  0.7479  0.1203
  998MOL0     C37641   0.780   7.706   5.691  0.0037  0.4788 -0.2022
  998MOL0     C37642   0.750   7.571   5.728  0.3826  0.1758  0.3795
  998MOL0     C37643   0.798   7.511   5.842  0.6917  0.6077 -0.2892
  998MOL0     C37644   0.872   7.593   5.923 -0.0280  0.6256  0.1421
  998MOL0     O37645   0.912   7.554   6.052  0.9608  0.3796  0.6102
  998MOL0     C37646   0.823   7.464   6.128  0.1666  0.3063  0.1922
  998MOL0     C37647   0.845   7.471   6.280  0.1445 -0.3577  0.1145
  998MOL0     C37648   0.978   7.403   6.337  0.4813  0.1188  0.3146
  998MOL0     C37649   1.111   7.427   6.263  0.1638  0.6599 -0.0208
  998MOL0     C37650   1.147   7.568   6.264 -1.0470 -0.3166 -0.3362
  998MOL0     C37651   1.181   7.679   6.289 -0.8262 -0.1882 -0.2794
  998MOL0     C37652   0.892   7.727   5.896 -1.2934 -0.2568 -1.0526
  998MOL0     C37653   0.845   7.787   5.782  0.2366 -1.2078 -0.5055
  998MOL0     C37654   0.857   7.935   5.762  0.2612  0.2651 -0.6058
  998MOL0     H37655   0.933   7.941   5.306 -0.2420  0.4028 -0.5628
  998MOL0     H37656   0.875   8.146   5.175 -0.5539 -1.6294 -1.6328
  998MOL0     H37657   0.628   8.146   5.023  2.2490 -1.6587  3.1599
  998MOL0     H37658   0.752   8.273   5.024  0.0157  0.5952 -0.0242
  998MOL0     H37659   0.579   8.435   4.978 -0.7892  0.6438  0.5111
  998MOL0     H37660   0.577   8.298   4.867  0.5630 -1.8445  0.8864
  998MOL0     H37661   0.384   8.196   4.972 -2.9527 -0.2398  1.1640
  998MOL0     H37662   0.397   8.316   5.107  0.1277  0.0470  0.3805
  998MOL0     H37663   0.324   8.495   4.985 -0.7402 -0.7234  0.5808
  998MOL0     H37664   0.359   8.434   4.830 -1.0776 -2.3434  0.1812
  998MOL0     H37665   0.095   8.421   4.930  1.1383  1.4711  0.6440
  998MOL0     H37666   0.161   8.283   5.009 -2.8692  1.3163  0.1320
  998MOL0     H37667   0.250   8.176   4.812 -2.2489 -1.6287  0.6606
  998MOL0     H37668   0.083   8.198   4.805  0.4725 -1.3884  1.1134
  998MOL0     H37669   0.273   8.384   4.653  0.6577 -0.1955  1.9389
  998MOL0     H37670   0.108   8.417   4.675  0.6951 -0.5718 -0.3355
  998MOL0     H37671   0.055   8.195   4.572  2.7635 -1.7455  1.4174
  998MOL0     H37672   0.136   8.304   4.458  4.1411 -1.6457 -1.8879
  998MOL0     H37673   0.411   8.253   4.398 -2.5317  1.3518 -0.9432
  998MOL0     H37674   0.555   7.944   4.284  5.5892  0.4132 -1.5866
  998MOL0     H37675   0.585   7.911   4.453  3.6118  3.1232  2.7689
  998MOL0     H37676   0.627   8.177   4.302 -0.1183  0.4513  2.0710
  998MOL0     H37677   0.694   8.129   4.465 -1.0477  0.6702 -0.7483
  998MOL0     H37678   0.808   7.931   4.339  4.2530  1.1016  2.6783
  998MOL0     H37679   0.791   8.032   4.195 -2.0341  0.2082 -0.3825
  998MOL0     H37680   0.913   8.203   4.306 -0.3537 -1.6440 -4.0375
  998MOL0     H37681   0.895   8.109   4.456 -1.2922  1.8325 -0.2910
  998MOL0     H37682   1.245   7.947   4.234 -2.9166  0.4242 -0.5188
  998MOL0     H37683   1.470   7.997   4.154  2.5183  0.8759 -0.6261
  998MOL0     H37684   1.531   7.919   4.307 -0.5260  0.3869  1.8174
  998MOL0     H37685   1.592   8.083   4.252 -0.7771  0.4135 -1.4508
  998MOL0     H37686   1.816   8.285   4.448 -0.8443 -0.1859 -0.3263
  998MOL0     H37687   2.022   8.425   4.537  1.2213  1.4832  3.1148
  998MOL0     H37688   1.971   8.790   4.797  2.4632  1.5625 -1.4314
  998MOL0     H37689   1.970   8.623   4.849  2.4071 -1.3647  0.0878
  998MOL0     H37690   2.152   8.722   4.947  1.9275 -1.5399  0.1344
  998MOL0     H37691   2.218   8.623   4.811  0.9650  0.5102  0.1315
  998MOL0     H37692   2.215   8.843   4.681 -0.5725  0.6641  0.7332
  998MOL0     H37693   2.347   8.804   4.792  0.1043  0.8504 -1.7814
  998MOL0     H37694   2.266   8.929   4.971  0.8709 -0.3348 -0.0626
  998MOL0     H37695   2.121   8.987   4.881  0.5626 -1.1641  1.6851
  998MOL0     H37696   2.282   9.173   4.872  2.3773  1.0925 -0.1588
  998MOL0     H37697   2.410   9.059   4.837 -0.6072 -1.8802 -0.4608
  998MOL0     H37698   2.192   9.133   4.647  0.0832  0.3889 -1.9702
  998MOL0     H37699   2.329   9.026   4.612 -1.8592  2.3544 -3.7232
  998MOL0     H37700   2.498   9.201   4.643  1.7591  2.2650 -1.7079
  998MOL0     H37701   2.366   9.315   4.689  1.0068 -0.0320 -1.1076
  998MOL0     H37702   2.293   9.218   4.444  0.1936  1.2046 -1.4677
  998MOL0     H37703   2.467   9.204   4.431 -0.7919 -1.9707 -1.1491
  998MOL0     H37704   1.768   8.723   4.677  2.3190 -1.1713  1.6193
  998MOL0     H37705   1.557   8.573   4.608  0.9084  2.8252  2.3592
  998MOL0     H37706   1.311   8.295   4.572 -2.7627 -1.3665  2.6215
  998MOL0     H37707   1.083   8.202   4.526  1.3840  2.2733  1.9485
  998MOL0     H37708   0.482   8.140   5.349 -0.0155 -1.0254  1.8497
  998MOL0     H37709   0.563   7.956   5.508  0.7062  0.6622  0.9558
  998MOL0     H37710   0.696   7.507   5.659  0.1388 -0.8539  1.4799
  998MOL0     H37711   0.800   7.406   5.868 -0.6462  1.2898  3.0933
  998MOL0     H37712   0.723   7.489   6.092 -0.4764 -0.9314  1.0246
  998MOL0     H37713   0.842   7.359   6.103  1.4831  0.0106  2.2021
  998MOL0     H37714   0.756   7.431   6.329 -0.3982  0.3956 -0.2464
  998MOL0     H37715   0.853   7.579   6.289 -0.5440  0.0960 -3.3241
  998MOL0     H37716   0.994   7.434   6.441 -0.1792 -2.2761  1.1971
  998MOL0     H37717   0.952   7.297   6.346  1.4502 -0.1293  0.3090
  998MOL0     H37718   1.101   7.381   6.164 -0.5056 -0.0267  0.3580
  998MOL0     H37719   1.186   7.367   6.315 -1.6550 -0.7942  1.0321
  998MOL0     H37720   1.229   7.770   6.320  0.6530 -2.2819  4.4974
  998MOL0     H37721   0.953   7.787   5.962 -0.2348 -0.8548 -1.4726
  998MOL0     H37722   0.863   7.984   5.859  1.4301  0.5103 -0.7860
  998MOL0     H37723   0.948   7.964   5.709  0.0576  1.6502 -0.2452
  998MOL0     H37724   0.772   7.984   5.714  1.3856  0.4899 -2.4767
  999MOL0     O37725   4.330   4.594   2.173 -0.3483 -0.3392 -0.2262
  999MOL0     C37726   4.209   4.618   2.183  0.7763  0.0299  0.2164
  999MOL0     O37727   4.150   4.740   2.162  0.4907  0.0893  0.1734
  999MOL0     C37728   4.218   4.844   2.105  0.2374 -0.1001 -0.8881
  999MOL0     C37729   4.221   4.849   1.966 -1.2682 -0.9950  0.8537
  999MOL0     C37730   4.298   4.955   1.915  0.5879 -0.2870 -0.4551
  999MOL0     C37731   4.357   5.059   1.995  0.5680 -0.3159  0.4692
  999MOL0     O37732   4.416   5.159   1.925 -0.8729 -0.4148  0.5595
  999MOL0     C37733   4.424   5.294   1.974 -1.3553  0.0454 -0.8053
  999MOL0     C37734   4.575   5.320   2.009  0.8147 -0.4049  0.8110
  999MOL0     C37735   4.596   5.442   2.087  1.1338  0.2087  0.5321
  999MOL0     C37736   4.548   5.572   2.026  0.3861 -0.9282 -0.2939
  999MOL0     C37737   4.598   5.702   2.091 -0.1500 -0.3207 -0.4542
  999MOL0     C37738   4.590   5.718   2.244  0.1885 -0.9180 -0.6271
  999MOL0     C37739   4.621   5.858   2.264 -0.2651 -0.7646 -0.3342
  999MOL0     C37740   4.602   5.899   2.413 -0.2731  0.2345 -0.3709
  999MOL0     N37741   4.606   6.050   2.407 -0.2082  0.4325  0.0501
  999MOL0     C37742   4.709   6.123   2.460 -0.1485  0.0075  0.2434
  999MOL0     C37743   4.694   6.246   2.412 -0.2227 -0.3045  0.3016
  999MOL0     C37744   4.772   6.373   2.441  0.6911  0.2502  0.0668
  999MOL0     C37745   4.727   6.426   2.582 -0.1790  0.1722  0.4434
  999MOL0     C37746   4.832   6.497   2.665 -0.0129  0.2110 -0.5291
  999MOL0     C37747   4.909   6.396   2.750 -0.9756 -0.3779 -0.2580
  999MOL0     O37748   5.013   6.333   2.671 -0.0999  0.0032 -0.3600
  999MOL0     C37749   5.139   6.384   2.666  0.5477 -0.7687  0.9024
  999MOL0     C37750   5.212   6.336   2.562  1.1289 -0.8515 -0.2131
  999MOL0     C37751   5.341   6.385   2.529 -0.2758  1.0889 -0.8843
  999MOL0     C37752   5.398   6.323   2.398  0.6071  0.3337  0.0229
  999MOL0     C37753   5.393   6.491   2.597  0.8515 -0.5680 -0.3745
  999MOL0     C37754   5.527   6.557   2.574  0.3443 -0.6253 -0.2191
  999MOL0     O37755   5.561   6.660   2.659 -0.4176 -0.4594 -0.1076
  999MOL0     C37756   5.667   6.746   2.633 -0.6769 -0.0088  0.4007
  999MOL0     C37757   5.723   6.805   2.747 -0.6985  0.5664 -0.0533
  999MOL0     C37758   5.831   6.890   2.729  1.0387 -0.5272 -0.6244
  999MOL0     C37759   5.890   6.910   2.598  0.3446 -0.6070 -0.1355
  999MOL0     O37760   6.001   6.988   2.594  0.0495 -0.5125 -0.3100
  999MOL0     C37761   6.122   6.932   2.648 -0.7189  0.2600 -1.1213
  999MOL0     C37762   6.173   6.813   2.577 -0.7879 -0.5875 -0.6062
  999MOL0     C37763   6.296   6.751   2.651 -0.0008 -0.8703  0.3876
  999MOL0     C37764   6.430   6.834   2.649  0.8908  0.5852  0.1757
  999MOL0     C37765   6.550   6.747   2.715 -0.6608 -0.3773  0.2614
  999MOL0     C37766   6.667   6.831   2.676  0.2350 -0.3982  0.0984
  999MOL0     C37767   6.798   6.756   2.729 -1.0045 -0.6092 -0.7727
  999MOL0     C37768   6.823   6.804   2.874  0.2148  0.0427 -0.2846
  999MOL0    Cl37769   6.918   6.679   2.958 -0.1924 -0.2567 -0.2498
  999MOL0     C37770   5.826   6.857   2.484 -0.3841  0.2964 -0.3937
  999MOL0     C37771   5.710   6.784   2.500 -0.7245 -0.0314 -0.2437
  999MOL0     O37772   5.586   6.533   2.472 -0.1028 -0.3319  0.5340
  999MOL0     C37773   5.325   6.537   2.710 -0.1379 -0.4328 -0.3928
  999MOL0     C37774   5.199   6.480   2.748 -0.4498 -1.0130  0.7166
  999MOL0     N37775   4.574   6.250   2.348 -0.1284  0.3552  0.6802
  999MOL0     N37776   4.516   6.134   2.342 -0.0039 -0.3470 -0.9633
  999MOL0     C37777   4.336   5.059   2.132  0.2332  0.1450  0.5297
  999MOL0     C37778   4.279   4.947   2.188  0.8430  0.2730 -0.7504
  999MOL0     C37779   4.139   4.500   2.228  0.7233 -0.1669  0.5171
  999MOL0     C37780   4.006   4.509   2.269  0.3339  0.3452  0.0445
  999MOL0     C37781   3.938   4.402   2.333 -0.4088 -0.0429 -0.2521
  999MOL0     C37782   4.002   4.279   2.331 -0.5529  0.0804 -0.8148
  999MOL0     O37783   3.962   4.161   2.392 -0.6262 -0.2799 -0.5748
  999MOL0     C37784   3.839   4.146   2.465  0.3761 -1.0837 -0.9396
  999MOL0     C37785   3.858   4.025   2.559  0.0448 -0.2392 -0.0152
  999MOL0     C37786   3.935   4.062   2.686 -0.3336 -0.6923  1.0275
  999MOL0     C37787   3.959   3.951   2.774  1.3083  0.4391 -0.2030
  999MOL0     C37788   3.846   3.856   2.795  0.8075 -0.0253  0.4586
  999MOL0     C37789   3.750   3.792   2.825  0.1797 -0.4153 -0.3918
  999MOL0     C37790   4.124   4.263   2.272  0.5042 -0.0705  0.3026
  999MOL0     C37791   4.200   4.373   2.231 -0.2800 -0.5906  0.2352
  999MOL0     C37792   4.328   4.325   2.167  0.4339  0.4961  1.2493
  999MOL0     H37793   4.167   4.783   1.898 -1.5378  0.7995 -0.7656
  999MOL0     H37794   4.303   4.974   1.808  0.4713  2.2834 -0.0540
  999MOL0     H37795   4.351   5.321   2.050 -1.4921  3.5872 -2.0238
  999MOL0     H37796   4.404   5.355   1.885 -1.2108 -1.4009 -1.8775
  999MOL0     H37797   4.616   5.236   2.065  1.0748  0.6456  2.2323
  999MOL0     H37798   4.638   5.318   1.919  0.4085  1.4512  0.4393
  999MOL0     H37799   4.547   5.430   2.184  0.7523  0.0142  0.3178
  999MOL0     H37800   4.705   5.446   2.097  1.3415 -3.4176  0.8768
  999MOL0     H37801   4.579   5.583   1.922  0.3669  2.7159 -0.0157
  999MOL0     H37802   4.439   5.579   2.036  0.4843 -2.0039  2.4892
  999MOL0     H37803   4.540   5.784   2.046 -1.8525  0.0163  2.1218
  999MOL0     H37804   4.702   5.721   2.064 -0.5910 -0.9136 -2.8290
  999MOL0     H37805   4.490   5.693   2.280  1.5712 -4.2274  1.4531
  999MOL0     H37806   4.679   5.671   2.288  2.0537  2.7257 -0.1219
  999MOL0     H37807   4.544   5.913   2.207  0.9563 -0.6277 -1.9216
  999MOL0     H37808   4.716   5.901   2.231 -0.0094 -0.2025  1.0810
  999MOL0     H37809   4.518   5.865   2.474 -0.8479 -2.7601 -2.6235
  999MOL0     H37810   4.692   5.862   2.463 -0.9112 -3.7564 -1.8138
  999MOL0     H37811   4.779   6.094   2.538  1.6558  1.4238 -0.7434
  999MOL0     H37812   4.737   6.450   2.371  0.8141 -0.2285 -0.5319
  999MOL0     H37813   4.880   6.356   2.431  0.4351 -1.7353  0.4331
  999MOL0     H37814   4.645   6.498   2.572 -1.7400 -1.6275 -0.5819
  999MOL0     H37815   4.679   6.341   2.632 -0.6493  1.2523  1.8916
  999MOL0     H37816   4.904   6.544   2.597 -1.2977  2.8127 -0.2241
  999MOL0     H37817   4.784   6.570   2.730 -2.1232 -0.1113 -1.6618
  999MOL0     H37818   4.949   6.442   2.841  1.3538 -2.0413 -0.3285
  999MOL0     H37819   4.844   6.317   2.789  0.8116 -1.1062  1.4508
  999MOL0     H37820   5.155   6.276   2.491 -1.0575  0.7933  0.0497
  999MOL0     H37821   5.363   6.374   2.308 -0.5062  3.9362  2.2406
  999MOL0     H37822   5.361   6.221   2.406 -2.0153  1.3273  2.4755
  999MOL0     H37823   5.507   6.317   2.405  0.7150  1.2240 -0.7704
  999MOL0     H37824   5.687   6.777   2.846 -1.4247  1.8562  0.0651
  999MOL0     H37825   5.879   6.927   2.820 -1.6287 -0.0423  0.6707
  999MOL0     H37826   6.200   7.005   2.669 -1.3706 -0.1853  4.0303
  999MOL0     H37827   6.089   6.898   2.747  0.2143 -0.0065 -0.8950
  999MOL0     H37828   6.098   6.739   2.548 -1.0287  0.0284 -1.6146
  999MOL0     H37829   6.206   6.854   2.481 -1.2855 -0.5825 -0.7813
  999MOL0     H37830   6.324   6.652   2.614 -1.5548 -1.2526  0.1678
  999MOL0     H37831   6.269   6.735   2.755 -2.1850 -2.8914 -0.3958
  999MOL0     H37832   6.424   6.922   2.714  1.4171  1.0290 -0.3644
  999MOL0     H37833   6.440   6.861   2.544  1.6236 -3.0373 -0.8300
  999MOL0     H37834   6.538   6.742   2.823  1.3848  0.9804  0.6118
  999MOL0     H37835   6.551   6.645   2.676  1.1112 -1.6376  3.2912
  999MOL0     H37836   6.645   6.927   2.724 -0.6652 -0.6702  0.2408
  999MOL0     H37837   6.673   6.860   2.571 -0.0432  1.4996  0.5635
  999MOL0     H37838   6.882   6.791   2.669 -1.3793 -1.1800 -1.6338
  999MOL0     H37839   6.800   6.647   2.731  1.1952 -0.6050 -0.0823
  999MOL0     H37840   6.729   6.829   2.924  0.1604 -0.8517  0.0694
  999MOL0     H37841   6.878   6.898   2.864 -0.0896  0.1481 -1.1125
  999MOL0     H37842   5.861   6.879   2.384  0.9405 -0.2199 -0.0661
  999MOL0     H37843   5.667   6.750   2.406 -0.4038 -0.5497 -0.2060
  999MOL0     H37844   5.363   6.606   2.785  0.6565 -2.4855  1.2116
  999MOL0     H37845   5.152   6.512   2.841 -1.0576  3.2162 -0.7925
  999MOL0     H37846   4.377   5.143   2.188 -0.2262  0.7442 -0.0077
  999MOL0     H37847   4.267   4.932   2.295 -1.4849 -0.1088 -1.0073
  999MOL0     H37848   3.948   4.601   2.265 -2.0505 -0.9946  1.5512
  999MOL0     H37849   3.836   4.410   2.368 -0.3050  1.9161 -0.2847
  999MOL0     H37850   3.809   4.232   2.526 -0.5030  0.5204 -3.4352
  999MOL0     H37851   3.767   4.140   2.383  0.7005 -1.2640 -1.2149
  999MOL0     H37852   3.890   3.933   2.508 -0.3624 -2.1822  2.9268
  999MOL0     H37853   3.759   4.004   2.601  0.8703  0.3392  2.3723
  999MOL0     H37854   4.031   4.099   2.648  0.1738  1.5116  3.9861
  999MOL0     H37855   3.895   4.146   2.745 -2.6362 -2.1290  1.6504
  999MOL0     H37856   3.987   4.001   2.867 -0.4683  1.1990 -0.0304
  999MOL0     H37857   4.040   3.892   2.730  2.2014  1.6133 -0.1809
  999MOL0     H37858   3.659   3.736   2.817 -1.1966  1.7942 -1.2411
  999MOL0     H37859   4.165   4.163   2.280 -0.2517 -0.3579  0.6800
  999MOL0     H37860   4.331   4.367   2.066 -0.3282 -1.9561  0.1321
  999MOL0     H37861   4.418   4.350   2.222  1.5465 -1.6098  0.4831
  999MOL0     H37862   4.332   4.218   2.145  1.2370  0.7688 -0.0475
 1000MOL0     O37863  10.316   2.766  10.993  0.6720 -0.3441 -1.3291
 1000MOL0     C37864  10.321   2.860  11.073 -0.7746 -0.6279 -0.3434
 1000MOL0     O37865  10.438   2.912  11.128  0.1158  0.5628 -0.1161
 1000MOL0     C37866  10.560   2.900  11.071  0.0071 -0.2626 -0.0148
 1000MOL0     C37867  10.625   3.004  10.992 -0.1045  0.5103 -0.2975
 1000MOL0     C37868  10.755   2.974  10.946  1.2402  0.9736  1.8815
 1000MOL0     C37869  10.809   2.847  10.951  0.5425  0.3247 -0.2878
 1000MOL0     O37870  10.933   2.822  10.899  0.2156  0.4376 -0.2396
 1000MOL0     C37871  11.018   2.707  10.934 -0.3803  0.0369 -0.9569
 1000MOL0     C37872  11.142   2.692  10.839 -0.3524  0.2666 -0.4494
 1000MOL0     C37873  11.111   2.611  10.717 -0.6463  0.3223  0.6407
 1000MOL0     C37874  11.167   2.676  10.595 -0.1841 -0.4644 -0.3538
 1000MOL0     C37875  11.120   2.617  10.473 -0.4372  0.3003 -0.0116
 1000MOL0     C37876  11.151   2.710  10.350  0.1674 -0.0769  0.5481
 1000MOL0     C37877  11.159   2.614  10.223  0.2221 -0.4567  0.8218
 1000MOL0     C37878  11.188   2.690  10.090 -0.1614 -0.0440 -0.8295
 1000MOL0     N37879  11.078   2.787  10.059 -0.0252  0.9136  0.1434
 1000MOL0     C37880  10.953   2.746  10.015 -0.2777 -0.4134  0.4945
 1000MOL0     C37881  10.895   2.872   9.993  0.9493 -1.0461  0.0569
 1000MOL0     C37882  10.753   2.896   9.947 -0.4100 -1.0750  0.2891
 1000MOL0     C37883  10.696   2.779   9.868 -0.6001 -0.8353  0.1109
 1000MOL0     C37884  10.564   2.811   9.799 -0.6875  0.3343  1.4783
 1000MOL0     C37885  10.575   2.906   9.679  0.5355  1.4490 -0.0751
 1000MOL0     O37886  10.663   2.864   9.577 -0.0347 -0.1444  0.3342
 1000MOL0     C37887  10.702   2.943   9.476 -0.5499 -0.1491 -0.2155
 1000MOL0     C37888  10.654   3.062   9.440  0.0449 -0.7942 -0.9186
 1000MOL0     C37889  10.699   3.133   9.330 -0.0717 -0.5041  0.4013
 1000MOL0     C37890  10.609   3.250   9.295  0.1921 -0.5190 -0.0263
 1000MOL0     C37891  10.794   3.078   9.240 -0.4657  0.4390  0.0174
 1000MOL0     C37892  10.847   3.143   9.120 -0.4900  0.9537 -1.0686
 1000MOL0     O37893  10.810   3.280   9.085 -0.1806 -0.0741  0.4380
 1000MOL0     C37894  10.905   3.350   9.016 -0.2489 -0.3650  0.4797
 1000MOL0     C37895  10.998   3.410   9.099 -0.0264  0.8115 -0.3105
 1000MOL0     C37896  11.124   3.449   9.042 -0.7345  1.0447 -0.0275
 1000MOL0     C37897  11.147   3.440   8.904  0.8696 -0.6489 -0.4845
 1000MOL0     O37898  11.259   3.470   8.831 -0.1940 -0.0069  0.0719
 1000MOL0     C37899  11.353   3.556   8.901 -0.5811  0.1984  0.1205
 1000MOL0     C37900  11.447   3.615   8.793 -0.1620 -0.4515  0.2210
 1000MOL0     C37901  11.568   3.679   8.856  0.5348 -0.3259 -0.3523
 1000MOL0     C37902  11.695   3.675   8.769  0.1284  0.5627  1.7081
 1000MOL0     C37903  11.820   3.743   8.833  0.6014 -0.6540 -0.0143
 1000MOL0     C37904  11.820   3.895   8.809 -0.1487 -0.5304  0.7018
 1000MOL0     C37905  11.929   3.962   8.890 -0.2863  0.0658  1.1878
 1000MOL0     C37906  11.947   4.121   8.853  0.4208  0.0670  0.1125
 1000MOL0    Cl37907  11.807   4.211   8.936 -0.0868  0.4111 -0.1284
 1000MOL0     C37908  11.045   3.395   8.820  0.1856 -0.0468  0.2364
 1000MOL0     C37909  10.929   3.341   8.878  0.2776  0.5504 -0.1659
 1000MOL0     O37910  10.938   3.080   9.066  0.0957  0.8610 -0.1418
 1000MOL0     C37911  10.850   2.952   9.278  1.1595  0.8232  0.0572
 1000MOL0     C37912  10.804   2.893   9.395 -0.0535 -0.6829 -1.1697
 1000MOL0     N37913  10.976   2.967  10.034 -0.3804 -0.6972  0.0768
 1000MOL0     N37914  11.091   2.921  10.057  0.6168  0.8408 -0.0832
 1000MOL0     C37915  10.737   2.739  11.012  0.7291  0.0374  0.7801
 1000MOL0     C37916  10.616   2.777  11.086 -0.3674  1.5046 -0.3213
 1000MOL0     C37917  10.212   2.939  11.115  0.8713  0.3511 -0.0053
 1000MOL0     C37918  10.196   3.075  11.062 -1.2350  0.3712  0.4529
 1000MOL0     C37919  10.085   3.145  11.111  0.1543 -0.5840 -0.2052
 1000MOL0     C37920   9.988   3.096  11.196 -0.5259 -0.7801 -0.1599
 1000MOL0     O37921   9.898   3.186  11.255 -0.6490 -0.9790  0.3676
 1000MOL0     C37922   9.796   3.133  11.329  0.2075 -0.3476  0.0560
 1000MOL0     C37923   9.689   3.236  11.371 -0.5521  0.5180  0.5880
 1000MOL0     C37924   9.763   3.360  11.444 -0.6090  0.2279  0.2851
 1000MOL0     C37925   9.759   3.348  11.594 -0.2470  0.3264  1.2639
 1000MOL0     C37926   9.797   3.473  11.647 -0.7952  0.2211  0.0773
 1000MOL0     C37927   9.839   3.571  11.698  0.2307 -0.2287 -0.3298
 1000MOL0     C37928  10.003   2.963  11.236  1.0784 -0.3603  0.2735
 1000MOL0     C37929  10.112   2.883  11.199 -0.1453 -0.5789  0.1083
 1000MOL0     C37930  10.099   2.739  11.233 -0.0818  0.1411 -0.7554
 1000MOL0     H37931  10.591   3.103  10.962  0.7139  0.9671  0.2482
 1000MOL0     H37932  10.815   3.046  10.891  0.1564 -1.4107 -2.9277
 1000MOL0     H37933  10.961   2.614  10.946 -3.0344  1.0739 -3.8663
 1000MOL0     H37934  11.056   2.746  11.029  0.1993  1.2178 -1.6561
 1000MOL0     H37935  11.176   2.792  10.814 -1.8986  0.5819 -1.4580
 1000MOL0     H37936  11.216   2.629  10.889  1.0755  0.0928 -2.6443
 1000MOL0     H37937  11.164   2.516  10.727 -0.7054  0.2485  0.2757
 1000MOL0     H37938  11.002   2.601  10.716 -0.4783 -2.2206  0.6088
 1000MOL0     H37939  11.136   2.780  10.603  0.7406 -0.3400  2.5820
 1000MOL0     H37940  11.276   2.669  10.606 -0.5889 -4.8883  3.5050
 1000MOL0     H37941  11.011   2.616  10.476 -0.5316  3.1380  0.8446
 1000MOL0     H37942  11.172   2.523  10.453  3.1976  2.1480 -0.0517
 1000MOL0     H37943  11.077   2.789  10.333  1.6812  0.9032 -1.9966
 1000MOL0     H37944  11.246   2.763  10.359  1.1503 -2.0042  2.2769
 1000MOL0     H37945  11.061   2.568  10.207  0.6052 -0.5143 -1.9161
 1000MOL0     H37946  11.225   2.530  10.245 -0.9729 -1.6215  0.1212
 1000MOL0     H37947  11.278   2.750  10.105 -1.2272  2.4730 -3.4955
 1000MOL0     H37948  11.199   2.620  10.006 -1.7581 -2.8527  1.1351
 1000MOL0     H37949  10.925   2.643   9.999  1.5655 -1.4043  2.9747
 1000MOL0     H37950  10.752   2.984   9.882 -0.8779 -1.3392 -0.0669
 1000MOL0     H37951  10.687   2.914  10.033  0.4748  4.8043  0.1378
 1000MOL0     H37952  10.771   2.743   9.796  0.1490  1.6555 -0.4248
 1000MOL0     H37953  10.683   2.691   9.933 -0.6536  0.9375  2.6820
 1000MOL0     H37954  10.515   2.717   9.772 -0.1391  0.6442 -0.8292
 1000MOL0     H37955  10.505   2.864   9.875 -1.6221 -0.5694  1.4006
 1000MOL0     H37956  10.475   2.918   9.636  0.8818 -1.3413 -1.9446
 1000MOL0     H37957  10.597   3.008   9.712 -0.2094  0.6848  3.0431
 1000MOL0     H37958  10.564   3.092   9.494  2.3061 -1.5998  3.7772
 1000MOL0     H37959  10.517   3.251   9.353  0.0064 -0.7663 -0.3081
 1000MOL0     H37960  10.581   3.239   9.190 -5.4337  2.6704  0.7753
 1000MOL0     H37961  10.651   3.351   9.302 -0.9193 -0.1063  0.9947
 1000MOL0     H37962  10.982   3.408   9.206 -3.3871 -0.5539 -0.6798
 1000MOL0     H37963  11.196   3.497   9.108 -3.0881  1.8993  2.1066
 1000MOL0     H37964  11.289   3.634   8.943 -2.8093 -2.1588  1.3666
 1000MOL0     H37965  11.399   3.502   8.985 -0.3042 -0.4066 -0.4094
 1000MOL0     H37966  11.473   3.532   8.726 -0.6423  0.3735 -1.0042
 1000MOL0     H37967  11.402   3.685   8.723  3.5767  4.8326  2.4216
 1000MOL0     H37968  11.587   3.632   8.952  0.5659 -0.1620 -0.2770
 1000MOL0     H37969  11.542   3.783   8.878  1.8984  0.6442 -2.8555
 1000MOL0     H37970  11.672   3.710   8.668  1.0011  3.6596  2.4827
 1000MOL0     H37971  11.707   3.567   8.776 -0.1518  0.5892  2.8480
 1000MOL0     H37972  11.820   3.711   8.937  1.0213 -5.3675 -1.2088
 1000MOL0     H37973  11.907   3.699   8.782  1.4190  1.9164 -0.9806
 1000MOL0     H37974  11.724   3.945   8.823  0.0156  0.2332 -0.8006
 1000MOL0     H37975  11.841   3.911   8.703  3.2527  1.4194  1.5350
 1000MOL0     H37976  12.021   3.908   8.866 -0.6413 -0.9583  2.0880
 1000MOL0     H37977  11.911   3.950   8.997 -1.9963 -1.5018  0.7704
 1000MOL0     H37978  11.942   4.135   8.745 -1.4219 -0.9585  0.0330
 1000MOL0     H37979  12.047   4.150   8.887  1.3014 -2.0907 -0.4400
 1000MOL0     H37980  11.055   3.395   8.711  1.5401  1.6772  0.3190
 1000MOL0     H37981  10.852   3.293   8.817  1.5411  0.3145 -1.6512
 1000MOL0     H37982  10.927   2.909   9.216  2.9668  2.3260  1.1538
 1000MOL0     H37983  10.854   2.806   9.436 -2.1995 -2.2160 -1.6418
 1000MOL0     H37984  10.773   2.637  11.018  1.1946  0.0081 -1.4450
 1000MOL0     H37985  10.566   2.706  11.151  3.4903 -1.7129 -0.4763
 1000MOL0     H37986  10.270   3.125  11.001 -0.0740 -2.3986 -0.5722
 1000MOL0     H37987  10.070   3.248  11.083  3.0498  0.7307  2.4453
 1000MOL0     H37988   9.738   3.057  11.274 -1.7690 -0.4521  2.1105
 1000MOL0     H37989   9.837   3.099  11.425 -1.0527 -0.6627  0.5030
 1000MOL0     H37990   9.612   3.189  11.433  0.8487  2.0824  3.7504
 1000MOL0     H37991   9.641   3.269  11.279  1.7029 -1.0029 -1.2541
 1000MOL0     H37992   9.863   3.381  11.405 -0.1129 -0.5954  1.0555
 1000MOL0     H37993   9.703   3.449  11.423 -0.1754  0.7725  1.2641
 1000MOL0     H37994   9.829   3.267  11.617  0.1480  0.3178  0.1316
 1000MOL0     H37995   9.666   3.311  11.637 -0.3884 -0.0488  0.6537
 1000MOL0     H37996   9.885   3.663  11.728  2.7874 -0.4111 -3.2129
 1000MOL0     H37997   9.928   2.928  11.306  2.0649 -4.0408 -0.3123
 1000MOL0     H37998  10.017   2.690  11.179  0.0796 -1.3947  0.3102
 1000MOL0     H37999  10.190   2.682  11.214  0.2156 -1.5314  4.1784
 1000MOL0     H38000  10.088   2.732  11.342  2.6878  1.6841 -0.2848
 1001MOL0     O38001   6.578   2.115   8.831 -0.4987 -0.3722 -0.1116
 1001MOL0     C38002   6.577   2.086   8.950 -0.4911  0.0803 -0.6930
 1001MOL0     O38003   6.697   2.063   9.025  1.2612  0.2599 -0.0583
 1001MOL0     C38004   6.813   2.062   8.949 -0.1135  0.7599 -0.9131
 1001MOL0     C38005   6.878   2.183   8.921  0.2529 -0.0178  0.3196
 1001MOL0     C38006   6.995   2.186   8.841 -0.0362 -0.2935  1.0772
 1001MOL0     C38007   7.043   2.072   8.780 -0.3494 -0.5105  0.2363
 1001MOL0     O38008   7.158   2.077   8.706 -0.4085 -0.1928  0.1901
 1001MOL0     C38009   7.159   1.999   8.593 -0.3092 -0.0779 -0.4783
 1001MOL0     C38010   7.292   2.021   8.527 -0.3032 -0.0661 -0.0521
 1001MOL0     C38011   7.302   1.950   8.400  0.4931  0.1680 -0.0701
 1001MOL0     C38012   7.434   1.983   8.330 -0.5477 -0.4971 -0.3384
 1001MOL0     C38013   7.465   1.898   8.211  1.1856 -0.1464  0.3692
 1001MOL0     C38014   7.585   1.967   8.142 -0.2351  0.2392 -0.4613
 1001MOL0     C38015   7.602   1.904   8.003 -0.5193  0.1520 -0.3192
 1001MOL0     C38016   7.732   1.965   7.926 -0.4997 -1.0265  0.4394
 1001MOL0     N38017   7.754   1.883   7.800 -0.1824 -0.5761 -1.6996
 1001MOL0     C38018   7.873   1.828   7.771 -0.7016 -0.2954 -0.7400
 1001MOL0     C38019   7.879   1.810   7.637 -0.1729 -0.6793  0.9080
 1001MOL0     C38020   8.007   1.773   7.567  0.4524  0.4315  1.3232
 1001MOL0     C38021   8.102   1.886   7.547  0.1316  0.1206  0.2867
 1001MOL0     C38022   8.180   1.917   7.673  0.8595  0.6696  0.5442
 1001MOL0     C38023   8.264   2.045   7.667 -0.3413  0.3580  0.2140
 1001MOL0     O38024   8.352   2.034   7.547 -0.7345  0.1272  0.4177
 1001MOL0     C38025   8.465   2.107   7.545 -0.2153  0.1785  0.1658
 1001MOL0     C38026   8.508   2.157   7.419  0.7405 -0.0936 -0.0116
 1001MOL0     C38027   8.620   2.237   7.421 -0.3213  0.2007  0.8928
 1001MOL0     C38028   8.638   2.304   7.290  0.5658 -0.6747  0.2466
 1001MOL0     C38029   8.686   2.282   7.538  0.3094 -0.0290  0.1348
 1001MOL0     C38030   8.806   2.371   7.541  0.1234  0.1079 -0.4294
 1001MOL0     O38031   8.854   2.426   7.662  0.5717 -0.0570  0.3420
 1001MOL0     C38032   8.990   2.458   7.684 -0.0577  0.3727 -0.7628
 1001MOL0     C38033   9.023   2.494   7.816  0.7651 -0.2079 -0.4084
 1001MOL0     C38034   9.155   2.518   7.847 -0.2447 -0.2156  0.1255
 1001MOL0     C38035   9.259   2.530   7.748 -0.3205  0.2770  0.0193
 1001MOL0     O38036   9.386   2.562   7.780 -0.1885 -0.7023 -0.1990
 1001MOL0     C38037   9.462   2.462   7.844  0.1651  0.1027  0.6290
 1001MOL0     C38038   9.611   2.505   7.854  0.5357 -0.2336 -0.3085
 1001MOL0     C38039   9.638   2.594   7.977 -0.5441  0.2871  0.9290
 1001MOL0     C38040   9.569   2.728   7.972  0.1180  1.0753 -0.5109
 1001MOL0     C38041   9.632   2.844   8.067 -0.5099  0.7245 -0.6731
 1001MOL0     C38042   9.585   2.981   8.042  0.2061 -0.1894 -0.8555
 1001MOL0     C38043   9.652   3.080   8.124 -0.0360 -0.7707 -0.9754
 1001MOL0     C38044   9.785   3.120   8.066  0.7429 -1.5889 -1.0409
 1001MOL0    Cl38045   9.869   3.250   8.157 -0.3009  0.2629 -0.2323
 1001MOL0     C38046   9.222   2.514   7.613  0.7519  0.4713  0.4572
 1001MOL0     C38047   9.085   2.481   7.584  0.1073  0.1914 -0.4041
 1001MOL0     O38048   8.863   2.375   7.437  0.0157 -0.1780 -0.0560
 1001MOL0     C38049   8.645   2.221   7.660 -0.2833 -0.6239  0.5698
 1001MOL0     C38050   8.536   2.143   7.658 -0.1128 -0.0861 -0.1822
 1001MOL0     N38051   7.764   1.863   7.581  0.0611  0.7052 -0.6124
 1001MOL0     N38052   7.696   1.909   7.677  0.0381  0.3630 -1.0035
 1001MOL0     C38053   6.975   1.947   8.812  0.5476  0.0001 -0.3207
 1001MOL0     C38054   6.867   1.942   8.899 -0.0326 -0.3624 -0.8221
 1001MOL0     C38055   6.435   2.094   9.011 -0.7959  0.5775  0.2095
 1001MOL0     C38056   6.419   2.106   9.153 -1.0645 -0.4574 -0.5282
 1001MOL0     C38057   6.300   2.106   9.218  1.6331  0.3964 -0.0486
 1001MOL0     C38058   6.185   2.112   9.145  0.2581  0.2456 -0.4708
 1001MOL0     O38059   6.064   2.132   9.202  0.2415  0.8905  0.4189
 1001MOL0     C38060   6.047   2.277   9.230  0.2413  1.0872  0.6570
 1001MOL0     C38061   6.100   2.335   9.351 -0.0585 -0.0047  0.5215
 1001MOL0     C38062   6.038   2.311   9.485 -0.7194 -0.9014  0.2906
 1001MOL0     C38063   5.900   2.364   9.511 -0.2854 -0.2201  0.0712
 1001MOL0     C38064   5.894   2.516   9.497 -0.2807 -0.3416 -0.0301
 1001MOL0     C38065   5.898   2.634   9.471 -0.0341  0.5235  0.0471
 1001MOL0     C38066   6.192   2.098   9.009  0.5306 -0.9075 -0.5012
 1001MOL0     C38067   6.312   2.088   8.939 -0.0173 -0.3987  0.6753
 1001MOL0     C38068   6.299   2.080   8.788 -0.1322  0.1571  0.2009
 1001MOL0     H38069   6.841   2.276   8.963  2.2524  0.2798  1.5285
 1001MOL0     H38070   7.040   2.283   8.825 -3.0108  1.2393  1.1603
 1001MOL0     H38071   7.075   2.029   8.529 -1.6090 -1.9045  0.2512
 1001MOL0     H38072   7.140   1.895   8.622  0.0591 -0.5347 -1.7870
 1001MOL0     H38073   7.308   2.128   8.510  1.1823  0.2055  2.5236
 1001MOL0     H38074   7.368   1.992   8.600  0.2014  0.6408 -0.2799
 1001MOL0     H38075   7.290   1.841   8.397  1.3084  0.0711 -2.3055
 1001MOL0     H38076   7.219   1.980   8.336  1.9983  3.1296 -0.8174
 1001MOL0     H38077   7.432   2.090   8.308 -1.0914  0.0938  2.2422
 1001MOL0     H38078   7.525   1.978   8.390  2.7325 -2.5537 -4.9126
 1001MOL0     H38079   7.382   1.893   8.139  0.4094 -0.2455  1.2499
 1001MOL0     H38080   7.483   1.793   8.237 -0.4090  0.2032  3.3261
 1001MOL0     H38081   7.561   2.073   8.129  2.1028  0.7493 -0.9760
 1001MOL0     H38082   7.673   1.950   8.204 -0.5821 -1.4996 -0.4006
 1001MOL0     H38083   7.519   1.947   7.946  0.5016  2.3610 -0.2651
 1001MOL0     H38084   7.607   1.795   8.001  0.2038  0.1533 -3.0182
 1001MOL0     H38085   7.696   2.064   7.898 -2.2679 -1.5743  0.5932
 1001MOL0     H38086   7.821   1.967   7.989  1.1027  1.2328 -1.7439
 1001MOL0     H38087   7.951   1.815   7.844 -0.0510  3.1579 -0.6452
 1001MOL0     H38088   7.987   1.735   7.466 -0.0335 -0.2617  1.6726
 1001MOL0     H38089   8.047   1.683   7.614 -1.3387 -0.0710  1.9825
 1001MOL0     H38090   8.171   1.853   7.468 -0.4824 -0.4805 -0.0095
 1001MOL0     H38091   8.052   1.978   7.514  0.7690  2.6192  5.3830
 1001MOL0     H38092   8.108   1.946   7.750  0.6138 -0.3686  0.7278
 1001MOL0     H38093   8.230   1.825   7.705 -2.3759 -1.3564  0.2386
 1001MOL0     H38094   8.198   2.132   7.662 -0.1383  0.6240  1.7373
 1001MOL0     H38095   8.322   2.042   7.760  2.2664  1.6125 -1.2547
 1001MOL0     H38096   8.449   2.126   7.333 -2.3736  1.1669  1.5039
 1001MOL0     H38097   8.635   2.412   7.309 -3.7516 -0.6942  0.7678
 1001MOL0     H38098   8.556   2.291   7.218 -0.3426 -0.2039  1.1603
 1001MOL0     H38099   8.732   2.274   7.245  0.0529 -1.9552  0.0005
 1001MOL0     H38100   8.950   2.486   7.897  2.2466 -1.2481  0.8743
 1001MOL0     H38101   9.184   2.525   7.951  3.0864  0.6994 -0.7325
 1001MOL0     H38102   9.427   2.454   7.948 -0.1991 -1.8593  0.3797
 1001MOL0     H38103   9.449   2.368   7.790  0.5680  1.5395 -2.1226
 1001MOL0     H38104   9.665   2.410   7.860  0.7292 -0.0809  0.5898
 1001MOL0     H38105   9.647   2.560   7.766  2.4961  1.6840  1.5567
 1001MOL0     H38106   9.746   2.612   7.968 -0.8026  0.9396 -1.6565
 1001MOL0     H38107   9.626   2.537   8.070 -0.1536 -0.1588  0.7121
 1001MOL0     H38108   9.464   2.714   8.000  0.6313 -1.9177  0.2916
 1001MOL0     H38109   9.571   2.760   7.867  0.8515  0.2130 -0.7751
 1001MOL0     H38110   9.597   2.821   8.168 -0.3574  1.3883 -0.4635
 1001MOL0     H38111   9.741   2.838   8.058 -0.6095  0.3998 -1.8294
 1001MOL0     H38112   9.479   2.986   8.069  0.3501  1.8884 -0.5762
 1001MOL0     H38113   9.602   3.006   7.937  4.4913  0.7172 -0.1108
 1001MOL0     H38114   9.658   3.045   8.228  1.9919 -6.4686 -2.6421
 1001MOL0     H38115   9.586   3.167   8.124 -0.7112 -1.2635 -0.1749
 1001MOL0     H38116   9.777   3.155   7.963  2.5708 -0.9761 -1.0015
 1001MOL0     H38117   9.856   3.037   8.055  0.4833 -1.7954 -1.1621
 1001MOL0     H38118   9.296   2.534   7.536  0.2156  1.4542  0.1732
 1001MOL0     H38119   9.055   2.462   7.481  0.0323 -0.1441 -0.3223
 1001MOL0     H38120   8.709   2.243   7.745 -0.2857  0.4040  0.3231
 1001MOL0     H38121   8.517   2.094   7.753 -1.0210 -1.2035 -0.9121
 1001MOL0     H38122   7.002   1.847   8.779 -1.5589 -1.7587  2.7942
 1001MOL0     H38123   6.822   1.850   8.935 -0.5385  0.7969  1.7603
 1001MOL0     H38124   6.504   2.118   9.221 -0.9531  1.8437 -1.0001
 1001MOL0     H38125   6.287   2.100   9.325 -3.5686 -2.4156 -0.5043
 1001MOL0     H38126   6.096   2.330   9.148 -0.5575 -3.0114 -2.8153
 1001MOL0     H38127   5.939   2.293   9.229  0.2184  0.9468 -0.6670
 1001MOL0     H38128   6.116   2.441   9.331  1.7768 -0.7072 -2.4134
 1001MOL0     H38129   6.206   2.305   9.356 -0.3757 -1.8692 -2.0037
 1001MOL0     H38130   6.026   2.202   9.487  1.8545 -1.2423  1.1622
 1001MOL0     H38131   6.100   2.323   9.574  0.3226  0.9991 -0.6362
 1001MOL0     H38132   5.882   2.338   9.616  0.8019 -2.4429 -0.2471
 1001MOL0     H38133   5.824   2.306   9.458 -1.3180  0.3130  0.9204
 1001MOL0     H38134   5.938   2.732   9.457  2.7099 -0.2265  1.8478
 1001MOL0     H38135   6.101   2.109   8.950 -0.8166 -1.5962  1.3500
 1001MOL0     H38136   6.378   2.021   8.742 -0.5067  0.7017 -1.1827
 1001MOL0     H38137   6.206   2.033   8.755  0.0284  0.7204 -1.1243
 1001MOL0     H38138   6.303   2.178   8.739  2.3300  0.1443  0.2723
 1002MOL0     O38139   9.519   7.379   6.486  0.4938 -0.0499 -0.0179
 1002MOL0     C38140   9.505   7.498   6.497  0.8576 -0.0698  0.3498
 1002MOL0     O38141   9.412   7.558   6.572 -0.3773  0.3791 -0.0217
 1002MOL0     C38142   9.314   7.477   6.624 -0.2960  0.4077  0.4929
 1002MOL0     C38143   9.295   7.474   6.764 -0.4800  0.0773  0.4627
 1002MOL0     C38144   9.200   7.393   6.827 -0.4030 -0.5109  0.1546
 1002MOL0     C38145   9.118   7.310   6.747  0.6898 -0.0687  0.9261
 1002MOL0     O38146   9.020   7.219   6.788  0.1661 -0.0174 -0.0520
 1002MOL0     C38147   8.941   7.264   6.893 -1.0202  0.3074  0.0766
 1002MOL0     C38148   8.842   7.159   6.946  0.2503 -0.1652  0.3154
 1002MOL0     C38149   8.754   7.222   7.056  0.2134  0.9858  0.6370
 1002MOL0     C38150   8.631   7.140   7.097 -0.1234  0.7872  0.2783
 1002MOL0     C38151   8.554   7.210   7.211  0.2310 -0.9028 -0.9861
 1002MOL0     C38152   8.479   7.335   7.175 -0.3301  0.6008 -0.6381
 1002MOL0     C38153   8.378   7.384   7.275  0.2699 -0.6904 -0.1633
 1002MOL0     C38154   8.324   7.520   7.218  0.7841  0.2563 -0.2163
 1002MOL0     N38155   8.220   7.571   7.304  0.4367  0.3283  0.5830
 1002MOL0     C38156   8.226   7.610   7.430 -0.4430 -0.5239 -0.0636
 1002MOL0     C38157   8.102   7.644   7.477 -0.8277 -0.3537 -0.0915
 1002MOL0     C38158   8.054   7.687   7.610  0.3993 -0.4034 -0.8402
 1002MOL0     C38159   8.127   7.615   7.725  0.1706 -0.1714  0.0346
 1002MOL0     C38160   8.077   7.660   7.866  0.3550  0.6083 -0.2500
 1002MOL0     C38161   7.967   7.768   7.876  0.1427  0.8461  0.0549
 1002MOL0     O38162   8.000   7.873   7.969 -0.1650  0.3430 -0.1389
 1002MOL0     C38163   8.024   7.834   8.100  0.3186 -0.5167  0.4604
 1002MOL0     C38164   7.961   7.732   8.176 -1.1723  0.0741 -0.5441
 1002MOL0     C38165   7.991   7.707   8.308  0.0825 -0.3773 -0.2646
 1002MOL0     C38166   7.939   7.581   8.370 -0.3088  0.6992  1.0428
 1002MOL0     C38167   8.075   7.786   8.370 -0.8077  0.1114 -0.3035
 1002MOL0     C38168   8.124   7.772   8.513 -1.0572  0.1857 -0.3795
 1002MOL0     O38169   8.033   7.743   8.606  0.1281  0.2658  0.4061
 1002MOL0     C38170   8.061   7.777   8.733  0.9424 -0.2597 -0.6763
 1002MOL0     C38171   8.029   7.687   8.844  0.2834 -0.0806 -0.2993
 1002MOL0     C38172   8.071   7.716   8.973 -1.1995  0.6041  0.0985
 1002MOL0     C38173   8.123   7.841   9.004  0.3664  0.3911 -0.6034
 1002MOL0     O38174   8.144   7.865   9.136  0.2490  0.1919  0.8019
 1002MOL0     C38175   8.161   8.004   9.176 -0.2057  0.2223 -0.4461
 1002MOL0     C38176   8.117   8.022   9.314  0.6954 -0.1219  0.2566
 1002MOL0     C38177   7.983   7.962   9.348  0.3591 -0.0988  0.7476
 1002MOL0     C38178   7.932   8.013   9.484 -0.1919  0.7099  0.2586
 1002MOL0     C38179   7.785   7.973   9.513  0.6073 -0.0360 -0.1989
 1002MOL0     C38180   7.737   7.997   9.657 -0.1584 -0.8104  0.0898
 1002MOL0     C38181   7.585   8.027   9.673 -1.0321  0.5147 -0.2056
 1002MOL0     C38182   7.543   8.059   9.810  0.6257  0.5831 -0.9642
 1002MOL0    Cl38183   7.365   8.051   9.841  0.5526 -0.0654  0.1243
 1002MOL0     C38184   8.145   7.940   8.898  0.2893  1.1236 -0.7980
 1002MOL0     C38185   8.118   7.901   8.763 -0.2071  0.0775 -0.6469
 1002MOL0     O38186   8.239   7.785   8.539 -0.7534 -0.3514 -0.6098
 1002MOL0     C38187   8.148   7.879   8.296  0.0500 -0.7708  0.4716
 1002MOL0     C38188   8.115   7.907   8.163  0.4915  0.1845  0.6142
 1002MOL0     N38189   8.022   7.619   7.363 -0.6604 -0.0646  0.1255
 1002MOL0     N38190   8.091   7.576   7.263 -0.1651  0.2612  0.1614
 1002MOL0     C38191   9.135   7.310   6.606  0.4340  0.0460  0.2371
 1002MOL0     C38192   9.231   7.399   6.546  0.6641 -0.5419 -0.1580
 1002MOL0     C38193   9.580   7.579   6.389 -0.1959  0.4890 -0.2546
 1002MOL0     C38194   9.567   7.719   6.396  0.3827  0.8328 -0.8009
 1002MOL0     C38195   9.639   7.803   6.313  0.1081 -0.5176 -0.2651
 1002MOL0     C38196   9.710   7.752   6.199 -0.2386 -0.6029 -0.0201
 1002MOL0     O38197   9.796   7.828   6.125 -0.3555  0.3440  0.0343
 1002MOL0     C38198   9.799   7.969   6.156 -0.1795 -0.3048  0.5462
 1002MOL0     C38199   9.890   8.053   6.064  0.4453 -0.4342 -0.5537
 1002MOL0     C38200   9.818   8.030   5.921  0.4261  0.9869  0.6384
 1002MOL0     C38201   9.842   8.152   5.827  0.5440 -0.0592 -0.7712
 1002MOL0     C38202   9.776   8.158   5.699  0.2435 -0.6953  0.4340
 1002MOL0     C38203   9.713   8.139   5.592  0.5461  0.0724  0.7973
 1002MOL0     C38204   9.724   7.616   6.189 -1.0586  0.6892  0.6674
 1002MOL0     C38205   9.663   7.532   6.281 -0.3842  0.0954  0.2046
 1002MOL0     C38206   9.707   7.386   6.258 -0.3770 -0.0380  0.3114
 1002MOL0     H38207   9.356   7.533   6.831  0.4519 -2.8415  2.3478
 1002MOL0     H38208   9.181   7.406   6.933 -3.4995  1.3908 -0.5173
 1002MOL0     H38209   8.894   7.357   6.857  3.0955  2.1286 -1.2287
 1002MOL0     H38210   9.002   7.293   6.978 -1.2530  0.2598  0.2602
 1002MOL0     H38211   8.780   7.131   6.860 -0.3870  0.1497  0.6664
 1002MOL0     H38212   8.887   7.065   6.978  1.1307  0.3265  0.5382
 1002MOL0     H38213   8.832   7.230   7.132  1.0629  0.4703 -0.1648
 1002MOL0     H38214   8.722   7.316   7.009  1.9779  1.6924  0.7791
 1002MOL0     H38215   8.560   7.130   7.015 -0.5420 -2.0716  0.8591
 1002MOL0     H38216   8.662   7.042   7.136  1.2789  1.5745  1.2052
 1002MOL0     H38217   8.630   7.237   7.285  1.1036  0.0264 -2.1648
 1002MOL0     H38218   8.482   7.143   7.258  0.3956 -0.2834  0.1987
 1002MOL0     H38219   8.552   7.415   7.158  0.3049 -0.0325 -0.9777
 1002MOL0     H38220   8.436   7.318   7.076 -1.3700  0.1540 -0.1217
 1002MOL0     H38221   8.425   7.394   7.373 -1.3064  2.2794  0.4011
 1002MOL0     H38222   8.296   7.312   7.280  0.9395 -1.3796  2.7633
 1002MOL0     H38223   8.403   7.593   7.197  1.8298 -1.4016 -2.4176
 1002MOL0     H38224   8.270   7.507   7.123  0.0782  3.0430 -0.3140
 1002MOL0     H38225   8.317   7.614   7.489  0.8008  2.7570 -1.9600
 1002MOL0     H38226   7.947   7.664   7.602  0.4713 -0.4958 -1.5784
 1002MOL0     H38227   8.079   7.793   7.610  0.8850 -0.4526 -3.5770
 1002MOL0     H38228   8.102   7.509   7.711 -1.6098 -0.1088  2.2071
 1002MOL0     H38229   8.236   7.629   7.720 -0.1266  2.4044 -0.6469
 1002MOL0     H38230   8.031   7.578   7.920  0.1331  0.0170 -1.3108
 1002MOL0     H38231   8.168   7.681   7.922  2.1537 -1.3977 -2.1994
 1002MOL0     H38232   7.953   7.826   7.785 -4.5118 -0.6770 -0.5000
 1002MOL0     H38233   7.869   7.723   7.899 -0.8461  2.6431 -0.4850
 1002MOL0     H38234   7.886   7.663   8.140 -1.3602  1.4677 -3.0716
 1002MOL0     H38235   8.021   7.533   8.425  2.1232 -0.8600 -3.4264
 1002MOL0     H38236   7.918   7.505   8.295  1.9287  1.4806 -0.4909
 1002MOL0     H38237   7.852   7.605   8.431 -2.8262  1.9804 -2.7228
 1002MOL0     H38238   7.978   7.592   8.829  0.6919 -0.6154  1.4447
 1002MOL0     H38239   8.066   7.643   9.053  1.6475 -1.4723 -1.4236
 1002MOL0     H38240   8.266   8.033   9.165 -0.0102  0.9186  2.5562
 1002MOL0     H38241   8.092   8.063   9.115 -2.5217 -0.1914  1.6286
 1002MOL0     H38242   8.197   7.977   9.374  0.7973  0.6256  0.6904
 1002MOL0     H38243   8.111   8.130   9.333  0.6305 -0.3985  1.9875
 1002MOL0     H38244   7.981   7.852   9.347  1.6327 -0.1634 -1.3007
 1002MOL0     H38245   7.922   7.994   9.263  4.0444  2.7569 -1.0860
 1002MOL0     H38246   7.939   8.122   9.472 -0.2558  0.5379 -1.6483
 1002MOL0     H38247   7.989   7.977   9.570  0.7081 -0.8747 -0.9335
 1002MOL0     H38248   7.720   8.019   9.440 -1.3097 -1.0033  0.8197
 1002MOL0     H38249   7.789   7.866   9.488  3.0223 -0.3518  1.1954
 1002MOL0     H38250   7.797   8.077   9.701  2.1955 -1.7156 -1.2999
 1002MOL0     H38251   7.760   7.900   9.703 -1.5627  0.0078  2.7237
 1002MOL0     H38252   7.538   7.930   9.653  1.1338 -1.6234  3.7661
 1002MOL0     H38253   7.543   8.097   9.600 -0.4493  0.2842 -0.7794
 1002MOL0     H38254   7.574   8.162   9.829  0.7077  0.5213 -0.7659
 1002MOL0     H38255   7.591   7.993   9.883 -0.0986  2.8698  1.7462
 1002MOL0     H38256   8.195   8.036   8.907  2.5507 -0.1130  0.9245
 1002MOL0     H38257   8.143   7.968   8.680  2.7290  1.4100  1.1526
 1002MOL0     H38258   8.230   7.930   8.345 -0.1859  0.9925 -0.8581
 1002MOL0     H38259   8.165   7.979   8.098  0.1095 -1.2652 -1.3937
 1002MOL0     H38260   9.070   7.247   6.546  1.3845  0.0705 -0.8443
 1002MOL0     H38261   9.249   7.392   6.439  1.0376  1.6773 -0.2788
 1002MOL0     H38262   9.506   7.765   6.473  3.4734  1.3291  1.5791
 1002MOL0     H38263   9.630   7.909   6.337 -2.6981 -0.2216 -2.1858
 1002MOL0     H38264   9.698   8.012   6.157  0.6308  1.8261  3.2954
 1002MOL0     H38265   9.830   7.988   6.259 -2.3874 -0.7254  1.3567
 1002MOL0     H38266   9.996   8.026   6.072  0.8431  1.0743 -0.5248
 1002MOL0     H38267   9.879   8.158   6.091  1.1335 -0.2442 -0.9947
 1002MOL0     H38268   9.854   7.938   5.875  1.8157  0.3637  2.8602
 1002MOL0     H38269   9.711   8.024   5.943  0.7168  0.3096  1.9071
 1002MOL0     H38270   9.949   8.159   5.804  0.7598 -1.0970 -0.1879
 1002MOL0     H38271   9.807   8.239   5.883 -1.4987 -0.2198 -1.7224
 1002MOL0     H38272   9.669   8.127   5.495 -0.9339  2.3499  1.1411
 1002MOL0     H38273   9.791   7.577   6.113 -1.4145  0.4420  0.4793
 1002MOL0     H38274   9.745   7.373   6.156  1.8507  4.4417  0.3208
 1002MOL0     H38275   9.786   7.356   6.328  0.6891  0.6483 -0.5642
 1002MOL0     H38276   9.614   7.330   6.274 -1.7235  2.3317  1.4330
 1003MOL0     O38277   4.535   3.224   0.603 -0.2869 -0.5493  0.1165
 1003MOL0     C38278   4.493   3.112   0.639  0.3580  0.3335 -0.2803
 1003MOL0     O38279   4.577   3.000   0.658  0.9182  0.1565  0.3648
 1003MOL0     C38280   4.702   3.027   0.613 -0.3228 -0.0808  0.7930
 1003MOL0     C38281   4.738   3.036   0.477  0.1552  0.5729  0.6501
 1003MOL0     C38282   4.879   3.048   0.439  0.4278 -0.2915 -0.4951
 1003MOL0     C38283   4.984   3.063   0.538  0.4676 -0.2174 -0.0053
 1003MOL0     O38284   5.117   3.087   0.509 -0.1149  0.4316  0.2336
 1003MOL0     C38285   5.194   3.164   0.596 -0.6852  0.1221 -0.7282
 1003MOL0     C38286   5.325   3.200   0.523 -0.1949 -0.9580 -0.6571
 1003MOL0     C38287   5.434   3.083   0.518 -1.2610 -0.5845 -0.1164
 1003MOL0     C38288   5.509   3.072   0.644  0.0358  0.9038 -0.0063
 1003MOL0     C38289   5.573   2.926   0.655  0.3173  1.2510  0.4010
 1003MOL0     C38290   5.636   2.900   0.794  0.3793 -0.4065  0.9965
 1003MOL0     C38291   5.539   2.926   0.902 -0.3334 -0.2187  0.3203
 1003MOL0     C38292   5.564   2.877   1.043  0.4667 -0.2851  0.5736
 1003MOL0     N38293   5.593   2.739   1.064  0.4842  0.3615 -1.1908
 1003MOL0     C38294   5.496   2.654   1.108 -0.3711  0.4736  0.8425
 1003MOL0     C38295   5.572   2.538   1.118 -0.2355 -0.6686 -0.2155
 1003MOL0     C38296   5.521   2.409   1.172 -0.3515  0.1810  0.3752
 1003MOL0     C38297   5.531   2.386   1.325 -0.8029 -0.4082  0.4225
 1003MOL0     C38298   5.674   2.414   1.392  0.5938 -0.9343 -0.4871
 1003MOL0     C38299   5.782   2.308   1.357  0.7233 -0.9641  0.0454
 1003MOL0     O38300   5.734   2.188   1.422  0.5763  0.2520 -0.1953
 1003MOL0     C38301   5.798   2.076   1.383  0.0100  0.3293 -0.4512
 1003MOL0     C38302   5.782   2.031   1.256  0.4920 -0.3915 -0.1542
 1003MOL0     C38303   5.840   1.918   1.201  0.1017  0.5631 -0.1491
 1003MOL0     C38304   5.806   1.878   1.058 -0.2752 -0.4427  0.2854
 1003MOL0     C38305   5.917   1.837   1.290  0.8128  0.5537  0.4487
 1003MOL0     C38306   5.979   1.707   1.261  0.4443  1.0565  0.4692
 1003MOL0     O38307   6.081   1.662   1.338 -0.1848  0.7491  0.0102
 1003MOL0     C38308   6.138   1.537   1.327 -0.5242  0.3738 -0.0764
 1003MOL0     C38309   6.167   1.462   1.211 -0.0741 -1.0525  0.0746
 1003MOL0     C38310   6.236   1.338   1.226  0.4987  0.8433  0.3460
 1003MOL0     C38311   6.276   1.284   1.347 -0.5587 -0.8764  0.1039
 1003MOL0     O38312   6.353   1.169   1.360 -1.1883  0.8639  0.8213
 1003MOL0     C38313   6.324   1.064   1.257  1.0538  0.1682 -0.0011
 1003MOL0     C38314   6.397   0.930   1.289  0.1374  1.4839 -0.3086
 1003MOL0     C38315   6.377   0.863   1.422 -0.3857 -0.1514  0.2768
 1003MOL0     C38316   6.231   0.851   1.452  0.7835  0.0007  0.4233
 1003MOL0     C38317   6.220   0.781   1.586  0.0751 -1.1437 -0.3145
 1003MOL0     C38318   6.275   0.866   1.713 -0.2817 -0.6077  1.1547
 1003MOL0     C38319   6.226   0.813   1.842  0.6892 -0.5955  0.0172
 1003MOL0     C38320   6.291   0.888   1.954 -0.2300  0.6094  0.0623
 1003MOL0    Cl38321   6.251   0.795   2.101 -0.1412  0.2462  0.2583
 1003MOL0     C38322   6.261   1.363   1.459  0.6696 -0.1030  0.5221
 1003MOL0     C38323   6.185   1.490   1.446  0.2849 -0.0904 -0.8498
 1003MOL0     O38324   5.916   1.634   1.182 -0.5298  0.2368  0.0277
 1003MOL0     C38325   5.922   1.876   1.427 -0.3087 -0.0874 -0.6000
 1003MOL0     C38326   5.863   1.992   1.472  0.8830 -0.5108 -0.1616
 1003MOL0     N38327   5.705   2.549   1.082  0.8374 -0.2388 -0.0546
 1003MOL0     N38328   5.712   2.668   1.051 -0.0440  0.2645 -0.3108
 1003MOL0     C38329   4.941   3.054   0.673 -0.5899 -0.3729  0.0619
 1003MOL0     C38330   4.803   3.030   0.707  0.4505  0.2877 -0.9246
 1003MOL0     C38331   4.345   3.098   0.666 -0.7429  0.6136  0.4428
 1003MOL0     C38332   4.272   3.209   0.703 -0.7698 -0.3521  0.0797
 1003MOL0     C38333   4.143   3.195   0.753  0.3995 -0.6949  0.9647
 1003MOL0     C38334   4.078   3.072   0.755  0.8081 -0.3738  1.2019
 1003MOL0     O38335   3.955   3.053   0.792 -0.3097 -0.4302 -0.2806
 1003MOL0     C38336   3.844   3.074   0.696  0.3006 -0.1513 -0.5433
 1003MOL0     C38337   3.703   3.106   0.757 -0.6373 -0.1037 -0.1619
 1003MOL0     C38338   3.647   2.984   0.829 -0.2190 -0.6373  1.0401
 1003MOL0     C38339   3.518   3.020   0.901  0.3292 -0.4883  0.3434
 1003MOL0     C38340   3.409   3.052   0.809  1.4981 -1.1251  0.0305
 1003MOL0     C38341   3.316   3.087   0.736  0.4314  0.3795 -0.7188
 1003MOL0     C38342   4.140   2.961   0.704  0.2779 -0.4144  0.1844
 1003MOL0     C38343   4.276   2.970   0.667  0.2687 -0.4614 -0.0843
 1003MOL0     C38344   4.336   2.844   0.604 -0.0274  0.8097 -0.5731
 1003MOL0     H38345   4.665   3.028   0.397  1.6246  0.5102 -0.7376
 1003MOL0     H38346   4.896   3.055   0.332 -0.1342  4.0272 -0.4634
 1003MOL0     H38347   5.227   3.110   0.685  2.9972 -0.5466 -2.3314
 1003MOL0     H38348   5.146   3.260   0.617  5.3320  3.0017  2.6811
 1003MOL0     H38349   5.285   3.220   0.424 -4.3144  2.7921  1.4507
 1003MOL0     H38350   5.373   3.290   0.563 -0.6033 -1.3897  0.8489
 1003MOL0     H38351   5.390   2.986   0.494 -1.3407 -0.6058  0.1188
 1003MOL0     H38352   5.502   3.098   0.433  0.6160 -4.0096  0.6001
 1003MOL0     H38353   5.591   3.143   0.661  2.1233 -1.8879  2.7022
 1003MOL0     H38354   5.434   3.091   0.722 -1.8790 -1.6469 -1.0934
 1003MOL0     H38355   5.640   2.893   0.576  1.0864 -2.7423  2.4723
 1003MOL0     H38356   5.487   2.859   0.642 -0.1031  1.8751 -0.0630
 1003MOL0     H38357   5.659   2.794   0.795  2.8873  0.0704  1.3673
 1003MOL0     H38358   5.731   2.954   0.801  0.2164  0.6303 -2.7622
 1003MOL0     H38359   5.451   2.873   0.864  1.0650 -1.1174 -1.8482
 1003MOL0     H38360   5.524   3.033   0.915 -1.6318 -0.4365  0.8294
 1003MOL0     H38361   5.645   2.933   1.089  1.5430  0.3705 -1.9276
 1003MOL0     H38362   5.474   2.892   1.102  0.1653  0.9234 -0.1435
 1003MOL0     H38363   5.389   2.666   1.123 -1.0851 -3.4408 -0.1838
 1003MOL0     H38364   5.567   2.322   1.124 -2.4752 -1.0319  0.4057
 1003MOL0     H38365   5.412   2.400   1.165 -0.4187 -0.3496  1.6897
 1003MOL0     H38366   5.473   2.470   1.363  1.8239  1.4156  0.6405
 1003MOL0     H38367   5.474   2.296   1.352 -1.8759  0.1877  0.1814
 1003MOL0     H38368   5.705   2.512   1.354  0.3787 -1.4508 -2.0414
 1003MOL0     H38369   5.666   2.418   1.501 -0.7963 -0.1227 -0.5973
 1003MOL0     H38370   5.792   2.301   1.248 -0.3978  1.1999 -0.2454
 1003MOL0     H38371   5.876   2.351   1.391  0.4703  1.3327 -1.8468
 1003MOL0     H38372   5.716   2.086   1.190  1.2546 -0.5651 -1.0860
 1003MOL0     H38373   5.892   1.914   1.001 -0.4908  0.5648  0.5783
 1003MOL0     H38374   5.712   1.923   1.026  0.7856  0.6210 -1.4648
 1003MOL0     H38375   5.793   1.771   1.038 -2.2669 -0.2382  0.2833
 1003MOL0     H38376   6.137   1.503   1.115  1.9368 -1.2941 -0.7076
 1003MOL0     H38377   6.273   1.291   1.135  2.5631  1.0683  1.0270
 1003MOL0     H38378   6.216   1.044   1.258  1.1700 -0.5087  1.7642
 1003MOL0     H38379   6.360   1.084   1.155  1.2260 -1.6112 -0.3172
 1003MOL0     H38380   6.383   0.858   1.208  1.5527  1.2323 -0.3538
 1003MOL0     H38381   6.503   0.954   1.277  1.2533 -2.2056  0.8919
 1003MOL0     H38382   6.431   0.924   1.496 -1.8537 -0.9619  2.0892
 1003MOL0     H38383   6.433   0.770   1.411 -1.4859 -0.8596  0.6167
 1003MOL0     H38384   6.180   0.808   1.365 -0.3921  2.6244 -0.2816
 1003MOL0     H38385   6.173   0.944   1.457  0.7313  0.1847 -2.1201
 1003MOL0     H38386   6.118   0.746   1.602 -0.1694 -0.1673  0.3433
 1003MOL0     H38387   6.278   0.691   1.564 -0.2291 -1.9962  2.1187
 1003MOL0     H38388   6.250   0.972   1.699  0.7297 -0.5317 -0.3001
 1003MOL0     H38389   6.384   0.861   1.707 -0.3148 -0.5492  0.3530
 1003MOL0     H38390   6.261   0.710   1.848  2.1992 -0.0992  0.0199
 1003MOL0     H38391   6.118   0.829   1.834  0.8629  0.1584 -0.9561
 1003MOL0     H38392   6.247   0.988   1.965 -0.0277  0.6822  0.2075
 1003MOL0     H38393   6.398   0.898   1.935 -0.4934  2.5906 -0.5760
 1003MOL0     H38394   6.302   1.327   1.553 -0.9058 -4.0099 -0.1062
 1003MOL0     H38395   6.150   1.547   1.531 -1.0507  0.4677 -1.7426
 1003MOL0     H38396   5.962   1.809   1.503 -1.1746  1.4233  1.2858
 1003MOL0     H38397   5.877   2.017   1.576  1.3807  0.7242 -0.5057
 1003MOL0     H38398   5.011   3.066   0.756  0.7592 -1.0616 -0.9377
 1003MOL0     H38399   4.772   3.019   0.811  0.3577  2.1434 -0.7197
 1003MOL0     H38400   4.310   3.311   0.706 -1.8148  0.0351  0.4581
 1003MOL0     H38401   4.093   3.283   0.793 -1.9289 -0.6099 -1.7845
 1003MOL0     H38402   3.882   3.155   0.632 -0.1854 -0.6748 -1.5280
 1003MOL0     H38403   3.822   2.990   0.629 -2.2715  1.1752 -1.5258
 1003MOL0     H38404   3.638   3.140   0.676  2.1288  0.8469 -2.1121
 1003MOL0     H38405   3.699   3.180   0.838  1.6695 -0.5676  0.4583
 1003MOL0     H38406   3.624   2.913   0.749  0.4469  0.6659 -0.3687
 1003MOL0     H38407   3.718   2.947   0.903  0.7041  2.3554  1.7572
 1003MOL0     H38408   3.540   3.101   0.971  1.1908 -2.8473  2.9300
 1003MOL0     H38409   3.489   2.935   0.963  0.6884 -0.3760  0.6641
 1003MOL0     H38410   3.237   3.117   0.671 -1.5350 -3.1403 -0.2037
 1003MOL0     H38411   4.085   2.868   0.695 -1.1114  0.4863 -1.0308
 1003MOL0     H38412   4.404   2.869   0.522 -2.5934 -0.1845 -3.1704
 1003MOL0     H38413   4.397   2.792   0.679 -2.1414 -1.6438 -0.4150
 1003MOL0     H38414   4.259   2.777   0.565  1.2816 -0.2282 -1.4672
 1004MOL0     O38415   5.260  10.811   7.285 -0.7279  0.9368  0.3117
 1004MOL0     C38416   5.364  10.865   7.327 -0.2946  0.6349  0.3352
 1004MOL0     O38417   5.460  10.933   7.252  0.3249  0.2808 -0.2096
 1004MOL0     C38418   5.424  10.961   7.123  0.4851 -0.5653  0.3674
 1004MOL0     C38419   5.498  10.908   7.020 -0.9139 -0.0441 -0.8443
 1004MOL0     C38420   5.457  10.910   6.892 -0.1893  0.1631  0.5306
 1004MOL0     C38421   5.338  10.980   6.856  0.5184 -0.7186  1.0558
 1004MOL0     O38422   5.286  10.975   6.726  0.5501  0.2939  0.1151
 1004MOL0     C38423   5.211  11.088   6.682  0.3444 -0.4431 -0.0624
 1004MOL0     C38424   5.188  11.067   6.528 -0.4606 -0.0257 -0.4231
 1004MOL0     C38425   5.127  11.190   6.466  0.1897 -1.1321  0.1769
 1004MOL0     C38426   5.099  11.164   6.319 -0.1164 -0.4600  0.6115
 1004MOL0     C38427   5.080  11.293   6.233 -1.0500  0.3414 -0.3804
 1004MOL0     C38428   4.938  11.340   6.242 -0.1211  0.9125 -1.1357
 1004MOL0     C38429   4.898  11.445   6.135  0.7921  0.0760 -0.5954
 1004MOL0     C38430   4.743  11.441   6.119 -0.1657  0.1264 -0.3192
 1004MOL0     N38431   4.692  11.556   6.049 -0.4006  0.3067 -0.5028
 1004MOL0     C38432   4.576  11.623   6.052  0.2411  0.3233  0.4547
 1004MOL0     C38433   4.578  11.719   5.960 -0.1471 -0.6981 -0.7400
 1004MOL0     C38434   4.474  11.832   5.952  0.0399  0.1571  0.3482
 1004MOL0     C38435   4.408  11.870   6.092  0.9013  0.1896  0.7465
 1004MOL0     C38436   4.344  12.010   6.082  0.3532 -0.1813  0.9977
 1004MOL0     C38437   4.269  12.055   6.199  0.0159  0.6687  0.6863
 1004MOL0     O38438   4.146  11.964   6.212 -0.0692 -0.4188  0.8124
 1004MOL0     C38439   4.077  11.982   6.324  0.3601 -0.4833 -0.2671
 1004MOL0     C38440   3.971  11.888   6.339  0.4340  0.0122 -0.0351
 1004MOL0     C38441   3.865  11.907   6.426 -0.1107  0.3977 -0.2457
 1004MOL0     C38442   3.757  11.801   6.425  0.7682  0.4697 -0.5496
 1004MOL0     C38443   3.862  12.027   6.501 -0.5564 -0.1306 -0.0517
 1004MOL0     C38444   3.759  12.076   6.597  0.7086  0.8620  0.6509
 1004MOL0     O38445   3.637  12.020   6.571  0.8785 -1.7862 -1.0283
 1004MOL0     C38446   3.516  12.047   6.625  0.5162  0.0968 -0.8958
 1004MOL0     C38447   3.494  12.132   6.738  0.1233 -0.4937  0.1028
 1004MOL0     C38448   3.363  12.159   6.794 -0.1919  0.4600 -0.1308
 1004MOL0     C38449   3.253  12.107   6.737  1.0328  1.3947 -0.7922
 1004MOL0     O38450   3.125  12.114   6.790  0.0859 -0.8238  0.9987
 1004MOL0     C38451   3.105  12.213   6.894 -0.1941 -0.3097  0.3087
 1004MOL0     C38452   2.964  12.184   6.931  0.1028 -0.6888 -1.7382
 1004MOL0     C38453   2.911  12.265   7.047  1.1023  0.4600 -0.1980
 1004MOL0     C38454   2.895  12.415   7.014  0.0711 -0.0491  0.0479
 1004MOL0     C38455   2.762  12.472   7.076 -0.1278  0.2776  0.1224
 1004MOL0     C38456   2.738  12.463   7.234  0.0274  0.6670 -0.5679
 1004MOL0     C38457   2.601  12.505   7.260 -0.7064 -0.4993 -0.7212
 1004MOL0     C38458   2.499  12.395   7.246 -0.6560 -0.9634  0.1668
 1004MOL0    Cl38459   2.336  12.454   7.233 -0.1965  0.2878  0.2685
 1004MOL0     C38460   3.272  12.014   6.637  0.0941 -0.5439  0.4417
 1004MOL0     C38461   3.402  11.985   6.578  0.2883  0.3366 -0.3721
 1004MOL0     O38462   3.779  12.173   6.660 -1.2060  0.0375  0.0073
 1004MOL0     C38463   3.975  12.118   6.486 -0.1651 -0.0803  0.1049
 1004MOL0     C38464   4.078  12.095   6.401  0.1790 -0.7614  0.0602
 1004MOL0     N38465   4.698  11.715   5.895  0.1311 -0.2938 -0.3869
 1004MOL0     N38466   4.759  11.608   5.939  0.3621 -0.4321  0.8023
 1004MOL0     C38467   5.268  11.045   6.965  0.0039 -0.1805  0.0993
 1004MOL0     C38468   5.311  11.035   7.095  0.3198 -0.0354 -0.0689
 1004MOL0     C38469   5.390  10.851   7.473  0.0232  0.0360 -0.4441
 1004MOL0     C38470   5.397  10.721   7.531 -0.7327  0.3517 -0.4757
 1004MOL0     C38471   5.425  10.707   7.666 -0.8151 -0.6310 -0.0093
 1004MOL0     C38472   5.452  10.817   7.753  0.2674  0.2199  1.3091
 1004MOL0     O38473   5.471  10.784   7.881  0.7543  0.1123  0.5131
 1004MOL0     C38474   5.539  10.881   7.955  0.3561 -0.2282  0.3291
 1004MOL0     C38475   5.542  10.829   8.094  0.3856  0.8268 -0.2560
 1004MOL0     C38476   5.569  10.940   8.198 -0.7191 -0.1493  0.5560
 1004MOL0     C38477   5.561  10.887   8.339  0.5840  0.0342 -0.1418
 1004MOL0     C38478   5.622  10.976   8.437  0.2610  0.2172  0.2757
 1004MOL0     C38479   5.671  11.068   8.512  0.1328  1.5460 -0.3230
 1004MOL0     C38480   5.460  10.948   7.692  0.1550  0.3800  0.6220
 1004MOL0     C38481   5.425  10.961   7.556  0.5897  0.5965 -0.2735
 1004MOL0     C38482   5.403  11.103   7.506  0.7603 -0.0327 -0.1736
 1004MOL0     H38483   5.570  10.834   7.053 -0.4983  0.5440 -0.4269
 1004MOL0     H38484   5.515  10.855   6.819  0.3346  0.4886  0.6863
 1004MOL0     H38485   5.259  11.185   6.697 -4.8593  2.3276  0.9077
 1004MOL0     H38486   5.113  11.091   6.729  0.2773  0.2304 -0.2384
 1004MOL0     H38487   5.285  11.045   6.484  1.2641  1.8646  2.1447
 1004MOL0     H38488   5.118  10.985   6.509  2.4139 -2.2166 -2.5061
 1004MOL0     H38489   5.034  11.221   6.514  0.1618 -1.3398  0.2583
 1004MOL0     H38490   5.193  11.276   6.466 -0.6516 -0.4522 -1.0139
 1004MOL0     H38491   5.185  11.108   6.280  2.5398  2.1907  2.2655
 1004MOL0     H38492   5.019  11.089   6.317  0.6774 -1.3243 -0.1523
 1004MOL0     H38493   5.116  11.261   6.135  1.3244  0.9798  0.2183
 1004MOL0     H38494   5.148  11.375   6.258  0.9469 -1.7376  1.4057
 1004MOL0     H38495   4.875  11.253   6.223 -3.1983  2.4790  1.1134
 1004MOL0     H38496   4.905  11.380   6.338 -1.4624  0.4112 -1.3676
 1004MOL0     H38497   4.955  11.421   6.044 -1.2185 -2.7043 -1.2479
 1004MOL0     H38498   4.919  11.549   6.161 -0.8844  0.4651 -0.6794
 1004MOL0     H38499   4.710  11.348   6.073 -0.0736  0.3727 -0.9083
 1004MOL0     H38500   4.700  11.451   6.219 -0.4228  0.9555 -0.5004
 1004MOL0     H38501   4.504  11.611   6.132 -1.2854 -1.3189 -1.0760
 1004MOL0     H38502   4.410  11.793   5.872  1.7818 -2.2572 -0.0021
 1004MOL0     H38503   4.527  11.923   5.925 -0.9318  0.6279 -0.0224
 1004MOL0     H38504   4.336  11.790   6.110  0.7022 -0.6015 -2.8506
 1004MOL0     H38505   4.481  11.868   6.173  0.9065 -1.0612  0.7255
 1004MOL0     H38506   4.415  12.090   6.061 -1.3802  0.9798 -0.7395
 1004MOL0     H38507   4.283  12.010   5.992  3.1763  2.3645 -1.0993
 1004MOL0     H38508   4.331  12.060   6.288 -1.0762 -1.5469  1.6630
 1004MOL0     H38509   4.245  12.160   6.180 -0.6200  0.2353 -1.1307
 1004MOL0     H38510   3.969  11.806   6.267  1.7908 -0.6544  0.6384
 1004MOL0     H38511   3.666  11.827   6.371  0.2082  1.7365  0.9358
 1004MOL0     H38512   3.728  11.785   6.529  2.4874  2.4627  0.3125
 1004MOL0     H38513   3.792  11.703   6.391  2.4732 -1.0653  4.6932
 1004MOL0     H38514   3.572  12.185   6.790 -1.8811  1.4170  1.3488
 1004MOL0     H38515   3.354  12.233   6.873 -3.3207  0.6006 -0.4709
 1004MOL0     H38516   3.171  12.207   6.981  2.4586 -0.1648 -1.5779
 1004MOL0     H38517   3.122  12.314   6.856 -0.5164  0.0664  1.1272
 1004MOL0     H38518   2.894  12.185   6.847  1.4504 -0.7910 -2.8969
 1004MOL0     H38519   2.956  12.080   6.964  1.0855 -0.0997  0.5693
 1004MOL0     H38520   2.976  12.250   7.133  0.3319  1.4702  0.5895
 1004MOL0     H38521   2.811  12.225   7.065 -0.0768  3.4762  0.5332
 1004MOL0     H38522   2.884  12.433   6.907 -1.0965  3.7353  0.6521
 1004MOL0     H38523   2.982  12.464   7.061  0.7961 -2.1446  1.0316
 1004MOL0     H38524   2.757  12.576   7.042  0.2334 -0.3469 -2.0048
 1004MOL0     H38525   2.686  12.417   7.020 -1.4758 -0.8120  2.8387
 1004MOL0     H38526   2.820  12.522   7.276  0.9414 -0.8143 -0.1671
 1004MOL0     H38527   2.750  12.358   7.262  0.1809  0.5771 -0.9530
 1004MOL0     H38528   2.571  12.576   7.182  1.7780 -0.2891 -1.5564
 1004MOL0     H38529   2.590  12.550   7.359  0.4762  1.0770 -1.2685
 1004MOL0     H38530   2.494  12.328   7.332  0.8786 -0.0512  1.0051
 1004MOL0     H38531   2.532  12.333   7.162  2.7504 -1.0476  1.4127
 1004MOL0     H38532   3.182  11.969   6.596  0.7751  0.9373 -2.9872
 1004MOL0     H38533   3.405  11.921   6.491  1.9868 -1.2199  0.7632
 1004MOL0     H38534   3.982  12.199   6.558 -2.3968 -1.0745  1.5623
 1004MOL0     H38535   4.160  12.164   6.387 -0.1068 -0.6214 -1.0229
 1004MOL0     H38536   5.175  11.097   6.944  0.4381  0.5615 -0.0001
 1004MOL0     H38537   5.243  11.072   7.170  1.0501  2.2192 -0.4365
 1004MOL0     H38538   5.372  10.637   7.468 -1.0688 -1.9816  2.5463
 1004MOL0     H38539   5.421  10.608   7.711  0.5693  0.5079  2.8731
 1004MOL0     H38540   5.643  10.907   7.931  0.3207  1.0979  1.4809
 1004MOL0     H38541   5.473  10.969   7.952 -3.2773 -2.7450  0.2871
 1004MOL0     H38542   5.616  10.750   8.103 -0.4438  0.1804  1.3713
 1004MOL0     H38543   5.445  10.785   8.119  0.1402  1.0876 -0.7440
 1004MOL0     H38544   5.664  10.986   8.168 -1.1799  0.6664  0.2879
 1004MOL0     H38545   5.496  11.022   8.188  0.8250  1.6108  2.7581
 1004MOL0     H38546   5.602  10.786   8.338  3.1148  0.9626  0.6571
 1004MOL0     H38547   5.463  10.869   8.383  0.6385 -1.1562 -0.4757
 1004MOL0     H38548   5.698  11.158   8.562  1.8097  0.1288  1.4842
 1004MOL0     H38549   5.497  11.033   7.749  2.0331  0.2411 -0.3198
 1004MOL0     H38550   5.337  11.110   7.419  0.9874 -0.8161 -0.4189
 1004MOL0     H38551   5.361  11.174   7.578 -0.7763 -1.0818  0.0166
 1004MOL0     H38552   5.499  11.144   7.473  0.5053  1.3262  0.7002
 1005MOL0     O38553   0.118   3.303   8.824  0.3987 -0.3488 -0.1470
 1005MOL0     C38554   0.029   3.254   8.891 -1.2897  1.2161  0.0414
 1005MOL0     O38555   0.020   3.267   9.030 -0.0827  0.4464 -0.3142
 1005MOL0     C38556   0.101   3.335   9.114 -0.3902  0.4176  0.5991
 1005MOL0     C38557   0.047   3.396   9.233 -0.5776  0.6299 -0.4947
 1005MOL0     C38558   0.135   3.461   9.326  0.5910 -0.4199  0.4811
 1005MOL0     C38559   0.271   3.481   9.289  0.5040 -0.5027  0.4279
 1005MOL0     O38560   0.353   3.570   9.362  0.3150  1.1991 -1.1813
 1005MOL0     C38561   0.435   3.502   9.459 -0.1812 -0.4017 -0.9109
 1005MOL0     C38562   0.437   3.596   9.579  0.6088  1.0784  0.1490
 1005MOL0     C38563   0.290   3.627   9.621  0.1091 -1.0823 -1.0422
 1005MOL0     C38564   0.276   3.687   9.761 -1.2556  0.2129 -0.5006
 1005MOL0     C38565   0.137   3.698   9.826 -0.3290  0.3581  0.7485
 1005MOL0     C38566   0.139   3.765   9.958  0.0730 -0.7889 -0.3846
 1005MOL0     C38567   0.124   3.916   9.975  0.1095 -0.2490  0.0634
 1005MOL0     C38568  -0.009   3.975  10.016 -0.8168  0.0570 -0.6592
 1005MOL0     N38569  -0.115   3.961   9.928 -0.7558 -0.0994  0.1977
 1005MOL0     C38570  -0.145   4.052   9.826  0.0499 -0.1325  0.8404
 1005MOL0     C38571  -0.232   3.981   9.752  0.7067  0.1605  0.0646
 1005MOL0     C38572  -0.313   4.013   9.625  0.8979 -0.2799 -0.4710
 1005MOL0     C38573  -0.458   4.058   9.673  0.5448 -0.1542  0.2209
 1005MOL0     C38574  -0.561   4.060   9.563  0.4307 -0.4781  0.0377
 1005MOL0     C38575  -0.682   4.141   9.607  0.2200  0.0559  0.3731
 1005MOL0     O38576  -0.754   4.081   9.718 -0.5817 -0.3909 -0.1969
 1005MOL0     C38577  -0.852   4.148   9.773 -0.1138 -0.1009 -0.5228
 1005MOL0     C38578  -0.902   4.107   9.896  0.0593  0.2165  0.0239
 1005MOL0     C38579  -0.998   4.178   9.972  1.1882  0.0246  1.4887
 1005MOL0     C38580  -1.026   4.136  10.116 -0.2530 -0.4162  0.8490
 1005MOL0     C38581  -1.047   4.301   9.921 -0.4536 -0.5919  0.0477
 1005MOL0     C38582  -1.171   4.355   9.979  0.6242 -0.4820  0.9146
 1005MOL0     O38583  -1.249   4.277  10.055 -0.8351  0.6704 -0.3323
 1005MOL0     C38584  -1.354   4.329  10.122 -0.9888 -0.2424 -0.9723
 1005MOL0     C38585  -1.354   4.456  10.186  0.1090  0.0178  0.5960
 1005MOL0     C38586  -1.448   4.494  10.278  0.7417 -0.3528 -0.0157
 1005MOL0     C38587  -1.558   4.414  10.309  0.5668  0.0507  0.6034
 1005MOL0     O38588  -1.661   4.439  10.391  0.9157  0.2752  0.0139
 1005MOL0     C38589  -1.688   4.562  10.450  0.4092  0.7830 -0.0411
 1005MOL0     C38590  -1.836   4.572  10.483  0.3326  0.2795  0.3093
 1005MOL0     C38591  -1.883   4.443  10.567 -0.0285  0.6701  0.2471
 1005MOL0     C38592  -1.819   4.420  10.704 -0.6547 -0.4812 -0.1474
 1005MOL0     C38593  -1.880   4.305  10.782 -0.7203 -0.9414  0.6388
 1005MOL0     C38594  -2.024   4.334  10.822 -0.1233 -0.0252  0.2047
 1005MOL0     C38595  -2.082   4.232  10.919  0.6023  0.0377 -0.3775
 1005MOL0     C38596  -2.234   4.251  10.947  0.0827  0.7790 -0.0619
 1005MOL0    Cl38597  -2.325   4.165  10.828  0.1476 -0.1039  0.3803
 1005MOL0     C38598  -1.572   4.297  10.231 -0.3179  0.2665  0.1848
 1005MOL0     C38599  -1.479   4.261  10.141 -0.4292  0.6670 -0.3325
 1005MOL0     O38600  -1.190   4.471   9.958 -0.3246 -0.6954 -0.5757
 1005MOL0     C38601  -1.000   4.338   9.797  0.4687 -0.4943  0.1877
 1005MOL0     C38602  -0.910   4.269   9.725  0.7556 -0.2501 -0.2371
 1005MOL0     N38603  -0.256   3.852   9.804 -0.8403  0.3337  0.3097
 1005MOL0     N38604  -0.178   3.840   9.912 -0.4930 -0.3572  0.1982
 1005MOL0     C38605   0.319   3.427   9.164 -0.6207  0.0428 -0.1599
 1005MOL0     C38606   0.245   3.349   9.086 -0.0515 -0.3086  0.2127
 1005MOL0     C38607  -0.089   3.192   8.832 -0.0883 -0.4388 -0.4399
 1005MOL0     C38608  -0.207   3.158   8.914 -0.2702 -0.5098  0.8880
 1005MOL0     C38609  -0.321   3.099   8.856 -0.2296  0.7068 -0.5305
 1005MOL0     C38610  -0.318   3.057   8.721 -0.9117 -1.5137 -0.2010
 1005MOL0     O38611  -0.425   2.997   8.658 -0.0071 -0.8087 -0.0756
 1005MOL0     C38612  -0.550   2.993   8.729  0.3271  0.7953  0.3697
 1005MOL0     C38613  -0.655   2.924   8.639 -0.5342 -0.7147  1.1261
 1005MOL0     C38614  -0.796   2.933   8.684 -0.3949 -0.0513 -0.6030
 1005MOL0     C38615  -0.894   2.891   8.575  0.0044  0.4222  0.0736
 1005MOL0     C38616  -0.973   2.766   8.610 -0.3081 -0.5611 -0.4770
 1005MOL0     C38617  -1.057   2.682   8.639  0.0033 -0.9624 -1.2032
 1005MOL0     C38618  -0.209   3.089   8.645 -0.2124  1.0033  0.0519
 1005MOL0     C38619  -0.100   3.150   8.693  0.7656 -0.2444 -0.1195
 1005MOL0     C38620   0.010   3.197   8.602  1.1914 -0.2741 -0.1236
 1005MOL0     H38621  -0.056   3.371   9.255 -0.1532  0.6434  1.7312
 1005MOL0     H38622   0.106   3.491   9.427  2.1297 -2.4965  1.6099
 1005MOL0     H38623   0.541   3.493   9.434  0.8231 -0.3471  2.7124
 1005MOL0     H38624   0.396   3.406   9.494 -0.3139  0.9127  3.0923
 1005MOL0     H38625   0.489   3.546   9.661  1.6296 -3.3460 -2.8455
 1005MOL0     H38626   0.491   3.690   9.569  1.1935  0.8583  1.0864
 1005MOL0     H38627   0.256   3.708   9.557 -0.9054  0.4528  1.3007
 1005MOL0     H38628   0.226   3.539   9.608  2.4616 -2.8527 -1.3847
 1005MOL0     H38629   0.334   3.631   9.834 -2.7264  1.0479  1.4101
 1005MOL0     H38630   0.325   3.785   9.765 -0.1561 -0.2972 -1.0805
 1005MOL0     H38631   0.095   3.598   9.832  3.1186 -1.2310  1.2905
 1005MOL0     H38632   0.091   3.768   9.757 -0.2325 -2.3324 -2.2723
 1005MOL0     H38633   0.047   3.735  10.008  0.4063 -1.9462 -0.4426
 1005MOL0     H38634   0.226   3.731  10.015  1.0280  0.4530 -1.0693
 1005MOL0     H38635   0.157   3.958   9.879  1.7770  0.0918  0.7441
 1005MOL0     H38636   0.193   3.955  10.051 -1.0824  0.3391  0.8674
 1005MOL0     H38637  -0.043   3.927  10.108 -1.9378 -0.6717 -1.4293
 1005MOL0     H38638   0.009   4.081  10.036  4.8529 -0.7357 -0.0250
 1005MOL0     H38639  -0.108   4.152   9.809 -1.4856  0.2214 -0.7605
 1005MOL0     H38640  -0.320   3.923   9.563 -1.2240 -0.6129  0.1518
 1005MOL0     H38641  -0.285   4.095   9.557 -1.1868 -0.7583 -2.0234
 1005MOL0     H38642  -0.489   3.988   9.751 -1.7385 -1.6737 -1.9187
 1005MOL0     H38643  -0.446   4.159   9.714  2.9404 -0.7685  1.2110
 1005MOL0     H38644  -0.514   4.101   9.473  0.1397  1.8129  0.8662
 1005MOL0     H38645  -0.596   3.960   9.533  1.2423 -0.3170 -1.5460
 1005MOL0     H38646  -0.644   4.242   9.626  1.9861 -0.4100 -0.4765
 1005MOL0     H38647  -0.742   4.154   9.516  0.7460 -3.0150 -0.5034
 1005MOL0     H38648  -0.895   4.009   9.943 -2.5738 -0.5795 -1.0610
 1005MOL0     H38649  -1.118   4.078  10.129 -0.9432  0.5189  0.2589
 1005MOL0     H38650  -1.024   4.222  10.183  1.3086 -0.9450  1.5285
 1005MOL0     H38651  -0.944   4.079  10.161 -1.0555  0.9639  4.3574
 1005MOL0     H38652  -1.270   4.524  10.171  1.8893 -2.5082 -1.6350
 1005MOL0     H38653  -1.450   4.585  10.337 -0.6127 -0.6028  0.3488
 1005MOL0     H38654  -1.627   4.565  10.541 -2.4834 -2.8362  2.3111
 1005MOL0     H38655  -1.677   4.649  10.384 -2.5847  0.4034 -1.2006
 1005MOL0     H38656  -1.857   4.664  10.538  0.3362  1.7747 -2.0661
 1005MOL0     H38657  -1.890   4.589  10.390  0.0574  2.7712  0.8510
 1005MOL0     H38658  -1.861   4.357  10.504  2.3317  0.9153  0.6584
 1005MOL0     H38659  -1.989   4.459  10.588  0.5231 -0.6034  5.2505
 1005MOL0     H38660  -1.844   4.511  10.759  0.9362  1.1237 -1.9576
 1005MOL0     H38661  -1.712   4.412  10.683 -0.3550 -0.8497  1.3707
 1005MOL0     H38662  -1.875   4.215  10.720 -1.4315 -2.2819  2.4276
 1005MOL0     H38663  -1.819   4.295  10.873  0.8273  0.6316 -0.1633
 1005MOL0     H38664  -2.074   4.340  10.725 -0.3305  1.2508  0.3761
 1005MOL0     H38665  -2.022   4.432  10.870 -0.1345 -1.4950  3.5244
 1005MOL0     H38666  -2.023   4.228  11.012  2.0745 -0.9010 -1.3133
 1005MOL0     H38667  -2.073   4.129  10.885  1.2232  0.5528 -1.8250
 1005MOL0     H38668  -2.264   4.356  10.940 -1.7094  0.3788  1.1126
 1005MOL0     H38669  -2.263   4.226  11.049 -0.8880  4.3997  0.7209
 1005MOL0     H38670  -1.656   4.228  10.236  2.0385 -2.8149  0.1752
 1005MOL0     H38671  -1.496   4.164  10.095  0.5963 -1.3248  3.1063
 1005MOL0     H38672  -1.035   4.434   9.763  1.6392  0.2238  0.9337
 1005MOL0     H38673  -0.877   4.305   9.628 -0.6625  4.3788  0.7468
 1005MOL0     H38674   0.421   3.451   9.134  0.8190 -4.0779  0.7463
 1005MOL0     H38675   0.281   3.329   8.985  2.0608 -2.6393  1.3256
 1005MOL0     H38676  -0.211   3.204   9.013  1.5603  2.6274 -0.3594
 1005MOL0     H38677  -0.417   3.090   8.904  0.4881  0.9071  0.9850
 1005MOL0     H38678  -0.547   2.937   8.823  2.3897 -1.6345 -1.0236
 1005MOL0     H38679  -0.582   3.095   8.752 -2.6506  0.0417 -0.0459
 1005MOL0     H38680  -0.638   2.816   8.639 -0.5204 -0.7591 -0.8180
 1005MOL0     H38681  -0.644   2.960   8.536  1.3866 -1.0654  1.1797
 1005MOL0     H38682  -0.812   2.877   8.777  2.7638 -4.4238 -2.3482
 1005MOL0     H38683  -0.819   3.039   8.701 -0.6423  0.0055 -1.2748
 1005MOL0     H38684  -0.844   2.870   8.479  0.8258 -0.3886  0.6581
 1005MOL0     H38685  -0.961   2.976   8.565 -0.8870 -0.1996  0.5848
 1005MOL0     H38686  -1.129   2.610   8.671 -2.5499  1.6468 -0.6684
 1005MOL0     H38687  -0.207   3.049   8.544  2.8327  1.0387  0.0145
 1005MOL0     H38688   0.027   3.306   8.601  0.8437 -0.2059  0.8597
 1005MOL0     H38689   0.104   3.141   8.600  0.4856 -1.4858 -0.3628
 1005MOL0     H38690  -0.015   3.180   8.497  3.1716  0.4932 -0.7832
 1006MOL0     O38691   4.388   9.509   3.360  0.3773  0.2981 -0.7273
 1006MOL0     C38692   4.422   9.404   3.315  0.0292 -0.3904 -0.7579
 1006MOL0     O38693   4.345   9.290   3.322  0.2814  0.3369 -0.8305
 1006MOL0     C38694   4.246   9.282   3.419 -0.1365  0.3806  0.7302
 1006MOL0     C38695   4.121   9.244   3.374 -0.3362  0.3046  1.0236
 1006MOL0     C38696   4.015   9.242   3.472 -1.1729  0.4972  0.5285
 1006MOL0     C38697   4.031   9.283   3.600  0.5752  0.0170  0.4453
 1006MOL0     O38698   3.928   9.293   3.686  0.0878 -0.7270 -0.3039
 1006MOL0     C38699   3.843   9.182   3.693  0.3219  0.0830 -0.6586
 1006MOL0     C38700   3.741   9.198   3.817  0.6215 -0.0652 -0.2895
 1006MOL0     C38701   3.656   9.072   3.816  0.1465  0.9931 -0.4622
 1006MOL0     C38702   3.576   9.066   3.945  0.2156  0.9096 -0.3883
 1006MOL0     C38703   3.442   8.997   3.922 -0.0078  1.3413 -0.8260
 1006MOL0     C38704   3.457   8.843   3.881 -0.4267  0.0910  0.0241
 1006MOL0     C38705   3.556   8.753   3.961 -0.0134  0.0556  1.0949
 1006MOL0     C38706   3.538   8.608   3.912  0.1856  0.2426  0.1847
 1006MOL0     N38707   3.603   8.577   3.780  0.7799 -0.5642  0.0531
 1006MOL0     C38708   3.532   8.562   3.656  0.1167 -0.0893 -0.4492
 1006MOL0     C38709   3.636   8.524   3.573  0.8315 -0.9266  0.1069
 1006MOL0     C38710   3.631   8.495   3.425  0.0366 -0.5676 -0.1959
 1006MOL0     C38711   3.698   8.365   3.389  0.8943 -0.5142  0.3866
 1006MOL0     C38712   3.698   8.353   3.236 -0.9117  1.4615 -0.4192
 1006MOL0     C38713   3.770   8.226   3.215 -0.4610 -0.4658 -0.7235
 1006MOL0     O38714   3.702   8.113   3.256  0.8690 -0.5366 -0.1870
 1006MOL0     C38715   3.747   7.989   3.214  1.6801  0.1857 -1.2905
 1006MOL0     C38716   3.658   7.892   3.181  0.1284  0.1390 -0.7946
 1006MOL0     C38717   3.690   7.766   3.140 -0.4882  0.5838  1.0219
 1006MOL0     C38718   3.569   7.676   3.107 -0.0859 -0.6215  0.5014
 1006MOL0     C38719   3.825   7.731   3.113  0.6660 -0.1278  0.0136
 1006MOL0     C38720   3.865   7.591   3.078 -1.2238  0.4128  0.4005
 1006MOL0     O38721   4.002   7.573   3.050 -0.3393 -0.2754 -0.0492
 1006MOL0     C38722   4.049   7.440   3.031 -0.2899 -0.1237  0.1680
 1006MOL0     C38723   4.079   7.404   2.893  0.0824 -0.1839 -0.3246
 1006MOL0     C38724   4.109   7.265   2.869 -1.4924 -0.6646  0.8372
 1006MOL0     C38725   4.120   7.169   2.973  0.6524  0.0219  0.0735
 1006MOL0     O38726   4.163   7.044   2.930 -0.0094 -0.8872  0.5280
 1006MOL0     C38727   4.179   6.938   3.018  0.8108 -0.4908 -0.0777
 1006MOL0     C38728   4.053   6.881   3.078 -0.7085 -0.7764  0.3676
 1006MOL0     C38729   4.010   6.760   2.990 -0.0179 -0.7277  0.8979
 1006MOL0     C38730   3.911   6.664   3.048 -0.7727  0.0365 -1.0584
 1006MOL0     C38731   3.915   6.630   3.198  0.3957 -0.4053  0.0855
 1006MOL0     C38732   3.799   6.532   3.232  0.4693 -0.3872 -0.2065
 1006MOL0     C38733   3.669   6.604   3.223 -0.7463  0.3927  0.1348
 1006MOL0     C38734   3.554   6.533   3.282 -0.3487  0.4001  0.8431
 1006MOL0    Cl38735   3.514   6.381   3.213 -0.0892  0.2370  0.1109
 1006MOL0     C38736   4.084   7.210   3.107  0.6263  0.4192  0.4165
 1006MOL0     C38737   4.054   7.343   3.138 -0.2073 -0.5460  0.3110
 1006MOL0     O38738   3.784   7.500   3.070  0.3580  0.4582  0.4780
 1006MOL0     C38739   3.919   7.829   3.152 -0.1140 -0.1974 -0.8693
 1006MOL0     C38740   3.883   7.958   3.208  0.7780 -0.0068 -0.0932
 1006MOL0     N38741   3.755   8.530   3.641 -0.0494 -0.9217  0.2681
 1006MOL0     N38742   3.737   8.566   3.764  0.6378  0.7837 -0.3167
 1006MOL0     C38743   4.163   9.324   3.641  0.4324 -0.7930 -0.5640
 1006MOL0     C38744   4.269   9.329   3.551  0.7440 -1.1020 -0.0528
 1006MOL0     C38745   4.552   9.390   3.248 -0.3686  0.0105 -0.4362
 1006MOL0     C38746   4.598   9.267   3.208 -0.9988 -0.2604  0.6527
 1006MOL0     C38747   4.730   9.251   3.150 -0.2331  0.5271  0.2679
 1006MOL0     C38748   4.815   9.354   3.141  0.8498  0.6099 -0.5507
 1006MOL0     O38749   4.940   9.336   3.102  0.6870  0.2087 -0.6980
 1006MOL0     C38750   5.051   9.419   3.142 -0.2316 -0.1941  0.4490
 1006MOL0     C38751   5.086   9.387   3.287 -0.2748 -0.9761  0.2621
 1006MOL0     C38752   5.196   9.489   3.330 -0.3907 -0.0297  0.8547
 1006MOL0     C38753   5.212   9.473   3.483  0.3462  0.9584  0.0687
 1006MOL0     C38754   5.295   9.579   3.527 -0.7926  0.0268 -0.1909
 1006MOL0     C38755   5.386   9.673   3.541  0.4093  0.3027 -0.4219
 1006MOL0     C38756   4.763   9.480   3.163  0.0183  0.1527 -0.3288
 1006MOL0     C38757   4.634   9.505   3.216  0.8206  0.8042  0.4237
 1006MOL0     C38758   4.613   9.656   3.251 -1.0098 -0.0704  0.2187
 1006MOL0     H38759   4.108   9.202   3.275 -1.2204 -0.5571  1.4885
 1006MOL0     H38760   3.912   9.226   3.440 -1.5769 -0.1605  2.0866
 1006MOL0     H38761   3.902   9.091   3.700 -1.6565 -1.2288 -0.1142
 1006MOL0     H38762   3.783   9.180   3.601 -0.9933 -2.1594  0.1650
 1006MOL0     H38763   3.796   9.193   3.912 -1.6993 -0.7048  1.1027
 1006MOL0     H38764   3.693   9.295   3.800 -0.1558 -0.6956 -1.9702
 1006MOL0     H38765   3.590   9.073   3.729  2.5011 -0.5882 -2.3649
 1006MOL0     H38766   3.726   8.988   3.815 -0.6923  0.2457  0.6655
 1006MOL0     H38767   3.630   9.016   4.027 -2.0163 -0.9415  0.0469
 1006MOL0     H38768   3.547   9.168   3.973  0.3435  0.3863  1.9205
 1006MOL0     H38769   3.391   9.043   3.836  2.3490  0.1234 -3.0084
 1006MOL0     H38770   3.371   9.003   4.005 -0.4463  0.9706 -1.1625
 1006MOL0     H38771   3.356   8.804   3.895 -0.8192 -0.1716 -2.8814
 1006MOL0     H38772   3.491   8.849   3.777 -2.1808 -1.6359 -0.7226
 1006MOL0     H38773   3.539   8.773   4.067 -0.0421  0.7084  0.9688
 1006MOL0     H38774   3.658   8.777   3.930  0.5574 -1.7087  1.4723
 1006MOL0     H38775   3.587   8.543   3.985  1.1589  1.0547  0.2773
 1006MOL0     H38776   3.433   8.578   3.899  0.8464 -1.8573 -1.0260
 1006MOL0     H38777   3.427   8.580   3.633 -0.0110 -1.0044 -0.5864
 1006MOL0     H38778   3.674   8.581   3.373  0.8990  0.2526  1.7625
 1006MOL0     H38779   3.526   8.490   3.393 -0.6578  0.4112  1.7656
 1006MOL0     H38780   3.796   8.362   3.436  1.4857  0.8920 -0.6766
 1006MOL0     H38781   3.637   8.283   3.430  1.6342 -2.0514 -1.4309
 1006MOL0     H38782   3.595   8.340   3.201 -1.2419  0.6539  0.8041
 1006MOL0     H38783   3.766   8.430   3.197 -0.7625  0.7633 -1.5920
 1006MOL0     H38784   3.798   8.218   3.109  3.3555 -0.7659  0.1450
 1006MOL0     H38785   3.868   8.222   3.263  0.0381 -2.0809 -1.8007
 1006MOL0     H38786   3.557   7.929   3.190  1.1422  2.6472  1.5679
 1006MOL0     H38787   3.480   7.728   3.145  0.9125  0.4205  1.5053
 1006MOL0     H38788   3.573   7.585   3.167  0.5200 -1.6927 -1.1151
 1006MOL0     H38789   3.565   7.646   3.002  2.1487  1.2444 -0.2123
 1006MOL0     H38790   4.054   7.470   2.811  1.3013  0.5115 -0.1522
 1006MOL0     H38791   4.132   7.252   2.764 -0.3301  0.4649  0.9223
 1006MOL0     H38792   4.237   6.865   2.961  0.4874  1.9573 -3.8512
 1006MOL0     H38793   4.236   6.980   3.101 -1.3926 -2.2528  2.5136
 1006MOL0     H38794   4.082   6.842   3.176 -1.4697  0.9896  1.3541
 1006MOL0     H38795   3.968   6.950   3.083 -0.4578 -0.5172  1.3057
 1006MOL0     H38796   4.103   6.703   2.975  1.6577  1.3488  2.7286
 1006MOL0     H38797   3.974   6.793   2.892 -1.3634 -0.1040  1.5748
 1006MOL0     H38798   3.932   6.568   2.999  2.4671 -1.7195  3.1051
 1006MOL0     H38799   3.809   6.703   3.040 -0.5072  1.1720  0.6714
 1006MOL0     H38800   4.007   6.579   3.229  1.0093 -0.5125 -1.7985
 1006MOL0     H38801   3.908   6.716   3.265  0.5490  1.2689 -1.9536
 1006MOL0     H38802   3.829   6.503   3.333  0.7036  1.4668  0.2970
 1006MOL0     H38803   3.793   6.449   3.162 -1.7147 -1.6156  1.3238
 1006MOL0     H38804   3.634   6.616   3.121  3.2599  0.7490 -1.3810
 1006MOL0     H38805   3.683   6.702   3.270 -0.2061  2.5649 -4.1311
 1006MOL0     H38806   3.459   6.587   3.272 -0.8565 -0.8601 -2.4650
 1006MOL0     H38807   3.581   6.520   3.387  3.7109 -0.2468 -0.1134
 1006MOL0     H38808   4.110   7.138   3.185  1.5162 -2.3517 -2.2448
 1006MOL0     H38809   4.022   7.375   3.237  2.3694  2.2741  0.3640
 1006MOL0     H38810   4.024   7.801   3.142 -0.8380 -2.6160 -2.5097
 1006MOL0     H38811   3.955   8.039   3.213  0.5190  0.6900 -4.0868
 1006MOL0     H38812   4.170   9.354   3.745 -2.3505 -2.6820  0.2868
 1006MOL0     H38813   4.368   9.356   3.586  0.3049  1.3314 -0.4804
 1006MOL0     H38814   4.535   9.179   3.218 -1.4031  0.0812  1.1916
 1006MOL0     H38815   4.778   9.154   3.147 -0.3232  0.4631 -3.1526
 1006MOL0     H38816   5.132   9.406   3.070  0.4315 -2.4871  1.5159
 1006MOL0     H38817   5.030   9.527   3.136 -1.7580 -0.4266  1.0528
 1006MOL0     H38818   5.118   9.282   3.281 -0.4623 -1.0307  0.1849
 1006MOL0     H38819   5.003   9.400   3.356  1.3017 -1.1866  2.2793
 1006MOL0     H38820   5.288   9.474   3.272 -0.5268  2.8021 -0.2692
 1006MOL0     H38821   5.169   9.594   3.310 -0.5014  0.1797  2.0248
 1006MOL0     H38822   5.242   9.370   3.507 -2.1498  0.3983  1.0891
 1006MOL0     H38823   5.114   9.468   3.532 -0.0788  1.4565 -0.7057
 1006MOL0     H38824   5.445   9.762   3.549 -0.4153  0.8806 -0.5969
 1006MOL0     H38825   4.826   9.569   3.160  2.3323 -1.3393  1.0777
 1006MOL0     H38826   4.684   9.725   3.204 -0.8861  0.7192  1.5057
 1006MOL0     H38827   4.518   9.703   3.221  0.6283  2.7734 -0.9249
 1006MOL0     H38828   4.628   9.670   3.359  0.6246 -1.7239  0.2525
 1007MOL0     O38829   3.085   7.402   3.824  0.3762  0.5999  0.2602
 1007MOL0     C38830   3.142   7.353   3.918 -0.4118 -0.0899  0.4067
 1007MOL0     O38831   3.221   7.242   3.906 -0.0063  1.2172 -0.0147
 1007MOL0     C38832   3.201   7.172   3.788 -0.4092  0.6007 -0.1451
 1007MOL0     C38833   3.295   7.202   3.687 -0.1200 -0.6232  0.0270
 1007MOL0     C38834   3.295   7.134   3.568  0.3533 -0.1102  1.4532
 1007MOL0     C38835   3.195   7.034   3.536  0.3122  0.1563 -0.3363
 1007MOL0     O38836   3.199   6.955   3.417 -0.5437  0.1813  0.1189
 1007MOL0     C38837   3.295   6.978   3.308 -0.1281 -0.3072  0.0636
 1007MOL0     C38838   3.237   6.942   3.161 -0.7260  0.3917  0.2005
 1007MOL0     C38839   3.249   6.794   3.135  0.5624  0.2479 -0.7984
 1007MOL0     C38840   3.237   6.767   2.988 -0.5975 -0.1373 -0.3611
 1007MOL0     C38841   3.187   6.622   2.944 -0.2936  0.5687 -0.9150
 1007MOL0     C38842   3.273   6.495   2.988  1.5139  0.6652  0.7998
 1007MOL0     C38843   3.184   6.361   2.977  0.1605 -0.5439  0.0298
 1007MOL0     C38844   3.269   6.235   2.967 -0.1983 -0.4278  0.1813
 1007MOL0     N38845   3.177   6.117   2.986 -0.0939 -0.3293  0.1191
 1007MOL0     C38846   3.159   6.025   2.889  0.6485 -0.2299 -0.0212
 1007MOL0     C38847   3.119   5.910   2.951 -0.8494 -0.1549  0.9767
 1007MOL0     C38848   3.077   5.773   2.890 -0.9531 -0.0533 -1.0410
 1007MOL0     C38849   2.948   5.719   2.946  0.7064  0.5913 -0.3868
 1007MOL0     C38850   2.944   5.562   2.934  0.6634 -0.5625 -0.2671
 1007MOL0     C38851   3.041   5.482   3.012 -0.6827  0.3195 -0.6601
 1007MOL0     O38852   3.047   5.348   2.954 -0.6262 -0.6388 -0.8192
 1007MOL0     C38853   2.953   5.254   2.990  0.6350 -0.0042  0.6450
 1007MOL0     C38854   2.976   5.121   2.945 -0.2802  0.2188 -0.3291
 1007MOL0     C38855   2.882   5.011   2.967  0.2347 -0.2738 -0.2816
 1007MOL0     C38856   2.915   4.881   2.902 -0.1634 -0.4698 -0.5794
 1007MOL0     C38857   2.767   5.037   3.037  0.0461  0.1126 -0.0352
 1007MOL0     C38858   2.659   4.946   3.051 -0.0165  0.3487 -0.0042
 1007MOL0     O38859   2.531   4.996   3.058 -0.0265  0.1357 -0.5132
 1007MOL0     C38860   2.423   4.910   3.067 -0.6837 -0.0954 -0.2142
 1007MOL0     C38861   2.387   4.834   3.183 -0.3453 -0.3706  0.0814
 1007MOL0     C38862   2.265   4.767   3.190  0.0861 -0.5546  1.0362
 1007MOL0     C38863   2.179   4.776   3.083 -0.6353 -0.0964 -0.3859
 1007MOL0     O38864   2.065   4.708   3.096  0.2472  0.0892 -0.5005
 1007MOL0     C38865   1.945   4.749   3.023 -0.3199 -0.9582 -0.2032
 1007MOL0     C38866   1.833   4.644   3.018 -0.5183 -0.3938 -0.0861
 1007MOL0     C38867   1.792   4.625   3.169  0.2032 -0.1753 -0.0659
 1007MOL0     C38868   1.681   4.531   3.184  0.0484 -0.1111  0.7736
 1007MOL0     C38869   1.632   4.525   3.324 -0.0961 -0.4363 -0.6875
 1007MOL0     C38870   1.502   4.452   3.324  1.1558  1.1595  0.8703
 1007MOL0     C38871   1.464   4.377   3.453 -0.6013 -0.2145  0.9297
 1007MOL0     C38872   1.394   4.468   3.555  0.8603 -0.1474 -0.4985
 1007MOL0    Cl38873   1.504   4.586   3.625 -0.0706 -0.3988  0.2682
 1007MOL0     C38874   2.211   4.857   2.964 -0.8374 -0.2283  0.1814
 1007MOL0     C38875   2.338   4.922   2.961  0.6827 -1.1521 -0.4362
 1007MOL0     O38876   2.682   4.823   3.067  0.8341  0.4282  0.4541
 1007MOL0     C38877   2.748   5.163   3.090 -0.5760 -0.2308  0.8761
 1007MOL0     C38878   2.840   5.271   3.074  1.1737  1.0541  0.0280
 1007MOL0     N38879   3.131   5.930   3.089  0.0532  0.3639 -0.0441
 1007MOL0     N38880   3.162   6.052   3.112  0.0542 -0.6450  0.6858
 1007MOL0     C38881   3.114   7.002   3.650  0.7482  0.2350  0.5218
 1007MOL0     C38882   3.110   7.067   3.771 -1.1455  0.1712  0.0118
 1007MOL0     C38883   3.132   7.430   4.046 -0.6310 -0.5125  0.4006
 1007MOL0     C38884   3.198   7.366   4.156 -0.1837  0.5754 -0.3357
 1007MOL0     C38885   3.199   7.428   4.287 -0.1401  0.0670  0.4340
 1007MOL0     C38886   3.167   7.561   4.304  0.9165  1.8814  0.4494
 1007MOL0     O38887   3.180   7.614   4.426  0.3289 -0.1593 -0.2299
 1007MOL0     C38888   3.290   7.703   4.442 -0.2406  0.2897 -0.0385
 1007MOL0     C38889   3.425   7.630   4.441  0.8624  0.5529  0.0669
 1007MOL0     C38890   3.432   7.538   4.564  0.3111  0.0739 -0.1171
 1007MOL0     C38891   3.529   7.422   4.545  0.6817  0.7538  0.3994
 1007MOL0     C38892   3.526   7.339   4.658 -0.0702 -0.7165 -1.0234
 1007MOL0     C38893   3.522   7.259   4.749  0.2438  0.2493  0.1849
 1007MOL0     C38894   3.099   7.620   4.199 -0.2173 -0.3333  0.9394
 1007MOL0     C38895   3.072   7.563   4.067 -0.8267  0.5220  0.7431
 1007MOL0     C38896   3.009   7.649   3.960 -0.1696  0.5778  0.3003
 1007MOL0     H38897   3.368   7.280   3.704 -0.6108 -0.1601  0.0210
 1007MOL0     H38898   3.376   7.162   3.502 -2.6858  0.5424 -2.3448
 1007MOL0     H38899   3.386   6.919   3.326 -1.0223 -1.6187  0.4335
 1007MOL0     H38900   3.325   7.082   3.298  0.8856 -0.6002 -0.1283
 1007MOL0     H38901   3.135   6.976   3.139 -0.9832 -1.2174 -1.4340
 1007MOL0     H38902   3.304   6.995   3.093 -1.5535 -0.6289 -1.5068
 1007MOL0     H38903   3.346   6.760   3.172  0.3673  0.8098  0.2918
 1007MOL0     H38904   3.172   6.746   3.197  2.3143 -2.6871 -0.7227
 1007MOL0     H38905   3.178   6.848   2.945  2.6768  0.3396 -4.6362
 1007MOL0     H38906   3.335   6.785   2.943 -0.3540 -3.2998 -1.4110
 1007MOL0     H38907   3.175   6.618   2.835 -3.0918  0.7485 -0.6822
 1007MOL0     H38908   3.093   6.608   2.997  1.1826  0.8295  1.9716
 1007MOL0     H38909   3.354   6.478   2.915  1.1034 -2.4801  0.9276
 1007MOL0     H38910   3.323   6.519   3.082  2.8393  3.4366 -0.4911
 1007MOL0     H38911   3.118   6.371   2.890  0.2223 -1.7596 -0.1825
 1007MOL0     H38912   3.117   6.360   3.064  1.8547  0.8343  1.4244
 1007MOL0     H38913   3.317   6.239   2.869 -1.6466  4.3059 -0.5506
 1007MOL0     H38914   3.342   6.241   3.048  1.9124  2.2782 -1.7559
 1007MOL0     H38915   3.176   6.043   2.783 -0.9947 -0.1505 -0.2905
 1007MOL0     H38916   3.156   5.700   2.909 -1.2766  0.2256  1.6486
 1007MOL0     H38917   3.068   5.792   2.782 -1.1443  3.5281 -0.5060
 1007MOL0     H38918   2.956   5.752   3.050  0.8824  2.2561 -0.9058
 1007MOL0     H38919   2.866   5.764   2.890 -0.5126  0.0655  0.9087
 1007MOL0     H38920   2.840   5.533   2.951  0.1688  1.0095 -0.4447
 1007MOL0     H38921   2.954   5.543   2.827 -0.9384 -0.7905 -0.4094
 1007MOL0     H38922   3.143   5.521   3.007 -1.0764  1.9024  1.6910
 1007MOL0     H38923   3.010   5.487   3.117 -0.8244  1.2942 -0.7439
 1007MOL0     H38924   3.069   5.103   2.892 -0.2877  0.3227 -0.3785
 1007MOL0     H38925   2.970   4.821   2.974  3.6299  1.5704 -1.4695
 1007MOL0     H38926   2.988   4.891   2.821  0.4674  3.1065  0.2586
 1007MOL0     H38927   2.827   4.825   2.870 -2.1570  0.1064  3.3444
 1007MOL0     H38928   2.445   4.823   3.274  0.3596 -3.0171 -0.6006
 1007MOL0     H38929   2.235   4.718   3.282 -1.0611 -0.3186  0.8016
 1007MOL0     H38930   1.916   4.850   3.051 -1.2410 -0.5799 -2.3484
 1007MOL0     H38931   1.963   4.775   2.918 -2.0997  1.3190 -0.0076
 1007MOL0     H38932   1.752   4.678   2.954  0.6041 -0.1360 -1.4281
 1007MOL0     H38933   1.868   4.546   2.982 -0.7671 -0.8156  0.8073
 1007MOL0     H38934   1.754   4.722   3.201  1.9075  0.6800 -0.5293
 1007MOL0     H38935   1.874   4.593   3.235 -1.7204 -1.2394  1.9756
 1007MOL0     H38936   1.705   4.431   3.146 -0.6603  1.3200 -4.1529
 1007MOL0     H38937   1.601   4.556   3.113  2.1141  1.6468 -1.0998
 1007MOL0     H38938   1.718   4.486   3.381  3.0555  0.7714 -4.1889
 1007MOL0     H38939   1.613   4.627   3.357 -1.5219 -0.3609 -1.6788
 1007MOL0     H38940   1.497   4.393   3.231  1.1013  1.0227  0.9589
 1007MOL0     H38941   1.423   4.525   3.306 -1.3807 -1.4834  0.6232
 1007MOL0     H38942   1.547   4.327   3.502 -3.0535 -3.9304  1.6813
 1007MOL0     H38943   1.389   4.302   3.426 -0.3182 -0.0295 -0.4403
 1007MOL0     H38944   1.350   4.401   3.630  0.1024  1.5813  0.6517
 1007MOL0     H38945   1.307   4.522   3.518  1.7038  2.1075  0.6134
 1007MOL0     H38946   2.131   4.878   2.894  0.0565  2.4437 -0.1287
 1007MOL0     H38947   2.357   4.993   2.881  0.7728  0.1307  0.6923
 1007MOL0     H38948   2.658   5.185   3.146  0.2146  3.3278  0.9975
 1007MOL0     H38949   2.819   5.367   3.119  0.6650  1.2934 -0.7144
 1007MOL0     H38950   3.045   6.919   3.635 -0.6957  1.2927  1.0334
 1007MOL0     H38951   3.055   7.014   3.848 -3.4827  0.2017 -1.5555
 1007MOL0     H38952   3.237   7.265   4.144  1.3407  1.0372  0.4327
 1007MOL0     H38953   3.245   7.374   4.369 -0.5299 -1.8128 -0.5187
 1007MOL0     H38954   3.293   7.787   4.372 -2.5190 -0.0435 -0.6072
 1007MOL0     H38955   3.270   7.744   4.542 -0.0751  0.5913 -0.1288
 1007MOL0     H38956   3.497   7.711   4.435 -1.2338  2.6593  1.3042
 1007MOL0     H38957   3.439   7.567   4.353  3.6529  2.9855 -1.3722
 1007MOL0     H38958   3.466   7.591   4.654 -1.5128 -1.0168  1.3025
 1007MOL0     H38959   3.339   7.483   4.583  0.8908  0.1930  4.2383
 1007MOL0     H38960   3.628   7.464   4.525  0.3455  0.1817 -2.9283
 1007MOL0     H38961   3.505   7.354   4.463  0.7214  0.2095  0.8302
 1007MOL0     H38962   3.522   7.187   4.829  0.2786 -3.0853 -2.5686
 1007MOL0     H38963   3.067   7.724   4.198 -1.5815 -0.4784 -4.6338
 1007MOL0     H38964   2.943   7.585   3.901  0.7657 -1.4257  1.3428
 1007MOL0     H38965   2.948   7.730   4.003 -0.4694  0.6859 -0.3086
 1007MOL0     H38966   3.089   7.692   3.899  0.1802  0.2872  0.5501
 1008MOL0     O38967   5.245   7.491   3.651 -0.0685 -0.3443 -0.5358
 1008MOL0     C38968   5.193   7.414   3.734  1.2785  0.1736  0.5609
 1008MOL0     O38969   5.254   7.370   3.844  0.0292 -1.2704  0.5897
 1008MOL0     C38970   5.353   7.442   3.894 -0.3672 -0.3596 -0.3792
 1008MOL0     C38971   5.489   7.422   3.868  0.2789  0.3779  1.1163
 1008MOL0     C38972   5.594   7.498   3.929 -0.5978  0.0250 -1.1530
 1008MOL0     C38973   5.554   7.582   4.036  0.3198  0.2982 -0.6570
 1008MOL0     O38974   5.656   7.655   4.105  0.9497 -0.2691 -0.1291
 1008MOL0     C38975   5.678   7.617   4.239 -0.4143  0.4763 -0.5354
 1008MOL0     C38976   5.776   7.713   4.313  0.2051 -0.0661  0.4289
 1008MOL0     C38977   5.758   7.867   4.277 -0.2333  0.5973 -0.7681
 1008MOL0     C38978   5.803   7.952   4.401  0.7099  0.6914  0.2205
 1008MOL0     C38979   5.829   8.102   4.384  0.8720 -0.1432 -0.0975
 1008MOL0     C38980   5.855   8.179   4.528 -0.5809  0.9862  0.3736
 1008MOL0     C38981   5.727   8.175   4.621  0.4603 -0.6345  0.1461
 1008MOL0     C38982   5.604   8.266   4.577 -0.8948 -0.2687 -0.1059
 1008MOL0     N38983   5.646   8.401   4.557  0.2114  0.4794  0.7450
 1008MOL0     C38984   5.706   8.474   4.658 -0.2591 -0.5505  0.6272
 1008MOL0     C38985   5.776   8.562   4.591 -0.0451  0.3543 -0.3008
 1008MOL0     C38986   5.862   8.666   4.651  0.3357 -0.1065 -0.0262
 1008MOL0     C38987   5.787   8.790   4.704  0.3660 -0.3324  0.4185
 1008MOL0     C38988   5.878   8.903   4.756 -0.5851  0.2768  0.0032
 1008MOL0     C38989   5.962   8.979   4.653 -0.0541 -0.7076  0.1116
 1008MOL0     O38990   6.097   8.914   4.622 -0.5890  0.2744 -0.5048
 1008MOL0     C38991   6.120   8.906   4.481  0.6549 -1.0360  1.3217
 1008MOL0     C38992   6.244   8.918   4.434 -0.1191 -0.1511  0.2254
 1008MOL0     C38993   6.285   8.891   4.307  0.0251  0.1725  0.5117
 1008MOL0     C38994   6.424   8.932   4.266  0.3673  0.2325 -0.4298
 1008MOL0     C38995   6.186   8.837   4.221 -0.2487  0.2663  0.1216
 1008MOL0     C38996   6.201   8.791   4.085 -0.1001 -0.2251 -0.8000
 1008MOL0     O38997   6.097   8.805   3.996 -0.3339 -0.1670  0.1965
 1008MOL0     C38998   6.126   8.758   3.873 -0.2250 -0.0861  0.3673
 1008MOL0     C38999   6.157   8.844   3.773 -0.1645  0.1083 -0.3263
 1008MOL0     C39000   6.168   8.797   3.646  0.2198  0.5100  0.5501
 1008MOL0     C39001   6.147   8.669   3.612  0.8073  0.3426  0.4985
 1008MOL0     O39002   6.162   8.634   3.477 -0.0786 -0.0021  0.1175
 1008MOL0     C39003   6.033   8.639   3.411  0.1328 -0.0427  0.1448
 1008MOL0     C39004   6.033   8.711   3.274  0.1524  0.8657  0.0791
 1008MOL0     C39005   5.976   8.857   3.269  0.2572 -1.3931  0.1490
 1008MOL0     C39006   5.824   8.852   3.292 -0.3411  0.0570 -0.5283
 1008MOL0     C39007   5.765   8.989   3.311  0.5916 -0.1747 -0.8560
 1008MOL0     C39008   5.786   9.046   3.445  0.6410  0.0779  0.7423
 1008MOL0     C39009   5.900   9.158   3.449  0.0882  0.3707  0.1360
 1008MOL0     C39010   5.888   9.238   3.574 -0.1450  0.6545 -0.9667
 1008MOL0    Cl39011   5.916   9.138   3.726  0.1991 -0.2898  0.1523
 1008MOL0     C39012   6.114   8.573   3.709  1.0488  0.0995 -0.7042
 1008MOL0     C39013   6.084   8.624   3.842  0.4486  0.7050 -0.7828
 1008MOL0     O39014   6.316   8.746   4.064  0.6968  0.2311 -0.4650
 1008MOL0     C39015   6.056   8.825   4.259  0.1433  0.1690 -0.0433
 1008MOL0     C39016   6.025   8.847   4.395  0.3058 -0.6828  0.7049
 1008MOL0     N39017   5.753   8.546   4.458  0.0849 -0.1040 -0.3253
 1008MOL0     N39018   5.671   8.449   4.434 -0.6076  0.3930  0.1746
 1008MOL0     C39019   5.418   7.603   4.060 -0.5621  0.1199 -0.2943
 1008MOL0     C39020   5.319   7.542   3.985  0.5095  0.9278  0.7121
 1008MOL0     C39021   5.050   7.357   3.723  0.4833  0.5635  0.5003
 1008MOL0     C39022   5.019   7.237   3.786  0.6651  0.8601 -0.3526
 1008MOL0     C39023   4.900   7.176   3.752 -1.6073  0.1655  0.1660
 1008MOL0     C39024   4.804   7.244   3.678 -0.2371 -0.6404 -0.0247
 1008MOL0     O39025   4.685   7.181   3.682  0.3068 -0.4144 -0.3088
 1008MOL0     C39026   4.561   7.263   3.694  0.2499 -0.4761 -0.5221
 1008MOL0     C39027   4.475   7.251   3.562  0.5680  0.6034 -0.7602
 1008MOL0     C39028   4.363   7.351   3.549  0.4119 -0.0846 -0.4134
 1008MOL0     C39029   4.282   7.330   3.425  0.5320  0.3005  0.3647
 1008MOL0     C39030   4.207   7.454   3.404 -0.0424  0.8420 -0.6093
 1008MOL0     C39031   4.157   7.562   3.382  0.1822  0.4130  0.4346
 1008MOL0     C39032   4.832   7.365   3.617 -0.8200  0.5349 -0.6403
 1008MOL0     C39033   4.960   7.414   3.627 -0.1018  0.5087 -0.2009
 1008MOL0     C39034   4.985   7.545   3.557  0.9087  0.0876 -0.0573
 1008MOL0     H39035   5.512   7.346   3.793  1.6068  3.1324 -1.4858
 1008MOL0     H39036   5.695   7.479   3.895 -0.2445  1.1581 -0.7881
 1008MOL0     H39037   5.708   7.513   4.250 -0.7904  0.5425  1.5606
 1008MOL0     H39038   5.582   7.626   4.291 -0.3176 -1.7304  0.1325
 1008MOL0     H39039   5.758   7.702   4.420 -2.0376  2.0895  0.3630
 1008MOL0     H39040   5.880   7.689   4.287  0.9952  0.0941  3.1243
 1008MOL0     H39041   5.824   7.903   4.198  1.1444  0.3266  0.2362
 1008MOL0     H39042   5.655   7.881   4.240 -0.1877 -2.6270 -2.4717
 1008MOL0     H39043   5.733   7.936   4.483  1.1166  1.5833  0.7534
 1008MOL0     H39044   5.902   7.915   4.430  0.1714  0.8786  2.4438
 1008MOL0     H39045   5.749   8.154   4.330  1.1331  0.1236 -0.2314
 1008MOL0     H39046   5.920   8.120   4.327  0.2220  1.0325 -0.7949
 1008MOL0     H39047   5.936   8.120   4.571  0.1390 -0.3722 -2.5853
 1008MOL0     H39048   5.878   8.286   4.521  0.5393  0.9234  2.3344
 1008MOL0     H39049   5.752   8.199   4.725 -1.3187  1.7557  0.0970
 1008MOL0     H39050   5.685   8.075   4.636  0.1188 -1.3701 -4.3348
 1008MOL0     H39051   5.573   8.207   4.490  1.5241  0.0276 -1.2500
 1008MOL0     H39052   5.526   8.265   4.653 -1.8179  2.3652 -0.9049
 1008MOL0     H39053   5.690   8.456   4.763 -2.8800  0.9345  0.5464
 1008MOL0     H39054   5.950   8.685   4.589 -1.1120 -0.5236 -2.3004
 1008MOL0     H39055   5.891   8.613   4.743 -0.4389 -2.0410 -0.8467
 1008MOL0     H39056   5.723   8.837   4.629  0.1364 -1.3840 -0.0517
 1008MOL0     H39057   5.723   8.756   4.786 -3.0693  2.5615 -0.8034
 1008MOL0     H39058   5.812   8.980   4.796  0.3793  1.0334  0.1799
 1008MOL0     H39059   5.942   8.868   4.838  1.6045 -0.4349 -1.8799
 1008MOL0     H39060   5.898   8.992   4.565 -0.6998  2.2445  0.9168
 1008MOL0     H39061   5.986   9.079   4.690 -2.0894 -0.2925  0.4309
 1008MOL0     H39062   6.320   8.965   4.496 -1.2953  3.5875 -0.9090
 1008MOL0     H39063   6.472   8.854   4.206 -0.7242  1.4163 -3.0105
 1008MOL0     H39064   6.483   8.947   4.357 -0.7868  0.1888  0.3378
 1008MOL0     H39065   6.423   9.023   4.206  1.7966  0.7776  0.3260
 1008MOL0     H39066   6.172   8.949   3.795 -0.6466  0.3504 -1.1207
 1008MOL0     H39067   6.203   8.873   3.577 -1.6087  0.6724 -0.2548
 1008MOL0     H39068   6.009   8.534   3.389 -0.6578  0.0250  0.6494
 1008MOL0     H39069   5.945   8.672   3.466 -0.2369  0.5408 -0.7705
 1008MOL0     H39070   6.137   8.715   3.240 -0.8455 -0.5160 -3.7420
 1008MOL0     H39071   5.990   8.639   3.203  1.9497 -1.7076  1.4603
 1008MOL0     H39072   5.999   8.908   3.174  0.4395 -2.5713 -0.4560
 1008MOL0     H39073   6.032   8.918   3.340  1.2137 -2.4212  0.3066
 1008MOL0     H39074   5.786   8.792   3.375 -1.3155  0.5397 -0.6212
 1008MOL0     H39075   5.776   8.810   3.204  2.2739 -1.5497 -1.3056
 1008MOL0     H39076   5.788   9.045   3.221  0.1421 -1.3525 -1.7418
 1008MOL0     H39077   5.658   8.965   3.318  0.5636 -0.0821 -0.9715
 1008MOL0     H39078   5.810   8.974   3.524 -0.0351  0.0999  0.9768
 1008MOL0     H39079   5.695   9.096   3.480 -0.7296 -1.0465 -1.0561
 1008MOL0     H39080   5.895   9.224   3.362  1.5659  0.8173  0.3696
 1008MOL0     H39081   6.000   9.113   3.445 -0.2216 -0.2665 -2.7883
 1008MOL0     H39082   5.784   9.272   3.576 -0.8071 -1.2686  0.1581
 1008MOL0     H39083   5.945   9.331   3.575  0.6616  0.3548  4.2374
 1008MOL0     H39084   6.105   8.465   3.700  1.4523  0.0641 -0.7192
 1008MOL0     H39085   6.065   8.553   3.921  0.6705 -2.4188 -3.3283
 1008MOL0     H39086   5.979   8.777   4.200 -0.6067  0.3540  0.7579
 1008MOL0     H39087   5.924   8.840   4.434 -0.2675 -0.3010 -0.6554
 1008MOL0     H39088   5.400   7.685   4.129 -0.8106 -0.5463  0.4507
 1008MOL0     H39089   5.215   7.540   4.014  0.2683 -0.9897 -0.1451
 1008MOL0     H39090   5.084   7.184   3.856  0.0152 -2.2508 -1.9296
 1008MOL0     H39091   4.872   7.082   3.797 -1.0261  1.6824  4.0196
 1008MOL0     H39092   4.497   7.232   3.778  2.6490 -3.3462  0.4442
 1008MOL0     H39093   4.588   7.367   3.712  1.5893 -0.6568 -1.3809
 1008MOL0     H39094   4.434   7.150   3.556  2.6605 -0.4389  1.2920
 1008MOL0     H39095   4.546   7.263   3.480  3.5612 -0.2240  1.5205
 1008MOL0     H39096   4.283   7.343   3.624 -1.8092 -4.0308 -2.7971
 1008MOL0     H39097   4.411   7.449   3.549 -2.7435  1.6456  1.1345
 1008MOL0     H39098   4.215   7.243   3.421  1.6073 -0.4811 -2.1360
 1008MOL0     H39099   4.348   7.311   3.340 -0.0673  0.2318 -0.0944
 1008MOL0     H39100   4.128   7.664   3.369  0.7330  0.5584  0.3647
 1008MOL0     H39101   4.757   7.430   3.573 -0.5408 -0.4592 -2.6813
 1008MOL0     H39102   4.898   7.606   3.529  2.3402  1.2987 -2.1623
 1008MOL0     H39103   5.030   7.624   3.618 -3.1433  0.7627  2.4963
 1008MOL0     H39104   5.039   7.525   3.464  1.5593 -0.1961  0.3780
 1009MOL0     O39105   3.683   8.754   5.860  0.0317 -0.1639 -0.5260
 1009MOL0     C39106   3.762   8.831   5.796 -1.0393  0.0933  0.0749
 1009MOL0     O39107   3.878   8.799   5.736 -0.9740 -0.6474  0.6284
 1009MOL0     C39108   3.913   8.675   5.698  0.9448 -0.1227 -0.2406
 1009MOL0     C39109   3.830   8.573   5.654 -0.1728 -0.9181  0.4252
 1009MOL0     C39110   3.878   8.453   5.604 -0.6570 -0.8175 -0.3974
 1009MOL0     C39111   4.016   8.417   5.630 -0.3609 -0.2827 -0.2879
 1009MOL0     O39112   4.075   8.299   5.595 -0.4538  0.3395 -0.0022
 1009MOL0     C39113   4.032   8.234   5.472  0.2078  0.8557  0.0802
 1009MOL0     C39114   4.096   8.107   5.448  0.0066  0.2040 -0.0130
 1009MOL0     C39115   4.070   8.016   5.576 -0.3752 -0.4829 -0.1230
 1009MOL0     C39116   4.082   7.866   5.549 -0.0117 -0.5393  0.0003
 1009MOL0     C39117   4.088   7.792   5.686  0.4354  1.0989 -0.8067
 1009MOL0     C39118   4.214   7.819   5.772  0.8377 -0.3038 -0.2844
 1009MOL0     C39119   4.350   7.774   5.710  0.4300 -0.0023 -0.4271
 1009MOL0     C39120   4.448   7.851   5.794 -0.1735 -0.4989  0.1745
 1009MOL0     N39121   4.468   7.996   5.756  0.0810  0.5878 -0.0195
 1009MOL0     C39122   4.525   8.064   5.647  0.3120 -0.5912 -0.0299
 1009MOL0     C39123   4.519   8.190   5.678 -0.1708 -0.2578 -0.8224
 1009MOL0     C39124   4.586   8.297   5.588 -1.1326  0.0063 -0.6974
 1009MOL0     C39125   4.508   8.311   5.465 -0.1116  0.4733  0.2337
 1009MOL0     C39126   4.381   8.397   5.478  0.5476 -0.1874  0.0605
 1009MOL0     C39127   4.310   8.418   5.348 -0.3201  0.2699  0.3091
 1009MOL0     O39128   4.395   8.467   5.248 -0.4520 -1.0321  0.2915
 1009MOL0     C39129   4.391   8.418   5.114 -0.4616  0.2094 -0.5662
 1009MOL0     C39130   4.513   8.378   5.068 -0.4295  0.4804  0.3506
 1009MOL0     C39131   4.523   8.337   4.936  1.0631  0.0144 -0.1806
 1009MOL0     C39132   4.648   8.271   4.902  0.5272  0.1637  0.2537
 1009MOL0     C39133   4.407   8.360   4.849 -0.1247  0.1931  0.1396
 1009MOL0     C39134   4.401   8.325   4.705 -0.4232 -0.7489  0.1508
 1009MOL0     O39135   4.307   8.402   4.636 -0.0948 -0.1046  0.3432
 1009MOL0     C39136   4.272   8.371   4.505  0.3595 -0.9155 -0.1338
 1009MOL0     C39137   4.368   8.349   4.404 -0.2155 -0.0031  0.1774
 1009MOL0     C39138   4.326   8.299   4.276 -0.7482  0.3382 -0.4081
 1009MOL0     C39139   4.189   8.290   4.245  0.5399 -0.3438  0.8336
 1009MOL0     O39140   4.145   8.257   4.119  0.3644 -0.3708 -0.2377
 1009MOL0     C39141   4.024   8.310   4.078 -0.2544 -0.5425 -0.6125
 1009MOL0     C39142   4.013   8.299   3.925 -0.2859  1.1100 -0.0737
 1009MOL0     C39143   4.131   8.353   3.848 -0.6639 -0.5345 -0.3573
 1009MOL0     C39144   4.086   8.391   3.704  0.3705  0.1553  0.3672
 1009MOL0     C39145   4.190   8.439   3.604 -0.8003  1.2173 -0.5970
 1009MOL0     C39146   4.292   8.328   3.578  1.5194  0.7242 -0.3117
 1009MOL0     C39147   4.400   8.382   3.492  0.1974 -0.6544  1.1164
 1009MOL0     C39148   4.529   8.291   3.482 -0.3774 -0.3774  0.6742
 1009MOL0    Cl39149   4.599   8.279   3.647 -0.5246  0.0018 -0.3727
 1009MOL0     C39150   4.098   8.321   4.353 -0.2929 -0.6784  0.2771
 1009MOL0     C39151   4.143   8.368   4.476 -0.5862 -0.2150 -0.1349
 1009MOL0     O39152   4.487   8.254   4.657 -0.1479 -0.2624 -0.4441
 1009MOL0     C39153   4.282   8.402   4.905 -0.5342  0.5524 -0.3329
 1009MOL0     C39154   4.278   8.436   5.037 -0.1171  0.0180  0.6328
 1009MOL0     N39155   4.459   8.212   5.803  0.6976  0.7322  1.0648
 1009MOL0     N39156   4.422   8.093   5.845  0.1622 -0.2483  0.2602
 1009MOL0     C39157   4.097   8.515   5.681  0.1959 -0.0824 -0.2323
 1009MOL0     C39158   4.045   8.640   5.716 -0.7597  0.3493 -0.3397
 1009MOL0     C39159   3.726   8.985   5.785  0.4644  1.0613  0.7854
 1009MOL0     C39160   3.830   9.079   5.817  0.4308 -0.2857  0.5174
 1009MOL0     C39161   3.804   9.220   5.806  0.1301 -0.1834 -0.7159
 1009MOL0     C39162   3.682   9.258   5.751 -0.5611 -0.7947  0.0899
 1009MOL0     O39163   3.643   9.390   5.724 -0.7341 -0.4244 -0.5754
 1009MOL0     C39164   3.725   9.496   5.769 -0.1026 -0.6379  0.5124
 1009MOL0     C39165   3.658   9.621   5.709  0.8486 -0.4772  0.2588
 1009MOL0     C39166   3.540   9.679   5.795 -0.1805  0.5680 -0.4841
 1009MOL0     C39167   3.414   9.606   5.768  1.3131 -0.3183 -0.3335
 1009MOL0     C39168   3.296   9.656   5.845  0.3271 -0.6685  0.4184
 1009MOL0     C39169   3.200   9.680   5.913 -0.0804  0.6630 -0.4496
 1009MOL0     C39170   3.584   9.164   5.728 -0.0706 -0.6234 -0.5793
 1009MOL0     C39171   3.604   9.025   5.743  0.2601 -0.1479 -0.9089
 1009MOL0     C39172   3.483   8.936   5.713  0.8184  0.2070  0.7150
 1009MOL0     H39173   3.723   8.583   5.646 -0.3184  0.7260  3.1260
 1009MOL0     H39174   3.818   8.372   5.563 -0.0166 -0.4246 -2.1986
 1009MOL0     H39175   4.058   8.304   5.393  2.8401 -0.9100 -0.7361
 1009MOL0     H39176   3.924   8.228   5.457  0.0410  1.8020  0.8059
 1009MOL0     H39177   4.056   8.058   5.358  0.2892  1.3829 -0.8021
 1009MOL0     H39178   4.202   8.129   5.434  0.0290 -0.6462 -1.3747
 1009MOL0     H39179   4.133   8.051   5.658 -1.0037  0.5215 -0.0476
 1009MOL0     H39180   3.968   8.038   5.611  0.5595  3.1323  0.7708
 1009MOL0     H39181   3.991   7.848   5.490  2.1700 -3.5142 -2.8138
 1009MOL0     H39182   4.168   7.848   5.484 -1.3748 -2.5244 -1.3887
 1009MOL0     H39183   4.086   7.685   5.665  0.5932  0.9986 -0.3235
 1009MOL0     H39184   3.998   7.824   5.739  0.2781 -4.1082  2.7474
 1009MOL0     H39185   4.219   7.927   5.789  0.5883  0.1992 -2.8991
 1009MOL0     H39186   4.203   7.754   5.859  2.4426 -2.1710 -1.3851
 1009MOL0     H39187   4.359   7.810   5.607 -1.3893 -1.3866 -1.1267
 1009MOL0     H39188   4.360   7.666   5.721  2.1082  0.1557 -0.1274
 1009MOL0     H39189   4.433   7.832   5.900 -1.1830 -3.1050 -0.3666
 1009MOL0     H39190   4.546   7.814   5.763 -1.5266 -2.1228 -2.6080
 1009MOL0     H39191   4.573   8.019   5.561  1.2437  2.3119 -1.1464
 1009MOL0     H39192   4.692   8.271   5.576 -0.5859  0.7819  1.8802
 1009MOL0     H39193   4.590   8.386   5.653  1.7730 -1.8668  2.0147
 1009MOL0     H39194   4.566   8.356   5.384  1.0592 -0.0850  0.7465
 1009MOL0     H39195   4.484   8.209   5.433  0.0263  0.6601 -0.4989
 1009MOL0     H39196   4.310   8.360   5.553  1.5149 -0.9714  0.6120
 1009MOL0     H39197   4.405   8.494   5.524  1.0245  0.2738 -1.1050
 1009MOL0     H39198   4.268   8.328   5.303 -1.8060  0.5845  1.0157
 1009MOL0     H39199   4.229   8.489   5.364 -0.1619  0.7080 -0.7407
 1009MOL0     H39200   4.598   8.383   5.135 -1.5855 -0.6098  1.9578
 1009MOL0     H39201   4.704   8.350   4.850 -0.6077  1.8179  1.4453
 1009MOL0     H39202   4.640   8.178   4.844 -1.2888  0.0373  0.6382
 1009MOL0     H39203   4.701   8.240   4.992 -1.9516  1.0267  2.1171
 1009MOL0     H39204   4.473   8.359   4.428  0.1692  2.7161 -2.2319
 1009MOL0     H39205   4.399   8.291   4.197 -1.1894  1.5499 -0.9723
 1009MOL0     H39206   3.935   8.263   4.121 -0.7842  1.5755  0.8041
 1009MOL0     H39207   4.011   8.413   4.114  0.4352  0.3004 -2.6421
 1009MOL0     H39208   3.995   8.195   3.899 -0.3827  0.5391  2.0516
 1009MOL0     H39209   3.931   8.359   3.885 -1.0722 -0.8440 -1.5063
 1009MOL0     H39210   4.220   8.290   3.839  2.2479  3.2380 -1.0295
 1009MOL0     H39211   4.169   8.445   3.894 -1.2789  2.1306 -4.5853
 1009MOL0     H39212   4.014   8.473   3.714  0.5584  0.4416 -0.5255
 1009MOL0     H39213   4.024   8.313   3.660  0.4417  0.7928 -0.9305
 1009MOL0     H39214   4.135   8.456   3.512 -1.2754  0.5612 -0.4374
 1009MOL0     H39215   4.236   8.530   3.646 -1.2498  2.2319 -2.2276
 1009MOL0     H39216   4.235   8.255   3.519 -0.9966  1.8901  0.5309
 1009MOL0     H39217   4.330   8.283   3.670 -0.1569  0.3233  0.2370
 1009MOL0     H39218   4.421   8.483   3.528 -0.4814  0.8875 -2.3893
 1009MOL0     H39219   4.365   8.400   3.390  3.9755 -1.9444 -0.6098
 1009MOL0     H39220   4.602   8.333   3.412  1.3995 -0.7324  2.2248
 1009MOL0     H39221   4.495   8.195   3.442 -3.0879  1.0845 -0.8761
 1009MOL0     H39222   3.993   8.309   4.330 -0.2511  0.6439 -0.7564
 1009MOL0     H39223   4.072   8.379   4.558 -1.7430 -2.7435 -0.6996
 1009MOL0     H39224   4.188   8.414   4.852 -2.5854 -1.0382  2.6342
 1009MOL0     H39225   4.182   8.460   5.082  0.8534 -1.6221  3.9069
 1009MOL0     H39226   4.203   8.496   5.692 -0.1808 -2.0017  0.4061
 1009MOL0     H39227   4.123   8.706   5.752 -1.5441 -0.4427  3.3002
 1009MOL0     H39228   3.930   9.051   5.848 -0.1793 -2.2476  0.8575
 1009MOL0     H39229   3.881   9.292   5.829  0.4688  0.0182 -2.3739
 1009MOL0     H39230   3.734   9.502   5.878  1.2774  0.3919  0.3577
 1009MOL0     H39231   3.825   9.491   5.724  0.1988  1.0414  0.9237
 1009MOL0     H39232   3.631   9.600   5.605 -1.0227 -0.5614  0.7416
 1009MOL0     H39233   3.732   9.702   5.704 -0.4309  0.8306 -5.7145
 1009MOL0     H39234   3.568   9.689   5.900  1.4419  1.7156 -0.9809
 1009MOL0     H39235   3.534   9.786   5.773  1.0493  1.2865  2.2621
 1009MOL0     H39236   3.413   9.502   5.802 -1.3994  0.2562  1.7260
 1009MOL0     H39237   3.406   9.612   5.659  0.5729 -4.1914 -0.6477
 1009MOL0     H39238   3.119   9.705   5.979  1.5196  2.3495  0.9996
 1009MOL0     H39239   3.486   9.204   5.703  1.6185  1.3981 -4.8457
 1009MOL0     H39240   3.404   8.942   5.788 -0.7054  0.2472 -0.8380
 1009MOL0     H39241   3.440   8.984   5.625 -0.6335  0.6012  1.6213
 1009MOL0     H39242   3.514   8.837   5.678  0.5204  0.8547 -1.5106
 1010MOL0     O39243   9.614   1.068   5.645 -0.1604  0.8444 -0.2327
 1010MOL0     C39244   9.576   1.129   5.748 -0.2859 -0.5086 -0.0160
 1010MOL0     O39245   9.512   1.070   5.863 -0.9628  0.0606  0.2247
 1010MOL0     C39246   9.511   0.934   5.847 -0.3952 -0.7429 -0.4472
 1010MOL0     C39247   9.422   0.866   5.774  0.3905  0.1375 -0.0553
 1010MOL0     C39248   9.429   0.727   5.767 -0.8540 -0.1400 -0.1139
 1010MOL0     C39249   9.533   0.659   5.835 -0.7103  0.1009  0.1449
 1010MOL0     O39250   9.535   0.525   5.836  0.2594  0.3830  0.7535
 1010MOL0     C39251   9.624   0.467   5.740 -0.5012 -0.3389  0.7504
 1010MOL0     C39252   9.646   0.313   5.776 -0.2682 -0.2991  0.8586
 1010MOL0     C39253   9.763   0.251   5.704 -0.4460 -0.4041 -0.2511
 1010MOL0     C39254   9.790   0.302   5.558 -0.4228  0.2024 -0.9522
 1010MOL0     C39255   9.910   0.223   5.497  0.4673 -0.0972 -0.1326
 1010MOL0     C39256   9.923   0.255   5.346 -0.7257  0.3045 -0.4104
 1010MOL0     C39257  10.037   0.184   5.273  0.7038 -0.2541  0.5697
 1010MOL0     C39258  10.023   0.198   5.118 -0.1117 -0.6433  1.1361
 1010MOL0     N39259  10.035   0.345   5.090  0.7134 -0.0271 -0.2722
 1010MOL0     C39260  10.150   0.411   5.073 -0.0272  0.2679 -0.5572
 1010MOL0     C39261  10.113   0.529   5.034  0.7268  0.4990 -0.0641
 1010MOL0     C39262  10.214   0.634   5.003  0.8125 -0.0784  0.6175
 1010MOL0     C39263  10.191   0.699   4.862 -0.0545  0.7605  0.2027
 1010MOL0     C39264  10.313   0.765   4.797 -0.0895 -0.1667 -0.4864
 1010MOL0     C39265  10.412   0.666   4.729 -0.6204  0.4468 -0.2845
 1010MOL0     O39266  10.373   0.612   4.608  0.7493 -0.5594 -0.0572
 1010MOL0     C39267  10.454   0.614   4.509  0.4698  0.0635  0.8601
 1010MOL0     C39268  10.434   0.680   4.384  0.2106  0.7842 -0.5220
 1010MOL0     C39269  10.522   0.666   4.274  0.3040  0.0983  0.1489
 1010MOL0     C39270  10.485   0.738   4.146  0.5613  0.3131 -0.9460
 1010MOL0     C39271  10.634   0.588   4.289 -0.4824  0.3169 -0.1128
 1010MOL0     C39272  10.740   0.561   4.187  0.2214  0.1980  0.7673
 1010MOL0     O39273  10.709   0.596   4.062 -0.0647  0.3138  0.3999
 1010MOL0     C39274  10.810   0.587   3.964  0.3564 -0.2864 -0.5759
 1010MOL0     C39275  10.931   0.647   3.992 -0.8221 -0.2053  0.1314
 1010MOL0     C39276  11.036   0.595   3.919  1.4474  0.6704 -0.2922
 1010MOL0     C39277  11.022   0.507   3.810  0.3415 -0.5425 -0.1564
 1010MOL0     O39278  11.108   0.452   3.730 -0.3573 -0.8607  1.5528
 1010MOL0     C39279  11.242   0.447   3.788  0.0965 -0.1816  1.0688
 1010MOL0     C39280  11.322   0.572   3.738  0.1773  0.4529  0.0303
 1010MOL0     C39281  11.474   0.561   3.760 -0.0999  0.2756  0.5916
 1010MOL0     C39282  11.519   0.580   3.902  1.0439  0.1616  0.2773
 1010MOL0     C39283  11.481   0.721   3.963 -0.3718 -0.3788 -0.1051
 1010MOL0     C39284  11.509   0.742   4.120 -0.8555  0.2392  0.0584
 1010MOL0     C39285  11.398   0.684   4.199  0.1175  0.5785 -0.0287
 1010MOL0     C39286  11.437   0.674   4.347 -0.2185  0.1865 -0.3016
 1010MOL0    Cl39287  11.563   0.545   4.369 -0.5666 -0.6122 -0.6296
 1010MOL0     C39288  10.895   0.457   3.781  0.1625 -1.1250 -0.1925
 1010MOL0     C39289  10.784   0.501   3.855 -1.3415  0.1730 -0.0989
 1010MOL0     O39290  10.850   0.513   4.223 -1.0248 -0.0650  0.2798
 1010MOL0     C39291  10.654   0.531   4.421 -0.0266 -0.2644  0.7943
 1010MOL0     C39292  10.564   0.542   4.525  0.6192  0.8538 -0.8035
 1010MOL0     N39293   9.977   0.541   5.036  0.8839  0.2235  0.2276
 1010MOL0     N39294   9.936   0.431   5.068  0.4057  0.1089  0.2551
 1010MOL0     C39295   9.618   0.733   5.926  0.7077  0.0561  0.0918
 1010MOL0     C39296   9.601   0.870   5.934  0.1564  0.7371  0.2226
 1010MOL0     C39297   9.584   1.275   5.735 -0.2545 -0.5092 -0.8230
 1010MOL0     C39298   9.525   1.346   5.842  0.4252  0.8069  0.0355
 1010MOL0     C39299   9.528   1.483   5.848 -0.4466  0.5244  0.0169
 1010MOL0     C39300   9.584   1.551   5.739  0.2459 -1.1099 -0.7333
 1010MOL0     O39301   9.571   1.690   5.767  0.7389  0.2532 -0.1825
 1010MOL0     C39302   9.611   1.794   5.682 -0.1943  0.5401  0.2827
 1010MOL0     C39303   9.575   1.924   5.742  0.4528 -0.0366 -0.8046
 1010MOL0     C39304   9.428   1.939   5.773 -0.5128 -0.3527  0.9452
 1010MOL0     C39305   9.380   2.074   5.841  0.1416 -0.0756  2.0434
 1010MOL0     C39306   9.404   2.081   5.987 -0.8912  0.8011 -0.5929
 1010MOL0     C39307   9.444   2.092   6.104  0.0551  0.2481 -0.1592
 1010MOL0     C39308   9.629   1.488   5.632 -0.4840 -0.2017  0.2230
 1010MOL0     C39309   9.647   1.347   5.630  0.3362  0.1243  0.5560
 1010MOL0     C39310   9.727   1.291   5.513 -0.6114 -0.3252  0.2342
 1010MOL0     H39311   9.354   0.915   5.705  3.7616  0.5143 -3.4114
 1010MOL0     H39312   9.362   0.679   5.696  2.9172 -1.7837 -2.8956
 1010MOL0     H39313   9.716   0.526   5.741 -0.8556  0.2219  0.5143
 1010MOL0     H39314   9.588   0.474   5.637  0.8236 -2.5751  0.0735
 1010MOL0     H39315   9.657   0.312   5.884  1.7564 -1.0218  0.6959
 1010MOL0     H39316   9.552   0.264   5.751  0.4866 -1.1377 -0.5316
 1010MOL0     H39317   9.843   0.287   5.769 -1.4525 -0.5985  1.1267
 1010MOL0     H39318   9.768   0.142   5.707  1.0969 -0.3850 -1.1656
 1010MOL0     H39319   9.701   0.293   5.495 -2.4439 -0.9060  1.8473
 1010MOL0     H39320   9.804   0.410   5.567 -5.8168  1.1998 -1.0300
 1010MOL0     H39321   9.888   0.118   5.517 -1.1291  0.5420  1.8926
 1010MOL0     H39322  10.004   0.249   5.546 -0.1124  0.8568  0.5138
 1010MOL0     H39323   9.830   0.232   5.294 -0.9560  0.7029 -0.1762
 1010MOL0     H39324   9.929   0.363   5.333 -3.8851  1.1412  3.3574
 1010MOL0     H39325  10.048   0.080   5.302 -0.4150  0.0573  2.1832
 1010MOL0     H39326  10.127   0.233   5.313 -0.0082  1.0165  0.6669
 1010MOL0     H39327  10.109   0.152   5.068 -1.2459 -0.8102 -0.7704
 1010MOL0     H39328   9.934   0.150   5.077  1.8065 -1.9105 -1.8948
 1010MOL0     H39329  10.249   0.376   5.097 -0.8746 -0.8184  1.6495
 1010MOL0     H39330  10.313   0.587   5.012  0.2568 -2.4281 -3.3683
 1010MOL0     H39331  10.214   0.715   5.076 -0.0298 -0.6604  1.2774
 1010MOL0     H39332  10.156   0.617   4.799  0.3139  1.5715 -1.0972
 1010MOL0     H39333  10.101   0.760   4.869 -1.6648 -1.3105 -0.9789
 1010MOL0     H39334  10.270   0.844   4.735 -3.4404 -2.1143 -0.8537
 1010MOL0     H39335  10.358   0.825   4.878  0.5077 -1.0072 -0.1731
 1010MOL0     H39336  10.503   0.723   4.711  0.2885  0.0182  2.4956
 1010MOL0     H39337  10.432   0.587   4.802 -2.4395 -1.6827 -1.9466
 1010MOL0     H39338  10.342   0.736   4.369 -0.8201 -0.4995  0.6505
 1010MOL0     H39339  10.561   0.815   4.126 -1.1249  2.3527  0.0459
 1010MOL0     H39340  10.395   0.799   4.156  0.6210  0.0330  2.5686
 1010MOL0     H39341  10.472   0.667   4.064 -3.9295 -0.3295  0.0998
 1010MOL0     H39342  10.950   0.707   4.080  3.1822 -3.4467  1.8432
 1010MOL0     H39343  11.138   0.631   3.930  1.3826  1.1194 -1.0499
 1010MOL0     H39344  11.247   0.443   3.897  2.3926 -2.4836  0.9774
 1010MOL0     H39345  11.298   0.359   3.752 -0.2503  0.5751 -1.5887
 1010MOL0     H39346  11.307   0.588   3.631 -1.9760  3.2466  0.6448
 1010MOL0     H39347  11.282   0.660   3.788 -1.0592  0.0327 -0.2044
 1010MOL0     H39348  11.529   0.633   3.698 -2.6442  2.0508  0.2489
 1010MOL0     H39349  11.503   0.458   3.737 -1.5740  0.3726 -2.0995
 1010MOL0     H39350  11.628   0.572   3.896  1.1611  1.0361  0.9293
 1010MOL0     H39351  11.495   0.497   3.969  2.0229 -2.1499 -2.0557
 1010MOL0     H39352  11.546   0.799   3.921 -0.8956  0.4074  0.5176
 1010MOL0     H39353  11.384   0.754   3.925  0.0932  1.5065  0.2382
 1010MOL0     H39354  11.524   0.846   4.149 -0.4477  0.5907 -1.3115
 1010MOL0     H39355  11.601   0.689   4.148 -0.0706  1.3593 -0.3282
 1010MOL0     H39356  11.375   0.585   4.157 -2.0200  1.8614 -2.1847
 1010MOL0     H39357  11.306   0.743   4.190  0.2664  0.6888 -0.9035
 1010MOL0     H39358  11.346   0.656   4.405 -0.3621  1.8910  0.0735
 1010MOL0     H39359  11.486   0.764   4.387 -1.0397  0.0642  1.0441
 1010MOL0     H39360  10.877   0.394   3.695  2.3822 -1.6391 -0.3381
 1010MOL0     H39361  10.684   0.469   3.831 -2.0253  0.9191  1.6349
 1010MOL0     H39362  10.735   0.463   4.441  0.2196  0.8611  4.4409
 1010MOL0     H39363  10.599   0.479   4.606  2.5731  0.7524 -1.6842
 1010MOL0     H39364   9.679   0.678   5.997  0.2379 -1.2159 -0.4777
 1010MOL0     H39365   9.672   0.935   5.984 -0.5066  1.5392  0.1514
 1010MOL0     H39366   9.490   1.293   5.930  2.3904  0.5873  0.7232
 1010MOL0     H39367   9.505   1.542   5.936  0.7022 -1.9286  2.1149
 1010MOL0     H39368   9.720   1.791   5.669 -0.2383  2.6247 -0.9750
 1010MOL0     H39369   9.567   1.778   5.584  0.6741  0.6243 -0.1325
 1010MOL0     H39370   9.610   2.010   5.684 -1.9397  0.5267 -1.5386
 1010MOL0     H39371   9.625   1.920   5.839  0.7916 -2.3373 -1.0095
 1010MOL0     H39372   9.379   1.945   5.676  1.6394  1.7869 -0.1101
 1010MOL0     H39373   9.390   1.847   5.819 -0.3568 -0.0412  1.7291
 1010MOL0     H39374   9.277   2.079   5.806  1.5437  3.8479 -2.5988
 1010MOL0     H39375   9.429   2.159   5.792  0.4494 -2.3722 -2.0548
 1010MOL0     H39376   9.453   2.076   6.209  2.2308 -3.7075 -0.7463
 1010MOL0     H39377   9.665   1.549   5.549 -0.6716  0.0425  0.3209
 1010MOL0     H39378   9.772   1.193   5.529  1.3223  0.1134 -2.0753
 1010MOL0     H39379   9.653   1.283   5.432 -1.4793 -0.7710  1.0469
 1010MOL0     H39380   9.803   1.367   5.495 -1.2438 -0.0831 -1.6397
 1011MOL0     O39381   2.335   1.261   1.817  0.0403  0.2043 -0.8191
 1011MOL0     C39382   2.253   1.234   1.913  0.8390  0.3749 -0.3631
 1011MOL0     O39383   2.128   1.174   1.895  0.0681  0.3396  0.1226
 1011MOL0     C39384   2.110   1.105   1.775 -0.0861  0.0823 -0.7252
 1011MOL0     C39385   2.016   1.155   1.689  0.4724 -0.2992 -0.0050
 1011MOL0     C39386   2.006   1.110   1.556  0.6716 -0.3775 -0.3086
 1011MOL0     C39387   2.086   1.005   1.515  0.7868  0.4381 -0.5905
 1011MOL0     O39388   2.081   0.941   1.398  0.7001  0.2922 -0.6527
 1011MOL0     C39389   2.129   1.031   1.295 -0.6895 -0.0901  0.1191
 1011MOL0     C39390   2.029   1.134   1.234  0.6501  0.3410 -0.6793
 1011MOL0     C39391   1.883   1.072   1.224 -0.4701 -0.3958 -0.1074
 1011MOL0     C39392   1.803   1.178   1.145  0.2216 -0.4492 -0.6125
 1011MOL0     C39393   1.661   1.139   1.124 -1.2493  0.0807 -0.1492
 1011MOL0     C39394   1.582   1.249   1.064  0.3365 -0.6139  0.1761
 1011MOL0     C39395   1.433   1.215   1.054  0.4548 -0.4155  0.5766
 1011MOL0     C39396   1.346   1.315   0.978 -0.0920  0.9362 -0.0113
 1011MOL0     N39397   1.210   1.304   1.022 -0.0626 -0.9138 -0.3745
 1011MOL0     C39398   1.125   1.205   0.992  0.6202  0.9094  0.3647
 1011MOL0     C39399   1.011   1.229   1.062 -0.0618 -0.3269 -0.6599
 1011MOL0     C39400   0.896   1.136   1.088  0.2472 -0.4750  0.5527
 1011MOL0     C39401   0.899   1.043   1.219 -0.7050 -1.1025  1.0941
 1011MOL0     C39402   1.012   0.946   1.223  0.0535  0.1133  0.2093
 1011MOL0     C39403   1.004   0.875   1.362  0.2951  0.5973  0.1218
 1011MOL0     O39404   0.883   0.807   1.376  0.0382  0.0244  0.2050
 1011MOL0     C39405   0.852   0.788   1.501  0.5328 -0.9780 -0.0343
 1011MOL0     C39406   0.899   0.693   1.590 -0.3566  0.3927  0.3769
 1011MOL0     C39407   0.862   0.689   1.720 -0.3777  0.4078  0.4533
 1011MOL0     C39408   0.923   0.567   1.791  0.0276 -0.7770 -0.1834
 1011MOL0     C39409   0.746   0.766   1.761 -0.0353  0.7524  0.2868
 1011MOL0     C39410   0.688   0.753   1.891  0.9517  0.3913  0.2825
 1011MOL0     O39411   0.574   0.815   1.918 -0.1215 -1.1750  0.0910
 1011MOL0     C39412   0.511   0.815   2.040  0.1938  0.6275  0.2625
 1011MOL0     C39413   0.366   0.797   2.046 -0.7053 -0.5305  0.3684
 1011MOL0     C39414   0.304   0.784   2.168  0.0473  0.3969  0.0045
 1011MOL0     C39415   0.383   0.824   2.282  0.1023 -0.6232 -0.1371
 1011MOL0     O39416   0.340   0.832   2.414  0.0717  0.7161  0.3595
 1011MOL0     C39417   0.242   0.947   2.421 -0.6010  0.5643 -0.4545
 1011MOL0     C39418   0.220   0.967   2.573 -0.3827  0.5540  0.2835
 1011MOL0     C39419   0.141   0.848   2.629 -0.2921  0.4398  0.0497
 1011MOL0     C39420  -0.009   0.856   2.632  0.1010 -0.2107  0.7431
 1011MOL0     C39421  -0.077   0.720   2.653  0.0730 -0.5936  0.1941
 1011MOL0     C39422  -0.031   0.615   2.556 -0.8019  0.3088 -0.3324
 1011MOL0     C39423  -0.138   0.505   2.537  0.3785  0.5268  0.1802
 1011MOL0     C39424  -0.091   0.371   2.467 -0.3772  0.8184  0.3434
 1011MOL0    Cl39425  -0.049   0.387   2.297 -0.1099 -0.1212 -0.4390
 1011MOL0     C39426   0.517   0.860   2.276 -0.3432  0.2005  0.0801
 1011MOL0     C39427   0.586   0.847   2.158 -0.7948 -0.2086  0.0554
 1011MOL0     O39428   0.748   0.688   1.976  0.2772  0.1827 -0.1543
 1011MOL0     C39429   0.693   0.855   1.671 -0.1380 -0.5930 -0.2484
 1011MOL0     C39430   0.741   0.865   1.541  0.5725  0.2503 -1.1177
 1011MOL0     N39431   1.025   1.352   1.125 -0.0452  0.1644 -0.0966
 1011MOL0     N39432   1.145   1.400   1.099 -0.4925  0.2030 -0.6065
 1011MOL0     C39433   2.174   0.954   1.597 -0.1713 -0.0708 -0.9117
 1011MOL0     C39434   2.193   1.003   1.728  0.1776 -0.3805 -0.3852
 1011MOL0     C39435   2.286   1.265   2.061  0.6673 -0.4638  0.0127
 1011MOL0     C39436   2.218   1.185   2.154 -0.5813  0.2024  0.0286
 1011MOL0     C39437   2.255   1.180   2.290  0.5046 -1.2487  0.5307
 1011MOL0     C39438   2.346   1.285   2.335  0.5292  0.3227 -0.5615
 1011MOL0     O39439   2.379   1.269   2.466  1.0213 -0.5037 -0.2611
 1011MOL0     C39440   2.526   1.299   2.486  0.7250  0.5053  0.9483
 1011MOL0     C39441   2.581   1.234   2.622  0.2881 -0.7041  0.3099
 1011MOL0     C39442   2.543   1.081   2.617  0.1459 -0.4353 -0.8999
 1011MOL0     C39443   2.622   0.983   2.703  0.5287  0.0611  0.7676
 1011MOL0     C39444   2.571   0.982   2.843 -0.4623  0.8224 -0.3106
 1011MOL0     C39445   2.536   0.992   2.959 -0.1458 -0.6206  0.8529
 1011MOL0     C39446   2.395   1.372   2.243 -0.3531  0.2983  0.6712
 1011MOL0     C39447   2.371   1.368   2.107  1.3386  0.8014 -0.8240
 1011MOL0     C39448   2.436   1.465   2.021 -0.5928 -0.4840  0.6939
 1011MOL0     H39449   1.942   1.225   1.727  0.9760  1.2697 -1.7561
 1011MOL0     H39450   1.930   1.147   1.488 -0.9596  0.6111  1.9197
 1011MOL0     H39451   2.162   0.958   1.221  0.9563  0.6090  0.1156
 1011MOL0     H39452   2.218   1.086   1.327 -0.6976  1.3092 -2.0570
 1011MOL0     H39453   2.024   1.221   1.300  0.1562  2.2605 -3.1027
 1011MOL0     H39454   2.068   1.167   1.138  0.4663  2.8186  0.0509
 1011MOL0     H39455   1.884   0.983   1.160 -2.0054 -2.0651  2.0411
 1011MOL0     H39456   1.822   1.048   1.312 -3.6655  0.1770 -1.9804
 1011MOL0     H39457   1.795   1.263   1.214 -5.0227 -2.0504  1.2662
 1011MOL0     H39458   1.853   1.201   1.051  1.7101  0.3953  0.3448
 1011MOL0     H39459   1.627   1.113   1.225 -0.6046 -0.3900 -0.0467
 1011MOL0     H39460   1.667   1.060   1.049  2.7081 -1.8043  1.8013
 1011MOL0     H39461   1.585   1.334   1.134 -0.5894 -0.0955 -0.3955
 1011MOL0     H39462   1.613   1.285   0.966 -0.9468  0.5743  0.1626
 1011MOL0     H39463   1.401   1.194   1.157 -1.5382  2.1116  0.5742
 1011MOL0     H39464   1.439   1.123   0.995  1.1183  2.3998 -4.2311
 1011MOL0     H39465   1.378   1.418   0.999  0.4587  0.0836  4.1153
 1011MOL0     H39466   1.349   1.287   0.872 -0.5864  4.6309 -1.1659
 1011MOL0     H39467   1.152   1.120   0.930  0.4509  0.9544  0.2270
 1011MOL0     H39468   0.900   1.079   0.995 -1.4620  2.3341 -1.3939
 1011MOL0     H39469   0.797   1.182   1.087  1.2799  1.8436  0.0631
 1011MOL0     H39470   0.897   1.112   1.304  1.3605  0.3977  0.0031
 1011MOL0     H39471   0.803   0.990   1.218 -0.4880 -1.5549  2.3450
 1011MOL0     H39472   1.002   0.884   1.133 -4.0682 -0.4150  0.8615
 1011MOL0     H39473   1.104   1.006   1.221 -0.1102  0.3526 -0.3203
 1011MOL0     H39474   1.081   0.797   1.357 -0.5730 -0.2233 -0.8993
 1011MOL0     H39475   1.039   0.948   1.435  1.4177 -1.8024  2.1698
 1011MOL0     H39476   0.967   0.618   1.550 -2.1003 -2.0932  1.8034
 1011MOL0     H39477   0.966   0.608   1.883 -0.6075 -0.3707 -0.0603
 1011MOL0     H39478   0.989   0.499   1.737  0.0649 -0.0441 -1.0865
 1011MOL0     H39479   0.848   0.493   1.820  2.7510 -2.5711  3.0868
 1011MOL0     H39480   0.310   0.778   1.955 -0.9383 -2.8273  0.9309
 1011MOL0     H39481   0.197   0.767   2.179  0.1843  0.2894  1.4144
 1011MOL0     H39482   0.296   1.032   2.378 -0.3964  1.4925  1.5477
 1011MOL0     H39483   0.147   0.926   2.370 -1.8782  1.8129  1.3203
 1011MOL0     H39484   0.312   0.964   2.633 -1.8801 -1.7656  2.7171
 1011MOL0     H39485   0.177   1.067   2.585  2.2515  1.4728  4.6154
 1011MOL0     H39486   0.178   0.845   2.731  1.6477  2.0504 -0.5451
 1011MOL0     H39487   0.174   0.756   2.580 -0.2410 -2.7470  5.3498
 1011MOL0     H39488  -0.047   0.905   2.542 -1.5456 -0.0970  1.4537
 1011MOL0     H39489  -0.034   0.921   2.717 -1.0937 -2.5072  2.2651
 1011MOL0     H39490  -0.069   0.669   2.750  0.6370 -3.3782 -1.2398
 1011MOL0     H39491  -0.182   0.749   2.640 -0.2219 -1.6788  0.0831
 1011MOL0     H39492   0.059   0.576   2.605 -0.7795 -0.8399 -1.2416
 1011MOL0     H39493  -0.004   0.661   2.461 -1.4210  1.9771  0.2783
 1011MOL0     H39494  -0.215   0.529   2.463  0.0445  0.5705  0.5425
 1011MOL0     H39495  -0.178   0.475   2.634  0.5242  0.7769  0.3184
 1011MOL0     H39496  -0.178   0.307   2.482 -0.3239 -0.0602 -2.4888
 1011MOL0     H39497  -0.002   0.331   2.517  0.7920  3.1647  0.2801
 1011MOL0     H39498   0.567   0.905   2.360 -0.2822  1.9163 -0.8319
 1011MOL0     H39499   0.689   0.876   2.141 -1.3086  0.6272 -2.0461
 1011MOL0     H39500   0.620   0.932   1.696  0.4215  1.3476 -3.8081
 1011MOL0     H39501   0.702   0.949   1.484 -1.5586 -0.9556 -1.5354
 1011MOL0     H39502   2.234   0.876   1.551 -2.3451 -0.0135 -4.1514
 1011MOL0     H39503   2.269   0.966   1.796 -1.5797 -1.9479  0.8193
 1011MOL0     H39504   2.147   1.107   2.128 -0.7100 -0.8150  3.0922
 1011MOL0     H39505   2.225   1.104   2.362 -1.8040 -0.2901  0.6596
 1011MOL0     H39506   2.586   1.264   2.402 -1.5717  1.8697 -1.4263
 1011MOL0     H39507   2.548   1.406   2.487  1.0026  0.4820 -0.4586
 1011MOL0     H39508   2.538   1.295   2.702  0.5273  0.0906 -0.1563
 1011MOL0     H39509   2.688   1.252   2.634  0.3646 -1.4177  0.7823
 1011MOL0     H39510   2.437   1.068   2.640 -0.2977 -0.4925 -2.8426
 1011MOL0     H39511   2.558   1.049   2.514 -1.6292 -1.3178 -0.9255
 1011MOL0     H39512   2.724   1.022   2.693  1.8241 -3.3077 -0.4970
 1011MOL0     H39513   2.615   0.879   2.670  1.4850 -0.2471  1.5113
 1011MOL0     H39514   2.488   0.996   3.055 -1.9085  1.5611 -0.0102
 1011MOL0     H39515   2.465   1.446   2.281  0.3578  0.2026 -0.4165
 1011MOL0     H39516   2.504   1.426   1.945  1.4971 -2.9017  3.6036
 1011MOL0     H39517   2.360   1.528   1.973  2.9250  2.2633 -1.9181
 1011MOL0     H39518   2.493   1.538   2.080 -1.4925 -2.4109  4.1734
 1012MOL0     O39519  11.460   1.179   6.850 -0.8325 -0.4073 -0.0597
 1012MOL0     C39520  11.428   1.258   6.942  0.1392 -0.2532 -0.4638
 1012MOL0     O39521  11.309   1.323   6.957  0.0401 -0.3148  0.1687
 1012MOL0     C39522  11.202   1.274   6.888 -0.0234 -0.0194 -0.0970
 1012MOL0     C39523  11.126   1.176   6.954 -0.3151 -0.1146  0.0197
 1012MOL0     C39524  11.023   1.117   6.886 -0.5599 -0.8347  0.1306
 1012MOL0     C39525  10.994   1.139   6.749 -0.3486 -1.3540 -0.6803
 1012MOL0     O39526  10.889   1.088   6.675  0.3750  0.0703 -0.5339
 1012MOL0     C39527  10.769   1.046   6.740  0.2945 -0.3930 -0.0265
 1012MOL0     C39528  10.653   1.028   6.649 -0.0375  0.0805  0.2514
 1012MOL0     C39529  10.694   0.939   6.533  0.0510  0.8594  1.3269
 1012MOL0     C39530  10.566   0.926   6.436  0.8603 -0.4067 -0.0843
 1012MOL0     C39531  10.563   0.821   6.330 -0.1699  0.9328 -0.5977
 1012MOL0     C39532  10.527   0.685   6.380 -0.7521  0.3782 -0.0298
 1012MOL0     C39533  10.377   0.671   6.394 -0.9005  0.2506  0.4116
 1012MOL0     C39534  10.337   0.523   6.386  0.2013  0.1826  0.5264
 1012MOL0     N39535  10.369   0.460   6.520  0.4992 -0.0993  0.2319
 1012MOL0     C39536  10.277   0.460   6.623 -1.0313  0.5291  0.0686
 1012MOL0     C39537  10.340   0.386   6.717 -0.1688  1.0134  0.2478
 1012MOL0     C39538  10.277   0.344   6.846 -0.0527 -0.2654  0.4717
 1012MOL0     C39539  10.130   0.363   6.876  1.0654 -0.8047 -0.0213
 1012MOL0     C39540  10.092   0.363   7.029  0.5990 -0.2059 -0.7832
 1012MOL0     C39541  10.112   0.245   7.118 -0.0307 -0.5001  0.3617
 1012MOL0     O39542  10.243   0.231   7.180  0.2622  0.3314  0.2181
 1012MOL0     C39543  10.287   0.338   7.243  0.5773  1.2166  0.2422
 1012MOL0     C39544  10.224   0.389   7.356  0.3854  0.0609 -0.1794
 1012MOL0     C39545  10.285   0.484   7.441 -0.1394 -0.4986 -1.1061
 1012MOL0     C39546  10.212   0.522   7.565  0.1418  0.1647  0.4365
 1012MOL0     C39547  10.408   0.540   7.412 -0.6952 -0.4902  0.6545
 1012MOL0     C39548  10.478   0.647   7.491  0.7553 -0.2419  0.7825
 1012MOL0     O39549  10.597   0.689   7.435 -0.3934  0.4388 -0.0704
 1012MOL0     C39550  10.686   0.778   7.490 -1.0336  0.0362 -1.0930
 1012MOL0     C39551  10.790   0.810   7.401  0.7726 -0.1143 -0.4020
 1012MOL0     C39552  10.892   0.895   7.441 -0.0315  0.8528  0.3458
 1012MOL0     C39553  10.908   0.927   7.578  0.5449 -0.1158 -0.4833
 1012MOL0     O39554  11.022   0.989   7.606 -0.2719 -0.1351 -0.4084
 1012MOL0     C39555  11.048   1.033   7.733  0.2465 -0.3517  0.0535
 1012MOL0     C39556  11.126   0.925   7.810 -0.0358 -0.6526 -0.1525
 1012MOL0     C39557  11.162   0.985   7.945  0.0747 -0.2722  1.5826
 1012MOL0     C39558  11.045   1.044   8.024  0.2316 -0.6984  0.6493
 1012MOL0     C39559  11.070   1.054   8.179 -0.2522 -0.1315  0.3490
 1012MOL0     C39560  11.183   1.163   8.205  0.6894  0.1290  0.0194
 1012MOL0     C39561  11.192   1.185   8.358  0.4545 -0.1794  0.5294
 1012MOL0     C39562  11.260   1.316   8.392 -0.0918  0.4539  0.3951
 1012MOL0    Cl39563  11.165   1.453   8.331 -0.4428  0.4716  0.4960
 1012MOL0     C39564  10.810   0.880   7.672 -0.6375  1.2454 -0.8103
 1012MOL0     C39565  10.699   0.807   7.630  0.0084 -0.2900 -0.2984
 1012MOL0     O39566  10.420   0.709   7.577  0.6898  0.4068  0.1018
 1012MOL0     C39567  10.472   0.485   7.301 -0.3501  0.4137  0.1268
 1012MOL0     C39568  10.418   0.386   7.223  0.2093  1.3266 -1.2999
 1012MOL0     N39569  10.468   0.348   6.673  0.4501 -0.3437  0.6072
 1012MOL0     N39570  10.478   0.385   6.546 -0.1106 -1.0494  0.2273
 1012MOL0     C39571  11.070   1.237   6.686  0.1011  0.1578 -0.6561
 1012MOL0     C39572  11.178   1.297   6.752 -1.0421  0.6854  0.0053
 1012MOL0     C39573  11.527   1.287   7.050 -0.6970 -0.5035  0.0576
 1012MOL0     C39574  11.528   1.416   7.120  0.0490  0.2041 -1.0673
 1012MOL0     C39575  11.632   1.461   7.198  0.8994 -0.1379  0.2023
 1012MOL0     C39576  11.740   1.380   7.223  0.2432 -0.8185  0.6650
 1012MOL0     O39577  11.844   1.445   7.285  0.5902  0.6535 -0.2221
 1012MOL0     C39578  11.970   1.369   7.291 -0.8643  0.1958  0.5920
 1012MOL0     C39579  12.063   1.444   7.383  0.3602 -0.1044  0.3235
 1012MOL0     C39580  12.117   1.578   7.317  0.2468  0.8661  0.2405
 1012MOL0     C39581  12.217   1.666   7.402  0.7303  0.1994 -0.1510
 1012MOL0     C39582  12.347   1.586   7.413  0.6340 -0.7899  0.4819
 1012MOL0     C39583  12.448   1.519   7.408  0.2720 -0.2635  0.6610
 1012MOL0     C39584  11.753   1.253   7.156  0.3281  0.8284 -0.1598
 1012MOL0     C39585  11.639   1.201   7.080 -0.6700  0.4581  0.1132
 1012MOL0     C39586  11.647   1.059   7.034  0.6869  0.4254  0.1359
 1012MOL0     H39587  11.160   1.152   7.054  0.8312  0.3315 -0.2509
 1012MOL0     H39588  10.943   1.056   6.927  0.1915 -1.7471  0.2791
 1012MOL0     H39589  10.751   1.126   6.813 -0.9446  0.7742 -1.5571
 1012MOL0     H39590  10.794   0.951   6.790  0.7168  0.8102  2.1682
 1012MOL0     H39591  10.572   0.980   6.705 -0.4442 -0.7126 -0.9829
 1012MOL0     H39592  10.617   1.123   6.607  3.7914  0.1019 -3.6532
 1012MOL0     H39593  10.771   0.983   6.470 -1.3268  2.3292  0.5991
 1012MOL0     H39594  10.704   0.836   6.570 -3.5628 -0.5660 -1.1231
 1012MOL0     H39595  10.482   0.909   6.504  0.0055 -1.8897 -1.4374
 1012MOL0     H39596  10.562   1.013   6.369 -0.7212 -0.9415 -0.7526
 1012MOL0     H39597  10.667   0.805   6.301 -0.1315 -0.7363  0.3647
 1012MOL0     H39598  10.511   0.846   6.237 -2.8037 -1.4174  0.0791
 1012MOL0     H39599  10.568   0.614   6.307 -0.1544  1.6951 -1.0214
 1012MOL0     H39600  10.566   0.665   6.480  1.8792  0.5625 -0.9377
 1012MOL0     H39601  10.327   0.730   6.316  2.6202  3.9088  0.6298
 1012MOL0     H39602  10.350   0.707   6.494 -1.2172 -1.1360  0.8511
 1012MOL0     H39603  10.232   0.509   6.360  0.3242 -2.4367  1.1554
 1012MOL0     H39604  10.397   0.472   6.310 -0.2114 -0.9330  0.9343
 1012MOL0     H39605  10.175   0.497   6.620 -1.1823  0.0535 -1.5210
 1012MOL0     H39606  10.343   0.373   6.927  0.9039  0.8385 -0.6582
 1012MOL0     H39607  10.265   0.235   6.848 -1.1676 -0.1901 -0.6379
 1012MOL0     H39608  10.090   0.463   6.855 -0.6873 -1.1266  1.5425
 1012MOL0     H39609  10.069   0.298   6.813  0.3103  0.3871 -0.5675
 1012MOL0     H39610  10.144   0.450   7.070  0.6442  0.4115 -2.0815
 1012MOL0     H39611   9.985   0.387   7.037  0.8129  0.0713  2.5603
 1012MOL0     H39612  10.034   0.254   7.193  0.1771 -0.0641  0.5286
 1012MOL0     H39613  10.093   0.167   7.043 -0.6268 -1.4986  1.5268
 1012MOL0     H39614  10.136   0.331   7.384  0.3168 -1.3960 -3.0336
 1012MOL0     H39615  10.192   0.629   7.580  0.7760  0.2327  0.8538
 1012MOL0     H39616  10.262   0.475   7.650  3.6694  0.5922 -1.2202
 1012MOL0     H39617  10.113   0.477   7.555 -0.5540  2.0667 -2.3018
 1012MOL0     H39618  10.772   0.800   7.295 -1.9397  0.1048 -0.0500
 1012MOL0     H39619  10.963   0.922   7.364 -0.4823 -0.6926 -0.6614
 1012MOL0     H39620  11.114   1.120   7.723  0.5895 -0.5736  0.3933
 1012MOL0     H39621  10.966   1.075   7.792  0.1612 -1.2395  0.5779
 1012MOL0     H39622  11.059   0.842   7.829 -0.2848 -0.5727 -0.6644
 1012MOL0     H39623  11.209   0.880   7.755  1.7362  1.1633  0.8833
 1012MOL0     H39624  11.258   1.036   7.940  0.4067 -0.8022  2.4239
 1012MOL0     H39625  11.186   0.899   8.009  0.0065 -1.2475  0.3332
 1012MOL0     H39626  10.947   0.997   8.009 -0.1886  0.6770 -1.2537
 1012MOL0     H39627  11.042   1.145   7.984 -3.3219  0.1700  2.7157
 1012MOL0     H39628  10.980   1.093   8.228  0.0745  1.5312 -0.3220
 1012MOL0     H39629  11.102   0.957   8.218  1.9622 -0.1955 -1.4162
 1012MOL0     H39630  11.141   1.246   8.147 -1.4022 -2.1112 -1.9397
 1012MOL0     H39631  11.284   1.138   8.172 -0.3956 -2.1999 -1.8521
 1012MOL0     H39632  11.242   1.099   8.404  1.3039 -0.5756 -1.0651
 1012MOL0     H39633  11.087   1.191   8.390 -0.4589 -2.7255 -1.5653
 1012MOL0     H39634  11.364   1.324   8.359  0.4896  0.2936  2.0961
 1012MOL0     H39635  11.258   1.330   8.500  1.1859 -0.7505  0.5989
 1012MOL0     H39636  10.837   0.877   7.778  1.0065 -0.2416 -1.2085
 1012MOL0     H39637  10.636   0.755   7.700 -1.4306  2.6730  0.7984
 1012MOL0     H39638  10.562   0.532   7.262 -0.6942 -0.4008 -1.8017
 1012MOL0     H39639  10.465   0.351   7.131 -0.9693 -1.1714 -1.0386
 1012MOL0     H39640  11.061   1.261   6.581 -1.7828 -2.3624 -1.1487
 1012MOL0     H39641  11.235   1.377   6.705 -0.3592  0.1884 -0.0419
 1012MOL0     H39642  11.449   1.490   7.114 -0.4600 -0.3420 -1.2677
 1012MOL0     H39643  11.637   1.564   7.230 -0.4850  0.5132 -1.5170
 1012MOL0     H39644  11.970   1.273   7.342  0.7548  0.6770  1.5738
 1012MOL0     H39645  12.013   1.358   7.191 -0.7007 -1.6945  0.8456
 1012MOL0     H39646  12.144   1.381   7.420  1.1620  0.5180 -0.3370
 1012MOL0     H39647  12.019   1.481   7.476  0.3714 -0.5027  0.4894
 1012MOL0     H39648  12.171   1.565   7.223  0.8330 -0.8232  0.7792
 1012MOL0     H39649  12.029   1.643   7.314 -1.1117 -0.7752  1.7275
 1012MOL0     H39650  12.181   1.688   7.502  0.8465  1.3097 -0.3440
 1012MOL0     H39651  12.238   1.765   7.362  1.0253  0.6711  1.1360
 1012MOL0     H39652  12.540   1.471   7.380  0.0960 -2.2060  3.0958
 1012MOL0     H39653  11.838   1.190   7.178  0.4283  0.7495 -0.7542
 1012MOL0     H39654  11.545   1.021   7.023  0.4458  1.4455 -1.6457
 1012MOL0     H39655  11.688   1.051   6.932 -1.8413 -0.2354 -0.9113
 1012MOL0     H39656  11.698   0.998   7.109  1.5927 -0.3983 -1.1088
 1013MOL0     O39657   4.602   1.956   4.137  0.2390  0.2094  0.6431
 1013MOL0     C39658   4.665   1.967   4.251 -0.2031  1.1301  0.0326
 1013MOL0     O39659   4.688   2.079   4.328  0.3945 -0.6006  0.1885
 1013MOL0     C39660   4.687   2.205   4.271  0.0734 -0.1510  0.3107
 1013MOL0     C39661   4.648   2.320   4.348  0.5255  0.5984  0.6607
 1013MOL0     C39662   4.626   2.445   4.283  0.4354  0.3240  0.6151
 1013MOL0     C39663   4.673   2.470   4.159 -0.8676 -0.6072  0.4428
 1013MOL0     O39664   4.651   2.587   4.089  0.1622 -0.0381  0.2793
 1013MOL0     C39665   4.618   2.707   4.165  0.3727 -0.7539  0.1955
 1013MOL0     C39666   4.662   2.834   4.075  0.5675 -0.3678 -0.0101
 1013MOL0     C39667   4.796   2.888   4.121  0.1149 -0.1373 -0.4370
 1013MOL0     C39668   4.839   2.997   4.029  0.4790  0.4525 -0.9327
 1013MOL0     C39669   4.763   3.129   4.043 -0.5071  0.3496  0.5302
 1013MOL0     C39670   4.828   3.246   3.977  0.4949  0.4132 -0.6457
 1013MOL0     C39671   4.755   3.372   4.022 -1.3196 -0.4676 -0.3853
 1013MOL0     C39672   4.836   3.496   3.992  0.4420  0.3269  0.3354
 1013MOL0     N39673   4.854   3.514   3.844  0.3947  0.1663 -0.9096
 1013MOL0     C39674   4.747   3.550   3.762 -0.2526 -0.0804 -0.0792
 1013MOL0     C39675   4.805   3.550   3.642  0.8967 -0.3413 -0.2111
 1013MOL0     C39676   4.725   3.592   3.529 -0.0462 -0.0545  0.3461
 1013MOL0     C39677   4.696   3.480   3.433 -1.1124 -0.5353 -1.2253
 1013MOL0     C39678   4.607   3.510   3.313 -0.7543 -0.1302  0.0914
 1013MOL0     C39679   4.550   3.380   3.253  0.8971 -0.4441  1.4575
 1013MOL0     O39680   4.479   3.412   3.135 -0.2782  0.8346 -0.1449
 1013MOL0     C39681   4.414   3.323   3.051  0.5423  1.1118  0.4700
 1013MOL0     C39682   4.378   3.359   2.916  0.0582 -0.6671  0.7104
 1013MOL0     C39683   4.324   3.267   2.827 -0.9744  0.8670 -0.5003
 1013MOL0     C39684   4.303   3.315   2.690  0.1566 -0.2492  0.3814
 1013MOL0     C39685   4.304   3.128   2.874  0.9305 -0.7664 -0.4670
 1013MOL0     C39686   4.236   3.024   2.791 -0.5180  0.4002  0.1437
 1013MOL0     O39687   4.185   2.920   2.852 -0.1105 -0.1262  0.1512
 1013MOL0     C39688   4.069   2.851   2.809 -0.2895  0.3734 -0.4383
 1013MOL0     C39689   3.971   2.910   2.729  0.0237 -0.0957  0.0713
 1013MOL0     C39690   3.846   2.846   2.691 -0.3727 -0.7461 -0.2202
 1013MOL0     C39691   3.815   2.725   2.753  0.3105 -0.2867  0.4880
 1013MOL0     O39692   3.693   2.673   2.724  0.0249 -0.1285 -0.1076
 1013MOL0     C39693   3.662   2.533   2.744 -0.7934  1.0173  0.0855
 1013MOL0     C39694   3.739   2.438   2.650  0.9573 -0.5087  0.5301
 1013MOL0     C39695   3.684   2.288   2.660 -0.2489  1.0995  0.0001
 1013MOL0     C39696   3.764   2.180   2.578  0.6005 -0.7678  0.8394
 1013MOL0     C39697   3.682   2.046   2.576 -0.5646 -0.3524 -0.3883
 1013MOL0     C39698   3.770   1.926   2.535 -0.2714 -0.0005 -0.8808
 1013MOL0     C39699   3.863   1.946   2.410  0.0070  0.0782 -0.6716
 1013MOL0     C39700   3.784   1.997   2.285 -0.1908 -0.8328 -0.2258
 1013MOL0    Cl39701   3.695   1.862   2.217  0.0621 -0.3129  0.4471
 1013MOL0     C39702   3.913   2.671   2.846 -0.2980 -0.0953  1.0180
 1013MOL0     C39703   4.037   2.729   2.870 -0.3213  0.0735 -0.4344
 1013MOL0     O39704   4.243   3.034   2.667 -0.5141 -0.6869 -0.6035
 1013MOL0     C39705   4.340   3.098   3.013  1.2183  0.2736 -0.0874
 1013MOL0     C39706   4.393   3.196   3.091  0.2771 -0.2514  0.4302
 1013MOL0     N39707   4.937   3.522   3.645  0.5215 -0.0875 -0.0785
 1013MOL0     N39708   4.971   3.515   3.769 -0.5479 -0.5714 -0.3227
 1013MOL0     C39709   4.730   2.365   4.082 -0.1826  0.0081  0.3888
 1013MOL0     C39710   4.727   2.235   4.139 -0.5824  0.1544 -0.0950
 1013MOL0     C39711   4.715   1.835   4.325 -0.2291 -0.1360  0.3997
 1013MOL0     C39712   4.761   1.846   4.455 -0.1745 -0.1292 -0.8455
 1013MOL0     C39713   4.802   1.733   4.519 -0.1722  0.3911 -0.6674
 1013MOL0     C39714   4.790   1.601   4.467  0.2315 -0.4031  0.1657
 1013MOL0     O39715   4.814   1.495   4.549  0.1810  0.3302 -0.0940
 1013MOL0     C39716   4.802   1.362   4.492 -0.0067  0.8311 -0.0906
 1013MOL0     C39717   4.864   1.260   4.584  0.3192 -0.0235  0.2542
 1013MOL0     C39718   4.866   1.118   4.533  0.2334 -1.0558 -0.8425
 1013MOL0     C39719   4.866   1.018   4.643 -0.3183  0.2497  0.2434
 1013MOL0     C39720   4.742   1.006   4.719 -0.5250 -1.4384 -0.3465
 1013MOL0     C39721   4.635   1.008   4.779  1.0239 -0.1437  0.5732
 1013MOL0     C39722   4.740   1.596   4.335 -0.2622  0.5283 -1.1705
 1013MOL0     C39723   4.714   1.707   4.261  0.5954 -0.7479 -0.5330
 1013MOL0     C39724   4.706   1.681   4.109 -0.7582 -0.5212 -0.5450
 1013MOL0     H39725   4.615   2.310   4.451  3.0337  0.0785  1.4876
 1013MOL0     H39726   4.592   2.534   4.337  0.2255  0.3390  0.4586
 1013MOL0     H39727   4.671   2.715   4.260 -0.8197 -1.9030  0.9818
 1013MOL0     H39728   4.513   2.711   4.194  0.8734 -2.0442  2.3778
 1013MOL0     H39729   4.665   2.816   3.967 -1.8787 -1.9581  0.0958
 1013MOL0     H39730   4.588   2.914   4.085  1.7206  1.1519 -2.5656
 1013MOL0     H39731   4.808   2.926   4.222 -1.8604  1.8769 -0.8814
 1013MOL0     H39732   4.872   2.810   4.109  2.0645  1.3991  1.3069
 1013MOL0     H39733   4.941   3.020   4.059  0.3339 -1.6671  1.5159
 1013MOL0     H39734   4.846   2.955   3.929 -0.4087 -3.9848  0.6605
 1013MOL0     H39735   4.764   3.157   4.149  0.3935 -0.5563  0.7721
 1013MOL0     H39736   4.660   3.117   4.008  0.2411  3.1496 -3.3245
 1013MOL0     H39737   4.934   3.248   4.005  0.8804  2.1439 -2.0303
 1013MOL0     H39738   4.816   3.232   3.869  5.0751 -1.7745 -1.1105
 1013MOL0     H39739   4.752   3.379   4.131 -1.5571  0.3719 -0.4448
 1013MOL0     H39740   4.656   3.380   3.976 -0.4788 -2.6990 -2.8181
 1013MOL0     H39741   4.787   3.584   4.035 -3.7522 -1.8562  0.5233
 1013MOL0     H39742   4.933   3.470   4.035  0.4937 -1.4445 -0.7593
 1013MOL0     H39743   4.647   3.582   3.790  0.2015  1.9071 -0.6404
 1013MOL0     H39744   4.775   3.672   3.474  1.4648 -1.5531 -0.5718
 1013MOL0     H39745   4.627   3.628   3.564 -0.6447  0.7578 -1.9824
 1013MOL0     H39746   4.789   3.436   3.397 -0.9160 -0.8859 -0.3182
 1013MOL0     H39747   4.638   3.404   3.486  1.0120 -1.4185 -0.0931
 1013MOL0     H39748   4.531   3.586   3.335  1.2223  2.2968 -0.8409
 1013MOL0     H39749   4.670   3.564   3.241 -0.6181  0.3397  0.5514
 1013MOL0     H39750   4.636   3.316   3.233  0.3676 -0.2852 -2.0019
 1013MOL0     H39751   4.484   3.332   3.326 -0.8734  1.1541  0.9878
 1013MOL0     H39752   4.398   3.463   2.893  2.6986 -0.9987  1.1621
 1013MOL0     H39753   4.328   3.421   2.685 -1.4731  0.1219 -0.3520
 1013MOL0     H39754   4.198   3.299   2.668  0.5441 -0.4390 -1.4781
 1013MOL0     H39755   4.356   3.258   2.614  0.8064  1.8326 -0.8048
 1013MOL0     H39756   3.991   3.012   2.698 -1.4089  0.1371 -0.1596
 1013MOL0     H39757   3.775   2.891   2.622 -1.9699 -0.5183  1.4969
 1013MOL0     H39758   3.676   2.502   2.848  0.5396 -0.4160 -0.4741
 1013MOL0     H39759   3.556   2.518   2.722 -1.1176  0.4420  1.8859
 1013MOL0     H39760   3.720   2.477   2.550 -0.7690  0.8923  1.3380
 1013MOL0     H39761   3.845   2.434   2.673  0.8619  1.7411  1.6363
 1013MOL0     H39762   3.584   2.285   2.616 -0.0323  0.0866 -0.4599
 1013MOL0     H39763   3.672   2.266   2.766 -2.3548  2.3313  0.0761
 1013MOL0     H39764   3.863   2.158   2.620  1.4913 -0.1907 -0.8666
 1013MOL0     H39765   3.782   2.227   2.482 -1.5531  0.5684  1.0361
 1013MOL0     H39766   3.648   2.033   2.679  0.6756  3.7500  0.7087
 1013MOL0     H39767   3.594   2.063   2.513 -0.9798 -0.0758  0.2600
 1013MOL0     H39768   3.700   1.847   2.506 -2.3560  1.9517 -1.4637
 1013MOL0     H39769   3.834   1.900   2.620  0.4554  2.5152 -0.5531
 1013MOL0     H39770   3.920   1.854   2.393 -0.3131  0.0061 -1.3959
 1013MOL0     H39771   3.939   2.022   2.431  0.3013 -0.2912 -0.3924
 1013MOL0     H39772   3.857   2.026   2.208  0.7525 -1.1547  0.5263
 1013MOL0     H39773   3.718   2.079   2.315 -2.6987 -1.7778 -2.6599
 1013MOL0     H39774   3.900   2.575   2.896  1.1842 -1.0034 -0.1998
 1013MOL0     H39775   4.106   2.679   2.937  1.1246  2.3601 -0.1200
 1013MOL0     H39776   4.327   2.999   3.055  1.0352  0.6692  0.8133
 1013MOL0     H39777   4.419   3.165   3.191 -0.9709  1.6445  1.4004
 1013MOL0     H39778   4.786   2.385   3.991  2.8052 -1.7087  1.7133
 1013MOL0     H39779   4.755   2.154   4.072 -1.0541  0.0263 -0.1416
 1013MOL0     H39780   4.790   1.941   4.499 -2.0646  1.2420 -2.4041
 1013MOL0     H39781   4.846   1.748   4.617 -4.2583  0.7871  1.3363
 1013MOL0     H39782   4.694   1.346   4.486  0.3238 -3.1866  1.1517
 1013MOL0     H39783   4.849   1.336   4.397 -0.8422 -0.2633 -0.2389
 1013MOL0     H39784   4.808   1.263   4.678  0.8084  0.5961  0.5296
 1013MOL0     H39785   4.965   1.293   4.610  0.7252 -0.6328 -0.4913
 1013MOL0     H39786   4.782   1.084   4.472  1.0986 -3.0913 -0.9667
 1013MOL0     H39787   4.963   1.102   4.486  1.8073  3.7636  0.2736
 1013MOL0     H39788   4.951   1.037   4.710 -0.1594 -2.2683  0.8553
 1013MOL0     H39789   4.885   0.917   4.607 -3.2477  0.3877 -2.0316
 1013MOL0     H39790   4.543   1.031   4.829  0.8589  1.1931 -0.2928
 1013MOL0     H39791   4.733   1.502   4.280 -0.9509 -1.1671  1.6488
 1013MOL0     H39792   4.606   1.645   4.083 -0.2862 -0.4395 -2.6266
 1013MOL0     H39793   4.745   1.760   4.044  4.2110 -4.3371 -2.9497
 1013MOL0     H39794   4.763   1.594   4.073 -0.7361 -0.3708 -0.8764
 1014MOL0     O39795   7.986   4.211   9.469  0.4913 -0.0665  0.1294
 1014MOL0     C39796   8.019   4.282   9.378  0.3377 -0.7056  0.3469
 1014MOL0     O39797   8.143   4.343   9.378 -0.2346  0.6936  0.6289
 1014MOL0     C39798   8.235   4.313   9.478  0.2931  0.3325  0.5335
 1014MOL0     C39799   8.356   4.239   9.460 -0.0432  0.3438  0.8148
 1014MOL0     C39800   8.446   4.222   9.574 -0.1175  0.7023 -0.4902
 1014MOL0     C39801   8.419   4.260   9.704 -0.4909  1.0201 -0.4384
 1014MOL0     O39802   8.488   4.223   9.818  0.5474 -0.0002 -0.1407
 1014MOL0     C39803   8.628   4.215   9.789  0.4041  0.6594  0.2125
 1014MOL0     C39804   8.676   4.068   9.792 -0.4499  0.5794  0.6337
 1014MOL0     C39805   8.744   4.027   9.915  0.6905  0.0969  0.0247
 1014MOL0     C39806   8.748   3.881   9.923  0.5471  0.8869  1.4566
 1014MOL0     C39807   8.791   3.842  10.061 -0.0435  0.6687  0.1282
 1014MOL0     C39808   8.814   3.688  10.072 -0.2525  0.1706  0.1139
 1014MOL0     C39809   8.876   3.657  10.205 -0.3598 -0.1910  0.6719
 1014MOL0     C39810   9.031   3.661  10.215 -0.5905  0.7690 -0.4216
 1014MOL0     N39811   9.065   3.639  10.355  0.7520  0.3600  0.2215
 1014MOL0     C39812   9.080   3.513  10.403  0.9655  0.5932 -0.1292
 1014MOL0     C39813   9.137   3.538  10.523  0.3404 -0.3188  0.4723
 1014MOL0     C39814   9.171   3.426  10.624 -0.5112  1.3932 -1.4518
 1014MOL0     C39815   9.072   3.409  10.739 -0.1834 -0.3935 -1.1603
 1014MOL0     C39816   9.112   3.311  10.853 -0.2334 -0.8184 -0.1399
 1014MOL0     C39817   9.176   3.181  10.810 -0.1634  0.2725 -0.7612
 1014MOL0     O39818   9.133   3.089  10.906 -0.1929 -0.5227  0.1225
 1014MOL0     C39819   9.151   2.955  10.878 -0.1760 -0.8538  0.6077
 1014MOL0     C39820   9.064   2.881  10.798  0.5362  0.2191 -0.4363
 1014MOL0     C39821   9.068   2.742  10.785  0.0156  0.6199  0.2558
 1014MOL0     C39822   8.961   2.679  10.701  0.2541 -0.7516  1.4083
 1014MOL0     C39823   9.180   2.678  10.829 -1.1199 -0.0949 -1.0547
 1014MOL0     C39824   9.199   2.533  10.801 -0.5447 -0.2482 -0.6189
 1014MOL0     O39825   9.264   2.470  10.906 -0.6535  0.2853 -0.2068
 1014MOL0     C39826   9.298   2.342  10.883 -0.2855  0.1620  0.2787
 1014MOL0     C39827   9.380   2.291  10.786  0.0801 -0.1361  0.3616
 1014MOL0     C39828   9.396   2.156  10.767  0.1087 -0.5878 -0.4007
 1014MOL0     C39829   9.322   2.067  10.850 -0.4116  0.4910 -0.7602
 1014MOL0     O39830   9.319   1.928  10.843  0.1175  0.2049  0.4079
 1014MOL0     C39831   9.437   1.860  10.801  0.4550  0.6144 -0.3519
 1014MOL0     C39832   9.443   1.718  10.864 -0.3356  0.4783  0.5100
 1014MOL0     C39833   9.453   1.729  11.011  0.1154  0.1860 -0.6938
 1014MOL0     C39834   9.556   1.636  11.080  0.0224  0.0400 -0.7154
 1014MOL0     C39835   9.510   1.485  11.070 -0.2891 -0.5181 -0.5303
 1014MOL0     C39836   9.618   1.404  11.140  1.0344  0.0968 -0.0711
 1014MOL0     C39837   9.582   1.251  11.140  0.2549  0.3299  1.0276
 1014MOL0     C39838   9.632   1.190  11.006  0.0088 -0.0427  0.2504
 1014MOL0    Cl39839   9.802   1.179  10.982 -0.1103 -0.0427  0.3692
 1014MOL0     C39840   9.248   2.119  10.959  0.2622 -0.3450  0.3485
 1014MOL0     C39841   9.244   2.256  10.976  0.6023 -0.2271  0.1086
 1014MOL0     O39842   9.184   2.493  10.684  0.1145 -0.4847 -0.0434
 1014MOL0     C39843   9.273   2.752  10.912 -0.5984 -0.0966  0.0983
 1014MOL0     C39844   9.257   2.890  10.943  1.0294  0.6409  0.5860
 1014MOL0     N39845   9.155   3.666  10.550  0.3171  0.4351  0.0856
 1014MOL0     N39846   9.129   3.730  10.437  0.4190  0.3334 -0.3063
 1014MOL0     C39847   8.297   4.326   9.720  0.5759  0.6613 -0.7110
 1014MOL0     C39848   8.217   4.362   9.615  1.1163 -0.1566 -0.4578
 1014MOL0     C39849   7.957   4.299   9.247 -0.0668 -0.2711 -0.4886
 1014MOL0     C39850   8.030   4.317   9.125  0.2230 -0.0125  0.1180
 1014MOL0     C39851   7.974   4.331   8.996  1.4079  0.4273  0.3865
 1014MOL0     C39852   7.832   4.338   8.986  0.0823 -0.0925 -0.0430
 1014MOL0     O39853   7.756   4.334   8.866  0.2124 -0.6294  0.7765
 1014MOL0     C39854   7.715   4.464   8.815 -0.4922 -0.0549 -0.1830
 1014MOL0     C39855   7.819   4.537   8.729 -0.4475  0.4778 -0.9300
 1014MOL0     C39856   7.804   4.689   8.723  0.5714  0.3659 -0.5429
 1014MOL0     C39857   7.918   4.743   8.641 -0.4127 -0.0581  0.4069
 1014MOL0     C39858   7.893   4.732   8.495  0.2259 -0.6097 -0.3700
 1014MOL0     C39859   7.863   4.737   8.378  0.2035  0.8939  0.1411
 1014MOL0     C39860   7.754   4.332   9.107 -0.4459 -0.2186  0.5405
 1014MOL0     C39861   7.811   4.313   9.235 -1.4726 -0.8963 -0.5166
 1014MOL0     C39862   7.728   4.331   9.359  0.4862 -0.2439 -0.0927
 1014MOL0     H39863   8.391   4.193   9.368  3.2385  1.6104  1.2850
 1014MOL0     H39864   8.530   4.155   9.555 -0.3181  0.3813 -0.2595
 1014MOL0     H39865   8.675   4.276   9.867 -0.5788  0.8988  0.6232
 1014MOL0     H39866   8.661   4.253   9.692 -0.1733  0.6085 -0.0074
 1014MOL0     H39867   8.592   4.000   9.776  0.0317 -0.1571  1.1864
 1014MOL0     H39868   8.743   4.052   9.708 -1.0273  0.1899  0.2399
 1014MOL0     H39869   8.849   4.057   9.925  1.8564 -2.6793 -2.3681
 1014MOL0     H39870   8.677   4.067   9.991  1.8395 -3.4478  3.2272
 1014MOL0     H39871   8.655   3.836   9.888  2.0062 -1.2995  0.1220
 1014MOL0     H39872   8.815   3.842   9.845 -1.3788 -0.7722  0.5465
 1014MOL0     H39873   8.709   3.866  10.130 -2.9777 -1.4797 -2.3554
 1014MOL0     H39874   8.882   3.895  10.090 -0.0465  0.5022  0.4477
 1014MOL0     H39875   8.716   3.641  10.059 -1.1341  1.0335  2.8366
 1014MOL0     H39876   8.878   3.654   9.991 -1.6992  1.0046 -1.4604
 1014MOL0     H39877   8.848   3.552  10.220 -0.0240 -0.2716  0.7467
 1014MOL0     H39878   8.833   3.727  10.276  0.2463  3.1752 -2.0443
 1014MOL0     H39879   9.081   3.597  10.142 -3.1752 -1.6268 -0.2515
 1014MOL0     H39880   9.066   3.762  10.192  3.7741 -0.9418 -2.3369
 1014MOL0     H39881   9.048   3.424  10.350  0.7916  2.7197 -4.0452
 1014MOL0     H39882   9.267   3.440  10.674 -1.4138 -2.3071  1.8482
 1014MOL0     H39883   9.187   3.330  10.574  0.2574 -0.3177  1.7745
 1014MOL0     H39884   9.058   3.501  10.796  2.7754 -0.6555  0.2096
 1014MOL0     H39885   8.972   3.394  10.697 -0.8593  1.5180 -0.3275
 1014MOL0     H39886   9.180   3.377  10.907 -0.6465 -1.6618  1.4891
 1014MOL0     H39887   9.029   3.287  10.920 -0.6849 -0.3240 -0.5087
 1014MOL0     H39888   9.136   3.156  10.711  0.6717  4.3138 -2.3042
 1014MOL0     H39889   9.284   3.191  10.796 -0.3291  0.7120 -1.8401
 1014MOL0     H39890   8.981   2.929  10.747  1.3584  0.4833 -1.5583
 1014MOL0     H39891   8.929   2.580  10.737  0.6711 -0.9067  1.3596
 1014MOL0     H39892   8.995   2.676  10.597 -1.6461 -2.3147  0.7717
 1014MOL0     H39893   8.873   2.743  10.700 -0.0201 -1.1205  0.1403
 1014MOL0     H39894   9.415   2.360  10.710 -1.9984  0.3235 -0.2292
 1014MOL0     H39895   9.450   2.114  10.683 -0.1247  1.9698 -1.9204
 1014MOL0     H39896   9.430   1.854  10.692  2.2046  0.7897 -0.4955
 1014MOL0     H39897   9.526   1.912  10.838  1.0641 -0.0235 -0.8855
 1014MOL0     H39898   9.358   1.662  10.825  3.1333 -2.6586 -3.4030
 1014MOL0     H39899   9.534   1.672  10.826 -1.9849 -1.8629 -0.8045
 1014MOL0     H39900   9.354   1.710  11.054 -0.5862  4.3042 -0.1012
 1014MOL0     H39901   9.463   1.830  11.051 -2.7788  0.4248 -0.3540
 1014MOL0     H39902   9.540   1.649  11.187  2.6933 -3.5875  0.3047
 1014MOL0     H39903   9.663   1.647  11.060  0.6202 -0.0972  1.9859
 1014MOL0     H39904   9.420   1.467  11.129  0.5978  0.3814  1.1597
 1014MOL0     H39905   9.487   1.453  10.968  0.8519  1.7738 -1.5932
 1014MOL0     H39906   9.625   1.447  11.240 -1.4366  0.2587  0.1009
 1014MOL0     H39907   9.714   1.428  11.093 -0.3156  2.7371 -1.7081
 1014MOL0     H39908   9.475   1.236  11.161 -0.0923 -0.6570 -1.1705
 1014MOL0     H39909   9.636   1.195  11.216  1.3176  0.4697  0.3951
 1014MOL0     H39910   9.591   1.233  10.914  0.5935  1.3490  0.6298
 1014MOL0     H39911   9.582   1.092  11.004 -2.1463  1.0008 -0.5139
 1014MOL0     H39912   9.199   2.055  11.031  0.4310 -0.1593  0.6291
 1014MOL0     H39913   9.174   2.294  11.050 -2.5421 -1.5278 -1.9586
 1014MOL0     H39914   9.354   2.699  10.960  0.0630  2.5804  2.1646
 1014MOL0     H39915   9.329   2.952  10.997  2.2755 -1.0122  0.9191
 1014MOL0     H39916   8.273   4.342   9.825  1.1577 -4.3535  0.4166
 1014MOL0     H39917   8.120   4.407   9.637  1.9765  1.6279 -0.1583
 1014MOL0     H39918   8.139   4.320   9.122  0.2501 -0.6073  0.3719
 1014MOL0     H39919   8.031   4.337   8.904 -0.9486  1.0806 -1.1037
 1014MOL0     H39920   7.624   4.444   8.757 -2.0330 -3.4789  2.9929
 1014MOL0     H39921   7.681   4.520   8.902 -1.6787  2.1415 -1.9404
 1014MOL0     H39922   7.815   4.478   8.637 -2.0993  0.7682 -1.0869
 1014MOL0     H39923   7.912   4.517   8.782 -1.6529 -2.3005  0.3528
 1014MOL0     H39924   7.720   4.716   8.658  1.9418 -1.0155 -3.0125
 1014MOL0     H39925   7.810   4.733   8.823  0.9359  0.2830 -0.5280
 1014MOL0     H39926   8.012   4.698   8.675  0.0896  1.7584  1.5127
 1014MOL0     H39927   7.920   4.848   8.671  0.1272 -0.8593  3.5278
 1014MOL0     H39928   7.852   4.754   8.273 -0.0480  1.5803  0.2733
 1014MOL0     H39929   7.646   4.343   9.100 -0.3025  3.3808  1.8592
 1014MOL0     H39930   7.745   4.274   9.451 -2.8275  0.1682  0.9379
 1014MOL0     H39931   7.711   4.438   9.375  0.0546 -0.1527 -1.0499
 1014MOL0     H39932   7.628   4.295   9.330  0.5280  1.7244 -3.1283
 1015MOL0     O39933   4.835   7.640   5.878  0.0016  0.4630 -0.6480
 1015MOL0     C39934   4.878   7.599   5.986  0.6943 -0.3795 -0.8758
 1015MOL0     O39935   4.800   7.529   6.075 -0.3999  0.3196 -0.3716
 1015MOL0     C39936   4.681   7.476   6.035 -0.1011 -0.3314  0.5931
 1015MOL0     C39937   4.565   7.551   6.072  0.0213 -0.6142  0.1923
 1015MOL0     C39938   4.446   7.498   6.029  0.5686  0.1441  0.7590
 1015MOL0     C39939   4.426   7.371   5.974  0.5682 -0.4737  0.2270
 1015MOL0     O39940   4.315   7.309   5.926  0.1287 -0.0099 -0.0780
 1015MOL0     C39941   4.193   7.394   5.907  1.1139 -0.2225  0.1671
 1015MOL0     C39942   4.106   7.316   5.807  0.1475 -0.9422 -0.9278
 1015MOL0     C39943   4.162   7.315   5.666  0.1602 -0.0568 -0.5143
 1015MOL0     C39944   4.118   7.212   5.564 -0.1865 -0.0406 -0.6056
 1015MOL0     C39945   4.202   7.210   5.431  0.4812 -0.0989 -0.1136
 1015MOL0     C39946   4.118   7.131   5.326 -0.8105  0.6225 -0.6383
 1015MOL0     C39947   3.976   7.189   5.301 -0.3182  0.7855  0.4056
 1015MOL0     C39948   3.938   7.160   5.150  0.2579  0.3047 -0.3598
 1015MOL0     N39949   3.806   7.217   5.127 -0.8018 -0.4168  0.4521
 1015MOL0     C39950   3.695   7.185   5.188 -0.1202  0.0772  0.6566
 1015MOL0     C39951   3.600   7.271   5.138 -1.0220 -0.5145  0.7609
 1015MOL0     C39952   3.460   7.284   5.184  0.6904 -0.6837  0.3354
 1015MOL0     C39953   3.455   7.310   5.335  0.3961  0.0793 -1.2245
 1015MOL0     C39954   3.310   7.293   5.392  0.3048 -0.1796 -0.5868
 1015MOL0     C39955   3.313   7.286   5.543 -0.6251 -0.3092 -0.7878
 1015MOL0     O39956   3.189   7.264   5.608 -0.0313 -0.4870  1.0809
 1015MOL0     C39957   3.114   7.148   5.606 -0.7389 -0.0402  0.0593
 1015MOL0     C39958   2.976   7.161   5.629  0.5290  0.2285 -0.2607
 1015MOL0     C39959   2.896   7.045   5.627  0.1065  0.0120 -0.8152
 1015MOL0     C39960   2.748   7.061   5.669 -1.0183 -0.2184  0.1292
 1015MOL0     C39961   2.957   6.913   5.597  0.6403  0.5256  0.7913
 1015MOL0     C39962   2.879   6.788   5.586  0.6765  0.2795 -0.3075
 1015MOL0     O39963   2.955   6.669   5.590  0.3446  0.0283  0.1244
 1015MOL0     C39964   2.896   6.544   5.596  1.0710 -0.9638  0.0708
 1015MOL0     C39965   2.986   6.434   5.611  0.7711  0.0515 -0.1595
 1015MOL0     C39966   2.942   6.303   5.624  0.6187 -0.1094  0.4247
 1015MOL0     C39967   2.806   6.272   5.612 -0.1425 -0.2362  0.4892
 1015MOL0     O39968   2.747   6.148   5.616 -0.5896  0.1304  1.6571
 1015MOL0     C39969   2.817   6.037   5.665  0.7548  0.6591  0.3447
 1015MOL0     C39970   2.776   5.914   5.599 -0.3759  0.7539  0.1422
 1015MOL0     C39971   2.659   5.835   5.667  0.0001  0.2711 -1.3548
 1015MOL0     C39972   2.514   5.869   5.611  0.2556  0.3397  0.4127
 1015MOL0     C39973   2.485   5.826   5.467 -0.3163  0.7187 -0.9378
 1015MOL0     C39974   2.329   5.842   5.444 -0.4553  0.2655  0.6367
 1015MOL0     C39975   2.238   5.749   5.522  0.0741 -0.7646  0.2004
 1015MOL0     C39976   2.091   5.752   5.481  0.5877  0.3556  0.2465
 1015MOL0    Cl39977   2.088   5.674   5.321 -0.1397  0.1502  0.0229
 1015MOL0     C39978   2.712   6.374   5.583 -0.5578 -0.5604  0.4586
 1015MOL0     C39979   2.755   6.510   5.587  0.2703  0.1555  0.5282
 1015MOL0     O39980   2.751   6.794   5.577 -0.8864 -0.3434 -0.3455
 1015MOL0     C39981   3.094   6.909   5.560 -0.3184  0.2713  0.0241
 1015MOL0     C39982   3.161   7.029   5.565 -1.1823 -0.0137  0.6702
 1015MOL0     N39983   3.663   7.353   5.041  0.7738 -0.7096 -0.0504
 1015MOL0     N39984   3.786   7.316   5.035 -0.3650  0.2145 -0.3036
 1015MOL0     C39985   4.544   7.304   5.934 -0.1925 -0.1642  0.0577
 1015MOL0     C39986   4.670   7.347   5.970 -0.9071 -1.2552 -0.9073
 1015MOL0     C39987   5.006   7.661   6.032  0.3435  0.5221  0.6171
 1015MOL0     C39988   5.043   7.644   6.172 -0.4487 -0.7380 -0.2866
 1015MOL0     C39989   5.164   7.694   6.225  0.4079 -0.4269  0.2766
 1015MOL0     C39990   5.265   7.742   6.140 -0.2524 -0.3691  0.2717
 1015MOL0     O39991   5.378   7.785   6.202  0.2819 -0.4377  1.4440
 1015MOL0     C39992   5.507   7.803   6.134 -0.5414 -0.5327  0.0402
 1015MOL0     C39993   5.546   7.666   6.067 -0.3829  0.1027  1.2691
 1015MOL0     C39994   5.665   7.679   5.975  0.3384  0.4467 -0.5713
 1015MOL0     C39995   5.689   7.553   5.904  0.5780 -0.9722 -0.6597
 1015MOL0     C39996   5.793   7.565   5.800  0.6783 -0.2017 -0.3763
 1015MOL0     C39997   5.885   7.566   5.716  0.9191  0.5517  0.1385
 1015MOL0     C39998   5.233   7.751   6.003 -0.3768 -0.4665 -0.2892
 1015MOL0     C39999   5.110   7.716   5.949  0.6250  0.1840  0.2004
 1015MOL0     C40000   5.095   7.731   5.795 -0.4000 -0.2019 -0.6645
 1015MOL0     H40001   4.580   7.650   6.112  4.0834 -0.6838 -0.6454
 1015MOL0     H40002   4.358   7.558   6.049 -1.5600 -2.5162  0.0370
 1015MOL0     H40003   4.218   7.496   5.876 -1.4309  0.2639 -0.5380
 1015MOL0     H40004   4.138   7.408   6.001  1.2866 -0.7748  0.3529
 1015MOL0     H40005   4.103   7.216   5.851 -2.8855  0.2880  2.1156
 1015MOL0     H40006   4.000   7.344   5.799 -0.5862 -2.8334  1.1264
 1015MOL0     H40007   4.121   7.410   5.630 -0.5562  1.3023  3.3798
 1015MOL0     H40008   4.271   7.316   5.662  0.2137 -0.5987  0.5622
 1015MOL0     H40009   4.123   7.110   5.602 -2.6953 -0.8132 -2.1214
 1015MOL0     H40010   4.013   7.227   5.536 -0.6530 -1.9984 -0.0277
 1015MOL0     H40011   4.305   7.177   5.446  1.0475  0.0987 -2.9767
 1015MOL0     H40012   4.203   7.315   5.400  0.3093 -0.7270 -2.4424
 1015MOL0     H40013   4.178   7.134   5.234  0.8470 -0.6674  0.3440
 1015MOL0     H40014   4.097   7.026   5.348 -0.3655  0.4426 -1.0550
 1015MOL0     H40015   3.968   7.297   5.317 -1.7323  0.8561 -0.5872
 1015MOL0     H40016   3.899   7.143   5.364  0.2995 -0.7983  0.0552
 1015MOL0     H40017   4.007   7.211   5.082 -3.7515  2.0965 -3.4845
 1015MOL0     H40018   3.942   7.051   5.140  1.8487  0.1467  1.4235
 1015MOL0     H40019   3.683   7.109   5.265 -0.0942 -0.9231 -0.2960
 1015MOL0     H40020   3.412   7.189   5.157 -0.9559 -0.1508  1.2771
 1015MOL0     H40021   3.423   7.365   5.121  0.7061 -1.2116 -0.3726
 1015MOL0     H40022   3.525   7.243   5.386 -0.5143 -1.1879 -1.5925
 1015MOL0     H40023   3.474   7.416   5.355  0.6853  0.3169 -2.6010
 1015MOL0     H40024   3.248   7.381   5.374  0.4954  0.1419  0.2641
 1015MOL0     H40025   3.273   7.201   5.348 -0.4369  0.3935 -1.1827
 1015MOL0     H40026   3.378   7.203   5.571 -0.2780 -0.3059 -1.5758
 1015MOL0     H40027   3.371   7.370   5.584  1.1040 -1.2177 -1.2734
 1015MOL0     H40028   2.937   7.259   5.653  0.7694  0.1393  0.5345
 1015MOL0     H40029   2.728   7.165   5.693 -3.1280 -0.8892  1.5579
 1015MOL0     H40030   2.723   6.988   5.747 -2.2244 -0.7260 -0.6920
 1015MOL0     H40031   2.678   7.045   5.586 -2.0827  1.7455  0.5811
 1015MOL0     H40032   3.090   6.457   5.633  0.3215  2.4411 -0.2334
 1015MOL0     H40033   3.014   6.223   5.639  0.0964 -0.7816 -0.5032
 1015MOL0     H40034   2.924   6.052   5.643  0.5903  1.9370  0.3271
 1015MOL0     H40035   2.802   6.048   5.773  2.5196  2.0585  0.5006
 1015MOL0     H40036   2.769   5.934   5.492  1.8204  2.9233  0.3198
 1015MOL0     H40037   2.864   5.850   5.603 -1.5946 -0.9431  0.5953
 1015MOL0     H40038   2.668   5.849   5.775 -0.0066 -3.2626 -0.7909
 1015MOL0     H40039   2.675   5.729   5.648  0.7937  0.1590 -0.1018
 1015MOL0     H40040   2.506   5.978   5.607 -1.0427  0.2324 -1.6884
 1015MOL0     H40041   2.441   5.832   5.683 -2.6771  0.7134 -2.1365
 1015MOL0     H40042   2.555   5.884   5.405  2.5090 -1.8643 -0.3864
 1015MOL0     H40043   2.517   5.723   5.453 -0.8789 -0.2191  3.4195
 1015MOL0     H40044   2.321   5.820   5.337  1.6698 -0.5497  0.5927
 1015MOL0     H40045   2.297   5.945   5.461  2.2516  1.6950 -2.0534
 1015MOL0     H40046   2.242   5.785   5.626 -1.7120 -0.2830  0.1257
 1015MOL0     H40047   2.278   5.647   5.516 -0.8479 -1.1825  0.9571
 1015MOL0     H40048   2.048   5.853   5.478 -0.5835 -0.1327 -0.5335
 1015MOL0     H40049   2.036   5.700   5.560  1.6375  0.1987  0.8867
 1015MOL0     H40050   2.607   6.352   5.566 -0.6952  2.5829 -5.4693
 1015MOL0     H40051   2.668   6.574   5.593 -1.2066 -1.8796  2.6530
 1015MOL0     H40052   3.132   6.809   5.543 -1.8164 -0.2604 -0.3665
 1015MOL0     H40053   3.267   7.020   5.543 -1.2491  4.1104 -2.4959
 1015MOL0     H40054   4.537   7.203   5.896 -2.2210 -0.0036 -0.1474
 1015MOL0     H40055   4.761   7.292   5.949 -1.1988 -1.2772 -2.1559
 1015MOL0     H40056   4.958   7.607   6.229  0.5131 -3.8270 -0.6643
 1015MOL0     H40057   5.179   7.685   6.332  1.7010 -0.2317  0.1238
 1015MOL0     H40058   5.497   7.883   6.061  0.3844  0.7663  1.2802
 1015MOL0     H40059   5.581   7.832   6.209 -0.3151 -3.0963  0.9121
 1015MOL0     H40060   5.462   7.622   6.013 -0.3593 -0.1400  1.4297
 1015MOL0     H40061   5.572   7.588   6.139 -0.6666  0.1486  1.4229
 1015MOL0     H40062   5.639   7.759   5.904 -1.5576 -1.9672 -2.7960
 1015MOL0     H40063   5.754   7.715   6.028  0.1080  0.4480 -0.1759
 1015MOL0     H40064   5.599   7.514   5.857  0.0727 -2.5793  1.4579
 1015MOL0     H40065   5.713   7.474   5.976 -0.9877 -0.3592  0.5960
 1015MOL0     H40066   5.950   7.549   5.633 -0.3769 -0.3097 -0.7436
 1015MOL0     H40067   5.314   7.794   5.945  0.3707 -1.9451 -0.3854
 1015MOL0     H40068   5.178   7.790   5.756 -1.6185 -0.9829 -4.9046
 1015MOL0     H40069   5.100   7.629   5.756  1.3630 -1.2643  1.9632
 1015MOL0     H40070   5.009   7.789   5.763 -0.0676  1.8604  1.7947
 1016MOL0     O40071   5.236   1.212   1.385 -0.0680 -0.3015  0.2188
 1016MOL0     C40072   5.300   1.247   1.486  0.1011  0.1745 -0.7393
 1016MOL0     O40073   5.372   1.365   1.508 -0.2046 -0.2908 -0.5146
 1016MOL0     C40074   5.404   1.387   1.638  0.0091 -0.7284  0.7432
 1016MOL0     C40075   5.335   1.483   1.715  0.5302 -0.0879 -0.2828
 1016MOL0     C40076   5.366   1.517   1.845 -1.0206  0.6762 -0.4895
 1016MOL0     C40077   5.485   1.475   1.899  0.7261 -0.5261 -0.5869
 1016MOL0     O40078   5.494   1.495   2.036 -0.5065  0.5184 -0.8939
 1016MOL0     C40079   5.617   1.472   2.107  0.5684 -0.1290 -0.7936
 1016MOL0     C40080   5.580   1.463   2.250  0.4213  0.0412  0.1665
 1016MOL0     C40081   5.709   1.473   2.325  0.6261  0.3909 -1.2239
 1016MOL0     C40082   5.682   1.508   2.470 -0.0797 -0.9764 -0.1284
 1016MOL0     C40083   5.820   1.489   2.540 -0.0280  0.4426  0.4205
 1016MOL0     C40084   5.804   1.478   2.690 -0.5478 -0.2412 -0.6988
 1016MOL0     C40085   5.929   1.429   2.766  0.0788  0.1644  0.3464
 1016MOL0     C40086   6.032   1.546   2.750 -0.6842  0.6362 -0.5500
 1016MOL0     N40087   6.166   1.517   2.808  0.1234 -0.5682 -0.2558
 1016MOL0     C40088   6.185   1.452   2.928 -0.0266  0.2733  0.9631
 1016MOL0     C40089   6.314   1.495   2.958 -0.3896  0.2298 -0.2223
 1016MOL0     C40090   6.390   1.455   3.081  0.7021  0.2611 -0.3182
 1016MOL0     C40091   6.536   1.417   3.048  0.1894 -0.0895 -0.5187
 1016MOL0     C40092   6.611   1.352   3.169  0.2619  0.5673  1.0021
 1016MOL0     C40093   6.631   1.439   3.288 -0.1329  0.9166  0.0613
 1016MOL0     O40094   6.658   1.573   3.259 -0.1079  0.5407 -0.3039
 1016MOL0     C40095   6.682   1.669   3.348  0.0669  1.1944  0.1435
 1016MOL0     C40096   6.748   1.775   3.303 -0.6523 -0.2568  0.0997
 1016MOL0     C40097   6.809   1.874   3.388 -0.0911  0.4124  0.1597
 1016MOL0     C40098   6.855   2.005   3.322 -0.7010  0.6440 -0.4213
 1016MOL0     C40099   6.786   1.848   3.527 -1.0194 -0.3499  0.0261
 1016MOL0     C40100   6.831   1.944   3.638 -0.2216 -0.4340  0.3150
 1016MOL0     O40101   6.789   1.907   3.763 -0.0804 -0.9802  0.6055
 1016MOL0     C40102   6.845   1.986   3.856 -1.1468  1.0669  0.1264
 1016MOL0     C40103   6.941   1.925   3.946 -0.1155 -0.6975 -0.4272
 1016MOL0     C40104   6.995   1.997   4.056  0.5026  0.3740 -0.2710
 1016MOL0     C40105   6.942   2.127   4.085  0.0677  0.2195 -0.3862
 1016MOL0     O40106   7.015   2.194   4.190  0.0274  0.4332  0.5176
 1016MOL0     C40107   6.981   2.338   4.227  0.1819  0.8545  1.0586
 1016MOL0     C40108   7.085   2.385   4.323  0.4022 -0.9761  0.7010
 1016MOL0     C40109   7.025   2.479   4.427  0.3556 -0.0920  0.2910
 1016MOL0     C40110   7.092   2.460   4.567 -1.1466 -0.4055  0.1139
 1016MOL0     C40111   7.029   2.531   4.684 -0.2720  0.3832 -0.6055
 1016MOL0     C40112   7.038   2.677   4.690 -0.1290 -0.6025 -1.2174
 1016MOL0     C40113   6.956   2.727   4.825 -0.0264  0.7127  0.1235
 1016MOL0     C40114   7.040   2.711   4.948  0.7825 -1.1349 -0.7585
 1016MOL0    Cl40115   7.174   2.824   4.943  0.5311 -0.0918 -0.2856
 1016MOL0     C40116   6.847   2.183   4.006  0.0254  0.5827 -0.8532
 1016MOL0     C40117   6.798   2.118   3.896 -0.6114  0.0363  0.8522
 1016MOL0     O40118   6.918   2.031   3.612  0.6262 -0.4132 -0.0842
 1016MOL0     C40119   6.719   1.732   3.571 -0.1554  0.1073  0.2743
 1016MOL0     C40120   6.663   1.641   3.477  0.0504  0.2522 -0.6606
 1016MOL0     N40121   6.368   1.589   2.870 -0.5296  0.2604  0.4750
 1016MOL0     N40122   6.275   1.601   2.777 -0.6366 -0.7557 -0.4024
 1016MOL0     C40123   5.566   1.398   1.816  0.4773 -0.4525 -0.6344
 1016MOL0     C40124   5.525   1.347   1.695 -0.3300 -1.2189  0.4230
 1016MOL0     C40125   5.293   1.146   1.592  0.7303  0.3455  0.8056
 1016MOL0     C40126   5.206   1.163   1.706 -0.8429  0.1184 -0.5130
 1016MOL0     C40127   5.188   1.052   1.797  0.0321 -0.2513 -0.0236
 1016MOL0     C40128   5.252   0.928   1.764  0.2548  0.0306 -0.1106
 1016MOL0     O40129   5.248   0.818   1.849 -0.4832 -0.7299  0.8050
 1016MOL0     C40130   5.120   0.770   1.894  0.2236  0.5112 -0.7168
 1016MOL0     C40131   5.146   0.629   1.950  0.3369 -0.0680 -0.1822
 1016MOL0     C40132   5.225   0.625   2.094 -0.6492  0.9492 -0.0944
 1016MOL0     C40133   5.176   0.505   2.173 -0.3400 -0.7928  0.3995
 1016MOL0     C40134   5.040   0.534   2.214  0.0957 -0.2309  1.2028
 1016MOL0     C40135   4.925   0.553   2.250 -0.0534  0.4112 -1.4425
 1016MOL0     C40136   5.334   0.923   1.649  0.3715 -0.2806  0.1721
 1016MOL0     C40137   5.346   1.021   1.552  0.0136  0.1483 -1.1863
 1016MOL0     C40138   5.432   0.997   1.438 -0.6012 -0.3539 -0.2843
 1016MOL0     H40139   5.246   1.532   1.676  0.4944 -0.3908 -0.5915
 1016MOL0     H40140   5.299   1.581   1.901  0.3468  1.1719  0.6274
 1016MOL0     H40141   5.688   1.551   2.079 -0.5342  0.0257 -3.4460
 1016MOL0     H40142   5.660   1.375   2.080 -2.4218 -2.0549  0.7959
 1016MOL0     H40143   5.506   1.539   2.279 -2.1012 -1.7496 -1.1447
 1016MOL0     H40144   5.531   1.369   2.278  0.3702 -0.1226 -0.4462
 1016MOL0     H40145   5.756   1.375   2.316 -0.6116 -0.1861 -1.7072
 1016MOL0     H40146   5.769   1.560   2.297 -1.5884  1.8905 -1.5902
 1016MOL0     H40147   5.653   1.614   2.471 -1.3898 -1.2238  3.3627
 1016MOL0     H40148   5.603   1.455   2.524 -0.9090  1.6767  1.4470
 1016MOL0     H40149   5.894   1.561   2.505 -0.0607  1.3534  2.0916
 1016MOL0     H40150   5.867   1.394   2.513 -0.6042 -0.4347  2.3321
 1016MOL0     H40151   5.765   1.569   2.735  2.8689  1.0738 -0.0957
 1016MOL0     H40152   5.737   1.394   2.711  2.3996 -2.8315 -0.9664
 1016MOL0     H40153   5.976   1.344   2.715 -2.0171  0.3394 -2.0575
 1016MOL0     H40154   5.896   1.410   2.868  0.7288  1.6669  0.8596
 1016MOL0     H40155   6.048   1.579   2.646 -0.6434  0.3901 -0.6231
 1016MOL0     H40156   6.001   1.632   2.809  1.2931  2.9391 -2.5952
 1016MOL0     H40157   6.119   1.374   2.964  0.9413 -1.4272 -0.7873
 1016MOL0     H40158   6.329   1.380   3.132 -0.4120  2.8204  2.4490
 1016MOL0     H40159   6.385   1.545   3.144 -1.4902 -1.6885  2.5462
 1016MOL0     H40160   6.536   1.342   2.968  0.0557  2.2579 -2.8769
 1016MOL0     H40161   6.584   1.510   3.016  0.6254  0.4749  1.6149
 1016MOL0     H40162   6.560   1.261   3.201  3.3813 -2.1076 -1.0598
 1016MOL0     H40163   6.714   1.327   3.142  0.7328  4.3125 -1.4049
 1016MOL0     H40164   6.539   1.420   3.344  0.9237 -0.5504  1.3650
 1016MOL0     H40165   6.708   1.399   3.355  1.1819  0.8878 -1.3944
 1016MOL0     H40166   6.762   1.788   3.196 -2.0471 -2.2324 -0.3776
 1016MOL0     H40167   6.869   1.992   3.214 -3.4712 -1.9636 -0.5981
 1016MOL0     H40168   6.949   2.036   3.368  1.1561 -0.4478 -3.1900
 1016MOL0     H40169   6.781   2.084   3.341 -1.9037 -0.2280 -1.2875
 1016MOL0     H40170   6.977   1.828   3.913  5.1143  0.9760 -0.4737
 1016MOL0     H40171   7.066   1.951   4.124 -2.1367 -1.4322  1.4614
 1016MOL0     H40172   6.980   2.402   4.138  1.3791  1.3483  1.3777
 1016MOL0     H40173   6.881   2.344   4.272 -1.0677  4.6234 -1.7463
 1016MOL0     H40174   7.130   2.296   4.369 -0.5236 -2.8136 -1.7293
 1016MOL0     H40175   7.148   2.443   4.256  1.7246 -3.3850 -0.2699
 1016MOL0     H40176   6.917   2.466   4.430  0.3876 -0.8705 -1.0424
 1016MOL0     H40177   7.034   2.579   4.384  1.2864 -1.2514 -2.4286
 1016MOL0     H40178   7.195   2.493   4.550 -1.8666  1.0433 -1.9717
 1016MOL0     H40179   7.085   2.353   4.585 -0.9975 -1.0150 -2.8635
 1016MOL0     H40180   6.925   2.498   4.670  0.7395 -2.1253 -3.2769
 1016MOL0     H40181   7.061   2.487   4.779 -0.0719 -0.7209 -1.1637
 1016MOL0     H40182   7.007   2.736   4.603  0.8521 -1.6663 -2.3271
 1016MOL0     H40183   7.142   2.701   4.714 -1.2743  1.9754  1.9409
 1016MOL0     H40184   6.861   2.673   4.836  0.3192  0.6097  3.7991
 1016MOL0     H40185   6.942   2.835   4.817  6.4985  1.8592 -1.9703
 1016MOL0     H40186   7.089   2.613   4.952 -0.3041 -1.6576  0.5873
 1016MOL0     H40187   6.989   2.742   5.039  2.5075  1.3326 -0.5331
 1016MOL0     H40188   6.799   2.276   4.036 -0.5588  0.0741 -0.1884
 1016MOL0     H40189   6.718   2.175   3.850 -0.3331  1.6058  2.2333
 1016MOL0     H40190   6.707   1.707   3.676  1.3361 -1.9131  0.0109
 1016MOL0     H40191   6.601   1.559   3.512 -1.0618  0.1982 -2.6459
 1016MOL0     H40192   5.659   1.354   1.852 -0.3123 -2.9115 -1.3764
 1016MOL0     H40193   5.593   1.273   1.655  2.0040  0.9826  0.0648
 1016MOL0     H40194   5.160   1.254   1.742 -1.5087 -0.4768  0.1820
 1016MOL0     H40195   5.137   1.069   1.891 -0.1544  0.8437 -0.3174
 1016MOL0     H40196   5.085   0.841   1.969  1.6807  0.1747  0.3196
 1016MOL0     H40197   5.058   0.769   1.804 -0.7869  0.4997 -0.0310
 1016MOL0     H40198   5.183   0.561   1.874  1.5428 -2.0427  2.0553
 1016MOL0     H40199   5.042   0.597   1.962 -0.0544  1.3764  0.5313
 1016MOL0     H40200   5.331   0.600   2.081 -0.4941  0.8181  1.2626
 1016MOL0     H40201   5.223   0.722   2.145  1.2920  1.9293 -1.6993
 1016MOL0     H40202   5.246   0.481   2.253  3.0531  3.0187 -1.0909
 1016MOL0     H40203   5.167   0.415   2.112 -0.1076 -1.8213  1.8118
 1016MOL0     H40204   4.829   0.563   2.295  1.5874  0.3108  2.5221
 1016MOL0     H40205   5.380   0.825   1.635 -1.4013 -0.9369 -1.4391
 1016MOL0     H40206   5.383   1.001   1.340  0.6524 -0.0602 -0.9219
 1016MOL0     H40207   5.504   1.080   1.431  0.3934 -1.1821 -0.1734
 1016MOL0     H40208   5.516   0.926   1.437  1.5770  1.9637 -3.0682
 1017MOL0     O40209   6.016   0.605   0.953 -0.0890  0.9439  0.0383
 1017MOL0     C40210   6.067   0.547   1.051 -0.2978  0.1026 -0.4104
 1017MOL0     O40211   6.166   0.449   1.034 -0.4987 -0.1030  0.1864
 1017MOL0     C40212   6.227   0.427   0.915 -0.1083  0.2955  0.0045
 1017MOL0     C40213   6.250   0.293   0.887 -0.0831 -0.6443 -0.4265
 1017MOL0     C40214   6.308   0.258   0.767 -0.3869 -0.5608 -0.1614
 1017MOL0     C40215   6.354   0.355   0.666  0.1643  0.5579  0.3707
 1017MOL0     O40216   6.406   0.306   0.552 -0.5329  0.3602 -0.5264
 1017MOL0     C40217   6.405   0.400   0.436 -1.1965 -0.2701  1.2235
 1017MOL0     C40218   6.411   0.321   0.307  0.5283  0.3356  0.4706
 1017MOL0     C40219   6.308   0.217   0.302 -0.5116  0.2663  0.1826
 1017MOL0     C40220   6.302   0.152   0.166  0.5631  0.0872  0.5351
 1017MOL0     C40221   6.188   0.041   0.151 -0.3204  0.3939  0.3604
 1017MOL0     C40222   6.194  -0.080   0.243  0.7358  0.8078  0.2599
 1017MOL0     C40223   6.086  -0.180   0.205  0.6661 -0.1550 -0.5274
 1017MOL0     C40224   6.077  -0.296   0.308  0.0515 -0.3385 -0.0962
 1017MOL0     N40225   5.962  -0.381   0.271 -0.0965  0.1952 -0.0722
 1017MOL0     C40226   5.841  -0.373   0.323 -0.0698  0.6123 -0.1048
 1017MOL0     C40227   5.774  -0.494   0.311 -0.4960 -0.6509  0.0635
 1017MOL0     C40228   5.633  -0.540   0.345 -1.4133  0.3690  0.1912
 1017MOL0     C40229   5.604  -0.557   0.495  0.5725 -0.4247  0.8097
 1017MOL0     C40230   5.715  -0.627   0.572  0.2576  0.0785  0.4318
 1017MOL0     C40231   5.771  -0.765   0.525  0.6123 -1.2101 -0.0941
 1017MOL0     O40232   5.666  -0.845   0.473  0.3291 -0.2966 -0.0008
 1017MOL0     C40233   5.620  -0.963   0.525  0.3859 -0.1044 -0.7658
 1017MOL0     C40234   5.576  -0.972   0.654  0.0958  0.8123  0.6600
 1017MOL0     C40235   5.513  -1.102   0.691  0.4454  0.2304 -0.4223
 1017MOL0     C40236   5.447  -1.093   0.834  0.6023  0.4785 -0.1705
 1017MOL0     C40237   5.481  -1.203   0.594  0.7189  0.5964 -0.5591
 1017MOL0     C40238   5.425  -1.342   0.633 -0.1440  0.0548  0.5465
 1017MOL0     O40239   5.422  -1.440   0.526  0.8703 -0.0485  0.4155
 1017MOL0     C40240   5.335  -1.544   0.526 -0.1925  0.5550 -0.1106
 1017MOL0     C40241   5.387  -1.645   0.452  0.0458  0.4724 -0.6397
 1017MOL0     C40242   5.312  -1.762   0.441  1.1610 -0.5064  0.3467
 1017MOL0     C40243   5.192  -1.784   0.507 -0.7520  0.0047  0.4045
 1017MOL0     O40244   5.116  -1.899   0.506  0.4400 -0.4669 -0.3224
 1017MOL0     C40245   5.086  -1.975   0.392 -0.2504 -0.0012  0.3518
 1017MOL0     C40246   4.977  -1.896   0.319  0.4407  0.2352  0.7233
 1017MOL0     C40247   4.898  -1.996   0.230 -0.3274 -0.1092 -0.7546
 1017MOL0     C40248   4.786  -1.936   0.142  0.4791  0.2234  1.2677
 1017MOL0     C40249   4.652  -1.931   0.222 -0.8524  0.0666  0.6801
 1017MOL0     C40250   4.542  -1.871   0.143 -0.3950 -0.9101 -0.3567
 1017MOL0     C40251   4.457  -1.784   0.246 -0.0734  0.4718  0.5540
 1017MOL0     C40252   4.446  -1.831   0.390 -0.0266  0.5014  0.2811
 1017MOL0    Cl40253   4.303  -1.749   0.461  0.1659 -0.4932 -0.1764
 1017MOL0     C40254   5.140  -1.676   0.588  0.1200  0.6315  0.9785
 1017MOL0     C40255   5.214  -1.563   0.595 -0.4657 -0.0595 -0.4987
 1017MOL0     O40256   5.377  -1.360   0.745  0.1575  0.1098 -0.1352
 1017MOL0     C40257   5.526  -1.181   0.464 -0.5073 -0.1859  0.0258
 1017MOL0     C40258   5.593  -1.054   0.429  0.6839 -0.3325 -0.7007
 1017MOL0     N40259   5.871  -0.575   0.248 -0.2326 -0.4793 -0.1022
 1017MOL0     N40260   5.981  -0.509   0.222 -0.0355  0.4288 -0.2804
 1017MOL0     C40261   6.328   0.486   0.702 -1.1896  1.0202 -0.8613
 1017MOL0     C40262   6.266   0.520   0.822  1.0568 -0.4706 -0.2951
 1017MOL0     C40263   5.997   0.547   1.180 -0.1419 -0.5157  0.4110
 1017MOL0     C40264   6.088   0.560   1.287  0.5409  0.0952  0.7322
 1017MOL0     C40265   6.034   0.568   1.420 -0.7857 -0.1136 -0.3147
 1017MOL0     C40266   5.900   0.573   1.448 -1.0170  0.2471 -0.2772
 1017MOL0     O40267   5.871   0.582   1.586 -0.0500 -0.2065 -0.2457
 1017MOL0     C40268   5.764   0.673   1.609 -0.4600  0.0434 -0.5528
 1017MOL0     C40269   5.841   0.802   1.643  0.7236 -0.9515  1.4610
 1017MOL0     C40270   5.758   0.925   1.668 -0.6716  0.2627  0.1526
 1017MOL0     C40271   5.846   1.056   1.695  0.4245 -0.4834 -0.1178
 1017MOL0     C40272   5.903   1.091   1.565 -0.3813  1.0996 -0.1698
 1017MOL0     C40273   5.979   1.119   1.474  0.7941  0.2152  0.8504
 1017MOL0     C40274   5.813   0.551   1.340 -0.3631 -0.0226 -0.3858
 1017MOL0     C40275   5.853   0.531   1.203 -0.7702  0.8286  0.0354
 1017MOL0     C40276   5.752   0.505   1.088  0.2048  0.2713  0.2728
 1017MOL0     H40277   6.233   0.224   0.968  2.5710 -0.0730  0.7117
 1017MOL0     H40278   6.343   0.156   0.757  1.0669 -0.1302  0.1886
 1017MOL0     H40279   6.490   0.468   0.442 -1.9271  0.5096  4.5523
 1017MOL0     H40280   6.315   0.462   0.436 -0.5787  0.6801 -0.3206
 1017MOL0     H40281   6.408   0.384   0.217  2.3350 -1.5560 -1.0271
 1017MOL0     H40282   6.506   0.268   0.323 -0.6644 -1.9141  0.4704
 1017MOL0     H40283   6.326   0.135   0.372  0.0227 -0.6794 -1.0357
 1017MOL0     H40284   6.207   0.258   0.313 -0.4884  0.0278  1.5067
 1017MOL0     H40285   6.284   0.228   0.089 -1.6929 -1.0383 -0.1350
 1017MOL0     H40286   6.394   0.094   0.157 -0.4684 -1.5369 -0.1519
 1017MOL0     H40287   6.189   0.010   0.046  3.6854  0.7525  0.1498
 1017MOL0     H40288   6.093   0.086   0.180 -1.6898 -0.7676 -2.0184
 1017MOL0     H40289   6.287  -0.129   0.214 -1.0633 -2.1087 -0.9697
 1017MOL0     H40290   6.194  -0.049   0.349 -1.1646  0.6092  0.3539
 1017MOL0     H40291   6.115  -0.231   0.113  0.6380 -0.0820 -0.5770
 1017MOL0     H40292   5.990  -0.128   0.199  1.3763  1.3915  0.5499
 1017MOL0     H40293   6.166  -0.359   0.304 -1.8445 -3.1704 -0.4979
 1017MOL0     H40294   6.071  -0.261   0.411  0.5252  1.5571 -0.6736
 1017MOL0     H40295   5.795  -0.284   0.363 -1.0753 -0.6128  1.6047
 1017MOL0     H40296   5.617  -0.640   0.305  1.0188 -0.4707  1.1163
 1017MOL0     H40297   5.557  -0.469   0.310 -2.6379 -0.0638  1.8335
 1017MOL0     H40298   5.602  -0.453   0.528  1.3869  0.1835 -0.9209
 1017MOL0     H40299   5.510  -0.612   0.507  0.4977 -0.8341 -1.2244
 1017MOL0     H40300   5.804  -0.562   0.572  1.5799 -1.4901 -3.0600
 1017MOL0     H40301   5.683  -0.630   0.677  0.8584  2.0053  0.7249
 1017MOL0     H40302   5.832  -0.737   0.439 -0.2250 -1.0751 -0.6500
 1017MOL0     H40303   5.830  -0.818   0.600  2.2170  0.8943  0.2029
 1017MOL0     H40304   5.598  -0.903   0.735 -0.2911  1.5246  0.1727
 1017MOL0     H40305   5.470  -1.170   0.908  2.9176  1.6058  0.3879
 1017MOL0     H40306   5.339  -1.090   0.820  0.8090  0.3614 -2.0096
 1017MOL0     H40307   5.478  -1.002   0.887  1.0170 -0.8980  2.1084
 1017MOL0     H40308   5.486  -1.631   0.410 -0.1909  0.0058 -1.3622
 1017MOL0     H40309   5.359  -1.841   0.383  0.5421 -0.0868 -0.7496
 1017MOL0     H40310   5.170  -1.987   0.324 -0.1649 -0.9652  0.6206
 1017MOL0     H40311   5.042  -2.073   0.415 -3.0513  1.0221 -0.2407
 1017MOL0     H40312   4.907  -1.861   0.395 -1.6231 -3.0707  0.5813
 1017MOL0     H40313   4.999  -1.807   0.261  0.5646 -0.9962 -1.2276
 1017MOL0     H40314   4.861  -2.076   0.294  1.2518 -2.1942 -2.3202
 1017MOL0     H40315   4.960  -2.050   0.158 -0.3109 -0.8763 -0.1792
 1017MOL0     H40316   4.774  -2.004   0.057  1.3165  0.1379  1.2047
 1017MOL0     H40317   4.817  -1.842   0.095 -1.6971  0.7076  0.6855
 1017MOL0     H40318   4.619  -2.032   0.250  0.7433 -0.1027  2.1355
 1017MOL0     H40319   4.671  -1.880   0.317  1.1198  0.5159  0.0915
 1017MOL0     H40320   4.475  -1.943   0.094 -4.2392  2.0756  0.0225
 1017MOL0     H40321   4.592  -1.807   0.070 -2.4283  0.4309 -0.6602
 1017MOL0     H40322   4.357  -1.769   0.204 -0.0693 -1.0156 -0.0617
 1017MOL0     H40323   4.507  -1.687   0.256  1.6501 -0.4308  1.0963
 1017MOL0     H40324   4.537  -1.830   0.450  0.6136  0.6526 -0.6681
 1017MOL0     H40325   4.429  -1.939   0.389  2.6443  0.0009  1.2004
 1017MOL0     H40326   5.040  -1.683   0.630  0.7865 -1.1711  2.3972
 1017MOL0     H40327   5.177  -1.479   0.653 -1.0956  0.6126 -1.8216
 1017MOL0     H40328   5.520  -1.250   0.380 -0.6586  0.2966 -0.3639
 1017MOL0     H40329   5.621  -1.039   0.326 -3.0093 -0.4933 -1.8691
 1017MOL0     H40330   6.347   0.562   0.627  0.9889  2.2804  0.8199
 1017MOL0     H40331   6.242   0.624   0.846 -0.5467 -0.9833  0.5119
 1017MOL0     H40332   6.194   0.570   1.265  0.9224 -1.5316  1.6733
 1017MOL0     H40333   6.111   0.579   1.496 -0.1576  0.9498 -1.0867
 1017MOL0     H40334   5.693   0.690   1.528 -2.1814  0.6218  1.0164
 1017MOL0     H40335   5.705   0.645   1.697  0.0301  0.5709 -0.0406
 1017MOL0     H40336   5.915   0.814   1.563 -1.8561  0.8243 -0.8241
 1017MOL0     H40337   5.894   0.765   1.732  1.8024 -3.9035 -0.2660
 1017MOL0     H40338   5.688   0.939   1.586  1.8131 -1.5513 -2.4897
 1017MOL0     H40339   5.707   0.895   1.760 -0.0279 -4.1377 -0.6665
 1017MOL0     H40340   5.929   1.041   1.764 -0.7346 -2.6806  0.9187
 1017MOL0     H40341   5.769   1.122   1.733 -3.4412 -3.2508 -2.3887
 1017MOL0     H40342   6.038   1.149   1.390  0.3114 -0.6849  0.1722
 1017MOL0     H40343   5.710   0.528   1.367 -1.1494  4.2594  1.1260
 1017MOL0     H40344   5.681   0.429   1.122  1.4080 -0.0783  2.1600
 1017MOL0     H40345   5.700   0.601   1.081  0.4661  0.6978  2.9357
 1017MOL0     H40346   5.805   0.479   0.997 -1.9122  0.4790 -1.0939
 1018MOL0     O40347   3.173   7.665   6.843 -0.6475  0.3944 -0.7696
 1018MOL0     C40348   3.289   7.656   6.809 -0.0397 -1.1884 -0.1723
 1018MOL0     O40349   3.380   7.547   6.817 -0.1460 -0.0829  0.3449
 1018MOL0     C40350   3.314   7.428   6.837  0.2369  0.9578  0.4999
 1018MOL0     C40351   3.350   7.336   6.939  0.3043  0.0201  0.6205
 1018MOL0     C40352   3.286   7.220   6.957  0.4069 -0.5899 -0.9499
 1018MOL0     C40353   3.190   7.178   6.870  0.8429 -0.4492 -0.7210
 1018MOL0     O40354   3.142   7.061   6.884 -0.2998  1.3964  0.1818
 1018MOL0     C40355   3.229   6.954   6.834 -0.1230 -0.3184  0.2712
 1018MOL0     C40356   3.161   6.816   6.843  0.0969  0.0704  0.3166
 1018MOL0     C40357   3.131   6.779   6.987  0.1680 -0.0180  0.1812
 1018MOL0     C40358   3.050   6.657   7.002  0.5161 -0.2741  0.3101
 1018MOL0     C40359   3.052   6.597   7.149  0.3743  0.3268  0.3021
 1018MOL0     C40360   2.958   6.677   7.243  0.0933  0.1909 -0.2519
 1018MOL0     C40361   2.963   6.615   7.384  0.7477  1.0211 -0.4059
 1018MOL0     C40362   2.866   6.689   7.470  0.5880 -0.4102  0.3056
 1018MOL0     N40363   2.895   6.828   7.491 -0.8379 -0.3384  0.5832
 1018MOL0     C40364   2.832   6.933   7.432 -0.7511  0.0874 -0.5264
 1018MOL0     C40365   2.881   7.047   7.488  1.1957 -0.2395 -0.5220
 1018MOL0     C40366   2.846   7.193   7.487  0.3885  0.2106 -0.3638
 1018MOL0     C40367   2.815   7.246   7.338  0.1398  0.3239  0.5915
 1018MOL0     C40368   2.944   7.257   7.259  0.1406  0.5291 -0.0413
 1018MOL0     C40369   2.923   7.312   7.126  0.4387 -0.3732 -0.1499
 1018MOL0     O40370   2.813   7.261   7.043 -0.8247  0.0526 -0.3899
 1018MOL0     C40371   2.812   7.315   6.915 -0.3034  0.3798  0.4059
 1018MOL0     C40372   2.729   7.261   6.818  0.8605  0.8210 -0.1967
 1018MOL0     C40373   2.733   7.310   6.684 -0.2861  0.5757 -0.2489
 1018MOL0     C40374   2.633   7.242   6.592 -0.5091 -0.3517 -0.3398
 1018MOL0     C40375   2.812   7.424   6.647  0.1197  0.8315 -0.6927
 1018MOL0     C40376   2.806   7.499   6.514 -0.3422  0.7660 -0.2941
 1018MOL0     O40377   2.821   7.634   6.509 -0.5665 -0.6442 -0.8848
 1018MOL0     C40378   2.802   7.706   6.390 -1.0238 -0.1645  0.2028
 1018MOL0     C40379   2.881   7.823   6.367  1.4498 -1.3330  0.6305
 1018MOL0     C40380   2.856   7.904   6.255  0.1511  0.7786  0.0090
 1018MOL0     C40381   2.755   7.868   6.166  0.4047 -0.2307  0.8193
 1018MOL0     O40382   2.724   7.939   6.057  0.0371  0.0368  0.3848
 1018MOL0     C40383   2.809   7.891   5.947  0.1725 -0.8802  0.3924
 1018MOL0     C40384   2.726   7.863   5.825  0.4032  0.1811 -0.0549
 1018MOL0     C40385   2.810   7.803   5.715 -0.0616 -0.7721 -0.0354
 1018MOL0     C40386   2.728   7.738   5.604 -0.1307 -0.6560 -0.2528
 1018MOL0     C40387   2.807   7.663   5.515 -0.3166 -0.2361  0.3231
 1018MOL0     C40388   2.733   7.608   5.383  0.8557 -0.1117 -0.7862
 1018MOL0     C40389   2.805   7.504   5.298 -1.6562 -0.8501 -0.8147
 1018MOL0     C40390   2.839   7.386   5.392 -0.5811 -0.3099 -0.0717
 1018MOL0    Cl40391   2.864   7.240   5.298 -0.2082  0.2084  0.2089
 1018MOL0     C40392   2.680   7.758   6.185 -0.1890 -0.3787 -0.2205
 1018MOL0     C40393   2.707   7.681   6.296  0.5347 -0.0186 -0.1724
 1018MOL0     O40394   2.808   7.424   6.414  0.1381 -0.1821 -0.3431
 1018MOL0     C40395   2.884   7.486   6.754  0.3245 -0.1841 -0.6921
 1018MOL0     C40396   2.889   7.429   6.874 -0.9307 -0.1380 -0.1569
 1018MOL0     N40397   2.976   7.004   7.580  0.5341  1.4028 -1.1268
 1018MOL0     N40398   2.988   6.875   7.579 -1.0833  0.3285  0.3096
 1018MOL0     C40399   3.144   7.268   6.769  1.0242  0.2026  0.2336
 1018MOL0     C40400   3.208   7.387   6.753  0.3876  0.5118  0.7381
 1018MOL0     C40401   3.363   7.789   6.814 -0.4134 -0.5094  0.1974
 1018MOL0     C40402   3.497   7.787   6.867  0.1414  0.6143  0.8288
 1018MOL0     C40403   3.581   7.893   6.888  0.1757 -0.9258  0.2585
 1018MOL0     C40404   3.522   8.021   6.868 -0.3592 -0.5557 -0.4690
 1018MOL0     O40405   3.599   8.130   6.879 -0.3939 -0.7992  0.0383
 1018MOL0     C40406   3.699   8.138   6.977  0.0424  0.7342 -0.1103
 1018MOL0     C40407   3.722   8.288   6.990 -0.3192 -0.9212  0.5365
 1018MOL0     C40408   3.857   8.309   7.063  0.1323 -0.0343 -0.2471
 1018MOL0     C40409   3.883   8.437   7.124  0.1732  0.5648  0.5365
 1018MOL0     C40410   3.875   8.543   7.025  0.1166 -0.4429  0.5806
 1018MOL0     C40411   3.869   8.632   6.944  0.1469 -0.1086  1.0097
 1018MOL0     C40412   3.393   8.032   6.819  0.6925 -0.3617 -0.0363
 1018MOL0     C40413   3.316   7.917   6.789  1.0128 -0.2893  0.0083
 1018MOL0     C40414   3.180   7.938   6.727  0.2567 -1.0534  0.5763
 1018MOL0     H40415   3.435   7.371   6.997 -1.8048  1.7098  2.8952
 1018MOL0     H40416   3.324   7.159   7.038  3.7130  3.6883  1.1939
 1018MOL0     H40417   3.327   6.949   6.883 -1.0084  0.3641  2.1887
 1018MOL0     H40418   3.246   6.971   6.727  1.2632  1.9461  0.7847
 1018MOL0     H40419   3.072   6.828   6.780 -0.0390 -1.4140  0.1907
 1018MOL0     H40420   3.225   6.740   6.797  0.7339  1.7766 -1.7221
 1018MOL0     H40421   3.225   6.767   7.041 -0.5970  1.3044  1.8992
 1018MOL0     H40422   3.077   6.862   7.034  0.7814 -0.3959  1.5954
 1018MOL0     H40423   2.947   6.677   6.969 -0.1309 -2.8009  0.5762
 1018MOL0     H40424   3.106   6.593   6.933  1.3601  1.0960 -0.3113
 1018MOL0     H40425   3.153   6.581   7.189 -0.6497  0.5059  3.2003
 1018MOL0     H40426   3.013   6.495   7.140  2.0876 -0.3308 -0.0507
 1018MOL0     H40427   3.011   6.772   7.238  1.9214 -0.7251 -6.0166
 1018MOL0     H40428   2.866   6.687   7.184  0.1487  0.9100 -0.2274
 1018MOL0     H40429   3.066   6.630   7.418  2.1181 -2.1136 -2.6797
 1018MOL0     H40430   2.949   6.507   7.393  3.4241  0.6543 -0.0557
 1018MOL0     H40431   2.768   6.677   7.423 -0.4957 -2.4577  2.8429
 1018MOL0     H40432   2.857   6.646   7.570 -0.0741 -0.6479  0.1458
 1018MOL0     H40433   2.755   6.925   7.356 -2.2091 -1.0536  0.9977
 1018MOL0     H40434   2.929   7.247   7.533  0.4512  0.4371 -0.7414
 1018MOL0     H40435   2.754   7.209   7.544 -1.0689  0.2015 -2.5868
 1018MOL0     H40436   2.761   7.162   7.295  3.6121 -2.5378  1.2867
 1018MOL0     H40437   2.767   7.344   7.327  0.1384  0.3247  0.6059
 1018MOL0     H40438   3.025   7.314   7.304  0.5275 -0.9221  1.1842
 1018MOL0     H40439   2.985   7.155   7.256 -1.5095 -0.1876  0.3642
 1018MOL0     H40440   2.909   7.418   7.153  1.2071 -0.6041  1.2814
 1018MOL0     H40441   3.018   7.311   7.071  0.2041  1.0149 -0.6283
 1018MOL0     H40442   2.685   7.166   6.848  0.9391  0.9672  0.4014
 1018MOL0     H40443   2.597   7.321   6.525 -1.4677 -0.3404  0.1681
 1018MOL0     H40444   2.544   7.202   6.642 -1.2683  0.6115 -0.8748
 1018MOL0     H40445   2.674   7.158   6.535 -2.8648  2.1336 -6.5689
 1018MOL0     H40446   2.953   7.855   6.441 -0.0951  1.8137  0.9201
 1018MOL0     H40447   2.922   7.987   6.230 -1.9833  1.2082 -6.1109
 1018MOL0     H40448   2.876   7.974   5.925 -0.8355 -0.5425 -1.7152
 1018MOL0     H40449   2.857   7.798   5.981  3.6618  0.2234 -1.0598
 1018MOL0     H40450   2.653   7.792   5.863  2.2843 -0.7058  2.1002
 1018MOL0     H40451   2.693   7.955   5.775 -2.1006  0.8806  2.6673
 1018MOL0     H40452   2.859   7.723   5.771 -0.3813  1.2190  3.4041
 1018MOL0     H40453   2.890   7.869   5.680  1.3605 -1.5387  1.6158
 1018MOL0     H40454   2.661   7.816   5.567 -1.9967 -1.3014  1.5554
 1018MOL0     H40455   2.667   7.660   5.651 -0.0084 -0.2734  0.5607
 1018MOL0     H40456   2.889   7.727   5.482 -0.0388 -0.7660 -0.0292
 1018MOL0     H40457   2.856   7.587   5.576  1.2692 -0.1636 -0.8127
 1018MOL0     H40458   2.703   7.695   5.323 -2.5990 -0.0370  0.7995
 1018MOL0     H40459   2.640   7.565   5.422  1.6833  1.9804  4.3471
 1018MOL0     H40460   2.899   7.541   5.256 -0.6469 -0.6145  1.4872
 1018MOL0     H40461   2.736   7.476   5.218 -0.9103 -0.3458 -1.6474
 1018MOL0     H40462   2.759   7.365   5.463 -3.9131  0.0031 -3.3987
 1018MOL0     H40463   2.922   7.411   5.459 -0.5124  2.5368 -1.0860
 1018MOL0     H40464   2.610   7.741   6.104  2.5815 -0.2134 -2.8434
 1018MOL0     H40465   2.628   7.609   6.314  0.5941  0.5099  2.6836
 1018MOL0     H40466   2.946   7.572   6.735  0.5479  0.7435  3.2613
 1018MOL0     H40467   2.954   7.483   6.943 -0.5872 -1.1644  0.3372
 1018MOL0     H40468   3.080   7.245   6.684  2.3025  1.0034 -1.0085
 1018MOL0     H40469   3.181   7.465   6.683  0.4414  2.4407  2.7262
 1018MOL0     H40470   3.542   7.705   6.921  0.1774  2.3412  3.6440
 1018MOL0     H40471   3.686   7.877   6.912  1.8353  3.1734 -3.1160
 1018MOL0     H40472   3.669   8.102   7.076  2.0084 -0.5827  0.0721
 1018MOL0     H40473   3.788   8.079   6.951  0.3668  0.3850  1.6513
 1018MOL0     H40474   3.638   8.328   7.047 -1.0166 -0.1177 -0.9952
 1018MOL0     H40475   3.739   8.333   6.891  1.0826 -0.9934  0.7180
 1018MOL0     H40476   3.856   8.240   7.148  1.5219 -0.1382 -0.2890
 1018MOL0     H40477   3.944   8.281   7.002  0.6532 -1.3800  1.0536
 1018MOL0     H40478   3.982   8.432   7.171 -0.6053 -1.8946  2.0994
 1018MOL0     H40479   3.809   8.450   7.204 -2.5791 -0.8339 -1.6354
 1018MOL0     H40480   3.859   8.710   6.871 -2.7638 -2.3955 -1.3060
 1018MOL0     H40481   3.365   8.134   6.797  1.2349 -0.6537 -2.3110
 1018MOL0     H40482   3.173   8.013   6.648 -0.0960 -0.0473  1.5337
 1018MOL0     H40483   3.142   7.841   6.694  2.1295 -1.9487  0.8999
 1018MOL0     H40484   3.109   7.963   6.806 -0.4264 -0.6055 -0.1685
 1019MOL0     O40485   2.175   7.220   4.437  0.4500 -0.3589  0.2951
 1019MOL0     C40486   2.105   7.206   4.336 -0.1393  0.6369 -0.5768
 1019MOL0     O40487   2.053   7.090   4.287  0.2957 -0.3470 -0.2011
 1019MOL0     C40488   2.080   6.963   4.327  0.7131 -1.2802  0.0991
 1019MOL0     C40489   1.980   6.869   4.322  0.6410 -0.2204  0.3016
 1019MOL0     C40490   1.989   6.741   4.367  0.0087 -0.8911  0.0916
 1019MOL0     C40491   2.112   6.705   4.421  0.0634  0.3204  1.0311
 1019MOL0     O40492   2.098   6.580   4.479  0.8533  0.9443 -0.9885
 1019MOL0     C40493   2.202   6.548   4.582  0.0257  0.7734  0.1332
 1019MOL0     C40494   2.156   6.433   4.657  0.2433  0.0832  0.3220
 1019MOL0     C40495   2.268   6.363   4.729 -1.3140  1.6713 -0.7684
 1019MOL0     C40496   2.227   6.240   4.816  0.1768 -0.1404  0.3724
 1019MOL0     C40497   2.352   6.155   4.859  0.1148 -0.4555 -0.0493
 1019MOL0     C40498   2.295   6.018   4.871 -0.3566  0.1724  1.0187
 1019MOL0     C40499   2.404   5.903   4.868 -0.2863 -0.7086  0.5264
 1019MOL0     C40500   2.450   5.883   4.727 -0.5828  0.1035 -0.0239
 1019MOL0     N40501   2.557   5.778   4.733  0.2356  0.5083  0.7785
 1019MOL0     C40502   2.536   5.651   4.691  0.0929 -0.1466  1.2997
 1019MOL0     C40503   2.658   5.606   4.676  0.4522  0.2411 -0.0676
 1019MOL0     C40504   2.710   5.481   4.603  0.3219 -1.3107 -0.2744
 1019MOL0     C40505   2.701   5.356   4.685  0.4362 -0.5854  0.1788
 1019MOL0     C40506   2.556   5.306   4.709  0.2267  0.2162  0.1337
 1019MOL0     C40507   2.451   5.297   4.603  0.4143 -0.3162 -0.1619
 1019MOL0     O40508   2.350   5.218   4.636  0.7037 -0.0075  0.1947
 1019MOL0     C40509   2.261   5.162   4.542  0.7726 -0.9605 -0.1598
 1019MOL0     C40510   2.251   5.197   4.404  0.3251  0.6458  0.2744
 1019MOL0     C40511   2.184   5.120   4.306 -1.1753 -0.1118 -0.1096
 1019MOL0     C40512   2.209   5.157   4.166 -0.2581 -0.0161 -0.3127
 1019MOL0     C40513   2.111   5.007   4.343  1.2645  0.1845  0.5688
 1019MOL0     C40514   2.036   4.919   4.241  0.0669  0.5397  0.2026
 1019MOL0     O40515   2.007   4.960   4.113 -0.3581 -0.0097 -0.0501
 1019MOL0     C40516   1.936   4.880   4.028  0.3497 -0.3319 -0.3631
 1019MOL0     C40517   1.976   4.871   3.895 -0.9672 -0.2224 -0.4229
 1019MOL0     C40518   1.909   4.787   3.801 -0.2582  0.1937 -0.4611
 1019MOL0     C40519   1.807   4.703   3.845 -0.4430 -0.5887  0.5563
 1019MOL0     O40520   1.763   4.598   3.775 -0.0339  0.5907  0.1186
 1019MOL0     C40521   1.838   4.539   3.672 -0.3204  0.3566  0.6952
 1019MOL0     C40522   1.821   4.386   3.691 -0.3584 -0.5502 -0.7589
 1019MOL0     C40523   1.937   4.296   3.627 -0.1157 -0.9637 -0.4477
 1019MOL0     C40524   1.892   4.149   3.597  0.3307 -0.2917 -0.0992
 1019MOL0     C40525   1.998   4.048   3.574  0.6101  0.4527 -1.1000
 1019MOL0     C40526   2.071   4.011   3.700  0.0313  0.9054 -0.0034
 1019MOL0     C40527   2.175   3.903   3.687  0.4387  0.5935  1.0414
 1019MOL0     C40528   2.286   3.909   3.782  0.7147 -0.4793 -1.0498
 1019MOL0    Cl40529   2.414   3.787   3.754  0.6755  0.3372  0.5154
 1019MOL0     C40530   1.778   4.706   3.976 -0.0871 -0.0529 -0.5398
 1019MOL0     C40531   1.825   4.803   4.070 -0.7821 -0.0974  0.3495
 1019MOL0     O40532   2.033   4.798   4.274 -0.4664  0.0606  0.4977
 1019MOL0     C40533   2.098   4.982   4.484 -0.2999  0.4934 -0.6837
 1019MOL0     C40534   2.177   5.058   4.576 -0.1025  0.6510 -0.3364
 1019MOL0     N40535   2.746   5.695   4.735  0.8022 -0.3374 -0.1472
 1019MOL0     N40536   2.684   5.802   4.769 -1.0237 -0.2435  0.2634
 1019MOL0     C40537   2.216   6.796   4.431  0.2608 -0.5144 -1.0401
 1019MOL0     C40538   2.198   6.929   4.395  0.1276 -0.2985 -0.6555
 1019MOL0     C40539   2.071   7.323   4.246 -0.8591 -0.3933  0.2105
 1019MOL0     C40540   1.992   7.306   4.134  0.9488 -1.0958  0.1997
 1019MOL0     C40541   1.983   7.404   4.038  0.0055  0.9827  0.2781
 1019MOL0     C40542   2.050   7.520   4.049 -0.5217 -0.6526 -0.4678
 1019MOL0     O40543   2.029   7.612   3.953 -0.1005  0.2481  0.1868
 1019MOL0     C40544   2.111   7.582   3.838 -0.6224 -0.1624 -1.0285
 1019MOL0     C40545   2.044   7.492   3.731  0.4538 -1.0949 -0.5775
 1019MOL0     C40546   2.143   7.481   3.608 -0.1158 -0.2778 -0.1156
 1019MOL0     C40547   2.110   7.356   3.530 -0.2874  0.5914  0.2276
 1019MOL0     C40548   2.209   7.307   3.440 -0.0722 -1.0782  0.2421
 1019MOL0     C40549   2.290   7.260   3.362 -0.4055 -0.0718  0.0171
 1019MOL0     C40550   2.117   7.552   4.163  0.4484  0.7732  0.4908
 1019MOL0     C40551   2.129   7.455   4.263  0.0354 -0.8535 -0.0890
 1019MOL0     C40552   2.190   7.513   4.391  0.1815  0.0680  0.6025
 1019MOL0     H40553   1.883   6.905   4.287  0.9905  0.6675  0.2165
 1019MOL0     H40554   1.906   6.671   4.371 -1.3685  0.7390  2.2260
 1019MOL0     H40555   2.226   6.635   4.644 -3.2781  2.5925 -0.8887
 1019MOL0     H40556   2.298   6.522   4.535  1.4915  0.8300  2.9012
 1019MOL0     H40557   2.081   6.460   4.732 -0.3345  1.9864 -0.8697
 1019MOL0     H40558   2.113   6.362   4.586  1.1827 -1.9340  1.6607
 1019MOL0     H40559   2.349   6.323   4.668 -1.2957 -3.7383  2.2017
 1019MOL0     H40560   2.316   6.432   4.799  2.1930 -0.9348 -0.3502
 1019MOL0     H40561   2.162   6.278   4.896  0.3654 -2.0922  1.5091
 1019MOL0     H40562   2.166   6.177   4.750 -0.5319 -3.4006  3.8319
 1019MOL0     H40563   2.400   6.189   4.951  3.3528  1.8467 -2.3687
 1019MOL0     H40564   2.424   6.152   4.776  1.0802 -3.5513  0.7930
 1019MOL0     H40565   2.240   6.003   4.965  0.4995  0.2552  1.5460
 1019MOL0     H40566   2.216   5.989   4.802  1.3245 -0.7784 -0.5787
 1019MOL0     H40567   2.377   5.809   4.915 -3.5061  0.1453  0.5956
 1019MOL0     H40568   2.492   5.935   4.925 -0.6216 -0.1206  0.7248
 1019MOL0     H40569   2.365   5.855   4.664 -0.1734 -0.2455 -0.4246
 1019MOL0     H40570   2.488   5.976   4.683 -0.9856 -1.3989 -3.9481
 1019MOL0     H40571   2.440   5.620   4.650 -1.0071  1.6993  2.3743
 1019MOL0     H40572   2.817   5.502   4.593  0.3652 -0.0965  2.0942
 1019MOL0     H40573   2.655   5.470   4.509 -0.6235 -1.3487  0.2696
 1019MOL0     H40574   2.749   5.269   4.639  1.1579 -0.9263  1.5332
 1019MOL0     H40575   2.756   5.376   4.777  1.3366  1.2863 -0.7024
 1019MOL0     H40576   2.552   5.199   4.731 -2.0605  0.4587  1.1333
 1019MOL0     H40577   2.524   5.359   4.798  0.4464  0.7367 -0.0943
 1019MOL0     H40578   2.404   5.388   4.564  0.6404 -0.3988 -0.6398
 1019MOL0     H40579   2.496   5.259   4.511  3.3204 -1.0600  1.4553
 1019MOL0     H40580   2.304   5.284   4.366  0.4969  0.3439 -0.1891
 1019MOL0     H40581   2.286   5.234   4.152  1.4031 -1.5099  0.2015
 1019MOL0     H40582   2.121   5.193   4.113  0.0838 -2.6506 -2.8689
 1019MOL0     H40583   2.249   5.078   4.103  1.3053  0.3420  0.1796
 1019MOL0     H40584   2.060   4.929   3.860 -0.6101 -1.2742 -1.3636
 1019MOL0     H40585   1.953   4.782   3.703  0.4949  0.3134 -0.1317
 1019MOL0     H40586   1.809   4.564   3.570  0.4796 -0.3869  0.2723
 1019MOL0     H40587   1.946   4.544   3.689 -0.6140  0.1133  2.8694
 1019MOL0     H40588   1.814   4.371   3.799 -2.3284  1.8015 -0.4570
 1019MOL0     H40589   1.725   4.352   3.649 -1.0155 -0.5857  0.7019
 1019MOL0     H40590   2.025   4.313   3.688  2.0585  1.0326 -3.7953
 1019MOL0     H40591   1.956   4.338   3.528  1.0140 -0.3246  0.0220
 1019MOL0     H40592   1.831   4.153   3.507  0.2355  0.0527 -0.0196
 1019MOL0     H40593   1.824   4.115   3.676  0.1182  1.1112  0.3538
 1019MOL0     H40594   1.952   3.952   3.548  2.6247 -1.5858  2.1321
 1019MOL0     H40595   2.074   4.073   3.500 -0.3831 -0.7339 -2.5895
 1019MOL0     H40596   2.002   3.976   3.778 -0.3632  0.5005 -0.5272
 1019MOL0     H40597   2.119   4.095   3.751 -0.2996  0.4518  1.0852
 1019MOL0     H40598   2.220   3.915   3.588  0.5928  2.4057  1.3012
 1019MOL0     H40599   2.112   3.814   3.697  0.0074  0.4590 -1.9414
 1019MOL0     H40600   2.250   3.894   3.884  2.3673 -0.4314 -0.4178
 1019MOL0     H40601   2.336   4.006   3.779  2.9018 -1.5505 -2.4658
 1019MOL0     H40602   1.719   4.626   4.019  0.3637 -0.5198 -0.7741
 1019MOL0     H40603   1.791   4.810   4.172 -1.4937  1.4676  0.0393
 1019MOL0     H40604   2.023   4.909   4.512  0.3492 -0.6785 -1.8529
 1019MOL0     H40605   2.167   5.028   4.680  4.7265  0.6057  0.3680
 1019MOL0     H40606   2.311   6.773   4.477  0.8509 -0.3971 -2.1668
 1019MOL0     H40607   2.284   6.995   4.404  0.9702 -1.1212 -2.1539
 1019MOL0     H40608   1.942   7.210   4.126 -0.2831 -0.4821  0.4063
 1019MOL0     H40609   1.924   7.387   3.949  0.9023  2.8511 -0.7314
 1019MOL0     H40610   2.153   7.674   3.797  2.2793 -0.1886  1.5533
 1019MOL0     H40611   2.197   7.520   3.865 -0.2147  0.9436  0.3720
 1019MOL0     H40612   1.945   7.533   3.712  0.4331 -0.6880  0.3326
 1019MOL0     H40613   2.035   7.395   3.782 -0.2422  0.2213  1.9606
 1019MOL0     H40614   2.138   7.567   3.541  1.1265  1.2667  1.6703
 1019MOL0     H40615   2.244   7.471   3.649  0.0943  0.9271 -0.3050
 1019MOL0     H40616   2.028   7.379   3.461 -1.6431 -0.6206  1.3533
 1019MOL0     H40617   2.077   7.272   3.593  0.2392  0.4004  0.2532
 1019MOL0     H40618   2.363   7.223   3.293  0.6938  1.2808  0.4078
 1019MOL0     H40619   2.156   7.652   4.181  0.5251  0.4493  2.3240
 1019MOL0     H40620   2.262   7.438   4.424 -0.1960 -0.0706  1.1316
 1019MOL0     H40621   2.236   7.611   4.379  0.2207 -0.1538 -1.2456
 1019MOL0     H40622   2.106   7.518   4.462 -2.3453  2.9704 -2.2704
 1020MOL0     O40623   1.640   2.209   5.599 -0.5717  0.0391  0.3881
 1020MOL0     C40624   1.750   2.262   5.571  1.4405  0.4214 -0.3863
 1020MOL0     O40625   1.819   2.234   5.460 -0.1539 -0.1759 -0.5512
 1020MOL0     C40626   1.748   2.167   5.352  0.2737  0.9459 -0.0580
 1020MOL0     C40627   1.678   2.238   5.258  0.2817 -0.1603  0.3904
 1020MOL0     C40628   1.605   2.175   5.161 -0.6668  0.6561  0.4638
 1020MOL0     C40629   1.608   2.036   5.157  0.2513  0.5681  1.1697
 1020MOL0     O40630   1.534   1.954   5.071 -0.3624 -0.1856  0.9097
 1020MOL0     C40631   1.440   2.002   4.987 -0.1278 -1.0673  0.4599
 1020MOL0     C40632   1.354   1.886   4.951  0.2310 -0.0120 -0.5148
 1020MOL0     C40633   1.298   1.913   4.806  0.0768  0.7257 -0.5412
 1020MOL0     C40634   1.183   2.012   4.821 -0.0288 -0.0266 -0.3752
 1020MOL0     C40635   1.109   2.035   4.689 -0.0314  0.2177  0.3128
 1020MOL0     C40636   1.187   2.117   4.569  0.0341  0.3612 -0.6901
 1020MOL0     C40637   1.088   2.143   4.454 -0.5329 -0.0886  0.7970
 1020MOL0     C40638   1.145   2.191   4.321  0.1645  0.3162 -0.6309
 1020MOL0     N40639   1.166   2.087   4.228  0.6609 -0.4739 -0.2229
 1020MOL0     C40640   1.177   1.949   4.248  0.4161 -0.9449  0.1234
 1020MOL0     C40641   1.208   1.894   4.126 -0.1915 -0.0338 -0.3902
 1020MOL0     C40642   1.253   1.744   4.108 -0.2923 -0.2185 -0.4622
 1020MOL0     C40643   1.407   1.743   4.077  0.1486 -0.1661 -0.5865
 1020MOL0     C40644   1.452   1.624   3.994 -0.6898 -0.7935 -0.1621
 1020MOL0     C40645   1.370   1.598   3.868 -0.0100  0.5737  0.0336
 1020MOL0     O40646   1.362   1.722   3.791  0.6460  0.1129 -0.0965
 1020MOL0     C40647   1.323   1.708   3.660  0.0130  0.5496  0.0351
 1020MOL0     C40648   1.302   1.820   3.576  0.1620  0.1058 -0.1447
 1020MOL0     C40649   1.241   1.820   3.444  0.0325  0.3658  0.5375
 1020MOL0     C40650   1.216   1.954   3.380 -0.2966 -0.0759 -0.0779
 1020MOL0     C40651   1.205   1.695   3.394 -0.0154 -0.1471 -0.5605
 1020MOL0     C40652   1.158   1.668   3.247  0.3522 -0.3067 -0.6630
 1020MOL0     O40653   1.125   1.544   3.220  0.4676  0.5375  0.7975
 1020MOL0     C40654   1.111   1.517   3.081  0.5269  0.5342  0.1094
 1020MOL0     C40655   1.223   1.520   2.999  0.0906  0.1000  1.5835
 1020MOL0     C40656   1.216   1.469   2.868 -0.8979  0.7263 -0.1815
 1020MOL0     C40657   1.093   1.447   2.806 -0.2108 -0.5536 -0.5444
 1020MOL0     O40658   1.069   1.417   2.670 -0.3612 -0.0796  0.1090
 1020MOL0     C40659   1.173   1.429   2.573 -0.2430 -0.2272 -0.5833
 1020MOL0     C40660   1.149   1.555   2.487 -0.9449  0.1033 -0.2547
 1020MOL0     C40661   1.028   1.550   2.389 -1.1927 -0.4220  0.9540
 1020MOL0     C40662   1.002   1.685   2.308  0.0060 -0.3604  0.4316
 1020MOL0     C40663   1.122   1.733   2.217 -0.1361  0.2736  0.8694
 1020MOL0     C40664   1.170   1.621   2.122  0.7539  0.2715 -0.3383
 1020MOL0     C40665   1.237   1.672   1.997  0.2905  0.0914  0.1048
 1020MOL0     C40666   1.270   1.553   1.904  0.3439  0.3591 -0.0868
 1020MOL0    Cl40667   1.326   1.625   1.764 -0.1549  0.2157  0.2220
 1020MOL0     C40668   0.980   1.443   2.886  0.3012 -0.7615  0.3070
 1020MOL0     C40669   0.988   1.479   3.027  0.7295 -0.0688 -0.4005
 1020MOL0     O40670   1.165   1.757   3.161 -0.0400 -1.0014 -0.2917
 1020MOL0     C40671   1.217   1.577   3.480 -0.7720 -0.1213  0.2883
 1020MOL0     C40672   1.264   1.592   3.608 -0.3501  0.0059 -0.2805
 1020MOL0     N40673   1.215   1.999   4.047 -0.4745 -0.0169 -0.5358
 1020MOL0     N40674   1.177   2.110   4.096 -0.1571  0.6612  0.1786
 1020MOL0     C40675   1.698   1.964   5.239 -0.9301 -0.2341 -0.1630
 1020MOL0     C40676   1.768   2.027   5.342 -0.0088  0.7740 -0.2514
 1020MOL0     C40677   1.808   2.357   5.665 -0.7915 -0.0359  1.0962
 1020MOL0     C40678   1.946   2.404   5.645  0.3378  0.3535 -0.2780
 1020MOL0     C40679   2.001   2.515   5.718  0.1277 -0.3288  0.4446
 1020MOL0     C40680   1.931   2.566   5.821 -0.1994 -0.2578 -0.4367
 1020MOL0     O40681   1.973   2.668   5.905  0.6811  0.0264 -0.2255
 1020MOL0     C40682   2.118   2.687   5.923  0.1788  0.0934  0.2910
 1020MOL0     C40683   2.146   2.762   6.055 -0.3983 -0.4017 -0.2590
 1020MOL0     C40684   2.041   2.871   6.095  0.7406  0.2229 -0.5654
 1020MOL0     C40685   2.099   2.992   6.160  0.0661 -0.1779 -0.2319
 1020MOL0     C40686   2.145   2.984   6.290  0.4311  0.3546 -0.8849
 1020MOL0     C40687   2.169   2.979   6.405 -0.5198 -0.0375  0.2404
 1020MOL0     C40688   1.805   2.522   5.847  0.9647 -0.6642 -0.1742
 1020MOL0     C40689   1.743   2.413   5.776 -1.0449 -0.9670  0.5848
 1020MOL0     C40690   1.610   2.363   5.826 -0.5337  0.7599 -0.3891
 1020MOL0     H40691   1.669   2.346   5.269  1.1518 -0.3069  3.3289
 1020MOL0     H40692   1.550   2.220   5.079 -0.5330 -0.9960 -0.5936
 1020MOL0     H40693   1.499   2.059   4.915 -1.3060  1.3710  1.3119
 1020MOL0     H40694   1.374   2.071   5.040 -0.5707 -1.9239  1.0460
 1020MOL0     H40695   1.413   1.793   4.958 -0.7092 -0.7778 -2.2013
 1020MOL0     H40696   1.278   1.888   5.029 -0.1728  4.4881 -0.7589
 1020MOL0     H40697   1.371   1.952   4.734 -0.3990  1.6919 -0.5230
 1020MOL0     H40698   1.264   1.817   4.768 -0.6060  1.1293 -0.9688
 1020MOL0     H40699   1.111   1.961   4.885  1.1272 -0.1508  0.9060
 1020MOL0     H40700   1.225   2.105   4.863 -0.1302  1.6761 -3.7546
 1020MOL0     H40701   1.016   2.090   4.707  0.7781  1.2027  1.5842
 1020MOL0     H40702   1.082   1.935   4.654 -0.9799  0.5544  0.0369
 1020MOL0     H40703   1.222   2.211   4.611  0.2998 -0.8077  1.9422
 1020MOL0     H40704   1.274   2.057   4.538  1.5791  2.2638 -0.2246
 1020MOL0     H40705   1.010   2.217   4.475  1.1224  1.9073  0.2048
 1020MOL0     H40706   1.035   2.048   4.446  0.9412 -0.8725 -0.0707
 1020MOL0     H40707   1.066   2.260   4.289 -0.2732 -0.6015 -1.5962
 1020MOL0     H40708   1.239   2.245   4.335  0.1671  0.1569 -0.0028
 1020MOL0     H40709   1.167   1.902   4.345 -0.4363 -0.9831  0.0237
 1020MOL0     H40710   1.199   1.704   4.021 -1.3258 -0.0303  0.0764
 1020MOL0     H40711   1.230   1.686   4.197 -0.5373 -2.9224 -2.1659
 1020MOL0     H40712   1.426   1.836   4.024  4.1386  0.3835  1.4572
 1020MOL0     H40713   1.462   1.749   4.171 -1.0025 -2.4119  0.3150
 1020MOL0     H40714   1.555   1.652   3.971 -1.2482  0.4593 -1.2984
 1020MOL0     H40715   1.446   1.526   4.042  0.0398 -0.7570  0.0192
 1020MOL0     H40716   1.417   1.522   3.805  0.6985  1.5917 -0.6944
 1020MOL0     H40717   1.271   1.555   3.885 -0.9037  1.9971 -1.2420
 1020MOL0     H40718   1.330   1.913   3.623 -2.7489  0.1222  1.8275
 1020MOL0     H40719   1.258   2.040   3.433 -2.8613  2.3016 -1.6115
 1020MOL0     H40720   1.107   1.963   3.373 -0.2351  2.0153  0.8236
 1020MOL0     H40721   1.247   1.954   3.275  1.4480  1.2703  0.3860
 1020MOL0     H40722   1.311   1.549   3.056  1.8597 -1.1741 -0.3523
 1020MOL0     H40723   1.313   1.464   2.821 -1.5028 -2.0343 -1.3815
 1020MOL0     H40724   1.267   1.445   2.627 -1.1470 -2.5598  1.9963
 1020MOL0     H40725   1.184   1.333   2.521  0.6066 -0.9054  0.7682
 1020MOL0     H40726   1.140   1.634   2.563 -0.5092 -0.8269  0.8032
 1020MOL0     H40727   1.241   1.588   2.438 -1.6727  2.6023 -0.1083
 1020MOL0     H40728   0.943   1.541   2.456 -1.5528  1.4999  0.8116
 1020MOL0     H40729   1.045   1.463   2.326 -1.2024 -1.3855  2.2506
 1020MOL0     H40730   0.973   1.768   2.373 -1.0877  1.4655 -2.1748
 1020MOL0     H40731   0.909   1.673   2.252 -1.1687 -2.6254  2.7116
 1020MOL0     H40732   1.096   1.823   2.160 -0.6946 -1.6649 -2.1705
 1020MOL0     H40733   1.211   1.751   2.277  0.6865 -3.3897  1.0004
 1020MOL0     H40734   1.085   1.562   2.085  1.8500  0.2779 -3.1055
 1020MOL0     H40735   1.239   1.562   2.183 -0.1714  0.4934  0.9607
 1020MOL0     H40736   1.331   1.725   2.013 -0.4406  1.1621  0.9346
 1020MOL0     H40737   1.173   1.741   1.941  0.8191 -0.6967 -1.5496
 1020MOL0     H40738   1.174   1.501   1.893 -0.4924  1.7120  0.5247
 1020MOL0     H40739   1.354   1.500   1.951  1.7861  1.4855 -1.2804
 1020MOL0     H40740   0.891   1.400   2.841  0.4380 -0.7054 -0.0209
 1020MOL0     H40741   0.901   1.494   3.092 -0.1720 -2.3999 -0.9859
 1020MOL0     H40742   1.197   1.477   3.442  0.7222 -1.2948  2.3541
 1020MOL0     H40743   1.290   1.499   3.658 -1.6290  0.4885  1.4046
 1020MOL0     H40744   1.713   1.857   5.226 -2.6161 -0.4455 -0.6307
 1020MOL0     H40745   1.834   1.971   5.407 -1.7944 -1.8357 -0.5175
 1020MOL0     H40746   2.005   2.344   5.577  1.0732 -0.7623  1.2942
 1020MOL0     H40747   2.100   2.551   5.694  0.0720 -0.0621  0.6121
 1020MOL0     H40748   2.165   2.588   5.926 -0.4629 -0.2645 -0.7448
 1020MOL0     H40749   2.145   2.736   5.829 -2.9074  1.3891 -0.0678
 1020MOL0     H40750   2.246   2.806   6.051 -0.9885  1.2282  1.4284
 1020MOL0     H40751   2.135   2.690   6.137  0.1268 -2.8169 -2.2249
 1020MOL0     H40752   1.984   2.901   6.006  0.1636  0.7543 -0.0235
 1020MOL0     H40753   1.967   2.827   6.163  1.2915  1.1914  0.7056
 1020MOL0     H40754   2.023   3.071   6.158 -0.4769 -0.6831 -2.5597
 1020MOL0     H40755   2.180   3.037   6.101 -1.3919 -0.1527 -2.3391
 1020MOL0     H40756   2.187   2.960   6.508 -0.5246  0.3639  0.3182
 1020MOL0     H40757   1.745   2.561   5.928  0.3393 -0.6053 -0.6563
 1020MOL0     H40758   1.541   2.392   5.746 -2.0153 -1.4398  0.0126
 1020MOL0     H40759   1.605   2.255   5.840  4.6786  0.5125  1.6241
 1020MOL0     H40760   1.591   2.401   5.927 -0.0650 -1.5547  0.6330
 1021MOL0     O40761  10.092   1.871   6.576  0.5256 -0.1719  0.1731
 1021MOL0     C40762   9.985   1.828   6.624 -0.9837 -0.6995  0.3577
 1021MOL0     O40763   9.897   1.900   6.694 -0.3232 -0.6334 -0.9458
 1021MOL0     C40764   9.898   2.036   6.692  0.1570  0.1118  0.3011
 1021MOL0     C40765   9.910   2.115   6.575 -0.1013  0.1800  0.1537
 1021MOL0     C40766   9.920   2.256   6.577 -0.3574 -0.1626  1.0617
 1021MOL0     C40767   9.896   2.315   6.702  0.3694  0.7160  0.2165
 1021MOL0     O40768   9.912   2.451   6.722  0.4833  0.7031  0.3140
 1021MOL0     C40769   9.844   2.534   6.630  0.5444 -0.5332 -0.9827
 1021MOL0     C40770   9.758   2.653   6.702 -1.0757  0.6662  0.6934
 1021MOL0     C40771   9.675   2.604   6.822 -0.1475 -0.3064 -1.2443
 1021MOL0     C40772   9.634   2.729   6.902  0.6494 -0.2800  0.5305
 1021MOL0     C40773   9.543   2.699   7.026 -0.3971 -0.6065 -0.5123
 1021MOL0     C40774   9.485   2.824   7.102  0.2161  0.6141  0.5106
 1021MOL0     C40775   9.339   2.782   7.146  0.0505 -1.1933 -0.4224
 1021MOL0     C40776   9.248   2.910   7.193  0.1323 -0.0713  0.7131
 1021MOL0     N40777   9.303   2.976   7.314 -0.0399 -0.0920 -0.5209
 1021MOL0     C40778   9.278   2.933   7.438 -0.0836  0.1806  0.3260
 1021MOL0     C40779   9.314   3.038   7.517 -0.3830  0.8038 -0.3013
 1021MOL0     C40780   9.329   3.027   7.663 -0.0264 -0.8560  0.2626
 1021MOL0     C40781   9.292   3.163   7.727  0.0438  0.1364 -0.3568
 1021MOL0     C40782   9.308   3.151   7.877 -0.3873 -0.8564  0.5686
 1021MOL0     C40783   9.298   3.286   7.934 -0.8425  0.5646 -0.6337
 1021MOL0     O40784   9.356   3.288   8.073 -0.6141  1.3189  0.1409
 1021MOL0     C40785   9.329   3.395   8.158  0.1506  0.0741  1.3920
 1021MOL0     C40786   9.239   3.494   8.141 -0.2834 -1.2509 -0.4009
 1021MOL0     C40787   9.205   3.589   8.249  0.2164 -0.9990  0.0616
 1021MOL0     C40788   9.105   3.697   8.198 -0.5948 -0.3497  0.5671
 1021MOL0     C40789   9.264   3.583   8.380  1.3373  0.4453 -0.0793
 1021MOL0     C40790   9.219   3.671   8.489  0.0675 -0.4106  0.1276
 1021MOL0     O40791   9.272   3.643   8.616 -0.5283 -1.0641  0.2090
 1021MOL0     C40792   9.244   3.737   8.718  1.2973  0.2933  0.5124
 1021MOL0     C40793   9.304   3.864   8.737  0.0902  0.3167 -0.0069
 1021MOL0     C40794   9.264   3.951   8.834  0.0229  0.0176 -0.3086
 1021MOL0     C40795   9.156   3.916   8.917 -0.6378 -0.2132 -0.4166
 1021MOL0     O40796   9.121   3.995   9.026 -0.5602  0.2878 -0.2997
 1021MOL0     C40797   9.190   4.113   9.061 -0.5360 -0.1757 -0.7762
 1021MOL0     C40798   9.090   4.221   9.094 -0.1884 -0.3355  0.4538
 1021MOL0     C40799   9.151   4.358   9.108 -0.9337  0.1012  0.5392
 1021MOL0     C40800   9.057   4.467   9.159 -0.4430 -0.3699  0.1236
 1021MOL0     C40801   9.123   4.608   9.147 -1.0461  0.2095  0.0951
 1021MOL0     C40802   9.228   4.631   9.255  0.1147  0.1598  0.2578
 1021MOL0     C40803   9.277   4.774   9.256 -0.6545 -0.0659 -0.1836
 1021MOL0     C40804   9.212   4.865   9.367  0.5673  0.4775  0.2629
 1021MOL0    Cl40805   9.239   4.825   9.540 -0.1808  0.1445  0.3375
 1021MOL0     C40806   9.091   3.798   8.895 -0.0161  0.6108  0.6123
 1021MOL0     C40807   9.132   3.707   8.803 -0.7558  0.1961  0.4451
 1021MOL0     O40808   9.140   3.765   8.468  0.4489  0.4740  0.7112
 1021MOL0     C40809   9.353   3.483   8.393  0.4230 -0.2289 -0.2570
 1021MOL0     C40810   9.388   3.395   8.283 -0.2371  0.5319 -1.1306
 1021MOL0     N40811   9.371   3.141   7.431 -0.1488 -0.1519 -0.1149
 1021MOL0     N40812   9.365   3.098   7.308  0.1075  0.3285 -0.4950
 1021MOL0     C40813   9.860   2.238   6.814 -0.0497 -0.7585  0.3208
 1021MOL0     C40814   9.851   2.098   6.806  0.7144  0.1581 -1.1005
 1021MOL0     C40815   9.954   1.685   6.608 -0.7753  0.6801 -0.0248
 1021MOL0     C40816   9.819   1.643   6.607 -0.4271 -0.7423 -0.6553
 1021MOL0     C40817   9.783   1.517   6.589  0.6139 -0.1781  0.7198
 1021MOL0     C40818   9.869   1.416   6.566 -0.3989  0.5458 -1.2800
 1021MOL0     O40819   9.812   1.300   6.535  0.4675 -0.8956  0.0717
 1021MOL0     C40820   9.734   1.300   6.417  0.0648 -0.0812 -0.0431
 1021MOL0     C40821   9.765   1.176   6.319  0.5038 -0.1233 -0.2948
 1021MOL0     C40822   9.912   1.180   6.268  0.6509 -0.3283  0.6624
 1021MOL0     C40823   9.971   1.308   6.218  0.1076 -0.5210 -0.7229
 1021MOL0     C40824   9.887   1.378   6.125 -0.1109 -0.2629 -0.2147
 1021MOL0     C40825   9.816   1.439   6.048  0.5525 -0.4930  0.5593
 1021MOL0     C40826   9.999   1.448   6.586  0.1457  0.2808  0.2040
 1021MOL0     C40827  10.051   1.578   6.602  1.4572  0.6267  0.0595
 1021MOL0     C40828  10.196   1.598   6.620  0.2276 -0.0107 -0.3492
 1021MOL0     H40829   9.923   2.061   6.482  1.3857  1.7709 -0.6256
 1021MOL0     H40830   9.946   2.325   6.497 -5.9843 -0.7127 -1.7788
 1021MOL0     H40831   9.777   2.476   6.566 -0.8326  2.3890 -2.3748
 1021MOL0     H40832   9.925   2.576   6.571  0.4844 -1.5501 -1.8116
 1021MOL0     H40833   9.835   2.718   6.747 -1.2201 -0.4893  2.7618
 1021MOL0     H40834   9.703   2.712   6.628 -0.9975 -0.8608 -0.6344
 1021MOL0     H40835   9.582   2.561   6.782  1.2443 -0.7995 -4.1816
 1021MOL0     H40836   9.730   2.529   6.880 -1.3887 -0.9857 -0.8946
 1021MOL0     H40837   9.723   2.763   6.956 -0.1226 -1.1772  2.4823
 1021MOL0     H40838   9.597   2.803   6.831 -0.6033 -1.5526 -0.1903
 1021MOL0     H40839   9.595   2.640   7.102  0.1834 -0.5631 -0.8676
 1021MOL0     H40840   9.460   2.634   6.997 -2.1866  0.8660  1.0704
 1021MOL0     H40841   9.550   2.858   7.183 -1.9888  3.9669  1.1142
 1021MOL0     H40842   9.472   2.905   7.030 -1.3861  1.2405  1.4322
 1021MOL0     H40843   9.336   2.706   7.225  0.0783 -0.2193  0.5448
 1021MOL0     H40844   9.294   2.743   7.054  3.6065  0.3111 -3.0270
 1021MOL0     H40845   9.260   2.989   7.118 -2.7178  0.2501  0.4908
 1021MOL0     H40846   9.140   2.893   7.200 -0.3522  2.3148  0.0501
 1021MOL0     H40847   9.229   2.840   7.463 -0.9704 -0.7837 -4.2279
 1021MOL0     H40848   9.430   2.990   7.684  1.0252  1.9683  0.6793
 1021MOL0     H40849   9.247   2.968   7.705 -1.9134  2.0146  0.9109
 1021MOL0     H40850   9.355   3.244   7.689 -1.6126  1.3910 -0.5389
 1021MOL0     H40851   9.192   3.192   7.694 -0.7134 -0.7889  1.0420
 1021MOL0     H40852   9.234   3.081   7.917  0.0180 -0.3408  2.3237
 1021MOL0     H40853   9.408   3.110   7.892  0.4282 -0.6744 -3.3571
 1021MOL0     H40854   9.328   3.364   7.862 -3.2889 -0.2859 -2.7096
 1021MOL0     H40855   9.193   3.315   7.940 -1.2384 -0.4986 -1.8432
 1021MOL0     H40856   9.188   3.487   8.045  1.3534 -1.0460 -1.3258
 1021MOL0     H40857   9.077   3.682   8.094  1.4207  1.2043 -0.2552
 1021MOL0     H40858   9.157   3.790   8.222 -1.0242 -0.7823  3.5386
 1021MOL0     H40859   9.007   3.686   8.246 -1.7102 -1.3761 -1.8159
 1021MOL0     H40860   9.373   3.892   8.659  1.2194 -3.6770 -0.6536
 1021MOL0     H40861   9.317   4.046   8.825 -0.2596  0.2482  0.3840
 1021MOL0     H40862   9.246   4.089   9.152 -0.0406 -3.8041 -1.8830
 1021MOL0     H40863   9.262   4.150   8.986 -1.2059 -0.5666 -1.6230
 1021MOL0     H40864   9.010   4.224   9.019  0.7157 -3.0868 -0.7641
 1021MOL0     H40865   9.038   4.201   9.188  0.1129  2.1824  1.2285
 1021MOL0     H40866   9.199   4.389   9.014  1.5445  0.0339  1.7036
 1021MOL0     H40867   9.225   4.347   9.187 -1.2827 -2.8898  0.5880
 1021MOL0     H40868   9.026   4.454   9.263  1.8639  0.8577  1.0348
 1021MOL0     H40869   8.969   4.471   9.093 -0.5232 -0.3730  0.2297
 1021MOL0     H40870   9.182   4.616   9.055  0.7997  0.3873  1.2452
 1021MOL0     H40871   9.050   4.690   9.154  2.1776  3.2233  1.6051
 1021MOL0     H40872   9.312   4.563   9.242  0.1328  0.2127  0.1055
 1021MOL0     H40873   9.177   4.606   9.349 -0.6490 -1.3982 -0.5328
 1021MOL0     H40874   9.265   4.834   9.165  0.6895  2.4945  1.1977
 1021MOL0     H40875   9.384   4.780   9.277 -1.2471  2.7871  2.9721
 1021MOL0     H40876   9.105   4.872   9.344  0.5923 -0.2167 -0.0825
 1021MOL0     H40877   9.241   4.970   9.358 -1.5806  1.0142 -1.4140
 1021MOL0     H40878   9.010   3.771   8.961 -0.0665 -4.7615 -1.1319
 1021MOL0     H40879   9.087   3.610   8.785 -2.0095  0.9012 -0.4307
 1021MOL0     H40880   9.408   3.474   8.487  0.3966 -3.1564 -0.4091
 1021MOL0     H40881   9.448   3.308   8.307 -2.9743 -1.4281 -0.9819
 1021MOL0     H40882   9.827   2.284   6.907 -1.0719 -1.7351  0.4618
 1021MOL0     H40883   9.821   2.042   6.894 -2.9256  1.1159 -1.5528
 1021MOL0     H40884   9.743   1.720   6.614 -1.2468 -1.6900  1.8088
 1021MOL0     H40885   9.674   1.517   6.588  0.4937  2.6142  2.3267
 1021MOL0     H40886   9.628   1.299   6.444  0.4706  0.3128  1.6820
 1021MOL0     H40887   9.758   1.393   6.365  1.3943 -0.0114  0.6537
 1021MOL0     H40888   9.699   1.174   6.232  2.7140 -1.8680 -2.0456
 1021MOL0     H40889   9.748   1.095   6.390  1.4511  0.5345  0.7406
 1021MOL0     H40890   9.961   1.141   6.357  2.8819  0.6751 -0.0436
 1021MOL0     H40891   9.934   1.110   6.187 -0.7773  1.7442 -1.6683
 1021MOL0     H40892  10.068   1.289   6.171  0.0801 -0.3181 -0.8571
 1021MOL0     H40893   9.995   1.371   6.304 -0.2488 -2.0095  0.5192
 1021MOL0     H40894   9.762   1.515   5.995 -2.1273 -3.3628 -1.1706
 1021MOL0     H40895  10.057   1.359   6.569  0.0559  0.2394  0.1146
 1021MOL0     H40896  10.227   1.605   6.725 -0.0753 -0.9222 -0.1905
 1021MOL0     H40897  10.256   1.517   6.576  0.7920  0.8068 -1.1196
 1021MOL0     H40898  10.238   1.677   6.558  2.0282 -2.1687 -2.0346
 1022MOL0     O40899   7.326   6.417  10.943  0.3110  0.2850 -0.3325
 1022MOL0     C40900   7.244   6.497  10.994 -0.2033  0.1591  0.3901
 1022MOL0     O40901   7.232   6.631  10.978 -0.7177 -0.2373 -0.1469
 1022MOL0     C40902   7.305   6.686  10.867  0.2013  0.5305 -0.1436
 1022MOL0     C40903   7.434   6.719  10.884  0.4288 -0.2550 -0.0932
 1022MOL0     C40904   7.506   6.784  10.789 -0.6769  0.3056 -0.4747
 1022MOL0     C40905   7.454   6.798  10.657  0.6191 -0.7280  0.4217
 1022MOL0     O40906   7.540   6.850  10.568  0.1098 -0.3351  0.2100
 1022MOL0     C40907   7.510   6.864  10.432  0.7759  0.3566 -0.7619
 1022MOL0     C40908   7.637   6.874  10.350 -0.7308  0.4785 -0.3252
 1022MOL0     C40909   7.757   6.795  10.403  0.3358 -0.5496 -0.4020
 1022MOL0     C40910   7.813   6.714  10.296 -0.0787  0.4249  0.3174
 1022MOL0     C40911   7.937   6.632  10.331 -0.0165 -0.5695 -0.4819
 1022MOL0     C40912   8.080   6.702  10.320  0.0123 -1.0588 -0.1495
 1022MOL0     C40913   8.122   6.741  10.178  0.4344  0.4900 -0.1868
 1022MOL0     C40914   8.150   6.613  10.094 -0.9911  0.5636  0.2091
 1022MOL0     N40915   8.163   6.649   9.958  0.2767  0.3761  0.0868
 1022MOL0     C40916   8.062   6.610   9.865 -0.1046  0.0924  0.0081
 1022MOL0     C40917   8.112   6.646   9.740 -0.1018  0.0484  0.4488
 1022MOL0     C40918   8.051   6.642   9.600  0.0332 -0.6082 -0.0680
 1022MOL0     C40919   7.899   6.628   9.610 -0.5015  0.9177  0.1612
 1022MOL0     C40920   7.835   6.637   9.461 -0.0155 -0.0706  0.1857
 1022MOL0     C40921   7.685   6.624   9.451  0.4746 -0.0014 -0.0457
 1022MOL0     O40922   7.638   6.492   9.471  0.5924  0.1862  0.4280
 1022MOL0     C40923   7.544   6.442   9.389 -0.4819 -0.2625 -0.4417
 1022MOL0     C40924   7.458   6.521   9.305  0.4594  0.0237 -0.1276
 1022MOL0     C40925   7.361   6.458   9.227  0.2939  0.5691 -0.3445
 1022MOL0     C40926   7.299   6.543   9.121  0.8051 -0.2595 -0.0721
 1022MOL0     C40927   7.336   6.324   9.244 -0.5061  1.0010 -0.1599
 1022MOL0     C40928   7.216   6.264   9.166  0.6437 -0.2384  0.3460
 1022MOL0     O40929   7.093   6.255   9.231 -0.2299  0.3040  0.7941
 1022MOL0     C40930   7.083   6.266   9.369  0.0931 -0.2710 -0.2010
 1022MOL0     C40931   7.135   6.166   9.451 -0.3384 -0.1632 -0.4933
 1022MOL0     C40932   7.126   6.171   9.591 -0.2923 -0.1265 -0.3150
 1022MOL0     C40933   7.044   6.265   9.652  0.3791 -0.4454  0.4287
 1022MOL0     O40934   7.008   6.264   9.789  0.4820  0.2202  0.4354
 1022MOL0     C40935   6.875   6.294   9.835 -0.2544 -0.1735 -0.2040
 1022MOL0     C40936   6.809   6.179   9.912 -0.4088 -0.4984 -0.8583
 1022MOL0     C40937   6.803   6.056   9.822  0.8271  0.2091  0.1236
 1022MOL0     C40938   6.924   5.969   9.828  0.2308  0.3283  0.1352
 1022MOL0     C40939   6.951   5.908   9.973 -0.3883  0.0206 -0.5749
 1022MOL0     C40940   6.865   5.797  10.023 -0.1870  0.1320  0.2446
 1022MOL0     C40941   6.915   5.742  10.162 -0.0963 -0.4209  0.8638
 1022MOL0     C40942   6.836   5.611  10.188  0.3518  0.5339  0.8208
 1022MOL0    Cl40943   6.659   5.629  10.204 -0.1534  0.2328 -0.0638
 1022MOL0     C40944   6.990   6.364   9.565 -0.3045 -0.2843 -0.9846
 1022MOL0     C40945   7.005   6.362   9.426 -0.1415  0.4463 -0.3923
 1022MOL0     O40946   7.236   6.234   9.050  0.7522  0.8548 -0.1309
 1022MOL0     C40947   7.428   6.246   9.327  0.4100 -0.4770  0.4592
 1022MOL0     C40948   7.522   6.310   9.407 -0.5617  0.1292  0.3380
 1022MOL0     N40949   8.238   6.707   9.767  0.0947 -0.5192 -0.0666
 1022MOL0     N40950   8.268   6.704   9.899  0.0714 -0.6883 -0.0961
 1022MOL0     C40951   7.323   6.757  10.632  0.7677  0.3242  0.6781
 1022MOL0     C40952   7.248   6.698  10.735  0.1863 -0.0547  0.3155
 1022MOL0     C40953   7.163   6.443  11.107 -1.2392 -0.2241  0.5535
 1022MOL0     C40954   7.035   6.493  11.125  1.4022  0.2769 -0.7650
 1022MOL0     C40955   6.945   6.433  11.205  0.1146  0.9181 -0.0561
 1022MOL0     C40956   6.985   6.332  11.294  1.0009 -0.9669  0.3547
 1022MOL0     O40957   6.887   6.294  11.387  0.2728  0.5837  0.7053
 1022MOL0     C40958   6.916   6.211  11.500 -0.3570  0.0767 -0.1585
 1022MOL0     C40959   6.799   6.182  11.588  0.0082 -0.1170  0.3437
 1022MOL0     C40960   6.694   6.107  11.508  1.0315 -0.5781 -0.7486
 1022MOL0     C40961   6.586   6.056  11.615 -0.2559 -0.2981 -0.1372
 1022MOL0     C40962   6.520   6.166  11.683 -0.6290 -0.4828  0.5817
 1022MOL0     C40963   6.470   6.252  11.754 -0.0307  0.1172  0.3155
 1022MOL0     C40964   7.123   6.298  11.294 -0.4474  0.0663 -0.1742
 1022MOL0     C40965   7.212   6.346  11.198  0.1147  0.4165  0.6690
 1022MOL0     C40966   7.355   6.292  11.207 -0.5795 -0.1113 -0.0131
 1022MOL0     H40967   7.475   6.708  10.984 -0.2374 -2.6934 -0.0382
 1022MOL0     H40968   7.611   6.809  10.799 -0.7565  1.1573 -1.5606
 1022MOL0     H40969   7.428   6.934  10.415  0.0895 -0.5340 -1.2019
 1022MOL0     H40970   7.464   6.769  10.403  0.5491 -0.4707  2.0001
 1022MOL0     H40971   7.616   6.857  10.244  0.3693  1.3204 -0.6961
 1022MOL0     H40972   7.649   6.981  10.331 -3.9914  0.7146 -1.8253
 1022MOL0     H40973   7.831   6.869  10.436 -1.1391  1.4507 -1.3781
 1022MOL0     H40974   7.724   6.727  10.483  0.0854 -0.6131 -0.5614
 1022MOL0     H40975   7.732   6.656  10.250  0.8534 -0.2740 -0.4762
 1022MOL0     H40976   7.855   6.786  10.225  2.3302 -2.3100 -1.2302
 1022MOL0     H40977   7.928   6.544  10.268 -0.9896 -0.7281 -0.1345
 1022MOL0     H40978   7.928   6.604  10.436 -0.4373  0.6972 -0.1536
 1022MOL0     H40979   8.070   6.796  10.376 -0.2997 -0.2055 -1.5741
 1022MOL0     H40980   8.154   6.644  10.376 -0.8147  0.0259  2.1971
 1022MOL0     H40981   8.219   6.792  10.179  1.3644 -1.1905 -0.3929
 1022MOL0     H40982   8.049   6.804  10.126 -1.5777 -2.0850 -0.6706
 1022MOL0     H40983   8.242   6.567  10.131 -0.2964  1.5593 -0.2180
 1022MOL0     H40984   8.082   6.528  10.103  2.1548 -2.0040  1.6744
 1022MOL0     H40985   7.969   6.554   9.877 -0.9156  0.9706 -1.8321
 1022MOL0     H40986   8.107   6.568   9.542  2.9044 -0.7306  2.5766
 1022MOL0     H40987   8.077   6.741   9.560 -1.4340  1.0664  2.8142
 1022MOL0     H40988   7.869   6.530   9.647 -1.7185  0.0951 -2.6920
 1022MOL0     H40989   7.856   6.706   9.674  1.0527  0.3435  1.9661
 1022MOL0     H40990   7.865   6.734   9.420 -1.4954  0.3456  0.0574
 1022MOL0     H40991   7.888   6.571   9.390  0.8443 -1.3550  1.9388
 1022MOL0     H40992   7.629   6.685   9.522  3.4630  1.9294  0.8392
 1022MOL0     H40993   7.656   6.661   9.352 -3.0929  3.7741  2.0515
 1022MOL0     H40994   7.471   6.628   9.296  2.2483 -0.3024 -2.5141
 1022MOL0     H40995   7.297   6.647   9.154 -0.5029  0.2670 -1.6991
 1022MOL0     H40996   7.196   6.516   9.098  0.4247  0.5920  0.5962
 1022MOL0     H40997   7.356   6.526   9.028  0.9111 -1.8434  0.2505
 1022MOL0     H40998   7.180   6.080   9.403 -0.5395 -1.8036  2.0571
 1022MOL0     H40999   7.174   6.093   9.650  0.2046  0.9585  0.7530
 1022MOL0     H41000   6.882   6.382   9.900 -2.8897 -0.4830  0.6105
 1022MOL0     H41001   6.811   6.317   9.749  0.9312 -0.7827 -1.2890
 1022MOL0     H41002   6.855   6.163  10.010 -0.6723 -0.5013 -0.7315
 1022MOL0     H41003   6.709   6.216   9.936 -0.8127 -1.3659 -1.1659
 1022MOL0     H41004   6.764   6.092   9.726  0.7702  0.8676  0.3870
 1022MOL0     H41005   6.727   5.995   9.872  1.7405 -0.7146  0.3953
 1022MOL0     H41006   7.011   6.033   9.807 -0.4527  3.0383  4.3288
 1022MOL0     H41007   6.928   5.891   9.751  1.3329  0.8373 -0.3403
 1022MOL0     H41008   7.054   5.871   9.976 -0.0825  0.8783  0.8426
 1022MOL0     H41009   6.946   5.976  10.059  1.2823 -0.3210 -0.1707
 1022MOL0     H41010   6.877   5.712   9.955 -0.4922 -0.3928  0.8301
 1022MOL0     H41011   6.762   5.832  10.036  0.3497  1.3972  1.3043
 1022MOL0     H41012   6.898   5.811  10.245 -0.7232 -3.7783  3.7748
 1022MOL0     H41013   7.022   5.719  10.158 -0.0064 -0.2375  1.9910
 1022MOL0     H41014   6.874   5.552  10.272  1.0188  0.5512  0.5329
 1022MOL0     H41015   6.841   5.546  10.100 -1.0134  1.7789 -0.2347
 1022MOL0     H41016   6.930   6.444   9.606  0.5956 -0.8893  1.6831
 1022MOL0     H41017   6.953   6.437   9.367  0.6447  1.3858  0.0721
 1022MOL0     H41018   7.418   6.138   9.325 -0.1582 -0.4702  2.0232
 1022MOL0     H41019   7.587   6.250   9.468  1.2868 -0.4699 -2.0636
 1022MOL0     H41020   7.284   6.769  10.532  4.7269 -0.4255 -1.1323
 1022MOL0     H41021   7.150   6.655  10.723  0.1139 -0.0200  0.7742
 1022MOL0     H41022   6.996   6.560  11.049  0.2268 -0.5608 -0.9326
 1022MOL0     H41023   6.844   6.473  11.206  0.4611  1.8393  1.6101
 1022MOL0     H41024   6.955   6.116  11.464  0.1635  1.3957 -3.3720
 1022MOL0     H41025   6.991   6.258  11.565  1.2455 -2.6052  0.0585
 1022MOL0     H41026   6.760   6.273  11.634 -0.2775  0.3105 -0.7219
 1022MOL0     H41027   6.822   6.126  11.680 -3.0269  0.7927  1.7989
 1022MOL0     H41028   6.637   6.172  11.441 -0.6936  2.1471  3.0337
 1022MOL0     H41029   6.731   6.024  11.447 -0.9864 -2.1980  0.1145
 1022MOL0     H41030   6.636   5.996  11.691  0.4328 -0.8784 -1.0360
 1022MOL0     H41031   6.513   5.989  11.567 -1.2094  0.5634  0.0683
 1022MOL0     H41032   6.420   6.319  11.822 -2.1557  0.8810 -1.8763
 1022MOL0     H41033   7.166   6.234  11.369 -1.8007 -1.6479 -0.7967
 1022MOL0     H41034   7.388   6.264  11.307 -0.7560  0.1948  0.1330
 1022MOL0     H41035   7.370   6.213  11.132  0.3631  1.3072 -1.3843
 1022MOL0     H41036   7.429   6.370  11.187 -1.5670  1.3877  1.8993
 1023MOL0     O41037   9.475   7.966   6.637 -0.7591 -0.0127  0.2702
 1023MOL0     C41038   9.408   8.071   6.643 -0.1496  0.4040 -0.4049
 1023MOL0     O41039   9.381   8.153   6.536 -0.4844  0.1153 -0.2703
 1023MOL0     C41040   9.379   8.100   6.409  0.5719  1.3385  0.1107
 1023MOL0     C41041   9.311   7.984   6.387  0.1752  1.3113 -1.1508
 1023MOL0     C41042   9.312   7.917   6.260 -0.1880  0.6840  0.4746
 1023MOL0     C41043   9.372   7.974   6.159 -0.0712  0.8701  0.1393
 1023MOL0     O41044   9.359   7.903   6.036 -0.1368 -0.1978  0.3389
 1023MOL0     C41045   9.374   7.974   5.917 -0.4586  0.0053 -1.0822
 1023MOL0     C41046   9.343   7.893   5.792 -0.0824  0.4765  0.0982
 1023MOL0     C41047   9.412   7.755   5.791  0.0438  0.4946  0.6308
 1023MOL0     C41048   9.564   7.774   5.771 -0.5388 -0.0935 -0.5896
 1023MOL0     C41049   9.639   7.637   5.768 -0.3871 -1.7541  0.0107
 1023MOL0     C41050   9.788   7.662   5.794 -0.9114  0.3976 -0.2656
 1023MOL0     C41051   9.867   7.525   5.801 -0.1173 -0.7225  0.5354
 1023MOL0     C41052  10.019   7.542   5.789 -0.0247 -0.2963  0.1386
 1023MOL0     N41053  10.084   7.557   5.657 -1.0281  0.1368  0.0093
 1023MOL0     C41054  10.223   7.516   5.643 -0.2590  0.1211  0.6015
 1023MOL0     C41055  10.241   7.525   5.504 -0.8411  0.4034  0.0204
 1023MOL0     C41056  10.364   7.522   5.420  0.4369  0.9769  1.3580
 1023MOL0     C41057  10.390   7.661   5.355 -0.6475  0.8163  0.2897
 1023MOL0     C41058  10.440   7.760   5.462 -0.9222  0.4851  0.7558
 1023MOL0     C41059  10.535   7.868   5.408  0.4287  0.4830 -0.0814
 1023MOL0     O41060  10.479   7.941   5.296 -0.4311 -0.5376  0.4348
 1023MOL0     C41061  10.514   8.073   5.293 -0.5202  0.2189  0.8730
 1023MOL0     C41062  10.633   8.132   5.345  0.5033  0.1891  0.6367
 1023MOL0     C41063  10.673   8.260   5.291 -1.0313 -0.0728 -0.5731
 1023MOL0     C41064  10.807   8.314   5.357  0.6135 -0.1969  0.2760
 1023MOL0     C41065  10.595   8.325   5.196  0.3975  0.5594  0.4423
 1023MOL0     C41066  10.631   8.462   5.149  0.2575  0.2023  0.1421
 1023MOL0     O41067  10.764   8.499   5.132  1.3587 -1.3875 -0.0882
 1023MOL0     C41068  10.784   8.635   5.112  0.9547  0.1891  1.5789
 1023MOL0     C41069  10.797   8.744   5.198  0.8102  0.8554 -0.5937
 1023MOL0     C41070  10.808   8.873   5.162  1.0973  0.0870 -0.4372
 1023MOL0     C41071  10.801   8.903   5.024 -0.6168  0.5177 -0.2716
 1023MOL0     O41072  10.804   9.038   4.996  0.8044 -0.0752  0.1599
 1023MOL0     C41073  10.716   9.085   4.886 -0.0653  0.3178  0.2523
 1023MOL0     C41074  10.819   9.114   4.766  0.6680  0.4760 -0.3774
 1023MOL0     C41075  10.749   9.112   4.620  0.0659 -0.1808 -0.4859
 1023MOL0     C41076  10.750   8.985   4.549 -0.2237 -0.2757 -0.5629
 1023MOL0     C41077  10.665   9.000   4.418 -0.1027  0.6665  1.5135
 1023MOL0     C41078  10.692   8.869   4.345 -0.1452  0.6772 -0.0484
 1023MOL0     C41079  10.666   8.743   4.421  0.0075  0.4236 -0.3272
 1023MOL0     C41080  10.652   8.618   4.331 -0.4387 -0.2721  1.0679
 1023MOL0    Cl41081  10.508   8.608   4.234 -0.3262 -0.3057 -0.0932
 1023MOL0     C41082  10.783   8.800   4.928  0.3082 -0.0050  0.0826
 1023MOL0     C41083  10.765   8.672   4.975 -0.0802  0.7438  0.3257
 1023MOL0     O41084  10.536   8.541   5.142 -0.1649 -0.4912 -0.7184
 1023MOL0     C41085  10.474   8.275   5.160  0.3180 -0.1331 -0.5214
 1023MOL0     C41086  10.436   8.152   5.208  0.6091  0.6941  0.5812
 1023MOL0     N41087  10.116   7.547   5.443 -0.5129 -0.6462 -0.0726
 1023MOL0     N41088  10.027   7.577   5.535 -0.0978  0.1315  0.1468
 1023MOL0     C41089   9.447   8.095   6.177  1.2510  0.6454 -0.7087
 1023MOL0     C41090   9.442   8.166   6.300  0.5562  0.3126 -0.1758
 1023MOL0     C41091   9.394   8.115   6.780  0.4805  0.0221  0.7857
 1023MOL0     C41092   9.440   8.240   6.810  0.0053 -0.0962  0.4189
 1023MOL0     C41093   9.451   8.291   6.931 -0.3478 -0.7406  0.2714
 1023MOL0     C41094   9.430   8.209   7.048  0.3710  0.0094 -0.1009
 1023MOL0     O41095   9.437   8.244   7.183 -0.5298 -0.5894  1.0184
 1023MOL0     C41096   9.445   8.387   7.210 -0.5992 -1.4530  0.5696
 1023MOL0     C41097   9.301   8.459   7.194 -0.1334 -0.0455  0.2989
 1023MOL0     C41098   9.183   8.383   7.258 -0.4568 -0.8444  0.1992
 1023MOL0     C41099   9.056   8.458   7.229 -0.5829  0.6565  0.2908
 1023MOL0     C41100   8.926   8.390   7.257  0.8900  0.2603 -0.4749
 1023MOL0     C41101   8.829   8.313   7.279  0.1651  0.0218 -0.1260
 1023MOL0     C41102   9.376   8.078   7.022 -1.0794 -0.2333 -0.2819
 1023MOL0     C41103   9.351   8.038   6.890  0.2247  0.1890 -0.5358
 1023MOL0     C41104   9.286   7.904   6.871 -0.0154  1.0182  0.2885
 1023MOL0     H41105   9.259   7.941   6.472  3.5717 -1.7339 -0.3708
 1023MOL0     H41106   9.255   7.828   6.235  1.0039 -0.3718  1.3845
 1023MOL0     H41107   9.474   8.015   5.905 -0.2341 -0.1932  0.0139
 1023MOL0     H41108   9.321   8.070   5.922  0.5158  0.4775  1.3476
 1023MOL0     H41109   9.234   7.879   5.783 -0.2423 -3.2257  4.4437
 1023MOL0     H41110   9.387   7.941   5.704 -2.8094  0.0920 -1.6185
 1023MOL0     H41111   9.403   7.708   5.890  0.1972  2.9006  1.8544
 1023MOL0     H41112   9.361   7.696   5.714 -0.8632  1.2107  0.6685
 1023MOL0     H41113   9.592   7.817   5.675  2.1841 -2.7794 -1.1398
 1023MOL0     H41114   9.602   7.832   5.856 -1.1797  1.3391 -1.2620
 1023MOL0     H41115   9.636   7.598   5.666  3.3579  2.0876 -1.8980
 1023MOL0     H41116   9.596   7.568   5.841 -3.9146  0.7098  0.5208
 1023MOL0     H41117   9.832   7.720   5.711 -0.1415 -1.7433 -1.4265
 1023MOL0     H41118   9.788   7.709   5.893  2.0809 -0.2134  0.1119
 1023MOL0     H41119   9.836   7.455   5.722  2.6181 -0.9994 -0.4284
 1023MOL0     H41120   9.841   7.483   5.898 -1.6707  0.9734  0.9066
 1023MOL0     H41121  10.051   7.628   5.848  1.3602 -0.6712 -0.0391
 1023MOL0     H41122  10.057   7.453   5.840 -1.2792 -0.0139  1.6502
 1023MOL0     H41123  10.289   7.475   5.718  2.1457  0.2398 -1.3377
 1023MOL0     H41124  10.359   7.446   5.342 -0.8499  1.9065  0.4788
 1023MOL0     H41125  10.444   7.486   5.485  1.7590 -2.1179 -1.6975
 1023MOL0     H41126  10.475   7.653   5.287 -0.3655  0.7454  0.6467
 1023MOL0     H41127  10.305   7.716   5.314  0.7057  2.7961 -0.0425
 1023MOL0     H41128  10.353   7.802   5.512 -1.0804  1.3840 -0.2517
 1023MOL0     H41129  10.498   7.700   5.534  0.6557 -1.4007 -1.8685
 1023MOL0     H41130  10.557   7.934   5.493  2.7310  2.8832 -2.3470
 1023MOL0     H41131  10.627   7.824   5.368  1.5722  2.1538  0.5568
 1023MOL0     H41132  10.693   8.072   5.412  0.9527  0.6889  0.6916
 1023MOL0     H41133  10.868   8.332   5.268 -2.0033 -3.2451 -2.3725
 1023MOL0     H41134  10.870   8.248   5.417  1.1765  1.0074  1.0621
 1023MOL0     H41135  10.782   8.405   5.412  0.0177 -0.8373  1.0937
 1023MOL0     H41136  10.798   8.729   5.305 -0.9749 -2.3909 -0.9130
 1023MOL0     H41137  10.812   8.947   5.242  0.0975 -0.6111  0.2952
 1023MOL0     H41138  10.646   9.005   4.861  1.0372 -0.9145  0.9613
 1023MOL0     H41139  10.658   9.173   4.914  1.2144  1.8375 -1.6487
 1023MOL0     H41140  10.867   9.211   4.777  0.4082  0.5795 -0.1461
 1023MOL0     H41141  10.894   9.034   4.757 -0.0265 -0.1543 -0.6679
 1023MOL0     H41142  10.791   9.192   4.559 -1.3025  0.5899 -0.4708
 1023MOL0     H41143  10.644   9.143   4.628  0.1106 -0.2558  0.5691
 1023MOL0     H41144  10.693   8.919   4.615  1.0530 -3.7799 -2.6862
 1023MOL0     H41145  10.854   8.953   4.532  1.3579  2.2564  3.1165
 1023MOL0     H41146  10.556   9.006   4.427 -0.6387 -2.7257 -0.9135
 1023MOL0     H41147  10.705   9.080   4.354 -2.5329 -1.1491 -2.7064
 1023MOL0     H41148  10.783   8.871   4.283 -0.7784 -2.0700 -1.2226
 1023MOL0     H41149  10.609   8.862   4.274 -0.6526 -0.2184  0.6195
 1023MOL0     H41150  10.577   8.745   4.484 -0.3659 -1.2101 -0.7680
 1023MOL0     H41151  10.749   8.725   4.490 -1.2135  3.1938  2.0994
 1023MOL0     H41152  10.671   8.534   4.399 -0.6266 -2.0689 -1.0025
 1023MOL0     H41153  10.742   8.617   4.269  3.1081  0.7045  5.5828
 1023MOL0     H41154  10.771   8.825   4.823  1.1805 -0.7695 -0.2124
 1023MOL0     H41155  10.738   8.596   4.902 -2.9965  0.2597  1.7680
 1023MOL0     H41156  10.409   8.330   5.093 -0.2834  2.4235  1.9472
 1023MOL0     H41157  10.347   8.110   5.162  1.7524 -1.0978 -0.1506
 1023MOL0     H41158   9.500   8.135   6.091  2.9479 -2.1072 -1.0720
 1023MOL0     H41159   9.496   8.259   6.314  0.6253  0.1810  0.4891
 1023MOL0     H41160   9.485   8.299   6.731 -0.9503  0.1311  0.0228
 1023MOL0     H41161   9.489   8.392   6.944 -5.0243  1.1413  0.9496
 1023MOL0     H41162   9.461   8.401   7.318  0.0939 -0.5400  0.3674
 1023MOL0     H41163   9.520   8.435   7.146 -1.6880 -1.5381 -0.8044
 1023MOL0     H41164   9.279   8.452   7.087 -2.8692 -0.0418  0.8001
 1023MOL0     H41165   9.311   8.564   7.222 -1.1715  0.6139 -1.6755
 1023MOL0     H41166   9.174   8.287   7.207  1.7638  0.6178 -3.3200
 1023MOL0     H41167   9.204   8.390   7.366  2.0250 -1.9741 -0.1349
 1023MOL0     H41168   9.052   8.486   7.124  0.0242  2.1089  0.6429
 1023MOL0     H41169   9.058   8.553   7.282 -2.5347  0.6159  0.5214
 1023MOL0     H41170   8.741   8.253   7.294 -1.7143  2.1434 -1.9806
 1023MOL0     H41171   9.346   8.025   7.111 -1.6782  2.1428  1.0112
 1023MOL0     H41172   9.207   7.894   6.946 -1.5474 -0.9936 -1.4683
 1023MOL0     H41173   9.229   7.898   6.778 -0.9238  0.5171  0.8634
 1023MOL0     H41174   9.360   7.825   6.887  1.3966  2.6062  2.0337
 1024MOL0     O41175   2.860   3.571  10.356 -0.1021 -0.1337  0.3194
 1024MOL0     C41176   2.761   3.647  10.338  1.0394 -0.5647 -0.1818
 1024MOL0     O41177   2.762   3.790  10.312 -0.7347 -0.2410  0.6443
 1024MOL0     C41178   2.865   3.871  10.314 -0.2612 -0.7239 -0.5000
 1024MOL0     C41179   2.849   3.998  10.361  0.1469 -0.3316  0.2912
 1024MOL0     C41180   2.954   4.094  10.370 -0.3423 -0.4835  0.1601
 1024MOL0     C41181   3.085   4.061  10.332 -0.2588 -0.0494  0.4420
 1024MOL0     O41182   3.172   4.164  10.337  0.4632 -0.3459 -0.3765
 1024MOL0     C41183   3.310   4.145  10.319  0.1272 -0.0976  1.1560
 1024MOL0     C41184   3.370   4.101  10.451  0.1914  0.4402 -1.1784
 1024MOL0     C41185   3.369   4.225  10.549  1.0782  0.6555 -0.1980
 1024MOL0     C41186   3.405   4.188  10.691  0.1356  0.2757  0.0389
 1024MOL0     C41187   3.320   4.087  10.763 -0.2349 -0.6850 -0.3739
 1024MOL0     C41188   3.348   4.048  10.909  0.4819 -0.5396 -1.4223
 1024MOL0     C41189   3.493   4.012  10.925  0.8211 -0.5377 -0.4582
 1024MOL0     C41190   3.535   4.004  11.080 -0.2352 -0.1444 -0.9253
 1024MOL0     N41191   3.680   3.991  11.080  0.0644  0.4482 -0.4242
 1024MOL0     C41192   3.742   3.873  11.067  1.1454 -0.6758  0.1702
 1024MOL0     C41193   3.876   3.899  11.081  1.2507  0.5952 -0.6198
 1024MOL0     C41194   3.971   3.785  11.103 -0.7306 -0.3418 -0.0502
 1024MOL0     C41195   4.086   3.832  11.207  1.2237  0.0182 -0.0792
 1024MOL0     C41196   4.200   3.908  11.140 -0.6583 -0.3109  0.1377
 1024MOL0     C41197   4.326   3.917  11.234 -0.3628  0.9467 -0.2289
 1024MOL0     O41198   4.379   3.791  11.289  0.1994 -0.6164  0.2227
 1024MOL0     C41199   4.446   3.707  11.208  0.5193  0.6939 -0.1403
 1024MOL0     C41200   4.494   3.597  11.276  0.6876  0.3251  0.0764
 1024MOL0     C41201   4.557   3.483  11.210 -0.2372  0.0305 -1.0007
 1024MOL0     C41202   4.574   3.362  11.304  0.4910 -0.8671 -0.5359
 1024MOL0     C41203   4.588   3.484  11.070 -0.3714 -0.2370 -0.1350
 1024MOL0     C41204   4.656   3.366  11.003 -0.8403  0.3158  0.3003
 1024MOL0     O41205   4.663   3.369  10.869 -0.3230  0.4566 -0.8523
 1024MOL0     C41206   4.734   3.258  10.809  0.8887 -1.1007  0.0361
 1024MOL0     C41207   4.854   3.222  10.853 -1.0275  0.8514 -0.3886
 1024MOL0     C41208   4.904   3.097  10.809  0.8213  1.0912  0.9732
 1024MOL0     C41209   4.854   3.038  10.690  0.0614 -0.1872 -0.8917
 1024MOL0     O41210   4.917   2.934  10.628  0.0264  0.3158  0.1220
 1024MOL0     C41211   4.980   2.831  10.710 -0.2910 -0.8501  0.2429
 1024MOL0     C41212   5.026   2.720  10.608 -0.3817 -0.4882  0.5621
 1024MOL0     C41213   5.117   2.617  10.665  0.4305 -0.0144 -0.5682
 1024MOL0     C41214   5.062   2.537  10.783  0.9768 -0.2713  0.2484
 1024MOL0     C41215   5.171   2.444  10.848  0.8236 -0.3310 -0.5421
 1024MOL0     C41216   5.099   2.329  10.936  0.2741 -0.4980  0.6163
 1024MOL0     C41217   5.034   2.366  11.070 -0.3164  0.6154  0.7391
 1024MOL0     C41218   5.039   2.237  11.157  0.2227  0.5352 -0.6265
 1024MOL0    Cl41219   4.955   2.268  11.317  0.5029  0.1090  0.2947
 1024MOL0     C41220   4.729   3.079  10.639  1.0031  1.8279 -0.1692
 1024MOL0     C41221   4.670   3.191  10.699  0.4348  1.0019  0.4951
 1024MOL0     O41222   4.696   3.273  11.081  0.5878 -0.2432  0.3830
 1024MOL0     C41223   4.546   3.600  10.998 -0.3517 -0.3182  0.0170
 1024MOL0     C41224   4.473   3.707  11.070 -0.5974  0.3344  0.3413
 1024MOL0     N41225   3.891   4.041  11.101  0.3334  0.5895 -0.5551
 1024MOL0     N41226   3.769   4.093  11.099 -0.1504  0.0162  0.6833
 1024MOL0     C41227   3.100   3.928  10.279  0.2848  0.2528  0.4065
 1024MOL0     C41228   2.998   3.830  10.290  1.3484  0.6489 -0.3388
 1024MOL0     C41229   2.633   3.575  10.339 -0.1141  0.4639  0.1769
 1024MOL0     C41230   2.633   3.443  10.303 -0.8680 -0.1967  0.6374
 1024MOL0     C41231   2.517   3.361  10.310 -0.6377  0.0900 -0.8096
 1024MOL0     C41232   2.393   3.406  10.349  0.8079  0.2309 -0.2196
 1024MOL0     O41233   2.278   3.318  10.355  0.2055 -0.3630 -0.0149
 1024MOL0     C41234   2.285   3.191  10.295  0.4505 -0.5755  0.9483
 1024MOL0     C41235   2.288   3.198  10.139 -0.2288 -0.3919  0.3435
 1024MOL0     C41236   2.273   3.058  10.068  0.8966 -1.1302  0.8210
 1024MOL0     C41237   2.362   2.949  10.108 -0.1760 -0.0502 -0.6764
 1024MOL0     C41238   2.502   2.983  10.094  0.5514  0.4555 -1.3464
 1024MOL0     C41239   2.621   2.987  10.073  0.1539  0.7993  0.2228
 1024MOL0     C41240   2.396   3.537  10.385  0.7434 -0.6926  0.8525
 1024MOL0     C41241   2.509   3.623  10.384  0.5974  0.6616 -0.6296
 1024MOL0     C41242   2.487   3.771  10.420 -0.0142  0.8717  0.1609
 1024MOL0     H41243   2.746   4.025  10.384  0.2650  1.2409 -0.8417
 1024MOL0     H41244   2.941   4.199  10.397  1.1865 -0.4160  0.6897
 1024MOL0     H41245   3.353   4.239  10.285 -3.1115  1.1125  0.0051
 1024MOL0     H41246   3.335   4.064  10.249  3.2175  2.7155 -1.2914
 1024MOL0     H41247   3.313   4.014  10.486  0.7517 -0.8624 -3.3443
 1024MOL0     H41248   3.471   4.064  10.434 -0.5371 -1.8652 -0.8258
 1024MOL0     H41249   3.447   4.298  10.525 -0.1951  1.9091 -0.6576
 1024MOL0     H41250   3.270   4.271  10.547  0.9804  0.4698  0.2269
 1024MOL0     H41251   3.505   4.143  10.686 -0.3547 -1.0120  1.3970
 1024MOL0     H41252   3.411   4.275  10.757 -0.1936 -2.1561  3.5531
 1024MOL0     H41253   3.329   3.998  10.701  0.1846 -1.8096  1.2556
 1024MOL0     H41254   3.214   4.115  10.758 -1.2148 -4.0475 -0.5020
 1024MOL0     H41255   3.323   4.136  10.970  1.1308  0.5572 -2.6983
 1024MOL0     H41256   3.289   3.963  10.943  3.0245 -1.9619 -0.2323
 1024MOL0     H41257   3.549   4.098  10.888  0.3190 -0.3256 -0.7295
 1024MOL0     H41258   3.531   3.922  10.875  0.2547 -0.2034 -1.4984
 1024MOL0     H41259   3.517   4.093  11.141  2.5581 -0.7785  0.9940
 1024MOL0     H41260   3.490   3.914  11.124 -1.1232 -0.4063 -2.3266
 1024MOL0     H41261   3.684   3.783  11.047  1.2266 -0.1624 -2.8337
 1024MOL0     H41262   4.019   3.767  11.006 -1.1654 -0.4490 -0.2461
 1024MOL0     H41263   3.920   3.702  11.152  2.5533 -2.4093  0.1145
 1024MOL0     H41264   4.042   3.894  11.286 -0.7617 -1.2671 -0.0879
 1024MOL0     H41265   4.110   3.738  11.258 -1.6139 -0.4561  0.5672
 1024MOL0     H41266   4.220   3.865  11.042 -1.7787  2.9285 -1.6615
 1024MOL0     H41267   4.163   4.008  11.115  1.4289  0.6068  0.5564
 1024MOL0     H41268   4.402   3.974  11.180 -0.1494  0.8621 -0.0174
 1024MOL0     H41269   4.286   3.982  11.312 -0.7851  2.5603 -1.7386
 1024MOL0     H41270   4.480   3.594  11.384  2.2323 -1.3087  0.2834
 1024MOL0     H41271   4.515   3.279  11.266 -0.6747 -0.7174  0.8834
 1024MOL0     H41272   4.541   3.393  11.403 -0.8799 -2.0512 -0.6051
 1024MOL0     H41273   4.679   3.339  11.326  1.5710  1.7529 -2.3464
 1024MOL0     H41274   4.909   3.267  10.935  0.3719  0.1152 -0.8779
 1024MOL0     H41275   4.993   3.078  10.868  0.4942 -0.5831  0.9666
 1024MOL0     H41276   5.065   2.860  10.773 -0.5401 -1.7450  1.0125
 1024MOL0     H41277   4.910   2.789  10.783 -0.1704 -0.1758  0.7529
 1024MOL0     H41278   4.936   2.675  10.567  0.6948 -2.2629  0.0380
 1024MOL0     H41279   5.075   2.766  10.522  0.6755  1.1769  1.9825
 1024MOL0     H41280   5.206   2.676  10.688  0.0647  0.8420 -1.2876
 1024MOL0     H41281   5.123   2.541  10.586 -0.9068  1.6857 -2.4187
 1024MOL0     H41282   4.993   2.465  10.738  1.8200 -1.3728  0.6704
 1024MOL0     H41283   5.006   2.596  10.857  0.4288  3.0611 -2.5371
 1024MOL0     H41284   5.234   2.402  10.769  0.7294  2.5916 -2.3191
 1024MOL0     H41285   5.232   2.512  10.909  5.3052 -2.8065 -1.8198
 1024MOL0     H41286   5.187   2.283  10.982  0.2429  4.3521  6.8200
 1024MOL0     H41287   5.052   2.249  10.877  1.4949  0.9543 -2.5947
 1024MOL0     H41288   4.933   2.407  11.061 -2.4800 -4.0074  0.6788
 1024MOL0     H41289   5.101   2.442  11.109  1.4412 -0.7134  0.4741
 1024MOL0     H41290   5.140   2.203  11.180  0.1992 -0.2859 -1.6880
 1024MOL0     H41291   4.994   2.149  11.110 -0.1158  2.4782 -4.2681
 1024MOL0     H41292   4.705   3.040  10.541  4.5663  2.6371 -1.5439
 1024MOL0     H41293   4.586   3.249  10.662  0.3758  3.4432  3.9245
 1024MOL0     H41294   4.567   3.619  10.893 -2.1973 -1.9641 -0.7136
 1024MOL0     H41295   4.446   3.794  11.010 -0.2369  0.5097  0.4303
 1024MOL0     H41296   3.191   3.906  10.224  0.7687 -0.0001  1.2988
 1024MOL0     H41297   3.028   3.728  10.266  1.0331  0.0114  1.7389
 1024MOL0     H41298   2.717   3.385  10.267 -0.4306 -2.1975  4.3435
 1024MOL0     H41299   2.526   3.257  10.280 -1.3668 -1.0539  2.6015
 1024MOL0     H41300   2.366   3.133  10.340  0.9823 -0.8328 -0.3016
 1024MOL0     H41301   2.190   3.149  10.331 -3.2932  5.4934 -0.4376
 1024MOL0     H41302   2.379   3.243  10.098 -0.6223  0.2215  0.1235
 1024MOL0     H41303   2.208   3.262  10.099 -1.5978 -1.9028  0.5507
 1024MOL0     H41304   2.173   3.017  10.086  0.0468  0.6745  0.4588
 1024MOL0     H41305   2.272   3.067   9.959  0.1396 -1.3685  0.8000
 1024MOL0     H41306   2.340   2.861  10.047  1.6227  0.3452 -1.9616
 1024MOL0     H41307   2.346   2.922  10.213  1.3125  1.9300  0.1050
 1024MOL0     H41308   2.724   3.003  10.051  0.1156  0.5185 -0.1577
 1024MOL0     H41309   2.300   3.575  10.416  1.8155  1.6281  1.5262
 1024MOL0     H41310   2.450   3.824  10.332 -0.0222  2.1467  0.9014
 1024MOL0     H41311   2.416   3.787  10.502  0.5562 -0.3541  0.9242
 1024MOL0     H41312   2.577   3.821  10.458  0.3001 -0.5689  1.4086
  11.55630  11.55630  11.55630
